Gromacs Runs On Most of All Computer Systems in water
11622
    1U      O5'    1   2.927   2.516   4.570  0.2437  0.3167 -0.1094
    1U      H5T    2   2.980   2.589   4.604 -0.6636  1.4454 -1.0674
    1U      C5'    3   2.897   2.547   4.435  0.1953  0.2966 -0.4240
    1U     H5'1    4   2.992   2.564   4.384  0.8945  0.2218  0.8303
    1U     H5'2    5   2.861   2.650   4.444  1.8566  0.8715 -0.2071
    1U      C4'    6   2.792   2.449   4.367  0.2306  0.0186 -0.3253
    1U      H4'    7   2.774   2.483   4.266  1.1096  1.0392 -0.1491
    1U      O4'    8   2.850   2.319   4.343 -0.1759 -0.0318 -0.3775
    1U      C1'    9   2.762   2.218   4.384  0.0410  0.1182 -0.0100
    1U      H1'   10   2.687   2.189   4.310  0.4480 -2.4282  0.5406
    1U       N1   11   2.846   2.097   4.420  0.0137  0.2337  0.2641
    1U       C6   12   2.982   2.101   4.444  0.0347  0.5625 -0.3268
    1U       H6   13   3.032   2.195   4.426  1.8643  0.0189  1.6739
    1U       C5   14   3.053   1.989   4.465 -0.4557 -0.1593  0.3225
    1U       H5   15   3.160   1.994   4.477 -0.2889 -1.9559 -0.3473
    1U       C4   16   2.983   1.861   4.480 -0.3925  0.7874  0.4662
    1U       O4   17   3.036   1.749   4.503 -0.1024  0.5298  0.1333
    1U       N3   18   2.847   1.859   4.460 -0.1511  0.1068 -0.0086
    1U       H3   19   2.800   1.770   4.472  1.3887 -1.0003 -1.9769
    1U       C2   20   2.769   1.976   4.424 -0.0368  0.2639 -0.4055
    1U       O2   21   2.651   1.963   4.395  0.0237 -0.3440  0.0099
    1U      C3'   22   2.665   2.427   4.453 -0.3132 -0.2991  0.3520
    1U      H3'   23   2.662   2.499   4.535 -0.3043  0.0855  0.0172
    1U      C2'   24   2.692   2.285   4.503 -0.0227  0.0485  0.0342
    1U     H2'1   25   2.759   2.284   4.589 -0.0766  0.1588  0.0777
    1U      O2'   26   2.572   2.213   4.530  0.0426 -0.2749 -0.1171
    1U     HO'2   27   2.503   2.278   4.516  0.6943  0.2591 -0.8416
    1U      O3'   28   2.550   2.431   4.377  0.2440 -0.2186  0.3881
    2RG3      P   29   2.489   2.559   4.301  0.2188 -0.0623 -0.1024
    2RG3    O1P   30   2.363   2.514   4.241 -0.0122 -0.2520  0.6947
    2RG3    O2P   31   2.584   2.629   4.215 -0.6629  0.7272  0.2926
    2RG3    O5'   32   2.455   2.656   4.418 -0.2402  0.0003  0.0789
    2RG3    C5'   33   2.360   2.763   4.414 -0.1395  0.1286 -0.1218
    2RG3   H5'1   34   2.257   2.727   4.416 -0.2824  0.5807  0.7269
    2RG3   H5'2   35   2.375   2.827   4.327 -1.6451  0.3299 -0.2445
    2RG3    C4'   36   2.371   2.869   4.532  0.1963 -0.3498 -0.1947
    2RG3    H4'   37   2.307   2.956   4.521 -0.6990 -1.0627 -0.7123
    2RG3    O4'   38   2.335   2.801   4.654  0.2965 -0.8508  0.1606
    2RG3    C1'   39   2.447   2.768   4.735 -0.2490 -0.1768  0.3768
    2RG3    H1'   40   2.444   2.830   4.825 -1.4688 -0.3711  0.4745
    2RG3     N9   41   2.441   2.622   4.756  0.5291 -0.4178 -0.1838
    2RG3     C8   42   2.346   2.527   4.710  0.0743 -0.7918 -0.4054
    2RG3     H8   43   2.252   2.549   4.662 -0.3475 -0.8519  0.3836
    2RG3     N7   44   2.386   2.400   4.725  0.4092  0.3839 -0.4483
    2RG3     C5   45   2.507   2.416   4.792 -0.7353 -0.3465 -0.6095
    2RG3     C6   46   2.598   2.310   4.835 -0.1290  0.3045 -0.1559
    2RG3     O6   47   2.588   2.189   4.840  0.1619  0.5780  0.1723
    2RG3     N1   48   2.712   2.359   4.896  0.1790 -0.4594 -0.5308
    2RG3     H1   49   2.785   2.295   4.922  1.0858  0.3503 -1.0616
    2RG3     C2   50   2.743   2.495   4.898  0.0110  0.6438  0.1883
    2RG3     N2   51   2.855   2.534   4.957 -0.0573 -0.2339 -0.5379
    2RG3    H21   52   2.932   2.471   4.971 -0.3217 -0.0055  2.2267
    2RG3    H22   53   2.867   2.634   4.963  0.1849 -0.3328  0.6895
    2RG3     N3   54   2.658   2.594   4.868  0.4791  0.3847 -0.2522
    2RG3     C4   55   2.540   2.548   4.816 -0.1632 -0.2083  0.1529
    2RG3    C3'   56   2.514   2.913   4.558  0.0216 -0.1593 -0.1233
    2RG3    H3'   57   2.564   2.909   4.462  0.3600 -1.6827  0.1068
    2RG3    C2'   58   2.571   2.812   4.654 -0.9568  0.1853 -0.2350
    2RG3   H2'1   59   2.610   2.732   4.591  0.3660  0.8857 -0.3272
    2RG3    O2'   60   2.670   2.857   4.750  0.4843 -0.3034  0.2195
    2RG3   HO'2   61   2.690   2.786   4.811  0.7797  0.8913  1.5365
    2RG3    O3'   62   2.504   3.043   4.611 -0.3865  0.3560  0.4325
    2RG3    H3T   63   2.593   3.074   4.626 -0.5015  0.8826 -0.0046
    3RG35     P   64   3.309   2.944   4.640 -0.2384  0.3912  0.2643
    3RG35   O1P   65   3.417   3.004   4.717  0.3483  0.0583  0.1912
    3RG35   O2P   66   3.316   2.976   4.497  0.3781 -0.1503  0.0885
    3RG35   O5'   67   3.325   2.789   4.639  0.0196  0.2798 -0.4408
    3RG35   C5'   68   3.443   2.728   4.594  0.1479 -0.0216 -0.5829
    3RG35  H5'1   69   3.514   2.772   4.664  0.5941  1.6180 -2.0272
    3RG35  H5'2   70   3.470   2.756   4.492 -0.0208 -0.3324 -0.7131
    3RG35   C4'   71   3.447   2.580   4.590 -0.1606 -0.5742  0.1012
    3RG35   H4'   72   3.545   2.555   4.549  0.2360 -0.6014  1.0554
    3RG35   O4'   73   3.434   2.508   4.709 -0.6594 -0.0420  0.3916
    3RG35   C1'   74   3.397   2.375   4.672 -0.6548 -0.2606 -0.8067
    3RG35   H1'   75   3.474   2.299   4.688 -0.6257 -0.7049 -2.9434
    3RG35    N9   76   3.284   2.341   4.760  0.0239 -0.0516 -0.2359
    3RG35    C8   77   3.208   2.425   4.838 -0.8301  0.2052 -0.5560
    3RG35    H8   78   3.225   2.530   4.857  0.7399 -0.2523  0.6690
    3RG35    N7   79   3.103   2.370   4.897 -0.0903 -0.1834  0.4402
    3RG35    C5   80   3.114   2.235   4.859  0.0525  0.1195 -0.5045
    3RG35    C6   81   3.025   2.123   4.889  0.0975  0.2011  0.3804
    3RG35    O6   82   2.911   2.130   4.938 -0.0127  0.1347  0.8691
    3RG35    N1   83   3.078   2.003   4.850  0.7283  0.0933  0.1955
    3RG35    H1   84   3.025   1.918   4.864  1.2187 -0.2636 -0.1172
    3RG35    C2   85   3.194   1.999   4.776  0.1785 -0.2850  0.0366
    3RG35    N2   86   3.218   1.883   4.730 -0.5921 -0.5692 -0.4239
    3RG35   H21   87   3.157   1.806   4.752  0.4208 -1.4126 -0.5696
    3RG35   H22   88   3.302   1.868   4.677 -1.0064 -1.2034 -0.9172
    3RG35    N3   89   3.276   2.098   4.742 -0.0281 -0.2124 -0.0325
    3RG35    C4   90   3.229   2.218   4.785 -0.0781 -0.1418  0.1394
    3RG35   C3'   91   3.331   2.524   4.501  0.1351 -0.3996 -0.3282
    3RG35   H3'   92   3.243   2.565   4.551  0.7450 -1.3223  1.5695
    3RG35   C2'   93   3.349   2.369   4.531  0.5535 -0.6265  0.3706
    3RG35  H2'1   94   3.256   2.317   4.507  1.3277 -1.3447 -1.1740
    3RG35   O2'   95   3.459   2.319   4.460 -0.2886  0.5165 -0.0820
    3RG35  HO'2   96   3.543   2.340   4.502 -0.9965  1.3869  0.9522
    3RG35   O3'   97   3.337   2.556   4.367 -0.0880 -0.3162 -0.3703
    3RG35   H3T   98   3.288   2.639   4.361 -1.4768 -0.8986  2.0036
    3RG35   O3P   99   3.174   2.968   4.698  0.0789 -0.8853  0.0778
    7SOL     OW  100   0.557   0.444   0.467 -0.1907  0.1747  0.0473
    7SOL    HW2  101   0.565   0.521   0.410  1.3553 -0.3626 -0.4810
    7SOL    HW3  102   0.470   0.409   0.447 -0.1958  0.7625 -1.0136
    7SOL    MW4  103   0.546   0.450   0.457  0.0126  0.1813 -0.1624
    8SOL     OW  104   4.144   0.086   0.501 -0.2588 -0.2168 -0.0352
    8SOL    HW2  105   4.225   0.110   0.456  0.2638 -0.3517  0.8175
    8SOL    HW3  106   4.084   0.158   0.483 -0.2803 -0.5869 -1.4981
    8SOL    MW4  107   4.147   0.099   0.493 -0.1931 -0.2834 -0.1157
    9SOL     OW  108   3.347   0.522   0.520  0.1701  0.2911  0.1461
    9SOL    HW2  109   3.441   0.530   0.501  0.3908 -2.2100  0.0231
    9SOL    HW3  110   3.326   0.431   0.499 -1.9228  0.3444  1.8455
    9SOL    MW4  111   3.357   0.511   0.515 -0.0770 -0.0319  0.3541
   10SOL     OW  112   0.013   1.574   0.480  0.3488  0.1174  0.2233
   10SOL    HW2  113   0.014   1.576   0.575  2.0648 -1.9928  0.2979
   10SOL    HW3  114   0.084   1.514   0.457 -0.2196  0.3850 -2.3764
   10SOL    MW4  115   0.023   1.566   0.489  0.5002 -0.1256 -0.1099
   11SOL     OW  116   1.578   0.930   0.116  0.1274  0.3512 -0.6400
   11SOL    HW2  117   1.598   0.959   0.027  1.5678  0.6485 -0.2371
   11SOL    HW3  118   1.663   0.902   0.151 -0.8015 -1.9367 -0.1375
   11SOL    MW4  119   1.592   0.930   0.109  0.1949  0.0886 -0.5206
   12SOL     OW  120   0.008   0.035   0.542 -0.7688 -0.7230  0.2107
   12SOL    HW2  121  -0.002   0.080   0.626  2.3169 -0.2265  0.3816
   12SOL    HW3  122   0.036  -0.053   0.565 -1.9278 -1.2285 -0.2729
   12SOL    MW4  123   0.010   0.030   0.556 -0.5146 -0.7242  0.1695
   13SOL     OW  124   0.461   0.883   0.473  0.3331 -0.0314 -0.3209
   13SOL    HW2  125   0.523   0.951   0.445 -1.0237  1.5204  0.3434
   13SOL    HW3  126   0.462   0.889   0.569 -1.0378  0.1884 -0.3217
   13SOL    MW4  127   0.470   0.893   0.482 -0.0268  0.2024 -0.2334
   14SOL     OW  128   0.307   0.328   0.380  0.3661  0.4686  0.4616
   14SOL    HW2  129   0.327   0.349   0.289  1.1170  0.7600  0.6888
   14SOL    HW3  130   0.311   0.233   0.384  0.5016  0.4641  0.2367
   14SOL    MW4  131   0.310   0.319   0.368  0.4830  0.5065  0.4619
   15SOL     OW  132   0.709   1.022   0.378  0.3596 -0.1402  0.6058
   15SOL    HW2  133   0.785   1.019   0.437  1.1495  0.0742 -0.3962
   15SOL    HW3  134   0.737   0.976   0.299 -0.1001  1.0747 -0.2791
   15SOL    MW4  135   0.722   1.016   0.376  0.4033  0.0485  0.3568
   16SOL     OW  136   4.263   1.542   0.338 -0.3597  0.1859  0.3364
   16SOL    HW2  137   4.283   1.611   0.276 -0.3029 -0.7004 -0.6395
   16SOL    HW3  138   4.340   1.538   0.395  0.8004 -0.8787 -1.2687
   16SOL    MW4  139   4.275   1.550   0.338 -0.1988 -0.0715 -0.0041
   17SOL     OW  140   4.151   1.745   0.479 -0.2041  0.0304 -0.1154
   17SOL    HW2  141   4.070   1.768   0.432  0.7521  0.0962 -1.7687
   17SOL    HW3  142   4.185   1.670   0.431  0.4846 -0.2742  0.8580
   17SOL    MW4  143   4.145   1.739   0.466  0.0124 -0.0012 -0.2051
   18SOL     OW  144   4.472   1.849   0.382  0.0573 -0.3131  0.4932
   18SOL    HW2  145   4.458   1.765   0.424 -1.1508 -0.6418 -0.5068
   18SOL    HW3  146   4.437   1.837   0.293  0.9638  0.8713 -0.0399
   18SOL    MW4  147   4.465   1.837   0.376  0.0167 -0.2003  0.2909
   19SOL     OW  148   3.542   2.408   0.146  0.5792  0.1900 -0.1242
   19SOL    HW2  149   3.487   2.345   0.192  0.7673  0.0695 -0.0626
   19SOL    HW3  150   3.515   2.402   0.054  0.4281  0.1958 -0.0794
   19SOL    MW4  151   3.531   2.399   0.140  0.5839  0.1748 -0.1101
   20SOL     OW  152   0.234   2.983   0.503  0.1412  0.2170 -0.2131
   20SOL    HW2  153   0.192   2.934   0.432  0.1245 -1.9730  1.2627
   20SOL    HW3  154   0.326   2.956   0.498  0.7264  2.2979 -1.2108
   20SOL    MW4  155   0.241   2.973   0.493  0.2162  0.2027 -0.1501
   21SOL     OW  156   4.435   3.645   0.126 -0.3625  0.0786  0.0949
   21SOL    HW2  157   4.431   3.550   0.122  0.9386 -0.0003  0.4420
   21SOL    HW3  158   4.351   3.671   0.165 -0.4785 -0.9584  0.5495
   21SOL    MW4  159   4.423   3.636   0.131 -0.2060 -0.0684  0.2006
   22SOL     OW  160   0.473   3.284   0.468 -0.1951  0.4005 -0.4193
   22SOL    HW2  161   0.477   3.264   0.562 -0.1898 -0.4037 -0.5923
   22SOL    HW3  162   0.542   3.230   0.429 -0.8911 -0.0401 -1.0311
   22SOL    MW4  163   0.483   3.274   0.476 -0.2862  0.2363 -0.5229
   23SOL     OW  164   1.122   3.253   0.314 -0.3282  0.3120  0.3057
   23SOL    HW2  165   1.097   3.346   0.310  1.1987  0.8431  2.3508
   23SOL    HW3  166   1.191   3.244   0.248 -1.7349  0.1889 -1.1814
   23SOL    MW4  167   1.128   3.264   0.305 -0.3122  0.3660  0.3793
   24SOL     OW  168   0.793   3.595   0.462  0.1932 -0.5391 -0.5367
   24SOL    HW2  169   0.758   3.585   0.551  2.5550 -1.0540  0.3872
   24SOL    HW3  170   0.780   3.688   0.442  0.5949 -0.1719  0.8046
   24SOL    MW4  171   0.787   3.606   0.471  0.5578 -0.5586 -0.2378
   25SOL     OW  172   4.264   3.435   0.449  0.2474 -0.4097 -0.4907
   25SOL    HW2  173   4.295   3.458   0.536  2.5614 -1.0445 -1.1042
   25SOL    HW3  174   4.177   3.397   0.463  0.1881  0.4047  1.4186
   25SOL    MW4  175   4.257   3.433   0.462  0.5455 -0.3860 -0.3197
   26SOL     OW  176   0.318   3.600   0.166 -0.1523 -0.2085 -0.0364
   26SOL    HW2  177   0.339   3.577   0.075 -0.5389  0.3482 -0.2700
   26SOL    HW3  178   0.391   3.565   0.217 -0.5695 -1.6802 -0.4133
   26SOL    MW4  179   0.330   3.592   0.160 -0.2583 -0.3290 -0.1169
   27SOL     OW  180   0.570   4.616   0.336 -0.2171 -0.7211 -0.1454
   27SOL    HW2  181   0.591   4.671   0.411  0.9677  0.1365 -1.0770
   27SOL    HW3  182   0.633   4.545   0.340 -1.5987 -1.9278  0.9251
   27SOL    MW4  183   0.581   4.614   0.346 -0.2430 -0.7672 -0.1270
   28SOL     OW  184   0.388   4.446   0.487 -0.4353 -0.1542  1.0990
   28SOL    HW2  185   0.423   4.357   0.487 -1.7427 -0.6924 -0.0606
   28SOL    HW3  186   0.432   4.489   0.414 -2.2819 -0.8991 -0.5043
   28SOL    MW4  187   0.398   4.440   0.478 -0.8515 -0.3233  0.7345
   29SOL     OW  188   4.441   4.246   0.601 -0.0789  0.2800 -0.3372
   29SOL    HW2  189   4.465   4.185   0.671 -0.3077  1.8374  1.1436
   29SOL    HW3  190   4.363   4.292   0.635  0.7890  2.2171 -0.8861
   29SOL    MW4  191   4.434   4.244   0.615  0.0048  0.7410 -0.2143
   30SOL     OW  192   0.502   4.186   0.521 -0.4925 -0.2325 -0.3854
   30SOL    HW2  193   0.466   4.116   0.467 -0.3834 -0.7423  0.2086
   30SOL    HW3  194   0.507   4.150   0.609 -0.2076  0.4375 -0.1182
   30SOL    MW4  195   0.498   4.172   0.525 -0.4405 -0.2108 -0.2717
   31SOL     OW  196   0.637   0.135   0.527 -0.1388 -0.4444  0.1400
   31SOL    HW2  197   0.616   0.145   0.620 -0.6603 -0.3164  0.0152
   31SOL    HW3  198   0.620   0.222   0.490  1.5656 -0.0827  0.2041
   31SOL    MW4  199   0.632   0.148   0.535  0.0173 -0.3798  0.1320
   32SOL     OW  200   0.287   0.068   0.485  0.1173 -0.0165 -0.3422
   32SOL    HW2  201   0.327  -0.017   0.467 -0.3149  0.1260 -2.0567
   32SOL    HW3  202   0.193   0.049   0.492  0.1586  0.1216  0.5363
   32SOL    MW4  203   0.280   0.054   0.483  0.0657  0.0206 -0.4525
   33SOL     OW  204   4.368   0.249   0.430 -0.2888 -0.1048 -0.1320
   33SOL    HW2  205   4.419   0.169   0.442  1.1622  0.5272 -1.8840
   33SOL    HW3  206   4.421   0.317   0.473 -1.1786  0.0482  0.7423
   33SOL    MW4  207   4.382   0.248   0.437 -0.2151 -0.0013 -0.2478
   34SOL     OW  208   1.138   4.469   0.300  0.0180  0.4553  0.0151
   34SOL    HW2  209   1.072   4.421   0.351  0.8734 -0.0691  0.6353
   34SOL    HW3  210   1.099   4.477   0.213  0.0100 -1.7095 -0.2101
   34SOL    MW4  211   1.124   4.463   0.296  0.1298  0.1001  0.0672
   35SOL     OW  212   1.384   0.991   0.469 -0.6500 -0.6162 -0.3828
   35SOL    HW2  213   1.414   0.913   0.422  0.2275 -0.0111 -0.8458
   35SOL    HW3  214   1.370   0.961   0.559 -1.5545 -1.5987 -0.8376
   35SOL    MW4  215   1.386   0.976   0.475 -0.6536 -0.6661 -0.5039
   36SOL     OW  216   1.109   1.047   0.456 -0.3007  0.1786  0.2981
   36SOL    HW2  217   1.203   1.031   0.450 -0.1996 -0.5347  3.0599
   36SOL    HW3  218   1.069   0.966   0.425 -0.0145  0.3649 -0.5736
   36SOL    MW4  219   1.116   1.034   0.451 -0.2495  0.1092  0.5474
   37SOL     OW  220   0.170   0.905   0.420 -0.5421  0.1831  0.2849
   37SOL    HW2  221   0.128   0.833   0.373 -0.9514 -0.4624  1.6152
   37SOL    HW3  222   0.260   0.876   0.432 -0.6948 -0.0917  0.7788
   37SOL    MW4  223   0.176   0.892   0.415 -0.6163  0.0616  0.5256
   38SOL     OW  224   0.446   1.558   0.505  0.2230  0.4860 -0.2633
   38SOL    HW2  225   0.520   1.525   0.454 -0.5824  0.3117 -1.3421
   38SOL    HW3  226   0.369   1.519   0.464 -0.6280  2.3404 -0.4889
   38SOL    MW4  227   0.446   1.548   0.493  0.0045  0.7079 -0.4354
   39SOL     OW  228   0.249   1.429   0.347  0.0190  0.0635  0.2174
   39SOL    HW2  229   0.267   1.418   0.254 -3.4443 -0.1088 -0.5041
   39SOL    HW3  230   0.222   1.342   0.377  1.5668  0.0030  1.5179
   39SOL    MW4  231   0.248   1.416   0.339 -0.2338  0.0328  0.2938
   40SOL     OW  232   0.262   2.300   0.370  0.3557  0.0592  0.2826
   40SOL    HW2  233   0.350   2.336   0.362 -0.0595  0.9561 -0.2866
   40SOL    HW3  234   0.275   2.205   0.367  1.0961  0.2077 -2.1028
   40SOL    MW4  235   0.275   2.292   0.368  0.3987  0.1969 -0.1072
   41SOL     OW  236   0.390   2.649   0.475 -0.3785  0.3447  0.0596
   41SOL    HW2  237   0.299   2.670   0.456 -0.2139  0.4490 -0.6473
   41SOL    HW3  238   0.435   2.734   0.474 -0.1379  0.2159 -0.3895
   41SOL    MW4  239   0.384   2.663   0.472 -0.3251  0.3414 -0.0930
   42SOL     OW  240   3.469   2.680   0.233 -0.0557  0.5198  0.7687
   42SOL    HW2  241   3.487   2.589   0.211 -1.7784 -0.1128  1.7758
   42SOL    HW3  242   3.510   2.692   0.319  1.2481  1.0688  0.0644
   42SOL    MW4  243   3.477   2.669   0.242 -0.1111  0.5088  0.8087
   43SOL     OW  244   0.852   2.240   0.485  0.1967 -0.1352 -0.4473
   43SOL    HW2  245   0.844   2.310   0.550  2.1417 -0.1102 -0.2001
   43SOL    HW3  246   0.790   2.173   0.513 -0.6274  0.8666  0.1330
   43SOL    MW4  247   0.843   2.240   0.497  0.3446  0.0005 -0.3381
   44SOL     OW  248   0.533   2.422   0.483 -0.4147  0.0446 -0.5159
   44SOL    HW2  249   0.590   2.401   0.409 -0.5297  0.9510 -0.8650
   44SOL    HW3  250   0.508   2.514   0.469 -2.2718 -0.4614 -0.5666
   44SOL    MW4  251   0.537   2.432   0.471 -0.6749  0.0975 -0.5686
   45SOL     OW  252   0.166   3.256   0.490 -0.1660 -0.3478 -0.2178
   45SOL    HW2  253   0.250   3.300   0.477  0.0080 -0.0739  1.6547
   45SOL    HW3  254   0.189   3.163   0.501 -0.0953 -0.2647  0.3541
   45SOL    MW4  255   0.180   3.249   0.490 -0.1337 -0.3004  0.1047
   46SOL     OW  256   0.504   2.916   0.495  0.1181 -0.4672  1.0290
   46SOL    HW2  257   0.549   2.879   0.572  1.6025  0.9987  0.8910
   46SOL    HW3  258   0.566   2.980   0.460 -0.6418 -0.9660 -1.2775
   46SOL    MW4  259   0.518   2.919   0.501  0.2137 -0.3395  0.7064
   47SOL     OW  260   1.608   4.503   0.466 -0.2320  0.0887  0.0705
   47SOL    HW2  261   1.617   4.453   0.547 -2.0177  2.0603  1.5573
   47SOL    HW3  262   1.523   4.477   0.431 -0.6441  1.1561  0.2433
   47SOL    MW4  263   1.598   4.493   0.472 -0.5220  0.4892  0.2894
   48SOL     OW  264   0.276   3.676   0.462  0.3393 -0.2158 -0.8788
   48SOL    HW2  265   0.281   3.695   0.556 -1.3892 -1.5607 -0.4788
   48SOL    HW3  266   0.356   3.627   0.443  0.1657 -0.9065  0.1372
   48SOL    MW4  267   0.287   3.672   0.472  0.0883 -0.4845 -0.6920
   49SOL     OW  268   0.665   3.095   0.341  0.1341 -0.1503  0.2122
   49SOL    HW2  269   0.758   3.095   0.364  0.2609  2.1451 -0.1330
   49SOL    HW3  270   0.657   3.028   0.273  2.0004  1.1383 -1.3515
   49SOL    MW4  271   0.676   3.086   0.335  0.3971  0.3226 -0.0396
   50SOL     OW  272   1.274   3.192   0.545  0.1360 -0.4248 -0.0962
   50SOL    HW2  273   1.304   3.118   0.492 -0.1485 -0.7124  0.1431
   50SOL    HW3  274   1.210   3.236   0.489  0.7550 -0.0024 -0.4786
   50SOL    MW4  275   1.269   3.188   0.530  0.1800 -0.4072 -0.1150
   51SOL     OW  276   0.709   4.398   0.478 -0.3916 -0.7807  0.1644
   51SOL    HW2  277   0.656   4.318   0.487 -1.3615 -0.1578  0.1233
   51SOL    HW3  278   0.701   4.441   0.563 -0.1274 -0.5771  0.0841
   51SOL    MW4  279   0.701   4.393   0.490 -0.4847 -0.6709  0.1484
   52SOL     OW  280   1.067   3.532   0.342 -0.1233  0.6489 -0.2410
   52SOL    HW2  281   0.979   3.548   0.377 -0.0476 -2.0028  1.3336
   52SOL    HW3  282   1.123   3.594   0.389 -0.8572  0.9927  0.1933
   52SOL    MW4  283   1.062   3.542   0.353 -0.2102  0.3445  0.0241
   53SOL     OW  284   0.964   0.163   0.502  0.3315 -0.1267 -0.3035
   53SOL    HW2  285   0.884   0.143   0.455 -0.9145  1.4744  1.0560
   53SOL    HW3  286   0.943   0.144   0.594  1.2449  1.0119  0.1577
   53SOL    MW4  287   0.951   0.158   0.508  0.2876  0.2348 -0.0632
   54SOL     OW  288   1.692   0.638   0.421  0.1689  0.3010 -0.2030
   54SOL    HW2  289   1.645   0.555   0.434  0.6817  0.0999  0.3739
   54SOL    HW3  290   1.782   0.619   0.447 -0.1995  1.6771  2.2858
   54SOL    MW4  291   1.697   0.625   0.426  0.1880  0.4560  0.2015
   55SOL     OW  292   0.668   0.683   0.366 -0.0190 -0.3964  0.6408
   55SOL    HW2  293   0.604   0.752   0.383  2.3285  1.8116  0.7104
   55SOL    HW3  294   0.753   0.722   0.386  1.5229 -2.7664 -0.9357
   55SOL    MW4  295   0.671   0.697   0.371  0.4942 -0.4178  0.4420
   56SOL     OW  296   0.018   0.707   0.312  0.3833  0.2247 -0.1524
   56SOL    HW2  297  -0.076   0.718   0.303  0.5045  0.1737 -1.5814
   56SOL    HW3  298   0.030   0.615   0.335 -0.0650  0.8549  2.8628
   56SOL    MW4  299   0.007   0.697   0.314  0.3400  0.3011  0.0569
   57SOL     OW  300   1.643   0.346   0.491 -0.0114 -0.1572 -0.3886
   57SOL    HW2  301   1.600   0.261   0.504  0.3654 -0.2229  0.4516
   57SOL    HW3  302   1.652   0.382   0.579  0.1016  0.6232 -0.7205
   57SOL    MW4  303   1.639   0.339   0.504  0.0533 -0.0630 -0.3216
   58SOL     OW  304   1.997   0.931   0.418  0.1397 -0.5354  0.3197
   58SOL    HW2  305   1.951   0.914   0.500  0.3501  0.1377  0.5774
   58SOL    HW3  306   2.076   0.877   0.423 -0.2825 -1.1716  0.1720
   58SOL    MW4  307   2.001   0.922   0.429  0.1116 -0.5305  0.3342
   59SOL     OW  308   1.610   1.081   0.330  0.0294 -0.3294 -0.0823
   59SOL    HW2  309   1.558   1.044   0.401  0.2807 -0.1127  0.2155
   59SOL    HW3  310   1.581   1.034   0.252  0.1913 -1.0091  0.2619
   59SOL    MW4  311   1.600   1.070   0.329  0.0838 -0.3904  0.0024
   60SOL     OW  312   0.663   1.539   0.337 -0.5254  0.0341 -0.3719
   60SOL    HW2  313   0.684   1.455   0.379 -0.1010 -0.1149 -0.8804
   60SOL    HW3  314   0.735   1.597   0.360 -0.6514  0.1632 -0.2995
   60SOL    MW4  315   0.675   1.535   0.346 -0.4860  0.0315 -0.4295
   61SOL     OW  316   0.746   1.313   0.446 -0.0224  0.2556  0.0149
   61SOL    HW2  317   0.728   1.223   0.417  0.8821  0.5434 -1.4630
   61SOL    HW3  318   0.841   1.318   0.449 -0.0867  0.9351  0.8481
   61SOL    MW4  319   0.756   1.302   0.443  0.0885  0.3831 -0.0701
   62SOL     OW  320   1.803   1.366   0.516  0.3716 -0.5001 -0.3544
   62SOL    HW2  321   1.710   1.347   0.504  0.2369  1.0840 -2.0589
   62SOL    HW3  322   1.808   1.462   0.516  2.0057 -0.5738 -0.2709
   62SOL    MW4  323   1.792   1.376   0.515  0.5695 -0.3009 -0.5683
   63SOL     OW  324   1.037   1.316   0.490  0.0367  0.0408  0.0681
   63SOL    HW2  325   1.066   1.227   0.470 -0.5311 -0.0608 -0.3172
   63SOL    HW3  326   1.103   1.373   0.450 -0.4035 -0.1874 -1.0074
   63SOL    MW4  327   1.049   1.312   0.482 -0.0963 -0.0029 -0.1246
   64SOL     OW  328   1.080   1.876   0.381 -0.0691  0.7143  0.0771
   64SOL    HW2  329   1.161   1.824   0.382 -0.0447  0.7083 -1.0244
   64SOL    HW3  330   1.109   1.966   0.394  0.0123  0.6002  0.7069
   64SOL    MW4  331   1.094   1.881   0.383 -0.0551  0.6986  0.0149
   65SOL     OW  332   0.237   2.005   0.447  0.2001  0.1880 -0.7421
   65SOL    HW2  333   0.160   1.952   0.425  1.0517 -1.4483  0.1067
   65SOL    HW3  334   0.311   1.947   0.432  1.1681  1.1651  0.1535
   65SOL    MW4  335   0.236   1.990   0.442  0.4402  0.1010 -0.5119
   66SOL     OW  336   1.495   2.263   0.560  0.4797  0.4848  0.2390
   66SOL    HW2  337   1.522   2.283   0.470 -2.4158 -1.7790 -1.2101
   66SOL    HW3  338   1.402   2.285   0.562 -0.0166 -1.6742  1.9953
   66SOL    MW4  339   1.486   2.269   0.548  0.0322 -0.0987  0.2795
   67SOL     OW  340   0.725   2.398   0.274  0.2663 -0.0023 -0.1880
   67SOL    HW2  341   0.746   2.375   0.183  1.3980 -0.2840  0.1388
   67SOL    HW3  342   0.768   2.331   0.327 -0.3208  0.2054  0.5664
   67SOL    MW4  343   0.734   2.386   0.269  0.3381 -0.0122 -0.0454
   68SOL     OW  344   0.437   1.819   0.405  0.7706  0.7975  0.4519
   68SOL    HW2  345   0.454   1.809   0.311 -2.2688  2.6819 -0.3764
   68SOL    HW3  346   0.444   1.730   0.440 -0.1147 -0.2528 -1.9340
   68SOL    MW4  347   0.440   1.806   0.397  0.2528  0.9074  0.0279
   69SOL     OW  348   1.433   2.552   0.403  0.7460 -0.4136  0.0323
   69SOL    HW2  349   1.349   2.506   0.408  1.3687 -1.4963  0.7369
   69SOL    HW3  350   1.491   2.492   0.356 -0.0087  2.1057 -4.3442
   69SOL    MW4  351   1.429   2.538   0.398  0.7285 -0.2241 -0.4522
   70SOL     OW  352   0.706   1.990   0.492  0.3602 -0.1996  0.4379
   70SOL    HW2  353   0.765   1.914   0.493 -0.5477 -0.9531 -1.0353
   70SOL    HW3  354   0.628   1.959   0.446 -0.5267  1.2732  0.9220
   70SOL    MW4  355   0.704   1.976   0.486  0.1233 -0.1047  0.3074
   71SOL     OW  356   0.951   2.541   0.445 -0.1455  0.1608 -0.4006
   71SOL    HW2  357   0.909   2.517   0.528  1.0311 -0.4043  0.0481
   71SOL    HW3  358   0.890   2.513   0.378 -0.8498  0.0869  0.2650
   71SOL    MW4  359   0.938   2.534   0.447 -0.0831  0.0763 -0.2536
   72SOL     OW  360   0.913   3.107   0.446  0.2763  0.0302  0.2575
   72SOL    HW2  361   0.909   3.140   0.536 -1.4268  3.2183 -0.9039
   72SOL    HW3  362   0.984   3.158   0.405  0.9398 -1.2872 -0.2543
   72SOL    MW4  363   0.922   3.118   0.452  0.1391  0.2770  0.0368
   73SOL     OW  364   1.238   3.688   0.505 -0.5851 -0.3686 -0.2169
   73SOL    HW2  365   1.234   3.690   0.601 -1.5087  1.5293 -0.2790
   73SOL    HW3  366   1.332   3.691   0.485 -0.2940 -2.7864  0.6362
   73SOL    MW4  367   1.250   3.689   0.515 -0.6685 -0.4370 -0.1125
   74SOL     OW  368   0.920   4.044   0.486 -0.3635 -0.1078  0.4498
   74SOL    HW2  369   0.915   4.036   0.581 -2.1385 -0.2949  0.3548
   74SOL    HW3  370   0.930   4.138   0.470 -2.9801  0.2578  0.7425
   74SOL    MW4  371   0.921   4.055   0.496 -0.9429 -0.0844  0.4759
   75SOL     OW  372   0.694   3.862   0.495  0.4661 -0.1638  0.7175
   75SOL    HW2  373   0.772   3.916   0.485  0.5050 -0.2746  0.4309
   75SOL    HW3  374   0.693   3.841   0.589  1.1557 -0.7245  0.6054
   75SOL    MW4  375   0.704   3.866   0.506  0.5623 -0.2525  0.6649
   76SOL     OW  376   1.395   4.359   0.346  0.4206 -0.2978  0.2940
   76SOL    HW2  377   1.303   4.385   0.348 -0.2032 -2.5234  1.2602
   76SOL    HW3  378   1.410   4.330   0.255  0.4895  1.0881 -0.1528
   76SOL    MW4  379   1.385   4.359   0.334  0.3474 -0.4086  0.3625
   77SOL     OW  380   0.932   0.803   0.420 -0.0333  0.4605 -0.2610
   77SOL    HW2  381   1.004   0.748   0.392 -0.6738 -1.1880  1.2609
   77SOL    HW3  382   0.939   0.806   0.516 -0.2854  2.6386 -0.2776
   77SOL    MW4  383   0.942   0.796   0.429 -0.1510  0.5304 -0.0623
   78SOL     OW  384   1.145   0.380   0.443  0.4151  0.5741 -0.0680
   78SOL    HW2  385   1.221   0.329   0.414 -0.6865 -0.7818 -0.6491
   78SOL    HW3  386   1.083   0.314   0.473 -0.5438  1.6742  0.3825
   78SOL    MW4  387   1.147   0.365   0.443  0.1431  0.5404 -0.0852
   79SOL     OW  388   1.484   0.075   0.510 -0.2754  0.2488  0.2465
   79SOL    HW2  389   1.407   0.062   0.455 -0.6705  2.1022  0.3603
   79SOL    HW3  390   1.535  -0.005   0.497 -1.4830 -0.3504 -0.9957
   79SOL    MW4  391   1.480   0.062   0.501 -0.4869  0.4143  0.0976
   80SOL     OW  392   1.826   0.811   0.236  0.1889  0.0350  0.4553
   80SOL    HW2  393   1.781   0.749   0.293  1.4472  0.0714  1.4924
   80SOL    HW3  394   1.884   0.860   0.294  1.2224  0.3106 -0.7992
   80SOL    MW4  395   1.828   0.810   0.251  0.4913  0.0761  0.4267
   81SOL     OW  396   1.179   0.664   0.369  0.1761  0.2603  0.3485
   81SOL    HW2  397   1.266   0.697   0.345 -0.6486  0.6792 -2.1437
   81SOL    HW3  398   1.184   0.570   0.353  0.5159  0.0872  1.3768
   81SOL    MW4  399   1.191   0.656   0.364  0.1122  0.2928  0.1554
   82SOL     OW  400   2.318   0.453   0.512 -0.5791  0.3833  0.0894
   82SOL    HW2  401   2.313   0.432   0.605  0.4464 -1.5758 -0.2896
   82SOL    HW3  402   2.240   0.412   0.474 -0.3358  0.1180 -0.1222
   82SOL    MW4  403   2.307   0.445   0.520 -0.4120  0.0898  0.0115
   83SOL     OW  404   2.444   0.866   0.520  0.0809  0.3344 -0.1123
   83SOL    HW2  405   2.537   0.843   0.516 -0.2105 -0.9667  0.3883
   83SOL    HW3  406   2.443   0.961   0.514  1.2866  0.2102 -2.5771
   83SOL    MW4  407   2.456   0.875   0.519  0.2012  0.1463 -0.3714
   84SOL     OW  408   1.304   1.447   0.385 -0.0415 -0.1338 -0.4373
   84SOL    HW2  409   1.321   1.533   0.423 -0.5947 -0.3040  0.2144
   84SOL    HW3  410   1.277   1.465   0.295 -0.9474  0.4259 -0.0550
   84SOL    MW4  411   1.303   1.461   0.378 -0.2341 -0.0824 -0.3009
   85SOL     OW  412   1.527   1.298   0.460 -0.1239  0.5491  0.2517
   85SOL    HW2  413   1.544   1.224   0.401 -1.2012  0.4545  0.0592
   85SOL    HW3  414   1.459   1.348   0.417  0.6210  1.6831  0.3758
   85SOL    MW4  415   1.520   1.295   0.446 -0.1677  0.6862  0.2427
   86SOL     OW  416   1.718   2.074   0.297 -0.0420  0.0182 -0.5144
   86SOL    HW2  417   1.772   2.090   0.373  0.8821 -1.0626 -0.9267
   86SOL    HW3  418   1.780   2.055   0.226 -0.9103 -0.0142 -1.2849
   86SOL    MW4  419   1.733   2.074   0.297 -0.0347 -0.1285 -0.6705
   87SOL     OW  420   1.355   1.700   0.481  0.1759  0.5202  0.0252
   87SOL    HW2  421   1.376   1.682   0.573  0.9791 -0.1079 -0.2773
   87SOL    HW3  422   1.428   1.752   0.450 -0.5646  1.5435 -0.0012
   87SOL    MW4  423   1.367   1.704   0.489  0.1842  0.5724 -0.0182
   88SOL     OW  424   1.104   2.130   0.483 -0.5806  0.8434  0.1485
   88SOL    HW2  425   1.112   2.110   0.576 -2.2853 -0.3883  0.0633
   88SOL    HW3  426   1.017   2.169   0.474 -0.7667  0.1900 -1.0422
   88SOL    MW4  427   1.094   2.133   0.494 -0.8302  0.5944 -0.0199
   89SOL     OW  428   1.614   2.339   0.325 -0.2747 -0.0707 -0.2412
   89SOL    HW2  429   1.689   2.386   0.360 -1.2597  0.1329  1.6284
   89SOL    HW3  430   1.641   2.247   0.324  0.3921  0.1218 -0.6616
   89SOL    MW4  431   1.627   2.333   0.329 -0.3167 -0.0186 -0.0500
   90SOL     OW  432   1.780   1.644   0.526  0.0505  0.3244  0.5128
   90SOL    HW2  433   1.703   1.695   0.500  0.4907  1.1122  0.7398
   90SOL    HW3  434   1.778   1.645   0.622  0.4301  0.4825  0.5196
   90SOL    MW4  435   1.769   1.651   0.535  0.1585  0.4492  0.5436
   91SOL     OW  436   1.872   2.129   0.528 -0.3427 -0.2513  0.0308
   91SOL    HW2  437   1.820   2.202   0.561 -0.2134 -0.6604  1.1607
   91SOL    HW3  438   1.919   2.096   0.605 -0.2342 -1.3827 -0.5088
   91SOL    MW4  439   1.871   2.134   0.543 -0.3113 -0.4547  0.1087
   92SOL     OW  440   1.205   2.393   0.447  0.2398  0.2758  0.3544
   92SOL    HW2  441   1.173   2.303   0.454  1.3394 -0.0597  1.2111
   92SOL    HW3  442   1.127   2.445   0.428 -0.5439 -0.7405  0.7449
   92SOL    MW4  443   1.191   2.388   0.445  0.2815  0.0973  0.5190
   93SOL     OW  444   1.088   2.826   0.459  0.1412 -0.1154  0.0055
   93SOL    HW2  445   1.032   2.750   0.442  0.3341  0.2850 -2.6241
   93SOL    HW3  446   1.035   2.901   0.432  0.2344  0.6677  1.8969
   93SOL    MW4  447   1.073   2.826   0.453  0.1789  0.0410 -0.0919
   94SOL     OW  448   1.819   2.730   0.368  0.1922  0.0073 -0.0866
   94SOL    HW2  449   1.821   2.635   0.381 -0.9396 -0.0020  0.0371
   94SOL    HW3  450   1.728   2.755   0.384  0.0493  0.8385 -2.0674
   94SOL    MW4  451   1.808   2.721   0.372  0.0240  0.1156 -0.3317
   95SOL     OW  452   1.722   4.074   0.462 -0.5084  0.1066  0.3250
   95SOL    HW2  453   1.632   4.102   0.445 -0.5593  1.0719  2.1225
   95SOL    HW3  454   1.720   3.979   0.454 -1.8512  0.0627  1.1612
   95SOL    MW4  455   1.710   4.065   0.458 -0.6921  0.2275  0.6725
   96SOL     OW  456   1.210   3.971   0.485 -0.0215  0.3047 -0.6794
   96SOL    HW2  457   1.216   3.876   0.490 -0.2319  0.2612 -1.2852
   96SOL    HW3  458   1.124   3.988   0.447 -0.0889  0.7429 -0.3317
   96SOL    MW4  459   1.200   3.961   0.481 -0.0582  0.3569 -0.7134
   97SOL     OW  460   1.814   2.482   0.717  0.6375 -0.1463 -0.9816
   97SOL    HW2  461   1.738   2.437   0.753  1.7084 -1.7609 -0.6438
   97SOL    HW3  462   1.809   2.570   0.753  0.4193 -1.0445  1.3116
   97SOL    MW4  463   1.804   2.488   0.726  0.7499 -0.4780 -0.6344
   98SOL     OW  464   2.335   4.183   0.225  0.2500  0.2964  0.0723
   98SOL    HW2  465   2.412   4.136   0.258  0.6227  1.3588  0.7272
   98SOL    HW3  466   2.358   4.205   0.135 -0.4759 -1.9661 -0.7098
   98SOL    MW4  467   2.348   4.179   0.217  0.2034  0.1383  0.0555
   99SOL     OW  468   1.522   2.817   0.450 -0.5913  0.6968 -0.4974
   99SOL    HW2  469   1.480   2.732   0.438 -0.0750  0.5563 -1.3225
   99SOL    HW3  470   1.515   2.834   0.544  0.5640 -0.9151 -0.0870
   99SOL    MW4  471   1.516   2.808   0.461 -0.3707  0.4654 -0.5521
  100SOL     OW  472   1.514   3.346   0.457 -0.3810  0.4627  0.0814
  100SOL    HW2  473   1.533   3.275   0.396  1.0295  1.3252 -0.5204
  100SOL    HW3  474   1.430   3.323   0.496 -0.9418 -0.4631 -1.6538
  100SOL    MW4  475   1.506   3.334   0.454 -0.2687  0.4542 -0.2270
  101SOL     OW  476   0.981   4.317   0.475  0.4611 -0.0877  0.0499
  101SOL    HW2  477   1.017   4.327   0.563  1.3289 -1.1582 -0.1729
  101SOL    HW3  478   0.888   4.336   0.485  0.4426 -0.8097  1.3155
  101SOL    MW4  479   0.974   4.321   0.488  0.5732 -0.3242  0.1874
  102SOL     OW  480   2.359   4.435   0.341 -0.1929 -0.4842  0.5006
  102SOL    HW2  481   2.282   4.441   0.399  0.4766 -1.4247  1.4872
  102SOL    HW3  482   2.355   4.347   0.305 -0.2523 -0.1139 -0.3907
  102SOL    MW4  483   2.348   4.425   0.344 -0.1125 -0.5593  0.5131
  103SOL     OW  484   2.085   4.453   0.488  0.1239 -0.2203 -0.1508
  103SOL    HW2  485   2.061   4.535   0.446  1.5881  0.4492  0.2727
  103SOL    HW3  486   2.023   4.389   0.454  0.0063  0.7321 -1.7498
  103SOL    MW4  487   2.074   4.455   0.478  0.3014 -0.0067 -0.3059
  104SOL     OW  488   1.987   0.014   0.376 -0.1441  0.0503  0.1552
  104SOL    HW2  489   1.932   0.080   0.418 -0.1771 -0.6295  1.2003
  104SOL    HW3  490   1.925  -0.052   0.344 -0.0628  0.2016 -0.3249
  104SOL    MW4  491   1.972   0.014   0.377 -0.1377 -0.0195  0.2298
  105SOL     OW  492   1.885   0.231   0.523  0.2954  0.1388  0.0736
  105SOL    HW2  493   1.797   0.267   0.511 -0.6027 -1.1754  2.4296
  105SOL    HW3  494   1.889   0.208   0.616  2.8009 -0.6671 -0.2139
  105SOL    MW4  495   1.874   0.232   0.533  0.5074 -0.1409  0.3465
  106SOL     OW  496   2.593   0.484   0.510  0.1591 -0.1383  0.3147
  106SOL    HW2  497   2.626   0.397   0.489  0.3800  0.1392 -0.4779
  106SOL    HW3  498   2.501   0.482   0.484  0.8993  0.8134 -2.4744
  106SOL    MW4  499   2.585   0.473   0.504  0.2861  0.0239 -0.1578
  107SOL     OW  500   2.287   1.338   0.453  0.1728  0.2531  0.1461
  107SOL    HW2  501   2.277   1.431   0.469  0.2374  0.3520 -0.3785
  107SOL    HW3  502   2.198   1.303   0.455  0.2534  0.1022  1.6573
  107SOL    MW4  503   2.274   1.345   0.455  0.1922  0.2464  0.2762
  108SOL     OW  504   2.207   0.733   0.439  0.1942 -0.0630  0.3212
  108SOL    HW2  505   2.244   0.645   0.437  0.5088  0.0774 -0.3527
  108SOL    HW3  506   2.283   0.791   0.431 -0.0891  0.2462 -0.1478
  108SOL    MW4  507   2.222   0.729   0.438  0.1984 -0.0037  0.1704
  109SOL     OW  508   2.030   1.212   0.453 -0.6546  0.3898 -0.3801
  109SOL    HW2  509   2.017   1.120   0.434 -1.1500  0.5824 -0.9709
  109SOL    HW3  510   1.942   1.247   0.467 -0.3261  0.2008  2.5632
  109SOL    MW4  511   2.017   1.205   0.452 -0.6766  0.3903 -0.0698
  110SOL     OW  512   2.233   1.642   0.472 -0.1554 -0.2846 -0.1405
  110SOL    HW2  513   2.164   1.669   0.411 -0.2498 -0.3444 -0.0596
  110SOL    HW3  514   2.301   1.709   0.463  0.0685 -0.5877 -0.7145
  110SOL    MW4  515   2.233   1.655   0.463 -0.1383 -0.3326 -0.2055
  111SOL     OW  516   2.776   1.432   0.486  0.0402  0.0363 -0.1312
  111SOL    HW2  517   2.747   1.491   0.555 -2.7398 -0.7811 -0.5675
  111SOL    HW3  518   2.819   1.359   0.533 -0.1756  0.3884  0.6137
  111SOL    MW4  519   2.778   1.430   0.501 -0.3552 -0.0250 -0.0905
  112SOL     OW  520   1.572   1.874   0.472  0.1395  0.0340  0.7207
  112SOL    HW2  521   1.589   1.938   0.402 -0.7665 -0.2368  0.2424
  112SOL    HW3  522   1.571   1.926   0.552  0.8110  0.4109  0.4864
  112SOL    MW4  523   1.574   1.889   0.473  0.1085  0.0479  0.6267
  113SOL     OW  524   2.363   2.387   0.517  0.2490  0.0785  0.6810
  113SOL    HW2  525   2.446   2.434   0.513 -0.1769  0.7873  0.1195
  113SOL    HW3  526   2.337   2.392   0.609 -0.5842  2.3394  0.3434
  113SOL    MW4  527   2.370   2.394   0.529  0.0827  0.4704  0.5623
  114SOL     OW  528   1.660   3.323   0.689 -0.0309 -0.2856 -0.4907
  114SOL    HW2  529   1.618   3.319   0.602  0.2514 -1.8239 -0.5763
  114SOL    HW3  530   1.626   3.246   0.734  0.0424  0.3639  0.6836
  114SOL    MW4  531   1.650   3.312   0.683  0.0159 -0.4027 -0.3470
  115SOL     OW  532   2.146   2.700   0.370 -0.3140  0.3113 -0.0280
  115SOL    HW2  533   2.239   2.714   0.388 -0.1304  0.6541 -1.1511
  115SOL    HW3  534   2.139   2.607   0.350 -0.3109  0.1767  0.5878
  115SOL    MW4  535   2.157   2.689   0.370 -0.2892  0.3386 -0.0949
  116SOL     OW  536   1.310   2.973   0.385 -0.3747 -0.0598  0.0302
  116SOL    HW2  537   1.385   2.914   0.391 -0.2375  0.1976  0.8882
  116SOL    HW3  538   1.235   2.919   0.410 -0.3918 -0.1491 -0.2121
  116SOL    MW4  539   1.310   2.958   0.389 -0.3589 -0.0379  0.1114
  117SOL     OW  540   0.856   1.742   0.455 -0.0241  0.2793  0.2585
  117SOL    HW2  541   0.937   1.788   0.433 -1.0726  1.1749 -1.9205
  117SOL    HW3  542   0.873   1.703   0.541  2.5174  0.8781  0.0778
  117SOL    MW4  543   0.869   1.743   0.463  0.1729  0.4765 -0.0529
  118SOL     OW  544   3.662   1.888   0.451 -0.6248 -0.1797 -0.4703
  118SOL    HW2  545   3.577   1.921   0.424  0.2944  1.5856 -1.2828
  118SOL    HW3  546   3.705   1.964   0.491  1.0045 -0.7401 -1.1301
  118SOL    MW4  547   3.657   1.902   0.453 -0.2887 -0.0206 -0.6646
  119SOL     OW  548   1.834   3.007   0.541  0.0497 -0.3247 -0.2347
  119SOL    HW2  549   1.854   3.080   0.600  0.1890 -1.3872  1.0589
  119SOL    HW3  550   1.741   2.989   0.558 -0.2772  0.2407 -1.3484
  119SOL    MW4  551   1.824   3.014   0.551  0.0249 -0.3903 -0.2109
  120SOL     OW  552   2.110   2.404   0.386 -0.8692 -0.3011 -0.1069
  120SOL    HW2  553   2.106   2.319   0.341  1.0579 -1.6924  2.2215
  120SOL    HW3  554   2.199   2.407   0.423 -0.3825  3.4296 -1.4141
  120SOL    MW4  555   2.121   2.393   0.385 -0.5510  0.0076  0.0278
  121SOL     OW  556   1.918   3.233   0.686  0.1497  0.0039 -0.3244
  121SOL    HW2  557   1.834   3.279   0.689  0.7374  1.0759  0.4581
  121SOL    HW3  558   1.962   3.267   0.608 -0.0047 -0.3078 -0.5480
  121SOL    MW4  559   1.913   3.244   0.676  0.2068  0.1042 -0.2507
  122SOL     OW  560   2.646   2.869   0.328 -0.6849  0.0410 -0.0222
  122SOL    HW2  561   2.728   2.837   0.365  0.8884  2.1659 -1.5451
  122SOL    HW3  562   2.644   2.831   0.240 -1.5928 -0.3795  0.1717
  122SOL    MW4  563   2.657   2.860   0.321 -0.5975  0.2658 -0.1975
  123SOL     OW  564   1.748   3.793   0.456 -0.0509  0.1456 -0.0771
  123SOL    HW2  565   1.771   3.766   0.545 -0.5249  0.6639  0.2095
  123SOL    HW3  566   1.829   3.782   0.406 -0.2115 -1.7110  0.0401
  123SOL    MW4  567   1.762   3.788   0.461 -0.1347 -0.0308 -0.0238
  124SOL     OW  568   1.445   4.135   0.469  0.0998  0.0220 -0.0396
  124SOL    HW2  569   1.366   4.082   0.480  0.1054 -0.1041 -0.5653
  124SOL    HW3  570   1.413   4.219   0.438  0.0798  0.3820  0.9420
  124SOL    MW4  571   1.430   4.139   0.466  0.0980  0.0525  0.0205
  125SOL     OW  572   1.206   0.061   0.415 -0.1715  0.1095  0.1435
  125SOL    HW2  573   1.179  -0.020   0.371  0.5132  0.6952 -1.3665
  125SOL    HW3  574   1.126   0.091   0.459 -0.5177 -1.2059  0.4545
  125SOL    MW4  575   1.192   0.054   0.415 -0.1268  0.0132 -0.0147
  126SOL     OW  576   1.809   4.497   0.283  0.5341 -0.2989 -0.3273
  126SOL    HW2  577   1.734   4.509   0.341  0.7425  0.2319 -0.1632
  126SOL    HW3  578   1.838   4.407   0.300  0.1817 -0.3734 -0.1047
  126SOL    MW4  579   1.803   4.487   0.293  0.5152 -0.2389 -0.2763
  127SOL     OW  580   1.967   0.580   0.472 -0.0850  0.4427  0.8162
  127SOL    HW2  581   2.039   0.642   0.459 -0.3750  0.3245 -1.3922
  127SOL    HW3  582   1.997   0.499   0.431 -0.7260 -0.1847  1.5509
  127SOL    MW4  583   1.981   0.577   0.465 -0.2079  0.3442  0.6218
  128SOL     OW  584   2.083   0.357   0.374 -0.2955  0.1380 -0.6710
  128SOL    HW2  585   2.108   0.296   0.306 -1.0404 -0.3944 -0.4664
  128SOL    HW3  586   2.024   0.308   0.431 -2.0390  1.4610 -1.3039
  128SOL    MW4  587   2.079   0.343   0.373 -0.6239  0.2423 -0.7275
  129SOL     OW  588   2.724   0.740   0.480  0.4475 -0.1355 -0.1782
  129SOL    HW2  589   2.741   0.765   0.389  2.1781 -1.0501 -0.1435
  129SOL    HW3  590   2.685   0.652   0.474 -0.6549  0.3409 -0.0836
  129SOL    MW4  591   2.721   0.732   0.467  0.5305 -0.1934 -0.1612
  130SOL     OW  592   2.777   0.814   0.215 -0.4126 -0.2577 -0.0536
  130SOL    HW2  593   2.812   0.782   0.132 -1.3058 -0.5621 -0.3132
  130SOL    HW3  594   2.786   0.909   0.210 -0.0217 -0.3069 -0.2944
  130SOL    MW4  595   2.783   0.822   0.204 -0.4790 -0.3043 -0.1196
  131SOL     OW  596   3.302   1.150   0.469 -0.1613 -0.3491  0.1353
  131SOL    HW2  597   3.315   1.177   0.560 -1.7965  1.1276 -0.0303
  131SOL    HW3  598   3.263   1.226   0.427  0.7407 -0.9586 -1.8634
  131SOL    MW4  599   3.298   1.163   0.475 -0.2582 -0.2347 -0.1502
  132SOL     OW  600   2.976   1.056   0.440  0.3955  0.4244 -0.8436
  132SOL    HW2  601   2.930   1.073   0.358 -0.7485 -0.4384 -0.3869
  132SOL    HW3  602   2.947   1.125   0.500 -0.4340 -0.2126 -0.5070
  132SOL    MW4  603   2.966   1.067   0.437  0.1352  0.2266 -0.7389
  133SOL     OW  604   2.946   1.491   0.246 -0.4764  0.0170 -0.1620
  133SOL    HW2  605   2.945   1.586   0.255 -2.5298  0.0676 -0.7639
  133SOL    HW3  606   2.898   1.459   0.323 -0.8471 -0.4678 -0.5920
  133SOL    MW4  607   2.940   1.499   0.257 -0.7963 -0.0403 -0.2981
  134SOL     OW  608   3.177   1.841   0.388 -0.1462 -0.3266 -0.4376
  134SOL    HW2  609   3.100   1.814   0.338 -0.4204  0.5520 -0.4987
  134SOL    HW3  610   3.142   1.888   0.464  0.3122 -0.3464 -0.2083
  134SOL    MW4  611   3.162   1.844   0.392 -0.1221 -0.2134 -0.4154
  135SOL     OW  612   2.421   0.204   0.451 -0.2227  0.2519 -0.2807
  135SOL    HW2  613   2.397   0.297   0.447 -2.3192 -0.1731  1.3232
  135SOL    HW3  614   2.362   0.162   0.388 -1.8774 -0.4299  1.6462
  135SOL    MW4  615   2.410   0.211   0.442 -0.7179  0.1059  0.1851
  136SOL     OW  616   2.421   1.345   0.167 -0.3869  0.1989 -0.1136
  136SOL    HW2  617   2.363   1.332   0.242  0.3974  0.7485  0.5935
  136SOL    HW3  618   2.371   1.312   0.093 -0.4055 -2.2708  0.9203
  136SOL    MW4  619   2.407   1.339   0.167 -0.2859 -0.0545  0.1161
  137SOL     OW  620   1.970   1.784   0.396  0.1938 -0.5578 -0.4724
  137SOL    HW2  621   1.894   1.735   0.427 -0.9535  0.7447 -1.1603
  137SOL    HW3  622   1.988   1.848   0.466 -0.7442  0.6215 -1.3058
  137SOL    MW4  623   1.963   1.786   0.410 -0.0813 -0.2303 -0.6731
  138SOL     OW  624   2.411   1.861   0.469  0.0515  0.1954 -0.1420
  138SOL    HW2  625   2.388   1.943   0.426 -0.1601  0.4120  0.3967
  138SOL    HW3  626   2.505   1.851   0.450  0.0316  0.4471 -0.3896
  138SOL    MW4  627   2.421   1.870   0.461  0.0210  0.2573 -0.1036
  139SOL     OW  628   2.710   1.798   0.469  0.8127 -0.3310  0.0897
  139SOL    HW2  629   2.716   1.720   0.525  0.6090  0.2290  0.8993
  139SOL    HW3  630   2.745   1.869   0.523 -1.7646  0.7032  0.4622
  139SOL    MW4  631   2.716   1.797   0.483  0.4461 -0.1205  0.2457
  140SOL     OW  632   2.568   3.120   0.426  0.1902  0.1821  0.1689
  140SOL    HW2  633   2.570   3.032   0.388 -0.3975  0.3618 -0.2810
  140SOL    HW3  634   2.607   3.110   0.512 -0.3376 -0.6301  0.3193
  140SOL    MW4  635   2.573   3.107   0.432  0.0432  0.0987  0.1294
  141SOL     OW  636   1.848   2.457   0.437 -0.0457 -0.3545  0.6198
  141SOL    HW2  637   1.941   2.444   0.418  0.2426 -0.6049  2.1045
  141SOL    HW3  638   1.847   2.481   0.530 -1.3878  0.6027  0.3582
  141SOL    MW4  639   1.860   2.459   0.447 -0.1847 -0.2611  0.7811
  142SOL     OW  640   2.178   2.985   0.529 -0.3029 -0.1183  0.4533
  142SOL    HW2  641   2.195   3.072   0.495  0.3122 -0.1974  0.5475
  142SOL    HW3  642   2.261   2.938   0.518 -0.0022 -0.0634  2.2915
  142SOL    MW4  643   2.191   2.990   0.523 -0.1822 -0.1214  0.7083
  143SOL     OW  644   2.059   3.605   0.473 -0.3218 -0.1242  0.3397
  143SOL    HW2  645   1.999   3.621   0.545 -1.8301  0.6648 -1.0635
  143SOL    HW3  646   2.024   3.657   0.401  0.9941 -1.1260 -1.0506
  143SOL    MW4  647   2.047   3.614   0.473 -0.3471 -0.1523 -0.0289
  144SOL     OW  648   2.339   3.945   0.481 -0.1198 -0.2067 -0.4344
  144SOL    HW2  649   2.351   3.851   0.495  0.6950 -0.1591 -0.8119
  144SOL    HW3  650   2.425   3.977   0.454 -0.0723  0.8872  0.9893
  144SOL    MW4  651   2.352   3.937   0.479 -0.0062 -0.0560 -0.2964
  145SOL     OW  652   1.529   3.628   0.512  0.3233  0.2417 -0.1616
  145SOL    HW2  653   1.517   3.543   0.470  0.0372  0.9572 -1.5831
  145SOL    HW3  654   1.598   3.670   0.460  0.6301  0.7919  0.6732
  145SOL    MW4  655   1.537   3.622   0.499  0.3259  0.4089 -0.2389
  146SOL     OW  656   2.039   3.318   0.464 -0.1559 -0.9292  0.1334
  146SOL    HW2  657   2.131   3.293   0.460 -0.6232 -2.5602 -0.8181
  146SOL    HW3  658   2.039   3.414   0.462  1.6045 -0.8540  2.1632
  146SOL    MW4  659   2.051   3.328   0.463  0.0148 -1.1346  0.2757
  147SOL     OW  660   2.124   4.037   0.307 -0.0156 -0.7693  0.6164
  147SOL    HW2  661   2.177   4.001   0.379 -0.1487 -2.1614  0.0340
  147SOL    HW3  662   2.186   4.090   0.256  1.0221 -2.9562 -0.4623
  147SOL    MW4  663   2.139   4.039   0.310  0.1040 -1.2412  0.3973
  148SOL     OW  664   1.931   4.229   0.347 -0.2370 -0.3486  0.1980
  148SOL    HW2  665   1.857   4.172   0.369  0.0173 -0.8431 -0.2474
  148SOL    HW3  666   2.006   4.171   0.344  0.1116  0.0985  0.2733
  148SOL    MW4  667   1.931   4.214   0.350 -0.1575 -0.3548  0.1492
  149SOL     OW  668   2.554   4.088   0.367 -0.3572  0.2170  0.5349
  149SOL    HW2  669   2.566   4.169   0.417  0.6157  1.2479 -1.3238
  149SOL    HW3  670   2.642   4.052   0.358 -0.5336  0.0006 -0.3707
  149SOL    MW4  671   2.567   4.094   0.373 -0.2522  0.3247  0.1702
  150SOL     OW  672   2.729   3.467   0.622  0.0180  0.3333 -0.2608
  150SOL    HW2  673   2.812   3.513   0.636  0.3674  0.1097 -1.4995
  150SOL    HW3  674   2.687   3.515   0.551  0.4127 -1.2729 -1.6025
  150SOL    MW4  675   2.734   3.479   0.614  0.1163  0.0918 -0.6012
  151SOL     OW  676   3.022   4.150   0.433 -0.1997 -0.2094  0.1248
  151SOL    HW2  677   2.962   4.223   0.418  1.1827  0.8135 -0.4058
  151SOL    HW3  678   3.035   4.149   0.528  0.5244  0.8131  0.0341
  151SOL    MW4  679   3.016   4.159   0.443  0.0782  0.0606  0.0428
  152SOL     OW  680   2.218   0.128   0.246  0.0212 -0.6166  0.4110
  152SOL    HW2  681   2.144   0.078   0.280 -1.3751  1.5307  0.6484
  152SOL    HW3  682   2.206   0.128   0.151 -0.3836 -0.1174  0.4624
  152SOL    MW4  683   2.207   0.121   0.238 -0.2165 -0.2674  0.4491
  153SOL     OW  684   1.465   0.763   0.306 -0.1602 -0.4984 -0.1669
  153SOL    HW2  685   1.542   0.712   0.332  0.8948  1.2493  0.2124
  153SOL    HW3  686   1.495   0.818   0.234 -1.1472 -0.0604 -0.2558
  153SOL    MW4  687   1.479   0.764   0.300 -0.1512 -0.2100 -0.1286
  154SOL     OW  688   2.963   0.423   0.467 -0.2287  0.1191  0.1529
  154SOL    HW2  689   2.871   0.398   0.477  0.1643 -1.8941 -0.9168
  154SOL    HW3  690   3.003   0.350   0.419  1.8842  1.0594  0.3997
  154SOL    MW4  691   2.956   0.410   0.462  0.1018 -0.0224  0.0443
  155SOL     OW  692   2.465   1.135   0.483  0.3626 -0.0793 -0.0372
  155SOL    HW2  693   2.391   1.196   0.476  0.3237 -0.1018  0.1903
  155SOL    HW3  694   2.529   1.168   0.420  0.0526 -0.2098 -0.4227
  155SOL    MW4  695   2.464   1.148   0.474  0.3164 -0.0995 -0.0580
  156SOL     OW  696   3.703   0.861   0.466 -0.5562 -0.5427  0.1995
  156SOL    HW2  697   3.654   0.931   0.423 -2.1131 -2.1463 -0.7116
  156SOL    HW3  698   3.650   0.837   0.542  0.0072 -0.6716  0.5529
  156SOL    MW4  699   3.690   0.867   0.470 -0.6871 -0.7713  0.1259
  157SOL     OW  700   3.595   1.608   0.488 -0.0353  0.2115  0.1126
  157SOL    HW2  701   3.610   1.612   0.582  3.1231 -1.5048 -0.2323
  157SOL    HW3  702   3.611   1.697   0.457 -1.5240  0.8748  1.2569
  157SOL    MW4  703   3.599   1.620   0.496  0.1848  0.0726  0.2181
  158SOL     OW  704   3.572   1.087   0.374  0.6657  0.4963 -0.1086
  158SOL    HW2  705   3.549   1.066   0.284  1.9575  0.8926 -0.5396
  158SOL    HW3  706   3.488   1.100   0.418  0.0234  0.0199 -1.1784
  158SOL    MW4  707   3.558   1.086   0.368  0.7513  0.4857 -0.3066
  159SOL     OW  708   2.935   1.753   0.265  0.4685 -0.0324 -0.2519
  159SOL    HW2  709   2.862   1.765   0.326  1.0433  0.6120  0.3225
  159SOL    HW3  710   2.897   1.772   0.179 -0.1631 -0.2035 -0.0198
  159SOL    MW4  711   2.920   1.757   0.261  0.4611  0.0300 -0.1455
  160SOL     OW  712   2.780   0.084   0.845 -0.7120 -0.2598 -0.4338
  160SOL    HW2  713   2.698   0.037   0.831 -0.6740 -1.2390  2.2268
  160SOL    HW3  714   2.754   0.177   0.849 -1.8583 -0.6152  1.2235
  160SOL    MW4  715   2.766   0.090   0.844 -0.8583 -0.4359  0.1359
  161SOL     OW  716   3.114   2.005   0.598  0.3681  0.0590  0.2857
  161SOL    HW2  717   3.149   1.963   0.677 -1.1841  1.9203  2.0093
  161SOL    HW3  718   3.123   2.099   0.615 -0.6421  0.4782 -1.4606
  161SOL    MW4  719   3.120   2.012   0.611  0.0300  0.3600  0.2826
  162SOL     OW  720   2.938   2.486   0.423  0.3089 -0.1024 -0.3014
  162SOL    HW2  721   2.933   2.428   0.347  2.1039  0.6499 -1.0233
  162SOL    HW3  722   3.029   2.478   0.453  0.5495  2.1684 -0.3054
  162SOL    MW4  723   2.950   2.477   0.417  0.5774  0.2964 -0.3972
  163SOL     OW  724   3.310   1.607   0.489  0.1339  0.0511  0.1713
  163SOL    HW2  725   3.289   1.691   0.449  1.5249  0.1983 -0.2863
  163SOL    HW3  726   3.406   1.603   0.488  0.0720 -2.5152 -1.8982
  163SOL    MW4  727   3.320   1.617   0.484  0.3092 -0.2681 -0.1621
  164SOL     OW  728   2.399   2.811   0.494  0.0360  0.1220  0.7576
  164SOL    HW2  729   2.420   2.817   0.587  0.6176  1.8281  0.5327
  164SOL    HW3  730   2.484   2.816   0.450 -0.1012 -2.1181  0.1613
  164SOL    MW4  731   2.413   2.812   0.501  0.0949  0.0515  0.6493
  165SOL     OW  732   3.190   3.206   0.430 -0.0008  0.0237  0.2719
  165SOL    HW2  733   3.139   3.282   0.403 -0.3708 -0.3091  0.0252
  165SOL    HW3  734   3.192   3.212   0.526  2.6998  2.0885  0.1260
  165SOL    MW4  735   3.183   3.216   0.439  0.3066  0.2522  0.2201
  166SOL     OW  736   2.746   3.877   0.472  0.2308  0.1201 -0.1007
  166SOL    HW2  737   2.702   3.795   0.452  0.1407  0.1382  0.0203
  166SOL    HW3  738   2.829   3.872   0.424 -0.0941  0.2772 -0.6881
  166SOL    MW4  739   2.751   3.866   0.463  0.1757  0.1433 -0.1622
  167SOL     OW  740   2.097   2.133   0.345 -0.0535  0.0377 -0.1860
  167SOL    HW2  741   2.054   2.086   0.274 -0.6967  0.3523 -0.0084
  167SOL    HW3  742   2.032   2.134   0.416 -0.5358  2.2661 -0.6169
  167SOL    MW4  743   2.083   2.127   0.345 -0.2019  0.3731 -0.2194
  168SOL     OW  744   2.303   3.245   0.450  0.0982  0.1088 -0.6219
  168SOL    HW2  745   2.318   3.299   0.528  1.1764 -0.1950 -0.6083
  168SOL    HW3  746   2.388   3.203   0.433 -1.0961 -2.7503  0.2486
  168SOL    MW4  747   2.316   3.246   0.458  0.0830 -0.3085 -0.5052
  169SOL     OW  748   2.326   3.674   0.532  0.5963 -0.3195  0.1756
  169SOL    HW2  749   2.329   3.665   0.627 -0.3526  0.3619  0.2751
  169SOL    HW3  750   2.239   3.642   0.508 -0.0610  1.6864 -0.2101
  169SOL    MW4  751   2.315   3.668   0.541  0.3843  0.0348  0.1378
  170SOL     OW  752   3.516   2.950   0.384  0.0038  0.4175  0.3452
  170SOL    HW2  753   3.466   2.939   0.465 -0.3417 -0.1578  0.0580
  170SOL    HW3  754   3.450   2.943   0.315  0.4920 -0.4340 -0.0403
  170SOL    MW4  755   3.500   2.947   0.385  0.0226  0.2291  0.2565
  171SOL     OW  756   2.623   3.621   0.436 -0.2931 -0.1213  0.1823
  171SOL    HW2  757   2.530   3.624   0.459 -0.3999 -1.1808 -0.0777
  171SOL    HW3  758   2.628   3.557   0.365  0.5275  0.5248 -0.3576
  171SOL    MW4  759   2.611   3.613   0.430 -0.1991 -0.1757  0.0768
  172SOL     OW  760   2.656   3.354   0.295 -0.4055  0.2482  0.0059
  172SOL    HW2  761   2.739   3.337   0.249 -1.0287  0.3344 -1.1557
  172SOL    HW3  762   2.638   3.272   0.341  0.2874  0.2023  0.2100
  172SOL    MW4  763   2.665   3.341   0.295 -0.3965  0.2534 -0.1205
  173SOL     OW  764   3.711   3.950   0.432  0.2613  0.4423 -0.1695
  173SOL    HW2  765   3.617   3.934   0.429  0.4544 -0.5813 -1.8172
  173SOL    HW3  766   3.722   4.038   0.398 -0.0660  0.4139 -0.3481
  173SOL    MW4  767   3.700   3.959   0.427  0.2437  0.3033 -0.4105
  174SOL     OW  768   2.905   4.647   0.420  0.1187  0.2478 -0.3732
  174SOL    HW2  769   2.924   4.644   0.514 -0.9108  0.1067 -0.1599
  174SOL    HW3  770   2.887   4.556   0.397 -1.4374  0.5107 -0.3015
  174SOL    MW4  771   2.905   4.634   0.430 -0.2227  0.2640 -0.3356
  175SOL     OW  772   3.071   0.190   0.301  0.2399 -0.5955  0.1762
  175SOL    HW2  773   3.073   0.168   0.207 -0.3331  1.1565 -0.2717
  175SOL    HW3  774   3.012   0.124   0.339 -1.4109  0.0782 -1.1202
  175SOL    MW4  775   3.063   0.178   0.293 -0.0534 -0.2755 -0.0540
  176SOL     OW  776   3.305   0.237   0.459  0.0007  0.3005 -0.0139
  176SOL    HW2  777   3.235   0.206   0.402 -0.4310  2.8706 -0.9068
  176SOL    HW3  778   3.276   0.214   0.547 -0.7387 -0.9457 -0.5691
  176SOL    MW4  779   3.292   0.230   0.463 -0.1535  0.4752 -0.2049
  177SOL     OW  780   3.362   3.668   0.470 -0.1009 -0.3517 -0.3081
  177SOL    HW2  781   3.388   3.630   0.554  1.4753  1.7278  0.1879
  177SOL    HW3  782   3.423   3.630   0.407 -0.5594 -1.0456 -0.3411
  177SOL    MW4  783   3.373   3.658   0.473  0.0465 -0.1688 -0.2471
  178SOL     OW  784   2.644   1.257   0.299  0.1690  0.0503 -0.5629
  178SOL    HW2  785   2.676   1.323   0.360  0.3846 -0.2526 -0.3517
  178SOL    HW3  786   2.575   1.302   0.249 -0.8454 -0.0580  0.7179
  178SOL    MW4  787   2.639   1.271   0.300  0.0637 -0.0041 -0.3661
  179SOL     OW  788   3.393   0.845   0.508 -0.1921  0.3591  0.0837
  179SOL    HW2  789   3.434   0.839   0.595 -0.6176 -1.4192  0.1712
  179SOL    HW3  790   3.386   0.755   0.478 -1.5321  0.8405 -1.1232
  179SOL    MW4  791   3.398   0.833   0.516 -0.4251  0.1879 -0.0640
  180SOL     OW  792   2.850   4.369   0.427 -0.2275  0.0807 -0.0624
  180SOL    HW2  793   2.755   4.367   0.420 -0.1116 -1.3394 -1.2778
  180SOL    HW3  794   2.867   4.370   0.521 -1.4516  1.4570  0.1609
  180SOL    MW4  795   2.840   4.369   0.439 -0.3738  0.0753 -0.1933
  181SOL     OW  796   2.852   1.102   0.207 -0.0409 -0.9363  0.4055
  181SOL    HW2  797   2.780   1.153   0.246  0.0997 -1.0670  0.8408
  181SOL    HW3  798   2.904   1.167   0.160 -0.4451 -0.8409  0.0888
  181SOL    MW4  799   2.849   1.117   0.206 -0.0756 -0.9408  0.4211
  182SOL     OW  800   3.106   0.712   0.472  0.0280  0.1364  0.4368
  182SOL    HW2  801   3.020   0.682   0.444 -0.0413  0.4887  0.2659
  182SOL    HW3  802   3.154   0.632   0.494 -0.2585 -0.0747  0.2952
  182SOL    MW4  803   3.101   0.698   0.471 -0.0191  0.1550  0.3955
  183SOL     OW  804   3.877   1.749   0.381 -0.3579  0.6663  0.6665
  183SOL    HW2  805   3.881   1.672   0.439 -0.0369  0.7751  0.7871
  183SOL    HW3  806   3.795   1.792   0.405 -0.6077  0.2886  0.5052
  183SOL    MW4  807   3.867   1.744   0.392 -0.3488  0.6307  0.6611
  184SOL     OW  808   2.378   2.124   0.375 -0.0673 -0.3902  0.7590
  184SOL    HW2  809   2.288   2.122   0.344  0.2430  0.1431 -0.1794
  184SOL    HW3  810   2.385   2.206   0.423 -0.0893 -0.4626  0.8885
  184SOL    MW4  811   2.367   2.134   0.377 -0.0296 -0.3293  0.6523
  185SOL     OW  812   3.171   1.375   0.402  0.5753 -0.0173  0.3987
  185SOL    HW2  813   3.214   1.455   0.435  1.4154 -0.1072 -0.4628
  185SOL    HW3  814   3.114   1.406   0.332  2.0034 -0.3438 -0.9222
  185SOL    MW4  815   3.169   1.390   0.397  0.8745 -0.0722  0.1107
  186SOL     OW  816   3.399   2.029   0.422 -0.1682  0.3658  0.3338
  186SOL    HW2  817   3.324   1.976   0.392 -0.2686  0.2120  0.8484
  186SOL    HW3  818   3.381   2.046   0.515  0.0294  1.0260  0.2549
  186SOL    MW4  819   3.387   2.024   0.430 -0.1552  0.4327  0.3914
  187SOL     OW  820   3.350   2.269   0.291 -0.4660 -0.6542 -0.1476
  187SOL    HW2  821   3.307   2.321   0.359  1.1945  0.1510  0.3008
  187SOL    HW3  822   3.355   2.181   0.327 -0.5373 -0.4619  0.3339
  187SOL    MW4  823   3.345   2.264   0.305 -0.2565 -0.5224 -0.0249
  188SOL     OW  824   4.039   2.402   0.434  0.7454 -0.1966 -0.0092
  188SOL    HW2  825   4.039   2.428   0.526  0.8663 -2.2197  0.5797
  188SOL    HW3  826   3.965   2.449   0.396  0.0186 -0.2230  1.3630
  188SOL    MW4  827   4.029   2.412   0.441  0.6657 -0.4668  0.2495
  189SOL     OW  828   2.968   3.408   0.400  0.0617 -0.1995  0.5359
  189SOL    HW2  829   2.893   3.409   0.458 -0.8491  0.1400 -0.6208
  189SOL    HW3  830   3.007   3.495   0.409 -1.4182  0.6529 -1.0489
  189SOL    MW4  831   2.963   3.420   0.409 -0.2537 -0.0424  0.1742
  190SOL     OW  832   3.216   2.430   0.488  0.0480 -0.4530 -0.9375
  190SOL    HW2  833   3.265   2.496   0.537 -0.1731 -0.1998 -1.0537
  190SOL    HW3  834   3.185   2.368   0.555 -0.5464  0.0832 -0.7093
  190SOL    MW4  835   3.218   2.430   0.503 -0.0594 -0.3488 -0.9227
  191SOL     OW  836   2.897   2.801   0.722  0.0357  0.3808  0.2909
  191SOL    HW2  837   2.897   2.781   0.629 -0.9318  0.3690  0.2871
  191SOL    HW3  838   2.971   2.752   0.757 -0.4829 -0.8091 -0.2288
  191SOL    MW4  839   2.907   2.792   0.715 -0.1605  0.2224  0.2217
  192SOL     OW  840   2.705   0.218   0.447 -0.3472 -0.1294  0.4324
  192SOL    HW2  841   2.616   0.184   0.447 -0.5970  0.4824 -0.8667
  192SOL    HW3  842   2.761   0.140   0.453 -0.9712 -0.4749  1.7776
  192SOL    MW4  843   2.701   0.203   0.448 -0.4625 -0.0943  0.4385
  193SOL     OW  844   3.087   3.665   0.431 -0.2874  0.4167  0.2734
  193SOL    HW2  845   3.076   3.737   0.369 -0.7750  1.0067  1.0337
  193SOL    HW3  846   3.180   3.665   0.451 -0.3979  1.3190  0.8306
  193SOL    MW4  847   3.097   3.675   0.425 -0.3664  0.6132  0.4472
  194SOL     OW  848   3.570   3.517   0.348 -0.1431  0.4725 -0.0015
  194SOL    HW2  849   3.559   3.423   0.364  0.5453  0.2462 -0.8454
  194SOL    HW3  850   3.652   3.539   0.391  0.4446  0.3772 -1.0657
  194SOL    MW4  851   3.579   3.507   0.356  0.0250  0.4301 -0.2533
  195SOL     OW  852   3.475   3.239   0.432  0.0489 -0.4023  0.4568
  195SOL    HW2  853   3.380   3.234   0.421  0.2070  1.1346 -1.7873
  195SOL    HW3  854   3.507   3.156   0.397 -0.3908 -0.5275  0.3507
  195SOL    MW4  855   3.467   3.227   0.426  0.0122 -0.2162  0.1467
  196SOL     OW  856   3.336   2.623   0.650  0.0022  0.3094 -0.3231
  196SOL    HW2  857   3.426   2.594   0.668 -0.4067 -0.1469  1.0083
  196SOL    HW3  858   3.346   2.713   0.620  0.9934 -0.0927 -1.2610
  196SOL    MW4  859   3.350   2.631   0.648  0.0789  0.1962 -0.2711
  197SOL     OW  860   3.287   4.128   0.314  0.0320  0.2518  0.2002
  197SOL    HW2  861   3.316   4.062   0.377  1.2862  2.2356  1.7656
  197SOL    HW3  862   3.203   4.157   0.347  0.9520  1.7011  1.3124
  197SOL    MW4  863   3.280   4.123   0.326  0.3188  0.7048  0.5535
  198SOL     OW  864   1.981   3.782   0.286  0.4412  0.7924  0.5520
  198SOL    HW2  865   2.034   3.861   0.278 -2.1289  2.5176  0.3211
  198SOL    HW3  866   1.971   3.750   0.197  0.5833  0.7656  0.5441
  198SOL    MW4  867   1.987   3.788   0.273  0.1210  1.0164  0.5205
  199SOL     OW  868   4.153   3.982   0.420  0.1223  0.0717 -0.3368
  199SOL    HW2  869   4.124   4.068   0.389  1.1997  0.6310  0.1972
  199SOL    HW3  870   4.080   3.924   0.398 -0.4234  1.0277 -1.1210
  199SOL    MW4  871   4.139   3.986   0.413  0.1926  0.2716 -0.3698
  200SOL     OW  872   3.966   0.315   0.522  0.2325  0.6454  0.0293
  200SOL    HW2  873   3.903   0.367   0.571  0.9096  0.7601  0.8015
  200SOL    HW3  874   4.036   0.377   0.499  0.8103  0.1961  0.5388
  200SOL    MW4  875   3.967   0.330   0.526  0.3982  0.6013  0.1984
  201SOL     OW  876   3.727   0.333   0.350  0.0919 -0.4042  0.1171
  201SOL    HW2  877   3.712   0.419   0.390  0.9854 -0.3531  0.3489
  201SOL    HW3  878   3.821   0.319   0.357 -0.0045 -1.2625 -0.2171
  201SOL    MW4  879   3.737   0.342   0.356  0.1972 -0.5107  0.1036
  202SOL     OW  880   3.392   0.547   0.787  0.0729 -0.2005  0.3194
  202SOL    HW2  881   3.473   0.498   0.786  0.3460  0.2036  1.3000
  202SOL    HW3  882   3.363   0.549   0.696  0.7332 -1.0446  0.0899
  202SOL    MW4  883   3.399   0.541   0.775  0.1962 -0.2585  0.4184
  203SOL     OW  884   3.636   0.580   0.485 -0.4418 -0.1688  0.5228
  203SOL    HW2  885   3.680   0.659   0.453 -0.3429 -0.2980  0.3429
  203SOL    HW3  886   3.689   0.552   0.560  0.2224 -0.7636 -0.1655
  203SOL    MW4  887   3.648   0.587   0.491 -0.3409 -0.2643  0.4083
  204SOL     OW  888   4.381   0.950   0.499  0.1676  0.6729 -0.1037
  204SOL    HW2  889   4.468   0.931   0.464 -0.6443 -0.5460 -1.5128
  204SOL    HW3  890   4.370   1.045   0.487  0.0550  0.3348 -2.8239
  204SOL    MW4  891   4.391   0.960   0.493  0.0453  0.4675 -0.6485
  205SOL     OW  892   3.974   0.914   0.456  0.3555 -0.0558  0.0956
  205SOL    HW2  893   3.972   1.006   0.428  1.0785 -0.1352 -0.2178
  205SOL    HW3  894   3.884   0.883   0.441  0.2732  0.4159 -0.4113
  205SOL    MW4  895   3.962   0.922   0.450  0.4401 -0.0041 -0.0126
  206SOL     OW  896   4.177   1.275   0.291 -0.1904  0.5844 -0.2833
  206SOL    HW2  897   4.226   1.249   0.213  0.0906 -0.7809  0.3340
  206SOL    HW3  898   4.196   1.368   0.301  0.8563  0.4682 -1.0823
  206SOL    MW4  899   4.186   1.284   0.282 -0.0153  0.3890 -0.3072
  207SOL     OW  900   3.943   1.188   0.398 -0.3234  0.2071  0.2258
  207SOL    HW2  901   3.869   1.244   0.373  0.3206  0.0661 -2.0962
  207SOL    HW3  902   4.019   1.233   0.362  0.4567 -0.9290  0.4542
  207SOL    MW4  903   3.943   1.201   0.390 -0.1357  0.0385 -0.0504
  208SOL     OW  904   3.689   1.342   0.388 -0.5064 -0.2209 -0.3599
  208SOL    HW2  905   3.636   1.262   0.385 -1.4326  0.3069  1.3999
  208SOL    HW3  906   3.631   1.408   0.425  0.9042  0.7586  0.1376
  208SOL    MW4  907   3.674   1.340   0.393 -0.4427 -0.0221 -0.0620
  209SOL     OW  908   3.824   2.104   0.551  0.4410 -0.2788 -0.2432
  209SOL    HW2  909   3.767   2.179   0.535  1.7104  0.6263 -0.6458
  209SOL    HW3  910   3.897   2.117   0.490  0.3756 -2.1677 -0.7422
  209SOL    MW4  911   3.826   2.116   0.540  0.5999 -0.4089 -0.3622
  210SOL     OW  912   3.695   2.736   0.426 -0.2090  0.2933 -0.2226
  210SOL    HW2  913   3.760   2.764   0.491 -0.7207  1.2314 -0.0959
  210SOL    HW3  914   3.664   2.818   0.386 -1.0041 -0.1675 -0.5743
  210SOL    MW4  915   3.699   2.751   0.429 -0.3815  0.3562 -0.2523
  211SOL     OW  916   3.260   2.857   0.173  0.1805 -0.1298 -0.5124
  211SOL    HW2  917   3.322   2.785   0.174  0.3406  0.0092 -0.2607
  211SOL    HW3  918   3.237   2.869   0.081 -0.1730 -0.7805 -0.5063
  211SOL    MW4  919   3.265   2.849   0.161  0.1545 -0.1972 -0.4784
  212SOL     OW  920   2.666   2.476   0.542 -0.2371 -0.1939  0.4803
  212SOL    HW2  921   2.667   2.534   0.618  0.0729  0.2176  0.1688
  212SOL    HW3  922   2.757   2.477   0.510 -0.0824 -1.3908  0.8717
  212SOL    MW4  923   2.678   2.484   0.548 -0.1757 -0.2973  0.4908
  213SOL     OW  924   3.003   3.899   0.304 -0.2055  0.1254  0.1770
  213SOL    HW2  925   3.018   3.924   0.212 -2.0429  2.5360  0.4669
  213SOL    HW3  926   3.019   3.979   0.353 -1.6024 -0.5104  1.7079
  213SOL    MW4  927   3.007   3.913   0.298 -0.6320  0.3598  0.4172
  214SOL     OW  928   3.120   2.923   0.409  0.3072  0.3959  0.1627
  214SOL    HW2  929   3.145   2.914   0.317  0.4502 -0.8356  0.3230
  214SOL    HW3  930   3.136   3.016   0.428 -0.2383  0.7966 -1.1953
  214SOL    MW4  931   3.125   2.934   0.399  0.2542  0.2861  0.0047
  215SOL     OW  932   4.370   2.645   0.538 -0.6012  0.3515  0.0124
  215SOL    HW2  933   4.335   2.597   0.463  1.2835 -1.1925  0.0753
  215SOL    HW3  934   4.407   2.577   0.595  1.3164  1.7877  0.5522
  215SOL    MW4  935   4.370   2.630   0.536 -0.0992  0.3374  0.0919
  216SOL     OW  936   3.961   3.306   0.476 -0.6112 -0.0108  0.1525
  216SOL    HW2  937   3.970   3.273   0.566 -1.6555  0.7553  0.5561
  216SOL    HW3  938   3.901   3.244   0.434 -0.7184  0.0481  0.2162
  216SOL    MW4  939   3.954   3.293   0.483 -0.7634  0.0980  0.2141
  217SOL     OW  940   3.944   3.783   0.375  0.6980 -0.1696 -0.0234
  217SOL    HW2  941   3.864   3.837   0.373  0.9082  0.1009 -1.2091
  217SOL    HW3  942   3.913   3.695   0.396  0.0667 -0.0988 -0.6434
  217SOL    MW4  943   3.929   3.779   0.378  0.6423 -0.1245 -0.2616
  218SOL     OW  944   3.541   2.448   0.699  0.0206 -0.1118 -0.2618
  218SOL    HW2  945   3.620   2.493   0.727 -0.7392  2.0389 -1.4854
  218SOL    HW3  946   3.566   2.404   0.618 -0.2680  1.3288 -1.1436
  218SOL    MW4  947   3.555   2.448   0.692 -0.1180  0.3619 -0.5396
  219SOL     OW  948   3.392   3.941   0.509 -0.5988 -0.4450  0.2841
  219SOL    HW2  949   3.434   3.948   0.595  2.5386  2.0025 -1.3202
  219SOL    HW3  950   3.376   3.847   0.498  2.9156 -1.3030  1.7605
  219SOL    MW4  951   3.396   3.929   0.519  0.2785 -0.2351  0.2672
  220SOL     OW  952   4.442   3.747   0.428  0.4508  0.6496  0.0154
  220SOL    HW2  953   4.452   3.842   0.430 -1.3326  0.8431  0.7009
  220SOL    HW3  954   4.372   3.732   0.364  1.5290 -0.3024 -0.9794
  220SOL    MW4  955   4.434   3.758   0.420  0.3576  0.5496 -0.0254
  221SOL     OW  956   3.511   4.515   0.467  0.0949 -0.6325  0.1163
  221SOL    HW2  957   3.516   4.453   0.394  0.8863  0.9932 -1.2468
  221SOL    HW3  958   3.503   4.601   0.425  1.2295  0.3877  1.9304
  221SOL    MW4  959   3.511   4.518   0.452  0.3490 -0.2828  0.1759
  222SOL     OW  960   3.728   4.233   0.363  0.4324 -0.0298  0.3570
  222SOL    HW2  961   3.755   4.307   0.417  2.3520  0.4038 -1.1436
  222SOL    HW3  962   3.653   4.265   0.313  0.9389  0.7430  0.0925
  222SOL    MW4  963   3.721   4.247   0.363  0.7524  0.1297  0.1241
  223SOL     OW  964   0.145   4.469   0.616 -0.0770 -0.3922 -0.1465
  223SOL    HW2  965   0.085   4.401   0.586 -0.8641  1.7827 -3.6904
  223SOL    HW3  966   0.229   4.447   0.577  0.3442 -0.7931  0.9470
  223SOL    MW4  967   0.148   4.457   0.607 -0.1253 -0.1588 -0.4698
  224SOL     OW  968   4.189   0.764   0.355 -0.2752 -0.1687 -0.2911
  224SOL    HW2  969   4.102   0.805   0.351  0.2693  1.0639  0.0888
  224SOL    HW3  970   4.240   0.824   0.410  0.3521 -1.7345  0.8518
  224SOL    MW4  971   4.184   0.778   0.362 -0.1211 -0.2127 -0.0902
  225SOL     OW  972   4.060   2.118   0.386 -0.2727 -0.4727  0.5036
  225SOL    HW2  973   4.141   2.080   0.422 -2.1296 -3.1209  2.0482
  225SOL    HW3  974   4.065   2.211   0.411  2.0624 -0.6760  0.9466
  225SOL    MW4  975   4.072   2.125   0.394 -0.2098 -0.8488  0.7658
  226SOL     OW  976   4.180   0.474   0.438 -0.1031  0.1410  0.1855
  226SOL    HW2  977   4.201   0.557   0.395 -0.1119  0.4553  0.7766
  226SOL    HW3  978   4.249   0.414   0.410  0.6693  0.7189  0.8176
  226SOL    MW4  979   4.192   0.477   0.429 -0.0024  0.2587  0.3469
  227SOL     OW  980   0.078   0.457   0.466  0.4948 -0.1357 -0.4134
  227SOL    HW2  981   0.159   0.414   0.438  0.7773  1.4682 -2.1620
  227SOL    HW3  982   0.099   0.496   0.550  0.7682 -1.8367  0.3334
  227SOL    MW4  983   0.091   0.456   0.473  0.5682 -0.1485 -0.5456
  228SOL     OW  984   3.796   4.448   0.513 -0.2786 -0.1452  0.3162
  228SOL    HW2  985   3.711   4.490   0.525 -0.7924 -1.0740 -0.0282
  228SOL    HW3  986   3.822   4.422   0.601 -0.1652  0.4769  0.4739
  228SOL    MW4  987   3.788   4.450   0.526 -0.3312 -0.1860  0.2916
  229SOL     OW  988   4.370   1.238   0.488  0.2473  0.1169 -0.0520
  229SOL    HW2  989   4.341   1.273   0.572  0.7955  1.8652 -0.5632
  229SOL    HW3  990   4.307   1.272   0.425  0.5615 -0.1486 -0.5158
  229SOL    MW4  991   4.358   1.247   0.491  0.3610  0.3126 -0.1806
  230SOL     OW  992   0.160   1.189   0.456 -0.0307 -0.1980  0.1386
  230SOL    HW2  993   0.065   1.194   0.465 -0.0142 -0.5524  0.5815
  230SOL    HW3  994   0.177   1.097   0.434  0.1635  0.0062 -0.5699
  230SOL    MW4  995   0.150   1.178   0.454 -0.0030 -0.2178  0.1036
  231SOL     OW  996   3.622   2.294   0.473 -0.4299 -0.5992  0.3854
  231SOL    HW2  997   3.661   2.357   0.413 -0.2702  0.9512  2.0626
  231SOL    HW3  998   3.536   2.275   0.436 -1.4208  2.4005  1.0266
  231SOL    MW4  999   3.616   2.300   0.460 -0.5393  0.0012  0.6913
  232SOL     OW 1000   4.058   1.899   0.208  0.0803 -0.0396  0.0958
  232SOL    HW2 1001   4.070   1.987   0.243  0.6877 -0.1584  0.1927
  232SOL    HW3 1002   3.977   1.867   0.248  0.6752 -0.1119  1.2544
  232SOL    MW4 1003   4.049   1.906   0.218  0.2389 -0.0648  0.2615
  233SOL     OW 1004   4.332   2.066   0.472 -0.1094 -0.2877 -0.2854
  233SOL    HW2 1005   4.393   2.134   0.445 -0.7778  0.2297 -0.5194
  233SOL    HW3 1006   4.375   1.984   0.449  0.6476  0.0586 -0.1140
  233SOL    MW4 1007   4.346   2.064   0.466 -0.0973 -0.1738 -0.2937
  234SOL     OW 1008   4.307   1.769   0.179  0.0136  0.0048 -0.1113
  234SOL    HW2 1009   4.226   1.804   0.216 -0.7630 -1.2835 -0.5679
  234SOL    HW3 1010   4.322   1.820   0.100 -0.6847 -0.1646 -0.3494
  234SOL    MW4 1011   4.299   1.780   0.174 -0.1812 -0.1875 -0.2030
  235SOL     OW 1012   0.110   2.716   0.413 -0.3768 -0.2751  0.1373
  235SOL    HW2 1013   0.032   2.710   0.468  0.5534 -0.4748  1.4526
  235SOL    HW3 1014   0.095   2.654   0.341 -1.6632  0.1033  0.0754
  235SOL    MW4 1015   0.098   2.707   0.410 -0.4238 -0.2515  0.3027
  236SOL     OW 1016   3.770   2.509   0.311  0.3800 -0.1506  0.3671
  236SOL    HW2 1017   3.752   2.597   0.344 -1.1117 -0.5033  0.5299
  236SOL    HW3 1018   3.725   2.505   0.226  0.2657 -0.8068  0.4509
  236SOL    MW4 1019   3.761   2.520   0.304  0.1681 -0.2837  0.3997
  237SOL     OW 1020   0.007   2.343   0.469 -0.6524  0.1726  0.3095
  237SOL    HW2 1021   0.020   2.358   0.563  0.2598 -2.3032  0.6332
  237SOL    HW3 1022   0.094   2.322   0.436 -1.2302 -0.5943 -0.7620
  237SOL    MW4 1023   0.020   2.342   0.477 -0.6083 -0.2553  0.2109
  238SOL     OW 1024   0.437   3.933   0.389 -0.6081 -0.3638 -0.1344
  238SOL    HW2 1025   0.395   3.853   0.356  0.6405 -0.5066 -1.4292
  238SOL    HW3 1026   0.513   3.901   0.437 -1.0585 -0.0320  0.7935
  238SOL    MW4 1027   0.441   3.918   0.391 -0.5028 -0.3390 -0.1828
  239SOL     OW 1028   4.207   3.681   0.285 -0.4080  0.5946 -0.1497
  239SOL    HW2 1029   4.192   3.602   0.336 -1.8879  1.2388  0.4391
  239SOL    HW3 1030   4.119   3.716   0.269  0.1807  1.6612 -1.1318
  239SOL    MW4 1031   4.193   3.675   0.289 -0.5255  0.8204 -0.2016
  240SOL     OW 1032   0.521   3.536   0.361 -0.2002 -0.3757  0.0323
  240SOL    HW2 1033   0.608   3.556   0.395 -0.6238 -0.8646  1.4510
  240SOL    HW3 1034   0.500   3.450   0.398 -0.0538 -1.6577 -2.7536
  240SOL    MW4 1035   0.529   3.528   0.370 -0.2367 -0.6092 -0.1481
  241SOL     OW 1036   3.833   3.544   0.453 -0.0570 -0.2545  0.2421
  241SOL    HW2 1037   3.884   3.463   0.457  0.1531 -0.1362 -0.0520
  241SOL    HW3 1038   3.818   3.567   0.544 -0.6596 -0.9706  0.3233
  241SOL    MW4 1039   3.838   3.536   0.465 -0.1090 -0.3335  0.2140
  242SOL     OW 1040   0.006   3.413   0.299  0.4865 -0.5035 -0.7469
  242SOL    HW2 1041   0.061   3.359   0.356  0.1561 -1.1561 -1.0395
  242SOL    HW3 1042  -0.079   3.415   0.342  0.5003 -0.2213 -0.7366
  242SOL    MW4 1043   0.002   3.406   0.312  0.4448 -0.5527 -0.7841
  243SOL     OW 1044   4.425   4.020   0.430  0.1881 -0.1370  0.1125
  243SOL    HW2 1045   4.331   4.009   0.417  0.4055 -0.8352 -1.0437
  243SOL    HW3 1046   4.437   4.113   0.449 -0.6280  0.1618 -0.7961
  243SOL    MW4 1047   4.414   4.030   0.431  0.1087 -0.1898 -0.1599
  244SOL     OW 1048   4.048   4.247   0.342 -0.1004 -0.1135  0.3372
  244SOL    HW2 1049   4.051   4.315   0.410 -1.8334 -0.2661  0.6105
  244SOL    HW3 1050   3.957   4.249   0.311 -0.4419 -2.9605  1.0216
  244SOL    MW4 1051   4.036   4.257   0.347 -0.3748 -0.5088  0.4635
  245SOL     OW 1052   3.482   4.318   0.249  0.0173  0.1470 -0.2472
  245SOL    HW2 1053   3.478   4.332   0.155  1.4345 -1.4670 -0.5804
  245SOL    HW3 1054   3.419   4.247   0.265  0.7825 -0.5218 -0.1900
  245SOL    MW4 1055   3.473   4.311   0.239  0.3052 -0.1545 -0.2837
  246SOL     OW 1056   4.080   4.490   0.485 -0.2561  0.0775 -0.2951
  246SOL    HW2 1057   3.985   4.492   0.478 -0.4108 -1.2984  1.2410
  246SOL    HW3 1058   4.107   4.581   0.469 -1.7430  0.3089 -1.6068
  246SOL    MW4 1059   4.071   4.502   0.482 -0.4721 -0.0734 -0.2655
  247SOL     OW 1060   0.212   4.656   0.906 -0.1191 -0.7606  0.0004
  247SOL    HW2 1061   0.211   4.562   0.888  2.2327 -0.3666 -2.3829
  247SOL    HW3 1062   0.131   4.690   0.867  0.1850 -1.4278 -1.1972
  247SOL    MW4 1063   0.201   4.648   0.899  0.2313 -0.7967 -0.4721
  248SOL     OW 1064   4.482   0.117   0.784  0.4697  0.2443 -0.2845
  248SOL    HW2 1065   4.415   0.065   0.829  2.5369 -0.9078  1.5768
  248SOL    HW3 1066   4.460   0.208   0.804 -0.3971 -0.1442  0.5357
  248SOL    MW4 1067   4.471   0.122   0.793  0.6285  0.0411  0.0693
  249SOL     OW 1068   4.441   0.420   0.831  0.1949  0.0704  0.4759
  249SOL    HW2 1069   4.457   0.413   0.925 -1.7027  1.2188  0.9129
  249SOL    HW3 1070   4.517   0.467   0.797  0.8492 -0.2616  1.4446
  249SOL    MW4 1071   4.453   0.425   0.839  0.0305  0.1781  0.6614
  250SOL     OW 1072   0.183   0.555   0.739  0.1579 -0.0328  0.0347
  250SOL    HW2 1073   0.267   0.510   0.749  0.9110  0.9271 -1.6418
  250SOL    HW3 1074   0.197   0.639   0.782  0.1012  0.1698 -0.3414
  250SOL    MW4 1075   0.196   0.560   0.746  0.2497  0.1206 -0.2361
  251SOL     OW 1076   0.195   0.809   0.843  0.0491  0.2001  0.5078
  251SOL    HW2 1077   0.197   0.792   0.937  0.3752 -0.5226  0.3744
  251SOL    HW3 1078   0.114   0.858   0.828  0.3960  1.0209  1.2790
  251SOL    MW4 1079   0.185   0.814   0.853  0.1379  0.2130  0.5920
  252SOL     OW 1080   4.454   0.924   0.762 -0.7767  0.1330  0.0138
  252SOL    HW2 1081   4.387   0.865   0.796 -1.8531  1.1968 -0.2292
  252SOL    HW3 1082   4.439   0.925   0.667 -0.9364  0.9946  0.0459
  252SOL    MW4 1083   4.443   0.916   0.754 -0.9394  0.3870 -0.0139
  253SOL     OW 1084   4.481   1.183   0.876  0.0753 -0.4987 -0.1492
  253SOL    HW2 1085   4.483   1.168   0.970  0.8679 -1.5868 -0.3286
  253SOL    HW3 1086   4.463   1.097   0.838  0.2585 -0.1671 -1.0095
  253SOL    MW4 1087   4.479   1.170   0.883  0.2036 -0.5985 -0.2864
  254SOL     OW 1088   0.217   1.229   0.737  0.2455 -0.7147 -0.2262
  254SOL    HW2 1089   0.137   1.209   0.787  0.0999  1.6485  0.5050
  254SOL    HW3 1090   0.191   1.216   0.646 -0.9799 -0.0251  0.0094
  254SOL    MW4 1091   0.203   1.224   0.732  0.0646 -0.3120 -0.0986
  255SOL     OW 1092   0.258   1.493   0.880 -0.2411  0.1971 -0.0912
  255SOL    HW2 1093   0.322   1.539   0.826 -0.2541  1.1214  0.6621
  255SOL    HW3 1094   0.261   1.402   0.849  0.7949  0.4156 -0.6521
  255SOL    MW4 1095   0.267   1.487   0.869 -0.1061  0.3479 -0.0658
  256SOL     OW 1096   0.032   1.622   0.756 -0.4618  0.2689 -0.4689
  256SOL    HW2 1097  -0.052   1.586   0.785 -0.3017  0.2398 -0.0304
  256SOL    HW3 1098   0.098   1.567   0.799 -0.2147 -0.2365 -1.4831
  256SOL    MW4 1099   0.029   1.610   0.766 -0.4081  0.1985 -0.5449
  257SOL     OW 1100   0.015   1.880   0.854  0.5743  0.1812  0.2164
  257SOL    HW2 1101   0.078   1.916   0.792 -0.5648 -0.2119 -1.1964
  257SOL    HW3 1102   0.012   1.786   0.833 -0.3604  0.1715  0.3703
  257SOL    MW4 1103   0.023   1.872   0.843  0.3004  0.1281  0.0504
  258SOL     OW 1104   0.213   2.028   0.724  0.4140  0.6753 -0.7360
  258SOL    HW2 1105   0.201   2.121   0.746  0.8678  0.6278 -0.2769
  258SOL    HW3 1106   0.210   2.026   0.629 -2.8089  0.7196 -0.6721
  258SOL    MW4 1107   0.211   2.040   0.714  0.0486  0.6750 -0.6670
  259SOL     OW 1108   0.204   2.290   0.814 -0.1564  0.1283  0.1049
  259SOL    HW2 1109   0.206   2.311   0.908  0.8877  1.1667 -0.1418
  259SOL    HW3 1110   0.294   2.300   0.785 -0.7413  1.3801 -1.3449
  259SOL    MW4 1111   0.216   2.294   0.823 -0.0958  0.4306 -0.1189
  260SOL     OW 1112   0.011   2.443   0.716  0.0419  0.5253  0.4068
  260SOL    HW2 1113  -0.068   2.407   0.755  0.2978 -0.1607  0.2860
  260SOL    HW3 1114   0.082   2.389   0.750  0.2299 -0.3699 -1.3520
  260SOL    MW4 1115   0.010   2.431   0.726  0.1004  0.3166  0.1588
  261SOL     OW 1116   0.167   2.645   0.824  0.7123  0.0068 -0.1004
  261SOL    HW2 1117   0.120   2.665   0.905  0.6646 -0.0190 -0.1215
  261SOL    HW3 1118   0.112   2.581   0.779  1.6695 -1.4233  0.7378
  261SOL    MW4 1119   0.154   2.639   0.829  0.8323 -0.1850  0.0075
  262SOL     OW 1120   0.087   2.892   0.722  0.3499 -0.5540 -0.2491
  262SOL    HW2 1121   0.111   2.806   0.755  1.2900 -0.6277 -1.0960
  262SOL    HW3 1122   0.124   2.895   0.634 -0.4777  0.3627 -0.5784
  262SOL    MW4 1123   0.095   2.881   0.715  0.3647 -0.4427 -0.4042
  263SOL     OW 1124   0.225   3.114   0.834 -0.0563 -0.1745 -0.0596
  263SOL    HW2 1125   0.214   3.092   0.926  0.3050 -0.9875 -0.2144
  263SOL    HW3 1126   0.189   3.039   0.787  1.5793 -0.6425 -0.5804
  263SOL    MW4 1127   0.219   3.101   0.840  0.2072 -0.3436 -0.1487
  264SOL     OW 1128   4.490   3.231   0.744 -0.3918  0.6851  0.3988
  264SOL    HW2 1129   4.565   3.188   0.787 -1.5802 -0.7147  1.1201
  264SOL    HW3 1130   4.516   3.238   0.652  0.7813  0.5476  0.7101
  264SOL    MW4 1131   4.504   3.226   0.738 -0.3938  0.4821  0.5350
  265SOL     OW 1132   4.355   3.637   0.669  0.4644  0.0116  0.1637
  265SOL    HW2 1133   4.358   3.712   0.729  0.7336 -0.0347  0.2064
  265SOL    HW3 1134   4.385   3.671   0.585  0.4249 -0.0078  0.1412
  265SOL    MW4 1135   4.359   3.651   0.666  0.4950  0.0029  0.1663
  266SOL     OW 1136   0.045   3.503   0.818 -0.6084 -0.0580  0.7028
  266SOL    HW2 1137   0.022   3.411   0.808 -0.1011 -0.0894 -0.2374
  266SOL    HW3 1138  -0.024   3.550   0.772 -0.1317 -0.0332  0.0147
  266SOL    MW4 1139   0.033   3.497   0.811 -0.4786 -0.0587  0.4880
  267SOL     OW 1140   0.261   3.682   0.751  0.2920  0.5136  0.1881
  267SOL    HW2 1141   0.271   3.769   0.789 -0.8217  1.1178 -0.8931
  267SOL    HW3 1142   0.180   3.648   0.789 -0.1354  0.6026 -0.6295
  267SOL    MW4 1143   0.252   3.689   0.761  0.0887  0.6051 -0.0623
  268SOL     OW 1144   0.240   3.927   0.894  0.5099  0.0169 -0.1383
  268SOL    HW2 1145   0.174   3.992   0.872 -0.3154 -1.2413 -1.4377
  268SOL    HW3 1146   0.226   3.907   0.986  0.8793  1.7872  0.3126
  268SOL    MW4 1147   0.230   3.933   0.903  0.4497  0.0842 -0.2502
  269SOL     OW 1148   0.015   4.101   0.855 -0.6380  0.6533 -0.0299
  269SOL    HW2 1149   0.014   4.150   0.937  1.0902 -0.2147  0.5311
  269SOL    HW3 1150  -0.054   4.035   0.865 -0.7573  0.8616  0.5276
  269SOL    MW4 1151   0.006   4.099   0.867 -0.4257  0.5660  0.1177
  270SOL     OW 1152   0.198   4.386   0.866 -0.1232 -0.1062 -0.1024
  270SOL    HW2 1153   0.121   4.348   0.909  0.6985 -0.7426  0.8452
  270SOL    HW3 1154   0.172   4.397   0.775 -1.3722 -0.2151  0.2309
  270SOL    MW4 1155   0.184   4.382   0.860 -0.1796 -0.2046  0.0666
  271SOL     OW 1156   0.636   0.052   0.831 -0.8570 -0.2051 -0.7989
  271SOL    HW2 1157   0.630   0.025   0.923 -0.8672 -1.2195 -1.0921
  271SOL    HW3 1158   0.545   0.063   0.803 -0.8390  0.7132 -0.5183
  271SOL    MW4 1159   0.623   0.050   0.840 -0.8560 -0.2178 -0.8006
  272SOL     OW 1160   0.385   0.109   0.743 -0.4889  0.1518 -0.1165
  272SOL    HW2 1161   0.316   0.073   0.798 -1.2329  0.2775 -0.9556
  272SOL    HW3 1162   0.357   0.090   0.654  0.8110 -0.2383 -0.4487
  272SOL    MW4 1163   0.372   0.102   0.738 -0.4156  0.1169 -0.2711
  273SOL     OW 1164   0.417   0.368   0.828 -0.2541 -0.1483 -0.2985
  273SOL    HW2 1165   0.497   0.403   0.788 -1.2928  1.1385 -1.3406
  273SOL    HW3 1166   0.404   0.284   0.785  0.4989 -0.3401 -0.1672
  273SOL    MW4 1167   0.426   0.362   0.817 -0.2918 -0.0038 -0.4187
  274SOL     OW 1168   0.647   0.468   0.727  0.1692  0.1897 -0.0010
  274SOL    HW2 1169   0.733   0.427   0.741 -0.3341 -0.7766  0.2490
  274SOL    HW3 1170   0.638   0.472   0.632  0.9092  1.1865 -0.0438
  274SOL    MW4 1171   0.657   0.463   0.716  0.2005  0.1937  0.0263
  275SOL     OW 1172   0.672   0.744   0.841  0.4847 -0.2473  0.3179
  275SOL    HW2 1173   0.591   0.790   0.819 -0.2990 -0.7340  2.1224
  275SOL    HW3 1174   0.658   0.655   0.810  1.5368  0.3982 -2.1011
  275SOL    MW4 1175   0.660   0.739   0.834  0.5201 -0.2264  0.2369
  276SOL     OW 1176   0.448   0.886   0.753  0.0202 -0.0780  0.2048
  276SOL    HW2 1177   0.455   0.969   0.800 -0.1865  0.0434  0.0207
  276SOL    HW3 1178   0.357   0.860   0.763 -0.1805  0.2761 -0.6811
  276SOL    MW4 1179   0.437   0.894   0.761 -0.0336 -0.0153  0.0637
  277SOL     OW 1180   0.460   1.152   0.827  0.2001  0.2047  0.6178
  277SOL    HW2 1181   0.524   1.210   0.786  0.4252  0.7354  1.6937
  277SOL    HW3 1182   0.375   1.191   0.805  0.3268  0.5477  0.7322
  277SOL    MW4 1183   0.457   1.165   0.819  0.2466  0.3200  0.7748
  278SOL     OW 1184   0.676   1.303   0.724  0.1407 -0.4340 -0.1397
  278SOL    HW2 1185   0.696   1.381   0.777 -0.5966 -1.1850  1.2650
  278SOL    HW3 1186   0.693   1.331   0.634  0.1959  1.2631  0.3695
  278SOL    MW4 1187   0.681   1.317   0.719  0.0507 -0.3092  0.1128
  279SOL     OW 1188   0.733   1.534   0.890 -0.3649  0.1273 -0.1671
  279SOL    HW2 1189   0.717   1.525   0.984 -0.9399 -1.1240 -0.3685
  279SOL    HW3 1190   0.652   1.572   0.856 -0.5070 -0.2833 -0.2872
  279SOL    MW4 1191   0.720   1.538   0.898 -0.4594 -0.0920 -0.2096
  280SOL     OW 1192   0.473   1.610   0.777 -0.2529 -0.2643 -0.0764
  280SOL    HW2 1193   0.459   1.703   0.794  1.1957 -0.1713  0.7399
  280SOL    HW3 1194   0.476   1.603   0.681  0.8678  0.7438 -0.1274
  280SOL    MW4 1195   0.472   1.621   0.766  0.0861 -0.1190  0.0246
  281SOL     OW 1196   0.426   1.881   0.832 -0.4884  0.1466 -0.1906
  281SOL    HW2 1197   0.440   1.905   0.924  1.1284  0.8682 -0.6282
  281SOL    HW3 1198   0.358   1.941   0.802 -0.2083  0.6737  0.2147
  281SOL    MW4 1199   0.419   1.892   0.840 -0.2381  0.3113 -0.1948
  282SOL     OW 1200   0.640   2.027   0.773 -1.0388 -0.5813 -0.0712
  282SOL    HW2 1201   0.575   1.961   0.796  0.1849 -1.6694  0.3450
  282SOL    HW3 1202   0.650   2.018   0.678 -1.5809 -0.3490 -0.1455
  282SOL    MW4 1203   0.633   2.017   0.763 -0.9488 -0.6940 -0.0262
  283SOL     OW 1204   0.706   2.275   0.835 -0.8315  0.0791 -0.0824
  283SOL    HW2 1205   0.708   2.265   0.930 -1.1200 -1.5216 -0.2303
  283SOL    HW3 1206   0.666   2.195   0.803 -0.4090  0.4422 -1.5823
  283SOL    MW4 1207   0.701   2.263   0.843 -0.8139 -0.0839 -0.2998
  284SOL     OW 1208   0.463   2.361   0.739  0.8431 -0.2366 -0.0195
  284SOL    HW2 1209   0.546   2.338   0.781  0.2006 -1.1601  0.7467
  284SOL    HW3 1210   0.486   2.373   0.647  1.9829  0.3468  0.3393
  284SOL    MW4 1211   0.477   2.359   0.732  0.9087 -0.2816  0.1289
  285SOL     OW 1212   0.456   2.636   0.833  0.2691 -0.4383  0.4293
  285SOL    HW2 1213   0.466   2.548   0.798 -1.7231 -0.4542 -0.1471
  285SOL    HW3 1214   0.364   2.659   0.816  0.6142  1.5286  1.0538
  285SOL    MW4 1215   0.445   2.628   0.826  0.0518 -0.1812  0.4357
  286SOL     OW 1216   0.648   2.812   0.747  0.1113 -0.7751 -0.1146
  286SOL    HW2 1217   0.725   2.786   0.797  0.0100  0.0830  0.5001
  286SOL    HW3 1218   0.584   2.743   0.764  0.6778 -1.3822 -0.4652
  286SOL    MW4 1219   0.649   2.800   0.756  0.1726 -0.7420 -0.0797
  287SOL     OW 1220   0.675   3.067   0.865  0.1885 -0.0560 -0.1708
  287SOL    HW2 1221   0.592   3.111   0.844 -0.0812  0.6751  2.2860
  287SOL    HW3 1222   0.666   2.980   0.826 -1.6320  0.1125 -0.1726
  287SOL    MW4 1223   0.663   3.061   0.857 -0.0873  0.0629  0.1531
  288SOL     OW 1224   0.463   3.225   0.741 -0.6162 -0.1069 -0.3355
  288SOL    HW2 1225   0.457   3.311   0.781  0.4133 -1.0434  1.9011
  288SOL    HW3 1226   0.384   3.179   0.771 -0.2157 -0.5668  0.0200
  288SOL    MW4 1227   0.452   3.230   0.750 -0.4276 -0.2911  0.0065
  289SOL     OW 1228   0.443   3.491   0.849  0.6412 -0.5628  0.1082
  289SOL    HW2 1229   0.432   3.488   0.944 -0.8325 -2.1368 -0.0937
  289SOL    HW3 1230   0.385   3.562   0.821  0.6183 -0.4969  0.3211
  289SOL    MW4 1231   0.434   3.500   0.858  0.4437 -0.7615  0.1096
  290SOL     OW 1232   0.698   3.583   0.723  0.3177 -0.1562  0.0886
  290SOL    HW2 1233   0.615   3.561   0.766 -0.6837  3.1612 -0.0079
  290SOL    HW3 1234   0.716   3.673   0.751  2.5171  0.0983 -2.0056
  290SOL    MW4 1235   0.689   3.592   0.732  0.4757  0.3150 -0.2003
  291SOL     OW 1236   0.703   3.846   0.839  0.1691 -0.1622 -0.3390
  291SOL    HW2 1237   0.780   3.903   0.830  0.0652  0.1710  0.7545
  291SOL    HW3 1238   0.629   3.905   0.827  0.0658 -0.1334  0.4152
  291SOL    MW4 1239   0.704   3.861   0.836  0.1417 -0.1142 -0.0952
  292SOL     OW 1240   0.493   4.031   0.821 -0.5259 -0.2364 -0.5986
  292SOL    HW2 1241   0.498   4.126   0.821 -1.2764 -0.1606  1.3878
  292SOL    HW3 1242   0.405   4.012   0.853 -0.6490 -1.6005 -1.7133
  292SOL    MW4 1243   0.482   4.041   0.825 -0.6412 -0.4067 -0.4836
  293SOL     OW 1244   0.475   4.309   0.842  0.1764 -0.0767  0.5938
  293SOL    HW2 1245   0.494   4.286   0.933 -0.2554 -1.5413  0.3349
  293SOL    HW3 1246   0.382   4.329   0.840  0.2730  0.3724  0.5548
  293SOL    MW4 1247   0.466   4.308   0.854  0.1322 -0.2103  0.5545
  294SOL     OW 1248   0.682   4.456   0.738 -0.4069  0.4929 -0.0906
  294SOL    HW2 1249   0.605   4.404   0.762 -0.9590  0.7351 -1.2940
  294SOL    HW3 1250   0.654   4.547   0.748  0.3770  0.5924  1.4414
  294SOL    MW4 1251   0.668   4.461   0.743 -0.3763  0.5379 -0.0472
  295SOL     OW 1252   1.153   4.630   0.826  0.2772  0.3723  0.0307
  295SOL    HW2 1253   1.234   4.673   0.798  0.1827  1.1372  0.9286
  295SOL    HW3 1254   1.085   4.696   0.814 -0.4041 -0.6005 -1.7073
  295SOL    MW4 1255   1.155   4.644   0.821  0.1748  0.3448 -0.0802
  296SOL     OW 1256   0.905   0.090   0.784  0.2575 -0.0756 -0.0040
  296SOL    HW2 1257   0.910   0.180   0.816 -0.3655  0.2739 -0.8784
  296SOL    HW3 1258   0.813   0.065   0.795  0.3978 -0.5577  0.1053
  296SOL    MW4 1259   0.894   0.098   0.790  0.1938 -0.0931 -0.1049
  297SOL     OW 1260   0.887   0.367   0.810 -0.0335 -0.0540 -0.6502
  297SOL    HW2 1261   0.886   0.406   0.898  1.9070 -1.4761  0.0505
  297SOL    HW3 1262   0.966   0.404   0.770 -0.8495  0.4952 -1.7751
  297SOL    MW4 1263   0.898   0.377   0.817  0.1148 -0.1692 -0.7061
  298SOL     OW 1264   1.090   0.513   0.707  0.1631  0.1552 -0.1763
  298SOL    HW2 1265   1.174   0.481   0.740 -0.0950  0.6528  0.9841
  298SOL    HW3 1266   1.101   0.515   0.612  1.4016  0.0441 -0.0467
  298SOL    MW4 1267   1.102   0.509   0.699  0.2925  0.2062 -0.0061
  299SOL     OW 1268   1.139   0.775   0.775  0.1060 -0.1016  0.2343
  299SOL    HW2 1269   1.137   0.777   0.870 -1.2817 -0.2451  0.2151
  299SOL    HW3 1270   1.119   0.685   0.751 -1.2237  0.2800 -0.2023
  299SOL    MW4 1271   1.136   0.764   0.784 -0.2526 -0.0703  0.1742
  300SOL     OW 1272   0.897   0.869   0.686 -0.1188  0.0740 -0.9852
  300SOL    HW2 1273   0.979   0.850   0.730 -0.5605  0.3240 -0.0408
  300SOL    HW3 1274   0.834   0.809   0.726 -0.5727  0.4718 -1.0983
  300SOL    MW4 1275   0.899   0.858   0.697 -0.2370  0.1595 -0.8755
  301SOL     OW 1276   0.892   1.124   0.806 -0.3951  0.0646 -0.2789
  301SOL    HW2 1277   0.917   1.044   0.761 -1.0102 -0.7173  0.7553
  301SOL    HW3 1278   0.813   1.154   0.760 -0.2093  0.0428 -0.6155
  301SOL    MW4 1279   0.885   1.117   0.794 -0.4518 -0.0415 -0.1868
  302SOL     OW 1280   1.115   1.273   0.764  0.1540 -0.2064  0.3263
  302SOL    HW2 1281   1.056   1.206   0.799 -1.1891  0.8936  0.1649
  302SOL    HW3 1282   1.084   1.288   0.675  0.5160  0.5777  0.3324
  302SOL    MW4 1283   1.103   1.266   0.757  0.0246  0.0422  0.3058
  303SOL     OW 1284   1.152   1.537   0.831  0.7493 -0.3605  0.2112
  303SOL    HW2 1285   1.081   1.593   0.797 -0.6607 -1.4314  1.3405
  303SOL    HW3 1286   1.123   1.448   0.811  1.8620 -0.8010  0.5607
  303SOL    MW4 1287   1.138   1.533   0.824  0.7100 -0.5599  0.4064
  304SOL     OW 1288   0.919   1.657   0.725 -0.1264  0.1834  0.5594
  304SOL    HW2 1289   0.923   1.749   0.748 -2.2534  0.3364  0.4386
  304SOL    HW3 1290   0.870   1.616   0.796 -0.4437 -0.5992 -0.0921
  304SOL    MW4 1291   0.913   1.663   0.737 -0.4489  0.1004  0.4575
  305SOL     OW 1292   0.911   1.916   0.823 -0.5691  0.1672  0.0199
  305SOL    HW2 1293   0.920   1.922   0.918 -1.4440 -1.1184  0.1892
  305SOL    HW3 1294   0.828   1.960   0.804 -0.4519  0.3217 -0.1345
  305SOL    MW4 1295   0.901   1.923   0.833 -0.6691  0.0180  0.0219
  306SOL     OW 1296   1.138   2.071   0.743 -0.2621 -0.3967 -0.0713
  306SOL    HW2 1297   1.113   2.161   0.765  0.3416 -0.0343 -0.8344
  306SOL    HW3 1298   1.066   2.018   0.776 -0.5710  0.3517  0.4995
  306SOL    MW4 1299   1.125   2.076   0.751 -0.2233 -0.2499 -0.0967
  307SOL     OW 1300   1.106   2.349   0.772 -0.8909  0.4685  0.2290
  307SOL    HW2 1301   1.120   2.349   0.867  0.3030 -0.3457  0.0616
  307SOL    HW3 1302   1.187   2.386   0.736  0.1360 -2.5373 -0.6618
  307SOL    MW4 1303   1.119   2.354   0.780 -0.5978 -0.0355  0.0894
  308SOL     OW 1304   0.860   2.447   0.690 -0.4563 -0.1920  0.0423
  308SOL    HW2 1305   0.951   2.422   0.707 -0.2126  1.3646  1.1081
  308SOL    HW3 1306   0.810   2.403   0.760 -0.5159 -0.9169 -0.4490
  308SOL    MW4 1307   0.865   2.438   0.702 -0.4320 -0.0820  0.1182
  309SOL     OW 1308   0.887   2.696   0.840 -0.0112 -0.5688  0.0132
  309SOL    HW2 1309   0.884   2.675   0.933  3.6160 -0.7158  0.1982
  309SOL    HW3 1310   0.869   2.613   0.796  0.6053 -1.0464  0.6442
  309SOL    MW4 1311   0.884   2.682   0.846  0.5487 -0.6511  0.1209
  310SOL     OW 1312   1.103   2.834   0.741 -0.4517 -0.5702 -0.1916
  310SOL    HW2 1313   1.022   2.788   0.763 -1.6751  1.0552 -1.2452
  310SOL    HW3 1314   1.108   2.830   0.645 -0.4000  1.1631 -0.2789
  310SOL    MW4 1315   1.093   2.827   0.731 -0.6064 -0.1273 -0.3422
  311SOL     OW 1316   1.101   3.085   0.848 -0.1458 -0.6002  0.3585
  311SOL    HW2 1317   1.029   3.133   0.805 -0.1449  0.7109  1.7649
  311SOL    HW3 1318   1.091   2.995   0.817 -1.5440 -0.1529 -0.5767
  311SOL    MW4 1319   1.090   3.079   0.839 -0.3302 -0.3686  0.4206
  312SOL     OW 1320   0.882   3.195   0.703 -0.6834 -0.4196 -0.0498
  312SOL    HW2 1321   0.892   3.289   0.719 -0.4474 -0.5423  0.5656
  312SOL    HW3 1322   0.822   3.165   0.771 -1.7088 -0.5054 -0.9815
  312SOL    MW4 1323   0.876   3.203   0.714 -0.7876 -0.4470 -0.0916
  313SOL     OW 1324   0.942   3.465   0.786 -0.1102 -0.0960  0.2681
  313SOL    HW2 1325   0.858   3.497   0.753 -0.0228  0.1199  0.2528
  313SOL    HW3 1326   0.927   3.449   0.879 -0.1783 -0.0945  0.2573
  313SOL    MW4 1327   0.929   3.467   0.794 -0.1076 -0.0672  0.2647
  314SOL     OW 1328   1.169   3.657   0.779  0.0100  0.0361  0.1808
  314SOL    HW2 1329   1.232   3.605   0.829  0.7592  0.3170 -0.4499
  314SOL    HW3 1330   1.089   3.606   0.779  0.0254 -0.0151  1.5862
  314SOL    MW4 1331   1.167   3.644   0.786  0.1109  0.0660  0.2830
  315SOL     OW 1332   1.125   3.911   0.886 -0.1941  0.0843 -0.4554
  315SOL    HW2 1333   1.140   3.910   0.980  0.8294 -0.6005 -0.6166
  315SOL    HW3 1334   1.138   3.821   0.858  0.3094  0.4305 -1.3711
  315SOL    MW4 1335   1.129   3.899   0.895  0.0074  0.0396 -0.5975
  316SOL     OW 1336   0.907   4.025   0.770  0.0156 -0.1151 -0.3072
  316SOL    HW2 1337   0.904   4.114   0.803  1.6433 -0.0740 -0.2326
  316SOL    HW3 1338   0.986   3.987   0.808  0.0149 -1.1976 -1.3213
  316SOL    MW4 1339   0.917   4.031   0.779  0.2303 -0.2527 -0.4311
  317SOL     OW 1340   0.877   4.288   0.816 -0.3737  0.2093 -0.9443
  317SOL    HW2 1341   0.953   4.322   0.768  0.0136 -0.0173 -0.4932
  317SOL    HW3 1342   0.804   4.343   0.787 -0.2522 -0.2518 -2.1876
  317SOL    MW4 1343   0.877   4.300   0.806 -0.3065  0.1183 -1.0488
  318SOL     OW 1344   1.119   4.392   0.715 -0.4076  0.5606 -0.0585
  318SOL    HW2 1345   1.193   4.344   0.751  0.7288  1.7303 -0.8154
  318SOL    HW3 1346   1.125   4.479   0.755 -0.0868  1.3490 -1.7797
  318SOL    MW4 1347   1.129   4.397   0.725 -0.2152  0.8192 -0.3855
  319SOL     OW 1348   1.603   4.654   0.893  0.7867  0.0735 -0.1315
  319SOL    HW2 1349   1.596   4.659   0.988  0.0001  0.5408 -0.2137
  319SOL    HW3 1350   1.520   4.688   0.861  0.8216 -0.6231 -0.9752
  319SOL    MW4 1351   1.591   4.659   0.901  0.6875  0.0432 -0.2537
  320SOL     OW 1352   1.385   0.100   0.763  0.0157 -0.3376 -0.2608
  320SOL    HW2 1353   1.353   0.191   0.765 -1.7518 -0.9354  0.5552
  320SOL    HW3 1354   1.414   0.087   0.673 -3.1860 -0.0719 -1.4081
  320SOL    MW4 1355   1.384   0.111   0.751 -0.6399 -0.3814 -0.3045
  321SOL     OW 1356   1.311   0.376   0.779 -0.2435  0.1107 -0.1598
  321SOL    HW2 1357   1.317   0.390   0.873 -0.0806  0.2870 -0.1952
  321SOL    HW3 1358   1.398   0.400   0.746 -0.6112  1.0215 -0.4799
  321SOL    MW4 1359   1.323   0.381   0.787 -0.2706  0.2541 -0.2067
  322SOL     OW 1360   1.598   0.513   0.713 -0.1236 -0.2538  0.1959
  322SOL    HW2 1361   1.595   0.607   0.732 -1.6521 -0.0376 -0.9686
  322SOL    HW3 1362   1.661   0.477   0.775 -0.6731  1.3081  1.6882
  322SOL    MW4 1363   1.606   0.521   0.724 -0.3978 -0.0193  0.2391
  323SOL     OW 1364   1.631   0.781   0.802  0.0036  0.0399 -0.1632
  323SOL    HW2 1365   1.706   0.825   0.763 -0.2459 -0.1579 -0.8687
  323SOL    HW3 1366   1.555   0.824   0.764 -0.2415  0.0978  0.3899
  323SOL    MW4 1367   1.631   0.792   0.792 -0.0616  0.0215 -0.1833
  324SOL     OW 1368   1.366   0.899   0.722  0.2310 -0.3045  0.7597
  324SOL    HW2 1369   1.359   0.973   0.782 -0.1851  0.3139 -0.0369
  324SOL    HW3 1370   1.284   0.851   0.732 -0.1890  0.2643  0.0883
  324SOL    MW4 1371   1.354   0.903   0.731  0.1208 -0.1478  0.5661
  325SOL     OW 1372   1.326   1.137   0.847 -0.0887  0.1446 -0.1199
  325SOL    HW2 1373   1.403   1.179   0.810  0.0220 -0.0445 -0.1001
  325SOL    HW3 1374   1.252   1.180   0.802  0.0130  0.5655  0.1106
  325SOL    MW4 1375   1.326   1.148   0.836 -0.0608  0.1752 -0.0869
  326SOL     OW 1376   1.577   1.240   0.748  0.5221  0.4402  0.1196
  326SOL    HW2 1377   1.580   1.325   0.791 -0.4294  0.8697 -0.6523
  326SOL    HW3 1378   1.545   1.258   0.660 -2.2624 -0.9880  0.7721
  326SOL    MW4 1379   1.573   1.253   0.742  0.0292  0.3085  0.1038
  327SOL     OW 1380   1.595   1.482   0.868  0.6266  0.0234  0.3103
  327SOL    HW2 1381   1.581   1.510   0.958  1.0902  0.9400  0.1110
  327SOL    HW3 1382   1.528   1.528   0.817  1.9828  1.5559 -0.1485
  327SOL    MW4 1383   1.584   1.492   0.873  0.8667  0.3465  0.2234
  328SOL     OW 1384   1.392   1.639   0.747  0.6044 -0.1945  0.3409
  328SOL    HW2 1385   1.378   1.728   0.779  2.3447  0.3166 -0.2777
  328SOL    HW3 1386   1.308   1.595   0.761 -0.3414  1.5992  0.4487
  328SOL    MW4 1387   1.379   1.645   0.753  0.7092  0.1096  0.2735
  329SOL     OW 1388   1.338   1.907   0.823  0.0765  0.1305  0.0679
  329SOL    HW2 1389   1.340   1.919   0.918  0.5709  0.6301 -0.0018
  329SOL    HW3 1390   1.264   1.961   0.794  1.6860  2.3109 -0.1320
  329SOL    MW4 1391   1.329   1.916   0.831  0.3539  0.4841  0.0323
  330SOL     OW 1392   1.551   2.045   0.706  0.1563  0.0761 -0.1023
  330SOL    HW2 1393   1.476   2.014   0.756  0.6168 -0.6813  0.1342
  330SOL    HW3 1394   1.516   2.114   0.650 -0.3958  0.8420  1.1635
  330SOL    MW4 1395   1.537   2.050   0.705  0.1441  0.0770  0.0958
  331SOL     OW 1396   1.594   2.357   0.810  0.1385  0.0642 -0.0050
  331SOL    HW2 1397   1.526   2.406   0.765  0.4864 -0.3791 -1.0162
  331SOL    HW3 1398   1.573   2.265   0.794  0.3139 -0.0945  0.6549
  331SOL    MW4 1399   1.583   2.351   0.802  0.2075 -0.0150 -0.0514
  332SOL     OW 1400   1.365   2.485   0.693  0.4957  0.3306  0.0540
  332SOL    HW2 1401   1.361   2.564   0.748 -1.7609 -0.5325  1.1946
  332SOL    HW3 1402   1.355   2.518   0.603  0.7305  1.4420  0.4281
  332SOL    MW4 1403   1.363   2.500   0.688  0.2290  0.3633  0.2538
  333SOL     OW 1404   1.343   2.721   0.870 -0.1423  0.0051 -0.5792
  333SOL    HW2 1405   1.344   2.710   0.965  0.1278  0.8439 -0.4833
  333SOL    HW3 1406   1.267   2.777   0.853  0.1077  0.2770 -0.8091
  333SOL    MW4 1407   1.333   2.727   0.880 -0.0738  0.1516 -0.5969
  334SOL     OW 1408   1.517   2.873   0.715 -0.6122  0.2529  0.0775
  334SOL    HW2 1409   1.522   2.966   0.737 -2.3796  0.3698  0.0342
  334SOL    HW3 1410   1.452   2.837   0.775 -1.5266 -0.5053 -1.3334
  334SOL    MW4 1411   1.510   2.880   0.726 -0.9661  0.1686 -0.1144
  335SOL     OW 1412   1.547   3.121   0.824  0.1653 -0.2087 -0.0925
  335SOL    HW2 1413   1.565   3.112   0.918  0.5879  0.9612 -0.0507
  335SOL    HW3 1414   1.458   3.156   0.820 -0.2032 -1.1451 -0.1578
  335SOL    MW4 1415   1.538   3.124   0.836  0.1725 -0.1781 -0.0956
  336SOL     OW 1416   1.307   3.277   0.822 -0.0006  0.0176 -0.1209
  336SOL    HW2 1417   1.256   3.211   0.869  1.1295  0.0422  1.1907
  336SOL    HW3 1418   1.287   3.262   0.730 -1.5850 -0.6156  0.2982
  336SOL    MW4 1419   1.298   3.267   0.816 -0.0607 -0.0627  0.1075
  337SOL     OW 1420   1.354   3.523   0.935 -0.1244  0.3715 -0.0880
  337SOL    HW2 1421   1.423   3.573   0.891  0.5636 -1.6321 -1.3685
  337SOL    HW3 1422   1.342   3.446   0.879 -2.1241 -0.2061  1.1049
  337SOL    MW4 1423   1.361   3.519   0.921 -0.2973  0.0312 -0.0995
  338SOL     OW 1424   1.559   3.658   0.814  0.2242  0.0362  0.1515
  338SOL    HW2 1425   1.565   3.642   0.720  0.2427  1.0504 -0.0233
  338SOL    HW3 1426   1.646   3.636   0.847  0.0889 -0.7377 -0.0060
  338SOL    MW4 1427   1.572   3.653   0.806  0.2087  0.0679  0.1076
  339SOL     OW 1428   1.554   3.928   0.835  0.4796 -0.3537 -0.1293
  339SOL    HW2 1429   1.550   3.833   0.821 -0.5801 -0.4546  0.8298
  339SOL    HW3 1430   1.466   3.959   0.814  0.3223  0.1815  1.2623
  339SOL    MW4 1431   1.542   3.919   0.830  0.3191 -0.2966  0.1808
  340SOL     OW 1432   1.309   4.043   0.745  0.0008 -0.1332  0.9108
  340SOL    HW2 1433   1.236   3.995   0.785 -0.8070 -0.2846 -0.6968
  340SOL    HW3 1434   1.308   4.015   0.653  2.1311 -0.1689  0.8898
  340SOL    MW4 1435   1.299   4.033   0.738  0.1754 -0.1578  0.6959
  341SOL     OW 1436   1.344   4.298   0.848 -0.1784 -0.4702  0.5259
  341SOL    HW2 1437   1.427   4.336   0.821 -1.5707  1.5400 -1.0492
  341SOL    HW3 1438   1.346   4.208   0.815  0.3084  0.3705 -1.7944
  341SOL    MW4 1439   1.355   4.291   0.840 -0.2979 -0.0939  0.0120
  342SOL     OW 1440   1.568   4.405   0.755 -0.5453 -0.4698 -0.3156
  342SOL    HW2 1441   1.654   4.364   0.766 -0.0075 -0.1938 -3.0315
  342SOL    HW3 1442   1.582   4.497   0.778 -0.4914 -0.7407  0.7439
  342SOL    MW4 1443   1.581   4.412   0.759 -0.4672 -0.4692 -0.5342
  343SOL     OW 1444   2.074   0.047   0.825 -0.6499  0.0101 -0.1637
  343SOL    HW2 1445   2.156   0.076   0.786  0.1872 -1.0135  0.7699
  343SOL    HW3 1446   2.077  -0.049   0.817 -0.5350 -0.2099  2.1636
  343SOL    MW4 1447   2.085   0.038   0.819 -0.5245 -0.1540  0.2665
  344SOL     OW 1448   1.834   0.160   0.796 -0.1375 -0.2385  0.2597
  344SOL    HW2 1449   1.917   0.120   0.821 -0.4517 -1.0772 -0.0291
  344SOL    HW3 1450   1.768   0.107   0.839 -0.5366  0.2791  0.2871
  344SOL    MW4 1451   1.836   0.147   0.805 -0.2315 -0.2809  0.2252
  345SOL     OW 1452   1.796   0.425   0.873  0.2019  0.1892 -0.2358
  345SOL    HW2 1453   1.791   0.333   0.847 -0.3069  1.0131 -3.2122
  345SOL    HW3 1454   1.877   0.457   0.834 -1.0108  1.6790 -1.6203
  345SOL    MW4 1455   1.806   0.417   0.865 -0.0254  0.4945 -0.8112
  346SOL     OW 1456   2.026   0.495   0.741  0.1113 -0.3418 -0.2749
  346SOL    HW2 1457   2.113   0.459   0.755 -1.2304 -3.3711  0.7293
  346SOL    HW3 1458   2.026   0.524   0.650  2.4966  0.7005  0.0419
  346SOL    MW4 1459   2.037   0.494   0.731  0.2491 -0.6039 -0.1006
  347SOL     OW 1460   2.058   0.741   0.869  0.8726 -0.1124  0.1478
  347SOL    HW2 1461   2.141   0.774   0.834  0.8951 -0.1437  0.1723
  347SOL    HW3 1462   2.045   0.657   0.825 -0.0502  0.7280 -1.2420
  347SOL    MW4 1463   2.067   0.734   0.859  0.7536 -0.0057 -0.0323
  348SOL     OW 1464   1.877   0.882   0.681  0.2024 -0.3139  0.4395
  348SOL    HW2 1465   1.846   0.962   0.723  1.6563  0.0281  0.9004
  348SOL    HW3 1466   1.927   0.837   0.749  0.0877 -1.2195 -0.0624
  348SOL    MW4 1467   1.879   0.886   0.695  0.3791 -0.3883  0.4340
  349SOL     OW 1468   1.803   1.103   0.825 -0.4142  0.0707  0.1917
  349SOL    HW2 1469   1.876   1.147   0.781  0.2110 -0.3445  0.8228
  349SOL    HW3 1470   1.725   1.150   0.794  0.1093  0.4675 -0.5341
  349SOL    MW4 1471   1.802   1.115   0.815 -0.2627  0.0683  0.1792
  350SOL     OW 1472   2.055   1.245   0.740  0.2769 -0.1291 -0.3844
  350SOL    HW2 1473   2.131   1.192   0.764  0.1882 -0.0308  0.1321
  350SOL    HW3 1474   2.049   1.237   0.645  1.2324  0.2546 -0.4915
  350SOL    MW4 1475   2.064   1.237   0.731  0.3912 -0.0657 -0.3304
  351SOL     OW 1476   2.037   1.491   0.861  0.0805 -0.4543 -0.0284
  351SOL    HW2 1477   2.110   1.540   0.823  0.6623 -1.4466 -0.1994
  351SOL    HW3 1478   2.030   1.413   0.807  0.6095 -1.6509  1.5764
  351SOL    MW4 1479   2.046   1.487   0.849  0.2270 -0.7432  0.1608
  352SOL     OW 1480   1.806   1.638   0.803  0.0383  0.4471  0.1832
  352SOL    HW2 1481   1.884   1.593   0.836 -0.0588  0.8749  1.0026
  352SOL    HW3 1482   1.734   1.576   0.821 -0.0687  0.8356  1.1422
  352SOL    MW4 1483   1.807   1.624   0.810  0.0113  0.5547  0.4178
  353SOL     OW 1484   1.801   1.915   0.807  0.0446  0.1359  0.6080
  353SOL    HW2 1485   1.789   1.821   0.814  0.3343  0.0484 -0.0321
  353SOL    HW3 1486   1.717   1.949   0.777 -0.2453  0.1521  1.4386
  353SOL    MW4 1487   1.789   1.907   0.804  0.0446  0.1265  0.6331
  354SOL     OW 1488   2.030   2.044   0.728  0.3201 -0.3726  0.0352
  354SOL    HW2 1489   2.033   2.131   0.767 -0.8981 -0.2367 -0.1550
  354SOL    HW3 1490   1.950   2.005   0.762  1.4918 -1.8986  1.1008
  354SOL    MW4 1491   2.020   2.050   0.737  0.3142 -0.5560  0.1507
  355SOL     OW 1492   2.011   2.315   0.809  0.1707 -0.1154 -0.1373
  355SOL    HW2 1493   2.009   2.324   0.905  0.4714  0.9454 -0.2188
  355SOL    HW3 1494   1.949   2.381   0.778  1.9268  1.3067 -0.7522
  355SOL    MW4 1495   2.003   2.325   0.818  0.4420  0.2122 -0.2292
  356SOL     OW 1496   1.967   1.960   0.175  0.2126  0.1030  0.0634
  356SOL    HW2 1497   2.016   1.941   0.095 -0.3889 -0.0325 -0.2689
  356SOL    HW3 1498   1.958   1.875   0.219 -0.2633  0.0347 -0.1742
  356SOL    MW4 1499   1.972   1.946   0.170  0.0705  0.0762 -0.0117
  357SOL     OW 1500   1.739   2.738   0.809 -0.1660 -0.2199  0.0171
  357SOL    HW2 1501   1.749   2.742   0.904  1.5232 -0.9021 -0.1219
  357SOL    HW3 1502   1.656   2.783   0.792 -0.1185  0.5628  1.7476
  357SOL    MW4 1503   1.730   2.745   0.819  0.0632 -0.2067  0.2270
  358SOL     OW 1504   2.001   2.753   0.711  0.6168  0.4326 -0.2263
  358SOL    HW2 1505   2.076   2.734   0.768  0.0930  1.5167  0.8639
  358SOL    HW3 1506   1.928   2.763   0.771 -0.4664 -0.8737 -1.3073
  358SOL    MW4 1507   2.002   2.752   0.727  0.4048  0.4032 -0.2252
  359SOL     OW 1508   2.123   3.125   0.829  0.3663  0.3122  0.2743
  359SOL    HW2 1509   2.060   3.179   0.783  0.8903 -0.0481 -0.8731
  359SOL    HW3 1510   2.149   3.058   0.766  2.0309  0.5641  0.6536
  359SOL    MW4 1511   2.118   3.123   0.815  0.6549  0.2983  0.1730
  360SOL     OW 1512   1.534   3.134   0.291 -0.0488  0.0232  0.2663
  360SOL    HW2 1513   1.607   3.075   0.310  0.9087  2.3475  4.1927
  360SOL    HW3 1514   1.457   3.087   0.324  0.3634 -0.1494  1.0020
  360SOL    MW4 1515   1.534   3.120   0.298  0.1320  0.3073  0.8814
  361SOL     OW 1516   1.828   3.497   0.854 -0.2544 -0.8357 -0.0113
  361SOL    HW2 1517   1.813   3.476   0.946 -1.1059  0.5837  0.1913
  361SOL    HW3 1518   1.772   3.436   0.806  1.1228 -2.4145  0.3356
  361SOL    MW4 1519   1.819   3.486   0.860 -0.1850 -0.8569  0.0613
  362SOL     OW 1520   1.891   3.698   0.682  0.0631 -0.1565  0.2354
  362SOL    HW2 1521   1.950   3.762   0.722 -0.7094  0.3126  0.6392
  362SOL    HW3 1522   1.881   3.629   0.747  0.3665 -0.3619  0.0656
  362SOL    MW4 1523   1.897   3.697   0.696  0.0012 -0.1218  0.2663
  363SOL     OW 1524   2.025   3.902   0.833  0.1149 -0.0476  0.0296
  363SOL    HW2 1525   2.021   3.902   0.929 -0.7849 -1.0101  0.0075
  363SOL    HW3 1526   1.956   3.962   0.806  1.3398  1.3840 -0.0118
  363SOL    MW4 1527   2.016   3.910   0.842  0.1578  0.0141  0.0212
  364SOL     OW 1528   1.796   4.035   0.724 -0.2564 -0.1380 -0.2672
  364SOL    HW2 1529   1.770   4.052   0.633  0.9746 -0.7000 -0.7288
  364SOL    HW3 1530   1.714   4.007   0.766 -1.0236  0.9994 -0.9715
  364SOL    MW4 1531   1.782   4.033   0.717 -0.1953 -0.0620 -0.4210
  365SOL     OW 1532   1.822   4.294   0.830  0.1094  0.4675  0.4970
  365SOL    HW2 1533   1.796   4.278   0.920  0.7629 -0.4695  0.5346
  365SOL    HW3 1534   1.809   4.210   0.786  0.4223  0.7377 -0.1237
  365SOL    MW4 1535   1.817   4.281   0.836  0.2367  0.3791  0.4200
  366SOL     OW 1536   2.038   4.442   0.768 -0.0648 -0.2116 -0.1277
  366SOL    HW2 1537   1.962   4.387   0.787 -1.0913  0.7031 -1.5024
  366SOL    HW3 1538   2.039   4.450   0.673  1.7622 -0.2133 -0.1303
  366SOL    MW4 1539   2.028   4.436   0.758  0.0408 -0.0916 -0.3094
  367SOL     OW 1540   2.518   4.659   0.815  0.5135 -0.4674 -0.2129
  367SOL    HW2 1541   2.486   4.657   0.905  0.9510  0.9677 -0.0152
  367SOL    HW3 1542   2.517   4.568   0.788 -1.1443 -0.7503  0.7047
  367SOL    MW4 1543   2.514   4.647   0.823  0.3526 -0.3153 -0.0658
  368SOL     OW 1544   2.308   0.142   0.691  0.1119  0.0236 -0.3514
  368SOL    HW2 1545   2.347   0.161   0.606 -0.1998 -0.6920 -0.6567
  368SOL    HW3 1546   2.371   0.084   0.734  0.5319  0.8310  0.1292
  368SOL    MW4 1547   2.322   0.137   0.686  0.1259  0.0357 -0.3282
  369SOL     OW 1548   2.282   0.404   0.786  0.0370 -0.3934 -0.3948
  369SOL    HW2 1549   2.376   0.413   0.773  0.1870 -0.9420  0.3116
  369SOL    HW3 1550   2.265   0.311   0.769 -0.2029 -0.5296  0.5658
  369SOL    MW4 1551   2.292   0.393   0.782  0.0253 -0.4838 -0.1749
  370SOL     OW 1552   2.546   0.448   0.772 -0.1566 -0.0882  0.4335
  370SOL    HW2 1553   2.632   0.424   0.805 -0.3574 -0.4639  0.6975
  370SOL    HW3 1554   2.558   0.457   0.677  0.3937  0.8902  0.6025
  370SOL    MW4 1555   2.559   0.446   0.764 -0.1101 -0.0086  0.4905
  371SOL     OW 1556   2.563   0.713   0.874  0.3889  0.1157 -0.3019
  371SOL    HW2 1557   2.624   0.769   0.825 -1.0224  1.2226 -0.8013
  371SOL    HW3 1558   2.553   0.636   0.818 -0.6602  1.0627 -1.4460
  371SOL    MW4 1559   2.570   0.710   0.860  0.0641  0.3867 -0.5188
  372SOL     OW 1560   2.283   0.841   0.755 -0.0052  0.1341 -0.0710
  372SOL    HW2 1561   2.353   0.793   0.800 -0.5822 -1.0745 -0.4640
  372SOL    HW3 1562   2.310   0.842   0.663  0.2441  0.9985  0.0019
  372SOL    MW4 1563   2.296   0.835   0.749 -0.0484  0.0887 -0.1133
  373SOL     OW 1564   2.274   1.099   0.832 -0.3508  0.0052  0.5246
  373SOL    HW2 1565   2.247   1.103   0.924  2.1627  0.4905  1.2653
  373SOL    HW3 1566   2.295   1.006   0.817  2.2666  0.4194  1.3760
  373SOL    MW4 1567   2.273   1.087   0.842  0.3259  0.1239  0.7347
  374SOL     OW 1568   2.497   1.235   0.748  0.3760 -0.0552 -1.0138
  374SOL    HW2 1569   2.426   1.177   0.776  0.0011  0.7348 -0.3228
  374SOL    HW3 1570   2.489   1.237   0.653 -1.5960  1.3411 -0.8646
  374SOL    MW4 1571   2.486   1.228   0.739  0.0660  0.2333 -0.9029
  375SOL     OW 1572   2.483   1.509   0.852  0.4308 -0.0057 -0.2400
  375SOL    HW2 1573   2.555   1.539   0.798  0.0693 -0.1327 -0.7939
  375SOL    HW3 1574   2.479   1.415   0.838  0.5607 -0.0947  0.2843
  375SOL    MW4 1575   2.492   1.501   0.843  0.4003 -0.0341 -0.2438
  376SOL     OW 1576   2.250   1.628   0.759  0.1741  0.3984  0.0618
  376SOL    HW2 1577   2.333   1.581   0.773  0.2907  0.4486 -0.4252
  376SOL    HW3 1578   2.241   1.631   0.663  0.6183  2.1682  0.0666
  376SOL    MW4 1579   2.260   1.622   0.748  0.2482  0.6386 -0.0018
  377SOL     OW 1580   2.216   1.859   0.886 -0.4311  0.1247  0.0537
  377SOL    HW2 1581   2.230   1.771   0.852 -2.4400 -0.4086  0.5514
  377SOL    HW3 1582   2.167   1.904   0.817 -0.4810  0.4787  0.3190
  377SOL    MW4 1583   2.212   1.854   0.872 -0.7026  0.1010  0.1544
  378SOL     OW 1584   2.441   1.951   0.736  0.4091 -0.0120  0.2585
  378SOL    HW2 1585   2.369   1.919   0.790 -0.3727 -0.0348 -0.7802
  378SOL    HW3 1586   2.425   1.912   0.649  1.4664  0.2751 -0.0723
  378SOL    MW4 1587   2.429   1.941   0.731  0.4456  0.0229  0.0778
  379SOL     OW 1588   2.481   2.219   0.842 -0.1625  0.2425 -0.1749
  379SOL    HW2 1589   2.561   2.250   0.800  0.3652  1.1168  1.4265
  379SOL    HW3 1590   2.470   2.129   0.809  1.1746  0.3039 -0.8304
  379SOL    MW4 1591   2.490   2.211   0.832  0.0834  0.3660 -0.0502
  380SOL     OW 1592   2.280   2.395   0.795  0.3165 -0.2073  0.5168
  380SOL    HW2 1593   2.355   2.335   0.803 -0.4117 -0.8974  2.4599
  380SOL    HW3 1594   2.203   2.339   0.805 -0.3765  1.0307  2.3276
  380SOL    MW4 1595   2.280   2.380   0.797  0.1287 -0.1352  1.0121
  381SOL     OW 1596   2.234   2.664   0.845 -0.2420  0.5980 -0.5012
  381SOL    HW2 1597   2.230   2.682   0.938 -0.1642  0.3479 -0.4494
  381SOL    HW3 1598   2.252   2.570   0.839 -0.1934  0.6229 -0.7649
  381SOL    MW4 1599   2.236   2.654   0.856 -0.2251  0.5684 -0.5291
  382SOL     OW 1600   2.447   2.811   0.764  0.2155 -0.2387 -0.2429
  382SOL    HW2 1601   2.372   2.766   0.802  0.4763 -0.2155  0.3038
  382SOL    HW3 1602   2.521   2.751   0.777  1.0660  1.3170  2.6885
  382SOL    MW4 1603   2.447   2.797   0.771  0.3624 -0.0305  0.2159
  383SOL     OW 1604   2.471   3.110   0.778 -0.1412  0.3543  0.0191
  383SOL    HW2 1605   2.477   3.117   0.874  0.8584 -0.0826 -0.0100
  383SOL    HW3 1606   2.468   3.016   0.761  0.4244  0.4183 -0.4245
  383SOL    MW4 1607   2.471   3.099   0.789  0.0653  0.3049 -0.0432
  384SOL     OW 1608   2.352   3.343   0.702 -0.4358  0.3890  0.1134
  384SOL    HW2 1609   2.366   3.249   0.712 -1.1393  0.2558 -0.1122
  384SOL    HW3 1610   2.431   3.383   0.738 -0.5589 -0.2625  1.1340
  384SOL    MW4 1611   2.364   3.336   0.708 -0.5450  0.2854  0.2183
  385SOL     OW 1612   2.167   3.467   0.871  0.2074  0.0049 -0.2383
  385SOL    HW2 1613   2.208   3.411   0.806 -0.4858  0.7468 -1.3412
  385SOL    HW3 1614   2.077   3.435   0.877  0.3565 -0.2721  0.6072
  385SOL    MW4 1615   2.160   3.456   0.863  0.1357  0.0665 -0.2723
  386SOL     OW 1616   2.378   3.652   0.810 -0.2125 -0.1501  0.0840
  386SOL    HW2 1617   2.452   3.592   0.817  0.3961  0.5174 -0.4909
  386SOL    HW3 1618   2.302   3.598   0.830  0.2237 -1.3750 -1.4377
  386SOL    MW4 1619   2.378   3.637   0.813 -0.0746 -0.2236 -0.1926
  387SOL     OW 1620   2.475   3.900   0.846 -0.1984  0.4434 -0.1318
  387SOL    HW2 1621   2.405   3.958   0.815  0.8777  1.7581 -0.1579
  387SOL    HW3 1622   2.448   3.813   0.819 -0.8744  1.1829 -1.9189
  387SOL    MW4 1623   2.462   3.896   0.838 -0.1457  0.7145 -0.3711
  388SOL     OW 1624   2.243   4.027   0.720  0.3148  0.6392  0.1377
  388SOL    HW2 1625   2.168   3.976   0.748  0.7523  0.8172  1.6512
  388SOL    HW3 1626   2.261   3.998   0.630 -1.2203  0.2259 -0.0329
  388SOL    MW4 1627   2.236   4.017   0.712  0.1702  0.6084  0.3148
  389SOL     OW 1628   2.258   4.267   0.844 -0.2387 -0.6992 -0.1647
  389SOL    HW2 1629   2.248   4.186   0.794 -0.2607 -0.2335 -0.9118
  389SOL    HW3 1630   2.182   4.320   0.821  1.1364  0.6352 -1.7417
  389SOL    MW4 1631   2.247   4.263   0.835 -0.0603 -0.4616 -0.4713
  390SOL     OW 1632   2.475   4.399   0.740  0.1436  0.0877  0.0459
  390SOL    HW2 1633   2.548   4.347   0.772  0.2251 -0.7986 -1.4965
  390SOL    HW3 1634   2.399   4.367   0.788  0.3068 -1.0253 -0.4158
  390SOL    MW4 1635   2.475   4.388   0.750  0.1760 -0.1755 -0.2185
  391SOL     OW 1636   2.984   4.666   0.688 -0.3498  0.1511 -0.2353
  391SOL    HW2 1637   2.982   4.571   0.689 -1.5083  0.1099 -2.6205
  391SOL    HW3 1638   2.911   4.693   0.743 -1.0080 -0.3662 -0.8541
  391SOL    MW4 1639   2.974   4.657   0.696 -0.5894  0.0777 -0.6317
  392SOL     OW 1640   2.588   4.342   0.491 -0.0780  0.1185 -0.0374
  392SOL    HW2 1641   2.516   4.388   0.449 -0.7628  0.7102  1.7688
  392SOL    HW3 1642   2.572   4.351   0.584  1.0121 -1.8507  0.3695
  392SOL    MW4 1643   2.577   4.349   0.497 -0.0246 -0.0639  0.2545
  393SOL     OW 1644   2.789   0.379   0.865 -0.1727 -0.0868  0.4903
  393SOL    HW2 1645   2.781   0.379   0.961 -0.7024  0.0895  0.4462
  393SOL    HW3 1646   2.880   0.406   0.849  0.4935 -1.8969  0.9863
  393SOL    MW4 1647   2.800   0.382   0.876 -0.1545 -0.3023  0.5499
  394SOL     OW 1648   3.038   0.494   0.751  0.1458 -0.3472  0.2968
  394SOL    HW2 1649   3.111   0.446   0.787 -0.9186 -0.8751  1.7948
  394SOL    HW3 1650   3.017   0.450   0.669  1.1987 -0.4766  0.1028
  394SOL    MW4 1651   3.045   0.482   0.745  0.1445 -0.4339  0.4689
  395SOL     OW 1652   3.022   0.757   0.849  0.1411  0.2996 -0.4761
  395SOL    HW2 1653   2.997   0.751   0.941  1.0001  1.8459 -0.1171
  395SOL    HW3 1654   3.034   0.666   0.821  0.2942 -0.1651  1.0568
  395SOL    MW4 1655   3.021   0.744   0.857  0.2747  0.4424 -0.2265
  396SOL     OW 1656   2.754   0.859   0.729  0.5122 -0.4017  0.0871
  396SOL    HW2 1657   2.829   0.812   0.764  0.1345 -0.4896  0.8116
  396SOL    HW3 1658   2.752   0.838   0.636  0.9983 -0.9265  0.1952
  396SOL    MW4 1659   2.763   0.850   0.721  0.5264 -0.4826  0.1970
  397SOL     OW 1660   2.743   1.108   0.819  0.0129 -0.1906 -0.1159
  397SOL    HW2 1661   2.742   1.017   0.787 -1.4387 -0.7102  1.2992
  397SOL    HW3 1662   2.655   1.141   0.797  0.9134  1.2657 -1.6433
  397SOL    MW4 1663   2.731   1.100   0.812 -0.0596 -0.0670 -0.1307
  398SOL     OW 1664   2.900   1.254   0.656  0.1139  0.2604  0.0511
  398SOL    HW2 1665   2.986   1.256   0.699 -0.2161  0.0603  0.7292
  398SOL    HW3 1666   2.849   1.193   0.709 -0.7833  1.2267  0.2990
  398SOL    MW4 1667   2.905   1.246   0.669 -0.0482  0.3614  0.1733
  399SOL     OW 1668   2.920   1.497   0.831  0.0180  0.0072 -0.0607
  399SOL    HW2 1669   3.005   1.525   0.795  1.1631 -0.4155  2.1864
  399SOL    HW3 1670   2.917   1.403   0.813 -0.2766  0.1375 -0.7071
  399SOL    MW4 1671   2.931   1.489   0.824  0.1302 -0.0312  0.1505
  400SOL     OW 1672   2.707   1.622   0.718 -0.0413 -0.2082 -0.3248
  400SOL    HW2 1673   2.699   1.708   0.757 -1.1678  0.6647 -2.4066
  400SOL    HW3 1674   2.784   1.584   0.759  1.1648  2.2470 -0.2420
  400SOL    MW4 1675   2.716   1.628   0.729 -0.0308  0.2309 -0.5886
  401SOL     OW 1676   2.700   1.870   0.818  0.2973  0.0536  0.0044
  401SOL    HW2 1677   2.692   1.863   0.913  0.1211  1.0229  0.0725
  401SOL    HW3 1678   2.612   1.896   0.789  0.5697  0.6400 -0.3189
  401SOL    MW4 1679   2.687   1.873   0.827  0.3097  0.2589 -0.0292
  402SOL     OW 1680   2.825   2.038   0.625 -0.2945  0.4690 -0.6500
  402SOL    HW2 1681   2.919   2.020   0.616 -0.2694  0.8208 -1.1244
  402SOL    HW3 1682   2.800   1.993   0.705 -0.0463 -0.9139 -1.3199
  402SOL    MW4 1683   2.834   2.030   0.634 -0.2584  0.3331 -0.8010
  403SOL     OW 1684   2.944   2.388   0.829  0.3473  0.1297  0.1622
  403SOL    HW2 1685   2.943   2.355   0.919 -1.2768 -2.2335 -0.6831
  403SOL    HW3 1686   2.870   2.345   0.787 -0.1337  2.7283 -1.7981
  403SOL    MW4 1687   2.934   2.378   0.835  0.0699  0.1609 -0.2080
  404SOL     OW 1688   2.727   2.277   0.722 -0.1666 -0.0723 -0.3205
  404SOL    HW2 1689   2.738   2.192   0.678  1.8360  0.7503 -1.4552
  404SOL    HW3 1690   2.694   2.335   0.654 -0.1467  0.4297  0.0972
  404SOL    MW4 1691   2.724   2.273   0.707  0.1001  0.1025 -0.4151
  405SOL     OW 1692   2.676   2.647   0.769  0.4795  0.5713 -0.3429
  405SOL    HW2 1693   2.677   2.622   0.861 -0.0787 -0.5184 -0.6180
  405SOL    HW3 1694   2.755   2.700   0.757  1.4059 -0.6108  0.4063
  405SOL    MW4 1695   2.687   2.650   0.780  0.5283  0.2716 -0.2804
  406SOL     OW 1696   2.882   2.764   0.444  0.5436  0.2938  0.0513
  406SOL    HW2 1697   2.922   2.681   0.416 -0.0810  0.1347 -0.4002
  406SOL    HW3 1698   2.949   2.830   0.427  0.3332  0.1387 -1.4737
  406SOL    MW4 1699   2.896   2.761   0.438  0.4337  0.2522 -0.2095
  407SOL     OW 1700   2.938   3.062   0.800 -0.3162 -0.1234 -0.0657
  407SOL    HW2 1701   2.876   3.112   0.747  0.1106 -0.6997 -1.1307
  407SOL    HW3 1702   2.932   2.972   0.766 -0.2016 -0.5415  1.0164
  407SOL    MW4 1703   2.929   3.057   0.788 -0.2449 -0.2546 -0.0635
  408SOL     OW 1704   2.726   3.189   0.671 -0.0876  0.0509 -0.0104
  408SOL    HW2 1705   2.646   3.160   0.715  0.6775 -0.0378  1.3184
  408SOL    HW3 1706   2.708   3.280   0.647 -0.4697  0.1259  0.5587
  408SOL    MW4 1707   2.713   3.197   0.673 -0.0372  0.0491  0.2400
  409SOL     OW 1708   2.565   3.461   0.830 -0.2020 -0.5228 -0.2961
  409SOL    HW2 1709   2.605   3.454   0.916 -0.2205  0.9421 -0.1714
  409SOL    HW3 1710   2.638   3.471   0.770 -0.3190  0.9178 -0.1967
  409SOL    MW4 1711   2.580   3.461   0.833 -0.2201 -0.1395 -0.2666
  410SOL     OW 1712   2.979   3.629   0.688  0.3829 -0.0388 -0.0990
  410SOL    HW2 1713   2.973   3.709   0.741 -1.3594 -0.0571 -0.2299
  410SOL    HW3 1714   3.013   3.658   0.604 -0.9842  0.7167 -0.4102
  410SOL    MW4 1715   2.983   3.643   0.684 -0.0274  0.0587 -0.1574
  411SOL     OW 1716   2.959   3.868   0.816 -0.1521  0.0457  0.2710
  411SOL    HW2 1717   2.956   3.840   0.907  0.4322  0.2566  0.3602
  411SOL    HW3 1718   2.870   3.899   0.796 -0.4538 -0.6413  0.5614
  411SOL    MW4 1719   2.947   3.869   0.825 -0.1147 -0.0172  0.3211
  412SOL     OW 1720   2.719   3.983   0.735 -0.2575 -0.0873  0.3340
  412SOL    HW2 1721   2.641   3.944   0.773  0.4136 -0.8163  0.9597
  412SOL    HW3 1722   2.716   3.956   0.643  0.4764 -2.0523  0.8775
  412SOL    MW4 1723   2.708   3.975   0.728 -0.0722 -0.4427  0.4883
  413SOL     OW 1724   2.731   4.271   0.793  0.4985  0.4809  0.4309
  413SOL    HW2 1725   2.736   4.263   0.888  1.0679  0.6741  0.4194
  413SOL    HW3 1726   2.730   4.181   0.761  0.1134  0.4144  0.6323
  413SOL    MW4 1727   2.732   4.258   0.801  0.5229  0.4969  0.4560
  414SOL     OW 1728   2.954   4.388   0.687  0.2546  0.3318 -0.3993
  414SOL    HW2 1729   3.034   4.361   0.732  0.2047  0.1156 -0.4428
  414SOL    HW3 1730   2.883   4.349   0.739  0.2247 -0.6139 -1.1551
  414SOL    MW4 1731   2.955   4.379   0.700  0.2439  0.1788 -0.5047
  415SOL     OW 1732   3.415   4.665   0.841 -0.3298 -0.9423  0.3708
  415SOL    HW2 1733   3.398   4.663   0.935  1.3264  0.0994  0.7064
  415SOL    HW3 1734   3.347   4.722   0.806 -0.1021 -0.1717  1.1454
  415SOL    MW4 1735   3.404   4.672   0.849 -0.0811 -0.7032  0.5173
  416SOL     OW 1736   3.208   0.174   0.700 -0.0152 -0.0706 -0.3356
  416SOL    HW2 1737   3.213   0.227   0.780  2.3277  0.0554 -0.5363
  416SOL    HW3 1738   3.135   0.115   0.715  0.1127  0.2619  1.7321
  416SOL    MW4 1739   3.199   0.173   0.713  0.3109 -0.0101 -0.0893
  417SOL     OW 1740   3.219   0.363   0.893 -0.2867  0.0917 -0.4402
  417SOL    HW2 1741   3.218   0.359   0.989  1.9514  0.0400 -0.4097
  417SOL    HW3 1742   3.295   0.416   0.871  1.6852 -3.3541 -2.2965
  417SOL    MW4 1743   3.229   0.370   0.903  0.2687 -0.3697 -0.6810
  418SOL     OW 1744   3.553   0.115   0.421  0.1448  0.1862  0.2653
  418SOL    HW2 1745   3.615   0.183   0.396  1.0732 -0.7802 -0.0899
  418SOL    HW3 1746   3.468   0.159   0.421  0.3951  0.7432 -2.4039
  418SOL    MW4 1747   3.550   0.130   0.418  0.3002  0.1322 -0.1338
  419SOL     OW 1748   3.365   0.819   0.908  0.3456  0.1679 -0.0748
  419SOL    HW2 1749   3.304   0.859   0.846 -0.1773 -0.3864  0.0708
  419SOL    HW3 1750   3.359   0.725   0.890 -1.1610 -0.1717  1.9880
  419SOL    MW4 1751   3.356   0.811   0.897  0.0775  0.0499  0.2165
  420SOL     OW 1752   3.171   0.967   0.721 -0.1191  0.7339 -0.0289
  420SOL    HW2 1753   3.159   1.048   0.770  0.3793  0.5077  0.4849
  420SOL    HW3 1754   3.112   0.904   0.763  0.4380  0.4919  0.4136
  420SOL    MW4 1755   3.162   0.969   0.733  0.0198  0.6720  0.0973
  421SOL     OW 1756   3.147   1.218   0.815  0.4955 -0.5550 -0.0909
  421SOL    HW2 1757   3.147   1.208   0.910 -0.3582 -0.9583 -0.1285
  421SOL    HW3 1758   3.238   1.239   0.793  0.4873  0.5649  0.9126
  421SOL    MW4 1759   3.159   1.219   0.825  0.3817 -0.4606  0.0365
  422SOL     OW 1760   3.391   1.276   0.700 -0.7912  0.0485  0.5664
  422SOL    HW2 1761   3.472   1.226   0.700 -0.8844 -0.1012  1.5888
  422SOL    HW3 1762   3.403   1.343   0.768 -1.6579 -0.1966  0.9684
  422SOL    MW4 1763   3.403   1.279   0.709 -0.9177 -0.0036  0.7544
  423SOL     OW 1764   3.417   1.499   0.877  0.0408  0.6512 -0.2100
  423SOL    HW2 1765   3.420   1.514   0.972  0.6487 -0.0838 -0.1124
  423SOL    HW3 1766   3.485   1.556   0.841  0.2771  0.4129 -0.1388
  423SOL    MW4 1767   3.426   1.509   0.885  0.1521  0.5226 -0.1876
  424SOL     OW 1768   3.172   1.601   0.754 -0.3780  0.4246  0.0862
  424SOL    HW2 1769   3.248   1.576   0.806 -0.4350 -0.6741 -0.3494
  424SOL    HW3 1770   3.196   1.578   0.664 -0.9602  0.6921 -0.1398
  424SOL    MW4 1771   3.185   1.595   0.749 -0.4625  0.3148 -0.0011
  425SOL     OW 1772   3.214   1.881   0.837  0.4110 -0.2896 -0.0058
  425SOL    HW2 1773   3.182   1.886   0.927  1.8531 -1.3364  0.5864
  425SOL    HW3 1774   3.222   1.788   0.820 -1.0310 -0.1280 -1.6695
  425SOL    MW4 1775   3.211   1.870   0.847  0.4110 -0.4065 -0.1472
  426SOL     OW 1776   3.406   2.028   0.705  0.5757 -0.1346 -0.2703
  426SOL    HW2 1777   3.408   2.111   0.753  0.0939  0.2101 -0.8499
  426SOL    HW3 1778   3.345   1.974   0.755  0.4008  0.0786 -0.2497
  426SOL    MW4 1779   3.399   2.032   0.718  0.4890 -0.0610 -0.3440
  427SOL     OW 1780   3.410   2.256   0.846 -0.6658  0.1990 -0.0903
  427SOL    HW2 1781   3.411   2.279   0.939  0.3553  0.5066 -0.1635
  427SOL    HW3 1782   3.451   2.331   0.803 -0.8595 -0.0727 -0.7551
  427SOL    MW4 1783   3.416   2.269   0.852 -0.5569  0.2038 -0.1876
  428SOL     OW 1784   3.152   2.266   0.697 -0.3190  0.4098 -0.1238
  428SOL    HW2 1785   3.232   2.271   0.749 -0.4916  1.0117  0.0763
  428SOL    HW3 1786   3.083   2.298   0.755 -0.9220 -1.3139  0.1524
  428SOL    MW4 1787   3.154   2.271   0.712 -0.4213  0.2618 -0.0610
  429SOL     OW 1788   3.093   2.636   0.827  0.3582 -0.0431  0.6164
  429SOL    HW2 1789   3.051   2.551   0.821 -1.4914  0.8388  0.6391
  429SOL    HW3 1790   3.170   2.629   0.770 -1.1137 -0.9500 -1.3448
  429SOL    MW4 1791   3.098   2.624   0.818 -0.0799 -0.0463  0.3607
  430SOL     OW 1792   3.341   2.886   0.569 -0.1956  0.3091  0.0287
  430SOL    HW2 1793   3.254   2.900   0.530  0.2156  1.0341 -0.6439
  430SOL    HW3 1794   3.343   2.943   0.645 -0.2288  0.4591 -0.0825
  430SOL    MW4 1795   3.330   2.895   0.574 -0.1454  0.4249 -0.0747
  431SOL     OW 1796   3.376   3.048   0.784  0.3706  0.1370 -0.4737
  431SOL    HW2 1797   3.308   3.113   0.766 -0.6660 -1.0917 -1.0489
  431SOL    HW3 1798   3.378   3.042   0.880  1.8397  2.4267 -0.3211
  431SOL    MW4 1799   3.367   3.056   0.794  0.4275  0.2773 -0.5295
  432SOL     OW 1800   3.148   3.214   0.703  0.0440 -0.0511  0.3907
  432SOL    HW2 1801   3.161   3.291   0.758 -0.6223  0.1693  0.2444
  432SOL    HW3 1802   3.081   3.164   0.747  0.7538 -0.7509  0.6872
  432SOL    MW4 1803   3.141   3.218   0.716  0.0498 -0.1144  0.4105
  433SOL     OW 1804   3.168   3.463   0.818  0.0930 -0.0685 -0.6217
  433SOL    HW2 1805   3.136   3.463   0.908  0.1721 -1.0283 -0.5913
  433SOL    HW3 1806   3.104   3.514   0.769 -1.0567 -1.2834 -0.4099
  433SOL    MW4 1807   3.156   3.470   0.823 -0.0484 -0.3552 -0.5897
  434SOL     OW 1808   3.420   3.579   0.736 -0.2259  0.0348  0.4638
  434SOL    HW2 1809   3.413   3.673   0.753 -2.0070 -0.0170  0.1180
  434SOL    HW3 1810   3.337   3.543   0.768 -0.1144 -1.2258 -0.6307
  434SOL    MW4 1811   3.408   3.587   0.743 -0.4461 -0.1383  0.2738
  435SOL     OW 1812   3.386   3.847   0.792  0.2913  0.1418  0.0632
  435SOL    HW2 1813   3.352   3.845   0.882  0.9358 -1.6410  0.2847
  435SOL    HW3 1814   3.474   3.883   0.800 -0.4977  2.2248 -0.1801
  435SOL    MW4 1815   3.393   3.851   0.805  0.2720  0.1814  0.0604
  436SOL     OW 1816   3.123   4.065   0.690  0.0883 -0.0129  0.0891
  436SOL    HW2 1817   3.198   4.006   0.682  0.3283  0.1756  0.9629
  436SOL    HW3 1818   3.054   4.012   0.729 -0.8965 -0.7591 -2.5905
  436SOL    MW4 1819   3.124   4.050   0.694 -0.0098 -0.0863 -0.1492
  437SOL     OW 1820   3.176   4.310   0.820  0.4206 -0.3186  0.1370
  437SOL    HW2 1821   3.233   4.364   0.766  0.2748 -1.1594 -0.8615
  437SOL    HW3 1822   3.179   4.223   0.781 -0.0829 -0.8220  1.1780
  437SOL    MW4 1823   3.184   4.306   0.808  0.3350 -0.4959  0.1426
  438SOL     OW 1824   3.411   4.429   0.712 -0.2886  0.3836 -0.0990
  438SOL    HW2 1825   3.405   4.511   0.761 -0.2893 -0.1017  0.7063
  438SOL    HW3 1826   3.439   4.457   0.624  1.0792  1.1146  0.5536
  438SOL    MW4 1827   3.414   4.444   0.707 -0.1080  0.4163  0.0933
  439SOL     OW 1828   3.868   4.650   0.826 -0.2676  0.0355  0.0360
  439SOL    HW2 1829   3.947   4.695   0.798 -0.1563  0.6535  1.3286
  439SOL    HW3 1830   3.798   4.690   0.775  0.0233  0.7005  0.1544
  439SOL    MW4 1831   3.869   4.661   0.816 -0.2143  0.2046  0.2221
  440SOL     OW 1832   3.642   0.106   0.698 -0.4465  0.5501 -0.2437
  440SOL    HW2 1833   3.572   0.070   0.752  0.3124  0.7448  0.8886
  440SOL    HW3 1834   3.611   0.097   0.608 -1.5035 -0.2458  0.2011
  440SOL    MW4 1835   3.629   0.100   0.693 -0.4859  0.4708 -0.0355
  441SOL     OW 1836   3.592   0.353   0.824  0.7618  0.1331  0.0780
  441SOL    HW2 1837   3.591   0.318   0.914 -0.7461  1.0547  0.4367
  441SOL    HW3 1838   3.590   0.276   0.768  1.4591 -0.4448  0.8376
  441SOL    MW4 1839   3.592   0.338   0.829  0.6549  0.1785  0.2255
  442SOL     OW 1840   3.800   0.499   0.715  0.0405 -0.0242 -0.1937
  442SOL    HW2 1841   3.798   0.587   0.752  1.1545 -0.0079 -0.1478
  442SOL    HW3 1842   3.738   0.449   0.767  0.4200  0.3947  0.6719
  442SOL    MW4 1843   3.792   0.504   0.727  0.2375  0.0331 -0.0735
  443SOL     OW 1844   3.826   0.748   0.846 -0.0857 -0.4443 -0.0555
  443SOL    HW2 1845   3.834   0.740   0.941 -0.8099  1.2147  0.1682
  443SOL    HW3 1846   3.908   0.788   0.818 -0.8336  1.2992  0.1870
  443SOL    MW4 1847   3.838   0.752   0.855 -0.2799  0.0047  0.0060
  444SOL     OW 1848   3.574   0.832   0.727  0.3932  0.1345 -0.2270
  444SOL    HW2 1849   3.653   0.803   0.772  0.2553 -0.4680 -0.3701
  444SOL    HW3 1850   3.505   0.828   0.793  0.0995 -1.1872 -0.6040
  444SOL    MW4 1851   3.575   0.827   0.741  0.3362 -0.1194 -0.2956
  445SOL     OW 1852   3.595   1.112   0.737  0.1358 -0.0834  0.7014
  445SOL    HW2 1853   3.586   1.115   0.832  0.2252 -0.2902  0.7169
  445SOL    HW3 1854   3.585   1.020   0.714  1.7487 -0.2820  0.6836
  445SOL    MW4 1855   3.593   1.100   0.746  0.3607 -0.1370  0.7011
  446SOL     OW 1856   3.846   1.262   0.663  0.4023  0.3369  0.1317
  446SOL    HW2 1857   3.757   1.230   0.679  0.1839  0.2218 -1.2250
  446SOL    HW3 1858   3.865   1.235   0.573  2.0368 -0.1321  0.6056
  446SOL    MW4 1859   3.837   1.254   0.653  0.5889  0.2599  0.0152
  447SOL     OW 1860   3.876   1.492   0.828  0.8687 -0.0038  0.0679
  447SOL    HW2 1861   3.947   1.548   0.796 -0.2610  0.9567 -0.8034
  447SOL    HW3 1862   3.878   1.415   0.771 -2.1496  2.3962 -3.5618
  447SOL    MW4 1863   3.885   1.489   0.816  0.3214  0.4395 -0.5259
  448SOL     OW 1864   3.653   1.630   0.756 -0.2207  0.0025 -0.7618
  448SOL    HW2 1865   3.660   1.716   0.798  0.8177 -0.2097 -0.4947
  448SOL    HW3 1866   3.734   1.585   0.779 -1.1645 -1.4121 -0.1314
  448SOL    MW4 1867   3.664   1.636   0.764 -0.2081 -0.2122 -0.6434
  449SOL     OW 1868   3.619   1.899   0.859  0.1258 -0.1448 -0.1682
  449SOL    HW2 1869   3.691   1.962   0.849 -0.4774  0.5544 -0.1245
  449SOL    HW3 1870   3.544   1.941   0.817  0.3150 -1.8736 -2.2968
  449SOL    MW4 1871   3.619   1.913   0.852  0.0713 -0.2806 -0.4433
  450SOL     OW 1872   3.844   2.049   0.826  0.0927 -0.1477  0.5147
  450SOL    HW2 1873   3.924   2.002   0.848 -0.2684 -1.0998 -0.1980
  450SOL    HW3 1874   3.850   2.064   0.732 -0.9147 -0.8815  0.3225
  450SOL    MW4 1875   3.855   2.045   0.816 -0.0880 -0.3700  0.3952
  451SOL     OW 1876   3.848   2.341   0.884  0.1836  0.4528  0.2594
  451SOL    HW2 1877   3.848   2.343   0.979 -1.3166  2.4811  0.2375
  451SOL    HW3 1878   3.836   2.248   0.862  2.0106 -0.2325  1.9952
  451SOL    MW4 1879   3.847   2.329   0.894  0.2267  0.6299  0.4856
  452SOL     OW 1880   3.731   2.634   0.844  0.5325  0.1451  0.5501
  452SOL    HW2 1881   3.669   2.642   0.917  0.5808 -1.8255  0.8396
  452SOL    HW3 1882   3.784   2.558   0.867  0.1372 -0.8766 -1.8333
  452SOL    MW4 1883   3.730   2.625   0.857  0.4869 -0.2499  0.2739
  453SOL     OW 1884   3.853   2.797   0.638  0.4338  0.0917  0.5825
  453SOL    HW2 1885   3.811   2.734   0.696  0.5502 -0.5444 -0.0247
  453SOL    HW3 1886   3.835   2.882   0.678 -0.4040 -0.2684  0.9760
  453SOL    MW4 1887   3.845   2.800   0.651  0.3383 -0.0398  0.5543
  454SOL     OW 1888   4.297   2.496   0.338 -0.0257  0.1295  0.0705
  454SOL    HW2 1889   4.366   2.440   0.371  0.4891  0.6146 -0.1793
  454SOL    HW3 1890   4.216   2.447   0.355  0.2477  0.2064  1.7349
  454SOL    MW4 1891   4.295   2.482   0.345  0.0782  0.2038  0.2571
  455SOL     OW 1892   3.802   3.055   0.754  0.1025  0.5405  0.1535
  455SOL    HW2 1893   3.870   3.121   0.741 -2.0477  3.0231  1.1538
  455SOL    HW3 1894   3.721   3.098   0.729 -1.4465 -1.5425  1.4085
  455SOL    MW4 1895   3.801   3.069   0.749 -0.3855  0.5934  0.4510
  456SOL     OW 1896   3.582   3.210   0.691  0.3278  0.2771  0.3393
  456SOL    HW2 1897   3.510   3.168   0.738  0.7982 -0.9024  0.0197
  456SOL    HW3 1898   3.549   3.220   0.601  0.1317  0.8047  0.4685
  456SOL    MW4 1899   3.568   3.206   0.685  0.3641  0.1910  0.3142
  457SOL     OW 1900   3.605   3.439   0.854 -0.5900 -0.2169 -0.2640
  457SOL    HW2 1901   3.607   3.355   0.808 -1.3105 -0.2270 -0.2773
  457SOL    HW3 1902   3.539   3.490   0.808 -1.7297 -0.4322  1.1185
  457SOL    MW4 1903   3.597   3.435   0.841 -0.8354 -0.2468 -0.0833
  458SOL     OW 1904   3.829   3.629   0.740 -0.3289  0.2483  0.2320
  458SOL    HW2 1905   3.910   3.582   0.758  0.0099  0.4201 -0.7961
  458SOL    HW3 1906   3.761   3.575   0.779 -0.0201 -1.5159 -1.5643
  458SOL    MW4 1907   3.831   3.616   0.747 -0.2434  0.0381 -0.1406
  459SOL     OW 1908   3.871   3.887   0.825  0.9641  0.2516  0.4491
  459SOL    HW2 1909   3.791   3.929   0.795  1.9747  1.0255 -1.2260
  459SOL    HW3 1910   3.859   3.794   0.805  0.0036  0.1846  1.3160
  459SOL    MW4 1911   3.859   3.880   0.819  0.9708  0.3452  0.3425
  460SOL     OW 1912   3.634   3.972   0.717 -0.0592  0.1891  0.1125
  460SOL    HW2 1913   3.662   3.969   0.625  1.1478  0.9058  0.4388
  460SOL    HW3 1914   3.624   4.065   0.736 -0.0086  0.0591  0.7875
  460SOL    MW4 1915   3.637   3.984   0.708  0.1068  0.2663  0.2446
  461SOL     OW 1916   3.593   4.232   0.806 -0.5542  0.1199  0.0539
  461SOL    HW2 1917   3.673   4.285   0.800 -0.1768 -0.2816  1.3788
  461SOL    HW3 1918   3.525   4.287   0.768  0.0731  1.0719  0.2881
  461SOL    MW4 1919   3.595   4.247   0.800 -0.4218  0.1922  0.2597
  462SOL     OW 1920   3.829   4.379   0.772 -0.3084 -0.0967  0.3435
  462SOL    HW2 1921   3.904   4.320   0.774 -1.1794 -1.2600 -0.5633
  462SOL    HW3 1922   3.862   4.461   0.808  0.8915 -1.1637  1.7372
  462SOL    MW4 1923   3.843   4.382   0.777 -0.2651 -0.3910  0.4078
  463SOL     OW 1924   4.304   4.610   0.880  0.2650 -0.1038  0.5643
  463SOL    HW2 1925   4.307   4.621   0.975 -0.4536  0.2588  0.5505
  463SOL    HW3 1926   4.233   4.668   0.852  1.4660  0.9530 -0.3656
  463SOL    MW4 1927   4.295   4.619   0.889  0.3285  0.0825  0.4398
  464SOL     OW 1928   4.110   0.104   0.776  0.3878  0.3404  0.5761
  464SOL    HW2 1929   4.080   0.191   0.803  1.1798  0.9207 -0.3875
  464SOL    HW3 1930   4.118   0.110   0.681  0.1431 -0.8909  0.4726
  464SOL    MW4 1931   4.107   0.117   0.767  0.4597  0.2545  0.4354
  465SOL     OW 1932   4.025   0.359   0.858  0.0498 -0.0810 -0.7902
  465SOL    HW2 1933   4.094   0.418   0.826 -0.1329  0.8105  0.4334
  465SOL    HW3 1934   3.945   0.392   0.817  0.2110 -0.5709 -1.5073
  465SOL    MW4 1935   4.023   0.371   0.848  0.0467 -0.0280 -0.7233
  466SOL     OW 1936   4.216   0.499   0.707  0.1280 -0.5323 -0.3896
  466SOL    HW2 1937   4.305   0.477   0.733 -0.1916 -1.7294 -0.2756
  466SOL    HW3 1938   4.217   0.493   0.611  0.7505  1.7347 -0.5398
  466SOL    MW4 1939   4.228   0.495   0.697  0.1683 -0.3911 -0.3943
  467SOL     OW 1940   4.260   0.743   0.831 -0.0823 -0.2237 -0.3265
  467SOL    HW2 1941   4.193   0.799   0.791 -0.0227  1.0813  1.3341
  467SOL    HW3 1942   4.248   0.658   0.790 -1.2730  0.5843 -1.6981
  467SOL    MW4 1943   4.250   0.740   0.821 -0.2313  0.0551 -0.2884
  468SOL     OW 1944   4.039   0.888   0.734 -0.1220  0.0786  0.5058
  468SOL    HW2 1945   4.048   0.976   0.772 -1.9289  1.1219 -1.3709
  468SOL    HW3 1946   4.028   0.904   0.640 -3.8632 -1.9498  0.5484
  468SOL    MW4 1947   4.039   0.902   0.727 -0.8540 -0.0514  0.2639
  469SOL     OW 1948   4.055   1.159   0.823 -0.0777 -0.6171 -0.1093
  469SOL    HW2 1949   4.025   1.160   0.914  0.4430 -1.9118  0.0898
  469SOL    HW3 1950   3.982   1.194   0.773 -0.3566  0.1426  0.8072
  469SOL    MW4 1951   4.042   1.164   0.828 -0.0458 -0.6878  0.0378
  470SOL     OW 1952   4.272   1.311   0.743 -0.1321 -0.1760 -0.2356
  470SOL    HW2 1953   4.198   1.259   0.772  0.1481  0.2624  1.3085
  470SOL    HW3 1954   4.347   1.273   0.789  0.5193 -0.2923 -1.3845
  470SOL    MW4 1955   4.272   1.299   0.753 -0.0091 -0.1336 -0.1834
  471SOL     OW 1956   4.284   1.556   0.859 -0.2560 -0.1560 -0.0148
  471SOL    HW2 1957   4.296   1.554   0.954  2.2657 -1.2233 -0.3097
  471SOL    HW3 1958   4.254   1.468   0.837 -0.5048 -0.0147 -0.2400
  471SOL    MW4 1959   4.282   1.544   0.869  0.0443 -0.2781 -0.0834
  472SOL     OW 1960   4.073   1.682   0.741  0.0670 -0.5643  0.1979
  472SOL    HW2 1961   4.149   1.636   0.776  0.4165 -0.5338 -0.5049
  472SOL    HW3 1962   4.096   1.698   0.649 -0.0809  0.9526  0.4224
  472SOL    MW4 1963   4.086   1.678   0.734  0.0935 -0.3603  0.1348
  473SOL     OW 1964   4.100   1.946   0.848 -0.2849 -0.0009  0.2619
  473SOL    HW2 1965   4.183   1.988   0.827 -0.7399  0.7223 -0.1238
  473SOL    HW3 1966   4.097   1.869   0.790  0.0457  0.0519  0.1733
  473SOL    MW4 1967   4.111   1.941   0.837 -0.3009  0.1014  0.1994
  474SOL     OW 1968   4.333   2.067   0.765  0.3194 -0.0183 -0.1018
  474SOL    HW2 1969   4.396   1.999   0.790 -1.0322 -1.5248 -0.6908
  474SOL    HW3 1970   4.335   2.069   0.669  1.5843  1.9850 -0.0561
  474SOL    MW4 1971   4.341   2.058   0.756  0.3076  0.0474 -0.1734
  475SOL     OW 1972   4.265   2.341   0.803 -0.2605  0.5471 -0.5095
  475SOL    HW2 1973   4.178   2.374   0.778 -0.4426  1.5304  1.3758
  475SOL    HW3 1974   4.264   2.249   0.776 -2.0324  0.4452 -0.1474
  475SOL    MW4 1975   4.253   2.334   0.796 -0.5183  0.6633 -0.2131
  476SOL     OW 1976   4.036   2.447   0.706 -0.1334  0.0841 -0.1744
  476SOL    HW2 1977   4.054   2.532   0.746 -0.4000 -0.5812  1.3846
  476SOL    HW3 1978   3.975   2.404   0.766 -0.0786 -1.1796 -0.9879
  476SOL    MW4 1979   4.030   2.452   0.719 -0.1616 -0.1702 -0.0761
  477SOL     OW 1980   4.064   2.706   0.795 -0.1890  0.1820  0.2916
  477SOL    HW2 1981   4.144   2.759   0.793 -0.2611  0.2743 -0.4890
  477SOL    HW3 1982   4.006   2.749   0.732 -1.0536  0.4230  1.2426
  477SOL    MW4 1983   4.067   2.718   0.786 -0.3123  0.2260  0.3141
  478SOL     OW 1984   4.297   2.856   0.720  0.1500 -0.0263 -0.4156
  478SOL    HW2 1985   4.383   2.881   0.753  0.4376  0.8562 -1.8149
  478SOL    HW3 1986   4.315   2.798   0.646 -0.4699 -0.4069 -0.2724
  478SOL    MW4 1987   4.311   2.852   0.715  0.1063  0.0398 -0.5813
  479SOL     OW 1988   4.229   3.130   0.793  0.2607 -0.0439  0.7623
  479SOL    HW2 1989   4.246   3.047   0.747  0.5444  0.0753  0.6510
  479SOL    HW3 1990   4.315   3.172   0.797 -0.0188  0.5867  0.1687
  479SOL    MW4 1991   4.243   3.124   0.787  0.2613  0.0548  0.6694
  480SOL     OW 1992   3.997   3.259   0.733 -0.8715  0.0837  0.3413
  480SOL    HW2 1993   4.019   3.350   0.752 -0.2269 -0.2730  1.3549
  480SOL    HW3 1994   4.071   3.209   0.766 -1.1484 -0.7987 -0.3622
  480SOL    MW4 1995   4.009   3.265   0.740 -0.8225 -0.0799  0.3823
  481SOL     OW 1996   4.072   3.530   0.790 -0.7198  0.1432  0.1995
  481SOL    HW2 1997   4.074   3.529   0.886 -1.4739  0.5088  0.2173
  481SOL    HW3 1998   4.152   3.577   0.765 -1.4846  1.7164  0.6836
  481SOL    MW4 1999   4.083   3.536   0.800 -0.9198  0.3991  0.2658
  482SOL     OW 2000   0.178   3.939   0.249  0.0476  0.6082  0.1504
  482SOL    HW2 2001   0.093   3.959   0.288  0.4771  0.9142  0.9436
  482SOL    HW3 2002   0.242   3.983   0.306  0.7482  0.2058 -0.3132
  482SOL    MW4 2003   0.176   3.947   0.261  0.1967  0.5956  0.1939
  483SOL     OW 2004   4.336   3.864   0.865 -0.2061 -0.1845 -0.2413
  483SOL    HW2 2005   4.313   3.842   0.956  1.7500  0.0521  0.3287
  483SOL    HW3 2006   4.254   3.896   0.827 -0.5834  1.7244  2.0424
  483SOL    MW4 2007   4.322   3.865   0.872  0.0019  0.0985  0.1352
  484SOL     OW 2008   4.118   3.953   0.733 -0.3319 -0.0458  0.2954
  484SOL    HW2 2009   4.029   3.935   0.763 -0.6832  1.4634  0.1739
  484SOL    HW3 2010   4.111   3.956   0.638 -0.1524  0.0610  0.2850
  484SOL    MW4 2011   4.105   3.951   0.724 -0.3543  0.1676  0.2780
  485SOL     OW 2012   4.094   4.224   0.852  0.3717  0.3166  0.2494
  485SOL    HW2 2013   4.147   4.296   0.817 -1.3439  2.1415  1.2458
  485SOL    HW3 2014   4.115   4.149   0.796  1.7995  1.7253 -1.1784
  485SOL    MW4 2015   4.104   4.224   0.840  0.3338  0.7439  0.1925
  486SOL     OW 2016   4.224   4.396   0.717  0.4039  0.0868 -0.4514
  486SOL    HW2 2017   4.185   4.443   0.644 -1.6718  0.7903  1.0755
  486SOL    HW3 2018   4.250   4.465   0.779 -3.3372 -0.6968  2.1432
  486SOL    MW4 2019   4.223   4.411   0.715 -0.3638  0.0758  0.0923
  487SOL     OW 2020   0.196   4.640   1.171 -0.3649 -0.1865  0.3533
  487SOL    HW2 2021   0.266   4.701   1.195  1.1640 -1.2844 -1.1490
  487SOL    HW3 2022   0.191   4.645   1.076 -2.1104 -0.3924  0.4229
  487SOL    MW4 2023   0.205   4.648   1.162 -0.3935 -0.3586  0.1642
  488SOL     OW 2024   0.012   0.148   1.242  0.4001 -0.1100 -0.2690
  488SOL    HW2 2025  -0.062   0.098   1.208  0.5137 -0.7314  0.4012
  488SOL    HW3 2026   0.089   0.093   1.224  0.6012  0.1279 -0.1516
  488SOL    MW4 2027   0.013   0.134   1.235  0.4416 -0.1606 -0.1651
  489SOL     OW 2028   4.469   0.390   1.103  0.1666 -0.4839  0.3914
  489SOL    HW2 2029   4.398   0.440   1.143  0.7207  0.4067  0.2774
  489SOL    HW3 2030   4.479   0.313   1.159  0.4602  0.3994  1.5712
  489SOL    MW4 2031   4.461   0.387   1.116  0.2780 -0.2499  0.5320
  490SOL     OW 2032   0.219   0.470   1.226  0.0255  0.1190  0.0712
  490SOL    HW2 2033   0.224   0.560   1.194 -1.2015  0.5058  0.9361
  490SOL    HW3 2034   0.143   0.433   1.182 -0.6269  0.1123  1.1979
  490SOL    MW4 2035   0.210   0.477   1.216 -0.2225  0.1692  0.3339
  491SOL     OW 2036   0.175   0.719   1.101 -0.0852 -0.4317  0.5387
  491SOL    HW2 2037   0.262   0.756   1.113  0.1056 -0.6789 -0.0654
  491SOL    HW3 2038   0.118   0.776   1.153  0.2954  0.3318  0.1380
  491SOL    MW4 2039   0.179   0.732   1.109 -0.0098 -0.3635  0.4061
  492SOL     OW 2040   0.014   0.894   1.233  0.1378 -0.2093  0.3700
  492SOL    HW2 2041  -0.006   0.876   1.324 -2.5408  2.2150  0.2920
  492SOL    HW3 2042  -0.052   0.846   1.183  0.7385 -0.3866 -0.2830
  492SOL    MW4 2043   0.003   0.885   1.238 -0.1363  0.0872  0.2736
  493SOL     OW 2044   0.002   1.168   1.149 -0.1716  0.1222  0.5257
  493SOL    HW2 2045  -0.080   1.209   1.176  0.0908  0.2798  1.0907
  493SOL    HW3 2046  -0.005   1.078   1.181 -0.8140 -0.3356 -0.8490
  493SOL    MW4 2047  -0.010   1.161   1.157 -0.2218  0.0825  0.4187
  494SOL     OW 2048   0.250   1.252   1.247 -0.3675  0.0271 -0.5485
  494SOL    HW2 2049   0.320   1.203   1.202  0.9959 -0.0182  1.5683
  494SOL    HW3 2050   0.169   1.218   1.209  0.6663 -1.7606 -1.2233
  494SOL    MW4 2051   0.249   1.241   1.236 -0.0512 -0.2148 -0.3583
  495SOL     OW 2052   0.238   1.521   1.148 -0.1270 -0.0073  0.1418
  495SOL    HW2 2053   0.240   1.428   1.168 -0.5152  0.0640  0.5336
  495SOL    HW3 2054   0.248   1.526   1.053 -0.5378 -0.4711  0.0750
  495SOL    MW4 2055   0.239   1.510   1.138 -0.2324 -0.0591  0.1845
  496SOL     OW 2056   4.490   1.671   1.228  0.5682  0.1814 -0.1212
  496SOL    HW2 2057   4.498   1.766   1.216 -0.0641  0.2873  0.2920
  496SOL    HW3 2058   4.570   1.636   1.188  0.7119  0.8699 -0.4574
  496SOL    MW4 2059   4.502   1.679   1.221  0.5035  0.2863 -0.1111
  497SOL     OW 2060   0.020   1.929   1.142 -0.4364  0.5843  0.2013
  497SOL    HW2 2061  -0.062   1.976   1.157 -1.6227 -1.5695  0.6811
  497SOL    HW3 2062   0.012   1.896   1.052 -1.4800 -2.2212  1.2763
  497SOL    MW4 2063   0.008   1.931   1.132 -0.7307 -0.0701  0.4065
  498SOL     OW 2064   0.225   2.084   1.210  0.0774 -0.4748  0.3330
  498SOL    HW2 2065   0.225   2.163   1.155  0.0003 -0.2745  0.6205
  498SOL    HW3 2066   0.153   2.031   1.176 -0.2401 -0.1605  0.5116
  498SOL    MW4 2067   0.215   2.088   1.198  0.0253 -0.4070  0.3947
  499SOL     OW 2068   0.196   2.360   1.103 -0.0249 -0.1989 -0.1118
  499SOL    HW2 2069   0.279   2.386   1.143  0.1959  0.0906 -0.7357
  499SOL    HW3 2070   0.129   2.398   1.159  0.2329 -1.8141  1.3085
  499SOL    MW4 2071   0.198   2.368   1.115  0.0382 -0.3738 -0.0068
  500SOL     OW 2072   4.487   2.487   1.230  0.3519  0.1978  0.3548
  500SOL    HW2 2073   4.480   2.492   1.326  1.9684 -1.1726  0.5723
  500SOL    HW3 2074   4.419   2.424   1.205 -0.5388  1.0826  0.5232
  500SOL    MW4 2075   4.477   2.479   1.240  0.4478  0.1340  0.4058
  501SOL     OW 2076   0.028   2.720   1.079 -0.6213  0.1299  0.0943
  501SOL    HW2 2077  -0.044   2.776   1.106 -0.1088 -0.7993  3.5881
  501SOL    HW3 2078   0.010   2.635   1.118  1.3788 -0.6679 -0.6024
  501SOL    MW4 2079   0.016   2.717   1.087 -0.2897 -0.0982  0.4632
  502SOL     OW 2080   0.250   2.839   1.199  0.0423  0.1461 -0.2722
  502SOL    HW2 2081   0.234   2.830   1.293  0.2281 -1.5463 -0.3853
  502SOL    HW3 2082   0.176   2.795   1.158  0.6854 -0.3766 -0.8941
  502SOL    MW4 2083   0.238   2.832   1.206  0.1516 -0.1462 -0.3692
  503SOL     OW 2084   0.210   3.093   1.116 -0.3603 -0.0884 -0.1106
  503SOL    HW2 2085   0.289   3.141   1.143 -0.4403 -0.1220  0.1800
  503SOL    HW3 2086   0.224   3.004   1.148  0.8505 -0.8655 -2.6790
  503SOL    MW4 2087   0.223   3.088   1.124 -0.2111 -0.1953 -0.4113
  504SOL     OW 2088   4.483   3.252   1.183 -0.2196  0.1533 -0.1405
  504SOL    HW2 2089   4.409   3.214   1.136 -0.9692  0.1984  0.9902
  504SOL    HW3 2090   4.557   3.196   1.160 -0.7540 -0.3156 -0.7156
  504SOL    MW4 2091   4.483   3.239   1.174 -0.3891  0.0970 -0.0672
  505SOL     OW 2092   0.009   3.512   1.114 -0.0553  0.4269 -0.2595
  505SOL    HW2 2093   0.011   3.424   1.151  1.1536  1.4211  2.1074
  505SOL    HW3 2094   0.027   3.499   1.021  0.3654 -1.7985  0.1027
  505SOL    MW4 2095   0.011   3.499   1.106  0.1597  0.2644  0.1007
  506SOL     OW 2096   0.229   3.629   1.236 -0.8831  0.2842  0.3086
  506SOL    HW2 2097   0.202   3.641   1.327 -1.0881 -0.5186  0.3564
  506SOL    HW3 2098   0.153   3.591   1.193  0.1095 -1.9279  0.4275
  506SOL    MW4 2099   0.216   3.626   1.243 -0.7792 -0.1137  0.3304
  507SOL     OW 2100   0.250   3.906   1.171  0.3865 -0.0986  0.5607
  507SOL    HW2 2101   0.163   3.942   1.192  0.7609  0.3614  1.3505
  507SOL    HW3 2102   0.241   3.812   1.191 -0.2830 -0.2763 -0.5223
  507SOL    MW4 2103   0.237   3.898   1.177  0.3476 -0.0613  0.5220
  508SOL     OW 2104   4.474   4.011   1.210  0.7370  0.8818  0.3378
  508SOL    HW2 2105   4.485   4.008   1.305 -0.6882 -1.0024  0.4568
  508SOL    HW3 2106   4.397   3.958   1.192  0.4968  1.8891 -1.8149
  508SOL    MW4 2107   4.466   4.004   1.220  0.5174  0.7658  0.0694
  509SOL     OW 2108   0.041   4.240   1.093  0.1486  0.2693  0.4391
  509SOL    HW2 2109   0.118   4.279   1.134  2.0796 -2.6227 -0.3401
  509SOL    HW3 2110   0.033   4.154   1.132 -1.9503  0.0376 -0.4239
  509SOL    MW4 2111   0.050   4.234   1.103  0.1259 -0.1426  0.2224
  510SOL     OW 2112   0.254   4.363   1.228  0.5682  0.3905  0.2244
  510SOL    HW2 2113   0.237   4.361   1.322  1.2120 -1.1341  0.3053
  510SOL    HW3 2114   0.259   4.457   1.207 -0.6825  0.7578  1.4959
  510SOL    MW4 2115   0.252   4.375   1.238  0.4882  0.2379  0.4028
  511SOL     OW 2116   0.657   0.020   1.108  0.3795 -0.1473 -0.6416
  511SOL    HW2 2117   0.738   0.070   1.112 -0.3114  0.8630  0.9625
  511SOL    HW3 2118   0.679  -0.064   1.148  0.0581  0.9589  1.9641
  511SOL    MW4 2119   0.671   0.016   1.114  0.2459  0.1321 -0.0861
  512SOL     OW 2120   0.440   0.117   1.236  0.0469  0.5638 -0.0450
  512SOL    HW2 2121   0.436   0.202   1.192 -0.2763  0.7897  0.4171
  512SOL    HW3 2122   0.515   0.073   1.196 -0.3011  0.7271 -0.8919
  512SOL    MW4 2123   0.449   0.122   1.225 -0.0417  0.6151 -0.0958
  513SOL     OW 2124   0.453   0.378   1.104 -0.2043  0.1751  0.3580
  513SOL    HW2 2125   0.375   0.423   1.135 -0.6640 -1.5057  1.6900
  513SOL    HW3 2126   0.444   0.377   1.009 -1.8528 -0.1073  0.5091
  513SOL    MW4 2127   0.442   0.384   1.096 -0.4825 -0.0839  0.5536
  514SOL     OW 2128   0.662   0.515   1.228  0.2157 -0.5814  0.1165
  514SOL    HW2 2129   0.662   0.604   1.193  1.4070 -0.0705  1.3676
  514SOL    HW3 2130   0.592   0.470   1.180 -0.8718  1.2211 -0.0013
  514SOL    MW4 2131   0.653   0.521   1.217  0.2295 -0.2762  0.2661
  515SOL     OW 2132   0.644   0.759   1.128 -0.0995  0.1302  0.1497
  515SOL    HW2 2133   0.556   0.795   1.136 -0.4192 -0.5114 -0.5452
  515SOL    HW3 2134   0.663   0.761   1.035 -0.1002 -1.4542  0.1004
  515SOL    MW4 2135   0.635   0.764   1.117 -0.1417 -0.1635  0.0516
  516SOL     OW 2136   0.382   0.874   1.157  0.5143 -0.4587 -0.5471
  516SOL    HW2 2137   0.381   0.867   1.253 -5.2309  0.7468 -0.3409
  516SOL    HW3 2138   0.401   0.967   1.140 -1.3029 -0.0527 -0.4323
  516SOL    MW4 2139   0.385   0.885   1.168 -0.4835 -0.2461 -0.5049
  517SOL     OW 2140   0.456   1.131   1.106 -0.5624 -0.0943 -0.2951
  517SOL    HW2 2141   0.546   1.152   1.131 -0.5359  2.3211 -2.2981
  517SOL    HW3 2142   0.452   1.150   1.013 -3.0986 -0.4722 -0.2890
  517SOL    MW4 2143   0.467   1.136   1.097 -0.8935  0.1745 -0.5585
  518SOL     OW 2144   0.670   1.277   1.242 -0.0739 -0.3929 -0.3097
  518SOL    HW2 2145   0.743   1.252   1.186  0.3112 -0.1825  0.1023
  518SOL    HW3 2146   0.649   1.367   1.215  0.0743 -0.3123 -0.1567
  518SOL    MW4 2147   0.677   1.286   1.231 -0.0036 -0.3545 -0.2352
  519SOL     OW 2148   0.677   1.545   1.154 -0.6448 -0.4652  0.5294
  519SOL    HW2 2149   0.750   1.597   1.189 -1.1300 -0.5528  1.7007
  519SOL    HW3 2150   0.600   1.600   1.170 -0.8202 -0.2860 -0.8902
  519SOL    MW4 2151   0.677   1.559   1.161 -0.7319 -0.4532  0.4966
  520SOL     OW 2152   0.450   1.679   1.226  0.0655  0.7414 -0.6364
  520SOL    HW2 2153   0.470   1.663   1.318  0.4960  0.4876 -0.7709
  520SOL    HW3 2154   0.375   1.623   1.207  1.3134 -0.8390 -1.0009
  520SOL    MW4 2155   0.443   1.670   1.236  0.2869  0.4994 -0.7023
  521SOL     OW 2156   0.448   1.945   1.117  0.6966  0.2744 -0.4559
  521SOL    HW2 2157   0.429   1.855   1.144  2.6675  0.1595  0.6237
  521SOL    HW3 2158   0.394   1.999   1.175  1.0923 -0.1404  0.3007
  521SOL    MW4 2159   0.438   1.940   1.128  1.0088  0.2046 -0.2135
  522SOL     OW 2160   0.686   2.023   1.218  0.5805  0.0306  0.3337
  522SOL    HW2 2161   0.676   2.028   1.313  1.4503  0.4577  0.4060
  522SOL    HW3 2162   0.603   1.986   1.187 -0.6322  2.0498  1.0506
  522SOL    MW4 2163   0.673   2.019   1.226  0.5352  0.3536  0.4379
  523SOL     OW 2164   0.686   2.271   1.110 -0.3243  0.3543 -0.0994
  523SOL    HW2 2165   0.602   2.311   1.136 -0.2733  0.2946  0.1575
  523SOL    HW3 2166   0.686   2.186   1.154  1.1057  1.4842  2.1834
  523SOL    MW4 2167   0.675   2.265   1.119 -0.1289  0.4957  0.2357
  524SOL     OW 2168   0.451   2.401   1.208 -0.0245 -0.2598 -0.2866
  524SOL    HW2 2169   0.441   2.408   1.303 -0.8759  0.0283 -0.3902
  524SOL    HW3 2170   0.456   2.492   1.178 -0.5388 -0.3254 -0.5844
  524SOL    MW4 2171   0.450   2.414   1.217 -0.2047 -0.2306 -0.3395
  525SOL     OW 2172   0.472   2.681   1.134  0.0053  0.5777  0.1827
  525SOL    HW2 2173   0.395   2.727   1.166 -2.1189 -2.3872 -0.4569
  525SOL    HW3 2174   0.466   2.687   1.038  1.9890  2.5321  0.1535
  525SOL    MW4 2175   0.461   2.688   1.125 -0.0132  0.4442  0.0943
  526SOL     OW 2176   0.700   2.805   1.242  0.3584  0.1975  0.2288
  526SOL    HW2 2177   0.692   2.892   1.202  2.2374  0.0696 -0.4729
  526SOL    HW3 2178   0.626   2.755   1.206 -0.4652  1.3648  0.2859
  526SOL    MW4 2179   0.689   2.810   1.232  0.4977  0.3347  0.1438
  527SOL     OW 2180   0.684   3.101   1.147  0.5551  0.1216  0.7218
  527SOL    HW2 2181   0.764   3.152   1.160  1.7794 -1.1298 -1.4528
  527SOL    HW3 2182   0.683   3.083   1.053 -1.6025 -1.0023  0.9360
  527SOL    MW4 2183   0.695   3.105   1.136  0.4319 -0.1917  0.4632
  528SOL     OW 2184   0.441   3.221   1.204  0.0635 -0.6502  0.4532
  528SOL    HW2 2185   0.441   3.309   1.166 -1.4238 -0.1291  1.6143
  528SOL    HW3 2186   0.533   3.195   1.205  0.4344  0.5885 -0.5755
  528SOL    MW4 2187   0.453   3.229   1.199 -0.0838 -0.4179  0.4705
  529SOL     OW 2188   0.447   3.493   1.128  0.0916  0.0884  0.5221
  529SOL    HW2 2189   0.527   3.532   1.163  0.1387  0.8235 -0.3863
  529SOL    HW3 2190   0.376   3.544   1.167  0.1234  0.4883  0.0635
  529SOL    MW4 2191   0.448   3.505   1.138  0.1020  0.2382  0.3418
  530SOL     OW 2192   0.698   3.596   1.207  0.0888 -0.2304  0.1518
  530SOL    HW2 2193   0.723   3.600   1.299 -0.1474 -0.3363  0.2202
  530SOL    HW3 2194   0.688   3.688   1.181  0.6186 -0.1851  0.1046
  530SOL    MW4 2195   0.700   3.609   1.216  0.1276 -0.2384  0.1546
  531SOL     OW 2196   0.695   3.852   1.116 -0.1470 -0.0945 -0.1253
  531SOL    HW2 2197   0.611   3.889   1.142  0.6913  1.8683 -0.1001
  531SOL    HW3 2198   0.686   3.832   1.023 -0.2188  1.2988 -0.4173
  531SOL    MW4 2199   0.683   3.854   1.107 -0.0459  0.3486 -0.1607
  532SOL     OW 2200   0.479   4.026   1.222  0.1664  0.1229  0.0999
  532SOL    HW2 2201   0.485   4.112   1.180 -1.0044 -0.4988 -1.3662
  532SOL    HW3 2202   0.399   3.988   1.188 -0.2503 -0.8591  2.0891
  532SOL    MW4 2203   0.470   4.032   1.212 -0.0431 -0.0892  0.1689
  533SOL     OW 2204   0.501   4.276   1.117 -0.1267 -0.0831 -0.2593
  533SOL    HW2 2205   0.575   4.327   1.150 -0.6621  0.6226 -0.1405
  533SOL    HW3 2206   0.424   4.315   1.159 -0.8313  0.8813 -2.3523
  533SOL    MW4 2207   0.501   4.288   1.127 -0.2903  0.1373 -0.5199
  534SOL     OW 2208   0.714   4.435   1.215  0.2795 -0.0677 -1.0562
  534SOL    HW2 2209   0.698   4.404   1.304  1.9286  1.6025 -0.1437
  534SOL    HW3 2210   0.801   4.404   1.193  0.6242  1.1075 -1.3798
  534SOL    MW4 2211   0.723   4.427   1.224  0.5425  0.3080 -0.9785
  535SOL     OW 2212   1.111   4.642   1.084  0.1213  0.7321 -0.5258
  535SOL    HW2 2213   1.121   4.554   1.119 -0.7493  0.8728  0.0852
  535SOL    HW3 2214   1.130   4.634   0.991 -2.2379 -0.5389 -0.9265
  535SOL    MW4 2215   1.115   4.630   1.076 -0.3048  0.5832 -0.4981
  536SOL     OW 2216   0.910   0.128   1.159 -0.3854  0.6047 -0.5803
  536SOL    HW2 2217   0.919   0.104   1.251 -1.0698  0.7312 -0.4757
  536SOL    HW3 2218   0.984   0.085   1.116  0.9289  1.9321  0.2826
  536SOL    MW4 2219   0.921   0.119   1.166 -0.3023  0.7965 -0.4525
  537SOL     OW 2220   0.886   0.400   1.098  0.0263  0.2547 -0.2985
  537SOL    HW2 2221   0.908   0.313   1.130 -0.1175  0.0371 -0.7926
  537SOL    HW3 2222   0.804   0.422   1.142 -0.1284 -0.0097 -0.4569
  537SOL    MW4 2223   0.878   0.392   1.108 -0.0131  0.1911 -0.3844
  538SOL     OW 2224   1.119   0.551   1.182  0.1480  0.1166  0.6409
  538SOL    HW2 2225   1.106   0.536   1.276 -0.2844 -0.5796  0.4694
  538SOL    HW3 2226   1.044   0.509   1.140 -0.7308  2.1461  0.0938
  538SOL    MW4 2227   1.107   0.544   1.189 -0.0250  0.2925  0.5460
  539SOL     OW 2228   1.108   0.801   1.075 -0.1187  0.0740 -0.0579
  539SOL    HW2 2229   1.033   0.849   1.108 -0.7051  0.3843 -1.7992
  539SOL    HW3 2230   1.109   0.720   1.125 -0.4237  0.9336  1.3580
  539SOL    MW4 2231   1.098   0.797   1.086 -0.2364  0.2283 -0.1009
  540SOL     OW 2232   0.880   0.906   1.214 -0.3404 -0.6239 -0.8470
  540SOL    HW2 2233   0.861   0.991   1.174 -2.7722  0.6745  2.7599
  540SOL    HW3 2234   0.799   0.856   1.203 -0.6799 -0.6159  1.3730
  540SOL    MW4 2235   0.866   0.911   1.208 -0.7060 -0.4516 -0.0782
  541SOL     OW 2236   0.861   1.158   1.084 -0.5180  0.2195 -0.2126
  541SOL    HW2 2237   0.948   1.175   1.121 -0.2989 -1.0336 -0.1416
  541SOL    HW3 2238   0.876   1.147   0.990 -0.6029 -0.0262 -0.1962
  541SOL    MW4 2239   0.875   1.159   1.077 -0.5003  0.0217 -0.2010
  542SOL     OW 2240   1.102   1.259   1.206  0.7608 -0.2240 -0.5060
  542SOL    HW2 2241   1.077   1.278   1.297 -0.0771  0.6453 -0.8994
  542SOL    HW3 2242   1.196   1.243   1.210  0.5323 -1.4120  0.6959
  542SOL    MW4 2243   1.111   1.260   1.219  0.6201 -0.2661 -0.3992
  543SOL     OW 2244   1.149   1.533   1.114 -0.0075 -0.3761  0.3608
  543SOL    HW2 2245   1.110   1.446   1.126 -0.8560  0.0255  0.5475
  543SOL    HW3 2246   1.145   1.548   1.020 -0.3260 -0.3334  0.3790
  543SOL    MW4 2247   1.143   1.523   1.103 -0.1615 -0.3176  0.3878
  544SOL     OW 2248   0.910   1.655   1.240  0.1428 -0.2083 -0.4781
  544SOL    HW2 2249   0.912   1.742   1.200  0.4056  0.3032  0.6169
  544SOL    HW3 2250   0.984   1.609   1.200  0.2852  0.2298 -0.7240
  544SOL    MW4 2251   0.920   1.660   1.230  0.1962 -0.0831 -0.3661
  545SOL     OW 2252   0.914   1.911   1.106 -0.4733 -0.2431 -0.2347
  545SOL    HW2 2253   0.989   1.955   1.147 -0.2342 -1.6139  0.8334
  545SOL    HW3 2254   0.837   1.954   1.143 -0.2183  1.0515 -1.1990
  545SOL    MW4 2255   0.914   1.922   1.116 -0.4082 -0.2531 -0.2211
  546SOL     OW 2256   1.138   2.100   1.156  0.1333 -0.1500 -0.1115
  546SOL    HW2 2257   1.110   2.127   1.244  1.1061 -0.2474  0.2317
  546SOL    HW3 2258   1.144   2.182   1.107  0.8901  0.0424  0.2933
  546SOL    MW4 2259   1.135   2.114   1.161  0.3614 -0.1376 -0.0129
  547SOL     OW 2260   1.131   2.339   1.058  0.4648  0.3339 -0.0032
  547SOL    HW2 2261   1.196   2.383   1.113  0.2024  0.7902 -0.0565
  547SOL    HW3 2262   1.047   2.358   1.101  0.4529 -1.1788  0.6986
  547SOL    MW4 2263   1.128   2.347   1.071  0.4286  0.1945  0.0824
  548SOL     OW 2264   0.913   2.416   1.211  0.0225  0.0636 -0.3376
  548SOL    HW2 2265   0.902   2.443   1.302  0.2077 -1.0044  0.0023
  548SOL    HW3 2266   0.839   2.359   1.194 -0.2242  0.5696 -0.9830
  548SOL    MW4 2267   0.902   2.412   1.221  0.0144 -0.0107 -0.3779
  549SOL     OW 2268   0.895   2.677   1.107  0.5017  0.4611  0.1213
  549SOL    HW2 2269   0.904   2.591   1.148  0.0261  0.6190  0.5525
  549SOL    HW3 2270   0.818   2.716   1.149 -0.4337  0.3272 -1.4231
  549SOL    MW4 2271   0.886   2.671   1.118  0.3155  0.4644 -0.0255
  550SOL     OW 2272   1.104   2.831   1.207 -0.1345 -0.1926  0.3734
  550SOL    HW2 2273   1.094   2.840   1.302 -0.1562  0.8220  0.2789
  550SOL    HW3 2274   1.025   2.786   1.179 -0.8370  0.8511  0.6510
  550SOL    MW4 2275   1.092   2.826   1.216 -0.2300  0.0792  0.3974
  551SOL     OW 2276   1.101   3.099   1.121  0.1593 -0.0918  0.2886
  551SOL    HW2 2277   1.088   3.010   1.154  0.9718 -0.3205 -0.0099
  551SOL    HW3 2278   1.106   3.089   1.026  0.7764  0.2071  0.2850
  551SOL    MW4 2279   1.100   3.086   1.113  0.3481 -0.0825  0.2488
  552SOL     OW 2280   0.895   3.285   1.219  0.0163  0.2589  0.0914
  552SOL    HW2 2281   0.899   3.365   1.167  1.2508 -0.1663 -0.4785
  552SOL    HW3 2282   0.978   3.241   1.203 -1.1706 -1.8202 -0.7237
  552SOL    MW4 2283   0.906   3.290   1.210  0.0226 -0.0713 -0.0912
  553SOL     OW 2284   0.901   3.527   1.055  0.3744 -0.1427  0.1304
  553SOL    HW2 2285   0.822   3.547   1.105 -0.0906  0.4386 -0.8258
  553SOL    HW3 2286   0.972   3.569   1.104 -0.2989  1.8893 -0.6189
  553SOL    MW4 2287   0.900   3.535   1.068  0.2242  0.2019 -0.0948
  554SOL     OW 2288   1.062   3.629   1.252  0.0802 -0.3929 -0.1378
  554SOL    HW2 2289   1.147   3.589   1.266  0.5387  0.6467  0.1435
  554SOL    HW3 2290   1.031   3.652   1.340  0.5606  1.3118 -0.3822
  554SOL    MW4 2291   1.069   3.627   1.266  0.2041 -0.0308 -0.1329
  555SOL     OW 2292   1.123   3.889   1.172 -0.0270  0.4084  0.3671
  555SOL    HW2 2293   1.038   3.933   1.166 -0.0210  0.1508 -2.0064
  555SOL    HW3 2294   1.102   3.801   1.203 -0.4972  0.7182  0.9402
  555SOL    MW4 2295   1.109   3.883   1.176 -0.0881  0.4153  0.1295
  556SOL     OW 2296   0.880   4.031   1.199  0.6342  0.3948  0.0378
  556SOL    HW2 2297   0.897   4.019   1.293  2.8795 -1.9665 -0.6228
  556SOL    HW3 2298   0.813   3.966   1.178 -1.0541  2.0111  0.2938
  556SOL    MW4 2299   0.873   4.021   1.209  0.7077  0.2966 -0.0156
  557SOL     OW 2300   0.948   4.282   1.091  0.0681  0.5039  0.2830
  557SOL    HW2 2301   0.924   4.190   1.102  0.8134  0.3227  0.4223
  557SOL    HW3 2302   0.922   4.303   1.001  1.3448 -0.2979 -0.2912
  557SOL    MW4 2303   0.941   4.273   1.081  0.3349  0.3743  0.2257
  558SOL     OW 2304   1.166   4.398   1.198  0.3633 -0.2152  0.1134
  558SOL    HW2 2305   1.140   4.391   1.290  0.9491 -1.4831  0.1957
  558SOL    HW3 2306   1.101   4.345   1.151 -0.7857  1.5843 -0.3838
  558SOL    MW4 2307   1.154   4.390   1.204  0.2890 -0.1450  0.0585
  559SOL     OW 2308   1.558   4.666   1.171 -0.1798 -0.1218 -0.1931
  559SOL    HW2 2309   1.645   4.702   1.193  0.2892 -1.1605 -0.3055
  559SOL    HW3 2310   1.565   4.573   1.194 -1.2131 -0.2456 -0.3768
  559SOL    MW4 2311   1.571   4.658   1.177 -0.2544 -0.2761 -0.2321
  560SOL     OW 2312   1.329   0.151   1.152  0.0941  0.1891 -0.0519
  560SOL    HW2 2313   1.409   0.101   1.136  0.3886 -0.0691  2.1481
  560SOL    HW3 2314   1.259   0.087   1.140  0.2981 -0.0084 -0.2108
  560SOL    MW4 2315   1.330   0.136   1.148  0.1599  0.1290  0.2174
  561SOL     OW 2316   1.324   0.412   1.053 -0.9351  0.0592 -0.2120
  561SOL    HW2 2317   1.338   0.323   1.085 -0.7920 -0.1211 -0.7627
  561SOL    HW3 2318   1.256   0.448   1.110 -1.4297 -0.6124 -0.3684
  561SOL    MW4 2319   1.317   0.405   1.065 -0.9815 -0.0532 -0.3053
  562SOL     OW 2320   1.522   0.523   1.219  0.6838 -0.3493  0.2186
  562SOL    HW2 2321   1.537   0.608   1.178 -0.5552 -0.6579 -0.9200
  562SOL    HW3 2322   1.456   0.481   1.164  1.1699 -1.9939  0.8493
  562SOL    MW4 2323   1.515   0.529   1.206  0.5844 -0.6070  0.1516
  563SOL     OW 2324   1.554   0.786   1.112  0.0722  0.2490  0.3674
  563SOL    HW2 2325   1.629   0.817   1.164  0.5874  1.0806 -0.8685
  563SOL    HW3 2326   1.581   0.797   1.021 -0.5482 -1.8900 -0.1153
  563SOL    MW4 2327   1.568   0.791   1.107  0.0583  0.0765  0.1408
  564SOL     OW 2328   1.337   0.915   1.224  0.0399 -0.0049  0.2344
  564SOL    HW2 2329   1.408   0.865   1.183 -0.9952 -0.5297 -0.9232
  564SOL    HW3 2330   1.258   0.889   1.177 -1.0183  0.1906  1.8596
  564SOL    MW4 2331   1.336   0.905   1.213 -0.2363 -0.0483  0.2961
  565SOL     OW 2332   1.362   1.172   1.116  0.0327 -0.4582 -0.1424
  565SOL    HW2 2333   1.362   1.082   1.148 -0.4006 -0.3363  0.2138
  565SOL    HW3 2334   1.363   1.164   1.020  1.8333 -0.8222 -0.1013
  565SOL    MW4 2335   1.362   1.159   1.107  0.2131 -0.4902 -0.0900
  566SOL     OW 2336   1.599   1.283   1.233  0.2044  0.2702  0.4306
  566SOL    HW2 2337   1.666   1.219   1.211  2.1414  1.6372  2.1940
  566SOL    HW3 2338   1.521   1.254   1.185  1.8010 -1.8216 -0.9617
  566SOL    MW4 2339   1.598   1.271   1.224  0.6706  0.1746  0.4796
  567SOL     OW 2340   1.593   1.548   1.130 -0.0650  0.2808  0.0438
  567SOL    HW2 2341   1.664   1.590   1.178  1.5458 -0.5288 -1.5371
  567SOL    HW3 2342   1.603   1.455   1.149 -0.6552  0.1575 -0.2453
  567SOL    MW4 2343   1.603   1.541   1.139  0.0697  0.1577 -0.2030
  568SOL     OW 2344   1.359   1.697   1.178 -0.0750 -0.1854 -0.2422
  568SOL    HW2 2345   1.443   1.662   1.149  0.2806  0.8055 -0.4171
  568SOL    HW3 2346   1.295   1.634   1.146  0.7226 -1.9146  1.4695
  568SOL    MW4 2347   1.361   1.684   1.170  0.0771 -0.2829 -0.0395
  569SOL     OW 2348   1.367   1.961   1.094  0.6540 -0.3249  0.3433
  569SOL    HW2 2349   1.373   1.871   1.126 -1.7027 -0.7775 -0.3815
  569SOL    HW3 2350   1.278   1.988   1.116  0.8676  1.3192 -0.7496
  569SOL    MW4 2351   1.356   1.952   1.101  0.3715 -0.1677  0.1036
  570SOL     OW 2352   1.579   2.090   1.207  0.4071 -0.1222  0.0292
  570SOL    HW2 2353   1.575   2.175   1.165  0.2141  0.2632  0.8190
  570SOL    HW3 2354   1.503   2.042   1.173 -1.9285  1.4904  2.7105
  570SOL    MW4 2355   1.568   2.095   1.197  0.0736  0.1414  0.4871
  571SOL     OW 2356   1.573   2.337   1.108 -0.1311  0.7068 -0.1531
  571SOL    HW2 2357   1.512   2.389   1.160 -0.2973 -0.0079  0.3603
  571SOL    HW3 2358   1.552   2.360   1.017  0.6414  2.5016  0.0952
  571SOL    MW4 2359   1.562   2.347   1.103 -0.0511  0.8490 -0.0525
  572SOL     OW 2360   1.329   2.455   1.186  0.3123  0.1220 -0.0904
  572SOL    HW2 2361   1.323   2.437   1.280  1.6192  0.3290  0.0460
  572SOL    HW3 2362   1.328   2.550   1.179 -0.0770  0.1018 -0.3072
  572SOL    MW4 2363   1.328   2.465   1.197  0.4333  0.1466 -0.1010
  573SOL     OW 2364   1.341   2.719   1.146 -0.8036  0.1443  0.0126
  573SOL    HW2 2365   1.407   2.780   1.179 -1.5883  1.3469 -0.6478
  573SOL    HW3 2366   1.258   2.753   1.178 -1.2636 -0.4970 -0.4858
  573SOL    MW4 2367   1.339   2.731   1.154 -0.9677  0.2184 -0.1403
  574SOL     OW 2368   1.578   2.871   1.208 -0.6353  0.2140  0.1017
  574SOL    HW2 2369   1.631   2.799   1.173  0.8397 -0.0315  2.6407
  574SOL    HW3 2370   1.594   2.944   1.148  2.2231 -0.0236  0.4791
  574SOL    MW4 2371   1.587   2.871   1.196 -0.0635  0.1504  0.4864
  575SOL     OW 2372   1.568   3.125   1.108  0.2695  0.0904  0.1883
  575SOL    HW2 2373   1.642   3.160   1.158 -0.9688  2.0866  0.6530
  575SOL    HW3 2374   1.491   3.167   1.146 -0.9971 -0.8997 -1.2313
  575SOL    MW4 2375   1.567   3.135   1.120 -0.0612  0.2232  0.0622
  576SOL     OW 2376   1.344   3.224   1.216 -0.2872 -0.2076 -0.1788
  576SOL    HW2 2377   1.323   3.217   1.309 -1.0001  0.3234 -0.2965
  576SOL    HW3 2378   1.278   3.168   1.173 -0.9593  0.8110 -0.4867
  576SOL    MW4 2379   1.332   3.215   1.222 -0.4699 -0.0033 -0.2350
  577SOL     OW 2380   1.311   3.493   1.210  0.3463  0.3658 -0.2058
  577SOL    HW2 2381   1.325   3.399   1.220  0.7667  0.2891 -1.4586
  577SOL    HW3 2382   1.320   3.509   1.117 -1.2335  1.4173 -0.2029
  577SOL    MW4 2383   1.314   3.483   1.199  0.1934  0.4942 -0.3707
  578SOL     OW 2384   1.571   3.616   1.247  0.0433  0.5253  0.1785
  578SOL    HW2 2385   1.563   3.697   1.196  0.9509 -0.5617 -1.7752
  578SOL    HW3 2386   1.492   3.567   1.225  1.2453 -0.6744 -1.5592
  578SOL    MW4 2387   1.559   3.621   1.237  0.3216  0.2234 -0.3085
  579SOL     OW 2388   1.569   3.866   1.100 -0.1463  0.2118 -1.0036
  579SOL    HW2 2389   1.509   3.914   1.156  0.3020 -0.2276 -0.1400
  579SOL    HW3 2390   1.570   3.916   1.018 -0.8596  0.8102 -0.6585
  579SOL    MW4 2391   1.561   3.879   1.096 -0.1812  0.2327 -0.8441
  580SOL     OW 2392   1.362   3.980   1.273  0.0543  0.0916 -0.2321
  580SOL    HW2 2393   1.363   4.069   1.237  0.1156  0.3041  0.2997
  580SOL    HW3 2394   1.285   3.940   1.231 -1.2473  1.0720  1.1475
  580SOL    MW4 2395   1.352   3.987   1.262 -0.1093  0.2489  0.0200
  581SOL     OW 2396   1.358   4.225   1.111  0.1485 -0.4932  0.1088
  581SOL    HW2 2397   1.287   4.276   1.150  1.9009  1.1188  1.2347
  581SOL    HW3 2398   1.355   4.246   1.018 -1.2321 -0.9124  0.0532
  581SOL    MW4 2399   1.348   4.234   1.104  0.1975 -0.3357  0.2501
  582SOL     OW 2400   1.577   4.392   1.210  0.2368  0.2842 -0.3325
  582SOL    HW2 2401   1.575   4.378   1.304 -0.5315 -2.2523 -0.6943
  582SOL    HW3 2402   1.502   4.343   1.176 -0.0461  1.9266 -2.1738
  582SOL    MW4 2403   1.567   4.384   1.218  0.0981  0.1669 -0.6232
  583SOL     OW 2404   2.013   4.659   1.104 -0.1215 -0.2030  0.3108
  583SOL    HW2 2405   1.991   4.567   1.119  0.0414 -0.0639  1.4203
  583SOL    HW3 2406   2.040   4.663   1.012  0.3050 -1.3476  0.3845
  583SOL    MW4 2407   2.014   4.648   1.094 -0.0439 -0.3357  0.4669
  584SOL     OW 2408   1.800   0.113   1.195 -0.4926 -0.0979  0.4058
  584SOL    HW2 2409   1.793   0.206   1.176  1.1562 -0.2529 -1.0695
  584SOL    HW3 2410   1.880   0.085   1.151 -1.1093 -2.2696  0.5902
  584SOL    MW4 2411   1.809   0.122   1.187 -0.3566 -0.4049  0.2353
  585SOL     OW 2412   1.762   0.404   1.154 -0.2335  0.0774  0.3862
  585SOL    HW2 2413   1.672   0.435   1.167 -0.1418  0.1728  0.7978
  585SOL    HW3 2414   1.775   0.408   1.059 -0.4960  0.5283  0.3678
  585SOL    MW4 2415   1.752   0.409   1.143 -0.2562  0.1495  0.4381
  586SOL     OW 2416   2.020   0.500   1.237 -0.4265 -0.0619 -0.3961
  586SOL    HW2 2417   2.014   0.503   1.333  1.5711 -1.2476 -0.2152
  586SOL    HW3 2418   1.941   0.452   1.210 -1.3879  0.9334  0.5766
  586SOL    MW4 2419   2.009   0.494   1.246 -0.2897 -0.0870 -0.2439
  587SOL     OW 2420   2.045   0.756   1.136  0.4469 -0.1195  0.2724
  587SOL    HW2 2421   2.028   0.667   1.165 -0.5104 -0.3830 -1.0578
  587SOL    HW3 2422   2.050   0.750   1.041 -4.0763  1.9011 -0.2260
  587SOL    MW4 2423   2.043   0.744   1.128 -0.2763  0.1124  0.0310
  588SOL     OW 2424   1.805   0.867   1.230  0.2172 -0.1145  0.3809
  588SOL    HW2 2425   1.807   0.889   1.323  0.2365  0.0620  0.3387
  588SOL    HW3 2426   1.890   0.824   1.214 -0.1218 -0.8830  0.6228
  588SOL    MW4 2427   1.817   0.864   1.240  0.1750 -0.1926  0.4075
  589SOL     OW 2428   1.803   1.115   1.105  0.2919  0.1146 -0.0661
  589SOL    HW2 2429   1.812   1.026   1.141 -1.0147 -0.4129 -1.0128
  589SOL    HW3 2430   1.796   1.102   1.010 -3.1399  0.9616  0.0115
  589SOL    MW4 2431   1.803   1.101   1.097 -0.3333  0.1566 -0.1807
  590SOL     OW 2432   1.994   1.253   1.250 -0.6198  0.0511 -0.3547
  590SOL    HW2 2433   2.081   1.223   1.222 -0.7732 -1.5832  0.8846
  590SOL    HW3 2434   1.933   1.195   1.205 -1.0726  0.9532 -0.9229
  590SOL    MW4 2435   1.997   1.241   1.240 -0.6999 -0.0454 -0.2661
  591SOL     OW 2436   2.023   1.506   1.150  0.3001 -0.3222 -0.3326
  591SOL    HW2 2437   1.998   1.417   1.177  0.7768 -0.3927 -0.1134
  591SOL    HW3 2438   2.041   1.498   1.056 -0.5474 -0.2585 -0.5011
  591SOL    MW4 2439   2.022   1.493   1.141  0.2511 -0.3231 -0.3260
  592SOL     OW 2440   1.814   1.663   1.234 -0.2143 -0.0293 -0.0040
  592SOL    HW2 2441   1.829   1.740   1.180 -1.2575 -1.1914 -2.0185
  592SOL    HW3 2442   1.875   1.597   1.200 -0.2708 -0.5009  0.7910
  592SOL    MW4 2443   1.824   1.664   1.223 -0.3593 -0.2449 -0.1649
  593SOL     OW 2444   1.790   1.914   1.105 -0.5648  0.4762 -0.2035
  593SOL    HW2 2445   1.709   1.948   1.144 -1.2835 -0.9110 -0.4700
  593SOL    HW3 2446   1.777   1.923   1.011 -0.4972  0.0541 -0.2536
  593SOL    MW4 2447   1.778   1.920   1.098 -0.6508  0.2375 -0.2452
  594SOL     OW 2448   1.981   2.093   1.211 -0.1817  0.0062  0.1322
  594SOL    HW2 2449   1.992   2.076   1.304 -1.0789 -0.6913  0.1230
  594SOL    HW3 2450   1.911   2.034   1.184 -0.2273  0.5092 -0.8936
  594SOL    MW4 2451   1.973   2.083   1.219 -0.3062 -0.0196 -0.0044
  595SOL     OW 2452   2.039   2.330   1.081  0.4526  0.1408  0.0841
  595SOL    HW2 2453   2.126   2.352   1.115 -0.6077  1.4074  2.0284
  595SOL    HW3 2454   2.014   2.251   1.129  0.8313 -0.6901 -1.0505
  595SOL    MW4 2455   2.048   2.322   1.092  0.3626  0.1984  0.1910
  596SOL     OW 2456   1.806   2.486   1.218  0.2369 -0.5699 -0.0799
  596SOL    HW2 2457   1.892   2.447   1.201  0.9543 -0.8419  3.6718
  596SOL    HW3 2458   1.744   2.422   1.183  1.5231 -1.6075 -0.5393
  596SOL    MW4 2459   1.809   2.472   1.211  0.5012 -0.7429  0.3545
  597SOL     OW 2460   1.783   2.725   1.082  0.4903 -0.8328  0.3917
  597SOL    HW2 2461   1.778   2.644   1.132 -1.5887 -0.2103  1.2608
  597SOL    HW3 2462   1.843   2.780   1.131 -0.8185 -0.5728  1.7520
  597SOL    MW4 2463   1.790   2.722   1.095  0.0434 -0.7167  0.6857
  598SOL     OW 2464   2.002   2.821   1.244 -0.0986 -0.0895  0.3738
  598SOL    HW2 2465   2.026   2.910   1.216 -0.6289 -0.3786 -1.0094
  598SOL    HW3 2466   1.989   2.829   1.339  2.3577  0.7455  0.6777
  598SOL    MW4 2467   2.004   2.834   1.253  0.1554 -0.0174  0.2315
  599SOL     OW 2468   2.080   3.061   1.097 -0.1372 -0.3706 -0.1797
  599SOL    HW2 2469   1.988   3.091   1.099  0.2574  0.9182 -0.5173
  599SOL    HW3 2470   2.107   3.074   1.006 -0.0782 -2.2406 -0.4487
  599SOL    MW4 2471   2.071   3.067   1.085 -0.0775 -0.4473 -0.2596
  600SOL     OW 2472   1.824   3.195   1.188  0.2268 -0.0097 -0.1175
  600SOL    HW2 2473   1.821   3.187   1.283 -1.5989 -0.7186 -0.2122
  600SOL    HW3 2474   1.826   3.289   1.172 -0.6684  0.1498  0.6252
  600SOL    MW4 2475   1.824   3.206   1.199 -0.1322 -0.0823 -0.0321
  601SOL     OW 2476   1.793   3.470   1.138  0.0802  0.3839  0.0496
  601SOL    HW2 2477   1.870   3.518   1.169  0.4633  0.9731 -1.7552
  601SOL    HW3 2478   1.719   3.523   1.166  0.3631  0.3378  0.9046
  601SOL    MW4 2479   1.794   3.483   1.146  0.1681  0.4559 -0.0758
  602SOL     OW 2480   1.994   3.633   1.224 -0.0895 -0.3064  0.2303
  602SOL    HW2 2481   1.992   3.625   1.319 -0.4812 -0.4375  0.2143
  602SOL    HW3 2482   2.080   3.601   1.198 -0.5513 -1.7051  0.4094
  602SOL    MW4 2483   2.005   3.628   1.233 -0.2022 -0.5083  0.2519
  603SOL     OW 2484   2.019   3.893   1.122  0.0472  0.2599 -0.3186
  603SOL    HW2 2485   1.936   3.935   1.146  0.9527  1.1085  1.4204
  603SOL    HW3 2486   2.007   3.801   1.146  0.4063  0.8126  2.1551
  603SOL    MW4 2487   2.006   3.886   1.129  0.2139  0.4447  0.2372
  604SOL     OW 2488   1.795   4.008   1.227  0.0388  0.1337 -0.2708
  604SOL    HW2 2489   1.803   3.993   1.321  1.2878  1.2433 -0.1871
  604SOL    HW3 2490   1.719   3.957   1.201  0.9706 -1.9554  0.9468
  604SOL    MW4 2491   1.786   4.000   1.236  0.3265  0.0048 -0.0991
  605SOL     OW 2492   1.769   4.250   1.099  0.1846  0.0657 -0.1269
  605SOL    HW2 2493   1.764   4.172   1.154  1.0568  0.6798  0.8436
  605SOL    HW3 2494   1.698   4.306   1.131  0.5999  0.3615  0.2729
  605SOL    MW4 2495   1.759   4.247   1.110  0.3545  0.1855  0.0539
  606SOL     OW 2496   1.986   4.410   1.176 -0.8051 -0.3981 -0.5850
  606SOL    HW2 2497   1.995   4.413   1.271 -0.0297 -0.2782 -0.6632
  606SOL    HW3 2498   1.913   4.349   1.161 -1.1479 -0.1579  0.0916
  606SOL    MW4 2499   1.977   4.402   1.186 -0.7480 -0.3505 -0.5062
  607SOL     OW 2500   2.457   4.658   1.093  0.1284 -0.1932  0.1222
  607SOL    HW2 2501   2.535   4.683   1.143  0.7169  0.1276 -0.9508
  607SOL    HW3 2502   2.386   4.705   1.136  0.6829  0.3560  0.4568
  607SOL    MW4 2503   2.458   4.668   1.106  0.2794 -0.0784  0.0247
  608SOL     OW 2504   2.255   0.113   1.208 -0.4212  0.4842  0.1006
  608SOL    HW2 2505   2.243   0.202   1.177 -0.7420  0.6803  0.7792
  608SOL    HW3 2506   2.171   0.070   1.190  0.6251 -0.4623 -2.7566
  608SOL    MW4 2507   2.242   0.119   1.202 -0.3254  0.3852 -0.1868
  609SOL     OW 2508   2.248   0.371   1.066  0.1357  0.2383 -0.1859
  609SOL    HW2 2509   2.174   0.421   1.101 -0.0095 -0.5289  0.6139
  609SOL    HW3 2510   2.242   0.383   0.971 -0.2648  1.2226 -0.0437
  609SOL    MW4 2511   2.237   0.379   1.058  0.0634  0.2670 -0.0616
  610SOL     OW 2512   2.458   0.478   1.247  0.5599  0.0758  0.1119
  610SOL    HW2 2513   2.443   0.478   1.341  0.8484  0.7268  0.1546
  610SOL    HW3 2514   2.375   0.448   1.209 -0.5061  2.5666  0.4107
  610SOL    MW4 2515   2.445   0.474   1.254  0.4573  0.4903  0.1571
  611SOL     OW 2516   2.488   0.744   1.149  0.1742 -0.2178  0.1756
  611SOL    HW2 2517   2.483   0.652   1.175  2.1734 -0.7494 -1.1071
  611SOL    HW3 2518   2.515   0.740   1.057  0.5506  1.6573  0.1941
  611SOL    MW4 2519   2.491   0.731   1.140  0.4878 -0.0405  0.0088
  612SOL     OW 2520   2.268   0.892   1.221 -0.3985 -0.1548 -0.1598
  612SOL    HW2 2521   2.345   0.840   1.197 -0.7507 -1.5622  1.6245
  612SOL    HW3 2522   2.194   0.835   1.200 -0.8504  0.3235  0.1364
  612SOL    MW4 2523   2.268   0.877   1.215 -0.5045 -0.2773  0.1147
  613SOL     OW 2524   2.244   1.148   1.107 -0.1682  0.2269  0.1671
  613SOL    HW2 2525   2.327   1.180   1.144 -0.1117 -0.1700  0.3847
  613SOL    HW3 2526   2.228   1.065   1.151 -1.9456  1.4689  1.9662
  613SOL    MW4 2527   2.253   1.141   1.118 -0.3955  0.3383  0.4332
  614SOL     OW 2528   2.480   1.245   1.223  0.0397 -0.2008  0.5032
  614SOL    HW2 2529   2.552   1.200   1.178 -0.2486 -0.3718  0.2064
  614SOL    HW3 2530   2.486   1.335   1.192 -0.3944 -0.4014 -0.1888
  614SOL    MW4 2531   2.490   1.251   1.213 -0.0558 -0.2499  0.3726
  615SOL     OW 2532   2.467   1.505   1.128 -0.0375 -0.1238  0.0891
  615SOL    HW2 2533   2.388   1.541   1.169  0.7983 -0.3815  1.9771
  615SOL    HW3 2534   2.461   1.532   1.036 -1.2975  1.6009  0.6508
  615SOL    MW4 2535   2.456   1.513   1.121 -0.0935  0.0699  0.4122
  616SOL     OW 2536   2.259   1.655   1.203  0.0356 -0.0805  0.1054
  616SOL    HW2 2537   2.243   1.749   1.198  0.4895 -0.0382 -0.7035
  616SOL    HW3 2538   2.173   1.616   1.189 -0.1934  0.2133  0.6684
  616SOL    MW4 2539   2.246   1.662   1.201  0.0653 -0.0362  0.0731
  617SOL     OW 2540   2.196   1.917   1.153 -0.0464  0.7780  0.7062
  617SOL    HW2 2541   2.119   1.966   1.182 -0.8837 -0.3173  0.3719
  617SOL    HW3 2542   2.176   1.891   1.063  0.3907 -0.1408  0.8645
  617SOL    MW4 2543   2.183   1.920   1.145 -0.0992  0.5124  0.6831
  618SOL     OW 2544   2.464   2.009   1.225  0.2095  0.0203 -0.3684
  618SOL    HW2 2545   2.520   1.954   1.170 -0.1598  0.8191 -1.5668
  618SOL    HW3 2546   2.375   1.986   1.199 -0.0292 -1.1023  1.3912
  618SOL    MW4 2547   2.459   1.999   1.214  0.1295 -0.0224 -0.2943
  619SOL     OW 2548   2.468   2.280   1.131 -0.4231  0.2967 -0.3544
  619SOL    HW2 2549   2.467   2.193   1.172  0.1323  0.0887 -0.7840
  619SOL    HW3 2550   2.487   2.264   1.039 -1.0081  0.8242 -0.5720
  619SOL    MW4 2551   2.471   2.267   1.125 -0.4272  0.3390 -0.4399
  620SOL     OW 2552   2.274   2.450   1.207  0.4377  0.0858 -0.3597
  620SOL    HW2 2553   2.258   2.434   1.300  0.7411  1.0947 -0.1216
  620SOL    HW3 2554   2.345   2.390   1.184 -0.5998 -1.1907 -0.3065
  620SOL    MW4 2555   2.282   2.440   1.217  0.3407  0.0503 -0.3211
  621SOL     OW 2556   2.221   2.696   1.125  0.3911 -0.4212  0.4324
  621SOL    HW2 2557   2.250   2.613   1.163  0.6933 -0.0636  0.9974
  621SOL    HW3 2558   2.146   2.722   1.178 -0.6259 -1.0665 -0.6778
  621SOL    MW4 2559   2.215   2.689   1.137  0.2966 -0.4592  0.3605
  622SOL     OW 2560   2.490   2.781   1.171  0.4526  0.0194  0.1260
  622SOL    HW2 2561   2.504   2.766   1.264  1.3455  0.4739  0.0747
  622SOL    HW3 2562   2.397   2.766   1.157  0.0094  1.5212  1.3899
  622SOL    MW4 2563   2.480   2.777   1.181  0.5119  0.2775  0.2861
  623SOL     OW 2564   2.504   3.054   1.074  0.5746 -0.3016  0.5188
  623SOL    HW2 2565   2.432   3.094   1.122 -0.3150 -1.0365 -0.1743
  623SOL    HW3 2566   2.485   2.960   1.076  0.8756 -0.3958 -0.6726
  623SOL    MW4 2567   2.492   3.047   1.080  0.4966 -0.4113  0.2701
  624SOL     OW 2568   2.292   3.206   1.216  0.0176 -0.2775  0.0721
  624SOL    HW2 2569   2.273   3.295   1.189  0.2755  0.1686  1.3035
  624SOL    HW3 2570   2.221   3.153   1.180  0.8164  0.1494 -2.1646
  624SOL    MW4 2571   2.280   3.211   1.208  0.1571 -0.1621 -0.0603
  625SOL     OW 2572   2.210   3.471   1.159 -0.1499  0.4119  0.6545
  625SOL    HW2 2573   2.293   3.516   1.174  0.3360 -0.3854  0.4561
  625SOL    HW3 2574   2.206   3.460   1.064 -0.1299 -0.1878  0.7193
  625SOL    MW4 2575   2.220   3.475   1.148 -0.0832  0.2272  0.6368
  626SOL     OW 2576   2.458   3.603   1.191 -0.1310 -0.1414 -0.8641
  626SOL    HW2 2577   2.460   3.594   1.286 -0.7263 -1.0019 -0.9275
  626SOL    HW3 2578   2.468   3.697   1.175  0.8910 -0.0973  0.0161
  626SOL    MW4 2579   2.460   3.615   1.201 -0.0749 -0.2491 -0.7561
  627SOL     OW 2580   2.489   3.878   1.146 -0.0662  0.5365 -0.0995
  627SOL    HW2 2581   2.422   3.930   1.189  0.7516  0.6597  1.0582
  627SOL    HW3 2582   2.471   3.887   1.053 -1.1517  1.2329  0.1738
  627SOL    MW4 2583   2.478   3.886   1.140 -0.1018  0.6447  0.0892
  628SOL     OW 2584   2.267   4.033   1.208  0.0747 -0.4981  0.0827
  628SOL    HW2 2585   2.248   4.122   1.178  1.8671  0.3776  1.4354
  628SOL    HW3 2586   2.198   3.980   1.169  0.0580  1.1677 -2.3298
  628SOL    MW4 2587   2.255   4.038   1.199  0.3090 -0.1626 -0.0571
  629SOL     OW 2588   2.221   4.291   1.118  0.0992 -0.2322  0.2907
  629SOL    HW2 2589   2.140   4.330   1.150  0.2262  0.3782 -0.1296
  629SOL    HW3 2590   2.212   4.290   1.023  0.4835 -0.3849  0.2534
  629SOL    MW4 2591   2.209   4.296   1.109  0.1667 -0.1717  0.2303
  630SOL     OW 2592   2.468   4.387   1.189  0.1103 -0.6499  0.1885
  630SOL    HW2 2593   2.385   4.343   1.169 -0.1483  0.0044 -0.1957
  630SOL    HW3 2594   2.458   4.474   1.151  1.8232 -1.2837 -1.8444
  630SOL    MW4 2595   2.455   4.393   1.181  0.3023 -0.6480 -0.1304
  631SOL     OW 2596   2.930   0.028   1.082  0.3946  0.0371  0.0732
  631SOL    HW2 2597   2.913  -0.063   1.105  0.5344  0.1256  0.5268
  631SOL    HW3 2598   2.881   0.042   1.001  1.8871 -1.0021 -1.0602
  631SOL    MW4 2599   2.922   0.018   1.074  0.6101 -0.0883 -0.0165
  632SOL     OW 2600   2.696   0.077   1.204 -0.1059 -0.5164 -0.2109
  632SOL    HW2 2601   2.697   0.107   1.295 -0.0113  0.8635 -0.6638
  632SOL    HW3 2602   2.784   0.045   1.188 -0.3605 -1.5727  0.4420
  632SOL    MW4 2603   2.707   0.077   1.214 -0.1268 -0.4737 -0.1844
  633SOL     OW 2604   2.698   0.351   1.132  0.1831 -0.1196 -0.0908
  633SOL    HW2 2605   2.690   0.259   1.157  0.2943  0.2471  1.3291
  633SOL    HW3 2606   2.614   0.390   1.158  0.6401  0.4576  0.5155
  633SOL    MW4 2607   2.686   0.344   1.138  0.2582  0.0049  0.1767
  634SOL     OW 2608   2.925   0.493   1.228 -0.3144 -0.0880  0.1384
  634SOL    HW2 2609   2.903   0.577   1.188  0.0382 -0.2159 -0.3230
  634SOL    HW3 2610   2.850   0.437   1.208 -0.4404  0.0430  0.2399
  634SOL    MW4 2611   2.912   0.497   1.220 -0.2842 -0.0876  0.0910
  635SOL     OW 2612   2.934   0.755   1.121  0.0449  0.7421  0.1625
  635SOL    HW2 2613   3.006   0.792   1.173  1.1606  0.5651 -1.2402
  635SOL    HW3 2614   2.858   0.809   1.145  0.9371  1.8237  0.6249
  635SOL    MW4 2615   2.933   0.767   1.131  0.3095  0.8615  0.0385
  636SOL     OW 2616   2.725   0.894   1.223 -0.1346 -0.5020 -0.6876
  636SOL    HW2 2617   2.700   0.974   1.177 -0.5004  0.0425  0.4408
  636SOL    HW3 2618   2.653   0.834   1.207 -0.3669 -0.2370 -0.6373
  636SOL    MW4 2619   2.712   0.897   1.215 -0.2136 -0.3951 -0.5320
  637SOL     OW 2620   2.709   1.136   1.092  0.7161 -0.2628  0.1997
  637SOL    HW2 2621   2.784   1.161   1.146  1.3082 -0.4352 -0.5357
  637SOL    HW3 2622   2.746   1.122   1.004  0.2217 -2.5916  0.3414
  637SOL    MW4 2623   2.724   1.137   1.087  0.7291 -0.5928  0.1215
  638SOL     OW 2624   2.901   1.247   1.239  0.1748  0.0036  0.1718
  638SOL    HW2 2625   2.926   1.252   1.331 -1.1860 -0.5874  0.5820
  638SOL    HW3 2626   2.904   1.338   1.209 -2.0471  0.5658  1.5273
  638SOL    MW4 2627   2.905   1.260   1.247 -0.2980 -0.0002  0.4047
  639SOL     OW 2628   2.899   1.518   1.106  0.3042 -0.4844 -0.2769
  639SOL    HW2 2629   2.979   1.565   1.129  0.7943 -1.2270 -0.4137
  639SOL    HW3 2630   2.900   1.514   1.010  0.2478 -0.7423 -0.2673
  639SOL    MW4 2631   2.910   1.523   1.096  0.3614 -0.6164 -0.2937
  640SOL     OW 2632   2.691   1.653   1.212  0.1004  0.2712  0.1160
  640SOL    HW2 2633   2.768   1.607   1.179 -0.5362  0.3376 -1.4881
  640SOL    HW3 2634   2.618   1.593   1.195 -0.2690  0.3816  1.2498
  640SOL    MW4 2635   2.692   1.639   1.206 -0.0324  0.2947  0.0540
  641SOL     OW 2636   2.670   1.889   1.091 -0.0658 -0.4309  0.1301
  641SOL    HW2 2637   2.739   1.949   1.121 -0.2981  0.0734 -0.3342
  641SOL    HW3 2638   2.682   1.810   1.145  2.2509 -1.1913 -1.3953
  641SOL    MW4 2639   2.681   1.886   1.102  0.2091 -0.4648 -0.1324
  642SOL     OW 2640   2.899   2.039   1.159  0.1142 -0.0183  0.4944
  642SOL    HW2 2641   2.907   2.039   1.255 -0.4597  1.1544  0.5564
  642SOL    HW3 2642   2.911   2.131   1.134 -1.4885 -0.0314 -0.3982
  642SOL    MW4 2643   2.901   2.051   1.168 -0.1729  0.1349  0.3847
  643SOL     OW 2644   2.948   2.292   1.085  0.2598  0.2094  0.7189
  643SOL    HW2 2645   3.034   2.315   1.121  0.1506  0.6440  0.7004
  643SOL    HW3 2646   2.887   2.353   1.127  0.3059  1.5923 -1.1850
  643SOL    MW4 2647   2.951   2.303   1.096  0.2513  0.4492  0.4653
  644SOL     OW 2648   2.727   2.426   1.201  0.0874  0.1099  0.4111
  644SOL    HW2 2649   2.732   2.396   1.292  0.4136 -0.7738  0.1102
  644SOL    HW3 2650   2.652   2.379   1.165  0.5611 -0.2981 -0.0500
  644SOL    MW4 2651   2.718   2.416   1.208  0.1926 -0.0606  0.3104
  645SOL     OW 2652   2.685   2.649   1.041 -0.0087  0.2916 -0.3057
  645SOL    HW2 2653   2.694   2.567   1.090  1.7333  0.7601  0.1843
  645SOL    HW3 2654   2.618   2.698   1.089 -0.1944 -0.3416  0.0921
  645SOL    MW4 2655   2.677   2.645   1.054  0.1967  0.2697 -0.1887
  646SOL     OW 2656   2.881   2.788   1.183 -0.0390  0.7332  0.1152
  646SOL    HW2 2657   2.867   2.768   1.275  1.1235 -0.2547  0.1029
  646SOL    HW3 2658   2.811   2.741   1.137 -0.7346  1.3857  0.5019
  646SOL    MW4 2659   2.870   2.779   1.189  0.0226  0.6890  0.1646
  647SOL     OW 2660   2.926   3.039   1.083  0.2573 -0.1962  0.0191
  647SOL    HW2 2661   2.912   2.951   1.120  4.1579 -1.8155 -2.1440
  647SOL    HW3 2662   2.914   3.027   0.989  1.1101  1.5293 -0.3102
  647SOL    MW4 2663   2.922   3.026   1.076  0.8845 -0.1822 -0.3098
  648SOL     OW 2664   2.705   3.171   1.204 -0.4523 -0.4218 -0.2611
  648SOL    HW2 2665   2.786   3.137   1.167  0.1016  0.1217  0.4457
  648SOL    HW3 2666   2.637   3.112   1.171  0.3154 -1.3185 -0.2434
  648SOL    MW4 2667   2.707   3.159   1.195 -0.2778 -0.4685 -0.1656
  649SOL     OW 2668   2.689   3.433   1.084 -0.4826  0.1180  0.1918
  649SOL    HW2 2669   2.679   3.343   1.116  2.6103  0.4089  2.1397
  649SOL    HW3 2670   2.620   3.481   1.129 -2.1882 -1.2380 -0.8901
  649SOL    MW4 2671   2.678   3.427   1.094 -0.2995 -0.0226  0.3060
  650SOL     OW 2672   2.906   3.578   1.208  0.3159  0.4156  0.2304
  650SOL    HW2 2673   2.990   3.545   1.178 -0.0057 -0.5992  0.3986
  650SOL    HW3 2674   2.842   3.529   1.156 -0.1433  1.8528 -0.5582
  650SOL    MW4 2675   2.908   3.567   1.197  0.2129  0.4714  0.1485
  651SOL     OW 2676   2.895   3.831   1.076 -0.3630 -0.6573  0.0285
  651SOL    HW2 2677   2.973   3.877   1.108  0.3124 -1.5410 -0.3019
  651SOL    HW3 2678   2.895   3.748   1.125 -0.9401 -0.7730 -0.1717
  651SOL    MW4 2679   2.905   3.826   1.087 -0.3500 -0.7892 -0.0416
  652SOL     OW 2680   2.728   4.013   1.184  0.0658  0.1511  0.2043
  652SOL    HW2 2681   2.791   3.957   1.138  0.6095  1.4791 -0.7062
  652SOL    HW3 2682   2.642   3.976   1.162  0.3994 -0.0704 -0.7656
  652SOL    MW4 2683   2.725   4.001   1.175  0.1814  0.2971 -0.0437
  653SOL     OW 2684   2.695   4.269   1.070  0.1107  0.2266 -0.4092
  653SOL    HW2 2685   2.687   4.180   1.105  0.8573  0.8099  1.3565
  653SOL    HW3 2686   2.622   4.316   1.109  0.0035  0.5076 -0.9486
  653SOL    MW4 2687   2.684   4.263   1.080  0.1948  0.3414 -0.2474
  654SOL     OW 2688   2.922   4.432   1.182 -0.1983 -0.5279 -0.1624
  654SOL    HW2 2689   2.994   4.392   1.132  0.0942 -0.9313  0.5675
  654SOL    HW3 2690   2.851   4.369   1.176 -0.2880 -0.4055 -0.3835
  654SOL    MW4 2691   2.922   4.419   1.175 -0.1714 -0.5651 -0.0954
  655SOL     OW 2692   3.355   4.665   1.112 -0.2923 -0.0426 -0.1618
  655SOL    HW2 2693   3.435   4.695   1.155 -0.1247  0.2670 -0.6846
  655SOL    HW3 2694   3.284   4.707   1.162 -0.0625  1.2698 -0.9113
  655SOL    MW4 2695   3.357   4.675   1.125 -0.2396  0.1717 -0.3297
  656SOL     OW 2696   3.150   0.115   1.239  0.0494 -0.2673  0.2796
  656SOL    HW2 2697   3.138   0.119   1.334 -1.0172 -1.0967  0.1967
  656SOL    HW3 2698   3.063   0.091   1.205  0.1383  1.1681 -0.9996
  656SOL    MW4 2699   3.137   0.112   1.247 -0.0799 -0.1874  0.0998
  657SOL     OW 2700   3.190   0.394   1.197  0.0749 -0.0779  0.4566
  657SOL    HW2 2701   3.181   0.300   1.213  1.0733 -0.2053  0.3022
  657SOL    HW3 2702   3.103   0.430   1.216 -0.5354 -1.1433 -0.2614
  657SOL    MW4 2703   3.177   0.386   1.202  0.1261 -0.2353  0.3414
  658SOL     OW 2704   3.410   0.525   1.268  0.0293 -0.0051 -0.3110
  658SOL    HW2 2705   3.396   0.616   1.241  1.4559  0.3809  0.1951
  658SOL    HW3 2706   3.327   0.482   1.250 -0.6422  1.3824 -0.6326
  658SOL    MW4 2707   3.398   0.532   1.262  0.1287  0.2288 -0.2867
  659SOL     OW 2708   3.361   0.789   1.181  0.2606 -0.4291 -0.6599
  659SOL    HW2 2709   3.351   0.798   1.086  0.5015 -0.7250 -0.7134
  659SOL    HW3 2710   3.280   0.824   1.217 -0.2282 -1.1731 -1.0159
  659SOL    MW4 2711   3.349   0.795   1.173  0.2277 -0.5662 -0.7141
  660SOL     OW 2712   3.124   0.923   1.254  0.1881  0.1407 -0.2690
  660SOL    HW2 2713   3.135   0.942   1.347 -1.6219  0.1512 -0.0443
  660SOL    HW3 2714   3.133   1.008   1.211 -0.2567  0.3344  0.0171
  660SOL    MW4 2715   3.127   0.937   1.260 -0.1094  0.1676 -0.2016
  661SOL     OW 2716   3.131   1.145   1.093 -0.2942 -0.2309  0.0499
  661SOL    HW2 2717   3.211   1.178   1.136 -0.2359  0.3264 -0.4793
  661SOL    HW3 2718   3.060   1.195   1.135 -0.3180 -0.3451  0.1450
  661SOL    MW4 2719   3.132   1.156   1.104 -0.2894 -0.1724 -0.0073
  662SOL     OW 2720   3.339   1.235   1.243 -0.4638 -0.0243  0.0629
  662SOL    HW2 2721   3.334   1.242   1.339  0.4958  0.4291  0.0929
  662SOL    HW3 2722   3.345   1.326   1.213 -2.3410 -0.0764 -0.5436
  662SOL    MW4 2723   3.339   1.248   1.252 -0.5851  0.0287 -0.0132
  663SOL     OW 2724   3.383   1.501   1.162 -0.0533 -0.4825  0.4871
  663SOL    HW2 2725   3.452   1.546   1.211  0.0172  0.7269 -0.6959
  663SOL    HW3 2726   3.308   1.559   1.166 -1.0953 -1.9009  1.9433
  663SOL    MW4 2727   3.382   1.514   1.169 -0.1814 -0.5100  0.5230
  664SOL     OW 2728   3.142   1.652   1.198  0.1494 -0.1906 -0.2559
  664SOL    HW2 2729   3.153   1.662   1.293  1.5321  0.6317 -0.4899
  664SOL    HW3 2730   3.126   1.740   1.166 -1.3711 -0.6108 -0.6767
  664SOL    MW4 2731   3.141   1.665   1.206  0.1309 -0.1376 -0.3422
  665SOL     OW 2732   3.134   1.901   1.099  0.3507  0.6523 -0.5174
  665SOL    HW2 2733   3.201   1.956   1.140  0.4193 -0.2244  0.5782
  665SOL    HW3 2734   3.052   1.950   1.111  0.3093  0.2199  1.0499
  665SOL    MW4 2735   3.132   1.915   1.106  0.3543  0.4796 -0.1661
  666SOL     OW 2736   3.364   2.013   1.238 -0.8488  0.4352 -0.5521
  666SOL    HW2 2737   3.434   1.957   1.206  0.1583  1.1166  0.4538
  666SOL    HW3 2738   3.376   2.096   1.192 -0.8199  0.6445 -0.1692
  666SOL    MW4 2739   3.374   2.017   1.228 -0.7119  0.5529 -0.3688
  667SOL     OW 2740   3.375   2.273   1.129  0.4372 -0.3110  0.0377
  667SOL    HW2 2741   3.455   2.312   1.164  0.2376  1.2283 -1.2066
  667SOL    HW3 2742   3.308   2.340   1.140  0.2002 -0.0700 -2.5719
  667SOL    MW4 2743   3.377   2.287   1.135  0.3796 -0.0763 -0.4708
  668SOL     OW 2744   3.158   2.435   1.195  0.1972 -0.0044  0.0380
  668SOL    HW2 2745   3.164   2.442   1.291 -1.7896 -0.2403  0.2052
  668SOL    HW3 2746   3.144   2.525   1.166 -0.9696 -0.1367  0.1423
  668SOL    MW4 2747   3.157   2.448   1.204 -0.2189 -0.0529  0.0738
  669SOL     OW 2748   3.127   2.704   1.111 -0.1524  0.1670  0.7496
  669SOL    HW2 2749   3.037   2.718   1.138 -0.6383 -1.4692  0.0343
  669SOL    HW3 2750   3.121   2.686   1.017  0.9508  0.3707  0.6333
  669SOL    MW4 2751   3.114   2.703   1.102 -0.0710 -0.0222  0.6399
  670SOL     OW 2752   3.374   2.815   1.189 -0.0942  0.8181  0.1077
  670SOL    HW2 2753   3.368   2.908   1.167 -1.6896  1.0730  1.5999
  670SOL    HW3 2754   3.288   2.779   1.167 -0.1923  0.1373  1.5471
  670SOL    MW4 2755   3.362   2.822   1.183 -0.3176  0.7617  0.4945
  671SOL     OW 2756   3.370   3.055   1.065 -0.1116  0.2649 -0.0276
  671SOL    HW2 2757   3.444   3.098   1.107  0.3894  0.2931 -0.9326
  671SOL    HW3 2758   3.298   3.117   1.076  0.1524  0.5164  0.3040
  671SOL    MW4 2759   3.370   3.069   1.072 -0.0107  0.3018 -0.1032
  672SOL     OW 2760   3.141   3.203   1.181  0.0678  0.2750  0.4018
  672SOL    HW2 2761   3.065   3.146   1.165  1.0128 -0.9900  0.3665
  672SOL    HW3 2762   3.153   3.199   1.276  0.1404  0.4220  0.3983
  672SOL    MW4 2763   3.132   3.195   1.192  0.2022  0.1273  0.3966
  673SOL     OW 2764   3.135   3.479   1.096 -0.6580  0.0603 -0.1406
  673SOL    HW2 2765   3.217   3.512   1.134  0.1154  1.2263 -2.7509
  673SOL    HW3 2766   3.132   3.387   1.125  1.7189 -0.0883 -0.2192
  673SOL    MW4 2767   3.145   3.471   1.105 -0.2425  0.1948 -0.4953
  674SOL     OW 2768   3.368   3.582   1.200 -0.0537  0.6737 -0.0419
  674SOL    HW2 2769   3.341   3.576   1.292 -0.3086 -0.1961 -0.1666
  674SOL    HW3 2770   3.444   3.524   1.194 -1.1285 -0.6932 -0.7683
  674SOL    MW4 2771   3.375   3.573   1.212 -0.2291  0.3784 -0.1543
  675SOL     OW 2772   3.326   3.814   1.054 -0.0595  0.0459  0.1111
  675SOL    HW2 2773   3.269   3.860   1.115 -0.1519 -1.3804  1.1266
  675SOL    HW3 2774   3.338   3.727   1.093  0.4664 -0.6428 -1.5338
  675SOL    MW4 2775   3.320   3.809   1.067 -0.0021 -0.2334  0.0280
  676SOL     OW 2776   3.107   3.986   1.177  0.1913 -0.2017 -0.4050
  676SOL    HW2 2777   3.109   4.006   1.271  1.7773 -1.4538 -0.1352
  676SOL    HW3 2778   3.124   4.069   1.134  3.6847 -0.3264  0.5801
  676SOL    MW4 2779   3.110   3.999   1.184  0.8614 -0.3834 -0.2396
  677SOL     OW 2780   3.133   4.270   1.088 -0.7295  0.3794  0.1213
  677SOL    HW2 2781   3.198   4.315   1.141 -1.8117  1.4928  0.5162
  677SOL    HW3 2782   3.143   4.306   1.001 -0.0660 -0.2623 -0.0737
  677SOL    MW4 2783   3.143   4.280   1.084 -0.7849  0.4416  0.1476
  678SOL     OW 2784   3.344   4.397   1.186 -0.2203  0.2257 -0.3169
  678SOL    HW2 2785   3.415   4.363   1.132 -0.1204  0.3581 -0.2696
  678SOL    HW3 2786   3.341   4.491   1.166  0.7346  0.5374  0.9324
  678SOL    MW4 2787   3.353   4.405   1.177 -0.0813  0.2847 -0.1459
  679SOL     OW 2788   3.872   4.662   1.101  0.0163 -0.3529  0.8241
  679SOL    HW2 2789   3.873   4.568   1.116 -0.3646 -0.2375  1.5895
  679SOL    HW3 2790   3.867   4.671   1.006 -0.0012 -1.1019  0.7523
  679SOL    MW4 2791   3.871   4.651   1.090 -0.0362 -0.4363  0.9155
  680SOL     OW 2792   3.612   0.067   1.189  0.1992  0.1332 -0.0852
  680SOL    HW2 2793   3.611   0.162   1.177 -1.2728 -0.0062 -1.1431
  680SOL    HW3 2794   3.698   0.040   1.157  0.0679  0.9492 -1.1789
  680SOL    MW4 2795   3.623   0.076   1.183 -0.0122  0.2225 -0.3691
  681SOL     OW 2796   3.570   0.354   1.136 -0.5673 -0.1934  0.2807
  681SOL    HW2 2797   3.657   0.393   1.141 -0.4652 -0.2542 -0.9938
  681SOL    HW3 2798   3.512   0.419   1.174  0.0879 -0.3310  1.5374
  681SOL    MW4 2799   3.574   0.368   1.142 -0.4675 -0.2195  0.2782
  682SOL     OW 2800   3.822   0.463   1.185  0.3757 -0.1318  0.1665
  682SOL    HW2 2801   3.902   0.422   1.151  0.3239  0.0921 -0.2379
  682SOL    HW3 2802   3.829   0.555   1.157  0.3550  0.0695  0.8113
  682SOL    MW4 2803   3.834   0.470   1.177  0.3662 -0.0757  0.1980
  683SOL     OW 2804   3.847   0.738   1.119  0.0408  0.1680 -0.2874
  683SOL    HW2 2805   3.923   0.793   1.140 -0.4055  0.7058 -0.0726
  683SOL    HW3 2806   3.773   0.783   1.159 -0.5104  0.0637 -1.1793
  683SOL    MW4 2807   3.847   0.751   1.127 -0.0908  0.2252 -0.3767
  684SOL     OW 2808   3.614   0.877   1.172 -0.1989  0.0736 -0.1510
  684SOL    HW2 2809   3.616   0.965   1.135 -1.1128  0.3394  0.4166
  684SOL    HW3 2810   3.521   0.853   1.170 -0.2428  0.0525  1.8836
  684SOL    MW4 2811   3.602   0.886   1.167 -0.3257  0.1059  0.1923
  685SOL     OW 2812   3.543   1.146   1.038 -0.3335  0.2418 -0.0440
  685SOL    HW2 2813   3.614   1.184   1.090 -1.1116  1.1100  0.4051
  685SOL    HW3 2814   3.463   1.168   1.087 -0.7985 -2.3881  0.5091
  685SOL    MW4 2815   3.542   1.154   1.051 -0.4978  0.0094  0.0882
  686SOL     OW 2816   3.769   1.250   1.189 -0.2812  0.2213  0.0973
  686SOL    HW2 2817   3.777   1.250   1.285 -0.2911 -0.0862  0.0989
  686SOL    HW3 2818   3.769   1.342   1.165 -0.8151  0.3150  0.4419
  686SOL    MW4 2819   3.770   1.262   1.199 -0.3529  0.1931  0.1431
  687SOL     OW 2820   3.838   1.528   1.103 -0.7046  0.0918 -0.5918
  687SOL    HW2 2821   3.906   1.587   1.136 -0.4620 -0.9762  0.8299
  687SOL    HW3 2822   3.867   1.506   1.014  0.5203  0.0744 -0.1948
  687SOL    MW4 2823   3.851   1.533   1.095 -0.5109 -0.0515 -0.3518
  688SOL     OW 2824   3.613   1.657   1.263  0.4686  0.2428 -0.0107
  688SOL    HW2 2825   3.603   1.745   1.228  1.2996 -0.3219 -1.7412
  688SOL    HW3 2826   3.693   1.623   1.221  0.1105 -1.3501  0.5407
  688SOL    MW4 2827   3.622   1.664   1.253  0.5310 -0.0418 -0.1663
  689SOL     OW 2828   3.596   1.877   1.129 -0.2633 -0.0876 -0.0115
  689SOL    HW2 2829   3.667   1.939   1.148 -0.2718 -0.0520 -0.0971
  689SOL    HW3 2830   3.596   1.869   1.034 -1.1972  0.8879 -0.1102
  689SOL    MW4 2831   3.605   1.884   1.119 -0.3879  0.0459 -0.0359
  690SOL     OW 2832   3.790   2.064   1.190  0.4171  0.2687  0.3762
  690SOL    HW2 2833   3.798   2.038   1.282 -0.6800 -1.8948 -0.1140
  690SOL    HW3 2834   3.872   2.036   1.149  0.1598 -0.4114  0.3222
  690SOL    MW4 2835   3.802   2.057   1.197  0.2387 -0.1066  0.3045
  691SOL     OW 2836   3.834   2.332   1.161  0.2826 -0.0198  0.5863
  691SOL    HW2 2837   3.910   2.368   1.206 -0.2706  0.6114  1.0205
  691SOL    HW3 2838   3.837   2.238   1.181  1.3191 -0.1226  0.0391
  691SOL    MW4 2839   3.845   2.324   1.170  0.3462  0.0501  0.5714
  692SOL     OW 2840   3.588   2.418   1.235 -0.2865 -0.9430  0.6813
  692SOL    HW2 2841   3.589   2.402   1.329  1.1600 -1.0202  0.6646
  692SOL    HW3 2842   3.670   2.380   1.204 -0.4299 -0.2876 -0.5128
  692SOL    MW4 2843   3.599   2.411   1.243 -0.1144 -0.8667  0.5217
  693SOL     OW 2844   3.609   2.641   1.086 -0.1820 -0.6339 -0.1541
  693SOL    HW2 2845   3.618   2.566   1.146  1.1760  0.6176  1.2634
  693SOL    HW3 2846   3.535   2.690   1.121  1.0681  0.4890  0.9762
  693SOL    MW4 2847   3.600   2.637   1.099  0.1621 -0.3207  0.1822
  694SOL     OW 2848   3.797   2.841   1.156 -0.1094  0.1303 -0.3210
  694SOL    HW2 2849   3.806   2.833   1.251  0.9687 -0.0803 -0.4293
  694SOL    HW3 2850   3.753   2.761   1.129  0.6755 -0.3782 -0.1260
  694SOL    MW4 2851   3.793   2.830   1.165  0.1366  0.0355 -0.3095
  695SOL     OW 2852   3.823   3.081   1.047 -0.1619 -0.0943  0.0853
  695SOL    HW2 2853   3.824   2.988   1.069 -0.8421  0.1462  1.1547
  695SOL    HW3 2854   3.828   3.083   0.951  0.5701 -1.2072  0.0933
  695SOL    MW4 2855   3.824   3.069   1.037 -0.1552 -0.2096  0.2275
  696SOL     OW 2856   3.584   3.190   1.186 -0.2720 -0.2740  0.3381
  696SOL    HW2 2857   3.585   3.280   1.154 -1.1652 -0.7302 -1.0193
  696SOL    HW3 2858   3.654   3.146   1.138 -2.9707 -1.4852 -2.6789
  696SOL    MW4 2859   3.593   3.196   1.176 -0.7463 -0.4940 -0.2390
  697SOL     OW 2860   3.611   3.455   1.117  0.1854  0.2726 -0.1053
  697SOL    HW2 2861   3.665   3.526   1.150 -0.7537  1.2113 -0.5572
  697SOL    HW3 2862   3.618   3.462   1.021 -1.5951  1.0991 -0.1962
  697SOL    MW4 2863   3.619   3.465   1.109 -0.1736  0.5054 -0.1769
  698SOL     OW 2864   3.803   3.625   1.184  0.1420  0.4276  0.7342
  698SOL    HW2 2865   3.790   3.629   1.279  2.4306  2.1977  1.0123
  698SOL    HW3 2866   3.805   3.716   1.156  0.2415 -0.0612 -0.9106
  698SOL    MW4 2867   3.802   3.637   1.193  0.4570  0.5965  0.5537
  699SOL     OW 2868   3.819   3.874   1.101 -0.1553  0.1952 -0.8446
  699SOL    HW2 2869   3.730   3.911   1.099  0.3024  1.2840 -1.4089
  699SOL    HW3 2870   3.842   3.861   1.009  0.1887 -0.2960 -0.6910
  699SOL    MW4 2871   3.810   3.877   1.089 -0.0498  0.2742 -0.8988
  700SOL     OW 2872   3.561   3.958   1.140 -0.2288  0.1907  0.2436
  700SOL    HW2 2873   3.544   3.967   1.234 -0.8722  0.7373  0.0735
  700SOL    HW3 2874   3.494   3.896   1.110 -1.4873  1.7868 -0.2896
  700SOL    MW4 2875   3.550   3.951   1.149 -0.4797  0.4735  0.1509
  701SOL     OW 2876   3.595   4.231   1.086  0.0110 -0.0576 -0.0463
  701SOL    HW2 2877   3.591   4.139   1.109  1.9183 -0.1726 -0.0474
  701SOL    HW3 2878   3.596   4.231   0.990 -0.2426 -0.0266 -0.0482
  701SOL    MW4 2879   3.595   4.219   1.076  0.2289 -0.0691 -0.0467
  702SOL     OW 2880   3.808   4.392   1.150  0.3128  0.0606 -0.3119
  702SOL    HW2 2881   3.802   4.392   1.245 -0.0086  0.4067 -0.3350
  702SOL    HW3 2882   3.739   4.333   1.121 -0.5878  1.1337 -0.3975
  702SOL    MW4 2883   3.798   4.384   1.159  0.1516  0.2475 -0.3263
  703SOL     OW 2884   4.314   4.640   1.151 -0.6175 -0.2478 -0.0710
  703SOL    HW2 2885   4.295   4.548   1.167 -0.2265 -0.0814  1.3694
  703SOL    HW3 2886   4.230   4.685   1.161 -0.9901 -0.5346 -1.6554
  703SOL    MW4 2887   4.301   4.634   1.154 -0.6146 -0.2637 -0.0900
  704SOL     OW 2888   4.096   0.110   1.198  0.1278  0.0779 -0.8483
  704SOL    HW2 2889   4.085   0.103   1.292  0.0475  1.6895 -0.7198
  704SOL    HW3 2890   4.018   0.069   1.161  0.8320 -1.8511 -0.2627
  704SOL    MW4 2891   4.085   0.104   1.205  0.2103  0.0360 -0.7542
  705SOL     OW 2892   4.080   0.371   1.129  0.5282 -0.0978 -0.2155
  705SOL    HW2 2893   4.080   0.281   1.162 -0.5382  0.0170  0.1186
  705SOL    HW3 2894   4.079   0.362   1.034 -0.3885 -0.4492 -0.1776
  705SOL    MW4 2895   4.080   0.358   1.121  0.2661 -0.1290 -0.1663
  706SOL     OW 2896   4.269   0.522   1.224  0.1135 -0.5441  0.1002
  706SOL    HW2 2897   4.266   0.510   1.319 -0.3553 -1.1790  0.0111
  706SOL    HW3 2898   4.195   0.469   1.191 -0.4518  0.6157 -0.5221
  706SOL    MW4 2899   4.258   0.513   1.232 -0.0229 -0.4749  0.0062
  707SOL     OW 2900   4.308   0.782   1.101  0.1709 -0.6495 -0.1110
  707SOL    HW2 2901   4.292   0.699   1.146  0.9489 -1.0952 -0.6311
  707SOL    HW3 2902   4.279   0.766   1.011  0.4812 -0.4183 -0.2544
  707SOL    MW4 2903   4.302   0.769   1.095  0.3147 -0.6778 -0.1987
  708SOL     OW 2904   4.074   0.884   1.198 -0.1222 -0.0809  0.6808
  708SOL    HW2 2905   4.077   0.906   1.291  0.7005 -0.6618  0.7982
  708SOL    HW3 2906   4.163   0.853   1.177 -0.1604  0.5185 -0.4143
  708SOL    MW4 2907   4.086   0.883   1.207 -0.0186 -0.0785  0.5518
  709SOL     OW 2908   4.013   1.166   1.092 -0.0118 -0.2045 -0.1580
  709SOL    HW2 2909   4.022   1.079   1.131  0.4453  0.0966  0.3958
  709SOL    HW3 2910   3.936   1.204   1.135  0.5918  0.1934  0.5807
  709SOL    MW4 2911   4.004   1.159   1.103  0.1278 -0.1123  0.0125
  710SOL     OW 2912   4.246   1.272   1.203  0.2021 -0.8504 -0.2556
  710SOL    HW2 2913   4.216   1.286   1.293  0.8661 -0.8010 -0.0425
  710SOL    HW3 2914   4.165   1.258   1.153 -0.3918  2.1584 -0.2129
  710SOL    MW4 2915   4.231   1.272   1.208  0.2112 -0.4472 -0.2217
  711SOL     OW 2916   4.272   1.562   1.143  0.0434  0.2152  0.0089
  711SOL    HW2 2917   4.255   1.477   1.183 -1.2920  0.0698 -0.8492
  711SOL    HW3 2918   4.353   1.592   1.185 -0.7796 -0.3783  2.0805
  711SOL    MW4 2919   4.280   1.555   1.153 -0.2418  0.1177  0.1689
  712SOL     OW 2920   4.058   1.710   1.223  0.1707 -0.2338 -0.1804
  712SOL    HW2 2921   4.062   1.695   1.317 -1.1970  0.9171  0.0848
  712SOL    HW3 2922   4.137   1.669   1.188  0.9660 -0.1939  1.5264
  712SOL    MW4 2923   4.069   1.703   1.231  0.0958 -0.0767  0.0796
  713SOL     OW 2924   4.045   1.966   1.132  0.4400 -0.5594  0.0241
  713SOL    HW2 2925   4.046   1.879   1.171  0.1452 -0.5907 -0.0338
  713SOL    HW3 2926   4.087   1.954   1.046 -1.3779 -1.0561 -0.8144
  713SOL    MW4 2927   4.051   1.953   1.126  0.1612 -0.6291 -0.0942
  714SOL     OW 2928   4.293   2.060   1.235  0.0217 -0.3296  0.3376
  714SOL    HW2 2929   4.287   2.152   1.208  0.7483 -0.5939 -0.7713
  714SOL    HW3 2930   4.204   2.027   1.223 -0.4391  0.4434  1.5655
  714SOL    MW4 2931   4.280   2.068   1.230  0.0567 -0.2623  0.3532
  715SOL     OW 2932   4.280   2.348   1.123 -0.4858 -0.1042 -0.0919
  715SOL    HW2 2933   4.196   2.383   1.154  0.6483  1.7223  1.0317
  715SOL    HW3 2934   4.266   2.331   1.030 -1.9941  0.5578 -0.0084
  715SOL    MW4 2935   4.267   2.351   1.115 -0.5350  0.2239  0.0674
  716SOL     OW 2936   4.065   2.501   1.223  0.0315 -0.0713  0.2440
  716SOL    HW2 2937   4.086   2.510   1.316  0.2958  0.4159  0.1437
  716SOL    HW3 2938   4.058   2.592   1.192 -0.9500 -0.2266 -0.0135
  716SOL    MW4 2939   4.067   2.514   1.231 -0.0634 -0.0274  0.1968
  717SOL     OW 2940   4.054   2.745   1.074 -0.1131 -0.2412 -0.2624
  717SOL    HW2 2941   3.971   2.784   1.103  0.0277 -0.5081  0.5108
  717SOL    HW3 2942   4.044   2.737   0.979 -0.7290  0.3012 -0.2522
  717SOL    MW4 2943   4.042   2.749   1.065 -0.1760 -0.2048 -0.1590
  718SOL     OW 2944   4.282   2.874   1.175 -0.1426 -0.1923  0.5121
  718SOL    HW2 2945   4.275   2.962   1.137  0.7026 -0.4041 -0.1370
  718SOL    HW3 2946   4.212   2.824   1.134  0.6397 -0.3666 -0.6285
  718SOL    MW4 2947   4.272   2.879   1.165  0.0725 -0.2432  0.2760
  719SOL     OW 2948   4.284   3.128   1.056  0.1295 -0.0171  0.1018
  719SOL    HW2 2949   4.208   3.167   1.100  0.7103  0.2893  0.8526
  719SOL    HW3 2950   4.261   3.129   0.963  0.3089  2.5355  0.0455
  719SOL    MW4 2951   4.271   3.133   1.050  0.2294  0.3603  0.1934
  720SOL     OW 2952   4.024   3.228   1.178  0.0550  0.2661  0.0834
  720SOL    HW2 2953   4.009   3.210   1.271 -0.6103  1.1862  0.1530
  720SOL    HW3 2954   3.952   3.183   1.134  0.9579 -1.0669 -0.0811
  720SOL    MW4 2955   4.013   3.220   1.185  0.0863  0.2112  0.0708
  721SOL     OW 2956   4.009   3.498   1.061 -0.2505  0.0391 -0.2099
  721SOL    HW2 2957   4.013   3.407   1.088  1.0523  0.0161 -0.4649
  721SOL    HW3 2958   3.927   3.531   1.098 -0.6540 -1.1888 -0.0040
  721SOL    MW4 2959   3.998   3.491   1.069 -0.1316 -0.1259 -0.2165
  722SOL     OW 2960   4.235   3.546   1.222 -0.0998 -0.1542  0.7745
  722SOL    HW2 2961   4.160   3.542   1.163  0.0297 -0.6696  0.6424
  722SOL    HW3 2962   4.310   3.522   1.167  0.4481  2.2053  0.4252
  722SOL    MW4 2963   4.235   3.542   1.207 -0.0105  0.0892  0.7110
  723SOL     OW 2964   4.269   3.813   1.132  0.6042 -0.4294 -0.0776
  723SOL    HW2 2965   4.197   3.867   1.164  0.0880  0.4738 -2.6638
  723SOL    HW3 2966   4.252   3.726   1.169 -1.4375 -0.0567 -0.1067
  723SOL    MW4 2967   4.258   3.809   1.141  0.2666 -0.2613 -0.4228
  724SOL     OW 2968   4.056   3.988   1.195  0.1388 -0.0139 -0.1896
  724SOL    HW2 2969   4.048   4.082   1.178  0.5422  0.2947  1.2454
  724SOL    HW3 2970   3.982   3.949   1.149  0.0394  0.9983 -0.9010
  724SOL    MW4 2971   4.045   3.995   1.187  0.1788  0.1602 -0.0941
  725SOL     OW 2972   4.038   4.265   1.116  0.5322  0.3317 -0.1749
  725SOL    HW2 2973   3.959   4.319   1.125  0.5670  0.2941  0.3548
  725SOL    HW3 2974   4.047   4.252   1.021 -0.3034  0.0335 -0.2186
  725SOL    MW4 2975   4.028   4.271   1.105  0.4263  0.2875 -0.1109
  726SOL     OW 2976   4.290   4.347   1.210  0.2936  0.2031 -0.5132
  726SOL    HW2 2977   4.208   4.309   1.179  1.0128 -1.5203 -0.4073
  726SOL    HW3 2978   4.357   4.305   1.155  1.1465  1.1369 -0.1980
  726SOL    MW4 2979   4.288   4.336   1.199  0.5012  0.0987 -0.4578
  727SOL     OW 2980   0.233   4.658   1.616  0.0472 -0.0064  0.2302
  727SOL    HW2 2981   0.309   4.690   1.566 -0.3496 -1.1847 -1.1756
  727SOL    HW3 2982   0.160   4.709   1.582 -0.1558 -0.5204 -0.1160
  727SOL    MW4 2983   0.234   4.669   1.605 -0.0320 -0.2298 -0.0010
  728SOL     OW 2984   0.019   0.135   1.532  0.3088  0.4630  0.3622
  728SOL    HW2 2985  -0.053   0.077   1.559  1.0173 -1.0633 -0.9441
  728SOL    HW3 2986   0.017   0.133   1.437  1.3201  1.3903  0.3135
  728SOL    MW4 2987   0.009   0.127   1.523  0.5355  0.3839  0.1835
  729SOL     OW 2988   0.026   0.390   1.614  0.5191 -0.0109  0.2057
  729SOL    HW2 2989   0.036   0.390   1.709 -2.4238  1.3695  0.5937
  729SOL    HW3 2990   0.023   0.298   1.590 -0.7535 -0.4073  1.7525
  729SOL    MW4 2991   0.027   0.378   1.623 -0.0371  0.1190  0.4610
  730SOL     OW 2992   0.252   0.482   1.498 -0.5220  0.6224 -0.1114
  730SOL    HW2 2993   0.168   0.447   1.527 -0.9150  1.4814 -0.1842
  730SOL    HW3 2994   0.250   0.475   1.402  1.0549 -2.8468  0.0236
  730SOL    MW4 2995   0.241   0.477   1.489 -0.3658  0.2780 -0.1031
  731SOL     OW 2996   0.218   0.742   1.568 -0.1364  0.1375  0.3885
  731SOL    HW2 2997   0.296   0.782   1.531 -0.9287  0.7598 -0.6531
  731SOL    HW3 2998   0.226   0.649   1.548 -0.5096  0.4482 -1.3228
  731SOL    MW4 2999   0.229   0.735   1.561 -0.2902  0.2606  0.0254
  732SOL     OW 3000   4.483   0.877   1.519 -0.2575 -0.2066  0.2111
  732SOL    HW2 3001   4.498   0.961   1.562 -1.0019 -0.5242  1.1040
  732SOL    HW3 3002   4.567   0.831   1.524 -0.1313  0.0691  0.6371
  732SOL    MW4 3003   4.496   0.882   1.525 -0.3390 -0.2121  0.3853
  733SOL     OW 3004   4.453   1.149   1.591 -0.0395  0.3019 -0.1082
  733SOL    HW2 3005   4.470   1.150   1.685  1.9041 -2.6202 -0.3835
  733SOL    HW3 3006   4.533   1.185   1.552 -0.6195  0.9770 -0.6866
  733SOL    MW4 3007   4.466   1.154   1.598  0.1407  0.0055 -0.2208
  734SOL     OW 3008   0.214   1.256   1.526 -0.0526  0.4546  0.3512
  734SOL    HW2 3009   0.214   1.350   1.540  0.3425  0.9261 -2.3978
  734SOL    HW3 3010   0.232   1.246   1.432  0.6191 -2.3726  0.7345
  734SOL    MW4 3011   0.216   1.267   1.515  0.0882  0.1438  0.0390
  735SOL     OW 3012   0.254   1.511   1.589 -0.2394 -0.3811  0.1845
  735SOL    HW2 3013   0.268   1.519   1.683 -1.1738 -1.5388  0.4378
  735SOL    HW3 3014   0.173   1.561   1.573 -0.1598 -0.3055  0.0170
  735SOL    MW4 3015   0.245   1.519   1.599 -0.3522 -0.5239  0.1957
  736SOL     OW 3016   0.027   1.661   1.507 -0.0175  0.2734  0.0306
  736SOL    HW2 3017   0.036   1.753   1.532  0.8892  0.6318 -1.5267
  736SOL    HW3 3018   0.030   1.662   1.411 -1.1899 -1.2635 -0.0480
  736SOL    MW4 3019   0.028   1.673   1.497 -0.0526  0.1178 -0.1853
  737SOL     OW 3020   0.015   1.937   1.604 -0.2939 -0.1564  0.2590
  737SOL    HW2 3021   0.022   1.910   1.696  0.3426  0.0019  0.2618
  737SOL    HW3 3022  -0.071   1.977   1.597 -0.4333 -0.3648  0.7366
  737SOL    MW4 3023   0.005   1.938   1.615 -0.2284 -0.1630  0.3225
  738SOL     OW 3024   0.224   2.090   1.494 -0.0248 -0.3080  0.0043
  738SOL    HW2 3025   0.148   2.042   1.528 -0.0587 -1.5892 -1.8526
  738SOL    HW3 3026   0.210   2.095   1.400  1.4648  0.7596 -0.1806
  738SOL    MW4 3027   0.212   2.084   1.486  0.1672 -0.3362 -0.2652
  739SOL     OW 3028   0.211   2.353   1.593  0.1432  0.0073  0.0192
  739SOL    HW2 3029   0.211   2.352   1.689  0.6502 -0.3608  0.0177
  739SOL    HW3 3030   0.217   2.261   1.569  0.1463  0.1092 -0.3652
  739SOL    MW4 3031   0.212   2.341   1.603  0.2106 -0.0277 -0.0317
  740SOL     OW 3032   4.478   2.485   1.501  0.3664 -0.4321  0.1696
  740SOL    HW2 3033   4.411   2.428   1.540  0.4621 -1.0216 -0.5095
  740SOL    HW3 3034   4.560   2.441   1.522  0.6537  1.0112  2.1978
  740SOL    MW4 3035   4.480   2.472   1.509  0.4163 -0.3195  0.3475
  741SOL     OW 3036   4.486   2.737   1.590 -0.4649 -0.1268  0.5248
  741SOL    HW2 3037   4.404   2.765   1.549  0.2719  0.7604 -0.3668
  741SOL    HW3 3038   4.494   2.645   1.566 -0.2078  0.2985 -1.0757
  741SOL    MW4 3039   4.476   2.729   1.581 -0.3343  0.0460  0.1962
  742SOL     OW 3040   0.230   2.858   1.475 -0.0446  0.1577 -0.3283
  742SOL    HW2 3041   0.312   2.818   1.504 -0.3082 -0.6818 -0.7419
  742SOL    HW3 3042   0.163   2.818   1.530 -0.0335  1.8400  0.9403
  742SOL    MW4 3043   0.232   2.848   1.486 -0.0779  0.2689 -0.2155
  743SOL     OW 3044   0.181   3.108   1.587 -0.6257  0.0574  0.5430
  743SOL    HW2 3045   0.108   3.154   1.545  1.2322  2.1338 -0.4643
  743SOL    HW3 3046   0.184   3.023   1.542 -0.9554  0.8433 -0.9868
  743SOL    MW4 3047   0.171   3.103   1.575 -0.4241  0.4351  0.2084
  744SOL     OW 3048   4.461   3.242   1.470 -0.6363  0.5360  0.0369
  744SOL    HW2 3049   4.473   3.332   1.501 -1.9112  1.0193 -0.8140
  744SOL    HW3 3050   4.469   3.248   1.375  0.9191 -0.5408  0.0809
  744SOL    MW4 3051   4.464   3.255   1.462 -0.5993  0.4578 -0.0695
  745SOL     OW 3052   4.456   3.483   1.592 -0.0373  0.2190 -0.2198
  745SOL    HW2 3053   4.433   3.475   1.685  0.6786  1.7388  0.1086
  745SOL    HW3 3054   4.376   3.515   1.551  0.4139  2.1018  0.3308
  745SOL    MW4 3055   4.443   3.486   1.599  0.1168  0.6680 -0.1037
  746SOL     OW 3056   0.200   3.605   1.513 -1.0375 -0.0539 -0.4274
  746SOL    HW2 3057   0.199   3.689   1.558  0.2824 -0.3213  0.1227
  746SOL    HW3 3058   0.130   3.554   1.556 -1.0188  0.3354  0.0696
  746SOL    MW4 3059   0.190   3.609   1.525 -0.8609 -0.0379 -0.2892
  747SOL     OW 3060   0.166   3.860   1.615 -0.1048 -0.1197  0.0006
  747SOL    HW2 3061   0.169   3.852   1.710 -1.0436  2.3825  0.2859
  747SOL    HW3 3062   0.249   3.901   1.592  0.2570 -1.0186 -0.2899
  747SOL    MW4 3063   0.177   3.864   1.625 -0.1809  0.0920  0.0000
  748SOL     OW 3064   4.444   3.983   1.490  0.3841  0.5970 -0.3544
  748SOL    HW2 3065   4.441   4.071   1.527  0.0146  0.6681 -0.5554
  748SOL    HW3 3066   4.528   3.947   1.520 -0.3493  0.2769  1.3959
  748SOL    MW4 3067   4.455   3.990   1.499  0.2384  0.5643 -0.1501
  749SOL     OW 3068   4.470   4.241   1.599 -0.3649  0.2878  0.5053
  749SOL    HW2 3069   4.472   4.234   1.695 -0.5684 -0.7809  0.4337
  749SOL    HW3 3070   4.387   4.284   1.580  0.2911  1.7656  0.8747
  749SOL    MW4 3071   4.459   4.246   1.609 -0.3052  0.3414  0.5447
  750SOL     OW 3072   0.208   4.397   1.494  0.3826  0.0381  0.2354
  750SOL    HW2 3073   0.133   4.345   1.525  1.4133 -1.4686  0.2180
  750SOL    HW3 3074   0.209   4.473   1.553  0.4485 -1.2631  1.9522
  750SOL    MW4 3075   0.198   4.401   1.506  0.5273 -0.3319  0.4596
  751SOL     OW 3076   0.716   4.629   1.598  0.0282  0.2793  0.3576
  751SOL    HW2 3077   0.780   4.690   1.562  0.4714 -0.0053  0.6491
  751SOL    HW3 3078   0.631   4.672   1.585  0.2616  0.5780 -0.1926
  751SOL    MW4 3079   0.713   4.643   1.592  0.1174  0.2818  0.3237
  752SOL     OW 3080   0.475   0.098   1.500 -0.4016 -0.8384  0.3950
  752SOL    HW2 3081   0.465   0.186   1.537 -2.6918 -0.6937 -0.4893
  752SOL    HW3 3082   0.462   0.109   1.406  1.7619 -1.7764 -0.0608
  752SOL    MW4 3083   0.472   0.111   1.493 -0.4183 -0.9431  0.2182
  753SOL     OW 3084   0.454   0.342   1.624  0.0898 -0.2112  0.1083
  753SOL    HW2 3085   0.533   0.389   1.598  0.1931  0.8045  2.1267
  753SOL    HW3 3086   0.383   0.387   1.577  0.6447 -0.7336 -1.2253
  753SOL    MW4 3087   0.455   0.354   1.615  0.1767 -0.1461  0.1987
  754SOL     OW 3088   0.680   0.472   1.529 -0.3799 -0.9139  0.5692
  754SOL    HW2 3089   0.663   0.565   1.545  0.8655 -0.7746  1.1191
  754SOL    HW3 3090   0.669   0.462   1.434  2.3547  0.4398  0.0613
  754SOL    MW4 3091   0.676   0.483   1.518  0.1452 -0.7169  0.5748
  755SOL     OW 3092   0.640   0.745   1.584 -0.1357 -0.1272 -0.1176
  755SOL    HW2 3093   0.634   0.738   1.679 -1.1657  1.5849 -0.0456
  755SOL    HW3 3094   0.717   0.800   1.568 -0.0287 -0.3202 -0.2787
  755SOL    MW4 3095   0.649   0.751   1.594 -0.2574  0.0732 -0.1292
  756SOL     OW 3096   0.438   0.856   1.434 -0.2546 -0.3005 -0.3987
  756SOL    HW2 3097   0.427   0.938   1.481 -0.7684 -0.1338 -0.8015
  756SOL    HW3 3098   0.518   0.818   1.470  0.7428  1.0174 -1.1815
  756SOL    MW4 3099   0.447   0.862   1.445 -0.1908 -0.1045 -0.5552
  757SOL     OW 3100   0.446   1.079   1.601 -0.3949 -0.5183 -0.1182
  757SOL    HW2 3101   0.513   1.131   1.556  0.4366 -1.3249  0.1500
  757SOL    HW3 3102   0.364   1.124   1.583  0.4094  1.4156  0.8952
  757SOL    MW4 3103   0.444   1.091   1.593 -0.1791 -0.3697  0.0509
  758SOL     OW 3104   0.633   1.258   1.503 -0.3700 -0.2550  0.1158
  758SOL    HW2 3105   0.634   1.350   1.528 -0.1934  0.2448 -1.6865
  758SOL    HW3 3106   0.657   1.257   1.411 -1.2097 -2.0384 -0.1173
  758SOL    MW4 3107   0.636   1.270   1.494 -0.4575 -0.4244 -0.1527
  759SOL     OW 3108   0.687   1.506   1.614 -0.5754  0.2841  0.2170
  759SOL    HW2 3109   0.768   1.548   1.586  0.1695 -1.6785 -0.6699
  759SOL    HW3 3110   0.617   1.565   1.586  0.4412  0.9777 -0.8769
  759SOL    MW4 3111   0.688   1.519   1.607 -0.3430  0.1167 -0.0443
  760SOL     OW 3112   0.471   1.661   1.500  0.1349 -0.2368  0.0901
  760SOL    HW2 3113   0.456   1.745   1.544  1.6643  0.0240  0.1554
  760SOL    HW3 3114   0.402   1.604   1.533 -1.3311  1.1774 -0.4686
  760SOL    MW4 3115   0.460   1.664   1.510  0.1432 -0.0157  0.0249
  761SOL     OW 3116   0.416   1.916   1.588  0.0774  0.4822 -0.4367
  761SOL    HW2 3117   0.412   1.915   1.684  1.8621  0.6885 -0.3564
  761SOL    HW3 3118   0.348   1.978   1.562 -0.3832  0.4645  0.7000
  761SOL    MW4 3119   0.406   1.924   1.597  0.2521  0.5072 -0.2761
  762SOL     OW 3120   0.648   2.057   1.488  0.1298 -0.5984 -0.0697
  762SOL    HW2 3121   0.718   2.018   1.539 -0.2231  0.7085  1.4720
  762SOL    HW3 3122   0.569   2.011   1.517  0.0091 -0.2574  0.1487
  762SOL    MW4 3123   0.646   2.046   1.499  0.0674 -0.3812  0.1625
  763SOL     OW 3124   0.688   2.310   1.591 -0.5879  0.0692  0.3138
  763SOL    HW2 3125   0.609   2.359   1.568 -0.2037  0.4645 -0.1606
  763SOL    HW3 3126   0.684   2.231   1.537  0.9432  1.5808 -2.0505
  763SOL    MW4 3127   0.677   2.306   1.581 -0.3352  0.3207 -0.0607
  764SOL     OW 3128   0.442   2.431   1.483  0.4818 -0.4036  0.1666
  764SOL    HW2 3129   0.426   2.521   1.511  1.0033  0.0543 -0.9732
  764SOL    HW3 3130   0.365   2.382   1.512 -0.1011  0.5373  0.2277
  764SOL    MW4 3131   0.430   2.436   1.490  0.4736 -0.2189  0.0244
  765SOL     OW 3132   0.414   2.706   1.615  0.3557 -0.2363  0.1650
  765SOL    HW2 3133   0.417   2.710   1.711 -0.6111 -0.0107  0.1868
  765SOL    HW3 3134   0.493   2.751   1.587  0.8122 -0.5852  0.8675
  765SOL    MW4 3135   0.425   2.712   1.624  0.2884 -0.2525  0.2606
  766SOL     OW 3136   0.636   2.839   1.511  0.0506  0.1170 -0.1547
  766SOL    HW2 3137   0.626   2.931   1.533 -1.8025  0.1235 -0.9353
  766SOL    HW3 3138   0.656   2.838   1.418 -0.5652 -0.3039 -0.2847
  766SOL    MW4 3139   0.637   2.851   1.502 -0.2751  0.0622 -0.2749
  767SOL     OW 3140   0.619   3.096   1.566 -0.0146 -0.4772  0.5175
  767SOL    HW2 3141   0.689   3.154   1.536 -0.0057 -0.8273 -0.1426
  767SOL    HW3 3142   0.539   3.137   1.534 -0.0170 -0.7644  0.1554
  767SOL    MW4 3143   0.618   3.109   1.558 -0.0136 -0.5612  0.3825
  768SOL     OW 3144   0.405   3.235   1.492 -0.0174  0.0232 -0.2324
  768SOL    HW2 3145   0.333   3.184   1.529  1.2917 -1.4710  0.3046
  768SOL    HW3 3146   0.401   3.219   1.398 -2.2480  2.3948 -0.5807
  768SOL    MW4 3147   0.395   3.226   1.484 -0.1390  0.1390 -0.2075
  769SOL     OW 3148   0.424   3.483   1.604  0.4085 -0.6282 -0.3329
  769SOL    HW2 3149   0.422   3.393   1.574  0.0904 -0.8523  0.3541
  769SOL    HW3 3150   0.344   3.522   1.568 -0.3936 -1.1172  0.8910
  769SOL    MW4 3151   0.413   3.477   1.595  0.2607 -0.7222 -0.0808
  770SOL     OW 3152   0.647   3.593   1.487 -0.1807 -0.7388 -0.3024
  770SOL    HW2 3153   0.710   3.571   1.555 -0.7133 -2.3178 -0.2814
  770SOL    HW3 3154   0.562   3.570   1.525 -0.5044 -1.3622 -1.3849
  770SOL    MW4 3155   0.644   3.587   1.501 -0.2937 -1.0293 -0.4424
  771SOL     OW 3156   0.678   3.878   1.584 -0.2900  0.1209 -0.0292
  771SOL    HW2 3157   0.759   3.913   1.549  0.8634 -1.9638  0.4722
  771SOL    HW3 3158   0.671   3.791   1.544 -2.4052  0.3618 -0.2575
  771SOL    MW4 3159   0.687   3.871   1.574 -0.4169 -0.1223  0.0069
  772SOL     OW 3160   0.421   3.963   1.509  0.1270  0.2998 -0.1058
  772SOL    HW2 3161   0.505   3.951   1.553  0.8556  0.4069 -1.4578
  772SOL    HW3 3162   0.441   3.961   1.416 -1.6179 -1.4527 -0.4864
  772SOL    MW4 3163   0.434   3.962   1.503 -0.0071  0.0825 -0.3344
  773SOL     OW 3164   0.419   4.240   1.602  0.3232  0.8439  0.0792
  773SOL    HW2 3165   0.404   4.148   1.581  0.7728  0.5525  1.0235
  773SOL    HW3 3166   0.343   4.285   1.567  0.7042  0.2849 -1.5451
  773SOL    MW4 3167   0.407   4.234   1.594  0.4328  0.7315 -0.0107
  774SOL     OW 3168   0.678   4.389   1.490  0.4921  0.2804  0.0404
  774SOL    HW2 3169   0.589   4.359   1.512  1.4050 -2.3031  0.2752
  774SOL    HW3 3170   0.686   4.473   1.536 -1.7173  0.4097  0.2487
  774SOL    MW4 3171   0.667   4.396   1.499  0.3210 -0.0434  0.0989
  775SOL     OW 3172   1.130   4.617   1.574  0.1279  0.3297  0.1517
  775SOL    HW2 3173   1.114   4.629   1.667  2.1085 -2.5628  0.9517
  775SOL    HW3 3174   1.206   4.672   1.555  0.7369 -0.3450  0.6283
  775SOL    MW4 3175   1.138   4.626   1.584  0.4694 -0.1407  0.3202
  776SOL     OW 3176   0.931   0.088   1.441 -0.3550  0.1519  0.1634
  776SOL    HW2 3177   0.950   0.166   1.493  1.2329  1.3461 -2.1286
  776SOL    HW3 3178   0.998   0.024   1.466 -0.5012  0.1959  0.6586
  776SOL    MW4 3179   0.942   0.090   1.451 -0.1648  0.3153 -0.0737
  777SOL     OW 3180   0.926   0.333   1.577 -0.1125 -0.4778  0.1857
  777SOL    HW2 3181   0.932   0.315   1.671 -0.1629 -1.9308 -0.0750
  777SOL    HW3 3182   0.849   0.388   1.568 -0.9657 -1.5526  0.8335
  777SOL    MW4 3183   0.917   0.338   1.588 -0.2317 -0.8113  0.2367
  778SOL     OW 3184   1.106   0.510   1.465  0.1022 -0.5416 -0.4680
  778SOL    HW2 3185   1.098   0.592   1.514  0.9107 -0.0170 -1.1925
  778SOL    HW3 3186   1.039   0.453   1.503  0.1935  0.1147  0.7118
  778SOL    MW4 3187   1.096   0.513   1.476  0.2209 -0.3858 -0.4079
  779SOL     OW 3188   1.106   0.760   1.601 -0.3746  0.6094 -0.0602
  779SOL    HW2 3189   1.121   0.762   1.695 -0.9679  0.2755  0.0461
  779SOL    HW3 3190   1.184   0.799   1.563 -0.5977  1.7267  0.6239
  779SOL    MW4 3191   1.118   0.765   1.608 -0.4824  0.7127  0.0441
  780SOL     OW 3192   0.872   0.883   1.511 -0.3784  0.6327  0.0283
  780SOL    HW2 3193   0.950   0.842   1.547  0.4498  2.1964  0.0599
  780SOL    HW3 3194   0.886   0.882   1.416  0.0087  1.5430  0.0726
  780SOL    MW4 3195   0.884   0.878   1.503 -0.2181  0.9592  0.0383
  781SOL     OW 3196   0.866   1.137   1.604 -0.6582  0.0731 -0.0397
  781SOL    HW2 3197   0.865   1.052   1.561  1.1641  0.3924 -0.7841
  781SOL    HW3 3198   0.789   1.182   1.570 -1.5347 -1.1860  0.2202
  781SOL    MW4 3199   0.856   1.132   1.594 -0.5333 -0.0509 -0.1035
  782SOL     OW 3200   1.063   1.291   1.485 -0.0708  0.2652  0.0068
  782SOL    HW2 3201   1.147   1.250   1.507 -0.2030  0.1812  0.3452
  782SOL    HW3 3202   0.997   1.236   1.527 -0.2112  1.2386  1.0608
  782SOL    MW4 3203   1.065   1.278   1.493 -0.1069  0.3824  0.1905
  783SOL     OW 3204   1.141   1.539   1.588 -0.3072  0.5519 -0.6968
  783SOL    HW2 3205   1.226   1.556   1.546  0.8210 -1.9126  0.5327
  783SOL    HW3 3206   1.118   1.450   1.563 -2.0491  0.8131 -0.1338
  783SOL    MW4 3207   1.149   1.530   1.579 -0.3881  0.2612 -0.4604
  784SOL     OW 3208   0.908   1.681   1.521  0.3713 -0.2542 -0.4029
  784SOL    HW2 3209   0.989   1.639   1.548  0.3504 -0.9560 -1.4121
  784SOL    HW3 3210   0.908   1.675   1.425  0.0760  1.5120 -0.5197
  784SOL    MW4 3211   0.918   1.674   1.512  0.3296 -0.1138 -0.5515
  785SOL     OW 3212   0.888   1.949   1.592  0.0795  0.1941 -0.1143
  785SOL    HW2 3213   0.954   1.994   1.540 -0.7881 -0.3510 -1.7377
  785SOL    HW3 3214   0.899   1.856   1.570 -1.1045  0.0802 -0.2771
  785SOL    MW4 3215   0.898   1.943   1.582 -0.1913  0.1072 -0.3500
  786SOL     OW 3216   1.088   2.083   1.446 -0.2125 -0.3407 -0.3108
  786SOL    HW2 3217   1.168   2.038   1.475  0.5938  0.2535 -1.5346
  786SOL    HW3 3218   1.092   2.168   1.489 -1.7297 -1.4044  1.9923
  786SOL    MW4 3219   1.099   2.088   1.455 -0.3064 -0.4029 -0.1684
  787SOL     OW 3220   1.106   2.327   1.588 -0.3270  0.2790  0.4243
  787SOL    HW2 3221   1.181   2.368   1.547 -0.0259 -1.3791 -0.7429
  787SOL    HW3 3222   1.031   2.380   1.560 -0.2846 -1.5299 -3.3884
  787SOL    MW4 3223   1.106   2.339   1.579 -0.2816 -0.1783 -0.2327
  788SOL     OW 3224   0.880   2.467   1.490  0.2323 -0.6178  0.3001
  788SOL    HW2 3225   0.881   2.553   1.532  0.2422 -0.4036 -0.1294
  788SOL    HW3 3226   0.822   2.414   1.544 -0.0790 -0.2275  0.3480
  788SOL    MW4 3227   0.873   2.471   1.502  0.1926 -0.5379  0.2497
  789SOL     OW 3228   0.864   2.725   1.611  0.1361  0.5469  0.4179
  789SOL    HW2 3229   0.873   2.725   1.706 -0.1912  0.9753  0.4519
  789SOL    HW3 3230   0.776   2.758   1.595 -0.1350 -0.3758 -0.0136
  789SOL    MW4 3231   0.854   2.730   1.621  0.0572  0.4816  0.3655
  790SOL     OW 3232   1.088   2.835   1.487  0.2366  0.5531 -0.5177
  790SOL    HW2 3233   1.089   2.930   1.502  0.2816  0.3387  0.8746
  790SOL    HW3 3234   1.006   2.806   1.527  0.4717 -0.0770 -0.4967
  790SOL    MW4 3235   1.077   2.844   1.494  0.2736  0.4418 -0.3313
  791SOL     OW 3236   1.074   3.104   1.543 -0.1873 -0.4113  0.1044
  791SOL    HW2 3237   1.056   3.115   1.637 -0.2618  1.0271 -0.0579
  791SOL    HW3 3238   1.159   3.146   1.530  0.6157 -2.1082 -0.1744
  791SOL    MW4 3239   1.083   3.111   1.554 -0.0911 -0.4456  0.0461
  792SOL     OW 3240   0.841   3.245   1.482 -0.1203  0.0185  0.0760
  792SOL    HW2 3241   0.921   3.203   1.514 -0.5681  0.0266  1.2261
  792SOL    HW3 3242   0.852   3.249   1.387  0.3713 -1.7567  0.0540
  792SOL    MW4 3243   0.853   3.240   1.474 -0.1144 -0.2146  0.2247
  793SOL     OW 3244   0.855   3.495   1.632 -0.1228  0.1089 -0.0085
  793SOL    HW2 3245   0.919   3.550   1.587 -0.7756  0.3944 -0.5977
  793SOL    HW3 3246   0.854   3.414   1.581 -0.3763  0.1803 -0.1169
  793SOL    MW4 3247   0.864   3.491   1.619 -0.2424  0.1557 -0.1004
  794SOL     OW 3248   1.049   3.653   1.522 -0.3536  0.1701 -0.4141
  794SOL    HW2 3249   1.133   3.613   1.547 -0.0398  0.5103 -0.9178
  794SOL    HW3 3250   1.047   3.736   1.569 -0.6959 -0.1270  0.0955
  794SOL    MW4 3251   1.060   3.659   1.531 -0.3575  0.1760 -0.4134
  795SOL     OW 3252   1.088   3.884   1.649  0.4856 -0.0663 -0.2045
  795SOL    HW2 3253   1.170   3.909   1.605  0.1369  1.2526 -0.1208
  795SOL    HW3 3254   1.103   3.903   1.741  0.5335 -1.0393 -0.0065
  795SOL    MW4 3255   1.101   3.890   1.655  0.4460 -0.0210 -0.1673
  796SOL     OW 3256   0.908   4.008   1.473 -0.0935 -0.4922  0.2052
  796SOL    HW2 3257   0.889   4.087   1.524  0.4542  0.5815 -1.2312
  796SOL    HW3 3258   0.976   3.963   1.523  0.1336  0.3203  0.6350
  796SOL    MW4 3259   0.914   4.012   1.487  0.0088 -0.2437  0.0725
  797SOL     OW 3260   0.885   4.242   1.606 -0.8332  0.2610 -0.0712
  797SOL    HW2 3261   0.884   4.234   1.701 -1.5305  0.5975 -0.0409
  797SOL    HW3 3262   0.804   4.289   1.585 -0.4210  0.6685 -0.7893
  797SOL    MW4 3263   0.874   4.247   1.616 -0.8708  0.3591 -0.1619
  798SOL     OW 3264   1.115   4.337   1.479  0.6280  0.2780 -0.1486
  798SOL    HW2 3265   1.036   4.303   1.522  0.6416 -0.1628 -0.4697
  798SOL    HW3 3266   1.123   4.427   1.512  1.0622 -0.3018  1.3714
  798SOL    MW4 3267   1.106   4.344   1.489  0.6872  0.1431  0.0097
  799SOL     OW 3268   1.527   4.614   1.548 -0.3576 -0.2186 -0.3620
  799SOL    HW2 3269   1.502   4.620   1.640 -3.3292 -1.2801 -1.0500
  799SOL    HW3 3270   1.458   4.662   1.502  1.4611  0.8931 -2.0156
  799SOL    MW4 3271   1.515   4.621   1.554 -0.5097 -0.2122 -0.6710
  800SOL     OW 3272   1.321   0.115   1.443 -0.8298 -0.0203 -0.0097
  800SOL    HW2 3273   1.312   0.200   1.484  1.8634  0.0200  0.6119
  800SOL    HW3 3274   1.310   0.132   1.349 -1.3588  0.8106  0.1986
  800SOL    MW4 3275   1.318   0.128   1.436 -0.5442  0.0946  0.0998
  801SOL     OW 3276   1.334   0.349   1.577  0.1194  0.3152  0.2538
  801SOL    HW2 3277   1.409   0.406   1.561 -0.4651  0.7200 -1.1570
  801SOL    HW3 3278   1.258   0.407   1.570 -0.3591 -0.1775  1.2293
  801SOL    MW4 3279   1.334   0.364   1.574 -0.0209  0.3036  0.1963
  802SOL     OW 3280   1.548   0.524   1.511  0.2231  0.1007  0.0900
  802SOL    HW2 3281   1.624   0.469   1.533  0.3678 -0.0528 -0.8000
  802SOL    HW3 3282   1.553   0.535   1.416 -0.1410  1.1696  0.1952
  802SOL    MW4 3283   1.558   0.518   1.502  0.1941  0.2215 -0.0136
  803SOL     OW 3284   1.569   0.778   1.602 -0.2631 -0.0474  0.0424
  803SOL    HW2 3285   1.546   0.783   1.695 -1.5060 -0.2677 -0.2482
  803SOL    HW3 3286   1.557   0.685   1.580  1.2195 -0.2254 -0.0399
  803SOL    MW4 3287   1.564   0.766   1.612 -0.2315 -0.1000 -0.0068
  804SOL     OW 3288   1.333   0.892   1.519  0.2823  0.0624 -0.0387
  804SOL    HW2 3289   1.409   0.842   1.547  0.1909  0.0838  0.2539
  804SOL    HW3 3290   1.316   0.863   1.430  2.3173  2.0601 -1.1272
  804SOL    MW4 3291   1.340   0.881   1.511  0.5387  0.3288 -0.1436
  805SOL     OW 3292   1.314   1.173   1.574  0.4940  0.2058 -0.3603
  805SOL    HW2 3293   1.315   1.175   1.669 -2.2552  0.1733 -0.2981
  805SOL    HW3 3294   1.319   1.080   1.552 -2.5215 -0.0517 -0.1244
  805SOL    MW4 3295   1.315   1.161   1.583 -0.2666  0.1675 -0.3209
  806SOL     OW 3296   1.583   1.239   1.506 -0.3257 -0.7532 -0.0568
  806SOL    HW2 3297   1.499   1.196   1.519 -0.5873 -0.5585 -1.0378
  806SOL    HW3 3298   1.594   1.242   1.410  0.8269 -0.8550  0.0595
  806SOL    MW4 3299   1.574   1.233   1.495 -0.2080 -0.7409 -0.1707
  807SOL     OW 3300   1.562   1.529   1.555  0.3131  0.0192  0.2054
  807SOL    HW2 3301   1.540   1.521   1.648  1.4248 -0.2266  0.4482
  807SOL    HW3 3302   1.565   1.439   1.522 -1.3209  0.1595 -0.3692
  807SOL    MW4 3303   1.559   1.516   1.563  0.2441  0.0052  0.1618
  808SOL     OW 3304   1.339   1.665   1.448 -0.3860 -0.5104  0.2278
  808SOL    HW2 3305   1.422   1.623   1.469  0.4846  0.8492 -0.4221
  808SOL    HW3 3306   1.337   1.670   1.353  0.2017  2.1918  0.3310
  808SOL    MW4 3307   1.349   1.660   1.438 -0.1937  0.0255  0.1557
  809SOL     OW 3308   1.313   1.934   1.531  0.0167 -0.2840  0.1595
  809SOL    HW2 3309   1.344   1.926   1.621 -0.0888 -0.2140  0.2019
  809SOL    HW3 3310   1.301   1.844   1.502  0.3769 -0.3132  0.1039
  809SOL    MW4 3311   1.315   1.921   1.539  0.0503 -0.2786  0.1578
  810SOL     OW 3312   1.547   2.061   1.493 -0.0000  0.2376  0.2606
  810SOL    HW2 3313   1.477   1.996   1.504  0.7081 -0.4339  0.8193
  810SOL    HW3 3314   1.567   2.058   1.399 -0.3888  0.0744  0.1830
  810SOL    MW4 3315   1.540   2.052   1.482  0.0421  0.1278  0.3241
  811SOL     OW 3316   1.556   2.319   1.603  0.0501 -0.1784 -0.0067
  811SOL    HW2 3317   1.637   2.345   1.560  0.2653  0.4827  0.7832
  811SOL    HW3 3318   1.545   2.227   1.580  1.7245 -0.6506  0.9416
  811SOL    MW4 3319   1.565   2.310   1.595  0.2993 -0.1535  0.2226
  812SOL     OW 3320   1.333   2.423   1.470  0.3972  0.0936 -0.2723
  812SOL    HW2 3321   1.341   2.513   1.502 -0.0680  0.0923 -0.1540
  812SOL    HW3 3322   1.405   2.376   1.513 -1.0674 -0.2431  1.9438
  812SOL    MW4 3323   1.343   2.428   1.480  0.1426  0.0491  0.0356
  813SOL     OW 3324   1.345   2.700   1.532 -0.2393  0.1747 -0.1462
  813SOL    HW2 3325   1.412   2.765   1.512 -0.3020  0.7902  1.5347
  813SOL    HW3 3326   1.263   2.749   1.527 -0.2859  0.2588  1.1267
  813SOL    MW4 3327   1.343   2.715   1.529 -0.2538  0.2670  0.2434
  814SOL     OW 3328   1.529   2.873   1.476  0.0258  0.4684 -0.2792
  814SOL    HW2 3329   1.608   2.839   1.517 -1.2705 -2.0598  0.2519
  814SOL    HW3 3330   1.550   2.877   1.383  1.4253  1.7695  0.0700
  814SOL    MW4 3331   1.542   2.869   1.469  0.0393  0.3064 -0.1630
  815SOL     OW 3332   1.517   3.129   1.574 -0.3203 -0.2356  0.2684
  815SOL    HW2 3333   1.597   3.166   1.539  0.2519 -0.4561  1.3141
  815SOL    HW3 3334   1.519   3.037   1.547  1.1351 -0.9203  2.5569
  815SOL    MW4 3335   1.528   3.121   1.566 -0.0528 -0.3550  0.7083
  816SOL     OW 3336   1.304   3.261   1.477  0.4323 -0.1649 -1.1348
  816SOL    HW2 3337   1.300   3.350   1.512  0.7333  0.0819 -1.7280
  816SOL    HW3 3338   1.382   3.223   1.517  0.6890  0.0652 -1.4163
  816SOL    MW4 3339   1.313   3.268   1.487  0.5058 -0.1020 -1.2503
  817SOL     OW 3340   1.284   3.511   1.596  0.1301  0.5121  0.1255
  817SOL    HW2 3341   1.306   3.496   1.687  0.7123 -0.7344 -0.2069
  817SOL    HW3 3342   1.355   3.566   1.562  0.6448 -0.1766  0.0767
  817SOL    MW4 3343   1.296   3.516   1.603  0.2748  0.2568  0.0752
  818SOL     OW 3344   1.530   3.613   1.524 -0.5102  0.6346 -0.3417
  818SOL    HW2 3345   1.533   3.701   1.561 -1.1572  0.6019 -0.1911
  818SOL    HW3 3346   1.553   3.624   1.432 -1.3328  1.0716 -0.4996
  818SOL    MW4 3347   1.533   3.626   1.517 -0.7041  0.6881 -0.3427
  819SOL     OW 3348   1.582   3.865   1.593 -0.1326  0.4307  0.6661
  819SOL    HW2 3349   1.585   3.861   1.688 -0.4796 -0.2264  0.6484
  819SOL    HW3 3350   1.504   3.917   1.573 -1.7197 -1.8885  0.6935
  819SOL    MW4 3351   1.572   3.872   1.603 -0.3879  0.0381  0.6673
  820SOL     OW 3352   1.322   3.955   1.540  0.1246 -0.3080  0.0554
  820SOL    HW2 3353   1.316   4.045   1.573  0.6610 -0.2920  0.1119
  820SOL    HW3 3354   1.344   3.966   1.447  0.2958 -0.3820  0.0870
  820SOL    MW4 3355   1.324   3.969   1.532  0.2179 -0.3154  0.0671
  821SOL     OW 3356   1.332   4.219   1.611  0.1216  0.5680  0.1409
  821SOL    HW2 3357   1.408   4.265   1.576  0.2366  1.6751  1.8382
  821SOL    HW3 3358   1.257   4.260   1.568  0.3802  0.6579 -0.2226
  821SOL    MW4 3359   1.332   4.230   1.601  0.1709  0.7257  0.3169
  822SOL     OW 3360   1.550   4.356   1.477 -0.1675  0.3373 -0.1607
  822SOL    HW2 3361   1.629   4.316   1.513 -0.6164  0.8566  1.4481
  822SOL    HW3 3362   1.555   4.448   1.506 -0.8046  0.6358 -0.9879
  822SOL    MW4 3363   1.561   4.363   1.486 -0.3107  0.4454 -0.0575
  823SOL     OW 3364   2.009   0.006   1.615 -0.1081 -0.7929  0.3875
  823SOL    HW2 3365   2.012   0.004   1.711  0.7684  0.9715  0.4221
  823SOL    HW3 3366   1.923   0.042   1.594  0.9905  2.0684  0.6073
  823SOL    MW4 3367   1.998   0.011   1.625  0.1523 -0.1826  0.4212
  824SOL     OW 3368   1.760   0.094   1.488 -0.0354  0.0472 -0.0956
  824SOL    HW2 3369   1.676   0.049   1.500 -0.3104  0.6720  0.3606
  824SOL    HW3 3370   1.782   0.079   1.397 -0.5269 -0.3297 -0.1562
  824SOL    MW4 3371   1.752   0.086   1.478 -0.1365  0.0799 -0.0433
  825SOL     OW 3372   1.748   0.351   1.592 -0.3565 -0.2737 -0.1143
  825SOL    HW2 3373   1.828   0.383   1.551 -0.1947 -1.1805 -0.5213
  825SOL    HW3 3374   1.735   0.264   1.554 -1.4454 -0.1953  0.0633
  825SOL    MW4 3375   1.756   0.344   1.582 -0.4787 -0.3830 -0.1447
  826SOL     OW 3376   1.995   0.498   1.521 -0.4347 -0.0081  0.0026
  826SOL    HW2 3377   2.077   0.458   1.550  0.1362  0.5462 -0.8386
  826SOL    HW3 3378   1.993   0.584   1.564  0.4809  0.8745 -1.6757
  826SOL    MW4 3379   2.006   0.504   1.531 -0.2387  0.1815 -0.3299
  827SOL     OW 3380   2.010   0.766   1.626  0.2905 -0.1198  0.0064
  827SOL    HW2 3381   2.085   0.813   1.589 -0.6101 -0.1348 -1.9293
  827SOL    HW3 3382   1.934   0.812   1.590 -0.6057 -1.6585 -0.0758
  827SOL    MW4 3383   2.010   0.779   1.616  0.0532 -0.3248 -0.2600
  828SOL     OW 3384   1.798   0.904   1.503 -0.5790 -0.0144  0.8111
  828SOL    HW2 3385   1.805   0.986   1.553 -1.1965  0.8096 -0.4302
  828SOL    HW3 3386   1.711   0.871   1.525 -1.9601  1.7504 -1.7770
  828SOL    MW4 3387   1.788   0.911   1.513 -0.8427  0.3271  0.3058
  829SOL     OW 3388   1.783   1.122   1.666  0.2997 -0.0404 -0.4532
  829SOL    HW2 3389   1.857   1.178   1.642  1.0278 -1.4107 -1.4665
  829SOL    HW3 3390   1.708   1.162   1.621  0.8711 -0.0637 -1.4541
  829SOL    MW4 3391   1.783   1.135   1.657  0.4711 -0.2242 -0.7191
  830SOL     OW 3392   1.999   1.251   1.536 -0.0166  0.3402 -0.6085
  830SOL    HW2 3393   1.998   1.342   1.563 -0.9296 -0.2529  1.4784
  830SOL    HW3 3394   1.995   1.254   1.440  1.3141  2.4875 -0.6308
  830SOL    MW4 3395   1.999   1.263   1.527  0.0384  0.5454 -0.3361
  831SOL     OW 3396   1.983   1.515   1.621  0.0684  0.0385  0.2354
  831SOL    HW2 3397   2.056   1.560   1.578  0.2468 -1.2922 -0.8711
  831SOL    HW3 3398   1.906   1.564   1.593  0.4769  1.1866  1.0672
  831SOL    MW4 3399   1.982   1.528   1.612  0.1458  0.0144  0.1992
  832SOL     OW 3400   1.775   1.674   1.506  0.3746  0.0325  0.0816
  832SOL    HW2 3401   1.694   1.625   1.520  0.1993  0.4090  0.3917
  832SOL    HW3 3402   1.803   1.649   1.418 -0.6354  0.6947 -0.4490
  832SOL    MW4 3403   1.768   1.664   1.497  0.2183  0.1695  0.0526
  833SOL     OW 3404   1.793   1.951   1.576  0.3281  0.1712 -0.3783
  833SOL    HW2 3405   1.790   1.860   1.544 -1.5518 -0.6203  1.8878
  833SOL    HW3 3406   1.712   1.990   1.542 -0.3190  0.1120  1.0542
  833SOL    MW4 3407   1.782   1.944   1.567 -0.0054  0.0590  0.1098
  834SOL     OW 3408   2.031   2.039   1.475  0.5825  0.5016  0.1001
  834SOL    HW2 3409   2.092   1.988   1.528  1.3035 -0.5833 -1.7354
  834SOL    HW3 3410   1.945   2.016   1.509  0.9065 -1.8632 -0.5888
  834SOL    MW4 3411   2.028   2.029   1.486  0.7203  0.0465 -0.2331
  835SOL     OW 3412   2.009   2.288   1.598  0.0960  0.1770 -0.3267
  835SOL    HW2 3413   2.005   2.292   1.693  1.4444  0.2743 -0.2758
  835SOL    HW3 3414   2.019   2.194   1.579  0.4229  0.2219 -0.3625
  835SOL    MW4 3415   2.010   2.276   1.608  0.3171  0.1957 -0.3247
  836SOL     OW 3416   1.804   2.432   1.497  0.1506 -0.1209  0.5149
  836SOL    HW2 3417   1.871   2.376   1.537 -0.1477  0.3254  1.6805
  836SOL    HW3 3418   1.821   2.428   1.403  1.4374 -0.4783  0.7620
  836SOL    MW4 3419   1.815   2.424   1.490  0.2810 -0.1092  0.7012
  837SOL     OW 3420   1.762   2.706   1.549  0.1337 -0.1091 -0.3592
  837SOL    HW2 3421   1.776   2.708   1.644 -0.9648 -0.4549 -0.1801
  837SOL    HW3 3422   1.779   2.615   1.524  0.7683  0.0622 -0.5471
  837SOL    MW4 3423   1.766   2.694   1.558  0.0726 -0.1323 -0.3605
  838SOL     OW 3424   2.003   2.832   1.517  0.3572 -0.0453  0.4284
  838SOL    HW2 3425   1.980   2.924   1.528 -0.8508 -0.3156  0.1962
  838SOL    HW3 3426   1.921   2.785   1.529  0.8436 -1.0470 -0.0994
  838SOL    MW4 3427   1.989   2.838   1.520  0.2619 -0.2131  0.3282
  839SOL     OW 3428   1.977   3.100   1.584  0.1992 -0.1046  0.1759
  839SOL    HW2 3429   1.971   3.127   1.675  2.2051  0.2803  0.2153
  839SOL    HW3 3430   2.068   3.117   1.560 -0.2895 -0.2623 -1.8771
  839SOL    MW4 3431   1.989   3.106   1.593  0.3994 -0.0746 -0.0899
  840SOL     OW 3432   1.766   3.223   1.464 -0.0341 -0.8557  0.4512
  840SOL    HW2 3433   1.756   3.312   1.498  0.4489 -0.5166 -0.2805
  840SOL    HW3 3434   1.848   3.192   1.504  0.2976 -0.6209 -0.0416
  840SOL    MW4 3435   1.776   3.230   1.474  0.0734 -0.7799  0.2897
  841SOL     OW 3436   1.777   3.481   1.591 -0.5237  0.1607 -0.0504
  841SOL    HW2 3437   1.788   3.474   1.686  0.9402  0.3594 -0.1859
  841SOL    HW3 3438   1.696   3.529   1.579 -0.4035  0.6684  1.1184
  841SOL    MW4 3439   1.768   3.486   1.602 -0.3147  0.2537  0.0858
  842SOL     OW 3440   2.009   3.595   1.490  0.0334 -0.0246 -0.6995
  842SOL    HW2 3441   2.080   3.534   1.507  0.3106  0.4383 -0.1855
  842SOL    HW3 3442   1.931   3.552   1.526  0.4256  0.4453  0.7744
  842SOL    MW4 3443   2.008   3.582   1.497  0.1216  0.0985 -0.4373
  843SOL     OW 3444   2.021   3.862   1.580  0.0687  0.4799 -0.8033
  843SOL    HW2 3445   2.092   3.911   1.538 -0.3609  0.7474 -1.2181
  843SOL    HW3 3446   2.024   3.775   1.540  0.4889  0.3286 -0.4513
  843SOL    MW4 3447   2.031   3.857   1.570  0.0672  0.4952 -0.8117
  844SOL     OW 3448   1.799   3.984   1.498  0.2038 -0.6727  0.1458
  844SOL    HW2 3449   1.872   3.931   1.528 -0.7894 -1.8375  0.5420
  844SOL    HW3 3450   1.721   3.934   1.523 -0.7459  0.9131  0.4471
  844SOL    MW4 3451   1.798   3.971   1.505 -0.0525 -0.6173  0.2379
  845SOL     OW 3452   1.791   4.254   1.575 -0.6232 -0.0205  0.3103
  845SOL    HW2 3453   1.865   4.307   1.546 -0.6645  0.3965  0.9803
  845SOL    HW3 3454   1.812   4.166   1.543  0.4230 -0.0148  0.9657
  845SOL    MW4 3455   1.803   4.249   1.567 -0.4905  0.0353  0.4852
  846SOL     OW 3456   2.004   4.409   1.495 -0.5279 -0.6367  0.0715
  846SOL    HW2 3457   2.089   4.367   1.508 -0.4982 -0.4235  0.5900
  846SOL    HW3 3458   2.011   4.493   1.540 -1.1059 -0.7369  0.3667
  846SOL    MW4 3459   2.016   4.414   1.503 -0.6001 -0.6218  0.1788
  847SOL     OW 3460   2.475   4.609   1.567  0.1968 -0.2819 -0.4973
  847SOL    HW2 3461   2.483   4.604   1.662  0.6623 -1.7506 -0.5989
  847SOL    HW3 3462   2.395   4.659   1.552  0.9823  1.3582  0.6534
  847SOL    MW4 3463   2.465   4.615   1.578  0.3619 -0.2589 -0.3589
  848SOL     OW 3464   2.248   0.109   1.492  0.1125  0.1197 -0.2512
  848SOL    HW2 3465   2.157   0.087   1.512  0.3592 -0.6530 -0.0008
  848SOL    HW3 3466   2.249   0.124   1.397 -0.2415 -0.0083 -0.2733
  848SOL    MW4 3467   2.236   0.108   1.482  0.0982  0.0009 -0.2210
  849SOL     OW 3468   2.251   0.373   1.622 -0.3750 -0.7396 -0.1509
  849SOL    HW2 3469   2.235   0.379   1.716  3.5879 -1.3967  0.6679
  849SOL    HW3 3470   2.239   0.281   1.601 -0.6939 -0.6942 -0.1655
  849SOL    MW4 3471   2.248   0.362   1.632  0.1056 -0.8204 -0.0448
  850SOL     OW 3472   2.457   0.495   1.521  0.6790  0.1523 -0.2033
  850SOL    HW2 3473   2.539   0.460   1.554  0.3551 -0.3929  0.0257
  850SOL    HW3 3474   2.389   0.449   1.571  0.2405  0.7476 -0.2427
  850SOL    MW4 3475   2.459   0.485   1.532  0.5784  0.1589 -0.1781
  851SOL     OW 3476   2.488   0.771   1.619  0.1067  0.0954 -0.2894
  851SOL    HW2 3477   2.404   0.806   1.589 -0.0596  0.7738  0.9395
  851SOL    HW3 3478   2.483   0.677   1.598 -0.4507  0.3451 -1.3353
  851SOL    MW4 3479   2.476   0.763   1.612  0.0110  0.2179 -0.2654
  852SOL     OW 3480   2.262   0.898   1.516 -0.2049 -0.1326  0.1793
  852SOL    HW2 3481   2.260   0.989   1.545 -0.1833  0.3388 -1.2465
  852SOL    HW3 3482   2.271   0.904   1.421  0.9767 -1.6302  0.1821
  852SOL    MW4 3483   2.263   0.911   1.507 -0.0460 -0.2680 -0.0085
  853SOL     OW 3484   2.248   1.156   1.619  0.1968 -0.2515  0.0622
  853SOL    HW2 3485   2.242   1.151   1.714  1.9693 -0.0057  0.2070
  853SOL    HW3 3486   2.162   1.187   1.591 -0.4078 -0.5267  1.5577
  853SOL    MW4 3487   2.236   1.159   1.628  0.3507 -0.2552  0.2785
  854SOL     OW 3488   2.485   1.291   1.517 -0.1222  0.6463  0.3972
  854SOL    HW2 3489   2.408   1.239   1.539 -0.0147  0.8387  1.2360
  854SOL    HW3 3490   2.474   1.312   1.424 -0.8436  0.2737  0.3964
  854SOL    MW4 3491   2.473   1.287   1.508 -0.2034  0.6226  0.5078
  855SOL     OW 3492   2.458   1.544   1.637  0.2603 -0.3056 -0.0477
  855SOL    HW2 3493   2.525   1.585   1.582 -0.2018 -0.9431 -1.1072
  855SOL    HW3 3494   2.466   1.450   1.618 -0.6908 -0.4175  0.1001
  855SOL    MW4 3495   2.468   1.537   1.627  0.0739 -0.4046 -0.1681
  856SOL     OW 3496   2.227   1.614   1.505  0.3712 -0.0785 -0.0671
  856SOL    HW2 3497   2.318   1.604   1.534  0.7866 -0.4343 -1.4382
  856SOL    HW3 3498   2.234   1.621   1.409 -1.0402 -0.0114 -0.1658
  856SOL    MW4 3499   2.240   1.614   1.496  0.2396 -0.1167 -0.2611
  857SOL     OW 3500   2.249   1.894   1.606 -0.0336 -0.2084 -0.2030
  857SOL    HW2 3501   2.254   1.878   1.700 -0.3080  0.3822 -0.0821
  857SOL    HW3 3502   2.262   1.808   1.565 -0.9451 -0.6287  0.3948
  857SOL    MW4 3503   2.251   1.881   1.613 -0.1900 -0.1860 -0.1082
  858SOL     OW 3504   2.478   2.020   1.501 -0.1396 -0.1944 -0.3024
  858SOL    HW2 3505   2.399   1.979   1.536  1.4253 -2.0335  1.1448
  858SOL    HW3 3506   2.463   2.024   1.406 -2.9703  1.7077  0.1915
  858SOL    MW4 3507   2.466   2.015   1.493 -0.3066 -0.1860 -0.0463
  859SOL     OW 3508   2.446   2.295   1.606  0.1418 -0.1740  0.2999
  859SOL    HW2 3509   2.470   2.300   1.698 -0.3162  1.1756  0.3658
  859SOL    HW3 3510   2.471   2.207   1.579  0.3327 -0.5626  1.6960
  859SOL    MW4 3511   2.452   2.284   1.615  0.1063 -0.0472  0.4928
  860SOL     OW 3512   2.222   2.404   1.479  0.3342 -0.0095 -0.1729
  860SOL    HW2 3513   2.293   2.363   1.527 -0.1889 -1.0521 -0.2687
  860SOL    HW3 3514   2.142   2.369   1.519 -0.1164  0.5076 -0.6045
  860SOL    MW4 3515   2.221   2.394   1.491  0.2058 -0.0792 -0.2426
  861SOL     OW 3516   2.249   2.696   1.538  0.0618 -0.1988  0.1558
  861SOL    HW2 3517   2.225   2.607   1.513  1.3031 -0.5403  0.1480
  861SOL    HW3 3518   2.168   2.747   1.527 -0.0635 -0.8194 -2.1925
  861SOL    MW4 3519   2.235   2.691   1.533  0.2093 -0.3254 -0.1550
  862SOL     OW 3520   2.493   2.787   1.446 -0.3785  0.3402  0.4656
  862SOL    HW2 3521   2.480   2.877   1.475 -0.9560  0.7110 -0.9123
  862SOL    HW3 3522   2.409   2.744   1.462  0.4720 -0.4757  2.9047
  862SOL    MW4 3523   2.480   2.793   1.452 -0.3426  0.2813  0.6056
  863SOL     OW 3524   2.482   3.050   1.532  0.4438  0.5504 -0.0292
  863SOL    HW2 3525   2.484   3.038   1.627 -0.1887 -0.8548 -0.1833
  863SOL    HW3 3526   2.396   3.088   1.515 -0.0453 -0.5990 -0.1812
  863SOL    MW4 3527   2.471   3.054   1.543  0.2959  0.2136 -0.0695
  864SOL     OW 3528   2.226   3.159   1.502  0.2944  0.3137  0.6494
  864SOL    HW2 3529   2.232   3.249   1.532  0.3365  1.0668 -1.5043
  864SOL    HW3 3530   2.231   3.165   1.406  0.0599 -1.9453  0.4565
  864SOL    MW4 3531   2.227   3.172   1.493  0.2689  0.1152  0.3399
  865SOL     OW 3532   2.226   3.423   1.585 -0.0278  0.2869 -0.1781
  865SOL    HW2 3533   2.228   3.439   1.679 -3.3972  3.3904 -0.5601
  865SOL    HW3 3534   2.300   3.475   1.551  0.4550  0.1269  0.6036
  865SOL    MW4 3535   2.236   3.432   1.593 -0.4084  0.6752 -0.1254
  866SOL     OW 3536   2.441   3.586   1.487  0.0887 -0.3256  0.4328
  866SOL    HW2 3537   2.533   3.557   1.491  0.0732 -0.6018 -1.0406
  866SOL    HW3 3538   2.445   3.679   1.508  0.8600 -0.0686 -0.7770
  866SOL    MW4 3539   2.454   3.595   1.491  0.1886 -0.3283  0.0788
  867SOL     OW 3540   2.475   3.867   1.565  0.3955 -0.0429 -0.7824
  867SOL    HW2 3541   2.477   3.864   1.661 -1.1262  0.4163 -0.7309
  867SOL    HW3 3542   2.556   3.912   1.541  0.5940  0.1819  0.3053
  867SOL    MW4 3543   2.486   3.873   1.574  0.2208  0.0474 -0.6322
  868SOL     OW 3544   2.258   4.020   1.488 -0.0233  0.1875 -0.4783
  868SOL    HW2 3545   2.337   3.977   1.520 -0.4353 -0.9137 -0.8927
  868SOL    HW3 3546   2.273   4.032   1.394 -0.4632 -0.3038 -0.6154
  868SOL    MW4 3547   2.270   4.016   1.479 -0.1354 -0.0219 -0.5509
  869SOL     OW 3548   2.266   4.278   1.550 -0.5889  0.2868 -0.6836
  869SOL    HW2 3549   2.350   4.302   1.510  0.2899 -0.2494  0.8171
  869SOL    HW3 3550   2.259   4.183   1.537 -1.1781  0.3938 -1.1893
  869SOL    MW4 3551   2.276   4.268   1.543 -0.5507  0.2308 -0.5524
  870SOL     OW 3552   2.511   4.353   1.463 -0.1304 -0.0984  0.4285
  870SOL    HW2 3553   2.496   4.439   1.503 -1.0000 -0.6417  1.3103
  870SOL    HW3 3554   2.486   4.365   1.372 -0.7965  0.4481  0.6737
  870SOL    MW4 3555   2.505   4.366   1.456 -0.3328 -0.0982  0.5772
  871SOL     OW 3556   2.897   0.002   1.577 -0.4499  0.3288 -0.4563
  871SOL    HW2 3557   2.890  -0.019   1.671  0.3445  0.3918 -0.3762
  871SOL    HW3 3558   2.813   0.041   1.555 -0.9524 -0.4688  0.0359
  871SOL    MW4 3559   2.885   0.005   1.587 -0.4117  0.2317 -0.3808
  872SOL     OW 3560   2.665   0.114   1.480 -0.3669 -0.2359 -0.0205
  872SOL    HW2 3561   2.656   0.200   1.521 -0.7622 -0.5604  0.5698
  872SOL    HW3 3562   2.602   0.059   1.525  0.9188 -1.2114  0.6007
  872SOL    MW4 3563   2.656   0.118   1.491 -0.2496 -0.4074  0.1394
  873SOL     OW 3564   2.705   0.373   1.608  0.4973  0.2211 -0.6100
  873SOL    HW2 3565   2.687   0.394   1.699  0.8531 -0.0090 -0.4881
  873SOL    HW3 3566   2.794   0.406   1.593 -0.0907  1.5662 -1.2750
  873SOL    MW4 3567   2.714   0.380   1.618  0.4668  0.3682 -0.6816
  874SOL     OW 3568   2.963   0.510   1.497  0.5629 -0.1129  0.1503
  874SOL    HW2 3569   2.926   0.597   1.516  0.6720 -0.0398  0.0290
  874SOL    HW3 3570   2.937   0.493   1.406 -0.8351 -0.8998  0.6702
  874SOL    MW4 3571   2.954   0.519   1.488  0.3929 -0.2071  0.2029
  875SOL     OW 3572   2.927   0.781   1.594  0.0289  0.2593  0.0730
  875SOL    HW2 3573   2.920   0.763   1.688  0.0821  1.6839  0.3599
  875SOL    HW3 3574   2.843   0.822   1.571  0.1301  0.1863 -0.4375
  875SOL    MW4 3575   2.915   0.784   1.603  0.0494  0.4376  0.0435
  876SOL     OW 3576   2.693   0.916   1.511 -0.0559 -0.7802  0.2567
  876SOL    HW2 3577   2.614   0.869   1.537 -0.1398 -0.4773  0.5427
  876SOL    HW3 3578   2.691   0.915   1.415 -0.5027 -0.6140  0.2635
  876SOL    MW4 3579   2.683   0.910   1.502 -0.1256 -0.7184  0.2954
  877SOL     OW 3580   2.710   1.179   1.624  0.0550 -0.3377  0.5061
  877SOL    HW2 3581   2.711   1.088   1.594 -2.6997 -0.3174  0.2493
  877SOL    HW3 3582   2.626   1.214   1.594  0.0763  1.6230  2.5443
  877SOL    MW4 3583   2.699   1.172   1.616 -0.3059 -0.0763  0.7410
  878SOL     OW 3584   2.949   1.267   1.512  0.2604 -0.0898  0.0164
  878SOL    HW2 3585   3.016   1.228   1.569  0.3297  1.0253  0.6992
  878SOL    HW3 3586   2.868   1.259   1.562  0.3962  1.2937  0.4538
  878SOL    MW4 3587   2.947   1.261   1.526  0.2875  0.2398  0.1642
  879SOL     OW 3588   2.913   1.521   1.637  0.1822 -0.2220  0.3766
  879SOL    HW2 3589   2.836   1.533   1.581  0.6139 -0.5268 -0.2779
  879SOL    HW3 3590   2.936   1.429   1.626  0.5766 -0.1588  0.6721
  879SOL    MW4 3591   2.906   1.510   1.628  0.2911 -0.2538  0.3293
  880SOL     OW 3592   2.680   1.615   1.500  0.1464 -0.2349 -0.3852
  880SOL    HW2 3593   2.692   1.702   1.539  1.0210  0.1292 -1.4475
  880SOL    HW3 3594   2.688   1.630   1.406  0.2019 -1.4586 -0.5777
  880SOL    MW4 3595   2.683   1.629   1.493  0.2692 -0.3482 -0.5506
  881SOL     OW 3596   2.695   1.867   1.599  0.3627 -0.1012 -0.1877
  881SOL    HW2 3597   2.720   1.896   1.687  1.3624  1.0460 -0.8192
  881SOL    HW3 3598   2.618   1.920   1.578 -0.0955 -0.6375  0.1371
  881SOL    MW4 3599   2.688   1.878   1.608  0.4339 -0.0206 -0.2282
  882SOL     OW 3600   2.921   2.013   1.451 -0.3318  0.3040  0.0207
  882SOL    HW2 3601   2.903   2.100   1.487 -0.7547 -0.3911  1.4907
  882SOL    HW3 3602   2.858   1.955   1.494  1.3916 -1.1162  0.7095
  882SOL    MW4 3603   2.911   2.017   1.461 -0.1602  0.0248  0.3054
  883SOL     OW 3604   2.935   2.264   1.573  0.3624  0.0335 -0.1428
  883SOL    HW2 3605   2.929   2.262   1.669 -0.2689  0.2895 -0.1715
  883SOL    HW3 3606   2.855   2.310   1.545  1.0786  0.9505 -0.7337
  883SOL    MW4 3607   2.923   2.270   1.582  0.3736  0.1881 -0.2246
  884SOL     OW 3608   2.694   2.388   1.501 -0.3946  0.3699  0.2253
  884SOL    HW2 3609   2.706   2.476   1.537 -0.3418 -0.1149  1.4230
  884SOL    HW3 3610   2.613   2.357   1.540  0.1044 -0.4903  0.5881
  884SOL    MW4 3611   2.685   2.396   1.511 -0.3219  0.1926  0.4312
  885SOL     OW 3612   2.685   2.655   1.590 -0.2499  0.0022  0.1978
  885SOL    HW2 3613   2.761   2.688   1.541  0.0523 -0.1809  0.5390
  885SOL    HW3 3614   2.610   2.683   1.538  0.0462  0.2575 -0.1034
  885SOL    MW4 3615   2.685   2.663   1.576 -0.1707  0.0117  0.2030
  886SOL     OW 3616   2.897   2.760   1.453 -0.2123  0.3204  0.4832
  886SOL    HW2 3617   2.981   2.729   1.486 -0.2400  0.9016  1.1011
  886SOL    HW3 3618   2.899   2.854   1.468 -2.0818  0.0015  3.0208
  886SOL    MW4 3619   2.908   2.768   1.459 -0.4625  0.3548  0.8993
  887SOL     OW 3620   2.921   3.065   1.520 -0.0057  0.3255 -0.1415
  887SOL    HW2 3621   2.856   3.132   1.497  0.7591  1.0468 -0.2258
  887SOL    HW3 3622   2.911   3.054   1.614 -1.0034 -0.3688 -0.3207
  887SOL    MW4 3623   2.911   3.073   1.529 -0.0362  0.3290 -0.1762
  888SOL     OW 3624   2.712   3.243   1.472 -0.0070  0.6646 -0.1604
  888SOL    HW2 3625   2.636   3.196   1.506 -0.2496  1.9497  1.0984
  888SOL    HW3 3626   2.715   3.221   1.379 -0.8536 -0.8286  0.1553
  888SOL    MW4 3627   2.702   3.234   1.464 -0.1507  0.6373  0.0474
  889SOL     OW 3628   2.672   3.474   1.607 -0.3757 -0.3384  0.1529
  889SOL    HW2 3629   2.681   3.465   1.702  1.4700 -1.5766 -0.1020
  889SOL    HW3 3630   2.675   3.384   1.573 -2.0520  0.0243 -1.0025
  889SOL    MW4 3631   2.674   3.461   1.615 -0.3533 -0.4537 -0.0331
  890SOL     OW 3632   2.929   3.563   1.488  0.2699 -0.5214 -0.7459
  890SOL    HW2 3633   2.853   3.524   1.531 -0.1461  0.0129 -0.9865
  890SOL    HW3 3634   2.907   3.565   1.395 -0.0119  0.8881 -0.6738
  890SOL    MW4 3635   2.916   3.558   1.482  0.1779 -0.2649 -0.7681
  891SOL     OW 3636   2.947   3.828   1.577 -0.1977  0.4833  0.1222
  891SOL    HW2 3637   2.876   3.880   1.539  0.1327  1.4290  0.7907
  891SOL    HW3 3638   2.928   3.738   1.549 -2.7473  0.4126  1.8863
  891SOL    MW4 3639   2.935   3.823   1.569 -0.4904  0.5987  0.4431
  892SOL     OW 3640   2.731   3.959   1.462  0.2495 -0.1428 -0.2654
  892SOL    HW2 3641   2.743   4.047   1.496 -2.4922  0.5154 -0.8714
  892SOL    HW3 3642   2.727   3.970   1.367 -0.6661 -0.8171 -0.3214
  892SOL    MW4 3643   2.732   3.972   1.454 -0.2329 -0.1450 -0.3529
  893SOL     OW 3644   2.756   4.224   1.544  0.1290 -0.6077  0.0234
  893SOL    HW2 3645   2.824   4.288   1.523 -0.6328  0.1911 -0.0526
  893SOL    HW3 3646   2.674   4.268   1.520 -0.4560 -1.3032  0.7174
  893SOL    MW4 3647   2.754   4.238   1.538 -0.0489 -0.5941  0.1049
  894SOL     OW 3648   2.940   4.420   1.466 -0.3135 -0.3167 -0.1389
  894SOL    HW2 3649   2.926   4.509   1.498 -1.3007 -0.8588  0.9979
  894SOL    HW3 3650   2.966   4.431   1.375  0.0329  1.1548  0.1222
  894SOL    MW4 3651   2.942   4.433   1.459 -0.3982 -0.1941  0.0455
  895SOL     OW 3652   3.372   4.640   1.560 -0.6004  0.1162  0.0282
  895SOL    HW2 3653   3.450   4.687   1.530 -0.9311  0.7382  0.1304
  895SOL    HW3 3654   3.375   4.557   1.513 -0.0472  0.2663 -0.2123
  895SOL    MW4 3655   3.383   4.635   1.550 -0.5710  0.2174  0.0099
  896SOL     OW 3656   3.156   0.129   1.512 -0.0722  0.1705  0.9443
  896SOL    HW2 3657   3.235   0.079   1.533 -0.3620 -1.7024 -2.0872
  896SOL    HW3 3658   3.084   0.075   1.543 -0.3017 -0.1940 -0.1968
  896SOL    MW4 3659   3.157   0.115   1.519 -0.1404 -0.1247  0.3939
  897SOL     OW 3660   3.170   0.382   1.617 -0.1151  0.3178 -0.1968
  897SOL    HW2 3661   3.170   0.289   1.598 -1.9894 -0.1311  1.8506
  897SOL    HW3 3662   3.106   0.420   1.558  1.9717  0.6371 -2.3278
  897SOL    MW4 3663   3.162   0.375   1.607 -0.0870  0.3007 -0.2078
  898SOL     OW 3664   3.420   0.493   1.534  0.1263 -0.3485  0.2422
  898SOL    HW2 3665   3.339   0.443   1.546 -1.2502  1.2665 -1.7685
  898SOL    HW3 3666   3.417   0.519   1.441  1.7342  1.7929  0.7663
  898SOL    MW4 3667   3.409   0.490   1.523  0.1566  0.1471  0.0460
  899SOL     OW 3668   3.360   0.758   1.564  0.0222 -0.1457  0.0324
  899SOL    HW2 3669   3.364   0.776   1.658 -0.0446  1.1749 -0.2080
  899SOL    HW3 3670   3.375   0.664   1.557 -0.6867 -0.3754  1.4171
  899SOL    MW4 3671   3.363   0.748   1.575 -0.0801 -0.0017  0.1835
  900SOL     OW 3672   3.150   0.917   1.526 -0.2187  0.1431  0.3931
  900SOL    HW2 3673   3.218   0.850   1.527  0.4499  0.8211  0.2599
  900SOL    HW3 3674   3.071   0.871   1.554 -0.2834 -1.2910 -1.9473
  900SOL    MW4 3675   3.148   0.902   1.530 -0.1388  0.0433  0.0666
  901SOL     OW 3676   3.156   1.166   1.635  0.6560 -0.2779  0.0341
  901SOL    HW2 3677   3.145   1.152   1.729 -1.6884  0.1929 -0.1539
  901SOL    HW3 3678   3.141   1.080   1.596  0.6503 -0.2656  0.0087
  901SOL    MW4 3679   3.153   1.152   1.642  0.3457 -0.2143  0.0060
  902SOL     OW 3680   3.377   1.282   1.526  0.0838 -0.3157 -0.0084
  902SOL    HW2 3681   3.448   1.225   1.555  1.0090  2.0892  2.6872
  902SOL    HW3 3682   3.302   1.256   1.580  0.1820  0.1894  0.3782
  902SOL    MW4 3683   3.376   1.271   1.537  0.2189  0.0682  0.3983
  903SOL     OW 3684   3.357   1.545   1.623  0.4399  0.1408 -0.2067
  903SOL    HW2 3685   3.377   1.542   1.717  0.1655  1.5569 -0.0883
  903SOL    HW3 3686   3.373   1.456   1.592 -0.6828 -0.6652  1.4312
  903SOL    MW4 3687   3.362   1.533   1.632  0.2556  0.2213  0.0250
  904SOL     OW 3688   3.116   1.638   1.495 -0.0339  0.5783 -0.1005
  904SOL    HW2 3689   3.189   1.595   1.539 -0.8299 -0.0279  0.6428
  904SOL    HW3 3690   3.038   1.606   1.541 -0.7583  1.2984 -0.8144
  904SOL    MW4 3691   3.115   1.628   1.507 -0.2344  0.5933 -0.0967
  905SOL     OW 3692   3.166   1.887   1.579  0.2519 -0.3277 -0.1205
  905SOL    HW2 3693   3.136   1.800   1.554  0.4484 -0.2907 -0.4775
  905SOL    HW3 3694   3.108   1.947   1.531  0.4879 -0.2586 -0.3169
  905SOL    MW4 3695   3.154   1.883   1.570  0.3090 -0.3138 -0.1937
  906SOL     OW 3696   3.401   1.995   1.504 -0.0299 -0.0787  0.3522
  906SOL    HW2 3697   3.323   1.941   1.519 -0.1965 -0.0523 -0.3843
  906SOL    HW3 3698   3.405   2.006   1.409  0.6753  0.2175  0.4089
  906SOL    MW4 3699   3.391   1.990   1.493  0.0410 -0.0360  0.2625
  907SOL     OW 3700   3.388   2.261   1.579 -0.3096 -0.4947 -0.3656
  907SOL    HW2 3701   3.474   2.296   1.556 -0.7310 -0.1978 -1.5524
  907SOL    HW3 3702   3.394   2.168   1.559 -0.3412 -0.4255 -0.7090
  907SOL    MW4 3703   3.400   2.254   1.573 -0.3695 -0.4466 -0.5676
  908SOL     OW 3704   3.178   2.407   1.488  0.3261  0.0236 -0.0299
  908SOL    HW2 3705   3.252   2.366   1.533 -0.9480 -0.9926  1.1684
  908SOL    HW3 3706   3.104   2.349   1.504 -0.8195  1.1832 -0.9553
  908SOL    MW4 3707   3.178   2.394   1.496  0.0069  0.0424  0.0062
  909SOL     OW 3708   3.158   2.679   1.559  0.3740 -0.1918 -0.1357
  909SOL    HW2 3709   3.231   2.722   1.515  1.0485 -1.4337 -0.2627
  909SOL    HW3 3710   3.170   2.586   1.540 -0.1406 -0.6081  1.4710
  909SOL    MW4 3711   3.169   2.673   1.551  0.3948 -0.4106  0.0595
  910SOL     OW 3712   3.391   2.793   1.458  0.2904  0.3454  0.4614
  910SOL    HW2 3713   3.385   2.877   1.503  0.8656  0.1877  0.8390
  910SOL    HW3 3714   3.374   2.813   1.366  0.2769  0.8495  0.5744
  910SOL    MW4 3715   3.388   2.807   1.452  0.3645  0.3912  0.5262
  911SOL     OW 3716   3.376   3.053   1.573 -0.2576  0.1770 -0.2951
  911SOL    HW2 3717   3.387   3.069   1.667  0.6745 -0.6209 -0.2602
  911SOL    HW3 3718   3.448   3.101   1.532 -0.0025 -0.3881 -0.5155
  911SOL    MW4 3719   3.387   3.062   1.580 -0.1011 -0.0031 -0.3196
  912SOL     OW 3720   3.167   3.182   1.465  0.4049  0.0320 -0.0640
  912SOL    HW2 3721   3.242   3.135   1.501  0.9518 -2.0719 -3.6534
  912SOL    HW3 3722   3.092   3.124   1.480  0.3015  0.0454 -0.5070
  912SOL    MW4 3723   3.167   3.168   1.472  0.4635 -0.2439 -0.5959
  913SOL     OW 3724   3.127   3.427   1.612  0.4597 -0.8773 -0.0284
  913SOL    HW2 3725   3.116   3.339   1.575 -0.4547 -0.8615  0.1928
  913SOL    HW3 3726   3.055   3.477   1.575  0.9854 -0.2110 -0.1593
  913SOL    MW4 3727   3.116   3.422   1.602  0.4084 -0.7873 -0.0165
  914SOL     OW 3728   3.315   3.580   1.480  0.0305 -0.5620 -0.5109
  914SOL    HW2 3729   3.400   3.542   1.504  0.1219  1.1513  2.1265
  914SOL    HW3 3730   3.252   3.531   1.532 -0.2618  0.1054 -0.2260
  914SOL    MW4 3731   3.318   3.569   1.490  0.0041 -0.2480 -0.1253
  915SOL     OW 3732   3.345   3.834   1.580  0.0313  0.3745  0.1203
  915SOL    HW2 3733   3.263   3.880   1.563 -0.6084 -1.1042 -0.9557
  915SOL    HW3 3734   3.333   3.748   1.538  2.1773  0.1924 -0.1571
  915SOL    MW4 3735   3.333   3.828   1.572  0.2301  0.1554 -0.0584
  916SOL     OW 3736   3.146   3.996   1.442 -0.2709  0.9373 -0.6456
  916SOL    HW2 3737   3.136   4.081   1.484 -0.6354  1.2521 -1.3674
  916SOL    HW3 3738   3.080   3.940   1.483  1.4738  0.3637  1.4630
  916SOL    MW4 3739   3.136   4.000   1.453 -0.0889  0.9031 -0.4627
  917SOL     OW 3740   3.145   4.247   1.552 -0.6239 -0.4553 -0.2135
  917SOL    HW2 3741   3.128   4.251   1.646  0.2330  0.0749 -0.0721
  917SOL    HW3 3742   3.070   4.290   1.512 -1.1596 -0.9831  0.2030
  917SOL    MW4 3743   3.133   4.253   1.559 -0.5817 -0.4549 -0.1398
  918SOL     OW 3744   3.377   4.385   1.452 -0.0868  0.3029 -0.4961
  918SOL    HW2 3745   3.316   4.319   1.483 -0.8941  1.2236 -0.1047
  918SOL    HW3 3746   3.359   4.392   1.358 -0.0693  0.0505 -0.5201
  918SOL    MW4 3747   3.367   4.377   1.444 -0.1907  0.3910 -0.4478
  919SOL     OW 3748   3.813   4.639   1.557 -0.4846  0.0081 -0.1539
  919SOL    HW2 3749   3.825   4.650   1.651  0.1853  1.2609 -0.3713
  919SOL    HW3 3750   3.897   4.667   1.519 -1.5303  1.6836 -1.2705
  919SOL    MW4 3751   3.826   4.644   1.564 -0.5341  0.3948 -0.3299
  920SOL     OW 3752   3.597   0.098   1.462 -0.4388  0.2875  0.4451
  920SOL    HW2 3753   3.667   0.039   1.492  0.5843  0.8242 -0.8529
  920SOL    HW3 3754   3.598   0.090   1.367 -1.0522  1.5605  0.3283
  920SOL    MW4 3755   3.607   0.089   1.454 -0.3846  0.5263  0.2584
  921SOL     OW 3756   3.615   0.324   1.608 -0.1668 -0.5367  0.4591
  921SOL    HW2 3757   3.600   0.252   1.546 -0.1362 -0.4754  0.3807
  921SOL    HW3 3758   3.539   0.381   1.598 -0.4475 -0.8315  0.9022
  921SOL    MW4 3759   3.603   0.322   1.598 -0.1996 -0.5676  0.5072
  922SOL     OW 3760   3.808   0.483   1.483 -0.0795 -0.2922 -0.2863
  922SOL    HW2 3761   3.738   0.428   1.519 -0.1688 -0.4465 -0.6826
  922SOL    HW3 3762   3.800   0.471   1.388  1.8644 -2.0248 -0.2675
  922SOL    MW4 3763   3.798   0.474   1.475  0.1655 -0.5412 -0.3362
  923SOL     OW 3764   3.824   0.760   1.529  0.3820  0.2856 -0.4725
  923SOL    HW2 3765   3.740   0.803   1.509  0.5829  1.3872  0.9945
  923SOL    HW3 3766   3.805   0.667   1.521 -1.1665  0.5005  0.4471
  923SOL    MW4 3767   3.810   0.754   1.525  0.2041  0.4593 -0.1576
  924SOL     OW 3768   3.592   0.887   1.449  0.3651  0.1473  0.0437
  924SOL    HW2 3769   3.515   0.831   1.460 -0.8667  2.0200  1.4543
  924SOL    HW3 3770   3.594   0.907   1.356 -1.2504  0.5688  0.0763
  924SOL    MW4 3771   3.582   0.883   1.438 -0.0105  0.4501  0.2340
  925SOL     OW 3772   3.604   1.109   1.601 -0.4484 -0.2178  0.1652
  925SOL    HW2 3773   3.671   1.159   1.555  0.7379 -1.0288  0.9615
  925SOL    HW3 3774   3.599   1.026   1.553  1.0066 -1.1882  1.5999
  925SOL    MW4 3775   3.612   1.104   1.589 -0.0999 -0.4528  0.4596
  926SOL     OW 3776   3.802   1.268   1.481 -0.0539 -0.1738  0.2363
  926SOL    HW2 3777   3.874   1.221   1.522  0.8698 -0.0694 -1.2430
  926SOL    HW3 3778   3.819   1.360   1.501  0.3112 -0.1360 -0.2451
  926SOL    MW4 3779   3.813   1.274   1.489  0.1163 -0.1551 -0.0224
  927SOL     OW 3780   3.836   1.531   1.578  0.0910 -0.0580  0.4039
  927SOL    HW2 3781   3.849   1.526   1.672  0.4103 -0.5008  0.3370
  927SOL    HW3 3782   3.749   1.569   1.568 -0.7650 -1.8348  0.9026
  927SOL    MW4 3783   3.826   1.535   1.589  0.0198 -0.3510  0.4609
  928SOL     OW 3784   3.610   1.667   1.530 -0.2722 -0.0035  0.1265
  928SOL    HW2 3785   3.527   1.633   1.565 -0.2827 -0.2442 -0.1333
  928SOL    HW3 3786   3.598   1.665   1.435  0.1157 -0.2453  0.0819
  928SOL    MW4 3787   3.597   1.662   1.522 -0.2224 -0.0672  0.0864
  929SOL     OW 3788   3.638   1.920   1.610  0.0650 -0.1172 -0.0644
  929SOL    HW2 3789   3.629   1.829   1.583 -0.7595 -0.3076  0.8334
  929SOL    HW3 3790   3.549   1.956   1.603  0.7325  1.1688 -2.3434
  929SOL    MW4 3791   3.625   1.913   1.606  0.0443  0.0273 -0.2466
  930SOL     OW 3792   3.849   2.029   1.474 -0.0644 -0.1265 -0.1457
  930SOL    HW2 3793   3.874   2.107   1.522 -1.2473 -0.0544  0.3671
  930SOL    HW3 3794   3.779   1.990   1.526 -0.9493 -0.3691 -1.5102
  930SOL    MW4 3795   3.843   2.034   1.487 -0.3374 -0.1490 -0.2581
  931SOL     OW 3796   3.886   2.286   1.556 -0.1397 -0.1409  0.0994
  931SOL    HW2 3797   3.894   2.292   1.651  1.7596  0.1579 -0.0670
  931SOL    HW3 3798   3.944   2.354   1.522 -0.7553 -0.2802 -1.2791
  931SOL    MW4 3799   3.894   2.296   1.564  0.0300 -0.1199 -0.1044
  932SOL     OW 3800   3.629   2.385   1.522  0.0038 -0.0238 -0.1234
  932SOL    HW2 3801   3.643   2.477   1.545 -1.9646  0.3825 -0.5235
  932SOL    HW3 3802   3.717   2.346   1.528  0.7535  1.7156  0.6942
  932SOL    MW4 3803   3.643   2.392   1.526 -0.1569  0.2592 -0.0683
  933SOL     OW 3804   3.616   2.656   1.571  0.1853  0.0432 -0.0521
  933SOL    HW2 3805   3.610   2.684   1.662  1.0613  2.9610 -0.8326
  933SOL    HW3 3806   3.531   2.678   1.533  0.3595  0.3211 -0.2943
  933SOL    MW4 3807   3.604   2.663   1.578  0.3238  0.4647 -0.1872
  934SOL     OW 3808   3.805   2.831   1.444 -0.4194  0.4787  0.6136
  934SOL    HW2 3809   3.882   2.816   1.499  0.4239  0.9554 -0.4312
  934SOL    HW3 3810   3.737   2.775   1.482  0.1762  0.7382  2.0843
  934SOL    MW4 3811   3.806   2.822   1.456 -0.2298  0.5758  0.6698
  935SOL     OW 3812   3.798   3.084   1.569  0.5700  0.3965  0.5159
  935SOL    HW2 3813   3.858   3.143   1.524  0.8933  1.2434  2.0209
  935SOL    HW3 3814   3.797   3.005   1.515  2.2562  0.7524 -0.0745
  935SOL    MW4 3815   3.806   3.081   1.556  0.8352  0.5553  0.6366
  936SOL     OW 3816   3.588   3.210   1.477  0.0915  0.4565  0.5736
  936SOL    HW2 3817   3.664   3.160   1.506  0.7825  1.0522 -0.1731
  936SOL    HW3 3818   3.589   3.201   1.381  1.1984  3.2585  0.2831
  936SOL    MW4 3819   3.598   3.202   1.468  0.3285  0.9050  0.4368
  937SOL     OW 3820   3.545   3.463   1.554  0.4309  0.4222 -0.3953
  937SOL    HW2 3821   3.619   3.513   1.519  0.0572  1.1171 -0.2014
  937SOL    HW3 3822   3.563   3.372   1.529  1.1995  0.6305 -0.6060
  937SOL    MW4 3823   3.557   3.458   1.546  0.4830  0.5412 -0.3974
  938SOL     OW 3824   3.755   3.615   1.460  0.0876 -0.0868 -0.0471
  938SOL    HW2 3825   3.826   3.569   1.505 -0.9370 -0.2992  1.3724
  938SOL    HW3 3826   3.761   3.705   1.492  0.3926  0.1519 -0.7635
  938SOL    MW4 3827   3.765   3.621   1.470 -0.0072 -0.0834  0.0457
  939SOL     OW 3828   3.753   3.866   1.567 -0.2648 -0.3595 -0.0797
  939SOL    HW2 3829   3.824   3.919   1.530  0.7128 -1.0113  0.8052
  939SOL    HW3 3830   3.673   3.910   1.539  0.4503 -0.2933 -2.1525
  939SOL    MW4 3831   3.752   3.879   1.558 -0.0415 -0.4368 -0.2364
  940SOL     OW 3832   3.517   3.976   1.418 -0.2339  0.2176 -0.1528
  940SOL    HW2 3833   3.532   4.051   1.476  0.7511  0.5014 -0.7565
  940SOL    HW3 3834   3.432   3.941   1.445 -0.1156  0.7799  0.9819
  940SOL    MW4 3835   3.508   3.981   1.429 -0.0880  0.3293 -0.0829
  941SOL     OW 3836   3.595   4.219   1.541  0.0404  0.1416  0.3568
  941SOL    HW2 3837   3.572   4.224   1.634  0.0597  0.4659  0.3457
  941SOL    HW3 3838   3.527   4.271   1.497  0.9792  1.3876  0.3548
  941SOL    MW4 3839   3.583   4.227   1.548  0.1667  0.3481  0.3551
  942SOL     OW 3840   3.794   4.381   1.420 -0.0876  0.3894  0.3958
  942SOL    HW2 3841   3.738   4.328   1.477 -0.0968  0.4573  0.4505
  942SOL    HW3 3842   3.798   4.467   1.463  0.1014  0.3686  0.4193
  942SOL    MW4 3843   3.787   4.386   1.433 -0.0639  0.3953  0.4061
  943SOL     OW 3844   4.293   4.656   1.604 -0.0235  0.4561  0.1722
  943SOL    HW2 3845   4.289   4.638   1.697 -2.4438  0.8754  0.1773
  943SOL    HW3 3846   4.286   4.570   1.562  1.3117  0.2464  0.3695
  943SOL    MW4 3847   4.291   4.642   1.610 -0.1669  0.4835  0.1990
  944SOL     OW 3848   4.066   0.083   1.459  0.1568 -0.4488 -0.3768
  944SOL    HW2 3849   4.046   0.167   1.500  1.4389 -0.3851  0.1433
  944SOL    HW3 3850   4.129   0.042   1.518  0.0301 -1.4928 -0.9599
  944SOL    MW4 3851   4.071   0.089   1.472  0.3095 -0.5782 -0.3852
  945SOL     OW 3852   4.029   0.328   1.561 -0.2533 -0.1270 -0.7181
  945SOL    HW2 3853   4.024   0.329   1.657 -2.4928 -2.1462 -0.7628
  945SOL    HW3 3854   3.960   0.388   1.533 -0.7350 -0.8522 -1.0854
  945SOL    MW4 3855   4.019   0.336   1.570 -0.6123 -0.4891 -0.7726
  946SOL     OW 3856   4.259   0.459   1.498  0.0005  0.7819 -0.0951
  946SOL    HW2 3857   4.183   0.406   1.523  0.1387  0.5455 -0.1729
  946SOL    HW3 3858   4.331   0.422   1.549  0.9562 -1.7446 -3.0941
  946SOL    MW4 3859   4.258   0.447   1.508  0.1454  0.4174 -0.5010
  947SOL     OW 3860   4.253   0.754   1.586  0.6027 -0.0909  0.2380
  947SOL    HW2 3861   4.249   0.660   1.569 -0.9849  0.1635 -1.0274
  947SOL    HW3 3862   4.336   0.782   1.548  0.8615 -0.9102  0.1883
  947SOL    MW4 3863   4.263   0.745   1.579  0.4272 -0.1654  0.0644
  948SOL     OW 3864   4.050   0.928   1.469  0.1832  0.2938  0.0470
  948SOL    HW2 3865   4.119   0.878   1.512  0.6066 -0.0879 -1.0431
  948SOL    HW3 3866   3.971   0.875   1.479  0.5380 -0.3821 -0.7098
  948SOL    MW4 3867   4.049   0.915   1.476  0.2861  0.1543 -0.1967
  949SOL     OW 3868   4.026   1.179   1.590  0.1110  0.1178 -0.2394
  949SOL    HW2 3869   4.059   1.186   1.680  1.3418  1.8354 -0.7868
  949SOL    HW3 3870   4.036   1.087   1.568  0.2416 -0.2316  1.2316
  949SOL    MW4 3871   4.032   1.168   1.599  0.2904  0.2983 -0.1175
  950SOL     OW 3872   4.244   1.289   1.485 -0.1194 -0.1883 -0.2626
  950SOL    HW2 3873   4.173   1.243   1.529  0.3134  1.3891  2.2275
  950SOL    HW3 3874   4.324   1.247   1.518  0.1831  0.4974 -0.0964
  950SOL    MW4 3875   4.245   1.278   1.496 -0.0219  0.1101  0.0879
  951SOL     OW 3876   4.284   1.538   1.613  0.3040 -0.3666 -0.1286
  951SOL    HW2 3877   4.281   1.459   1.560  1.0382 -0.2686 -0.3175
  951SOL    HW3 3878   4.358   1.588   1.578  0.2358  0.1122  0.3999
  951SOL    MW4 3879   4.293   1.534   1.601  0.3915 -0.2905 -0.0837
  952SOL     OW 3880   4.053   1.630   1.475  0.0546  0.2495  0.6394
  952SOL    HW2 3881   4.125   1.596   1.529  0.7474 -1.2561 -1.1511
  952SOL    HW3 3882   3.977   1.579   1.502  0.7583 -1.7018 -0.9249
  952SOL    MW4 3883   4.053   1.618   1.486  0.2389 -0.2066  0.1967
  953SOL     OW 3884   4.054   1.901   1.570  0.1872  0.0710 -0.5734
  953SOL    HW2 3885   4.063   1.813   1.534 -0.9416 -0.1018 -0.4362
  953SOL    HW3 3886   3.971   1.934   1.534  0.7552  1.1990 -0.8762
  953SOL    MW4 3887   4.044   1.894   1.560  0.1135  0.1972 -0.5953
  954SOL     OW 3888   4.267   2.055   1.519 -0.5891  0.4776  0.4572
  954SOL    HW2 3889   4.183   2.012   1.537 -0.1056  0.0677  1.7743
  954SOL    HW3 3890   4.274   2.053   1.424 -1.2985 -0.9983  0.4108
  954SOL    MW4 3891   4.257   2.049   1.509 -0.6194  0.2289  0.6249
  955SOL     OW 3892   4.317   2.305   1.629  0.2062  0.1187  0.1462
  955SOL    HW2 3893   4.292   2.309   1.722  0.4344  0.2633  0.2003
  955SOL    HW3 3894   4.296   2.216   1.603 -1.0504  0.4446  0.0064
  955SOL    MW4 3895   4.311   2.294   1.638  0.0701  0.1807  0.1351
  956SOL     OW 3896   4.111   2.473   1.501  0.6230  0.2988 -0.0170
  956SOL    HW2 3897   4.082   2.558   1.535 -0.2601  0.4747 -1.1705
  956SOL    HW3 3898   4.169   2.438   1.569  0.0372  1.2838  1.0062
  956SOL    MW4 3899   4.115   2.479   1.514  0.4292  0.4520 -0.0342
  957SOL     OW 3900   4.027   2.725   1.575  0.2204  0.2550 -0.2965
  957SOL    HW2 3901   4.027   2.723   1.670  0.7396 -0.6124 -0.3114
  957SOL    HW3 3902   4.112   2.763   1.551 -0.3286  1.4327 -0.4014
  957SOL    MW4 3903   4.038   2.729   1.584  0.2160  0.2961 -0.3122
  958SOL     OW 3904   4.257   2.852   1.450  0.0416 -0.0852 -0.1122
  958SOL    HW2 3905   4.233   2.942   1.471  1.7557 -0.3054  3.0207
  958SOL    HW3 3906   4.273   2.853   1.355 -2.6703  2.2215 -0.6208
  958SOL    MW4 3907   4.256   2.864   1.440 -0.0906  0.1900  0.2341
  959SOL     OW 3908   4.214   3.119   1.558 -0.1717 -0.0577  0.1456
  959SOL    HW2 3909   4.230   3.079   1.644  1.0545 -2.0091 -0.9631
  959SOL    HW3 3910   4.297   3.158   1.533  0.0447 -1.2061 -1.0039
  959SOL    MW4 3911   4.227   3.119   1.566  0.0191 -0.4668 -0.1525
  960SOL     OW 3912   3.995   3.237   1.444 -0.6397  0.1397 -0.1370
  960SOL    HW2 3913   3.996   3.319   1.493  0.8415 -0.1385  0.3314
  960SOL    HW3 3914   4.076   3.193   1.469 -1.9798 -2.0443  0.5645
  960SOL    MW4 3915   4.006   3.242   1.454 -0.6208 -0.1850  0.0175
  961SOL     OW 3916   3.958   3.474   1.588 -0.5991  0.2591 -0.1986
  961SOL    HW2 3917   3.952   3.473   1.684  0.1979  3.1881 -0.0453
  961SOL    HW3 3918   4.050   3.497   1.570 -0.4479 -1.4240 -1.7071
  961SOL    MW4 3919   3.970   3.477   1.599 -0.4742  0.4232 -0.3774
  962SOL     OW 3920   4.211   3.574   1.496 -0.1216  0.2619  0.1032
  962SOL    HW2 3921   4.206   3.668   1.514 -0.5554  0.3778 -0.5965
  962SOL    HW3 3922   4.212   3.568   1.400 -0.5783 -0.4669  0.1359
  962SOL    MW4 3923   4.210   3.586   1.486 -0.2389  0.1810  0.0151
  963SOL     OW 3924   4.211   3.850   1.574 -0.1038 -0.0793 -0.1704
  963SOL    HW2 3925   4.147   3.900   1.524 -0.0712  1.0164  0.8562
  963SOL    HW3 3926   4.296   3.885   1.546 -0.0087 -0.6957 -0.6516
  963SOL    MW4 3927   4.214   3.861   1.564 -0.0868 -0.0160 -0.0985
  964SOL     OW 3928   3.995   3.995   1.455 -0.1840 -0.1885 -0.1059
  964SOL    HW2 3929   4.006   4.087   1.480 -0.3133 -0.1265 -0.2817
  964SOL    HW3 3930   4.027   3.990   1.365  0.9089 -0.5500  0.2894
  964SOL    MW4 3931   4.001   4.007   1.447 -0.0563 -0.2284 -0.0768
  965SOL     OW 3932   4.018   4.266   1.529 -0.4286 -0.7695 -0.3680
  965SOL    HW2 3933   4.004   4.260   1.623 -1.7342 -0.7185 -0.5493
  965SOL    HW3 3934   3.936   4.303   1.494  0.2123 -0.3493 -1.4652
  965SOL    MW4 3935   4.005   4.270   1.537 -0.5159 -0.7071 -0.5368
  966SOL     OW 3936   4.264   4.379   1.487  0.2082  0.7024 -0.0835
  966SOL    HW2 3937   4.180   4.339   1.508  1.4012 -1.1406  1.2970
  966SOL    HW3 3938   4.275   4.364   1.393 -0.3354 -0.2930  0.0104
  966SOL    MW4 3939   4.254   4.372   1.478  0.2933  0.3281  0.1111
  967SOL     OW 3940   0.215   4.628   1.898  0.4521 -0.0858  0.2319
  967SOL    HW2 3941   0.292   4.680   1.920  0.2419  1.4497 -2.4781
  967SOL    HW3 3942   0.215   4.623   1.802 -2.5296 -0.4522  0.1864
  967SOL    MW4 3943   0.225   4.634   1.888  0.0309  0.0687 -0.1316
  968SOL     OW 3944   4.463   0.067   1.977 -0.4708 -0.0281 -0.2323
  968SOL    HW2 3945   4.467   0.155   1.938  0.6065 -0.0127 -0.0984
  968SOL    HW3 3946   4.540   0.022   1.942 -0.2496 -0.4662  0.7969
  968SOL    MW4 3947   4.474   0.073   1.967 -0.2995 -0.0838 -0.0789
  969SOL     OW 3948   0.019   0.347   1.886  0.2168  0.2145 -0.0876
  969SOL    HW2 3949  -0.069   0.381   1.899 -0.2415 -1.3454  1.1345
  969SOL    HW3 3950   0.077   0.415   1.920 -0.5088  1.2588 -0.9216
  969SOL    MW4 3951   0.015   0.360   1.892  0.0606  0.1464 -0.0364
  970SOL     OW 3952   0.225   0.540   1.965 -0.2551  0.2628  0.8723
  970SOL    HW2 3953   0.297   0.499   1.916 -0.8553 -1.7851  1.6415
  970SOL    HW3 3954   0.223   0.630   1.934  1.0145 -0.3259 -1.0287
  970SOL    MW4 3955   0.234   0.546   1.954 -0.1668 -0.0851  0.7229
  971SOL     OW 3956   0.215   0.782   1.863  0.0609 -0.1389  0.0655
  971SOL    HW2 3957   0.294   0.827   1.892 -0.7170  1.0280  0.4259
  971SOL    HW3 3958   0.225   0.772   1.768  0.2184  0.8675 -0.0277
  971SOL    MW4 3959   0.226   0.786   1.854 -0.0210  0.1478  0.1007
  972SOL     OW 3960   4.471   0.890   1.971 -0.1992 -0.2722 -0.5783
  972SOL    HW2 3961   4.398   0.835   1.944 -0.3130  0.0519 -0.9286
  972SOL    HW3 3962   4.547   0.851   1.929 -0.3555  0.1509 -1.2540
  972SOL    MW4 3963   4.471   0.878   1.962 -0.2351 -0.1735 -0.7137
  973SOL     OW 3964   0.022   1.148   1.855  0.3476  0.4070 -0.0030
  973SOL    HW2 3965  -0.056   1.194   1.886 -1.1408 -0.9119 -1.6607
  973SOL    HW3 3966   0.007   1.056   1.880  1.6192  0.2230  0.1235
  973SOL    MW4 3967   0.010   1.142   1.863  0.3190  0.2086 -0.2048
  974SOL     OW 3968   0.230   1.293   1.945 -0.3228  0.2951  0.5622
  974SOL    HW2 3969   0.216   1.386   1.927  0.9020  0.2675 -0.6815
  974SOL    HW3 3970   0.161   1.249   1.895 -0.8082  0.5232  1.0271
  974SOL    MW4 3971   0.219   1.299   1.936 -0.2252  0.3215  0.4594
  975SOL     OW 3972   0.250   1.554   1.865 -0.1127 -0.0133  0.4441
  975SOL    HW2 3973   0.328   1.594   1.902  0.9103 -1.7305  0.1893
  975SOL    HW3 3974   0.177   1.606   1.899  1.0791  1.0598  1.3761
  975SOL    MW4 3975   0.250   1.567   1.874  0.1795 -0.0985  0.5335
  976SOL     OW 3976   0.052   1.675   1.983  0.1288 -0.2676 -0.3452
  976SOL    HW2 3977   0.056   1.667   2.078  1.4427 -0.5074 -0.4145
  976SOL    HW3 3978  -0.031   1.633   1.959 -0.2644 -0.0959  0.7027
  976SOL    MW4 3979   0.042   1.668   1.992  0.2503 -0.2766 -0.2160
  977SOL     OW 3980   0.011   1.934   1.895  0.5150  0.0152 -0.2278
  977SOL    HW2 3981  -0.070   1.983   1.911  0.8404  0.3394  0.4376
  977SOL    HW3 3982   0.000   1.853   1.946 -0.4171 -1.0378 -2.0579
  977SOL    MW4 3983  -0.001   1.930   1.904  0.4349 -0.0808 -0.3815
  978SOL     OW 3984   0.225   2.062   2.015 -0.2475  0.3701 -0.3650
  978SOL    HW2 3985   0.231   2.148   1.974  2.6277 -0.5014 -1.9437
  978SOL    HW3 3986   0.152   2.018   1.972 -0.6971  1.4518 -0.6952
  978SOL    MW4 3987   0.216   2.067   2.004  0.0725  0.3974 -0.6168
  979SOL     OW 3988   0.202   2.317   1.883  0.1114 -0.0202 -0.2881
  979SOL    HW2 3989   0.276   2.367   1.919 -1.6308  2.1874  0.3449
  979SOL    HW3 3990   0.127   2.375   1.892 -1.4547 -1.6477 -2.3103
  979SOL    MW4 3991   0.202   2.331   1.889 -0.3251  0.0563 -0.4714
  980SOL     OW 3992   4.478   2.486   1.947 -0.1798 -0.2884  0.0045
  980SOL    HW2 3993   4.492   2.483   2.042 -2.0259  1.5506  0.3770
  980SOL    HW3 3994   4.500   2.576   1.922  0.0467 -0.6873 -1.2787
  980SOL    MW4 3995   4.482   2.497   1.956 -0.3935 -0.0985 -0.1159
  981SOL     OW 3996   0.040   2.740   1.873 -0.8413 -0.2924  0.2546
  981SOL    HW2 3997  -0.038   2.783   1.907  0.4237  0.7106  1.9732
  981SOL    HW3 3998   0.026   2.736   1.778 -2.8366  0.0958  0.5041
  981SOL    MW4 3999   0.028   2.745   1.865 -0.9377 -0.1087  0.5143
  982SOL     OW 4000   0.253   2.847   1.990 -0.0002  0.0564  0.3528
  982SOL    HW2 4001   0.240   2.939   1.967  0.9697 -0.2442 -1.5362
  982SOL    HW3 4002   0.179   2.802   1.950 -0.1424 -0.0513  0.7409
  982SOL    MW4 4003   0.242   2.853   1.982  0.1090  0.0029  0.1547
  983SOL     OW 4004   0.189   3.089   1.883  0.2969 -0.0348 -0.5697
  983SOL    HW2 4005   0.269   3.131   1.915  0.4307 -0.1642 -0.7329
  983SOL    HW3 4006   0.190   3.104   1.789 -0.5682  1.1391 -0.4054
  983SOL    MW4 4007   0.200   3.096   1.875  0.2004  0.1030 -0.5695
  984SOL     OW 4008   4.414   3.195   1.900 -0.2623  0.2415 -0.5073
  984SOL    HW2 4009   4.346   3.136   1.867 -0.9068  0.8092 -0.2007
  984SOL    HW3 4010   4.495   3.144   1.893 -0.7293 -0.4704 -0.7933
  984SOL    MW4 4011   4.416   3.181   1.895 -0.4091  0.2222 -0.5046
  985SOL     OW 4012   4.428   3.466   1.870 -0.4619  0.0625 -0.0528
  985SOL    HW2 4013   4.502   3.500   1.920  0.1655 -0.3123 -0.7190
  985SOL    HW3 4014   4.427   3.372   1.890 -0.7161  0.0546 -0.1012
  985SOL    MW4 4015   4.438   3.458   1.880 -0.4129  0.0119 -0.1471
  986SOL     OW 4016   0.161   3.602   2.011 -0.0763 -0.4491  0.0118
  986SOL    HW2 4017   0.176   3.599   2.105  0.2642  3.2287  0.1476
  986SOL    HW3 4018   0.239   3.563   1.972  0.6416 -0.2137  1.2091
  986SOL    MW4 4019   0.173   3.597   2.018  0.0634  0.0670  0.1874
  987SOL     OW 4020   0.184   3.830   1.886 -0.1714 -0.0739 -0.0785
  987SOL    HW2 4021   0.257   3.874   1.930 -0.3402 -1.4470  1.5998
  987SOL    HW3 4022   0.173   3.748   1.933 -1.1428 -1.0386 -1.9531
  987SOL    MW4 4023   0.192   3.825   1.898 -0.3219 -0.3824 -0.1045
  988SOL     OW 4024   4.463   3.970   1.987 -0.3640 -0.0274  0.0214
  988SOL    HW2 4025   4.469   4.060   1.956  1.5043 -0.3530 -0.6078
  988SOL    HW3 4026   4.539   3.926   1.948 -0.3270 -1.4644  1.6638
  988SOL    MW4 4027   4.474   3.976   1.978 -0.1125 -0.2601  0.1552
  989SOL     OW 4028   4.463   4.240   1.883 -0.1338  0.1070  0.5847
  989SOL    HW2 4029   4.384   4.287   1.911 -0.1307 -0.9634  2.4768
  989SOL    HW3 4030   4.535   4.294   1.913 -0.1430  0.2900  0.2756
  989SOL    MW4 4031   4.462   4.253   1.891 -0.1345 -0.0100  0.7936
  990SOL     OW 4032   0.191   4.359   1.991 -0.1451 -0.7788 -0.1647
  990SOL    HW2 4033   0.207   4.368   2.085  0.0386 -0.7161 -0.2010
  990SOL    HW3 4034   0.196   4.448   1.957  1.8558 -1.0154 -0.5499
  990SOL    MW4 4035   0.194   4.372   1.999  0.1432 -0.8020 -0.2203
  991SOL     OW 4036   0.640   4.642   1.886 -0.4915 -0.3162 -0.1102
  991SOL    HW2 4037   0.648   4.556   1.927 -0.9967 -0.0879  0.4781
  991SOL    HW3 4038   0.674   4.629   1.797 -0.4461 -1.0911  0.0107
  991SOL    MW4 4039   0.646   4.629   1.879 -0.5522 -0.3886 -0.0167
  992SOL     OW 4040   0.427   0.119   1.999 -0.0277 -0.2019 -0.0456
  992SOL    HW2 4041   0.442   0.205   1.960  1.5075 -0.6832 -0.5641
  992SOL    HW3 4042   0.501   0.066   1.968 -1.1999 -1.8290 -0.1068
  992SOL    MW4 4043   0.439   0.123   1.990  0.0202 -0.4801 -0.1222
  993SOL     OW 4044   0.437   0.374   1.894  0.2566  0.0697 -0.0211
  993SOL    HW2 4045   0.520   0.414   1.921 -0.2141  0.7932  0.3655
  993SOL    HW3 4046   0.447   0.362   1.799  0.8973 -0.0698  0.0611
  993SOL    MW4 4047   0.449   0.378   1.885  0.2790  0.1468  0.0408
  994SOL     OW 4048   0.692   0.476   1.911  0.2771  0.3592 -0.3613
  994SOL    HW2 4049   0.698   0.469   2.006  1.4085  1.4369 -0.3386
  994SOL    HW3 4050   0.767   0.425   1.879  0.3562  0.6528 -0.6455
  994SOL    MW4 4051   0.703   0.468   1.919  0.4368  0.5401 -0.3958
  995SOL     OW 4052   0.633   0.739   1.867  0.3005 -0.3213  0.5450
  995SOL    HW2 4053   0.717   0.786   1.868  0.2604 -0.2041 -0.5766
  995SOL    HW3 4054   0.656   0.649   1.890  1.2131 -0.9769 -2.6741
  995SOL    MW4 4055   0.647   0.733   1.870  0.4156 -0.3924 -0.0277
  996SOL     OW 4056   0.444   0.894   1.977 -0.5296 -0.2512  0.8265
  996SOL    HW2 4057   0.459   0.985   1.951 -2.1078 -0.2171 -0.0282
  996SOL    HW3 4058   0.512   0.845   1.931  0.4588  0.5172  1.4568
  996SOL    MW4 4059   0.455   0.899   1.968 -0.6074 -0.1453  0.7968
  997SOL     OW 4060   0.478   1.154   1.875  0.5984  0.1961 -0.2925
  997SOL    HW2 4061   0.407   1.218   1.882  1.0406  0.4512  2.5985
  997SOL    HW3 4062   0.484   1.135   1.782 -2.3953  1.1616 -0.7513
  997SOL    MW4 4063   0.469   1.160   1.864  0.2618  0.3572  0.0285
  998SOL     OW 4064   0.691   1.299   1.968 -0.1628  0.2906  0.4044
  998SOL    HW2 4065   0.675   1.300   2.062  0.8883 -1.5344  0.6154
  998SOL    HW3 4066   0.618   1.248   1.932  0.1584 -0.1543  0.3794
  998SOL    MW4 4067   0.679   1.293   1.976  0.0183 -0.0088  0.4290
  999SOL     OW 4068   0.736   1.556   1.881  0.0599 -0.5070 -0.1312
  999SOL    HW2 4069   0.733   1.464   1.906  0.0844 -0.6700 -0.7157
  999SOL    HW3 4070   0.719   1.556   1.787  1.4870 -0.0404 -0.4054
  999SOL    MW4 4071   0.733   1.544   1.872  0.2515 -0.4668 -0.2446
 1000SOL     OW 4072   0.475   1.648   1.989  0.0724  0.3573  0.2364
 1000SOL    HW2 4073   0.472   1.653   2.085  0.5162 -0.0690  0.2750
 1000SOL    HW3 4074   0.557   1.602   1.971  1.0037  2.2494 -0.4032
 1000SOL    MW4 4075   0.485   1.643   2.000  0.2539  0.5506  0.1571
 1001SOL     OW 4076   0.430   1.914   1.875  0.2207 -0.0807  0.4969
 1001SOL    HW2 4077   0.442   1.828   1.916  0.3302 -0.1136  0.3969
 1001SOL    HW3 4078   0.366   1.959   1.931  0.7191  0.0495  0.9751
 1001SOL    MW4 4079   0.423   1.909   1.888  0.3009 -0.0679  0.5466
 1002SOL     OW 4080   0.702   2.048   1.959  0.0782 -0.2645  0.2942
 1002SOL    HW2 4081   0.704   2.032   2.054 -0.9829  0.2165  0.3979
 1002SOL    HW3 4082   0.621   2.008   1.930  0.9540 -1.4063 -0.6065
 1002SOL    MW4 4083   0.692   2.040   1.968  0.0538 -0.3517  0.1889
 1003SOL     OW 4084   0.655   2.312   1.877  0.0826 -0.7665  0.4436
 1003SOL    HW2 4085   0.683   2.224   1.904  0.0371 -1.0969 -0.5789
 1003SOL    HW3 4086   0.675   2.316   1.784  0.2606  0.3822  0.5194
 1003SOL    MW4 4087   0.662   2.301   1.869  0.1001 -0.6583  0.3188
 1004SOL     OW 4088   0.429   2.437   1.981 -0.5741 -0.0378 -0.2540
 1004SOL    HW2 4089   0.435   2.423   2.075 -0.3425  2.4758  0.1457
 1004SOL    HW3 4090   0.500   2.383   1.944  0.3630  0.1973  1.1576
 1004SOL    MW4 4091   0.439   2.428   1.988 -0.4199  0.3247 -0.0149
 1005SOL     OW 4092   0.449   2.697   1.882 -0.0752  0.1840  0.4014
 1005SOL    HW2 4093   0.445   2.606   1.912 -1.9764 -0.1260 -0.6785
 1005SOL    HW3 4094   0.374   2.738   1.925  0.5504  1.1525  0.5653
 1005SOL    MW4 4095   0.438   2.690   1.892 -0.2434  0.2711  0.2806
 1006SOL     OW 4096   0.669   2.857   1.953  0.1846  0.1049 -0.1763
 1006SOL    HW2 4097   0.651   2.879   2.044 -0.9264  0.6575 -0.5304
 1006SOL    HW3 4098   0.600   2.795   1.929 -0.4834  1.2084 -1.1274
 1006SOL    MW4 4099   0.658   2.852   1.962 -0.0501  0.3233 -0.3486
 1007SOL     OW 4100   0.631   3.112   1.849  0.0478 -0.3079 -0.1784
 1007SOL    HW2 4101   0.641   3.021   1.875  1.5638  0.0268  0.4573
 1007SOL    HW3 4102   0.619   3.109   1.754 -0.8309 -1.2087 -0.0544
 1007SOL    MW4 4103   0.630   3.100   1.840  0.1319 -0.3827 -0.0781
 1008SOL     OW 4104   0.400   3.211   1.979 -0.0040  0.1178 -0.0746
 1008SOL    HW2 4105   0.387   3.303   1.954  0.6148  0.7378  1.8461
 1008SOL    HW3 4106   0.484   3.187   1.939 -0.3336  0.2589 -0.8782
 1008SOL    MW4 4107   0.409   3.220   1.970  0.0342  0.2182  0.0727
 1009SOL     OW 4108   0.376   3.489   1.868 -0.2546 -0.2869  0.0937
 1009SOL    HW2 4109   0.456   3.524   1.908 -0.7278  0.7651  0.1311
 1009SOL    HW3 4110   0.400   3.475   1.776 -0.1191  0.3485  0.0243
 1009SOL    MW4 4111   0.390   3.492   1.861 -0.2991 -0.0641  0.0895
 1010SOL     OW 4112   0.629   3.564   1.960  0.3392 -0.1326 -0.2906
 1010SOL    HW2 4113   0.718   3.536   1.939  0.4405  0.2411 -0.3664
 1010SOL    HW3 4114   0.619   3.647   1.914  0.0452 -0.0394 -0.0568
 1010SOL    MW4 4115   0.640   3.571   1.951  0.3138 -0.0708 -0.2699
 1011SOL     OW 4116   0.632   3.828   1.853 -0.7017 -0.0187  0.1152
 1011SOL    HW2 4117   0.714   3.862   1.887 -0.6009  0.5753 -0.6948
 1011SOL    HW3 4118   0.643   3.830   1.758 -1.1494 -1.1932  0.0336
 1011SOL    MW4 4119   0.644   3.833   1.845 -0.7475 -0.0954 -0.0024
 1012SOL     OW 4120   0.407   3.981   1.951 -0.5981 -0.4376 -0.1854
 1012SOL    HW2 4121   0.438   4.072   1.948 -1.3083 -0.2544 -2.1746
 1012SOL    HW3 4122   0.481   3.930   1.919 -0.6342 -0.4590 -0.2334
 1012SOL    MW4 4123   0.421   3.986   1.947 -0.6966 -0.4163 -0.4541
 1013SOL     OW 4124   0.429   4.256   1.885 -0.1481 -0.2817  0.1132
 1013SOL    HW2 4125   0.344   4.296   1.906 -0.2108  0.5739 -1.6203
 1013SOL    HW3 4126   0.427   4.246   1.790  2.1476  0.7689 -0.0675
 1013SOL    MW4 4127   0.417   4.260   1.875  0.1465 -0.0296 -0.1392
 1014SOL     OW 4128   0.651   4.379   2.008  0.6107 -0.1266 -0.1415
 1014SOL    HW2 4129   0.727   4.338   1.969  0.4681 -0.3025 -0.2322
 1014SOL    HW3 4130   0.576   4.336   1.967  0.4616 -0.6681  0.7008
 1014SOL    MW4 4131   0.651   4.368   1.998  0.5722 -0.2217 -0.0424
 1015SOL     OW 4132   1.088   4.664   1.843 -0.0782 -0.7848  0.1102
 1015SOL    HW2 4133   1.151   4.715   1.894 -0.4175 -0.0024 -0.2444
 1015SOL    HW3 4134   1.087   4.578   1.886  1.1049 -0.7609  0.2153
 1015SOL    MW4 4135   1.096   4.659   1.856  0.0330 -0.6790  0.0772
 1016SOL     OW 4136   0.881   0.100   1.984 -0.2536 -0.3553  0.4088
 1016SOL    HW2 4137   0.944   0.040   1.943 -0.0835 -0.5755  0.9770
 1016SOL    HW3 4138   0.796   0.062   1.964 -0.1666 -0.5180  0.3397
 1016SOL    MW4 4139   0.878   0.087   1.976 -0.2198 -0.4058  0.4747
 1017SOL     OW 4140   0.933   0.349   1.862 -0.1809  0.3713  0.1247
 1017SOL    HW2 4141   1.011   0.390   1.899  0.6478  0.5642 -1.7811
 1017SOL    HW3 4142   0.915   0.275   1.919 -0.0977  1.7965  2.0423
 1017SOL    MW4 4143   0.941   0.345   1.874 -0.0606  0.5848  0.1262
 1018SOL     OW 4144   1.147   0.481   2.008  0.7852  0.2383 -0.4146
 1018SOL    HW2 4145   1.222   0.441   1.964  0.0558 -0.6394 -0.8941
 1018SOL    HW3 4146   1.134   0.564   1.962  1.5696  0.4770 -0.2084
 1018SOL    MW4 4147   1.155   0.487   1.996  0.7924  0.1540 -0.4505
 1019SOL     OW 4148   1.141   0.725   1.875  0.2694  0.4290  0.1534
 1019SOL    HW2 4149   1.205   0.788   1.909  0.1476  0.4250  0.3930
 1019SOL    HW3 4150   1.056   0.760   1.902  0.2732 -0.5304  1.4735
 1019SOL    MW4 4151   1.138   0.738   1.883  0.2538  0.3019  0.3591
 1020SOL     OW 4152   0.886   0.873   1.919 -0.0585  0.2786 -0.3949
 1020SOL    HW2 4153   0.876   0.873   2.014  0.1805 -2.2999 -0.3144
 1020SOL    HW3 4154   0.895   0.965   1.895 -1.5716  1.0639  1.9149
 1020SOL    MW4 4155   0.886   0.885   1.929 -0.2266  0.0421 -0.0795
 1021SOL     OW 4156   0.931   1.164   1.876  0.2185  0.1694 -0.4721
 1021SOL    HW2 4157   0.844   1.190   1.907 -0.0390 -1.1925 -0.0166
 1021SOL    HW3 4158   0.926   1.173   1.781 -0.3962  0.1858 -0.4429
 1021SOL    MW4 4159   0.919   1.169   1.868  0.1035 -0.0081 -0.4082
 1022SOL     OW 4160   1.168   1.299   1.993  0.0042  0.0876  0.0347
 1022SOL    HW2 4161   1.171   1.388   1.957 -1.2865  0.2329  0.2685
 1022SOL    HW3 4162   1.095   1.258   1.949  1.4209 -1.3101 -1.0556
 1022SOL    MW4 4163   1.159   1.305   1.983  0.0209 -0.0775 -0.0782
 1023SOL     OW 4164   1.170   1.535   1.864  0.0446  0.4370  0.0305
 1023SOL    HW2 4165   1.107   1.595   1.904 -0.3935  0.0873 -0.1310
 1023SOL    HW3 4166   1.152   1.540   1.770  0.0892  0.1505  0.0072
 1023SOL    MW4 4167   1.159   1.543   1.857 -0.0073  0.3531  0.0062
 1024SOL     OW 4168   0.972   1.692   1.998  0.4626 -0.3381 -0.0495
 1024SOL    HW2 4169   0.959   1.786   1.985 -0.4710 -0.2892  1.1596
 1024SOL    HW3 4170   0.899   1.651   1.952 -0.2115 -0.3816  1.0592
 1024SOL    MW4 4171   0.961   1.699   1.990  0.2505 -0.3374  0.2563
 1025SOL     OW 4172   0.947   1.970   1.878 -0.0360 -0.1466  0.6627
 1025SOL    HW2 4173   0.859   2.000   1.901 -0.4342  0.9676 -2.2308
 1025SOL    HW3 4174   0.949   1.969   1.783  3.1247 -0.0559  0.6617
 1025SOL    MW4 4175   0.936   1.974   1.869  0.3285  0.0123  0.2810
 1026SOL     OW 4176   1.196   2.058   1.933  0.7068  0.3593 -0.0813
 1026SOL    HW2 4177   1.194   2.153   1.923  0.4873  0.3449 -0.1545
 1026SOL    HW3 4178   1.109   2.028   1.907  0.9826  0.0751 -0.6886
 1026SOL    MW4 4179   1.184   2.067   1.928  0.7143  0.3197 -0.1711
 1027SOL     OW 4180   1.121   2.325   1.860 -0.2463 -0.0213 -0.1927
 1027SOL    HW2 4181   1.187   2.387   1.890  0.0944 -0.8070  0.6911
 1027SOL    HW3 4182   1.118   2.337   1.765  0.5359  0.6178 -0.1405
 1027SOL    MW4 4183   1.129   2.335   1.851 -0.0981 -0.0408 -0.0693
 1028SOL     OW 4184   0.884   2.439   1.953 -0.5386  0.1925  0.2880
 1028SOL    HW2 4185   0.948   2.383   1.910  0.0495  0.5241  0.7309
 1028SOL    HW3 4186   0.800   2.410   1.918 -0.1053  0.1304 -0.7252
 1028SOL    MW4 4187   0.881   2.428   1.942 -0.4038  0.2279  0.2127
 1029SOL     OW 4188   0.908   2.710   1.888 -0.0487  0.2815 -0.7153
 1029SOL    HW2 4189   0.898   2.622   1.925  1.3025  0.0405 -0.8907
 1029SOL    HW3 4190   0.843   2.763   1.934  0.0245 -0.5212  0.3305
 1029SOL    MW4 4191   0.898   2.705   1.899  0.1392  0.1438 -0.6006
 1030SOL     OW 4192   1.153   2.851   1.934  0.3887  0.1316 -0.2494
 1030SOL    HW2 4193   1.156   2.868   2.028  0.9089 -1.2848 -0.0049
 1030SOL    HW3 4194   1.067   2.812   1.919  0.3310  0.2975 -0.3510
 1030SOL    MW4 4195   1.142   2.848   1.944  0.4498 -0.0331 -0.2306
 1031SOL     OW 4196   1.101   3.110   1.816 -0.0965 -0.1215 -0.0014
 1031SOL    HW2 4197   1.024   3.146   1.860 -0.5736  0.3889 -1.2434
 1031SOL    HW3 4198   1.106   3.019   1.848  0.6800  0.7765  2.5374
 1031SOL    MW4 4199   1.091   3.103   1.826 -0.0570  0.0646  0.1698
 1032SOL     OW 4200   0.868   3.216   1.955 -0.5974 -0.0392  0.0276
 1032SOL    HW2 4201   0.875   3.191   2.047 -0.4149 -0.8370 -0.2007
 1032SOL    HW3 4202   0.783   3.183   1.927  0.3930 -1.9999 -0.7533
 1032SOL    MW4 4203   0.858   3.209   1.963 -0.4426 -0.4034 -0.1055
 1033SOL     OW 4204   0.891   3.492   1.888  0.0790 -0.4145 -0.0949
 1033SOL    HW2 4205   0.885   3.403   1.924  0.5620 -0.8880 -1.1767
 1033SOL    HW3 4206   0.893   3.480   1.793  1.3278  0.6721 -0.2205
 1033SOL    MW4 4207   0.891   3.479   1.880  0.3074 -0.3335 -0.2543
 1034SOL     OW 4208   1.113   3.665   1.953 -0.1995 -0.8685  0.0641
 1034SOL    HW2 4209   1.118   3.636   2.045  1.5440 -0.2026  0.1964
 1034SOL    HW3 4210   1.031   3.628   1.921 -2.2985  1.2937  2.7252
 1034SOL    MW4 4211   1.103   3.656   1.961 -0.2463 -0.4954  0.4326
 1035SOL     OW 4212   1.122   3.926   1.931  0.2083 -0.0476  0.1077
 1035SOL    HW2 4213   1.130   3.832   1.947  0.2157  0.2126  1.6898
 1035SOL    HW3 4214   1.210   3.961   1.945  0.4813  0.0499 -1.6590
 1035SOL    MW4 4215   1.135   3.918   1.935  0.2453 -0.0002  0.0834
 1036SOL     OW 4216   0.845   3.956   1.992 -0.0341  0.2096  0.3378
 1036SOL    HW2 4217   0.843   3.989   2.082 -1.3203  0.3065  0.2714
 1036SOL    HW3 4218   0.938   3.941   1.975  0.0641 -1.6693  2.3549
 1036SOL    MW4 4219   0.857   3.958   2.001 -0.1908 -0.0255  0.5951
 1037SOL     OW 4220   0.864   4.243   1.881 -0.0995  0.3403 -0.1665
 1037SOL    HW2 4221   0.944   4.279   1.919  0.5709 -0.7047 -0.5670
 1037SOL    HW3 4222   0.851   4.160   1.928  0.4653 -0.7261 -1.8582
 1037SOL    MW4 4223   0.873   4.237   1.892  0.0635  0.0620 -0.4426
 1038SOL     OW 4224   1.090   4.400   1.964  0.0198  0.3720 -0.0448
 1038SOL    HW2 4225   1.096   4.395   2.060 -0.0426 -0.4844 -0.0803
 1038SOL    HW3 4226   1.176   4.371   1.933 -0.0319  0.4440 -0.2546
 1038SOL    MW4 4227   1.102   4.395   1.973  0.0048  0.2685 -0.0770
 1039SOL     OW 4228   1.524   4.648   1.831 -0.1740  0.0253  0.3001
 1039SOL    HW2 4229   1.600   4.701   1.855  0.8890 -0.7136 -1.2976
 1039SOL    HW3 4230   1.535   4.567   1.880  1.2366 -0.9157 -1.4678
 1039SOL    MW4 4231   1.536   4.645   1.840  0.1523 -0.1955 -0.1441
 1040SOL     OW 4232   1.308   0.120   1.963 -0.3780 -0.3302 -0.4313
 1040SOL    HW2 4233   1.309   0.104   2.058  0.7674  0.1032 -0.3663
 1040SOL    HW3 4234   1.380   0.067   1.930  1.7576  2.5733 -0.5629
 1040SOL    MW4 4235   1.317   0.111   1.971  0.0551  0.1101 -0.4400
 1041SOL     OW 4236   1.370   0.383   1.855  0.4205  0.5761 -0.6224
 1041SOL    HW2 4237   1.361   0.296   1.894  1.9415  0.3864 -0.6815
 1041SOL    HW3 4238   1.374   0.367   1.761  1.6261  0.6260 -0.5855
 1041SOL    MW4 4239   1.369   0.370   1.847  0.7803  0.5577 -0.6254
 1042SOL     OW 4240   1.588   0.502   1.978 -0.2483 -0.3146  0.0533
 1042SOL    HW2 4241   1.669   0.464   1.944  0.0916 -0.9229  1.4899
 1042SOL    HW3 4242   1.519   0.459   1.928  0.2634 -0.6071 -0.4145
 1042SOL    MW4 4243   1.590   0.492   1.967 -0.1359 -0.4334  0.1811
 1043SOL     OW 4244   1.552   0.761   1.880 -0.0149  0.2749 -0.0732
 1043SOL    HW2 4245   1.615   0.817   1.925  1.0961 -0.3958 -0.7537
 1043SOL    HW3 4246   1.565   0.674   1.919 -0.1162  0.0143 -0.6102
 1043SOL    MW4 4247   1.562   0.757   1.891  0.1184  0.1521 -0.2338
 1044SOL     OW 4248   1.341   0.893   1.966 -0.4052 -0.2886  0.4505
 1044SOL    HW2 4249   1.365   0.904   2.058 -1.9855  0.0839  0.8267
 1044SOL    HW3 4250   1.412   0.840   1.929  0.6452  0.2295  1.6860
 1044SOL    MW4 4251   1.353   0.887   1.973 -0.4750 -0.1710  0.6630
 1045SOL     OW 4252   1.367   1.147   1.852  0.1950 -0.2443 -0.0456
 1045SOL    HW2 4253   1.364   1.058   1.889  0.6002 -0.6424 -0.9540
 1045SOL    HW3 4254   1.315   1.200   1.913  0.8812 -0.8777  1.1194
 1045SOL    MW4 4255   1.360   1.142   1.865  0.3392 -0.3804 -0.0118
 1046SOL     OW 4256   1.580   1.294   1.988 -0.2075 -0.3187  0.0968
 1046SOL    HW2 4257   1.591   1.383   1.955  2.0286 -1.0377 -1.1968
 1046SOL    HW3 4258   1.510   1.257   1.936 -1.1482  0.6595  0.6387
 1046SOL    MW4 4259   1.572   1.301   1.977 -0.0366 -0.2846 -0.0024
 1047SOL     OW 4260   1.590   1.550   1.860 -0.4482 -0.3932 -0.3778
 1047SOL    HW2 4261   1.670   1.589   1.896 -0.1142 -0.8865 -0.5831
 1047SOL    HW3 4262   1.519   1.603   1.897 -0.0622 -0.3701  0.3424
 1047SOL    MW4 4263   1.591   1.562   1.870 -0.3532 -0.4551 -0.3099
 1048SOL     OW 4264   1.371   1.705   1.944  0.4849  0.3985  0.3206
 1048SOL    HW2 4265   1.365   1.706   2.040 -0.5824 -0.6026  0.2738
 1048SOL    HW3 4266   1.297   1.651   1.916  0.9525  0.4598 -1.0630
 1048SOL    MW4 4267   1.360   1.698   1.953  0.4058  0.2744  0.1320
 1049SOL     OW 4268   1.396   1.951   1.797  0.0380 -0.5781 -0.0840
 1049SOL    HW2 4269   1.390   1.862   1.831 -2.1109 -0.5705 -0.3319
 1049SOL    HW3 4270   1.319   1.995   1.834  0.5012  0.8752 -0.8095
 1049SOL    MW4 4271   1.385   1.945   1.807 -0.1843 -0.3853 -0.2124
 1050SOL     OW 4272   1.597   2.058   1.961 -0.1525 -0.1780 -0.4889
 1050SOL    HW2 4273   1.616   2.147   1.934  0.0647 -0.1502 -0.2465
 1050SOL    HW3 4274   1.535   2.026   1.896  0.1827 -0.0314 -0.8826
 1050SOL    MW4 4275   1.592   2.065   1.949 -0.0796 -0.1550 -0.5089
 1051SOL     OW 4276   1.578   2.303   1.866 -0.0768  0.4356 -0.2456
 1051SOL    HW2 4277   1.645   2.366   1.893 -1.2798  1.5464  0.2201
 1051SOL    HW3 4278   1.572   2.312   1.771 -0.2651  1.0653 -0.1777
 1051SOL    MW4 4279   1.586   2.313   1.857 -0.2604  0.6652 -0.1752
 1052SOL     OW 4280   1.339   2.452   1.962  0.1674  0.4865  0.2711
 1052SOL    HW2 4281   1.363   2.539   1.932 -0.1875  0.2116 -0.8105
 1052SOL    HW3 4282   1.411   2.396   1.935 -1.0453 -0.1127 -1.8654
 1052SOL    MW4 4283   1.352   2.456   1.955 -0.0395  0.3710 -0.1534
 1053SOL     OW 4284   1.367   2.698   1.837  0.6172 -0.3508  0.2452
 1053SOL    HW2 4285   1.291   2.748   1.869  0.9261  0.1320  0.2283
 1053SOL    HW3 4286   1.369   2.716   1.743  1.8420  1.1168  0.5397
 1053SOL    MW4 4287   1.357   2.707   1.829  0.8196 -0.0935  0.2818
 1054SOL     OW 4288   1.588   2.849   1.951  0.2696  0.0103  0.3881
 1054SOL    HW2 4289   1.580   2.841   2.046 -0.1738  1.7998  0.5184
 1054SOL    HW3 4290   1.513   2.800   1.917  0.9040 -1.3538  0.9241
 1054SOL    MW4 4291   1.577   2.842   1.959  0.2949  0.0663  0.4760
 1055SOL     OW 4292   1.527   3.119   1.898  0.2389 -0.6879  0.1451
 1055SOL    HW2 4293   1.540   3.026   1.917  0.9665 -0.6470 -0.1313
 1055SOL    HW3 4294   1.531   3.125   1.802 -1.3917 -0.6014  0.0689
 1055SOL    MW4 4295   1.529   3.108   1.888  0.1198 -0.6711  0.0985
 1056SOL     OW 4296   1.302   3.258   1.973  0.1040 -0.4062 -0.1213
 1056SOL    HW2 4297   1.386   3.216   1.958  0.4185  0.6087 -1.2544
 1056SOL    HW3 4298   1.241   3.210   1.917  0.5036  0.7348 -1.5819
 1056SOL    MW4 4299   1.305   3.246   1.964  0.1981 -0.1218 -0.4635
 1057SOL     OW 4300   1.308   3.505   1.862  0.4269  0.6725  0.1268
 1057SOL    HW2 4301   1.295   3.421   1.906  2.1820 -0.0124 -0.6472
 1057SOL    HW3 4302   1.246   3.564   1.906 -1.0844 -1.0947  0.4318
 1057SOL    MW4 4303   1.298   3.502   1.874  0.4591  0.3488  0.0650
 1058SOL     OW 4304   1.564   3.606   1.967  0.3483 -0.4571 -0.3570
 1058SOL    HW2 4305   1.560   3.598   2.062  1.0550  0.2352 -0.2690
 1058SOL    HW3 4306   1.482   3.567   1.936 -0.7942  1.1003  0.6418
 1058SOL    MW4 4307   1.553   3.599   1.975  0.2909 -0.1605 -0.2135
 1059SOL     OW 4308   1.585   3.848   1.860  0.4686 -0.5794 -0.0851
 1059SOL    HW2 4309   1.657   3.893   1.906 -0.1427  1.5598 -1.1467
 1059SOL    HW3 4310   1.569   3.770   1.912  1.4211  0.5564  2.0009
 1059SOL    MW4 4311   1.593   3.844   1.873  0.5137 -0.1473  0.0502
 1060SOL     OW 4312   1.378   3.999   1.962  0.5308  0.5848  0.5024
 1060SOL    HW2 4313   1.447   3.947   1.922 -1.1680 -1.2406 -0.1399
 1060SOL    HW3 4314   1.393   3.990   2.056  0.8559 -0.2308  0.3747
 1060SOL    MW4 4315   1.389   3.991   1.969  0.3496  0.2365  0.4008
 1061SOL     OW 4316   1.306   4.255   1.886  0.2439  0.4057 -0.1156
 1061SOL    HW2 4317   1.314   4.171   1.931 -0.6016  1.1415  1.4634
 1061SOL    HW3 4318   1.328   4.236   1.795  0.4470 -1.4435  0.3038
 1061SOL    MW4 4319   1.310   4.241   1.880  0.1591  0.2584  0.1481
 1062SOL     OW 4320   1.555   4.391   1.943  0.2395  0.2921 -0.4067
 1062SOL    HW2 4321   1.553   4.382   2.039 -2.2049  3.0986 -0.1296
 1062SOL    HW3 4322   1.488   4.330   1.913  2.4524 -2.1777 -0.5718
 1062SOL    MW4 4323   1.546   4.381   1.952  0.2090  0.3366 -0.3918
 1063SOL     OW 4324   1.988   4.665   1.881 -0.5185 -0.5251 -0.8532
 1063SOL    HW2 4325   2.067   4.705   1.917 -1.1093 -0.3819  0.2898
 1063SOL    HW3 4326   1.981   4.580   1.925 -1.6426 -0.0390 -0.0774
 1063SOL    MW4 4327   1.998   4.659   1.892 -0.7448 -0.4421 -0.6000
 1064SOL     OW 4328   1.742   0.111   1.931  0.0386  0.0284 -0.3917
 1064SOL    HW2 4329   1.738   0.106   2.027  0.6808  1.4845 -0.2834
 1064SOL    HW3 4330   1.828   0.074   1.909 -0.1970 -0.5062 -0.4324
 1064SOL    MW4 4331   1.753   0.105   1.941  0.0923  0.1500 -0.3828
 1065SOL     OW 4332   1.803   0.383   1.870 -0.0383 -0.0194  0.1850
 1065SOL    HW2 4333   1.798   0.298   1.914 -1.6791  0.3778  0.7736
 1065SOL    HW3 4334   1.792   0.362   1.777 -0.3013 -0.4695  0.3137
 1065SOL    MW4 4335   1.801   0.369   1.863 -0.2894 -0.0264  0.2798
 1066SOL     OW 4336   1.998   0.521   2.030  0.7623  0.6647 -0.3587
 1066SOL    HW2 4337   1.994   0.612   2.001  1.6178  0.8176 -0.0032
 1066SOL    HW3 4338   1.929   0.476   1.980 -0.1019  1.6372 -0.0533
 1066SOL    MW4 4339   1.988   0.527   2.020  0.7612  0.8132 -0.2716
 1067SOL     OW 4340   2.000   0.769   1.922  0.2345 -0.0987  0.0668
 1067SOL    HW2 4341   2.076   0.818   1.954  0.7632 -1.0195  0.2487
 1067SOL    HW3 4342   2.009   0.772   1.826  1.1263 -1.1333  0.0981
 1067SOL    MW4 4343   2.011   0.776   1.913  0.4215 -0.3567  0.0950
 1068SOL     OW 4344   1.763   0.888   1.996 -0.2552  0.1360 -0.6440
 1068SOL    HW2 4345   1.774   0.978   1.965 -0.1082  1.0224  1.8432
 1068SOL    HW3 4346   1.846   0.846   1.974  0.4492  1.1792 -0.0345
 1068SOL    MW4 4347   1.776   0.895   1.989 -0.1428  0.3906 -0.2356
 1069SOL     OW 4348   1.803   1.143   1.939  0.4261 -0.1384 -0.3475
 1069SOL    HW2 4349   1.731   1.200   1.964  0.7325  0.3307 -0.5062
 1069SOL    HW3 4350   1.795   1.134   1.844  0.8085  0.2522 -0.4225
 1069SOL    MW4 4351   1.793   1.150   1.929  0.5170 -0.0248 -0.3783
 1070SOL     OW 4352   2.023   1.303   2.007  0.1176 -0.3577 -0.5592
 1070SOL    HW2 4353   2.092   1.247   1.971 -0.1033 -0.4460 -0.8433
 1070SOL    HW3 4354   1.942   1.253   1.994 -0.0161 -0.2017 -0.3333
 1070SOL    MW4 4355   2.021   1.289   2.001  0.0710 -0.3487 -0.5670
 1071SOL     OW 4356   2.018   1.559   1.895 -0.5051  0.4222  0.2641
 1071SOL    HW2 4357   2.015   1.473   1.938 -0.6814  0.6139  0.6350
 1071SOL    HW3 4358   2.003   1.540   1.802 -0.8776  0.0862  0.3931
 1071SOL    MW4 4359   2.015   1.545   1.888 -0.5777  0.4032  0.3301
 1072SOL     OW 4360   1.804   1.703   1.974 -0.2157 -0.0017 -0.1827
 1072SOL    HW2 4361   1.819   1.789   1.936 -0.1174  0.3456  0.6354
 1072SOL    HW3 4362   1.886   1.655   1.960  0.5758  0.8364  1.4737
 1072SOL    MW4 4363   1.817   1.708   1.967 -0.0982  0.1547  0.1438
 1073SOL     OW 4364   1.832   1.947   1.861 -0.1791  0.0836  0.2084
 1073SOL    HW2 4365   1.752   1.985   1.897  0.0944  0.6949  0.1740
 1073SOL    HW3 4366   1.811   1.927   1.770 -0.2768  0.2898  0.1858
 1073SOL    MW4 4367   1.819   1.949   1.854 -0.1559  0.1916  0.2010
 1074SOL     OW 4368   2.082   2.048   1.952 -0.7230  0.0896 -0.3668
 1074SOL    HW2 4369   2.154   1.989   1.931  0.7573  1.9322 -0.6205
 1074SOL    HW3 4370   2.006   2.011   1.906  0.4380 -0.9239 -1.5044
 1074SOL    MW4 4371   2.081   2.035   1.943 -0.3743  0.1988 -0.5503
 1075SOL     OW 4372   1.993   2.295   1.871  0.0175 -0.2513 -0.2008
 1075SOL    HW2 4373   2.068   2.348   1.897  0.1552 -0.6876  0.3065
 1075SOL    HW3 4374   2.017   2.206   1.896  0.1138 -0.6795 -1.7522
 1075SOL    MW4 4375   2.006   2.290   1.877  0.0484 -0.3655 -0.3387
 1076SOL     OW 4376   1.789   2.464   1.973  0.6780 -0.2871 -0.1710
 1076SOL    HW2 4377   1.815   2.479   2.064  0.2073 -3.4921  0.5424
 1076SOL    HW3 4378   1.857   2.405   1.939 -0.5896 -1.2578 -1.0606
 1076SOL    MW4 4379   1.802   2.458   1.981  0.4487 -0.8380 -0.1942
 1077SOL     OW 4380   1.782   2.710   1.833  0.0994 -0.0842  0.2488
 1077SOL    HW2 4381   1.776   2.626   1.879  0.3047 -1.0668 -1.5127
 1077SOL    HW3 4382   1.713   2.763   1.874 -0.1450 -1.1540  1.2684
 1077SOL    MW4 4383   1.772   2.706   1.845  0.0942 -0.3550  0.1509
 1078SOL     OW 4384   2.018   2.834   1.933  0.1708  0.0327  0.8528
 1078SOL    HW2 4385   2.002   2.842   2.027 -1.5550  0.1185  0.5786
 1078SOL    HW3 4386   1.943   2.784   1.900  0.5643  0.3277 -0.5346
 1078SOL    MW4 4387   2.006   2.829   1.941 -0.0050  0.0827  0.6336
 1079SOL     OW 4388   2.012   3.135   1.882  0.0045 -0.0665  0.1379
 1079SOL    HW2 4389   1.934   3.174   1.922 -1.2928 -0.1447 -2.2099
 1079SOL    HW3 4390   2.003   3.041   1.901  0.3059  0.1050  1.1448
 1079SOL    MW4 4391   2.001   3.128   1.890 -0.1266 -0.0541 -0.0390
 1080SOL     OW 4392   1.762   3.231   1.958  0.0048  0.0860 -0.2187
 1080SOL    HW2 4393   1.772   3.239   2.053 -0.4880 -0.3722 -0.1258
 1080SOL    HW3 4394   1.675   3.193   1.946  0.2232 -0.2229 -0.8428
 1080SOL    MW4 4395   1.752   3.227   1.969 -0.0312 -0.0153 -0.2888
 1081SOL     OW 4396   1.783   3.483   1.875  0.4535  0.4381  0.0805
 1081SOL    HW2 4397   1.769   3.394   1.909  0.2516  0.8234  1.0378
 1081SOL    HW3 4398   1.702   3.529   1.896  0.9823  1.1515  0.6010
 1081SOL    MW4 4399   1.771   3.478   1.882  0.4966  0.5829  0.2755
 1082SOL     OW 4400   2.002   3.611   1.990  0.1758  0.0922 -0.1978
 1082SOL    HW2 4401   2.002   3.696   1.945 -1.3606  0.9021  1.3056
 1082SOL    HW3 4402   1.925   3.566   1.957 -0.6938  0.5006  1.2447
 1082SOL    MW4 4403   1.992   3.616   1.980 -0.1416  0.2530  0.1907
 1083SOL     OW 4404   2.038   3.868   1.871 -0.2105  0.1126  0.5569
 1083SOL    HW2 4405   2.119   3.914   1.891 -1.1370  2.1972 -0.4199
 1083SOL    HW3 4406   2.038   3.860   1.776  0.1777 -2.4135  0.7180
 1083SOL    MW4 4407   2.049   3.873   1.861 -0.2818  0.0544  0.4493
 1084SOL     OW 4408   1.803   4.000   1.942 -0.1374  0.1793  0.0727
 1084SOL    HW2 4409   1.809   4.090   1.912  0.6665  0.0878 -0.0525
 1084SOL    HW3 4410   1.890   3.964   1.927  0.4066  0.2334  2.8347
 1084SOL    MW4 4411   1.815   4.007   1.936  0.0404  0.1750  0.4206
 1085SOL     OW 4412   1.801   4.260   1.853 -0.1528  0.4181  0.0191
 1085SOL    HW2 4413   1.727   4.316   1.877  1.6815  2.4208  1.1669
 1085SOL    HW3 4414   1.798   4.256   1.757  0.3777  3.5654 -0.1989
 1085SOL    MW4 4415   1.791   4.267   1.843  0.1593  1.0977  0.1419
 1086SOL     OW 4416   1.993   4.407   1.979  0.1949 -0.0523 -0.1870
 1086SOL    HW2 4417   2.073   4.371   1.942  0.2092 -0.2584  0.0429
 1086SOL    HW3 4418   1.924   4.349   1.947  0.1722 -0.0548 -0.1323
 1086SOL    MW4 4419   1.994   4.395   1.970  0.1937 -0.0796 -0.1495
 1087SOL     OW 4420   2.459   4.635   1.864  0.0348 -0.6105 -0.3483
 1087SOL    HW2 4421   2.544   4.672   1.887 -0.0832 -0.6707  0.1889
 1087SOL    HW3 4422   2.463   4.544   1.894  0.2200 -0.9635 -1.4096
 1087SOL    MW4 4423   2.471   4.628   1.871  0.0436 -0.6652 -0.4174
 1088SOL     OW 4424   2.271   0.159   1.972  0.2039 -0.0278 -0.1715
 1088SOL    HW2 4425   2.260   0.132   2.063  0.7689 -0.5195 -0.2494
 1088SOL    HW3 4426   2.341   0.103   1.938 -1.1306 -1.0022 -1.3820
 1088SOL    MW4 4427   2.279   0.148   1.979  0.1025 -0.2213 -0.3414
 1089SOL     OW 4428   2.218   0.415   1.882 -0.0551  0.0235 -0.3219
 1089SOL    HW2 4429   2.235   0.332   1.928  0.2203 -0.4844 -1.3342
 1089SOL    HW3 4430   2.134   0.445   1.918 -0.4342 -0.9737 -0.3513
 1089SOL    MW4 4431   2.209   0.408   1.893 -0.0682 -0.1751 -0.4593
 1090SOL     OW 4432   2.455   0.513   1.981  0.2896 -0.2703  0.3406
 1090SOL    HW2 4433   2.528   0.466   1.941  0.1883  1.7892 -2.4547
 1090SOL    HW3 4434   2.377   0.469   1.946  0.2028  0.4074 -0.3282
 1090SOL    MW4 4435   2.454   0.501   1.971  0.2651  0.0908 -0.1166
 1091SOL     OW 4436   2.465   0.777   1.897 -0.5946 -0.1179 -0.1702
 1091SOL    HW2 4437   2.471   0.686   1.927  0.6183  0.2249  0.6663
 1091SOL    HW3 4438   2.477   0.772   1.802 -1.2407 -0.8982 -0.2153
 1091SOL    MW4 4439   2.468   0.764   1.888 -0.5200 -0.1756 -0.0658
 1092SOL     OW 4440   2.243   0.887   1.974 -0.6863 -0.1411 -0.0590
 1092SOL    HW2 4441   2.255   0.891   2.069 -0.2058 -0.5654 -0.1034
 1092SOL    HW3 4442   2.322   0.845   1.941 -0.7851  0.1391 -0.6642
 1092SOL    MW4 4443   2.255   0.882   1.982 -0.6359 -0.1601 -0.1446
 1093SOL     OW 4444   2.213   1.144   1.904 -0.5929 -0.0860 -0.0128
 1093SOL    HW2 4445   2.289   1.194   1.935 -0.3959 -0.4903  0.1614
 1093SOL    HW3 4446   2.233   1.053   1.927 -1.2066 -0.1721  0.1935
 1093SOL    MW4 4447   2.226   1.139   1.911 -0.6478 -0.1507  0.0373
 1094SOL     OW 4448   2.462   1.254   1.972  0.1974  0.3241 -0.2081
 1094SOL    HW2 4449   2.461   1.251   2.067 -0.2036  1.0700 -0.1822
 1094SOL    HW3 4450   2.475   1.346   1.951 -1.0508  0.3642 -0.8669
 1094SOL    MW4 4451   2.463   1.266   1.981 -0.0200  0.4278 -0.2916
 1095SOL     OW 4452   2.508   1.524   1.909 -0.1060 -0.4258 -0.0980
 1095SOL    HW2 4453   2.423   1.559   1.936  0.8445  0.8813  1.2542
 1095SOL    HW3 4454   2.503   1.519   1.813 -1.0493  1.3235 -0.1466
 1095SOL    MW4 4455   2.496   1.528   1.900 -0.1049 -0.0226  0.0740
 1096SOL     OW 4456   2.271   1.627   1.995 -0.0488 -0.4548  0.3658
 1096SOL    HW2 4457   2.264   1.658   2.085 -0.8634  1.7871 -0.4241
 1096SOL    HW3 4458   2.181   1.634   1.961  0.6263  0.7480 -1.2312
 1096SOL    MW4 4459   2.258   1.632   2.002 -0.0668 -0.0002  0.0508
 1097SOL     OW 4460   2.299   1.887   1.898  0.7590 -0.2934 -0.2902
 1097SOL    HW2 4461   2.378   1.935   1.924  1.2417 -1.5630  0.6591
 1097SOL    HW3 4462   2.311   1.800   1.935 -0.3842 -0.9702 -1.4746
 1097SOL    MW4 4463   2.311   1.882   1.907  0.6719 -0.5502 -0.3213
 1098SOL     OW 4464   2.507   2.051   1.988  0.2975  0.1968  0.5617
 1098SOL    HW2 4465   2.576   2.012   1.935  0.5276  0.6235  0.5392
 1098SOL    HW3 4466   2.486   2.133   1.943 -1.7165 -0.9233 -0.6064
 1098SOL    MW4 4467   2.513   2.057   1.975  0.0620  0.1051  0.4046
 1099SOL     OW 4468   2.505   2.320   1.865  0.2213  0.2186 -0.0999
 1099SOL    HW2 4469   2.562   2.377   1.916 -1.0753 -1.0047  2.8493
 1099SOL    HW3 4470   2.417   2.353   1.883 -0.4231 -1.6721  0.3849
 1099SOL    MW4 4471   2.501   2.332   1.874 -0.0348 -0.1922  0.3532
 1100SOL     OW 4472   2.236   2.433   1.915 -0.0680  0.4962  0.3237
 1100SOL    HW2 4473   2.242   2.443   2.010  0.3815  1.3079  0.2160
 1100SOL    HW3 4474   2.247   2.522   1.881  0.6468  0.0870 -0.5232
 1100SOL    MW4 4475   2.238   2.446   1.923  0.0856  0.5493  0.1978
 1101SOL     OW 4476   2.235   2.692   1.818  0.3747 -0.0332 -0.0627
 1101SOL    HW2 4477   2.164   2.742   1.857  0.5951 -0.2038  0.5549
 1101SOL    HW3 4478   2.233   2.716   1.725  1.0113  1.7691  0.3629
 1101SOL    MW4 4479   2.226   2.702   1.811  0.4880  0.1822  0.0750
 1102SOL     OW 4480   2.449   2.789   1.948  0.4616 -0.3891  0.0489
 1102SOL    HW2 4481   2.469   2.875   1.910  0.6845 -0.2030  0.5924
 1102SOL    HW3 4482   2.361   2.769   1.914  0.5748 -0.1358 -0.4099
 1102SOL    MW4 4483   2.440   2.798   1.938  0.5057 -0.3309  0.0602
 1103SOL     OW 4484   2.452   3.027   1.825 -0.5570 -0.3003 -0.0564
 1103SOL    HW2 4485   2.393   3.091   1.867 -0.6421 -1.2017  1.2422
 1103SOL    HW3 4486   2.540   3.054   1.853 -0.2759  1.3600 -2.4233
 1103SOL    MW4 4487   2.456   3.039   1.835 -0.5310 -0.2000 -0.1973
 1104SOL     OW 4488   2.262   3.210   1.966  0.5370 -0.2182 -0.1419
 1104SOL    HW2 4489   2.260   3.196   2.061 -0.2015  0.7779 -0.0104
 1104SOL    HW3 4490   2.172   3.194   1.937  0.2427  1.6548 -0.3492
 1104SOL    MW4 4491   2.250   3.206   1.975  0.4008  0.1605 -0.1518
 1105SOL     OW 4492   2.217   3.475   1.851 -0.4089  0.0201  0.5645
 1105SOL    HW2 4493   2.233   3.390   1.891 -1.7887  0.0924  1.2905
 1105SOL    HW3 4494   2.143   3.511   1.899  0.1003  1.6032  0.2105
 1105SOL    MW4 4495   2.210   3.469   1.862 -0.5240  0.2384  0.6136
 1106SOL     OW 4496   2.456   3.568   1.929  0.1731  0.0621 -0.0191
 1106SOL    HW2 4497   2.447   3.584   2.023 -0.6885  2.1491 -0.4248
 1106SOL    HW3 4498   2.369   3.542   1.900  0.4387 -0.5938 -0.2325
 1106SOL    MW4 4499   2.444   3.567   1.937  0.0944  0.2508 -0.1009
 1107SOL     OW 4500   2.476   3.841   1.839  0.1442  0.1320 -0.2628
 1107SOL    HW2 4501   2.414   3.895   1.888 -0.8621 -0.3821 -0.9480
 1107SOL    HW3 4502   2.457   3.751   1.867  1.0647  0.0362  0.0600
 1107SOL    MW4 4503   2.466   3.836   1.849  0.1328  0.0515 -0.3105
 1108SOL     OW 4504   2.279   4.014   1.947  0.2078  0.0033  0.5374
 1108SOL    HW2 4505   2.254   4.010   2.039  1.5273  0.5865  0.9394
 1108SOL    HW3 4506   2.263   4.105   1.921  0.9353  0.1305  0.5217
 1108SOL    MW4 4507   2.274   4.026   1.955  0.4780  0.0968  0.5884
 1109SOL     OW 4508   2.214   4.284   1.844 -0.5513  0.2795 -0.1176
 1109SOL    HW2 4509   2.302   4.307   1.873 -0.8863  1.5157 -0.0621
 1109SOL    HW3 4510   2.221   4.274   1.749 -0.0946 -0.8547  0.0212
 1109SOL    MW4 4511   2.226   4.286   1.836 -0.5352  0.2928 -0.0920
 1110SOL     OW 4512   2.468   4.366   1.935  0.4690  0.3243 -0.0180
 1110SOL    HW2 4513   2.479   4.349   2.029  0.8727 -0.1318 -0.1458
 1110SOL    HW3 4514   2.543   4.323   1.894  0.4607  0.7896 -0.5236
 1110SOL    MW4 4515   2.480   4.358   1.942  0.5212  0.3262 -0.1016
 1111SOL     OW 4516   2.901   4.604   1.850 -0.3249  0.5483  0.4543
 1111SOL    HW2 4517   2.982   4.640   1.887  0.2948  0.8309 -1.0993
 1111SOL    HW3 4518   2.908   4.510   1.863  0.9667  0.4182 -0.9471
 1111SOL    MW4 4519   2.913   4.597   1.856 -0.0727  0.5684  0.0645
 1112SOL     OW 4520   2.686   0.119   1.940 -0.0140  0.2272  0.0724
 1112SOL    HW2 4521   2.694   0.105   2.035 -1.6503  0.1829  0.2144
 1112SOL    HW3 4522   2.755   0.064   1.902  0.0820 -0.4490  1.1882
 1112SOL    MW4 4523   2.696   0.110   1.948 -0.2172  0.1322  0.2384
 1113SOL     OW 4524   2.674   0.388   1.886  0.2092 -0.4938 -0.0914
 1113SOL    HW2 4525   2.751   0.415   1.936  0.1807 -0.3859 -0.1053
 1113SOL    HW3 4526   2.661   0.296   1.909 -0.8661  0.0226  1.4844
 1113SOL    MW4 4527   2.682   0.380   1.896  0.0634 -0.4114  0.1147
 1114SOL     OW 4528   2.925   0.468   1.983  0.4928  0.8465  0.4440
 1114SOL    HW2 4529   3.014   0.434   1.974  0.4588  1.1960 -1.3828
 1114SOL    HW3 4530   2.926   0.551   1.936 -0.9796  0.5013 -0.2352
 1114SOL    MW4 4531   2.936   0.474   1.975  0.2940  0.8471  0.1134
 1115SOL     OW 4532   2.891   0.733   1.878  0.3832  0.0164 -0.0908
 1115SOL    HW2 4533   2.970   0.766   1.920  0.3156 -0.4482  0.4031
 1115SOL    HW3 4534   2.819   0.778   1.922  0.2577 -1.2204  0.9984
 1115SOL    MW4 4535   2.892   0.743   1.889  0.3579 -0.2080  0.1180
 1116SOL     OW 4536   2.696   0.894   2.019  0.3318 -0.4314  0.0054
 1116SOL    HW2 4537   2.710   0.979   1.977 -0.1916  0.2640  1.2165
 1116SOL    HW3 4538   2.611   0.865   1.985  0.3580 -0.3242 -0.1556
 1116SOL    MW4 4539   2.687   0.901   2.009  0.2658 -0.3255  0.1440
 1117SOL     OW 4540   2.714   1.172   1.904  0.2909 -0.1722  0.0755
 1117SOL    HW2 4541   2.624   1.188   1.930 -0.4601 -2.9403 -0.6454
 1117SOL    HW3 4542   2.714   1.182   1.809  1.2252  1.8540  0.2642
 1117SOL    MW4 4543   2.702   1.176   1.895  0.3150 -0.2702  0.0052
 1118SOL     OW 4544   2.920   1.277   2.038 -0.0324  0.6498 -0.1660
 1118SOL    HW2 4545   2.927   1.362   1.995 -0.6213  0.4952 -0.5649
 1118SOL    HW3 4546   2.836   1.241   2.008 -0.8211  0.8744  1.6931
 1118SOL    MW4 4547   2.910   1.284   2.029 -0.2141  0.6590  0.0265
 1119SOL     OW 4548   2.915   1.544   1.916 -0.4335 -0.0063  0.2832
 1119SOL    HW2 4549   2.999   1.589   1.929  0.2854 -1.3415  0.3051
 1119SOL    HW3 4550   2.910   1.532   1.821 -0.4861 -0.1312  0.3019
 1119SOL    MW4 4551   2.925   1.549   1.905 -0.3455 -0.1990  0.2887
 1120SOL     OW 4552   2.715   1.678   2.009 -0.0464 -0.0007  0.3378
 1120SOL    HW2 4553   2.790   1.637   1.967 -0.5545  2.0232 -2.6571
 1120SOL    HW3 4554   2.639   1.634   1.972 -0.4616  0.6721  0.3824
 1120SOL    MW4 4555   2.715   1.667   1.999 -0.1686  0.3551 -0.0516
 1121SOL     OW 4556   2.694   1.903   1.875 -0.3737  0.1172  0.1676
 1121SOL    HW2 4557   2.776   1.949   1.893 -0.5287 -0.0871  1.4424
 1121SOL    HW3 4558   2.700   1.822   1.927 -0.2953 -1.1023 -1.6723
 1121SOL    MW4 4559   2.706   1.898   1.884 -0.3836 -0.0707  0.0929
 1122SOL     OW 4560   2.926   2.028   1.949  0.5600  0.1429  0.3837
 1122SOL    HW2 4561   2.916   2.032   2.044 -0.5859 -1.0761  0.3263
 1122SOL    HW3 4562   3.004   1.975   1.935  0.3881 -0.1767  0.6367
 1122SOL    MW4 4563   2.935   2.021   1.959  0.3860 -0.0601  0.4095
 1123SOL     OW 4564   2.901   2.283   1.850 -0.1885 -0.0794 -0.2448
 1123SOL    HW2 4565   2.976   2.331   1.887 -1.1957  0.4247  1.1648
 1123SOL    HW3 4566   2.909   2.195   1.888 -1.7649  0.7058  1.9922
 1123SOL    MW4 4567   2.912   2.277   1.860 -0.5293  0.0906  0.2364
 1124SOL     OW 4568   2.729   2.451   1.992 -0.6458  0.1247  0.0906
 1124SOL    HW2 4569   2.737   2.534   1.946 -0.7186  0.4880  0.7389
 1124SOL    HW3 4570   2.771   2.387   1.934 -0.7926  0.5719 -0.5079
 1124SOL    MW4 4571   2.736   2.453   1.978 -0.6747  0.2315  0.0972
 1125SOL     OW 4572   2.708   2.695   1.864 -0.2894  0.4031 -0.2230
 1125SOL    HW2 4573   2.618   2.720   1.886 -0.6866 -1.2077  0.0402
 1125SOL    HW3 4574   2.709   2.689   1.768 -0.1340  1.6358 -0.2976
 1125SOL    MW4 4575   2.696   2.697   1.854 -0.3214  0.3533 -0.1980
 1126SOL     OW 4576   2.907   3.058   1.800  0.1351 -0.1086  0.1907
 1126SOL    HW2 4577   2.985   3.081   1.850  0.2135  1.0027 -0.4162
 1126SOL    HW3 4578   2.834   3.080   1.858  0.2579 -0.5544  0.5167
 1126SOL    MW4 4579   2.907   3.064   1.814  0.1616 -0.0210  0.1534
 1127SOL     OW 4580   2.674   3.153   1.934 -0.2279 -0.0839 -0.0989
 1127SOL    HW2 4581   2.678   3.161   2.029  0.4602  0.5722 -0.1846
 1127SOL    HW3 4582   2.668   3.243   1.902 -3.4808 -0.4088 -0.5525
 1127SOL    MW4 4583   2.674   3.166   1.942 -0.5662 -0.0403 -0.1700
 1128SOL     OW 4584   2.961   2.806   1.903 -0.3203 -0.1639  0.2404
 1128SOL    HW2 4585   2.887   2.745   1.908  0.5871 -1.4150 -1.1443
 1128SOL    HW3 4586   2.923   2.887   1.868 -1.2875 -0.3452  0.8428
 1128SOL    MW4 4587   2.946   2.809   1.899 -0.3281 -0.3533  0.1371
 1129SOL     OW 4588   2.688   3.423   1.892 -0.0847 -0.5094 -0.4759
 1129SOL    HW2 4589   2.749   3.477   1.942 -0.6731 -1.0299  0.8582
 1129SOL    HW3 4590   2.603   3.466   1.906 -0.3745 -1.1236 -0.3618
 1129SOL    MW4 4591   2.685   3.436   1.901 -0.2005 -0.6590 -0.2849
 1130SOL     OW 4592   2.916   3.588   1.994 -0.0558  0.3088  0.4014
 1130SOL    HW2 4593   2.911   3.576   2.089  1.5652  0.0437  0.4596
 1130SOL    HW3 4594   2.993   3.539   1.967 -0.6218  0.2127 -1.0937
 1130SOL    MW4 4595   2.925   3.580   2.003  0.0834  0.2613  0.2120
 1131SOL     OW 4596   2.916   3.833   1.864  0.5269 -0.2403 -0.1513
 1131SOL    HW2 4597   2.908   3.747   1.903  1.1047 -0.5235 -0.6464
 1131SOL    HW3 4598   2.916   3.817   1.769 -0.4283  0.3908 -0.2650
 1131SOL    MW4 4599   2.915   3.820   1.856  0.4771 -0.1945 -0.2316
 1132SOL     OW 4600   2.685   3.972   1.941 -0.6742 -0.4586  0.2705
 1132SOL    HW2 4601   2.768   3.935   1.910 -0.3456 -1.1442  1.9084
 1132SOL    HW3 4602   2.618   3.912   1.908 -0.4469 -0.4080 -0.2852
 1132SOL    MW4 4603   2.687   3.959   1.932 -0.6008 -0.5424  0.4132
 1133SOL     OW 4604   2.694   4.228   1.845 -0.3224 -0.4762 -0.3401
 1133SOL    HW2 4605   2.675   4.137   1.869 -1.2039 -0.5509 -1.2972
 1133SOL    HW3 4606   2.723   4.224   1.754 -1.3056  0.3073 -0.6967
 1133SOL    MW4 4607   2.695   4.215   1.836 -0.5684 -0.3834 -0.5133
 1134SOL     OW 4608   2.920   4.336   1.941  0.4918  0.2001 -0.2980
 1134SOL    HW2 4609   2.907   4.349   2.035  0.3055  2.1176 -0.5576
 1134SOL    HW3 4610   2.835   4.304   1.910 -0.1856  1.7660 -0.1489
 1134SOL    MW4 4611   2.907   4.334   1.950  0.3779  0.6604 -0.3127
 1135SOL     OW 4612   3.357   4.605   1.849 -0.1703 -0.0611  0.3149
 1135SOL    HW2 4613   3.350   4.513   1.875 -0.8134 -0.5554 -1.5996
 1135SOL    HW3 4614   3.366   4.603   1.754 -2.4454  1.9508  0.0084
 1135SOL    MW4 4615   3.357   4.593   1.840 -0.5553  0.1392  0.0219
 1136SOL     OW 4616   3.124   0.077   1.912  0.0418  0.4407  0.1957
 1136SOL    HW2 4617   3.142   0.082   2.006  1.4353 -0.0837 -0.0413
 1136SOL    HW3 4618   3.190   0.017   1.877 -1.0460 -0.1016 -0.9765
 1136SOL    MW4 4619   3.135   0.070   1.920  0.0820  0.2999  0.0097
 1137SOL     OW 4620   3.147   0.344   1.895  0.0750 -0.0383  0.1584
 1137SOL    HW2 4621   3.151   0.248   1.889  1.0473  0.0022  0.1167
 1137SOL    HW3 4622   3.148   0.374   1.804  1.5488  0.0745  0.2052
 1137SOL    MW4 4623   3.147   0.335   1.882  0.3979 -0.0181  0.1591
 1138SOL     OW 4624   3.385   0.478   1.937  0.6040  0.2213  0.3557
 1138SOL    HW2 4625   3.469   0.433   1.928  0.3783 -0.1244 -0.0838
 1138SOL    HW3 4626   3.319   0.409   1.923  0.2513  0.4901  0.6866
 1138SOL    MW4 4627   3.387   0.463   1.934  0.5276  0.2112  0.3414
 1139SOL     OW 4628   3.346   0.742   1.848 -0.0942  0.3648  0.1994
 1139SOL    HW2 4629   3.275   0.780   1.899  0.5657  1.7314  0.1268
 1139SOL    HW3 4630   3.354   0.652   1.881 -0.5590  0.8098  1.5643
 1139SOL    MW4 4631   3.338   0.735   1.859 -0.0684  0.6038  0.3699
 1140SOL     OW 4632   3.129   0.836   1.972  0.0665  0.1938  0.3102
 1140SOL    HW2 4633   3.139   0.814   2.065  0.4946 -0.3376  0.1410
 1140SOL    HW3 4634   3.119   0.931   1.971  1.7083  0.3792  0.7630
 1140SOL    MW4 4635   3.129   0.845   1.985  0.3395  0.1482  0.3476
 1141SOL     OW 4636   3.137   1.114   1.932  0.0048  0.1340  0.2985
 1141SOL    HW2 4637   3.221   1.153   1.954 -0.0387  0.8731 -0.8505
 1141SOL    HW3 4638   3.072   1.172   1.972 -0.0712  1.4349 -1.6738
 1141SOL    MW4 4639   3.140   1.127   1.940 -0.0110  0.4032 -0.1134
 1142SOL     OW 4640   3.369   1.237   1.970  0.1971 -0.6732  0.4142
 1142SOL    HW2 4641   3.390   1.238   2.064  1.5222  0.0467  0.1061
 1142SOL    HW3 4642   3.372   1.328   1.943 -1.2336 -0.7715 -0.1092
 1142SOL    MW4 4643   3.372   1.249   1.979  0.1831 -0.5912  0.3043
 1143SOL     OW 4644   3.380   1.503   1.909 -0.1572 -0.1707  0.0093
 1143SOL    HW2 4645   3.458   1.555   1.930 -0.1138 -0.1444 -0.2146
 1143SOL    HW3 4646   3.307   1.553   1.947 -0.1023 -0.0105 -0.0971
 1143SOL    MW4 4647   3.380   1.517   1.917 -0.1445 -0.1462 -0.0343
 1144SOL     OW 4648   3.154   1.645   1.988 -0.1885  0.1658  0.1207
 1144SOL    HW2 4649   3.142   1.641   2.083  1.3962  0.7782  0.3603
 1144SOL    HW3 4650   3.157   1.739   1.968 -0.8793  0.0413 -0.5856
 1144SOL    MW4 4651   3.153   1.657   1.998 -0.0703  0.2302  0.0590
 1145SOL     OW 4652   3.152   1.912   1.884  0.0026  0.0148 -0.1363
 1145SOL    HW2 4653   3.239   1.944   1.904  0.3970 -0.5403 -0.9352
 1145SOL    HW3 4654   3.141   1.928   1.790 -1.1989  1.1248  0.1764
 1145SOL    MW4 4655   3.162   1.918   1.874 -0.1040  0.0880 -0.2006
 1146SOL     OW 4656   3.395   2.003   1.946 -0.0015 -0.3225  0.1362
 1146SOL    HW2 4657   3.481   1.963   1.932  1.2371  1.7975  1.2532
 1146SOL    HW3 4658   3.408   2.095   1.921 -1.9900 -0.0053  0.2092
 1146SOL    MW4 4659   3.408   2.010   1.941 -0.1006 -0.0010  0.2931
 1147SOL     OW 4660   3.369   2.282   1.854 -0.3574 -0.1704  0.1739
 1147SOL    HW2 4661   3.287   2.329   1.870  0.7485  1.6353  0.5705
 1147SOL    HW3 4662   3.385   2.293   1.760 -0.6039 -0.5907  0.0814
 1147SOL    MW4 4663   3.360   2.290   1.844 -0.2441  0.0124  0.2142
 1148SOL     OW 4664   3.118   2.411   1.929  0.5275 -0.1435  0.1942
 1148SOL    HW2 4665   3.128   2.417   2.024 -1.2495  1.2625  0.3080
 1148SOL    HW3 4666   3.143   2.497   1.896 -0.7075 -0.0046 -0.4221
 1148SOL    MW4 4667   3.122   2.423   1.938  0.1299  0.0603  0.1280
 1149SOL     OW 4668   3.188   2.652   1.839  0.3972  0.5049  0.4140
 1149SOL    HW2 4669   3.111   2.706   1.859  0.5446  0.7364  0.3623
 1149SOL    HW3 4670   3.199   2.660   1.744  0.7285  0.8021  0.4770
 1149SOL    MW4 4671   3.179   2.660   1.829  0.4601  0.5744  0.4154
 1150SOL     OW 4672   3.381   2.808   1.966  0.1544 -0.1222  0.0046
 1150SOL    HW2 4673   3.366   2.816   2.060 -0.5581 -0.6242 -0.0688
 1150SOL    HW3 4674   3.312   2.750   1.935 -1.1875  2.0908 -1.2646
 1150SOL    MW4 4675   3.370   2.801   1.974 -0.1168  0.1037 -0.1726
 1151SOL     OW 4676   3.362   3.092   1.872 -0.0248  0.2522  0.1452
 1151SOL    HW2 4677   3.441   3.144   1.886  1.1166 -0.9921 -1.4227
 1151SOL    HW3 4678   3.386   3.004   1.901 -1.4073  0.2361  1.2780
 1151SOL    MW4 4679   3.376   3.087   1.878 -0.0565  0.0858  0.0879
 1152SOL     OW 4680   3.103   3.162   1.959 -0.3580  0.2762  0.3803
 1152SOL    HW2 4681   3.098   3.255   1.936 -0.8917 -0.2068 -1.5597
 1152SOL    HW3 4682   3.193   3.138   1.941 -0.0332  0.5888  1.5786
 1152SOL    MW4 4683   3.114   3.171   1.953 -0.3855  0.2537  0.2823
 1153SOL     OW 4684   3.112   3.439   1.904 -0.1112  0.6222  0.6988
 1153SOL    HW2 4685   3.186   3.494   1.928 -0.1535  1.1576 -0.3456
 1153SOL    HW3 4686   3.113   3.438   1.808 -0.0062 -1.3500  0.6971
 1153SOL    MW4 4687   3.122   3.446   1.894 -0.1030  0.4327  0.5608
 1154SOL     OW 4688   3.337   3.614   1.967 -0.1729  0.2409 -0.0018
 1154SOL    HW2 4689   3.402   3.556   1.928 -0.6789 -0.2994 -0.0446
 1154SOL    HW3 4690   3.356   3.700   1.929  1.0655  0.2690  0.6428
 1154SOL    MW4 4691   3.348   3.617   1.957 -0.0763  0.1731  0.0777
 1155SOL     OW 4692   3.379   3.865   1.870 -0.1508 -0.6371 -0.2649
 1155SOL    HW2 4693   3.292   3.895   1.898 -0.6775 -0.9553 -1.5363
 1155SOL    HW3 4694   3.379   3.875   1.775  1.0696 -1.0105 -0.3195
 1155SOL    MW4 4695   3.368   3.870   1.861 -0.0591 -0.7284 -0.4399
 1156SOL     OW 4696   3.137   3.961   1.952  0.1708  0.2425 -0.0035
 1156SOL    HW2 4697   3.131   3.963   2.047 -2.0889  2.6211 -0.1311
 1156SOL    HW3 4698   3.057   3.919   1.923  0.8905 -0.5587 -0.8713
 1156SOL    MW4 4699   3.126   3.956   1.960 -0.0322  0.4508 -0.1348
 1157SOL     OW 4700   3.127   4.208   1.833  0.0667 -0.2455 -0.0581
 1157SOL    HW2 4701   3.136   4.117   1.860  1.6949 -0.0845  0.0276
 1157SOL    HW3 4702   3.054   4.242   1.885 -0.3219 -1.4002  0.1669
 1157SOL    MW4 4703   3.119   4.201   1.843  0.2301 -0.3767 -0.0170
 1158SOL     OW 4704   3.346   4.329   1.944 -0.2420  0.4406 -0.4164
 1158SOL    HW2 4705   3.425   4.282   1.917 -0.2436  0.4389 -0.4180
 1158SOL    HW3 4706   3.274   4.273   1.912 -0.2600  1.3896 -2.1106
 1158SOL    MW4 4707   3.347   4.315   1.936 -0.2446  0.5651 -0.6402
 1159SOL     OW 4708   3.805   4.637   1.851 -0.4398 -0.6445 -0.5796
 1159SOL    HW2 4709   3.814   4.554   1.897  0.4626  0.2706  0.9271
 1159SOL    HW3 4710   3.722   4.673   1.882  0.2882  0.0884  0.5438
 1159SOL    MW4 4711   3.795   4.631   1.861 -0.2248 -0.4268 -0.2326
 1160SOL     OW 4712   3.600   0.110   1.970 -0.0051  0.2172  0.2361
 1160SOL    HW2 4713   3.599   0.103   2.065 -0.5200  0.7780  0.2720
 1160SOL    HW3 4714   3.523   0.062   1.941  0.7919 -0.9597  0.0257
 1160SOL    MW4 4715   3.590   0.103   1.979  0.0322  0.1359  0.2131
 1161SOL     OW 4716   3.628   0.371   1.889 -0.0336  0.3125  0.1669
 1161SOL    HW2 4717   3.619   0.283   1.927  0.8704  0.1070 -0.0770
 1161SOL    HW3 4718   3.639   0.355   1.795 -2.0901  0.8101 -0.1641
 1161SOL    MW4 4719   3.628   0.357   1.882 -0.1857  0.3510  0.0910
 1162SOL     OW 4720   3.850   0.501   1.977 -0.6401 -0.3123  0.2984
 1162SOL    HW2 4721   3.859   0.587   1.936  1.2581  0.2585  1.8338
 1162SOL    HW3 4722   3.769   0.465   1.940 -2.0740  2.5957  0.4765
 1162SOL    MW4 4723   3.840   0.507   1.967 -0.5789  0.1467  0.5245
 1163SOL     OW 4724   3.827   0.732   1.821  0.1955  0.1247  0.1295
 1163SOL    HW2 4725   3.753   0.781   1.856 -0.4275 -1.3101  0.8500
 1163SOL    HW3 4726   3.821   0.745   1.726 -0.1411  1.1597  0.2779
 1163SOL    MW4 4727   3.816   0.740   1.813  0.0689  0.0719  0.2441
 1164SOL     OW 4728   3.614   0.847   1.960  0.5109 -0.1319  0.1101
 1164SOL    HW2 4729   3.596   0.941   1.953 -0.2012 -0.2904 -0.2708
 1164SOL    HW3 4730   3.542   0.806   1.912  1.1434 -0.8445 -0.2327
 1164SOL    MW4 4731   3.602   0.854   1.952  0.5007 -0.2469  0.0147
 1165SOL     OW 4732   3.638   1.139   1.886  0.1255  0.0189  0.0093
 1165SOL    HW2 4733   3.566   1.193   1.918  0.1653  0.0431  0.0570
 1165SOL    HW3 4734   3.623   1.134   1.791  0.2032  0.2357 -0.0153
 1165SOL    MW4 4735   3.626   1.146   1.877  0.1411  0.0507  0.0123
 1166SOL     OW 4736   3.879   1.266   1.944  0.8371 -0.2428  0.2476
 1166SOL    HW2 4737   3.872   1.265   2.039 -0.7682  0.7454  0.1665
 1166SOL    HW3 4738   3.802   1.217   1.914  0.7105  0.4289 -0.5491
 1166SOL    MW4 4739   3.868   1.260   1.953  0.6087 -0.0238  0.1317
 1167SOL     OW 4740   3.845   1.530   1.855  0.2809 -0.2658 -0.3637
 1167SOL    HW2 4741   3.910   1.586   1.896  0.3068 -0.5956  0.0447
 1167SOL    HW3 4742   3.867   1.442   1.884 -1.1894 -0.2315  0.9043
 1167SOL    MW4 4743   3.856   1.526   1.864  0.0906 -0.3047 -0.1426
 1168SOL     OW 4744   3.612   1.632   1.987  0.2733 -0.0479 -0.1219
 1168SOL    HW2 4745   3.637   1.724   1.977  0.3234 -0.0762 -0.2505
 1168SOL    HW3 4746   3.686   1.583   1.952  0.2105 -0.1369 -0.1289
 1168SOL    MW4 4747   3.625   1.638   1.981  0.2716 -0.0633 -0.1400
 1169SOL     OW 4748   3.647   1.885   1.891  0.1943 -0.1103 -0.4207
 1169SOL    HW2 4749   3.712   1.952   1.911 -1.4070  1.6837 -1.0254
 1169SOL    HW3 4750   3.647   1.880   1.796  0.9835 -1.6906 -0.3514
 1169SOL    MW4 4751   3.656   1.893   1.881  0.0875 -0.0821 -0.4913
 1170SOL     OW 4752   3.825   2.072   1.989  0.0668  0.1775  0.1215
 1170SOL    HW2 4753   3.898   2.016   1.959 -0.3169 -0.4261  0.3071
 1170SOL    HW3 4754   3.834   2.151   1.936  1.3519  0.4468  0.7156
 1170SOL    MW4 4755   3.836   2.075   1.978  0.1857  0.1335  0.2242
 1171SOL     OW 4756   3.873   2.300   1.825  0.0897 -0.3774 -0.1256
 1171SOL    HW2 4757   3.943   2.347   1.871 -0.3611 -0.9744  1.1824
 1171SOL    HW3 4758   3.793   2.346   1.851 -0.0169  0.3370 -1.6624
 1171SOL    MW4 4759   3.872   2.312   1.835  0.0160 -0.3619 -0.1557
 1172SOL     OW 4760   3.624   2.418   1.925  0.5152 -0.1250 -0.2104
 1172SOL    HW2 4761   3.605   2.509   1.901  0.9143  0.2509  0.8710
 1172SOL    HW3 4762   3.541   2.372   1.914  0.2626  0.4062 -0.5727
 1172SOL    MW4 4763   3.611   2.424   1.921  0.5345 -0.0055 -0.1156
 1173SOL     OW 4764   3.584   2.683   1.848  0.1275 -0.1872 -0.4311
 1173SOL    HW2 4765   3.660   2.727   1.887  0.2890 -0.6549 -0.2077
 1173SOL    HW3 4766   3.509   2.714   1.899  0.4988 -1.8376  1.1451
 1173SOL    MW4 4767   3.584   2.693   1.860  0.1979 -0.4663 -0.1937
 1174SOL     OW 4768   3.815   2.797   1.963  0.2013  0.1559  0.0880
 1174SOL    HW2 4769   3.798   2.803   2.056  1.1866 -0.1877  0.3014
 1174SOL    HW3 4770   3.824   2.888   1.934 -1.8963  0.3515 -0.0376
 1174SOL    MW4 4771   3.814   2.810   1.971  0.0544  0.1359  0.0997
 1175SOL     OW 4772   3.805   3.043   1.854 -0.3771  0.2083  0.1536
 1175SOL    HW2 4773   3.724   3.091   1.873 -0.8534 -0.5508  0.0440
 1175SOL    HW3 4774   3.813   3.047   1.758  0.4308  1.4340  0.2559
 1175SOL    MW4 4775   3.796   3.050   1.844 -0.3333  0.2699  0.1525
 1176SOL     OW 4776   3.605   3.220   1.953 -0.2526  0.1881  0.2366
 1176SOL    HW2 4777   3.572   3.227   2.042 -1.2055 -0.7792 -0.0232
 1176SOL    HW3 4778   3.582   3.304   1.912  0.5347  0.7840  0.9985
 1176SOL    MW4 4779   3.597   3.232   1.959 -0.2744  0.1390  0.3029
 1177SOL     OW 4780   3.513   3.453   1.842 -0.2924 -0.1733 -0.5656
 1177SOL    HW2 4781   3.590   3.499   1.876 -0.4039 -0.0141 -0.5338
 1177SOL    HW3 4782   3.522   3.459   1.747 -0.0510 -0.5041 -0.5638
 1177SOL    MW4 4783   3.525   3.460   1.834 -0.2749 -0.1960 -0.5612
 1178SOL     OW 4784   3.743   3.590   1.954  0.1801 -0.0384  0.4308
 1178SOL    HW2 4785   3.821   3.537   1.939 -0.2940 -0.6891  0.1865
 1178SOL    HW3 4786   3.760   3.673   1.910  0.2037 -0.6584 -0.7316
 1178SOL    MW4 4787   3.755   3.594   1.947  0.1209 -0.2060  0.2453
 1179SOL     OW 4788   3.810   3.814   1.837 -0.0687 -0.1987 -0.2606
 1179SOL    HW2 4789   3.759   3.884   1.879 -1.8517 -0.9548 -1.1087
 1179SOL    HW3 4790   3.793   3.823   1.744  1.4095 -0.4461 -0.5722
 1179SOL    MW4 4791   3.801   3.824   1.830 -0.1090 -0.3309 -0.4135
 1180SOL     OW 4792   3.616   3.973   1.961 -0.0538 -1.0694 -0.5254
 1180SOL    HW2 4793   3.603   3.980   2.056 -0.9147  2.0975 -0.8169
 1180SOL    HW3 4794   3.543   3.920   1.931 -0.9239 -0.3963  0.3499
 1180SOL    MW4 4795   3.605   3.967   1.970 -0.2823 -0.5624 -0.4483
 1181SOL     OW 4796   3.562   4.215   1.850 -0.0529 -0.1311 -0.2343
 1181SOL    HW2 4797   3.633   4.273   1.878  1.9835 -1.5671 -2.2298
 1181SOL    HW3 4798   3.585   4.130   1.889 -0.1286 -0.8291 -1.6822
 1181SOL    MW4 4799   3.575   4.211   1.859  0.2058 -0.4125 -0.6886
 1182SOL     OW 4800   3.775   4.366   1.925 -0.0518 -0.4023  0.2304
 1182SOL    HW2 4801   3.776   4.350   2.019  0.3666 -0.8263  0.1543
 1182SOL    HW3 4802   3.854   4.323   1.892  0.2937  0.5220 -0.1906
 1182SOL    MW4 4803   3.786   4.359   1.933  0.0489 -0.3362  0.1647
 1183SOL     OW 4804   4.248   4.619   1.865  0.0865  0.2419  0.0523
 1183SOL    HW2 4805   4.181   4.673   1.907  0.8497  0.3346  1.1633
 1183SOL    HW3 4806   4.331   4.653   1.899  0.6207 -0.9762 -0.0211
 1183SOL    MW4 4807   4.250   4.631   1.875  0.2575  0.0935  0.1892
 1184SOL     OW 4808   4.038   0.109   1.951  0.1585 -0.0131 -0.3104
 1184SOL    HW2 4809   4.033   0.110   2.046  0.4054  1.4000 -0.2940
 1184SOL    HW3 4810   3.963   0.057   1.923 -2.2524  2.8616  0.5628
 1184SOL    MW4 4811   4.028   0.103   1.960 -0.1264  0.5527 -0.1930
 1185SOL     OW 4812   4.033   0.350   1.827  0.5772 -0.0499 -0.2557
 1185SOL    HW2 4813   4.024   0.263   1.864 -1.7133  0.1608 -0.2642
 1185SOL    HW3 4814   3.986   0.407   1.887 -0.5820  0.7266 -1.8619
 1185SOL    MW4 4815   4.025   0.346   1.840  0.1221  0.0803 -0.4689
 1186SOL     OW 4816   4.282   0.470   1.936 -0.0159  0.2688 -0.0901
 1186SOL    HW2 4817   4.270   0.464   2.031 -1.3418 -1.0790 -0.3090
 1186SOL    HW3 4818   4.205   0.425   1.900  1.7501 -1.5184 -1.7614
 1186SOL    MW4 4819   4.270   0.463   1.944  0.0420 -0.1448 -0.3394
 1187SOL     OW 4820   4.267   0.733   1.883  0.2369 -0.1737  0.3838
 1187SOL    HW2 4821   4.275   0.641   1.909  0.8657 -0.0097  0.7714
 1187SOL    HW3 4822   4.267   0.731   1.787  2.6919 -0.3850  0.3612
 1187SOL    MW4 4823   4.268   0.721   1.874  0.6437 -0.1799  0.4319
 1188SOL     OW 4824   4.032   0.899   1.922  0.0254 -0.0752  0.4629
 1188SOL    HW2 4825   4.104   0.838   1.902  0.9863  1.5600 -1.2503
 1188SOL    HW3 4826   3.956   0.860   1.880  0.8279  0.3321 -1.4306
 1188SOL    MW4 4827   4.032   0.885   1.914  0.2584  0.1944 -0.0131
 1189SOL     OW 4828   4.107   1.170   1.850  0.0058  0.7507  0.0496
 1189SOL    HW2 4829   4.091   1.078   1.869  1.1558  0.4226 -0.5556
 1189SOL    HW3 4830   4.031   1.216   1.887  0.2365 -0.2722  1.7951
 1189SOL    MW4 4831   4.095   1.164   1.857  0.1884  0.5726  0.2000
 1190SOL     OW 4832   4.318   1.300   1.969  0.0733 -0.3238 -0.3221
 1190SOL    HW2 4833   4.307   1.297   2.064  2.3630 -3.8058 -0.0608
 1190SOL    HW3 4834   4.241   1.255   1.935 -0.8456  1.0949 -0.1416
 1190SOL    MW4 4835   4.307   1.293   1.977  0.2542 -0.5960 -0.2639
 1191SOL     OW 4836   4.292   1.558   1.900  0.1513 -0.6493 -0.5400
 1191SOL    HW2 4837   4.297   1.469   1.934 -1.2175 -0.7094 -0.4585
 1191SOL    HW3 4838   4.291   1.547   1.805 -1.8732 -0.8475 -0.5105
 1191SOL    MW4 4839   4.293   1.545   1.892 -0.2961 -0.6834 -0.5254
 1192SOL     OW 4840   4.047   1.658   1.990  0.2160  0.5858  0.1712
 1192SOL    HW2 4841   4.018   1.642   2.080 -0.1075 -0.3683 -0.1010
 1192SOL    HW3 4842   4.127   1.607   1.981 -0.4821 -0.4037 -0.5042
 1192SOL    MW4 4843   4.054   1.650   2.001  0.0806  0.3294  0.0463
 1193SOL     OW 4844   4.051   1.923   1.889 -0.0697  0.2366  0.0764
 1193SOL    HW2 4845   4.040   1.835   1.924 -0.5837  0.4833  0.5344
 1193SOL    HW3 4846   4.081   1.910   1.799 -0.0411 -0.4020  0.1792
 1193SOL    MW4 4847   4.054   1.910   1.882 -0.1340  0.1849  0.1504
 1194SOL     OW 4848   4.271   2.072   1.956 -0.4767  0.0082  0.0896
 1194SOL    HW2 4849   4.271   2.080   2.052 -0.0340 -3.6786  0.4801
 1194SOL    HW3 4850   4.191   2.024   1.936 -1.5985  2.5045 -1.6324
 1194SOL    MW4 4851   4.261   2.067   1.966 -0.5670 -0.1488 -0.0859
 1195SOL     OW 4852   4.237   2.343   1.882  0.2188 -0.0230  0.4847
 1195SOL    HW2 4853   4.242   2.248   1.892 -1.0374 -0.0881  0.5502
 1195SOL    HW3 4854   4.326   2.374   1.900  0.3152 -1.0547  1.8370
 1195SOL    MW4 4855   4.250   2.335   1.885  0.0658 -0.1676  0.6717
 1196SOL     OW 4856   4.024   2.436   2.003 -0.5302 -0.1602  0.0590
 1196SOL    HW2 4857   4.034   2.438   2.099 -0.3310  2.8448  0.0292
 1196SOL    HW3 4858   4.108   2.402   1.972 -0.0107  0.3160  0.8975
 1196SOL    MW4 4859   4.036   2.431   2.012 -0.4358  0.2992  0.1655
 1197SOL     OW 4860   4.035   2.685   1.861  0.0932  0.2719  0.3098
 1197SOL    HW2 4861   4.039   2.595   1.893 -1.1512  0.0816 -0.0339
 1197SOL    HW3 4862   3.957   2.721   1.902 -0.7923  0.4236 -1.4622
 1197SOL    MW4 4863   4.025   2.677   1.871 -0.1879  0.2668  0.0306
 1198SOL     OW 4864   4.263   2.803   1.961  0.0836  0.2838  0.2275
 1198SOL    HW2 4865   4.261   2.807   2.056 -1.0433 -0.1344  0.2298
 1198SOL    HW3 4866   4.187   2.749   1.937  1.1092 -0.7279 -0.8486
 1198SOL    MW4 4867   4.252   2.796   1.970  0.0706  0.0954  0.0858
 1199SOL     OW 4868   4.209   3.033   1.815 -0.2330 -0.6796  0.0215
 1199SOL    HW2 4869   4.147   3.093   1.857  1.3179  0.7245  0.3561
 1199SOL    HW3 4870   4.219   2.961   1.878  2.0822  1.4169  2.1484
 1199SOL    MW4 4871   4.202   3.031   1.829  0.2766 -0.2177  0.3462
 1200SOL     OW 4872   4.020   3.221   1.936  0.1108  0.7128  0.1483
 1200SOL    HW2 4873   4.021   3.208   2.031  0.1751 -1.9073 -0.1750
 1200SOL    HW3 4874   3.946   3.170   1.905  0.9309  0.3906 -1.3531
 1200SOL    MW4 4875   4.010   3.212   1.945  0.2279  0.3247 -0.0924
 1201SOL     OW 4876   3.985   3.481   1.871  0.3935 -0.1751  0.0145
 1201SOL    HW2 4877   4.054   3.537   1.907 -0.7366  1.4320 -0.2757
 1201SOL    HW3 4878   4.008   3.392   1.900  2.2698  0.4162  0.3842
 1201SOL    MW4 4879   3.997   3.476   1.879  0.4923  0.1147  0.0250
 1202SOL     OW 4880   4.204   3.605   1.971 -0.1125 -0.0363  0.0859
 1202SOL    HW2 4881   4.218   3.693   1.937  0.2000  0.1768  0.7539
 1202SOL    HW3 4882   4.277   3.554   1.936 -1.4374 -0.5359 -2.0251
 1202SOL    MW4 4883   4.215   3.610   1.962 -0.2460 -0.0741 -0.1045
 1203SOL     OW 4884   4.255   3.860   1.846  0.0747  0.1725  0.3989
 1203SOL    HW2 4885   4.336   3.896   1.883 -0.0355  0.5779  0.2525
 1203SOL    HW3 4886   4.263   3.874   1.752 -0.8486  1.6482  0.5247
 1203SOL    MW4 4887   4.267   3.867   1.839 -0.0610  0.4208  0.3963
 1204SOL     OW 4888   4.013   3.977   1.907 -0.0506  0.0862  0.0189
 1204SOL    HW2 4889   4.098   3.938   1.886  0.7169  1.2212  0.9408
 1204SOL    HW3 4890   3.949   3.919   1.866  1.1014 -1.6992  0.6732
 1204SOL    MW4 4891   4.016   3.964   1.899  0.2031  0.0002  0.2270
 1205SOL     OW 4892   4.010   4.236   1.829 -0.6271 -0.0970  0.7522
 1205SOL    HW2 4893   4.072   4.287   1.880  1.5649 -2.3677  0.4386
 1205SOL    HW3 4894   4.014   4.147   1.866 -1.1574 -1.0887 -1.4565
 1205SOL    MW4 4895   4.018   4.231   1.840 -0.4077 -0.5279  0.4194
 1206SOL     OW 4896   4.236   4.364   1.967  0.2456 -0.3757  0.2525
 1206SOL    HW2 4897   4.252   4.372   2.061 -0.0644 -0.2091  0.2911
 1206SOL    HW3 4898   4.214   4.452   1.938 -1.0359 -0.6653  0.2864
 1206SOL    MW4 4899   4.235   4.376   1.976  0.0358 -0.3920  0.2621
 1207SOL     OW 4900   0.213   4.659   2.317 -0.0051 -0.1633  0.0226
 1207SOL    HW2 4901   0.205   4.663   2.412  0.4463  2.7599 -0.0376
 1207SOL    HW3 4902   0.295   4.705   2.297 -0.2308 -0.4991 -1.8059
 1207SOL    MW4 4903   0.223   4.665   2.327  0.0247  0.1779 -0.2265
 1208SOL     OW 4904   4.471   0.156   2.240 -0.4781 -0.1737 -0.0468
 1208SOL    HW2 4905   4.551   0.111   2.267 -1.9763 -2.1571  1.3322
 1208SOL    HW3 4906   4.455   0.124   2.151 -0.5575 -1.0151  0.2588
 1208SOL    MW4 4907   4.479   0.146   2.232 -0.6862 -0.5464  0.1755
 1209SOL     OW 4908   4.459   0.406   2.347  0.1696 -0.1395 -0.3258
 1209SOL    HW2 4909   4.536   0.451   2.312 -0.0510  0.6162  0.1462
 1209SOL    HW3 4910   4.465   0.317   2.312  1.3738 -0.1476 -0.1078
 1209SOL    MW4 4911   4.470   0.401   2.338  0.2999 -0.0408 -0.2348
 1210SOL     OW 4912   0.203   0.510   2.254  0.3096 -0.0726 -0.3447
 1210SOL    HW2 4913   0.280   0.467   2.292 -1.3922 -1.2184  1.9124
 1210SOL    HW3 4914   0.219   0.508   2.160  1.7422 -2.8793 -0.1027
 1210SOL    MW4 4915   0.215   0.504   2.247  0.2741 -0.5941 -0.0150
 1211SOL     OW 4916   0.154   0.757   2.355 -0.4008  0.4034  0.2166
 1211SOL    HW2 4917   0.169   0.744   2.449  1.7714  1.7322  0.1105
 1211SOL    HW3 4918   0.181   0.675   2.315 -0.0567  0.2897  0.6687
 1211SOL    MW4 4919   0.160   0.745   2.362 -0.0688  0.5638  0.2625
 1212SOL     OW 4920   4.442   0.909   2.267  0.8647  0.5613  0.6858
 1212SOL    HW2 4921   4.514   0.858   2.304  0.2357 -1.5885 -0.9090
 1212SOL    HW3 4922   4.454   0.902   2.172  0.0286  2.3667  0.4345
 1212SOL    MW4 4923   4.453   0.901   2.259  0.6714  0.5158  0.4423
 1213SOL     OW 4924   0.026   1.174   2.328  0.1231  0.2780 -0.2673
 1213SOL    HW2 4925   0.031   1.198   2.420  0.5157  0.2836 -0.2874
 1213SOL    HW3 4926  -0.011   1.086   2.328 -2.7513  1.4168 -0.2700
 1213SOL    MW4 4927   0.022   1.166   2.340 -0.2041  0.4289 -0.2704
 1214SOL     OW 4928   0.250   1.278   2.229  0.3755  0.4232 -0.1286
 1214SOL    HW2 4929   0.170   1.230   2.252 -0.6435  1.9955 -0.3107
 1214SOL    HW3 4930   0.250   1.280   2.133  2.5811 -2.7329 -0.2883
 1214SOL    MW4 4931   0.240   1.272   2.219  0.5320  0.2142 -0.1738
 1215SOL     OW 4932   0.222   1.539   2.349  0.2275 -0.4370 -0.2457
 1215SOL    HW2 4933   0.225   1.544   2.445 -1.0416 -0.5662 -0.1896
 1215SOL    HW3 4934   0.241   1.447   2.329 -0.4765 -0.6224 -0.0681
 1215SOL    MW4 4935   0.225   1.527   2.359 -0.0328 -0.4784 -0.2148
 1216SOL     OW 4936   4.478   1.675   2.269  0.1483  0.1086  0.4063
 1216SOL    HW2 4937   4.481   1.760   2.312  0.5701 -0.1050  0.8157
 1216SOL    HW3 4938   4.561   1.634   2.293  0.5113  0.0886 -0.8294
 1216SOL    MW4 4939   4.490   1.681   2.278  0.2518  0.0777  0.2973
 1217SOL     OW 4940   4.454   1.931   2.381  0.3652 -0.0572  0.0324
 1217SOL    HW2 4941   4.388   1.970   2.324  0.7731  0.6048  0.0067
 1217SOL    HW3 4942   4.537   1.964   2.348  0.8348 -2.1021 -0.8919
 1217SOL    MW4 4943   4.456   1.940   2.369  0.4811 -0.2396 -0.0930
 1218SOL     OW 4944   0.198   2.059   2.282  0.0572 -0.3746 -0.5769
 1218SOL    HW2 4945   0.280   2.016   2.306 -0.6392 -2.3298 -1.5801
 1218SOL    HW3 4946   0.195   2.055   2.187 -0.7610  0.5622 -0.5997
 1218SOL    MW4 4947   0.208   2.053   2.273 -0.1426 -0.5090 -0.7122
 1219SOL     OW 4948   0.220   2.313   2.370  0.6536  0.1134 -0.5857
 1219SOL    HW2 4949   0.211   2.314   2.465  0.3238  0.1700 -0.6165
 1219SOL    HW3 4950   0.220   2.221   2.346  1.5183  0.0768 -0.4597
 1219SOL    MW4 4951   0.219   2.301   2.379  0.7242  0.1159 -0.5734
 1220SOL     OW 4952   0.015   2.461   2.226 -0.3177 -0.0841 -0.2104
 1220SOL    HW2 4953   0.005   2.544   2.273 -0.2563 -0.7133  0.9292
 1220SOL    HW3 4954   0.090   2.418   2.268 -0.9532 -1.1550 -0.1406
 1220SOL    MW4 4955   0.024   2.466   2.237 -0.3934 -0.3083 -0.0505
 1221SOL     OW 4956   4.458   2.691   2.327  0.3257  0.6413 -0.5954
 1221SOL    HW2 4957   4.445   2.694   2.421  0.1923  0.3631 -0.6030
 1221SOL    HW3 4958   4.541   2.737   2.312  0.5243  0.3728 -0.3077
 1221SOL    MW4 4959   4.467   2.697   2.337  0.3347  0.5691 -0.5584
 1222SOL     OW 4960   0.217   2.788   2.279  0.1834  0.5107 -0.0142
 1222SOL    HW2 4961   0.302   2.751   2.305 -0.0143  0.9195  1.2583
 1222SOL    HW3 4962   0.223   2.798   2.185  0.3802 -2.4412 -0.3681
 1222SOL    MW4 4963   0.229   2.784   2.270  0.1833  0.1748  0.1070
 1223SOL     OW 4964   0.210   3.071   2.359  0.3877  0.2024  0.6345
 1223SOL    HW2 4965   0.128   3.097   2.318  0.2318 -0.0059  0.8148
 1223SOL    HW3 4966   0.223   2.980   2.332  0.2206  0.0239  1.1496
 1223SOL    MW4 4967   0.201   3.062   2.350  0.3451  0.1509  0.7262
 1224SOL     OW 4968   4.476   3.180   2.194 -0.4039  0.0494 -0.3795
 1224SOL    HW2 4969   4.462   3.269   2.229  1.5539  0.7939 -1.4239
 1224SOL    HW3 4970   4.456   3.188   2.101  1.2936 -0.2134 -0.7771
 1224SOL    MW4 4971   4.472   3.193   2.187  0.0785  0.1132 -0.5696
 1225SOL     OW 4972   4.457   3.441   2.293 -0.2394 -0.0485 -0.3483
 1225SOL    HW2 4973   4.460   3.448   2.388  1.5679 -0.9234 -0.3167
 1225SOL    HW3 4974   4.376   3.485   2.268 -0.4951  0.5995  1.5522
 1225SOL    MW4 4975   4.447   3.447   2.302 -0.0348 -0.0784 -0.0935
 1226SOL     OW 4976   0.199   3.604   2.280  0.4791 -0.0439 -0.4798
 1226SOL    HW2 4977   0.261   3.546   2.325  0.2791  0.3928  0.3805
 1226SOL    HW3 4978   0.119   3.552   2.274  0.3927  0.0266  0.0176
 1226SOL    MW4 4979   0.196   3.589   2.285  0.4413  0.0231 -0.3006
 1227SOL     OW 4980   0.247   3.865   2.361 -0.2213  0.1883  0.0897
 1227SOL    HW2 4981   0.162   3.898   2.333 -0.3523  0.7842  1.1717
 1227SOL    HW3 4982   0.250   3.775   2.329 -2.2727 -0.6727  2.1784
 1227SOL    MW4 4983   0.237   3.858   2.353 -0.5093  0.1533  0.5081
 1228SOL     OW 4984   0.003   3.998   2.271  0.3044 -0.3834  0.2557
 1228SOL    HW2 4985   0.011   4.089   2.300  0.9100 -0.2554 -0.2863
 1228SOL    HW3 4986   0.011   4.003   2.175  1.1267 -1.0750  0.2793
 1228SOL    MW4 4987   0.005   4.011   2.262  0.4930 -0.4582  0.1874
 1229SOL     OW 4988   0.022   4.268   2.356  0.1320 -0.5601 -0.2299
 1229SOL    HW2 4989   0.029   4.289   2.449  0.0725  0.4652 -0.4544
 1229SOL    HW3 4990   0.086   4.324   2.313 -1.4504  0.6655 -1.0582
 1229SOL    MW4 4991   0.031   4.278   2.362 -0.0846 -0.2632 -0.3688
 1230SOL     OW 4992   0.250   4.389   2.255 -0.2495 -0.1246 -0.0524
 1230SOL    HW2 4993   0.319   4.333   2.289  1.2661  0.3943 -2.1919
 1230SOL    HW3 4994   0.271   4.476   2.288 -0.6531 -0.1988  0.4089
 1230SOL    MW4 4995   0.262   4.393   2.264 -0.1028 -0.0658 -0.2737
 1231SOL     OW 4996   0.656   4.630   2.348 -0.4067  0.1845  0.3595
 1231SOL    HW2 4997   0.664   4.639   2.443 -1.0322  2.1324  0.2408
 1231SOL    HW3 4998   0.725   4.686   2.313 -1.5793  1.2043 -0.3600
 1231SOL    MW4 4999   0.666   4.638   2.356 -0.6439  0.5760  0.2489
 1232SOL     OW 5000   0.453   0.121   2.272 -0.3097  0.1875 -0.4159
 1232SOL    HW2 5001   0.517   0.054   2.294  0.4852  0.6695 -1.2527
 1232SOL    HW3 5002   0.442   0.114   2.178 -0.6911  0.8173 -0.4235
 1232SOL    MW4 5003   0.460   0.112   2.263 -0.2552  0.3342 -0.5274
 1233SOL     OW 5004   0.444   0.384   2.333 -0.0459  0.2619  0.0775
 1233SOL    HW2 5005   0.440   0.384   2.429 -0.4309 -1.4676  0.0893
 1233SOL    HW3 5006   0.465   0.293   2.311  0.1442  0.6732 -1.4842
 1233SOL    MW4 5007   0.446   0.372   2.343 -0.0716  0.0880 -0.1271
 1234SOL     OW 5008   0.670   0.513   2.205 -0.3616 -0.1948 -0.2534
 1234SOL    HW2 5009   0.658   0.603   2.236  0.7497  0.0175 -0.4355
 1234SOL    HW3 5010   0.602   0.463   2.251 -1.0575  0.7550 -0.2413
 1234SOL    MW4 5011   0.659   0.518   2.215 -0.3067 -0.0415 -0.2756
 1235SOL     OW 5012   0.662   0.754   2.348  0.2673 -0.2306  0.1214
 1235SOL    HW2 5013   0.668   0.751   2.443  0.6125  1.3270  0.1513
 1235SOL    HW3 5014   0.578   0.796   2.330  0.4421 -0.0437 -0.2667
 1235SOL    MW4 5015   0.651   0.759   2.358  0.3359 -0.0004  0.0741
 1236SOL     OW 5016   0.422   0.884   2.256  0.2663  0.4191 -0.0504
 1236SOL    HW2 5017   0.333   0.851   2.271  0.5978 -0.5881 -0.2899
 1236SOL    HW3 5018   0.427   0.896   2.162  0.4139  0.4177 -0.0418
 1236SOL    MW4 5019   0.411   0.881   2.246  0.3295  0.2860 -0.0808
 1237SOL     OW 5020   0.447   1.153   2.367 -0.7574  0.7579  0.3449
 1237SOL    HW2 5021   0.444   1.070   2.318 -0.4117  0.2810  1.1188
 1237SOL    HW3 5022   0.386   1.210   2.321 -0.4386  0.3227 -0.6515
 1237SOL    MW4 5023   0.439   1.149   2.354 -0.6697  0.6377  0.3154
 1238SOL     OW 5024   0.675   1.258   2.271  0.1411  0.3225  0.0717
 1238SOL    HW2 5025   0.686   1.348   2.300 -0.4520  0.3718  0.1503
 1238SOL    HW3 5026   0.592   1.229   2.311 -0.2353  0.1112 -0.8482
 1238SOL    MW4 5027   0.665   1.266   2.280  0.0132  0.3011 -0.0393
 1239SOL     OW 5028   0.656   1.520   2.363  0.3719 -0.2242  0.5909
 1239SOL    HW2 5029   0.645   1.543   2.455  0.6108  1.1575  0.2815
 1239SOL    HW3 5030   0.724   1.579   2.331 -1.9188  1.5141 -1.2657
 1239SOL    MW4 5031   0.664   1.530   2.371  0.1011  0.1875  0.3052
 1240SOL     OW 5032   0.445   1.673   2.256  0.0960 -0.0172  0.8402
 1240SOL    HW2 5033   0.521   1.639   2.304 -0.2906  0.0813  1.5265
 1240SOL    HW3 5034   0.373   1.614   2.280  0.3693 -1.3036 -1.3474
 1240SOL    MW4 5035   0.446   1.661   2.266  0.0811 -0.1739  0.6423
 1241SOL     OW 5036   0.438   1.924   2.360 -0.1496 -0.1796 -0.4482
 1241SOL    HW2 5037   0.520   1.961   2.328 -1.0884  1.0260 -1.5080
 1241SOL    HW3 5038   0.444   1.830   2.339  1.2270 -0.2245  0.1042
 1241SOL    MW4 5039   0.449   1.916   2.353 -0.0919 -0.0265 -0.5152
 1242SOL     OW 5040   0.680   2.012   2.236 -0.3720 -0.3806 -0.1660
 1242SOL    HW2 5041   0.762   1.986   2.278 -1.1639 -1.5746  0.6841
 1242SOL    HW3 5042   0.668   2.104   2.261  0.5163 -0.3100  0.0009
 1242SOL    MW4 5043   0.689   2.021   2.245 -0.3593 -0.5288 -0.0319
 1243SOL     OW 5044   0.695   2.270   2.359 -0.1999 -0.6083 -0.4119
 1243SOL    HW2 5045   0.718   2.273   2.452  0.7157 -0.5768 -0.6360
 1243SOL    HW3 5046   0.759   2.328   2.317 -0.0742 -1.2922 -1.1725
 1243SOL    MW4 5047   0.707   2.278   2.365 -0.0626 -0.6948 -0.5417
 1244SOL     OW 5048   0.460   2.380   2.269 -0.3989 -0.0555  0.3801
 1244SOL    HW2 5049   0.535   2.357   2.324 -0.4827  1.4854  1.1605
 1244SOL    HW3 5050   0.384   2.352   2.320 -0.5034  1.9901  1.3634
 1244SOL    MW4 5051   0.460   2.373   2.283 -0.4238  0.4177  0.6130
 1245SOL     OW 5052   0.456   2.668   2.330  0.2029 -0.0986  0.4415
 1245SOL    HW2 5053   0.445   2.669   2.426 -2.2927  0.0433  0.2065
 1245SOL    HW3 5054   0.435   2.578   2.305 -2.5808  0.6833 -0.2544
 1245SOL    MW4 5055   0.452   2.656   2.340 -0.4936  0.0229  0.3188
 1246SOL     OW 5056   0.637   2.850   2.224  0.2374  0.3662  0.4069
 1246SOL    HW2 5057   0.716   2.797   2.228  0.2314  0.1308 -1.9946
 1246SOL    HW3 5058   0.567   2.792   2.256  0.7535 -0.0224  0.8241
 1246SOL    MW4 5059   0.638   2.835   2.229  0.3048  0.2840  0.1452
 1247SOL     OW 5060   0.666   3.081   2.374  0.7102 -0.1128  0.3714
 1247SOL    HW2 5061   0.585   3.126   2.349  1.3629  0.7530 -0.2265
 1247SOL    HW3 5062   0.656   2.992   2.340  1.2783  0.8376 -2.4030
 1247SOL    MW4 5063   0.654   3.075   2.366  0.8713  0.1268 -0.0734
 1248SOL     OW 5064   0.446   3.197   2.257  0.3352 -0.2783  0.1355
 1248SOL    HW2 5065   0.363   3.160   2.285  0.4629 -0.6785 -0.0029
 1248SOL    HW3 5066   0.434   3.217   2.164 -0.0822  1.0304  0.4717
 1248SOL    MW4 5067   0.434   3.195   2.248  0.2970 -0.1585  0.1614
 1249SOL     OW 5068   0.415   3.436   2.382  0.7168 -0.1643  0.0962
 1249SOL    HW2 5069   0.480   3.496   2.345  0.5048 -0.0696 -0.1280
 1249SOL    HW3 5070   0.429   3.354   2.336  1.0972 -0.3245  0.5001
 1249SOL    MW4 5071   0.425   3.433   2.371  0.7390 -0.1731  0.1197
 1250SOL     OW 5072   0.637   3.578   2.248 -0.1616  0.2704 -0.0158
 1250SOL    HW2 5073   0.632   3.673   2.256 -1.3502  0.1586  0.7280
 1250SOL    HW3 5074   0.639   3.562   2.154  0.5120  1.0496 -0.1399
 1250SOL    MW4 5075   0.637   3.588   2.237 -0.2296  0.3583  0.0660
 1251SOL     OW 5076   0.634   3.858   2.314  0.0038  0.0932  0.3135
 1251SOL    HW2 5077   0.628   3.848   2.409 -0.0924 -0.8493  0.2173
 1251SOL    HW3 5078   0.567   3.923   2.292 -1.0656 -0.8517  0.7144
 1251SOL    MW4 5079   0.624   3.865   2.324 -0.1500 -0.1559  0.3536
 1252SOL     OW 5080   0.432   4.018   2.226 -0.3683  0.1376  0.1548
 1252SOL    HW2 5081   0.363   3.969   2.270 -0.3222 -0.2907 -0.2443
 1252SOL    HW3 5082   0.424   3.993   2.134  0.9712 -0.7186  0.2509
 1252SOL    MW4 5083   0.422   4.008   2.219 -0.1855 -0.0315  0.1149
 1253SOL     OW 5084   0.442   4.223   2.377  0.6408 -0.1920 -0.0238
 1253SOL    HW2 5085   0.522   4.264   2.345  0.7868 -0.2358  0.2803
 1253SOL    HW3 5086   0.429   4.148   2.320  0.6256  0.0142 -0.2926
 1253SOL    MW4 5087   0.451   4.219   2.365  0.6581 -0.1707 -0.0191
 1254SOL     OW 5088   0.672   4.361   2.288  0.0750 -0.5672  0.1914
 1254SOL    HW2 5089   0.667   4.453   2.313  0.2952 -0.6691  0.6100
 1254SOL    HW3 5090   0.671   4.363   2.192 -0.6435 -0.1767  0.2055
 1254SOL    MW4 5091   0.672   4.374   2.279  0.0092 -0.5293  0.2489
 1255SOL     OW 5092   1.101   4.620   2.356 -0.4114 -0.1674 -0.0018
 1255SOL    HW2 5093   1.106   4.619   2.452 -1.2564  0.4142  0.0562
 1255SOL    HW3 5094   1.029   4.680   2.336  0.0071  0.0131 -1.0166
 1255SOL    MW4 5095   1.092   4.627   2.366 -0.4677 -0.0668 -0.1280
 1256SOL     OW 5096   0.883   0.122   2.280  0.1179 -0.1884  0.0818
 1256SOL    HW2 5097   0.869   0.214   2.301 -1.6540 -0.6906  1.1341
 1256SOL    HW3 5098   0.897   0.121   2.185 -1.6476  0.9670 -0.2092
 1256SOL    MW4 5099   0.883   0.134   2.270 -0.3488 -0.1022  0.1824
 1257SOL     OW 5100   0.902   0.401   2.360 -0.4697 -0.0335  0.1329
 1257SOL    HW2 5101   0.985   0.447   2.358 -0.3798 -0.1470  1.1127
 1257SOL    HW3 5102   0.841   0.458   2.312 -0.2525  0.8805  0.9383
 1257SOL    MW4 5103   0.905   0.414   2.353 -0.4291  0.0722  0.3684
 1258SOL     OW 5104   1.138   0.539   2.270  0.2923 -0.4874  0.4129
 1258SOL    HW2 5105   1.206   0.481   2.305  0.6615  0.6855  1.7167
 1258SOL    HW3 5106   1.127   0.511   2.179  1.6249 -1.5211  0.5451
 1258SOL    MW4 5107   1.146   0.528   2.263  0.5168 -0.4691  0.6022
 1259SOL     OW 5108   1.139   0.811   2.357 -0.0560 -0.2681  0.3524
 1259SOL    HW2 5109   1.068   0.856   2.312  0.6280  0.1161 -0.3362
 1259SOL    HW3 5110   1.129   0.719   2.331 -0.4594 -0.2612  0.4755
 1259SOL    MW4 5111   1.128   0.805   2.348 -0.0191 -0.2166  0.2778
 1260SOL     OW 5112   0.852   0.900   2.198 -0.0793 -0.5254 -0.3110
 1260SOL    HW2 5113   0.863   0.976   2.256  1.1593 -0.7015 -0.3013
 1260SOL    HW3 5114   0.782   0.849   2.239 -0.5886  0.3684 -0.0580
 1260SOL    MW4 5115   0.845   0.903   2.211  0.0170 -0.4308 -0.2766
 1261SOL     OW 5116   0.895   1.124   2.381  0.3589 -0.0606  0.0851
 1261SOL    HW2 5117   0.962   1.184   2.347 -0.4136  0.1524 -1.0676
 1261SOL    HW3 5118   0.812   1.166   2.359 -0.1712 -0.8545  0.5601
 1261SOL    MW4 5119   0.893   1.138   2.374  0.1870 -0.1371 -0.0045
 1262SOL     OW 5120   1.113   1.263   2.289  0.2974  0.1846  0.1323
 1262SOL    HW2 5121   1.195   1.242   2.333  0.3825  2.2574  1.0205
 1262SOL    HW3 5122   1.138   1.283   2.199  0.6882  0.2620  0.2589
 1262SOL    MW4 5123   1.127   1.263   2.283  0.3603  0.4684  0.2661
 1263SOL     OW 5124   1.114   1.541   2.360  0.1026  0.2349 -0.1171
 1263SOL    HW2 5125   1.038   1.575   2.312  0.3617  0.3007 -0.4852
 1263SOL    HW3 5126   1.110   1.446   2.348  0.8857  0.3465 -1.3585
 1263SOL    MW4 5127   1.103   1.533   2.352  0.2402  0.2583 -0.3295
 1264SOL     OW 5128   0.882   1.667   2.261  0.5209  0.4217  0.0608
 1264SOL    HW2 5129   0.896   1.754   2.298  0.1847  0.5103 -0.0218
 1264SOL    HW3 5130   0.918   1.672   2.172  2.6173 -0.1992  0.8428
 1264SOL    MW4 5131   0.889   1.679   2.254  0.7532  0.3517  0.1528
 1265SOL     OW 5132   0.922   1.919   2.359  0.0672  0.0005 -0.1373
 1265SOL    HW2 5133   0.937   1.924   2.453  0.5812  1.9241 -0.2969
 1265SOL    HW3 5134   1.006   1.944   2.320  0.1115 -1.6188 -1.1227
 1265SOL    MW4 5135   0.935   1.923   2.366  0.1409  0.0407 -0.2882
 1266SOL     OW 5136   1.116   2.032   2.220 -0.5429 -0.3808 -0.6951
 1266SOL    HW2 5137   1.198   2.005   2.262 -0.5564 -1.2635 -1.2310
 1266SOL    HW3 5138   1.138   2.039   2.127 -0.1974  2.7429 -0.4420
 1266SOL    MW4 5139   1.130   2.030   2.213 -0.4990 -0.0854 -0.7324
 1267SOL     OW 5140   1.115   2.299   2.352  0.2306 -0.1204 -0.2970
 1267SOL    HW2 5141   1.194   2.339   2.315  0.1820 -0.5337 -0.8533
 1267SOL    HW3 5142   1.100   2.222   2.298 -0.9965  0.3771 -0.6761
 1267SOL    MW4 5143   1.123   2.294   2.340  0.0622 -0.1092 -0.4203
 1268SOL     OW 5144   0.873   2.430   2.227 -0.1692  0.0700 -0.2407
 1268SOL    HW2 5145   0.944   2.375   2.260 -0.3297 -0.0754 -0.1322
 1268SOL    HW3 5146   0.882   2.426   2.132 -0.6835 -0.8317 -0.2612
 1268SOL    MW4 5147   0.883   2.422   2.219 -0.2582 -0.0682 -0.2289
 1269SOL     OW 5148   0.860   2.693   2.301 -0.5919  0.0453  0.1090
 1269SOL    HW2 5149   0.869   2.692   2.396  2.6730  3.1286 -0.0639
 1269SOL    HW3 5150   0.867   2.601   2.275  0.9199 -0.6027  2.6511
 1269SOL    MW4 5151   0.862   2.681   2.310  0.0383  0.3669  0.4215
 1270SOL     OW 5152   1.076   2.822   2.204 -0.0094 -0.0251 -0.0701
 1270SOL    HW2 5153   1.143   2.772   2.251  1.3263  0.8332 -1.0159
 1270SOL    HW3 5154   0.994   2.779   2.226  0.8744 -1.2056  0.9841
 1270SOL    MW4 5155   1.074   2.810   2.213  0.2834 -0.0677 -0.0560
 1271SOL     OW 5156   1.096   3.080   2.339 -0.1713 -0.7458 -0.3795
 1271SOL    HW2 5157   1.015   3.117   2.303 -0.8029 -0.7954  0.9396
 1271SOL    HW3 5158   1.103   2.994   2.297 -1.2413 -1.0770  0.0996
 1271SOL    MW4 5159   1.086   3.073   2.329 -0.3958 -0.7958 -0.1423
 1272SOL     OW 5160   0.881   3.179   2.218  0.3058 -0.1682 -0.0965
 1272SOL    HW2 5161   0.890   3.273   2.233  0.4309 -0.4191  1.5655
 1272SOL    HW3 5162   0.808   3.153   2.275  0.7591 -1.2057  0.0172
 1272SOL    MW4 5163   0.872   3.188   2.228  0.3821 -0.3381  0.1378
 1273SOL     OW 5164   0.866   3.448   2.310  0.2698  0.3745  0.2852
 1273SOL    HW2 5165   0.881   3.444   2.404 -1.2518  0.9471  0.5584
 1273SOL    HW3 5166   0.781   3.491   2.300  0.4893  0.4792 -1.3533
 1273SOL    MW4 5167   0.857   3.453   2.321  0.0980  0.4637  0.1051
 1274SOL     OW 5168   1.114   3.556   2.230  0.1651  0.3543 -0.0310
 1274SOL    HW2 5169   1.189   3.503   2.257 -0.5017  0.7299  2.7208
 1274SOL    HW3 5170   1.038   3.502   2.249 -0.3496  0.4830 -1.6286
 1274SOL    MW4 5171   1.114   3.542   2.236  0.0092  0.4208  0.1214
 1275SOL     OW 5172   1.117   3.838   2.287  0.0353  0.2933 -0.4008
 1275SOL    HW2 5173   1.204   3.876   2.270  0.3251  0.2394  0.8655
 1275SOL    HW3 5174   1.127   3.745   2.264 -0.4270  0.7907 -2.6754
 1275SOL    MW4 5175   1.130   3.831   2.282  0.0125  0.3519 -0.5336
 1276SOL     OW 5176   0.871   3.984   2.265 -0.1355  0.1646 -0.1580
 1276SOL    HW2 5177   0.946   3.925   2.268  0.4153  0.8244 -0.9079
 1276SOL    HW3 5178   0.797   3.929   2.291  0.3755 -0.8496 -0.7972
 1276SOL    MW4 5179   0.871   3.969   2.269  0.0046  0.1180 -0.3414
 1277SOL     OW 5180   0.906   4.227   2.364  0.1828  0.5217  0.5725
 1277SOL    HW2 5181   0.904   4.134   2.341 -1.0558  0.6336  0.1786
 1277SOL    HW3 5182   0.820   4.260   2.336  0.6395  1.7917  0.6627
 1277SOL    MW4 5183   0.894   4.219   2.358  0.0796  0.7038  0.5324
 1278SOL     OW 5184   1.111   4.363   2.237 -0.3096 -0.0991 -0.1958
 1278SOL    HW2 5185   1.040   4.320   2.285  0.5592 -0.4459  0.7939
 1278SOL    HW3 5186   1.119   4.449   2.280  1.3258 -0.9015  1.1315
 1278SOL    MW4 5187   1.103   4.369   2.249  0.0207 -0.2503  0.1097
 1279SOL     OW 5188   1.566   4.662   2.327  0.2192 -0.1736  0.3778
 1279SOL    HW2 5189   1.641   4.702   2.283  0.3060  0.7128  1.3079
 1279SOL    HW3 5190   1.495   4.724   2.313 -0.1708 -0.6729  0.1122
 1279SOL    MW4 5191   1.566   4.675   2.319  0.1792 -0.1225  0.4656
 1280SOL     OW 5192   1.318   0.109   2.243  0.0928  0.2724  0.0026
 1280SOL    HW2 5193   1.314   0.197   2.279  0.7068  0.5429 -0.5572
 1280SOL    HW3 5194   1.252   0.059   2.291 -0.9370  1.2792 -0.3492
 1280SOL    MW4 5195   1.309   0.114   2.254  0.0379  0.4409 -0.1175
 1281SOL     OW 5196   1.348   0.372   2.344 -0.1454  0.0263 -0.2290
 1281SOL    HW2 5197   1.363   0.373   2.439 -0.4476  1.8104 -0.1893
 1281SOL    HW3 5198   1.418   0.426   2.308 -0.1778 -0.4442 -1.0139
 1281SOL    MW4 5199   1.359   0.379   2.352 -0.1894  0.1996 -0.3276
 1282SOL     OW 5200   1.557   0.522   2.252  0.4541  0.2303  0.2270
 1282SOL    HW2 5201   1.633   0.478   2.290  0.4481  0.5142  0.5728
 1282SOL    HW3 5202   1.574   0.521   2.158  1.6265  1.6453  0.4038
 1282SOL    MW4 5203   1.569   0.516   2.245  0.6082  0.4544  0.2959
 1283SOL     OW 5204   1.577   0.777   2.380 -0.4975 -0.2691 -0.4732
 1283SOL    HW2 5205   1.655   0.819   2.345 -0.6416 -0.3602 -0.9087
 1283SOL    HW3 5206   1.574   0.691   2.337 -1.2937  0.0661 -1.0970
 1283SOL    MW4 5207   1.587   0.771   2.370 -0.6216 -0.2369 -0.6130
 1284SOL     OW 5208   1.389   0.916   2.248 -0.0806 -0.2455 -0.3244
 1284SOL    HW2 5209   1.460   0.877   2.299  0.0446  0.3770 -0.0177
 1284SOL    HW3 5210   1.310   0.872   2.280 -0.0468  0.3893  0.6702
 1284SOL    MW4 5211   1.388   0.905   2.259 -0.0595 -0.0796 -0.1526
 1285SOL     OW 5212   1.348   1.169   2.374  0.0947  0.1764 -0.2205
 1285SOL    HW2 5213   1.357   1.147   2.467  0.9386  0.4103 -0.2372
 1285SOL    HW3 5214   1.352   1.085   2.329  1.0131  0.1647 -0.1296
 1285SOL    MW4 5215   1.350   1.155   2.380  0.3272  0.2058 -0.2108
 1286SOL     OW 5216   1.583   1.277   2.258  0.1266  0.6408  0.1198
 1286SOL    HW2 5217   1.510   1.243   2.309 -0.5061  0.4027 -0.9314
 1286SOL    HW3 5218   1.556   1.266   2.166  0.7659  2.0730 -0.2616
 1286SOL    MW4 5219   1.570   1.271   2.252  0.1274  0.7982 -0.0691
 1287SOL     OW 5220   1.571   1.560   2.348 -0.0990  0.7323  0.2588
 1287SOL    HW2 5221   1.654   1.603   2.328 -0.0082  0.5283  0.1852
 1287SOL    HW3 5222   1.580   1.472   2.309  0.7007 -0.2205  2.5132
 1287SOL    MW4 5223   1.583   1.554   2.340  0.0185  0.5797  0.5467
 1288SOL     OW 5224   1.338   1.684   2.225 -0.4414  0.1272  0.3247
 1288SOL    HW2 5225   1.410   1.640   2.271  0.3833 -1.2164 -2.1859
 1288SOL    HW3 5226   1.261   1.630   2.245 -0.3600  0.3173  1.1958
 1288SOL    MW4 5227   1.337   1.671   2.234 -0.3219 -0.0252  0.1085
 1289SOL     OW 5228   1.327   1.926   2.369 -0.2847  0.6264 -0.3319
 1289SOL    HW2 5229   1.393   1.979   2.323 -0.8649 -0.1102 -2.0599
 1289SOL    HW3 5230   1.339   1.838   2.334  0.3764 -0.3294  2.2094
 1289SOL    MW4 5231   1.337   1.921   2.358 -0.2741  0.4030 -0.2246
 1290SOL     OW 5232   1.537   2.069   2.239  0.0811 -0.4432 -0.0735
 1290SOL    HW2 5233   1.613   2.026   2.280  0.1979  0.3420  0.5290
 1290SOL    HW3 5234   1.544   2.045   2.147  0.1985 -1.6574  0.2415
 1290SOL    MW4 5235   1.548   2.060   2.232  0.1121 -0.4997  0.0474
 1291SOL     OW 5236   1.572   2.320   2.323  0.1174  0.1370  0.2444
 1291SOL    HW2 5237   1.559   2.316   2.418 -0.1620  0.2982  0.2122
 1291SOL    HW3 5238   1.559   2.229   2.294  0.7874 -0.0176  0.4364
 1291SOL    MW4 5239   1.568   2.307   2.332  0.1689  0.1376  0.2654
 1292SOL     OW 5240   1.327   2.436   2.234 -0.2664  0.0034 -0.1120
 1292SOL    HW2 5241   1.404   2.387   2.264 -0.3775 -0.5372 -0.6956
 1292SOL    HW3 5242   1.336   2.439   2.139  0.5126  2.4415  0.0108
 1292SOL    MW4 5243   1.338   2.430   2.226 -0.1782  0.2537 -0.1726
 1293SOL     OW 5244   1.300   2.696   2.340 -0.6389  0.0059 -0.0524
 1293SOL    HW2 5245   1.380   2.733   2.302  0.6327 -1.7955  0.8216
 1293SOL    HW3 5246   1.301   2.604   2.315 -0.8001 -0.7658  2.6192
 1293SOL    MW4 5247   1.311   2.689   2.332 -0.4925 -0.3335  0.4153
 1294SOL     OW 5248   1.550   2.838   2.224  0.3397  0.5363 -0.2611
 1294SOL    HW2 5249   1.555   2.923   2.267  2.4499  0.0839  0.4256
 1294SOL    HW3 5250   1.614   2.784   2.269 -1.2036 -1.5364 -0.4730
 1294SOL    MW4 5251   1.559   2.842   2.235  0.4146  0.2031 -0.1984
 1295SOL     OW 5252   1.563   3.092   2.326 -0.4549  0.4874  0.2266
 1295SOL    HW2 5253   1.552   3.085   2.421 -1.1233 -0.1663  0.1026
 1295SOL    HW3 5254   1.478   3.123   2.295 -0.0187  1.3918 -0.0899
 1295SOL    MW4 5255   1.551   3.095   2.334 -0.4855  0.5205  0.1681
 1296SOL     OW 5256   1.318   3.196   2.246  0.0920 -0.1352 -0.2727
 1296SOL    HW2 5257   1.233   3.162   2.271 -1.1169  1.5068 -1.9755
 1296SOL    HW3 5258   1.308   3.222   2.154  2.4000  0.1280 -0.5000
 1296SOL    MW4 5259   1.306   3.195   2.237  0.2370  0.1163 -0.5271
 1297SOL     OW 5260   1.361   3.441   2.354  0.3330  0.0597  0.3365
 1297SOL    HW2 5261   1.346   3.451   2.448 -0.6772  0.9240  0.0911
 1297SOL    HW3 5262   1.359   3.346   2.339  0.7670 -0.0917  1.2205
 1297SOL    MW4 5263   1.359   3.430   2.364  0.2570  0.1535  0.4210
 1298SOL     OW 5264   1.565   3.594   2.255  0.8291  0.0202 -0.0961
 1298SOL    HW2 5265   1.558   3.684   2.285 -0.1581  0.1760 -0.7474
 1298SOL    HW3 5266   1.496   3.547   2.303  1.2632 -0.3645  0.1579
 1298SOL    MW4 5267   1.555   3.599   2.265  0.7561 -0.0100 -0.1485
 1299SOL     OW 5268   1.586   3.875   2.338 -0.3463  0.5126  0.2901
 1299SOL    HW2 5269   1.591   3.892   2.432 -0.2966  3.6437 -0.2216
 1299SOL    HW3 5270   1.653   3.932   2.300  0.3356 -1.4774 -1.5702
 1299SOL    MW4 5271   1.596   3.885   2.346 -0.2499  0.6633 -0.0226
 1300SOL     OW 5272   1.361   3.976   2.232 -0.0005 -0.5990  0.1181
 1300SOL    HW2 5273   1.442   3.945   2.273  0.2389 -1.6985 -1.1673
 1300SOL    HW3 5274   1.348   4.064   2.268  1.4329 -0.6602  0.8011
 1300SOL    MW4 5275   1.370   3.984   2.242  0.2202 -0.7520  0.0386
 1301SOL     OW 5276   1.334   4.242   2.308 -0.0375 -0.8392 -0.3691
 1301SOL    HW2 5277   1.399   4.306   2.279  0.3421 -1.0096  0.0937
 1301SOL    HW3 5278   1.250   4.281   2.285  0.2013 -0.3050 -0.3467
 1301SOL    MW4 5279   1.331   4.255   2.301  0.0442 -0.7915 -0.3052
 1302SOL     OW 5280   1.539   4.401   2.209 -0.3945  0.1669 -0.1563
 1302SOL    HW2 5281   1.606   4.341   2.243 -1.6256 -0.8367  0.5408
 1302SOL    HW3 5282   1.558   4.484   2.252 -0.4346 -0.4633  1.1081
 1302SOL    MW4 5283   1.550   4.404   2.219 -0.5622 -0.0491  0.1028
 1303SOL     OW 5284   2.018   4.593   2.336 -0.0652  0.0543  0.3311
 1303SOL    HW2 5285   2.099   4.624   2.297  0.5910 -1.7957  0.1614
 1303SOL    HW3 5286   2.005   4.506   2.298 -2.0390  0.2540  0.4902
 1303SOL    MW4 5287   2.027   4.586   2.326 -0.2391 -0.1636  0.3297
 1304SOL     OW 5288   1.786   0.097   2.210 -0.0194 -0.1561 -0.1799
 1304SOL    HW2 5289   1.804   0.179   2.256 -0.2100  0.4341 -1.1467
 1304SOL    HW3 5290   1.857   0.038   2.237  0.3586  0.4653  0.1806
 1304SOL    MW4 5291   1.798   0.100   2.220  0.0054  0.0037 -0.2599
 1305SOL     OW 5292   1.772   0.363   2.363  0.2850 -0.1262 -0.6686
 1305SOL    HW2 5293   1.770   0.356   2.458 -1.2582 -0.5298 -0.7308
 1305SOL    HW3 5294   1.845   0.422   2.345 -0.2257  0.9758  0.8272
 1305SOL    MW4 5295   1.782   0.370   2.373  0.0139 -0.0341 -0.4795
 1306SOL     OW 5296   1.994   0.502   2.299 -0.3786  0.3306 -0.1738
 1306SOL    HW2 5297   2.006   0.592   2.330 -0.8005  0.9094 -1.6287
 1306SOL    HW3 5298   1.992   0.510   2.204 -0.4168 -1.2282 -0.3127
 1306SOL    MW4 5299   1.995   0.515   2.291 -0.4394  0.2013 -0.3841
 1307SOL     OW 5300   2.043   0.756   2.384  0.4345 -0.0392 -0.5256
 1307SOL    HW2 5301   2.119   0.798   2.343  0.7000  0.1068  0.1128
 1307SOL    HW3 5302   1.967   0.801   2.345  0.7100  0.8336 -0.0603
 1307SOL    MW4 5303   2.043   0.768   2.373  0.5059  0.0952 -0.3800
 1308SOL     OW 5304   1.817   0.876   2.266 -0.5715  0.0908  0.0979
 1308SOL    HW2 5305   1.811   0.967   2.294  1.3139  0.1603  0.3371
 1308SOL    HW3 5306   1.794   0.878   2.173 -0.3382  0.8427  0.0558
 1308SOL    MW4 5307   1.813   0.888   2.257 -0.2919  0.1992  0.1240
 1309SOL     OW 5308   1.797   1.133   2.380 -0.1557 -0.2132  0.4631
 1309SOL    HW2 5309   1.882   1.172   2.359 -0.4039  0.4405  0.6648
 1309SOL    HW3 5310   1.735   1.177   2.320 -0.1875 -1.4334 -0.4111
 1309SOL    MW4 5311   1.800   1.144   2.369 -0.1926 -0.2879  0.3743
 1310SOL     OW 5312   2.027   1.267   2.290 -0.1638  0.0796 -0.4332
 1310SOL    HW2 5313   2.006   1.356   2.319 -2.9581 -0.3256 -1.1213
 1310SOL    HW3 5314   2.035   1.275   2.195 -1.7686 -0.6481 -0.6382
 1310SOL    MW4 5315   2.025   1.280   2.281 -0.7443 -0.0700 -0.5512
 1311SOL     OW 5316   2.008   1.530   2.362  0.3919 -0.3882 -0.3828
 1311SOL    HW2 5317   1.993   1.534   2.457 -0.1205  0.7310 -0.5082
 1311SOL    HW3 5318   1.933   1.576   2.324  1.2554  0.3016 -1.2760
 1311SOL    MW4 5319   1.996   1.536   2.370  0.4385 -0.1495 -0.5171
 1312SOL     OW 5320   1.797   1.695   2.258 -0.0231  0.2283  0.3699
 1312SOL    HW2 5321   1.783   1.782   2.294 -1.9075 -0.1710  0.6430
 1312SOL    HW3 5322   1.793   1.708   2.163  0.7517  0.5968  0.3824
 1312SOL    MW4 5323   1.795   1.708   2.250 -0.1696  0.2242  0.4075
 1313SOL     OW 5324   1.787   1.955   2.335  0.1036  0.8144 -0.0010
 1313SOL    HW2 5325   1.784   1.945   2.430  0.2339  3.2754  0.2971
 1313SOL    HW3 5326   1.873   1.994   2.318  0.0679  0.4165 -1.1455
 1313SOL    MW4 5327   1.798   1.959   2.345  0.1161  1.0867 -0.1128
 1314SOL     OW 5328   2.044   2.072   2.239 -0.5492  0.3742  0.0270
 1314SOL    HW2 5329   2.111   2.013   2.272 -0.3977 -0.7865 -2.2276
 1314SOL    HW3 5330   2.056   2.072   2.144 -2.4266  1.7444 -0.2544
 1314SOL    MW4 5331   2.054   2.064   2.230 -0.7770  0.4020 -0.3076
 1315SOL     OW 5332   2.054   2.349   2.343  0.1771  0.0826 -0.3926
 1315SOL    HW2 5333   2.132   2.391   2.308  0.8456 -0.7432  0.0828
 1315SOL    HW3 5334   2.054   2.261   2.306 -0.5460  0.0842 -0.4145
 1315SOL    MW4 5335   2.064   2.343   2.334  0.1700 -0.0262 -0.3328
 1316SOL     OW 5336   1.826   2.477   2.250 -0.6928 -0.2029  0.5770
 1316SOL    HW2 5337   1.901   2.424   2.277 -0.7289 -0.3155  0.4546
 1316SOL    HW3 5338   1.749   2.424   2.272 -0.7517  0.1151  1.1439
 1316SOL    MW4 5339   1.826   2.463   2.257 -0.7054 -0.1757  0.6356
 1317SOL     OW 5340   1.788   2.734   2.360  0.0204  0.5381  0.3629
 1317SOL    HW2 5341   1.799   2.733   2.455  1.4981 -0.4663  0.1974
 1317SOL    HW3 5342   1.800   2.643   2.333  1.3729  1.0877 -0.9761
 1317SOL    MW4 5343   1.791   2.722   2.369  0.3939  0.4780  0.1645
 1318SOL     OW 5344   1.975   2.866   2.210 -0.0304 -0.2939 -0.0807
 1318SOL    HW2 5345   2.055   2.834   2.250  0.7880 -0.1808 -1.5951
 1318SOL    HW3 5346   1.905   2.826   2.262  0.9842 -0.0559  1.5130
 1318SOL    MW4 5347   1.976   2.856   2.222  0.2114 -0.2477 -0.0703
 1319SOL     OW 5348   1.986   3.094   2.369 -0.2627  0.4250 -0.1098
 1319SOL    HW2 5349   2.076   3.118   2.346 -0.4757  1.7467  0.3962
 1319SOL    HW3 5350   1.978   3.003   2.342  1.5675 -0.0298  0.7942
 1319SOL    MW4 5351   1.997   3.085   2.362 -0.0494  0.5393  0.0763
 1320SOL     OW 5352   1.792   3.222   2.237 -0.2217 -0.4251 -0.0599
 1320SOL    HW2 5353   1.870   3.187   2.281  0.7578  0.0226 -1.4041
 1320SOL    HW3 5354   1.719   3.180   2.281  0.7903 -0.9387  1.1583
 1320SOL    MW4 5355   1.793   3.211   2.248  0.0411 -0.4339 -0.0765
 1321SOL     OW 5356   1.819   3.497   2.334  0.0258  0.1039 -0.2950
 1321SOL    HW2 5357   1.806   3.412   2.292  1.1039 -0.4674  0.5058
 1321SOL    HW3 5358   1.747   3.551   2.301 -0.6573 -1.1050 -0.8358
 1321SOL    MW4 5359   1.808   3.493   2.324  0.0778 -0.1309 -0.2606
 1322SOL     OW 5360   2.052   3.608   2.247  0.3697 -0.0756 -0.7511
 1322SOL    HW2 5361   1.973   3.574   2.289  0.6001  1.2543  0.8226
 1322SOL    HW3 5362   2.030   3.610   2.154 -0.9500 -1.0218 -0.4894
 1322SOL    MW4 5363   2.038   3.603   2.241  0.2258 -0.0250 -0.5090
 1323SOL     OW 5364   2.008   3.872   2.323 -0.1389 -0.3481  0.4576
 1323SOL    HW2 5365   1.988   3.865   2.416  0.1180 -1.6095  0.4329
 1323SOL    HW3 5366   2.026   3.782   2.296 -1.5379 -0.1869 -1.1128
 1323SOL    MW4 5367   2.008   3.859   2.332 -0.2894 -0.4933  0.2470
 1324SOL     OW 5368   1.801   4.000   2.219  0.0702  0.0662  0.3057
 1324SOL    HW2 5369   1.882   3.959   2.247  0.4862  1.0237  0.5460
 1324SOL    HW3 5370   1.807   4.004   2.124 -0.3923 -1.2674  0.2182
 1324SOL    MW4 5371   1.812   3.995   2.210  0.0641  0.0167  0.3259
 1325SOL     OW 5372   1.740   4.247   2.321 -0.3705 -0.2242  0.3046
 1325SOL    HW2 5373   1.745   4.233   2.415 -2.2370 -0.9546  0.3131
 1325SOL    HW3 5374   1.760   4.162   2.283  0.3809  0.0681  0.0316
 1325SOL    MW4 5375   1.744   4.234   2.328 -0.5177 -0.2823  0.2697
 1326SOL     OW 5376   1.979   4.330   2.249  0.1895 -0.3017  0.4123
 1326SOL    HW2 5377   1.897   4.290   2.277 -0.0081 -0.0951  0.1395
 1326SOL    HW3 5378   1.971   4.337   2.154  0.2634  0.2872  0.4472
 1326SOL    MW4 5379   1.967   4.326   2.240  0.1732 -0.1965  0.3808
 1327SOL     OW 5380   2.469   4.647   2.346  0.2414  0.0855 -0.0523
 1327SOL    HW2 5381   2.551   4.683   2.313  1.4108 -2.0307  0.4593
 1327SOL    HW3 5382   2.459   4.563   2.302 -1.6018  0.2463 -0.0110
 1327SOL    MW4 5383   2.478   4.641   2.336  0.1526 -0.1726  0.0207
 1328SOL     OW 5384   2.231   0.081   2.245 -0.0663  0.2007 -0.4198
 1328SOL    HW2 5385   2.216   0.165   2.288 -0.7026 -1.0436  1.8316
 1328SOL    HW3 5386   2.307   0.044   2.289  0.2090 -0.4286 -1.3964
 1328SOL    MW4 5387   2.239   0.087   2.256 -0.1140 -0.0465 -0.2515
 1329SOL     OW 5388   2.230   0.348   2.339  0.4517 -0.1298  0.5086
 1329SOL    HW2 5389   2.303   0.397   2.302 -0.0396 -0.7342 -1.3258
 1329SOL    HW3 5390   2.154   0.404   2.323  0.2220 -0.4460  0.4949
 1329SOL    MW4 5391   2.230   0.362   2.332  0.3567 -0.2513  0.2646
 1330SOL     OW 5392   2.464   0.488   2.265  0.0547  0.2801 -0.6727
 1330SOL    HW2 5393   2.547   0.445   2.288 -0.0961 -0.1933 -0.9924
 1330SOL    HW3 5394   2.467   0.494   2.169  0.3987  1.6553 -0.5868
 1330SOL    MW4 5395   2.476   0.483   2.255  0.0799  0.3991 -0.7033
 1331SOL     OW 5396   2.458   0.736   2.386  0.2594  0.4968  0.2223
 1331SOL    HW2 5397   2.538   0.782   2.362 -0.3069  1.5331  0.2650
 1331SOL    HW3 5398   2.465   0.651   2.343  0.5672  1.2551 -1.2812
 1331SOL    MW4 5399   2.469   0.731   2.377  0.2253  0.7336  0.0296
 1332SOL     OW 5400   2.262   0.882   2.259  0.4039  0.6327 -0.0740
 1332SOL    HW2 5401   2.274   0.968   2.298  0.3713  0.0773  1.1875
 1332SOL    HW3 5402   2.324   0.825   2.306 -0.0710 -0.1699 -0.4002
 1332SOL    MW4 5403   2.272   0.886   2.270  0.3371  0.4536  0.0496
 1333SOL     OW 5404   2.275   1.146   2.378 -0.6587  0.5804  0.2894
 1333SOL    HW2 5405   2.352   1.190   2.341 -1.2305  0.1452 -1.4621
 1333SOL    HW3 5406   2.200   1.192   2.340 -1.2565 -0.5660  0.0495
 1333SOL    MW4 5407   2.276   1.158   2.368 -0.8130  0.3717  0.0267
 1334SOL     OW 5408   2.480   1.270   2.254 -0.5661 -0.0746  0.0413
 1334SOL    HW2 5409   2.564   1.234   2.282 -0.4861 -1.0075 -1.3414
 1334SOL    HW3 5410   2.478   1.358   2.291 -0.2821 -1.0760  2.5695
 1334SOL    MW4 5411   2.491   1.277   2.262 -0.5181 -0.3299  0.1924
 1335SOL     OW 5412   2.486   1.538   2.373  0.4791 -0.8506  0.3940
 1335SOL    HW2 5413   2.482   1.553   2.467  2.0344  0.3459  0.2856
 1335SOL    HW3 5414   2.570   1.576   2.346  0.3928 -1.8506 -1.3490
 1335SOL    MW4 5415   2.496   1.545   2.382  0.6728 -0.8247  0.1500
 1336SOL     OW 5416   2.227   1.655   2.278 -0.2039  0.1176  0.0692
 1336SOL    HW2 5417   2.305   1.613   2.314 -0.7148  0.4907  1.6104
 1336SOL    HW3 5418   2.154   1.603   2.312 -0.7480  1.1691  0.5066
 1336SOL    MW4 5419   2.228   1.643   2.287 -0.3431  0.3055  0.3302
 1337SOL     OW 5420   2.224   1.918   2.360 -0.1439  0.3183  0.3700
 1337SOL    HW2 5421   2.305   1.952   2.322 -0.9104  0.7006 -0.9940
 1337SOL    HW3 5422   2.221   1.826   2.333 -0.1758  0.3095  0.4033
 1337SOL    MW4 5423   2.234   1.911   2.351 -0.2494  0.3676  0.1945
 1338SOL     OW 5424   2.464   2.048   2.262 -0.2843  0.2657 -0.0043
 1338SOL    HW2 5425   2.547   2.016   2.297 -1.3145 -1.4745  0.8822
 1338SOL    HW3 5426   2.472   2.038   2.167  0.1674 -0.7345  0.1430
 1338SOL    MW4 5427   2.476   2.043   2.254 -0.3607 -0.0956  0.1321
 1339SOL     OW 5428   2.433   2.318   2.342  0.2838 -0.0408 -0.5203
 1339SOL    HW2 5429   2.518   2.353   2.318  1.4968 -2.5088 -0.0441
 1339SOL    HW3 5430   2.436   2.227   2.314 -1.8070 -0.4405  0.4389
 1339SOL    MW4 5431   2.445   2.310   2.335  0.1678 -0.4191 -0.3309
 1340SOL     OW 5432   2.273   2.485   2.191  0.5260 -0.3890 -0.1027
 1340SOL    HW2 5433   2.318   2.569   2.184  0.4132 -0.3853 -0.9283
 1340SOL    HW3 5434   2.331   2.430   2.244 -0.0950  0.6691  1.7146
 1340SOL    MW4 5435   2.287   2.489   2.197  0.4292 -0.2487  0.0284
 1341SOL     OW 5436   2.201   2.817   2.356 -0.3325 -0.4050  0.0545
 1341SOL    HW2 5437   2.187   2.767   2.437 -0.2504 -1.3306 -0.4948
 1341SOL    HW3 5438   2.269   2.768   2.310  0.7004  0.9386  0.1054
 1341SOL    MW4 5439   2.208   2.804   2.361 -0.1855 -0.3500 -0.0112
 1342SOL     OW 5440   2.419   2.711   2.203  0.5448  0.1520 -0.1544
 1342SOL    HW2 5441   2.504   2.678   2.233  0.3960  1.0829  1.3881
 1342SOL    HW3 5442   2.436   2.749   2.117  1.3967 -0.9008 -0.4559
 1342SOL    MW4 5443   2.432   2.712   2.196  0.6375  0.1359  0.0093
 1343SOL     OW 5444   2.456   3.024   2.361  0.2616 -0.2618  0.9774
 1343SOL    HW2 5445   2.455   3.043   2.455  1.0763 -1.7269  1.2969
 1343SOL    HW3 5446   2.414   2.938   2.353  0.2046 -0.1502  0.0073
 1343SOL    MW4 5447   2.450   3.015   2.372  0.3614 -0.4404  0.8914
 1344SOL     OW 5448   2.228   3.173   2.253  0.0175  0.3148  0.1018
 1344SOL    HW2 5449   2.239   3.266   2.274 -1.0056 -0.0705  2.4854
 1344SOL    HW3 5450   2.296   3.129   2.303 -0.3035 -0.3360 -0.0367
 1344SOL    MW4 5451   2.238   3.180   2.262 -0.1600  0.1781  0.3979
 1345SOL     OW 5452   2.262   3.474   2.341  0.1941 -0.3240  0.0915
 1345SOL    HW2 5453   2.247   3.482   2.435  0.3776 -2.2691  0.3048
 1345SOL    HW3 5454   2.190   3.523   2.301 -0.2788 -0.0770  1.2270
 1345SOL    MW4 5455   2.250   3.482   2.348  0.1562 -0.5481  0.2697
 1346SOL     OW 5456   2.435   3.624   2.190  0.1877  0.2629  0.0431
 1346SOL    HW2 5457   2.433   3.700   2.248 -1.2100 -0.6484  1.2250
 1346SOL    HW3 5458   2.367   3.566   2.224 -0.8735 -0.1697 -2.6911
 1346SOL    MW4 5459   2.426   3.626   2.202 -0.1366  0.0856 -0.1616
 1347SOL     OW 5460   2.440   3.861   2.318 -0.0433  0.4903 -0.5080
 1347SOL    HW2 5461   2.452   3.874   2.413  1.2644  0.1569 -0.6159
 1347SOL    HW3 5462   2.362   3.912   2.297 -0.7558  0.0057  0.8782
 1347SOL    MW4 5463   2.431   3.870   2.328  0.0350  0.3824 -0.3393
 1348SOL     OW 5464   2.231   3.994   2.216  0.2231  0.2618  0.1291
 1348SOL    HW2 5465   2.239   4.081   2.255  0.1208 -0.1043  0.9729
 1348SOL    HW3 5466   2.149   3.959   2.252  1.0083 -0.7588  0.9609
 1348SOL    MW4 5467   2.221   4.001   2.226  0.3130  0.0792  0.3502
 1349SOL     OW 5468   2.228   4.256   2.336  0.1752 -0.3915  0.2301
 1349SOL    HW2 5469   2.217   4.243   2.430  0.6431  2.1538  0.6664
 1349SOL    HW3 5470   2.140   4.276   2.304  0.3504  0.8365  0.4944
 1349SOL    MW4 5471   2.215   4.257   2.344  0.2599  0.1059  0.3223
 1350SOL     OW 5472   2.469   4.356   2.233 -0.3078 -0.2034  0.0226
 1350SOL    HW2 5473   2.543   4.316   2.280  0.4321  0.0036 -0.9324
 1350SOL    HW3 5474   2.392   4.332   2.284  0.3507 -1.0474  0.6387
 1350SOL    MW4 5475   2.469   4.347   2.246 -0.1235 -0.2871 -0.0217
 1351SOL     OW 5476   2.902   4.638   2.345 -0.1182  0.2500 -0.0472
 1351SOL    HW2 5477   2.968   4.696   2.309 -0.1286  0.7529  0.7370
 1351SOL    HW3 5478   2.907   4.559   2.291  1.9517 -0.1888  0.7648
 1351SOL    MW4 5479   2.911   4.635   2.333  0.1535  0.2589  0.1631
 1352SOL     OW 5480   2.694   0.083   2.225 -0.2642  0.2042  0.2660
 1352SOL    HW2 5481   2.692   0.170   2.266 -0.1393  0.8281 -1.0217
 1352SOL    HW3 5482   2.761   0.035   2.274 -0.1820  0.9010  0.8457
 1352SOL    MW4 5483   2.703   0.088   2.237 -0.2370  0.3785  0.1724
 1353SOL     OW 5484   2.670   0.338   2.336  0.4283  0.0150  0.1024
 1353SOL    HW2 5485   2.651   0.343   2.430 -0.7017  1.1486 -0.1739
 1353SOL    HW3 5486   2.754   0.381   2.325  1.6753 -2.1526  0.9033
 1353SOL    MW4 5487   2.678   0.344   2.347  0.4439 -0.1214  0.1717
 1354SOL     OW 5488   2.898   0.468   2.252 -0.2706 -0.3688 -0.6886
 1354SOL    HW2 5489   2.885   0.557   2.286  2.2970 -0.5350  0.8105
 1354SOL    HW3 5490   2.896   0.480   2.156 -0.3935  1.2170 -0.5142
 1354SOL    MW4 5491   2.896   0.482   2.244  0.0520 -0.1815 -0.4678
 1355SOL     OW 5492   2.872   0.709   2.351 -0.0434 -0.3706 -0.0077
 1355SOL    HW2 5493   2.883   0.731   2.443 -1.3740 -1.4922  0.4301
 1355SOL    HW3 5494   2.801   0.766   2.321 -0.9538 -1.4071  0.1698
 1355SOL    MW4 5495   2.864   0.720   2.359 -0.3388 -0.6554  0.0732
 1356SOL     OW 5496   2.668   0.887   2.298  0.0138  0.2770  0.3047
 1356SOL    HW2 5497   2.678   0.978   2.327 -0.1611  0.5366 -0.4438
 1356SOL    HW3 5498   2.694   0.888   2.206  1.2141 -0.6854  0.6353
 1356SOL    MW4 5499   2.673   0.899   2.290  0.1493  0.1844  0.2494
 1357SOL     OW 5500   2.703   1.154   2.379  0.2732  0.7273  0.1956
 1357SOL    HW2 5501   2.695   1.171   2.472 -1.2413  1.9889 -0.1431
 1357SOL    HW3 5502   2.794   1.175   2.358  0.3980  1.2159  1.2182
 1357SOL    MW4 5503   2.714   1.159   2.388  0.0899  0.9583  0.2856
 1358SOL     OW 5504   2.954   1.253   2.320  0.5019 -0.1740 -0.1306
 1358SOL    HW2 5505   3.027   1.196   2.344  0.4961  0.4789  1.4926
 1358SOL    HW3 5506   2.957   1.258   2.225  1.8714 -1.0763 -0.1390
 1358SOL    MW4 5507   2.964   1.246   2.311  0.6816 -0.2068  0.0825
 1359SOL     OW 5508   2.938   1.530   2.406  0.7533  0.2992  0.2038
 1359SOL    HW2 5509   2.938   1.539   2.501 -0.7190 -0.7527  0.3288
 1359SOL    HW3 5510   2.958   1.438   2.390  0.5522  0.3644 -0.4804
 1359SOL    MW4 5511   2.941   1.519   2.416  0.5322  0.1690  0.1302
 1360SOL     OW 5512   2.725   1.681   2.300  0.0121  0.6126  0.2227
 1360SOL    HW2 5513   2.801   1.627   2.319 -0.2542  0.2389  0.2356
 1360SOL    HW3 5514   2.709   1.669   2.206  0.5009  1.3835  0.0363
 1360SOL    MW4 5515   2.733   1.672   2.290  0.0415  0.6651  0.1998
 1361SOL     OW 5516   2.704   1.948   2.368 -0.3596  0.1154  0.2382
 1361SOL    HW2 5517   2.703   1.951   2.464 -0.0760  1.5371  0.2022
 1361SOL    HW3 5518   2.698   1.855   2.347 -1.5857 -0.1354  1.6240
 1361SOL    MW4 5519   2.703   1.936   2.378 -0.4840  0.2700  0.4163
 1362SOL     OW 5520   2.920   2.059   2.244  0.4951 -0.2221 -0.4955
 1362SOL    HW2 5521   2.991   2.012   2.288  0.5826 -0.1544 -0.5659
 1362SOL    HW3 5522   2.840   2.026   2.286  0.5705 -0.2635 -0.3851
 1362SOL    MW4 5523   2.919   2.048   2.255  0.5167 -0.2184 -0.4902
 1363SOL     OW 5524   2.943   2.308   2.320  0.4558  0.0689  0.2901
 1363SOL    HW2 5525   2.920   2.312   2.413  0.0788  1.3751  0.1447
 1363SOL    HW3 5526   2.932   2.216   2.297  0.0061 -0.1648  1.4006
 1363SOL    MW4 5527   2.939   2.297   2.329  0.3467  0.2105  0.4175
 1364SOL     OW 5528   2.700   2.394   2.251 -0.2989 -0.0649  0.0390
 1364SOL    HW2 5529   2.783   2.346   2.256 -0.8974 -1.2090 -0.7796
 1364SOL    HW3 5530   2.693   2.418   2.159 -0.4285  0.8535  0.2867
 1364SOL    MW4 5531   2.710   2.391   2.240 -0.3951 -0.0947 -0.0362
 1365SOL     OW 5532   2.682   2.667   2.310  0.0055  0.0323 -0.0442
 1365SOL    HW2 5533   2.756   2.705   2.262 -0.2224  0.6002  0.0435
 1365SOL    HW3 5534   2.697   2.573   2.307 -0.5218 -0.0246 -2.0869
 1365SOL    MW4 5535   2.694   2.660   2.303 -0.0939  0.0997 -0.3023
 1366SOL     OW 5536   2.902   2.799   2.198 -0.1162 -0.9296  0.1518
 1366SOL    HW2 5537   2.878   2.876   2.249  0.5077 -1.4318  1.2323
 1366SOL    HW3 5538   2.910   2.831   2.108 -0.1118  0.2124  0.5501
 1366SOL    MW4 5539   2.900   2.813   2.193 -0.0334 -0.8452  0.3469
 1367SOL     OW 5540   2.836   3.043   2.326 -0.2216  0.0342  0.1897
 1367SOL    HW2 5541   2.909   3.089   2.284 -1.1469  2.0859  0.8296
 1367SOL    HW3 5542   2.758   3.092   2.302 -0.9951  0.0911  2.6698
 1367SOL    MW4 5543   2.836   3.055   2.317 -0.4458  0.3126  0.6015
 1368SOL     OW 5544   2.628   3.180   2.211 -0.2373 -0.2888  0.4230
 1368SOL    HW2 5545   2.625   3.271   2.242  0.0534 -0.0438 -0.2390
 1368SOL    HW3 5546   2.554   3.137   2.253 -0.3507  0.2481  0.7770
 1368SOL    MW4 5547   2.618   3.186   2.220 -0.2136 -0.1857  0.3822
 1369SOL     OW 5548   2.638   3.466   2.305 -0.0261  0.0575 -0.2866
 1369SOL    HW2 5549   2.723   3.503   2.283 -0.2642  0.0043 -1.3318
 1369SOL    HW3 5550   2.575   3.527   2.266 -0.4550 -0.0499  0.2420
 1369SOL    MW4 5551   2.641   3.479   2.297 -0.1142  0.0362 -0.3550
 1370SOL     OW 5552   2.900   3.537   2.267  0.3008 -0.4880 -0.2074
 1370SOL    HW2 5553   2.980   3.490   2.288 -0.0229 -1.3084 -0.7980
 1370SOL    HW3 5554   2.909   3.622   2.312  1.0166 -0.9890  0.6060
 1370SOL    MW4 5555   2.912   3.542   2.276  0.3526 -0.6623 -0.1781
 1371SOL     OW 5556   2.893   3.816   2.337 -0.3702 -0.0043 -0.3192
 1371SOL    HW2 5557   2.879   3.810   2.431 -1.6993  0.4601 -0.4812
 1371SOL    HW3 5558   2.821   3.870   2.305 -0.0479 -0.3289 -1.6309
 1371SOL    MW4 5559   2.881   3.822   2.345 -0.5031  0.0141 -0.5138
 1372SOL     OW 5560   2.679   3.980   2.223  0.0043  0.0140  0.1538
 1372SOL    HW2 5561   2.597   3.934   2.237 -0.9002  1.9463  1.3856
 1372SOL    HW3 5562   2.693   3.975   2.128 -0.6789 -1.7085  0.1242
 1372SOL    MW4 5563   2.670   3.973   2.212 -0.2050  0.0415  0.3123
 1373SOL     OW 5564   2.679   4.236   2.350  0.4015 -0.2109  0.0289
 1373SOL    HW2 5565   2.708   4.221   2.440  1.9310 -0.6731 -0.5199
 1373SOL    HW3 5566   2.671   4.149   2.312  1.4427  0.0323 -0.7794
 1373SOL    MW4 5567   2.682   4.223   2.357  0.7408 -0.2394 -0.1502
 1374SOL     OW 5568   2.896   4.383   2.216 -0.5589  0.0357 -0.2724
 1374SOL    HW2 5569   2.973   4.343   2.255 -0.1468  0.8061 -0.2978
 1374SOL    HW3 5570   2.823   4.331   2.250 -0.0947 -0.1969  0.3807
 1374SOL    MW4 5571   2.896   4.371   2.225 -0.4432  0.1068 -0.1895
 1375SOL     OW 5572   3.327   4.623   2.298  0.5244 -0.2472  0.1996
 1375SOL    HW2 5573   3.339   4.611   2.392  1.0481  1.8288  0.4341
 1375SOL    HW3 5574   3.406   4.670   2.269 -0.8121  1.4941 -0.7561
 1375SOL    MW4 5575   3.339   4.628   2.307  0.4170  0.2561  0.1044
 1376SOL     OW 5576   3.116   0.097   2.216  0.2138 -0.2879 -0.0799
 1376SOL    HW2 5577   3.129   0.182   2.260 -1.2836 -0.6082  1.0222
 1376SOL    HW3 5578   3.177   0.038   2.260 -0.0320 -0.1949  0.3955
 1376SOL    MW4 5579   3.126   0.101   2.228 -0.0165 -0.3179  0.1283
 1377SOL     OW 5580   3.130   0.355   2.331  0.0657  0.2614 -0.5119
 1377SOL    HW2 5581   3.199   0.405   2.287  0.2997  0.5502  0.1678
 1377SOL    HW3 5582   3.048   0.396   2.305  0.0194 -1.1273 -2.6832
 1377SOL    MW4 5583   3.129   0.367   2.322  0.0906  0.1163 -0.7083
 1378SOL     OW 5584   3.360   0.495   2.224 -0.0188  0.4438 -0.0573
 1378SOL    HW2 5585   3.426   0.436   2.259  1.1322  1.4621 -0.4898
 1378SOL    HW3 5586   3.374   0.493   2.129 -1.0410  0.1567 -0.2089
 1378SOL    MW4 5587   3.370   0.487   2.216 -0.0019  0.5403 -0.1345
 1379SOL     OW 5588   3.345   0.729   2.364  0.3993  0.0719 -0.0819
 1379SOL    HW2 5589   3.415   0.777   2.321  2.1819 -2.2015  0.2173
 1379SOL    HW3 5590   3.350   0.641   2.328 -0.9168 -0.7011  1.5441
 1379SOL    MW4 5591   3.355   0.724   2.354  0.4606 -0.3300  0.1721
 1380SOL     OW 5592   3.116   0.831   2.248 -0.3027  0.2977 -0.0794
 1380SOL    HW2 5593   3.185   0.777   2.287  0.1814  0.7100 -0.3620
 1380SOL    HW3 5594   3.035   0.788   2.274  0.0972 -1.0732 -1.0374
 1380SOL    MW4 5595   3.115   0.819   2.256 -0.1862  0.1712 -0.2429
 1381SOL     OW 5596   3.155   1.079   2.364 -0.5250  0.0182 -0.1534
 1381SOL    HW2 5597   3.231   1.129   2.335 -1.2715  0.0871 -2.0493
 1381SOL    HW3 5598   3.167   0.992   2.327 -2.5510  0.7057 -2.6201
 1381SOL    MW4 5599   3.166   1.074   2.355 -0.8905  0.1180 -0.7291
 1382SOL     OW 5600   3.359   1.238   2.240 -0.2259  0.2328 -0.0403
 1382SOL    HW2 5601   3.444   1.202   2.267 -0.5705  0.1705  0.9825
 1382SOL    HW3 5602   3.368   1.332   2.252  0.0015  0.3145 -0.8113
 1382SOL    MW4 5603   3.372   1.246   2.245 -0.2415  0.2352 -0.0069
 1383SOL     OW 5604   3.355   1.521   2.315 -0.7009  0.4656  0.1298
 1383SOL    HW2 5605   3.339   1.515   2.409 -0.0431  0.5599  0.2468
 1383SOL    HW3 5606   3.287   1.581   2.283  0.1895  1.8805  0.8311
 1383SOL    MW4 5607   3.344   1.528   2.323 -0.4964  0.6647  0.2375
 1384SOL     OW 5608   3.131   1.663   2.265  0.0714 -0.2051  0.0581
 1384SOL    HW2 5609   3.131   1.749   2.305  0.8849 -0.0548 -0.2391
 1384SOL    HW3 5610   3.069   1.612   2.316  0.3121  0.2832  0.8444
 1384SOL    MW4 5611   3.123   1.667   2.277  0.2105 -0.1209  0.1228
 1385SOL     OW 5612   3.157   1.933   2.320  0.0613 -0.4914  0.2759
 1385SOL    HW2 5613   3.175   1.971   2.406 -0.2342  1.9800 -0.7135
 1385SOL    HW3 5614   3.225   1.969   2.264 -0.1571 -1.5467 -0.6742
 1385SOL    MW4 5615   3.168   1.943   2.324 -0.0064 -0.3046  0.0200
 1386SOL     OW 5616   3.370   2.067   2.210 -0.3475  0.7388  0.3077
 1386SOL    HW2 5617   3.451   2.029   2.243  1.9134  4.2356 -0.9235
 1386SOL    HW3 5618   3.370   2.048   2.116 -1.2382  0.3130  0.3824
 1386SOL    MW4 5619   3.380   2.060   2.202 -0.1669  1.1439  0.1550
 1387SOL     OW 5620   3.372   2.323   2.312 -0.3989 -0.1034  0.4281
 1387SOL    HW2 5621   3.297   2.373   2.281 -0.6252  0.1039  1.2822
 1387SOL    HW3 5622   3.347   2.232   2.297  0.0851  0.0399 -1.2847
 1387SOL    MW4 5623   3.359   2.318   2.306 -0.3650 -0.0575  0.3147
 1388SOL     OW 5624   3.136   2.457   2.204 -0.5556  0.1162 -0.1813
 1388SOL    HW2 5625   3.120   2.541   2.249 -0.2697  0.5687 -0.9114
 1388SOL    HW3 5626   3.070   2.398   2.240 -0.4282  0.5099  0.7343
 1388SOL    MW4 5627   3.125   2.461   2.215 -0.5012  0.2279 -0.1571
 1389SOL     OW 5628   3.105   2.702   2.356 -0.2285 -0.8023  0.0231
 1389SOL    HW2 5629   3.078   2.716   2.447  1.6360  2.0069  0.1822
 1389SOL    HW3 5630   3.037   2.745   2.304  0.0641 -0.1453  0.1817
 1389SOL    MW4 5631   3.092   2.710   2.361  0.0565 -0.3452  0.0651
 1390SOL     OW 5632   3.355   2.773   2.241 -0.1907 -0.5388  0.3194
 1390SOL    HW2 5633   3.363   2.862   2.273 -0.2939 -0.6828  0.7552
 1390SOL    HW3 5634   3.266   2.747   2.264 -0.5891 -0.3166 -0.9385
 1390SOL    MW4 5635   3.344   2.781   2.249 -0.2570 -0.5283  0.2108
 1391SOL     OW 5636   3.325   3.057   2.310 -0.1566  0.4057  0.0630
 1391SOL    HW2 5637   3.385   3.112   2.260 -0.3830 -0.7296 -1.5082
 1391SOL    HW3 5638   3.238   3.087   2.285 -0.2669  1.4214  1.6198
 1391SOL    MW4 5639   3.322   3.068   2.300 -0.2010  0.3898  0.0613
 1392SOL     OW 5640   3.090   3.160   2.240 -0.1248 -0.3622  0.1320
 1392SOL    HW2 5641   3.101   3.247   2.278  1.7834 -0.9195  0.8980
 1392SOL    HW3 5642   3.085   3.176   2.145 -2.5801  0.8127  0.4261
 1392SOL    MW4 5643   3.091   3.174   2.232 -0.1972 -0.2809  0.2720
 1393SOL     OW 5644   3.134   3.398   2.352  0.3673  0.4612 -0.2837
 1393SOL    HW2 5645   3.122   3.420   2.444 -0.1932  0.8758 -0.4531
 1393SOL    HW3 5646   3.202   3.458   2.321 -0.0054  0.8632 -0.3346
 1393SOL    MW4 5647   3.141   3.409   2.360  0.2444  0.5693 -0.3123
 1394SOL     OW 5648   3.317   3.585   2.240  0.0025 -0.4191  0.1706
 1394SOL    HW2 5649   3.405   3.558   2.267  0.2270 -0.1165 -0.2544
 1394SOL    HW3 5650   3.320   3.584   2.145 -0.4443 -0.3674  0.1541
 1394SOL    MW4 5651   3.329   3.581   2.231 -0.0265 -0.3724  0.1123
 1395SOL     OW 5652   3.352   3.848   2.374 -0.0207  0.5825  0.3444
 1395SOL    HW2 5653   3.431   3.885   2.333  0.2731 -0.0620  0.3271
 1395SOL    HW3 5654   3.344   3.761   2.336 -0.6083  0.5548  0.5313
 1395SOL    MW4 5655   3.362   3.841   2.364 -0.0594  0.4938  0.3669
 1396SOL     OW 5656   3.128   3.951   2.235  0.0716  0.0083 -0.0474
 1396SOL    HW2 5657   3.207   3.915   2.276 -0.0465 -0.3414 -0.1199
 1396SOL    HW3 5658   3.057   3.896   2.268 -0.1570  0.3909  0.1027
 1396SOL    MW4 5659   3.129   3.939   2.245  0.0257  0.0126 -0.0372
 1397SOL     OW 5660   3.112   4.238   2.323  0.1876  0.4152 -0.3092
 1397SOL    HW2 5661   3.189   4.264   2.272  0.0188 -0.2100 -0.8832
 1397SOL    HW3 5662   3.099   4.146   2.302 -0.5012  0.4216  0.0731
 1397SOL    MW4 5663   3.121   4.229   2.314  0.0744  0.3333 -0.3343
 1398SOL     OW 5664   3.352   4.337   2.211  0.1247  0.1690 -0.0316
 1398SOL    HW2 5665   3.339   4.429   2.230  0.9974  0.3215 -0.1526
 1398SOL    HW3 5666   3.352   4.332   2.115 -0.3179 -0.0140 -0.0232
 1398SOL    MW4 5667   3.351   4.348   2.201  0.1814  0.1655 -0.0465
 1399SOL     OW 5668   3.810   4.623   2.341  0.0106  0.2048 -0.4301
 1399SOL    HW2 5669   3.835   4.619   2.434  0.1389 -0.2589 -0.4800
 1399SOL    HW3 5670   3.875   4.680   2.301  1.5536 -1.7002 -0.7277
 1399SOL    MW4 5671   3.822   4.630   2.348  0.2313 -0.1073 -0.4759
 1400SOL     OW 5672   3.573   0.079   2.244 -0.3685 -0.5745  0.4553
 1400SOL    HW2 5673   3.558   0.163   2.286 -0.5175 -0.1400 -0.4496
 1400SOL    HW3 5674   3.635   0.034   2.301 -0.1991  0.1979  0.8849
 1400SOL    MW4 5675   3.579   0.084   2.257 -0.3655 -0.4152  0.3927
 1401SOL     OW 5676   3.558   0.333   2.339  0.4923 -0.2359 -0.1955
 1401SOL    HW2 5677   3.546   0.357   2.431 -0.0191 -0.1324 -0.2886
 1401SOL    HW3 5678   3.634   0.384   2.311 -1.4338  2.4324 -0.7956
 1401SOL    MW4 5679   3.567   0.343   2.347  0.1707  0.1298 -0.2868
 1402SOL     OW 5680   3.783   0.490   2.248  0.2453 -0.0552 -0.2824
 1402SOL    HW2 5681   3.782   0.583   2.271  1.9733  0.2186 -1.2028
 1402SOL    HW3 5682   3.805   0.489   2.154 -0.2029 -1.3812 -0.3881
 1402SOL    MW4 5683   3.786   0.502   2.238  0.4141 -0.1940 -0.4179
 1403SOL     OW 5684   3.783   0.760   2.331 -0.6381 -0.0822 -0.1091
 1403SOL    HW2 5685   3.799   0.776   2.424 -0.8361 -0.2179 -0.0541
 1403SOL    HW3 5686   3.855   0.806   2.287  1.2855 -2.6687  0.2395
 1403SOL    MW4 5687   3.795   0.769   2.337 -0.4103 -0.4414 -0.0556
 1404SOL     OW 5688   3.553   0.881   2.256 -0.0815 -0.0586  0.0936
 1404SOL    HW2 5689   3.639   0.849   2.283 -0.3871 -0.1684  0.9595
 1404SOL    HW3 5690   3.543   0.850   2.166 -0.4338 -2.5864  0.9341
 1404SOL    MW4 5691   3.563   0.872   2.248 -0.1683 -0.4067  0.3188
 1405SOL     OW 5692   3.613   1.139   2.315  0.4191 -0.1579  0.6598
 1405SOL    HW2 5693   3.620   1.150   2.409 -1.2046 -0.6261  0.8624
 1405SOL    HW3 5694   3.596   1.045   2.303 -2.9636  0.4264  0.1888
 1405SOL    MW4 5695   3.612   1.128   2.326 -0.2415 -0.1425  0.6244
 1406SOL     OW 5696   3.842   1.294   2.237 -0.4640  0.1676  0.1479
 1406SOL    HW2 5697   3.819   1.369   2.291  0.9960 -0.0775  1.1325
 1406SOL    HW3 5698   3.769   1.233   2.248 -0.6822  0.5745  0.9885
 1406SOL    MW4 5699   3.830   1.296   2.245 -0.3002  0.1889  0.3889
 1407SOL     OW 5700   3.781   1.504   2.389 -0.1143 -0.0758 -0.1830
 1407SOL    HW2 5701   3.778   1.522   2.483  1.2203  0.0597 -0.1501
 1407SOL    HW3 5702   3.693   1.524   2.358  0.5365  4.1123  0.3093
 1407SOL    MW4 5703   3.769   1.509   2.397  0.1473  0.4946 -0.1135
 1408SOL     OW 5704   3.580   1.661   2.256  0.0877  0.1804 -0.2874
 1408SOL    HW2 5705   3.505   1.602   2.267 -0.8944  1.4961  0.3250
 1408SOL    HW3 5706   3.609   1.648   2.166  0.4777 -1.9002  0.1160
 1408SOL    MW4 5707   3.574   1.651   2.246  0.0095  0.0794 -0.1535
 1409SOL     OW 5708   3.571   1.925   2.330  0.5053 -0.0693 -0.0947
 1409SOL    HW2 5709   3.658   1.961   2.310  0.4692  0.0158 -0.1003
 1409SOL    HW3 5710   3.580   1.831   2.317  0.7432 -0.1208  0.4188
 1409SOL    MW4 5711   3.584   1.917   2.325  0.5319 -0.0647 -0.0277
 1410SOL     OW 5712   3.810   2.043   2.274  0.0030 -0.1458  0.2731
 1410SOL    HW2 5713   3.889   1.992   2.293  0.7235  0.8182 -0.1292
 1410SOL    HW3 5714   3.809   2.051   2.179  0.1453  0.9897  0.3616
 1410SOL    MW4 5715   3.820   2.037   2.264  0.1168  0.1309  0.2315
 1411SOL     OW 5716   3.808   2.306   2.370  0.7395  0.1673 -0.5160
 1411SOL    HW2 5717   3.751   2.348   2.306 -0.2385  0.6916  0.6749
 1411SOL    HW3 5718   3.811   2.214   2.344 -0.0877  0.2706 -0.9844
 1411SOL    MW4 5719   3.801   2.300   2.358  0.5014  0.2501 -0.4208
 1412SOL     OW 5720   3.620   2.438   2.228  0.2958 -0.2114  0.3133
 1412SOL    HW2 5721   3.542   2.385   2.248  0.9415 -1.4420 -0.4048
 1412SOL    HW3 5722   3.625   2.438   2.133  1.5548 -0.6990  0.3747
 1412SOL    MW4 5723   3.610   2.431   2.218  0.5469 -0.4380  0.2267
 1413SOL     OW 5724   3.587   2.685   2.374  0.6256  0.3023 -0.6474
 1413SOL    HW2 5725   3.601   2.593   2.351  1.2675  0.6860 -1.8301
 1413SOL    HW3 5726   3.500   2.706   2.338 -1.2713 -0.8883  2.9855
 1413SOL    MW4 5727   3.577   2.676   2.366  0.4601  0.1960 -0.3245
 1414SOL     OW 5728   3.763   2.847   2.239 -0.4103 -0.4252 -0.1272
 1414SOL    HW2 5729   3.754   2.938   2.266 -1.0399 -0.2155 -1.0314
 1414SOL    HW3 5730   3.703   2.799   2.295  0.6729 -0.4285  1.0529
 1414SOL    MW4 5731   3.754   2.853   2.250 -0.3505 -0.3982 -0.0908
 1415SOL     OW 5732   3.787   3.132   2.274  0.6729  0.1043 -0.0309
 1415SOL    HW2 5733   3.788   3.155   2.367  0.6945  1.1349 -0.2761
 1415SOL    HW3 5734   3.866   3.173   2.238  0.0094  0.7821 -0.7408
 1415SOL    MW4 5735   3.798   3.141   2.281  0.5884  0.3295 -0.1569
 1416SOL     OW 5736   3.518   3.223   2.204 -0.3328  0.1121 -0.1870
 1416SOL    HW2 5737   3.508   3.296   2.265  0.6479  0.6361 -0.6559
 1416SOL    HW3 5738   3.600   3.181   2.229 -1.3036 -1.3654  0.6318
 1416SOL    MW4 5739   3.527   3.227   2.216 -0.3316 -0.0138 -0.1409
 1417SOL     OW 5740   3.567   3.500   2.334  0.3289 -0.1830  0.4802
 1417SOL    HW2 5741   3.568   3.524   2.426 -0.4890  2.3171 -0.1445
 1417SOL    HW3 5742   3.645   3.542   2.297  0.1245 -0.3635 -0.1645
 1417SOL    MW4 5743   3.578   3.508   2.341  0.1938  0.1233  0.3128
 1418SOL     OW 5744   3.789   3.603   2.236 -0.4547  0.0777  0.3084
 1418SOL    HW2 5745   3.803   3.690   2.273 -0.1084 -0.0094  0.3766
 1418SOL    HW3 5746   3.768   3.620   2.144  0.0623  0.2040  0.2164
 1418SOL    MW4 5747   3.788   3.617   2.228 -0.3409  0.0827  0.3049
 1419SOL     OW 5748   3.836   3.862   2.325  0.5191  0.4077  0.1079
 1419SOL    HW2 5749   3.819   3.885   2.416  1.5829 -0.9106  0.6465
 1419SOL    HW3 5750   3.902   3.926   2.296  2.2409 -0.8789  1.1104
 1419SOL    MW4 5751   3.842   3.874   2.333  0.8867  0.0641  0.3114
 1420SOL     OW 5752   3.575   3.970   2.257  0.1078  0.5125  0.1680
 1420SOL    HW2 5753   3.572   4.055   2.301  0.0313  0.1239  0.9058
 1420SOL    HW3 5754   3.659   3.933   2.281 -0.4017 -0.1860  0.8923
 1420SOL    MW4 5755   3.585   3.976   2.266  0.0303  0.3688  0.3607
 1421SOL     OW 5756   3.570   4.218   2.339 -0.3725  0.1397  0.1053
 1421SOL    HW2 5757   3.643   4.255   2.290  0.0571 -0.1700  0.5162
 1421SOL    HW3 5758   3.494   4.268   2.309 -0.1556 -0.2101 -1.0693
 1421SOL    MW4 5759   3.569   4.230   2.329 -0.2873  0.0525  0.0045
 1422SOL     OW 5760   3.790   4.354   2.215  0.1788  0.0895 -0.1816
 1422SOL    HW2 5761   3.868   4.320   2.260  1.1332  0.0498 -1.8528
 1422SOL    HW3 5762   3.782   4.445   2.244  0.9441  0.1423 -0.1515
 1422SOL    MW4 5763   3.799   4.361   2.225  0.4060  0.0916 -0.3979
 1423SOL     OW 5764   4.245   0.002   2.309 -0.3103 -0.4857 -0.2229
 1423SOL    HW2 5765   4.237   0.000   2.404 -0.5072  0.5750 -0.2169
 1423SOL    HW3 5766   4.326   0.050   2.292 -0.6691 -0.0113 -0.6109
 1423SOL    MW4 5767   4.255   0.008   2.319 -0.3839 -0.2828 -0.2735
 1424SOL     OW 5768   4.012   0.106   2.233  0.4181  0.3694 -0.2464
 1424SOL    HW2 5769   4.019   0.198   2.260  0.8971 -0.2421  1.7993
 1424SOL    HW3 5770   4.097   0.068   2.253 -0.7434 -1.2536  1.8384
 1424SOL    MW4 5771   4.024   0.113   2.239  0.3285  0.0746  0.2985
 1425SOL     OW 5772   4.020   0.368   2.337 -0.3753 -0.0024 -0.4493
 1425SOL    HW2 5773   4.088   0.404   2.281  1.0873  2.0061  2.4759
 1425SOL    HW3 5774   3.945   0.426   2.323 -0.0656  0.3977 -0.4612
 1425SOL    MW4 5775   4.019   0.380   2.328 -0.1421  0.3154 -0.0651
 1426SOL     OW 5776   4.242   0.498   2.207 -0.0689 -0.7762 -0.2360
 1426SOL    HW2 5777   4.231   0.590   2.233  0.2715 -0.7366 -0.2303
 1426SOL    HW3 5778   4.315   0.467   2.261 -0.8272 -1.3341  0.5035
 1426SOL    MW4 5779   4.250   0.506   2.218 -0.1240 -0.8446 -0.1376
 1427SOL     OW 5780   4.210   0.763   2.319  0.2719 -0.0746 -0.2524
 1427SOL    HW2 5781   4.143   0.821   2.282  0.9415  0.7233 -0.2198
 1427SOL    HW3 5782   4.293   0.804   2.295  0.7456 -0.8779  0.0107
 1427SOL    MW4 5783   4.212   0.776   2.311  0.4225 -0.0752 -0.2131
 1428SOL     OW 5784   4.013   0.899   2.218 -0.1670  0.3845  0.8463
 1428SOL    HW2 5785   4.010   0.986   2.259 -0.8973  0.8776 -0.2387
 1428SOL    HW3 5786   4.009   0.917   2.124 -0.1566 -0.8237  0.6152
 1428SOL    MW4 5787   4.012   0.913   2.211 -0.2623  0.2902  0.6723
 1429SOL     OW 5788   4.058   1.150   2.369 -0.4801 -0.1933 -0.2456
 1429SOL    HW2 5789   4.046   1.150   2.464 -0.9412 -1.7974 -0.2963
 1429SOL    HW3 5790   3.985   1.202   2.336 -0.8604 -0.4410  0.2023
 1429SOL    MW4 5791   4.047   1.157   2.377 -0.5913 -0.4376 -0.1931
 1430SOL     OW 5792   4.271   1.289   2.238  0.0325 -0.5667 -0.1513
 1430SOL    HW2 5793   4.201   1.259   2.296 -0.3846 -0.4757 -0.6019
 1430SOL    HW3 5794   4.352   1.261   2.281 -0.2328  0.2337  0.8950
 1430SOL    MW4 5795   4.272   1.281   2.252 -0.0577 -0.4491 -0.0727
 1431SOL     OW 5796   4.253   1.540   2.365 -0.2502 -0.4029  0.1620
 1431SOL    HW2 5797   4.260   1.467   2.303 -1.3118  0.9002 -1.5617
 1431SOL    HW3 5798   4.329   1.596   2.345 -0.8596  0.2669 -0.3291
 1431SOL    MW4 5799   4.264   1.538   2.354 -0.4706 -0.1427 -0.1302
 1432SOL     OW 5800   4.014   1.670   2.279  0.6842  0.2586 -0.5781
 1432SOL    HW2 5801   4.095   1.627   2.307 -0.1333 -0.1709  1.1678
 1432SOL    HW3 5802   3.945   1.621   2.323 -0.3982  2.0512 -0.2765
 1432SOL    MW4 5803   4.015   1.658   2.288  0.4330  0.4385 -0.3078
 1433SOL     OW 5804   4.042   1.931   2.355 -0.1746 -0.0555  0.1189
 1433SOL    HW2 5805   4.057   1.921   2.449  0.1418 -0.7209  0.0073
 1433SOL    HW3 5806   4.032   1.841   2.323 -1.1872  0.2192 -0.3391
 1433SOL    MW4 5807   4.043   1.918   2.363 -0.2666 -0.1070  0.0439
 1434SOL     OW 5808   4.284   2.056   2.218  0.3479  0.1725 -0.5449
 1434SOL    HW2 5809   4.298   2.142   2.257  0.5392  0.2264 -0.7315
 1434SOL    HW3 5810   4.208   2.020   2.265  0.4294  0.3337 -0.2878
 1434SOL    MW4 5811   4.276   2.062   2.229  0.3834  0.2012 -0.5357
 1435SOL     OW 5812   4.287   2.327   2.337  0.1162 -0.0578 -0.3007
 1435SOL    HW2 5813   4.208   2.371   2.303  0.1647  0.0485 -0.2775
 1435SOL    HW3 5814   4.360   2.377   2.300  0.1696  0.0471 -0.0597
 1435SOL    MW4 5815   4.286   2.340   2.328  0.1297 -0.0298 -0.2661
 1436SOL     OW 5816   4.039   2.439   2.279  0.0289  0.2558  0.2128
 1436SOL    HW2 5817   4.026   2.533   2.291 -1.1382  0.1772 -0.3313
 1436SOL    HW3 5818   3.962   2.399   2.317  0.5492 -0.4891  0.4873
 1436SOL    MW4 5819   4.027   2.446   2.285 -0.0567  0.1471  0.1771
 1437SOL     OW 5820   3.983   2.717   2.367  0.2106 -0.0241  0.0847
 1437SOL    HW2 5821   3.971   2.741   2.458 -0.0098 -0.7307  0.2422
 1437SOL    HW3 5822   3.912   2.761   2.320  0.9015  1.1414  0.1102
 1437SOL    MW4 5823   3.972   2.726   2.373  0.2728  0.0365  0.1090
 1438SOL     OW 5824   4.202   2.798   2.224  0.0247 -0.6042  0.1241
 1438SOL    HW2 5825   4.127   2.761   2.270 -0.5172 -0.2938 -0.4820
 1438SOL    HW3 5826   4.277   2.750   2.256 -0.1625  0.5309  2.3368
 1438SOL    MW4 5827   4.202   2.787   2.234 -0.0715 -0.4134  0.3362
 1439SOL     OW 5828   4.248   3.065   2.314 -0.8549 -0.1933  0.2007
 1439SOL    HW2 5829   4.231   2.981   2.271 -0.4807 -0.4108  0.4822
 1439SOL    HW3 5830   4.323   3.101   2.267 -0.7641 -0.1980  0.3418
 1439SOL    MW4 5831   4.256   3.059   2.302 -0.7935 -0.2222  0.2565
 1440SOL     OW 5832   4.035   3.211   2.212  0.4351  0.3370 -0.1709
 1440SOL    HW2 5833   4.031   3.298   2.252 -1.6911  0.0867  0.2462
 1440SOL    HW3 5834   4.099   3.163   2.265  0.8759  1.3383  0.2199
 1440SOL    MW4 5835   4.043   3.217   2.224  0.2131  0.4361 -0.0644
 1441SOL     OW 5836   3.995   3.461   2.333 -0.3314  0.0585 -0.0851
 1441SOL    HW2 5837   4.070   3.514   2.307 -0.8290  0.4513 -0.7340
 1441SOL    HW3 5838   3.919   3.510   2.302 -0.9217  0.2544  1.6144
 1441SOL    MW4 5839   3.995   3.474   2.326 -0.4749  0.1361  0.0534
 1442SOL     OW 5840   4.221   3.613   2.248 -0.0725  0.2882  0.3994
 1442SOL    HW2 5841   4.235   3.703   2.278 -0.0586 -0.4187  2.6367
 1442SOL    HW3 5842   4.202   3.622   2.155  0.8176  2.5299  0.3811
 1442SOL    MW4 5843   4.220   3.626   2.240  0.0463  0.4907  0.6921
 1443SOL     OW 5844   4.254   3.870   2.317  0.2951  0.0341 -0.2901
 1443SOL    HW2 5845   4.239   3.900   2.407  0.9776  0.5802 -0.3583
 1443SOL    HW3 5846   4.342   3.900   2.296  1.2257 -2.4540 -0.1861
 1443SOL    MW4 5847   4.264   3.878   2.326  0.5078 -0.2222 -0.2856
 1444SOL     OW 5848   4.037   3.999   2.190 -0.0628 -0.4142  0.1667
 1444SOL    HW2 5849   4.116   3.955   2.221  0.7785  0.1864 -1.0692
 1444SOL    HW3 5850   4.032   3.977   2.097 -0.5917  0.6583 -0.0743
 1444SOL    MW4 5851   4.047   3.990   2.182 -0.0215 -0.1934 -0.0284
 1445SOL     OW 5852   4.033   4.235   2.319 -0.2086 -0.1018  0.0927
 1445SOL    HW2 5853   4.115   4.275   2.290 -0.2508  0.0536  0.1920
 1445SOL    HW3 5854   4.030   4.151   2.273  0.3387 -0.4076  0.5954
 1445SOL    MW4 5855   4.044   4.229   2.309 -0.1416 -0.1221  0.1721
 1446SOL     OW 5856   4.264   4.367   2.247 -0.1026  0.5037  0.3666
 1446SOL    HW2 5857   4.264   4.457   2.279 -0.1033  0.5068  0.3589
 1446SOL    HW3 5858   4.338   4.326   2.291  0.1205  0.6073  0.0929
 1446SOL    MW4 5859   4.274   4.374   2.257 -0.0730  0.5174  0.3295
 1447SOL     OW 5860   0.196   4.640   2.597 -0.2691 -0.3260  0.3980
 1447SOL    HW2 5861   0.214   4.558   2.643  1.1718 -0.4993 -0.4696
 1447SOL    HW3 5862   0.120   4.677   2.644 -1.2020 -2.3438  0.5232
 1447SOL    MW4 5863   0.188   4.634   2.609 -0.2021 -0.6151  0.3002
 1448SOL     OW 5864   4.474   0.097   2.722  0.1552  0.1990  0.3061
 1448SOL    HW2 5865   4.474   0.107   2.817  0.2885  0.7981  0.2443
 1448SOL    HW3 5866   4.485   0.186   2.688  1.0618 -0.1169 -0.2523
 1448SOL    MW4 5867   4.476   0.110   2.730  0.2918  0.2364  0.2244
 1449SOL     OW 5868   4.441   0.352   2.627  0.0394 -0.5229  0.0847
 1449SOL    HW2 5869   4.526   0.379   2.663 -0.7830 -0.2947  1.8973
 1449SOL    HW3 5870   4.454   0.354   2.532  1.6783  0.7637  0.3058
 1449SOL    MW4 5871   4.454   0.356   2.619  0.1464 -0.3230  0.3526
 1450SOL     OW 5872   0.192   0.455   2.713 -0.4320 -0.7719 -0.3326
 1450SOL    HW2 5873   0.204   0.482   2.804 -0.1676  0.5372 -0.7362
 1450SOL    HW3 5874   0.278   0.425   2.685 -0.5451 -1.3076 -0.1197
 1450SOL    MW4 5875   0.205   0.455   2.721 -0.4120 -0.6698 -0.3576
 1451SOL     OW 5876   0.188   0.723   2.630  0.3259  0.2740 -0.5082
 1451SOL    HW2 5877   0.263   0.752   2.682 -0.9325  0.2739  1.3626
 1451SOL    HW3 5878   0.184   0.628   2.644  0.0462  0.2567 -0.6965
 1451SOL    MW4 5879   0.197   0.714   2.638  0.1230  0.2716 -0.2861
 1452SOL     OW 5880   4.459   0.907   2.679  0.5087  0.2790 -0.0439
 1452SOL    HW2 5881   4.384   0.872   2.631  0.4403  0.3590  0.0057
 1452SOL    HW3 5882   4.529   0.844   2.662  0.9493  1.1766 -1.5915
 1452SOL    MW4 5883   4.458   0.894   2.671  0.5579  0.4080 -0.2415
 1453SOL     OW 5884   0.004   1.170   2.591 -0.3507 -0.0918 -0.2484
 1453SOL    HW2 5885   0.080   1.212   2.631  0.7483 -1.1646 -1.1763
 1453SOL    HW3 5886   0.001   1.083   2.630 -1.5777  0.2301  0.3742
 1453SOL    MW4 5887   0.014   1.164   2.601 -0.3672 -0.1909 -0.2882
 1454SOL     OW 5888   0.199   1.298   2.732  0.2558  0.1428  0.7308
 1454SOL    HW2 5889   0.273   1.254   2.691 -0.9156 -0.3108 -0.9183
 1454SOL    HW3 5890   0.211   1.391   2.711  0.5447  0.1211  0.7924
 1454SOL    MW4 5891   0.211   1.305   2.724  0.1394  0.0801  0.5214
 1455SOL     OW 5892   0.221   1.552   2.642  0.2692  0.1648 -0.0746
 1455SOL    HW2 5893   0.287   1.596   2.696 -0.9697 -1.4440  2.8733
 1455SOL    HW3 5894   0.139   1.594   2.667 -0.3675 -0.8323 -0.4679
 1455SOL    MW4 5895   0.219   1.563   2.653  0.0217 -0.1792  0.2625
 1456SOL     OW 5896   4.477   1.662   2.753  0.2612 -0.2922 -0.0919
 1456SOL    HW2 5897   4.496   1.650   2.846  3.0275 -0.5206 -0.6394
 1456SOL    HW3 5898   4.485   1.757   2.740 -0.9784 -0.1565  0.0478
 1456SOL    MW4 5899   4.480   1.673   2.764  0.4630 -0.3043 -0.1457
 1457SOL     OW 5900   4.437   1.936   2.676  0.3355  0.9213  0.2456
 1457SOL    HW2 5901   4.525   1.966   2.700  0.6082 -0.0083  0.4257
 1457SOL    HW3 5902   4.435   1.939   2.581  0.8726  0.0923  0.2036
 1457SOL    MW4 5903   4.448   1.940   2.667  0.4430  0.6893  0.2639
 1458SOL     OW 5904   0.187   2.053   2.761  0.0466  0.5326 -0.1759
 1458SOL    HW2 5905   0.271   2.017   2.734  1.0589  1.7634  1.2331
 1458SOL    HW3 5906   0.181   2.137   2.717 -0.2886  0.5995 -0.0092
 1458SOL    MW4 5907   0.197   2.059   2.752  0.1359  0.7041  0.0317
 1459SOL     OW 5908   0.193   2.314   2.652 -0.0076  0.6481  0.4189
 1459SOL    HW2 5909   0.272   2.359   2.684 -0.0889  0.4679  0.8804
 1459SOL    HW3 5910   0.123   2.377   2.665  0.3362  1.4820 -1.6580
 1459SOL    MW4 5911   0.194   2.328   2.658  0.0270  0.7341  0.2060
 1460SOL     OW 5912   0.003   2.483   2.719  0.0328 -0.1093 -0.2897
 1460SOL    HW2 5913  -0.009   2.478   2.814  0.7344  1.4486 -0.1134
 1460SOL    HW3 5914  -0.077   2.445   2.683 -0.0944 -1.0116  0.9211
 1460SOL    MW4 5915  -0.009   2.477   2.727  0.1087 -0.0224 -0.1068
 1461SOL     OW 5916   4.443   2.727   2.599 -0.2171 -0.2460  0.2397
 1461SOL    HW2 5917   4.379   2.776   2.652  1.8646  1.2769  1.4164
 1461SOL    HW3 5918   4.455   2.644   2.646 -0.8062 -0.2502  0.3863
 1461SOL    MW4 5919   4.436   2.723   2.612 -0.0200 -0.0455  0.4144
 1462SOL     OW 5920   0.195   2.819   2.708  0.1516  0.4799 -0.8509
 1462SOL    HW2 5921   0.197   2.912   2.686 -0.4465  0.2470 -1.9076
 1462SOL    HW3 5922   0.106   2.791   2.689 -0.0464 -0.0242  0.7079
 1462SOL    MW4 5923   0.184   2.827   2.703  0.0466  0.3827 -0.7846
 1463SOL     OW 5924   0.203   3.090   2.648  0.0325 -0.1914  0.4374
 1463SOL    HW2 5925   0.295   3.110   2.667 -0.1768  1.2110  0.0760
 1463SOL    HW3 5926   0.199   3.090   2.552 -0.5218  0.6594  0.4563
 1463SOL    MW4 5927   0.215   3.093   2.638 -0.0682  0.1061  0.3924
 1464SOL     OW 5928   4.454   3.207   2.701 -0.2040 -0.0574 -0.8170
 1464SOL    HW2 5929   4.384   3.149   2.672  0.8304 -1.7725  0.0139
 1464SOL    HW3 5930   4.534   3.166   2.667  0.4967  1.2081 -0.7235
 1464SOL    MW4 5931   4.455   3.194   2.693  0.0248 -0.1168 -0.6950
 1465SOL     OW 5932   4.458   3.457   2.570  0.4732  0.3857  0.0558
 1465SOL    HW2 5933   4.534   3.498   2.613  0.3977 -0.8740  1.4142
 1465SOL    HW3 5934   4.449   3.372   2.613 -1.1956  0.1706 -0.6941
 1465SOL    MW4 5935   4.467   3.451   2.582  0.2432  0.1912  0.1361
 1466SOL     OW 5936   0.185   3.576   2.691 -0.2208  0.6883  0.2923
 1466SOL    HW2 5937   0.180   3.575   2.787  0.4798 -0.2915  0.3277
 1466SOL    HW3 5938   0.270   3.538   2.671 -1.7221 -2.2815 -0.8039
 1466SOL    MW4 5939   0.195   3.571   2.701 -0.3264  0.1674  0.1521
 1467SOL     OW 5940   0.199   3.846   2.640  0.5522 -0.1775  0.0028
 1467SOL    HW2 5941   0.185   3.755   2.667  1.2551 -0.2755  0.0476
 1467SOL    HW3 5942   0.221   3.840   2.547 -1.0271  0.0879 -0.3955
 1467SOL    MW4 5943   0.200   3.833   2.631  0.4365 -0.1554 -0.0436
 1468SOL     OW 5944   4.440   4.013   2.722  0.2864 -0.1087  0.2615
 1468SOL    HW2 5945   4.461   4.106   2.711  1.3595 -0.4720 -0.9393
 1468SOL    HW3 5946   4.518   3.967   2.691 -0.5219 -1.4282  0.1406
 1468SOL    MW4 5947   4.454   4.019   2.716  0.3214 -0.3309  0.0870
 1469SOL     OW 5948   0.025   4.283   2.629  0.2878  0.2049  0.0947
 1469SOL    HW2 5949  -0.050   4.333   2.660  0.7261  1.1937 -0.4130
 1469SOL    HW3 5950   0.101   4.333   2.659  0.7483 -0.7648  0.5735
 1469SOL    MW4 5951   0.025   4.297   2.637  0.4065  0.2079  0.0908
 1470SOL     OW 5952   0.252   4.410   2.732 -0.5342 -0.7038 -0.7664
 1470SOL    HW2 5953   0.248   4.408   2.828  1.5613 -0.6786 -0.6556
 1470SOL    HW3 5954   0.317   4.343   2.709  0.9397  1.1112 -2.0217
 1470SOL    MW4 5955   0.260   4.401   2.742 -0.0633 -0.4611 -0.9172
 1471SOL     OW 5956   0.673   0.009   2.626 -0.0086 -0.1910  0.3159
 1471SOL    HW2 5957   0.751   0.064   2.633  0.5703 -0.5302 -2.7609
 1471SOL    HW3 5958   0.602   0.063   2.660  0.9568  1.4844 -0.2722
 1471SOL    MW4 5959   0.674   0.023   2.632  0.1951 -0.0143 -0.1678
 1472SOL     OW 5960   0.424   0.115   2.707 -0.5007  0.1178 -0.5890
 1472SOL    HW2 5961   0.424   0.109   2.803  1.6643  0.3270 -0.5397
 1472SOL    HW3 5962   0.346   0.067   2.680 -1.4751  0.5774  1.3088
 1472SOL    MW4 5963   0.414   0.108   2.716 -0.3436  0.2061 -0.3321
 1473SOL     OW 5964   0.441   0.368   2.599  0.5465  0.4007  0.1317
 1473SOL    HW2 5965   0.516   0.413   2.638  0.3984  0.2277  0.6178
 1473SOL    HW3 5966   0.442   0.282   2.639 -0.7511  0.8782  1.2098
 1473SOL    MW4 5967   0.451   0.363   2.609  0.3558  0.4409  0.3381
 1474SOL     OW 5968   0.650   0.494   2.743  0.4629  0.4323  0.3475
 1474SOL    HW2 5969   0.666   0.510   2.835 -0.4712 -1.7780  0.9255
 1474SOL    HW3 5970   0.732   0.456   2.710  0.0122 -1.0197  0.8519
 1474SOL    MW4 5971   0.663   0.491   2.751  0.2802 -0.0509  0.4902
 1475SOL     OW 5972   0.640   0.736   2.631  0.3808  0.3706 -0.4327
 1475SOL    HW2 5973   0.723   0.779   2.653  1.4035 -1.5988 -0.4043
 1475SOL    HW3 5974   0.643   0.652   2.677 -0.2706 -1.0435 -2.9148
 1475SOL    MW4 5975   0.651   0.731   2.640  0.4298 -0.0758 -0.7565
 1476SOL     OW 5976   0.409   0.847   2.719 -0.7138  0.3482  0.0322
 1476SOL    HW2 5977   0.415   0.939   2.692 -1.7415  0.3864 -0.0619
 1476SOL    HW3 5978   0.494   0.809   2.693  0.2557  1.5937  1.3258
 1476SOL    MW4 5979   0.421   0.854   2.712 -0.7215  0.5175  0.1905
 1477SOL     OW 5980   0.420   1.118   2.646 -0.2620  1.2277  0.2223
 1477SOL    HW2 5981   0.502   1.165   2.662 -0.6360  1.9114  0.1673
 1477SOL    HW3 5982   0.415   1.109   2.551  1.0242 -1.1413  0.3475
 1477SOL    MW4 5983   0.430   1.123   2.636 -0.1417  1.0054  0.2317
 1478SOL     OW 5984   0.637   1.282   2.703 -0.0464  0.0400  0.5737
 1478SOL    HW2 5985   0.641   1.279   2.799 -0.5617 -0.6236  0.5831
 1478SOL    HW3 5986   0.720   1.245   2.674  0.6568  1.4410  0.7633
 1478SOL    MW4 5987   0.648   1.277   2.712 -0.0216  0.1372  0.6001
 1479SOL     OW 5988   0.653   1.559   2.640  0.0439 -0.3196 -0.0542
 1479SOL    HW2 5989   0.574   1.595   2.681  0.3971 -0.6806  0.9652
 1479SOL    HW3 5990   0.654   1.467   2.666  0.8793 -0.2819  0.0744
 1479SOL    MW4 5991   0.643   1.551   2.649  0.2007 -0.3624  0.0973
 1480SOL     OW 5992   0.427   1.684   2.747  0.2215 -0.1620  0.5663
 1480SOL    HW2 5993   0.442   1.686   2.841 -0.1560 -0.9563  0.6444
 1480SOL    HW3 5994   0.446   1.773   2.718 -0.3001  0.2527  1.4872
 1480SOL    MW4 5995   0.432   1.696   2.755  0.1028 -0.2120  0.6979
 1481SOL     OW 5996   0.468   1.951   2.648  0.8526 -0.2098 -0.3297
 1481SOL    HW2 5997   0.550   1.995   2.670  1.2132 -1.1928  0.3429
 1481SOL    HW3 5998   0.465   1.952   2.552  2.9385 -2.4218 -0.4619
 1481SOL    MW4 5999   0.478   1.957   2.638  1.1754 -0.6313 -0.2584
 1482SOL     OW 6000   0.694   2.083   2.750  0.4465 -0.0501  0.1517
 1482SOL    HW2 6001   0.708   2.071   2.844  0.6225 -0.8735  0.0295
 1482SOL    HW3 6002   0.765   2.034   2.709 -0.5975 -1.1083 -0.4251
 1482SOL    MW4 6003   0.705   2.075   2.757  0.3320 -0.2985  0.0596
 1483SOL     OW 6004   0.706   2.338   2.651 -0.4713 -0.0453 -0.6688
 1483SOL    HW2 6005   0.774   2.382   2.701 -1.2999 -0.6401  1.0263
 1483SOL    HW3 6006   0.686   2.259   2.702 -1.5115 -0.5373 -1.8156
 1483SOL    MW4 6007   0.712   2.333   2.664 -0.7179 -0.1886 -0.5965
 1484SOL     OW 6008   0.435   2.426   2.699  0.2271 -0.1288  0.2952
 1484SOL    HW2 6009   0.436   2.517   2.669  0.6888 -0.8795 -2.0531
 1484SOL    HW3 6010   0.522   2.393   2.678 -0.2444 -1.3848  0.2931
 1484SOL    MW4 6011   0.447   2.434   2.692  0.2258 -0.3934 -0.0148
 1485SOL     OW 6012   0.414   2.676   2.595  0.5154 -0.2437 -0.0405
 1485SOL    HW2 6013   0.491   2.709   2.643  0.4758 -1.0490  0.5813
 1485SOL    HW3 6014   0.340   2.717   2.639  0.4205 -1.7208  1.2101
 1485SOL    MW4 6015   0.414   2.686   2.608  0.4977 -0.5445  0.2067
 1486SOL     OW 6016   0.646   2.796   2.714 -0.5096  0.0800 -0.0149
 1486SOL    HW2 6017   0.670   2.795   2.806  0.9786  0.3286 -0.3981
 1486SOL    HW3 6018   0.662   2.886   2.686 -0.4141 -0.1351 -0.6621
 1486SOL    MW4 6019   0.651   2.808   2.722 -0.3005  0.0846 -0.1507
 1487SOL     OW 6020   0.677   3.060   2.655 -0.3362  0.2953  0.0450
 1487SOL    HW2 6021   0.744   3.123   2.681 -0.2711  0.4671 -0.5268
 1487SOL    HW3 6022   0.675   3.065   2.560  0.4321 -1.3590 -0.0681
 1487SOL    MW4 6023   0.685   3.069   2.646 -0.2263  0.0997 -0.0455
 1488SOL     OW 6024   0.449   3.147   2.765  0.0728  0.1972 -0.2900
 1488SOL    HW2 6025   0.451   3.186   2.852  0.1535 -1.2843  0.3949
 1488SOL    HW3 6026   0.538   3.115   2.750 -0.5283 -1.7807  0.1537
 1488SOL    MW4 6027   0.461   3.148   2.774  0.0042 -0.2592 -0.1414
 1489SOL     OW 6028   0.431   3.454   2.676 -0.1573 -0.3696 -0.2096
 1489SOL    HW2 6029   0.420   3.362   2.701 -1.7075 -0.2357 -0.3249
 1489SOL    HW3 6030   0.435   3.453   2.580  0.2143 -0.3576 -0.1936
 1489SOL    MW4 6031   0.430   3.442   2.667 -0.3128 -0.3505 -0.2227
 1490SOL     OW 6032   0.661   3.622   2.707 -0.1784 -0.2223  0.1511
 1490SOL    HW2 6033   0.672   3.619   2.802  0.0225  0.2642  0.1462
 1490SOL    HW3 6034   0.587   3.564   2.689 -0.3702 -0.1274  0.6316
 1490SOL    MW4 6035   0.653   3.614   2.717 -0.1772 -0.1457  0.2141
 1491SOL     OW 6036   0.635   3.879   2.605  0.0257 -0.1961 -0.1815
 1491SOL    HW2 6037   0.558   3.905   2.655 -0.5079 -0.4873 -0.8463
 1491SOL    HW3 6038   0.656   3.791   2.637  0.1933 -0.0470  0.1239
 1491SOL    MW4 6039   0.628   3.871   2.616 -0.0226 -0.2151 -0.2286
 1492SOL     OW 6040   0.419   3.955   2.754  0.1462 -0.2647 -0.1145
 1492SOL    HW2 6041   0.396   4.045   2.729 -0.2041 -0.4901 -0.6098
 1492SOL    HW3 6042   0.346   3.902   2.722  1.1844 -0.9522 -1.4368
 1492SOL    MW4 6043   0.407   3.960   2.746  0.2370 -0.3853 -0.3545
 1493SOL     OW 6044   0.458   4.232   2.689 -0.4005  0.1298  0.2278
 1493SOL    HW2 6045   0.532   4.288   2.713  0.9758 -1.0515 -1.1551
 1493SOL    HW3 6046   0.447   4.246   2.595 -0.8948 -0.9291  0.1258
 1493SOL    MW4 6047   0.466   4.242   2.680 -0.2841 -0.1659  0.0322
 1494SOL     OW 6048   0.663   4.400   2.734 -0.1261  0.3969  0.5987
 1494SOL    HW2 6049   0.745   4.357   2.711 -0.1912  0.2883  0.5654
 1494SOL    HW3 6050   0.679   4.493   2.718  0.5396  0.5751  2.1920
 1494SOL    MW4 6051   0.676   4.406   2.729 -0.0468  0.4063  0.8042
 1495SOL     OW 6052   1.123   4.624   2.622  0.6686 -0.1967 -0.2118
 1495SOL    HW2 6053   1.201   4.669   2.652  0.1494  0.1949  0.5720
 1495SOL    HW3 6054   1.118   4.545   2.675  1.2052 -0.8323 -1.1125
 1495SOL    MW4 6055   1.133   4.620   2.633  0.6709 -0.2289 -0.2275
 1496SOL     OW 6056   0.916   0.131   2.704  0.4682 -0.1559  0.0207
 1496SOL    HW2 6057   0.913   0.124   2.799  2.2570 -1.6234 -0.0134
 1496SOL    HW3 6058   0.991   0.078   2.677  0.9089  1.4266 -2.0964
 1496SOL    MW4 6059   0.925   0.123   2.713  0.7623 -0.1407 -0.2627
 1497SOL     OW 6060   0.891   0.397   2.627 -0.7546 -0.1820  0.4102
 1497SOL    HW2 6061   0.899   0.305   2.651  0.1047  0.0803  1.1610
 1497SOL    HW3 6062   0.883   0.397   2.532 -0.7440 -1.0310  0.4101
 1497SOL    MW4 6063   0.891   0.385   2.618 -0.6399 -0.2594  0.5090
 1498SOL     OW 6064   1.131   0.505   2.717 -0.1463  0.1414 -0.2323
 1498SOL    HW2 6065   1.134   0.585   2.665 -0.1120  1.0410  1.1440
 1498SOL    HW3 6066   1.065   0.451   2.673 -0.0355  0.8324 -1.2765
 1498SOL    MW4 6067   1.123   0.508   2.704 -0.1271  0.3514 -0.1884
 1499SOL     OW 6068   1.153   0.756   2.617  0.0994  0.2348 -0.1895
 1499SOL    HW2 6069   1.221   0.805   2.663  1.8050 -0.9886 -1.3092
 1499SOL    HW3 6070   1.156   0.788   2.527 -1.3454  0.6977 -0.0910
 1499SOL    MW4 6071   1.162   0.767   2.611  0.1339  0.1345 -0.3242
 1500SOL     OW 6072   0.897   0.848   2.730  0.2204 -0.3226 -0.2212
 1500SOL    HW2 6073   0.905   0.867   2.824  0.5355 -0.7700 -0.1524
 1500SOL    HW3 6074   0.986   0.825   2.703 -0.1467 -1.6537 -0.3021
 1500SOL    MW4 6075   0.910   0.848   2.739  0.2135 -0.5572 -0.2227
 1501SOL     OW 6076   0.873   1.124   2.651  0.1187  0.1438  0.0121
 1501SOL    HW2 6077   0.872   1.035   2.687 -0.5949 -0.0575 -0.5029
 1501SOL    HW3 6078   0.876   1.111   2.556  0.5691  0.6729 -0.0476
 1501SOL    MW4 6079   0.873   1.110   2.643  0.0840  0.1870 -0.0637
 1502SOL     OW 6080   1.112   1.241   2.714  0.0058 -0.1983  0.2332
 1502SOL    HW2 6081   1.127   1.330   2.682 -0.2038  0.3682  1.6885
 1502SOL    HW3 6082   1.022   1.221   2.688  0.0579  0.0020 -0.1044
 1502SOL    MW4 6083   1.102   1.250   2.706 -0.0149 -0.0972  0.3808
 1503SOL     OW 6084   1.130   1.515   2.646 -0.3233 -0.1245  0.1602
 1503SOL    HW2 6085   1.046   1.556   2.668  0.1237  0.6264  0.5245
 1503SOL    HW3 6086   1.136   1.522   2.551 -0.3949  0.3848  0.1905
 1503SOL    MW4 6087   1.120   1.521   2.636 -0.2738  0.0418  0.2122
 1504SOL     OW 6088   0.908   1.681   2.720 -0.3604  0.4899  0.0859
 1504SOL    HW2 6089   0.922   1.693   2.814 -0.0030  2.0930 -0.1470
 1504SOL    HW3 6090   0.831   1.625   2.714  1.3729 -2.1299  1.3466
 1504SOL    MW4 6091   0.900   1.675   2.732 -0.0845  0.3558  0.2215
 1505SOL     OW 6092   0.897   1.935   2.628  0.1711 -0.3591  0.2527
 1505SOL    HW2 6093   0.955   1.981   2.690  1.6268 -0.2160 -1.1703
 1505SOL    HW3 6094   0.903   1.843   2.653  1.8465 -0.4821 -0.4813
 1505SOL    MW4 6095   0.906   1.929   2.639  0.5841 -0.3564 -0.0319
 1506SOL     OW 6096   1.086   2.079   2.766  0.2043  0.4271  0.6316
 1506SOL    HW2 6097   1.155   2.043   2.710 -0.1671 -1.0091  1.0800
 1506SOL    HW3 6098   1.069   2.165   2.729 -0.4162 -0.6997 -1.8454
 1506SOL    MW4 6099   1.093   2.085   2.754  0.0733  0.0887  0.3641
 1507SOL     OW 6100   1.067   2.310   2.625 -0.0309  0.1033 -0.4954
 1507SOL    HW2 6101   1.154   2.343   2.648  0.4662 -1.5693  0.1129
 1507SOL    HW3 6102   1.068   2.305   2.529  0.6618 -0.2284 -0.4738
 1507SOL    MW4 6103   1.079   2.314   2.615  0.1261 -0.1614 -0.4122
 1508SOL     OW 6104   0.902   2.472   2.781 -0.0461  0.2954  0.4535
 1508SOL    HW2 6105   0.898   2.543   2.718 -1.8937 -0.8134 -0.7031
 1508SOL    HW3 6106   0.976   2.418   2.752 -0.8411 -0.1694 -0.7307
 1508SOL    MW4 6107   0.911   2.474   2.769 -0.3948  0.0875  0.1447
 1509SOL     OW 6108   0.874   2.678   2.598  0.2461 -0.1083 -0.0883
 1509SOL    HW2 6109   0.948   2.734   2.623  0.4641 -1.1129  1.5989
 1509SOL    HW3 6110   0.801   2.711   2.650 -0.3044  0.3364 -1.1270
 1509SOL    MW4 6111   0.874   2.690   2.608  0.2022 -0.1822 -0.0026
 1510SOL     OW 6112   1.083   2.832   2.714  0.0000  0.0000 -0.9017
 1510SOL    HW2 6113   1.106   2.825   2.806  0.0000  0.0000 -0.9038
 1510SOL    HW3 6114   1.158   2.795   2.668  0.0000  0.0000 -0.9095
 1510SOL    MW4 6115   1.096   2.826   2.720  0.0000  0.0000 -0.9031
 1511SOL     OW 6116   1.148   3.096   2.636  0.0000  0.0000 -0.1102
 1511SOL    HW2 6117   1.122   3.007   2.659  0.0000  0.0000 -0.1140
 1511SOL    HW3 6118   1.136   3.101   2.541  0.0000  0.0000 -0.1102
 1511SOL    MW4 6119   1.143   3.085   2.626  0.0000  0.0000 -0.1106
 1512SOL     OW 6120   0.919   3.208   2.726  0.0000  0.0000 -0.3724
 1512SOL    HW2 6121   0.903   3.287   2.674  0.0000  0.0000 -0.3807
 1512SOL    HW3 6122   1.006   3.179   2.697  0.0000  0.0000 -0.3635
 1512SOL    MW4 6123   0.928   3.215   2.715  0.0000  0.0000 -0.3722
 1513SOL     OW 6124   0.887   3.462   2.610  0.0000  0.0000  0.1877
 1513SOL    HW2 6125   0.960   3.508   2.651  0.0000  0.0000  0.1592
 1513SOL    HW3 6126   0.810   3.512   2.638  0.0000  0.0000  0.2211
 1513SOL    MW4 6127   0.887   3.475   2.619  0.0000  0.0000  0.1881
 1514SOL     OW 6128   1.102   3.599   2.688  0.0000  0.0000 -0.2055
 1514SOL    HW2 6129   1.101   3.626   2.780  0.0000  0.0000 -0.2066
 1514SOL    HW3 6130   1.100   3.681   2.639  0.0000  0.0000 -0.2089
 1514SOL    MW4 6131   1.102   3.613   2.694  0.0000  0.0000 -0.2062
 1515SOL     OW 6132   1.098   3.851   2.563  0.0000  0.0000  0.4037
 1515SOL    HW2 6133   1.178   3.889   2.601  0.0000  0.0000  0.4064
 1515SOL    HW3 6134   1.110   3.859   2.469  0.0000  0.0000  0.4043
 1515SOL    MW4 6135   1.110   3.857   2.556  0.0000  0.0000  0.4044
 1516SOL     OW 6136   0.893   4.008   2.697  0.0000  0.0000 -0.3831
 1516SOL    HW2 6137   0.958   3.963   2.642  0.0000  0.0000 -0.3813
 1516SOL    HW3 6138   0.809   3.969   2.671  0.0000  0.0000 -0.3889
 1516SOL    MW4 6139   0.890   3.997   2.686  0.0000  0.0000 -0.3836
 1517SOL     OW 6140   0.888   4.266   2.645  0.0000  0.0000 -0.0039
 1517SOL    HW2 6141   0.892   4.174   2.670  0.0000  0.0000 -0.0114
 1517SOL    HW3 6142   0.884   4.265   2.549  0.0000  0.0000 -0.0041
 1517SOL    MW4 6143   0.888   4.254   2.636  0.0000  0.0000 -0.0052
 1518SOL     OW 6144   1.144   4.351   2.730  0.0000  0.0000  0.1116
 1518SOL    HW2 6145   1.137   4.378   2.822  0.0000  0.0000  0.1112
 1518SOL    HW3 6146   1.055   4.327   2.705  0.0000  0.0000  0.1126
 1518SOL    MW4 6147   1.131   4.351   2.739  0.0000  0.0000  0.1118
 1519SOL     OW 6148   1.570   4.634   2.625 -0.1694  0.0296 -0.4423
 1519SOL    HW2 6149   1.570   4.541   2.648  0.6963  0.1093 -0.0654
 1519SOL    HW3 6150   1.593   4.636   2.532 -4.3314 -0.3306 -1.5503
 1519SOL    MW4 6151   1.573   4.622   2.616 -0.6043 -0.0072 -0.5388
 1520SOL     OW 6152   1.340   0.084   2.723  0.0969  0.3332 -0.5931
 1520SOL    HW2 6153   1.351   0.170   2.683  0.3254  0.0243 -1.2049
 1520SOL    HW3 6154   1.416   0.034   2.692  0.6021  0.2625  0.6931
 1520SOL    MW4 6155   1.352   0.089   2.714  0.1937  0.2831 -0.5043
 1521SOL     OW 6156   1.359   0.358   2.618 -0.1387 -0.6174 -0.2048
 1521SOL    HW2 6157   1.438   0.398   2.655  0.2990 -0.7644 -0.9494
 1521SOL    HW3 6158   1.286   0.406   2.657  0.3625  0.6079 -0.7424
 1521SOL    MW4 6159   1.360   0.369   2.628 -0.0149 -0.4751 -0.3741
 1522SOL     OW 6160   1.597   0.472   2.733 -0.6419  0.4503 -0.2024
 1522SOL    HW2 6161   1.661   0.420   2.685 -0.5240  0.7579 -0.3825
 1522SOL    HW3 6162   1.608   0.561   2.698 -1.5768  0.3916 -0.6740
 1522SOL    MW4 6163   1.607   0.477   2.722 -0.7497  0.4832 -0.2882
 1523SOL     OW 6164   1.614   0.744   2.649  0.2637 -0.0596  0.5113
 1523SOL    HW2 6165   1.535   0.784   2.684  0.7608  0.0737  1.4933
 1523SOL    HW3 6166   1.603   0.747   2.554 -1.0599 -0.3460  0.6468
 1523SOL    MW4 6167   1.602   0.749   2.641  0.1546 -0.0798  0.6588
 1524SOL     OW 6168   1.380   0.874   2.747  0.0022 -0.1899  0.4475
 1524SOL    HW2 6169   1.393   0.880   2.842 -0.5478  1.1820  0.4511
 1524SOL    HW3 6170   1.378   0.965   2.718  0.6516 -0.6174 -0.9528
 1524SOL    MW4 6171   1.381   0.887   2.756  0.0154 -0.0654  0.2632
 1525SOL     OW 6172   1.356   1.135   2.655 -0.0582 -0.4603 -0.2338
 1525SOL    HW2 6173   1.420   1.200   2.684  0.0395 -0.4479 -0.4806
 1525SOL    HW3 6174   1.272   1.169   2.685  0.0227 -0.3546 -0.1276
 1525SOL    MW4 6175   1.354   1.148   2.663 -0.0346 -0.4448 -0.2525
 1526SOL     OW 6176   1.554   1.340   2.748  0.1240 -0.2442  0.2584
 1526SOL    HW2 6177   1.545   1.320   2.842 -0.1031 -2.1456 -0.1500
 1526SOL    HW3 6178   1.630   1.289   2.720 -1.0554 -1.3275 -1.0321
 1526SOL    MW4 6179   1.563   1.331   2.757 -0.0615 -0.6380  0.0341
 1527SOL     OW 6180   1.512   1.580   2.617  0.2873  0.5164  0.4751
 1527SOL    HW2 6181   1.531   1.494   2.653 -1.8802 -0.5625 -0.8173
 1527SOL    HW3 6182   1.541   1.575   2.526  1.6961  1.7472  0.8283
 1527SOL    MW4 6183   1.518   1.568   2.610  0.1872  0.5364  0.3514
 1528SOL     OW 6184   1.294   1.712   2.725  0.0717 -0.4861  0.0537
 1528SOL    HW2 6185   1.380   1.674   2.705  0.1771 -0.7551  0.9843
 1528SOL    HW3 6186   1.232   1.649   2.688  0.2697 -0.1523 -0.8667
 1528SOL    MW4 6187   1.297   1.698   2.717  0.1117 -0.4776  0.0553
 1529SOL     OW 6188   1.300   1.981   2.632  0.4432 -0.0834  0.1265
 1529SOL    HW2 6189   1.286   1.894   2.669 -0.6459  0.2643  0.5442
 1529SOL    HW3 6190   1.319   1.966   2.539 -2.3851 -0.6034 -0.3905
 1529SOL    MW4 6191   1.301   1.968   2.625 -0.0736 -0.1062  0.1132
 1530SOL     OW 6192   1.550   2.060   2.723  0.2255 -0.7925  0.1378
 1530SOL    HW2 6193   1.619   2.012   2.679  0.1585 -0.3579 -0.4420
 1530SOL    HW3 6194   1.468   2.019   2.694  0.1665 -0.3140 -0.3850
 1530SOL    MW4 6195   1.548   2.048   2.714  0.2089 -0.6723 -0.0076
 1531SOL     OW 6196   1.523   2.323   2.596 -0.3490 -0.1974  0.5449
 1531SOL    HW2 6197   1.599   2.369   2.632 -1.0413  0.7263  0.8490
 1531SOL    HW3 6198   1.511   2.248   2.654 -1.4287  1.2545  2.2637
 1531SOL    MW4 6199   1.531   2.319   2.609 -0.5828  0.1161  0.8118
 1532SOL     OW 6200   1.299   2.449   2.733 -0.3173  0.0561  0.4170
 1532SOL    HW2 6201   1.286   2.532   2.686  0.6977  0.2248  0.4199
 1532SOL    HW3 6202   1.372   2.408   2.687 -1.5783 -1.3983 -0.3371
 1532SOL    MW4 6203   1.307   2.455   2.721 -0.3496 -0.1135  0.3176
 1533SOL     OW 6204   1.305   2.708   2.610 -0.7909 -0.0798  0.1120
 1533SOL    HW2 6205   1.386   2.755   2.630 -0.5768 -0.7648  0.8568
 1533SOL    HW3 6206   1.309   2.692   2.516  0.3224 -0.8283  0.2803
 1533SOL    MW4 6207   1.316   2.712   2.601 -0.6157 -0.2689  0.2327
 1534SOL     OW 6208   1.553   2.819   2.701  0.0657 -0.1351 -0.5271
 1534SOL    HW2 6209   1.554   2.817   2.796 -0.2302  0.6584 -0.5077
 1534SOL    HW3 6210   1.627   2.763   2.675  0.5574  0.1907  0.1667
 1534SOL    MW4 6211   1.563   2.811   2.710  0.0916  0.0124 -0.4332
 1535SOL     OW 6212   1.557   3.071   2.614 -0.0546  0.0328 -0.1240
 1535SOL    HW2 6213   1.617   3.120   2.670 -1.8743 -0.0348  1.9215
 1535SOL    HW3 6214   1.553   2.984   2.654 -2.1587  0.2866  0.2627
 1535SOL    MW4 6215   1.565   3.066   2.627 -0.5723  0.0572  0.1967
 1536SOL     OW 6216   1.348   3.230   2.765 -0.1984  0.2078 -0.1477
 1536SOL    HW2 6217   1.425   3.183   2.732  0.2601  1.3273 -0.6847
 1536SOL    HW3 6218   1.275   3.194   2.714  0.0607 -0.3976 -0.0910
 1536SOL    MW4 6219   1.348   3.219   2.754 -0.1038  0.2756 -0.2108
 1537SOL     OW 6220   1.343   3.458   2.630 -0.3952 -0.2394 -0.2619
 1537SOL    HW2 6221   1.350   3.378   2.682 -0.0356  0.1046  0.2241
 1537SOL    HW3 6222   1.258   3.496   2.655 -0.0689  0.1088  0.3512
 1537SOL    MW4 6223   1.333   3.453   2.640 -0.3048 -0.1481 -0.1168
 1538SOL     OW 6224   1.586   3.595   2.691  0.1684  0.1882 -0.5818
 1538SOL    HW2 6225   1.642   3.532   2.646  0.9848 -0.0330  0.7410
 1538SOL    HW3 6226   1.497   3.561   2.679  0.4839 -0.4791 -1.0368
 1538SOL    MW4 6227   1.581   3.582   2.683  0.3178  0.0708 -0.4673
 1539SOL     OW 6228   1.581   3.849   2.619 -0.6142  0.5569  0.2248
 1539SOL    HW2 6229   1.493   3.878   2.644 -0.4896  0.7115  0.4846
 1539SOL    HW3 6230   1.581   3.754   2.637 -0.6924  0.5761  0.3283
 1539SOL    MW4 6231   1.570   3.840   2.625 -0.6081  0.5801  0.2728
 1540SOL     OW 6232   1.331   3.963   2.670  0.1559 -0.4151 -0.3333
 1540SOL    HW2 6233   1.335   3.958   2.765  0.6952 -0.2115 -0.3456
 1540SOL    HW3 6234   1.330   4.056   2.650 -1.3298 -0.4438 -0.4756
 1540SOL    MW4 6235   1.331   3.975   2.680  0.0311 -0.3917 -0.3538
 1541SOL     OW 6236   1.360   4.228   2.591  0.3178  0.2811  0.1457
 1541SOL    HW2 6237   1.276   4.262   2.622 -0.4867 -0.1112 -1.5860
 1541SOL    HW3 6238   1.359   4.243   2.497  1.0234 -2.1987 -0.3022
 1541SOL    MW4 6239   1.349   4.234   2.583  0.3047 -0.0982 -0.1421
 1542SOL     OW 6240   1.566   4.370   2.680 -0.5696  0.0357 -0.1037
 1542SOL    HW2 6241   1.557   4.359   2.775  1.4788  0.4661  0.1647
 1542SOL    HW3 6242   1.496   4.316   2.643 -1.3041 -0.2483  1.6435
 1542SOL    MW4 6243   1.555   4.362   2.688 -0.3963  0.0553  0.1621
 1543SOL     OW 6244   1.989   4.645   2.608  0.2017  0.2368 -0.1099
 1543SOL    HW2 6245   2.078   4.668   2.632  0.0864 -0.2620  0.8110
 1543SOL    HW3 6246   1.996   4.609   2.519  0.8900  0.3454 -0.0980
 1543SOL    MW4 6247   2.001   4.643   2.599  0.2773  0.1850  0.0134
 1544SOL     OW 6248   1.797   0.094   2.760 -0.2691  0.3351  0.2542
 1544SOL    HW2 6249   1.872   0.056   2.714 -0.9030 -2.2720  1.2341
 1544SOL    HW3 6250   1.720   0.056   2.717 -0.9244  0.0360  1.6432
 1544SOL    MW4 6251   1.797   0.084   2.748 -0.4392 -0.0483  0.5670
 1545SOL     OW 6252   1.803   0.320   2.622  0.7094 -0.2292 -0.1222
 1545SOL    HW2 6253   1.878   0.368   2.657  0.3502 -0.7788  1.4730
 1545SOL    HW3 6254   1.808   0.234   2.664 -0.4505 -0.4777 -0.4715
 1545SOL    MW4 6255   1.814   0.315   2.632  0.5090 -0.3345  0.0422
 1546SOL     OW 6256   2.007   0.469   2.731  0.0966  0.2743 -0.3184
 1546SOL    HW2 6257   2.092   0.441   2.699  1.1157  0.6729  1.9513
 1546SOL    HW3 6258   2.006   0.564   2.718  0.0315  0.2787 -0.2838
 1546SOL    MW4 6259   2.018   0.478   2.725  0.2224  0.3274 -0.0145
 1547SOL     OW 6260   2.025   0.746   2.674  0.0238 -0.0115 -0.4489
 1547SOL    HW2 6261   1.948   0.797   2.701  1.3722  1.7360  0.2559
 1547SOL    HW3 6262   2.031   0.760   2.580  0.5340  1.4046 -0.2226
 1547SOL    MW4 6263   2.016   0.755   2.665  0.2689  0.4059 -0.3262
 1548SOL     OW 6264   1.814   0.904   2.729 -0.2249  0.1253  0.5729
 1548SOL    HW2 6265   1.789   0.995   2.715 -0.0458  0.2431  0.9982
 1548SOL    HW3 6266   1.736   0.854   2.705 -0.9247  0.4962  1.9842
 1548SOL    MW4 6267   1.800   0.909   2.724 -0.2936  0.1898  0.8154
 1549SOL     OW 6268   1.784   1.179   2.657  0.3184  0.3133 -0.1310
 1549SOL    HW2 6269   1.873   1.210   2.676  0.2215 -0.0550  0.9780
 1549SOL    HW3 6270   1.781   1.171   2.562  1.4032  0.5458 -0.1918
 1549SOL    MW4 6271   1.796   1.182   2.647  0.4488  0.2955  0.0074
 1550SOL     OW 6272   2.027   1.316   2.725 -0.1873  0.0873  0.2559
 1550SOL    HW2 6273   2.024   1.302   2.820  1.4893 -2.9065 -0.0629
 1550SOL    HW3 6274   2.104   1.267   2.696  0.4540  2.5589 -2.4353
 1550SOL    MW4 6275   2.037   1.307   2.734  0.1187  0.0185 -0.1414
 1551SOL     OW 6276   1.964   1.558   2.631 -0.1109 -0.1811 -0.2269
 1551SOL    HW2 6277   1.888   1.601   2.672 -1.0130 -1.3460 -0.6428
 1551SOL    HW3 6278   1.965   1.470   2.668  1.3859  0.0047  0.1793
 1551SOL    MW4 6279   1.954   1.552   2.641 -0.0324 -0.3104 -0.2279
 1552SOL     OW 6280   1.746   1.698   2.743 -0.3819  0.0228  0.1850
 1552SOL    HW2 6281   1.756   1.657   2.828 -0.1878  0.9582  0.6179
 1552SOL    HW3 6282   1.660   1.667   2.712 -0.3102 -0.5744  0.5650
 1552SOL    MW4 6283   1.736   1.688   2.750 -0.3468  0.0674  0.2923
 1553SOL     OW 6284   1.783   1.945   2.613 -0.0985 -0.0298 -0.1568
 1553SOL    HW2 6285   1.859   1.984   2.657 -0.2679  0.6072 -0.4331
 1553SOL    HW3 6286   1.766   1.865   2.662 -1.1421  1.3637  1.8134
 1553SOL    MW4 6287   1.791   1.939   2.625 -0.2586  0.2381  0.0668
 1554SOL     OW 6288   2.038   2.046   2.697 -0.1938 -0.1353 -0.1016
 1554SOL    HW2 6289   2.018   2.047   2.791 -0.6978  2.9579 -0.1643
 1554SOL    HW3 6290   2.015   2.134   2.667  0.6404 -0.8436 -2.9952
 1554SOL    MW4 6291   2.033   2.058   2.706 -0.1500  0.1795 -0.4914
 1555SOL     OW 6292   2.006   2.341   2.627  0.2543  0.1284 -0.3571
 1555SOL    HW2 6293   2.083   2.375   2.673 -1.0846  2.5557  0.1933
 1555SOL    HW3 6294   2.025   2.357   2.534  0.5774  0.3566 -0.2557
 1555SOL    MW4 6295   2.019   2.347   2.621  0.1202  0.4790 -0.2708
 1556SOL     OW 6296   1.751   2.409   2.721 -0.0188 -0.3718  0.0224
 1556SOL    HW2 6297   1.758   2.411   2.816  0.5748  0.2151 -0.0269
 1556SOL    HW3 6298   1.835   2.373   2.691  0.1665  0.3230 -0.3130
 1556SOL    MW4 6299   1.763   2.404   2.729  0.0839 -0.2027 -0.0281
 1557SOL     OW 6300   1.787   2.681   2.651 -0.2127 -0.2608 -0.1847
 1557SOL    HW2 6301   1.787   2.590   2.683 -1.6518  0.1276  0.9846
 1557SOL    HW3 6302   1.862   2.721   2.695 -1.1856 -0.1835  1.4742
 1557SOL    MW4 6303   1.797   2.674   2.661 -0.5310 -0.1993  0.1884
 1558SOL     OW 6304   2.027   2.787   2.749  0.3091  0.1884  0.0179
 1558SOL    HW2 6305   2.110   2.748   2.722  0.3240 -0.3715  0.8459
 1558SOL    HW3 6306   2.032   2.789   2.845 -1.0244 -0.7309  0.1192
 1558SOL    MW4 6307   2.039   2.782   2.758  0.1352 -0.0069  0.1407
 1559SOL     OW 6308   1.975   3.064   2.650  0.4150 -0.2603  0.4478
 1559SOL    HW2 6309   1.968   2.972   2.672 -0.4294 -0.2541  0.1903
 1559SOL    HW3 6310   1.984   3.066   2.555 -0.0238 -0.0455  0.4118
 1559SOL    MW4 6311   1.976   3.052   2.641  0.2458 -0.2313  0.4091
 1560SOL     OW 6312   1.781   3.218   2.742 -0.5974  0.1800  0.3891
 1560SOL    HW2 6313   1.784   3.289   2.678 -0.0801  0.5875  0.8570
 1560SOL    HW3 6314   1.845   3.154   2.711 -0.7269  0.1354  0.2165
 1560SOL    MW4 6315   1.790   3.219   2.730 -0.5462  0.2279  0.4277
 1561SOL     OW 6316   1.782   3.457   2.598  0.1896 -0.0730 -0.2230
 1561SOL    HW2 6317   1.852   3.499   2.648  0.5345 -1.2640  0.3105
 1561SOL    HW3 6318   1.807   3.470   2.506  0.7469  0.0930 -0.0477
 1561SOL    MW4 6319   1.794   3.465   2.592  0.3084 -0.2081 -0.1295
 1562SOL     OW 6320   1.983   3.578   2.734  0.0685  0.5343 -0.3280
 1562SOL    HW2 6321   1.999   3.585   2.828  0.6223  0.6432 -0.4251
 1562SOL    HW3 6322   2.062   3.536   2.700 -1.4368 -2.4223 -0.3244
 1562SOL    MW4 6323   1.996   3.574   2.742 -0.0571  0.1585 -0.3402
 1563SOL     OW 6324   2.007   3.843   2.594  0.5019 -0.2202 -0.0118
 1563SOL    HW2 6325   2.009   3.767   2.652 -0.5565  0.4543  0.9442
 1563SOL    HW3 6326   2.083   3.895   2.619  0.0691  0.0485  0.7596
 1563SOL    MW4 6327   2.017   3.840   2.605  0.3052 -0.0961  0.2160
 1564SOL     OW 6328   1.804   3.987   2.731  0.5756  0.2142 -0.2836
 1564SOL    HW2 6329   1.884   3.950   2.694 -0.0585 -1.6438  0.1526
 1564SOL    HW3 6330   1.733   3.933   2.694 -0.4590  1.6237 -0.4130
 1564SOL    MW4 6331   1.805   3.975   2.721  0.3554  0.1550 -0.2432
 1565SOL     OW 6332   1.785   4.226   2.590  0.2324 -0.1725  0.4196
 1565SOL    HW2 6333   1.714   4.273   2.633 -0.9411 -0.2516 -1.3878
 1565SOL    HW3 6334   1.790   4.143   2.637 -1.2712 -0.4105  0.1942
 1565SOL    MW4 6335   1.776   4.221   2.602 -0.1208 -0.2141  0.1516
 1566SOL     OW 6336   1.989   4.366   2.712 -0.1268  0.6891  0.0835
 1566SOL    HW2 6337   1.922   4.319   2.662 -0.1384 -1.0904  1.6764
 1566SOL    HW3 6338   1.972   4.458   2.694 -0.3046  0.1223 -2.9038
 1566SOL    MW4 6339   1.978   4.372   2.703 -0.1518  0.3796 -0.1004
 1567SOL     OW 6340   2.468   4.637   2.623  0.6170 -0.4274 -0.3574
 1567SOL    HW2 6341   2.532   4.702   2.655 -1.5459  0.8249  1.5149
 1567SOL    HW3 6342   2.480   4.639   2.528  2.0591  1.1922 -0.1904
 1567SOL    MW4 6343   2.478   4.646   2.614  0.5219 -0.0482 -0.0882
 1568SOL     OW 6344   2.227   0.082   2.700 -0.3419  0.1882 -0.2785
 1568SOL    HW2 6345   2.238   0.089   2.795 -1.5880 -1.3242 -0.0058
 1568SOL    HW3 6346   2.308   0.041   2.670  0.0338  0.6190  0.1227
 1568SOL    MW4 6347   2.239   0.077   2.709 -0.4570  0.0455 -0.1895
 1569SOL     OW 6348   2.244   0.363   2.628 -0.7296  0.0163  0.0047
 1569SOL    HW2 6349   2.245   0.271   2.655 -1.2974  0.0493  0.1441
 1569SOL    HW3 6350   2.235   0.360   2.533 -0.2899 -0.0796 -0.0330
 1569SOL    MW4 6351   2.243   0.350   2.619 -0.7465  0.0080  0.0181
 1570SOL     OW 6352   2.467   0.484   2.744  0.0270  0.3613 -0.1395
 1570SOL    HW2 6353   2.460   0.576   2.719  0.2088  0.4624  0.1746
 1570SOL    HW3 6354   2.378   0.450   2.737 -0.2739  0.8879  1.0118
 1570SOL    MW4 6355   2.455   0.492   2.740  0.0117  0.4441  0.0536
 1571SOL     OW 6356   2.478   0.736   2.648  0.2645  0.6172  0.5276
 1571SOL    HW2 6357   2.415   0.803   2.677 -1.5479 -0.9541  0.3713
 1571SOL    HW3 6358   2.466   0.732   2.553  0.8704  0.5870  0.4559
 1571SOL    MW4 6359   2.468   0.744   2.639  0.1054  0.4060  0.4976
 1572SOL     OW 6360   2.251   0.890   2.721 -0.7780  0.0844 -0.2601
 1572SOL    HW2 6361   2.250   0.895   2.817 -0.9568 -1.3745 -0.1756
 1572SOL    HW3 6362   2.195   0.815   2.700  1.0578 -1.0080 -1.4036
 1572SOL    MW4 6363   2.244   0.881   2.731 -0.5593 -0.2523 -0.3998
 1573SOL     OW 6364   2.227   1.149   2.641  0.3359 -0.1864 -0.1553
 1573SOL    HW2 6365   2.231   1.057   2.667  0.0829 -0.4971 -1.1974
 1573SOL    HW3 6366   2.245   1.148   2.547  2.0029  0.9952  0.1249
 1573SOL    MW4 6367   2.230   1.137   2.632  0.5224 -0.0714 -0.2558
 1574SOL     OW 6368   2.455   1.303   2.707 -0.1472 -0.2825 -0.0089
 1574SOL    HW2 6369   2.536   1.259   2.681 -0.2505 -1.2408  1.2418
 1574SOL    HW3 6370   2.386   1.243   2.677 -0.3371 -0.2880  0.4441
 1574SOL    MW4 6371   2.457   1.289   2.699 -0.1857 -0.4097  0.2158
 1575SOL     OW 6372   2.474   1.569   2.650  0.2027  0.2456  0.1592
 1575SOL    HW2 6373   2.388   1.612   2.657  0.0843  0.0100  0.1397
 1575SOL    HW3 6374   2.457   1.478   2.673  0.2311 -0.0564 -1.0085
 1575SOL    MW4 6375   2.461   1.563   2.654  0.1907  0.1746  0.0024
 1576SOL     OW 6376   2.218   1.661   2.702  0.5580  0.3772  0.6985
 1576SOL    HW2 6377   2.220   1.756   2.689  2.3938  0.5580  1.9282
 1576SOL    HW3 6378   2.134   1.633   2.668 -0.0408  2.4714  0.3909
 1576SOL    MW4 6379   2.207   1.670   2.696  0.7210  0.6773  0.8204
 1577SOL     OW 6380   2.267   1.918   2.621 -0.0568  0.0754 -0.1563
 1577SOL    HW2 6381   2.196   1.978   2.640  0.4297  0.8781 -0.8554
 1577SOL    HW3 6382   2.267   1.908   2.526 -0.3865 -1.3498 -0.0219
 1577SOL    MW4 6383   2.258   1.925   2.611 -0.0362 -0.0069 -0.2310
 1578SOL     OW 6384   2.472   2.073   2.708  0.4627 -0.1881 -0.1720
 1578SOL    HW2 6385   2.463   2.154   2.657 -0.6076  0.5094  1.0978
 1578SOL    HW3 6386   2.408   2.013   2.670 -0.2493  0.2928  0.2463
 1578SOL    MW4 6387   2.462   2.076   2.696  0.2279 -0.0327  0.0508
 1579SOL     OW 6388   2.437   2.310   2.604 -0.6938 -0.3124 -0.0250
 1579SOL    HW2 6389   2.500   2.376   2.631  0.9167 -1.8084 -0.0583
 1579SOL    HW3 6390   2.448   2.304   2.509 -2.2711  0.7951 -0.3028
 1579SOL    MW4 6391   2.447   2.318   2.595 -0.6893 -0.3638 -0.0663
 1580SOL     OW 6392   2.252   2.442   2.745  0.3203 -0.0803 -0.0742
 1580SOL    HW2 6393   2.257   2.425   2.839 -0.1241 -0.6682 -0.1554
 1580SOL    HW3 6394   2.325   2.394   2.707  1.3793  1.3330  0.1252
 1580SOL    MW4 6395   2.262   2.434   2.752  0.4013  0.0284 -0.0589
 1581SOL     OW 6396   2.242   2.695   2.616  0.3674  0.8290 -0.1687
 1581SOL    HW2 6397   2.315   2.752   2.639  0.5961  0.7468 -0.6909
 1581SOL    HW3 6398   2.267   2.609   2.651  0.2060  0.9530  0.2594
 1581SOL    MW4 6399   2.255   2.691   2.624  0.3765  0.8342 -0.1812
 1582SOL     OW 6400   2.450   2.854   2.725  0.3499 -0.4711  0.4518
 1582SOL    HW2 6401   2.529   2.816   2.687 -0.6697 -1.4687 -0.7031
 1582SOL    HW3 6402   2.449   2.945   2.693  0.4777 -0.7665 -0.3979
 1582SOL    MW4 6403   2.460   2.861   2.715  0.2325 -0.6418  0.1876
 1583SOL     OW 6404   2.435   3.111   2.648  0.1676  0.4618 -0.0710
 1583SOL    HW2 6405   2.352   3.136   2.690  1.4796  0.7758  2.4691
 1583SOL    HW3 6406   2.462   3.190   2.601  0.9356  1.7301  2.3732
 1583SOL    MW4 6407   2.428   3.125   2.647  0.4423  0.6709  0.5867
 1584SOL     OW 6408   2.201   3.204   2.727 -0.3730 -0.1232  0.1326
 1584SOL    HW2 6409   2.197   3.206   2.823  0.6482 -1.5886  0.2150
 1584SOL    HW3 6410   2.120   3.161   2.700  0.4452 -1.9052  0.4554
 1584SOL    MW4 6411   2.190   3.199   2.736 -0.1304 -0.5517  0.1860
 1585SOL     OW 6412   2.202   3.463   2.622  0.1273  0.5516 -0.1418
 1585SOL    HW2 6413   2.287   3.501   2.646  0.0539  0.5376  0.1442
 1585SOL    HW3 6414   2.203   3.377   2.664  0.8247 -0.2832 -1.8485
 1585SOL    MW4 6415   2.214   3.457   2.631  0.2100  0.4396 -0.3295
 1586SOL     OW 6416   2.430   3.583   2.715  0.2599  0.0586  0.1761
 1586SOL    HW2 6417   2.438   3.598   2.810 -0.9624  0.0910  0.2843
 1586SOL    HW3 6418   2.441   3.670   2.677  0.4262  0.0958  0.3034
 1586SOL    MW4 6419   2.433   3.597   2.723  0.1206  0.0677  0.2072
 1587SOL     OW 6420   2.451   3.835   2.595 -0.3442  0.4886 -0.2971
 1587SOL    HW2 6421   2.533   3.865   2.635 -0.6575 -0.2938  0.9401
 1587SOL    HW3 6422   2.383   3.888   2.636 -0.6460 -0.1706  0.0567
 1587SOL    MW4 6423   2.453   3.846   2.605 -0.4253  0.2987 -0.0870
 1588SOL     OW 6424   2.222   3.976   2.712  0.5807 -0.2135 -0.0375
 1588SOL    HW2 6425   2.230   3.974   2.808 -0.9941 -0.3171  0.1086
 1588SOL    HW3 6426   2.234   4.069   2.690  2.4207 -0.4037  0.1049
 1588SOL    MW4 6427   2.224   3.988   2.722  0.6156 -0.2522  0.0005
 1589SOL     OW 6428   2.215   4.236   2.620  0.0047 -0.3617  0.3896
 1589SOL    HW2 6429   2.290   4.286   2.653 -0.4571 -0.2432  1.2899
 1589SOL    HW3 6430   2.139   4.285   2.650 -0.4375 -0.7886 -0.0295
 1589SOL    MW4 6431   2.215   4.249   2.628 -0.1147 -0.4020  0.4530
 1590SOL     OW 6432   2.466   4.353   2.685  0.0818  0.2595  0.3853
 1590SOL    HW2 6433   2.461   4.447   2.669  0.8310  0.3929  0.8766
 1590SOL    HW3 6434   2.461   4.344   2.780 -0.0658 -0.2005  0.3384
 1590SOL    MW4 6435   2.465   4.364   2.696  0.1612  0.2160  0.4439
 1591SOL     OW 6436   2.918   0.027   2.625 -0.2115 -0.4629  0.2000
 1591SOL    HW2 6437   3.002   0.057   2.660 -0.9951  1.1769  0.7287
 1591SOL    HW3 6438   2.931   0.020   2.531 -0.0416  1.7094  0.0498
 1591SOL    MW4 6439   2.931   0.030   2.617 -0.2923  0.0401  0.2499
 1592SOL     OW 6440   2.664   0.143   2.738  0.2402  0.0417  0.3516
 1592SOL    HW2 6441   2.657   0.151   2.833 -0.0908  1.6456  0.2128
 1592SOL    HW3 6442   2.751   0.106   2.724  1.8175  3.2397  1.1714
 1592SOL    MW4 6443   2.675   0.139   2.749  0.4048  0.6752  0.4413
 1593SOL     OW 6444   2.683   0.379   2.612 -0.2397 -0.5322 -0.2826
 1593SOL    HW2 6445   2.680   0.288   2.642 -0.4905 -0.8316 -1.2200
 1593SOL    HW3 6446   2.605   0.420   2.650 -0.3817 -0.8248 -0.2595
 1593SOL    MW4 6447   2.673   0.373   2.621 -0.2918 -0.6103 -0.4032
 1594SOL     OW 6448   2.930   0.476   2.710 -0.2783  0.0281  0.2215
 1594SOL    HW2 6449   2.927   0.571   2.699  0.1658  0.0664  0.4234
 1594SOL    HW3 6450   2.848   0.445   2.671 -0.0296  0.4132 -0.6282
 1594SOL    MW4 6451   2.919   0.485   2.703 -0.1872  0.0840  0.1361
 1595SOL     OW 6452   2.907   0.740   2.628  0.7318  0.2755 -0.3170
 1595SOL    HW2 6453   2.986   0.783   2.659  0.7280  0.8174 -1.0710
 1595SOL    HW3 6454   2.836   0.796   2.659  0.7069  0.5682 -0.9119
 1595SOL    MW4 6455   2.908   0.753   2.636  0.7281  0.3856 -0.4950
 1596SOL     OW 6456   2.701   0.889   2.706  0.1061 -0.8063 -0.0681
 1596SOL    HW2 6457   2.713   0.888   2.801 -1.1211  2.2319  0.1504
 1596SOL    HW3 6458   2.626   0.831   2.691  0.2524 -1.2354  0.7920
 1596SOL    MW4 6459   2.693   0.881   2.716 -0.0365 -0.4621  0.0741
 1597SOL     OW 6460   2.680   1.156   2.646  0.2759  0.2026  0.1306
 1597SOL    HW2 6461   2.748   1.205   2.692 -0.1704  0.5324  0.4491
 1597SOL    HW3 6462   2.702   1.064   2.661  0.2643  0.3088  0.8003
 1597SOL    MW4 6463   2.692   1.151   2.654  0.2153  0.2601  0.2608
 1598SOL     OW 6464   2.900   1.302   2.742 -0.2472  0.2981  0.9720
 1598SOL    HW2 6465   2.911   1.290   2.836  1.6450 -0.0720  0.7382
 1598SOL    HW3 6466   2.972   1.252   2.703 -0.0388  1.7361 -0.5827
 1598SOL    MW4 6467   2.911   1.294   2.749  0.0298  0.4389  0.7360
 1599SOL     OW 6468   2.926   1.571   2.683 -0.0352  0.2049  0.3715
 1599SOL    HW2 6469   2.838   1.605   2.700  0.1565  0.0227  1.7352
 1599SOL    HW3 6470   2.924   1.482   2.717  0.3732 -0.1637 -0.5472
 1599SOL    MW4 6471   2.914   1.564   2.690  0.0441  0.1321  0.4303
 1600SOL     OW 6472   2.694   1.699   2.760 -0.8526 -0.4225 -0.1872
 1600SOL    HW2 6473   2.708   1.702   2.855  0.4956 -1.4573 -0.3334
 1600SOL    HW3 6474   2.609   1.655   2.751 -0.7600 -0.7747  0.5316
 1600SOL    MW4 6475   2.685   1.694   2.772 -0.6628 -0.6053 -0.1116
 1601SOL     OW 6476   2.719   1.959   2.642 -0.4919  0.6983 -0.4647
 1601SOL    HW2 6477   2.729   1.883   2.699  1.5939  0.9977 -0.4061
 1601SOL    HW3 6478   2.640   2.002   2.674 -0.9056 -0.6526  0.4103
 1601SOL    MW4 6479   2.710   1.954   2.654 -0.2713  0.5597 -0.3417
 1602SOL     OW 6480   2.929   2.121   2.698  0.3844  0.2772 -0.0245
 1602SOL    HW2 6481   2.914   2.211   2.668  0.7386  0.1486 -0.5752
 1602SOL    HW3 6482   2.849   2.074   2.674  0.7978  0.0951 -1.0713
 1602SOL    MW4 6483   2.916   2.127   2.691  0.4859  0.2363 -0.2351
 1603SOL     OW 6484   2.875   2.359   2.588  0.1429 -0.4435 -0.3664
 1603SOL    HW2 6485   2.939   2.427   2.613 -0.5415 -0.1764  0.7100
 1603SOL    HW3 6486   2.792   2.390   2.624 -0.3142 -1.5044 -0.4873
 1603SOL    MW4 6487   2.873   2.372   2.596 -0.0079 -0.5484 -0.2403
 1604SOL     OW 6488   2.640   2.486   2.686  0.2757 -0.4854  0.7549
 1604SOL    HW2 6489   2.668   2.499   2.776 -1.2949  1.3171  1.0020
 1604SOL    HW3 6490   2.656   2.570   2.643  0.4731 -1.1569 -0.5062
 1604SOL    MW4 6491   2.646   2.498   2.692  0.0947 -0.3359  0.6211
 1605SOL     OW 6492   2.672   2.734   2.580 -0.1010 -0.2158  0.6306
 1605SOL    HW2 6493   2.738   2.801   2.598 -0.4640  0.2862  0.1394
 1605SOL    HW3 6494   2.689   2.708   2.489 -0.5564 -0.1092  0.5135
 1605SOL    MW4 6495   2.683   2.739   2.570 -0.2086 -0.1357  0.5503
 1606SOL     OW 6496   2.878   2.895   2.710  0.3964  0.6502 -0.4225
 1606SOL    HW2 6497   2.865   2.889   2.804  1.4882 -0.6949 -0.3452
 1606SOL    HW3 6498   2.884   2.989   2.692 -0.0234  0.9169  0.8098
 1606SOL    MW4 6499   2.877   2.906   2.720  0.4852  0.5078 -0.2499
 1607SOL     OW 6500   2.921   3.141   2.611  0.1857  0.3294  0.3297
 1607SOL    HW2 6501   2.863   3.211   2.643 -0.8214 -0.6398  0.6672
 1607SOL    HW3 6502   2.892   3.126   2.520  1.9200  1.9099 -0.5247
 1607SOL    MW4 6503   2.909   3.149   2.603  0.2816  0.4101  0.2615
 1608SOL     OW 6504   2.744   3.332   2.713  0.1863 -0.2326 -0.0590
 1608SOL    HW2 6505   2.795   3.413   2.723 -0.9227  0.2524  1.8067
 1608SOL    HW3 6506   2.672   3.356   2.654 -1.5767  0.8651  2.4525
 1608SOL    MW4 6507   2.741   3.346   2.706 -0.1926 -0.0236  0.5183
 1609SOL     OW 6508   2.518   3.363   2.546  0.1176  0.2607 -0.2196
 1609SOL    HW2 6509   2.483   3.439   2.593  0.0717  0.2422 -0.2240
 1609SOL    HW3 6510   2.557   3.400   2.467 -0.6521  0.1988 -0.6389
 1609SOL    MW4 6511   2.518   3.378   2.541  0.0098  0.2503 -0.2756
 1610SOL     OW 6512   2.885   3.564   2.710 -0.4043  0.1448  0.0566
 1610SOL    HW2 6513   2.888   3.591   2.802  0.0032 -0.8456  0.3341
 1610SOL    HW3 6514   2.973   3.531   2.691 -0.2161  1.2209 -0.9592
 1610SOL    MW4 6515   2.897   3.563   2.720 -0.3254  0.1562 -0.0408
 1611SOL     OW 6516   2.866   3.836   2.610 -0.1997  0.1260  0.5747
 1611SOL    HW2 6517   2.949   3.868   2.645  0.9450 -0.6471 -1.3669
 1611SOL    HW3 6518   2.860   3.746   2.641 -0.1380  0.0627  0.4006
 1611SOL    MW4 6519   2.876   3.829   2.619 -0.0408  0.0157  0.2956
 1612SOL     OW 6520   2.651   3.967   2.709  1.0424 -0.1888 -0.1210
 1612SOL    HW2 6521   2.665   4.061   2.701 -0.9130  0.1626  0.2918
 1612SOL    HW3 6522   2.722   3.927   2.658  0.3602  1.5447 -2.5117
 1612SOL    MW4 6523   2.662   3.974   2.701  0.6945  0.0863 -0.3822
 1613SOL     OW 6524   2.714   4.239   2.640 -0.0236  0.2107  0.0036
 1613SOL    HW2 6525   2.783   4.300   2.668 -0.6444  1.2331 -0.6772
 1613SOL    HW3 6526   2.633   4.288   2.651 -0.4817 -0.2879 -1.1448
 1613SOL    MW4 6527   2.713   4.253   2.645 -0.1662  0.2799 -0.2379
 1614SOL     OW 6528   2.915   4.415   2.697 -0.1596  0.1709 -0.5943
 1614SOL    HW2 6529   2.930   4.422   2.791 -0.3950 -0.2847 -0.5181
 1614SOL    HW3 6530   2.938   4.500   2.662 -0.1123  0.3554 -0.1148
 1614SOL    MW4 6531   2.920   4.427   2.705 -0.1845  0.1354 -0.5209
 1615SOL     OW 6532   3.362   4.635   2.579 -0.5753  0.3031  0.1525
 1615SOL    HW2 6533   3.361   4.546   2.615  0.1986  0.2333  0.0101
 1615SOL    HW3 6534   3.290   4.680   2.624 -0.4484 -0.1604  0.8201
 1615SOL    MW4 6535   3.352   4.629   2.590 -0.4563  0.2332  0.2220
 1616SOL     OW 6536   3.159   0.117   2.737  0.0583 -0.1378  0.1057
 1616SOL    HW2 6537   3.135   0.126   2.830 -0.9678  1.2204 -0.2832
 1616SOL    HW3 6538   3.150   0.205   2.701 -1.3355 -0.9883 -1.7115
 1616SOL    MW4 6539   3.155   0.130   2.745 -0.2611 -0.0709 -0.1855
 1617SOL     OW 6540   3.162   0.381   2.601 -0.1534 -0.2667 -0.9757
 1617SOL    HW2 6541   3.078   0.412   2.635  0.4008  0.2498 -0.0581
 1617SOL    HW3 6542   3.151   0.379   2.506 -1.6304 -1.4413 -0.7812
 1617SOL    MW4 6543   3.150   0.385   2.593 -0.2754 -0.3535 -0.8292
 1618SOL     OW 6544   3.364   0.535   2.740  0.2911 -0.2060  0.2972
 1618SOL    HW2 6545   3.350   0.618   2.693  0.7125 -0.1773  0.2179
 1618SOL    HW3 6546   3.296   0.477   2.707  0.0048  0.1019  0.3360
 1618SOL    MW4 6547   3.353   0.538   2.729  0.3088 -0.1616  0.2918
 1619SOL     OW 6548   3.357   0.788   2.641  0.1209 -0.0040  0.0346
 1619SOL    HW2 6549   3.440   0.831   2.661  0.6535 -1.1258  0.2806
 1619SOL    HW3 6550   3.364   0.764   2.549 -0.1355  0.3483 -0.0767
 1619SOL    MW4 6551   3.368   0.790   2.631  0.1574 -0.1055  0.0525
 1620SOL     OW 6552   3.122   0.910   2.745 -0.0986  0.7128 -0.1973
 1620SOL    HW2 6553   3.116   0.907   2.841 -1.0987  1.2489 -0.2344
 1620SOL    HW3 6554   3.194   0.850   2.724 -0.1358  0.2766  0.8584
 1620SOL    MW4 6555   3.131   0.902   2.755 -0.2356  0.7260 -0.0629
 1621SOL     OW 6556   3.126   1.152   2.633 -0.3230 -0.1295 -0.4898
 1621SOL    HW2 6557   3.139   1.067   2.675 -2.3046  0.4264  1.3035
 1621SOL    HW3 6558   3.128   1.133   2.539  0.5230 -1.9473 -0.1204
 1621SOL    MW4 6559   3.128   1.138   2.626 -0.4728 -0.2961 -0.2046
 1622SOL     OW 6560   3.345   1.291   2.697  0.0413 -0.2949  0.1222
 1622SOL    HW2 6561   3.353   1.291   2.792 -1.1289 -0.3000  0.2322
 1622SOL    HW3 6562   3.265   1.241   2.680 -0.5059  0.8555 -0.7878
 1622SOL    MW4 6563   3.335   1.284   2.707 -0.1855 -0.1438  0.0167
 1623SOL     OW 6564   3.308   1.549   2.591  0.0135  0.2342 -0.1098
 1623SOL    HW2 6565   3.243   1.599   2.641  0.3697  0.9898 -0.3995
 1623SOL    HW3 6566   3.315   1.466   2.638  2.0864  1.8262  2.5416
 1623SOL    MW4 6567   3.301   1.545   2.604  0.3340  0.5440  0.2019
 1624SOL     OW 6568   3.160   1.752   2.714  0.0861 -0.3957  0.3371
 1624SOL    HW2 6569   3.144   1.836   2.671 -0.5316 -1.2030 -1.0293
 1624SOL    HW3 6570   3.077   1.705   2.707  0.4138 -1.1190  1.1371
 1624SOL    MW4 6571   3.147   1.757   2.708  0.0479 -0.5976  0.2625
 1625SOL     OW 6572   3.157   1.996   2.596 -0.2786 -0.2434  0.1879
 1625SOL    HW2 6573   3.233   2.023   2.647  0.7085 -0.5654 -1.1027
 1625SOL    HW3 6574   3.085   2.048   2.632  0.9231  1.5721  0.0330
 1625SOL    MW4 6575   3.157   2.006   2.608  0.0103 -0.0463 -0.0029
 1626SOL     OW 6576   3.377   2.107   2.726  0.2135  0.1433  0.0054
 1626SOL    HW2 6577   3.365   2.127   2.819 -0.1163 -1.0825  0.2350
 1626SOL    HW3 6578   3.361   2.190   2.682 -1.5357  0.3273  0.9187
 1626SOL    MW4 6579   3.373   2.120   2.732 -0.0610  0.0057  0.1559
 1627SOL     OW 6580   3.349   2.339   2.608 -0.0234 -0.0066 -0.0863
 1627SOL    HW2 6581   3.426   2.381   2.648 -1.1779  2.8012 -0.6654
 1627SOL    HW3 6582   3.366   2.345   2.514 -1.0399  0.7925 -0.2163
 1627SOL    MW4 6583   3.362   2.345   2.601 -0.3097  0.4694 -0.1798
 1628SOL     OW 6584   3.131   2.483   2.711  0.0758  0.1514 -0.0785
 1628SOL    HW2 6585   3.137   2.576   2.690  0.3350  0.5009  1.4989
 1628SOL    HW3 6586   3.197   2.442   2.654  0.0896  0.9441 -0.6451
 1628SOL    MW4 6587   3.141   2.489   2.700  0.1118  0.3021  0.0548
 1629SOL     OW 6588   3.102   2.768   2.635  0.1764 -0.1486  0.2624
 1629SOL    HW2 6589   3.178   2.822   2.658 -0.2743  0.5055  0.2164
 1629SOL    HW3 6590   3.028   2.813   2.674 -0.0650 -1.3982  1.2908
 1629SOL    MW4 6591   3.103   2.781   2.643  0.0849 -0.2270  0.3922
 1630SOL     OW 6592   3.362   2.867   2.711 -0.1525  0.0829  0.2396
 1630SOL    HW2 6593   3.354   2.851   2.805  0.4835 -1.3972  0.0581
 1630SOL    HW3 6594   3.432   2.808   2.682 -0.3105  0.5519 -1.1502
 1630SOL    MW4 6595   3.370   2.857   2.719 -0.0894 -0.0505  0.0322
 1631SOL     OW 6596   3.405   3.109   2.574  0.3316  0.1941  0.3972
 1631SOL    HW2 6597   3.384   3.029   2.621 -0.9491 -0.0108 -0.4987
 1631SOL    HW3 6598   3.389   3.088   2.482 -0.3286  1.5777  0.1879
 1631SOL    MW4 6599   3.400   3.096   2.568  0.0751  0.3500  0.2515
 1632SOL     OW 6600   3.165   3.180   2.705 -0.4352 -0.2034 -0.1512
 1632SOL    HW2 6601   3.236   3.172   2.641 -0.9208 -1.5294 -0.5293
 1632SOL    HW3 6602   3.086   3.162   2.655 -0.8352 -1.0514  0.7791
 1632SOL    MW4 6603   3.164   3.177   2.690 -0.5522 -0.4904 -0.0784
 1633SOL     OW 6604   3.123   3.441   2.632 -0.3099 -0.1547  0.5746
 1633SOL    HW2 6605   3.196   3.494   2.662 -1.6599  1.4848  1.0584
 1633SOL    HW3 6606   3.139   3.354   2.669  0.8272  0.4642  1.5434
 1633SOL    MW4 6607   3.135   3.436   2.641 -0.3381  0.1433  0.7663
 1634SOL     OW 6608   3.325   3.616   2.720  0.3671 -0.2995 -0.6528
 1634SOL    HW2 6609   3.320   3.620   2.816 -0.7343 -0.2874 -0.7048
 1634SOL    HW3 6610   3.333   3.707   2.693 -0.6763 -0.1950 -0.6326
 1634SOL    MW4 6611   3.326   3.628   2.729  0.0842 -0.2842 -0.6571
 1635SOL     OW 6612   3.319   3.870   2.637  0.2177  0.2056  0.4433
 1635SOL    HW2 6613   3.402   3.905   2.670  0.6484 -0.7502  0.4067
 1635SOL    HW3 6614   3.326   3.877   2.542  0.9901 -1.4563  0.3586
 1635SOL    MW4 6615   3.331   3.875   2.629  0.3765 -0.1397  0.4272
 1636SOL     OW 6616   3.072   3.981   2.737 -0.3016  0.7149 -0.1347
 1636SOL    HW2 6617   3.086   4.071   2.707 -0.6826  0.9003  0.2497
 1636SOL    HW3 6618   3.149   3.933   2.705  0.3687  1.3746  0.4761
 1636SOL    MW4 6619   3.084   3.986   2.728 -0.2635  0.8266 -0.0033
 1637SOL     OW 6620   3.130   4.226   2.610 -0.5764  0.1116  0.0327
 1637SOL    HW2 6621   3.065   4.294   2.626  0.1447  0.8146 -0.0174
 1637SOL    HW3 6622   3.129   4.214   2.515  1.1514  1.9134 -0.2420
 1637SOL    MW4 6623   3.121   4.233   2.599 -0.2534  0.4416 -0.0100
 1638SOL     OW 6624   3.352   4.397   2.716 -0.1180 -0.3308 -0.2164
 1638SOL    HW2 6625   3.337   4.419   2.808  0.1605  2.0757 -0.6933
 1638SOL    HW3 6626   3.282   4.336   2.694  0.9814 -2.5369  2.1049
 1638SOL    MW4 6627   3.341   4.392   2.725  0.0641 -0.3042  0.0269
 1639SOL     OW 6628   3.786   0.002   2.615 -0.3064  0.0370 -0.1299
 1639SOL    HW2 6629   3.780  -0.081   2.662 -1.2727 -0.5325 -1.2151
 1639SOL    HW3 6630   3.710   0.052   2.644 -1.7979 -0.9365 -2.1860
 1639SOL    MW4 6631   3.775  -0.002   2.625 -0.6306 -0.1665 -0.5443
 1640SOL     OW 6632   3.551   0.121   2.706  0.1461 -0.2595  0.3047
 1640SOL    HW2 6633   3.550   0.209   2.669  0.7589  0.6668  2.4778
 1640SOL    HW3 6634   3.477   0.077   2.663 -0.1747  1.2862 -0.7747
 1640SOL    MW4 6635   3.541   0.126   2.695  0.1843  0.0667  0.4487
 1641SOL     OW 6636   3.557   0.384   2.612  0.1620 -0.0002 -0.2374
 1641SOL    HW2 6637   3.643   0.419   2.633 -0.2930  0.7940  0.3426
 1641SOL    HW3 6638   3.496   0.438   2.663 -0.6788 -0.5130 -0.6867
 1641SOL    MW4 6639   3.560   0.396   2.622 -0.0091  0.0369 -0.2201
 1642SOL     OW 6640   3.790   0.518   2.690  0.5498 -0.3534 -0.4430
 1642SOL    HW2 6641   3.792   0.524   2.785  1.1013  0.2851 -0.4937
 1642SOL    HW3 6642   3.856   0.452   2.669  1.2427  0.3402 -0.4499
 1642SOL    MW4 6643   3.799   0.510   2.700  0.7141 -0.1776 -0.4506
 1643SOL     OW 6644   3.850   0.773   2.610 -0.2198 -0.2064  0.3387
 1643SOL    HW2 6645   3.767   0.817   2.630 -0.3129 -0.6968  1.0433
 1643SOL    HW3 6646   3.834   0.681   2.632  0.0541 -0.5550 -0.8920
 1643SOL    MW4 6647   3.837   0.767   2.615 -0.1960 -0.3171  0.2694
 1644SOL     OW 6648   3.606   0.902   2.684 -0.1212 -0.1027 -0.0009
 1644SOL    HW2 6649   3.591   0.906   2.778  0.2529  1.1232  0.0132
 1644SOL    HW3 6650   3.603   0.993   2.655  0.9366 -0.3670 -0.9891
 1644SOL    MW4 6651   3.604   0.915   2.692  0.0677  0.0242 -0.1295
 1645SOL     OW 6652   3.595   1.162   2.598 -0.2165 -0.5652 -0.1210
 1645SOL    HW2 6653   3.667   1.204   2.644 -0.5408  3.2427 -2.8928
 1645SOL    HW3 6654   3.516   1.198   2.640 -0.5149 -1.2891 -0.0514
 1645SOL    MW4 6655   3.594   1.172   2.610 -0.2990 -0.1582 -0.4776
 1646SOL     OW 6656   3.799   1.280   2.743  0.0090  0.5084 -0.2687
 1646SOL    HW2 6657   3.878   1.244   2.704  0.7413  0.8340  0.8958
 1646SOL    HW3 6658   3.794   1.369   2.709  1.1303  1.0878  1.0643
 1646SOL    MW4 6659   3.809   1.287   2.733  0.2534  0.6279  0.0610
 1647SOL     OW 6660   3.772   1.562   2.651  0.2145 -0.3097 -0.2191
 1647SOL    HW2 6661   3.839   1.607   2.702  0.1627 -0.3104 -0.1505
 1647SOL    HW3 6662   3.690   1.606   2.674  0.2702  0.0648 -0.7393
 1647SOL    MW4 6663   3.770   1.573   2.661  0.2148 -0.2604 -0.2787
 1648SOL     OW 6664   3.527   1.700   2.707 -0.0380 -0.0431 -0.5315
 1648SOL    HW2 6665   3.553   1.785   2.670  1.0706 -1.2669 -2.6511
 1648SOL    HW3 6666   3.463   1.665   2.645 -0.1690 -0.9481  0.1122
 1648SOL    MW4 6667   3.522   1.707   2.694  0.0913 -0.3240 -0.7262
 1649SOL     OW 6668   3.591   1.959   2.603  0.4566  0.1011 -0.6680
 1649SOL    HW2 6669   3.516   2.010   2.632 -0.7085 -1.4269 -0.8950
 1649SOL    HW3 6670   3.580   1.952   2.508 -0.8084 -2.6565 -0.3792
 1649SOL    MW4 6671   3.579   1.965   2.594  0.1359 -0.4643 -0.6599
 1650SOL     OW 6672   3.833   2.007   2.726  0.5254  0.0055  0.0031
 1650SOL    HW2 6673   3.901   1.959   2.679 -0.1067  0.2964 -1.2223
 1650SOL    HW3 6674   3.751   1.979   2.685  0.0641  1.3118  0.0052
 1650SOL    MW4 6675   3.831   1.997   2.714  0.3810  0.2162 -0.1585
 1651SOL     OW 6676   3.786   2.267   2.636  0.2568 -0.0432 -0.1442
 1651SOL    HW2 6677   3.802   2.174   2.648  0.5141 -0.0022 -0.1586
 1651SOL    HW3 6678   3.789   2.281   2.542  0.2796 -0.0100 -0.1388
 1651SOL    MW4 6679   3.789   2.257   2.625  0.2937 -0.0336 -0.1454
 1652SOL     OW 6680   3.589   2.441   2.737 -0.1073  0.3339 -0.0241
 1652SOL    HW2 6681   3.585   2.439   2.832  1.2009  0.1102  0.0362
 1652SOL    HW3 6682   3.660   2.380   2.715  0.3899  1.2898 -1.0812
 1652SOL    MW4 6683   3.598   2.433   2.747  0.1311  0.4303 -0.1554
 1653SOL     OW 6684   3.569   2.705   2.638  0.1479 -0.1424 -0.3485
 1653SOL    HW2 6685   3.587   2.618   2.674  0.8197  0.5598  1.0266
 1653SOL    HW3 6686   3.566   2.690   2.543  0.2869 -1.6576 -0.1397
 1653SOL    MW4 6687   3.571   2.691   2.630  0.2549 -0.2494 -0.1395
 1654SOL     OW 6688   3.754   2.892   2.684 -0.3794  0.6301  0.0859
 1654SOL    HW2 6689   3.832   2.837   2.674 -0.3611  0.6049  0.3637
 1654SOL    HW3 6690   3.680   2.833   2.669 -0.3770  0.3790  1.0920
 1654SOL    MW4 6691   3.755   2.877   2.680 -0.3767  0.5937  0.2553
 1655SOL     OW 6692   3.799   3.150   2.565  0.9800  0.2430  0.1223
 1655SOL    HW2 6693   3.732   3.206   2.604  1.2549  0.8569 -0.2733
 1655SOL    HW3 6694   3.776   3.062   2.593 -0.4228  0.3616 -0.6153
 1655SOL    MW4 6695   3.787   3.146   2.574  0.8311  0.3397 -0.0272
 1656SOL     OW 6696   3.592   3.293   2.692  0.7580  0.1695  0.1092
 1656SOL    HW2 6697   3.533   3.228   2.654 -0.5105  1.2940  0.1466
 1656SOL    HW3 6698   3.587   3.276   2.787  0.2694  0.4487  0.1353
 1656SOL    MW4 6699   3.584   3.282   2.700  0.5262  0.3545  0.1178
 1657SOL     OW 6700   3.569   3.549   2.610 -0.9661  0.4254  0.5392
 1657SOL    HW2 6701   3.576   3.459   2.641 -1.6826 -0.1810 -1.0020
 1657SOL    HW3 6702   3.487   3.581   2.648 -1.1304  0.1556  0.4094
 1657SOL    MW4 6703   3.559   3.541   2.619 -1.0822  0.3097  0.3185
 1658SOL     OW 6704   3.809   3.653   2.734 -0.3299 -0.5188  0.7481
 1658SOL    HW2 6705   3.731   3.609   2.698 -0.0836 -0.3793  0.0212
 1658SOL    HW3 6706   3.882   3.596   2.711 -0.1175 -0.1998  0.6208
 1658SOL    MW4 6707   3.808   3.640   2.726 -0.2694 -0.4585  0.6351
 1659SOL     OW 6708   3.817   3.900   2.610  0.4371 -0.4308  0.3445
 1659SOL    HW2 6709   3.878   3.954   2.660  1.6392 -0.6961 -0.8083
 1659SOL    HW3 6710   3.819   3.815   2.654 -0.1618 -0.0555  1.1281
 1659SOL    MW4 6711   3.825   3.896   2.623  0.5167 -0.4165  0.2956
 1660SOL     OW 6712   3.576   3.991   2.699  0.7438 -0.5625  0.6676
 1660SOL    HW2 6713   3.581   4.084   2.676 -0.6415 -0.2627  1.4958
 1660SOL    HW3 6714   3.659   3.954   2.669  2.3031  1.4084  2.3979
 1660SOL    MW4 6715   3.588   3.999   2.692  0.7668 -0.2630  1.0049
 1661SOL     OW 6716   3.574   4.257   2.645 -0.2157 -0.1637  0.0216
 1661SOL    HW2 6717   3.498   4.307   2.675 -0.7717  0.1466 -1.8403
 1661SOL    HW3 6718   3.565   4.255   2.550  2.0504 -0.2303 -0.2086
 1661SOL    MW4 6719   3.562   4.263   2.636  0.0098 -0.1311 -0.2546
 1662SOL     OW 6720   3.817   4.410   2.712  0.0801  0.0947 -0.3119
 1662SOL    HW2 6721   3.892   4.366   2.673 -0.4351  1.5192 -3.0338
 1662SOL    HW3 6722   3.741   4.359   2.683 -0.0432 -1.4394  2.5595
 1662SOL    MW4 6723   3.817   4.398   2.703 -0.0041  0.0801 -0.2921
 1663SOL     OW 6724   4.255   4.656   2.611 -0.0386 -0.0228 -0.1199
 1663SOL    HW2 6725   4.181   4.694   2.657 -0.9668 -1.3151 -0.5302
 1663SOL    HW3 6726   4.331   4.702   2.646 -1.1081  1.9975 -0.4007
 1663SOL    MW4 6727   4.255   4.667   2.621 -0.3018  0.0734 -0.2112
 1664SOL     OW 6728   4.035   0.080   2.730  0.3566 -0.5993 -0.7331
 1664SOL    HW2 6729   4.039   0.095   2.824  0.8327 -1.0951 -0.6790
 1664SOL    HW3 6730   3.946   0.048   2.715  0.2030 -0.2925 -0.4876
 1664SOL    MW4 6731   4.024   0.078   2.740  0.3996 -0.6242 -0.6936
 1665SOL     OW 6732   4.033   0.349   2.629 -0.5142 -0.1506  0.4902
 1665SOL    HW2 6733   4.038   0.257   2.655  0.0255 -0.5308 -0.9549
 1665SOL    HW3 6734   4.022   0.347   2.534  1.2986  1.3175  0.2383
 1665SOL    MW4 6735   4.032   0.336   2.620 -0.2036 -0.0071  0.2663
 1666SOL     OW 6736   4.228   0.521   2.699  0.0970 -0.3555  0.2359
 1666SOL    HW2 6737   4.160   0.459   2.674  0.1441 -0.7992  1.1698
 1666SOL    HW3 6738   4.310   0.477   2.677  0.1168 -0.4050  0.4072
 1666SOL    MW4 6739   4.230   0.507   2.693  0.1059 -0.4206  0.3815
 1667SOL     OW 6740   4.236   0.783   2.579  0.0821 -0.0494 -0.1100
 1667SOL    HW2 6741   4.237   0.692   2.607  0.6818 -0.0719 -0.2050
 1667SOL    HW3 6742   4.218   0.780   2.485 -0.3720 -0.0482 -0.0221
 1667SOL    MW4 6743   4.234   0.771   2.570  0.1011 -0.0522 -0.1111
 1668SOL     OW 6744   4.052   0.896   2.750  0.2563  0.2553  0.3422
 1668SOL    HW2 6745   4.126   0.872   2.694  0.1875 -0.5320  0.5768
 1668SOL    HW3 6746   3.975   0.862   2.705 -0.0824  2.0613 -0.4540
 1668SOL    MW4 6747   4.052   0.888   2.737  0.2027  0.3898  0.2682
 1669SOL     OW 6748   4.024   1.157   2.640 -0.1014  0.1914 -0.7112
 1669SOL    HW2 6749   4.107   1.196   2.664 -0.0577 -0.5332  0.3514
 1669SOL    HW3 6750   4.028   1.068   2.674 -1.7504  0.4963  0.3560
 1669SOL    MW4 6751   4.035   1.150   2.648 -0.3138  0.1360 -0.4303
 1670SOL     OW 6752   4.270   1.285   2.732  0.3220  0.3454 -0.0776
 1670SOL    HW2 6753   4.276   1.380   2.728  1.4407  0.3334  1.0350
 1670SOL    HW3 6754   4.345   1.254   2.681  0.2205  0.0689 -0.0581
 1670SOL    MW4 6755   4.281   1.293   2.725  0.4563  0.3073  0.0718
 1671SOL     OW 6756   4.248   1.537   2.643 -0.4876 -0.0187 -0.4493
 1671SOL    HW2 6757   4.314   1.598   2.676  0.8207 -1.1997 -0.8265
 1671SOL    HW3 6758   4.264   1.533   2.548  0.0522 -1.6382 -0.3076
 1671SOL    MW4 6759   4.259   1.545   2.635 -0.2441 -0.3881 -0.4807
 1672SOL     OW 6760   4.020   1.662   2.753  0.0460  0.1050  0.3723
 1672SOL    HW2 6761   4.041   1.675   2.846 -2.3530 -1.8547  1.2404
 1672SOL    HW3 6762   4.089   1.604   2.721  0.1585 -0.2568  1.2564
 1672SOL    MW4 6763   4.032   1.656   2.761 -0.2556 -0.2012  0.6037
 1673SOL     OW 6764   4.081   1.881   2.618  0.1521  0.2330 -0.6036
 1673SOL    HW2 6765   4.120   1.948   2.674  1.2273 -0.3483 -0.6495
 1673SOL    HW3 6766   4.061   1.809   2.678  1.1606 -0.3282 -0.9228
 1673SOL    MW4 6767   4.083   1.880   2.633  0.4268  0.0820 -0.6518
 1674SOL     OW 6768   4.214   2.119   2.721  0.6518  0.4584  0.2553
 1674SOL    HW2 6769   4.226   2.208   2.689  0.2515  0.3135 -0.3088
 1674SOL    HW3 6770   4.299   2.077   2.707  0.6049  0.5204 -0.2200
 1674SOL    MW4 6771   4.226   2.125   2.715  0.5932  0.4475  0.1183
 1675SOL     OW 6772   4.265   2.366   2.622  0.4664 -0.0539  0.4276
 1675SOL    HW2 6773   4.184   2.409   2.651  0.1211 -0.6312  0.3246
 1675SOL    HW3 6774   4.256   2.357   2.528  0.2913 -0.8582  0.5180
 1675SOL    MW4 6775   4.253   2.371   2.614  0.3986 -0.2363  0.4261
 1676SOL     OW 6776   4.002   2.422   2.724 -0.4926 -0.2723  0.1460
 1676SOL    HW2 6777   4.007   2.441   2.817  0.1981 -0.6941  0.2053
 1676SOL    HW3 6778   3.923   2.369   2.714 -0.7619  0.0722  0.4318
 1676SOL    MW4 6779   3.992   2.417   2.735 -0.4370 -0.2825  0.1917
 1677SOL     OW 6780   3.975   2.696   2.638  0.5314 -0.0698 -0.0963
 1677SOL    HW2 6781   4.041   2.729   2.699  1.8273 -0.3641 -1.3123
 1677SOL    HW3 6782   3.981   2.600   2.647  0.7808 -0.1187 -0.7125
 1677SOL    MW4 6783   3.985   2.688   2.647  0.7353 -0.1152 -0.3381
 1678SOL     OW 6784   4.211   2.815   2.745  0.1626 -0.0636  0.3824
 1678SOL    HW2 6785   4.237   2.849   2.831 -1.6145  0.0648  0.8960
 1678SOL    HW3 6786   4.216   2.890   2.687  0.6926  0.0125  0.5271
 1678SOL    MW4 6787   4.215   2.829   2.749 -0.0019 -0.0367  0.4690
 1679SOL     OW 6788   4.237   3.059   2.606 -0.1091  0.3760  0.2414
 1679SOL    HW2 6789   4.164   3.117   2.626  0.2229  1.2852 -1.0849
 1679SOL    HW3 6790   4.243   3.061   2.510  0.1813 -1.5124  0.2069
 1679SOL    MW4 6791   4.228   3.067   2.596 -0.0272  0.2470  0.0620
 1680SOL     OW 6792   4.047   3.245   2.691  0.6460 -0.2559 -0.6794
 1680SOL    HW2 6793   4.062   3.338   2.677  1.5509 -0.2999 -0.0115
 1680SOL    HW3 6794   3.967   3.226   2.642 -0.3671  1.1853  0.3898
 1680SOL    MW4 6795   4.038   3.255   2.683  0.6313 -0.0715 -0.4501
 1681SOL     OW 6796   4.027   3.515   2.605 -0.6437 -0.3083 -0.0861
 1681SOL    HW2 6797   4.105   3.571   2.600 -1.4010  0.6649 -1.1093
 1681SOL    HW3 6798   4.015   3.483   2.516 -1.9912  0.3591 -0.1534
 1681SOL    MW4 6799   4.036   3.518   2.593 -0.9212 -0.0913 -0.2298
 1682SOL     OW 6800   4.249   3.650   2.669  0.0738 -0.0018 -0.2029
 1682SOL    HW2 6801   4.227   3.648   2.763 -2.3340 -0.1466 -0.7438
 1682SOL    HW3 6802   4.322   3.589   2.660  0.6541  0.3720  1.6468
 1682SOL    MW4 6803   4.256   3.642   2.680 -0.1669  0.0284 -0.0300
 1683SOL     OW 6804   4.221   3.914   2.597 -0.5443  0.6665  0.5678
 1683SOL    HW2 6805   4.227   3.819   2.608 -1.0705  0.7525  1.6229
 1683SOL    HW3 6806   4.308   3.946   2.623 -0.3596  0.4679  0.1884
 1683SOL    MW4 6807   4.234   3.906   2.602 -0.5898  0.6518  0.6566
 1684SOL     OW 6808   4.036   4.055   2.733 -0.3534  0.6442  0.5094
 1684SOL    HW2 6809   4.033   4.027   2.824  0.0612  0.2644  0.4055
 1684SOL    HW3 6810   4.105   4.002   2.693 -0.4632  0.8794 -0.0004
 1684SOL    MW4 6811   4.045   4.045   2.740 -0.3128  0.6247  0.4287
 1685SOL     OW 6812   4.037   4.288   2.591  0.9411 -0.1502 -0.1335
 1685SOL    HW2 6813   4.045   4.207   2.642 -0.2304  0.0044  0.3164
 1685SOL    HW3 6814   4.025   4.258   2.501  1.1914 -0.4600 -0.0656
 1685SOL    MW4 6815   4.036   4.273   2.586  0.8192 -0.1707 -0.0651
 1686SOL     OW 6816   4.280   4.397   2.693  0.1068  0.2576  0.2040
 1686SOL    HW2 6817   4.209   4.347   2.653  0.6089 -0.6176  0.4077
 1686SOL    HW3 6818   4.269   4.485   2.658 -0.3168 -0.1666 -0.7449
 1686SOL    MW4 6819   4.269   4.402   2.683  0.1173  0.0863  0.1059
 1687SOL     OW 6820   0.169   0.024   3.124  0.5319  0.0338 -0.5200
 1687SOL    HW2 6821   0.151   0.021   3.218  0.1716  1.0158 -0.5494
 1687SOL    HW3 6822   0.096   0.074   3.087  1.3386  0.7693 -1.1478
 1687SOL    MW4 6823   0.157   0.030   3.132  0.5908  0.2599 -0.6068
 1688SOL     OW 6824   4.455   0.146   2.991  0.3980  0.1366 -0.3413
 1688SOL    HW2 6825   4.381   0.103   3.033  0.6144 -0.6007 -0.7116
 1688SOL    HW3 6826   4.445   0.238   3.015 -0.6433  0.0488 -0.3907
 1688SOL    MW4 6827   4.444   0.153   2.999  0.2894  0.0277 -0.3967
 1689SOL     OW 6828   4.449   0.410   3.074 -0.0280 -0.0006  0.2274
 1689SOL    HW2 6829   4.444   0.419   3.169  0.6288 -2.0072  0.4715
 1689SOL    HW3 6830   4.366   0.446   3.042 -1.0782 -1.0692  1.7043
 1689SOL    MW4 6831   4.437   0.416   3.082 -0.0801 -0.4063  0.4544
 1690SOL     OW 6832   0.198   0.542   2.998  0.3122 -0.1498 -0.6982
 1690SOL    HW2 6833   0.268   0.489   3.035  0.8096  1.0162  0.0633
 1690SOL    HW3 6834   0.118   0.495   3.020  0.8091 -1.1554 -1.0127
 1690SOL    MW4 6835   0.197   0.529   3.006  0.4434 -0.1286 -0.6390
 1691SOL     OW 6836   0.176   0.810   3.057 -0.0788  0.0868 -0.3115
 1691SOL    HW2 6837   0.167   0.807   3.152 -1.1675 -0.5722 -0.4250
 1691SOL    HW3 6838   0.200   0.720   3.032 -0.3291  0.1225 -0.6956
 1691SOL    MW4 6839   0.178   0.797   3.066 -0.2555  0.0046 -0.3772
 1692SOL     OW 6840   4.443   0.915   2.958  0.1204 -0.2536  0.5020
 1692SOL    HW2 6841   4.527   0.871   2.966  0.5620  0.5838  0.4495
 1692SOL    HW3 6842   4.423   0.914   2.865  0.1273 -0.3495  0.5020
 1692SOL    MW4 6843   4.451   0.909   2.947  0.1798 -0.1557  0.4952
 1693SOL     OW 6844   0.029   1.160   3.093 -0.3710 -0.0815 -0.2349
 1693SOL    HW2 6845  -0.033   1.215   3.045  0.4984  0.4383 -0.7959
 1693SOL    HW3 6846   0.005   1.070   3.070  0.4030  0.1791 -2.1531
 1693SOL    MW4 6847   0.018   1.156   3.083 -0.1541  0.0215 -0.5622
 1694SOL     OW 6848   0.248   1.297   3.012  0.7456  0.3382  0.2156
 1694SOL    HW2 6849   0.174   1.244   3.040  0.6687  0.0692 -0.4713
 1694SOL    HW3 6850   0.239   1.302   2.916  1.2628  0.8225  0.1876
 1694SOL    MW4 6851   0.237   1.291   3.003  0.8037  0.3666  0.1216
 1695SOL     OW 6852   0.216   1.547   3.141 -0.6403 -0.1456 -0.5244
 1695SOL    HW2 6853   0.150   1.586   3.084 -1.4383  0.1466  0.6018
 1695SOL    HW3 6854   0.234   1.461   3.101 -0.8704  0.2382 -1.4580
 1695SOL    MW4 6855   0.210   1.541   3.128 -0.7759 -0.0564 -0.4990
 1696SOL     OW 6856   4.480   1.637   3.026 -0.2483 -0.2484 -0.3809
 1696SOL    HW2 6857   4.394   1.602   3.050 -1.1129  1.3499 -1.0552
 1696SOL    HW3 6858   4.477   1.729   3.055  1.1696 -0.1350 -0.5598
 1696SOL    MW4 6859   4.468   1.645   3.033 -0.1754 -0.0225 -0.4935
 1697SOL     OW 6860   4.477   1.906   3.121  0.4160 -0.0498  0.1655
 1697SOL    HW2 6861   4.414   1.964   3.078 -0.3477  0.7061  2.2644
 1697SOL    HW3 6862   4.562   1.946   3.102  0.0614  0.5270 -0.2436
 1697SOL    MW4 6863   4.480   1.919   3.113  0.2689  0.1259  0.3881
 1698SOL     OW 6864   0.227   2.032   3.041  0.8724 -0.4522  0.6024
 1698SOL    HW2 6865   0.231   2.124   3.067  0.5638 -0.1432 -0.4565
 1698SOL    HW3 6866   0.202   2.033   2.949  0.9204 -1.5961  0.5654
 1698SOL    MW4 6867   0.224   2.044   3.033  0.8380 -0.5624  0.4580
 1699SOL     OW 6868   0.245   2.310   3.113  0.6617 -0.2159  0.6500
 1699SOL    HW2 6869   0.252   2.293   3.207 -0.3016 -1.1327  0.5595
 1699SOL    HW3 6870   0.316   2.372   3.095  0.3660  0.5938  2.1302
 1699SOL    MW4 6871   0.255   2.316   3.123  0.4956 -0.2301  0.8333
 1700SOL     OW 6872   4.476   2.424   2.994 -0.0392 -0.3653 -0.5959
 1700SOL    HW2 6873   4.470   2.513   3.029 -1.2771 -0.4506 -0.5816
 1700SOL    HW3 6874   4.564   2.395   3.019  0.1548  0.6301 -0.0750
 1700SOL    MW4 6875   4.487   2.432   3.002 -0.1764 -0.2453 -0.5255
 1701SOL     OW 6876   4.483   2.694   3.086  0.3075 -0.3485  0.2090
 1701SOL    HW2 6877   4.488   2.680   3.180 -1.9354  2.6138  0.8415
 1701SOL    HW3 6878   4.566   2.733   3.062  0.7977 -0.9046  0.9852
 1701SOL    MW4 6879   4.494   2.697   3.095  0.0758 -0.0310  0.3951
 1702SOL     OW 6880   0.201   2.857   3.000  0.4116 -0.1721 -0.0421
 1702SOL    HW2 6881   0.284   2.818   3.025  0.4556  0.2247  0.4465
 1702SOL    HW3 6882   0.193   2.841   2.906 -0.2036 -2.5150  0.3818
 1702SOL    MW4 6883   0.211   2.850   2.991  0.3362 -0.4287  0.0782
 1703SOL     OW 6884   0.214   3.126   3.105  0.1205  0.0338 -0.7100
 1703SOL    HW2 6885   0.135   3.169   3.071  1.0658  0.5674 -2.2632
 1703SOL    HW3 6886   0.213   3.040   3.065 -0.5860 -0.6335  0.6700
 1703SOL    MW4 6887   0.203   3.120   3.096  0.1520  0.0162 -0.7329
 1704SOL     OW 6888   4.476   3.225   2.995 -0.0366 -0.1075 -0.7194
 1704SOL    HW2 6889   4.407   3.176   3.039 -0.5930  1.2527 -0.0518
 1704SOL    HW3 6890   4.457   3.215   2.902 -0.7910 -0.2267 -0.5514
 1704SOL    MW4 6891   4.465   3.217   2.988 -0.2098  0.0563 -0.6092
 1705SOL     OW 6892   4.438   3.486   3.088 -0.3622  0.0608  0.2692
 1705SOL    HW2 6893   4.359   3.527   3.053  0.4218  0.7598 -0.7128
 1705SOL    HW3 6894   4.445   3.403   3.041 -0.3684  0.1147  0.1732
 1705SOL    MW4 6895   4.428   3.481   3.077 -0.2594  0.1600  0.1268
 1706SOL     OW 6896   0.184   3.611   2.966 -0.4772  0.2483  0.2547
 1706SOL    HW2 6897   0.191   3.697   3.008 -1.6165  0.0330  0.9215
 1706SOL    HW3 6898   0.106   3.572   3.006  0.6037 -1.4969  0.7007
 1706SOL    MW4 6899   0.175   3.618   2.977 -0.4849 -0.0105  0.4015
 1707SOL     OW 6900   0.201   3.839   3.112  0.2160  0.0763 -0.0025
 1707SOL    HW2 6901   0.182   3.831   3.205 -0.1026 -1.3342 -0.1693
 1707SOL    HW3 6902   0.283   3.887   3.107 -0.0670  0.6632  0.9806
 1707SOL    MW4 6903   0.209   3.844   3.124  0.1366 -0.0324  0.1051
 1708SOL     OW 6904   4.471   3.995   3.013 -0.2554  0.3694 -0.1344
 1708SOL    HW2 6905   4.548   3.942   3.034 -0.0101  1.1271  0.8955
 1708SOL    HW3 6906   4.465   3.991   2.918 -0.3655 -1.6870 -0.0742
 1708SOL    MW4 6907   4.481   3.987   3.003 -0.2375  0.1981  0.0098
 1709SOL     OW 6908   4.469   4.274   3.092  0.5636 -0.2520 -0.3696
 1709SOL    HW2 6909   4.476   4.260   3.186  2.9473 -0.9252 -0.6306
 1709SOL    HW3 6910   4.470   4.186   3.054 -3.8420 -0.2214 -0.8941
 1709SOL    MW4 6911   4.470   4.261   3.099  0.2966 -0.3371 -0.4730
 1710SOL     OW 6912   0.208   4.412   3.035 -0.3063  0.4093  0.5731
 1710SOL    HW2 6913   0.133   4.352   3.035  0.1162 -0.1562  1.7980
 1710SOL    HW3 6914   0.172   4.496   3.062 -0.8234  0.6121 -0.7024
 1710SOL    MW4 6915   0.194   4.415   3.039 -0.3188  0.3614  0.5665
 1711SOL     OW 6916   0.652   0.022   3.067 -0.2272  0.5270 -0.4225
 1711SOL    HW2 6917   0.659  -0.072   3.050  0.3590  0.4415  0.2675
 1711SOL    HW3 6918   0.560   0.042   3.053 -0.7649 -0.5517  1.4277
 1711SOL    MW4 6919   0.641   0.012   3.063 -0.2208  0.3734 -0.0873
 1712SOL     OW 6920   0.391   0.120   2.987  0.2562 -0.5606  0.2438
 1712SOL    HW2 6921   0.391   0.209   3.022  1.8942 -0.6495  0.5292
 1712SOL    HW3 6922   0.317   0.078   3.030 -1.3773  1.0448 -0.9347
 1712SOL    MW4 6923   0.381   0.126   2.998  0.2568 -0.3605  0.1261
 1713SOL     OW 6924   0.421   0.380   3.085 -0.1742  0.3266  0.2942
 1713SOL    HW2 6925   0.411   0.397   3.178  0.7142 -0.7509  0.5876
 1713SOL    HW3 6926   0.500   0.428   3.059  0.3635 -0.5046  0.3902
 1713SOL    MW4 6927   0.430   0.389   3.094  0.0139  0.0748  0.3455
 1714SOL     OW 6928   0.628   0.562   3.029  0.0683 -0.4110  0.1263
 1714SOL    HW2 6929   0.709   0.516   3.052  0.3612  1.5934  3.3245
 1714SOL    HW3 6930   0.640   0.650   3.063 -2.5754  0.5734 -1.3928
 1714SOL    MW4 6931   0.641   0.567   3.036 -0.2419 -0.0166  0.3476
 1715SOL     OW 6932   0.692   0.816   3.109 -0.3252 -0.3862  0.5370
 1715SOL    HW2 6933   0.679   0.809   3.203  0.6064  1.3987  0.8224
 1715SOL    HW3 6934   0.615   0.863   3.077  0.0909  0.3702  0.6369
 1715SOL    MW4 6935   0.680   0.821   3.117 -0.1474 -0.0508  0.5877
 1716SOL     OW 6936   0.437   0.865   2.995 -0.2720  0.1857 -0.0787
 1716SOL    HW2 6937   0.348   0.837   3.016 -0.1915 -0.5783 -0.7335
 1716SOL    HW3 6938   0.442   0.860   2.900  0.0784  1.4420 -0.1364
 1716SOL    MW4 6939   0.426   0.861   2.985 -0.2151  0.2506 -0.1726
 1717SOL     OW 6940   0.475   1.126   3.096 -0.0142  0.2400 -0.0350
 1717SOL    HW2 6941   0.457   1.041   3.057 -0.0144  0.4107 -0.4099
 1717SOL    HW3 6942   0.406   1.183   3.063  0.2999  0.5158 -0.2204
 1717SOL    MW4 6943   0.463   1.122   3.086  0.0273  0.2990 -0.1090
 1718SOL     OW 6944   0.675   1.272   2.994  0.0562  0.0812  0.2307
 1718SOL    HW2 6945   0.750   1.238   3.043  0.8084  0.9500 -0.3014
 1718SOL    HW3 6946   0.599   1.230   3.034  0.7336  0.0826  1.5403
 1718SOL    MW4 6947   0.675   1.262   3.005  0.2448  0.1960  0.3335
 1719SOL     OW 6948   0.679   1.529   3.094 -0.2171 -0.2023  0.1491
 1719SOL    HW2 6949   0.694   1.523   3.188  0.0826 -1.5683  0.0280
 1719SOL    HW3 6950   0.680   1.438   3.064 -0.1517  0.2365 -1.1980
 1719SOL    MW4 6951   0.681   1.516   3.103 -0.1689 -0.3248 -0.0443
 1720SOL     OW 6952   0.433   1.653   3.014 -0.1186  0.5048 -0.4545
 1720SOL    HW2 6953   0.508   1.604   3.047 -0.3898 -0.2577 -0.9551
 1720SOL    HW3 6954   0.359   1.623   3.066 -0.4201 -0.1778 -1.2613
 1720SOL    MW4 6955   0.433   1.643   3.025 -0.1942  0.3141 -0.6270
 1721SOL     OW 6956   0.463   1.918   3.119 -0.1146 -0.3851 -0.2584
 1721SOL    HW2 6957   0.480   1.838   3.069 -0.7112  0.1547 -1.3510
 1721SOL    HW3 6958   0.385   1.955   3.078 -1.1007 -0.3450  1.6061
 1721SOL    MW4 6959   0.455   1.912   3.107 -0.3233 -0.3088 -0.1569
 1722SOL     OW 6960   0.665   2.081   3.047  0.1337 -0.3711 -0.3201
 1722SOL    HW2 6961   0.735   2.021   3.071 -1.5347 -1.2446  2.6043
 1722SOL    HW3 6962   0.584   2.031   3.060 -1.1241  1.1779 -1.8754
 1722SOL    MW4 6963   0.663   2.067   3.052 -0.2523 -0.2820 -0.1392
 1723SOL     OW 6964   0.675   2.351   3.119 -0.3350  0.0666 -0.2307
 1723SOL    HW2 6965   0.668   2.347   3.214  0.3723 -1.2909 -0.2348
 1723SOL    HW3 6966   0.671   2.260   3.090  0.3516  0.4061 -1.4323
 1723SOL    MW4 6967   0.674   2.339   3.127 -0.1510 -0.0679 -0.3901
 1724SOL     OW 6968   0.441   2.465   3.003 -0.2562  0.1652 -0.4931
 1724SOL    HW2 6969   0.521   2.426   3.037  0.5595  1.3462 -1.0431
 1724SOL    HW3 6970   0.443   2.447   2.909 -0.9083 -0.2759 -0.4267
 1724SOL    MW4 6971   0.452   2.458   2.995 -0.2346  0.2627 -0.5569
 1725SOL     OW 6972   0.430   2.737   3.106  0.3497  0.4611  0.4222
 1725SOL    HW2 6973   0.521   2.767   3.095  0.3212  0.4936  0.2765
 1725SOL    HW3 6974   0.430   2.649   3.068  0.2812  0.5238  0.2787
 1725SOL    MW4 6975   0.442   2.729   3.100  0.3369  0.4737  0.3839
 1726SOL     OW 6976   0.681   2.811   2.992 -0.0613 -0.6837 -0.1349
 1726SOL    HW2 6977   0.738   2.765   3.053  0.9835 -0.0943 -0.6403
 1726SOL    HW3 6978   0.689   2.903   3.017  2.2625 -0.1304 -2.6106
 1726SOL    MW4 6979   0.690   2.817   3.003  0.3832 -0.5331 -0.5283
 1727SOL     OW 6980   0.641   3.076   3.069  0.3152 -0.3992 -0.2960
 1727SOL    HW2 6981   0.642   3.084   3.164  1.0065 -1.2599 -0.2291
 1727SOL    HW3 6982   0.569   3.132   3.041 -0.8105 -1.2434  0.8437
 1727SOL    MW4 6983   0.632   3.084   3.078  0.2578 -0.6242 -0.1366
 1728SOL     OW 6984   0.439   3.239   3.012 -0.1630  0.6730 -0.0807
 1728SOL    HW2 6985   0.437   3.331   3.039  0.1815  0.2133  1.5331
 1728SOL    HW3 6986   0.361   3.201   3.052  0.6697 -0.1501  0.7747
 1728SOL    MW4 6987   0.429   3.246   3.021 -0.0077  0.5035  0.2451
 1729SOL     OW 6988   0.429   3.513   3.064 -0.4482  0.1678 -0.3164
 1729SOL    HW2 6989   0.423   3.513   3.160  1.1569  2.0351 -0.1861
 1729SOL    HW3 6990   0.341   3.537   3.035 -0.7636  0.2642  0.6971
 1729SOL    MW4 6991   0.417   3.516   3.073 -0.2780  0.4270 -0.1655
 1730SOL     OW 6992   0.661   3.615   2.973 -0.3292  0.1910 -0.6047
 1730SOL    HW2 6993   0.727   3.556   3.011 -0.7333  0.8458  1.1513
 1730SOL    HW3 6994   0.578   3.586   3.011 -0.7513  0.8405 -1.0200
 1730SOL    MW4 6995   0.659   3.603   2.983 -0.4382  0.3631 -0.4277
 1731SOL     OW 6996   0.708   3.869   3.090 -0.1196 -0.2678 -0.4277
 1731SOL    HW2 6997   0.706   3.845   3.183 -2.6427 -0.9498 -0.6226
 1731SOL    HW3 6998   0.687   3.787   3.044 -0.4329  0.4170 -1.5170
 1731SOL    MW4 6999   0.705   3.855   3.097 -0.4939 -0.2675 -0.5970
 1732SOL     OW 7000   0.424   3.992   3.038 -0.2707 -0.0796 -0.2250
 1732SOL    HW2 7001   0.507   3.962   3.074 -0.4703 -0.2650  0.0854
 1732SOL    HW3 7002   0.428   3.967   2.945 -0.1881 -0.5482 -0.0999
 1732SOL    MW4 7003   0.435   3.984   3.030 -0.2861 -0.1659 -0.1674
 1733SOL     OW 7004   0.458   4.272   3.091  0.4375  0.3390 -0.2544
 1733SOL    HW2 7005   0.434   4.186   3.056  0.8225 -1.1806  3.0428
 1733SOL    HW3 7006   0.377   4.322   3.087 -0.8653 -1.5234  1.4767
 1733SOL    MW4 7007   0.444   4.267   3.086  0.3164 -0.1078  0.4089
 1734SOL     OW 7008   0.684   4.422   3.017 -0.1942  0.0002  0.0449
 1734SOL    HW2 7009   0.612   4.377   3.061 -0.6926 -1.1153 -1.8389
 1734SOL    HW3 7010   0.666   4.410   2.924  2.6144 -0.5951 -0.4604
 1734SOL    MW4 7011   0.672   4.415   3.011  0.1106 -0.2255 -0.2701
 1735SOL     OW 7012   1.105   4.667   3.102  0.1811  0.3466 -0.0072
 1735SOL    HW2 7013   1.177   4.713   3.059  0.1074  2.0393  1.6182
 1735SOL    HW3 7014   1.026   4.706   3.066  0.0798 -0.2000 -0.3919
 1735SOL    MW4 7015   1.104   4.678   3.092  0.1582  0.4973  0.1564
 1736SOL     OW 7016   0.890   0.136   2.988 -0.2384 -0.2835 -0.0681
 1736SOL    HW2 7017   0.880   0.226   3.019 -0.9392 -0.6003  0.6314
 1736SOL    HW3 7018   0.808   0.093   3.012 -0.0029 -1.0462 -0.6176
 1736SOL    MW4 7019   0.878   0.142   2.995 -0.2998 -0.4259 -0.0484
 1737SOL     OW 7020   0.850   0.397   3.081  0.0000  0.6677  0.2555
 1737SOL    HW2 7021   0.864   0.394   3.175 -2.3052  0.5757  0.6189
 1737SOL    HW3 7022   0.929   0.438   3.046  1.5110 -0.6530  2.0684
 1737SOL    MW4 7023   0.862   0.402   3.089 -0.1047  0.4813  0.5426
 1738SOL     OW 7024   1.101   0.486   2.996  0.2046 -0.6661 -0.3505
 1738SOL    HW2 7025   1.170   0.425   3.022 -1.0649 -1.9691  0.0570
 1738SOL    HW3 7026   1.111   0.494   2.901  1.0184 -0.7154 -0.2719
 1738SOL    MW4 7027   1.111   0.479   2.987  0.1445 -0.8446 -0.2863
 1739SOL     OW 7028   1.145   0.754   3.064  0.1011  0.1366  0.3698
 1739SOL    HW2 7029   1.153   0.742   3.159  0.6020 -0.2231  0.2863
 1739SOL    HW3 7030   1.140   0.664   3.029 -0.6595  0.2729  0.0997
 1739SOL    MW4 7031   1.145   0.740   3.072  0.0668  0.1071  0.3233
 1740SOL     OW 7032   0.923   0.902   2.986  0.4170 -0.0612  0.0085
 1740SOL    HW2 7033   1.004   0.861   3.017  1.1075  2.3484  1.4653
 1740SOL    HW3 7034   0.854   0.860   3.037  0.9574 -0.5024  0.3838
 1740SOL    MW4 7035   0.925   0.891   2.997  0.5794  0.1985  0.2506
 1741SOL     OW 7036   0.919   1.163   3.075  0.4348 -0.3506 -0.2252
 1741SOL    HW2 7037   1.004   1.199   3.049  0.6900 -0.3445  0.6060
 1741SOL    HW3 7038   0.922   1.072   3.046  1.0046 -0.5430  0.4298
 1741SOL    MW4 7039   0.931   1.156   3.068  0.5437 -0.3752 -0.0291
 1742SOL     OW 7040   1.156   1.305   3.000 -0.1094  0.1331 -0.5141
 1742SOL    HW2 7041   1.229   1.248   3.021 -1.0150 -1.1577 -0.8191
 1742SOL    HW3 7042   1.147   1.300   2.905  0.2052  1.2863 -0.6171
 1742SOL    MW4 7043   1.164   1.297   2.990 -0.1874  0.1150 -0.5682
 1743SOL     OW 7044   1.140   1.552   3.146 -0.2051  0.5022 -0.6118
 1743SOL    HW2 7045   1.207   1.598   3.096 -1.2240  1.3974 -1.1669
 1743SOL    HW3 7046   1.142   1.462   3.113  1.2584  0.3282 -0.0686
 1743SOL    MW4 7047   1.149   1.546   3.135 -0.1464  0.5974 -0.6135
 1744SOL     OW 7048   0.900   1.648   3.005  0.0659  0.1473 -0.2028
 1744SOL    HW2 7049   0.968   1.609   3.060 -1.2623 -1.8077  0.0811
 1744SOL    HW3 7050   0.820   1.602   3.030 -0.7121 -0.1633 -3.1513
 1744SOL    MW4 7051   0.898   1.637   3.016 -0.2120 -0.1515 -0.5543
 1745SOL     OW 7052   0.876   1.902   3.089 -0.0133  0.2317 -0.3226
 1745SOL    HW2 7053   0.860   1.906   3.183 -0.9064  0.9079 -0.4938
 1745SOL    HW3 7054   0.877   1.808   3.069  0.1663  0.0865  0.3576
 1745SOL    MW4 7055   0.874   1.890   3.099 -0.1075  0.3018 -0.2556
 1746SOL     OW 7056   1.126   2.032   3.038  0.1689 -0.5869 -0.0508
 1746SOL    HW2 7057   1.039   2.005   3.069  0.6348 -1.0820  0.8495
 1746SOL    HW3 7058   1.119   2.030   2.943 -0.8603 -0.4650  0.0170
 1746SOL    MW4 7059   1.113   2.028   3.030  0.0945 -0.6363  0.0770
 1747SOL     OW 7060   1.143   2.303   3.147 -0.2402 -0.7221 -0.5279
 1747SOL    HW2 7061   1.066   2.348   3.113 -1.8186 -0.6743  2.8351
 1747SOL    HW3 7062   1.143   2.218   3.104 -2.0360 -0.6229 -0.7703
 1747SOL    MW4 7063   1.133   2.298   3.137 -0.6855 -0.7026 -0.1161
 1748SOL     OW 7064   0.934   2.442   3.057 -0.2413 -0.3356  0.2906
 1748SOL    HW2 7065   0.846   2.410   3.072 -0.4626  0.1835  0.1271
 1748SOL    HW3 7066   0.935   2.469   2.966  0.7588 -2.4059 -0.3281
 1748SOL    MW4 7067   0.923   2.442   3.047 -0.1385 -0.5403  0.1876
 1749SOL     OW 7068   0.884   2.692   3.145  0.0386 -0.5027  0.1943
 1749SOL    HW2 7069   0.872   2.690   3.240 -1.1151 -0.0752  0.0723
 1749SOL    HW3 7070   0.908   2.603   3.121  0.0590 -0.6749  0.8511
 1749SOL    MW4 7071   0.885   2.680   3.155 -0.1109 -0.4692  0.2649
 1750SOL     OW 7072   1.103   2.803   3.000 -0.0231 -0.4463 -0.2136
 1750SOL    HW2 7073   1.125   2.893   3.025  0.1991 -0.5711  0.0467
 1750SOL    HW3 7074   1.041   2.774   3.066 -0.1238 -0.4704 -0.3196
 1750SOL    MW4 7075   1.098   2.811   3.012 -0.0070 -0.4659 -0.1931
 1751SOL     OW 7076   1.155   3.056   3.112 -0.5499  0.1198 -0.3189
 1751SOL    HW2 7077   1.234   3.101   3.082  0.0076 -0.5538  0.1357
 1751SOL    HW3 7078   1.083   3.102   3.068  0.0862  0.7845 -0.6693
 1751SOL    MW4 7079   1.156   3.068   3.102 -0.3923  0.1185 -0.3052
 1752SOL     OW 7080   0.917   3.157   3.006 -0.0246  0.1411 -0.4804
 1752SOL    HW2 7081   0.826   3.136   3.029  0.0460 -1.7879 -1.9279
 1752SOL    HW3 7082   0.914   3.175   2.912  0.5564  3.2417  0.0371
 1752SOL    MW4 7083   0.905   3.157   2.997  0.0614  0.2959 -0.6032
 1753SOL     OW 7084   0.867   3.467   3.067 -0.3217  0.2169 -0.1423
 1753SOL    HW2 7085   0.946   3.508   3.034  0.2841  0.0507  1.0979
 1753SOL    HW3 7086   0.886   3.373   3.067 -1.1358  0.0305 -1.4577
 1753SOL    MW4 7087   0.880   3.460   3.062 -0.3491  0.1705 -0.1521
 1754SOL     OW 7088   1.098   3.618   2.970  0.1723  0.1170  0.2180
 1754SOL    HW2 7089   1.176   3.572   3.001  0.4298 -0.0772 -0.6823
 1754SOL    HW3 7090   1.105   3.706   3.007  0.7923  0.0815  0.1915
 1754SOL    MW4 7091   1.109   3.624   2.979  0.2881  0.0868  0.0958
 1755SOL     OW 7092   1.118   3.867   3.092  0.0929  0.0009  0.2897
 1755SOL    HW2 7093   1.122   3.878   3.187 -3.0020 -0.8128  0.5833
 1755SOL    HW3 7094   1.043   3.921   3.065  1.7226  1.2675 -1.8912
 1755SOL    MW4 7095   1.109   3.875   3.101 -0.1004  0.0608  0.0408
 1756SOL     OW 7096   0.919   4.029   3.006  0.0937 -0.0728  0.2200
 1756SOL    HW2 7097   0.840   3.979   3.026  0.1611  0.2333  1.3170
 1756SOL    HW3 7098   0.916   4.041   2.911 -0.9626 -0.4176  0.1947
 1756SOL    MW4 7099   0.908   4.024   2.996 -0.0368 -0.0777  0.3614
 1757SOL     OW 7100   0.907   4.304   3.082  0.0207  0.1420  0.4160
 1757SOL    HW2 7101   0.913   4.211   3.059  0.6789  0.2458  0.1321
 1757SOL    HW3 7102   0.823   4.332   3.048 -0.8588 -0.7147  1.8448
 1757SOL    MW4 7103   0.897   4.295   3.075 -0.0085  0.0424  0.5670
 1758SOL     OW 7104   1.148   4.427   3.001  0.0413 -0.2655 -0.3326
 1758SOL    HW2 7105   1.072   4.379   3.033 -0.2765 -0.5660 -1.5255
 1758SOL    HW3 7106   1.139   4.515   3.039 -0.4783 -0.5300  0.1631
 1758SOL    MW4 7107   1.137   4.432   3.010 -0.0690 -0.3395 -0.4249
 1759SOL     OW 7108   1.569   4.618   3.084 -0.0279  0.3736  0.5964
 1759SOL    HW2 7109   1.575   4.625   3.180  0.8778  0.6950  0.5208
 1759SOL    HW3 7110   1.495   4.675   3.061 -1.3374 -1.0287  1.2523
 1759SOL    MW4 7111   1.560   4.626   3.094 -0.0811  0.2313  0.6731
 1760SOL     OW 7112   1.339   0.115   3.004 -0.4958  0.0876  0.1617
 1760SOL    HW2 7113   1.334   0.203   3.039  1.0344  0.3148 -0.1403
 1760SOL    HW3 7114   1.345   0.126   2.909 -0.3308 -0.3308  0.1176
 1760SOL    MW4 7115   1.339   0.128   2.996 -0.2720  0.0624  0.1156
 1761SOL     OW 7116   1.324   0.363   3.091 -0.0063  0.5132  0.0861
 1761SOL    HW2 7117   1.333   0.384   3.184  1.2373 -0.8329  0.2733
 1761SOL    HW3 7118   1.399   0.405   3.049  0.6495 -0.7192  0.0017
 1761SOL    MW4 7119   1.335   0.372   3.097  0.2443  0.1730  0.0999
 1762SOL     OW 7120   1.561   0.518   3.023  0.0810 -0.0669 -0.1567
 1762SOL    HW2 7121   1.566   0.608   3.056 -0.1004  0.2616 -1.0131
 1762SOL    HW3 7122   1.557   0.528   2.928 -0.3576 -0.9638 -0.2350
 1762SOL    MW4 7123   1.561   0.531   3.015 -0.0008 -0.1419 -0.2801
 1763SOL     OW 7124   1.626   0.787   3.105 -0.2632 -0.0460  0.1616
 1763SOL    HW2 7125   1.628   0.794   3.200  0.6849  0.1465  0.1349
 1763SOL    HW3 7126   1.539   0.818   3.080 -0.8122 -0.8607  1.0186
 1763SOL    MW4 7127   1.615   0.792   3.114 -0.2105 -0.1281  0.2711
 1764SOL     OW 7128   1.390   0.881   3.028  0.7914 -0.0634 -0.4663
 1764SOL    HW2 7129   1.385   0.971   3.058  0.9446 -0.3864  0.5637
 1764SOL    HW3 7130   1.305   0.843   3.052  1.4367 -0.7070  0.8627
 1764SOL    MW4 7131   1.378   0.888   3.035  0.8968 -0.1910 -0.1550
 1765SOL     OW 7132   1.351   1.157   3.107 -0.1741 -0.2361  0.1180
 1765SOL    HW2 7133   1.345   1.149   3.202  0.6963 -2.9499 -0.0076
 1765SOL    HW3 7134   1.432   1.205   3.092  1.0110 -1.9924  0.7167
 1765SOL    MW4 7135   1.360   1.162   3.118  0.0972 -0.8258  0.1802
 1766SOL     OW 7136   1.582   1.301   3.038 -0.4431 -0.5959 -0.4813
 1766SOL    HW2 7137   1.667   1.267   3.065 -1.2011 -1.5443  0.8157
 1766SOL    HW3 7138   1.581   1.391   3.071  0.0650 -0.5756 -0.5179
 1766SOL    MW4 7139   1.593   1.308   3.046 -0.4760 -0.7184 -0.3152
 1767SOL     OW 7140   1.569   1.564   3.133 -0.8272  0.1976 -0.0037
 1767SOL    HW2 7141   1.656   1.604   3.128 -1.4637  1.5810 -0.3269
 1767SOL    HW3 7142   1.518   1.611   3.066 -1.5212 -1.3647 -0.5803
 1767SOL    MW4 7143   1.574   1.576   3.123 -1.0028  0.1739 -0.1223
 1768SOL     OW 7144   1.349   1.679   2.994  0.0266 -0.2510 -0.4112
 1768SOL    HW2 7145   1.356   1.767   3.033  1.6384  0.3063 -1.8799
 1768SOL    HW3 7146   1.317   1.695   2.905  0.6793 -1.1089 -0.8021
 1768SOL    MW4 7147   1.346   1.693   2.988  0.3253 -0.2905 -0.6566
 1769SOL     OW 7148   1.356   1.923   3.124 -0.1271 -0.4962 -0.0393
 1769SOL    HW2 7149   1.368   1.934   3.218  1.7454 -2.5293 -0.0003
 1769SOL    HW3 7150   1.271   1.964   3.105 -0.2501  0.4362  2.4150
 1769SOL    MW4 7151   1.346   1.930   3.134  0.1038 -0.6415  0.2897
 1770SOL     OW 7152   1.569   2.074   3.014  0.5797 -0.5754 -0.1783
 1770SOL    HW2 7153   1.494   2.023   3.046 -0.6398  1.2529 -0.0461
 1770SOL    HW3 7154   1.565   2.064   2.918  0.5640 -1.0278 -0.1315
 1770SOL    MW4 7155   1.559   2.066   3.005  0.4168 -0.3941 -0.1547
 1771SOL     OW 7156   1.573   2.320   3.142  0.0057 -0.0902  0.2704
 1771SOL    HW2 7157   1.490   2.359   3.115 -0.5692 -1.4084  0.1045
 1771SOL    HW3 7158   1.576   2.236   3.097  1.9518  0.4185 -0.6107
 1771SOL    MW4 7159   1.563   2.314   3.133  0.1864 -0.1969  0.1321
 1772SOL     OW 7160   1.348   2.426   3.010  0.5207  0.0493 -0.3508
 1772SOL    HW2 7161   1.274   2.384   3.055  1.5368 -0.8482  0.5053
 1772SOL    HW3 7162   1.322   2.426   2.918 -1.2056  1.1247  0.1022
 1772SOL    MW4 7163   1.335   2.420   3.004  0.4269  0.0730 -0.1779
 1773SOL     OW 7164   1.351   2.687   3.076 -0.0129  0.4367  0.4464
 1773SOL    HW2 7165   1.346   2.593   3.063  1.4891  0.4564 -0.3789
 1773SOL    HW3 7166   1.265   2.720   3.046 -0.0816 -0.5354 -0.4527
 1773SOL    MW4 7167   1.339   2.679   3.070  0.1763  0.3109  0.2186
 1774SOL     OW 7168   1.563   2.809   2.979  0.0361  0.4186 -0.5744
 1774SOL    HW2 7169   1.637   2.780   3.032  0.4721  1.9631 -0.3047
 1774SOL    HW3 7170   1.486   2.782   3.028  0.4368  1.0521  0.4054
 1774SOL    MW4 7171   1.563   2.802   2.992  0.1465  0.7060 -0.4094
 1775SOL     OW 7172   1.542   3.083   3.105 -0.2156 -0.1014  0.2385
 1775SOL    HW2 7173   1.538   3.077   3.200 -0.8711  0.1511  0.2278
 1775SOL    HW3 7174   1.565   2.995   3.076  2.2621  0.3457  0.7525
 1775SOL    MW4 7175   1.545   3.071   3.114  0.0249 -0.0093  0.3052
 1776SOL     OW 7176   1.339   3.248   3.031 -0.1586  0.3543 -0.5968
 1776SOL    HW2 7177   1.416   3.201   3.063 -0.6409  0.8590  1.3200
 1776SOL    HW3 7178   1.349   3.246   2.935  1.9203 -0.0802 -0.4016
 1776SOL    MW4 7179   1.350   3.241   3.022  0.0520  0.3636 -0.3183
 1777SOL     OW 7180   1.342   3.517   3.076  0.1137  0.3677 -0.2249
 1777SOL    HW2 7181   1.346   3.523   3.171 -1.1507  0.2285 -0.1502
 1777SOL    HW3 7182   1.345   3.423   3.057 -1.3715  0.3056 -0.2158
 1777SOL    MW4 7183   1.343   3.505   3.086 -0.2491  0.3412 -0.2141
 1778SOL     OW 7184   1.598   3.610   2.969  0.0578  0.2292  0.0363
 1778SOL    HW2 7185   1.517   3.571   3.004 -1.6187  3.2355 -0.3077
 1778SOL    HW3 7186   1.588   3.602   2.874  0.3135  0.3258  0.0026
 1778SOL    MW4 7187   1.586   3.603   2.961 -0.1296  0.6385 -0.0134
 1779SOL     OW 7188   1.549   3.869   3.077  0.3173 -0.0273 -0.9840
 1779SOL    HW2 7189   1.625   3.926   3.061  1.2286 -0.7149  0.8349
 1779SOL    HW3 7190   1.574   3.785   3.040  0.2038 -0.1024 -0.8892
 1779SOL    MW4 7191   1.562   3.865   3.070  0.4226 -0.1278 -0.7317
 1780SOL     OW 7192   1.334   3.969   2.943  0.0637  0.1173 -0.2840
 1780SOL    HW2 7193   1.408   3.926   2.987 -0.7303 -2.7427 -1.5690
 1780SOL    HW3 7194   1.257   3.939   2.991 -0.4276  0.9867 -0.5335
 1780SOL    MW4 7195   1.334   3.959   2.955 -0.1059 -0.1454 -0.4864
 1781SOL     OW 7196   1.356   4.234   3.062 -0.0351 -0.0384 -0.0892
 1781SOL    HW2 7197   1.322   4.155   3.020  1.0472 -0.4915 -0.1384
 1781SOL    HW3 7198   1.291   4.301   3.043 -0.6076 -0.7472 -0.6742
 1781SOL    MW4 7199   1.343   4.232   3.054  0.0321 -0.1917 -0.1729
 1782SOL     OW 7200   1.562   4.376   2.960  0.0225  0.0409  0.5841
 1782SOL    HW2 7201   1.497   4.319   3.002 -1.7209  0.0512 -2.0066
 1782SOL    HW3 7202   1.554   4.459   3.007 -0.3645 -0.5802  1.6480
 1782SOL    MW4 7203   1.552   4.379   2.972 -0.2587 -0.0401  0.3827
 1783SOL     OW 7204   1.994   4.601   3.100 -0.1669 -0.4161  0.0524
 1783SOL    HW2 7205   2.017   4.608   3.192  1.5050  0.5699 -0.4126
 1783SOL    HW3 7206   1.929   4.670   3.086  0.7821  0.5197  0.1532
 1783SOL    MW4 7207   1.988   4.611   3.110  0.1789 -0.1626  0.0043
 1784SOL     OW 7208   1.787   0.126   3.055  0.0479 -0.2174  0.0122
 1784SOL    HW2 7209   1.718   0.068   3.086 -1.3327  1.7779  0.7048
 1784SOL    HW3 7210   1.781   0.121   2.959  0.8543 -2.2469  0.0304
 1784SOL    MW4 7211   1.777   0.118   3.046 -0.0278 -0.2219  0.1059
 1785SOL     OW 7212   1.814   0.397   3.123 -0.3837  0.0280  0.0398
 1785SOL    HW2 7213   1.805   0.305   3.098  0.4348 -0.3651  1.1597
 1785SOL    HW3 7214   1.727   0.434   3.110 -0.5563 -0.7441 -1.0553
 1785SOL    MW4 7215   1.802   0.390   3.118 -0.2984 -0.1257  0.0432
 1786SOL     OW 7216   2.048   0.504   3.007  0.2551  0.5754  0.5559
 1786SOL    HW2 7217   1.975   0.472   3.059  0.1888  2.3034  1.5381
 1786SOL    HW3 7218   2.023   0.484   2.916 -0.9672  0.2579  0.9558
 1786SOL    MW4 7219   2.035   0.497   3.002  0.0849  0.7615  0.7384
 1787SOL     OW 7220   2.026   0.745   3.151 -0.0749  0.7349  0.0517
 1787SOL    HW2 7221   1.974   0.799   3.093 -2.0041  0.2779  1.3095
 1787SOL    HW3 7222   2.045   0.666   3.101  1.2246  1.7855 -1.1458
 1787SOL    MW4 7223   2.022   0.742   3.137 -0.1578  0.8132  0.0596
 1788SOL     OW 7224   1.850   0.914   3.016  0.0361 -0.8417 -0.5016
 1788SOL    HW2 7225   1.778   0.855   3.038 -0.9544 -0.1474 -1.7737
 1788SOL    HW3 7226   1.838   0.932   2.923 -0.3944  2.3018  0.1176
 1788SOL    MW4 7227   1.839   0.909   3.007 -0.1515 -0.3353 -0.5877
 1789SOL     OW 7228   1.835   1.183   3.097 -0.0148 -0.2389  0.2807
 1789SOL    HW2 7229   1.809   1.189   3.189  0.4308 -0.2521  0.4096
 1789SOL    HW3 7230   1.825   1.091   3.074 -1.2733 -0.0333 -0.0287
 1789SOL    MW4 7231   1.830   1.172   3.106 -0.1220 -0.2135  0.2568
 1790SOL     OW 7232   2.069   1.308   3.008  0.1520  0.2125 -0.2208
 1790SOL    HW2 7233   2.136   1.241   3.018  0.2767  0.4369  0.5188
 1790SOL    HW3 7234   1.992   1.270   3.051  0.1151  0.3814 -0.1361
 1790SOL    MW4 7235   2.067   1.294   3.015  0.1636  0.2643 -0.1123
 1791SOL     OW 7236   2.052   1.560   3.117  0.6086 -0.0683 -0.3864
 1791SOL    HW2 7237   2.058   1.552   3.212 -1.9113 -1.2688 -0.3034
 1791SOL    HW3 7238   2.055   1.470   3.085 -0.9421  0.1719 -1.2722
 1791SOL    MW4 7239   2.053   1.547   3.125  0.0713 -0.1950 -0.4923
 1792SOL     OW 7240   1.806   1.653   3.018  0.3024 -0.1347  0.7279
 1792SOL    HW2 7241   1.798   1.749   3.014 -0.0049 -0.1454  1.0588
 1792SOL    HW3 7242   1.892   1.638   3.057  1.1246 -0.0051 -1.0179
 1792SOL    MW4 7243   1.816   1.664   3.023  0.3704 -0.1191  0.5412
 1793SOL     OW 7244   1.795   1.924   3.083  0.6064 -0.2218 -0.1100
 1793SOL    HW2 7245   1.870   1.976   3.054  0.0187 -0.0642 -1.4135
 1793SOL    HW3 7246   1.718   1.978   3.062  0.0774 -0.8484  0.1694
 1793SOL    MW4 7247   1.794   1.938   3.076  0.4591 -0.2837 -0.2449
 1794SOL     OW 7248   2.013   2.058   2.975  0.1746 -0.0044 -0.0576
 1794SOL    HW2 7249   2.088   2.013   3.015  1.7142  1.0213 -1.6928
 1794SOL    HW3 7250   2.001   2.136   3.029 -0.8323 -1.0290  1.2257
 1794SOL    MW4 7251   2.021   2.063   2.988  0.2449 -0.0045 -0.1040
 1795SOL     OW 7252   1.980   2.285   3.118 -0.1638 -0.0107  0.0629
 1795SOL    HW2 7253   2.056   2.335   3.088 -0.9093  0.5904 -0.8720
 1795SOL    HW3 7254   1.905   2.339   3.091 -1.0192 -1.9996 -1.6171
 1795SOL    MW4 7255   1.980   2.299   3.110 -0.3750 -0.1938 -0.2820
 1796SOL     OW 7256   1.776   2.440   3.010 -0.5900  0.0016 -0.3058
 1796SOL    HW2 7257   1.777   2.530   3.043  2.1483 -0.6242  1.4538
 1796SOL    HW3 7258   1.696   2.403   3.047 -0.8631  1.2239  0.3621
 1796SOL    MW4 7259   1.765   2.447   3.020 -0.2646  0.0803  0.0143
 1797SOL     OW 7260   1.774   2.704   3.143 -0.1166  0.4228  0.0566
 1797SOL    HW2 7261   1.795   2.708   3.236 -0.5225  0.9502  0.1238
 1797SOL    HW3 7262   1.847   2.751   3.100  1.6105 -2.3105 -0.1401
 1797SOL    MW4 7263   1.787   2.711   3.149  0.0577  0.1318  0.0398
 1798SOL     OW 7264   1.994   2.837   3.033 -0.3448 -0.0976  0.6111
 1798SOL    HW2 7265   2.021   2.929   3.043  1.0320 -0.4283  0.0814
 1798SOL    HW3 7266   2.070   2.787   3.062 -0.8733 -1.0734  0.3177
 1798SOL    MW4 7267   2.008   2.843   3.038 -0.2329 -0.2699  0.5023
 1799SOL     OW 7268   2.033   3.096   3.121  0.1071 -0.1609  0.3682
 1799SOL    HW2 7269   2.032   3.092   3.216 -2.2263  1.2253  0.4239
 1799SOL    HW3 7270   1.946   3.128   3.097  1.0820  0.7035 -2.1718
 1799SOL    MW4 7271   2.021   3.100   3.130 -0.0722  0.1361  0.0403
 1800SOL     OW 7272   1.772   3.221   3.018 -0.5545 -0.0437  0.3053
 1800SOL    HW2 7273   1.698   3.164   3.038 -1.3235  0.3764 -1.3091
 1800SOL    HW3 7274   1.777   3.223   2.923 -0.8046  2.9131  0.2943
 1800SOL    MW4 7275   1.763   3.214   3.008 -0.6890  0.4020  0.0908
 1801SOL     OW 7276   1.794   3.474   3.114  0.3738  0.1970  0.6265
 1801SOL    HW2 7277   1.796   3.384   3.081  1.8390  0.4047  0.1136
 1801SOL    HW3 7278   1.733   3.520   3.056 -0.7391 -0.5582  1.1746
 1801SOL    MW4 7279   1.786   3.468   3.102  0.4203  0.1249  0.6311
 1802SOL     OW 7280   2.015   3.591   2.997  0.1880 -0.6101  0.4100
 1802SOL    HW2 7281   2.014   3.685   3.012 -0.1006 -0.5611  0.0880
 1802SOL    HW3 7282   1.941   3.557   3.048  0.2045 -0.6434  0.4119
 1802SOL    MW4 7283   2.005   3.599   3.006  0.1521 -0.6082  0.3679
 1803SOL     OW 7284   2.050   3.869   3.071  0.1181 -0.6226 -0.2716
 1803SOL    HW2 7285   2.060   3.871   3.166 -0.6914 -0.9115 -0.1721
 1803SOL    HW3 7286   1.961   3.903   3.056  0.4446 -0.0593 -0.9581
 1803SOL    MW4 7287   2.039   3.874   3.081  0.0541 -0.5867 -0.3490
 1804SOL     OW 7288   1.797   3.977   3.005  0.4349 -0.0921  0.2718
 1804SOL    HW2 7289   1.795   4.064   3.045 -0.2918 -0.7251  1.6434
 1804SOL    HW3 7290   1.811   3.994   2.911  1.5285  1.4348  0.6881
 1804SOL    MW4 7291   1.799   3.991   2.998  0.4833  0.0260  0.5076
 1805SOL     OW 7292   1.767   4.243   3.118  0.1822  0.0762 -0.2991
 1805SOL    HW2 7293   1.846   4.274   3.074  0.5202 -0.8494 -0.3487
 1805SOL    HW3 7294   1.697   4.296   3.080  0.6433  0.2073 -0.9880
 1805SOL    MW4 7295   1.768   4.254   3.107  0.2877 -0.0286 -0.3965
 1806SOL     OW 7296   1.991   4.347   2.989  0.3910 -0.0483  0.1423
 1806SOL    HW2 7297   1.975   4.432   3.029 -0.8546  0.3246 -1.1284
 1806SOL    HW3 7298   1.990   4.364   2.895 -1.0348 -1.6637 -0.1552
 1806SOL    MW4 7299   1.989   4.361   2.982  0.0386 -0.2122 -0.0646
 1807SOL     OW 7300   2.447   4.609   3.087 -0.0804  0.2508 -0.1877
 1807SOL    HW2 7301   2.441   4.521   3.051  0.1073  0.6482 -1.2057
 1807SOL    HW3 7302   2.367   4.652   3.057  0.1037  0.5987 -0.1786
 1807SOL    MW4 7303   2.435   4.603   3.078 -0.0315  0.3495 -0.3209
 1808SOL     OW 7304   2.227   0.090   3.007 -0.1697 -0.2415 -0.1508
 1808SOL    HW2 7305   2.231   0.181   3.035 -1.0130 -0.3016  0.1935
 1808SOL    HW3 7306   2.143   0.059   3.040  0.1764 -1.1853 -0.1524
 1808SOL    MW4 7307   2.216   0.098   3.015 -0.2351 -0.3740 -0.1059
 1809SOL     OW 7308   2.260   0.343   3.094 -0.2509  0.3991 -0.9737
 1809SOL    HW2 7309   2.263   0.339   3.189  0.6441 -0.1779 -1.0196
 1809SOL    HW3 7310   2.177   0.387   3.074  0.1075  1.5610  0.0883
 1809SOL    MW4 7311   2.249   0.348   3.104 -0.0858  0.4762 -0.8397
 1810SOL     OW 7312   2.485   0.496   3.023  0.1145  0.3030  0.0292
 1810SOL    HW2 7313   2.410   0.442   3.047  1.0934 -0.4629  1.4257
 1810SOL    HW3 7314   2.491   0.487   2.928  1.4037 -3.6303  0.3932
 1810SOL    MW4 7315   2.476   0.488   3.013  0.4134 -0.3170  0.2613
 1811SOL     OW 7316   2.475   0.774   3.089 -0.1070 -0.2274 -0.4435
 1811SOL    HW2 7317   2.544   0.820   3.040  0.5738 -1.1778 -0.3743
 1811SOL    HW3 7318   2.488   0.682   3.068  1.3731 -0.8829  2.9958
 1811SOL    MW4 7319   2.486   0.768   3.080  0.1781 -0.4393  0.0191
 1812SOL     OW 7320   2.229   0.836   2.992 -0.6300  0.1146 -0.0984
 1812SOL    HW2 7321   2.307   0.801   3.035  0.0816  1.7966  0.0256
 1812SOL    HW3 7322   2.158   0.821   3.054  0.3401  2.2505  1.6082
 1812SOL    MW4 7323   2.230   0.830   3.006 -0.4082  0.6183  0.1433
 1813SOL     OW 7324   2.265   1.131   3.053 -0.2887 -0.3209  0.2546
 1813SOL    HW2 7325   2.261   1.121   3.148 -1.4685 -0.1574  0.2317
 1813SOL    HW3 7326   2.268   1.041   3.020  0.8175 -0.3679  0.4629
 1813SOL    MW4 7327   2.265   1.117   3.061 -0.2985 -0.3055  0.2789
 1814SOL     OW 7328   2.469   1.296   2.975  0.2960  0.1729 -0.8036
 1814SOL    HW2 7329   2.389   1.246   2.996 -0.4638  0.7188 -2.3173
 1814SOL    HW3 7330   2.469   1.301   2.880  1.2664  1.6114 -0.7345
 1814SOL    MW4 7331   2.458   1.290   2.966  0.3238  0.4348 -0.9942
 1815SOL     OW 7332   2.473   1.550   3.090 -0.4653  0.4101  0.0307
 1815SOL    HW2 7333   2.395   1.601   3.067  0.1737  1.0629 -0.7333
 1815SOL    HW3 7334   2.459   1.465   3.048 -0.4025  0.8006 -0.8070
 1815SOL    MW4 7335   2.461   1.545   3.081 -0.3726  0.5476 -0.1805
 1816SOL     OW 7336   2.256   1.692   2.985 -0.0826  0.0861  0.0485
 1816SOL    HW2 7337   2.181   1.643   3.017  0.6502 -0.5836  0.7842
 1816SOL    HW3 7338   2.261   1.672   2.892 -2.2410  2.0376 -0.5291
 1816SOL    MW4 7339   2.247   1.683   2.977 -0.2708  0.2552  0.0696
 1817SOL     OW 7340   2.219   1.934   3.116 -0.0262 -0.3377 -0.5153
 1817SOL    HW2 7341   2.296   1.983   3.087  0.7601 -1.0945  0.2506
 1817SOL    HW3 7342   2.231   1.846   3.081  0.1175 -0.8132  0.7051
 1817SOL    MW4 7343   2.231   1.929   3.108  0.0966 -0.5002 -0.2532
 1818SOL     OW 7344   2.443   2.080   2.994  0.1131  0.5588 -0.1016
 1818SOL    HW2 7345   2.521   2.036   3.027  0.3785  0.8268 -0.3624
 1818SOL    HW3 7346   2.457   2.085   2.899  0.4967  1.9906  0.0141
 1818SOL    MW4 7347   2.455   2.075   2.986  0.1986  0.7830 -0.1206
 1819SOL     OW 7348   2.494   2.330   3.081 -0.2946  0.2292 -0.1652
 1819SOL    HW2 7349   2.498   2.327   3.176 -3.5907  1.0747  0.0500
 1819SOL    HW3 7350   2.467   2.241   3.055 -0.0260  0.1801 -0.2816
 1819SOL    MW4 7351   2.491   2.318   3.090 -0.6940  0.3345 -0.1523
 1820SOL     OW 7352   2.228   2.426   3.020  0.0255  0.2663 -0.1124
 1820SOL    HW2 7353   2.238   2.514   3.056 -0.1858  0.6678 -1.0292
 1820SOL    HW3 7354   2.305   2.378   3.052 -0.5260  0.4009  1.4717
 1820SOL    MW4 7355   2.239   2.431   3.029 -0.0751  0.3371 -0.0243
 1821SOL     OW 7356   2.225   2.706   3.107 -0.0129 -0.0507  0.1566
 1821SOL    HW2 7357   2.295   2.766   3.082  1.3941 -1.3993  0.7032
 1821SOL    HW3 7358   2.221   2.714   3.203 -1.6869  1.1577 -0.0020
 1821SOL    MW4 7359   2.234   2.715   3.117 -0.0482 -0.0694  0.2079
 1822SOL     OW 7360   2.419   2.874   3.004  0.0048  0.0920  0.2034
 1822SOL    HW2 7361   2.410   2.966   3.029 -0.0801  0.1449 -0.0225
 1822SOL    HW3 7362   2.426   2.875   2.909  1.7617 -0.0092  0.3135
 1822SOL    MW4 7363   2.419   2.886   2.995  0.2255  0.0856  0.1879
 1823SOL     OW 7364   2.421   3.134   3.099  0.4272 -0.5769 -0.5692
 1823SOL    HW2 7365   2.499   3.167   3.054  0.6496 -1.0871 -0.5542
 1823SOL    HW3 7366   2.348   3.182   3.058  0.9130  1.3741  0.7780
 1823SOL    MW4 7367   2.422   3.145   3.087  0.5207 -0.3870 -0.3893
 1824SOL     OW 7368   2.207   3.259   2.991 -0.0802  0.2984 -0.3768
 1824SOL    HW2 7369   2.212   3.348   3.026  1.3856  0.6798 -1.5085
 1824SOL    HW3 7370   2.143   3.215   3.047  0.5118  1.5488  1.3335
 1824SOL    MW4 7371   2.199   3.265   3.003  0.1912  0.5136 -0.3006
 1825SOL     OW 7372   2.233   3.496   3.115  0.3847 -0.2136  0.0526
 1825SOL    HW2 7373   2.314   3.541   3.090  0.9621 -1.0697  0.3790
 1825SOL    HW3 7374   2.165   3.543   3.067  0.9536  1.1604  0.5513
 1825SOL    MW4 7375   2.235   3.508   3.105  0.5362 -0.1452  0.1616
 1826SOL     OW 7376   2.460   3.619   2.985 -0.0861 -0.2511  0.2816
 1826SOL    HW2 7377   2.543   3.576   3.002  0.4191 -0.5321 -2.6299
 1826SOL    HW3 7378   2.472   3.709   3.017  0.6860 -0.7754  1.4923
 1826SOL    MW4 7379   2.472   3.625   2.992  0.0825 -0.3574  0.0570
 1827SOL     OW 7380   2.474   3.873   3.080  0.1275 -0.0472 -0.1147
 1827SOL    HW2 7381   2.476   3.880   3.175  0.7394 -0.9605 -0.0565
 1827SOL    HW3 7382   2.551   3.920   3.050 -0.2767  0.5773 -0.1863
 1827SOL    MW4 7383   2.484   3.880   3.088  0.1550 -0.0851 -0.1166
 1828SOL     OW 7384   2.263   3.997   2.981  0.6579  0.6409 -0.1806
 1828SOL    HW2 7385   2.332   3.948   3.026  0.9032  1.6635  0.5670
 1828SOL    HW3 7386   2.182   3.959   3.015  0.8420  1.3777  1.1092
 1828SOL    MW4 7387   2.262   3.985   2.991  0.7148  0.8726  0.0882
 1829SOL     OW 7388   2.221   4.254   3.108 -0.1540  0.1581 -0.1133
 1829SOL    HW2 7389   2.217   4.164   3.075 -2.1852 -0.0471  0.6340
 1829SOL    HW3 7390   2.149   4.299   3.065  2.8653  2.4188 -3.1253
 1829SOL    MW4 7391   2.211   4.248   3.098 -0.0238  0.4292 -0.4117
 1830SOL     OW 7392   2.445   4.351   2.960 -0.3430 -0.1997  0.1779
 1830SOL    HW2 7393   2.371   4.322   3.013  0.2508 -1.0078  0.5787
 1830SOL    HW3 7394   2.522   4.323   3.010  0.2439  1.6152  0.3160
 1830SOL    MW4 7395   2.446   4.343   2.974 -0.1872 -0.0672  0.2489
 1831SOL     OW 7396   2.900   0.019   3.120 -0.0212  0.7863  0.2236
 1831SOL    HW2 7397   2.923   0.031   3.212  1.3718  0.3782 -0.0642
 1831SOL    HW3 7398   2.971   0.061   3.072  0.5158 -1.1038 -0.6900
 1831SOL    MW4 7399   2.912   0.026   3.126  0.2334  0.4831  0.0651
 1832SOL     OW 7400   2.654   0.126   3.031  0.2758 -0.0480 -0.2051
 1832SOL    HW2 7401   2.738   0.092   3.062  0.2177  0.1495  0.1714
 1832SOL    HW3 7402   2.592   0.056   3.050  0.4344 -0.3933 -0.9288
 1832SOL    MW4 7403   2.657   0.112   3.038  0.2892 -0.0675 -0.2508
 1833SOL     OW 7404   2.691   0.386   3.162  0.0030 -0.1180  0.6059
 1833SOL    HW2 7405   2.665   0.295   3.148  0.1756 -0.0585 -0.1354
 1833SOL    HW3 7406   2.615   0.438   3.136  0.7465  0.0478 -1.3951
 1833SOL    MW4 7407   2.678   0.381   3.157  0.1237 -0.0883  0.2441
 1834SOL     OW 7408   2.908   0.462   2.989 -0.1962  0.7947  0.1584
 1834SOL    HW2 7409   2.828   0.424   3.025 -0.3814  0.9341 -0.1101
 1834SOL    HW3 7410   2.904   0.444   2.895  0.3890  0.2510  0.2266
 1834SOL    MW4 7411   2.897   0.454   2.981 -0.1438  0.7414  0.1318
 1835SOL     OW 7412   2.882   0.758   3.115 -0.2395  0.1952 -0.6231
 1835SOL    HW2 7413   2.889   0.764   3.211  0.2276  1.4301 -0.7333
 1835SOL    HW3 7414   2.889   0.664   3.097 -1.9639 -0.2191  0.6773
 1835SOL    MW4 7415   2.884   0.746   3.125 -0.4055  0.3034 -0.4661
 1836SOL     OW 7416   2.715   0.933   2.992  0.1069 -0.2838 -0.3787
 1836SOL    HW2 7417   2.696   1.010   3.046  0.6591  0.2264 -0.9037
 1836SOL    HW3 7418   2.786   0.889   3.038 -0.0462 -0.3483 -0.2043
 1836SOL    MW4 7419   2.722   0.937   3.005  0.1595 -0.2251 -0.4249
 1837SOL     OW 7420   2.681   1.193   3.145 -0.1685  0.2828 -0.3832
 1837SOL    HW2 7421   2.764   1.233   3.117  0.3641 -2.0661 -2.3459
 1837SOL    HW3 7422   2.614   1.247   3.103  0.5011 -0.1560 -2.0895
 1837SOL    MW4 7423   2.683   1.206   3.135 -0.0098 -0.0851 -0.8671
 1838SOL     OW 7424   2.921   1.301   3.033  0.8089 -0.1047  0.3021
 1838SOL    HW2 7425   2.998   1.256   3.069  1.3633  0.8832  0.3646
 1838SOL    HW3 7426   2.935   1.393   3.055 -0.4578  0.0682  0.4245
 1838SOL    MW4 7427   2.933   1.307   3.041  0.7150  0.0485  0.3266
 1839SOL     OW 7428   2.947   1.565   3.088  0.2363  0.3685  0.1102
 1839SOL    HW2 7429   2.941   1.567   3.184  0.7382 -1.8345  0.2245
 1839SOL    HW3 7430   3.028   1.610   3.068  0.4788  0.2423  0.7783
 1839SOL    MW4 7431   2.957   1.571   3.098  0.3347  0.0613  0.2131
 1840SOL     OW 7432   2.722   1.686   3.048 -0.4523 -0.4147 -0.1705
 1840SOL    HW2 7433   2.803   1.639   3.070  0.1421  1.2309  1.3373
 1840SOL    HW3 7434   2.652   1.624   3.068  0.2471 -0.2063  3.1692
 1840SOL    MW4 7435   2.724   1.671   3.053 -0.2816 -0.1701  0.4690
 1841SOL     OW 7436   2.686   1.973   3.057  0.9132 -0.7685 -0.1378
 1841SOL    HW2 7437   2.754   2.013   3.003  0.3966 -0.0585 -0.2673
 1841SOL    HW3 7438   2.697   1.878   3.044  0.9146 -0.6097 -1.3389
 1841SOL    MW4 7439   2.696   1.965   3.048  0.8452 -0.6537 -0.3135
 1842SOL     OW 7440   2.903   2.079   2.958 -0.0745 -0.4102  0.1005
 1842SOL    HW2 7441   2.929   2.161   3.000 -0.7980  0.3985 -1.0037
 1842SOL    HW3 7442   2.902   2.099   2.865 -1.5198 -1.3089 -0.0910
 1842SOL    MW4 7443   2.906   2.093   2.951 -0.3605 -0.4220 -0.0706
 1843SOL     OW 7444   2.915   2.349   3.084 -0.2266  0.1650  0.7933
 1843SOL    HW2 7445   2.984   2.414   3.071  0.5846 -0.9151 -0.4998
 1843SOL    HW3 7446   2.838   2.387   3.042  0.1359  0.4769  0.3942
 1843SOL    MW4 7447   2.914   2.362   3.077 -0.0718  0.0637  0.5698
 1844SOL     OW 7448   2.696   2.477   2.950 -0.0987  0.3591 -0.0570
 1844SOL    HW2 7449   2.690   2.568   2.979 -1.2231  1.4006 -3.2566
 1844SOL    HW3 7450   2.616   2.436   2.983  0.2534  0.5989  1.1221
 1844SOL    MW4 7451   2.685   2.484   2.958 -0.2010  0.5281 -0.3235
 1845SOL     OW 7452   2.645   2.717   3.082 -0.2497  0.3757  0.3276
 1845SOL    HW2 7453   2.647   2.711   3.177 -1.6717 -0.1261  0.3440
 1845SOL    HW3 7454   2.560   2.757   3.063 -0.6935 -1.0737 -0.8022
 1845SOL    MW4 7455   2.634   2.722   3.092 -0.4961  0.1185  0.1805
 1846SOL     OW 7456   2.873   2.850   2.964 -0.0063 -0.2601  0.2599
 1846SOL    HW2 7457   2.952   2.810   3.001 -0.2981 -2.0641 -0.9742
 1846SOL    HW3 7458   2.801   2.814   3.016 -0.2162 -0.8119 -0.4019
 1846SOL    MW4 7459   2.874   2.840   2.976 -0.0727 -0.5710  0.0100
 1847SOL     OW 7460   2.891   3.135   3.055  0.0301  0.2214 -0.0018
 1847SOL    HW2 7461   2.808   3.165   3.017  0.6095  0.0986 -1.3872
 1847SOL    HW3 7462   2.899   3.044   3.028 -0.3691 -0.4069  1.8749
 1847SOL    MW4 7463   2.881   3.127   3.047  0.0539  0.1221  0.0629
 1848SOL     OW 7464   2.639   3.241   2.964 -0.6789 -0.2251 -0.2209
 1848SOL    HW2 7465   2.647   3.329   3.001  0.3498 -1.2577  2.0898
 1848SOL    HW3 7466   2.664   3.252   2.872  0.7740  1.6760  0.3543
 1848SOL    MW4 7467   2.644   3.254   2.956 -0.3514 -0.1104  0.1600
 1849SOL     OW 7468   2.678   3.486   3.089 -0.0482 -0.7426  0.2644
 1849SOL    HW2 7469   2.675   3.483   3.185 -0.8538  0.3253  0.2751
 1849SOL    HW3 7470   2.758   3.535   3.069  0.7715 -2.0228  0.3682
 1849SOL    MW4 7471   2.688   3.492   3.099 -0.0465 -0.7708  0.2794
 1850SOL     OW 7472   2.895   3.626   2.984  0.3592  0.2672 -0.1276
 1850SOL    HW2 7473   2.973   3.575   3.008  0.2718  0.5474  0.7591
 1850SOL    HW3 7474   2.908   3.710   3.027 -1.0734 -0.1423  1.1532
 1850SOL    MW4 7475   2.907   3.630   2.993  0.1588  0.2503  0.1585
 1851SOL     OW 7476   2.902   3.866   3.100 -0.0921  0.0647  0.0723
 1851SOL    HW2 7477   2.902   3.889   3.193 -0.2333  2.2590 -0.4431
 1851SOL    HW3 7478   2.820   3.903   3.067  0.7547  0.7753 -1.2650
 1851SOL    MW4 7479   2.891   3.874   3.108  0.0012  0.4480 -0.1721
 1852SOL     OW 7480   2.698   4.009   2.982 -0.1333  0.3459 -0.2807
 1852SOL    HW2 7481   2.708   4.102   3.003 -1.2333  0.5087 -0.4486
 1852SOL    HW3 7482   2.683   4.007   2.888 -0.3315  0.0138 -0.2441
 1852SOL    MW4 7483   2.697   4.021   2.972 -0.3045  0.3238 -0.2978
 1853SOL     OW 7484   2.679   4.272   3.084 -0.1104 -0.5550 -0.2751
 1853SOL    HW2 7485   2.702   4.255   3.175  0.0895  1.3672  0.0608
 1853SOL    HW3 7486   2.750   4.327   3.051 -0.7833 -0.2392 -1.2371
 1853SOL    MW4 7487   2.691   4.277   3.092 -0.1729 -0.2594 -0.3579
 1854SOL     OW 7488   2.893   4.415   2.993 -0.3282  0.5034 -0.2024
 1854SOL    HW2 7489   2.881   4.495   3.044  1.5849  1.0618 -0.6195
 1854SOL    HW3 7490   2.973   4.375   3.027 -0.5436 -0.5622 -0.8930
 1854SOL    MW4 7491   2.902   4.420   3.004 -0.1044  0.4363 -0.3486
 1855SOL     OW 7492   3.328   0.018   3.112 -0.7617 -0.0044 -0.6589
 1855SOL    HW2 7493   3.407   0.063   3.084 -1.0236  0.9591  0.0845
 1855SOL    HW3 7494   3.331  -0.067   3.070  0.8378 -0.0965 -0.3667
 1855SOL    MW4 7495   3.339   0.013   3.103 -0.5851  0.1106 -0.5224
 1856SOL     OW 7496   3.127   0.155   3.009  0.2845  0.0850 -0.2135
 1856SOL    HW2 7497   3.142   0.246   3.036  0.9422 -0.0414 -0.1358
 1856SOL    HW3 7498   3.201   0.107   3.046  0.0862 -0.4360 -0.4910
 1856SOL    MW4 7499   3.139   0.161   3.017  0.3450 -0.0004 -0.2398
 1857SOL     OW 7500   3.152   0.415   3.111  0.2482 -0.2589  0.4152
 1857SOL    HW2 7501   3.211   0.479   3.071  0.3860 -0.7766 -0.2198
 1857SOL    HW3 7502   3.067   0.430   3.070  0.4249 -0.8907 -0.1845
 1857SOL    MW4 7503   3.149   0.425   3.101  0.2897 -0.4106  0.2525
 1858SOL     OW 7504   3.359   0.569   3.007  0.2813 -0.1448  0.7868
 1858SOL    HW2 7505   3.433   0.524   3.047  2.6932  1.8966 -1.1659
 1858SOL    HW3 7506   3.369   0.553   2.913 -0.1311  2.4634  0.2495
 1858SOL    MW4 7507   3.370   0.561   3.000  0.5453  0.4687  0.4582
 1859SOL     OW 7508   3.342   0.833   3.112 -0.1546 -0.9378 -0.0283
 1859SOL    HW2 7509   3.363   0.832   3.205  0.5745 -0.0267 -0.1745
 1859SOL    HW3 7510   3.347   0.742   3.085 -0.8551 -1.2652  0.9314
 1859SOL    MW4 7511   3.345   0.821   3.121 -0.1509 -0.8608  0.0792
 1860SOL     OW 7512   3.106   0.919   3.008 -0.1735 -0.3112  0.0076
 1860SOL    HW2 7513   3.191   0.889   3.039 -0.0268 -1.3622 -1.3719
 1860SOL    HW3 7514   3.043   0.861   3.051  0.0798 -2.3410 -2.2560
 1860SOL    MW4 7515   3.109   0.908   3.018 -0.1209 -0.7176 -0.4730
 1861SOL     OW 7516   3.170   1.183   3.096  0.5404  0.2599  0.4536
 1861SOL    HW2 7517   3.246   1.217   3.049  0.3010  0.6198  0.3271
 1861SOL    HW3 7518   3.149   1.100   3.052  0.5832  0.3799  0.2079
 1861SOL    MW4 7519   3.178   1.176   3.084  0.5145  0.3232  0.4044
 1862SOL     OW 7520   3.398   1.305   2.976 -0.3971 -0.1054  0.1876
 1862SOL    HW2 7521   3.485   1.267   2.994 -0.6248 -0.8344 -0.2110
 1862SOL    HW3 7522   3.393   1.381   3.033 -0.8670 -2.0361  2.8566
 1862SOL    MW4 7523   3.409   1.310   2.986 -0.4892 -0.4563  0.4873
 1863SOL     OW 7524   3.369   1.529   3.122 -0.5591 -0.0032  0.3192
 1863SOL    HW2 7525   3.365   1.547   3.216 -2.5353  1.6575 -0.0383
 1863SOL    HW3 7526   3.418   1.602   3.086 -0.6831 -0.1012 -0.0451
 1863SOL    MW4 7527   3.375   1.541   3.130 -0.8364  0.2029  0.2239
 1864SOL     OW 7528   3.166   1.709   2.985  0.4933 -0.7650  0.1616
 1864SOL    HW2 7529   3.247   1.659   2.998  1.4948  0.7209 -0.2698
 1864SOL    HW3 7530   3.174   1.746   2.897  0.4979  1.4454  1.0676
 1864SOL    MW4 7531   3.178   1.707   2.975  0.6258 -0.2772  0.2244
 1865SOL     OW 7532   3.171   1.959   3.092  0.9266  0.1122 -0.3651
 1865SOL    HW2 7533   3.184   1.868   3.065  0.6349 -0.0144 -0.0811
 1865SOL    HW3 7534   3.091   1.986   3.049 -0.2069 -0.4735  1.3106
 1865SOL    MW4 7535   3.162   1.950   3.083  0.7381  0.0182 -0.1068
 1866SOL     OW 7536   3.350   2.143   3.002  0.0488  0.0046 -0.3382
 1866SOL    HW2 7537   3.429   2.104   3.040  0.2090 -0.7435 -1.4159
 1866SOL    HW3 7538   3.280   2.083   3.028  0.0762 -0.2000 -0.7316
 1866SOL    MW4 7539   3.351   2.130   3.011  0.0734 -0.1209 -0.5324
 1867SOL     OW 7540   3.347   2.377   3.121 -0.3287 -0.4201  0.4298
 1867SOL    HW2 7541   3.359   2.355   3.214 -1.2470  0.3158  0.7319
 1867SOL    HW3 7542   3.351   2.293   3.076 -0.6459 -0.8683  1.2180
 1867SOL    MW4 7543   3.349   2.363   3.127 -0.4916 -0.3822  0.5736
 1868SOL     OW 7544   3.126   2.502   3.000 -0.0065  0.1005  0.4354
 1868SOL    HW2 7545   3.200   2.464   3.047 -0.9459 -1.0162  1.0419
 1868SOL    HW3 7546   3.147   2.490   2.908 -0.3304 -2.0179  0.6196
 1868SOL    MW4 7547   3.139   2.496   2.994 -0.1733 -0.3264  0.5398
 1869SOL     OW 7548   3.112   2.758   3.050  0.1373 -0.5697 -0.2815
 1869SOL    HW2 7549   3.105   2.757   3.146  1.0187  0.1462 -0.2101
 1869SOL    HW3 7550   3.120   2.666   3.026 -1.4938 -0.8625  0.2261
 1869SOL    MW4 7551   3.112   2.746   3.060  0.0386 -0.5140 -0.2053
 1870SOL     OW 7552   3.375   2.825   2.981 -0.2040 -0.4094  0.0189
 1870SOL    HW2 7553   3.392   2.911   3.019  1.0491 -0.0671 -1.2816
 1870SOL    HW3 7554   3.297   2.794   3.027  0.9481  0.2166  2.4510
 1870SOL    MW4 7555   3.367   2.832   2.992  0.1135 -0.2813  0.1681
 1871SOL     OW 7556   3.384   3.096   3.087  0.1266  0.4531 -0.1444
 1871SOL    HW2 7557   3.384   3.113   3.182  1.4081  1.0448 -0.2461
 1871SOL    HW3 7558   3.308   3.142   3.054  0.6962  1.7483  0.3396
 1871SOL    MW4 7559   3.374   3.104   3.096  0.3705  0.7019 -0.0939
 1872SOL     OW 7560   3.165   3.222   2.976  0.1090 -0.0933  0.2593
 1872SOL    HW2 7561   3.075   3.193   2.994  0.1401  0.0814  0.7032
 1872SOL    HW3 7562   3.179   3.200   2.884 -0.0656 -0.9718  0.4343
 1872SOL    MW4 7563   3.155   3.215   2.966  0.0904 -0.1860  0.3412
 1873SOL     OW 7564   3.126   3.490   3.068  0.4383  0.2330 -0.1367
 1873SOL    HW2 7565   3.197   3.547   3.038 -1.0641  1.0465 -2.2414
 1873SOL    HW3 7566   3.152   3.403   3.038  0.1508  0.6643 -1.6801
 1873SOL    MW4 7567   3.139   3.486   3.060  0.2019  0.3970 -0.6182
 1874SOL     OW 7568   3.330   3.651   3.015 -0.0309 -0.2779  0.0624
 1874SOL    HW2 7569   3.412   3.609   3.042 -0.3776 -0.9421  0.0939
 1874SOL    HW3 7570   3.334   3.739   3.054  0.8726 -0.1418 -0.3212
 1874SOL    MW4 7571   3.342   3.657   3.024  0.0427 -0.3476  0.0160
 1875SOL     OW 7572   3.342   3.906   3.121  0.0286 -0.1696 -0.0305
 1875SOL    HW2 7573   3.341   3.906   3.216  0.1843  0.4257 -0.0276
 1875SOL    HW3 7574   3.258   3.945   3.096 -0.2261 -0.7790 -0.1431
 1875SOL    MW4 7575   3.331   3.911   3.130  0.0153 -0.1712 -0.0451
 1876SOL     OW 7576   3.089   4.048   3.017 -0.3790  0.4327 -0.2213
 1876SOL    HW2 7577   3.024   3.991   3.057  0.6246 -0.5201  0.1033
 1876SOL    HW3 7578   3.096   4.017   2.927  1.4036 -1.1249  0.4138
 1876SOL    MW4 7579   3.082   4.036   3.011 -0.0117  0.1016 -0.0947
 1877SOL     OW 7580   3.116   4.309   3.079  0.4611  0.0227  0.2154
 1877SOL    HW2 7581   3.117   4.311   3.175 -0.6655 -0.7728  0.2527
 1877SOL    HW3 7582   3.092   4.219   3.057  1.3783  0.0223 -0.8296
 1877SOL    MW4 7583   3.113   4.297   3.089  0.4334 -0.0820  0.0823
 1878SOL     OW 7584   3.347   4.429   2.996  0.1823  0.2626 -0.0148
 1878SOL    HW2 7585   3.430   4.388   3.020  0.2761 -0.1819 -1.0677
 1878SOL    HW3 7586   3.280   4.373   3.036  0.3225 -0.7439 -1.1469
 1878SOL    MW4 7587   3.349   4.416   3.004  0.2131  0.0706 -0.3030
 1879SOL     OW 7588   3.781   0.003   3.111  0.1111 -0.2774  0.3392
 1879SOL    HW2 7589   3.781  -0.085   3.075 -0.2529  0.1366 -0.6746
 1879SOL    HW3 7590   3.706   0.047   3.071  0.4988  0.6067  0.5505
 1879SOL    MW4 7591   3.771  -0.003   3.101  0.1142 -0.1059  0.2334
 1880SOL     OW 7592   3.555   0.136   3.005 -0.1741  0.8499  0.0123
 1880SOL    HW2 7593   3.551   0.229   3.027 -0.9394  0.8827 -0.2418
 1880SOL    HW3 7594   3.542   0.133   2.911  2.8636  0.6931 -0.4507
 1880SOL    MW4 7595   3.553   0.148   2.996  0.1259  0.8335 -0.0825
 1881SOL     OW 7596   3.559   0.433   3.100 -0.4696 -0.1112 -0.3819
 1881SOL    HW2 7597   3.585   0.426   3.192 -0.2459 -0.0284 -0.4385
 1881SOL    HW3 7598   3.633   0.478   3.058 -0.1316 -1.0433 -0.7892
 1881SOL    MW4 7599   3.572   0.438   3.107 -0.3955 -0.2233 -0.4430
 1882SOL     OW 7600   3.771   0.538   2.973 -0.1932 -0.2241  0.0581
 1882SOL    HW2 7601   3.843   0.491   3.015  0.9397 -0.2460 -1.8843
 1882SOL    HW3 7602   3.771   0.624   3.014 -0.0359 -0.7315  1.1408
 1882SOL    MW4 7603   3.780   0.543   2.984 -0.0226 -0.2940 -0.0551
 1883SOL     OW 7604   3.784   0.811   3.092  0.0843  0.4666 -0.5370
 1883SOL    HW2 7605   3.767   0.808   3.186  0.4613 -0.0557 -0.4833
 1883SOL    HW3 7606   3.875   0.839   3.085  0.7499 -1.6723 -0.6761
 1883SOL    MW4 7607   3.793   0.814   3.104  0.2217  0.1155 -0.5484
 1884SOL     OW 7608   3.563   0.921   2.973 -0.4370 -0.0086  0.3431
 1884SOL    HW2 7609   3.635   0.881   3.023 -1.1052  2.4761  3.4192
 1884SOL    HW3 7610   3.484   0.893   3.019 -1.0806  2.3221  0.6743
 1884SOL    MW4 7611   3.562   0.912   2.985 -0.6101  0.6267  0.7923
 1885SOL     OW 7612   3.626   1.169   3.074 -0.0228  0.0615  0.2682
 1885SOL    HW2 7613   3.713   1.196   3.045  0.4579  0.4881  2.0354
 1885SOL    HW3 7614   3.608   1.089   3.025  1.3913 -0.0629 -0.0584
 1885SOL    MW4 7615   3.635   1.162   3.063  0.2275  0.1013  0.4582
 1886SOL     OW 7616   3.855   1.305   2.995  0.0355  0.0307  0.1647
 1886SOL    HW2 7617   3.814   1.389   3.013 -0.5971  0.0347 -1.1802
 1886SOL    HW3 7618   3.832   1.287   2.904 -0.5709 -2.0076  0.6953
 1886SOL    MW4 7619   3.847   1.314   2.985 -0.1278 -0.2377  0.0575
 1887SOL     OW 7620   3.764   1.549   3.069 -0.0750 -0.0991  0.1220
 1887SOL    HW2 7621   3.770   1.556   3.164 -0.5543 -1.0326  0.2289
 1887SOL    HW3 7622   3.691   1.606   3.045  1.9397  2.4685 -0.0112
 1887SOL    MW4 7623   3.755   1.557   3.078  0.1278  0.1166  0.1185
 1888SOL     OW 7624   3.537   1.721   2.988 -0.0806  0.7455 -0.0085
 1888SOL    HW2 7625   3.536   1.809   3.024 -1.0903  0.7017  0.0777
 1888SOL    HW3 7626   3.536   1.733   2.893 -1.7351  0.8173  0.0088
 1888SOL    MW4 7627   3.537   1.734   2.980 -0.4320  0.7491  0.0052
 1889SOL     OW 7628   3.582   2.002   3.080  0.2247 -0.1498  0.0151
 1889SOL    HW2 7629   3.577   1.992   3.176 -0.5029  0.9869  0.1189
 1889SOL    HW3 7630   3.675   2.011   3.061  0.2884  0.9572  0.7840
 1889SOL    MW4 7631   3.593   2.002   3.091  0.1373  0.1462  0.1299
 1890SOL     OW 7632   3.843   2.015   3.016 -0.1322 -0.3438  0.4423
 1890SOL    HW2 7633   3.841   2.110   3.028 -2.8001 -0.3033  0.0236
 1890SOL    HW3 7634   3.844   2.002   2.922 -0.8612 -0.7360  0.4868
 1890SOL    MW4 7635   3.843   2.026   3.005 -0.5803 -0.3903  0.3929
 1891SOL     OW 7636   3.832   2.288   3.069  0.0056  0.3923 -0.4081
 1891SOL    HW2 7637   3.811   2.300   3.161  0.2943  0.2736 -0.3274
 1891SOL    HW3 7638   3.760   2.331   3.022  0.0169  0.7205 -0.1275
 1891SOL    MW4 7639   3.820   2.296   3.075  0.0451  0.4201 -0.3605
 1892SOL     OW 7640   3.603   2.452   3.017 -0.2832 -0.0446 -0.2956
 1892SOL    HW2 7641   3.618   2.544   3.041  1.4298 -0.1323 -0.9377
 1892SOL    HW3 7642   3.522   2.429   3.061 -0.5101  1.6599  0.2296
 1892SOL    MW4 7643   3.594   2.461   3.026 -0.0873  0.1686 -0.3109
 1893SOL     OW 7644   3.614   2.720   3.099  0.1321 -0.3089  0.0759
 1893SOL    HW2 7645   3.670   2.783   3.053  0.3217 -0.7882 -0.3496
 1893SOL    HW3 7646   3.525   2.748   3.077  0.0689  2.4282  3.3436
 1893SOL    MW4 7647   3.609   2.732   3.090  0.1488 -0.0110  0.4511
 1894SOL     OW 7648   3.790   2.913   2.971 -0.2809  0.1060 -0.4349
 1894SOL    HW2 7649   3.795   3.005   2.994  2.8284 -0.2897  0.6925
 1894SOL    HW3 7650   3.789   2.912   2.875 -1.1576  1.3326 -0.4439
 1894SOL    MW4 7651   3.791   2.925   2.961  0.0138  0.2158 -0.2873
 1895SOL     OW 7652   3.815   3.154   3.100  0.4536 -0.6833  1.0903
 1895SOL    HW2 7653   3.904   3.183   3.078  0.6238 -1.6476  0.4773
 1895SOL    HW3 7654   3.807   3.172   3.194  1.3874 -0.8263  1.2099
 1895SOL    MW4 7655   3.826   3.160   3.110  0.5994 -0.8295  1.0252
 1896SOL     OW 7656   3.589   3.253   2.967 -0.0945  0.0775 -0.2857
 1896SOL    HW2 7657   3.516   3.202   3.002 -0.9030  0.3038 -1.5886
 1896SOL    HW3 7658   3.667   3.215   3.008 -0.8342 -1.0755  0.0738
 1896SOL    MW4 7659   3.590   3.241   2.977 -0.2987 -0.0446 -0.4103
 1897SOL     OW 7660   3.561   3.509   3.066  0.0863 -0.3679  0.3414
 1897SOL    HW2 7661   3.643   3.551   3.038  0.4660 -1.1597  0.2456
 1897SOL    HW3 7662   3.568   3.420   3.033 -0.4961 -0.6481  0.9715
 1897SOL    MW4 7663   3.573   3.503   3.058  0.0594 -0.5095  0.4120
 1898SOL     OW 7664   3.806   3.641   3.007  0.2253  0.0702 -0.4099
 1898SOL    HW2 7665   3.788   3.727   3.045  0.4036  0.0429 -0.2608
 1898SOL    HW3 7666   3.798   3.654   2.913 -1.3226 -0.1135 -0.3223
 1898SOL    MW4 7667   3.803   3.654   3.000  0.0446  0.0424 -0.3784
 1899SOL     OW 7668   3.789   3.893   3.105  0.1695 -0.4257 -0.3954
 1899SOL    HW2 7669   3.800   3.905   3.199  2.7104  3.5296 -1.1020
 1899SOL    HW3 7670   3.717   3.951   3.081  1.1564  0.4851 -1.2257
 1899SOL    MW4 7671   3.781   3.902   3.114  0.6349  0.2162 -0.5982
 1900SOL     OW 7672   3.557   4.029   2.985  0.1709 -0.1657 -0.3320
 1900SOL    HW2 7673   3.482   3.985   3.026  1.1899 -0.8334  0.8217
 1900SOL    HW3 7674   3.552   4.003   2.893 -0.6208 -0.7584 -0.1290
 1900SOL    MW4 7675   3.546   4.019   2.978  0.2007 -0.3324 -0.1531
 1901SOL     OW 7676   3.586   4.302   3.055  0.8991  0.0730 -0.1122
 1901SOL    HW2 7677   3.677   4.327   3.041  0.4019  0.6254 -2.5694
 1901SOL    HW3 7678   3.582   4.210   3.029  0.7191  0.1038 -0.1983
 1901SOL    MW4 7679   3.597   4.293   3.050  0.8099  0.1502 -0.4480
 1902SOL     OW 7680   3.832   4.407   3.004 -0.0799 -0.1774  0.4793
 1902SOL    HW2 7681   3.911   4.355   3.018 -1.0075 -1.2134  1.9865
 1902SOL    HW3 7682   3.817   4.403   2.910  3.2047  2.3735 -0.2690
 1902SOL    MW4 7683   3.840   4.400   2.993  0.2310  0.0224  0.5794
 1903SOL     OW 7684   4.231   4.664   3.089 -0.4384  0.1308 -0.1168
 1903SOL    HW2 7685   4.227   4.646   3.183  0.3326  0.0526 -0.1011
 1903SOL    HW3 7686   4.215   4.579   3.047 -1.1874  0.2394 -0.0658
 1903SOL    MW4 7687   4.228   4.650   3.096 -0.4354  0.1345 -0.1080
 1904SOL     OW 7688   4.018   0.133   3.007 -0.0092  0.5965  0.0694
 1904SOL    HW2 7689   4.094   0.090   3.044 -0.0768  0.3486 -0.0715
 1904SOL    HW3 7690   3.943   0.084   3.042 -0.0699  0.3323 -0.4261
 1904SOL    MW4 7691   4.018   0.121   3.016 -0.0257  0.5289 -0.0145
 1905SOL     OW 7692   3.979   0.407   3.114 -0.1183 -0.0998 -0.8097
 1905SOL    HW2 7693   4.056   0.446   3.073  0.9935 -0.1647  1.1272
 1905SOL    HW3 7694   3.987   0.313   3.096  0.4444 -0.1469 -0.3438
 1905SOL    MW4 7695   3.991   0.400   3.107  0.1025 -0.1146 -0.4928
 1906SOL     OW 7696   4.216   0.527   2.977  0.1818  0.3301 -0.2252
 1906SOL    HW2 7697   4.235   0.618   3.002 -1.1725  0.6609 -0.3233
 1906SOL    HW3 7698   4.205   0.531   2.882  0.8984 -0.0866 -0.3252
 1906SOL    MW4 7699   4.217   0.540   2.967  0.0973  0.3187 -0.2511
 1907SOL     OW 7700   4.257   0.765   3.130 -0.3425 -0.1978  0.4168
 1907SOL    HW2 7701   4.183   0.815   3.096  0.1105  0.1091 -0.1223
 1907SOL    HW3 7702   4.332   0.792   3.076  0.0423 -0.9514  0.5630
 1907SOL    MW4 7703   4.257   0.775   3.118 -0.2317 -0.2568  0.3650
 1908SOL     OW 7704   4.053   0.901   3.028 -0.3074 -0.8645  0.2186
 1908SOL    HW2 7705   4.061   0.993   3.052 -0.6613 -0.8990  0.4889
 1908SOL    HW3 7706   4.064   0.899   2.933 -2.0271 -0.3244 -0.0075
 1908SOL    MW4 7707   4.055   0.913   3.019 -0.5808 -0.7977  0.2244
 1909SOL     OW 7708   4.077   1.176   3.113 -0.3030 -0.0350 -0.1006
 1909SOL    HW2 7709   4.067   1.176   3.208 -1.0800 -0.2818 -0.1724
 1909SOL    HW3 7710   3.996   1.217   3.081 -0.9957 -1.8496 -0.7269
 1909SOL    MW4 7711   4.065   1.182   3.121 -0.4969 -0.3071 -0.1926
 1910SOL     OW 7712   4.299   1.262   2.999 -0.3141  0.5379  0.1659
 1910SOL    HW2 7713   4.220   1.219   3.032 -0.8297  1.0357 -0.4190
 1910SOL    HW3 7714   4.296   1.250   2.904  0.3901  0.4277  0.1534
 1910SOL    MW4 7715   4.288   1.255   2.991 -0.2894  0.5891  0.0870
 1911SOL     OW 7716   4.233   1.505   3.130 -0.3804  0.5277 -0.2426
 1911SOL    HW2 7717   4.171   1.566   3.092 -1.6909 -0.7880 -0.2677
 1911SOL    HW3 7718   4.234   1.430   3.070  0.7077  0.2296  0.1224
 1911SOL    MW4 7719   4.225   1.503   3.117 -0.4091  0.3147 -0.1976
 1912SOL     OW 7720   4.032   1.684   3.026  0.6062  0.2685  0.5570
 1912SOL    HW2 7721   4.033   1.764   3.079  0.9781  0.5742  0.1036
 1912SOL    HW3 7722   3.953   1.638   3.053  0.2568  0.9134  0.6568
 1912SOL    MW4 7723   4.021   1.689   3.036  0.6094  0.3940  0.5105
 1913SOL     OW 7724   4.072   1.931   3.141 -0.1559 -0.2226 -0.1849
 1913SOL    HW2 7725   4.142   1.969   3.088  0.6754  0.5941  1.4673
 1913SOL    HW3 7726   3.992   1.967   3.104  0.5083  1.5249  0.0608
 1913SOL    MW4 7727   4.071   1.941   3.129  0.0415  0.1156  0.0656
 1914SOL     OW 7728   4.268   2.064   3.006 -0.0803 -0.5123 -0.5065
 1914SOL    HW2 7729   4.261   2.143   3.058 -0.3939 -1.1096  0.3631
 1914SOL    HW3 7730   4.251   2.093   2.916  2.0565  0.7960 -0.5239
 1914SOL    MW4 7731   4.265   2.078   3.001  0.1607 -0.4187 -0.3939
 1915SOL     OW 7732   4.260   2.325   3.122 -0.5527  0.5436  0.4213
 1915SOL    HW2 7733   4.192   2.378   3.080  0.3921  1.0972 -0.4143
 1915SOL    HW3 7734   4.342   2.355   3.083  0.1052 -0.6721  0.8411
 1915SOL    MW4 7735   4.262   2.336   3.111 -0.3409  0.4563  0.3664
 1916SOL     OW 7736   4.029   2.460   3.016  0.2263  0.3774 -0.0069
 1916SOL    HW2 7737   3.998   2.548   3.035 -0.3191  0.0530  0.6336
 1916SOL    HW3 7738   3.960   2.402   3.048  1.0128 -0.3218  0.4710
 1916SOL    MW4 7739   4.016   2.464   3.023  0.2580  0.2422  0.1407
 1917SOL     OW 7740   4.006   2.756   3.025  0.3900  0.1283  0.1634
 1917SOL    HW2 7741   3.995   2.729   3.117  1.0707  0.3872  0.3225
 1917SOL    HW3 7742   3.934   2.817   3.010  0.4926  0.3712  0.6406
 1917SOL    MW4 7743   3.995   2.760   3.035  0.4938  0.1943  0.2472
 1918SOL     OW 7744   4.268   2.858   3.039  0.4831  0.2461  0.2045
 1918SOL    HW2 7745   4.191   2.801   3.044  0.4632  0.3165  0.7028
 1918SOL    HW3 7746   4.342   2.798   3.050  0.3988  0.5703  2.8104
 1918SOL    MW4 7747   4.268   2.842   3.041  0.4687  0.2983  0.6142
 1919SOL     OW 7748   4.228   3.097   3.138  0.0642  0.1790  0.1523
 1919SOL    HW2 7749   4.181   3.143   3.068 -1.2452  0.0599  0.9308
 1919SOL    HW3 7750   4.241   3.009   3.104  0.5361  0.4659 -0.4285
 1919SOL    MW4 7751   4.223   3.092   3.124 -0.0467  0.2012  0.1786
 1920SOL     OW 7752   4.059   3.230   2.968  0.0808  0.5149 -0.6570
 1920SOL    HW2 7753   4.030   3.315   3.001  0.5062  0.3149  0.2645
 1920SOL    HW3 7754   4.062   3.240   2.873 -0.1377  1.4419 -0.5698
 1920SOL    MW4 7755   4.055   3.242   2.960  0.1078  0.6106 -0.5236
 1921SOL     OW 7756   4.005   3.477   3.075 -0.3729 -0.5746  0.0738
 1921SOL    HW2 7757   4.010   3.483   3.170  1.3715  0.1101 -0.0398
 1921SOL    HW3 7758   3.930   3.533   3.051 -1.1600 -1.1846  1.0625
 1921SOL    MW4 7759   3.996   3.485   3.084 -0.2468 -0.5646  0.1893
 1922SOL     OW 7760   4.224   3.633   2.941  0.0774 -0.2842 -0.0919
 1922SOL    HW2 7761   4.228   3.715   2.990  1.8827  1.7724 -3.5180
 1922SOL    HW3 7762   4.146   3.589   2.975 -0.2925  2.2983  2.6194
 1922SOL    MW4 7763   4.214   3.638   2.952  0.2670  0.3278 -0.1857
 1923SOL     OW 7764   4.256   3.851   3.112  0.1785 -0.9954 -0.2275
 1923SOL    HW2 7765   4.180   3.908   3.104 -0.3017 -1.4166  1.2442
 1923SOL    HW3 7766   4.330   3.906   3.087 -0.3588  0.0726  0.5218
 1923SOL    MW4 7767   4.256   3.866   3.108  0.0443 -0.9103  0.0653
 1924SOL     OW 7768   4.029   3.982   3.006 -0.3750 -0.3346  0.2905
 1924SOL    HW2 7769   4.033   4.073   3.034 -2.8808  0.7324 -2.5560
 1924SOL    HW3 7770   3.945   3.950   3.038 -0.9152 -0.6701 -1.3833
 1924SOL    MW4 7771   4.018   3.990   3.014 -0.7768 -0.2379 -0.3059
 1925SOL     OW 7772   4.036   4.239   3.091 -0.3720 -0.0613  0.0216
 1925SOL    HW2 7773   4.027   4.285   3.174 -0.7690 -0.1332  0.0200
 1925SOL    HW3 7774   4.105   4.286   3.045  0.0821 -0.2297  0.5300
 1925SOL    MW4 7775   4.044   4.251   3.096 -0.3643 -0.0935  0.0885
 1926SOL     OW 7776   4.244   4.400   2.983  0.0792  0.5975 -0.7004
 1926SOL    HW2 7777   4.324   4.365   3.024 -0.1055 -0.4104 -1.1929
 1926SOL    HW3 7778   4.263   4.400   2.889 -0.6496 -0.0200 -0.8507
 1926SOL    MW4 7779   4.257   4.396   2.976 -0.0420  0.3829 -0.7854
 1927SOL     OW 7780   0.190   4.662   3.413  0.2014  0.2659  0.0634
 1927SOL    HW2 7781   0.269   4.702   3.450  0.9938 -0.3439 -0.9543
 1927SOL    HW3 7782   0.206   4.568   3.419 -0.3814  0.1478 -0.2949
 1927SOL    MW4 7783   0.203   4.655   3.419  0.2291  0.1698 -0.1180
 1928SOL     OW 7784   4.455   0.151   3.463 -0.1032  0.2070 -0.1208
 1928SOL    HW2 7785   4.480   0.241   3.441 -0.8045  0.2082 -0.9394
 1928SOL    HW3 7786   4.535   0.101   3.452  0.7022  0.9997  1.9502
 1928SOL    MW4 7787   4.468   0.157   3.459 -0.0896  0.3118  0.0443
 1929SOL     OW 7788   4.472   0.424   3.351 -0.0533 -0.2413 -0.3278
 1929SOL    HW2 7789   4.395   0.464   3.392 -0.6609 -0.4467 -1.2504
 1929SOL    HW3 7790   4.545   0.449   3.408 -0.3260  2.6521 -1.1538
 1929SOL    MW4 7791   4.471   0.432   3.364 -0.1693  0.1134 -0.5581
 1930SOL     OW 7792   0.196   0.513   3.483 -0.7367  0.0336 -0.3168
 1930SOL    HW2 7793   0.272   0.469   3.445 -0.9693 -0.1291 -0.5988
 1930SOL    HW3 7794   0.198   0.601   3.444  0.9227  1.0092  1.8333
 1930SOL    MW4 7795   0.206   0.519   3.473 -0.5485  0.1408 -0.0703
 1931SOL     OW 7796   0.204   0.773   3.342  0.7278  0.3388  0.2997
 1931SOL    HW2 7797   0.288   0.805   3.375  0.1032  0.9243  1.3494
 1931SOL    HW3 7798   0.139   0.813   3.399 -0.1367 -2.1584  1.1294
 1931SOL    MW4 7799   0.206   0.782   3.354  0.5313  0.0866  0.5476
 1932SOL     OW 7800   0.006   0.905   3.478 -0.2330 -0.1952  0.2923
 1932SOL    HW2 7801   0.005   0.909   3.573 -0.8042 -0.2051  0.2878
 1932SOL    HW3 7802  -0.003   0.996   3.450  1.4421 -0.0163  0.2444
 1932SOL    MW4 7803   0.005   0.918   3.487 -0.0873 -0.1729  0.2854
 1933SOL     OW 7804   4.483   1.169   3.378 -0.0089  0.5262  0.1873
 1933SOL    HW2 7805   4.561   1.216   3.408  0.2679 -0.2496  0.6937
 1933SOL    HW3 7806   4.482   1.182   3.284  1.5280 -0.6229 -0.0106
 1933SOL    MW4 7807   4.493   1.177   3.370  0.2303  0.2722  0.2279
 1934SOL     OW 7808   0.218   1.298   3.471 -0.0417  0.5496 -0.1393
 1934SOL    HW2 7809   0.295   1.259   3.430 -1.4702 -0.9069 -1.5003
 1934SOL    HW3 7810   0.223   1.391   3.448  1.7847  0.6725  0.5966
 1934SOL    MW4 7811   0.229   1.305   3.463  0.0108  0.3737 -0.2217
 1935SOL     OW 7812   0.184   1.580   3.414  0.6261  0.0246 -0.2628
 1935SOL    HW2 7813   0.277   1.596   3.430  1.2584 -3.1796 -0.4980
 1935SOL    HW3 7814   0.176   1.578   3.319  0.1980  0.8711 -0.2468
 1935SOL    MW4 7815   0.195   1.582   3.404  0.6531 -0.2865 -0.2918
 1936SOL     OW 7816   4.412   1.671   3.510  0.1978  0.4227 -0.5924
 1936SOL    HW2 7817   4.348   1.608   3.478  0.0433  0.3808 -0.2056
 1936SOL    HW3 7818   4.496   1.637   3.479  0.1232 -0.0170 -0.3328
 1936SOL    MW4 7819   4.415   1.658   3.502  0.1683  0.3592 -0.5071
 1937SOL     OW 7820   4.443   1.918   3.398  0.0779  0.0300 -0.1435
 1937SOL    HW2 7821   4.434   1.833   3.440 -1.7220 -0.1566 -0.8385
 1937SOL    HW3 7822   4.457   1.897   3.305 -0.9194  0.4793 -0.4051
 1937SOL    MW4 7823   4.444   1.904   3.391 -0.2913  0.0646 -0.2699
 1938SOL     OW 7824   0.185   2.006   3.511 -0.0463 -0.0358  0.2026
 1938SOL    HW2 7825   0.180   2.010   3.607  0.2343  1.0769  0.1733
 1938SOL    HW3 7826   0.095   1.987   3.483 -0.2659  0.3399  0.6498
 1938SOL    MW4 7827   0.172   2.004   3.520 -0.0383  0.1605  0.2577
 1939SOL     OW 7828   0.242   2.255   3.378  0.8059  0.2180 -0.2662
 1939SOL    HW2 7829   0.168   2.300   3.420  1.6438  1.4437 -0.0750
 1939SOL    HW3 7830   0.241   2.168   3.417  1.6075  1.3355  2.4258
 1939SOL    MW4 7831   0.232   2.250   3.389  1.0222  0.5271  0.1142
 1940SOL     OW 7832   0.042   2.416   3.464  0.1635  0.1919  0.1246
 1940SOL    HW2 7833   0.046   2.423   3.559 -0.1010  0.3036  0.1252
 1940SOL    HW3 7834  -0.039   2.369   3.446  1.0015 -1.2669  0.0343
 1940SOL    MW4 7835   0.032   2.411   3.474  0.2392  0.0143  0.1128
 1941SOL     OW 7836   4.479   2.651   3.351  0.4740  0.2047  0.0772
 1941SOL    HW2 7837   4.529   2.718   3.398  1.0581 -1.0602  1.3105
 1941SOL    HW3 7838   4.505   2.568   3.392 -0.9102 -0.7028 -0.8120
 1941SOL    MW4 7839   4.489   2.649   3.362  0.3686 -0.0820  0.1228
 1942SOL     OW 7840   0.180   2.809   3.459  0.0917  0.0685 -0.3398
 1942SOL    HW2 7841   0.266   2.767   3.450 -0.3265 -0.6117 -1.2929
 1942SOL    HW3 7842   0.193   2.898   3.426  0.4395 -0.0240 -0.4589
 1942SOL    MW4 7843   0.193   2.815   3.454  0.0824 -0.0336 -0.4811
 1943SOL     OW 7844   0.193   3.081   3.378  0.1700  0.3381 -0.0817
 1943SOL    HW2 7845   0.113   3.122   3.411  0.4807  0.9365 -0.0687
 1943SOL    HW3 7846   0.192   3.099   3.284 -0.0260 -0.1993 -0.1875
 1943SOL    MW4 7847   0.182   3.089   3.370  0.1851  0.3464 -0.0942
 1944SOL     OW 7848   4.443   3.220   3.438 -0.4279  0.2029 -0.1406
 1944SOL    HW2 7849   4.358   3.178   3.422 -0.7790  0.7597  0.2093
 1944SOL    HW3 7850   4.428   3.312   3.417  0.6439 -0.0396 -1.9802
 1944SOL    MW4 7851   4.430   3.226   3.433 -0.3328  0.2444 -0.3369
 1945SOL     OW 7852   4.421   3.482   3.368  0.3213  0.2249  0.7415
 1945SOL    HW2 7853   4.340   3.522   3.401 -0.1572  0.2817 -0.4730
 1945SOL    HW3 7854   4.418   3.496   3.273  1.6238 -0.0282  0.6511
 1945SOL    MW4 7855   4.410   3.489   3.360  0.4301  0.1991  0.5693
 1946SOL     OW 7856   0.177   3.569   3.468  0.1670 -0.0109  0.1537
 1946SOL    HW2 7857   0.178   3.546   3.561  0.1552  0.9522  0.3944
 1946SOL    HW3 7858   0.091   3.539   3.437  0.4397 -0.9424  0.2942
 1946SOL    MW4 7859   0.166   3.562   3.476  0.2015 -0.0067  0.2036
 1947SOL     OW 7860   0.186   3.831   3.386  0.1008 -0.0146  0.2462
 1947SOL    HW2 7861   0.117   3.887   3.422  0.3123  0.5532 -0.2173
 1947SOL    HW3 7862   0.163   3.743   3.416 -1.4707 -0.0035 -0.8361
 1947SOL    MW4 7863   0.174   3.826   3.395 -0.0786  0.0618  0.0422
 1948SOL     OW 7864   4.490   3.979   3.488 -0.1361 -0.4000 -0.1717
 1948SOL    HW2 7865   4.465   3.988   3.580 -0.8350 -1.1953 -0.2823
 1948SOL    HW3 7866   4.481   4.068   3.452  0.7609  0.0418  0.6718
 1948SOL    MW4 7867   4.486   3.992   3.495 -0.1101 -0.4466 -0.0749
 1949SOL     OW 7868   4.481   4.248   3.373 -0.1255 -0.2700 -0.0298
 1949SOL    HW2 7869   4.400   4.287   3.407 -0.8921  0.8137 -3.0280
 1949SOL    HW3 7870   4.549   4.312   3.394 -0.2340 -0.5635  1.2822
 1949SOL    MW4 7871   4.479   4.262   3.381 -0.2413 -0.1659 -0.2525
 1950SOL     OW 7872   0.203   4.398   3.440  0.6182 -0.2689 -0.0771
 1950SOL    HW2 7873   0.203   4.376   3.534 -0.8896 -0.4448 -0.1056
 1950SOL    HW3 7874   0.263   4.335   3.401  0.5801 -0.7713  0.6583
 1950SOL    MW4 7875   0.211   4.387   3.447  0.4143 -0.3586  0.0162
 1951SOL     OW 7876   0.672   4.626   3.330 -0.1194  0.2049 -0.0281
 1951SOL    HW2 7877   0.746   4.678   3.361  0.5533 -0.2766 -0.7954
 1951SOL    HW3 7878   0.668   4.643   3.236  0.3848 -1.4538 -0.3741
 1951SOL    MW4 7879   0.681   4.635   3.321  0.0359 -0.0772 -0.1750
 1952SOL     OW 7880   0.443   0.084   3.468  0.0052  0.5173 -0.3784
 1952SOL    HW2 7881   0.463   0.087   3.562  1.1637  0.6609 -0.6259
 1952SOL    HW3 7882   0.522   0.048   3.428 -0.9143 -0.6472 -1.1861
 1952SOL    MW4 7883   0.456   0.079   3.475  0.0367  0.3826 -0.5176
 1953SOL     OW 7884   0.402   0.375   3.380  0.1697  0.1019  0.3372
 1953SOL    HW2 7885   0.478   0.421   3.415  1.6255 -1.2374 -0.9804
 1953SOL    HW3 7886   0.407   0.287   3.418 -0.4485 -0.1330 -0.1199
 1953SOL    MW4 7887   0.413   0.370   3.389  0.2802 -0.1058  0.1030
 1954SOL     OW 7888   0.633   0.490   3.485 -0.1436 -0.1589 -0.1062
 1954SOL    HW2 7889   0.626   0.480   3.580  0.1884  0.9388  0.0490
 1954SOL    HW3 7890   0.714   0.445   3.462 -0.1861 -0.3643  0.1482
 1954SOL    MW4 7891   0.643   0.483   3.495 -0.1054 -0.0412 -0.0522
 1955SOL     OW 7892   0.642   0.757   3.378 -0.3895 -0.2188  0.2041
 1955SOL    HW2 7893   0.565   0.804   3.410 -1.0241 -0.4010 -1.0351
 1955SOL    HW3 7894   0.624   0.666   3.400  0.5989  0.0335  2.1264
 1955SOL    MW4 7895   0.629   0.751   3.385 -0.3427 -0.2096  0.2942
 1956SOL     OW 7896   0.418   0.891   3.465  0.0291  0.2834  0.0987
 1956SOL    HW2 7897   0.405   0.884   3.560  1.6823  0.0689  0.3220
 1956SOL    HW3 7898   0.425   0.985   3.448 -1.6957  0.4001 -0.0199
 1956SOL    MW4 7899   0.417   0.902   3.475  0.0196  0.2705  0.1125
 1957SOL     OW 7900   0.448   1.170   3.373  0.5209  0.2484 -0.1678
 1957SOL    HW2 7901   0.532   1.195   3.412  0.8430 -0.7886 -0.1519
 1957SOL    HW3 7902   0.470   1.151   3.281  0.0649  1.1772 -0.4719
 1957SOL    MW4 7903   0.462   1.170   3.366  0.5033  0.2340 -0.2058
 1958SOL     OW 7904   0.683   1.278   3.480  0.0612 -0.4714  0.1473
 1958SOL    HW2 7905   0.750   1.239   3.425  0.4793  0.9230 -0.3520
 1958SOL    HW3 7906   0.669   1.365   3.443  1.2625  0.9961  2.9757
 1958SOL    MW4 7907   0.690   1.284   3.468  0.2749 -0.0938  0.4547
 1959SOL     OW 7908   0.698   1.549   3.372 -0.1265 -0.1899  0.5040
 1959SOL    HW2 7909   0.772   1.596   3.410 -0.8521  1.8488 -0.5215
 1959SOL    HW3 7910   0.621   1.588   3.412 -0.7091 -1.6867  0.8974
 1959SOL    MW4 7911   0.697   1.560   3.382 -0.2991 -0.1184  0.4208
 1960SOL     OW 7912   0.448   1.632   3.479 -0.3181 -0.2430 -0.2493
 1960SOL    HW2 7913   0.448   1.633   3.575  3.1413 -0.2012 -0.1628
 1960SOL    HW3 7914   0.458   1.723   3.454  0.0798 -0.3732 -0.5802
 1960SOL    MW4 7915   0.450   1.644   3.489  0.1908 -0.2545 -0.2816
 1961SOL     OW 7916   0.454   1.897   3.419  0.5804 -0.4228 -0.5063
 1961SOL    HW2 7917   0.373   1.932   3.458  1.8943  1.2824  0.7479
 1961SOL    HW3 7918   0.437   1.898   3.324 -0.0086  2.1935 -0.4024
 1961SOL    MW4 7919   0.441   1.902   3.411  0.6760  0.1475 -0.3273
 1962SOL     OW 7920   0.667   2.075   3.506  0.2802  0.1338 -0.7696
 1962SOL    HW2 7921   0.665   2.061   3.601  0.5811  0.9971 -0.6326
 1962SOL    HW3 7922   0.592   2.025   3.473 -1.0544  1.4809  0.1568
 1962SOL    MW4 7923   0.657   2.067   3.514  0.1438  0.4258 -0.6297
 1963SOL     OW 7924   0.687   2.319   3.396 -0.1889  0.0698 -0.5620
 1963SOL    HW2 7925   0.757   2.365   3.443 -0.9323 -0.0601  0.6924
 1963SOL    HW3 7926   0.700   2.227   3.418 -1.0365  0.0943  0.0521
 1963SOL    MW4 7927   0.698   2.313   3.405 -0.3989  0.0558 -0.3154
 1964SOL     OW 7928   0.456   2.420   3.494 -0.5459 -0.4721  0.2788
 1964SOL    HW2 7929   0.537   2.378   3.463 -0.9097 -1.0741  0.1407
 1964SOL    HW3 7930   0.386   2.370   3.453 -0.9750  0.8476 -0.6157
 1964SOL    MW4 7931   0.458   2.408   3.485 -0.6505 -0.3774  0.1426
 1965SOL     OW 7932   0.454   2.699   3.385  0.2031 -0.1555  0.1306
 1965SOL    HW2 7933   0.461   2.604   3.384  0.2462 -0.1632  1.0021
 1965SOL    HW3 7934   0.424   2.721   3.296  2.5516 -0.7690 -0.8388
 1965SOL    MW4 7935   0.451   2.689   3.373  0.5186 -0.2375  0.1180
 1966SOL     OW 7936   0.663   2.859   3.516 -0.1959 -0.3067  0.3186
 1966SOL    HW2 7937   0.744   2.812   3.494 -0.0383  0.2077 -0.2248
 1966SOL    HW3 7938   0.593   2.807   3.475 -0.0569 -0.2815  0.0448
 1966SOL    MW4 7939   0.664   2.846   3.508 -0.1568 -0.2353  0.2110
 1967SOL     OW 7940   0.646   3.110   3.371  0.3631  0.3806 -0.1764
 1967SOL    HW2 7941   0.566   3.151   3.402 -0.2821  0.5971 -2.1093
 1967SOL    HW3 7942   0.649   3.026   3.418 -1.6324 -0.1739 -1.0098
 1967SOL    MW4 7943   0.636   3.104   3.381  0.0147  0.3359 -0.5414
 1968SOL     OW 7944   0.409   3.227   3.482 -0.0638 -0.5995 -0.1261
 1968SOL    HW2 7945   0.418   3.207   3.575 -1.2141  0.9042  0.3362
 1968SOL    HW3 7946   0.337   3.171   3.452 -0.3485 -0.3713  0.1264
 1968SOL    MW4 7947   0.400   3.217   3.490 -0.2531 -0.3712 -0.0322
 1969SOL     OW 7948   0.445   3.476   3.372  0.0555 -0.2337  0.7167
 1969SOL    HW2 7949   0.443   3.393   3.420  1.3199 -0.5443  0.2375
 1969SOL    HW3 7950   0.359   3.516   3.390  0.2538 -0.6611  2.6700
 1969SOL    MW4 7951   0.433   3.470   3.381  0.2485 -0.3312  0.9110
 1970SOL     OW 7952   0.665   3.607   3.498 -0.3670 -0.1721  0.1234
 1970SOL    HW2 7953   0.737   3.567   3.448  0.2220 -0.6855  1.3485
 1970SOL    HW3 7954   0.587   3.560   3.469 -0.0354 -0.4523 -0.3241
 1970SOL    MW4 7955   0.664   3.595   3.488 -0.2455 -0.2770  0.2260
 1971SOL     OW 7956   0.649   3.856   3.381 -0.7148 -0.1141 -0.1702
 1971SOL    HW2 7957   0.571   3.904   3.408 -0.0767 -0.0094  1.5044
 1971SOL    HW3 7958   0.650   3.778   3.436  1.3311  0.7698  1.0964
 1971SOL    MW4 7959   0.639   3.852   3.392 -0.3607  0.0162  0.2179
 1972SOL     OW 7960   0.416   3.975   3.464 -0.4820  0.1165 -0.0706
 1972SOL    HW2 7961   0.396   4.065   3.438 -1.2273  0.3858  1.3599
 1972SOL    HW3 7962   0.339   3.925   3.438 -0.6681  0.1490  0.4168
 1972SOL    MW4 7963   0.403   3.981   3.457 -0.6048  0.1562  0.1824
 1973SOL     OW 7964   0.431   4.238   3.380  0.1480 -0.2043  0.4646
 1973SOL    HW2 7965   0.502   4.260   3.440  1.1768 -3.0172  0.3499
 1973SOL    HW3 7966   0.464   4.263   3.294  0.0067  0.7608  0.6871
 1973SOL    MW4 7967   0.445   4.244   3.377  0.2651 -0.4478  0.4787
 1974SOL     OW 7968   0.655   4.419   3.494  0.3258 -0.3202  0.0675
 1974SOL    HW2 7969   0.725   4.366   3.455  0.5598  0.5428 -0.6998
 1974SOL    HW3 7970   0.642   4.492   3.433  0.9561  1.2584  1.7313
 1974SOL    MW4 7971   0.663   4.422   3.481  0.4398  0.0024  0.1860
 1975SOL     OW 7972   1.124   4.656   3.366  0.1563  0.5606  0.5081
 1975SOL    HW2 7973   1.205   4.700   3.394 -0.7105  1.8541  1.0058
 1975SOL    HW3 7974   1.118   4.675   3.273  1.4611 -1.2180  0.0369
 1975SOL    MW4 7975   1.134   4.665   3.358  0.2140  0.4964  0.5114
 1976SOL     OW 7976   0.901   0.119   3.479  0.0654  0.1854  0.1757
 1976SOL    HW2 7977   0.907   0.120   3.575  0.4590  2.1341  0.1581
 1976SOL    HW3 7978   0.980   0.072   3.451  0.1011 -0.1350  0.8028
 1976SOL    MW4 7979   0.912   0.113   3.488  0.1220  0.4002  0.2561
 1977SOL     OW 7980   0.854   0.360   3.346  0.8055 -0.0893  0.3836
 1977SOL    HW2 7981   0.925   0.413   3.383  1.8255  0.2816 -1.9815
 1977SOL    HW3 7982   0.864   0.274   3.386  0.6229  0.8263  2.4519
 1977SOL    MW4 7983   0.864   0.356   3.356  0.9160  0.0804  0.3443
 1978SOL     OW 7984   1.063   0.503   3.467 -0.2716  0.4705  0.6466
 1978SOL    HW2 7985   1.098   0.479   3.553  0.1995 -0.1658  0.2786
 1978SOL    HW3 7986   1.097   0.591   3.451  0.4425  0.2028  0.6847
 1978SOL    MW4 7987   1.072   0.512   3.476 -0.1153  0.3513  0.6030
 1979SOL     OW 7988   1.130   0.758   3.346 -0.0679  0.3620 -0.0810
 1979SOL    HW2 7989   1.197   0.815   3.381  0.0780  0.2371 -0.1575
 1979SOL    HW3 7990   1.048   0.790   3.385  0.3484 -1.2165  2.2322
 1979SOL    MW4 7991   1.128   0.770   3.356  0.0062  0.1373  0.2141
 1980SOL     OW 7992   0.890   0.860   3.447 -0.1284  0.1056 -0.1507
 1980SOL    HW2 7993   0.870   0.944   3.406 -0.9816 -0.6954 -1.3626
 1980SOL    HW3 7994   0.817   0.804   3.425 -0.0236 -0.6978  1.4659
 1980SOL    MW4 7995   0.878   0.864   3.439 -0.2272 -0.1061 -0.0970
 1981SOL     OW 7996   0.876   1.147   3.345 -0.0035  0.0993 -0.4753
 1981SOL    HW2 7997   0.952   1.189   3.385  0.8260 -1.0919 -0.7568
 1981SOL    HW3 7998   0.889   1.156   3.251  1.3004 -2.6172 -0.6084
 1981SOL    MW4 7999   0.888   1.153   3.338  0.2779 -0.4162 -0.5300
 1982SOL     OW 8000   1.086   1.281   3.475 -0.0812  0.4661 -0.1519
 1982SOL    HW2 8001   1.088   1.275   3.571 -1.6652 -0.0028 -0.1366
 1982SOL    HW3 8002   1.102   1.374   3.456 -1.2508  0.8461  0.6394
 1982SOL    MW4 8003   1.088   1.293   3.485 -0.4444  0.4545 -0.0455
 1983SOL     OW 8004   1.156   1.559   3.422  0.0274 -0.3135 -0.7589
 1983SOL    HW2 8005   1.221   1.610   3.471 -0.3828  0.0617 -0.6089
 1983SOL    HW3 8006   1.183   1.567   3.331  0.2993 -0.3116 -0.6796
 1983SOL    MW4 8007   1.168   1.567   3.416  0.0092 -0.2638 -0.7288
 1984SOL     OW 8008   0.897   1.692   3.490  0.2524 -0.3345  0.2748
 1984SOL    HW2 8009   0.887   1.785   3.466  1.4551 -0.2219  0.1898
 1984SOL    HW3 8010   0.984   1.668   3.458 -0.2929 -1.6677 -0.2413
 1984SOL    MW4 8011   0.907   1.701   3.483  0.3391 -0.4957  0.1955
 1985SOL     OW 8012   0.886   1.948   3.387 -0.1139 -0.2932  0.2309
 1985SOL    HW2 8013   0.962   1.998   3.415  0.2650 -0.3882 -0.6210
 1985SOL    HW3 8014   0.811   1.993   3.426  0.2291  0.9335 -0.5061
 1985SOL    MW4 8015   0.886   1.960   3.396 -0.0187 -0.1439  0.0212
 1986SOL     OW 8016   1.136   2.049   3.495  0.3035 -0.0257 -0.4304
 1986SOL    HW2 8017   1.223   2.018   3.469  0.2494  0.5795 -1.3413
 1986SOL    HW3 8018   1.131   2.138   3.462 -1.3798 -0.6923 -2.0592
 1986SOL    MW4 8019   1.147   2.056   3.487  0.0743 -0.0339 -0.7656
 1987SOL     OW 8020   1.096   2.304   3.416 -0.3849 -0.6394  0.2959
 1987SOL    HW2 8021   1.149   2.365   3.467 -0.5981 -1.5470  1.6311
 1987SOL    HW3 8022   1.118   2.322   3.325 -0.7930  1.7669  0.6405
 1987SOL    MW4 8023   1.106   2.314   3.411 -0.4668 -0.4418  0.5174
 1988SOL     OW 8024   0.891   2.441   3.520  0.0645 -0.2043 -1.1971
 1988SOL    HW2 8025   0.903   2.411   3.610 -1.4865  0.2876 -0.8041
 1988SOL    HW3 8026   0.959   2.396   3.471  1.2022 -0.1625  0.2882
 1988SOL    MW4 8027   0.901   2.431   3.526  0.0100 -0.1340 -0.9494
 1989SOL     OW 8028   0.871   2.709   3.436 -0.4177  0.6726 -0.2882
 1989SOL    HW2 8029   0.956   2.747   3.457  1.1388 -1.7036 -1.9477
 1989SOL    HW3 8030   0.874   2.621   3.474 -1.3810 -0.1143 -1.9682
 1989SOL    MW4 8031   0.883   2.702   3.444 -0.3395  0.2553 -0.7288
 1990SOL     OW 8032   1.117   2.824   3.484 -0.3495  0.1107  0.0047
 1990SOL    HW2 8033   1.130   2.843   3.577 -1.9145  0.2334  0.1995
 1990SOL    HW3 8034   1.203   2.794   3.455  0.2528  0.3966  1.4044
 1990SOL    MW4 8035   1.130   2.823   3.493 -0.4766  0.1645  0.2151
 1991SOL     OW 8036   1.119   3.099   3.374 -0.3084 -0.3345  0.1353
 1991SOL    HW2 8037   1.137   3.017   3.421  0.4906  0.1273  0.6509
 1991SOL    HW3 8038   1.141   3.079   3.283 -0.4042 -0.7902  0.2111
 1991SOL    MW4 8039   1.125   3.085   3.368 -0.2156 -0.3338  0.2134
 1992SOL     OW 8040   0.891   3.237   3.461  0.1964  0.2888  0.1371
 1992SOL    HW2 8041   0.963   3.194   3.415  0.3731  1.2687 -0.5213
 1992SOL    HW3 8042   0.814   3.185   3.437  0.4143  0.3000 -0.6034
 1992SOL    MW4 8043   0.890   3.224   3.452  0.2485  0.4199 -0.0477
 1993SOL     OW 8044   0.878   3.496   3.353  0.2773 -0.6857 -0.2694
 1993SOL    HW2 8045   0.876   3.405   3.382 -0.8631 -0.1759  1.2739
 1993SOL    HW3 8046   0.866   3.491   3.258 -0.8593 -2.0825 -0.0661
 1993SOL    MW4 8047   0.876   3.483   3.344 -0.0231 -0.8028 -0.0389
 1994SOL     OW 8048   1.091   3.615   3.480  0.0317  0.3881  0.1364
 1994SOL    HW2 8049   1.094   3.621   3.575 -2.4578  0.4255  0.2431
 1994SOL    HW3 8050   1.014   3.561   3.461 -0.2655  1.4377 -1.8741
 1994SOL    MW4 8051   1.081   3.609   3.490 -0.3358  0.5312 -0.1149
 1995SOL     OW 8052   1.118   3.881   3.369  0.3505 -0.0611 -0.4191
 1995SOL    HW2 8053   1.192   3.912   3.421  0.0449  0.7629 -0.4707
 1995SOL    HW3 8054   1.104   3.791   3.399  1.7249 -0.4152 -0.8116
 1995SOL    MW4 8055   1.126   3.873   3.380  0.4915  0.0010 -0.4778
 1996SOL     OW 8056   0.882   3.982   3.469  0.2784 -0.4109  0.7591
 1996SOL    HW2 8057   0.954   3.939   3.421  0.1501 -0.1070  0.2911
 1996SOL    HW3 8058   0.804   3.932   3.444  0.1037  0.2010  0.0805
 1996SOL    MW4 8059   0.882   3.970   3.459  0.2384 -0.2899  0.6077
 1997SOL     OW 8060   0.852   4.272   3.367  0.0936  0.0928  0.4509
 1997SOL    HW2 8061   0.833   4.179   3.375  0.5087  0.1217  1.8863
 1997SOL    HW3 8062   0.869   4.285   3.274  0.6961 -1.3994  0.3375
 1997SOL    MW4 8063   0.852   4.262   3.356  0.2278 -0.1006  0.6254
 1998SOL     OW 8064   1.136   4.381   3.422  0.2287  0.2269  0.0390
 1998SOL    HW2 8065   1.052   4.337   3.405  0.1999  0.8249 -1.4769
 1998SOL    HW3 8066   1.118   4.473   3.403  1.0894  0.4384  0.2675
 1998SOL    MW4 8067   1.122   4.388   3.417  0.3384  0.3343 -0.1309
 1999SOL     OW 8068   1.565   4.642   3.356 -0.1242  0.0233 -0.1215
 1999SOL    HW2 8069   1.553   4.556   3.396  0.2443 -0.3771 -0.8598
 1999SOL    HW3 8070   1.487   4.692   3.382 -0.0466 -0.3361  0.8070
 1999SOL    MW4 8071   1.553   4.638   3.364 -0.0653 -0.0772 -0.0963
 2000SOL     OW 8072   1.350   0.135   3.443  0.1532 -0.4372 -0.0667
 2000SOL    HW2 8073   1.356   0.153   3.537  0.1963 -0.2903 -0.0971
 2000SOL    HW3 8074   1.344   0.222   3.403 -0.4202 -0.5209 -0.1622
 2000SOL    MW4 8075   1.350   0.149   3.450  0.0832 -0.4288 -0.0832
 2001SOL     OW 8076   1.306   0.406   3.373  0.1213 -0.4861  0.1186
 2001SOL    HW2 8077   1.371   0.451   3.427 -0.1534  1.0762 -0.8428
 2001SOL    HW3 8078   1.222   0.438   3.403 -0.0954 -0.6536 -0.2969
 2001SOL    MW4 8079   1.304   0.416   3.384  0.0564 -0.3020 -0.0629
 2002SOL     OW 8080   1.540   0.534   3.488 -0.6843  0.3492 -0.5030
 2002SOL    HW2 8081   1.524   0.528   3.582 -1.0187  1.2656 -0.4900
 2002SOL    HW3 8082   1.610   0.471   3.471 -0.6522  0.1525  0.3518
 2002SOL    MW4 8083   1.547   0.525   3.498 -0.7242  0.4442 -0.3884
 2003SOL     OW 8084   1.597   0.788   3.381  0.0464 -0.0573 -0.1307
 2003SOL    HW2 8085   1.515   0.832   3.403  0.6828  0.7495  0.6187
 2003SOL    HW3 8086   1.580   0.696   3.401 -1.4169 -0.2594 -2.0813
 2003SOL    MW4 8087   1.584   0.781   3.386 -0.0627  0.0224 -0.2892
 2004SOL     OW 8088   1.354   0.910   3.453 -0.3651 -0.1432  0.2102
 2004SOL    HW2 8089   1.341   0.900   3.547  2.6036 -0.2336  0.6509
 2004SOL    HW3 8090   1.351   1.005   3.439  0.9014 -0.0123  0.7065
 2004SOL    MW4 8091   1.352   0.921   3.464  0.1937 -0.1379  0.3338
 2005SOL     OW 8092   1.337   1.169   3.380  0.2244 -0.2715  0.2142
 2005SOL    HW2 8093   1.414   1.215   3.412  0.8623 -1.2478  0.1232
 2005SOL    HW3 8094   1.263   1.210   3.425  0.8190  0.5155  0.4757
 2005SOL    MW4 8095   1.337   1.180   3.390  0.3871 -0.2965  0.2367
 2006SOL     OW 8096   1.557   1.314   3.483 -0.1433 -0.7079 -0.0075
 2006SOL    HW2 8097   1.576   1.288   3.573 -0.8957 -1.0490  0.0559
 2006SOL    HW3 8098   1.634   1.285   3.433 -0.1114 -1.2963  0.3788
 2006SOL    MW4 8099   1.570   1.306   3.489 -0.2383 -0.8305  0.0520
 2007SOL     OW 8100   1.552   1.582   3.415 -0.6530  0.1379  0.0482
 2007SOL    HW2 8101   1.549   1.490   3.438 -1.4900  0.0051 -0.5531
 2007SOL    HW3 8102   1.554   1.582   3.319  0.8816  0.7120  0.0610
 2007SOL    MW4 8103   1.552   1.570   3.405 -0.5609  0.1961 -0.0296
 2008SOL     OW 8104   1.345   1.717   3.533 -0.0008  0.1383  0.1795
 2008SOL    HW2 8105   1.360   1.694   3.624 -1.2597 -0.9440  0.1274
 2008SOL    HW3 8106   1.416   1.676   3.485 -0.2551 -0.6639  0.4904
 2008SOL    MW4 8107   1.356   1.709   3.538 -0.2006 -0.1103  0.2139
 2009SOL     OW 8108   1.394   1.952   3.392 -0.3304 -0.1728  0.0954
 2009SOL    HW2 8109   1.461   1.992   3.447  0.3667  0.1818 -0.9857
 2009SOL    HW3 8110   1.380   1.866   3.430  0.6261 -0.1907  0.4201
 2009SOL    MW4 8111   1.401   1.946   3.404 -0.1122 -0.1284 -0.0048
 2010SOL     OW 8112   1.604   2.059   3.530  0.6980 -0.2590 -0.3938
 2010SOL    HW2 8113   1.664   2.006   3.478 -0.2843 -0.8892 -0.8854
 2010SOL    HW3 8114   1.600   2.143   3.484  1.0808 -0.2655 -0.4423
 2010SOL    MW4 8115   1.612   2.063   3.517  0.6191 -0.3431 -0.4649
 2011SOL     OW 8116   1.542   2.314   3.414 -0.5302 -0.1575  0.8212
 2011SOL    HW2 8117   1.465   2.365   3.439 -1.7889 -2.3752  1.5786
 2011SOL    HW3 8118   1.543   2.318   3.318 -0.8885  0.8635  0.8546
 2011SOL    MW4 8119   1.532   2.322   3.405 -0.7434 -0.3154  0.9255
 2012SOL     OW 8120   1.311   2.444   3.528  0.2137  0.0187 -0.1904
 2012SOL    HW2 8121   1.307   2.445   3.624 -1.5723 -1.8714 -0.2221
 2012SOL    HW3 8122   1.307   2.536   3.504  0.9551  0.5384  1.5526
 2012SOL    MW4 8123   1.310   2.456   3.538  0.0758 -0.1621  0.0350
 2013SOL     OW 8124   1.321   2.692   3.366 -0.1879 -0.2746  0.0547
 2013SOL    HW2 8125   1.400   2.734   3.399 -2.0247  2.9470  0.5410
 2013SOL    HW3 8126   1.334   2.688   3.271 -0.6663  2.9753 -0.1884
 2013SOL    MW4 8127   1.333   2.697   3.358 -0.4933  0.5794  0.0868
 2014SOL     OW 8128   1.513   2.834   3.508 -0.6148 -0.4545  0.2655
 2014SOL    HW2 8129   1.590   2.787   3.474 -0.4104  0.9945 -1.3693
 2014SOL    HW3 8130   1.521   2.922   3.471 -2.2358  0.1771  1.3673
 2014SOL    MW4 8131   1.524   2.840   3.498 -0.8018 -0.1798  0.1950
 2015SOL     OW 8132   1.542   3.074   3.392  0.2365 -0.1558 -0.1038
 2015SOL    HW2 8133   1.621   3.114   3.430  0.2464 -1.3242  1.1257
 2015SOL    HW3 8134   1.470   3.130   3.420  0.4537  0.0300  0.0790
 2015SOL    MW4 8135   1.543   3.087   3.401  0.2666 -0.2851  0.0825
 2016SOL     OW 8136   1.346   3.254   3.462  0.4266  0.1200  0.7322
 2016SOL    HW2 8137   1.323   3.279   3.551  1.8062  0.5027  0.9908
 2016SOL    HW3 8138   1.273   3.199   3.433 -0.1748  0.2407  1.9834
 2016SOL    MW4 8139   1.333   3.250   3.470  0.5292  0.1862  0.9317
 2017SOL     OW 8140   1.319   3.519   3.365 -0.0350  0.6097 -0.3959
 2017SOL    HW2 8141   1.318   3.432   3.403  1.6499  0.6044 -0.2983
 2017SOL    HW3 8142   1.236   3.559   3.391  0.1393 -0.1791  1.4142
 2017SOL    MW4 8143   1.308   3.513   3.373  0.2103  0.5050 -0.1442
 2018SOL     OW 8144   1.560   3.605   3.456 -0.2242  0.1529 -0.2175
 2018SOL    HW2 8145   1.556   3.584   3.550  1.2065  0.3275 -0.1040
 2018SOL    HW3 8146   1.473   3.582   3.423 -0.4212 -0.8750  0.9513
 2018SOL    MW4 8147   1.548   3.599   3.464 -0.0615  0.0401 -0.0482
 2019SOL     OW 8148   1.571   3.864   3.362  0.1356 -0.1235 -0.7260
 2019SOL    HW2 8149   1.564   3.770   3.379 -1.3976  0.2006  0.4652
 2019SOL    HW3 8150   1.547   3.874   3.269 -1.9575 -0.6508 -0.2629
 2019SOL    MW4 8151   1.567   3.853   3.352 -0.3428 -0.1502 -0.5074
 2020SOL     OW 8152   1.359   3.989   3.506  0.3539  0.3033 -0.0671
 2020SOL    HW2 8153   1.351   4.073   3.461  1.7518  0.2142 -0.5019
 2020SOL    HW3 8154   1.434   3.946   3.464  0.7174 -0.4288  1.3065
 2020SOL    MW4 8155   1.368   3.994   3.495  0.5863  0.1950  0.0567
 2021SOL     OW 8156   1.358   4.227   3.377  0.1603  0.1097 -0.1998
 2021SOL    HW2 8157   1.283   4.286   3.382 -0.5821 -0.8669  0.1857
 2021SOL    HW3 8158   1.365   4.205   3.284 -1.2918 -1.4040  0.0320
 2021SOL    MW4 8159   1.349   4.232   3.365 -0.1292 -0.2189 -0.1183
 2022SOL     OW 8160   1.570   4.365   3.490 -0.3091 -0.3649  0.2834
 2022SOL    HW2 8161   1.643   4.317   3.450 -0.1252  0.7962 -0.8177
 2022SOL    HW3 8162   1.492   4.319   3.459 -0.1170 -0.2838 -0.3453
 2022SOL    MW4 8163   1.570   4.353   3.480 -0.2596 -0.2012  0.0556
 2023SOL     OW 8164   2.036   4.635   3.369  0.3661  0.4288 -0.1723
 2023SOL    HW2 8165   2.108   4.684   3.410  0.8343  1.7522 -2.5082
 2023SOL    HW3 8166   1.958   4.687   3.390  0.4647  0.5599 -0.1260
 2023SOL    MW4 8167   2.035   4.648   3.377  0.4408  0.6208 -0.4745
 2024SOL     OW 8168   1.808   0.111   3.449 -0.3184  0.3163  0.1141
 2024SOL    HW2 8169   1.799   0.115   3.544  0.3376  1.1658  0.1439
 2024SOL    HW3 8170   1.724   0.075   3.419 -1.4824  2.3417  0.8441
 2024SOL    MW4 8171   1.796   0.107   3.458 -0.3853  0.6956  0.2146
 2025SOL     OW 8172   1.773   0.390   3.419  0.1204  0.6865  0.2253
 2025SOL    HW2 8173   1.767   0.297   3.438 -0.1439  0.6264 -0.1519
 2025SOL    HW3 8174   1.803   0.394   3.328 -3.0477  0.9369 -0.8783
 2025SOL    MW4 8175   1.776   0.378   3.409 -0.3325  0.7116  0.0303
 2026SOL     OW 8176   2.039   0.512   3.498  0.0302  0.0069  0.7026
 2026SOL    HW2 8177   2.055   0.600   3.462  1.6553 -0.6857 -0.3524
 2026SOL    HW3 8178   1.946   0.497   3.486  0.3141  0.2844 -2.1920
 2026SOL    MW4 8179   2.029   0.522   3.492  0.2820 -0.0479  0.1817
 2027SOL     OW 8180   2.017   0.794   3.424 -0.8451  0.0590  0.0361
 2027SOL    HW2 8181   2.097   0.835   3.457 -1.1409 -0.2450  1.1457
 2027SOL    HW3 8182   2.028   0.793   3.329 -0.3567  1.7087  0.0714
 2027SOL    MW4 8183   2.029   0.799   3.416 -0.8197  0.2365  0.1872
 2028SOL     OW 8184   1.798   0.930   3.501  0.1869 -0.0204  0.2369
 2028SOL    HW2 8185   1.877   0.878   3.486 -0.2481 -0.8409  0.7491
 2028SOL    HW3 8186   1.728   0.878   3.462 -0.2952  0.0257  1.0336
 2028SOL    MW4 8187   1.799   0.916   3.494  0.0658 -0.1225  0.4096
 2029SOL     OW 8188   1.777   1.182   3.360 -0.2257 -0.3056  0.0700
 2029SOL    HW2 8189   1.857   1.225   3.390  1.1505 -1.7388 -1.4373
 2029SOL    HW3 8190   1.784   1.093   3.394 -2.0386  0.0462  1.4067
 2029SOL    MW4 8191   1.788   1.176   3.368 -0.2831 -0.4482  0.0472
 2030SOL     OW 8192   2.029   1.270   3.476  0.4655  0.1022 -0.0107
 2030SOL    HW2 8193   2.004   1.256   3.568  0.4513 -2.3308 -0.3560
 2030SOL    HW3 8194   2.039   1.365   3.468 -0.6747  0.4393  2.2131
 2030SOL    MW4 8195   2.027   1.281   3.487  0.3130 -0.1743  0.2372
 2031SOL     OW 8196   2.036   1.526   3.405 -0.3550  0.1840 -0.0269
 2031SOL    HW2 8197   2.112   1.574   3.438  0.5663 -1.1031 -0.2247
 2031SOL    HW3 8198   1.961   1.578   3.433  0.4330 -0.2562  3.0917
 2031SOL    MW4 8199   2.036   1.539   3.413 -0.1297 -0.0437  0.3583
 2032SOL     OW 8200   1.799   1.654   3.518 -0.4122 -0.2689  0.0956
 2032SOL    HW2 8201   1.806   1.736   3.469  0.9826 -0.1861  0.4309
 2032SOL    HW3 8202   1.717   1.615   3.486 -0.6790  0.8619 -0.6459
 2032SOL    MW4 8203   1.789   1.660   3.507 -0.2635 -0.1087  0.0417
 2033SOL     OW 8204   1.787   1.904   3.377 -0.5254  0.2040  0.0295
 2033SOL    HW2 8205   1.867   1.946   3.410 -0.3234 -0.2167  0.0900
 2033SOL    HW3 8206   1.797   1.905   3.282  1.2024 -2.9564  0.1197
 2033SOL    MW4 8207   1.799   1.909   3.368 -0.2707 -0.2683  0.0496
 2034SOL     OW 8208   2.012   2.035   3.489 -0.0910 -0.6599  0.2234
 2034SOL    HW2 8209   2.102   2.017   3.463 -0.1392 -1.0329  0.3160
 2034SOL    HW3 8210   1.989   2.116   3.443  0.4600 -0.2966  0.5863
 2034SOL    MW4 8211   2.020   2.044   3.480 -0.0248 -0.6614  0.2835
 2035SOL     OW 8212   1.973   2.286   3.392 -0.0680 -0.0471  0.2209
 2035SOL    HW2 8213   2.046   2.346   3.408 -0.1825 -0.1834  1.2743
 2035SOL    HW3 8214   1.965   2.284   3.297 -0.2903  1.8677  0.1798
 2035SOL    MW4 8215   1.982   2.294   3.382 -0.1125  0.1876  0.3543
 2036SOL     OW 8216   1.766   2.433   3.520 -0.3068 -0.2021 -0.2011
 2036SOL    HW2 8217   1.823   2.364   3.486 -0.4906 -1.5012  2.0628
 2036SOL    HW3 8218   1.678   2.407   3.492 -0.4032 -1.0190  0.8527
 2036SOL    MW4 8219   1.762   2.420   3.512 -0.3439 -0.4809  0.2365
 2037SOL     OW 8220   1.755   2.692   3.421  0.0974  0.7374  0.0817
 2037SOL    HW2 8221   1.832   2.735   3.458  0.1148  1.0464 -0.3051
 2037SOL    HW3 8222   1.766   2.599   3.441  1.2335  0.5917 -1.1261
 2037SOL    MW4 8223   1.767   2.685   3.428  0.2495  0.7589 -0.1287
 2038SOL     OW 8224   1.983   2.822   3.518  0.2348 -0.3858  0.0237
 2038SOL    HW2 8225   1.965   2.821   3.612 -1.5206  0.3446 -0.2855
 2038SOL    HW3 8226   2.002   2.914   3.498 -0.7574 -0.2986 -0.5641
 2038SOL    MW4 8227   1.983   2.834   3.527 -0.1278 -0.2780 -0.0947
 2039SOL     OW 8228   2.031   3.071   3.396 -0.2901  0.2205  0.3240
 2039SOL    HW2 8229   2.107   3.110   3.438 -0.1082  1.9098 -1.4789
 2039SOL    HW3 8230   1.962   3.138   3.404 -0.6816 -0.0415 -0.7095
 2039SOL    MW4 8231   2.032   3.085   3.402 -0.3178  0.4089 -0.0503
 2040SOL     OW 8232   1.780   3.213   3.474 -0.0039  0.0376 -0.0805
 2040SOL    HW2 8233   1.783   3.212   3.570 -0.6631 -1.4304 -0.0562
 2040SOL    HW3 8234   1.782   3.305   3.450 -1.3317  0.4644  1.4019
 2040SOL    MW4 8235   1.781   3.225   3.484 -0.2661 -0.0999  0.1185
 2041SOL     OW 8236   1.796   3.473   3.392 -0.3982  0.0727 -0.2794
 2041SOL    HW2 8237   1.714   3.520   3.409 -0.0406  1.1144 -1.3270
 2041SOL    HW3 8238   1.811   3.485   3.298  1.7993  1.2909  0.1852
 2041SOL    MW4 8239   1.787   3.481   3.382 -0.0610  0.3707 -0.3562
 2042SOL     OW 8240   2.012   3.678   3.470  0.2782  0.1498 -0.0230
 2042SOL    HW2 8241   2.083   3.627   3.430  1.4039  0.8875  1.0146
 2042SOL    HW3 8242   1.937   3.618   3.470  1.2377 -1.0720  0.0166
 2042SOL    MW4 8243   2.011   3.663   3.464  0.5534  0.0861  0.1192
 2043SOL     OW 8244   2.053   3.911   3.348 -0.6048  0.0471  0.2412
 2043SOL    HW2 8245   1.976   3.959   3.376  0.1592  0.6190  1.3920
 2043SOL    HW3 8246   2.045   3.825   3.390 -0.8634 -0.0740 -0.0516
 2043SOL    MW4 8247   2.042   3.906   3.357 -0.5381  0.1068  0.3545
 2044SOL     OW 8248   1.801   3.996   3.455  0.2028 -0.1636  0.2598
 2044SOL    HW2 8249   1.804   3.984   3.550  1.4015 -1.4106  0.0749
 2044SOL    HW3 8250   1.727   3.943   3.426  1.2164 -1.6273  0.2618
 2044SOL    MW4 8251   1.792   3.988   3.464  0.4946 -0.5212  0.2358
 2045SOL     OW 8252   1.792   4.259   3.392 -0.1356 -0.2425  0.5905
 2045SOL    HW2 8253   1.795   4.166   3.415 -0.2011 -0.1870  0.8180
 2045SOL    HW3 8254   1.781   4.260   3.297 -1.7781 -0.4791  0.7603
 2045SOL    MW4 8255   1.791   4.247   3.382 -0.3611 -0.2666  0.6430
 2046SOL     OW 8256   2.024   4.385   3.482  0.1241 -0.0594 -0.2148
 2046SOL    HW2 8257   1.939   4.349   3.458 -1.0269  0.9021  2.1934
 2046SOL    HW3 8258   2.022   4.475   3.449 -0.4826  0.4907  1.2904
 2046SOL    MW4 8259   2.013   4.392   3.475 -0.1078  0.1407  0.3014
 2047SOL     OW 8260   2.497   4.651   3.366  0.0981 -0.3069 -0.0130
 2047SOL    HW2 8261   2.476   4.562   3.393  1.4043 -0.7475 -0.3876
 2047SOL    HW3 8262   2.474   4.653   3.273 -0.9749  0.0932  0.2562
 2047SOL    MW4 8263   2.492   4.639   3.357  0.1287 -0.3122 -0.0269
 2048SOL     OW 8264   2.255   0.095   3.467  0.1098 -0.9292 -0.5565
 2048SOL    HW2 8265   2.256   0.183   3.430 -1.4149 -1.1647 -1.1836
 2048SOL    HW3 8266   2.329   0.050   3.426 -0.6507 -0.7215 -2.2025
 2048SOL    MW4 8267   2.265   0.100   3.457 -0.1919 -0.9329 -0.8564
 2049SOL     OW 8268   2.231   0.347   3.371 -0.2580 -0.4010 -0.0121
 2049SOL    HW2 8269   2.300   0.384   3.425 -1.3921  1.0812  0.4632
 2049SOL    HW3 8270   2.150   0.385   3.406 -1.4125 -2.7876  0.0371
 2049SOL    MW4 8271   2.229   0.357   3.382 -0.5603 -0.5203  0.0572
 2050SOL     OW 8272   2.431   0.508   3.504  0.2938 -0.2997  0.0170
 2050SOL    HW2 8273   2.521   0.478   3.488  0.1969 -0.2087 -0.7027
 2050SOL    HW3 8274   2.425   0.592   3.459  0.4731  0.6787  1.7839
 2050SOL    MW4 8275   2.442   0.515   3.496  0.3047 -0.1585  0.1550
 2051SOL     OW 8276   2.452   0.754   3.379  0.1679  0.0407  0.0955
 2051SOL    HW2 8277   2.523   0.801   3.423 -0.6139  0.2979  1.1039
 2051SOL    HW3 8278   2.458   0.781   3.288 -0.2576  2.1073  0.6435
 2051SOL    MW4 8279   2.462   0.764   3.373  0.0086  0.3473  0.3009
 2052SOL     OW 8280   2.260   0.899   3.510  0.4320 -0.2063  0.3250
 2052SOL    HW2 8281   2.263   0.981   3.461 -0.6672  0.3441  1.1686
 2052SOL    HW3 8282   2.323   0.842   3.465 -0.0675  0.5138 -1.3004
 2052SOL    MW4 8283   2.269   0.902   3.498  0.2213 -0.0387  0.2217
 2053SOL     OW 8284   2.255   1.164   3.338 -0.2292 -0.0526  0.2643
 2053SOL    HW2 8285   2.326   1.208   3.384 -0.5264 -0.0573  0.7258
 2053SOL    HW3 8286   2.175   1.197   3.380 -0.4147 -2.1319  1.6028
 2053SOL    MW4 8287   2.253   1.175   3.350 -0.2930 -0.3276  0.5014
 2054SOL     OW 8288   2.458   1.313   3.459 -0.0449  0.6550 -0.0156
 2054SOL    HW2 8289   2.447   1.319   3.553 -0.3500  0.6770 -0.0523
 2054SOL    HW3 8290   2.544   1.273   3.447  0.0225  0.7154  0.2693
 2054SOL    MW4 8291   2.468   1.309   3.470 -0.0763  0.6659  0.0174
 2055SOL     OW 8292   2.474   1.581   3.375 -1.2804 -0.1477  0.4090
 2055SOL    HW2 8293   2.475   1.490   3.406  1.7159 -0.4605 -0.4195
 2055SOL    HW3 8294   2.470   1.573   3.280 -1.5731  0.5937  0.3580
 2055SOL    MW4 8295   2.474   1.568   3.366 -0.9239 -0.0912  0.2930
 2056SOL     OW 8296   2.242   1.682   3.531 -0.0395  0.2918  0.0632
 2056SOL    HW2 8297   2.259   1.684   3.625 -0.4401  0.6301  0.1268
 2056SOL    HW3 8298   2.318   1.637   3.494 -0.5346 -1.0944  0.6907
 2056SOL    MW4 8299   2.254   1.676   3.539 -0.1578  0.1534  0.1543
 2057SOL     OW 8300   2.277   1.932   3.416  0.1425  0.3142  0.1560
 2057SOL    HW2 8301   2.250   1.850   3.456  1.7245  0.6210  1.9345
 2057SOL    HW3 8302   2.265   1.919   3.322 -1.2339 -1.3315  0.5527
 2057SOL    MW4 8303   2.272   1.920   3.409  0.1695  0.1376  0.4430
 2058SOL     OW 8304   2.521   2.065   3.424  0.0323  0.3513 -0.1112
 2058SOL    HW2 8305   2.511   2.081   3.518  0.2139 -2.0447  0.3395
 2058SOL    HW3 8306   2.453   2.001   3.403  0.1465  0.6871 -1.5827
 2058SOL    MW4 8307   2.510   2.059   3.434  0.0713  0.0796 -0.2458
 2059SOL     OW 8308   2.451   2.334   3.366 -0.2434  0.3535  0.4878
 2059SOL    HW2 8309   2.532   2.385   3.376  0.3771 -0.1091 -1.7759
 2059SOL    HW3 8310   2.474   2.246   3.394  0.1987  0.0954 -0.6811
 2059SOL    MW4 8311   2.465   2.329   3.371 -0.1035  0.2584  0.0348
 2060SOL     OW 8312   2.191   2.432   3.462 -0.6741 -0.6476 -0.3448
 2060SOL    HW2 8313   2.281   2.403   3.451  0.1708  2.0337 -0.8462
 2060SOL    HW3 8314   2.173   2.418   3.555 -0.0325 -1.9373 -0.4058
 2060SOL    MW4 8315   2.201   2.426   3.473 -0.4780 -0.4640 -0.4189
 2061SOL     OW 8316   2.197   2.703   3.397  0.5134 -0.6027 -0.4294
 2061SOL    HW2 8317   2.129   2.752   3.444  0.6676 -0.0510 -0.7769
 2061SOL    HW3 8318   2.181   2.612   3.420  0.5019 -0.3493  0.5851
 2061SOL    MW4 8319   2.186   2.698   3.406  0.5319 -0.4964 -0.3417
 2062SOL     OW 8320   2.427   2.815   3.439 -0.4433  0.5175 -0.1973
 2062SOL    HW2 8321   2.420   2.904   3.405  1.5367  1.0408  0.6731
 2062SOL    HW3 8322   2.342   2.775   3.421 -0.7825  2.0473 -2.0945
 2062SOL    MW4 8323   2.415   2.822   3.432 -0.2267  0.7887 -0.3326
 2063SOL     OW 8324   2.405   3.084   3.381 -0.2401 -0.2239 -0.6051
 2063SOL    HW2 8325   2.490   3.113   3.416 -0.6007  0.0480  0.0452
 2063SOL    HW3 8326   2.414   3.093   3.286  0.5093 -0.3320 -0.5475
 2063SOL    MW4 8327   2.418   3.089   3.373 -0.1886 -0.2024 -0.5116
 2064SOL     OW 8328   2.220   3.249   3.476 -0.2547 -0.1928  0.1113
 2064SOL    HW2 8329   2.239   3.244   3.569  0.7244  0.1820 -0.0648
 2064SOL    HW3 8330   2.291   3.202   3.434 -0.4264  0.0712 -0.4799
 2064SOL    MW4 8331   2.232   3.242   3.483 -0.1483 -0.1085  0.0100
 2065SOL     OW 8332   2.218   3.506   3.380 -0.0196 -0.0424  0.0713
 2065SOL    HW2 8333   2.218   3.420   3.421  0.0392 -0.4918 -0.8519
 2065SOL    HW3 8334   2.229   3.488   3.286 -2.9489  0.7789 -0.5122
 2065SOL    MW4 8335   2.219   3.492   3.373 -0.3982  0.0064 -0.1276
 2066SOL     OW 8336   2.461   3.630   3.501 -0.0927 -0.4590  0.6954
 2066SOL    HW2 8337   2.437   3.712   3.457 -0.1149 -0.4058  0.8076
 2066SOL    HW3 8338   2.387   3.572   3.485  0.3398 -0.7770 -0.2140
 2066SOL    MW4 8339   2.448   3.633   3.493 -0.0389 -0.4940  0.5901
 2067SOL     OW 8340   2.461   3.875   3.349  0.3114  0.3492  0.3124
 2067SOL    HW2 8341   2.537   3.925   3.379  0.1733  1.2199 -0.7266
 2067SOL    HW3 8342   2.385   3.922   3.384  0.1591  1.2306 -1.1317
 2067SOL    MW4 8343   2.461   3.888   3.357  0.2732  0.5805 -0.0153
 2068SOL     OW 8344   2.263   3.977   3.507  0.0485 -0.2078  0.3341
 2068SOL    HW2 8345   2.260   4.063   3.465 -0.6875 -0.5578 -0.3348
 2068SOL    HW3 8346   2.193   3.927   3.465 -0.8419 -0.5055  2.0973
 2068SOL    MW4 8347   2.253   3.982   3.496 -0.1662 -0.2933  0.4785
 2069SOL     OW 8348   2.220   4.229   3.389 -0.3379  0.1246  0.2015
 2069SOL    HW2 8349   2.150   4.288   3.415 -1.1301 -0.1623 -1.2388
 2069SOL    HW3 8350   2.230   4.243   3.295  0.9508 -0.4588  0.2366
 2069SOL    MW4 8351   2.212   4.239   3.380 -0.2725  0.0095  0.0160
 2070SOL     OW 8352   2.430   4.412   3.478  0.0131 -0.0992  0.1801
 2070SOL    HW2 8353   2.435   4.419   3.573  0.7040  1.4104  0.0398
 2070SOL    HW3 8354   2.355   4.354   3.463 -0.2521 -0.1635  1.6324
 2070SOL    MW4 8355   2.421   4.405   3.489  0.0691  0.0906  0.3531
 2071SOL     OW 8356   2.940   0.023   3.401  0.4306  0.2677 -0.4388
 2071SOL    HW2 8357   2.875   0.082   3.440  1.1164 -0.0914  1.2819
 2071SOL    HW3 8358   2.911  -0.065   3.426  1.9024  0.1373  0.8898
 2071SOL    MW4 8359   2.927   0.019   3.410  0.7153  0.2031 -0.0365
 2072SOL     OW 8360   2.706   0.140   3.499  0.3106  0.3679 -0.2276
 2072SOL    HW2 8361   2.679   0.228   3.471  0.0221  0.0968 -0.8054
 2072SOL    HW3 8362   2.635   0.083   3.470  0.4972 -0.0583  0.1522
 2072SOL    MW4 8363   2.693   0.144   3.491  0.2968  0.2759 -0.2539
 2073SOL     OW 8364   2.673   0.416   3.430 -0.2359 -0.2018 -0.1270
 2073SOL    HW2 8365   2.756   0.459   3.450 -1.2548  1.5277  0.5072
 2073SOL    HW3 8366   2.669   0.416   3.335  0.3070  0.1081 -0.1534
 2073SOL    MW4 8367   2.683   0.422   3.420 -0.2987  0.0672 -0.0470
 2074SOL     OW 8368   2.914   0.535   3.480  0.1225 -0.3746 -0.5062
 2074SOL    HW2 8369   2.899   0.541   3.574  0.6711  0.1273 -0.4515
 2074SOL    HW3 8370   2.915   0.625   3.449  0.4259 -0.5153 -0.9181
 2074SOL    MW4 8371   2.912   0.548   3.488  0.2348 -0.3270 -0.5534
 2075SOL     OW 8372   2.903   0.785   3.383 -0.6283  0.6780 -0.2133
 2075SOL    HW2 8373   2.972   0.832   3.430  0.4065 -0.9429 -0.0642
 2075SOL    HW3 8374   2.822   0.809   3.428  0.1990  0.1969  1.5900
 2075SOL    MW4 8375   2.901   0.794   3.396 -0.3824  0.4007  0.0443
 2076SOL     OW 8376   2.668   0.911   3.505 -0.1424  0.1551  0.2363
 2076SOL    HW2 8377   2.673   0.917   3.600  0.1464 -0.1976  0.2431
 2076SOL    HW3 8378   2.692   0.999   3.474  1.9234 -0.3080  0.4184
 2076SOL    MW4 8379   2.672   0.924   3.513  0.1683  0.0474  0.2613
 2077SOL     OW 8380   2.699   1.170   3.417 -0.3945  0.4907 -0.1082
 2077SOL    HW2 8381   2.777   1.219   3.441  1.3604 -1.4274 -1.7855
 2077SOL    HW3 8382   2.688   1.186   3.323 -0.9362 -0.7384 -0.2590
 2077SOL    MW4 8383   2.707   1.178   3.408 -0.2344  0.0753 -0.3498
 2078SOL     OW 8384   2.930   1.306   3.498  0.2949 -0.2906  0.4431
 2078SOL    HW2 8385   2.933   1.298   3.593 -0.5539 -1.1357  0.4084
 2078SOL    HW3 8386   3.005   1.256   3.467  1.5789  1.4077  0.7288
 2078SOL    MW4 8387   2.940   1.298   3.506  0.3524 -0.1781  0.4764
 2079SOL     OW 8388   2.896   1.540   3.352 -0.0495  0.4050 -0.3068
 2079SOL    HW2 8389   2.830   1.596   3.394 -0.2650 -0.2810  0.2916
 2079SOL    HW3 8390   2.888   1.456   3.397  0.8760  0.1535 -0.5959
 2079SOL    MW4 8391   2.886   1.536   3.363  0.0443  0.2815 -0.2661
 2080SOL     OW 8392   2.712   1.731   3.441  0.3829 -0.8767 -0.2648
 2080SOL    HW2 8393   2.726   1.815   3.398  0.2552 -0.7763 -0.1114
 2080SOL    HW3 8394   2.622   1.707   3.418  0.7913 -1.4952 -1.2069
 2080SOL    MW4 8395   2.702   1.739   3.433  0.4196 -0.9451 -0.3688
 2081SOL     OW 8396   2.765   1.983   3.326  0.3218  0.4881  0.2757
 2081SOL    HW2 8397   2.683   2.015   3.363  0.0150  0.1123 -0.0693
 2081SOL    HW3 8398   2.752   1.989   3.231  0.4420 -0.1888  0.2153
 2081SOL    MW4 8399   2.752   1.988   3.318  0.2973  0.3493  0.2222
 2082SOL     OW 8400   2.963   2.129   3.446  0.3622 -0.1496 -0.4786
 2082SOL    HW2 8401   2.956   2.117   3.540  0.0585 -0.1503 -0.5009
 2082SOL    HW3 8402   2.883   2.090   3.410  1.2200 -1.6062 -0.8665
 2082SOL    MW4 8403   2.951   2.122   3.453  0.4354 -0.3424 -0.5326
 2083SOL     OW 8404   2.956   2.394   3.373  0.4620  0.1931  0.3683
 2083SOL    HW2 8405   2.962   2.301   3.396  1.3797 -0.1949 -1.3252
 2083SOL    HW3 8406   2.973   2.396   3.278  1.1991  2.1639  0.5198
 2083SOL    MW4 8407   2.959   2.382   3.363  0.6804  0.4020  0.1650
 2084SOL     OW 8408   2.696   2.460   3.438  0.7192  0.1440  0.2572
 2084SOL    HW2 8409   2.697   2.449   3.533  1.8824 -0.6076  0.1631
 2084SOL    HW3 8410   2.788   2.457   3.412  0.3892 -0.0286 -0.9379
 2084SOL    MW4 8411   2.708   2.458   3.447  0.8292  0.0219  0.0870
 2085SOL     OW 8412   2.669   2.707   3.372  0.1308  0.6049 -0.2655
 2085SOL    HW2 8413   2.676   2.614   3.394  0.6460 -0.1724 -3.4201
 2085SOL    HW3 8414   2.582   2.732   3.403  0.2053 -0.7736  1.1100
 2085SOL    MW4 8415   2.658   2.698   3.379  0.2086  0.3202 -0.5000
 2086SOL     OW 8416   2.896   2.863   3.416 -0.3786  0.1901  0.3827
 2086SOL    HW2 8417   2.918   2.879   3.508 -1.2237  3.0899  0.1393
 2086SOL    HW3 8418   2.809   2.824   3.419 -0.3197  0.0846  0.8098
 2086SOL    MW4 8419   2.888   2.860   3.428 -0.4823  0.5589  0.4070
 2087SOL     OW 8420   2.882   3.141   3.337  0.0491 -0.1926  0.3314
 2087SOL    HW2 8421   2.907   3.051   3.357 -0.7938 -0.7754 -1.2160
 2087SOL    HW3 8422   2.881   3.146   3.242 -0.0240  1.4251  0.4012
 2087SOL    MW4 8423   2.885   3.130   3.327 -0.0718 -0.0560  0.1366
 2088SOL     OW 8424   2.640   3.218   3.459  0.0975  0.0315 -0.2638
 2088SOL    HW2 8425   2.658   3.225   3.552 -0.1629  0.7749 -0.2572
 2088SOL    HW3 8426   2.723   3.193   3.419 -0.1320 -1.6796  0.3146
 2088SOL    MW4 8427   2.653   3.216   3.466  0.0329 -0.0961 -0.1864
 2089SOL     OW 8428   2.682   3.497   3.377 -0.1981  0.0275  0.1781
 2089SOL    HW2 8429   2.647   3.411   3.400 -0.2873 -0.4988 -1.8000
 2089SOL    HW3 8430   2.615   3.559   3.405 -1.1144 -0.7195 -0.3359
 2089SOL    MW4 8431   2.668   3.494   3.384 -0.3304 -0.1407 -0.1509
 2090SOL     OW 8432   2.926   3.626   3.478  0.0697 -0.0400  0.4120
 2090SOL    HW2 8433   2.910   3.705   3.427 -0.7255 -0.6364 -0.2879
 2090SOL    HW3 8434   2.852   3.568   3.456  1.6938 -1.7672 -0.6450
 2090SOL    MW4 8435   2.914   3.629   3.468  0.1788 -0.3462  0.1800
 2091SOL     OW 8436   2.893   3.904   3.369 -0.0748  0.4185 -0.0036
 2091SOL    HW2 8437   2.962   3.942   3.423  0.2072  1.2088 -0.9149
 2091SOL    HW3 8438   2.812   3.927   3.415  0.2350 -0.1786  0.8602
 2091SOL    MW4 8439   2.891   3.912   3.382  0.0031  0.4439 -0.0098
 2092SOL     OW 8440   2.665   3.997   3.483 -0.5143  0.1321  0.2606
 2092SOL    HW2 8441   2.662   4.001   3.578  0.1508 -0.7412  0.3168
 2092SOL    HW3 8442   2.691   4.086   3.456 -0.8821  0.4295  0.8731
 2092SOL    MW4 8443   2.668   4.009   3.492 -0.4749  0.0563  0.3490
 2093SOL     OW 8444   2.676   4.267   3.391 -0.1293  0.6955 -0.4849
 2093SOL    HW2 8445   2.739   4.335   3.411  0.7040 -0.2455  0.1434
 2093SOL    HW3 8446   2.591   4.309   3.401  0.3756  1.6688 -0.2384
 2093SOL    MW4 8447   2.673   4.281   3.395  0.0474  0.6995 -0.3693
 2094SOL     OW 8448   2.896   4.411   3.461  0.4625 -0.3056  0.1889
 2094SOL    HW2 8449   2.972   4.370   3.421  1.6394  1.2828  0.7760
 2094SOL    HW3 8450   2.907   4.397   3.555 -0.3406 -0.6966  0.2286
 2094SOL    MW4 8451   2.907   4.404   3.468  0.5116 -0.1473  0.2716
 2095SOL     OW 8452   3.384   4.649   3.386 -0.1214 -0.0135 -0.0393
 2095SOL    HW2 8453   3.303   4.684   3.425  0.4886  2.6928 -1.0746
 2095SOL    HW3 8454   3.365   4.646   3.293  0.6704 -0.2112 -0.1901
 2095SOL    MW4 8455   3.371   4.654   3.379  0.0632  0.3175 -0.1960
 2096SOL     OW 8456   3.178   0.124   3.489  0.4099 -0.5972  0.5923
 2096SOL    HW2 8457   3.165   0.215   3.463  0.1528 -1.0716 -0.9710
 2096SOL    HW3 8458   3.101   0.077   3.455  1.1224 -1.5983  0.3262
 2096SOL    MW4 8459   3.166   0.130   3.481  0.4699 -0.7919  0.3510
 2097SOL     OW 8460   3.134   0.395   3.396 -0.0566 -0.2504  0.4094
 2097SOL    HW2 8461   3.071   0.457   3.433  1.6289  1.1123  1.0584
 2097SOL    HW3 8462   3.137   0.416   3.303 -2.3903 -1.9834 -0.1027
 2097SOL    MW4 8463   3.126   0.406   3.388 -0.1419 -0.2992  0.4275
 2098SOL     OW 8464   3.364   0.513   3.501 -0.5454  0.1515 -0.6020
 2098SOL    HW2 8465   3.363   0.513   3.597 -0.3871 -0.6909 -0.5984
 2098SOL    HW3 8466   3.283   0.469   3.476 -0.0980 -0.5443 -0.8458
 2098SOL    MW4 8467   3.353   0.508   3.510 -0.4652 -0.0514 -0.6337
 2099SOL     OW 8468   3.372   0.795   3.379 -0.0983  0.0005 -0.2310
 2099SOL    HW2 8469   3.428   0.843   3.441 -0.6977 -0.6487  0.8198
 2099SOL    HW3 8470   3.381   0.703   3.404 -3.6482  0.0775  1.6406
 2099SOL    MW4 8471   3.381   0.789   3.390 -0.6454 -0.0749  0.1547
 2100SOL     OW 8472   3.129   0.872   3.482 -0.8745  0.4798 -0.0218
 2100SOL    HW2 8473   3.150   0.965   3.482  0.1442  0.2607 -1.0995
 2100SOL    HW3 8474   3.200   0.831   3.432 -1.9583 -0.7370 -0.5889
 2100SOL    MW4 8475   3.141   0.879   3.476 -0.8829  0.2903 -0.2389
 2101SOL     OW 8476   3.172   1.159   3.383 -0.0239  0.2543 -0.0526
 2101SOL    HW2 8477   3.225   1.235   3.403  0.7438 -0.6352  1.4383
 2101SOL    HW3 8478   3.162   1.159   3.288  1.2980  1.3175 -0.1905
 2101SOL    MW4 8479   3.177   1.169   3.373  0.2518  0.2773  0.1259
 2102SOL     OW 8480   3.367   1.345   3.495  0.1212 -1.1338  0.1105
 2102SOL    HW2 8481   3.432   1.296   3.445 -0.3432 -1.1362 -0.4916
 2102SOL    HW3 8482   3.351   1.424   3.444 -0.3497 -1.1372  0.2474
 2102SOL    MW4 8483   3.373   1.349   3.482 -0.0019 -1.1346  0.0491
 2103SOL     OW 8484   3.375   1.619   3.397  0.2281 -0.0565 -0.6363
 2103SOL    HW2 8485   3.458   1.643   3.438  0.0541  0.7206 -0.7322
 2103SOL    HW3 8486   3.308   1.652   3.458  0.0003 -1.8032  0.0688
 2103SOL    MW4 8487   3.377   1.627   3.411  0.1752 -0.1845 -0.5560
 2104SOL     OW 8488   3.103   1.688   3.522 -0.4094  0.4837  0.0110
 2104SOL    HW2 8489   3.114   1.764   3.465 -1.0700  0.4246 -0.1984
 2104SOL    HW3 8490   3.020   1.650   3.496 -1.2005  1.0067  1.6589
 2104SOL    MW4 8491   3.094   1.693   3.511 -0.6008  0.5449  0.2010
 2105SOL     OW 8492   3.133   1.914   3.364 -0.2426 -0.5863 -0.5220
 2105SOL    HW2 8493   3.075   1.982   3.399 -0.7200 -1.1008 -0.3041
 2105SOL    HW3 8494   3.153   1.942   3.275 -0.4988 -0.1969 -0.4568
 2105SOL    MW4 8495   3.128   1.927   3.357 -0.3393 -0.6028 -0.4845
 2106SOL     OW 8496   3.344   2.054   3.484  0.9017 -0.4731  0.2664
 2106SOL    HW2 8497   3.343   2.140   3.442 -0.0738 -0.3919  0.4431
 2106SOL    HW3 8498   3.272   2.006   3.442  1.8356 -1.4293 -0.2871
 2106SOL    MW4 8499   3.334   2.059   3.473  0.8965 -0.5884  0.2162
 2107SOL     OW 8500   3.368   2.307   3.378  0.2419 -0.3505 -0.3141
 2107SOL    HW2 8501   3.448   2.330   3.425  0.2044 -1.8542  0.5245
 2107SOL    HW3 8502   3.308   2.379   3.395  0.3577 -0.7057  1.6503
 2107SOL    MW4 8503   3.371   2.319   3.386  0.2522 -0.5956  0.0556
 2108SOL     OW 8504   3.190   2.508   3.465  0.3804  0.0378  0.6929
 2108SOL    HW2 8505   3.178   2.589   3.415  2.5853  0.1824  0.3463
 2108SOL    HW3 8506   3.118   2.452   3.438 -0.6725  1.5443  0.2670
 2108SOL    MW4 8507   3.179   2.512   3.455  0.5322  0.2558  0.5910
 2109SOL     OW 8508   3.127   2.745   3.325 -0.1493  0.0643  0.5551
 2109SOL    HW2 8509   3.201   2.780   3.375 -0.2208  1.1536 -0.0902
 2109SOL    HW3 8510   3.050   2.787   3.364 -0.1592  1.3536 -0.8322
 2109SOL    MW4 8511   3.127   2.755   3.337 -0.1600  0.3779  0.2868
 2110SOL     OW 8512   3.355   2.849   3.435  0.4870  0.1100 -0.2021
 2110SOL    HW2 8513   3.442   2.811   3.421  0.2986 -0.7541  0.8777
 2110SOL    HW3 8514   3.349   2.859   3.530 -0.2109  1.0925 -0.3464
 2110SOL    MW4 8515   3.366   2.846   3.446  0.3700  0.1256 -0.0787
 2111SOL     OW 8516   3.331   3.133   3.356 -0.0473  0.0010 -0.3568
 2111SOL    HW2 8517   3.308   3.049   3.398  0.6131 -0.2608 -0.5173
 2111SOL    HW3 8518   3.259   3.192   3.380  0.6295  0.0285  1.6840
 2111SOL    MW4 8519   3.319   3.129   3.365  0.1290 -0.0298 -0.1085
 2112SOL     OW 8520   3.106   3.273   3.420  0.1634  0.4478  0.0569
 2112SOL    HW2 8521   3.111   3.357   3.375  0.3422  0.1326 -0.5070
 2112SOL    HW3 8522   3.018   3.241   3.401  0.3892  0.1112 -0.4352
 2112SOL    MW4 8523   3.095   3.280   3.412  0.2167  0.3617 -0.0825
 2113SOL     OW 8524   3.140   3.522   3.333  0.0078  0.4037 -0.5255
 2113SOL    HW2 8525   3.059   3.558   3.368  0.4719  1.8152 -0.8843
 2113SOL    HW3 8526   3.122   3.510   3.239  0.3278  1.0548 -0.6728
 2113SOL    MW4 8527   3.127   3.525   3.325  0.1113  0.6757 -0.5922
 2114SOL     OW 8528   3.341   3.626   3.493 -0.1553 -0.5059  0.0541
 2114SOL    HW2 8529   3.416   3.592   3.444 -1.2843 -0.8992 -1.4094
 2114SOL    HW3 8530   3.265   3.602   3.441 -1.1189  2.4100  0.0634
 2114SOL    MW4 8531   3.341   3.618   3.480 -0.4313 -0.1729 -0.1378
 2115SOL     OW 8532   3.341   3.891   3.401  0.2661  0.0796  0.5284
 2115SOL    HW2 8533   3.432   3.920   3.412 -0.1196  0.8349  1.8876
 2115SOL    HW3 8534   3.343   3.797   3.421  0.9186 -0.1273 -0.4680
 2115SOL    MW4 8535   3.353   3.882   3.405  0.3011  0.1519  0.5763
 2116SOL     OW 8536   3.107   4.041   3.458 -0.0462  0.0078  0.6758
 2116SOL    HW2 8537   3.110   4.070   3.549  1.2826  1.1052  0.2979
 2116SOL    HW3 8538   3.182   3.982   3.449  0.2721  0.4934  0.0991
 2116SOL    MW4 8539   3.117   4.037   3.468  0.1712  0.2165  0.5498
 2117SOL     OW 8540   3.124   4.302   3.355  0.1588 -0.3726 -0.0465
 2117SOL    HW2 8541   3.204   4.333   3.398  1.1262 -1.5912 -0.9195
 2117SOL    HW3 8542   3.119   4.210   3.378 -0.3953 -0.5624 -0.9040
 2117SOL    MW4 8543   3.134   4.294   3.363  0.2134 -0.5584 -0.2747
 2118SOL     OW 8544   3.334   4.397   3.498 -0.1006  0.1103  0.6908
 2118SOL    HW2 8545   3.322   4.400   3.593  0.2909  1.9287  0.7044
 2118SOL    HW3 8546   3.353   4.488   3.474 -2.7649  0.1691 -1.4559
 2118SOL    MW4 8547   3.335   4.409   3.507 -0.4003  0.3581  0.4094
 2119SOL     OW 8548   3.789   4.640   3.387  0.1974 -0.4891 -0.2017
 2119SOL    HW2 8549   3.713   4.681   3.429 -0.6505 -0.3706 -1.8282
 2119SOL    HW3 8550   3.769   4.641   3.294  1.4720 -1.9794 -0.5150
 2119SOL    MW4 8551   3.776   4.646   3.381  0.2537 -0.6701 -0.4578
 2120SOL     OW 8552   3.586   0.132   3.493 -0.0576 -0.4239  0.0676
 2120SOL    HW2 8553   3.593   0.216   3.448  0.9305  0.6238  2.1230
 2120SOL    HW3 8554   3.502   0.096   3.464 -1.1727  1.9299  0.2604
 2120SOL    MW4 8555   3.575   0.138   3.483 -0.0746  0.0249  0.3641
 2121SOL     OW 8556   3.593   0.406   3.380  0.0089  0.0339  0.1636
 2121SOL    HW2 8557   3.659   0.444   3.438 -0.6083  0.1232  0.8002
 2121SOL    HW3 8558   3.510   0.424   3.423 -0.4693  0.3351 -0.8788
 2121SOL    MW4 8559   3.591   0.413   3.393 -0.1357  0.0854  0.1099
 2122SOL     OW 8560   3.802   0.516   3.505 -0.0006  0.1987  0.4550
 2122SOL    HW2 8561   3.816   0.525   3.599  1.5588  0.1916  0.2428
 2122SOL    HW3 8562   3.872   0.456   3.476 -0.4735  0.1886 -0.6977
 2122SOL    MW4 8563   3.813   0.509   3.514  0.1428  0.1964  0.2751
 2123SOL     OW 8564   3.769   0.759   3.378  0.0360  0.1055 -0.0593
 2123SOL    HW2 8565   3.842   0.814   3.407 -0.0728  0.1394  0.1491
 2123SOL    HW3 8566   3.787   0.674   3.418 -0.5566  0.3774  0.7903
 2123SOL    MW4 8567   3.781   0.755   3.387 -0.0565  0.1459  0.0801
 2124SOL     OW 8568   3.603   0.937   3.486 -0.2396  0.2963 -0.1065
 2124SOL    HW2 8569   3.612   0.922   3.580 -1.3947 -0.3966 -0.1055
 2124SOL    HW3 8570   3.643   0.861   3.445 -0.2435  0.3294 -0.1726
 2124SOL    MW4 8571   3.610   0.925   3.493 -0.3929  0.2093 -0.1154
 2125SOL     OW 8572   3.562   1.200   3.355  0.2152  0.2625 -0.1203
 2125SOL    HW2 8573   3.567   1.116   3.401  1.2697  0.4138  0.0538
 2125SOL    HW3 8574   3.589   1.179   3.265  1.1140  0.5319  0.0833
 2125SOL    MW4 8575   3.566   1.186   3.349  0.4733  0.3182 -0.0703
 2126SOL     OW 8576   3.812   1.300   3.435 -0.2047 -0.1184 -0.0170
 2126SOL    HW2 8577   3.809   1.298   3.531 -2.4099 -0.7688 -0.0718
 2126SOL    HW3 8578   3.730   1.258   3.408  0.8210 -0.7817 -2.1959
 2126SOL    MW4 8579   3.800   1.294   3.444 -0.3605 -0.2917 -0.3119
 2127SOL     OW 8580   3.770   1.575   3.335 -0.0249  0.4592 -0.4530
 2127SOL    HW2 8581   3.853   1.623   3.342  0.5055 -0.5135  0.0961
 2127SOL    HW3 8582   3.785   1.495   3.386 -1.7149  0.8307  0.6621
 2127SOL    MW4 8583   3.783   1.571   3.343 -0.1779  0.3800 -0.2334
 2128SOL     OW 8584   3.619   1.745   3.496 -0.0848  0.5074 -0.5837
 2128SOL    HW2 8585   3.613   1.821   3.438 -1.0513  0.7085 -0.2263
 2128SOL    HW3 8586   3.667   1.679   3.444 -0.4383  0.8837 -1.4003
 2128SOL    MW4 8587   3.625   1.746   3.481 -0.2589  0.5836 -0.6442
 2129SOL     OW 8588   3.565   1.966   3.359  0.0402  0.0031 -0.4144
 2129SOL    HW2 8589   3.637   2.010   3.405  0.2740 -1.3728  0.5762
 2129SOL    HW3 8590   3.488   1.983   3.412 -0.1817  0.5666 -0.9034
 2129SOL    MW4 8591   3.564   1.974   3.372  0.0417 -0.1042 -0.3481
 2130SOL     OW 8592   3.787   2.079   3.490 -0.0343 -0.2197 -0.3994
 2130SOL    HW2 8593   3.784   2.088   3.585  0.2942  1.4405 -0.5377
 2130SOL    HW3 8594   3.869   2.031   3.472  0.3774  0.3067  0.0892
 2130SOL    MW4 8595   3.798   2.074   3.500  0.0634  0.0687 -0.3536
 2131SOL     OW 8596   3.820   2.310   3.349 -0.3336 -0.1825 -0.0074
 2131SOL    HW2 8597   3.910   2.339   3.364 -0.6758  0.1855  1.3345
 2131SOL    HW3 8598   3.818   2.220   3.382 -0.5557 -0.0659  0.2979
 2131SOL    MW4 8599   3.832   2.302   3.355 -0.4084 -0.1185  0.2098
 2132SOL     OW 8600   3.588   2.437   3.495  0.3020 -0.3900 -0.2082
 2132SOL    HW2 8601   3.579   2.528   3.467  0.0851 -0.4573 -0.3538
 2132SOL    HW3 8602   3.676   2.412   3.466  1.2222  0.4644  1.7939
 2132SOL    MW4 8603   3.599   2.445   3.487  0.3946 -0.2859  0.0365
 2133SOL     OW 8604   3.592   2.705   3.384  0.1397  0.2763  0.2404
 2133SOL    HW2 8605   3.654   2.757   3.435  0.4912  0.3861 -0.2989
 2133SOL    HW3 8606   3.622   2.713   3.294  0.0220 -0.6112  0.1165
 2133SOL    MW4 8607   3.604   2.713   3.379  0.1705  0.1738  0.1528
 2134SOL     OW 8608   3.821   2.858   3.424  0.1306  0.6388  0.0883
 2134SOL    HW2 8609   3.838   2.874   3.517 -0.4563  0.2395  0.2666
 2134SOL    HW3 8610   3.797   2.943   3.389  2.4605  1.2290 -0.1744
 2134SOL    MW4 8611   3.820   2.871   3.432  0.3603  0.6638  0.0772
 2135SOL     OW 8612   3.765   3.148   3.365 -0.7118 -0.0200 -0.1075
 2135SOL    HW2 8613   3.834   3.172   3.427  1.4513 -1.4068 -1.9391
 2135SOL    HW3 8614   3.688   3.196   3.396  1.2534  2.2173  1.4795
 2135SOL    MW4 8615   3.764   3.157   3.378 -0.1671  0.0923 -0.1400
 2136SOL     OW 8616   3.533   3.274   3.460 -0.0105  0.0028  0.6990
 2136SOL    HW2 8617   3.468   3.220   3.415  1.7483 -0.2632 -1.6047
 2136SOL    HW3 8618   3.529   3.245   3.551 -2.4821 -0.6205  0.4197
 2136SOL    MW4 8619   3.524   3.263   3.466 -0.1047 -0.1147  0.3581
 2137SOL     OW 8620   3.564   3.548   3.367  0.1664 -0.1867 -0.4333
 2137SOL    HW2 8621   3.542   3.462   3.403 -0.7643 -0.2960 -1.2770
 2137SOL    HW3 8622   3.577   3.532   3.274  0.3851  0.5259 -0.5232
 2137SOL    MW4 8623   3.563   3.534   3.360  0.0725 -0.1068 -0.5565
 2138SOL     OW 8624   3.815   3.612   3.448  0.1919 -0.0333  0.0820
 2138SOL    HW2 8625   3.824   3.631   3.541 -0.4716  0.0830  0.1284
 2138SOL    HW3 8626   3.721   3.600   3.435  0.1713  0.8831 -0.7469
 2138SOL    MW4 8627   3.804   3.613   3.458  0.1018  0.1030 -0.0215
 2139SOL     OW 8628   3.810   3.909   3.392 -0.2521 -0.2149  0.2713
 2139SOL    HW2 8629   3.729   3.950   3.424  0.6102  0.8629  1.1029
 2139SOL    HW3 8630   3.804   3.818   3.423 -1.2161 -0.1931  0.1823
 2139SOL    MW4 8631   3.798   3.902   3.400 -0.2651 -0.0696  0.3691
 2140SOL     OW 8632   3.574   4.026   3.484  0.4091  0.3804  0.5358
 2140SOL    HW2 8633   3.561   4.039   3.578 -0.1792 -0.0363  0.5202
 2140SOL    HW3 8634   3.559   4.112   3.446  1.2777  0.6878  0.8850
 2140SOL    MW4 8635   3.570   4.039   3.491  0.4461  0.3662  0.5801
 2141SOL     OW 8636   3.548   4.269   3.367  0.4933  0.4242  0.1230
 2141SOL    HW2 8637   3.473   4.307   3.414  0.5829  1.0804 -0.2612
 2141SOL    HW3 8638   3.538   4.300   3.277  0.0714 -1.1930 -0.4095
 2141SOL    MW4 8639   3.536   4.278   3.361  0.4494  0.2975  0.0019
 2142SOL     OW 8640   3.792   4.371   3.464  0.4872 -0.5813  0.4338
 2142SOL    HW2 8641   3.712   4.333   3.427 -0.0566 -1.0815  2.1025
 2142SOL    HW3 8642   3.782   4.465   3.452  0.2116 -0.7188 -0.4679
 2142SOL    MW4 8643   3.780   4.379   3.457  0.3788 -0.6657  0.5350
 2143SOL     OW 8644   4.244   4.634   3.361  0.3347  0.0591  0.2149
 2143SOL    HW2 8645   4.263   4.554   3.409  0.2260  0.0616  0.2621
 2143SOL    HW3 8646   4.310   4.697   3.392  1.5700 -0.5347 -1.1643
 2143SOL    MW4 8647   4.255   4.632   3.372  0.4835 -0.0186  0.0391
 2144SOL     OW 8648   4.030   0.112   3.462  0.0125 -0.0049 -0.1706
 2144SOL    HW2 8649   4.096   0.057   3.419 -1.4171 -0.9059 -1.2483
 2144SOL    HW3 8650   3.949   0.061   3.457 -0.8412  1.2248  0.8688
 2144SOL    MW4 8651   4.028   0.098   3.456 -0.2885  0.0385 -0.1755
 2145SOL     OW 8652   4.022   0.393   3.394  0.0132  0.0249  0.0478
 2145SOL    HW2 8653   4.029   0.300   3.415  1.2917  0.2473  0.5941
 2145SOL    HW3 8654   3.992   0.394   3.303  1.4229 -0.9290 -0.4454
 2145SOL    MW4 8655   4.019   0.381   3.385  0.3681 -0.0716  0.0548
 2146SOL     OW 8656   4.247   0.525   3.479 -0.1234  0.0170  0.0952
 2146SOL    HW2 8657   4.258   0.612   3.440  0.1711 -0.3087 -0.5752
 2146SOL    HW3 8658   4.169   0.490   3.436  0.2318 -0.3641 -0.2534
 2146SOL    MW4 8659   4.238   0.532   3.468 -0.0377 -0.0763 -0.0393
 2147SOL     OW 8660   4.250   0.788   3.410  0.5331 -0.0828 -0.2509
 2147SOL    HW2 8661   4.325   0.843   3.435 -0.7278  1.3433  0.4849
 2147SOL    HW3 8662   4.257   0.780   3.315  1.4204  0.3383 -0.2291
 2147SOL    MW4 8663   4.261   0.794   3.401  0.4835  0.1609 -0.1512
 2148SOL     OW 8664   3.986   0.888   3.491  0.2828 -0.2099  0.1583
 2148SOL    HW2 8665   3.989   0.980   3.466  0.7485 -0.1897  0.2713
 2148SOL    HW3 8666   4.073   0.854   3.469  0.1597 -0.5891  0.2394
 2148SOL    MW4 8667   3.998   0.895   3.485  0.3281 -0.2573  0.1843
 2149SOL     OW 8668   4.035   1.155   3.401 -0.3532 -0.2598 -0.6077
 2149SOL    HW2 8669   4.106   1.195   3.451 -0.3243 -0.9314 -0.1052
 2149SOL    HW3 8670   3.961   1.214   3.413 -0.1872 -0.1271 -0.2394
 2149SOL    MW4 8671   4.035   1.168   3.409 -0.3276 -0.3309 -0.4928
 2150SOL     OW 8672   4.242   1.279   3.560 -0.5204  0.4771  0.2696
 2150SOL    HW2 8673   4.221   1.361   3.516  0.0356  1.0552  1.0716
 2150SOL    HW3 8674   4.313   1.241   3.509  0.9274  1.7175  1.3134
 2150SOL    MW4 8675   4.249   1.285   3.548 -0.2565  0.7170  0.5133
 2151SOL     OW 8676   4.213   1.501   3.397 -0.5213 -0.0476  0.1711
 2151SOL    HW2 8677   4.151   1.572   3.415 -0.7324 -0.1405 -0.2037
 2151SOL    HW3 8678   4.219   1.497   3.302  0.7383  0.5550  0.2124
 2151SOL    MW4 8679   4.206   1.510   3.387 -0.3829  0.0197  0.1273
 2152SOL     OW 8680   4.008   1.692   3.433  0.8269 -0.7062 -0.0375
 2152SOL    HW2 8681   4.001   1.662   3.524  1.1356 -0.5341  0.0426
 2152SOL    HW3 8682   4.022   1.787   3.440 -0.4599 -0.4851 -0.2956
 2152SOL    MW4 8683   4.009   1.701   3.446  0.6986 -0.6545 -0.0610
 2153SOL     OW 8684   4.030   1.962   3.402 -0.6385 -0.0618  0.0579
 2153SOL    HW2 8685   4.103   2.004   3.448 -0.3072 -0.7986  0.2109
 2153SOL    HW3 8686   4.059   1.956   3.311  0.3439 -2.1820  0.4747
 2153SOL    MW4 8687   4.044   1.967   3.396 -0.4649 -0.4388  0.1333
 2154SOL     OW 8688   4.255   2.063   3.516 -0.3190 -0.5973  0.1202
 2154SOL    HW2 8689   4.264   2.147   3.470 -0.7587 -0.8629 -0.4577
 2154SOL    HW3 8690   4.328   2.010   3.484 -0.1594 -0.5099  0.3344
 2154SOL    MW4 8691   4.266   2.067   3.506 -0.3552 -0.6208  0.0722
 2155SOL     OW 8692   4.302   2.294   3.391  0.0681 -0.2899  0.2331
 2155SOL    HW2 8693   4.227   2.345   3.421  0.4203  0.1378  0.3821
 2155SOL    HW3 8694   4.294   2.294   3.295  0.1807  0.2223  0.2211
 2155SOL    MW4 8695   4.291   2.300   3.382  0.1287 -0.1659  0.2511
 2156SOL     OW 8696   4.064   2.439   3.448 -0.0710  0.2755  0.0153
 2156SOL    HW2 8697   4.057   2.456   3.542  0.5433  0.6200  0.0047
 2156SOL    HW3 8698   4.046   2.523   3.407 -0.7108  0.0382 -0.1945
 2156SOL    MW4 8699   4.061   2.452   3.455 -0.0744  0.2897 -0.0138
 2157SOL     OW 8700   3.996   2.690   3.294  0.2346  0.1205  0.0031
 2157SOL    HW2 8701   4.076   2.721   3.337  0.5891  2.5672 -2.3170
 2157SOL    HW3 8702   3.926   2.746   3.328 -0.2745 -1.0910  0.9717
 2157SOL    MW4 8703   3.997   2.701   3.304  0.2143  0.2835 -0.1752
 2158SOL     OW 8704   4.235   2.743   3.461  0.1408  0.2059  0.3548
 2158SOL    HW2 8705   4.266   2.758   3.551 -0.6894 -0.1758  0.7089
 2158SOL    HW3 8706   4.306   2.692   3.420  0.4579  0.2531  0.8382
 2158SOL    MW4 8707   4.249   2.738   3.468  0.0734  0.1616  0.4654
 2159SOL     OW 8708   4.194   3.073   3.418 -0.8187 -0.3800  0.1123
 2159SOL    HW2 8709   4.192   2.980   3.443 -0.7786 -0.4960 -0.3168
 2159SOL    HW3 8710   4.206   3.072   3.323  2.1177  0.0935  0.4542
 2159SOL    MW4 8711   4.195   3.061   3.409 -0.4263 -0.3331  0.1009
 2160SOL     OW 8712   3.983   3.231   3.517 -0.1614 -0.2783 -0.3124
 2160SOL    HW2 8713   3.973   3.321   3.486  0.3703  0.1593  0.7696
 2160SOL    HW3 8714   4.058   3.198   3.468  0.0101  0.0639 -0.2858
 2160SOL    MW4 8715   3.992   3.239   3.507 -0.0689 -0.1755 -0.1662
 2161SOL     OW 8716   4.026   3.478   3.337  0.4510  0.0171  0.1443
 2161SOL    HW2 8717   4.097   3.518   3.387  1.4736 -0.9485 -0.5233
 2161SOL    HW3 8718   3.946   3.518   3.372  1.2519  0.3308  1.6288
 2161SOL    MW4 8719   4.025   3.488   3.348  0.6919 -0.0691  0.2518
 2162SOL     OW 8720   4.206   3.620   3.494 -0.4391 -0.4555 -0.2272
 2162SOL    HW2 8721   4.206   3.609   3.590 -0.0303 -2.8207 -0.4547
 2162SOL    HW3 8722   4.228   3.712   3.480  0.4095 -0.2892  1.9488
 2162SOL    MW4 8723   4.209   3.631   3.505 -0.2728 -0.7455  0.0298
 2163SOL     OW 8724   4.251   3.878   3.383  0.2114  0.1766  0.3174
 2163SOL    HW2 8725   4.333   3.906   3.422  0.6987 -0.7580 -0.0221
 2163SOL    HW3 8726   4.268   3.875   3.289 -0.8874  2.1936  0.0196
 2163SOL    MW4 8727   4.264   3.881   3.375  0.1302  0.3195  0.2332
 2164SOL     OW 8728   4.035   4.074   3.435 -0.1433  0.3830 -0.1831
 2164SOL    HW2 8729   4.107   4.017   3.406  1.2591  2.1193 -0.1755
 2164SOL    HW3 8730   3.957   4.019   3.427  1.0468 -1.2252 -1.1280
 2164SOL    MW4 8731   4.034   4.059   3.430  0.1988  0.3996 -0.3066
 2165SOL     OW 8732   4.039   4.329   3.341 -0.4143 -0.0438  0.0504
 2165SOL    HW2 8733   4.037   4.243   3.383 -1.2506 -0.3851 -0.6824
 2165SOL    HW3 8734   3.957   4.370   3.367  0.0277  0.5752  0.4756
 2165SOL    MW4 8735   4.028   4.323   3.350 -0.4663 -0.0072  0.0098
 2166SOL     OW 8736   4.266   4.363   3.486  0.2637  0.3327  0.3087
 2166SOL    HW2 8737   4.238   4.371   3.578  1.2715 -0.7605  0.7342
 2166SOL    HW3 8738   4.185   4.358   3.436 -0.3018  0.1810  1.2333
 2166SOL    MW4 8739   4.252   4.363   3.492  0.3219  0.1688  0.4869
 2167SOL     OW 8740   0.267   4.606   3.846  0.0370 -0.4335 -0.4612
 2167SOL    HW2 8741   0.226   4.594   3.931 -1.6035 -0.0718 -1.1998
 2167SOL    HW3 8742   0.207   4.661   3.797  1.6607  0.5604 -1.3727
 2167SOL    MW4 8743   0.254   4.611   3.851  0.0348 -0.2546 -0.6785
 2168SOL     OW 8744   0.054   0.097   3.720  0.0104 -0.0426 -0.2382
 2168SOL    HW2 8745   0.045   0.186   3.755  0.3930 -0.3816  0.7163
 2168SOL    HW3 8746   0.015   0.103   3.633 -0.7809  0.8513  0.1602
 2168SOL    MW4 8747   0.047   0.110   3.713 -0.0435  0.0306 -0.0598
 2169SOL     OW 8748   4.486   0.351   3.825 -0.1155  0.1123  0.4135
 2169SOL    HW2 8749   4.425   0.411   3.784 -0.5036  0.2415  1.1612
 2169SOL    HW3 8750   4.571   0.396   3.822 -0.1140  0.0619 -0.3459
 2169SOL    MW4 8751   4.489   0.365   3.819 -0.1665  0.1227  0.4120
 2170SOL     OW 8752   0.234   0.495   3.745  0.2256 -0.8265  0.4068
 2170SOL    HW2 8753   0.237   0.589   3.765  0.9625 -1.0671  1.4728
 2170SOL    HW3 8754   0.203   0.491   3.655 -0.5023  0.4134  0.5882
 2170SOL    MW4 8755   0.230   0.507   3.736  0.2268 -0.6946  0.5713
 2171SOL     OW 8756   0.214   0.758   3.834 -0.5421 -0.1244 -0.0295
 2171SOL    HW2 8757   0.206   0.761   3.929 -1.2046  0.8518 -0.1093
 2171SOL    HW3 8758   0.151   0.822   3.802  0.1107  0.0088 -1.1042
 2171SOL    MW4 8759   0.205   0.766   3.842 -0.5434  0.0220 -0.1817
 2172SOL     OW 8760   0.009   0.916   3.755  0.0930 -0.0613 -0.5133
 2172SOL    HW2 8761  -0.073   0.883   3.793 -0.5529 -0.6661 -2.3540
 2172SOL    HW3 8762   0.002   1.011   3.764 -0.9511 -0.0889 -0.8459
 2172SOL    MW4 8763  -0.003   0.924   3.761 -0.1297 -0.1448 -0.8001
 2173SOL     OW 8764   4.465   1.161   3.892  0.2909  0.0083  0.0852
 2173SOL    HW2 8765   4.382   1.207   3.878  0.5892  0.1351 -1.4226
 2173SOL    HW3 8766   4.530   1.214   3.845  1.3207  0.1796  1.6657
 2173SOL    MW4 8767   4.463   1.174   3.884  0.4663  0.0477  0.0949
 2174SOL     OW 8768   0.188   1.287   3.768 -0.2844  0.1457 -0.3022
 2174SOL    HW2 8769   0.195   1.376   3.802 -0.3398  0.0064  0.0693
 2174SOL    HW3 8770   0.199   1.297   3.673  0.2581  0.4845 -0.2037
 2174SOL    MW4 8771   0.190   1.300   3.760 -0.2201  0.1719 -0.2401
 2175SOL     OW 8772   0.191   1.556   3.880  0.2968  0.2558  0.5271
 2175SOL    HW2 8773   0.185   1.532   3.973 -2.8667 -0.8548  0.0891
 2175SOL    HW3 8774   0.107   1.596   3.860  0.9686  0.5407 -1.8715
 2175SOL    MW4 8775   0.179   1.558   3.890 -0.0319  0.1470  0.1528
 2176SOL     OW 8776   4.437   1.667   3.797 -0.0646 -0.2626 -0.3649
 2176SOL    HW2 8777   4.444   1.760   3.816  1.2878 -0.4976  0.2845
 2176SOL    HW3 8778   4.414   1.663   3.704 -0.8434  0.7257 -0.2202
 2176SOL    MW4 8779   4.435   1.679   3.787  0.0110 -0.1632 -0.2601
 2177SOL     OW 8780   4.448   1.946   3.882 -0.0592  0.1497  0.5491
 2177SOL    HW2 8781   4.463   1.938   3.976  0.0372 -0.4210  0.4841
 2177SOL    HW3 8782   4.371   2.002   3.876  0.3963  0.8263  0.9458
 2177SOL    MW4 8783   4.440   1.952   3.894  0.0138  0.1637  0.5929
 2178SOL     OW 8784   0.185   2.051   3.788 -0.1553  0.0705 -0.4255
 2178SOL    HW2 8785   0.180   2.144   3.809  1.5784 -0.2206  1.5266
 2178SOL    HW3 8786   0.109   2.012   3.832  0.8797  0.1494  1.5136
 2178SOL    MW4 8787   0.174   2.058   3.797  0.2100  0.0427  0.0880
 2179SOL     OW 8788   0.194   2.321   3.877 -0.4836 -0.3136 -0.0134
 2179SOL    HW2 8789   0.175   2.350   3.967  2.1212  1.0906  0.1461
 2179SOL    HW3 8790   0.131   2.370   3.823 -2.0170 -1.1022  1.0097
 2179SOL    MW4 8791   0.183   2.331   3.882 -0.3422 -0.2325  0.1426
 2180SOL     OW 8792   0.002   2.443   3.721 -0.5035  0.4149 -0.3015
 2180SOL    HW2 8793  -0.081   2.407   3.752  0.0603  0.6798  1.5834
 2180SOL    HW3 8794   0.005   2.531   3.759  1.0055  0.1056  0.3006
 2180SOL    MW4 8795  -0.009   2.450   3.730 -0.2300  0.4091  0.0265
 2181SOL     OW 8796   0.035   2.685   3.842 -0.0007  0.4796  0.4938
 2181SOL    HW2 8797   0.051   2.671   3.935  1.0010 -0.5503  0.1774
 2181SOL    HW3 8798   0.106   2.742   3.813 -0.1339  0.5476  0.2984
 2181SOL    MW4 8799   0.046   2.690   3.850  0.1140  0.3524  0.4263
 2182SOL     OW 8800   0.243   2.845   3.729  0.2182  0.5310  0.0173
 2182SOL    HW2 8801   0.309   2.778   3.748 -1.2656 -0.9772 -0.0187
 2182SOL    HW3 8802   0.219   2.830   3.638  0.8212  1.9728 -0.3890
 2182SOL    MW4 8803   0.249   2.834   3.719  0.1020  0.5224 -0.0408
 2183SOL     OW 8804   0.197   3.081   3.842 -0.1157 -0.4037  0.0791
 2183SOL    HW2 8805   0.194   3.083   3.937 -1.8837 -0.9287  0.0614
 2183SOL    HW3 8806   0.220   2.991   3.820  2.2764  0.1890  0.0057
 2183SOL    MW4 8807   0.200   3.069   3.851 -0.0333 -0.3948  0.0668
 2184SOL     OW 8808   4.484   3.209   3.716  0.4347  0.0662 -0.0249
 2184SOL    HW2 8809   4.547   3.142   3.742  0.3548  0.4315  1.1529
 2184SOL    HW3 8810   4.479   3.202   3.620  1.1253 -0.9698  0.0070
 2184SOL    MW4 8811   4.492   3.199   3.707  0.5155 -0.0222  0.1342
 2185SOL     OW 8812   4.429   3.449   3.822 -0.0272  0.0414  0.3364
 2185SOL    HW2 8813   4.506   3.500   3.796 -0.6224  1.4235  1.2095
 2185SOL    HW3 8814   4.444   3.363   3.784  0.0062  1.4429 -3.0076
 2185SOL    MW4 8815   4.441   3.445   3.814 -0.1011  0.4086  0.0107
 2186SOL     OW 8816   0.170   3.575   3.750 -0.4418 -0.1628 -0.5270
 2186SOL    HW2 8817   0.255   3.544   3.783  0.5807  1.4867 -1.5249
 2186SOL    HW3 8818   0.169   3.668   3.772 -1.9536 -0.1486 -0.6374
 2186SOL    MW4 8819   0.181   3.583   3.757 -0.5064  0.0567 -0.6731
 2187SOL     OW 8820   0.185   3.848   3.811  0.2377 -0.6658  0.3779
 2187SOL    HW2 8821   0.198   3.842   3.905  0.5010 -2.2246  0.2548
 2187SOL    HW3 8822   0.265   3.890   3.778 -0.2189  0.6634  0.9262
 2187SOL    MW4 8823   0.197   3.853   3.819  0.2122 -0.6957  0.4337
 2188SOL     OW 8824   4.444   4.006   3.750  0.1305  0.2216 -0.1435
 2188SOL    HW2 8825   4.371   3.948   3.774 -0.1064  1.0969  1.3307
 2188SOL    HW3 8826   4.522   3.955   3.773 -0.0736  0.4080  1.0118
 2188SOL    MW4 8827   4.445   3.991   3.757  0.0715  0.3617  0.2034
 2189SOL     OW 8828   4.459   4.268   3.830  0.2280 -0.0725  0.7127
 2189SOL    HW2 8829   4.549   4.299   3.823  0.0927  0.0767 -0.3850
 2189SOL    HW3 8830   4.456   4.190   3.774  0.0177 -0.8614  1.7932
 2189SOL    MW4 8831   4.470   4.262   3.822  0.1817 -0.1574  0.7105
 2190SOL     OW 8832   0.220   4.344   3.717  0.0947  0.3252  0.5410
 2190SOL    HW2 8833   0.279   4.294   3.773 -0.6741  1.0229  2.0330
 2190SOL    HW3 8834   0.219   4.432   3.756  0.4260  1.1409 -1.2624
 2190SOL    MW4 8835   0.228   4.349   3.730  0.0370  0.5250  0.5000
 2191SOL     OW 8836   0.704   4.610   3.866  0.0342 -0.0950  0.9312
 2191SOL    HW2 8837   0.695   4.522   3.830  0.8136  0.5747 -0.9530
 2191SOL    HW3 8838   0.626   4.657   3.834 -0.0627  0.0815  1.4160
 2191SOL    MW4 8839   0.692   4.605   3.857  0.1243  0.0167  0.7463
 2192SOL     OW 8840   0.475   0.084   3.763  0.2214  0.4242  0.2371
 2192SOL    HW2 8841   0.462   0.163   3.814  0.1971  0.0338  0.8346
 2192SOL    HW3 8842   0.404   0.026   3.788 -0.0042  0.3707 -0.5125
 2192SOL    MW4 8843   0.464   0.087   3.773  0.1884  0.3656  0.2172
 2193SOL     OW 8844   0.441   0.345   3.873  0.1291  0.5135 -0.4544
 2193SOL    HW2 8845   0.513   0.396   3.836  0.8598  0.0713  0.3541
 2193SOL    HW3 8846   0.362   0.391   3.844  0.7634  1.6284 -0.4267
 2193SOL    MW4 8847   0.440   0.358   3.864  0.3092  0.6022 -0.3440
 2194SOL     OW 8848   0.645   0.468   3.776 -0.2170 -0.4753  0.4029
 2194SOL    HW2 8849   0.726   0.429   3.809  0.1401 -0.9456 -1.0110
 2194SOL    HW3 8850   0.653   0.561   3.799 -0.4684 -0.9599  2.5759
 2194SOL    MW4 8851   0.657   0.475   3.784 -0.2030 -0.6013  0.5031
 2195SOL     OW 8852   0.683   0.748   3.820 -0.1441 -0.1338 -0.4457
 2195SOL    HW2 8853   0.765   0.796   3.812  0.3332 -0.5561  1.6809
 2195SOL    HW3 8854   0.616   0.810   3.791  0.6864  1.0017  0.0254
 2195SOL    MW4 8855   0.685   0.762   3.815  0.0284 -0.0397 -0.1032
 2196SOL     OW 8856   0.445   0.894   3.738  0.3749  0.2335 -0.0077
 2196SOL    HW2 8857   0.425   0.969   3.794 -1.0240 -0.3992  0.3758
 2196SOL    HW3 8858   0.386   0.825   3.769  1.1688 -0.8165 -0.7953
 2196SOL    MW4 8859   0.435   0.895   3.749  0.2951  0.0114 -0.0613
 2197SOL     OW 8860   0.395   1.126   3.885 -0.6372  0.2729  0.7560
 2197SOL    HW2 8861   0.473   1.168   3.849  0.5085 -0.8046  1.9785
 2197SOL    HW3 8862   0.322   1.178   3.850  0.6162  1.3243 -0.3313
 2197SOL    MW4 8863   0.395   1.139   3.876 -0.3206  0.2694  0.7734
 2198SOL     OW 8864   0.612   1.257   3.760 -0.3499  0.2879 -0.0402
 2198SOL    HW2 8865   0.692   1.209   3.782 -0.1801 -0.2596 -1.7430
 2198SOL    HW3 8866   0.620   1.275   3.666 -1.4079  1.7871  0.1353
 2198SOL    MW4 8867   0.624   1.253   3.751 -0.4671  0.4134 -0.2418
 2199SOL     OW 8868   0.631   1.508   3.851  0.2046 -0.3629 -0.0626
 2199SOL    HW2 8869   0.720   1.539   3.833  0.0050 -0.3151 -1.0194
 2199SOL    HW3 8870   0.630   1.418   3.819 -0.1268 -0.3203 -0.1768
 2199SOL    MW4 8871   0.643   1.500   3.844  0.1346 -0.3510 -0.2038
 2200SOL     OW 8872   0.414   1.653   3.759 -0.0055 -0.0115 -0.0486
 2200SOL    HW2 8873   0.490   1.599   3.785 -0.0191 -0.5693 -1.1674
 2200SOL    HW3 8874   0.342   1.618   3.812  0.6862  1.1115  1.6938
 2200SOL    MW4 8875   0.415   1.641   3.770  0.0840  0.0631  0.0339
 2201SOL     OW 8876   0.445   1.908   3.852 -0.3848 -0.0517  0.0044
 2201SOL    HW2 8877   0.441   1.819   3.817  0.7352  0.3207 -1.1214
 2201SOL    HW3 8878   0.363   1.948   3.825 -0.6644 -0.5791  0.0602
 2201SOL    MW4 8879   0.434   1.901   3.844 -0.2740 -0.0722 -0.1369
 2202SOL     OW 8880   0.680   2.016   3.772 -0.2228  0.0734  0.0774
 2202SOL    HW2 8881   0.695   2.103   3.810 -1.1926  0.2115  0.1545
 2202SOL    HW3 8882   0.588   1.998   3.790 -0.1444 -0.7652 -0.3670
 2202SOL    MW4 8883   0.670   2.025   3.780 -0.3404 -0.0188  0.0291
 2203SOL     OW 8884   0.687   2.276   3.884  0.3352 -0.0536  0.4171
 2203SOL    HW2 8885   0.758   2.327   3.846  1.4555 -0.8916  1.3496
 2203SOL    HW3 8886   0.609   2.301   3.834  1.7090 -0.9310 -2.1924
 2203SOL    MW4 8887   0.686   2.286   3.873  0.6643 -0.2801  0.1957
 2204SOL     OW 8888   0.452   2.393   3.759  0.1005  0.3039 -0.0882
 2204SOL    HW2 8889   0.361   2.365   3.763  0.1449  0.2027  0.2416
 2204SOL    HW3 8890   0.470   2.403   3.666  0.4695 -2.0481 -0.3097
 2204SOL    MW4 8891   0.442   2.391   3.748  0.1550 -0.0198 -0.0737
 2205SOL     OW 8892   0.418   2.662   3.823 -0.4268 -0.5149  0.0576
 2205SOL    HW2 8893   0.505   2.696   3.799 -0.6940 -0.6896 -1.1505
 2205SOL    HW3 8894   0.421   2.570   3.798 -1.9758  0.1581 -2.7184
 2205SOL    MW4 8895   0.430   2.654   3.817 -0.6664 -0.4494 -0.4680
 2206SOL     OW 8896   0.655   2.766   3.766 -0.3732 -0.3632 -0.0818
 2206SOL    HW2 8897   0.744   2.744   3.795 -0.4708 -0.4080  0.1867
 2206SOL    HW3 8898   0.666   2.795   3.676 -0.1729 -1.0013 -0.2639
 2206SOL    MW4 8899   0.668   2.767   3.758 -0.3597 -0.4535 -0.0703
 2207SOL     OW 8900   0.668   3.044   3.828 -0.2926  0.3654 -0.3577
 2207SOL    HW2 8901   0.677   3.040   3.923  0.3481 -1.2662 -0.4614
 2207SOL    HW3 8902   0.638   2.956   3.803 -2.2760  1.3397 -1.4901
 2207SOL    MW4 8903   0.665   3.032   3.837 -0.4697  0.2787 -0.5207
 2208SOL     OW 8904   0.450   3.188   3.766 -0.0646  0.2202  0.1781
 2208SOL    HW2 8905   0.521   3.128   3.788 -0.0716  0.2047  0.1577
 2208SOL    HW3 8906   0.372   3.149   3.805 -0.0105  0.3939  0.4680
 2208SOL    MW4 8907   0.449   3.175   3.774 -0.0584  0.2415  0.2136
 2209SOL     OW 8908   0.424   3.464   3.843  0.0932  0.5412  0.3946
 2209SOL    HW2 8909   0.509   3.498   3.815 -0.0025 -0.9082 -1.7511
 2209SOL    HW3 8910   0.426   3.371   3.820 -1.4874  0.1488  1.7389
 2209SOL    MW4 8911   0.435   3.457   3.836 -0.1280  0.2980  0.2890
 2210SOL     OW 8912   0.670   3.582   3.773 -0.4641 -0.1598 -0.5261
 2210SOL    HW2 8913   0.671   3.672   3.808  0.9996 -0.3903  0.0514
 2210SOL    HW3 8914   0.674   3.593   3.678  2.1549  0.3647 -0.3899
 2210SOL    MW4 8915   0.671   3.596   3.765  0.0746 -0.1209 -0.4320
 2211SOL     OW 8916   0.645   3.849   3.883  0.2209  0.0727 -0.2381
 2211SOL    HW2 8917   0.656   3.861   3.977  0.9951 -2.2497 -0.0140
 2211SOL    HW3 8918   0.724   3.887   3.844  1.4309 -1.8717  0.2818
 2211SOL    MW4 8919   0.657   3.856   3.890  0.4826 -0.4900 -0.1400
 2212SOL     OW 8920   0.442   3.979   3.751 -0.2329 -1.3075  0.0648
 2212SOL    HW2 8921   0.516   3.930   3.787  0.9816 -0.0539 -0.6832
 2212SOL    HW3 8922   0.444   3.960   3.657  0.1478  0.0244 -0.2065
 2212SOL    MW4 8923   0.452   3.970   3.743 -0.0225 -0.9663 -0.0696
 2213SOL     OW 8924   0.417   4.221   3.871 -0.2175 -0.2272 -0.1377
 2213SOL    HW2 8925   0.496   4.262   3.837 -0.1913  0.7683  1.1185
 2213SOL    HW3 8926   0.418   4.133   3.834  0.8284  0.1926 -1.1209
 2213SOL    MW4 8927   0.427   4.215   3.862 -0.0761 -0.0405 -0.1016
 2214SOL     OW 8928   0.667   4.348   3.770  0.1242  0.0254 -0.5298
 2214SOL    HW2 8929   0.758   4.322   3.778  0.2053  0.4456 -0.0916
 2214SOL    HW3 8930   0.656   4.372   3.677  0.5166  0.1974 -0.5301
 2214SOL    MW4 8931   0.677   4.348   3.758  0.1867  0.1040 -0.4723
 2215SOL     OW 8932   1.152   4.645   3.841  0.1978 -0.0100  0.6616
 2215SOL    HW2 8933   1.231   4.690   3.812 -0.3273  1.1732  1.0343
 2215SOL    HW3 8934   1.157   4.558   3.801  0.8617  0.6356 -0.6733
 2215SOL    MW4 8935   1.163   4.640   3.832  0.2161  0.2317  0.5348
 2216SOL     OW 8936   0.908   0.090   3.769 -0.0019 -0.2097  0.1310
 2216SOL    HW2 8937   0.990   0.048   3.793 -0.0275 -1.6497 -2.0756
 2216SOL    HW3 8938   0.841   0.026   3.793 -0.3956  0.4764  0.8769
 2216SOL    MW4 8939   0.910   0.076   3.775 -0.0572 -0.3092 -0.0618
 2217SOL     OW 8940   0.873   0.370   3.866  0.0130  0.0165 -0.1545
 2217SOL    HW2 8941   0.866   0.363   3.961  0.4470  0.2132 -0.1098
 2217SOL    HW3 8942   0.872   0.279   3.836  0.9203 -0.0860  0.1120
 2217SOL    MW4 8943   0.872   0.357   3.875  0.1900  0.0289 -0.1132
 2218SOL     OW 8944   1.124   0.471   3.738 -0.4109 -0.0325  0.4219
 2218SOL    HW2 8945   1.187   0.430   3.796 -1.7899 -0.7918  1.3905
 2218SOL    HW3 8946   1.039   0.439   3.767 -1.3490  1.8932 -0.1164
 2218SOL    MW4 8947   1.121   0.462   3.749 -0.7167  0.1214  0.4787
 2219SOL     OW 8948   1.113   0.729   3.824  0.2399 -0.9314 -0.1890
 2219SOL    HW2 8949   1.112   0.730   3.920  0.4998 -1.0032 -0.1844
 2219SOL    HW3 8950   1.102   0.637   3.801 -0.0431 -0.8884 -0.2335
 2219SOL    MW4 8951   1.111   0.717   3.834  0.2369 -0.9353 -0.1945
 2220SOL     OW 8952   0.922   0.893   3.726  0.1659  0.1414 -0.4621
 2220SOL    HW2 8953   0.997   0.836   3.742  0.7493  0.5346 -1.7057
 2220SOL    HW3 8954   0.911   0.891   3.631  1.4756  3.6998 -0.7818
 2220SOL    MW4 8955   0.930   0.885   3.715  0.4157  0.6628 -0.6680
 2221SOL     OW 8956   0.860   1.143   3.837  0.3403 -0.4148 -0.0073
 2221SOL    HW2 8957   0.850   1.130   3.932  0.6570  0.1054  0.1003
 2221SOL    HW3 8958   0.866   1.055   3.801 -0.4924 -0.6410  0.3775
 2221SOL    MW4 8959   0.859   1.130   3.845  0.2722 -0.3760  0.0577
 2222SOL     OW 8960   1.090   1.279   3.746 -0.7173 -0.3891 -0.0221
 2222SOL    HW2 8961   1.091   1.359   3.799  1.4523 -0.2484 -0.2104
 2222SOL    HW3 8962   1.006   1.238   3.765 -1.5047  1.5158  0.7142
 2222SOL    MW4 8963   1.079   1.284   3.755 -0.5350 -0.1192  0.0501
 2223SOL     OW 8964   1.112   1.514   3.888 -0.2690  0.1040  0.1275
 2223SOL    HW2 8965   1.124   1.511   3.983 -0.0861 -2.2751  0.0521
 2223SOL    HW3 8966   1.191   1.557   3.855  0.2330 -0.1722  0.9549
 2223SOL    MW4 8967   1.124   1.519   3.896 -0.1786 -0.2464  0.2267
 2224SOL     OW 8968   0.881   1.617   3.784 -0.4215 -0.0972 -0.3688
 2224SOL    HW2 8969   0.966   1.582   3.812 -0.6872 -0.8602 -0.4891
 2224SOL    HW3 8970   0.897   1.649   3.695 -0.1696  0.0918 -0.2561
 2224SOL    MW4 8971   0.894   1.616   3.776 -0.4233 -0.1730 -0.3700
 2225SOL     OW 8972   0.894   1.886   3.884 -0.2253  0.0158 -0.1797
 2225SOL    HW2 8973   0.874   1.795   3.865 -0.0706  0.1055 -0.7815
 2225SOL    HW3 8974   0.820   1.935   3.847 -0.3792  0.1289  0.2671
 2225SOL    MW4 8975   0.881   1.881   3.877 -0.2251  0.0426 -0.2000
 2226SOL     OW 8976   1.126   2.016   3.777 -0.2554  0.1888  0.1410
 2226SOL    HW2 8977   1.049   1.967   3.803 -0.3828 -0.1052 -0.7635
 2226SOL    HW3 8978   1.112   2.036   3.684  0.6637  0.2749  0.0079
 2226SOL    MW4 8979   1.114   2.012   3.768 -0.1510  0.1614  0.0043
 2227SOL     OW 8980   1.119   2.276   3.926 -0.2269  0.2296  0.0320
 2227SOL    HW2 8981   1.113   2.271   4.022  0.7626  0.9137  0.1464
 2227SOL    HW3 8982   1.097   2.188   3.896 -1.6928  0.3079  0.8202
 2227SOL    MW4 8983   1.115   2.264   3.935 -0.2898  0.3300  0.1514
 2228SOL     OW 8984   0.918   2.413   3.794  0.0772 -0.2604 -0.4838
 2228SOL    HW2 8985   0.927   2.505   3.818 -0.6672 -0.2594 -0.1716
 2228SOL    HW3 8986   0.983   2.368   3.848 -0.9368 -0.1431  0.8784
 2228SOL    MW4 8987   0.927   2.419   3.804 -0.1548 -0.2446 -0.2630
 2229SOL     OW 8988   0.889   2.670   3.856 -0.0380  0.5226  0.1297
 2229SOL    HW2 8989   0.900   2.669   3.951  0.3687  1.2526  0.0926
 2229SOL    HW3 8990   0.965   2.719   3.823 -0.0619  0.0844 -0.5841
 2229SOL    MW4 8991   0.901   2.677   3.864  0.0125  0.5608  0.0308
 2230SOL     OW 8992   1.106   2.842   3.790  0.3688  0.0158 -0.2100
 2230SOL    HW2 8993   1.174   2.789   3.830 -0.3221  1.0722  2.4294
 2230SOL    HW3 8994   1.129   2.932   3.810 -1.4186  0.4246  0.1638
 2230SOL    MW4 8995   1.118   2.847   3.798  0.0418  0.2091  0.1876
 2231SOL     OW 8996   1.119   3.108   3.880 -0.6636  0.3111  0.1143
 2231SOL    HW2 8997   1.184   3.169   3.845 -0.8431 -0.1976 -1.1579
 2231SOL    HW3 8998   1.040   3.126   3.830 -0.2460 -2.1194 -1.5374
 2231SOL    MW4 8999   1.117   3.118   3.868 -0.6322 -0.0770 -0.2713
 2232SOL     OW 9000   0.899   3.184   3.750  0.2976  0.3128 -0.2013
 2232SOL    HW2 9001   0.821   3.131   3.768  0.8519 -0.5419 -0.2425
 2232SOL    HW3 9002   0.899   3.197   3.656  0.1088  0.4681 -0.1801
 2232SOL    MW4 9003   0.889   3.179   3.740  0.3458  0.2205 -0.2041
 2233SOL     OW 9004   0.891   3.447   3.877  0.0231  0.1472 -0.1085
 2233SOL    HW2 9005   0.876   3.356   3.854 -0.6817  0.3511 -0.4642
 2233SOL    HW3 9006   0.821   3.495   3.833 -0.6497  0.6805  1.5294
 2233SOL    MW4 9007   0.880   3.442   3.868 -0.1586  0.2444  0.0606
 2234SOL     OW 9008   1.087   3.622   3.775 -0.3677 -0.2802 -0.1766
 2234SOL    HW2 9009   1.071   3.702   3.825 -0.4705 -0.8721  0.7459
 2234SOL    HW3 9010   1.032   3.556   3.817  0.5659 -1.0989 -0.2328
 2234SOL    MW4 9011   1.078   3.624   3.787 -0.2581 -0.4661 -0.0622
 2235SOL     OW 9012   1.096   3.879   3.894  0.1662  0.2090  0.1033
 2235SOL    HW2 9013   1.108   3.867   3.988 -0.7921  0.5281  0.2758
 2235SOL    HW3 9014   1.164   3.941   3.869 -0.1949  0.8912  0.7821
 2235SOL    MW4 9015   1.106   3.886   3.903 -0.0079  0.3412  0.2155
 2236SOL     OW 9016   0.861   3.977   3.757 -0.2403  0.4327 -0.3069
 2236SOL    HW2 9017   0.945   3.942   3.789 -0.4040  0.1087 -0.2285
 2236SOL    HW3 9018   0.871   3.979   3.662 -0.1381  0.4066 -0.2972
 2236SOL    MW4 9019   0.874   3.973   3.749 -0.2484  0.3867 -0.2952
 2237SOL     OW 9020   0.918   4.237   3.827 -0.4205 -0.2095  0.3062
 2237SOL    HW2 9021   0.921   4.239   3.923  1.7048 -0.4670  0.2746
 2237SOL    HW3 9022   0.908   4.144   3.806  0.0901 -0.2645  0.2839
 2237SOL    MW4 9023   0.917   4.225   3.837 -0.0727 -0.2508  0.2990
 2238SOL     OW 9024   1.138   4.386   3.713  0.0475  0.0903  0.5579
 2238SOL    HW2 9025   1.060   4.333   3.724 -0.0426  0.3560  1.1908
 2238SOL    HW3 9026   1.149   4.393   3.618 -0.9855  0.4748  0.4581
 2238SOL    MW4 9027   1.129   4.380   3.702 -0.1005  0.1760  0.6285
 2239SOL     OW 9028   1.585   4.664   3.821  0.3782  0.4247  0.4482
 2239SOL    HW2 9029   1.586   4.690   3.913  0.1653  0.6877  0.3772
 2239SOL    HW3 9030   1.586   4.568   3.823 -0.8154  0.4117  0.7410
 2239SOL    MW4 9031   1.585   4.655   3.833  0.1929  0.4578  0.4778
 2240SOL     OW 9032   1.353   0.116   3.733 -0.3588  0.6616  0.2958
 2240SOL    HW2 9033   1.349   0.201   3.776 -1.4630  0.6389  0.2618
 2240SOL    HW3 9034   1.432   0.075   3.768 -0.9023  0.8984  1.8194
 2240SOL    MW4 9035   1.363   0.122   3.743 -0.5763  0.6898  0.4921
 2241SOL     OW 9036   1.328   0.352   3.885 -0.0233  0.3556 -0.3602
 2241SOL    HW2 9037   1.328   0.385   3.974 -0.9849 -0.4345 -0.0523
 2241SOL    HW3 9038   1.411   0.381   3.848  0.9333 -0.3639  1.1885
 2241SOL    MW4 9039   1.339   0.360   3.892 -0.0238  0.1564 -0.1152
 2242SOL     OW 9040   1.536   0.485   3.787  0.0443 -0.0848  0.0421
 2242SOL    HW2 9041   1.624   0.457   3.813 -0.2985 -0.2522  1.0695
 2242SOL    HW3 9042   1.541   0.581   3.789  0.2944 -0.0935 -0.2051
 2242SOL    MW4 9043   1.549   0.494   3.791  0.0322 -0.1080  0.1452
 2243SOL     OW 9044   1.564   0.762   3.806 -0.1801  0.1843 -0.3788
 2243SOL    HW2 9045   1.644   0.813   3.802  1.1237 -1.8733 -2.1574
 2243SOL    HW3 9046   1.497   0.819   3.768  0.9861  1.0038 -1.2400
 2243SOL    MW4 9047   1.565   0.776   3.800  0.1458  0.0210 -0.7269
 2244SOL     OW 9048   1.339   0.877   3.724 -0.4529 -0.2934 -0.2056
 2244SOL    HW2 9049   1.343   0.964   3.765 -0.8508 -0.0677 -0.6398
 2244SOL    HW3 9050   1.263   0.835   3.764  0.4219 -0.8894  0.8621
 2244SOL    MW4 9051   1.330   0.883   3.735 -0.3899 -0.3423 -0.1218
 2245SOL     OW 9052   1.340   1.135   3.791  0.1998 -0.0508 -0.2207
 2245SOL    HW2 9053   1.419   1.184   3.770 -0.1747 -0.2352 -2.1445
 2245SOL    HW3 9054   1.268   1.196   3.774 -0.1657 -0.5514 -0.5100
 2245SOL    MW4 9055   1.341   1.149   3.786  0.1022 -0.1411 -0.5126
 2246SOL     OW 9056   1.594   1.241   3.740 -0.0189 -0.2953  0.3834
 2246SOL    HW2 9057   1.669   1.197   3.780 -0.2666 -0.8752  0.2094
 2246SOL    HW3 9058   1.598   1.331   3.774 -0.0209 -0.6847  1.4111
 2246SOL    MW4 9059   1.605   1.247   3.749 -0.0519 -0.4231  0.4957
 2247SOL     OW 9060   1.607   1.497   3.856 -0.2360 -0.0004 -0.1611
 2247SOL    HW2 9061   1.607   1.496   3.952 -1.7387  1.7717 -0.1228
 2247SOL    HW3 9062   1.673   1.563   3.833  1.0430 -1.3235 -0.3984
 2247SOL    MW4 9063   1.616   1.506   3.865 -0.2656  0.0589 -0.1872
 2248SOL     OW 9064   1.352   1.644   3.801  0.3103  0.0779  0.0729
 2248SOL    HW2 9065   1.334   1.720   3.855 -0.5360  0.0789 -0.1915
 2248SOL    HW3 9066   1.422   1.598   3.847  0.5774  0.8222  0.4201
 2248SOL    MW4 9067   1.359   1.648   3.814  0.2339  0.1763  0.0839
 2249SOL     OW 9068   1.352   1.921   3.916 -0.1382 -0.2294 -0.1846
 2249SOL    HW2 9069   1.325   1.942   4.005 -0.8501 -1.7595 -0.0338
 2249SOL    HW3 9070   1.280   1.953   3.861 -1.3498 -2.4518  0.0666
 2249SOL    MW4 9071   1.339   1.928   3.920 -0.3920 -0.7246 -0.1314
 2250SOL     OW 9072   1.571   2.052   3.806  0.9544 -0.8289  0.2230
 2250SOL    HW2 9073   1.498   1.998   3.838  0.5234 -0.2961  0.1563
 2250SOL    HW3 9074   1.567   2.044   3.711  0.8839 -0.6750  0.2128
 2250SOL    MW4 9075   1.560   2.044   3.798  0.8882 -0.7381  0.2129
 2251SOL     OW 9076   1.560   2.290   3.917 -0.0472 -0.7424 -0.4417
 2251SOL    HW2 9077   1.630   2.339   3.874 -1.1017  1.2162  0.0060
 2251SOL    HW3 9078   1.554   2.208   3.868  1.2583 -0.1168 -1.6872
 2251SOL    MW4 9079   1.568   2.286   3.905 -0.0142 -0.4013 -0.5469
 2252SOL     OW 9080   1.323   2.434   3.817 -0.0076  0.2888  0.0010
 2252SOL    HW2 9081   1.397   2.394   3.862  1.8246  0.1395 -3.0223
 2252SOL    HW3 9082   1.246   2.396   3.859  1.6171 -0.7057  2.1842
 2252SOL    MW4 9083   1.323   2.424   3.828  0.4485  0.1378 -0.1097
 2253SOL     OW 9084   1.322   2.700   3.874  0.0170  0.1795  0.1534
 2253SOL    HW2 9085   1.342   2.704   3.968  3.9446  0.2186 -0.5933
 2253SOL    HW3 9086   1.314   2.607   3.855  0.6654  0.1074  0.2437
 2253SOL    MW4 9087   1.323   2.688   3.884  0.6206  0.1750  0.0668
 2254SOL     OW 9088   1.540   2.853   3.772  0.0651  0.1215  0.0269
 2254SOL    HW2 9089   1.475   2.796   3.814  0.3078 -1.0018 -1.1149
 2254SOL    HW3 9090   1.523   2.844   3.679  1.8635 -0.1766 -0.2817
 2254SOL    MW4 9091   1.529   2.844   3.766  0.3343 -0.0658 -0.1643
 2255SOL     OW 9092   1.544   3.123   3.853  0.0445 -0.3083 -0.1306
 2255SOL    HW2 9093   1.553   3.143   3.947  0.8982 -0.6951 -0.1222
 2255SOL    HW3 9094   1.555   3.028   3.849 -0.8659 -0.3958 -0.5261
 2255SOL    MW4 9095   1.547   3.113   3.865  0.0371 -0.3707 -0.1817
 2256SOL     OW 9096   1.326   3.273   3.726 -0.3686  0.3833  0.1078
 2256SOL    HW2 9097   1.312   3.350   3.783 -1.4998 -0.1018  0.5123
 2256SOL    HW3 9098   1.394   3.223   3.770  0.5097  1.2559 -0.2558
 2256SOL    MW4 9099   1.333   3.277   3.740 -0.4019  0.4344  0.1132
 2257SOL     OW 9100   1.301   3.506   3.905 -0.2581  0.3606 -0.0221
 2257SOL    HW2 9101   1.374   3.549   3.862 -0.5241  0.8525  0.0195
 2257SOL    HW3 9102   1.225   3.562   3.886 -0.4129  0.4811  0.9237
 2257SOL    MW4 9103   1.301   3.519   3.897 -0.3136  0.4411  0.1082
 2258SOL     OW 9104   1.544   3.621   3.789  0.0126 -0.1516  0.0513
 2258SOL    HW2 9105   1.621   3.567   3.806  1.5726  1.9328 -0.1822
 2258SOL    HW3 9106   1.574   3.711   3.802 -1.8985  0.8062 -1.7852
 2258SOL    MW4 9107   1.558   3.626   3.793 -0.0337  0.2499 -0.2220
 2259SOL     OW 9108   1.563   3.873   3.897  0.3010 -0.2214  0.4090
 2259SOL    HW2 9109   1.568   3.881   3.992 -1.6212 -1.9667  0.6942
 2259SOL    HW3 9110   1.480   3.915   3.875  0.6156 -0.0680 -0.4949
 2259SOL    MW4 9111   1.553   3.880   3.907  0.0888 -0.4315  0.3276
 2260SOL     OW 9112   1.323   4.018   3.779  0.9156 -0.1289 -0.4222
 2260SOL    HW2 9113   1.325   4.110   3.806 -1.4877 -0.2325  0.2427
 2260SOL    HW3 9114   1.337   4.020   3.685 -0.9674  1.1075 -0.7102
 2260SOL    MW4 9115   1.325   4.030   3.770  0.3500  0.0205 -0.3726
 2261SOL     OW 9116   1.347   4.265   3.896  0.2294 -0.3807  0.3466
 2261SOL    HW2 9117   1.421   4.311   3.858 -0.3156  0.5289  0.3810
 2261SOL    HW3 9118   1.270   4.312   3.865 -0.2288  0.5173  2.7237
 2261SOL    MW4 9119   1.346   4.277   3.887  0.0972 -0.1426  0.6647
 2262SOL     OW 9120   1.567   4.391   3.771  0.0150 -0.1486  0.3756
 2262SOL    HW2 9121   1.645   4.347   3.806  0.5435  0.3149 -0.1878
 2262SOL    HW3 9122   1.580   4.388   3.676 -0.9990 -0.6739  0.2519
 2262SOL    MW4 9123   1.579   4.385   3.763 -0.0490 -0.1564  0.2849
 2263SOL     OW 9124   2.018   4.660   3.841 -0.0108 -0.0211 -0.0824
 2263SOL    HW2 9125   2.093   4.712   3.811  0.0958  0.5389  1.1589
 2263SOL    HW3 9126   2.039   4.571   3.813  1.7297 -0.0892  1.3648
 2263SOL    MW4 9127   2.031   4.655   3.833  0.2329  0.0434  0.2723
 2264SOL     OW 9128   1.809   0.126   3.728  0.1683  0.5747  0.5287
 2264SOL    HW2 9129   1.888   0.083   3.761  0.3233  0.7248  0.3547
 2264SOL    HW3 9130   1.738   0.067   3.754  0.4264 -0.0450 -0.1464
 2264SOL    MW4 9131   1.810   0.112   3.736  0.2227  0.5127  0.4168
 2265SOL     OW 9132   1.802   0.394   3.821 -0.1251 -0.7442 -0.2239
 2265SOL    HW2 9133   1.818   0.396   3.916 -1.1062 -1.5731 -0.0325
 2265SOL    HW3 9134   1.820   0.304   3.795 -0.5630 -0.6980 -0.6998
 2265SOL    MW4 9135   1.806   0.382   3.830 -0.3123 -0.8475 -0.2611
 2266SOL     OW 9136   2.055   0.514   3.772  0.4221 -0.4220 -0.3754
 2266SOL    HW2 9137   1.968   0.476   3.782  0.7219 -1.0653 -0.1722
 2266SOL    HW3 9138   2.061   0.537   3.679 -0.2356  0.2879 -0.2402
 2266SOL    MW4 9139   2.045   0.512   3.761  0.3748 -0.4132 -0.3307
 2267SOL     OW 9140   2.049   0.780   3.880 -0.8019  0.2562  0.1409
 2267SOL    HW2 9141   2.029   0.787   3.974  0.0385  0.5157  0.3102
 2267SOL    HW3 9142   2.058   0.686   3.865  0.4588  0.2764  0.6422
 2267SOL    MW4 9143   2.048   0.768   3.891 -0.5245  0.2931  0.2296
 2268SOL     OW 9144   1.809   0.885   3.777  0.2929 -0.5964 -0.3034
 2268SOL    HW2 9145   1.897   0.849   3.781  0.2596 -0.5691  0.6887
 2268SOL    HW3 9146   1.798   0.910   3.685  0.7124 -2.0935 -0.7646
 2268SOL    MW4 9147   1.819   0.884   3.765  0.3439 -0.7903 -0.2334
 2269SOL     OW 9148   1.822   1.147   3.869  0.3564  0.4582  0.1015
 2269SOL    HW2 9149   1.812   1.168   3.961 -2.8065  0.9042 -0.3018
 2269SOL    HW3 9150   1.805   1.053   3.863  0.1994  0.4984 -0.0885
 2269SOL    MW4 9151   1.818   1.138   3.880 -0.0817  0.5225  0.0231
 2270SOL     OW 9152   2.056   1.294   3.772  0.2445 -0.4531  0.0824
 2270SOL    HW2 9153   2.134   1.260   3.817  0.8035 -0.6840 -1.0230
 2270SOL    HW3 9154   1.983   1.247   3.812  0.7689 -0.9545  0.4720
 2270SOL    MW4 9155   2.057   1.283   3.783  0.3874 -0.5497 -0.0122
 2271SOL     OW 9156   2.058   1.578   3.816 -0.0029  0.2203 -0.4313
 2271SOL    HW2 9157   1.969   1.612   3.803  0.2650  0.5809 -1.3586
 2271SOL    HW3 9158   2.051   1.485   3.794 -0.5911 -0.1990  1.4652
 2271SOL    MW4 9159   2.045   1.570   3.811 -0.0453  0.2126 -0.3033
 2272SOL     OW 9160   1.803   1.691   3.782  0.1172  0.1195  0.2089
 2272SOL    HW2 9161   1.797   1.785   3.798  0.0400  0.0351  0.7124
 2272SOL    HW3 9162   1.791   1.681   3.688  1.9954  0.7689 -0.1085
 2272SOL    MW4 9163   1.800   1.702   3.772  0.3549  0.1941  0.2332
 2273SOL     OW 9164   1.817   1.952   3.866 -0.3317  0.1570  0.1764
 2273SOL    HW2 9165   1.811   1.893   3.941  0.7896  2.0930  1.8564
 2273SOL    HW3 9166   1.733   1.996   3.864 -1.4453 -1.9842 -1.5362
 2273SOL    MW4 9167   1.805   1.950   3.876 -0.3307  0.1301  0.1724
 2274SOL     OW 9168   2.042   2.075   3.755  0.0124  0.1055  0.6360
 2274SOL    HW2 9169   1.967   2.035   3.797  0.0042 -0.9878 -0.4065
 2274SOL    HW3 9170   2.026   2.065   3.661  1.6524 -0.5066  0.4092
 2274SOL    MW4 9171   2.030   2.069   3.748  0.2277 -0.1194  0.4685
 2275SOL     OW 9172   1.999   2.313   3.898  0.4456  0.0408 -0.0352
 2275SOL    HW2 9173   1.916   2.348   3.866  0.5950 -0.1084 -0.5996
 2275SOL    HW3 9174   2.017   2.238   3.841  2.8529  2.2884 -2.4462
 2275SOL    MW4 9175   1.991   2.308   3.886  0.7830  0.3178 -0.4277
 2276SOL     OW 9176   1.771   2.417   3.807  0.1500 -0.3594  0.0737
 2276SOL    HW2 9177   1.786   2.508   3.834 -1.9600  0.0198  0.0333
 2276SOL    HW3 9178   1.765   2.421   3.712 -1.6326 -0.2471  0.1668
 2276SOL    MW4 9179   1.772   2.430   3.798 -0.3636 -0.2944  0.0811
 2277SOL     OW 9180   1.737   2.701   3.861  0.0743  0.2852  0.3976
 2277SOL    HW2 9181   1.732   2.714   3.955  0.8289  0.4190  0.4230
 2277SOL    HW3 9182   1.667   2.756   3.825 -0.7876 -0.4662  0.9397
 2277SOL    MW4 9183   1.727   2.710   3.868  0.0601  0.2038  0.4723
 2278SOL     OW 9184   1.990   2.823   3.790  0.1839 -0.3030 -0.1762
 2278SOL    HW2 9185   2.069   2.775   3.814 -0.0397 -0.6645 -0.1517
 2278SOL    HW3 9186   1.919   2.773   3.829  0.0642  1.0478  1.3781
 2278SOL    MW4 9187   1.991   2.810   3.798  0.1385 -0.1724  0.0322
 2279SOL     OW 9188   2.008   3.085   3.873 -0.0458 -0.3145 -0.2930
 2279SOL    HW2 9189   2.082   3.125   3.827 -0.7126  0.9713 -0.2662
 2279SOL    HW3 9190   2.004   2.995   3.838  2.4351 -0.8942  0.7823
 2279SOL    MW4 9191   2.018   3.078   3.862  0.1934 -0.2215 -0.1476
 2280SOL     OW 9192   1.785   3.204   3.732  0.4504 -0.0454  0.1803
 2280SOL    HW2 9193   1.864   3.173   3.775  0.4959 -0.2058 -0.0146
 2280SOL    HW3 9194   1.713   3.163   3.780  0.5426 -1.2510 -0.6888
 2280SOL    MW4 9195   1.786   3.194   3.744  0.4686 -0.2258  0.0398
 2281SOL     OW 9196   1.774   3.469   3.821 -0.5731  0.1204  0.0153
 2281SOL    HW2 9197   1.851   3.508   3.780 -1.4543  0.7648 -1.0556
 2281SOL    HW3 9198   1.772   3.379   3.790  1.5796 -0.8977  2.6430
 2281SOL    MW4 9199   1.784   3.462   3.812 -0.4055  0.0710  0.2205
 2282SOL     OW 9200   2.014   3.661   3.756 -0.0515  0.3664  0.3100
 2282SOL    HW2 9201   2.091   3.610   3.780 -1.3830 -2.3653 -1.0613
 2282SOL    HW3 9202   2.029   3.685   3.664 -0.6592  0.1503  0.1546
 2282SOL    MW4 9203   2.026   3.658   3.747 -0.3073 -0.0224  0.1085
 2283SOL     OW 9204   2.016   3.898   3.913  0.3034 -0.2655 -0.0842
 2283SOL    HW2 9205   2.064   3.966   3.865  0.4649 -1.2400 -1.2964
 2283SOL    HW3 9206   2.028   3.818   3.862 -1.2180 -0.8855  0.4914
 2283SOL    MW4 9207   2.024   3.897   3.900  0.1240 -0.4759 -0.1681
 2284SOL     OW 9208   1.799   3.989   3.754  0.2749 -0.0312 -0.7626
 2284SOL    HW2 9209   1.871   3.940   3.793  0.4559 -0.2609 -1.3818
 2284SOL    HW3 9210   1.722   3.960   3.803  0.7396  1.0332  0.6438
 2284SOL    MW4 9211   1.798   3.979   3.766  0.3601  0.0789 -0.6588
 2285SOL     OW 9212   1.791   4.253   3.859  0.0572 -0.1618 -0.7310
 2285SOL    HW2 9213   1.867   4.294   3.819 -0.5592  0.6536 -1.0797
 2285SOL    HW3 9214   1.797   4.161   3.833  0.7619 -0.0474 -0.9881
 2285SOL    MW4 9215   1.802   4.246   3.850  0.0689 -0.0386 -0.8109
 2286SOL     OW 9216   2.023   4.403   3.769 -0.0782 -0.0058  0.0897
 2286SOL    HW2 9217   2.098   4.363   3.813  0.0328  0.4046  0.2679
 2286SOL    HW3 9218   2.043   4.395   3.676  0.5214  0.7514  0.1490
 2286SOL    MW4 9219   2.035   4.396   3.762  0.0153  0.1478  0.1209
 2287SOL     OW 9220   2.469   0.002   3.857  0.1064  0.1150  0.0264
 2287SOL    HW2 9221   2.459   0.015   3.952  1.2067 -1.4749  0.3770
 2287SOL    HW3 9222   2.538   0.064   3.832  1.6393 -1.2706  0.7458
 2287SOL    MW4 9223   2.477   0.012   3.866  0.4539 -0.2776  0.1674
 2288SOL     OW 9224   2.229   0.132   3.742  0.4563  0.1740  0.1064
 2288SOL    HW2 9225   2.289   0.064   3.772  0.1797 -0.0777  0.0901
 2288SOL    HW3 9226   2.229   0.123   3.647 -0.5484 -0.6286  0.1771
 2288SOL    MW4 9227   2.237   0.122   3.733  0.2873  0.0349  0.1135
 2289SOL     OW 9228   2.255   0.361   3.900 -0.4666 -0.2425 -0.4409
 2289SOL    HW2 9229   2.250   0.271   3.868  1.6665  0.0016 -1.5700
 2289SOL    HW3 9230   2.187   0.407   3.852 -1.6958 -1.2797  0.2778
 2289SOL    MW4 9231   2.245   0.355   3.890 -0.3474 -0.3471 -0.4950
 2290SOL     OW 9232   2.478   0.513   3.782  0.1126  0.4032  0.2846
 2290SOL    HW2 9233   2.419   0.443   3.811  0.3808  0.1571  0.2277
 2290SOL    HW3 9234   2.460   0.522   3.689  1.6099 -1.0522 -0.1627
 2290SOL    MW4 9235   2.468   0.505   3.774  0.3455  0.1788  0.2179
 2291SOL     OW 9236   2.488   0.767   3.907  0.1533 -0.1792 -0.6696
 2291SOL    HW2 9237   2.410   0.814   3.880 -0.9900 -1.9496 -0.5239
 2291SOL    HW3 9238   2.477   0.679   3.871  1.6084 -0.7313  0.1719
 2291SOL    MW4 9239   2.477   0.761   3.899  0.1945 -0.4856 -0.5393
 2292SOL     OW 9240   2.269   0.904   3.782 -0.1488  0.1349  0.5491
 2292SOL    HW2 9241   2.184   0.875   3.814  0.5452 -0.8430  1.5654
 2292SOL    HW3 9242   2.258   0.912   3.688 -1.2462 -0.3888  0.6230
 2292SOL    MW4 9243   2.257   0.901   3.774 -0.2019 -0.0632  0.6928
 2293SOL     OW 9244   2.276   1.162   3.895  0.3064 -0.4546 -0.1281
 2293SOL    HW2 9245   2.305   1.148   3.985 -0.1711 -3.0865 -0.3388
 2293SOL    HW3 9246   2.276   1.074   3.856 -0.3061  0.5415 -2.4342
 2293SOL    MW4 9247   2.280   1.148   3.902  0.1626 -0.6704 -0.4601
 2294SOL     OW 9248   2.469   1.293   3.749  0.1460  0.2213  0.1900
 2294SOL    HW2 9249   2.472   1.382   3.784 -1.1892  0.1357  0.5535
 2294SOL    HW3 9250   2.401   1.250   3.800 -0.7455 -0.3628 -1.4730
 2294SOL    MW4 9251   2.460   1.299   3.761 -0.1478  0.1329  0.0186
 2295SOL     OW 9252   2.493   1.548   3.783 -0.1793  0.0765  0.2303
 2295SOL    HW2 9253   2.572   1.596   3.758 -0.7489  0.6464 -0.5101
 2295SOL    HW3 9254   2.427   1.617   3.796 -0.5664 -0.3998  0.7809
 2295SOL    MW4 9255   2.495   1.564   3.781 -0.3057  0.0888  0.2053
 2296SOL     OW 9256   2.296   1.740   3.818 -0.1210  0.2110 -0.1676
 2296SOL    HW2 9257   2.297   1.836   3.826 -0.8926  0.2039  0.0808
 2296SOL    HW3 9258   2.204   1.717   3.830  0.2843 -0.6915  1.2455
 2296SOL    MW4 9259   2.284   1.750   3.821 -0.1690  0.0911  0.0517
 2297SOL     OW 9260   2.276   2.016   3.857 -0.6252  0.0753 -0.0956
 2297SOL    HW2 9261   2.275   2.033   3.951  0.2500 -0.2739 -0.0202
 2297SOL    HW3 9262   2.192   2.049   3.825 -0.7995  0.4504  0.7635
 2297SOL    MW4 9263   2.265   2.023   3.865 -0.5326  0.0789  0.0279
 2298SOL     OW 9264   2.500   2.107   3.694 -0.4592  0.3069  0.6155
 2298SOL    HW2 9265   2.503   2.198   3.724 -0.1336  1.1606 -1.9393
 2298SOL    HW3 9266   2.418   2.072   3.730 -1.7839  2.3212 -0.3881
 2298SOL    MW4 9267   2.490   2.114   3.703 -0.5910  0.6852  0.1464
 2299SOL     OW 9268   2.466   2.369   3.807  0.0996 -0.1892  0.4336
 2299SOL    HW2 9269   2.545   2.413   3.775 -0.3636  1.6836  1.8004
 2299SOL    HW3 9270   2.486   2.348   3.898 -0.0308 -2.0254  0.0530
 2299SOL    MW4 9271   2.479   2.372   3.815  0.0212 -0.1845  0.5636
 2300SOL     OW 9272   2.189   2.431   3.735  0.0391  0.2759 -0.0745
 2300SOL    HW2 9273   2.125   2.401   3.800 -0.3279  2.7268  0.7624
 2300SOL    HW3 9274   2.273   2.397   3.767 -0.2324  0.8756  1.3366
 2300SOL    MW4 9275   2.192   2.423   3.748 -0.0453  0.6788  0.2222
 2301SOL     OW 9276   2.238   2.694   3.799  0.3332 -0.1501  0.0847
 2301SOL    HW2 9277   2.237   2.694   3.894 -1.9324  0.0985  0.0904
 2301SOL    HW3 9278   2.230   2.602   3.774  0.7523 -0.1990  0.1230
 2301SOL    MW4 9279   2.237   2.682   3.808  0.0899 -0.1237  0.0904
 2302SOL     OW 9280   2.425   2.873   3.700  0.2339 -0.4704 -0.1380
 2302SOL    HW2 9281   2.353   2.823   3.739 -2.6415  2.4732 -1.4703
 2302SOL    HW3 9282   2.421   2.849   3.607  2.2043 -1.6883  0.0724
 2302SOL    MW4 9283   2.415   2.863   3.693  0.1144 -0.2427 -0.2861
 2303SOL     OW 9284   2.468   3.130   3.836  0.7022  0.8816 -0.2692
 2303SOL    HW2 9285   2.459   3.107   3.929 -0.0314  0.8864 -0.3376
 2303SOL    HW3 9286   2.442   3.051   3.789 -0.7118  1.4564 -0.4851
 2303SOL    MW4 9287   2.463   3.117   3.842  0.4187  0.9580 -0.3068
 2304SOL     OW 9288   2.232   3.234   3.754 -0.3030 -0.1632 -0.3148
 2304SOL    HW2 9289   2.234   3.326   3.778 -1.2315 -0.2420  0.1079
 2304SOL    HW3 9290   2.315   3.198   3.786  1.0500  0.9776 -2.4297
 2304SOL    MW4 9291   2.243   3.241   3.761 -0.2468 -0.0229 -0.5379
 2305SOL     OW 9292   2.241   3.496   3.834  0.4049  0.1317 -0.3326
 2305SOL    HW2 9293   2.233   3.508   3.929  0.5406 -0.7462 -0.2090
 2305SOL    HW3 9294   2.318   3.548   3.810  0.2313  0.5469  0.0009
 2305SOL    MW4 9295   2.250   3.504   3.843  0.3998  0.0706 -0.2720
 2306SOL     OW 9296   2.473   3.655   3.777  0.0835  0.2132  0.2482
 2306SOL    HW2 9297   2.553   3.603   3.787  0.5930  0.7574 -0.8690
 2306SOL    HW3 9298   2.462   3.663   3.682 -0.9404  0.6960  0.4030
 2306SOL    MW4 9299   2.482   3.649   3.765  0.0157  0.3488  0.1211
 2307SOL     OW 9300   2.437   3.904   3.894 -0.0162  0.0010 -0.3600
 2307SOL    HW2 9301   2.516   3.948   3.860 -0.9450  1.2769 -0.9285
 2307SOL    HW3 9302   2.444   3.815   3.861  1.6749 -0.1752  0.4102
 2307SOL    MW4 9303   2.449   3.898   3.885  0.0844  0.1462 -0.3333
 2308SOL     OW 9304   2.219   4.030   3.775 -0.1286  0.0594  0.2652
 2308SOL    HW2 9305   2.301   3.996   3.811 -0.9766 -1.3092  0.9659
 2308SOL    HW3 9306   2.226   4.015   3.681  0.1884 -0.6131  0.3863
 2308SOL    MW4 9307   2.231   4.023   3.768 -0.1986 -0.2103  0.3736
 2309SOL     OW 9308   2.258   4.287   3.848  0.0386  0.6313 -0.0203
 2309SOL    HW2 9309   2.267   4.271   3.942 -0.9246 -0.7741 -0.1484
 2309SOL    HW3 9310   2.246   4.200   3.810 -0.7737  1.2948 -1.3135
 2309SOL    MW4 9311   2.258   4.273   3.855 -0.1955  0.5331 -0.2079
 2310SOL     OW 9312   2.460   4.422   3.742  0.1455 -0.0201  0.2318
 2310SOL    HW2 9313   2.394   4.375   3.795  1.0081 -0.6050  0.8050
 2310SOL    HW3 9314   2.466   4.508   3.783  0.5230 -0.3387  0.8691
 2310SOL    MW4 9315   2.452   4.427   3.755  0.3092 -0.1388  0.3915
 2311SOL     OW 9316   2.902   4.660   3.871 -0.1438  0.0489 -0.0977
 2311SOL    HW2 9317   2.905   4.665   3.967 -0.5357 -1.0374 -0.0278
 2311SOL    HW3 9318   2.969   4.723   3.842  1.5012 -1.1859  0.9260
 2311SOL    MW4 9319   2.912   4.669   3.880  0.0217 -0.2574  0.0465
 2312SOL     OW 9320   2.685   0.161   3.783  0.1606 -0.3338  0.0890
 2312SOL    HW2 9321   2.758   0.104   3.809  1.2838  1.0507  0.0267
 2312SOL    HW3 9322   2.678   0.148   3.688 -0.4063 -1.3068  0.2595
 2312SOL    MW4 9323   2.694   0.151   3.774  0.2339 -0.2795  0.1032
 2313SOL     OW 9324   2.722   0.397   3.911 -0.2415  0.0061  0.3117
 2313SOL    HW2 9325   2.746   0.310   3.877  1.2392  0.2719  0.6394
 2313SOL    HW3 9326   2.657   0.429   3.849  0.6436 -0.5341 -0.9320
 2313SOL    MW4 9327   2.717   0.390   3.898  0.0706 -0.0301  0.1907
 2314SOL     OW 9328   2.911   0.523   3.760 -0.6020 -0.1466 -0.1381
 2314SOL    HW2 9329   2.990   0.483   3.799 -0.9617 -0.4752  0.2561
 2314SOL    HW3 9330   2.839   0.491   3.814 -0.8646  1.3096  0.3957
 2314SOL    MW4 9331   2.912   0.514   3.772 -0.6840  0.0022 -0.0155
 2315SOL     OW 9332   2.932   0.786   3.878  0.2704  0.0181 -0.1520
 2315SOL    HW2 9333   3.022   0.810   3.853  0.6820 -1.3078  0.0017
 2315SOL    HW3 9334   2.925   0.693   3.854 -0.8785 -0.0324  0.3589
 2315SOL    MW4 9335   2.943   0.777   3.872  0.1733 -0.1636 -0.0644
 2316SOL     OW 9336   2.684   0.893   3.775  0.2367 -0.0867 -0.5092
 2316SOL    HW2 9337   2.765   0.850   3.801 -0.2413 -1.5353 -1.3937
 2316SOL    HW3 9338   2.616   0.847   3.824  0.0053  1.8175  1.0688
 2316SOL    MW4 9339   2.686   0.881   3.785  0.1431 -0.0266 -0.4177
 2317SOL     OW 9340   2.695   1.175   3.878  0.1637 -0.3749 -0.5774
 2317SOL    HW2 9341   2.688   1.080   3.865 -0.8066 -0.5381  1.0373
 2317SOL    HW3 9342   2.621   1.212   3.830 -0.6648 -0.6129  0.4889
 2317SOL    MW4 9343   2.685   1.167   3.870 -0.0734 -0.4278 -0.2239
 2318SOL     OW 9344   2.935   1.282   3.787  0.1516  0.1820 -0.1749
 2318SOL    HW2 9345   2.920   1.376   3.799  0.4832  0.3843 -1.3371
 2318SOL    HW3 9346   2.850   1.242   3.805 -0.0358  0.7170  0.1531
 2318SOL    MW4 9347   2.922   1.289   3.791  0.1709  0.2793 -0.2851
 2319SOL     OW 9348   2.929   1.577   3.844  0.3831  0.3701 -0.0291
 2319SOL    HW2 9349   2.927   1.571   3.939  0.2755  3.4443  0.2266
 2319SOL    HW3 9350   3.014   1.616   3.823  0.8158 -1.1913 -1.2750
 2319SOL    MW4 9351   2.940   1.581   3.854  0.4258  0.5697 -0.1597
 2320SOL     OW 9352   2.705   1.708   3.724 -0.2098 -0.1318 -0.3508
 2320SOL    HW2 9353   2.775   1.662   3.769  0.5029  1.9319  0.7165
 2320SOL    HW3 9354   2.740   1.725   3.637  0.8419  1.3128  0.3271
 2320SOL    MW4 9355   2.719   1.704   3.719  0.0226  0.3310 -0.1206
 2321SOL     OW 9356   2.712   1.951   3.838  0.0447 -0.2952 -0.1452
 2321SOL    HW2 9357   2.696   1.866   3.797 -1.6470 -0.5193  0.9494
 2321SOL    HW3 9358   2.641   2.007   3.808 -0.0676  0.1185  0.8734
 2321SOL    MW4 9359   2.701   1.947   3.829 -0.1931 -0.2701  0.1338
 2322SOL     OW 9360   2.938   2.047   3.723  0.2752  0.1724  0.6100
 2322SOL    HW2 9361   2.944   2.137   3.755 -1.1750 -0.0480  1.5043
 2322SOL    HW3 9362   2.852   2.017   3.752  0.7559 -1.5011  0.3026
 2322SOL    MW4 9363   2.928   2.055   3.731  0.1473 -0.0775  0.6871
 2323SOL     OW 9364   3.148   2.489   3.755  0.2700 -0.1593 -1.0148
 2323SOL    HW2 9365   3.176   2.480   3.664  2.2281 -0.1264 -0.4322
 2323SOL    HW3 9366   3.217   2.448   3.806 -0.7393 -0.0520  0.4777
 2323SOL    MW4 9367   3.161   2.483   3.750  0.3953 -0.1409 -0.7412
 2324SOL     OW 9368   2.701   2.467   3.714 -0.1484 -0.1805  0.0326
 2324SOL    HW2 9369   2.703   2.553   3.756 -0.7336  0.3536 -1.0245
 2324SOL    HW3 9370   2.770   2.418   3.758  0.9943  1.2067 -0.1676
 2324SOL    MW4 9371   2.710   2.472   3.726 -0.0749  0.0730 -0.1333
 2325SOL     OW 9372   2.665   2.733   3.769 -0.5467 -0.0641  0.6375
 2325SOL    HW2 9373   2.651   2.766   3.858 -2.4823 -0.6702  0.5915
 2325SOL    HW3 9374   2.595   2.773   3.717  0.7360  0.5094 -0.6806
 2325SOL    MW4 9375   2.654   2.743   3.774 -0.6330 -0.0684  0.4578
 2326SOL     OW 9376   2.922   2.859   3.688 -0.1320 -0.5208 -0.0070
 2326SOL    HW2 9377   2.928   2.945   3.729  0.2845 -0.3419 -0.4425
 2326SOL    HW3 9378   2.849   2.816   3.733 -1.6943  0.8349 -1.2034
 2326SOL    MW4 9379   2.913   2.865   3.700 -0.2832 -0.3185 -0.2222
 2327SOL     OW 9380   2.911   3.111   3.827  0.2970  0.0215  0.3275
 2327SOL    HW2 9381   2.977   3.171   3.793 -0.3864  0.9172  0.5678
 2327SOL    HW3 9382   2.828   3.146   3.795 -0.0893 -0.9713  0.2112
 2327SOL    MW4 9383   2.909   3.124   3.818  0.1559  0.0086  0.3438
 2328SOL     OW 9384   2.704   3.255   3.739  0.0988  0.3859 -0.1839
 2328SOL    HW2 9385   2.713   3.344   3.772  2.1022 -0.3055  1.2190
 2328SOL    HW3 9386   2.620   3.225   3.773 -0.6911  1.7829 -0.8511
 2328SOL    MW4 9387   2.694   3.263   3.748  0.2592  0.4790 -0.0865
 2329SOL     OW 9388   2.709   3.506   3.828  0.4184 -0.2548  0.5307
 2329SOL    HW2 9389   2.707   3.520   3.922 -0.6952  0.1689  0.4557
 2329SOL    HW3 9390   2.778   3.564   3.796  0.2452  0.2110  0.9970
 2329SOL    MW4 9391   2.718   3.516   3.836  0.2487 -0.1376  0.5825
 2330SOL     OW 9392   2.921   3.684   3.764  0.2602  0.1373 -0.3909
 2330SOL    HW2 9393   2.991   3.633   3.803  0.4116  0.4348 -0.2701
 2330SOL    HW3 9394   2.933   3.673   3.670  0.2637 -0.0869 -0.3644
 2330SOL    MW4 9395   2.932   3.676   3.757  0.2809  0.1469 -0.3717
 2331SOL     OW 9396   2.907   3.943   3.854 -0.1526 -0.3492  0.3135
 2331SOL    HW2 9397   2.919   3.949   3.948  0.9647 -0.2712  0.1804
 2331SOL    HW3 9398   2.909   3.850   3.834  1.2644 -0.3003  0.1807
 2331SOL    MW4 9399   2.909   3.932   3.864  0.1819 -0.3324  0.2787
 2332SOL     OW 9400   2.654   4.014   3.757 -0.1641 -0.3464 -0.2490
 2332SOL    HW2 9401   2.653   4.107   3.776 -0.8147 -0.5454  0.6826
 2332SOL    HW3 9402   2.735   3.982   3.796 -0.5881 -0.4148  0.5720
 2332SOL    MW4 9403   2.665   4.022   3.764 -0.3057 -0.3815 -0.0179
 2333SOL     OW 9404   2.659   4.271   3.833 -0.1355  0.1098  0.1021
 2333SOL    HW2 9405   2.742   4.308   3.803  0.2019 -2.4679 -2.3436
 2333SOL    HW3 9406   2.592   4.326   3.792  0.3593  0.4148 -0.3001
 2333SOL    MW4 9407   2.661   4.283   3.824 -0.0255 -0.1898 -0.2739
 2334SOL     OW 9408   2.882   4.399   3.755 -0.5712  0.0959  0.0919
 2334SOL    HW2 9409   2.954   4.360   3.804  0.5260  0.1156 -1.4869
 2334SOL    HW3 9410   2.891   4.493   3.769  0.2157  0.1524 -0.8005
 2334SOL    MW4 9411   2.892   4.406   3.763 -0.3226  0.1059 -0.2344
 2335SOL     OW 9412   3.342   0.051   3.884  0.0309  0.8627 -0.1587
 2335SOL    HW2 9413   3.359   0.054   3.978  0.8200 -1.0152 -0.2152
 2335SOL    HW3 9414   3.422   0.086   3.844  1.0954 -1.4747 -0.1983
 2335SOL    MW4 9415   3.355   0.056   3.891  0.2759  0.3065 -0.1712
 2336SOL     OW 9416   3.108   0.160   3.762  0.0743  0.0227 -0.0429
 2336SOL    HW2 9417   3.187   0.119   3.799 -0.9954 -0.9806  1.2116
 2336SOL    HW3 9418   3.120   0.154   3.667  0.9287 -1.2827  0.1325
 2336SOL    MW4 9419   3.120   0.153   3.754  0.0460 -0.2819  0.1459
 2337SOL     OW 9420   3.138   0.410   3.891  0.7990 -0.2217 -0.2363
 2337SOL    HW2 9421   3.133   0.404   3.987 -0.1348 -0.3464 -0.2956
 2337SOL    HW3 9422   3.105   0.326   3.860 -0.1888  0.3337 -0.7015
 2337SOL    MW4 9423   3.133   0.398   3.900  0.5453 -0.1648 -0.3052
 2338SOL     OW 9424   3.365   0.497   3.778 -0.2508  0.2024 -0.4575
 2338SOL    HW2 9425   3.435   0.451   3.824  0.6313 -0.2298 -2.1737
 2338SOL    HW3 9426   3.285   0.453   3.805  0.2790 -0.2975  0.3277
 2338SOL    MW4 9427   3.364   0.485   3.788 -0.0646  0.0794 -0.5803
 2339SOL     OW 9428   3.391   0.761   3.879 -0.3154 -0.0621 -0.5495
 2339SOL    HW2 9429   3.379   0.756   3.974 -0.0118 -1.5980 -0.5818
 2339SOL    HW3 9430   3.383   0.670   3.849  1.7243  0.1153 -1.7330
 2339SOL    MW4 9431   3.388   0.748   3.887 -0.0062 -0.2414 -0.7098
 2340SOL     OW 9432   3.182   0.869   3.758  0.0148 -0.3055 -0.4009
 2340SOL    HW2 9433   3.257   0.823   3.796 -0.1903 -0.4600 -0.1816
 2340SOL    HW3 9434   3.182   0.842   3.666  0.9712  0.6673 -0.7009
 2340SOL    MW4 9435   3.192   0.859   3.751  0.1137 -0.1975 -0.4117
 2341SOL     OW 9436   3.164   1.125   3.849 -0.1326  0.2477 -0.0269
 2341SOL    HW2 9437   3.167   1.032   3.828  0.2739 -0.3707  2.5305
 2341SOL    HW3 9438   3.073   1.151   3.831 -1.5307 -1.7871  3.5203
 2341SOL    MW4 9439   3.152   1.116   3.844 -0.2635 -0.1024  0.7784
 2342SOL     OW 9440   3.391   1.279   3.785 -0.0012  0.7449  0.1014
 2342SOL    HW2 9441   3.319   1.219   3.803 -0.0388  0.8305  0.2418
 2342SOL    HW3 9442   3.378   1.305   3.694  0.6987 -0.3841 -0.3314
 2342SOL    MW4 9443   3.380   1.274   3.775  0.0861  0.6071  0.0627
 2343SOL     OW 9444   3.385   1.533   3.901 -0.1487  0.1056  0.8040
 2343SOL    HW2 9445   3.310   1.575   3.858  0.4122 -1.1812 -1.5052
 2343SOL    HW3 9446   3.393   1.448   3.857  2.7060  0.2507  0.9485
 2343SOL    MW4 9447   3.376   1.528   3.889  0.3021 -0.0451  0.5186
 2344SOL     OW 9448   3.165   1.682   3.782 -0.3247 -0.3075 -0.0958
 2344SOL    HW2 9449   3.166   1.771   3.816  2.1216 -0.2044 -0.3552
 2344SOL    HW3 9450   3.129   1.690   3.693  0.8484  0.5672 -0.4959
 2344SOL    MW4 9451   3.160   1.695   3.775  0.1526 -0.1785 -0.1829
 2345SOL     OW 9452   3.157   1.928   3.863  0.3441 -0.2192  0.1256
 2345SOL    HW2 9453   3.143   1.946   3.956 -0.1971  0.8769 -0.1545
 2345SOL    HW3 9454   3.083   1.971   3.820  1.2126  0.2599 -0.8949
 2345SOL    MW4 9455   3.145   1.936   3.870  0.3874 -0.0113 -0.0460
 2346SOL     OW 9456   3.387   2.079   3.778  0.2612 -0.3500  0.5511
 2346SOL    HW2 9457   3.315   2.023   3.808  1.1658 -1.6054  0.4250
 2346SOL    HW3 9458   3.393   2.062   3.684 -0.5254  1.2221  0.1922
 2346SOL    MW4 9459   3.378   2.069   3.770  0.2768 -0.3080  0.4873
 2347SOL     OW 9460   3.329   2.357   3.899 -0.5133  0.1454  0.0992
 2347SOL    HW2 9461   3.351   2.264   3.889  2.6925  0.6910  1.3939
 2347SOL    HW3 9462   3.302   2.366   3.990  1.6917  0.9149  0.6989
 2347SOL    MW4 9463   3.328   2.346   3.910  0.2007  0.3188  0.3493
 2348SOL     OW 9464   3.148   2.766   3.866  0.2076  0.6573 -0.1086
 2348SOL    HW2 9465   3.066   2.802   3.834 -0.1243 -0.5102 -0.5766
 2348SOL    HW3 9466   3.143   2.672   3.847  0.8045  0.2499  1.6257
 2348SOL    MW4 9467   3.137   2.758   3.860  0.2425  0.4494  0.0584
 2349SOL     OW 9468   3.328   3.116   3.804  0.0307  0.2439 -0.1905
 2349SOL    HW2 9469   3.315   3.103   3.898 -0.9978  0.7848 -0.2537
 2349SOL    HW3 9470   3.339   3.028   3.769  1.1614  0.0811  0.5309
 2349SOL    MW4 9471   3.328   3.103   3.811  0.0439  0.2937 -0.1035
 2350SOL     OW 9472   2.997   2.601   4.134  0.1558  0.0509 -0.4675
 2350SOL    HW2 9473   2.926   2.562   4.084 -0.8967 -0.1229  1.1003
 2350SOL    HW3 9474   2.955   2.671   4.185  1.2099  0.3144  0.0609
 2350SOL    MW4 9475   2.982   2.605   4.134  0.1557  0.0627 -0.1907
 2351SOL     OW 9476   3.345   2.872   3.712 -0.6478 -0.4174  0.0367
 2351SOL    HW2 9477   3.271   2.830   3.757  0.4413 -1.0101  1.3214
 2351SOL    HW3 9478   3.422   2.826   3.746  0.4203  1.2130 -0.1364
 2351SOL    MW4 9479   3.346   2.860   3.723 -0.3631 -0.2806  0.1833
 2352SOL     OW 9480   3.103   3.274   3.709 -0.1543  0.0705  0.7649
 2352SOL    HW2 9481   3.184   3.230   3.735  0.3706  0.3097 -0.4166
 2352SOL    HW3 9482   3.101   3.266   3.614 -0.8982  1.1386  0.6811
 2352SOL    MW4 9483   3.114   3.267   3.700 -0.1831  0.2432  0.5980
 2353SOL     OW 9484   3.134   3.531   3.838  0.0204 -0.2678 -0.0553
 2353SOL    HW2 9485   3.223   3.558   3.816 -0.7693  0.1692 -3.0179
 2353SOL    HW3 9486   3.124   3.446   3.794 -0.9911 -0.3657  0.3613
 2353SOL    MW4 9487   3.145   3.523   3.829 -0.2172 -0.2229 -0.3915
 2354SOL     OW 9488   3.380   3.616   3.769  0.1807 -0.0761 -0.0093
 2354SOL    HW2 9489   3.366   3.709   3.784  0.1265 -0.1251  0.2422
 2354SOL    HW3 9490   3.386   3.607   3.673  0.3048  0.2009 -0.0262
 2354SOL    MW4 9491   3.379   3.627   3.758  0.1898 -0.0460  0.0217
 2355SOL     OW 9492   3.334   3.889   3.846 -0.0623 -0.1661 -0.1886
 2355SOL    HW2 9493   3.415   3.933   3.821 -0.3287  0.3129 -0.1990
 2355SOL    HW3 9494   3.264   3.941   3.806 -0.3227 -1.2943 -1.2613
 2355SOL    MW4 9495   3.336   3.901   3.837 -0.1316 -0.2518 -0.3314
 2356SOL     OW 9496   3.133   4.070   3.734 -0.3479 -0.3579  0.5287
 2356SOL    HW2 9497   3.133   4.151   3.784 -1.4495 -0.0486  0.0392
 2356SOL    HW3 9498   3.062   4.018   3.772 -0.4392 -0.5929  0.0462
 2356SOL    MW4 9499   3.123   4.074   3.745 -0.5050 -0.3481  0.4003
 2357SOL     OW 9500   3.107   4.296   3.883  0.1710  0.2323  0.4532
 2357SOL    HW2 9501   3.116   4.285   3.978 -1.5950  0.1341  0.6294
 2357SOL    HW3 9502   3.191   4.331   3.855  0.2309  1.6735  2.2923
 2357SOL    MW4 9503   3.119   4.299   3.892 -0.0541  0.4091  0.7191
 2358SOL     OW 9504   3.321   4.420   3.777 -0.1291 -0.1381 -0.2828
 2358SOL    HW2 9505   3.403   4.390   3.815 -1.4350 -1.5171  1.5105
 2358SOL    HW3 9506   3.308   4.507   3.814  1.2743  0.7458 -1.7913
 2358SOL    MW4 9507   3.330   4.428   3.787 -0.1161 -0.2031 -0.2456
 2359SOL     OW 9508   3.825   0.020   3.872 -0.1434  0.2079  0.0970
 2359SOL    HW2 9509   3.909   0.057   3.848  0.0317 -0.6114 -0.5721
 2359SOL    HW3 9510   3.818  -0.061   3.821 -1.7321  0.7227 -0.5225
 2359SOL    MW4 9511   3.835   0.014   3.862 -0.3302  0.1683 -0.0732
 2360SOL     OW 9512   3.586   0.137   3.789  0.0640  0.2435 -0.4437
 2360SOL    HW2 9513   3.671   0.106   3.819 -0.3933 -0.7482 -0.1427
 2360SOL    HW3 9514   3.589   0.127   3.694 -0.6348 -2.2302 -0.2373
 2360SOL    MW4 9515   3.598   0.132   3.780 -0.0887 -0.2137 -0.3767
 2361SOL     OW 9516   3.598   0.394   3.889 -0.2101  0.2167 -0.3820
 2361SOL    HW2 9517   3.669   0.451   3.858 -1.1746  1.0667 -1.0572
 2361SOL    HW3 9518   3.621   0.307   3.856  0.4837  0.5019 -0.6579
 2361SOL    MW4 9519   3.611   0.390   3.880 -0.2458  0.3665 -0.5074
 2362SOL     OW 9520   3.818   0.523   3.794  0.4267 -0.3086  0.7756
 2362SOL    HW2 9521   3.902   0.484   3.819  0.1542 -1.0389  0.5762
 2362SOL    HW3 9522   3.811   0.600   3.849  1.5050  0.0930  0.3725
 2362SOL    MW4 9523   3.828   0.528   3.805  0.5331 -0.3520  0.6959
 2363SOL     OW 9524   3.805   0.764   3.908  0.0220 -0.3797 -0.3165
 2363SOL    HW2 9525   3.882   0.790   3.858  0.1162  1.2083  0.6319
 2363SOL    HW3 9526   3.733   0.812   3.869 -0.6184 -2.3037 -1.5757
 2363SOL    MW4 9527   3.806   0.774   3.897 -0.0501 -0.4240 -0.3576
 2364SOL     OW 9528   3.608   0.893   3.754 -0.4388  0.3576 -0.2792
 2364SOL    HW2 9529   3.603   0.979   3.794  2.6205  0.0917  0.8161
 2364SOL    HW3 9530   3.537   0.843   3.795 -0.9134  1.7674  0.6328
 2364SOL    MW4 9531   3.598   0.898   3.765 -0.0978  0.5085 -0.0143
 2365SOL     OW 9532   3.621   1.172   3.884  0.0201 -0.5831 -0.2755
 2365SOL    HW2 9533   3.689   1.215   3.832  0.0460 -2.7804 -2.1401
 2365SOL    HW3 9534   3.539   1.200   3.844 -0.0758  0.2259  0.4950
 2365SOL    MW4 9535   3.619   1.181   3.872  0.0110 -0.7663 -0.4199
 2366SOL     OW 9536   3.830   1.299   3.722  0.0426 -0.1723 -0.3259
 2366SOL    HW2 9537   3.887   1.240   3.771  0.4214  0.7151  0.3224
 2366SOL    HW3 9538   3.836   1.382   3.769 -0.0934  0.5139 -1.5033
 2366SOL    MW4 9539   3.839   1.302   3.734  0.0744  0.0352 -0.3960
 2367SOL     OW 9540   3.820   1.548   3.862 -0.5156  0.3001  0.4078
 2367SOL    HW2 9541   3.824   1.537   3.957 -2.4368  2.4184  0.7777
 2367SOL    HW3 9542   3.733   1.583   3.845 -0.6884 -1.2916 -2.3122
 2367SOL    MW4 9543   3.809   1.551   3.872 -0.7918  0.3697  0.0978
 2368SOL     OW 9544   3.600   1.696   3.794 -0.0711  1.1458  0.5414
 2368SOL    HW2 9545   3.525   1.643   3.820  0.8658 -0.0718  0.8391
 2368SOL    HW3 9546   3.595   1.698   3.698  0.9305 -1.1034  0.4135
 2368SOL    MW4 9547   3.590   1.689   3.784  0.1848  0.6884  0.5639
 2369SOL     OW 9548   3.618   1.955   3.903 -0.0484 -0.0146 -0.3800
 2369SOL    HW2 9549   3.607   1.867   3.865  0.9684 -0.4614  0.3412
 2369SOL    HW3 9550   3.543   2.004   3.870 -0.2883 -0.9747 -1.3069
 2369SOL    MW4 9551   3.606   1.950   3.894  0.0541 -0.2003 -0.4075
 2370SOL     OW 9552   3.816   2.085   3.769  0.3024  0.6838 -0.4359
 2370SOL    HW2 9553   3.894   2.032   3.785 -0.5173 -0.7908 -1.1887
 2370SOL    HW3 9554   3.745   2.035   3.811 -0.1465  2.3313  0.8078
 2370SOL    MW4 9555   3.817   2.071   3.777  0.1352  0.7067 -0.3712
 2371SOL     OW 9556   3.822   2.356   3.868 -0.3569  0.6122 -0.1671
 2371SOL    HW2 9557   3.741   2.400   3.843 -0.5868  0.1662 -0.2217
 2371SOL    HW3 9558   3.815   2.270   3.828 -0.8932 -0.2480  1.6885
 2371SOL    MW4 9559   3.810   2.350   3.860 -0.4582  0.4401  0.0706
 2372SOL     OW 9560   3.571   2.444   3.778  0.0674 -0.1106  0.0397
 2372SOL    HW2 9561   3.490   2.425   3.826 -0.0533  0.1800 -0.0467
 2372SOL    HW3 9562   3.545   2.438   3.686 -0.0050  0.5948  0.0084
 2372SOL    MW4 9563   3.557   2.441   3.772  0.0420  0.0207  0.0238
 2373SOL     OW 9564   3.340   2.807   4.089  0.1461  0.3697 -0.0603
 2373SOL    HW2 9565   3.286   2.800   4.168 -0.3376  0.6617 -0.3591
 2373SOL    HW3 9566   3.281   2.781   4.018  0.3332  0.8902 -0.4130
 2373SOL    MW4 9567   3.325   2.803   4.090  0.1070  0.4766 -0.1464
 2374SOL     OW 9568   3.819   2.884   3.703 -0.5772 -0.0254  0.0477
 2374SOL    HW2 9569   3.885   2.836   3.752  1.3517  0.9915 -1.4852
 2374SOL    HW3 9570   3.739   2.833   3.715  0.6172 -1.6510  1.3824
 2374SOL    MW4 9571   3.817   2.871   3.711 -0.1652 -0.1056  0.0215
 2375SOL     OW 9572   3.793   3.095   3.909  0.0555 -0.1057 -0.0449
 2375SOL    HW2 9573   3.734   3.143   3.853 -0.8342 -0.6929  0.3767
 2375SOL    HW3 9574   3.801   3.008   3.868  1.0364  0.1353 -0.3842
 2375SOL    MW4 9575   3.786   3.090   3.897  0.0675 -0.1516 -0.0341
 2376SOL     OW 9576   3.584   3.210   3.749 -0.4737 -0.2097  0.2171
 2376SOL    HW2 9577   3.585   3.302   3.774 -0.3637 -0.1145 -0.1390
 2376SOL    HW3 9578   3.498   3.178   3.775 -1.7145  0.7730 -2.5282
 2376SOL    MW4 9579   3.573   3.218   3.756 -0.6230 -0.0675 -0.1919
 2377SOL     OW 9580   3.598   3.483   3.840  0.2103 -0.3776  0.1725
 2377SOL    HW2 9581   3.604   3.479   3.935 -1.0156  0.7947  0.3051
 2377SOL    HW3 9582   3.512   3.521   3.822  0.1721 -1.1524 -1.4163
 2377SOL    MW4 9583   3.588   3.487   3.850  0.0434 -0.3250 -0.0196
 2378SOL     OW 9584   3.808   3.638   3.732 -0.0098 -0.1425  0.1690
 2378SOL    HW2 9585   3.789   3.724   3.770  1.3718 -0.2031  1.0650
 2378SOL    HW3 9586   3.734   3.583   3.757 -0.4153  0.5370  0.4652
 2378SOL    MW4 9587   3.796   3.642   3.741  0.1187 -0.0610  0.3264
 2379SOL     OW 9588   3.772   3.897   3.838 -0.0717  0.4794 -0.5381
 2379SOL    HW2 9589   3.782   3.905   3.933  0.4585 -0.7881 -0.4795
 2379SOL    HW3 9590   3.849   3.940   3.801  0.1208  0.2838 -0.3654
 2379SOL    MW4 9591   3.783   3.904   3.845  0.0236  0.2861 -0.5074
 2380SOL     OW 9592   3.549   4.030   3.751  0.5449  0.2936 -0.2269
 2380SOL    HW2 9593   3.560   4.115   3.794  1.9882 -0.2093  0.4184
 2380SOL    HW3 9594   3.630   3.983   3.769  0.0972 -0.9143 -1.2987
 2380SOL    MW4 9595   3.561   4.035   3.759  0.6762  0.0677 -0.2830
 2381SOL     OW 9596   3.550   4.303   3.870 -0.2918  0.1207  0.2040
 2381SOL    HW2 9597   3.560   4.308   3.966 -1.4113  1.1980  0.2811
 2381SOL    HW3 9598   3.627   4.347   3.836 -0.0069 -0.0488  0.6236
 2381SOL    MW4 9599   3.561   4.310   3.878 -0.4017  0.2403  0.2694
 2382SOL     OW 9600   3.771   4.429   3.722 -0.3423 -0.1860  0.6620
 2382SOL    HW2 9601   3.847   4.386   3.761  0.7774  1.6759  0.6287
 2382SOL    HW3 9602   3.772   4.400   3.630  1.3592  1.1328  0.2278
 2382SOL    MW4 9603   3.781   4.420   3.715  0.0296  0.2337  0.6001
 2383SOL     OW 9604   4.284   4.661   3.813  0.0690 -0.4599  0.3958
 2383SOL    HW2 9605   4.278   4.654   3.908 -0.2733  2.0092  0.5944
 2383SOL    HW3 9606   4.378   4.668   3.796  0.1057 -0.4921  0.5831
 2383SOL    MW4 9607   4.296   4.661   3.823  0.0286 -0.1384  0.4466
 2384SOL     OW 9608   4.068   0.131   3.745  0.6289 -0.0894 -0.1688
 2384SOL    HW2 9609   4.155   0.094   3.761  1.4768  1.7043 -0.5593
 2384SOL    HW3 9610   4.055   0.121   3.651 -0.7760 -2.8520  0.2594
 2384SOL    MW4 9611   4.078   0.125   3.735  0.5555 -0.2172 -0.1638
 2385SOL     OW 9612   4.052   0.391   3.864  0.4415  0.2694 -0.0100
 2385SOL    HW2 9613   4.039   0.370   3.956  0.9166 -1.4904 -0.3127
 2385SOL    HW3 9614   4.056   0.306   3.820 -0.5747  1.0913 -1.7759
 2385SOL    MW4 9615   4.051   0.377   3.870  0.3705  0.1457 -0.2830
 2386SOL     OW 9616   4.279   0.519   3.751 -0.2199  0.0666  0.0916
 2386SOL    HW2 9617   4.204   0.477   3.794 -1.2859  1.9075  0.0880
 2386SOL    HW3 9618   4.252   0.529   3.660  0.2494  0.2532 -0.0302
 2386SOL    MW4 9619   4.266   0.515   3.745 -0.2990  0.3341  0.0751
 2387SOL     OW 9620   4.273   0.787   3.863 -0.0404  0.0487 -0.4080
 2387SOL    HW2 9621   4.187   0.822   3.840 -0.3528 -0.7098 -0.3814
 2387SOL    HW3 9622   4.273   0.697   3.831  0.4390 -0.2222  0.3204
 2387SOL    MW4 9623   4.262   0.780   3.856 -0.0181 -0.0871 -0.3083
 2388SOL     OW 9624   4.043   0.902   3.760  0.3040 -0.0145  0.2852
 2388SOL    HW2 9625   4.020   0.991   3.786 -1.6665 -0.9438  1.8958
 2388SOL    HW3 9626   4.022   0.897   3.667  0.3260  1.1596  0.2197
 2388SOL    MW4 9627   4.037   0.913   3.752  0.0467  0.0178  0.4892
 2389SOL     OW 9628   4.006   1.146   3.869  0.3210 -0.5377 -0.1076
 2389SOL    HW2 9629   4.019   1.131   3.962 -1.1898  1.1818  0.4290
 2389SOL    HW3 9630   4.082   1.197   3.841 -0.6048  1.4871  0.8964
 2389SOL    MW4 9631   4.018   1.151   3.877 -0.0010 -0.0436  0.0958
 2390SOL     OW 9632   4.241   1.285   3.835  0.0152  0.3103 -0.5655
 2390SOL    HW2 9633   4.234   1.376   3.864  0.6935  0.3333 -0.4533
 2390SOL    HW3 9634   4.248   1.290   3.740  0.3987  0.4053 -0.5357
 2390SOL    MW4 9635   4.241   1.297   3.827  0.1545  0.3259 -0.5469
 2391SOL     OW 9636   4.199   1.538   3.887  0.1619 -0.2725 -0.3162
 2391SOL    HW2 9637   4.136   1.577   3.826 -0.3613 -1.1994 -0.3917
 2391SOL    HW3 9638   4.282   1.579   3.866 -0.3094  0.5140 -0.6438
 2391SOL    MW4 9639   4.201   1.548   3.876  0.0305 -0.2910 -0.3693
 2392SOL     OW 9640   4.031   1.649   3.704 -0.1955  0.1257 -0.0377
 2392SOL    HW2 9641   4.060   1.734   3.737 -1.1621  1.0199 -1.4433
 2392SOL    HW3 9642   3.955   1.627   3.758 -1.2021  1.1440 -1.0008
 2392SOL    MW4 9643   4.025   1.657   3.716 -0.4554  0.3780 -0.3502
 2393SOL     OW 9644   4.041   1.909   3.827 -0.0380 -0.5938 -0.5138
 2393SOL    HW2 9645   4.017   1.911   3.919 -0.2652  1.4648 -0.6092
 2393SOL    HW3 9646   4.100   1.983   3.814  0.9512 -1.5719 -1.7661
 2393SOL    MW4 9647   4.045   1.919   3.837  0.0625 -0.4513 -0.6917
 2394SOL     OW 9648   4.229   2.095   3.793  0.5871 -0.5000  0.0956
 2394SOL    HW2 9649   4.239   2.184   3.827 -3.0106  0.7620 -1.9305
 2394SOL    HW3 9650   4.256   2.100   3.702 -0.4555 -1.2758 -0.2659
 2394SOL    MW4 9651   4.234   2.107   3.786 -0.0248 -0.4354 -0.2193
 2395SOL     OW 9652   4.252   2.359   3.853  0.2385 -0.0296  0.4020
 2395SOL    HW2 9653   4.248   2.378   3.947  0.3103 -0.6159  0.5281
 2395SOL    HW3 9654   4.166   2.382   3.820 -0.4877 -1.8064  0.9995
 2395SOL    MW4 9655   4.240   2.365   3.861  0.1521 -0.3414  0.4978
 2396SOL     OW 9656   4.036   2.469   3.719 -0.5448  0.2734 -0.1215
 2396SOL    HW2 9657   4.035   2.560   3.749 -0.8946  0.0345  0.5925
 2396SOL    HW3 9658   3.963   2.428   3.765 -0.2461 -0.4229 -0.2717
 2396SOL    MW4 9659   4.027   2.476   3.729 -0.5517  0.1497 -0.0472
 2397SOL     OW 9660   4.024   2.748   3.837  0.3777  0.1881  0.3256
 2397SOL    HW2 9661   4.038   2.713   3.925  2.1083 -0.0709 -0.0366
 2397SOL    HW3 9662   4.112   2.766   3.804 -0.1217 -1.5469 -2.0961
 2397SOL    MW4 9663   4.038   2.746   3.844  0.5398 -0.0749 -0.0417
 2398SOL     OW 9664   4.285   2.777   3.725  0.8078 -0.3924 -0.0590
 2398SOL    HW2 9665   4.267   2.870   3.736  1.4740 -0.4241  1.4318
 2398SOL    HW3 9666   4.366   2.762   3.773  0.5577 -1.7970 -0.0473
 2398SOL    MW4 9667   4.294   2.787   3.733  0.8621 -0.5815  0.1390
 2399SOL     OW 9668   4.251   3.048   3.799  0.0958  0.0882 -0.2372
 2399SOL    HW2 9669   4.167   3.094   3.791  0.6261  1.0895 -0.1909
 2399SOL    HW3 9670   4.316   3.117   3.785  0.9370 -0.2040  2.1397
 2399SOL    MW4 9671   4.248   3.063   3.796  0.2766  0.1817  0.0825
 2400SOL     OW 9672   4.021   3.215   3.795 -0.3841 -0.3549  0.0692
 2400SOL    HW2 9673   3.946   3.179   3.842 -0.2596 -0.7245 -0.0190
 2400SOL    HW3 9674   4.000   3.202   3.703 -0.1855 -0.5079  0.0453
 2400SOL    MW4 9675   4.009   3.209   3.789 -0.3414 -0.4237  0.0546
 2401SOL     OW 9676   3.968   3.495   3.916 -0.6573 -0.3768  0.1510
 2401SOL    HW2 9677   3.976   3.405   3.884  2.1601  0.3054 -1.1962
 2401SOL    HW3 9678   3.912   3.539   3.853 -0.8737 -0.8268  0.0315
 2401SOL    MW4 9679   3.962   3.489   3.904 -0.3140 -0.3462 -0.0427
 2402SOL     OW 9680   4.182   3.604   3.778 -0.0832  0.4850  0.1835
 2402SOL    HW2 9681   4.105   3.571   3.823  0.0362 -0.2298 -0.1325
 2402SOL    HW3 9682   4.253   3.545   3.803  0.4118  1.2394  0.6131
 2402SOL    MW4 9683   4.182   3.592   3.787 -0.0019  0.4900  0.1984
 2403SOL     OW 9684   4.238   3.861   3.829  0.3838  0.5348 -0.1042
 2403SOL    HW2 9685   4.154   3.902   3.810  0.1228  0.9758  1.9813
 2403SOL    HW3 9686   4.221   3.767   3.819 -0.1201  0.6733 -0.5697
 2403SOL    MW4 9687   4.225   3.854   3.825  0.2823  0.6113  0.1097
 2404SOL     OW 9688   4.011   4.022   3.723  0.0306  0.1072  0.1816
 2404SOL    HW2 9689   3.999   4.107   3.764 -1.3995 -0.0887  0.1638
 2404SOL    HW3 9690   4.023   4.041   3.630  2.4104  0.4817  0.5353
 2404SOL    MW4 9691   4.011   4.036   3.716  0.1554  0.1307  0.2260
 2405SOL     OW 9692   3.980   4.284   3.847  0.2408 -0.1314  0.1801
 2405SOL    HW2 9693   3.973   4.303   3.941 -0.0600  2.0495 -0.2667
 2405SOL    HW3 9694   4.068   4.311   3.823 -0.2060  0.7925 -0.4744
 2405SOL    MW4 9695   3.990   4.290   3.856  0.1421  0.2785  0.0350
 2406SOL     OW 9696   4.216   4.405   3.775  0.1953 -0.3160  0.2525
 2406SOL    HW2 9697   4.231   4.497   3.798  1.2067 -0.2920 -0.4702
 2406SOL    HW3 9698   4.300   4.362   3.787  0.1706 -0.7808 -1.0774
 2406SOL    MW4 9699   4.229   4.412   3.779  0.3252 -0.3743 -0.0184
 2407SOL     OW 9700   0.230   4.641   4.160  0.2323 -0.3644 -0.5946
 2407SOL    HW2 9701   0.311   4.684   4.187 -1.2106  0.7462  2.1745
 2407SOL    HW3 9702   0.234   4.554   4.201 -0.2014 -0.1337 -0.0667
 2407SOL    MW4 9703   0.241   4.635   4.169 -0.0153 -0.1879 -0.1593
 2408SOL     OW 9704   4.485   0.100   4.191  0.0145  0.0855  0.0904
 2408SOL    HW2 9705   4.490   0.143   4.276 -1.0884 -1.6444  1.0495
 2408SOL    HW3 9706   4.570   0.058   4.180 -0.1046 -0.3001  0.6602
 2408SOL    MW4 9707   4.497   0.100   4.201 -0.1464 -0.1936  0.2928
 2409SOL     OW 9708   4.474   0.358   4.107  0.2738 -0.1412  0.3198
 2409SOL    HW2 9709   4.462   0.267   4.135  1.1555  0.0137  1.2037
 2409SOL    HW3 9710   4.483   0.352   4.012 -0.6924 -0.8691  0.2637
 2409SOL    MW4 9711   4.474   0.345   4.098  0.2627 -0.2168  0.4292
 2410SOL     OW 9712   0.200   0.472   4.245 -0.5362  0.1548  0.0144
 2410SOL    HW2 9713   0.280   0.427   4.215  0.2563  0.1591  2.0152
 2410SOL    HW3 9714   0.129   0.426   4.201  0.4946 -0.7666 -0.7273
 2410SOL    MW4 9715   0.201   0.460   4.235 -0.2957  0.0338  0.1807
 2411SOL     OW 9716   0.198   0.734   4.111 -0.1533  0.3112 -0.3252
 2411SOL    HW2 9717   0.128   0.777   4.159  0.4734  0.8727  0.0964
 2411SOL    HW3 9718   0.199   0.644   4.145 -1.3076  0.0090 -1.0435
 2411SOL    MW4 9719   0.189   0.728   4.122 -0.2229  0.3455 -0.3638
 2412SOL     OW 9720   0.019   0.870   4.278  0.1466 -0.1776  0.2745
 2412SOL    HW2 9721  -0.064   0.869   4.230  0.3605 -1.2072 -0.0932
 2412SOL    HW3 9722  -0.001   0.826   4.361  0.4686 -1.0058 -0.0795
 2412SOL    MW4 9723   0.005   0.864   4.283  0.2174 -0.4228  0.1793
 2413SOL     OW 9724   0.074   1.225   4.146  0.3406 -0.5090 -0.4795
 2413SOL    HW2 9725   0.169   1.216   4.151  0.5654  1.5378 -0.6260
 2413SOL    HW3 9726   0.052   1.198   4.056  1.0835  1.2304 -1.2138
 2413SOL    MW4 9727   0.084   1.221   4.134  0.4683 -0.0094 -0.5951
 2414SOL     OW 9728   0.174   1.488   4.154  0.1893  0.0157 -0.1011
 2414SOL    HW2 9729   0.103   1.542   4.189  0.3851  1.3322 -1.7063
 2414SOL    HW3 9730   0.131   1.405   4.130 -0.3668 -0.0437  1.0743
 2414SOL    MW4 9731   0.159   1.484   4.155  0.1418  0.1816 -0.1583
 2415SOL     OW 9732   4.310   1.095   4.539  0.1994  0.2928  0.4824
 2415SOL    HW2 9733   4.241   1.145   4.583 -1.1191 -0.4494 -0.6996
 2415SOL    HW3 9734   4.326   1.021   4.597 -1.3930 -0.5790 -0.1449
 2415SOL    MW4 9735   4.303   1.092   4.552 -0.1845  0.0798  0.2437
 2416SOL     OW 9736   4.471   1.628   4.288  0.0405 -0.3029 -0.2904
 2416SOL    HW2 9737   4.401   1.572   4.323 -0.4772  1.0738  0.9076
 2416SOL    HW3 9738   4.425   1.698   4.242  0.6193  0.4840  0.3095
 2416SOL    MW4 9739   4.455   1.630   4.286  0.0491 -0.0174 -0.0534
 2417SOL     OW 9740   0.182   2.052   4.255  0.2507  0.3624  0.1394
 2417SOL    HW2 9741   0.171   2.039   4.349  0.3502  0.3720  0.1522
 2417SOL    HW3 9742   0.261   2.002   4.233  1.1453  1.6689  0.3451
 2417SOL    MW4 9743   0.191   2.044   4.265  0.3819  0.5362  0.1683
 2418SOL     OW 9744   0.319   2.174   4.579  0.2382  0.2210 -0.0702
 2418SOL    HW2 9745   0.244   2.114   4.573  0.2070  0.1856  0.6371
 2418SOL    HW3 9746   0.281   2.261   4.573  0.0118  0.2383  1.3695
 2418SOL    MW4 9747   0.304   2.177   4.577  0.2042  0.2189  0.2136
 2419SOL     OW 9748   0.181   2.311   4.153  0.2233  0.1063 -0.2977
 2419SOL    HW2 9749   0.255   2.361   4.186  1.6471 -0.4085 -2.6006
 2419SOL    HW3 9750   0.194   2.223   4.188  0.7878 -0.0229 -0.8290
 2419SOL    MW4 9751   0.192   2.306   4.162  0.4856  0.0215 -0.6714
 2420SOL     OW 9752   4.478   2.440   4.287 -0.2322  0.2746 -0.5330
 2420SOL    HW2 9753   4.396   2.403   4.254  0.4961 -1.6854 -0.2285
 2420SOL    HW3 9754   4.546   2.386   4.248  0.7478 -0.4193  2.0111
 2420SOL    MW4 9755   4.476   2.428   4.278 -0.0072 -0.0756 -0.1569
 2421SOL     OW 9756   0.012   2.695   4.149 -0.3357 -0.1448 -0.0653
 2421SOL    HW2 9757   0.080   2.745   4.196 -2.2119  0.9252  1.5739
 2421SOL    HW3 9758  -0.010   2.624   4.208  0.1490 -1.1769 -1.1043
 2421SOL    MW4 9759   0.018   2.692   4.163 -0.5193 -0.1400  0.0138
 2422SOL     OW 9760   0.226   2.851   4.233 -0.2797 -0.1122 -0.0790
 2422SOL    HW2 9761   0.294   2.801   4.187 -0.6812 -0.0925 -0.6892
 2422SOL    HW3 9762   0.224   2.936   4.189 -0.1655  0.1625  0.4384
 2422SOL    MW4 9763   0.235   2.856   4.221 -0.3176 -0.0734 -0.0916
 2423SOL     OW 9764   0.194   3.099   4.129 -0.4957 -0.8154 -0.0899
 2423SOL    HW2 9765   0.271   3.139   4.169 -0.5659 -1.3961  0.6344
 2423SOL    HW3 9766   0.120   3.150   4.161 -0.4044 -0.1350 -0.9406
 2423SOL    MW4 9767   0.195   3.111   4.139 -0.4929 -0.8023 -0.1073
 2424SOL     OW 9768   4.454   3.222   4.194  0.5529 -0.2233 -0.0619
 2424SOL    HW2 9769   4.392   3.165   4.150  0.4269 -0.6503  0.6594
 2424SOL    HW3 9770   4.450   3.304   4.145 -0.1109 -0.4530 -0.3999
 2424SOL    MW4 9771   4.445   3.225   4.182  0.4487 -0.3099 -0.0105
 2425SOL     OW 9772   4.439   3.489   4.114  0.1536  0.5905  0.0404
 2425SOL    HW2 9773   4.424   3.476   4.020 -1.5769 -1.9479  0.6272
 2425SOL    HW3 9774   4.361   3.537   4.144  0.6712  1.3360  0.2142
 2425SOL    MW4 9775   4.427   3.494   4.105 -0.0062  0.3538  0.1407
 2426SOL     OW 9776   0.168   3.598   4.226  0.3521 -0.3544 -0.0611
 2426SOL    HW2 9777   0.246   3.545   4.208 -1.0939 -3.0889  1.4409
 2426SOL    HW3 9778   0.100   3.561   4.170 -0.3013  0.8940 -0.1029
 2426SOL    MW4 9779   0.170   3.586   4.217  0.0751 -0.5507  0.1316
 2427SOL     OW 9780   0.195   3.845   4.091 -0.5260 -0.4341  0.3985
 2427SOL    HW2 9781   0.118   3.898   4.110 -1.3960 -2.0819  1.5692
 2427SOL    HW3 9782   0.181   3.763   4.139  2.1736 -0.5740  1.0234
 2427SOL    MW4 9783   0.183   3.841   4.100 -0.2846 -0.6700  0.6351
 2428SOL     OW 9784   4.468   4.014   4.168 -0.4773 -0.0790  0.1948
 2428SOL    HW2 9785   4.449   4.014   4.262  0.0201  2.7483  0.3390
 2428SOL    HW3 9786   4.386   3.989   4.127 -0.4193 -2.3812  1.4051
 2428SOL    MW4 9787   4.455   4.011   4.175 -0.4039 -0.0100  0.3738
 2429SOL     OW 9788   4.479   4.281   4.113 -0.5156 -0.5715 -0.2046
 2429SOL    HW2 9789   4.469   4.191   4.145 -0.4111 -0.7459 -0.6577
 2429SOL    HW3 9790   4.475   4.273   4.018 -1.4113  0.0216 -0.2116
 2429SOL    MW4 9791   4.477   4.268   4.105 -0.6199 -0.5159 -0.2651
 2430SOL     OW 9792   0.199   4.378   4.289 -0.4561 -0.2173  0.0738
 2430SOL    HW2 9793   0.189   4.348   4.379 -1.4948  1.3139  0.4864
 2430SOL    HW3 9794   0.129   4.334   4.241 -0.2359 -0.6145  0.1135
 2430SOL    MW4 9795   0.188   4.368   4.295 -0.5641 -0.0677  0.1330
 2431SOL     OW 9796   0.651   4.578   4.148  0.2127  0.4160  0.2727
 2431SOL    HW2 9797   0.605   4.654   4.185 -1.1557  0.7230 -1.9501
 2431SOL    HW3 9798   0.671   4.604   4.058  2.1290 -0.8705  0.3074
 2431SOL    MW4 9799   0.647   4.591   4.141  0.2850  0.2866 -0.0162
 2432SOL     OW 9800   0.465   0.089   4.238  0.0805  0.0910 -0.1333
 2432SOL    HW2 9801   0.456   0.085   4.333  1.3256  0.9527  0.0438
 2432SOL    HW3 9802   0.445   0.180   4.216  0.7646  0.1332 -0.5853
 2432SOL    MW4 9803   0.461   0.100   4.248  0.3350  0.2102 -0.1698
 2433SOL     OW 9804   0.411   0.345   4.136 -0.3993 -0.1187  0.8738
 2433SOL    HW2 9805   0.478   0.407   4.166 -0.4527 -0.0224  0.7944
 2433SOL    HW3 9806   0.418   0.346   4.040  0.6015 -1.3425  0.9125
 2433SOL    MW4 9807   0.420   0.353   4.127 -0.2743 -0.2674  0.8683
 2434SOL     OW 9808   0.603   0.518   4.250 -0.1122  0.5544 -0.1004
 2434SOL    HW2 9809   0.678   0.472   4.212 -0.6446 -1.2500  0.9901
 2434SOL    HW3 9810   0.611   0.608   4.218  0.9073 -0.3058 -2.2908
 2434SOL    MW4 9811   0.614   0.524   4.241 -0.0479  0.2028 -0.2460
 2435SOL     OW 9812   0.654   0.760   4.128 -0.0125  0.0186 -0.2218
 2435SOL    HW2 9813   0.584   0.823   4.146 -1.7918 -1.8725 -0.3660
 2435SOL    HW3 9814   0.647   0.743   4.034 -0.2796 -1.2377  0.0149
 2435SOL    MW4 9815   0.644   0.766   4.118 -0.2825 -0.3967 -0.2103
 2436SOL     OW 9816   0.397   0.885   4.210 -0.0617  0.1925  0.0962
 2436SOL    HW2 9817   0.382   0.977   4.189  1.1272 -0.1687 -2.5580
 2436SOL    HW3 9818   0.334   0.837   4.156 -0.6890 -0.5542  1.4740
 2436SOL    MW4 9819   0.387   0.891   4.200  0.0124  0.0464 -0.0725
 2437SOL     OW 9820   0.364   1.162   4.144 -0.3826  0.6419  0.3018
 2437SOL    HW2 9821   0.441   1.204   4.183  0.0234 -0.1457  0.3487
 2437SOL    HW3 9822   0.387   1.152   4.052 -0.0266 -0.4755  0.4977
 2437SOL    MW4 9823   0.377   1.166   4.137 -0.2821  0.3905  0.3333
 2438SOL     OW 9824   0.615   1.242   4.221  0.2959  0.3057 -0.0302
 2438SOL    HW2 9825   0.645   1.250   4.312 -0.0510  2.0936 -0.0670
 2438SOL    HW3 9826   0.614   1.331   4.188 -1.9615 -0.0610 -1.0489
 2438SOL    MW4 9827   0.619   1.255   4.229 -0.0477  0.4933 -0.1693
 2439SOL     OW 9828   0.586   1.506   4.128 -0.1861 -0.5460 -0.4899
 2439SOL    HW2 9829   0.505   1.558   4.131 -0.6980 -1.1974 -2.3251
 2439SOL    HW3 9830   0.623   1.525   4.042  1.9401  0.1770  0.5430
 2439SOL    MW4 9831   0.580   1.516   4.117  0.0269 -0.5366 -0.5960
 2440SOL     OW 9832   0.353   1.669   4.250 -0.0093  0.2734 -0.1319
 2440SOL    HW2 9833   0.353   1.662   4.345  0.2901 -0.3774 -0.1802
 2440SOL    HW3 9834   0.285   1.608   4.220 -1.2392  1.6696 -0.2562
 2440SOL    MW4 9835   0.344   1.660   4.258 -0.1321  0.3717 -0.1545
 2441SOL     OW 9836   0.407   1.924   4.152  0.3153 -0.2622  0.3513
 2441SOL    HW2 9837   0.396   1.834   4.180 -1.2006 -0.1645  0.1009
 2441SOL    HW3 9838   0.407   1.921   4.056 -0.4161  0.0707  0.3353
 2441SOL    MW4 9839   0.406   1.912   4.143  0.0188 -0.2053  0.3161
 2442SOL     OW 9840   0.611   2.102   4.236 -0.3999  0.2236  0.2255
 2442SOL    HW2 9841   0.606   2.101   4.332 -0.1071  2.6654  0.2968
 2442SOL    HW3 9842   0.534   2.053   4.208 -0.6441 -0.2781  1.7053
 2442SOL    MW4 9843   0.600   2.095   4.245 -0.3935  0.4795  0.4301
 2443SOL     OW 9844   0.651   2.357   4.145  0.7238 -0.1818  0.1768
 2443SOL    HW2 9845   0.631   2.268   4.174 -0.0494 -0.3407 -0.8350
 2443SOL    HW3 9846   0.653   2.352   4.050  0.3999  0.9442  0.1006
 2443SOL    MW4 9847   0.649   2.344   4.137  0.5791 -0.0541  0.0329
 2444SOL     OW 9848   0.403   2.475   4.233 -0.2602  0.5148  0.0029
 2444SOL    HW2 9849   0.422   2.548   4.173  0.0497  0.8600  0.5185
 2444SOL    HW3 9850   0.479   2.417   4.224 -0.1027  0.6850  0.2415
 2444SOL    MW4 9851   0.416   2.477   4.224 -0.1985  0.5827  0.1025
 2445SOL     OW 9852   0.435   2.705   4.089  0.1936  0.2561  0.3944
 2445SOL    HW2 9853   0.525   2.727   4.111  0.7005 -0.0728 -1.3019
 2445SOL    HW3 9854   0.434   2.700   3.994 -1.4411 -0.5163  0.4360
 2445SOL    MW4 9855   0.446   2.708   4.080  0.0448  0.1111  0.1760
 2446SOL     OW 9856   0.664   2.814   4.213 -0.0903 -0.0539 -0.1360
 2446SOL    HW2 9857   0.655   2.811   4.308 -1.9659 -0.0462 -0.2955
 2446SOL    HW3 9858   0.671   2.908   4.193  0.7919 -0.0782  0.0153
 2446SOL    MW4 9859   0.664   2.826   4.222 -0.2214 -0.0558 -0.1369
 2447SOL     OW 9860   0.675   3.068   4.111 -0.3204 -0.0016 -0.4810
 2447SOL    HW2 9861   0.748   3.116   4.151 -0.3557  1.2270 -1.8257
 2447SOL    HW3 9862   0.597   3.119   4.132 -0.3154  0.7754 -2.2221
 2447SOL    MW4 9863   0.675   3.081   4.119 -0.3244  0.2630 -0.8883
 2448SOL     OW 9864   0.440   3.210   4.186 -0.0511  0.3343 -0.0990
 2448SOL    HW2 9865   0.468   3.216   4.278 -1.6160 -0.0677  0.4166
 2448SOL    HW3 9866   0.415   3.299   4.163 -1.5182  0.0688  0.4702
 2448SOL    MW4 9867   0.441   3.222   4.195 -0.4511  0.2460  0.0439
 2449SOL     OW 9868   0.410   3.474   4.119 -0.2350  0.3232  0.7075
 2449SOL    HW2 9869   0.485   3.524   4.152  0.3202 -0.5795  0.8242
 2449SOL    HW3 9870   0.421   3.475   4.024 -0.5163  0.8694  0.6785
 2449SOL    MW4 9871   0.421   3.481   4.111 -0.1989  0.2761  0.7191
 2450SOL     OW 9872   0.625   3.594   4.223 -0.3403  0.0850 -0.3352
 2450SOL    HW2 9873   0.602   3.566   4.312 -0.2377 -0.1852 -0.3930
 2450SOL    HW3 9874   0.706   3.547   4.204 -0.6461 -0.2708 -0.7783
 2450SOL    MW4 9875   0.633   3.584   4.232 -0.3671  0.0021 -0.4015
 2451SOL     OW 9876   0.637   3.871   4.174 -0.1312 -0.0596 -0.0890
 2451SOL    HW2 9877   0.555   3.903   4.212  0.3734 -0.1758  1.1428
 2451SOL    HW3 9878   0.633   3.776   4.185  0.7787  0.0457  1.2788
 2451SOL    MW4 9879   0.626   3.862   4.181  0.0554 -0.0610  0.2542
 2452SOL     OW 9880   0.361   3.967   4.303  0.5667  0.0196 -0.0595
 2452SOL    HW2 9881   0.374   4.049   4.257 -0.0485 -0.4159 -1.0272
 2452SOL    HW3 9882   0.300   3.918   4.248 -0.9555 -0.1145  1.7138
 2452SOL    MW4 9883   0.355   3.971   4.290  0.2847 -0.0556  0.0463
 2453SOL     OW 9884   0.391   4.197   4.160 -0.5157  0.2292  0.0904
 2453SOL    HW2 9885   0.331   4.266   4.189  0.2958  0.4397  1.3226
 2453SOL    HW3 9886   0.399   4.210   4.065 -0.2925  1.9078  0.3262
 2453SOL    MW4 9887   0.384   4.208   4.151 -0.3791  0.4787  0.2842
 2454SOL     OW 9888   0.631   4.323   4.245  0.7700  0.4598 -0.1999
 2454SOL    HW2 9889   0.552   4.279   4.212  0.6957  0.3620  0.1150
 2454SOL    HW3 9890   0.631   4.407   4.198  0.7671  0.2414 -0.5956
 2454SOL    MW4 9891   0.620   4.329   4.234  0.7598  0.4182 -0.2103
 2455SOL     OW 9892   1.077   0.000   4.098  0.1431 -0.2346  0.2312
 2455SOL    HW2 9893   1.060  -0.090   4.124  1.1077 -0.8554 -1.2335
 2455SOL    HW3 9894   1.108  -0.006   4.008 -1.1522  1.7041 -0.3692
 2455SOL    MW4 9895   1.079  -0.012   4.090  0.0994 -0.0607 -0.0410
 2456SOL     OW 9896   0.864   0.116   4.251  0.1404 -0.1804 -0.6958
 2456SOL    HW2 9897   0.944   0.097   4.202 -0.5051 -0.5763 -1.6196
 2456SOL    HW3 9898   0.806   0.043   4.230 -0.5489  0.2305 -0.2294
 2456SOL    MW4 9899   0.867   0.104   4.241 -0.0357 -0.1784 -0.7558
 2457SOL     OW 9900   0.817   0.382   4.150  0.1196  0.1134  0.0468
 2457SOL    HW2 9901   0.888   0.440   4.177  0.1848  0.0812 -0.0524
 2457SOL    HW3 9902   0.834   0.300   4.197 -0.1218  0.2615  0.3876
 2457SOL    MW4 9903   0.829   0.379   4.160  0.0964  0.1287  0.0792
 2458SOL     OW 9904   1.070   0.479   4.253  0.2641  0.3012  0.0660
 2458SOL    HW2 9905   1.044   0.468   4.344 -2.2175  0.7585 -0.5701
 2458SOL    HW3 9906   1.159   0.443   4.250  0.6113  0.7821  2.7679
 2458SOL    MW4 9907   1.079   0.473   4.265 -0.0174  0.4250  0.3390
 2459SOL     OW 9908   1.100   0.722   4.098 -0.3103 -0.0314  0.3725
 2459SOL    HW2 9909   1.186   0.760   4.114  0.4073 -0.8110 -1.4898
 2459SOL    HW3 9910   1.095   0.648   4.158  0.0512  0.3699  0.9108
 2459SOL    MW4 9911   1.110   0.718   4.108 -0.1678 -0.0813  0.1979
 2460SOL     OW 9912   0.903   0.882   4.211  0.5773  0.4637  0.4987
 2460SOL    HW2 9913   0.979   0.830   4.182  0.0557 -0.0157 -0.0475
 2460SOL    HW3 9914   0.827   0.828   4.187  0.0427  1.2314  0.4337
 2460SOL    MW4 9915   0.903   0.868   4.204  0.4380  0.5017  0.4182
 2461SOL     OW 9916   0.860   1.144   4.123  0.4112  0.1621 -0.1656
 2461SOL    HW2 9917   0.886   1.061   4.162  1.1388  0.3902 -0.1440
 2461SOL    HW3 9918   0.777   1.167   4.165 -0.6081 -1.3333 -1.3234
 2461SOL    MW4 9919   0.853   1.136   4.134  0.3727 -0.0051 -0.3152
 2462SOL     OW 9920   1.120   1.205   4.206  0.0610  0.3658  0.1324
 2462SOL    HW2 9921   1.100   1.200   4.299  0.1800  1.1506  0.1995
 2462SOL    HW3 9922   1.038   1.186   4.162 -0.1966  0.8454  0.4024
 2462SOL    MW4 9923   1.107   1.202   4.213  0.0426  0.5326  0.1774
 2463SOL     OW 9924   1.143   1.481   4.154 -0.3709  0.2344  0.1765
 2463SOL    HW2 9925   1.061   1.510   4.193 -0.4836 -0.4621  0.4575
 2463SOL    HW3 9926   1.152   1.390   4.182  0.6436  0.3939  0.4005
 2463SOL    MW4 9927   1.133   1.473   4.163 -0.2518  0.1636  0.2432
 2464SOL     OW 9928   0.694   1.718   4.326  0.1500  0.5497 -0.1186
 2464SOL    HW2 9929   0.654   1.646   4.278 -0.5608  1.3513 -0.7535
 2464SOL    HW3 9930   0.727   1.777   4.258  0.8064  0.7809  0.3924
 2464SOL    MW4 9931   0.693   1.716   4.311  0.1428  0.6860 -0.1349
 2465SOL     OW 9932   0.827   1.889   4.156 -0.3682 -0.0332 -0.0333
 2465SOL    HW2 9933   0.753   1.950   4.165 -0.0795  0.4314 -0.8115
 2465SOL    HW3 9934   0.850   1.893   4.063  1.0541  0.3097  0.3274
 2465SOL    MW4 9935   0.820   1.897   4.145 -0.1425  0.0734 -0.0882
 2466SOL     OW 9936   1.045   1.970   4.307 -0.0379 -0.2739 -0.4715
 2466SOL    HW2 9937   1.047   1.918   4.388 -1.5526  1.3674  0.6654
 2466SOL    HW3 9938   0.970   1.935   4.259  0.5422 -0.8938 -0.9343
 2466SOL    MW4 9939   1.035   1.959   4.312 -0.1613 -0.1391 -0.3829
 2467SOL     OW 9940   1.105   2.219   4.196  0.0060 -0.7022 -0.4807
 2467SOL    HW2 9941   1.154   2.265   4.264 -1.2802  0.0605 -0.0599
 2467SOL    HW3 9942   1.089   2.132   4.233 -1.7178  0.0995  0.6879
 2467SOL    MW4 9943   1.110   2.214   4.210 -0.3910 -0.4957 -0.2708
 2468SOL     OW 9944   0.910   2.442   4.190  0.1737  0.3465 -0.5638
 2468SOL    HW2 9945   0.974   2.371   4.196 -0.6195 -0.4022 -0.8402
 2468SOL    HW3 9946   0.826   2.398   4.182 -0.4176  1.3196  0.1154
 2468SOL    MW4 9947   0.908   2.427   4.190 -0.0091  0.3762 -0.5107
 2469SOL     OW 9948   0.910   2.711   4.149 -0.1880  0.1743 -0.0501
 2469SOL    HW2 9949   0.909   2.618   4.171 -1.5469  0.1591 -0.1373
 2469SOL    HW3 9950   0.823   2.742   4.172  0.4457  1.5673  0.5332
 2469SOL    MW4 9951   0.899   2.703   4.155 -0.2837  0.3560  0.0157
 2470SOL     OW 9952   1.141   2.838   4.247  0.3478  0.1221  0.3058
 2470SOL    HW2 9953   1.146   2.932   4.228 -0.4246  0.0522 -0.2273
 2470SOL    HW3 9954   1.056   2.811   4.212  0.7786 -0.8777  0.0420
 2470SOL    MW4 9955   1.130   2.847   4.240  0.3027 -0.0191  0.2007
 2471SOL     OW 9956   1.129   3.104   4.178 -0.2541  0.1572  0.3556
 2471SOL    HW2 9957   1.208   3.152   4.202 -0.3615 -0.3440  1.8003
 2471SOL    HW3 9958   1.138   3.087   4.084  1.3878  0.0535  0.5169
 2471SOL    MW4 9959   1.141   3.108   4.169 -0.0516  0.0777  0.5674
 2472SOL     OW 9960   0.886   3.197   4.261  0.4242  0.5689 -0.0625
 2472SOL    HW2 9961   0.856   3.149   4.338  2.0432  0.4732  0.5133
 2472SOL    HW3 9962   0.976   3.169   4.248  0.8964  2.2836 -0.6450
 2472SOL    MW4 9963   0.894   3.187   4.269  0.7001  0.7825 -0.0639
 2473SOL     OW 9964   0.874   3.476   4.164  0.1680  0.2318  0.0360
 2473SOL    HW2 9965   0.893   3.386   4.193  1.0076  0.4184  0.0715
 2473SOL    HW3 9966   0.892   3.476   4.071  0.1443  0.3594  0.0314
 2473SOL    MW4 9967   0.879   3.464   4.156  0.2757  0.2730  0.0401
 2474SOL     OW 9968   1.105   3.612   4.172  0.1587  0.2038  0.1453
 2474SOL    HW2 9969   1.089   3.706   4.174  0.8906  0.3850 -1.4632
 2474SOL    HW3 9970   1.020   3.572   4.190 -0.5915  1.1597 -1.2303
 2474SOL    MW4 9971   1.092   3.619   4.175  0.1562  0.3541 -0.2480
 2475SOL     OW 9972   1.087   3.892   4.171  0.3574 -0.1084 -0.0634
 2475SOL    HW2 9973   1.159   3.926   4.225 -0.4704 -1.0852  1.6933
 2475SOL    HW3 9974   1.008   3.926   4.213 -0.1866  2.3327 -2.9470
 2475SOL    MW4 9975   1.086   3.901   4.184  0.1765  0.0846 -0.2127
 2476SOL     OW 9976   0.869   4.001   4.288 -0.4803 -0.3130 -0.1149
 2476SOL    HW2 9977   0.861   4.071   4.223  0.2013 -0.3030 -0.1895
 2476SOL    HW3 9978   0.798   3.941   4.267 -0.8450  0.1697 -0.2819
 2476SOL    MW4 9979   0.859   4.002   4.277 -0.4385 -0.2480 -0.1469
 2477SOL     OW 9980   0.869   4.219   4.116  0.3146 -0.3234  0.3844
 2477SOL    HW2 9981   0.923   4.287   4.157  0.1867 -0.2588  0.4456
 2477SOL    HW3 9982   0.779   4.248   4.128  0.2347 -0.7515  0.8644
 2477SOL    MW4 9983   0.864   4.231   4.123  0.2872 -0.3715  0.4554
 2478SOL     OW 9984   1.277   4.354   4.380  0.2871 -0.1832 -0.4317
 2478SOL    HW2 9985   1.258   4.301   4.457 -1.0358 -1.3618 -1.5372
 2478SOL    HW3 9986   1.319   4.293   4.318  1.7678  0.8589 -0.4706
 2478SOL    MW4 9987   1.280   4.339   4.382  0.3078 -0.2017 -0.5827
 2479SOL     OW 9988   1.609   0.035   4.134  0.3461  0.1573 -0.1848
 2479SOL    HW2 9989   1.681   0.081   4.178 -0.8565  1.2740  0.6251
 2479SOL    HW3 9990   1.533   0.092   4.145 -0.6882 -1.0391 -0.9974
 2479SOL    MW4 9991   1.609   0.049   4.141  0.0509  0.1468 -0.1855
 2480SOL     OW 9992   1.334   0.113   4.181 -0.2694  0.0981  0.2358
 2480SOL    HW2 9993   1.351   0.065   4.262  2.6163 -1.0852 -1.0320
 2480SOL    HW3 9994   1.251   0.078   4.149 -0.2793 -1.0496  1.4953
 2480SOL    MW4 9995   1.325   0.102   4.188  0.1100 -0.2094  0.2346
 2481SOL     OW 9996   1.342   0.378   4.195  0.1881  0.2959 -0.2120
 2481SOL    HW2 9997   1.429   0.411   4.214 -0.6261  0.9229  2.6393
 2481SOL    HW3 9998   1.352   0.283   4.194  0.9411  0.3704 -0.1606
 2481SOL    MW4 9999   1.355   0.370   4.197  0.1799  0.3884  0.1707
 2482SOL     OW10000   1.616   0.495   4.221 -0.3087 -0.0681 -0.2227
 2482SOL    HW210001   1.613   0.494   4.317  0.8536 -0.6566 -0.1786
 2482SOL    HW310002   1.601   0.587   4.198  0.0206  0.1942  0.5594
 2482SOL    MW410003   1.614   0.507   4.231 -0.1118 -0.1112 -0.1135
 2483SOL     OW10004   1.575   0.735   4.086  0.0002 -0.1850  0.5763
 2483SOL    HW210005   1.644   0.797   4.108 -0.7506  1.2192 -0.9119
 2483SOL    HW310006   1.564   0.743   3.992 -0.8879 -1.7840  0.5188
 2483SOL    MW410007   1.582   0.744   4.077 -0.2160 -0.2107  0.3724
 2484SOL     OW10008   1.343   0.833   4.221  0.1166 -0.0890  0.3022
 2484SOL    HW210009   1.340   0.924   4.195 -0.3637  0.2422  1.4496
 2484SOL    HW310010   1.423   0.798   4.182  1.2775  1.3107  1.3952
 2484SOL    MW410011   1.353   0.840   4.213  0.2064  0.1394  0.5980
 2485SOL     OW10012   1.338   1.071   4.085 -0.2602  0.1949  0.3340
 2485SOL    HW210013   1.263   1.106   4.133 -0.3650 -0.3616  0.5900
 2485SOL    HW310014   1.328   1.105   3.996 -0.7673  0.1978  0.3899
 2485SOL    MW410015   1.327   1.080   4.080 -0.3411  0.1220  0.3753
 2486SOL     OW10016   1.540   1.244   4.173 -0.1751 -0.2000  0.1523
 2486SOL    HW210017   1.549   1.222   4.266  0.1656 -0.3041  0.0967
 2486SOL    HW310018   1.476   1.182   4.139 -0.7139  0.1910  0.4382
 2486SOL    MW410019   1.533   1.233   4.181 -0.2012 -0.1621  0.1826
 2487SOL     OW10020   1.514   1.526   4.108  0.1624 -0.1303 -0.5921
 2487SOL    HW210021   1.440   1.562   4.157  0.5551 -1.1373  0.7542
 2487SOL    HW310022   1.507   1.432   4.119  0.6665 -0.3259 -1.8966
 2487SOL    MW410023   1.503   1.519   4.116  0.2807 -0.2891 -0.5870
 2488SOL     OW10024   1.325   1.627   4.280  0.2346  0.3966  0.2078
 2488SOL    HW210025   1.307   1.718   4.255  0.6808  0.2144 -0.7744
 2488SOL    HW310026   1.256   1.576   4.238 -0.7042  0.3874  1.7017
 2488SOL    MW410027   1.313   1.632   4.271  0.1696  0.3713  0.2751
 2489SOL     OW10028   1.286   1.902   4.184  0.1849 -0.3618  0.4248
 2489SOL    HW210029   1.347   1.958   4.233  1.6085 -2.0032  0.5837
 2489SOL    HW310030   1.199   1.932   4.211  0.8962  1.8487  0.4133
 2489SOL    MW410031   1.283   1.913   4.194  0.4667 -0.2866  0.4444
 2490SOL     OW10032   1.557   1.846   4.485 -0.2033  0.0785  0.1880
 2490SOL    HW210033   1.649   1.870   4.495 -0.5611  0.1502  4.0523
 2490SOL    HW310034   1.516   1.924   4.447  1.0024  0.6996  0.1323
 2490SOL    MW410035   1.564   1.860   4.481 -0.0916  0.1700  0.6900
 2491SOL     OW10036   1.446   2.057   4.327  0.1133 -0.1876 -0.3113
 2491SOL    HW210037   1.395   2.120   4.377  0.4599  0.9727 -1.3891
 2491SOL    HW310038   1.499   2.111   4.268  1.0761 -1.4536 -0.6195
 2491SOL    MW410039   1.446   2.073   4.326  0.2861 -0.2012 -0.4945
 2492SOL     OW10040   1.392   2.528   4.332 -0.0597 -0.4545 -0.1282
 2492SOL    HW210041   1.375   2.597   4.269 -0.0654  0.7857  1.2014
 2492SOL    HW310042   1.487   2.515   4.328  0.2610  1.2460  1.2284
 2492SOL    MW410043   1.403   2.535   4.323 -0.0182 -0.0665  0.2265
 2493SOL     OW10044   1.371   2.742   4.141 -0.1343  0.6395 -0.4663
 2493SOL    HW210045   1.431   2.802   4.184  0.7528 -0.0987 -0.6630
 2493SOL    HW310046   1.287   2.756   4.185  1.1565 -1.4624  2.8777
 2493SOL    MW410047   1.368   2.752   4.153  0.1532  0.2649 -0.0510
 2494SOL     OW10048   1.580   2.896   4.265 -0.4628 -0.2340  0.1031
 2494SOL    HW210049   1.579   2.918   4.358 -0.3012  0.4050 -0.0427
 2494SOL    HW310050   1.576   2.981   4.220 -0.6297 -0.5406 -0.4723
 2494SOL    MW410051   1.579   2.910   4.271 -0.4635 -0.1903  0.0081
 2495SOL     OW10052   1.579   3.134   4.124  0.3120  0.1306 -0.4663
 2495SOL    HW210053   1.659   3.176   4.156 -0.0745  0.1634  0.4734
 2495SOL    HW310054   1.509   3.176   4.173 -0.3707  0.6838 -1.8652
 2495SOL    MW410055   1.581   3.145   4.134  0.1708  0.2079 -0.5269
 2496SOL     OW10056   1.367   3.233   4.260 -0.4612  0.1686 -0.1656
 2496SOL    HW210057   1.423   3.234   4.338 -0.8663  0.0910  0.1289
 2496SOL    HW310058   1.358   3.325   4.236  0.4970  0.1280 -0.7310
 2496SOL    MW410059   1.373   3.245   4.267 -0.3881  0.1531 -0.2012
 2497SOL     OW10060   1.366   3.494   4.176 -0.2082  0.2301  0.2271
 2497SOL    HW210061   1.291   3.547   4.202 -0.2356 -0.2891  1.2382
 2497SOL    HW310062   1.377   3.511   4.083 -1.5723  0.3178  0.0796
 2497SOL    MW410063   1.358   3.503   4.167 -0.3918  0.1731  0.3409
 2498SOL     OW10064   1.589   3.616   4.256  0.0709  0.1099  0.1468
 2498SOL    HW210065   1.612   3.586   4.344 -0.5521  0.0180  0.2782
 2498SOL    HW310066   1.508   3.569   4.235  0.3433 -0.0544 -0.5724
 2498SOL    MW410067   1.581   3.606   4.265  0.0246  0.0763  0.0687
 2499SOL     OW10068   1.582   3.870   4.174  0.1279  0.4210  0.1214
 2499SOL    HW210069   1.544   3.912   4.251  0.6368 -0.3993  0.8327
 2499SOL    HW310070   1.579   3.776   4.193  0.3754  0.2139 -0.8031
 2499SOL    MW410071   1.577   3.863   4.186  0.2277  0.2851  0.0935
 2500SOL     OW10072   1.281   4.045   4.338  0.0223 -0.1819  0.0095
 2500SOL    HW210073   1.350   3.997   4.383  1.3311  1.1912 -0.4979
 2500SOL    HW310074   1.325   4.086   4.263 -1.2966  0.8701 -0.2141
 2500SOL    MW410075   1.296   4.044   4.334  0.0212  0.1388 -0.0873
 2501SOL     OW10076   1.402   4.228   4.166 -0.1337 -0.4323 -0.3970
 2501SOL    HW210077   1.463   4.301   4.182  0.7911 -1.3061  0.1475
 2501SOL    HW310078   1.372   4.241   4.076  1.4119 -0.3762 -0.9190
 2501SOL    MW410079   1.406   4.240   4.157  0.1924 -0.5398 -0.3939
 2502SOL     OW10080   1.589   4.446   4.217 -0.5232 -0.0930 -0.4684
 2502SOL    HW210081   1.598   4.539   4.196  1.0329  0.0030  0.4932
 2502SOL    HW310082   1.663   4.404   4.173  0.3549 -0.4705  1.3264
 2502SOL    MW410083   1.600   4.453   4.209 -0.2021 -0.1302 -0.1054
 2503SOL     OW10084   2.021   4.646   4.142  0.0246 -0.1465  0.0064
 2503SOL    HW210085   1.956   4.707   4.177 -0.0090  0.0610 -0.4166
 2503SOL    HW310086   2.015   4.656   4.047 -1.3886 -2.2358 -0.1784
 2503SOL    MW410087   2.012   4.655   4.134 -0.1664 -0.3948 -0.0734
 2504SOL     OW10088   1.818   0.176   4.254 -0.2234 -0.3344  0.4399
 2504SOL    HW210089   1.806   0.203   4.345 -1.2337 -2.0622  0.8364
 2504SOL    HW310090   1.810   0.257   4.204  1.5773  0.8512  1.9640
 2504SOL    MW410091   1.816   0.190   4.260 -0.1192 -0.4060  0.6938
 2505SOL     OW10092   1.833   0.403   4.088  0.0070  0.2026 -0.2811
 2505SOL    HW210093   1.914   0.435   4.128  0.1376  0.2402 -0.5691
 2505SOL    HW310094   1.763   0.449   4.134  0.1953  0.9352 -0.7121
 2505SOL    MW410095   1.835   0.413   4.099  0.0492  0.3042 -0.3762
 2506SOL     OW10096   2.031   0.524   4.232  0.0756  0.3341 -0.1807
 2506SOL    HW210097   2.014   0.510   4.325 -0.6059 -0.1301 -0.3702
 2506SOL    HW310098   2.122   0.496   4.220  0.1070  0.2179  0.3138
 2506SOL    MW410099   2.041   0.518   4.243 -0.0103  0.2575 -0.1407
 2507SOL     OW10100   2.021   0.797   4.168 -0.1930 -0.2757 -0.2300
 2507SOL    HW210101   2.103   0.818   4.212 -0.0097  0.0719 -0.7325
 2507SOL    HW310102   2.006   0.704   4.187 -0.4472  0.0205  1.0864
 2507SOL    MW410103   2.030   0.787   4.176 -0.2024 -0.1907 -0.1221
 2508SOL     OW10104   1.771   0.912   4.186  0.0667  0.4392  0.0149
 2508SOL    HW210105   1.792   1.002   4.161  0.1543  0.6474  0.8399
 2508SOL    HW310106   1.855   0.866   4.184 -0.3261 -0.2584 -2.9306
 2508SOL    MW410107   1.785   0.918   4.182  0.0265  0.3747 -0.2646
 2509SOL     OW10108   1.811   1.194   4.137 -0.2976  0.2209 -0.2372
 2509SOL    HW210109   1.859   1.237   4.207  1.3263 -1.2348 -0.4166
 2509SOL    HW310110   1.723   1.231   4.141  0.8033  2.9094  0.1376
 2509SOL    MW410111   1.806   1.205   4.147  0.0620  0.3836 -0.2117
 2510SOL     OW10112   1.990   1.126   4.577  0.2947  0.0645  0.1482
 2510SOL    HW210113   1.932   1.056   4.549 -2.7958  1.6283  2.4361
 2510SOL    HW310114   1.990   1.188   4.504 -1.2195  0.2338  0.2895
 2510SOL    MW410115   1.983   1.125   4.564 -0.3128  0.2933  0.4687
 2511SOL     OW10116   2.024   1.642   4.070  0.6192 -0.1949 -0.2594
 2511SOL    HW210117   2.102   1.616   4.119  0.7795 -2.4570 -1.6259
 2511SOL    HW310118   2.040   1.609   3.982 -1.2321  0.6798 -0.9393
 2511SOL    MW410119   2.036   1.634   4.065  0.3960 -0.3780 -0.5293
 2512SOL     OW10120   1.952   1.302   4.346  0.1565  0.4136 -0.0053
 2512SOL    HW210121   1.919   1.383   4.385 -0.0908 -0.4239  1.5910
 2512SOL    HW310122   2.046   1.315   4.340  0.1458  0.7367  0.4756
 2512SOL    MW410123   1.960   1.314   4.350  0.1223  0.3457  0.2685
 2513SOL     OW10124   1.683   1.678   4.304  0.1426 -0.4721  0.7384
 2513SOL    HW210125   1.627   1.729   4.362  0.1342  0.0104  0.3170
 2513SOL    HW310126   1.622   1.626   4.251 -0.0818  1.9782 -1.5171
 2513SOL    MW410127   1.668   1.678   4.304  0.1118 -0.0854  0.3853
 2514SOL     OW10128   1.862   1.553   4.458 -0.1030  0.4516 -0.0026
 2514SOL    HW210129   1.820   1.586   4.379  2.0776  1.7022 -0.6924
 2514SOL    HW310130   1.917   1.626   4.488  1.4004 -1.0351  0.9644
 2514SOL    MW410131   1.864   1.567   4.452  0.3831  0.4203  0.0339
 2515SOL     OW10132   1.832   2.075   4.194  0.3639 -0.2083 -0.0086
 2515SOL    HW210133   1.841   2.051   4.286 -0.9736 -0.4853  0.0703
 2515SOL    HW310134   1.805   1.993   4.151 -0.5057  0.2662 -0.3823
 2515SOL    MW410135   1.829   2.061   4.200  0.0727 -0.1822 -0.0477
 2516SOL     OW10136   1.681   2.490   4.288 -0.1720  0.5333  0.0579
 2516SOL    HW210137   1.724   2.474   4.372 -1.6062  0.9108  0.8818
 2516SOL    HW310138   1.665   2.403   4.252 -1.5384  0.2845  1.2165
 2516SOL    MW410139   1.685   2.476   4.294 -0.5414  0.5503  0.3195
 2517SOL     OW10140   1.752   2.730   4.127 -0.2307  0.5529 -0.0455
 2517SOL    HW210141   1.716   2.648   4.161 -1.9131  0.0713 -2.7964
 2517SOL    HW310142   1.712   2.798   4.180 -0.1961 -0.3180  1.1174
 2517SOL    MW410143   1.742   2.728   4.138 -0.4481  0.3743 -0.2551
 2518SOL     OW10144   2.015   2.852   4.224 -0.4489  0.0144  0.0907
 2518SOL    HW210145   2.002   2.850   4.319  0.5873 -3.8355  0.2346
 2518SOL    HW310146   1.941   2.804   4.189 -0.6641  1.1605 -1.0574
 2518SOL    MW410147   2.004   2.846   4.232 -0.3405 -0.3421 -0.0415
 2519SOL     OW10148   2.009   3.121   4.148 -0.0446  0.1085 -0.0459
 2519SOL    HW210149   2.014   3.027   4.163 -0.2087  0.1240  0.1050
 2519SOL    HW310150   2.009   3.130   4.052  1.0873  0.0151 -0.0679
 2519SOL    MW410151   2.010   3.110   4.137  0.0832  0.0982 -0.0281
 2520SOL     OW10152   1.783   3.259   4.235  0.2744 -0.1090  0.3973
 2520SOL    HW210153   1.827   3.338   4.203 -0.1718 -0.5308 -1.3022
 2520SOL    HW310154   1.853   3.194   4.240  0.1642 -0.3256 -0.7360
 2520SOL    MW410155   1.798   3.261   4.231  0.2011 -0.1934  0.0234
 2521SOL     OW10156   1.816   3.521   4.107  0.4784  0.0569 -0.2417
 2521SOL    HW210157   1.727   3.529   4.141  1.0370  0.7259  1.0731
 2521SOL    HW310158   1.804   3.500   4.014 -1.0448  0.1040 -0.0665
 2521SOL    MW410159   1.803   3.519   4.099  0.3511  0.1514 -0.0458
 2522SOL     OW10160   2.034   3.642   4.272 -0.3317 -0.2977 -0.4195
 2522SOL    HW210161   2.048   3.736   4.268  0.4320 -0.3358  1.0950
 2522SOL    HW310162   1.953   3.628   4.223 -1.1565  1.3043  0.4443
 2522SOL    MW410163   2.025   3.652   4.265 -0.3400 -0.0911 -0.1054
 2523SOL     OW10164   2.079   3.914   4.186  0.2645 -0.0816  0.1295
 2523SOL    HW210165   1.987   3.943   4.190 -0.6730 -2.9726  0.9209
 2523SOL    HW310166   2.093   3.893   4.094 -0.5532 -1.6650  0.3540
 2523SOL    MW410167   2.069   3.915   4.174  0.0329 -0.6721  0.2637
 2524SOL     OW10168   1.812   4.023   4.249 -0.4336 -0.2362 -0.0025
 2524SOL    HW210169   1.807   4.115   4.223 -0.4689 -0.0448  0.6799
 2524SOL    HW310170   1.728   3.986   4.223 -0.5158 -0.0159 -0.0520
 2524SOL    MW410171   1.801   4.030   4.242 -0.4491 -0.1817  0.0806
 2525SOL     OW10172   1.785   4.283   4.130  0.0092  0.2675 -0.4188
 2525SOL    HW210173   1.873   4.314   4.152  0.8866 -2.3867 -0.0126
 2525SOL    HW310174   1.788   4.266   4.036  0.9950 -3.0388  0.1804
 2525SOL    MW410175   1.797   4.285   4.121  0.2550 -0.5188 -0.2866
 2526SOL     OW10176   2.021   4.364   4.220 -0.3026  0.2032 -0.0146
 2526SOL    HW210177   2.052   4.357   4.311 -2.1010 -0.9073  0.5497
 2526SOL    HW310178   2.026   4.457   4.200  1.7404  0.2541  0.6262
 2526SOL    MW410179   2.026   4.375   4.230 -0.2704  0.0634  0.1450
 2527SOL     OW10180   2.457   4.661   4.133  0.4627 -0.3933  0.3291
 2527SOL    HW210181   2.540   4.692   4.168 -0.6150  0.4887  2.1875
 2527SOL    HW310182   2.441   4.578   4.179  0.1414 -0.3780  0.2458
 2527SOL    MW410183   2.466   4.654   4.144  0.2782 -0.2750  0.5636
 2528SOL     OW10184   2.236   0.123   4.218 -0.0021  0.5104 -0.1330
 2528SOL    HW210185   2.306   0.061   4.196  0.5345  1.0807 -0.0605
 2528SOL    HW310186   2.156   0.079   4.191  0.2517 -0.7684  1.0895
 2528SOL    MW410187   2.235   0.109   4.212  0.1018  0.4169  0.0381
 2529SOL     OW10188   2.292   0.420   4.161  0.0935  0.1808  0.5685
 2529SOL    HW210189   2.313   0.330   4.188  2.0895  0.6000  0.4826
 2529SOL    HW310190   2.269   0.412   4.068 -1.0796 -0.4301  0.9038
 2529SOL    MW410191   2.292   0.407   4.152  0.2022  0.1554  0.6013
 2530SOL     OW10192   2.504   0.549   4.295  0.2865 -0.5512 -0.2005
 2530SOL    HW210193   2.510   0.557   4.391  1.0046  0.5652 -0.3363
 2530SOL    HW310194   2.412   0.529   4.279  0.1994 -0.9524  0.7346
 2530SOL    MW410195   2.493   0.547   4.306  0.3695 -0.4568 -0.0949
 2531SOL     OW10196   2.520   0.789   4.186 -0.2691  0.4149 -0.1220
 2531SOL    HW210197   2.517   0.697   4.212  1.1111  0.2187 -0.6066
 2531SOL    HW310198   2.484   0.791   4.098  1.0941  0.0905 -0.7067
 2531SOL    MW410199   2.515   0.777   4.178  0.0927  0.3462 -0.2627
 2532SOL     OW10200   2.278   0.858   4.298  0.1934 -0.1959 -0.4217
 2532SOL    HW210201   2.292   0.848   4.392  0.2527  3.2094 -0.0280
 2532SOL    HW310202   2.363   0.836   4.259  0.3815 -0.8706  0.3540
 2532SOL    MW410203   2.291   0.854   4.305  0.2258  0.1644 -0.2675
 2533SOL     OW10204   2.317   1.120   4.171  0.1864  0.1118 -0.1517
 2533SOL    HW210205   2.408   1.151   4.172  0.0674  0.4637 -0.0362
 2533SOL    HW310206   2.316   1.049   4.235  0.6182 -0.5987 -0.9240
 2533SOL    MW410207   2.329   1.115   4.180  0.2275  0.0645 -0.2384
 2534SOL     OW10208   2.289   0.794   4.562  0.5902 -0.5514  0.0819
 2534SOL    HW210209   2.281   0.886   4.588 -0.4801  0.0043 -2.1065
 2534SOL    HW310210   2.203   0.756   4.580  0.5308 -0.7064 -0.4962
 2534SOL    MW410211   2.277   0.801   4.568  0.4411 -0.4985 -0.2828
 2535SOL     OW10212   2.554   1.258   4.105 -0.3564 -0.0993 -0.6919
 2535SOL    HW210213   2.609   1.226   4.033  2.5119  0.4009  1.2062
 2535SOL    HW310214   2.560   1.353   4.100 -0.0911 -0.0616  0.2227
 2535SOL    MW410215   2.562   1.266   4.095  0.0570 -0.0283 -0.3209
 2536SOL     OW10216   2.264   1.576   4.188 -0.0689 -0.3740 -0.2613
 2536SOL    HW210217   2.265   1.630   4.267  0.7798 -0.7426 -0.0140
 2536SOL    HW310218   2.244   1.488   4.219  0.4238 -0.5491 -0.4349
 2536SOL    MW410219   2.262   1.572   4.203  0.1082 -0.4457 -0.2518
 2537SOL     OW10220   2.268   2.104   4.124  0.3553 -0.0733  0.3765
 2537SOL    HW210221   2.301   2.076   4.210 -1.1556 -2.1188  0.3031
 2537SOL    HW310222   2.187   2.151   4.143  0.3259 -0.0109  0.1018
 2537SOL    MW410223   2.262   2.107   4.138  0.1521 -0.3352  0.3304
 2538SOL     OW10224   1.810   1.812   4.114  0.0050 -0.3024 -0.2928
 2538SOL    HW210225   1.754   1.763   4.176  0.9517 -1.0883 -0.0425
 2538SOL    HW310226   1.889   1.758   4.106  0.7866  0.8717 -0.5390
 2538SOL    MW410227   1.813   1.798   4.121  0.2329 -0.2512 -0.2928
 2539SOL     OW10228   2.709   2.208   4.062  0.2134  0.3596  0.4450
 2539SOL    HW210229   2.721   2.113   4.072 -1.1409  0.2397  1.0255
 2539SOL    HW310230   2.616   2.223   4.081  0.3981  1.7951  0.2825
 2539SOL    MW410231   2.698   2.197   4.066  0.0589  0.5333  0.5002
 2540SOL     OW10232   1.605   2.234   4.183 -0.0202 -0.4676 -0.1768
 2540SOL    HW210233   1.680   2.173   4.183  0.6220  0.3131 -0.2825
 2540SOL    HW310234   1.592   2.254   4.090  1.4179  1.5468  0.0310
 2540SOL    MW410235   1.613   2.228   4.171  0.2543 -0.0989 -0.1636
 2541SOL     OW10236   2.041   2.242   4.164 -0.4193 -0.1537 -0.0501
 2541SOL    HW210237   2.040   2.274   4.073  0.9446 -0.3195 -0.1380
 2541SOL    HW310238   1.977   2.171   4.165  0.0404 -0.6004 -1.0691
 2541SOL    MW410239   2.032   2.237   4.152 -0.1788 -0.2348 -0.1960
 2542SOL     OW10240   2.433   2.979   4.076  0.5033 -0.1655  0.1727
 2542SOL    HW210241   2.360   2.919   4.062 -0.5037  1.3006 -0.9414
 2542SOL    HW310242   2.430   2.999   4.170  0.4297 -1.2802  0.4220
 2542SOL    MW410243   2.423   2.973   4.087  0.3610 -0.1192  0.0587
 2543SOL     OW10244   2.292   3.211   4.731 -0.1667 -0.1711 -0.0146
 2543SOL    HW210245   2.254   3.269   4.666  0.3052  0.9733  0.7228
 2543SOL    HW310246   2.362   3.165   4.684 -0.1915  0.2506 -0.4655
 2543SOL    MW410247   2.296   3.212   4.716 -0.1078  0.0353  0.0234
 2544SOL     OW10248   2.218   3.289   4.258 -0.1109 -0.1809 -0.7796
 2544SOL    HW210249   2.229   3.359   4.193 -1.9078  1.4413  0.6040
 2544SOL    HW310250   2.143   3.239   4.226 -0.7613  0.3952 -0.1797
 2544SOL    MW410251   2.209   3.292   4.245 -0.4339  0.1090 -0.5178
 2545SOL     OW10252   2.212   3.514   4.102 -0.0122 -0.0969 -0.3067
 2545SOL    HW210253   2.285   3.561   4.140 -1.0106  1.0440  0.2204
 2545SOL    HW310254   2.137   3.535   4.158 -0.3814 -2.7455  0.2901
 2545SOL    MW410255   2.212   3.523   4.114 -0.1929 -0.2956 -0.1583
 2546SOL     OW10256   2.455   3.592   4.237  0.0718 -0.3444  0.1729
 2546SOL    HW210257   2.432   3.571   4.328  0.7287  0.4794  0.5422
 2546SOL    HW310258   2.468   3.687   4.238 -1.3930 -0.1034 -1.1169
 2546SOL    MW410259   2.453   3.602   4.250 -0.0348 -0.2038  0.0515
 2547SOL     OW10260   2.495   3.852   4.170 -0.0334  0.2238 -0.3924
 2547SOL    HW210261   2.567   3.907   4.201 -0.3381 -0.1050  0.9389
 2547SOL    HW310262   2.497   3.861   4.075  2.6864 -0.9417 -0.4887
 2547SOL    MW410263   2.505   3.860   4.162  0.2854  0.0267 -0.2298
 2548SOL     OW10264   2.311   4.013   4.326  0.3680  0.1075 -0.0675
 2548SOL    HW210265   2.371   3.968   4.268 -0.1544  1.7355 -1.9075
 2548SOL    HW310266   2.224   3.978   4.303  0.4301 -1.2514  1.6507
 2548SOL    MW410267   2.307   4.002   4.316  0.3073  0.1431 -0.0834
 2549SOL     OW10268   2.244   4.239   4.127  0.3889 -0.1877 -0.3433
 2549SOL    HW210269   2.239   4.160   4.182  0.7099 -0.9443 -1.3830
 2549SOL    HW310270   2.173   4.295   4.159  1.0487 -0.2706  1.3671
 2549SOL    MW410271   2.234   4.236   4.139  0.5186 -0.2980 -0.2551
 2550SOL     OW10272   2.443   4.411   4.229 -0.3800 -0.4239 -0.2195
 2550SOL    HW210273   2.523   4.369   4.201  0.6338  0.9584  0.5205
 2550SOL    HW310274   2.373   4.352   4.202  0.7968 -1.0028 -2.0448
 2550SOL    MW410275   2.444   4.398   4.222 -0.0911 -0.3176 -0.3629
 2551SOL     OW10276   2.927   4.665   4.142 -0.5457  0.0211 -0.1832
 2551SOL    HW210277   3.001   4.694   4.195 -1.1013  1.2868 -0.0765
 2551SOL    HW310278   2.921   4.571   4.157  0.7612 -0.0037  0.1520
 2551SOL    MW410279   2.936   4.656   4.151 -0.4466  0.1850 -0.1249
 2552SOL     OW10280   2.679   0.090   4.293 -0.2476 -0.0573 -0.3013
 2552SOL    HW210281   2.686   0.181   4.265  1.2837  0.1141  0.5715
 2552SOL    HW310282   2.764   0.052   4.273 -1.0599 -1.4726 -1.1783
 2552SOL    MW410283   2.691   0.097   4.287 -0.1528 -0.2214 -0.3018
 2553SOL     OW10284   2.685   0.356   4.200 -0.2502  0.2798  0.3261
 2553SOL    HW210285   2.627   0.421   4.240 -0.7774  0.9755 -1.4834
 2553SOL    HW310286   2.686   0.380   4.107  0.9984 -1.2142 -0.0608
 2553SOL    MW410287   2.677   0.368   4.193 -0.1552  0.1745  0.0367
 2554SOL     OW10288   2.929   0.483   4.270  0.3622  0.1951 -0.0766
 2554SOL    HW210289   2.914   0.566   4.225 -0.5419  0.6161  0.9791
 2554SOL    HW310290   2.850   0.432   4.252  1.4029 -0.8924 -1.6806
 2554SOL    MW410291   2.917   0.487   4.262  0.3803  0.1072 -0.1488
 2555SOL     OW10292   2.931   0.742   4.151 -0.0861  0.1065 -0.1345
 2555SOL    HW210293   3.000   0.797   4.188  0.1670 -0.2911 -0.0169
 2555SOL    HW310294   2.928   0.765   4.058  0.4793 -0.1716 -0.2212
 2555SOL    MW410295   2.940   0.753   4.144  0.0219  0.0173 -0.1302
 2556SOL     OW10296   2.762   0.913   4.310 -0.0809  0.2726  0.0942
 2556SOL    HW210297   2.830   0.855   4.274 -1.6923 -1.3261 -0.4471
 2556SOL    HW310298   2.683   0.889   4.262 -1.1572  1.7219  1.1251
 2556SOL    MW410299   2.761   0.902   4.299 -0.4354  0.2529  0.1583
 2557SOL     OW10300   2.736   1.183   4.297  0.4430  0.5950 -0.1477
 2557SOL    HW210301   2.728   1.088   4.310  0.8324  0.8635  2.4557
 2557SOL    HW310302   2.671   1.204   4.230 -0.5958 -1.3369  0.2129
 2557SOL    MW410303   2.726   1.173   4.290  0.3572  0.3756  0.2437
 2558SOL     OW10304   2.975   1.319   4.267  0.3052 -0.4037 -0.0513
 2558SOL    HW210305   3.048   1.271   4.226  0.4622 -0.9896  0.9004
 2558SOL    HW310306   2.903   1.255   4.269  0.5099 -0.6092  1.2035
 2558SOL    MW410307   2.975   1.304   4.262  0.3531 -0.5082  0.2394
 2559SOL     OW10308   2.957   1.576   4.134  0.5866 -0.1552  0.0564
 2559SOL    HW210309   3.027   1.624   4.178 -0.9595  0.0187  2.3986
 2559SOL    HW310310   2.973   1.484   4.156  0.4389 -0.1746  0.0830
 2559SOL    MW410311   2.969   1.570   4.143  0.3631 -0.1347  0.3691
 2560SOL     OW10312   2.709   1.675   4.220 -0.1980 -0.2105  0.2283
 2560SOL    HW210313   2.788   1.624   4.202 -0.9798 -1.4262  0.2299
 2560SOL    HW310314   2.640   1.631   4.171 -1.2041 -0.1372  1.5566
 2560SOL    MW410315   2.710   1.662   4.211 -0.4339 -0.3611  0.4039
 2561SOL     OW10316   2.523   1.521   4.072 -0.2015 -0.1863 -0.2911
 2561SOL    HW210317   2.438   1.545   4.108  0.5127  1.2152  0.4993
 2561SOL    HW310318   2.520   1.551   3.981  0.4970  2.5864  0.5428
 2561SOL    MW410319   2.511   1.528   4.064 -0.0148  0.3644 -0.0768
 2562SOL     OW10320   2.802   1.936   4.108  0.0589 -0.3606  0.8984
 2562SOL    HW210321   2.779   1.934   4.015  3.3472 -0.6758  0.0478
 2562SOL    HW310322   2.763   1.856   4.144 -1.1120 -0.3080 -0.2017
 2562SOL    MW410323   2.794   1.925   4.101  0.3383 -0.3952  0.6413
 2563SOL     OW10324   2.751   2.492   4.026  0.3401  0.4556  0.6017
 2563SOL    HW210325   2.692   2.526   4.093 -0.0554  0.2793  0.3422
 2563SOL    HW310326   2.738   2.398   4.027 -2.3582  0.7177 -2.2064
 2563SOL    MW410327   2.742   2.484   4.035 -0.0679  0.4668  0.1969
 2564SOL     OW10328   2.452   2.303   4.092 -0.1499 -0.2047  0.0947
 2564SOL    HW210329   2.414   2.375   4.142 -0.9502 -1.4899  1.3720
 2564SOL    HW310330   2.387   2.233   4.098  1.4945 -1.7186  0.5178
 2564SOL    MW410331   2.438   2.303   4.099 -0.0386 -0.5739  0.3185
 2565SOL     OW10332   2.667   2.822   4.040  0.2857  0.2700  0.2378
 2565SOL    HW210333   2.586   2.874   4.045 -0.2520 -0.5247 -0.2037
 2565SOL    HW310334   2.652   2.748   4.097 -0.0987 -0.9622 -1.4276
 2565SOL    MW410335   2.654   2.819   4.048  0.1638  0.0026 -0.0401
 2566SOL     OW10336   2.940   2.847   4.304 -0.0211 -0.4352  0.0537
 2566SOL    HW210337   2.921   2.912   4.237  0.8963 -0.4800 -0.2539
 2566SOL    HW310338   2.932   2.894   4.387  0.9973  0.1590 -0.1833
 2566SOL    MW410339   2.936   2.862   4.306  0.2344 -0.3629 -0.0176
 2567SOL     OW10340   2.869   3.005   4.088  0.3183  0.0840  0.7633
 2567SOL    HW210341   2.806   2.935   4.069  1.6812 -0.7416 -0.8841
 2567SOL    HW310342   2.892   3.040   4.002  1.5675  0.8380  1.3973
 2567SOL    MW410343   2.864   3.000   4.074  0.6633  0.0746  0.6299
 2568SOL     OW10344   2.706   3.216   4.194 -0.1616 -0.1983 -0.3759
 2568SOL    HW210345   2.734   3.143   4.139 -0.3208 -0.8030  0.3340
 2568SOL    HW310346   2.617   3.191   4.222  0.6633 -0.8228  1.7486
 2568SOL    MW410347   2.698   3.203   4.191 -0.0737 -0.3605 -0.0014
 2569SOL     OW10348   2.687   3.493   4.101 -0.2694 -0.3294  0.0251
 2569SOL    HW210349   2.697   3.403   4.132 -1.8532 -0.8764 -0.9840
 2569SOL    HW310350   2.616   3.529   4.154 -0.2504  0.0418 -0.2004
 2569SOL    MW410351   2.679   3.486   4.112 -0.4756 -0.3526 -0.1383
 2570SOL     OW10352   2.876   3.672   4.211 -0.2242  0.2748  0.5564
 2570SOL    HW210353   2.881   3.670   4.307 -0.1385  0.0303  0.5483
 2570SOL    HW310354   2.796   3.623   4.191  0.4332 -0.7711  0.4509
 2570SOL    MW410355   2.866   3.665   4.221 -0.1261  0.1047  0.5417
 2571SOL     OW10356   2.930   3.928   4.131  0.3153 -0.2701 -0.1725
 2571SOL    HW210357   2.979   3.962   4.205 -0.5505 -0.1683  0.3553
 2571SOL    HW310358   2.892   3.846   4.162 -0.4167 -0.0083 -0.3483
 2571SOL    MW410359   2.931   3.922   4.145  0.1047 -0.2220 -0.1259
 2572SOL     OW10360   2.703   4.025   4.260  0.0852  0.6497 -0.0666
 2572SOL    HW210361   2.674   4.113   4.234  1.8413  1.0031 -0.9555
 2572SOL    HW310362   2.791   4.018   4.223  0.7065 -0.7594  1.6541
 2572SOL    MW410363   2.711   4.036   4.251  0.3989  0.5097  0.0429
 2573SOL     OW10364   2.652   4.275   4.131  0.6389  0.1023 -0.0332
 2573SOL    HW210365   2.733   4.322   4.146  1.3877 -1.0008 -0.5298
 2573SOL    HW310366   2.641   4.275   4.036  0.0235  0.3150  0.0362
 2573SOL    MW410367   2.661   4.281   4.120  0.6566 -0.0153 -0.0901
 2574SOL     OW10368   2.883   4.406   4.214 -0.1531  0.0012  0.2758
 2574SOL    HW210369   2.870   4.401   4.309  1.2057 -0.1679  0.4512
 2574SOL    HW310370   2.955   4.346   4.196  0.7430  1.3334 -0.6281
 2574SOL    MW410371   2.891   4.398   4.224  0.1442  0.1545  0.1798
 2575SOL     OW10372   3.413   0.020   4.142  0.2155  0.4868 -0.2082
 2575SOL    HW210373   3.467   0.066   4.206 -0.0999  0.2900  0.1980
 2575SOL    HW310374   3.417  -0.072   4.169 -0.4592  0.4955 -0.0836
 2575SOL    MW410375   3.421   0.014   4.154  0.0849  0.4621 -0.1383
 2576SOL     OW10376   3.167   0.076   4.268 -0.1342  0.3319  0.5051
 2576SOL    HW210377   3.195   0.050   4.356 -0.6942 -2.9539 -0.2257
 2576SOL    HW310378   3.244   0.062   4.213 -0.6390 -0.4731 -0.0098
 2576SOL    MW410379   3.181   0.070   4.272 -0.2749 -0.2079  0.3409
 2577SOL     OW10380   3.148   0.364   4.179 -0.3232 -0.0910  0.2860
 2577SOL    HW210381   3.145   0.276   4.217 -1.2653  0.2672  1.0519
 2577SOL    HW310382   3.079   0.412   4.224  0.0335  0.9817 -0.2961
 2577SOL    MW410383   3.139   0.358   4.190 -0.4001  0.0978  0.3099
 2578SOL     OW10384   3.359   0.522   4.319 -0.2917 -0.0384  0.6642
 2578SOL    HW210385   3.444   0.502   4.282 -0.7176  1.0075 -0.9558
 2578SOL    HW310386   3.298   0.468   4.269 -0.5944 -0.6594  1.7011
 2578SOL    MW410387   3.362   0.512   4.308 -0.3877  0.0176  0.5870
 2579SOL     OW10388   3.330   0.759   4.150 -0.4191 -0.3793  0.1262
 2579SOL    HW210389   3.258   0.805   4.192 -1.2620 -1.0063 -0.6089
 2579SOL    HW310390   3.331   0.673   4.193 -0.1883 -0.4168  0.0468
 2579SOL    MW410391   3.321   0.753   4.161 -0.4997 -0.4669  0.0186
 2580SOL     OW10392   3.129   0.929   4.244 -0.5030 -0.3648 -0.7446
 2580SOL    HW210393   3.131   0.950   4.337  1.0226 -0.4035 -0.7601
 2580SOL    HW310394   3.139   1.014   4.200  0.4935 -0.5225 -0.8450
 2580SOL    MW410395   3.131   0.943   4.251 -0.1705 -0.3908 -0.7601
 2581SOL     OW10396   3.174   1.190   4.118 -0.1851 -0.2703  0.0913
 2581SOL    HW210397   3.266   1.208   4.137 -0.3610 -1.0518  1.7692
 2581SOL    HW310398   3.174   1.165   4.025  1.3082 -0.3574  0.0908
 2581SOL    MW410399   3.186   1.189   4.108 -0.0110 -0.3849  0.3123
 2582SOL     OW10400   3.427   1.280   4.282 -0.9938  0.0246 -0.3226
 2582SOL    HW210401   3.442   1.282   4.377 -1.4400 -0.7149 -0.2265
 2582SOL    HW310402   3.419   1.372   4.257  2.0887  0.3689 -0.1443
 2582SOL    MW410403   3.428   1.292   4.291 -0.6459 -0.0277 -0.2861
 2583SOL     OW10404   3.378   1.554   4.182 -0.5179  0.2357 -0.6035
 2583SOL    HW210405   3.306   1.615   4.198 -0.3265  0.1973  0.3967
 2583SOL    HW310406   3.368   1.530   4.090 -1.7439  0.2718 -0.4881
 2583SOL    MW410407   3.368   1.559   4.172 -0.6545  0.2353 -0.4563
 2584SOL     OW10408   3.066   1.988   4.122  0.0877 -0.2206  0.0580
 2584SOL    HW210409   3.072   2.083   4.128  2.3363 -0.2619 -1.3103
 2584SOL    HW310410   2.972   1.971   4.112 -0.3357  1.8356  0.2909
 2584SOL    MW410411   3.054   1.998   4.122  0.3285  0.0452 -0.0916
 2585SOL     OW10412   3.226   2.446   4.136 -0.0729 -0.0997 -0.7228
 2585SOL    HW210413   3.269   2.464   4.220  0.1149  0.1387 -0.8692
 2585SOL    HW310414   3.159   2.513   4.129 -0.5998 -0.5839 -0.4076
 2585SOL    MW410415   3.223   2.457   4.146 -0.1178 -0.1321 -0.7005
 2586SOL     OW10416   3.030   2.258   4.078 -0.2584 -0.0707  0.1824
 2586SOL    HW210417   3.090   2.323   4.115  1.2835 -0.5217 -1.4154
 2586SOL    HW310418   2.944   2.281   4.113  0.4512  2.1104  0.5670
 2586SOL    MW410419   3.027   2.269   4.088  0.0386  0.1576  0.0224
 2587SOL     OW10420   3.599   2.524   4.240  0.0901 -0.1522 -0.1130
 2587SOL    HW210421   3.587   2.581   4.164 -0.1184 -0.4926 -0.3364
 2587SOL    HW310422   3.511   2.514   4.277  0.2905  0.5742  0.5843
 2587SOL    MW410423   3.585   2.530   4.235  0.0889 -0.1011 -0.0505
 2588SOL     OW10424   3.615   2.752   4.061  0.4442  0.0569 -0.1053
 2588SOL    HW210425   3.541   2.813   4.069  0.6088  0.2178  0.1827
 2588SOL    HW310426   3.689   2.800   4.097  0.4024 -0.6346  0.9104
 2588SOL    MW410427   3.615   2.766   4.067  0.4604 -0.0131  0.0668
 2589SOL     OW10428   2.929   2.318   3.803 -0.0437  0.4478 -0.5643
 2589SOL    HW210429   2.954   2.300   3.894 -0.7358  0.1254 -0.4356
 2589SOL    HW310430   2.988   2.388   3.776  0.1281  0.5929  0.1573
 2589SOL    MW410431   2.940   2.325   3.812 -0.1123  0.4244 -0.4520
 2590SOL     OW10432   3.257   3.179   4.332  0.0362  0.0334  0.0276
 2590SOL    HW210433   3.285   3.103   4.383  0.2876  0.6165  0.7745
 2590SOL    HW310434   3.264   3.151   4.241  1.0218 -0.5267  0.2669
 2590SOL    MW410435   3.262   3.165   4.327  0.1993  0.0362  0.1574
 2591SOL     OW10436   3.697   3.297   4.309 -0.2321 -0.0733  0.0743
 2591SOL    HW210437   3.747   3.366   4.354 -2.2209 -0.2704  2.6665
 2591SOL    HW310438   3.740   3.216   4.336 -0.3896 -0.0803  0.3124
 2591SOL    MW410439   3.710   3.296   4.319 -0.5150 -0.1004  0.4478
 2592SOL     OW10440   3.450   3.333   4.435  0.2391  0.0023 -0.1361
 2592SOL    HW210441   3.530   3.318   4.383  0.0863 -1.4021  0.0128
 2592SOL    HW310442   3.388   3.269   4.401 -0.4226  0.2511  0.6018
 2592SOL    MW410443   3.453   3.322   4.423  0.1316 -0.1500 -0.0191
 2593SOL     OW10444   3.115   3.520   4.121 -0.1416 -0.2086 -0.6744
 2593SOL    HW210445   3.032   3.565   4.137  0.8563  1.3445  0.2853
 2593SOL    HW310446   3.112   3.498   4.028 -1.9504 -0.8762 -0.4838
 2593SOL    MW410447   3.104   3.523   4.111 -0.2487 -0.0916 -0.5226
 2594SOL     OW10448   3.348   3.628   4.211  0.4197  0.1119  0.0878
 2594SOL    HW210449   3.353   3.623   4.307  0.4610  1.1004  0.1396
 2594SOL    HW310450   3.277   3.567   4.188 -0.8234  1.2301  0.8902
 2594SOL    MW410451   3.339   3.619   4.221  0.2613  0.3896  0.2003
 2595SOL     OW10452   3.294   3.881   4.140 -0.1762 -0.0392  0.0681
 2595SOL    HW210453   3.312   3.788   4.158 -1.5554 -0.4744 -0.7634
 2595SOL    HW310454   3.287   3.886   4.045 -0.0070  0.9370  0.1091
 2595SOL    MW410455   3.295   3.869   4.130 -0.3357  0.0322 -0.0362
 2596SOL     OW10456   3.119   4.054   4.307 -0.1508 -0.1708 -0.0103
 2596SOL    HW210457   3.123   4.005   4.389 -0.6474 -1.1557 -0.5667
 2596SOL    HW310458   3.185   4.013   4.251 -0.3519  0.0028 -0.3748
 2596SOL    MW410459   3.129   4.042   4.310 -0.2432 -0.2780 -0.1321
 2597SOL     OW10460   3.135   4.281   4.143 -0.3843 -0.1650 -0.4093
 2597SOL    HW210461   3.187   4.338   4.200  1.5173 -1.1080 -1.1668
 2597SOL    HW310462   3.139   4.195   4.186 -0.3240 -0.5067 -1.0940
 2597SOL    MW410463   3.142   4.277   4.156 -0.1256 -0.3347 -0.5989
 2598SOL     OW10464   3.364   4.424   4.254 -0.3259  0.1867  0.0576
 2598SOL    HW210465   3.384   4.426   4.348  0.7662  1.8629 -0.1731
 2598SOL    HW310466   3.436   4.374   4.216 -0.0915  0.5738 -0.0151
 2598SOL    MW410467   3.376   4.418   4.261 -0.1509  0.4587  0.0172
 2599SOL     OW10468   3.772   0.043   4.158  0.3847  0.5806 -0.2481
 2599SOL    HW210469   3.858   0.082   4.175 -0.2189  2.1916 -0.7011
 2599SOL    HW310470   3.770   0.030   4.063  1.3165 -2.4223  0.1052
 2599SOL    MW410471   3.783   0.047   4.147  0.4280  0.3967 -0.2613
 2600SOL     OW10472   3.583   0.181   4.280  0.0311  0.5120 -0.0847
 2600SOL    HW210473   3.564   0.260   4.229 -1.8252 -0.9863 -1.8162
 2600SOL    HW310474   3.654   0.139   4.233  0.9060  1.0427  0.7451
 2600SOL    MW410475   3.590   0.186   4.267 -0.0985  0.3844 -0.2041
 2601SOL     OW10476   3.576   0.444   4.162 -0.7291 -0.0727  0.3487
 2601SOL    HW210477   3.667   0.454   4.189 -0.5983  0.8556 -0.4188
 2601SOL    HW310478   3.581   0.425   4.069 -1.3361  0.2860  0.2429
 2601SOL    MW410479   3.589   0.443   4.154 -0.7918  0.0971  0.2337
 2602SOL     OW10480   3.812   0.519   4.255 -0.0324 -0.2274  0.3434
 2602SOL    HW210481   3.783   0.525   4.346  0.4171  1.4583  0.3779
 2602SOL    HW310482   3.833   0.609   4.230 -0.0707 -0.6889 -1.4025
 2602SOL    MW410483   3.811   0.531   4.264  0.0219 -0.0659  0.1178
 2603SOL     OW10484   3.817   0.793   4.200  0.0576  0.0894  0.3453
 2603SOL    HW210485   3.726   0.812   4.224  0.0132  0.6262 -0.2342
 2603SOL    HW310486   3.814   0.782   4.105  0.3201 -1.4745  0.4951
 2603SOL    MW410487   3.804   0.794   4.190  0.0865 -0.0462  0.2885
 2604SOL     OW10488   3.557   0.875   4.254 -0.4941 -0.0673  0.0401
 2604SOL    HW210489   3.578   0.958   4.212  0.4835 -0.1227  0.4019
 2604SOL    HW310490   3.487   0.838   4.200 -0.4442  0.6584 -0.5348
 2604SOL    MW410491   3.551   0.881   4.241 -0.3586  0.0211  0.0119
 2605SOL     OW10492   3.633   1.121   4.168  0.0271  0.5084  0.0071
 2605SOL    HW210493   3.550   1.161   4.194 -0.5656  0.2602 -1.4413
 2605SOL    HW310494   3.642   1.143   4.075  0.9077 -0.6190 -0.1898
 2605SOL    MW410495   3.623   1.129   4.159  0.0651  0.3268 -0.2098
 2606SOL     OW10496   3.828   1.284   4.243  0.0182 -0.3067  0.0508
 2606SOL    HW210497   3.748   1.242   4.214  0.3055 -0.7977 -0.0215
 2606SOL    HW310498   3.818   1.376   4.217 -0.6554 -0.3003  0.3230
 2606SOL    MW410499   3.816   1.291   4.236 -0.0329 -0.3707  0.0768
 2607SOL     OW10500   3.815   1.527   4.140  0.0294 -0.7062  0.0605
 2607SOL    HW210501   3.898   1.572   4.152  0.9992 -2.7725  1.3566
 2607SOL    HW310502   3.751   1.582   4.185  0.9775 -0.0008  0.5656
 2607SOL    MW410503   3.817   1.540   4.147  0.2820 -0.8857  0.2980
 2608SOL     OW10504   3.616   1.696   4.247  0.0268 -0.0969  0.4301
 2608SOL    HW210505   3.540   1.655   4.206  1.0319 -1.0903 -0.4484
 2608SOL    HW310506   3.601   1.685   4.341 -0.6298 -0.7901  0.2473
 2608SOL    MW410507   3.604   1.689   4.254  0.0730 -0.3195  0.2909
 2609SOL     OW10508   3.537   1.943   4.164  0.0868  0.0535  0.2875
 2609SOL    HW210509   3.572   1.857   4.186  0.3154  0.2932  0.8903
 2609SOL    HW310510   3.567   1.959   4.075  0.2887 -0.3678  0.2773
 2609SOL    MW410511   3.545   1.934   4.155  0.1440  0.0296  0.3657
 2610SOL     OW10512   3.803   2.047   4.216 -0.4989 -0.1242  0.1648
 2610SOL    HW210513   3.714   2.011   4.217 -0.4159 -0.3378 -0.0695
 2610SOL    HW310514   3.793   2.135   4.180 -0.6136 -0.1490  0.1351
 2610SOL    MW410515   3.790   2.054   4.211 -0.5031 -0.1554  0.1302
 2611SOL     OW10516   4.010   2.448   4.206 -0.2582  0.2281 -0.1528
 2611SOL    HW210517   4.034   2.449   4.299  0.5252  0.4242 -0.3527
 2611SOL    HW310518   3.930   2.396   4.203 -0.2256  0.1214  0.6221
 2611SOL    MW410519   4.003   2.441   4.218 -0.1502  0.2398 -0.0777
 2612SOL     OW10520   3.589   2.743   3.790 -0.4457 -0.2863 -0.2217
 2612SOL    HW210521   3.605   2.748   3.885  0.7182 -0.1254 -0.4180
 2612SOL    HW310522   3.586   2.649   3.771 -1.8034 -0.3264  0.1524
 2612SOL    MW410523   3.591   2.731   3.800 -0.4714 -0.2706 -0.1981
 2613SOL     OW10524   3.312   3.095   4.073 -0.3372 -0.1528 -0.2495
 2613SOL    HW210525   3.405   3.106   4.089 -0.1100 -1.2032 -0.8146
 2613SOL    HW310526   3.296   3.001   4.085 -1.4146  0.0900  0.3413
 2613SOL    MW410527   3.322   3.084   4.077 -0.4494 -0.2594 -0.2460
 2614SOL     OW10528   3.845   2.835   4.182  0.1844 -0.4240  0.2560
 2614SOL    HW210529   3.862   2.924   4.211 -2.0386  0.1637 -0.1432
 2614SOL    HW310530   3.825   2.787   4.262 -1.5839  0.1643  0.1907
 2614SOL    MW410531   3.844   2.840   4.196 -0.3421 -0.2689  0.1941
 2615SOL     OW10532   3.577   3.088   4.084  0.1098  0.5188  0.3598
 2615SOL    HW210533   3.589   3.046   4.169 -0.8573 -0.0309  0.2377
 2615SOL    HW310534   3.666   3.096   4.048  0.3576 -1.1377  0.5332
 2615SOL    MW410535   3.590   3.083   4.090  0.0150  0.2279  0.3667
 2616SOL     OW10536   3.877   3.083   4.343 -0.3440 -0.1385  0.1438
 2616SOL    HW210537   3.945   3.046   4.400 -0.3801  1.2859  1.1416
 2616SOL    HW310538   3.923   3.145   4.288 -0.4269 -1.0275 -0.9417
 2616SOL    MW410539   3.892   3.086   4.344 -0.3598 -0.0677  0.1326
 2617SOL     OW10540   3.586   3.499   4.124  0.2065  0.0194  0.3700
 2617SOL    HW210541   3.616   3.423   4.175  1.1025  0.4582  0.5148
 2617SOL    HW310542   3.496   3.513   4.152  0.6639  0.2055  1.7719
 2617SOL    MW410543   3.578   3.491   4.134  0.3850  0.1016  0.5736
 2618SOL     OW10544   3.745   3.686   4.247 -0.2094 -0.3383 -0.2244
 2618SOL    HW210545   3.828   3.646   4.225 -0.4270 -0.4736 -0.7899
 2618SOL    HW310546   3.679   3.627   4.211 -0.5487 -0.1356  0.0599
 2618SOL    MW410547   3.747   3.673   4.240 -0.2828 -0.3293 -0.2623
 2619SOL     OW10548   3.764   3.938   4.110  0.4092 -0.6755  0.7010
 2619SOL    HW210549   3.677   3.975   4.127 -0.1692 -1.5352 -0.2982
 2619SOL    HW310550   3.761   3.852   4.150  1.1958 -0.2721  1.6301
 2619SOL    MW410551   3.752   3.932   4.117  0.4365 -0.7358  0.6914
 2620SOL     OW10552   3.526   4.037   4.173 -0.1094 -0.4205  0.2793
 2620SOL    HW210553   3.527   4.045   4.268  0.8170 -0.0892  0.2508
 2620SOL    HW310554   3.453   3.977   4.154 -2.3935  2.0582  0.9760
 2620SOL    MW410555   3.517   4.030   4.183 -0.2882 -0.0496  0.3672
 2621SOL     OW10556   3.574   4.315   4.142 -0.0663 -0.1350 -0.1635
 2621SOL    HW210557   3.658   4.328   4.186 -0.3620  0.8262  0.1454
 2621SOL    HW310558   3.555   4.222   4.152  1.1432 -0.4343 -0.5667
 2621SOL    MW410559   3.582   4.305   4.149  0.0544 -0.0477 -0.1760
 2622SOL     OW10560   3.782   4.423   4.303 -0.1017 -0.0959  0.0091
 2622SOL    HW210561   3.866   4.394   4.269 -0.6961 -0.5909 -1.0620
 2622SOL    HW310562   3.773   4.513   4.274  0.5336  0.3124  1.0451
 2622SOL    MW410563   3.792   4.431   4.295 -0.0963 -0.1073  0.0043
 2623SOL     OW10564   4.243   4.660   4.082  0.2934  0.1376  0.1647
 2623SOL    HW210565   4.241   4.570   4.115  0.1962  0.1529  0.2023
 2623SOL    HW310566   4.330   4.692   4.105  0.4543 -0.0630 -0.1562
 2623SOL    MW410567   4.254   4.652   4.089  0.3018  0.1135  0.1278
 2624SOL     OW10568   4.047   0.104   4.245 -0.0474  0.0049 -0.8946
 2624SOL    HW210569   4.054   0.200   4.241  2.5807 -0.1934 -1.7536
 2624SOL    HW310570   4.107   0.073   4.178 -0.0766 -2.2977  0.1151
 2624SOL    MW410571   4.056   0.113   4.236  0.2956 -0.3251 -0.8750
 2625SOL     OW10572   4.016   0.370   4.145 -0.6254  0.2958 -0.7054
 2625SOL    HW210573   4.094   0.425   4.145  0.5833 -1.3583  1.0938
 2625SOL    HW310574   3.949   0.423   4.188  0.5847  0.3405  1.2148
 2625SOL    MW410575   4.018   0.384   4.151 -0.3057  0.0834 -0.2141
 2626SOL     OW10576   4.225   0.527   4.165  0.4119  0.4909 -0.1286
 2626SOL    HW210577   4.241   0.619   4.145  0.5508  0.5307  0.1571
 2626SOL    HW310578   4.307   0.483   4.143  0.7374  0.6110  0.8126
 2626SOL    MW410579   4.238   0.534   4.159  0.4735  0.5119  0.0329
 2627SOL     OW10580   4.261   0.811   4.163  0.1884  0.7324  0.5436
 2627SOL    HW210581   4.179   0.840   4.205  0.4318  1.2626  0.6635
 2627SOL    HW310582   4.243   0.819   4.069  0.0133  0.5983  0.5642
 2627SOL    MW410583   4.248   0.816   4.156  0.1969  0.7846  0.5622
 2628SOL     OW10584   4.050   0.892   4.328 -0.0791  0.0799  0.0105
 2628SOL    HW210585   4.044   0.968   4.269 -0.7582  0.5939  0.7359
 2628SOL    HW310586   3.972   0.840   4.308  0.0207 -0.0688  0.0094
 2628SOL    MW410587   4.039   0.896   4.318 -0.1554  0.1280  0.1063
 2629SOL     OW10588   4.035   1.115   4.153 -0.0035  0.0979 -0.5696
 2629SOL    HW210589   4.112   1.163   4.183 -0.3607  1.7400 -2.1550
 2629SOL    HW310590   3.960   1.169   4.181 -0.4581 -0.1915 -1.1917
 2629SOL    MW410591   4.035   1.129   4.160 -0.1106  0.2764 -0.8607
 2630SOL     OW10592   4.290   1.188   4.258 -0.1473 -0.9632 -0.0869
 2630SOL    HW210593   4.298   1.184   4.353  1.1685  1.1461 -0.0710
 2630SOL    HW310594   4.379   1.174   4.226 -0.2022  0.4668 -0.9016
 2630SOL    MW410595   4.302   1.186   4.266  0.0186 -0.4963 -0.1917
 2631SOL     OW10596   4.235   1.488   4.357  0.4589  0.0426  0.0323
 2631SOL    HW210597   4.204   1.472   4.446 -1.9952  0.4325 -0.7078
 2631SOL    HW310598   4.263   1.403   4.325  0.1879 -0.3258  0.7606
 2631SOL    MW410599   4.234   1.475   4.365  0.0992  0.0454  0.0310
 2632SOL     OW10600   4.023   1.664   4.257 -0.1982 -0.4093  0.4616
 2632SOL    HW210601   3.974   1.671   4.338  0.1418  0.5773  0.5947
 2632SOL    HW310602   4.102   1.615   4.281 -1.1638 -2.0911  0.2213
 2632SOL    MW410603   4.027   1.658   4.271 -0.2804 -0.5010  0.4473
 2633SOL     OW10604   4.015   1.904   4.108  0.0793  0.2113  0.2447
 2633SOL    HW210605   4.027   1.819   4.149 -1.1556  1.1469  2.6789
 2633SOL    HW310606   3.941   1.943   4.156  0.6381  2.6422 -0.8075
 2633SOL    MW410607   4.007   1.898   4.120 -0.0100  0.6554  0.4268
 2634SOL     OW10608   4.448   1.906   4.155 -0.0433 -0.0049 -0.0043
 2634SOL    HW210609   4.519   1.948   4.204  0.8278  1.2988 -2.3082
 2634SOL    HW310610   4.371   1.960   4.173 -0.2678 -0.8937  1.7764
 2634SOL    MW410611   4.447   1.919   4.164  0.0420  0.0499 -0.0739
 2635SOL     OW10612   4.250   2.317   4.129 -0.0804  0.1726 -0.3871
 2635SOL    HW210613   4.172   2.340   4.180 -0.9931  1.1784 -2.1985
 2635SOL    HW310614   4.255   2.222   4.135 -1.9583  0.0161 -0.9649
 2635SOL    MW410615   4.241   2.308   4.137 -0.4487  0.2849 -0.7029
 2636SOL     OW10616   4.127   2.441   4.454 -0.2156  0.0122 -0.2557
 2636SOL    HW210617   4.201   2.486   4.496 -0.0641 -1.8448  1.5716
 2636SOL    HW310618   4.050   2.475   4.500 -0.4076  1.0246 -1.3107
 2636SOL    MW410619   4.127   2.451   4.466 -0.2213 -0.0994 -0.1535
 2637SOL     OW10620   4.070   2.686   4.107 -0.1476  0.0318  0.4980
 2637SOL    HW210621   4.058   2.594   4.132 -0.6060  0.7473  3.0231
 2637SOL    HW310622   3.986   2.727   4.127  0.2944  1.1448  0.0667
 2637SOL    MW410623   4.057   2.679   4.113 -0.1497  0.2730  0.7749
 2638SOL     OW10624   4.276   2.847   4.200 -0.3740 -0.4154  0.0414
 2638SOL    HW210625   4.198   2.798   4.175 -0.0121  0.2720 -2.6275
 2638SOL    HW310626   4.349   2.787   4.186 -0.2843 -0.5324  0.9807
 2638SOL    MW410627   4.276   2.833   4.194 -0.3142 -0.3402 -0.1869
 2639SOL     OW10628   4.248   3.092   4.060 -0.2144 -0.1029 -0.0328
 2639SOL    HW210629   4.234   3.009   4.107 -0.4368  0.3405  0.6825
 2639SOL    HW310630   4.253   3.066   3.968 -1.6307 -0.7502  0.0658
 2639SOL    MW410631   4.247   3.077   4.054 -0.4301 -0.1295  0.0749
 2640SOL     OW10632   4.075   3.242   4.227  0.1520 -0.2018 -0.3691
 2640SOL    HW210633   4.133   3.194   4.168  0.6048 -0.0817 -0.0256
 2640SOL    HW310634   4.126   3.253   4.307  0.8610  2.6299 -1.1262
 2640SOL    MW410635   4.090   3.237   4.229  0.3061  0.1876 -0.4234
 2641SOL     OW10636   3.953   3.492   4.189 -0.1555  0.5245 -0.0590
 2641SOL    HW210637   3.978   3.403   4.217  1.2315  1.4953  1.9281
 2641SOL    HW310638   3.953   3.488   4.093 -0.6794 -1.7696  0.0045
 2641SOL    MW410639   3.956   3.480   4.180 -0.0417  0.3500  0.2117
 2642SOL     OW10640   4.227   3.631   4.241 -0.0112 -0.1775 -0.0461
 2642SOL    HW210641   4.219   3.719   4.203  1.5782  0.1794  0.3802
 2642SOL    HW310642   4.138   3.608   4.267 -0.3164  1.7321  0.7182
 2642SOL    MW410643   4.214   3.640   4.240  0.1578  0.1216  0.1111
 2643SOL     OW10644   4.224   3.891   4.099 -0.3120 -0.1903  0.2008
 2643SOL    HW210645   4.153   3.949   4.127 -1.1346 -1.1175  0.0972
 2643SOL    HW310646   4.219   3.892   4.004  1.2309  1.4468  0.1286
 2643SOL    MW410647   4.214   3.899   4.090 -0.2170 -0.0968  0.1774
 2644SOL     OW10648   4.013   4.041   4.181  0.2870 -0.2480  0.0677
 2644SOL    HW210649   4.022   4.019   4.274  1.0886  0.2579  0.1131
 2644SOL    HW310650   3.927   4.006   4.156 -0.4915  0.7545  1.3173
 2644SOL    MW410651   4.003   4.033   4.190  0.2904 -0.0491  0.2384
 2645SOL     OW10652   3.981   4.321   4.129 -0.2642 -0.0178  0.2765
 2645SOL    HW210653   4.068   4.359   4.140  0.0249 -0.0981 -1.4667
 2645SOL    HW310654   3.993   4.228   4.149  0.0462 -0.0206  0.0869
 2645SOL    MW410655   3.994   4.313   4.133 -0.1850 -0.0281  0.0219
 2646SOL     OW10656   4.160   0.055   4.484 -0.1399  0.3629 -0.1557
 2646SOL    HW210657   4.113   0.106   4.550  0.4704  1.9650 -0.9363
 2646SOL    HW310658   4.107   0.063   4.405  0.5335  0.7203 -0.5763
 2646SOL    MW410659   4.146   0.062   4.483  0.0291  0.6214 -0.3142
 2647SOL     OW10660   0.411   0.060   4.514  0.3589  0.2009 -0.3901
 2647SOL    HW210661   0.329   0.109   4.510  0.1115 -0.3852 -3.4236
 2647SOL    HW310662   0.387  -0.024   4.552  0.0396  0.9188  1.0372
 2647SOL    MW410663   0.397   0.056   4.519  0.2841  0.2182 -0.6018
 2648SOL     OW10664   4.205   4.419   4.464  0.1482 -0.0522  0.5473
 2648SOL    HW210665   4.143   4.380   4.526  0.1631  0.5430  0.9378
 2648SOL    HW310666   4.213   4.510   4.491  0.3337  0.1578 -0.1928
 2648SOL    MW410667   4.198   4.426   4.476  0.1745  0.0544  0.5007
 2649SOL     OW10668   3.623   4.612   4.645 -0.1066  0.2128 -0.0575
 2649SOL    HW210669   3.530   4.592   4.629 -0.2790  0.6363  0.3906
 2649SOL    HW310670   3.631   4.705   4.626  0.6308 -0.2051 -1.8339
 2649SOL    MW410671   3.612   4.621   4.641 -0.0322  0.2136 -0.2332
 2650SOL     OW10672   3.968   0.950   4.598 -0.2419 -0.2937 -0.4652
 2650SOL    HW210673   3.999   1.039   4.614 -0.8087  0.2887 -2.4692
 2650SOL    HW310674   4.005   0.927   4.513 -0.3458 -1.8667 -0.0881
 2650SOL    MW410675   3.977   0.959   4.589 -0.3307 -0.4244 -0.6800
 2651SOL     OW10676   0.607   0.246   4.613 -0.0100  0.4142 -0.0717
 2651SOL    HW210677   0.555   0.166   4.606 -0.4289  0.4830  1.7320
 2651SOL    HW310678   0.690   0.226   4.572  0.2123 -1.2732  1.1640
 2651SOL    MW410679   0.611   0.233   4.607 -0.0360  0.2007  0.3295
 2652SOL     OW10680   0.633   0.983   4.530 -0.5630  0.1839  0.0129
 2652SOL    HW210681   0.644   0.910   4.591  1.1876 -0.0535 -0.5635
 2652SOL    HW310682   0.545   0.972   4.495 -0.6176 -1.1806  0.5448
 2652SOL    MW410683   0.623   0.972   4.533 -0.3393 -0.0275  0.0072
 2653SOL     OW10684   4.271   0.508   4.445 -0.5628 -0.3554  0.0284
 2653SOL    HW210685   4.190   0.516   4.496 -0.4816 -0.2960  0.1475
 2653SOL    HW310686   4.241   0.503   4.354 -0.7560 -1.2957  0.1363
 2653SOL    MW410687   4.256   0.508   4.440 -0.5779 -0.4716  0.0587
 2654SOL     OW10688   0.227   1.341   4.398 -0.2928  0.7184 -0.6204
 2654SOL    HW210689   0.164   1.269   4.387  0.4121  0.1391 -0.9313
 2654SOL    HW310690   0.222   1.391   4.317  0.5398 -0.0505 -1.1557
 2654SOL    MW410691   0.218   1.338   4.386 -0.0899  0.5404 -0.7324
 2655SOL     OW10692   0.586   2.090   4.513  0.3567  0.5455 -0.6084
 2655SOL    HW210693   0.599   2.008   4.562  0.0122  0.0486 -1.3408
 2655SOL    HW310694   0.497   2.117   4.536 -0.4822 -0.6380 -2.3282
 2655SOL    MW410695   0.576   2.083   4.522  0.2005  0.3238 -0.9322
 2656SOL     OW10696   4.199   1.464   4.717  0.2523 -0.7075  0.5933
 2656SOL    HW210697   4.176   1.555   4.736 -0.0325 -0.5212 -0.6194
 2656SOL    HW310698   4.287   1.470   4.679 -0.3035 -0.7975 -0.7363
 2656SOL    MW410699   4.208   1.477   4.715  0.1416 -0.6949  0.2580
 2657SOL     OW10700   0.169   1.202   4.704 -0.3683  0.3284 -0.0658
 2657SOL    HW210701   0.191   1.158   4.622  1.1358 -1.2405  1.1320
 2657SOL    HW310702   0.192   1.138   4.772  0.6574  2.4936  1.6752
 2657SOL    MW410703   0.175   1.188   4.702 -0.0345  0.4071  0.3214
 2658SOL     OW10704   0.391   1.358   4.607 -0.3956 -0.2811 -0.0794
 2658SOL    HW210705   0.343   1.298   4.663 -0.2992  0.6820  1.0477
 2658SOL    HW310706   0.339   1.363   4.527 -0.5659 -1.6045 -0.0694
 2658SOL    MW410707   0.378   1.350   4.604 -0.4053 -0.3287  0.0706
 2659SOL     OW10708   0.169   2.451   4.525  0.2686 -0.2047  0.3183
 2659SOL    HW210709   0.244   2.506   4.502  0.4043 -0.2876  0.5501
 2659SOL    HW310710   0.107   2.462   4.453  0.0958  0.6056  0.5856
 2659SOL    MW410711   0.171   2.460   4.512  0.2637 -0.1087  0.3839
 2660SOL     OW10712   3.666   2.779   4.909 -0.0288 -0.1493  0.2369
 2660SOL    HW210713   3.584   2.734   4.928 -1.3485  1.3097 -1.7537
 2660SOL    HW310714   3.648   2.871   4.928  1.4240  0.0722  0.6141
 2660SOL    MW410715   3.653   2.785   4.914 -0.0110  0.0727  0.0243
 2661SOL     OW10716   0.115   2.904   4.493 -0.3315  0.2117  0.4664
 2661SOL    HW210717   0.133   2.895   4.399 -1.4541 -0.6587  0.3327
 2661SOL    HW310718   0.161   2.831   4.533 -1.0074 -0.2175  0.4526
 2661SOL    MW410719   0.124   2.893   4.486 -0.5688  0.0401  0.4473
 2662SOL     OW10720   4.474   3.170   4.478  0.0871 -0.4231 -0.0684
 2662SOL    HW210721   4.526   3.091   4.495  0.4729 -0.1767 -0.0884
 2662SOL    HW310722   4.472   3.177   4.383  0.2801 -0.2624 -0.0614
 2662SOL    MW410723   4.481   3.161   4.468  0.1636 -0.3695 -0.0696
 2663SOL     OW10724   4.043   2.639   4.771  0.2887  0.3151 -0.2561
 2663SOL    HW210725   3.984   2.588   4.827 -0.6496  0.9723 -0.6234
 2663SOL    HW310726   3.999   2.724   4.762  0.6741  0.3778 -1.5889
 2663SOL    MW410727   4.029   2.644   4.777  0.2160  0.4101 -0.4807
 2664SOL     OW10728   0.063   3.839   4.572  0.4523 -0.2988 -0.0302
 2664SOL    HW210729   0.004   3.887   4.514  0.5873 -2.2999 -1.8846
 2664SOL    HW310730   0.141   3.895   4.577 -0.3494  0.8492 -0.1373
 2664SOL    MW410731   0.066   3.853   4.565  0.3644 -0.4113 -0.2890
 2665SOL     OW10732   0.097   3.571   4.504 -0.1564 -0.5262  0.3253
 2665SOL    HW210733   0.086   3.663   4.529  3.4667 -0.1201  0.6376
 2665SOL    HW310734   0.114   3.574   4.410  3.2334 -0.5252  0.8853
 2665SOL    MW410735   0.098   3.584   4.495  0.7689 -0.4725  0.4406
 2666SOL     OW10736   4.380   4.009   4.433 -0.0220 -0.3801 -0.1067
 2666SOL    HW210737   4.287   3.994   4.450 -0.2525  0.3756 -0.6677
 2666SOL    HW310738   4.404   4.079   4.494 -0.1503  0.3277 -0.8463
 2666SOL    MW410739   4.371   4.016   4.443 -0.0696 -0.1869 -0.2780
 2667SOL     OW10740   4.380   0.238   4.462 -0.0346 -0.4171 -0.2891
 2667SOL    HW210741   4.329   0.317   4.475 -1.1932 -1.2469  0.2610
 2667SOL    HW310742   4.316   0.167   4.465  0.9776 -1.3675 -0.8730
 2667SOL    MW410743   4.365   0.239   4.464 -0.0539 -0.6520 -0.2937
 2668SOL     OW10744   3.748   0.562   4.521  0.3864  0.4147  0.4597
 2668SOL    HW210745   3.672   0.512   4.552  0.3836 -0.5521 -1.0498
 2668SOL    HW310746   3.728   0.653   4.544 -0.6815  0.0054  1.1580
 2668SOL    MW410747   3.735   0.568   4.528  0.2451  0.2331  0.3533
 2669SOL     OW10748   3.616   3.493   4.711 -0.3026 -0.5142  0.5935
 2669SOL    HW210749   3.528   3.456   4.715 -0.7866  0.5560  0.1864
 2669SOL    HW310750   3.602   3.588   4.713  0.7718 -0.3086 -0.7086
 2669SOL    MW410751   3.602   3.501   4.712 -0.2244 -0.3459  0.3681
 2670SOL     OW10752   4.340   4.034   4.759 -0.3308  0.1181 -0.6407
 2670SOL    HW210753   4.400   3.968   4.724  0.1275 -0.9345  2.0313
 2670SOL    HW310754   4.269   3.984   4.798 -0.5583  1.2383  0.4060
 2670SOL    MW410755   4.338   4.018   4.759 -0.3004  0.1273 -0.1502
 2671SOL     OW10756   1.049   0.413   4.525  0.4763 -0.0395 -0.1924
 2671SOL    HW210757   0.998   0.332   4.525  0.2318  0.1096  0.5248
 2671SOL    HW310758   0.998   0.474   4.580  0.7700  0.5246 -0.5381
 2671SOL    MW410759   1.035   0.411   4.532  0.4827  0.0546 -0.1440
 2672SOL     OW10760   4.355   0.863   4.698 -0.2791 -0.1422 -0.3218
 2672SOL    HW210761   4.367   0.813   4.617  0.9805  2.7856 -2.0328
 2672SOL    HW310762   4.440   0.858   4.742 -0.3760 -0.1237 -0.1318
 2672SOL    MW410763   4.368   0.856   4.693 -0.1254  0.2465 -0.5226
 2673SOL     OW10764   1.356   1.072   4.586 -0.3447 -0.2134 -0.1063
 2673SOL    HW210765   1.344   0.983   4.554  0.3464 -0.2404 -0.3021
 2673SOL    HW310766   1.433   1.105   4.538 -0.0282  0.1602  0.6489
 2673SOL    MW410767   1.365   1.065   4.575 -0.2118 -0.1677 -0.0329
 2674SOL     OW10768   0.792   0.326   4.814 -0.1181  0.1629 -0.1840
 2674SOL    HW210769   0.818   0.253   4.869 -0.2628 -0.5911 -1.1112
 2674SOL    HW310770   0.718   0.293   4.763 -0.7391  1.2219 -0.0001
 2674SOL    MW410771   0.786   0.312   4.815 -0.2191  0.2032 -0.2818
 2675SOL     OW10772   1.059   0.739   4.570 -0.2195  0.2282 -0.5364
 2675SOL    HW210773   1.007   0.816   4.547 -0.5643  0.2195  0.2054
 2675SOL    HW310774   1.017   0.704   4.648  1.3912  0.6884  0.5577
 2675SOL    MW410775   1.046   0.744   4.577 -0.0525  0.2878 -0.2933
 2676SOL     OW10776   0.355   0.969   4.464 -0.0662 -0.3911 -0.1488
 2676SOL    HW210777   0.278   1.023   4.444  1.5412  1.7411 -0.8132
 2676SOL    HW310778   0.375   0.925   4.381  1.0758  1.2424 -0.7625
 2676SOL    MW410779   0.347   0.970   4.450  0.2965  0.1058 -0.3176
 2677SOL     OW10780   2.291   1.753   4.385 -0.0133  0.2316 -0.8783
 2677SOL    HW210781   2.312   1.841   4.354 -0.4026  0.7627  0.3240
 2677SOL    HW310782   2.354   1.736   4.455 -0.7169  0.0410 -0.2895
 2677SOL    MW410783   2.302   1.762   4.390 -0.1574  0.2767 -0.6418
 2678SOL     OW10784   0.369   1.662   4.551 -0.5228  0.1763  0.3120
 2678SOL    HW210785   0.449   1.706   4.580  0.4647 -0.5600 -1.2214
 2678SOL    HW310786   0.383   1.570   4.573 -1.0432  0.0831  0.2457
 2678SOL    MW410787   0.382   1.656   4.557 -0.4612  0.0669  0.1006
 2679SOL     OW10788   1.587   1.191   4.439 -0.1177  0.0095 -0.5457
 2679SOL    HW210789   1.655   1.126   4.455 -1.1111 -0.7551  0.6326
 2679SOL    HW310790   1.607   1.262   4.501 -0.7154 -0.4594  0.1816
 2679SOL    MW410791   1.599   1.192   4.449 -0.3276 -0.1533 -0.2942
 2680SOL     OW10792   0.623   1.793   4.592  0.1829 -0.2225 -0.3036
 2680SOL    HW210793   0.680   1.738   4.646 -0.0204  1.0668  1.2467
 2680SOL    HW310794   0.654   1.779   4.503  0.3336 -2.6206  0.0944
 2680SOL    MW410795   0.635   1.784   4.588  0.1760 -0.3688 -0.0467
 2681SOL     OW10796   0.631   2.374   4.554 -0.0116  0.1649 -0.3284
 2681SOL    HW210797   0.617   2.351   4.646  0.4808 -0.8195 -0.4896
 2681SOL    HW310798   0.634   2.290   4.508 -1.4773  0.6996 -1.4342
 2681SOL    MW410799   0.629   2.360   4.560 -0.1400  0.1054 -0.4959
 2682SOL     OW10800   0.944   1.592   4.308  0.3742  0.1906 -0.4545
 2682SOL    HW210801   0.930   1.536   4.384  1.0995  1.1195  0.3725
 2682SOL    HW310802   0.862   1.641   4.299  0.2414 -0.0156 -0.3643
 2682SOL    MW410803   0.931   1.591   4.317  0.4525  0.2860 -0.3338
 2683SOL     OW10804   4.422   2.346   4.684  0.0561  0.0962  0.0270
 2683SOL    HW210805   4.364   2.422   4.682  0.3729  0.3738  1.0757
 2683SOL    HW310806   4.507   2.380   4.655  0.5276  0.4502  1.7635
 2683SOL    MW410807   4.425   2.361   4.680  0.1607  0.1798  0.3943
 2684SOL     OW10808   1.320   2.914   4.592  0.1086  0.4500 -0.6648
 2684SOL    HW210809   1.231   2.948   4.582 -0.6321 -1.1405  0.2312
 2684SOL    HW310810   1.309   2.819   4.595  1.9125  0.2062 -1.1879
 2684SOL    MW410811   1.307   2.906   4.591  0.2489  0.2079 -0.6161
 2685SOL     OW10812   0.413   2.572   4.485 -0.1370 -0.3991  0.4483
 2685SOL    HW210813   0.477   2.512   4.523  1.3426  0.7314 -0.1627
 2685SOL    HW310814   0.410   2.547   4.392 -0.2313 -0.1523  0.3847
 2685SOL    MW410815   0.421   2.561   4.478  0.0458 -0.2177  0.3591
 2686SOL     OW10816   1.593   2.980   4.529  0.1203 -0.0194  0.3705
 2686SOL    HW210817   1.503   2.962   4.556 -0.6131 -0.1939 -2.0745
 2686SOL    HW310818   1.646   2.928   4.589 -1.3871  0.1684  1.9121
 2686SOL    MW410819   1.588   2.971   4.540 -0.1754 -0.0176  0.2513
 2687SOL     OW10820   0.577   3.521   4.487 -0.2932 -0.4662 -0.1738
 2687SOL    HW210821   0.619   3.530   4.572  0.8537  1.3395 -0.8918
 2687SOL    HW310822   0.500   3.579   4.493 -0.7100 -1.0248 -0.0725
 2687SOL    MW410823   0.572   3.530   4.499 -0.1968 -0.3016 -0.2551
 2688SOL     OW10824   0.984   4.298   4.697  0.2761 -0.0822 -0.1205
 2688SOL    HW210825   1.068   4.255   4.685  0.3333 -0.0964  0.3615
 2688SOL    HW310826   0.919   4.229   4.683  0.3167  0.0963 -1.2854
 2688SOL    MW410827   0.986   4.283   4.693  0.2891 -0.0601 -0.2103
 2689SOL     OW10828   4.284   2.571   4.658  0.5853  0.2071  0.1074
 2689SOL    HW210829   4.199   2.589   4.696  0.4307 -0.2101 -0.0455
 2689SOL    HW310830   4.305   2.650   4.608  0.5078  0.5004  0.5379
 2689SOL    MW410831   4.276   2.584   4.656  0.5550  0.1907  0.1440
 2690SOL     OW10832   0.353   3.672   4.519  0.3373  0.5947 -0.1214
 2690SOL    HW210833   0.343   3.767   4.532 -0.5894  0.2869  1.6209
 2690SOL    HW310834   0.264   3.638   4.519  0.6759 -0.3061 -0.5099
 2690SOL    MW410835   0.340   3.680   4.521  0.2597  0.4351  0.0572
 2691SOL     OW10836   0.646   4.379   4.506 -0.5175  0.7643 -0.1819
 2691SOL    HW210837   0.563   4.401   4.549 -0.3090  0.2552  0.5038
 2691SOL    HW310838   0.622   4.356   4.416 -1.1255  0.6031  0.0184
 2691SOL    MW410839   0.632   4.379   4.500 -0.5702  0.6757 -0.0653
 2692SOL     OW10840   4.429   4.232   4.565 -0.4188 -0.1059 -0.3768
 2692SOL    HW210841   4.369   4.305   4.547  0.0437  0.3160 -0.2443
 2692SOL    HW310842   4.416   4.212   4.657 -1.2913 -0.8794 -0.6667
 2692SOL    MW410843   4.419   4.239   4.574 -0.4730 -0.1521 -0.3977
 2693SOL     OW10844   0.385   4.466   4.630  0.0975  0.3959  0.2795
 2693SOL    HW210845   0.399   4.452   4.724  1.5332 -0.9695 -0.1108
 2693SOL    HW310846   0.327   4.396   4.603  0.4805  0.2006 -0.0435
 2693SOL    MW410847   0.380   4.455   4.639  0.3375  0.1898  0.1850
 2694SOL     OW10848   0.218   4.251   4.575  0.0513  0.0361 -0.0427
 2694SOL    HW210849   0.264   4.176   4.612  0.8468  0.3933 -0.2901
 2694SOL    HW310850   0.127   4.223   4.570  0.2314 -0.6754  0.4725
 2694SOL    MW410851   0.212   4.238   4.579  0.1800 -0.0105 -0.0076
 2695SOL     OW10852   1.305   0.511   4.562  0.2605  0.0776 -0.0023
 2695SOL    HW210853   1.219   0.472   4.577  0.4850 -0.3079  0.2794
 2695SOL    HW310854   1.287   0.601   4.537 -0.1425  0.5057  1.7927
 2695SOL    MW410855   1.291   0.518   4.560  0.2370  0.0832  0.2718
 2696SOL     OW10856   0.872   0.196   4.513  0.6535 -0.3826  0.0737
 2696SOL    HW210857   0.950   0.150   4.544  0.5016 -0.3209  0.5563
 2696SOL    HW310858   0.858   0.163   4.425  1.2792 -0.3307 -0.0515
 2696SOL    MW410859   0.881   0.186   4.505  0.7160 -0.3676  0.1211
 2697SOL     OW10860   0.886   0.585   4.733 -0.0305  0.3466  0.0555
 2697SOL    HW210861   0.864   0.495   4.757  0.1848 -0.0128 -1.0839
 2697SOL    HW310862   0.802   0.627   4.716 -0.1005  0.2127  0.0725
 2697SOL    MW410863   0.872   0.579   4.734 -0.0114  0.2815 -0.0925
 2698SOL     OW10864   1.089   1.178   4.492 -0.2147 -0.1550  0.1153
 2698SOL    HW210865   1.171   1.151   4.534 -0.4562  0.1956  0.8126
 2698SOL    HW310866   1.034   1.099   4.495 -0.7796  0.2692  1.8104
 2698SOL    MW410867   1.093   1.164   4.498 -0.3211 -0.0527  0.4311
 2699SOL     OW10868   1.801   0.968   4.459  0.2330  0.0466  0.6010
 2699SOL    HW210869   1.733   0.914   4.498  0.1837 -1.6903 -1.8118
 2699SOL    HW310870   1.795   0.951   4.365  0.8969  3.4702 -0.1321
 2699SOL    MW410871   1.792   0.959   4.451  0.3141  0.2691  0.1860
 2700SOL     OW10872   0.098   1.081   4.446 -0.0040  0.2684 -0.1431
 2700SOL    HW210873   0.021   1.091   4.501  0.7150 -0.3284  1.0032
 2700SOL    HW310874   0.070   1.024   4.375 -0.8116  0.6464 -0.1315
 2700SOL    MW410875   0.084   1.075   4.444 -0.0158  0.2396  0.0095
 2701SOL     OW10876   0.670   1.263   4.505  0.1807 -0.4106  0.7932
 2701SOL    HW210877   0.593   1.301   4.545 -0.9350 -1.1523 -0.6111
 2701SOL    HW310878   0.672   1.173   4.538 -0.5651 -0.9271 -0.5532
 2701SOL    MW410879   0.660   1.256   4.515 -0.0649 -0.5766  0.4301
 2702SOL     OW10880   0.855   1.633   4.678  0.1061  0.5330 -0.2807
 2702SOL    HW210881   0.935   1.685   4.667  0.2171  0.0223 -2.0047
 2702SOL    HW310882   0.879   1.545   4.649 -0.8766  0.1864 -0.0767
 2702SOL    MW410883   0.869   1.628   4.673 -0.0089  0.4197 -0.4816
 2703SOL     OW10884   2.376   1.356   4.585  0.1593 -0.4127 -0.4081
 2703SOL    HW210885   2.467   1.340   4.560  0.5338  0.5178  0.3104
 2703SOL    HW310886   2.379   1.439   4.634 -1.4185  0.9444 -2.4934
 2703SOL    MW410887   2.388   1.365   4.588  0.0005 -0.1109 -0.5884
 2704SOL     OW10888   0.906   0.946   4.487 -0.6570  0.1916 -0.2532
 2704SOL    HW210889   0.891   0.911   4.400  1.4310  1.6593 -1.2449
 2704SOL    HW310890   0.818   0.956   4.524 -1.4450 -2.6865 -1.2415
 2704SOL    MW410891   0.893   0.943   4.481 -0.4855  0.0055 -0.5150
 2705SOL     OW10892   1.291   2.291   4.408 -0.6449  0.4117 -0.6416
 2705SOL    HW210893   1.326   2.372   4.372  1.4342  0.4687  1.3937
 2705SOL    HW310894   1.314   2.294   4.501  0.1398 -2.8315 -0.6649
 2705SOL    MW410895   1.298   2.302   4.415 -0.2671 -0.0091 -0.3757
 2706SOL     OW10896   1.321   2.640   4.604  0.0632  0.0884  0.1022
 2706SOL    HW210897   1.332   2.641   4.508  1.1135  0.5613  0.2222
 2706SOL    HW310898   1.226   2.636   4.616 -0.0565 -0.6237 -0.9622
 2706SOL    MW410899   1.310   2.640   4.593  0.1861  0.0570 -0.0219
 2707SOL     OW10900   1.571   2.559   4.694 -0.2494  0.4965  0.5888
 2707SOL    HW210901   1.479   2.579   4.675 -0.2968  1.1964  1.5243
 2707SOL    HW310902   1.614   2.644   4.701  0.5979  0.1587 -0.4042
 2707SOL    MW410903   1.564   2.573   4.693 -0.1438  0.5441  0.5813
 2708SOL     OW10904   1.670   3.527   4.514  0.1036  0.0871  0.8866
 2708SOL    HW210905   1.765   3.525   4.504 -0.0732  0.3096 -1.0313
 2708SOL    HW310906   1.642   3.438   4.493 -0.2564  0.4829 -0.3565
 2708SOL    MW410907   1.679   3.515   4.510  0.0327  0.1688  0.4697
 2709SOL     OW10908   0.641   2.771   4.482  0.0844 -0.3634  0.3969
 2709SOL    HW210909   0.703   2.700   4.466 -1.4242 -1.4282 -0.8856
 2709SOL    HW310910   0.555   2.729   4.479 -0.9026  1.6903 -1.4051
 2709SOL    MW410911   0.638   2.756   4.480 -0.2448 -0.2329 -0.0095
 2710SOL     OW10912   0.305   3.130   4.569 -0.0523 -0.1542 -0.5810
 2710SOL    HW210913   0.249   3.053   4.575 -0.0674 -0.1203 -0.3083
 2710SOL    HW310914   0.254   3.201   4.607  0.4447 -0.2699  0.2965
 2710SOL    MW410915   0.291   3.129   4.575  0.0113 -0.1650 -0.4287
 2711SOL     OW10916   1.041   2.908   4.496 -0.0019 -0.0518  0.4497
 2711SOL    HW210917   0.959   2.956   4.483 -0.6695 -1.2883  0.0219
 2711SOL    HW310918   1.069   2.884   4.408 -0.1749 -1.2781  0.7228
 2711SOL    MW410919   1.034   2.912   4.483 -0.1127 -0.3767  0.4292
 2712SOL     OW10920   0.763   3.024   4.462  0.1231  0.2867  0.0539
 2712SOL    HW210921   0.690   3.087   4.462  0.2443  0.4293 -0.0586
 2712SOL    HW310922   0.724   2.941   4.489  0.0166  0.4747  0.4784
 2712SOL    MW410923   0.748   3.022   4.465  0.1250  0.3304  0.0949
 2713SOL     OW10924   2.113   4.117   4.652  0.0595  0.4091 -0.2107
 2713SOL    HW210925   2.054   4.062   4.599 -1.0006  0.6464  0.7241
 2713SOL    HW310926   2.198   4.072   4.647 -0.3647 -0.3246 -0.9665
 2713SOL    MW410927   2.116   4.104   4.644 -0.1361  0.3438 -0.1879
 2714SOL     OW10928   0.537   3.214   4.445 -0.2888 -0.0311 -0.0357
 2714SOL    HW210929   0.557   3.304   4.471  0.2453 -0.2628  0.3701
 2714SOL    HW310930   0.456   3.194   4.492  0.1926 -0.1396  0.7693
 2714SOL    MW410931   0.529   3.223   4.455 -0.1549 -0.0761  0.1240
 2715SOL     OW10932   0.333   3.947   4.573  0.5709 -0.0844 -0.0443
 2715SOL    HW210933   0.356   3.958   4.481  1.6426 -0.3254  0.1818
 2715SOL    HW310934   0.414   3.965   4.620  0.7331 -2.5420  0.7078
 2715SOL    MW410935   0.347   3.951   4.567  0.7337 -0.4404  0.0844
 2716SOL     OW10936   0.775   4.137   4.570  0.0308 -0.0298 -0.6025
 2716SOL    HW210937   0.729   4.218   4.547  1.6432  1.0304 -0.2465
 2716SOL    HW310938   0.806   4.103   4.486  0.3966  0.3843 -0.6363
 2716SOL    MW410939   0.773   4.143   4.555  0.2918  0.1645 -0.5598
 2717SOL     OW10940   0.926   4.482   4.509 -0.0208 -0.0551  0.0500
 2717SOL    HW210941   0.831   4.479   4.497 -0.0801  1.8630 -0.0912
 2717SOL    HW310942   0.944   4.420   4.579 -1.4254 -0.1415  0.3364
 2717SOL    MW410943   0.916   4.474   4.517 -0.2140  0.1869  0.0691
 2718SOL     OW10944   1.502   4.202   4.570  0.0695 -0.0838  0.2864
 2718SOL    HW210945   1.518   4.284   4.523  0.3755 -0.9691 -1.1718
 2718SOL    HW310946   1.566   4.201   4.641  0.2880  0.7712  0.0981
 2718SOL    MW410947   1.513   4.213   4.574  0.1386 -0.0877  0.0696
 2719SOL     OW10948   1.603   4.453   4.488  0.2355 -0.1348  0.0352
 2719SOL    HW210949   1.693   4.474   4.516 -0.3180  1.8655  0.3867
 2719SOL    HW310950   1.610   4.439   4.393  0.8931  0.2021  0.0300
 2719SOL    MW410951   1.616   4.454   4.479  0.2494  0.1736  0.0806
 2720SOL     OW10952   1.030   4.424   4.253 -0.1370 -0.6508  0.2489
 2720SOL    HW210953   0.980   4.451   4.330 -1.6195 -1.8881 -0.2371
 2720SOL    HW310954   1.110   4.385   4.289  0.1020  0.5962  1.0763
 2720SOL    MW410955   1.034   4.422   4.268 -0.3011 -0.6495  0.2942
 2721SOL     OW10956   0.620   0.714   4.648  1.0408 -0.3964 -0.2359
 2721SOL    HW210957   0.532   0.736   4.679  0.5415 -0.2281 -1.7087
 2721SOL    HW310958   0.605   0.647   4.581  2.0184 -0.2575 -0.5952
 2721SOL    MW410959   0.606   0.708   4.643  1.1039 -0.3559 -0.4768
 2722SOL     OW10960   1.101   0.043   4.575 -0.1981 -0.2547  0.1615
 2722SOL    HW210961   1.196   0.041   4.567 -0.0761  0.3825  1.3608
 2722SOL    HW310962   1.074  -0.049   4.572  0.5367 -0.4889  0.7583
 2722SOL    MW410963   1.110   0.031   4.574 -0.0849 -0.2015  0.3986
 2723SOL     OW10964   1.315   0.810   4.505 -0.1161  0.2000 -0.1760
 2723SOL    HW210965   1.228   0.779   4.532  0.2017  0.5615  1.3042
 2723SOL    HW310966   1.310   0.815   4.410 -1.3048 -1.0239 -0.2000
 2723SOL    MW410967   1.303   0.806   4.496 -0.2310  0.0862  0.0153
 2724SOL     OW10968   2.268   1.076   4.554  0.0698 -0.4084  0.1194
 2724SOL    HW210969   2.305   1.162   4.576 -0.2489  0.1701 -1.4757
 2724SOL    HW310970   2.174   1.088   4.564 -0.0242 -0.3553 -0.7733
 2724SOL    MW410971   2.260   1.089   4.558  0.0155 -0.3251 -0.2089
 2725SOL     OW10972   0.336   0.780   4.660 -0.0551 -0.1293 -0.0694
 2725SOL    HW210973   0.350   0.851   4.596  0.7921 -0.5673 -0.3830
 2725SOL    HW310974   0.319   0.703   4.607  2.0303 -0.7941  0.1628
 2725SOL    MW410975   0.336   0.779   4.645  0.3318 -0.2748 -0.0806
 2726SOL     OW10976   1.821   0.297   4.515  0.1575 -0.0862 -0.0916
 2726SOL    HW210977   1.881   0.371   4.522 -0.4940  0.5568 -1.2186
 2726SOL    HW310978   1.734   0.335   4.525 -0.2570 -0.4909 -1.9622
 2726SOL    MW410979   1.817   0.312   4.517  0.0168 -0.0547 -0.4864
 2727SOL     OW10980   1.567   0.954   4.801 -0.3243 -0.1726  0.6798
 2727SOL    HW210981   1.641   1.014   4.792  0.7434 -1.3798  1.1687
 2727SOL    HW310982   1.491   1.010   4.815  0.5856  1.0601  0.7083
 2727SOL    MW410983   1.567   0.969   4.801 -0.0634 -0.1692  0.7477
 2728SOL     OW10984   1.354   1.681   4.545  0.1163 -0.2731 -0.4892
 2728SOL    HW210985   1.411   1.756   4.561  0.6413 -0.9410  0.8398
 2728SOL    HW310986   1.366   1.662   4.452  0.5743  0.8097 -0.6575
 2728SOL    MW410987   1.363   1.688   4.535  0.2459 -0.2184 -0.3366
 2729SOL     OW10988   2.250   2.224   4.530 -0.3564 -0.3944  0.1469
 2729SOL    HW210989   2.285   2.275   4.603  0.2492 -1.2533  0.4645
 2729SOL    HW310990   2.222   2.290   4.466  1.8714  0.3270 -0.1250
 2729SOL    MW410991   2.251   2.240   4.531  0.0172 -0.4122  0.1531
 2730SOL     OW10992   2.231   1.348   4.331 -0.4515  0.4448 -0.2796
 2730SOL    HW210993   2.285   1.353   4.410 -0.0678  1.8945 -0.6220
 2730SOL    HW310994   2.262   1.269   4.287  0.2750  0.3760  0.3305
 2730SOL    MW410995   2.242   1.338   4.336 -0.3052  0.6270 -0.2446
 2731SOL     OW10996   0.808   2.538   4.432  0.3176 -0.0652  0.2757
 2731SOL    HW210997   0.751   2.470   4.468  0.6891  0.5214  2.0201
 2731SOL    HW310998   0.840   2.501   4.350 -1.0008 -1.2102  0.2594
 2731SOL    MW410999   0.805   2.524   4.426  0.1927 -0.1390  0.5040
 2732SOL     OW11000   1.519   3.953   4.434  0.4281  0.2526 -0.2308
 2732SOL    HW211001   1.525   3.892   4.507 -3.0841  0.6757  0.4908
 2732SOL    HW311002   1.524   4.039   4.474 -0.8125  0.4797 -0.5411
 2732SOL    MW411003   1.520   3.956   4.449 -0.1991  0.3383 -0.1769
 2733SOL     OW11004   1.039   2.641   4.582  0.2615 -0.4383  0.2920
 2733SOL    HW211005   1.021   2.734   4.568 -1.7584 -0.2932  3.2373
 2733SOL    HW311006   0.970   2.596   4.533 -0.1770 -0.2783  0.7486
 2733SOL    MW411007   1.028   2.648   4.574 -0.0628 -0.3979  0.7405
 2734SOL     OW11008   1.768   2.432   4.545  0.2505 -0.5917  0.1683
 2734SOL    HW211009   1.704   2.482   4.595 -0.1455 -1.3039  0.3777
 2734SOL    HW311010   1.851   2.475   4.564 -0.1768  0.4198 -0.2068
 2734SOL    MW411011   1.770   2.444   4.554  0.1419 -0.5519  0.1464
 2735SOL     OW11012   1.599   3.264   4.458 -0.3365  0.4560  0.7450
 2735SOL    HW211013   1.660   3.260   4.385  0.1981  3.7727  0.9489
 2735SOL    HW311014   1.611   3.181   4.504  2.7312  0.3283 -0.2100
 2735SOL    MW411015   1.608   3.252   4.455  0.1389  0.8769  0.6456
 2736SOL     OW11016   1.746   3.866   4.820 -0.3176  0.1836 -0.3222
 2736SOL    HW211017   1.830   3.834   4.788 -0.3809 -0.1646 -0.1406
 2736SOL    HW311018   1.681   3.814   4.774 -0.3886 -1.3558  1.4364
 2736SOL    MW411019   1.748   3.855   4.810 -0.3355 -0.0656 -0.0663
 2737SOL     OW11020   0.586   3.983   4.671 -0.4704  0.1224  0.5380
 2737SOL    HW211021   0.646   4.046   4.632 -1.3643  0.7886  0.2119
 2737SOL    HW311022   0.635   3.944   4.743  0.5606  0.2111 -0.1018
 2737SOL    MW411023   0.600   3.986   4.675 -0.4523  0.2220  0.4110
 2738SOL     OW11024   1.981   3.541   4.514 -0.5015 -0.0501 -0.8704
 2738SOL    HW211025   2.000   3.579   4.428  1.8297  0.9115  0.0325
 2738SOL    HW311026   2.055   3.481   4.531 -1.1244 -0.5051  0.3064
 2738SOL    MW411027   1.993   3.538   4.505 -0.2761  0.0167 -0.5956
 2739SOL     OW11028   1.736   2.798   4.692 -0.5521 -0.2032  0.3149
 2739SOL    HW211029   1.821   2.790   4.648  0.1896 -0.0082  1.6819
 2739SOL    HW311030   1.758   2.813   4.784 -2.0839 -0.8948  0.8090
 2739SOL    MW411031   1.751   2.799   4.699 -0.6565 -0.2687  0.5603
 2740SOL     OW11032   2.425   3.535   4.505 -0.1339  0.2344  0.0631
 2740SOL    HW211033   2.388   3.601   4.564 -0.8048 -1.4436  1.5674
 2740SOL    HW311034   2.511   3.516   4.541  0.1708  0.4542 -0.5321
 2740SOL    MW411035   2.431   3.542   4.517 -0.1822  0.0420  0.1831
 2741SOL     OW11036   1.234   4.192   4.590  0.0643 -0.2478  0.4342
 2741SOL    HW211037   1.212   4.125   4.526 -0.1148  0.6923 -0.5111
 2741SOL    HW311038   1.329   4.201   4.583  0.3006 -1.5887  1.7715
 2741SOL    MW411039   1.244   4.185   4.580  0.0719 -0.3004  0.4859
 2742SOL     OW11040   1.944   4.305   4.817 -0.4136 -0.0228 -0.1032
 2742SOL    HW211041   2.015   4.249   4.786 -0.5373 -0.1689 -0.1248
 2742SOL    HW311042   1.966   4.325   4.908 -0.7634 -0.7474  0.1476
 2742SOL    MW411043   1.956   4.300   4.825 -0.4761 -0.1378 -0.0725
 2743SOL     OW11044   2.034   0.117   4.550 -0.0527  0.0010  0.3627
 2743SOL    HW211045   1.967   0.185   4.551  1.5745  1.6311  1.2562
 2743SOL    HW311046   1.985   0.035   4.538 -1.9640  1.3721 -1.4008
 2743SOL    MW411047   2.019   0.115   4.549 -0.0899  0.3970  0.2475
 2744SOL     OW11048   0.549   0.491   4.510 -0.1745 -0.1235 -0.1785
 2744SOL    HW211049   0.573   0.404   4.541  1.8312  0.6867  0.6894
 2744SOL    HW311050   0.583   0.496   4.421 -0.8159 -0.4325 -0.4416
 2744SOL    MW411051   0.557   0.481   4.503  0.0055 -0.0574 -0.0992
 2745SOL     OW11052   1.597   0.466   4.517  0.0597 -0.3023  0.2175
 2745SOL    HW211053   1.503   0.462   4.536 -0.0458  0.2362 -0.1768
 2745SOL    HW311054   1.624   0.552   4.551 -0.2137  0.8607 -2.4084
 2745SOL    MW411055   1.588   0.477   4.524  0.0095 -0.0778 -0.1812
 2746SOL     OW11056   2.300   0.129   4.498  0.0354 -0.2528  0.2427
 2746SOL    HW211057   2.289   0.116   4.404  2.0176  2.1311 -0.3678
 2746SOL    HW311058   2.212   0.128   4.534 -0.9950  2.0885 -2.1153
 2746SOL    MW411059   2.287   0.127   4.490  0.1609  0.3707 -0.1488
 2747SOL     OW11060   1.985   0.763   4.599  0.0356 -0.0503  0.3689
 2747SOL    HW211061   1.949   0.809   4.524 -0.8704 -0.0907  0.7706
 2747SOL    HW311062   1.964   0.819   4.674 -0.0035 -0.5254  0.7162
 2747SOL    MW411063   1.978   0.776   4.599 -0.0890 -0.1183  0.4678
 2748SOL     OW11064   1.592   0.808   4.558  0.5073 -0.3782 -0.1020
 2748SOL    HW211065   1.574   0.834   4.649  0.3003 -0.1240 -0.2156
 2748SOL    HW311066   1.507   0.782   4.523  0.4615  0.2264 -0.4470
 2748SOL    MW411067   1.579   0.808   4.565  0.4740 -0.2649 -0.1626
 2749SOL     OW11068   2.662   1.314   4.523  0.2899  0.0020  0.2347
 2749SOL    HW211069   2.690   1.250   4.457 -1.1481  0.8381 -1.2451
 2749SOL    HW311070   2.715   1.295   4.600  2.7545 -0.3545 -1.4917
 2749SOL    MW411071   2.672   1.303   4.524  0.4251  0.0653 -0.1884
 2750SOL     OW11072   1.059   1.767   4.529 -0.8966  0.3514  0.0922
 2750SOL    HW211073   1.154   1.753   4.530 -1.1103 -1.0927  1.2694
 2750SOL    HW311074   1.027   1.710   4.458 -0.7923  1.5952 -0.9796
 2750SOL    MW411075   1.067   1.758   4.520 -0.9111  0.3251  0.1063
 2751SOL     OW11076   1.744   1.174   4.719 -0.0026  0.4556 -0.5539
 2751SOL    HW211077   1.717   1.264   4.703  1.5774  0.8805 -0.9745
 2751SOL    HW311078   1.832   1.168   4.681  0.2402 -1.0311  0.1809
 2751SOL    MW411079   1.752   1.185   4.712  0.2378  0.3154 -0.5131
 2752SOL     OW11080   1.625   1.418   4.608  0.3584  0.3796  0.1927
 2752SOL    HW211081   1.564   1.491   4.624 -1.3642 -1.1043  0.5611
 2752SOL    HW311082   1.702   1.460   4.569 -0.8919  2.3048 -0.3058
 2752SOL    MW411083   1.627   1.433   4.605 -0.0337  0.4379  0.1755
 2753SOL     OW11084   1.819   1.969   4.453 -0.2956 -0.0310 -0.6420
 2753SOL    HW211085   1.893   1.913   4.474 -0.1831 -0.1825 -1.4133
 2753SOL    HW311086   1.833   2.048   4.504 -0.8265 -0.9724  1.0123
 2753SOL    MW411087   1.830   1.972   4.462 -0.3508 -0.1751 -0.5260
 2754SOL     OW11088   2.041   1.826   4.535  0.1841 -0.2846 -0.1969
 2754SOL    HW211089   2.096   1.768   4.483  0.9965  0.6598 -0.4171
 2754SOL    HW311090   2.100   1.861   4.603 -0.1524  0.6758 -0.3869
 2754SOL    MW411091   2.056   1.823   4.537  0.2470 -0.0333 -0.2508
 2755SOL     OW11092   1.906   2.193   4.595 -0.2706  0.2731 -0.3637
 2755SOL    HW211093   1.849   2.270   4.592  0.1576  0.5411 -1.7341
 2755SOL    HW311094   1.982   2.216   4.542  0.5863 -0.5240  0.4794
 2755SOL    MW411095   1.909   2.206   4.588 -0.1011  0.2034 -0.4330
 2756SOL     OW11096   2.206   1.986   4.691  0.2475 -0.0263  0.0664
 2756SOL    HW211097   2.215   2.032   4.607 -0.9721 -2.5209 -1.5147
 2756SOL    HW311098   2.294   1.985   4.727  0.6586  1.7373 -0.8062
 2756SOL    MW411099   2.219   1.992   4.685  0.1411 -0.1227 -0.2575
 2757SOL     OW11100   1.957   2.821   4.499 -0.0780  0.5311  0.1380
 2757SOL    HW211101   2.005   2.875   4.562  0.3071  1.6122 -1.0784
 2757SOL    HW311102   1.977   2.731   4.524  0.3221  0.9552  1.3710
 2757SOL    MW411103   1.966   2.817   4.511  0.0257  0.7293  0.1397
 2758SOL     OW11104   1.757   4.122   4.711  0.0663  0.1959  0.4073
 2758SOL    HW211105   1.797   4.196   4.756  0.1870  0.1530  0.3721
 2758SOL    HW311106   1.758   4.051   4.775  0.4203  0.0765  0.2729
 2758SOL    MW411107   1.762   4.122   4.725  0.1289  0.1745  0.3843
 2759SOL     OW11108   2.210   3.375   4.526 -0.3152 -0.6905 -0.6040
 2759SOL    HW211109   2.217   3.343   4.436  0.6738  1.3346 -1.2750
 2759SOL    HW311110   2.280   3.440   4.533 -1.8939  0.8747  0.8953
 2759SOL    MW411111   2.220   3.379   4.515 -0.3929 -0.2170 -0.4945
 2760SOL     OW11112   2.683   3.380   4.848  0.0287  0.0916  0.0746
 2760SOL    HW211113   2.723   3.294   4.843  1.2348  0.5703  1.4008
 2760SOL    HW311114   2.673   3.397   4.941 -2.8760  0.1697 -0.2010
 2760SOL    MW411115   2.687   3.371   4.859 -0.1955  0.1652  0.2131
 2761SOL     OW11116   2.805   3.121   4.805 -0.1723 -0.5585 -0.0976
 2761SOL    HW211117   2.897   3.130   4.826 -0.0928  0.0595 -0.7052
 2761SOL    HW311118   2.793   3.027   4.788 -0.0991 -0.9680  1.9820
 2761SOL    MW411119   2.815   3.110   4.806 -0.1519 -0.5307  0.0968
 2762SOL     OW11120   2.312   3.726   4.681 -0.3084 -0.2402 -0.5901
 2762SOL    HW211121   2.339   3.671   4.755 -0.6368  1.1608  0.6076
 2762SOL    HW311122   2.218   3.738   4.694 -0.3801 -0.0292 -1.2875
 2762SOL    MW411123   2.303   3.720   4.693 -0.3614 -0.0277 -0.5240
 2763SOL     OW11124   2.397   4.405   4.499  0.2131  0.3068  0.3570
 2763SOL    HW211125   2.422   4.495   4.523  0.0669  0.7594 -1.1505
 2763SOL    HW311126   2.427   4.395   4.409  1.1187 -1.5113  0.8417
 2763SOL    MW411127   2.404   4.416   4.491  0.3130  0.1264  0.2217
 2764SOL     OW11128   1.916   3.967   4.520  0.0319 -0.7302 -0.2657
 2764SOL    HW211129   1.878   3.949   4.435 -0.3235  0.1837 -0.3102
 2764SOL    HW311130   1.849   4.016   4.567  1.0842  0.7871 -0.3023
 2764SOL    MW411131   1.902   3.971   4.515  0.1239 -0.4094 -0.2766
 2765SOL     OW11132   2.381   4.011   4.597  0.7703  0.1323 -0.1647
 2765SOL    HW211133   2.355   4.000   4.505 -1.2948  0.2349  0.3834
 2765SOL    HW311134   2.367   3.924   4.636 -0.1647  0.5619  0.4756
 2765SOL    MW411135   2.376   3.998   4.590  0.3748  0.2027 -0.0076
 2766SOL     OW11136   1.378   4.609   4.411 -0.5178  0.2158 -0.3731
 2766SOL    HW211137   1.464   4.568   4.420 -0.4903  0.3294 -0.1033
 2766SOL    HW311138   1.319   4.537   4.392 -0.3280  0.1650 -0.7707
 2766SOL    MW411139   1.382   4.594   4.410 -0.4891  0.2246 -0.3901
 2767SOL     OW11140   1.902   4.512   4.568 -0.5179 -0.2569 -0.0804
 2767SOL    HW211141   1.895   4.503   4.663 -0.3953  0.8664  0.0455
 2767SOL    HW311142   1.982   4.464   4.545 -0.5499 -0.5331  0.3855
 2767SOL    MW411143   1.912   4.504   4.578 -0.5059 -0.1454 -0.0024
 2768SOL     OW11144   2.120   4.355   4.501 -0.4013  0.1014 -0.3681
 2768SOL    HW211145   2.214   4.371   4.507 -0.6982  1.5155  0.8367
 2768SOL    HW311146   2.106   4.275   4.551 -0.0402  0.7191  0.7373
 2768SOL    MW411147   2.131   4.346   4.508 -0.3929  0.3691 -0.0629
 2769SOL     OW11148   0.911   1.389   4.529 -0.4430  0.8698  0.6990
 2769SOL    HW211149   0.968   1.316   4.554 -1.2749 -0.0538 -0.0791
 2769SOL    HW311150   0.824   1.351   4.523 -0.4961  1.2994 -2.3482
 2769SOL    MW411151   0.907   1.375   4.531 -0.5597  0.8045  0.1945
 2770SOL     OW11152   2.545   0.006   4.532 -0.0440  0.0706 -0.0622
 2770SOL    HW211153   2.464   0.054   4.544 -0.8190 -1.3888  0.6056
 2770SOL    HW311154   2.580   0.037   4.448 -1.1020  0.9630 -0.1655
 2770SOL    MW411155   2.539   0.016   4.522 -0.2856 -0.0043  0.0129
 2771SOL     OW11156   2.020   0.490   4.500 -0.7051 -0.1114 -0.3030
 2771SOL    HW211157   2.029   0.566   4.558 -2.0413  0.0902 -0.3221
 2771SOL    HW311158   2.102   0.442   4.510 -0.3624  0.6503  0.7043
 2771SOL    MW411159   2.032   0.494   4.509 -0.8364  0.0156 -0.1726
 2772SOL     OW11160   2.992   0.501   4.547 -0.0996  0.2296 -0.4349
 2772SOL    HW211161   2.963   0.499   4.455 -1.1513 -0.3477 -0.0974
 2772SOL    HW311162   3.087   0.513   4.542  0.2320 -2.6186 -1.6739
 2772SOL    MW411163   3.001   0.503   4.534 -0.1945 -0.2223 -0.5536
 2773SOL     OW11164   2.769   1.645   4.758  0.6508 -0.2010 -0.3180
 2773SOL    HW211165   2.761   1.738   4.779 -3.1659 -0.7252  1.0272
 2773SOL    HW311166   2.771   1.642   4.662 -1.1068  1.1751 -0.4168
 2773SOL    MW411167   2.768   1.657   4.748 -0.0849 -0.0886 -0.1535
 2774SOL     OW11168   2.698   1.608   4.482 -0.4390 -0.2979  0.4374
 2774SOL    HW211169   2.684   1.514   4.495 -1.6551 -0.1752  0.0781
 2774SOL    HW311170   2.705   1.618   4.387  1.2070 -0.2161  0.5472
 2774SOL    MW411171   2.697   1.597   4.471 -0.3822 -0.2710  0.4039
 2775SOL     OW11172   2.801   1.933   4.776  0.1511  0.1149  0.0965
 2775SOL    HW211173   2.818   2.004   4.839 -2.0208 -1.7341  2.8803
 2775SOL    HW311174   2.721   1.960   4.731 -0.9234 -0.7360  1.4666
 2775SOL    MW411175   2.793   1.946   4.778 -0.2773 -0.2413  0.6442
 2776SOL     OW11176   3.042   1.712   4.834  0.0366  0.3214  0.0852
 2776SOL    HW211177   3.099   1.635   4.842  0.8799  1.0179  0.8133
 2776SOL    HW311178   2.958   1.676   4.804  1.1457 -0.5924 -2.0075
 2776SOL    MW411179   3.039   1.697   4.831  0.2944  0.2928 -0.0944
 2777SOL     OW11180   2.536   1.987   4.679 -0.1761  0.0579  0.3516
 2777SOL    HW211181   2.552   2.025   4.593  1.1307 -1.0605  0.0862
 2777SOL    HW311182   2.546   2.060   4.740  2.0667  0.1989 -0.1625
 2777SOL    MW411183   2.539   2.002   4.676  0.2923 -0.0710  0.2489
 2778SOL     OW11184   2.076   2.310   4.781 -0.5319 -0.2811 -0.1157
 2778SOL    HW211185   2.145   2.259   4.822 -1.0116  0.2328  1.3812
 2778SOL    HW311186   2.014   2.245   4.748  0.7233 -0.7492 -1.6137
 2778SOL    MW411187   2.077   2.295   4.782 -0.4299 -0.2754 -0.1159
 2779SOL     OW11188   2.916   2.825   4.940  0.0104 -0.0931  0.2896
 2779SOL    HW211189   3.010   2.812   4.937  0.1833  1.1275  0.1065
 2779SOL    HW311190   2.905   2.915   4.972 -1.0802 -0.1907  0.2195
 2779SOL    MW411191   2.927   2.836   4.944 -0.1109  0.0551  0.2565
 2780SOL     OW11192   2.031   2.534   4.613 -0.1528  0.5695 -0.0982
 2780SOL    HW211193   2.065   2.491   4.534  1.2507  2.6768 -0.6594
 2780SOL    HW311194   2.039   2.467   4.681  0.2057 -0.7146 -1.3603
 2780SOL    MW411195   2.036   2.519   4.611  0.0796  0.6783 -0.3386
 2781SOL     OW11196   2.104   2.950   4.721  0.0570  0.2529  0.1572
 2781SOL    HW211197   2.170   2.882   4.727  0.8187  0.7604 -2.0334
 2781SOL    HW311198   2.149   3.030   4.748  0.1788  0.4705 -0.6486
 2781SOL    MW411199   2.119   2.952   4.725  0.1738  0.3488 -0.2379
 2782SOL     OW11200   2.247   2.762   4.072 -0.0188 -0.2136  0.3689
 2782SOL    HW211201   2.287   2.682   4.106  2.5845  1.3053  1.0173
 2782SOL    HW311202   2.175   2.780   4.132  0.9386 -0.7210  1.6971
 2782SOL    MW411203   2.243   2.754   4.084  0.4511 -0.0803  0.6294
 2783SOL     OW11204   2.682   3.425   4.567  0.0265 -0.6897 -0.1336
 2783SOL    HW211205   2.714   3.341   4.535  0.0381 -0.7742  0.0996
 2783SOL    HW311206   2.676   3.414   4.661  3.0409  0.6076  0.2642
 2783SOL    MW411207   2.685   3.413   4.575  0.4258 -0.5300 -0.0501
 2784SOL     OW11208   1.559   3.741   4.643  0.8227  0.2565 -0.2567
 2784SOL    HW211209   1.588   3.660   4.603  0.3871 -0.3091  0.5605
 2784SOL    HW311210   1.470   3.722   4.674  0.5151  1.2023 -0.5279
 2784SOL    MW411211   1.551   3.728   4.642  0.7247  0.3066 -0.1845
 2785SOL     OW11212   2.691   4.506   4.698 -0.2456 -0.5122 -0.1536
 2785SOL    HW211213   2.644   4.575   4.651  1.5570  0.1729 -0.9879
 2785SOL    HW311214   2.627   4.435   4.704 -1.7401  0.7699 -0.3373
 2785SOL    MW411215   2.676   4.506   4.692 -0.2048 -0.2532 -0.2885
 2786SOL     OW11216   2.783   4.093   4.567 -0.2478 -0.1389 -0.3285
 2786SOL    HW211217   2.747   4.043   4.493  0.2007 -1.2996  0.2182
 2786SOL    HW311218   2.707   4.132   4.609 -0.6921 -1.0758 -0.2596
 2786SOL    MW411219   2.768   4.091   4.563 -0.2470 -0.4153 -0.2475
 2787SOL     OW11220   3.710   3.845   4.494 -0.2011  0.2424 -0.9159
 2787SOL    HW211221   3.731   3.789   4.418 -0.1561  0.3474 -0.9804
 2787SOL    HW311222   3.789   3.841   4.548 -1.2703 -2.1409  0.5434
 2787SOL    MW411223   3.723   3.837   4.491 -0.3362 -0.0582 -0.7319
 2788SOL     OW11224   3.015   3.853   4.583 -0.2964 -0.1348  0.0225
 2788SOL    HW211225   2.954   3.925   4.600 -0.2198  0.5158 -2.3045
 2788SOL    HW311226   2.959   3.778   4.562 -0.3390  0.0346 -0.4843
 2788SOL    MW411227   3.000   3.853   4.583 -0.2918 -0.0265 -0.3510
 2789SOL     OW11228   2.036   3.766   4.676  0.5257  0.2364 -0.2022
 2789SOL    HW211229   1.999   3.832   4.617  0.4078  0.7819  0.4759
 2789SOL    HW311230   2.020   3.683   4.632 -1.3933  0.4822  0.0110
 2789SOL    MW411231   2.029   3.764   4.663  0.2570  0.3409 -0.0854
 2790SOL     OW11232   2.536   4.244   4.663  0.3765  0.0495  0.0142
 2790SOL    HW211233   2.496   4.157   4.664 -0.9891  0.6647  0.5791
 2790SOL    HW311234   2.478   4.296   4.608  0.8019  0.7857  0.2571
 2790SOL    MW411235   2.523   4.239   4.656  0.2525  0.2279  0.1211
 2791SOL     OW11236   3.275   0.815   4.610 -0.0171  0.2518  0.0380
 2791SOL    HW211237   3.278   0.823   4.705 -0.0121  0.0072  0.0602
 2791SOL    HW311238   3.359   0.848   4.579 -0.6188  1.7785  0.0065
 2791SOL    MW411239   3.286   0.820   4.618 -0.0958  0.4209  0.0367
 2792SOL     OW11240   2.917   0.013   4.699  0.5080  0.1065  0.0675
 2792SOL    HW211241   2.932   0.025   4.793  0.2084  0.4832  0.0665
 2792SOL    HW311242   2.848  -0.053   4.694  0.4276  0.1871  0.1146
 2792SOL    MW411243   2.910   0.006   4.711  0.4575  0.1668  0.0739
 2793SOL     OW11244   3.069   0.239   4.618 -0.2911  0.0612 -0.0551
 2793SOL    HW211245   2.986   0.196   4.638 -0.6319 -0.0414 -1.5645
 2793SOL    HW311246   3.044   0.327   4.589  0.3123  0.8700  1.8434
 2793SOL    MW411247   3.055   0.245   4.617 -0.2563  0.1544 -0.0033
 2794SOL     OW11248   2.848   0.951   4.601  0.7223 -0.6125  0.2597
 2794SOL    HW211249   2.935   0.954   4.562  0.7956 -0.3735  0.4399
 2794SOL    HW311250   2.789   0.935   4.527  0.4411  3.7741 -0.6063
 2794SOL    MW411251   2.852   0.950   4.586  0.6948 -0.0022  0.1688
 2795SOL     OW11252   3.970   4.041   4.687 -0.3596  0.3258 -0.1614
 2795SOL    HW211253   4.030   4.009   4.755  0.1147 -2.7569 -1.9554
 2795SOL    HW311254   3.883   4.023   4.722 -0.1591  0.6781  0.5268
 2795SOL    MW411255   3.966   4.034   4.701 -0.2704 -0.0343 -0.3071
 2796SOL     OW11256   2.290   0.414   4.527 -0.2451  0.4204  0.1267
 2796SOL    HW211257   2.366   0.452   4.572  0.7270  0.2843 -1.3723
 2796SOL    HW311258   2.314   0.322   4.513 -1.1468  0.1057  0.6297
 2796SOL    MW411259   2.303   0.407   4.531 -0.2358  0.3609 -0.0048
 2797SOL     OW11260   3.113   1.260   4.650  0.0883  0.3038 -0.5147
 2797SOL    HW211261   3.102   1.331   4.586 -0.7305 -0.6513 -1.4514
 2797SOL    HW311262   3.024   1.235   4.674  0.3509 -0.9073 -0.7569
 2797SOL    MW411263   3.100   1.266   4.645  0.0153  0.0181 -0.6700
 2798SOL     OW11264   3.110   1.497   4.466  0.3913 -0.2281 -0.0399
 2798SOL    HW211265   3.066   1.580   4.485  0.3175 -0.5933  1.4640
 2798SOL    HW311266   3.047   1.448   4.413  0.0420  0.2840 -0.1037
 2798SOL    MW411267   3.095   1.501   4.462  0.3352 -0.2086  0.1497
 2799SOL     OW11268   3.193   1.475   4.845 -0.0011 -0.3308  0.2333
 2799SOL    HW211269   3.277   1.510   4.817 -0.4542 -0.0576 -0.8136
 2799SOL    HW311270   3.182   1.395   4.794 -0.6014 -0.1022 -0.0067
 2799SOL    MW411271   3.203   1.469   4.834 -0.1402 -0.2646  0.0639
 2800SOL     OW11272   2.448   1.665   4.604 -0.0812  0.0406 -0.1875
 2800SOL    HW211273   2.474   1.749   4.640 -0.3580 -0.0655  0.2705
 2800SOL    HW311274   2.528   1.629   4.565  0.0488  0.4852 -0.3294
 2800SOL    MW411275   2.462   1.671   4.604 -0.1006  0.0852 -0.1464
 2801SOL     OW11276   2.385   2.038   4.359 -0.0475 -0.1487 -0.3809
 2801SOL    HW211277   2.378   2.111   4.421 -0.0983  0.4252 -1.0662
 2801SOL    HW311278   2.472   2.002   4.374 -0.7949 -1.2887  1.4483
 2801SOL    MW411279   2.395   2.043   4.369 -0.1528 -0.2232 -0.2303
 2802SOL     OW11280   3.440   2.030   4.420 -0.0354 -0.9665  0.2321
 2802SOL    HW211281   3.438   2.125   4.433 -1.3015 -1.0521  0.7489
 2802SOL    HW311282   3.448   2.019   4.325  2.2639 -0.3463  0.3359
 2802SOL    MW411283   3.441   2.041   4.409  0.1009 -0.8965  0.3138
 2803SOL     OW11284   3.021   3.066   4.475  0.1637  0.2636 -0.3607
 2803SOL    HW211285   3.080   3.091   4.403  0.1063  1.2213 -0.0886
 2803SOL    HW311286   3.077   3.021   4.538  0.3996  0.2265 -0.5988
 2803SOL    MW411287   3.036   3.064   4.474  0.1872  0.3850 -0.3562
 2804SOL     OW11288   2.137   2.428   4.371 -0.6201 -0.0279  0.5632
 2804SOL    HW211289   2.066   2.396   4.315 -0.1672 -1.0713  0.5850
 2804SOL    HW311290   2.208   2.450   4.310 -0.1272 -1.1630  0.7188
 2804SOL    MW411291   2.137   2.427   4.356 -0.4952 -0.3152  0.5865
 2805SOL     OW11292   3.136   3.319   4.638  0.2100  0.3713 -0.3791
 2805SOL    HW211293   3.118   3.232   4.601 -0.5174  0.0598  0.6546
 2805SOL    HW311294   3.229   3.316   4.662  0.2265 -0.0659 -0.4889
 2805SOL    MW411295   3.146   3.307   4.636  0.1161  0.2728 -0.2575
 2806SOL     OW11296   2.757   3.163   4.452 -0.0053  0.5619  0.3055
 2806SOL    HW211297   2.845   3.131   4.474 -0.0723  0.2523  0.1298
 2806SOL    HW311298   2.762   3.185   4.359 -0.1688  0.3604  0.2488
 2806SOL    MW411299   2.769   3.162   4.443 -0.0360  0.4945  0.2751
 2807SOL     OW11300   3.103   3.495   4.424  0.3859  0.2036  0.4449
 2807SOL    HW211301   3.115   3.466   4.334 -1.4432  0.0170  0.2442
 2807SOL    HW311302   3.107   3.415   4.476 -0.1085  0.1154  0.3550
 2807SOL    MW411303   3.105   3.481   4.419  0.0794  0.1674  0.4063
 2808SOL     OW11304   2.466   3.136   4.307 -0.1957  0.0133 -0.0934
 2808SOL    HW211305   2.389   3.192   4.303  0.0919  0.3799 -0.5584
 2808SOL    HW311306   2.483   3.124   4.401 -0.7286  0.0463  0.0074
 2808SOL    MW411307   2.458   3.142   4.319 -0.2279  0.0658 -0.1411
 2809SOL     OW11308   2.879   3.633   4.490  0.0004 -0.1904  0.4793
 2809SOL    HW211309   2.809   3.574   4.516  0.0561 -0.6529 -0.4311
 2809SOL    HW311310   2.955   3.576   4.475  0.1521  0.1419 -0.0389
 2809SOL    MW411311   2.880   3.618   4.492  0.0279 -0.2074  0.2909
 2810SOL     OW11312   3.305   3.852   4.579  0.4527  0.0252  0.1675
 2810SOL    HW211313   3.213   3.862   4.603  0.8390  1.6112  1.1266
 2810SOL    HW311314   3.312   3.764   4.543 -1.3345 -0.2943  0.5741
 2810SOL    MW411315   3.294   3.842   4.578  0.2677  0.1922  0.3476
 2811SOL     OW11316   4.000   3.377   4.663 -0.5806 -0.3202  0.2776
 2811SOL    HW211317   4.075   3.336   4.620  0.2503  1.2392  0.1898
 2811SOL    HW311318   3.955   3.305   4.708  1.1671 -1.2194  0.6203
 2811SOL    MW411319   4.004   3.362   4.664 -0.2408 -0.2332  0.3109
 2812SOL     OW11320   3.359   3.594   4.472 -0.0088  0.3106 -0.4700
 2812SOL    HW211321   3.266   3.569   4.470 -0.0610  0.4782 -0.1220
 2812SOL    HW311322   3.406   3.512   4.475 -0.1172  0.1894 -1.8011
 2812SOL    MW411323   3.353   3.580   4.472 -0.0300  0.3169 -0.5994
 2813SOL     OW11324   2.414   3.469   4.800  0.0804  0.3136 -0.4142
 2813SOL    HW211325   2.507   3.447   4.801 -0.0126 -0.1381 -1.3072
 2813SOL    HW311326   2.370   3.385   4.788 -0.4086  0.6084 -0.7060
 2813SOL    MW411327   2.420   3.455   4.798  0.0033  0.2928 -0.5703
 2814SOL     OW11328   2.859   4.366   4.493  0.3006 -0.0849  0.0021
 2814SOL    HW211329   2.859   4.275   4.521 -1.1042 -1.2054 -3.3756
 2814SOL    HW311330   2.798   4.409   4.552 -0.3967 -1.7124  0.4911
 2814SOL    MW411331   2.851   4.360   4.504  0.0234 -0.4473 -0.3786
 2815SOL     OW11332   3.260   0.541   4.565  0.3199  0.2092 -0.7244
 2815SOL    HW211333   3.300   0.545   4.479 -0.1892  1.0593 -0.9350
 2815SOL    HW311334   3.259   0.632   4.595  0.4664 -0.0721  0.1631
 2815SOL    MW411335   3.265   0.554   4.558  0.2718  0.2843 -0.6347
 2816SOL     OW11336   2.509   0.603   4.593  0.1172 -0.2556 -0.1795
 2816SOL    HW211337   2.593   0.646   4.612  0.7651 -1.6443  0.2691
 2816SOL    HW311338   2.443   0.668   4.613  1.0834  0.6389  0.1532
 2816SOL    MW411339   2.512   0.617   4.598  0.3300 -0.3208 -0.0763
 2817SOL     OW11340   2.843   1.205   4.717 -0.2269 -0.4433  0.3108
 2817SOL    HW211341   2.846   1.113   4.690  2.3434 -0.5235  0.8063
 2817SOL    HW311342   2.790   1.205   4.796  1.3963 -1.8087  1.4218
 2817SOL    MW411343   2.836   1.193   4.724  0.3264 -0.6341  0.5226
 2818SOL     OW11344   2.791   0.685   4.602 -0.5455 -0.5666 -0.2210
 2818SOL    HW211345   2.870   0.631   4.601  0.5635  1.0117 -0.4508
 2818SOL    HW311346   2.824   0.775   4.604 -2.3387  0.0994  0.9338
 2818SOL    MW411347   2.806   0.690   4.602 -0.6361 -0.2705 -0.0987
 2819SOL     OW11348   3.518   0.938   4.527  0.0895  0.2303 -0.2036
 2819SOL    HW211349   3.592   0.897   4.573 -0.9031  0.1850  1.3807
 2819SOL    HW311350   3.530   0.913   4.436 -0.1241 -3.0375  0.6097
 2819SOL    MW411351   3.530   0.930   4.521 -0.0696 -0.2068  0.1125
 2820SOL     OW11352   3.399   1.492   4.601 -0.8349 -0.0618  0.2393
 2820SOL    HW211353   3.319   1.489   4.548 -0.4848  0.2009 -0.3169
 2820SOL    HW311354   3.418   1.400   4.620 -0.2988 -0.2558 -1.1269
 2820SOL    MW411355   3.391   1.480   4.596 -0.7181 -0.0527 -0.0143
 2821SOL     OW11356   2.978   2.796   4.637 -0.3368  0.2860 -0.1999
 2821SOL    HW211357   3.050   2.855   4.661  1.2505 -1.7944  0.2346
 2821SOL    HW311358   2.913   2.809   4.706  1.2332 -0.5323  1.4702
 2821SOL    MW411359   2.979   2.806   4.649  0.0799 -0.0966  0.0777
 2822SOL     OW11360   3.517   1.219   4.555  0.0527 -0.6494 -0.1684
 2822SOL    HW211361   3.535   1.126   4.572 -1.3088 -0.7925  0.5706
 2822SOL    HW311362   3.602   1.262   4.561  0.4373 -1.5808  1.2929
 2822SOL    MW411363   3.531   1.212   4.558 -0.0761 -0.7913  0.1216
 2823SOL     OW11364   3.874   1.582   4.494  0.3558  0.0641 -0.0937
 2823SOL    HW211365   3.926   1.639   4.551  1.2167  0.7866 -1.6027
 2823SOL    HW311366   3.783   1.606   4.513  0.5601 -0.6237  1.9385
 2823SOL    MW411367   3.868   1.593   4.504  0.4966  0.0688 -0.0238
 2824SOL     OW11368   3.591   1.668   4.516 -0.0849 -0.1062 -0.2682
 2824SOL    HW211369   3.513   1.620   4.543 -0.2320  0.9724  1.3399
 2824SOL    HW311370   3.589   1.748   4.569  1.7760  0.2203 -0.6584
 2824SOL    MW411371   3.581   1.672   4.527  0.1409  0.0792 -0.1073
 2825SOL     OW11372   3.178   1.739   4.235  0.1814  0.0830  0.1176
 2825SOL    HW211373   3.161   1.729   4.329  0.8993  2.3056  0.5267
 2825SOL    HW311374   3.166   1.833   4.219  1.0006 -0.1222 -1.8236
 2825SOL    MW411375   3.174   1.750   4.245  0.3843  0.3490 -0.0839
 2826SOL     OW11376   3.710   2.347   4.600 -0.2655 -0.0765 -0.2017
 2826SOL    HW211377   3.704   2.343   4.696 -1.8578  1.5629 -0.2039
 2826SOL    HW311378   3.761   2.427   4.583 -4.0688  2.3676 -0.7515
 2826SOL    MW411379   3.716   2.357   4.611 -0.9773  0.4623 -0.2747
 2827SOL     OW11380   3.056   3.168   4.862  0.1817  0.3592 -0.5315
 2827SOL    HW211381   3.113   3.107   4.815  1.4433  1.6677 -0.7361
 2827SOL    HW311382   3.070   3.252   4.819  0.2497  1.2851  1.2467
 2827SOL    MW411383   3.065   3.171   4.850  0.3572  0.6542 -0.3242
 2828SOL     OW11384   3.567   2.978   4.356  0.4992 -0.0491 -0.9060
 2828SOL    HW211385   3.481   2.988   4.397  0.9652  2.4957 -0.5072
 2828SOL    HW311386   3.629   2.989   4.428  1.2024 -1.2995 -1.3045
 2828SOL    MW411387   3.564   2.981   4.371  0.6535  0.1216 -0.9065
 2829SOL     OW11388   3.210   2.799   4.324 -0.0044 -0.4208 -0.0394
 2829SOL    HW211389   3.115   2.813   4.324  0.0086 -0.3360  0.2632
 2829SOL    HW311390   3.244   2.861   4.388  0.4127  0.6053 -1.2370
 2829SOL    MW411391   3.202   2.809   4.332  0.0525 -0.2744 -0.1574
 2830SOL     OW11392   3.576   3.057   4.916 -0.4028 -0.0401 -0.1437
 2830SOL    HW211393   3.516   3.075   4.988  0.7553 -1.5045  1.2303
 2830SOL    HW311394   3.520   3.030   4.843 -1.4301 -1.1496  1.0381
 2830SOL    MW411395   3.561   3.056   4.916 -0.3855 -0.3798  0.1941
 2831SOL     OW11396   3.396   3.279   4.688 -0.3493 -0.1581 -0.2447
 2831SOL    HW211397   3.392   3.187   4.714  2.0105  0.2618  1.7267
 2831SOL    HW311398   3.440   3.279   4.603 -0.0444 -0.8204 -0.0832
 2831SOL    MW411399   3.401   3.267   4.680  0.0024 -0.1903  0.0372
 2832SOL     OW11400   3.447   2.641   4.954  0.8302  0.2796  0.6655
 2832SOL    HW211401   3.365   2.690   4.956  1.4336  1.4008 -1.0077
 2832SOL    HW311402   3.463   2.623   4.861  1.3796 -1.8211  1.1408
 2832SOL    MW411403   3.438   2.645   4.942  0.9823  0.1504  0.5074
 2833SOL     OW11404   3.837   2.541   4.905 -0.2225  0.1932 -0.0982
 2833SOL    HW211405   3.770   2.609   4.906  0.0547  0.4555  0.8313
 2833SOL    HW311406   3.788   2.459   4.918 -0.5057  0.2532 -0.7682
 2833SOL    MW411407   3.821   2.539   4.907 -0.2234  0.2356 -0.0639
 2834SOL     OW11408   3.809   3.481   4.501 -0.2985  0.0410 -0.2284
 2834SOL    HW211409   3.882   3.436   4.544 -0.5245 -1.0312 -0.9435
 2834SOL    HW311410   3.737   3.475   4.564 -1.0357 -2.7183 -1.2267
 2834SOL    MW411411   3.809   3.474   4.515 -0.4256 -0.4644 -0.4539
 2835SOL     OW11412   3.494   4.019   4.444  0.7635 -0.4186  0.1496
 2835SOL    HW211413   3.566   3.960   4.464  0.2183 -1.1379  0.0176
 2835SOL    HW311414   3.415   3.968   4.464  0.2876  0.2433 -0.0157
 2835SOL    MW411415   3.493   4.005   4.449  0.6289 -0.4263  0.1106
 2836SOL     OW11416   3.113   4.497   4.605  0.3523  0.6803  0.2758
 2836SOL    HW211417   3.056   4.472   4.532 -1.2403  0.5043  1.5779
 2836SOL    HW311418   3.060   4.554   4.660 -0.0889 -2.8027  3.7321
 2836SOL    MW411419   3.099   4.501   4.602  0.0842  0.1969  0.9036
 2837SOL     OW11420   3.541   3.782   4.703  0.1601  0.1901  0.1131
 2837SOL    HW211421   3.448   3.803   4.699  0.1290  0.0239 -0.0218
 2837SOL    HW311422   3.575   3.804   4.616 -0.1150 -1.4711 -0.4283
 2837SOL    MW411423   3.533   3.787   4.691  0.1197 -0.0510  0.0238
 2838SOL     OW11424   3.540   4.227   4.638  0.4750 -0.1736  0.1344
 2838SOL    HW211425   3.501   4.166   4.575 -2.3492  1.1856  0.4705
 2838SOL    HW311426   3.611   4.269   4.589  0.5546 -1.6007 -1.0323
 2838SOL    MW411427   3.544   4.225   4.623  0.1128 -0.1826  0.0248
 2839SOL     OW11428   3.712   4.002   4.773 -0.1447 -0.3863  0.2676
 2839SOL    HW211429   3.660   3.923   4.789 -1.4195  0.7804  2.0645
 2839SOL    HW311430   3.649   4.064   4.737  0.4319  0.4398  0.6827
 2839SOL    MW411431   3.697   3.999   4.770 -0.2367 -0.1233  0.5593
 2840SOL     OW11432   3.266   0.073   4.520 -0.4410 -0.0004 -0.2204
 2840SOL    HW211433   3.196   0.120   4.566 -0.4874 -0.7184  0.4522
 2840SOL    HW311434   3.250  -0.019   4.539 -0.0308 -0.2554 -1.0920
 2840SOL    MW411435   3.255   0.067   4.529 -0.3932 -0.1288 -0.2470
 2841SOL     OW11436   3.111   1.002   4.511 -0.0636 -0.1362  0.3025
 2841SOL    HW211437   3.133   1.085   4.551 -0.5700  0.8089 -1.3160
 2841SOL    HW311438   3.169   0.938   4.553  1.5062  1.3038  0.3700
 2841SOL    MW411439   3.122   1.004   4.521  0.0765  0.1785  0.0982
 2842SOL     OW11440   3.723   0.810   4.664  0.3073  0.0113 -0.0198
 2842SOL    HW211441   3.760   0.759   4.736  0.4349 -0.8524 -0.6798
 2842SOL    HW311442   3.791   0.874   4.643  0.9822 -0.8279 -0.4686
 2842SOL    MW411443   3.737   0.811   4.670  0.4132 -0.2134 -0.1664
 2843SOL     OW11444   4.070   1.227   4.624 -0.4092 -0.0914 -0.0177
 2843SOL    HW211445   4.102   1.306   4.667 -1.0498  0.4468 -0.5126
 2843SOL    HW311446   3.986   1.253   4.586 -0.1768 -0.7484 -0.9885
 2843SOL    MW411447   4.063   1.241   4.625 -0.4635 -0.1069 -0.2112
 2844SOL     OW11448   3.544   1.922   4.692 -0.2957  0.1676 -0.4278
 2844SOL    HW211449   3.556   1.980   4.616 -2.8952  0.0390 -0.9835
 2844SOL    HW311450   3.483   1.969   4.748 -1.0900 -1.2728 -0.0616
 2844SOL    MW411451   3.538   1.936   4.689 -0.7434 -0.0395 -0.4530
 2845SOL     OW11452   0.110   0.852   4.819  0.3587  0.1813 -0.0874
 2845SOL    HW211453   0.125   0.795   4.894 -0.2524  0.5263  0.2999
 2845SOL    HW311454   0.179   0.828   4.757  0.5500 -0.4657  0.3681
 2845SOL    MW411455   0.121   0.841   4.821  0.3033  0.1414  0.0243
 2846SOL     OW11456   4.021   0.215   4.654 -0.0799  0.0441 -0.0667
 2846SOL    HW211457   4.010   0.308   4.632  0.2082  0.2264  0.5568
 2846SOL    HW311458   3.940   0.192   4.700 -0.0289  0.0573  0.0282
 2846SOL    MW411459   4.009   0.224   4.657 -0.0353  0.0699  0.0286
 2847SOL     OW11460   3.870   2.102   4.534 -0.1100 -0.1850 -0.1171
 2847SOL    HW211461   3.835   2.189   4.556  1.2860  1.1046 -2.7656
 2847SOL    HW311462   3.815   2.071   4.462 -0.1295 -1.1794  0.3154
 2847SOL    MW411463   3.858   2.110   4.528  0.0718 -0.1462 -0.4091
 2848SOL     OW11464   4.337   2.066   4.621 -0.1000  0.3890 -0.1892
 2848SOL    HW211465   4.275   2.109   4.562 -0.3923  0.9957  0.5457
 2848SOL    HW311466   4.377   2.138   4.670 -0.9587 -0.2064  1.4064
 2848SOL    MW411467   4.334   2.081   4.620 -0.2518  0.3903  0.1187
 2849SOL     OW11468   3.784   2.309   4.137 -0.2905 -0.7086  0.2770
 2849SOL    HW211469   3.728   2.380   4.167  0.5844 -0.3611  1.1268
 2849SOL    HW311470   3.790   2.321   4.042  0.4654  0.8151  0.5008
 2849SOL    MW411471   3.777   2.320   4.129 -0.0753 -0.4618  0.4187
 2850SOL     OW11472   3.673   2.307   4.895  0.0653  0.3733 -0.5367
 2850SOL    HW211473   3.678   2.212   4.885  1.4189  0.3587  0.1134
 2850SOL    HW311474   3.596   2.321   4.950  0.8027 -0.4873  0.7627
 2850SOL    MW411475   3.664   2.296   4.901  0.3412  0.2580 -0.2794
 2851SOL     OW11476   4.461   1.425   4.596  0.3750 -0.0220 -0.3975
 2851SOL    HW211477   4.501   1.510   4.575  1.8972 -0.5431  0.2766
 2851SOL    HW311478   4.525   1.383   4.655 -0.5560 -1.4558 -0.3928
 2851SOL    MW411479   4.475   1.431   4.601  0.4535 -0.2799 -0.3080
 2852SOL     OW11480   3.893   2.542   4.558  0.1159 -0.1267  0.1355
 2852SOL    HW211481   3.933   2.591   4.630  1.1586  0.5405 -0.8920
 2852SOL    HW311482   3.848   2.608   4.506 -0.3253 -0.5580 -0.0349
 2852SOL    MW411483   3.892   2.557   4.561  0.1950 -0.0956 -0.0229
 2853SOL     OW11484   3.689   2.978   4.609  0.1467  0.4501  0.0861
 2853SOL    HW211485   3.702   3.064   4.648 -0.1436  0.3404  0.4260
 2853SOL    HW311486   3.603   2.950   4.640 -0.1371  0.4197 -0.7390
 2853SOL    MW411487   3.680   2.986   4.618  0.0708  0.4313  0.0224
 2854SOL     OW11488   3.893   2.853   4.736 -0.3016  0.0862 -0.3857
 2854SOL    HW211489   3.825   2.898   4.685 -0.4690  0.5956  0.2763
 2854SOL    HW311490   3.854   2.842   4.823  0.3108  0.0262 -0.1133
 2854SOL    MW411491   3.879   2.858   4.741 -0.2425  0.1454 -0.2623
 2855SOL     OW11492   4.067   2.932   4.519  0.1417 -0.2080 -0.6770
 2855SOL    HW211493   4.036   2.888   4.598  1.2094 -0.1775 -0.2333
 2855SOL    HW311494   4.155   2.898   4.506  0.7289  1.3073 -0.7146
 2855SOL    MW411495   4.074   2.922   4.528  0.3595 -0.0041 -0.6232
 2856SOL     OW11496   3.313   3.058   4.975 -0.1463 -0.6579 -0.4144
 2856SOL    HW211497   3.230   3.104   4.981  0.4554  0.4639 -0.5433
 2856SOL    HW311498   3.330   3.051   4.881  1.2404  1.6002 -0.3669
 2856SOL    MW411499   3.305   3.063   4.963  0.1159 -0.2120 -0.4249
 2857SOL     OW11500   4.167   3.641   4.707 -0.1014 -0.1401 -0.2539
 2857SOL    HW211501   4.121   3.563   4.740  0.1256 -0.7779 -1.4457
 2857SOL    HW311502   4.235   3.606   4.650  0.7316  0.8914  0.1028
 2857SOL    MW411503   4.170   3.626   4.704  0.0386 -0.0882 -0.3643
 2858SOL     OW11504   3.742   3.230   4.775  0.6387  0.2573  0.5230
 2858SOL    HW211505   3.713   3.321   4.779 -2.2300 -0.5671 -0.0339
 2858SOL    HW311506   3.691   3.185   4.842 -0.7209 -1.5919 -1.6488
 2858SOL    MW411507   3.732   3.236   4.784  0.0808 -0.0956  0.1631
 2859SOL     OW11508   3.976   3.711   4.501  0.6487 -0.0489 -0.1642
 2859SOL    HW211509   3.908   3.645   4.487 -0.2158  0.5253  1.3061
 2859SOL    HW311510   4.023   3.681   4.579  0.0537  1.2389  0.6936
 2859SOL    MW411511   3.973   3.698   4.509  0.4561  0.1969  0.1431
 2860SOL     OW11512   4.222   3.291   4.479  0.1873 -0.0446  0.3489
 2860SOL    HW211513   4.249   3.382   4.482  0.4203 -0.1427  1.1120
 2860SOL    HW311514   4.303   3.241   4.480  0.0412 -0.2796  0.5548
 2860SOL    MW411515   4.236   3.296   4.479  0.1993 -0.0887  0.4764
 2861SOL     OW11516   4.096   3.958   4.440 -0.0594  0.3007 -0.3259
 2861SOL    HW211517   4.060   4.005   4.515 -0.0972  0.4513 -0.4400
 2861SOL    HW311518   4.055   3.871   4.445  0.5894  0.0287  0.3164
 2861SOL    MW411519   4.086   3.953   4.450  0.0210  0.2849 -0.2570
 2862SOL     OW11520   3.750   4.370   4.574 -0.3546  0.1352  0.1461
 2862SOL    HW211521   3.774   4.376   4.482 -2.1857 -1.6665 -0.4945
 2862SOL    HW311522   3.710   4.455   4.594  2.4720  1.5349  0.0690
 2862SOL    MW411523   3.748   4.382   4.564 -0.2234  0.0825  0.0510
 2863SOL     OW11524   3.389   4.456   4.532 -0.5124  0.7027  0.0044
 2863SOL    HW211525   3.302   4.448   4.572 -1.6649  0.2814 -2.5216
 2863SOL    HW311526   3.442   4.392   4.580 -1.7772  0.4189  1.0682
 2863SOL    MW411527   3.385   4.446   4.544 -0.8311  0.6104 -0.1884
 2864SOL     OW11528   3.804   1.287   4.529  0.5309  0.0757 -0.0436
 2864SOL    HW211529   3.819   1.268   4.437  3.4249 -0.3549  0.4729
 2864SOL    HW311530   3.816   1.382   4.536 -0.2315  0.1852 -0.1996
 2864SOL    MW411531   3.808   1.297   4.518  0.8121  0.0334  0.0043
 2865SOL     OW11532   4.096   0.740   4.750  0.7023  0.0443  0.0170
 2865SOL    HW211533   4.188   0.754   4.770  0.4231  0.8503  0.7717
 2865SOL    HW311534   4.067   0.822   4.711  1.2833 -1.5534 -4.0199
 2865SOL    MW411535   4.104   0.752   4.748  0.7424 -0.0602 -0.4158
 2866SOL     OW11536   0.196   0.235   4.484  0.7108 -0.1933 -0.0448
 2866SOL    HW211537   0.224   0.323   4.507  1.2222 -0.2344 -0.5221
 2866SOL    HW311538   0.101   0.235   4.500  0.6710  0.5096 -0.2941
 2866SOL    MW411539   0.187   0.246   4.489  0.7730 -0.1060 -0.1407
 2867SOL     OW11540   0.257   0.530   4.512  0.7959 -0.0314  0.3442
 2867SOL    HW211541   0.351   0.515   4.512  0.6343 -1.1527  0.3196
 2867SOL    HW311542   0.231   0.517   4.421  0.6530  0.5270  0.3041
 2867SOL    MW411543   0.266   0.526   4.500  0.7556 -0.1056  0.3357
 2868SOL     OW11544   4.026   0.486   4.588  0.1685  0.4061  0.1071
 2868SOL    HW211545   3.935   0.509   4.565  0.3532  0.9099 -0.1357
 2868SOL    HW311546   4.056   0.559   4.642 -0.7517 -1.4563  3.2906
 2868SOL    MW411547   4.018   0.499   4.592  0.0715  0.2268  0.4954
 2869SOL     OW11548   4.025   1.780   4.660  0.9073  0.3860  0.2848
 2869SOL    HW211549   4.114   1.791   4.625  1.5868 -0.7395  1.6296
 2869SOL    HW311550   3.999   1.868   4.688  1.4929  0.7644 -0.3376
 2869SOL    MW411551   4.033   1.793   4.659  1.0743  0.2875  0.3805
 2870SOL     OW11552   4.469   0.686   4.494 -0.2009  0.2226  0.3233
 2870SOL    HW211553   4.403   0.622   4.467 -0.1371  0.1921  0.2359
 2870SOL    HW311554   4.548   0.634   4.508  0.1636  0.4293 -0.9003
 2870SOL    MW411555   4.470   0.671   4.492 -0.1450  0.2458  0.1502
 2871SOL     OW11556   0.091   1.722   4.533 -0.4396 -0.6100 -0.1188
 2871SOL    HW211557   0.067   1.676   4.452 -1.1899  1.2995 -0.9985
 2871SOL    HW311558   0.183   1.701   4.546 -0.9365 -2.9973 -0.0651
 2871SOL    MW411559   0.100   1.713   4.524 -0.6042 -0.6731 -0.2279
 2872SOL     OW11560   4.316   1.785   4.589  0.5889  0.2981  0.1029
 2872SOL    HW211561   4.317   1.879   4.608  1.2419  0.1585  0.7482
 2872SOL    HW311562   4.399   1.769   4.545  0.3394  0.0753 -0.2895
 2872SOL    MW411563   4.327   1.795   4.586  0.6423  0.2502  0.1364
 2873SOL     OW11564   3.206   2.801   4.942  0.2068 -0.1526  0.1061
 2873SOL    HW211565   3.265   2.871   4.969 -1.9719  1.4358  0.9241
 2873SOL    HW311566   3.192   2.816   4.848 -0.3893  0.6127  0.3160
 2873SOL    MW411567   3.212   2.812   4.933 -0.1593  0.1576  0.2418
 2874SOL     OW11568   4.225   2.051   4.210 -0.1626 -0.2355  0.2589
 2874SOL    HW211569   4.150   1.996   4.185  0.5515 -1.7352  1.2983
 2874SOL    HW311570   4.197   2.092   4.292  0.1174 -0.7750  0.6330
 2874SOL    MW411571   4.211   2.049   4.218 -0.0315 -0.5045  0.4449
 2875SOL     OW11572   4.132   2.163   4.450  0.1329  0.1136  0.4736
 2875SOL    HW211573   4.119   2.257   4.463 -1.9469 -0.0587 -0.1800
 2875SOL    HW311574   4.047   2.124   4.471  0.2680 -1.3746 -1.5958
 2875SOL    MW411575   4.119   2.170   4.455 -0.1235 -0.1054  0.1140
 2876SOL     OW11576   0.108   2.018   4.533  0.1971  0.4573  0.2819
 2876SOL    HW211577   0.025   2.040   4.576  1.0141 -0.7568  2.5873
 2876SOL    HW311578   0.113   1.922   4.538 -0.0515  0.2018 -3.3104
 2876SOL    MW411579   0.098   2.008   4.539  0.2721  0.2637  0.1125
 2877SOL     OW11580   3.721   2.705   4.398 -0.3124 -0.1366 -0.1017
 2877SOL    HW211581   3.676   2.787   4.375  0.3975  0.0360 -0.9034
 2877SOL    HW311582   3.680   2.639   4.342  0.6604  0.0826 -1.0791
 2877SOL    MW411583   3.709   2.707   4.388 -0.0901 -0.0851 -0.3362
 2878SOL     OW11584   3.416   2.347   5.035  0.1390  0.1637 -0.0770
 2878SOL    HW211585   3.447   2.436   5.052  0.9407 -0.2850  0.8732
 2878SOL    HW311586   3.328   2.345   5.072  0.0458  0.6156 -0.2677
 2878SOL    MW411587   3.408   2.358   5.042  0.2325  0.1643  0.0234
 2879SOL     OW11588   4.339   2.799   4.494  0.1395  0.2869 -0.2539
 2879SOL    HW211589   4.421   2.841   4.518  0.0991 -0.5005  1.2972
 2879SOL    HW311590   4.328   2.819   4.401  1.7469  0.9486 -0.3067
 2879SOL    MW411591   4.348   2.807   4.485  0.3462  0.2704 -0.0563
 2880SOL     OW11592   4.312   3.554   4.502 -0.3981 -0.6401  0.1620
 2880SOL    HW211593   4.407   3.558   4.505 -0.4867  2.2871  1.1367
 2880SOL    HW311594   4.288   3.613   4.431 -1.4738 -1.5217 -0.2129
 2880SOL    MW411595   4.321   3.562   4.493 -0.5522 -0.3705  0.2408
 2881SOL     OW11596   0.115   3.335   4.643  0.0611  0.6966 -0.0891
 2881SOL    HW211597   0.050   3.285   4.592 -0.7220  2.5879 -0.9995
 2881SOL    HW311598   0.109   3.424   4.608  0.0891  1.8604  2.7669
 2881SOL    MW411599   0.105   3.340   4.632 -0.0385  1.0998  0.1678
 2882SOL     OW11600   4.027   4.323   4.662 -0.8407  0.0574 -0.2326
 2882SOL    HW211601   4.006   4.232   4.683 -1.3730  0.9008  3.3095
 2882SOL    HW311602   3.942   4.368   4.662 -0.6267  0.5378 -2.3404
 2882SOL    MW411603   4.013   4.317   4.665 -0.8826  0.2317 -0.0434
 2883SOL     OW11604   3.532   0.186   4.563 -0.1158 -0.9702  0.2184
 2883SOL    HW211605   3.440   0.158   4.555 -0.1090 -0.6769 -0.9591
 2883SOL    HW311606   3.566   0.182   4.474  1.1132 -1.3788  0.7046
 2883SOL    MW411607   3.524   0.182   4.551  0.0472 -0.9854  0.1273
 2884SOL     OW11608   4.133   3.871   4.868 -0.2136 -0.2489  0.7185
 2884SOL    HW211609   4.158   3.796   4.814 -1.0998 -0.7964  1.0546
 2884SOL    HW311610   4.126   3.836   4.956 -0.0503  0.3662  0.9796
 2884SOL    MW411611   4.135   3.857   4.872 -0.3095 -0.2401  0.7973
 2885SOL     OW11612   3.512   0.458   4.641  0.1085  0.1949 -0.3886
 2885SOL    HW211613   3.426   0.493   4.620 -0.1148 -0.1267 -0.0182
 2885SOL    HW311614   3.506   0.365   4.621  0.0523 -0.0186  0.6068
 2885SOL    MW411615   3.500   0.450   4.636  0.0713  0.1243 -0.2079
 2886SOL     OW11616   4.245   4.397   4.183  0.4869 -0.0976 -0.3950
 2886SOL    HW211617   4.322   4.342   4.166  0.8442  0.0870  0.6031
 2886SOL    HW311618   4.237   4.398   4.278  0.5156  1.6140 -0.3992
 2886SOL    MW411619   4.254   4.390   4.193  0.5379  0.1526 -0.2637
 2887NA      NA11620   0.123   3.686   0.272  0.1962 -0.0958 -0.6773
 2888NA      NA11621   3.184   0.945   0.501 -0.1357  0.6085 -0.1979
 2889NA      NA11622   1.987   2.821   0.498 -0.7093 -0.2005  0.3667
   4.49070   4.66690  10.00000
