Gromacs Runs On Most of All Computer Systems in water
11558
    1RG35     P    1   2.279   2.437   4.389 -0.0136  0.2863 -0.0818
    1RG35   O1P    2   2.378   2.521   4.447 -0.5200 -0.3921  0.1123
    1RG35   O2P    3   2.298   2.293   4.420  0.0088 -0.6952 -0.0408
    1RG35   O5'    4   2.154   2.466   4.477 -0.1875 -0.1787  0.0886
    1RG35   C5'    5   2.096   2.597   4.483 -0.1954 -0.2786 -0.3603
    1RG35  H5'1    6   2.054   2.612   4.383 -0.3416 -1.0827 -0.4296
    1RG35  H5'2    7   2.174   2.673   4.488  1.5733 -2.1109  0.6541
    1RG35   C4'    8   1.992   2.625   4.593  0.5364 -0.4276 -0.6968
    1RG35   H4'    9   1.969   2.731   4.602  1.3492 -0.4298  1.8731
    1RG35   O4'   10   1.863   2.565   4.571 -0.3302 -0.1265  0.0963
    1RG35   C1'   11   1.792   2.553   4.695 -0.2800  0.5738 -0.2968
    1RG35   H1'   12   1.726   2.639   4.698 -2.1311 -0.8344  0.2539
    1RG35    N9   13   1.711   2.429   4.697  0.6221 -0.4410  0.1978
    1RG35    C8   14   1.585   2.412   4.646 -0.3554 -0.1834  0.6185
    1RG35    H8   15   1.525   2.494   4.609 -2.2035 -1.2801  1.1076
    1RG35    N7   16   1.542   2.289   4.651  0.0723  0.1777  0.7032
    1RG35    C5   17   1.656   2.213   4.693  0.3741 -0.3104 -0.0974
    1RG35    C6   18   1.674   2.071   4.695 -0.0806  0.4585  0.0370
    1RG35    O6   19   1.595   1.974   4.675  0.0080 -0.0506  0.7142
    1RG35    N1   20   1.802   2.037   4.729 -0.3183  0.0982  0.3903
    1RG35    H1   21   1.831   1.940   4.731  2.0719  0.7716  0.3131
    1RG35    C2   22   1.899   2.127   4.760  0.1079 -0.3027  0.2181
    1RG35    N2   23   2.019   2.086   4.783 -0.1928  0.5477 -0.1022
    1RG35   H21   24   2.029   1.990   4.813 -1.1782 -0.5639 -3.1033
    1RG35   H22   25   2.089   2.156   4.804  0.0805 -0.4593  2.3933
    1RG35    N3   26   1.884   2.261   4.753 -0.0948  0.0113  0.0741
    1RG35    C4   27   1.758   2.300   4.722 -0.1103 -0.8171  0.1485
    1RG35   C3'   28   2.029   2.574   4.735  0.1323  0.1111 -0.6211
    1RG35   H3'   29   2.069   2.473   4.730 -1.3629 -0.4196 -2.0123
    1RG35   C2'   30   1.895   2.567   4.811 -0.1483  0.3176  0.0956
    1RG35  H2'1   31   1.891   2.485   4.883 -1.7519  0.5525  0.2845
    1RG35   O2'   32   1.874   2.685   4.881  0.0450  0.5124  0.1835
    1RG35  HO'2   33   1.961   2.720   4.900 -0.7348  1.8871  1.3122
    1RG35   O3'   34   2.118   2.660   4.802  0.2316 -0.1757  0.0200
    1RG35   H3T   35   2.202   2.615   4.789  0.1480  0.0296 -1.2723
    1RG35   O3P   36   2.243   2.467   4.251 -0.1914 -0.1665 -0.0156
    1SOL     OW   37   2.530   1.693   0.410  0.2579 -0.3586 -0.0249
    1SOL    HW2   38   2.496   1.606   0.432  0.9858 -0.4873  0.5863
    1SOL    HW3   39   2.461   1.753   0.436 -0.8498 -0.8527 -1.7625
    1SOL    MW4   40   2.516   1.689   0.416  0.2081 -0.4408 -0.1735
    1SOL     OW   41   4.221   3.613   0.695 -0.3664 -0.5146  0.4223
    1SOL    HW2   42   4.210   3.687   0.755 -1.1362  1.3797 -1.9298
    1SOL    HW3   43   4.175   3.541   0.737 -1.4118  0.9303  1.8328
    1SOL    MW4   44   4.213   3.613   0.708 -0.6061 -0.0741  0.2980
    1SOL     OW   45   2.551   0.545   0.471 -0.2747 -0.2421  0.2259
    1SOL    HW2   46   2.525   0.552   0.563 -0.2677  0.9051  0.1424
    1SOL    HW3   47   2.646   0.533   0.473 -0.4962 -2.1745  0.4357
    1SOL    MW4   48   2.560   0.544   0.483 -0.3033 -0.3458  0.2426
    1SOL     OW   49   2.838   2.989   0.478 -0.0422 -0.2924  0.7172
    1SOL    HW2   50   2.890   2.912   0.458 -0.5973 -0.3454 -0.5903
    1SOL    HW3   51   2.891   3.040   0.539  0.4055 -1.6078  1.4228
    1SOL    MW4   52   2.852   2.986   0.483 -0.0563 -0.4730  0.6379
    1SOL     OW   53   0.347   3.228   0.438  0.0732 -0.1687 -0.2697
    1SOL    HW2   54   0.331   3.280   0.517  2.0642  0.4312 -0.2299
    1SOL    HW3   55   0.292   3.268   0.371 -1.3478 -0.4489  0.7038
    1SOL    MW4   56   0.337   3.240   0.440  0.1484 -0.1266 -0.1360
    1SOL     OW   57   0.024   2.386   0.770 -0.0886 -0.0083  0.2018
    1SOL    HW2   58   0.016   2.395   0.675  0.7490  0.0219  0.1297
    1SOL    HW3   59   0.008   2.474   0.804 -0.9269 -0.1319  0.1263
    1SOL    MW4   60   0.021   2.398   0.762 -0.0887 -0.0205  0.1823
    1SOL     OW   61   1.351   0.178   0.441  0.2003 -0.1303  0.4623
    1SOL    HW2   62   1.346   0.200   0.534  0.1583 -0.8646  0.6365
    1SOL    HW3   63   1.425   0.229   0.408  0.7334 -0.4898  1.0818
    1SOL    MW4   64   1.360   0.187   0.449  0.2651 -0.2746  0.5671
    1SOL     OW   65   4.110   0.266   0.386  0.1593  0.3998  0.1027
    1SOL    HW2   66   4.144   0.217   0.461 -0.2692  0.2245  0.1831
    1SOL    HW3   67   4.135   0.215   0.309  0.5626  0.5583  0.1264
    1SOL    MW4   68   4.118   0.253   0.386  0.1559  0.3976  0.1164
    1SOL     OW   69   2.794   1.717   0.507 -0.1585  0.2229 -0.6386
    1SOL    HW2   70   2.839   1.633   0.498 -1.0904 -0.3352 -0.1624
    1SOL    HW3   71   2.707   1.701   0.469 -0.6959  0.6761  0.4022
    1SOL    MW4   72   2.789   1.703   0.501 -0.3524  0.2090 -0.4385
    1SOL     OW   73   2.246   0.171   0.819  0.6895  0.0044 -0.1059
    1SOL    HW2   74   2.287   0.094   0.859  0.2421  0.1259  0.5897
    1SOL    HW3   75   2.260   0.159   0.725  0.2466 -1.1419 -0.0296
    1SOL    MW4   76   2.254   0.159   0.811  0.5720 -0.1308 -0.0041
    1SOL     OW   77   4.034   1.102   0.824  0.0218 -0.8243 -0.2643
    1SOL    HW2   78   4.027   1.140   0.912 -1.0378 -0.4056 -0.5189
    1SOL    HW3   79   3.973   1.153   0.771  1.3036 -0.4966 -1.4553
    1SOL    MW4   80   4.025   1.114   0.829  0.0515 -0.7260 -0.4550
    1SOL     OW   81   0.464   2.455   0.754 -0.0644  0.0167 -0.1652
    1SOL    HW2   82   0.440   2.430   0.665 -0.4627 -0.6780  0.1307
    1SOL    HW3   83   0.407   2.402   0.810 -0.0778  0.7203  0.4980
    1SOL    MW4   84   0.453   2.445   0.749 -0.1187  0.0179 -0.0386
    1SOL     OW   85   3.877   0.729   0.502  0.1423  0.2235 -0.4458
    1SOL    HW2   86   3.924   0.771   0.574 -1.5607  0.9628  0.2552
    1SOL    HW3   87   3.936   0.739   0.427  0.4950  2.4089  0.0720
    1SOL    MW4   88   3.891   0.736   0.502 -0.0360  0.6095 -0.2850
    1SOL     OW   89   4.063   1.915   0.874  0.0930 -0.6450  0.1529
    1SOL    HW2   90   4.049   1.824   0.850 -0.7255 -0.6466  0.6053
    1SOL    HW3   91   4.067   1.915   0.969  0.7994 -0.3059  0.1208
    1SOL    MW4   92   4.061   1.903   0.883  0.0782 -0.6005  0.2083
    1SOL     OW   93   3.795   3.030   0.432 -0.0712 -0.1804  0.1601
    1SOL    HW2   94   3.887   3.035   0.406 -0.2414  0.7364 -0.2699
    1SOL    HW3   95   3.771   3.119   0.456 -0.8732 -0.3941  0.1793
    1SOL    MW4   96   3.804   3.042   0.432 -0.1993 -0.0875  0.1059
    1SOL     OW   97   0.879   0.651   0.353  0.0445 -0.1196  0.2871
    1SOL    HW2   98   0.805   0.607   0.395  1.0745 -1.8412  0.3005
    1SOL    HW3   99   0.872   0.628   0.261 -1.6866  2.9295 -0.4362
    1SOL    MW4  100   0.868   0.642   0.347 -0.0480  0.0556  0.1934
    1SOL     OW  101   3.865   4.615   0.116  0.0172 -0.5387 -0.6185
    1SOL    HW2  102   3.844   4.675   0.045  0.9350  0.6595  0.1088
    1SOL    HW3  103   3.821   4.651   0.193 -0.2854 -1.3658 -0.3903
    1SOL    MW4  104   3.857   4.627   0.117  0.0982 -0.4897 -0.4924
    1SOL     OW  105   1.792   0.649   0.408  0.1255  0.0540  0.0235
    1SOL    HW2  106   1.775   0.743   0.405  0.4463  0.0992 -0.4093
    1SOL    HW3  107   1.887   0.642   0.423  0.3784 -0.1928 -1.6036
    1SOL    MW4  108   1.803   0.661   0.409  0.2012  0.0274 -0.2483
    1SOL     OW  109   2.664   2.373   0.483 -0.0106  0.2302 -0.1031
    1SOL    HW2  110   2.655   2.278   0.491  1.2052  0.2337  1.4084
    1SOL    HW3  111   2.677   2.404   0.572  0.7859  1.7027 -0.7135
    1SOL    MW4  112   2.665   2.365   0.496  0.2549  0.4249  0.0158
    1SOL     OW  113   0.186   0.563   0.737  0.1635  0.1218 -0.2076
    1SOL    HW2  114   0.165   0.647   0.777  1.9304  0.5345 -0.1015
    1SOL    HW3  115   0.173   0.577   0.643 -1.1507  0.0144 -0.0463
    1SOL    MW4  116   0.182   0.576   0.730  0.2232  0.1621 -0.1724
    1SOL     OW  117   2.619   2.093   0.504  0.1873 -0.3374 -0.2865
    1SOL    HW2  118   2.703   2.058   0.476 -0.1862 -1.0696 -0.4961
    1SOL    HW3  119   2.561   2.084   0.428  0.0258  0.5503 -0.2834
    1SOL    MW4  120   2.622   2.087   0.490  0.1163 -0.3171 -0.3138
    1SOL     OW  121   0.600   0.288   0.481  0.1439 -0.1442  0.0058
    1SOL    HW2  122   0.633   0.376   0.494 -1.5391  0.5021  0.0758
    1SOL    HW3  123   0.549   0.269   0.560  2.0122 -1.9109  0.8408
    1SOL    MW4  124   0.598   0.297   0.493  0.1683 -0.2920  0.1252
    1SOL     OW  125   3.813   1.235   0.663  0.0621  0.3248  0.0463
    1SOL    HW2  126   3.765   1.241   0.580  0.4395 -1.6180 -0.3445
    1SOL    HW3  127   3.753   1.192   0.723  0.2973  0.4404  0.3631
    1SOL    MW4  128   3.799   1.230   0.660  0.1428  0.0838  0.0365
    1SOL     OW  129   0.414   4.004   0.722  0.2721  0.1246 -0.1851
    1SOL    HW2  130   0.425   4.014   0.628  0.0143  1.3868 -0.0837
    1SOL    HW3  131   0.419   4.093   0.757  0.0339 -0.2996  0.9571
    1SOL    MW4  132   0.416   4.017   0.714  0.2066  0.2360 -0.0211
    1SOL     OW  133   0.126   4.559   0.853 -0.2561  0.2107  0.4262
    1SOL    HW2  134   0.033   4.582   0.850 -0.6968 -1.6733 -1.1772
    1SOL    HW3  135   0.167   4.617   0.789 -0.6626 -0.4151 -0.4025
    1SOL    MW4  136   0.120   4.570   0.844 -0.3679 -0.1202  0.1054
    1SOL     OW  137   0.012   1.812   0.469  0.1211 -0.4826  0.1569
    1SOL    HW2  138  -0.081   1.824   0.448  0.2368 -0.9426 -0.6037
    1SOL    HW3  139   0.011   1.756   0.547 -0.2390 -0.6116  0.0624
    1SOL    MW4  140  -0.001   1.806   0.477  0.0888 -0.5603  0.0441
    1SOL     OW  141   2.018   2.380   0.805 -0.4400 -0.5282  0.1829
    1SOL    HW2  142   2.003   2.374   0.899  1.4251 -0.5412  0.5134
    1SOL    HW3  143   1.938   2.417   0.769 -1.2794 -0.8112  1.7420
    1SOL    MW4  144   2.006   2.384   0.813 -0.3047 -0.5674  0.4322
    1SOL     OW  145   4.238   4.233   0.467 -0.3225  0.6553 -0.4593
    1SOL    HW2  146   4.242   4.268   0.556  0.5065  0.4011 -0.3899
    1SOL    HW3  147   4.322   4.188   0.455 -0.1836  1.1916 -1.5770
    1SOL    MW4  148   4.250   4.231   0.477 -0.1945  0.6924 -0.5976
    1SOL     OW  149   0.928   4.049   0.462 -0.2701 -0.1201 -0.1918
    1SOL    HW2  150   0.850   4.099   0.438 -0.4653  0.5238  1.7300
    1SOL    HW3  151   0.926   4.045   0.558  1.6805 -0.7042 -0.1493
    1SOL    MW4  152   0.918   4.055   0.471 -0.0385 -0.1121  0.0674
    1SOL     OW  153   1.550   2.317   0.810 -0.5699  0.1089  0.4985
    1SOL    HW2  154   1.475   2.357   0.766  0.6384 -0.0508 -1.8042
    1SOL    HW3  155   1.551   2.226   0.779  0.3552  0.0078  0.8063
    1SOL    MW4  156   1.540   2.310   0.800 -0.2885  0.0746  0.2353
    1SOL     OW  157   2.040   3.128   0.775  0.3808  0.0005  0.6959
    1SOL    HW2  158   2.026   3.034   0.765  1.4921 -0.2030  0.9661
    1SOL    HW3  159   1.954   3.167   0.759  0.6714 -0.7683 -3.2900
    1SOL    MW4  160   2.027   3.120   0.771  0.5660 -0.1278  0.2057
    1SOL     OW  161   3.008   2.728   0.505 -0.2431 -0.0355  0.5215
    1SOL    HW2  162   2.965   2.656   0.459 -0.6828  1.9792 -2.3379
    1SOL    HW3  163   3.097   2.697   0.520 -0.6367 -1.4685 -0.0169
    1SOL    MW4  164   3.014   2.715   0.501 -0.3529  0.0412  0.0732
    1SOL     OW  165   0.256   4.656   0.643 -0.3621 -0.3318  0.0693
    1SOL    HW2  166   0.279   4.598   0.571 -0.2319 -0.7609  0.4517
    1SOL    HW3  167   0.178   4.703   0.612 -0.2908 -0.4933 -0.3565
    1SOL    MW4  168   0.248   4.654   0.630 -0.3355 -0.4097  0.0636
    1SOL     OW  169   1.715   3.430   0.352  0.1649  0.1228  0.0576
    1SOL    HW2  170   1.712   3.347   0.400 -0.1551  0.5622  0.7978
    1SOL    HW3  171   1.627   3.466   0.360  0.1338  0.2469 -0.7875
    1SOL    MW4  172   1.703   3.424   0.359  0.1186  0.1972  0.0437
    1SOL     OW  173   2.739   4.405   0.506  0.3286 -0.2007  0.3477
    1SOL    HW2  174   2.787   4.415   0.589 -0.2553 -0.0581  0.6713
    1SOL    HW3  175   2.767   4.479   0.453  0.5688 -0.1950  0.4810
    1SOL    MW4  176   2.749   4.416   0.510  0.2835 -0.1817  0.4080
    1SOL     OW  177   0.544   1.400   0.421 -0.3181  0.3037 -0.2796
    1SOL    HW2  178   0.504   1.481   0.453 -0.4257 -0.0856  0.5709
    1SOL    HW3  179   0.471   1.339   0.412  0.0916 -0.4894  1.5249
    1SOL    MW4  180   0.529   1.403   0.424 -0.2782  0.1477  0.0707
    1SOL     OW  181   3.348   0.783   0.846  0.1874  0.2953 -0.1760
    1SOL    HW2  182   3.328   0.708   0.789  0.9570  0.2347 -0.3722
    1SOL    HW3  183   3.427   0.821   0.808 -0.6613  1.7117 -0.5719
    1SOL    MW4  184   3.355   0.778   0.833  0.1769  0.4742 -0.2541
    1SOL     OW  185   1.795   3.233   0.688  0.1913  0.1212 -0.1571
    1SOL    HW2  186   1.778   3.208   0.597  0.3033  0.6814 -0.3375
    1SOL    HW3  187   1.719   3.202   0.736 -0.3254  0.6818 -0.6024
    1SOL    MW4  188   1.783   3.226   0.682  0.1379  0.2689 -0.2398
    1SOL     OW  189   2.062   2.831   0.746  0.0060  0.2572  0.0602
    1SOL    HW2  190   2.080   2.811   0.655  0.7073  1.4997 -0.0811
    1SOL    HW3  191   2.123   2.775   0.795 -0.3186 -0.3528 -0.2165
    1SOL    MW4  192   2.072   2.821   0.741  0.0556  0.3409  0.0051
    1SOL     OW  193   1.998   2.173   0.497  0.3397 -0.2414 -0.0318
    1SOL    HW2  194   2.080   2.185   0.449 -0.0212  2.1827 -0.1345
    1SOL    HW3  195   2.024   2.138   0.582  1.3004 -1.2578 -0.7306
    1SOL    MW4  196   2.012   2.170   0.502  0.4187 -0.0556 -0.1376
    1SOL     OW  197   3.582   1.890   0.847  0.2752  0.6583 -0.2834
    1SOL    HW2  198   3.663   1.928   0.812 -0.9907  0.6476 -3.3594
    1SOL    HW3  199   3.596   1.796   0.843  0.1566  0.6581 -0.6298
    1SOL    MW4  200   3.595   1.883   0.842  0.0923  0.6568 -0.7350
    1SOL     OW  201   0.201   2.805   0.811 -0.0494  0.0786 -0.4091
    1SOL    HW2  202   0.288   2.774   0.838 -1.1736 -0.9751  2.1365
    1SOL    HW3  203   0.204   2.899   0.828 -0.0099 -0.2433  1.4774
    1SOL    MW4  204   0.213   2.814   0.817 -0.1925 -0.1028  0.1757
    1SOL     OW  205   2.008   4.562   0.657  0.1730  0.6861  0.3107
    1SOL    HW2  206   2.092   4.565   0.610  0.2559 -0.7995  0.3233
    1SOL    HW3  207   1.942   4.582   0.591  0.1709 -2.6668 -0.8293
    1SOL    MW4  208   2.011   4.565   0.642  0.1836  0.0477  0.1619
    1SOL     OW  209   4.249   2.800   0.467  0.7406 -0.3691 -0.6844
    1SOL    HW2  210   4.257   2.795   0.562 -0.9237  1.3717 -0.4304
    1SOL    HW3  211   4.334   2.834   0.438 -0.4127  3.9021  0.6575
    1SOL    MW4  212   4.261   2.804   0.476  0.3691  0.4241 -0.4739
    1SOL     OW  213   2.500   2.063   0.763 -0.3208  0.4679  0.0635
    1SOL    HW2  214   2.540   2.065   0.676  1.1814 -1.3553  0.6743
    1SOL    HW3  215   2.491   2.155   0.788  0.2048  0.9745 -1.5856
    1SOL    MW4  216   2.504   2.075   0.755 -0.0534  0.2942 -0.0735
    1SOL     OW  217   2.893   3.069   0.888  0.0887  0.1794  0.1253
    1SOL    HW2  218   2.828   3.112   0.833  0.3324  0.0516 -0.2631
    1SOL    HW3  219   2.915   2.988   0.841  1.5292  0.8721 -0.4361
    1SOL    MW4  220   2.887   3.064   0.875  0.3107  0.2539 -0.0001
    1SOL     OW  221   0.940   4.274   0.874 -0.0491  0.0185 -0.0496
    1SOL    HW2  222   0.925   4.194   0.824  1.2592  0.5241 -1.2693
    1SOL    HW3  223   1.008   4.321   0.826  1.8817  0.1025  2.6415
    1SOL    MW4  224   0.947   4.270   0.861  0.3783  0.0963  0.1445
    1SOL     OW  225   3.026   0.907   0.483 -0.4783 -0.0504  0.1281
    1SOL    HW2  226   3.089   0.970   0.446 -1.0553 -0.1144 -0.9804
    1SOL    HW3  227   3.052   0.898   0.575  0.0721  1.2389  0.1088
    1SOL    MW4  228   3.038   0.914   0.490 -0.4816  0.1112 -0.0207
    1SOL     OW  229   1.182   3.762   0.227 -0.5596 -0.1200 -0.6243
    1SOL    HW2  230   1.270   3.765   0.189  0.2552 -0.8323  1.1441
    1SOL    HW3  231   1.157   3.854   0.235 -0.4720  0.0507 -2.2456
    1SOL    MW4  232   1.190   3.775   0.223 -0.4405 -0.1915 -0.6049
    1SOL     OW  233   2.058   0.337   0.412  0.0866  0.1752 -0.0282
    1SOL    HW2  234   2.131   0.289   0.451 -0.6413 -0.5979  0.4010
    1SOL    HW3  235   2.084   0.351   0.321  0.7302 -0.1582  0.1048
    1SOL    MW4  236   2.071   0.333   0.405  0.0753  0.0292  0.0460
    1SOL     OW  237   0.460   4.017   0.456 -0.1278 -0.3787 -0.2583
    1SOL    HW2  238   0.391   4.082   0.442 -0.6653 -1.1209 -1.1675
    1SOL    HW3  239   0.539   4.057   0.422  0.2887  1.2077  2.4301
    1SOL    MW4  240   0.461   4.030   0.450 -0.1437 -0.2670 -0.0235
    1SOL     OW  241   0.433   2.418   0.470  0.0565 -0.0434  0.3436
    1SOL    HW2  242   0.363   2.467   0.427 -0.6624 -0.8604  0.5619
    1SOL    HW3  243   0.416   2.327   0.447 -0.1764 -0.4739  2.1076
    1SOL    MW4  244   0.421   2.412   0.462 -0.0691 -0.2079  0.6052
    1SOL     OW  245   1.230   0.875   0.394 -0.5364  0.1352 -0.3671
    1SOL    HW2  246   1.263   0.788   0.369  0.4196  0.2702  0.3784
    1SOL    HW3  247   1.259   0.886   0.484 -1.7464  0.7116 -0.0348
    1SOL    MW4  248   1.238   0.865   0.403 -0.5699  0.2291 -0.2249
    1SOL     OW  249   0.260   3.814   0.830 -0.3430  0.1515  0.0518
    1SOL    HW2  250   0.256   3.829   0.925 -0.1924  1.6644 -0.1674
    1SOL    HW3  251   0.324   3.878   0.799  0.5360 -1.1856 -0.9099
    1SOL    MW4  252   0.268   3.824   0.839 -0.2071  0.1750 -0.1040
    1SOL     OW  253   2.326   0.990   0.468 -0.2672 -0.2050  0.2916
    1SOL    HW2  254   2.413   0.959   0.442 -0.4151  0.0179 -0.4829
    1SOL    HW3  255   2.265   0.932   0.422 -0.5900  2.5896 -3.0823
    1SOL    MW4  256   2.330   0.978   0.458 -0.3295  0.1931 -0.2557
    1SOL     OW  257   0.461   0.907   0.747  0.2506  0.2459  0.0156
    1SOL    HW2  258   0.527   0.864   0.802  0.9687  0.5618 -0.5966
    1SOL    HW3  259   0.421   0.835   0.698  0.0545  0.0386  0.4749
    1SOL    MW4  260   0.465   0.892   0.748  0.3194  0.2602 -0.0045
    1SOL     OW  261   2.895   4.187   0.471 -0.2138 -0.5239 -0.4215
    1SOL    HW2  262   2.872   4.280   0.479  0.1931 -0.3614 -1.1413
    1SOL    HW3  263   2.810   4.142   0.467 -0.4169 -0.1115 -0.8662
    1SOL    MW4  264   2.881   4.193   0.472 -0.1869 -0.4478 -0.5751
    1SOL     OW  265   1.307   1.475   0.444  0.3516 -0.3791  0.4906
    1SOL    HW2  266   1.219   1.443   0.426  0.8843 -0.6216 -1.8150
    1SOL    HW3  267   1.361   1.396   0.451  0.7994 -0.1744 -0.4800
    1SOL    MW4  268   1.303   1.461   0.443  0.4808 -0.3840  0.0583
    1SOL     OW  269   1.359   3.178   0.734  0.1122  0.4475 -0.4373
    1SOL    HW2  270   1.398   3.138   0.656 -0.0393 -0.9279  0.1854
    1SOL    HW3  271   1.279   3.128   0.750  0.4943  0.2714  0.9995
    1SOL    MW4  272   1.354   3.166   0.726  0.1426  0.2427 -0.1655
    1SOL     OW  273   4.118   0.042   0.199 -0.0497 -0.2079 -0.4484
    1SOL    HW2  274   4.143  -0.029   0.258  0.8600 -0.5765 -1.2730
    1SOL    HW3  275   4.046   0.007   0.148 -0.6411  0.0087  0.2296
    1SOL    MW4  276   4.112   0.028   0.200 -0.0081 -0.2280 -0.4678
    1SOL     OW  277   2.455   0.316   0.405 -0.4469  0.3396 -0.6197
    1SOL    HW2  278   2.494   0.399   0.433 -1.7382  0.3377  1.3375
    1SOL    HW3  279   2.528   0.255   0.403 -0.0804  0.6346  1.7229
    1SOL    MW4  280   2.470   0.319   0.409 -0.5691  0.3783 -0.0524
    1SOL     OW  281   1.128   3.060   0.809 -0.2173 -0.2301  0.2284
    1SOL    HW2  282   1.067   3.099   0.746 -0.9977  0.8310  1.6051
    1SOL    HW3  283   1.129   2.967   0.786  0.6061  0.3492 -2.2268
    1SOL    MW4  284   1.120   3.053   0.798 -0.2116 -0.0138  0.0861
    1SOL     OW  285   2.119   2.314   0.110  0.4814 -0.0005 -0.2950
    1SOL    HW2  286   2.158   2.284   0.192 -0.8764 -0.3565  0.2448
    1SOL    HW3  287   2.189   2.361   0.065  1.3316 -0.0912  0.9151
    1SOL    MW4  288   2.133   2.316   0.115  0.4144 -0.0594 -0.0641
    1SOL     OW  289   2.391   1.718   0.148  0.0638 -0.2472 -0.4951
    1SOL    HW2  290   2.422   1.646   0.093 -0.2464 -0.6457 -0.1516
    1SOL    HW3  291   2.453   1.719   0.222  0.1882 -0.0319 -0.6029
    1SOL    MW4  292   2.404   1.709   0.151  0.0391 -0.2714 -0.4640
    1SOL     OW  293   0.668   3.129   0.821 -0.2371  0.1937  0.0311
    1SOL    HW2  294   0.587   3.135   0.770  0.3423 -0.8200 -1.0519
    1SOL    HW3  295   0.640   3.134   0.912 -1.2565  2.5038 -0.3643
    1SOL    MW4  296   0.654   3.130   0.826 -0.2951  0.3645 -0.1640
    1SOL     OW  297   0.977   3.593   0.335  0.5783  0.0036  0.1364
    1SOL    HW2  298   0.954   3.664   0.395  0.0679 -0.6364  0.7056
    1SOL    HW3  299   1.056   3.624   0.291  1.1444  0.3619  1.3669
    1SOL    MW4  300   0.985   3.607   0.337  0.5857 -0.0336  0.3738
    1SOL     OW  301   1.339   3.647   0.555  0.3366  0.2952 -0.7327
    1SOL    HW2  302   1.412   3.630   0.615 -0.2381  1.1350  0.2241
    1SOL    HW3  303   1.345   3.740   0.535 -0.5731  0.4181 -0.4924
    1SOL    MW4  304   1.349   3.657   0.560  0.1409  0.4222 -0.5748
    1SOL     OW  305   1.780   0.929   0.733  0.3025  0.2657 -0.7256
    1SOL    HW2  306   1.763   1.017   0.767 -2.3677 -0.5850  0.2885
    1SOL    HW3  307   1.856   0.898   0.781 -0.7082  0.8004  1.2475
    1SOL    MW4  308   1.788   0.937   0.744 -0.1833  0.2239 -0.3315
    1SOL     OW  309   0.025   3.926   0.730 -0.2249  0.4249  0.3472
    1SOL    HW2  310  -0.051   3.885   0.772 -0.9339 -1.1273 -2.3241
    1SOL    HW3  311   0.100   3.875   0.761 -0.6812 -0.4163  0.0801
    1SOL    MW4  312   0.025   3.914   0.740 -0.3786  0.1092 -0.0405
    1SOL     OW  313   3.327   4.633   0.798 -0.2950  0.0825 -0.2452
    1SOL    HW2  314   3.323   4.646   0.893 -0.0422 -0.6031 -0.1367
    1SOL    HW3  315   3.414   4.665   0.773 -0.0014 -0.5824 -0.1027
    1SOL    MW4  316   3.338   4.639   0.807 -0.2229 -0.0958 -0.2121
    1SOL     OW  317   4.470   2.358   0.489 -0.6351 -0.2816  0.4566
    1SOL    HW2  318   4.374   2.365   0.490 -0.5899  0.4606  0.4333
    1SOL    HW3  319   4.488   2.265   0.501 -1.3254 -0.2320  1.9854
    1SOL    MW4  320   4.459   2.347   0.490 -0.7202 -0.1776  0.6553
    1SOL     OW  321   0.607   2.130   0.514  0.2497 -0.1442 -0.4292
    1SOL    HW2  322   0.515   2.146   0.492 -0.0121  0.1311  0.7923
    1SOL    HW3  323   0.624   2.041   0.485 -1.5443 -1.6568  2.7993
    1SOL    MW4  324   0.597   2.121   0.507 -0.0215 -0.3076  0.1579
    1SOL     OW  325   2.440   4.389   0.772 -0.0255  0.0306 -0.1005
    1SOL    HW2  326   2.367   4.336   0.806 -0.0391  0.5634  0.7061
    1SOL    HW3  327   2.431   4.383   0.677  0.0172 -1.4907 -0.0338
    1SOL    MW4  328   2.429   4.381   0.764 -0.0215 -0.0997  0.0147
    1SOL     OW  329   3.427   3.351   0.500  0.1067  0.1258 -0.2219
    1SOL    HW2  330   3.393   3.394   0.578  0.3423  0.5495 -0.3504
    1SOL    HW3  331   3.403   3.410   0.428 -0.0463 -0.2248 -0.4637
    1SOL    MW4  332   3.419   3.365   0.501  0.1175  0.1352 -0.2707
    1SOL     OW  333   2.681   3.992   0.466 -0.3292 -0.2154 -0.8468
    1SOL    HW2  334   2.599   4.027   0.431  0.0576  1.7971  0.1588
    1SOL    HW3  335   2.676   4.008   0.560  0.7836 -1.0092 -0.6370
    1SOL    MW4  336   2.670   3.999   0.473 -0.1314 -0.0544 -0.6865
    1SOL     OW  337   4.277   1.266   0.785  0.2310 -0.1905  0.2836
    1SOL    HW2  338   4.348   1.202   0.793  0.9949  0.2034 -2.7474
    1SOL    HW3  339   4.199   1.213   0.766  0.8581 -0.2824 -2.2096
    1SOL    MW4  340   4.276   1.250   0.784  0.4144 -0.1508 -0.4452
    1SOL     OW  341   2.021   1.330   0.456  0.2754 -0.2490 -0.1500
    1SOL    HW2  342   1.978   1.407   0.418  0.5106  0.1226  0.3443
    1SOL    HW3  343   1.977   1.256   0.414 -0.7970  0.1349  0.2841
    1SOL    MW4  344   2.009   1.330   0.445  0.1650 -0.1494 -0.0275
    1SOL     OW  345   2.390   2.031   0.356  0.2311 -0.4831  0.1179
    1SOL    HW2  346   2.356   1.966   0.418 -0.4604 -1.2124 -0.9874
    1SOL    HW3  347   2.376   1.990   0.270 -1.8473  1.8614 -0.7139
    1SOL    MW4  348   2.384   2.017   0.352 -0.1345 -0.2699 -0.1377
    1SOL     OW  349   0.623   3.289   0.453  0.2593  0.2252  0.4014
    1SOL    HW2  350   0.530   3.265   0.458  0.4790 -1.0528 -1.2629
    1SOL    HW3  351   0.624   3.368   0.398  0.3365 -1.0490 -1.4823
    1SOL    MW4  352   0.611   3.296   0.446  0.2985 -0.1116 -0.0667
    1SOL     OW  353   1.087   3.409   0.531  0.3425 -0.6323  0.1430
    1SOL    HW2  354   1.054   3.463   0.459  0.9316  0.5379  0.7446
    1SOL    HW3  355   1.011   3.357   0.558 -0.3005  0.0824 -0.2657
    1SOL    MW4  356   1.072   3.409   0.525  0.3353 -0.3839  0.1684
    1SOL     OW  357   2.520   2.881   0.731  0.4352 -0.2087  0.0373
    1SOL    HW2  358   2.517   2.966   0.775 -0.1070 -0.8131  1.2085
    1SOL    HW3  359   2.597   2.838   0.768  1.0035 -0.0321 -0.9293
    1SOL    MW4  360   2.530   2.886   0.742  0.4385 -0.2651  0.0643
    1SOL     OW  361   3.500   4.203   0.430  0.2473 -0.6141  0.2434
    1SOL    HW2  362   3.460   4.124   0.467  1.1454 -0.3194  1.9345
    1SOL    HW3  363   3.472   4.273   0.489  0.3099  0.1599 -0.6395
    1SOL    MW4  364   3.491   4.202   0.443  0.3738 -0.4730  0.3500
    1SOL     OW  365   3.354   3.201   0.896 -0.2161 -0.0026 -0.2074
    1SOL    HW2  366   3.261   3.200   0.876 -0.3639 -1.6920  0.5271
    1SOL    HW3  367   3.358   3.201   0.992  0.5409  0.3407 -0.2359
    1SOL    MW4  368   3.342   3.201   0.906 -0.1357 -0.1802 -0.1143
    1SOL     OW  369   2.295   1.313   0.146  0.0253  0.2260  0.0411
    1SOL    HW2  370   2.231   1.381   0.127 -0.0013  0.1515 -0.1392
    1SOL    HW3  371   2.291   1.302   0.241  0.3701  0.8062  0.1234
    1SOL    MW4  372   2.286   1.320   0.156  0.0670  0.2928  0.0282
    1SOL     OW  373   4.275   2.014   0.724 -0.0771  0.1970 -0.0824
    1SOL    HW2  374   4.346   1.959   0.758  0.2045  1.2331  1.0708
    1SOL    HW3  375   4.199   1.990   0.777 -0.6053 -0.9242 -1.3282
    1SOL    MW4  376   4.274   2.004   0.736 -0.1097  0.1857 -0.0947
    1SOL     OW  377   0.344   0.243   0.372  0.2951 -0.4168 -0.0666
    1SOL    HW2  378   0.343   0.148   0.366  1.6897 -0.4157 -0.5129
    1SOL    HW3  379   0.431   0.265   0.406 -0.1604  0.6706  0.4221
    1SOL    MW4  380   0.355   0.234   0.375  0.4190 -0.2732 -0.0610
    1SOL     OW  381   4.278   3.092   0.887  0.6934 -0.0960  0.0437
    1SOL    HW2  382   4.196   3.110   0.840 -0.9730  0.4870  3.0530
    1SOL    HW3  383   4.341   3.154   0.849 -0.0009 -1.0658 -2.8408
    1SOL    MW4  384   4.276   3.103   0.876  0.3819 -0.1469  0.0601
    1SOL     OW  385   0.215   2.049   0.806  0.7588 -0.4027  0.3313
    1SOL    HW2  386   0.291   2.003   0.841  1.0295 -0.1796  0.0457
    1SOL    HW3  387   0.231   2.141   0.827  0.5777 -0.3548  0.2560
    1SOL    MW4  388   0.227   2.055   0.813  0.7706 -0.3669  0.2837
    1SOL     OW  389   4.488   4.188   0.813 -0.0310 -0.0701 -0.1254
    1SOL    HW2  390   4.494   4.212   0.905 -0.6640 -1.8207  0.3891
    1SOL    HW3  391   4.505   4.094   0.811 -0.7146 -0.1817 -1.7072
    1SOL    MW4  392   4.491   4.178   0.825 -0.2041 -0.3157 -0.2662
    1SOL     OW  393   2.314   3.358   0.486  0.5709  0.1059 -0.0724
    1SOL    HW2  394   2.302   3.415   0.562 -0.1108  0.6749 -0.6023
    1SOL    HW3  395   2.247   3.290   0.497  0.7992 -0.0909  0.0971
    1SOL    MW4  396   2.303   3.357   0.498  0.5112  0.1547 -0.1200
    1SOL     OW  397   2.946   2.051   0.717 -0.3041 -0.1995 -0.1486
    1SOL    HW2  398   3.021   2.016   0.765 -1.1613 -1.4115  0.3157
    1SOL    HW3  399   2.869   2.023   0.767 -1.1976 -1.3676 -2.1139
    1SOL    MW4  400   2.946   2.043   0.730 -0.5348 -0.5138 -0.3467
    1SOL     OW  401   1.764   0.194   0.725  0.1765 -0.0214  0.0539
    1SOL    HW2  402   1.696   0.143   0.769  0.0353  0.0990 -0.0228
    1SOL    HW3  403   1.845   0.172   0.772  0.0414  0.0348  0.3149
    1SOL    MW4  404   1.766   0.185   0.737  0.1401  0.0019  0.0782
    1SOL     OW  405   2.246   0.177   0.541 -0.2641 -0.1696  0.1982
    1SOL    HW2  406   2.255   0.089   0.504 -0.9385  0.1711 -0.7880
    1SOL    HW3  407   2.323   0.224   0.512 -0.4615 -0.1012 -0.2108
    1SOL    MW4  408   2.257   0.171   0.533 -0.3791 -0.1157  0.0141
    1SOL     OW  409   1.568   2.062   0.693 -0.1877 -0.1398 -0.1403
    1SOL    HW2  410   1.579   2.014   0.611  0.7224 -0.1685 -0.0089
    1SOL    HW3  411   1.489   2.026   0.732  1.1546 -2.4243  0.5575
    1SOL    MW4  412   1.559   2.051   0.688  0.1094 -0.4447 -0.0309
    1SOL     OW  413   1.544   0.803   0.152 -0.1711  0.4466  0.2272
    1SOL    HW2  414   1.532   0.722   0.201 -0.4711  0.6963  0.5608
    1SOL    HW3  415   1.632   0.794   0.114 -0.4036 -0.2575 -0.1580
    1SOL    MW4  416   1.554   0.791   0.153 -0.2413  0.3867  0.2204
    1SOL     OW  417   1.764   3.708   0.422 -0.0650 -0.0868  0.2327
    1SOL    HW2  418   1.761   3.613   0.410 -0.4671 -0.3787  2.4812
    1SOL    HW3  419   1.856   3.727   0.438 -0.3910 -0.4894  2.6753
    1SOL    MW4  420   1.776   3.698   0.422 -0.1611 -0.1786  0.8517
    1SOL     OW  421   1.378   3.924   0.481 -0.3100 -0.4177  0.1527
    1SOL    HW2  422   1.465   3.918   0.441 -0.2346  1.5265 -0.0141
    1SOL    HW3  423   1.393   3.967   0.565 -0.9514 -1.2683  0.7143
    1SOL    MW4  424   1.392   3.929   0.486 -0.3847 -0.2732  0.2048
    1SOL     OW  425   1.134   1.576   0.771  0.3028  0.4110 -0.1535
    1SOL    HW2  426   1.145   1.481   0.766 -0.0085  0.4048 -0.7690
    1SOL    HW3  427   1.213   1.611   0.729  1.7232  0.4695  2.4694
    1SOL    MW4  428   1.146   1.568   0.765  0.4491  0.4179  0.1114
    1SOL     OW  429   1.311   0.179   0.745  0.1554 -0.3194  0.6812
    1SOL    HW2  430   1.398   0.140   0.759  0.1457 -0.8541 -0.6884
    1SOL    HW3  431   1.313   0.259   0.798  1.6103 -0.1582  0.4294
    1SOL    MW4  432   1.323   0.185   0.754  0.3461 -0.3687  0.4673
    1SOL     OW  433   3.917   2.038   0.491 -0.3526  0.3049 -0.1832
    1SOL    HW2  434   3.946   1.946   0.488  0.9177  0.6443  1.1218
    1SOL    HW3  435   3.996   2.088   0.469 -0.7898  1.1147  0.0849
    1SOL    MW4  436   3.932   2.032   0.488 -0.2427  0.4563  0.0244
    1SOL     OW  437   1.812   0.792   0.094  0.2397 -0.0111  0.0070
    1SOL    HW2  438   1.835   0.731   0.165 -0.5575  0.8037  0.9841
    1SOL    HW3  439   1.877   0.862   0.102 -0.6616  0.7472  0.7980
    1SOL    MW4  440   1.824   0.793   0.105  0.0156  0.1965  0.2403
    1SOL     OW  441   0.872   4.032   0.734  0.5168  0.0473  0.1689
    1SOL    HW2  442   0.792   3.991   0.766  0.3858  1.1557  1.3204
    1SOL    HW3  443   0.941   4.000   0.793  0.6102  0.5133  0.3164
    1SOL    MW4  444   0.871   4.023   0.746  0.5119  0.2551  0.3403
    1SOL     OW  445   4.021   2.671   0.827 -0.1115  0.1884  0.1572
    1SOL    HW2  446   4.027   2.583   0.790 -0.5903 -0.0671  0.6878
    1SOL    HW3  447   4.104   2.713   0.802  0.3720 -0.6017  0.3921
    1SOL    MW4  448   4.033   2.665   0.819 -0.1116  0.0501  0.2582
    1SOL     OW  449   4.113   3.551   0.306 -0.2666  0.0874  0.1157
    1SOL    HW2  450   4.166   3.543   0.227  0.4055  0.5537  0.5243
    1SOL    HW3  451   4.153   3.622   0.356 -1.1112  0.2715  0.5472
    1SOL    MW4  452   4.125   3.559   0.302 -0.2890  0.1729  0.2265
    1SOL     OW  453   1.081   0.486   0.473 -0.2395  0.1826 -0.2906
    1SOL    HW2  454   1.010   0.540   0.439 -0.7658 -0.5393 -0.3289
    1SOL    HW3  455   1.070   0.489   0.568  0.4937  1.1819 -0.2259
    1SOL    MW4  456   1.071   0.494   0.481 -0.2123  0.2193 -0.2871
    1SOL     OW  457   2.684   0.904   0.743 -0.3277  0.1390  0.1215
    1SOL    HW2  458   2.694   0.984   0.795  0.3020  1.4915 -2.0589
    1SOL    HW3  459   2.758   0.849   0.770 -1.0649  0.0277  2.0254
    1SOL    MW4  460   2.695   0.907   0.754 -0.3419  0.3028  0.0850
    1SOL     OW  461   1.805   1.972   0.815  0.4885 -0.2105  0.1443
    1SOL    HW2  462   1.727   2.009   0.775  0.4124 -0.2636  0.2431
    1SOL    HW3  463   1.804   1.880   0.790  0.3071 -0.2984  0.4775
    1SOL    MW4  464   1.795   1.965   0.807  0.4545 -0.2292  0.2012
    1SOL     OW  465   1.549   0.550   0.543 -0.1071  0.2854  0.3460
    1SOL    HW2  466   1.623   0.590   0.498  0.4889 -1.2155 -0.0336
    1SOL    HW3  467   1.473   0.569   0.488  0.8122 -2.7260 -2.1007
    1SOL    MW4  468   1.548   0.558   0.530  0.0927 -0.3100 -0.0269
    1SOL     OW  469   0.947   3.465   0.854 -0.4916 -0.0998 -0.4894
    1SOL    HW2  470   1.006   3.392   0.837  1.4640  1.4529 -0.4695
    1SOL    HW3  471   0.878   3.456   0.788  1.3939 -0.1570 -2.5020
    1SOL    MW4  472   0.945   3.454   0.843  0.0151  0.0975 -0.7523
    1SOL     OW  473   2.013   1.293   0.724  0.3683  0.1639  0.6535
    1SOL    HW2  474   2.017   1.321   0.632  0.7582  0.6910  0.8251
    1SOL    HW3  475   2.099   1.254   0.740 -0.5129 -2.0138  0.1475
    1SOL    MW4  476   2.025   1.292   0.714  0.3035 -0.0540  0.6093
    1SOL     OW  477   4.465   3.242   0.446  0.1904  0.3080 -0.3639
    1SOL    HW2  478   4.529   3.292   0.395  0.8884  1.2351  1.3536
    1SOL    HW3  479   4.384   3.293   0.439  0.0969  0.0743 -1.0724
    1SOL    MW4  480   4.462   3.256   0.438  0.2699  0.3996 -0.2308
    1SOL     OW  481   0.483   1.647   0.774  0.0613 -0.0327  0.7048
    1SOL    HW2  482   0.574   1.616   0.778 -0.4300 -1.6701 -0.5958
    1SOL    HW3  483   0.487   1.735   0.814  2.0363 -0.4403  1.5004
    1SOL    MW4  484   0.496   1.655   0.780  0.2571 -0.3026  0.6382
    1SOL     OW  485   0.900   4.503   0.409  0.3544 -0.2203  0.2109
    1SOL    HW2  486   0.871   4.594   0.423 -0.4144 -0.4497  0.1463
    1SOL    HW3  487   0.896   4.491   0.314  1.0238 -0.1432  0.1701
    1SOL    MW4  488   0.895   4.514   0.399  0.3413 -0.2408  0.1970
    1SOL     OW  489   1.328   2.444   0.715 -0.5813  0.2336  0.2281
    1SOL    HW2  490   1.329   2.480   0.627 -0.1066 -0.2376  0.0424
    1SOL    HW3  491   1.335   2.521   0.772  1.4322  0.3775 -0.1768
    1SOL    MW4  492   1.329   2.459   0.711 -0.2531  0.1905  0.1502
    1SOL     OW  493   1.444   2.767   0.459  0.2431  0.0775  0.2345
    1SOL    HW2  494   1.514   2.763   0.393 -0.0764  0.1879 -0.1170
    1SOL    HW3  495   1.489   2.762   0.543  0.5216 -2.0056 -0.0070
    1SOL    MW4  496   1.459   2.766   0.461  0.2377 -0.1829  0.1563
    1SOL     OW  497   3.080   0.018   0.453 -0.3222 -0.2618  0.0745
    1SOL    HW2  498   2.989  -0.008   0.436 -1.3363  2.8453  0.5063
    1SOL    HW3  499   3.080   0.046   0.544  0.4861  2.0395 -0.6030
    1SOL    MW4  500   3.068   0.018   0.462 -0.3493  0.4518  0.0421
    1SOL     OW  501   2.915   4.423   0.719 -0.0435  0.1027 -0.2148
    1SOL    HW2  502   2.928   4.513   0.748  2.3528  0.1757 -1.4026
    1SOL    HW3  503   2.848   4.388   0.778  0.1484  2.1631  1.2714
    1SOL    MW4  504   2.908   4.430   0.731  0.2980  0.3839 -0.1755
    1SOL     OW  505   0.244   1.712   0.370 -0.3048 -0.2276  0.0905
    1SOL    HW2  506   0.161   1.756   0.390 -1.2504 -1.7998 -0.2918
    1SOL    HW3  507   0.220   1.621   0.354  1.3212 -0.4356 -1.3901
    1SOL    MW4  508   0.230   1.706   0.371 -0.2150 -0.4624 -0.1553
    1SOL     OW  509   1.512   1.272   0.713 -0.0907 -0.1693 -0.1492
    1SOL    HW2  510   1.510   1.257   0.618 -0.8412  2.1515 -0.5208
    1SOL    HW3  511   1.436   1.223   0.746 -0.6518  0.1436 -0.9420
    1SOL    MW4  512   1.502   1.263   0.705 -0.2639  0.1781 -0.3028
    1SOL     OW  513   1.232   3.410   0.791  0.2234 -0.3252  0.6037
    1SOL    HW2  514   1.197   3.434   0.705  0.5811  0.2232  0.6084
    1SOL    HW3  515   1.275   3.325   0.777  0.5647 -0.0839  0.1663
    1SOL    MW4  516   1.233   3.402   0.778  0.3157 -0.2210  0.5466
    1SOL     OW  517   3.832   2.296   0.851  0.0326  0.2371 -0.2663
    1SOL    HW2  518   3.755   2.345   0.824 -0.3260  1.1892  2.2795
    1SOL    HW3  519   3.812   2.205   0.830 -1.6370  0.5263 -0.0038
    1SOL    MW4  520   3.820   2.290   0.845 -0.2351  0.4010  0.1042
    1SOL     OW  521   1.987   0.086   0.859  0.2440  0.4252  0.1180
    1SOL    HW2  522   2.078   0.115   0.858  0.7241 -1.0478  0.4546
    1SOL    HW3  523   1.984   0.012   0.799 -0.5889  0.0541  0.6038
    1SOL    MW4  524   1.999   0.080   0.851  0.1974  0.1819  0.2265
    1SOL     OW  525   2.695   0.184   0.485  0.0325 -0.4385 -0.2254
    1SOL    HW2  526   2.746   0.264   0.476 -1.5738  0.5520 -0.9203
    1SOL    HW3  527   2.680   0.175   0.579  1.1506 -0.5423 -0.0506
    1SOL    MW4  528   2.699   0.193   0.496 -0.0319 -0.3215 -0.2940
    1SOL     OW  529   1.085   0.208   0.399 -0.3471  0.0190  0.2510
    1SOL    HW2  530   1.178   0.183   0.392  0.1192  1.9140 -0.7493
    1SOL    HW3  531   1.088   0.300   0.423 -1.9795  0.4443 -1.1441
    1SOL    MW4  532   1.098   0.217   0.401 -0.5010  0.3251 -0.0651
    1SOL     OW  533   0.642   2.120   0.812  0.1990 -0.1217 -0.4732
    1SOL    HW2  534   0.609   2.115   0.723  0.4333  1.2849 -0.6547
    1SOL    HW3  535   0.663   2.213   0.825 -0.3193 -0.2180  1.2121
    1SOL    MW4  536   0.641   2.132   0.802  0.1615  0.0510 -0.2748
    1SOL     OW  537   2.390   2.468   0.441 -0.5139  0.1685  0.6230
    1SOL    HW2  538   2.363   2.461   0.532 -2.6017 -0.5617 -0.0095
    1SOL    HW3  539   2.481   2.438   0.440 -0.0243  1.4921  2.6578
    1SOL    MW4  540   2.398   2.463   0.452 -0.7246  0.2465  0.8080
    1SOL     OW  541   2.926   1.451   0.500 -0.6892  0.3850  0.0812
    1SOL    HW2  542   2.863   1.402   0.448  0.0917  0.1268 -0.6489
    1SOL    HW3  543   2.931   1.404   0.583  1.5519 -2.0177 -1.3362
    1SOL    MW4  544   2.919   1.438   0.504 -0.2904  0.0339 -0.2021
    1SOL     OW  545   3.744   4.296   0.301  0.0679 -0.0038  0.0008
    1SOL    HW2  546   3.660   4.272   0.339  0.3767 -0.3192  0.4912
    1SOL    HW3  547   3.722   4.341   0.219 -0.5660 -0.3231 -0.0026
    1SOL    MW4  548   3.730   4.299   0.295  0.0250 -0.0877  0.0651
    1SOL     OW  549   2.813   3.257   0.371  0.2637 -0.1121 -0.1149
    1SOL    HW2  550   2.734   3.271   0.423  1.0801  0.5228  0.9712
    1SOL    HW3  551   2.814   3.163   0.353  0.8395 -0.6551  2.4646
    1SOL    MW4  552   2.803   3.246   0.376  0.4473 -0.1001  0.3688
    1SOL     OW  553   2.807   0.456   0.519  0.6469 -0.2286 -0.1714
    1SOL    HW2  554   2.837   0.460   0.610  0.3980  0.3283 -0.1072
    1SOL    HW3  555   2.873   0.506   0.470 -0.1872  1.0592 -0.0206
    1SOL    MW4  556   2.820   0.463   0.524  0.5040  0.0148 -0.1431
    1SOL     OW  557   4.279   4.349   0.709  0.0129 -0.1728  0.4206
    1SOL    HW2  558   4.352   4.292   0.733  0.0045 -1.6178 -2.6595
    1SOL    HW3  559   4.299   4.433   0.751  1.9993 -1.3388  1.9086
    1SOL    MW4  560   4.291   4.353   0.717  0.2742 -0.5174  0.2106
    1SOL     OW  561   1.540   0.867   0.854  0.7118 -0.0239 -0.1536
    1SOL    HW2  562   1.623   0.876   0.807  0.5298  0.1341 -0.4469
    1SOL    HW3  563   1.473   0.885   0.788  0.4917  2.1247  0.6041
    1SOL    MW4  564   1.542   0.871   0.839  0.6586  0.2804 -0.0923
    1SOL     OW  565   0.644   3.892   0.833 -0.2370  0.1264 -0.2044
    1SOL    HW2  566   0.572   3.944   0.797  1.1898  1.0426 -1.7861
    1SOL    HW3  567   0.650   3.817   0.775 -1.0017 -0.8297  0.9268
    1SOL    MW4  568   0.635   3.889   0.821 -0.1497  0.1211 -0.2638
    1SOL     OW  569   0.904   3.780   0.532 -0.0702  0.2434 -0.7782
    1SOL    HW2  570   0.977   3.783   0.595  0.0944  0.3434 -0.9732
    1SOL    HW3  571   0.902   3.867   0.493  1.6471 -0.6446 -2.9583
    1SOL    MW4  572   0.914   3.792   0.535  0.1780  0.1392 -1.0916
    1SOL     OW  573   0.910   1.737   0.716  0.5567  0.1967 -0.3223
    1SOL    HW2  574   0.915   1.817   0.769  0.2425  0.6284 -0.9331
    1SOL    HW3  575   0.985   1.684   0.744  0.8680  0.7836 -0.0459
    1SOL    MW4  576   0.920   1.740   0.727  0.5563  0.3310 -0.3664
    1SOL     OW  577   0.150   1.457   0.390 -0.5445 -0.0868  0.1105
    1SOL    HW2  578   0.116   1.466   0.480  0.5724  1.2036  0.4149
    1SOL    HW3  579   0.193   1.372   0.389 -2.2375 -0.9775  0.2231
    1SOL    MW4  580   0.151   1.447   0.402 -0.6205 -0.0341  0.1656
    1SOL     OW  581   0.630   0.018   0.848 -0.1313 -0.8344 -0.2965
    1SOL    HW2  582   0.605   0.015   0.941 -0.6436  0.1974 -0.3902
    1SOL    HW3  583   0.645  -0.074   0.825  5.8308 -0.7621  2.3194
    1SOL    MW4  584   0.629   0.005   0.857  0.5877 -0.6887  0.0363
    1SOL     OW  585   0.212   3.548   0.780 -0.6310  0.0679 -0.2864
    1SOL    HW2  586   0.225   3.637   0.812 -2.3041  0.5096 -0.7700
    1SOL    HW3  587   0.294   3.503   0.799 -0.5502  1.1101  1.9582
    1SOL    MW4  588   0.224   3.554   0.787 -0.8411  0.2637 -0.0541
    1SOL     OW  589   0.555   3.526   0.324  0.4025 -0.0304  0.1499
    1SOL    HW2  590   0.524   3.612   0.351 -1.0893 -0.6372  0.4426
    1SOL    HW3  591   0.616   3.543   0.252 -1.4910  1.1633 -1.2154
    1SOL    MW4  592   0.559   3.539   0.318 -0.0442  0.0470  0.0083
    1SOL     OW  593   2.537   0.947   0.302  0.4038 -0.3341  0.6993
    1SOL    HW2  594   2.617   0.955   0.355 -0.4694  0.1180  1.9795
    1SOL    HW3  595   2.536   1.026   0.248 -0.6118  1.1098  2.7389
    1SOL    MW4  596   2.547   0.959   0.302  0.1547 -0.0839  1.1373
    1SOL     OW  597   3.852   3.536   0.427 -0.5091  0.0557 -0.3073
    1SOL    HW2  598   3.798   3.612   0.403  0.0394  1.4228  2.6625
    1SOL    HW3  599   3.934   3.549   0.379 -0.7141  0.9100 -0.4312
    1SOL    MW4  600   3.855   3.548   0.417 -0.4637  0.3488  0.0682
    1SOL     OW  601   2.734   1.957   0.864  0.1342  0.8668  0.4481
    1SOL    HW2  602   2.654   1.998   0.831  0.8369  2.3675  0.5799
    1SOL    HW3  603   2.714   1.936   0.955  0.2170  2.1114  0.7579
    1SOL    MW4  604   2.720   1.960   0.872  0.2377  1.2290  0.5063
    1SOL     OW  605   1.372   4.295   0.840 -0.1087  0.0804 -0.0321
    1SOL    HW2  606   1.298   4.351   0.815  0.2740 -0.0945 -1.5370
    1SOL    HW3  607   1.450   4.346   0.819  0.2296 -0.5187 -0.2464
    1SOL    MW4  608   1.372   4.309   0.834 -0.0137 -0.0219 -0.2589
    1SOL     OW  609   2.418   3.772   0.306 -0.3176  0.0970 -0.1871
    1SOL    HW2  610   2.487   3.741   0.365 -0.0388  0.2575 -0.4235
    1SOL    HW3  611   2.339   3.728   0.336 -0.3102  0.6969  0.7393
    1SOL    MW4  612   2.417   3.762   0.318 -0.2799  0.1974 -0.0961
    1SOL     OW  613   2.870   0.013   0.861  0.2560 -0.1133 -0.1217
    1SOL    HW2  614   2.941   0.067   0.827  0.7714 -0.8076 -0.1560
    1SOL    HW3  615   2.791   0.051   0.824  0.4541  1.7536  1.3091
    1SOL    MW4  616   2.869   0.025   0.852  0.3502  0.0414  0.0625
    1SOL     OW  617   2.913   3.652   0.454 -0.4981  0.7551  0.0953
    1SOL    HW2  618   2.911   3.642   0.549  0.3575  0.7349  0.1159
    1SOL    HW3  619   2.954   3.572   0.422  0.3358  1.3008 -0.2004
    1SOL    MW4  620   2.918   3.640   0.462 -0.2751  0.8247  0.0590
    1SOL     OW  621   2.468   3.895   0.870 -0.1313 -0.0240  0.5262
    1SOL    HW2  622   2.392   3.916   0.817 -0.2362  0.7891  0.9994
    1SOL    HW3  623   2.499   3.811   0.835 -1.1886 -0.3220  0.2772
    1SOL    MW4  624   2.462   3.887   0.859 -0.2847  0.0439  0.5558
    1SOL     OW  625   2.573   3.242   0.506  0.4108 -0.0701 -0.2031
    1SOL    HW2  626   2.563   3.149   0.486  1.0855 -0.4816  1.2974
    1SOL    HW3  627   2.487   3.280   0.488  0.5892 -0.6567 -2.4324
    1SOL    MW4  628   2.560   3.235   0.501  0.5231 -0.2017 -0.2993
    1SOL     OW  629   0.774   1.276   0.303  0.0483  0.3949 -0.1124
    1SOL    HW2  630   0.758   1.274   0.208  0.3571  2.5836 -0.2373
    1SOL    HW3  631   0.697   1.320   0.339  1.1524  2.0186  0.3345
    1SOL    MW4  632   0.762   1.282   0.295  0.2347  0.8979 -0.0699
    1SOL     OW  633   4.156   2.150   0.345  0.2687  0.0550 -0.0050
    1SOL    HW2  634   4.159   2.233   0.392  0.0335  0.1678 -0.1889
    1SOL    HW3  635   4.165   2.174   0.253  3.7709 -0.3762  0.1551
    1SOL    MW4  636   4.158   2.164   0.339  0.6995  0.0129 -0.0081
    1SOL     OW  637   4.461   2.943   0.379 -0.5247 -0.1604  0.0348
    1SOL    HW2  638   4.452   3.036   0.400 -0.4439 -0.0581 -0.3930
    1SOL    HW3  639   4.543   2.917   0.422 -0.7151 -0.1135  0.4315
    1SOL    MW4  640   4.471   2.952   0.388 -0.5393 -0.1404  0.0307
    1SOL     OW  641   3.730   1.760   0.390  0.0620 -0.1782 -0.3250
    1SOL    HW2  642   3.821   1.782   0.410  0.0424 -0.2454 -0.1614
    1SOL    HW3  643   3.682   1.842   0.401 -0.0472 -0.3388  0.5038
    1SOL    MW4  644   3.735   1.773   0.394  0.0448 -0.2083 -0.1940
    1SOL     OW  645   2.654   0.130   0.750  0.0087  0.0220  0.1331
    1SOL    HW2  646   2.645   0.210   0.801  1.0893 -0.6705  1.4494
    1SOL    HW3  647   2.585   0.072   0.784  0.4385 -0.2762  0.5064
    1SOL    MW4  648   2.643   0.133   0.761  0.2081 -0.1087  0.3561
    1SOL     OW  649   3.191   1.440   0.399 -0.4614 -0.1209  0.0403
    1SOL    HW2  650   3.110   1.433   0.450 -0.5046 -0.1384 -0.0295
    1SOL    HW3  651   3.226   1.526   0.421 -0.8879  0.1980 -0.4937
    1SOL    MW4  652   3.185   1.450   0.408 -0.5231 -0.0811 -0.0393
    1SOL     OW  653   1.339   1.931   0.805 -0.1859  0.3566  0.0418
    1SOL    HW2  654   1.362   1.841   0.782  2.8572  1.0920  0.0202
    1SOL    HW3  655   1.331   1.931   0.900  0.6145  0.2179  0.1134
    1SOL    MW4  656   1.341   1.919   0.814  0.3211  0.4354  0.0483
    1SOL     OW  657   0.455   1.915   0.891 -0.4197  0.0687  0.2893
    1SOL    HW2  658   0.510   1.993   0.888 -1.5335  0.8846  0.5956
    1SOL    HW3  659   0.453   1.891   0.983 -0.5565  0.0405  0.2792
    1SOL    MW4  660   0.462   1.922   0.903 -0.5847  0.1726  0.3285
    1SOL     OW  661   4.490   4.121   0.363  0.1397  0.0595 -0.1723
    1SOL    HW2  662   4.512   4.032   0.391  0.9035  0.0194 -0.9092
    1SOL    HW3  663   4.478   4.114   0.269  0.0989  0.7236 -0.2146
    1SOL    MW4  664   4.491   4.108   0.355  0.2351  0.1416 -0.2751
    1SOL     OW  665   0.908   3.205   0.679 -0.5828  0.3691  0.2609
    1SOL    HW2  666   0.879   3.153   0.604 -0.8233 -1.6547  1.6986
    1SOL    HW3  667   0.836   3.198   0.742  0.7913 -0.3589  1.7929
    1SOL    MW4  668   0.895   3.197   0.678 -0.4333  0.0060  0.6526
    1SOL     OW  669   1.459   3.032   0.510 -0.6083 -0.3663  0.4361
    1SOL    HW2  670   1.433   2.943   0.490  1.0036 -0.4816 -1.2924
    1SOL    HW3  671   1.406   3.087   0.452 -1.1786 -0.2262  1.0820
    1SOL    MW4  672   1.448   3.028   0.500 -0.4709 -0.3631  0.2933
    1SOL     OW  673   2.841   3.851   0.819 -0.7255 -0.0568  0.7878
    1SOL    HW2  674   2.784   3.927   0.807 -0.7603 -0.2943 -0.5879
    1SOL    HW3  675   2.833   3.830   0.912 -1.6853  0.8662  0.9229
    1SOL    MW4  676   2.832   3.858   0.830 -0.8569  0.0336  0.6241
    1SOL     OW  677   0.960   0.902   0.479 -0.1144 -0.0593  0.2067
    1SOL    HW2  678   0.923   0.818   0.453  0.2872 -0.7077  1.6699
    1SOL    HW3  679   1.054   0.894   0.461 -0.1458  0.2652 -0.1166
    1SOL    MW4  680   0.967   0.890   0.473 -0.0656 -0.1021  0.3571
    1SOL     OW  681   1.604   3.628   0.656  0.3018 -0.1041  0.5675
    1SOL    HW2  682   1.674   3.580   0.700  0.5715 -0.3615 -0.1352
    1SOL    HW3  683   1.642   3.656   0.573 -0.3661 -0.0700  0.2654
    1SOL    MW4  684   1.618   3.625   0.651  0.2493 -0.1338  0.4349
    1SOL     OW  685   2.255   4.536   0.501  0.4164  0.2750 -0.2493
    1SOL    HW2  686   2.334   4.483   0.491 -0.1940 -0.6440 -0.2859
    1SOL    HW3  687   2.203   4.516   0.423 -0.6428 -0.4950  0.6455
    1SOL    MW4  688   2.259   4.527   0.489  0.1960  0.0520 -0.1361
    1SOL     OW  689   0.081   0.370   0.420 -0.0449 -0.3793 -0.3589
    1SOL    HW2  690   0.048   0.300   0.477 -0.3542  0.6408  0.7454
    1SOL    HW3  691   0.153   0.330   0.372 -0.8813 -1.7580 -0.5172
    1SOL    MW4  692   0.086   0.355   0.421 -0.1961 -0.4267 -0.2341
    1SOL     OW  693   4.146   4.519   0.413 -0.3797  0.2471  0.3254
    1SOL    HW2  694   4.050   4.512   0.416 -0.4563  0.0545 -2.0362
    1SOL    HW3  695   4.177   4.429   0.425 -0.6323 -0.3107 -2.8576
    1SOL    MW4  696   4.137   4.506   0.415 -0.4234  0.1483 -0.4061
    1SOL     OW  697   2.496   2.325   0.853 -0.1161 -0.5613 -0.4136
    1SOL    HW2  698   2.573   2.379   0.833  0.6934 -1.6723 -0.3493
    1SOL    HW3  699   2.423   2.371   0.811  0.4868  0.7818 -0.0480
    1SOL    MW4  700   2.497   2.338   0.845  0.0703 -0.5307 -0.3570
    1SOL     OW  701   4.199   3.321   0.451 -0.1573  0.2352 -0.2323
    1SOL    HW2  702   4.163   3.398   0.408  1.2844  1.5423  0.8389
    1SOL    HW3  703   4.178   3.333   0.544 -0.0295 -0.7346 -0.0654
    1SOL    MW4  704   4.192   3.332   0.458  0.0496  0.2799 -0.0690
    1SOL     OW  705   3.151   1.939   0.842 -0.2917  0.2871  0.5329
    1SOL    HW2  706   3.161   1.930   0.937 -0.0210 -0.5357  0.4302
    1SOL    HW3  707   3.223   1.996   0.815 -0.0824  0.1278  0.7575
    1SOL    MW4  708   3.162   1.945   0.851 -0.2284  0.1576  0.5490
    1SOL     OW  709   2.616   3.715   0.486 -0.4695  0.4560 -0.0097
    1SOL    HW2  710   2.639   3.808   0.482 -0.2605  0.4493  0.9979
    1SOL    HW3  711   2.695   3.669   0.459 -0.3730  0.5461  0.1217
    1SOL    MW4  712   2.629   3.721   0.482 -0.4292  0.4668  0.1406
    1SOL     OW  713   1.636   4.385   0.490 -0.7534  0.0884 -0.4605
    1SOL    HW2  714   1.696   4.456   0.466 -1.1292  1.1758  1.6960
    1SOL    HW3  715   1.549   4.423   0.483 -0.9090  0.1914  1.7383
    1SOL    MW4  716   1.633   4.399   0.486 -0.8234  0.2456  0.1141
    1SOL     OW  717   3.153   2.705   0.923 -0.0579 -0.1926 -0.1670
    1SOL    HW2  718   3.191   2.624   0.890  0.7197  0.2408 -0.3387
    1SOL    HW3  719   3.211   2.774   0.891 -1.1762  0.5043 -0.7072
    1SOL    MW4  720   3.166   2.703   0.915 -0.1030 -0.0434 -0.2609
    1SOL     OW  721   2.641   0.373   0.883  0.1071 -0.0270 -0.0830
    1SOL    HW2  722   2.633   0.382   0.978 -0.0979 -0.0916 -0.0933
    1SOL    HW3  723   2.726   0.411   0.863 -0.5322  1.4790 -0.0630
    1SOL    MW4  724   2.651   0.379   0.893 -0.0045  0.1631 -0.0818
    1SOL     OW  725   3.211   2.466   0.764 -0.2122  0.4798  0.2703
    1SOL    HW2  726   3.283   2.406   0.786  0.9262  1.5264 -0.4882
    1SOL    HW3  727   3.132   2.412   0.768  0.6538 -0.7733  0.8018
    1SOL    MW4  728   3.210   2.451   0.768  0.0522  0.4528  0.2403
    1SOL     OW  729   1.889   2.347   0.271  0.5335 -0.4318 -0.7258
    1SOL    HW2  730   1.959   2.344   0.206 -0.0026 -0.6614 -1.2910
    1SOL    HW3  731   1.924   2.298   0.346  1.0649 -0.3486 -0.9152
    1SOL    MW4  732   1.903   2.340   0.273  0.5329 -0.4511 -0.8253
    1SOL     OW  733   0.666   3.705   0.647  0.2801  0.0283  0.0753
    1SOL    HW2  734   0.666   3.610   0.663 -1.7813 -0.1087 -0.5995
    1SOL    HW3  735   0.750   3.722   0.605  0.6282 -1.5286  0.0966
    1SOL    MW4  736   0.677   3.695   0.644  0.0540 -0.1950 -0.0109
    1SOL     OW  737   1.810   2.698   0.804 -0.1240 -0.2978 -0.4333
    1SOL    HW2  738   1.723   2.730   0.780  0.3701  0.5368 -1.1372
    1SOL    HW3  739   1.870   2.758   0.761  0.8032  1.0824  2.6758
    1SOL    MW4  740   1.806   2.710   0.795  0.0633 -0.0055 -0.1159
    1SOL     OW  741   2.530   3.655   0.742  0.0142 -0.5102 -0.9207
    1SOL    HW2  742   2.564   3.683   0.657 -0.1835  0.3482 -0.7278
    1SOL    HW3  743   2.595   3.593   0.775  0.9737  0.4565 -0.9490
    1SOL    MW4  744   2.543   3.651   0.735  0.1147 -0.2694 -0.8990
    1SOL     OW  745   2.709   3.216   0.743  0.0737 -0.3001  0.0802
    1SOL    HW2  746   2.661   3.214   0.660  1.0279  0.8513 -0.5171
    1SOL    HW3  747   2.718   3.309   0.763  2.3481 -0.4583 -0.0196
    1SOL    MW4  748   2.704   3.228   0.735  0.4997 -0.1690 -0.0119
    1SOL     OW  749   2.696   4.316   0.852 -0.4170 -0.5455  0.3909
    1SOL    HW2  750   2.675   4.324   0.945  1.6389  1.7676  0.6897
    1SOL    HW3  751   2.617   4.344   0.807 -0.3343  1.5702  1.4852
    1SOL    MW4  752   2.683   4.321   0.859 -0.1349  0.0391  0.5748
    1SOL     OW  753   0.454   3.737   0.464  0.1891  0.3801  0.0326
    1SOL    HW2  754   0.461   3.832   0.449  0.7298  0.5335  1.1781
    1SOL    HW3  755   0.522   3.719   0.529 -0.9880 -0.5235  1.0247
    1SOL    MW4  756   0.464   3.747   0.470  0.1051  0.2809  0.3146
    1SOL     OW  757   1.599   4.441   0.787  0.5680 -0.0563 -0.0117
    1SOL    HW2  758   1.604   4.432   0.692  1.1633  0.8300 -0.0656
    1SOL    HW3  759   1.670   4.386   0.820 -1.0363 -2.1694  0.0373
    1SOL    MW4  760   1.609   4.432   0.779  0.4349 -0.2179 -0.0124
    1SOL     OW  761   1.152   1.930   0.461 -0.2469 -0.1148 -0.4769
    1SOL    HW2  762   1.166   1.987   0.386  1.1054  0.0863 -0.0844
    1SOL    HW3  763   1.135   1.989   0.534 -0.6073 -0.2764 -0.4277
    1SOL    MW4  764   1.151   1.945   0.461 -0.1161 -0.1097 -0.4186
    1SOL     OW  765   2.222   1.931   0.142  1.1460 -0.3745 -0.2052
    1SOL    HW2  766   2.146   1.928   0.085  0.5030  0.2581  0.6010
    1SOL    HW3  767   2.263   1.845   0.134 -0.6916 -1.3586  0.7508
    1SOL    MW4  768   2.218   1.920   0.134  0.8187 -0.4208  0.0273
    1SOL     OW  769   1.098   3.028   0.396 -0.0900  0.6551  0.2159
    1SOL    HW2  770   1.004   3.045   0.391  0.0974  1.5505 -0.2921
    1SOL    HW3  771   1.139   3.114   0.387  0.7873  0.2401  0.1746
    1SOL    MW4  772   1.091   3.041   0.394  0.0504  0.7186  0.1434
    1SOL     OW  773   1.815   2.104   0.139  0.2711 -0.5103  0.0475
    1SOL    HW2  774   1.847   2.184   0.180 -0.3242 -0.4531  0.4014
    1SOL    HW3  775   1.720   2.109   0.147  0.1034 -0.2284 -1.8532
    1SOL    MW4  776   1.807   2.115   0.145  0.1705 -0.4654 -0.1566
    1SOL     OW  777   3.719   2.530   0.405  0.2694  0.3053 -0.4643
    1SOL    HW2  778   3.814   2.534   0.414  0.1490  2.0265  0.3422
    1SOL    HW3  779   3.688   2.609   0.450 -1.5822 -0.6266 -0.0776
    1SOL    MW4  780   3.728   2.541   0.412  0.0093  0.4094 -0.3069
    1SOL     OW  781   1.406   4.532   0.454 -0.0014  0.0440 -0.1918
    1SOL    HW2  782   1.318   4.496   0.458 -0.0983  0.2056 -0.8946
    1SOL    HW3  783   1.393   4.625   0.433  0.3417  0.0120 -0.5529
    1SOL    MW4  784   1.393   4.540   0.452  0.0310  0.0610 -0.3322
    1SOL     OW  785   0.386   3.389   0.166 -0.1794 -0.2325  0.1122
    1SOL    HW2  786   0.440   3.442   0.224 -1.1223  0.5304  0.3050
    1SOL    HW3  787   0.448   3.335   0.117  0.7120  0.2474  0.7093
    1SOL    MW4  788   0.401   3.389   0.167 -0.1861 -0.0684  0.2164
    1SOL     OW  789   3.960   0.173   0.684  0.1178  0.3285  0.3874
    1SOL    HW2  790   3.910   0.208   0.610  1.1895  1.5202  0.2203
    1SOL    HW3  791   3.973   0.247   0.742  0.5469 -0.2803  1.0817
    1SOL    MW4  792   3.955   0.187   0.682  0.3159  0.4054  0.4570
    1SOL     OW  793   0.732   1.026   0.380  0.3719  0.4775  0.2726
    1SOL    HW2  794   0.815   0.980   0.390  0.6673  1.1044  0.7881
    1SOL    HW3  795   0.757   1.113   0.348 -0.0232  0.8753  1.0115
    1SOL    MW4  796   0.747   1.032   0.377  0.3588  0.6125  0.4381
    1SOL     OW  797   2.056   0.607   0.520 -0.4079 -0.3650  0.3383
    1SOL    HW2  798   2.073   0.516   0.498  0.0226 -0.2491  0.1832
    1SOL    HW3  799   2.041   0.607   0.615 -0.7064 -0.6398  0.2899
    1SOL    MW4  800   2.056   0.595   0.530 -0.3903 -0.3859  0.3114
    1SOL     OW  801   0.661   0.560   0.487 -0.0717  0.0066 -0.1839
    1SOL    HW2  802   0.669   0.542   0.581 -1.7223 -1.6962 -0.3319
    1SOL    HW3  803   0.587   0.620   0.480 -0.2431 -0.2330 -0.4299
    1SOL    MW4  804   0.652   0.565   0.499 -0.3121 -0.2496 -0.2359
    1SOL     OW  805   2.254   0.443   0.892  0.0207 -0.2218  0.0024
    1SOL    HW2  806   2.254   0.355   0.853  1.0692  0.1981 -0.9914
    1SOL    HW3  807   2.167   0.476   0.874  0.5702  0.0678 -2.3083
    1SOL    MW4  808   2.243   0.435   0.884  0.2317 -0.1282 -0.4335
    1SOL     OW  809   3.344   4.375   0.700 -0.2218  0.6245  0.0361
    1SOL    HW2  810   3.342   4.462   0.741 -2.4380  0.8028 -0.3984
    1SOL    HW3  811   3.270   4.329   0.739  0.7436 -0.9752  0.0129
    1SOL    MW4  812   3.334   4.380   0.711 -0.3870  0.4368 -0.0243
    1SOL     OW  813   3.583   4.246   0.800  0.4846  0.1483 -0.5222
    1SOL    HW2  814   3.501   4.276   0.760  0.0927 -0.8157 -0.4632
    1SOL    HW3  815   3.600   4.162   0.758  0.2354 -0.7271  1.0848
    1SOL    MW4  816   3.574   4.239   0.789  0.4001 -0.0939 -0.3024
    1SOL     OW  817   0.696   4.161   0.362 -0.0213 -0.3667  0.4316
    1SOL    HW2  818   0.730   4.203   0.282 -0.2522 -0.9940 -0.0009
    1SOL    HW3  819   0.686   4.233   0.424  0.0055  0.1584 -0.1606
    1SOL    MW4  820   0.699   4.176   0.359 -0.0483 -0.3800  0.2964
    1SOL     OW  821   2.081   3.209   0.453 -0.0002  0.0760  0.4851
    1SOL    HW2  822   2.049   3.208   0.543 -2.0776  2.2759 -0.1974
    1SOL    HW3  823   2.038   3.284   0.412  1.6642 -0.2916 -2.0865
    1SOL    MW4  824   2.071   3.219   0.460 -0.0546  0.3176  0.0558
    1SOL     OW  825   3.327   0.534   0.732 -0.1142 -0.2336  0.1264
    1SOL    HW2  826   3.319   0.513   0.639 -1.4829 -3.0643  0.8364
    1SOL    HW3  827   3.388   0.469   0.767 -0.3049  0.2319  1.3706
    1SOL    MW4  828   3.334   0.523   0.725 -0.3202 -0.5457  0.3843
    1SOL     OW  829   0.711   2.577   0.520 -0.3984  0.0797 -0.2638
    1SOL    HW2  830   0.656   2.509   0.482  0.8832 -1.0670 -0.0699
    1SOL    HW3  831   0.797   2.563   0.482 -0.0723  1.4846 -0.0835
    1SOL    MW4  832   0.715   2.566   0.510 -0.1863  0.1137 -0.2145
    1SOL     OW  833   0.249   4.233   0.466 -0.1833  0.1500  0.1381
    1SOL    HW2  834   0.239   4.257   0.558 -0.5477  0.5281 -0.0006
    1SOL    HW3  835   0.159   4.217   0.435  0.0262 -1.1608  0.1690
    1SOL    MW4  836   0.236   4.234   0.474 -0.2037  0.0267  0.1239
    1SOL     OW  837   0.168   0.633   0.466  0.1647 -0.1964 -0.1068
    1SOL    HW2  838   0.127   0.691   0.402  1.1349  1.0505  0.3773
    1SOL    HW3  839   0.156   0.545   0.430 -0.1561  0.4054 -1.5184
    1SOL    MW4  840   0.161   0.629   0.453  0.2504  0.0476 -0.2292
    1SOL     OW  841   2.035   3.660   0.679  0.3346  0.1898  0.1081
    1SOL    HW2  842   2.120   3.616   0.689  0.3253 -0.1971 -1.3874
    1SOL    HW3  843   1.971   3.591   0.696  0.3214 -0.0949 -1.0764
    1SOL    MW4  844   2.038   3.645   0.682  0.3316  0.1011 -0.2455
    1SOL     OW  845   4.009   0.405   0.824  0.1157  0.1860  0.0734
    1SOL    HW2  846   4.097   0.436   0.801  0.7950 -0.7995  1.2299
    1SOL    HW3  847   3.950   0.472   0.790  1.3827  1.3674  0.1440
    1SOL    MW4  848   4.013   0.418   0.817  0.3729  0.2118  0.2353
    1SOL     OW  849   2.874   1.988   0.461  0.3141 -0.4008 -0.0705
    1SOL    HW2  850   2.848   1.897   0.471 -0.8080 -0.0053  0.8378
    1SOL    HW3  851   2.909   2.013   0.546  0.2227  0.1233 -0.1809
    1SOL    MW4  852   2.875   1.980   0.473  0.1540 -0.2794  0.0347
    1SOL     OW  853   1.288   3.247   0.407  0.5580 -0.3965  0.0048
    1SOL    HW2  854   1.241   3.312   0.460 -0.9245  0.9473 -2.8261
    1SOL    HW3  855   1.347   3.299   0.352  0.0593 -1.4855 -1.5947
    1SOL    MW4  856   1.289   3.263   0.407  0.2967 -0.3631 -0.5797
    1SOL     OW  857   0.997   2.539   0.516 -0.0829 -0.3764  0.1466
    1SOL    HW2  858   1.050   2.617   0.500 -0.6628 -0.2353 -1.1485
    1SOL    HW3  859   1.029   2.475   0.452  0.5497 -1.2808  1.3625
    1SOL    MW4  860   1.008   2.541   0.505 -0.0761 -0.4771  0.1361
    1SOL     OW  861   2.062   4.500   0.300 -0.1566 -0.0297  0.0767
    1SOL    HW2  862   2.057   4.489   0.205 -0.6125  0.7828 -0.0031
    1SOL    HW3  863   2.021   4.422   0.336  1.3694 -1.0458 -0.3766
    1SOL    MW4  864   2.056   4.488   0.292 -0.0157 -0.0567  0.0063
    1SOL     OW  865   3.380   1.248   0.479 -0.0517 -0.0072  0.1645
    1SOL    HW2  866   3.321   1.316   0.448 -0.6874 -0.9778 -0.7783
    1SOL    HW3  867   3.363   1.242   0.573 -0.7284  0.4182  0.0717
    1SOL    MW4  868   3.370   1.257   0.487 -0.2246 -0.0792  0.0279
    1SOL     OW  869   0.709   2.372   0.844 -0.1416 -0.3094 -0.2065
    1SOL    HW2  870   0.698   2.370   0.939  0.0381 -0.7547 -0.1967
    1SOL    HW3  871   0.625   2.405   0.811 -0.1948 -0.1295  0.1055
    1SOL    MW4  872   0.697   2.376   0.852 -0.1249 -0.3448 -0.1641
    1SOL     OW  873   0.183   3.609   0.500 -0.1048  0.1569  0.3344
    1SOL    HW2  874   0.257   3.668   0.501 -0.7735  1.0126 -0.4350
    1SOL    HW3  875   0.187   3.564   0.585  0.9384  0.6156  0.5322
    1SOL    MW4  876   0.193   3.611   0.511 -0.0554  0.3304  0.2590
    1SOL     OW  877   3.337   2.891   0.881 -0.1440 -0.1882  0.1124
    1SOL    HW2  878   3.336   2.975   0.927  0.9936 -0.0743 -0.0734
    1SOL    HW3  879   3.425   2.857   0.893 -0.7322 -1.5872  0.5731
    1SOL    MW4  880   3.348   2.898   0.888 -0.0713 -0.3574  0.1487
    1SOL     OW  881   0.452   2.711   0.873 -0.1635  0.3521 -0.2133
    1SOL    HW2  882   0.527   2.743   0.823  0.5435 -1.4724 -0.3593
    1SOL    HW3  883   0.449   2.617   0.855  0.1531 -0.3787  3.1892
    1SOL    MW4  884   0.461   2.702   0.864 -0.0284  0.0150  0.2164
    1SOL     OW  885   3.028   0.638   0.395 -0.0085  0.4479  0.1137
    1SOL    HW2  886   2.991   0.672   0.314 -0.5504  1.0888  0.6289
    1SOL    HW3  887   3.035   0.714   0.453 -0.9538 -0.2439  1.1637
    1SOL    MW4  888   3.024   0.652   0.392 -0.2046  0.4411  0.3202
    1SOL     OW  889   2.241   3.961   0.728 -0.2259  0.0688 -0.0476
    1SOL    HW2  890   2.226   4.003   0.643 -1.0615 -0.1826 -0.0265
    1SOL    HW3  891   2.154   3.942   0.761  0.1276 -0.9795  0.3020
    1SOL    MW4  892   2.228   3.964   0.721 -0.2894 -0.1028  0.0013
    1SOL     OW  893   1.363   4.027   0.752  0.3725 -0.5283  0.0909
    1SOL    HW2  894   1.280   3.996   0.787  1.4667 -1.0679  2.3021
    1SOL    HW3  895   1.373   4.115   0.789  1.5599 -1.1153  1.1912
    1SOL    MW4  896   1.353   4.034   0.762  0.6734 -0.6771  0.5279
    1SOL     OW  897   3.445   0.727   0.492 -0.1978 -0.0364  0.5909
    1SOL    HW2  898   3.396   0.806   0.470  0.3841  0.1058 -0.2409
    1SOL    HW3  899   3.395   0.655   0.452  1.4530  0.3295 -2.2855
    1SOL    MW4  900   3.432   0.728   0.484  0.0968  0.0307  0.1017
    1SOL     OW  901   0.004   1.873   0.845  0.4999  0.1587 -0.2458
    1SOL    HW2  902   0.076   1.932   0.825  0.3635  0.5122  0.2808
    1SOL    HW3  903   0.024   1.793   0.797  0.3890  0.8318 -1.4230
    1SOL    MW4  904   0.016   1.870   0.836  0.4673  0.2940 -0.3316
    1SOL     OW  905   0.007   1.100   0.847 -0.0610  0.0715 -0.0198
    1SOL    HW2  906  -0.013   1.116   0.939  0.4300  0.2296  0.0603
    1SOL    HW3  907   0.024   1.006   0.842 -0.1560  0.0511  0.0398
    1SOL    MW4  908   0.006   1.090   0.859 -0.0088  0.0896 -0.0014
    1SOL     OW  909   3.287   3.512   0.307 -0.1550 -0.3707 -0.4083
    1SOL    HW2  910   3.216   3.453   0.331 -0.0890 -0.5694 -0.6998
    1SOL    HW3  911   3.296   3.503   0.212  0.9028 -1.0966 -0.2573
    1SOL    MW4  912   3.279   3.503   0.298 -0.0067 -0.4926 -0.4269
    1SOL     OW  913   2.334   2.724   0.321 -0.0095 -0.0873 -0.0549
    1SOL    HW2  914   2.391   2.793   0.356 -0.2292  0.4951 -0.8318
    1SOL    HW3  915   2.380   2.642   0.340  1.6690  0.4365 -1.6893
    1SOL    MW4  916   2.348   2.722   0.328  0.1831  0.0587 -0.3731
    1SOL     OW  917   3.073   1.145   0.866  0.1682 -0.3806  0.0670
    1SOL    HW2  918   3.160   1.175   0.841  0.5825 -1.7242 -0.1324
    1SOL    HW3  919   3.072   1.148   0.962  0.4987 -0.5526  0.0743
    1SOL    MW4  920   3.084   1.150   0.875  0.2666 -0.5805  0.0417
    1SOL     OW  921   3.074   3.375   0.415 -0.5227 -0.0389  0.8699
    1SOL    HW2  922   3.131   3.306   0.448  0.0156 -0.3378 -0.6728
    1SOL    HW3  923   2.989   3.332   0.401 -0.4505 -0.1621  0.8138
    1SOL    MW4  924   3.070   3.360   0.417 -0.4423 -0.0947  0.6590
    1SOL     OW  925   1.331   0.907   0.678 -0.0585  0.5349 -0.1229
    1SOL    HW2  926   1.312   0.997   0.707 -1.4303 -0.2721  1.5519
    1SOL    HW3  927   1.280   0.852   0.737  2.7340 -1.4618  0.5371
    1SOL    MW4  928   1.322   0.912   0.690  0.1290  0.1650  0.1851
    1SOL     OW  929   3.680   0.537   0.452  0.1912 -0.2793  0.1566
    1SOL    HW2  930   3.602   0.594   0.455  0.3848  0.2157 -2.6066
    1SOL    HW3  931   3.753   0.596   0.466  0.1402 -0.6925  2.4010
    1SOL    MW4  932   3.679   0.552   0.454  0.2103 -0.2686  0.0882
    1SOL     OW  933   4.062   2.393   0.738  0.2684 -0.3786  0.2548
    1SOL    HW2  934   4.137   2.352   0.782  0.7473  0.4529  0.2349
    1SOL    HW3  935   3.986   2.347   0.773  0.8090 -1.5162 -0.0290
    1SOL    MW4  936   4.062   2.382   0.749  0.4029 -0.4191  0.2148
    1SOL     OW  937   1.823   1.753   0.449 -0.4135  0.0874  0.6294
    1SOL    HW2  938   1.897   1.807   0.422 -2.2339  2.6860  0.5512
    1SOL    HW3  939   1.839   1.735   0.542 -0.0730  1.3696  0.8376
    1SOL    MW4  940   1.835   1.758   0.458 -0.6086  0.5993  0.6466
    1SOL     OW  941   1.480   0.991   0.337  0.4101  0.4041  0.3929
    1SOL    HW2  942   1.391   0.963   0.359  0.0138  1.6887  0.4896
    1SOL    HW3  943   1.496   0.954   0.250 -0.4844  0.7469  0.0797
    1SOL    MW4  944   1.471   0.982   0.328  0.2397  0.6188  0.3644
    1SOL     OW  945   1.732   0.914   0.443  0.1081 -0.2031  0.1539
    1SOL    HW2  946   1.642   0.923   0.411  0.2440  0.9113  0.0766
    1SOL    HW3  947   1.727   0.937   0.536  0.3452  0.0340  0.1073
    1SOL    MW4  948   1.719   0.918   0.451  0.1572 -0.0248  0.1375
    1SOL     OW  949   4.034   0.835   0.700  0.7258  0.3108 -0.5336
    1SOL    HW2  950   4.041   0.925   0.731  0.1807 -0.1986  1.1335
    1SOL    HW3  951   4.118   0.795   0.723  0.4201  0.0079  0.0961
    1SOL    MW4  952   4.046   0.841   0.707  0.6132  0.2037 -0.2306
    1SOL     OW  953   0.916   1.794   0.435 -0.5722  0.2781 -0.4184
    1SOL    HW2  954   0.991   1.853   0.428  0.1460 -0.7023 -1.0029
    1SOL    HW3  955   0.904   1.782   0.530 -0.2428  0.7430 -0.3153
    1SOL    MW4  956   0.924   1.800   0.447 -0.4339  0.2099 -0.4819
    1SOL     OW  957   0.155   3.398   0.300 -0.3306 -0.1240 -0.5060
    1SOL    HW2  958   0.212   3.401   0.223  0.1410  0.6068 -0.1352
    1SOL    HW3  959   0.175   3.479   0.347 -0.5760 -0.5983  0.4119
    1SOL    MW4  960   0.165   3.409   0.296 -0.3008 -0.0901 -0.3360
    1SOL     OW  961   2.062   2.783   0.471  0.0047  0.0176 -0.5622
    1SOL    HW2  962   2.005   2.706   0.480  0.3032 -0.2151 -0.6795
    1SOL    HW3  963   2.138   2.752   0.423 -0.3876  0.6572 -1.6170
    1SOL    MW4  964   2.064   2.769   0.466 -0.0076  0.0713 -0.7168
    1SOL     OW  965   1.272   2.091   0.249 -0.4337  0.3087  0.3680
    1SOL    HW2  966   1.366   2.091   0.267 -0.6342 -0.3577  1.4489
    1SOL    HW3  967   1.264   2.044   0.166 -0.0047 -1.5560  1.3674
    1SOL    MW4  968   1.283   2.085   0.240 -0.4035 -0.0250  0.6424
    1SOL     OW  969   3.262   1.032   0.353 -0.0122 -0.0067  0.3568
    1SOL    HW2  970   3.222   1.079   0.281 -1.7344 -0.1144  1.2330
    1SOL    HW3  971   3.313   1.098   0.400 -0.3392  0.4272  0.0957
    1SOL    MW4  972   3.264   1.047   0.350 -0.2825  0.0364  0.4379
    1SOL     OW  973   1.549   2.123   0.255 -0.1145  0.1416  0.0745
    1SOL    HW2  974   1.573   2.204   0.301  0.5609  0.5524 -0.9784
    1SOL    HW3  975   1.580   2.053   0.312  0.1093  0.6375  0.5721
    1SOL    MW4  976   1.556   2.125   0.269  0.0042  0.2613  0.0012
    1SOL     OW  977   4.190   2.386   0.485 -0.0845 -0.2029  0.0564
    1SOL    HW2  978   4.160   2.465   0.440  0.4650  0.2529  0.4730
    1SOL    HW3  979   4.140   2.385   0.567 -0.3926 -0.5126 -0.1357
    1SOL    MW4  980   4.180   2.396   0.490 -0.0529 -0.1838  0.0860
    1SOL     OW  981   4.062   2.619   0.395  0.3402 -0.3219  0.0564
    1SOL    HW2  982   4.047   2.643   0.304 -0.0177 -0.9012 -0.0380
    1SOL    HW3  983   4.125   2.684   0.427  1.5874 -0.9952 -1.0010
    1SOL    MW4  984   4.068   2.631   0.387  0.4573 -0.4873 -0.0956
    1SOL     OW  985   1.357   2.674   0.830  0.1113 -0.1230 -0.2022
    1SOL    HW2  986   1.368   2.678   0.925  0.8031  0.8261 -0.3157
    1SOL    HW3  987   1.276   2.723   0.814  0.6581  0.7875 -0.2118
    1SOL    MW4  988   1.348   2.681   0.841  0.2748  0.1223 -0.2185
    1SOL     OW  989   3.485   0.058   0.413 -0.3449 -0.3665 -0.2424
    1SOL    HW2  990   3.432  -0.020   0.426 -0.0374 -0.5834 -0.3012
    1SOL    HW3  991   3.501   0.091   0.502 -0.0842 -0.6282 -0.1936
    1SOL    MW4  992   3.480   0.052   0.427 -0.2697 -0.4297 -0.2438
    1SOL     OW  993   4.045   3.433   0.836  0.6312 -0.0941 -0.3887
    1SOL    HW2  994   4.027   3.341   0.817  1.8221 -0.2107 -0.9592
    1SOL    HW3  995   4.059   3.436   0.931 -0.8530 -0.2469 -0.1468
    1SOL    MW4  996   4.044   3.421   0.846  0.5927 -0.1297 -0.4320
    1SOL     OW  997   0.412   0.437   0.832  0.0231  0.0763 -0.1850
    1SOL    HW2  998   0.345   0.491   0.791  0.0097  0.4691  0.3453
    1SOL    HW3  999   0.412   0.356   0.781  1.1331  1.1722 -1.9668
    1SOL    MW4 1000   0.403   0.434   0.820  0.1678  0.2727 -0.3502
    1SOL     OW 1001   2.419   4.087   0.387 -0.4499  0.0006  0.3908
    1SOL    HW2 1002   2.420   4.017   0.322 -1.0589 -0.1301  0.5184
    1SOL    HW3 1003   2.330   4.087   0.422 -0.8550  1.7333 -0.5780
    1SOL    MW4 1004   2.407   4.078   0.383 -0.5839  0.2117  0.2798
    1SOL     OW 1005   4.488   0.331   0.778  0.2790  0.0828  0.3531
    1SOL    HW2 1006   4.552   0.401   0.768  1.1495 -0.7182  0.3099
    1SOL    HW3 1007   4.485   0.313   0.872  0.4474 -0.1942  0.3050
    1SOL    MW4 1008   4.496   0.338   0.789  0.4158 -0.0594  0.3411
    1SOL     OW 1009   2.291   1.815   0.503 -0.1704  0.0967 -0.1960
    1SOL    HW2 1010   2.201   1.846   0.488 -0.3547 -1.1817 -1.9119
    1SOL    HW3 1011   2.284   1.758   0.579 -0.9606 -0.6187 -0.7979
    1SOL    MW4 1012   2.278   1.812   0.511 -0.2990 -0.1663 -0.5018
    1SOL     OW 1013   0.074   0.823   0.843 -0.3833 -0.1733 -0.0085
    1SOL    HW2 1014   0.082   0.796   0.935  1.2291  0.7339  0.1395
    1SOL    HW3 1015  -0.017   0.806   0.821 -0.3303 -2.1655  1.1895
    1SOL    MW4 1016   0.063   0.817   0.853 -0.1636 -0.3164  0.1690
    1SOL     OW 1017   0.420   0.730   0.506 -0.0805 -0.1270  0.3267
    1SOL    HW2 1018   0.419   0.819   0.471 -0.7890 -0.9630 -1.8781
    1SOL    HW3 1019   0.330   0.698   0.494  0.8951 -2.2207 -1.8423
    1SOL    MW4 1020   0.408   0.737   0.500 -0.0452 -0.5136 -0.2503
    1SOL     OW 1021   0.493   1.686   0.504  0.0712  0.3331 -0.5534
    1SOL    HW2 1022   0.474   1.671   0.597  0.2966  0.4828 -0.4832
    1SOL    HW3 1023   0.406   1.695   0.463 -0.0116  2.1032 -0.0527
    1SOL    MW4 1024   0.479   1.685   0.511  0.0900  0.5865 -0.4780
    1SOL     OW 1025   0.198   1.261   0.705  0.2704 -0.1326 -0.0058
    1SOL    HW2 1026   0.281   1.231   0.741 -0.2798 -0.5187  0.9540
    1SOL    HW3 1027   0.131   1.218   0.759 -0.5414  0.8621 -0.1989
    1SOL    MW4 1028   0.200   1.252   0.717  0.0907 -0.0523  0.0953
    1SOL     OW 1029   0.236   1.523   0.842  0.2321 -0.5254  0.1684
    1SOL    HW2 1030   0.246   1.433   0.811  2.0054  0.2540 -1.6407
    1SOL    HW3 1031   0.311   1.570   0.805  0.5033  1.2472  2.8575
    1SOL    MW4 1032   0.247   1.517   0.833  0.5019 -0.1887  0.2844
    1SOL     OW 1033   1.131   2.798   0.749 -0.0067  0.0874  0.1132
    1SOL    HW2 1034   1.058   2.744   0.778 -1.3925  1.3892 -0.8467
    1SOL    HW3 1035   1.140   2.780   0.655  0.6793  0.2048  0.1477
    1SOL    MW4 1036   1.123   2.789   0.740 -0.0992  0.2747 -0.0089
    1SOL     OW 1037   3.595   2.337   0.551 -0.2339 -0.0591 -0.7928
    1SOL    HW2 1038   3.653   2.394   0.500 -1.0522  1.4696 -0.0452
    1SOL    HW3 1039   3.606   2.367   0.641  0.9030 -2.4832 -0.0972
    1SOL    MW4 1040   3.604   2.348   0.556 -0.1919 -0.1771 -0.6024
    1SOL     OW 1041   1.060   2.354   0.789 -0.5094  0.6101 -0.6534
    1SOL    HW2 1042   1.061   2.261   0.766  0.2884  0.4808 -0.1129
    1SOL    HW3 1043   1.145   2.387   0.762  0.3592  0.5099  1.7886
    1SOL    MW4 1044   1.071   2.346   0.783 -0.2894  0.5798 -0.2598
    1SOL     OW 1045   0.407   2.957   0.481 -0.2043 -0.3513 -0.3698
    1SOL    HW2 1046   0.370   3.035   0.442  0.7566  1.1659  1.6703
    1SOL    HW3 1047   0.333   2.896   0.487 -0.8541  0.2080 -2.3834
    1SOL    MW4 1048   0.392   2.959   0.477 -0.1633 -0.0772 -0.3663
    1SOL     OW 1049   4.276   2.256   0.870  0.0455  0.6095 -0.2450
    1SOL    HW2 1050   4.280   2.172   0.824  0.5280 -0.4978  1.7748
    1SOL    HW3 1051   4.356   2.302   0.843  1.7997 -1.2105  1.6648
    1SOL    MW4 1052   4.287   2.251   0.860  0.3409  0.2232  0.2735
    1SOL     OW 1053   0.317   1.241   0.456 -0.4282 -0.3366  0.1129
    1SOL    HW2 1054   0.354   1.153   0.457  0.1088 -0.1113  2.1711
    1SOL    HW3 1055   0.282   1.254   0.545 -0.0468  1.7100 -0.0045
    1SOL    MW4 1056   0.317   1.231   0.468 -0.3071 -0.0368  0.3690
    1SOL     OW 1057   4.003   1.662   0.757 -0.3275  0.2432  0.1928
    1SOL    HW2 1058   3.937   1.597   0.783 -0.3198 -0.9122 -2.5489
    1SOL    HW3 1059   4.086   1.616   0.767 -0.0540  1.0414  1.7050
    1SOL    MW4 1060   4.005   1.647   0.762 -0.2904  0.1961  0.0305
    1SOL     OW 1061   0.222   3.072   0.893  0.4942  0.2440 -0.4242
    1SOL    HW2 1062   0.208   3.075   0.988  1.1171 -0.1502 -0.3155
    1SOL    HW3 1063   0.146   3.116   0.856 -1.0706 -1.9041  0.1201
    1SOL    MW4 1064   0.210   3.078   0.901  0.3699 -0.0916 -0.3381
    1SOL     OW 1065   1.712   1.333   0.264  0.1464  0.3911  0.2647
    1SOL    HW2 1066   1.681   1.332   0.174  0.2502 -0.5860  0.2353
    1SOL    HW3 1067   1.763   1.253   0.273  1.9537  1.5465  0.5606
    1SOL    MW4 1068   1.715   1.323   0.254  0.3985  0.4146  0.2999
    1SOL     OW 1069   0.754   3.580   0.136 -0.3503  0.0566  0.1312
    1SOL    HW2 1070   0.778   3.625   0.055 -0.5999  0.8433  0.4914
    1SOL    HW3 1071   0.837   3.573   0.185 -0.7849  2.6008  1.2872
    1SOL    MW4 1072   0.768   3.585   0.132 -0.4405  0.4959  0.3313
    1SOL     OW 1073   0.011   3.189   0.756 -0.3848  0.1776  0.2006
    1SOL    HW2 1074   0.010   3.187   0.660 -0.0912  0.3469  0.1931
    1SOL    HW3 1075  -0.009   3.280   0.778  1.5752  0.6193  0.2613
    1SOL    MW4 1076   0.008   3.201   0.746 -0.0875  0.2582  0.2077
    1SOL     OW 1077   0.452   3.415   0.798  0.0438  0.3096 -0.0608
    1SOL    HW2 1078   0.461   3.413   0.893 -0.7351 -0.9104 -0.0093
    1SOL    HW3 1079   0.420   3.328   0.775 -0.9847  1.0048 -1.3129
    1SOL    MW4 1080   0.449   3.404   0.808 -0.1947  0.2406 -0.2193
    1SOL     OW 1081   0.175   2.791   0.507 -0.0012 -0.5624  0.1166
    1SOL    HW2 1082   0.180   2.702   0.470  0.2449 -0.4984 -0.0016
    1SOL    HW3 1083   0.178   2.778   0.601  1.1240 -0.6055  0.0762
    1SOL    MW4 1084   0.176   2.777   0.514  0.1797 -0.5598  0.0956
    1SOL     OW 1085   0.425   1.175   0.828  0.2652 -0.4003 -0.0415
    1SOL    HW2 1086   0.436   1.082   0.806  0.1309 -0.2007 -0.9867
    1SOL    HW3 1087   0.489   1.220   0.773  0.1591  0.0825  0.2336
    1SOL    MW4 1088   0.435   1.169   0.818  0.2335 -0.3102 -0.1299
    1SOL     OW 1089   0.465   0.188   0.696  0.6687  0.2368  0.3646
    1SOL    HW2 1090   0.407   0.121   0.660  0.6575 -0.9032  2.4206
    1SOL    HW3 1091   0.512   0.143   0.767  1.1629  2.2187  1.3277
    1SOL    MW4 1092   0.464   0.173   0.701  0.7324  0.3479  0.7629
    1SOL     OW 1093   0.397   0.389   1.106 -0.5202 -0.3279  0.4723
    1SOL    HW2 1094   0.404   0.404   1.012 -0.2533 -1.9871  0.2121
    1SOL    HW3 1095   0.316   0.433   1.131  0.4539  1.8825 -0.1385
    1SOL    MW4 1096   0.387   0.397   1.097 -0.3565 -0.2552  0.3574
    1SOL     OW 1097   2.054   2.076   0.742  0.2091 -0.2326  0.2371
    1SOL    HW2 1098   2.057   2.160   0.789  0.9194 -0.3734  0.4485
    1SOL    HW3 1099   1.970   2.038   0.766 -0.3332  0.6446 -0.2470
    1SOL    MW4 1100   2.043   2.082   0.751  0.2313 -0.1354  0.2011
    1SOL     OW 1101   3.317   1.233   0.762 -0.3100 -0.2871 -0.2458
    1SOL    HW2 1102   3.408   1.204   0.775  0.4703  1.5111 -1.5012
    1SOL    HW3 1103   3.315   1.322   0.796 -1.6575 -0.3426 -0.1463
    1SOL    MW4 1104   3.329   1.241   0.768 -0.3848 -0.0572 -0.3983
    1SOL     OW 1105   3.566   1.617   0.791  0.1558  0.6194 -0.3659
    1SOL    HW2 1106   3.495   1.559   0.820  0.2923  0.8146  0.3770
    1SOL    HW3 1107   3.566   1.610   0.696  0.7462 -1.2913 -0.2392
    1SOL    MW4 1108   3.556   1.608   0.782  0.2518  0.3930 -0.2512
    1SOL     OW 1109   0.883   0.130   0.753  0.1377 -0.1626 -0.3284
    1SOL    HW2 1110   0.866   0.125   0.659 -2.5119 -1.1746  0.1657
    1SOL    HW3 1111   0.811   0.081   0.793  1.2665  0.2005  2.2273
    1SOL    MW4 1112   0.871   0.123   0.746 -0.0628 -0.2482  0.0740
    1SOL     OW 1113   0.679   2.845   0.747 -0.4370 -0.7679 -0.3705
    1SOL    HW2 1114   0.684   2.935   0.778  1.6857 -1.0158  0.1068
    1SOL    HW3 1115   0.665   2.852   0.652 -0.0372  0.0640 -0.3665
    1SOL    MW4 1116   0.678   2.858   0.739 -0.1041 -0.6909 -0.3071
    1SOL     OW 1117   1.575   0.329   0.373  0.0703  0.5865 -0.0836
    1SOL    HW2 1118   1.653   0.274   0.381  0.9974  1.6932 -1.3712
    1SOL    HW3 1119   1.587   0.398   0.439  0.0418  0.6002 -0.0928
    1SOL    MW4 1120   1.587   0.331   0.383  0.1888  0.7343 -0.2547
    1SOL     OW 1121   0.419   3.117   0.710  0.1357 -0.1734  0.4565
    1SOL    HW2 1122   0.413   3.044   0.649 -0.3198  0.7437 -0.5957
    1SOL    HW3 1123   0.358   3.095   0.780  0.1565 -0.8952  0.2526
    1SOL    MW4 1124   0.410   3.105   0.711  0.0784 -0.1476  0.2908
    1SOL     OW 1125   0.607   1.320   0.688  0.2272  0.0019  0.8962
    1SOL    HW2 1126   0.599   1.358   0.601 -1.5549 -1.0468  0.5602
    1SOL    HW3 1127   0.639   1.391   0.743  1.6187  0.6010 -0.6541
    1SOL    MW4 1128   0.610   1.334   0.684  0.1757 -0.0575  0.6473
    1SOL     OW 1129   2.921   1.564   0.891  0.3577 -0.8520  0.0307
    1SOL    HW2 1130   2.857   1.618   0.844  2.0921 -0.5110 -1.9997
    1SOL    HW3 1131   3.005   1.584   0.850  1.6714 -1.9342  2.0869
    1SOL    MW4 1132   2.923   1.574   0.879  0.7598 -0.9499  0.0342
    1SOL     OW 1133   0.014   1.630   0.694  0.5545 -0.1322  0.1461
    1SOL    HW2 1134  -0.067   1.587   0.721  0.3297  1.0578  1.4752
    1SOL    HW3 1135   0.083   1.580   0.737  0.3604  0.1821  0.8430
    1SOL    MW4 1136   0.013   1.618   0.704  0.4992  0.0663  0.4134
    1SOL     OW 1137   1.607   3.915   0.319 -0.1054  0.1379 -0.3901
    1SOL    HW2 1138   1.655   3.834   0.337 -0.1846 -0.0357 -0.9372
    1SOL    HW3 1139   1.656   3.983   0.364  0.1532 -0.1670 -0.2111
    1SOL    MW4 1140   1.619   3.913   0.327 -0.0818  0.0749 -0.4386
    1SOL     OW 1141   0.848   2.275   0.525 -0.2665 -0.0173 -0.1363
    1SOL    HW2 1142   0.926   2.220   0.517 -0.0025  0.2486  0.5561
    1SOL    HW3 1143   0.775   2.213   0.527 -0.0113 -0.3120  0.0700
    1SOL    MW4 1144   0.849   2.260   0.524 -0.1981 -0.0210 -0.0178
    1SOL     OW 1145   2.831   4.643   0.367  0.2072 -0.0303  0.2257
    1SOL    HW2 1146   2.785   4.703   0.425 -1.0379 -1.0594  0.3190
    1SOL    HW3 1147   2.841   4.691   0.285 -0.2105  0.5392  0.5065
    1SOL    MW4 1148   2.826   4.657   0.364 -0.0122 -0.0910  0.2750
    1SOL     OW 1149   0.660   2.849   0.464 -0.0254  0.0187 -0.2389
    1SOL    HW2 1150   0.650   2.755   0.475 -0.1693  0.1388  0.6325
    1SOL    HW3 1151   0.571   2.881   0.449  0.0581 -0.0178 -0.8459
    1SOL    MW4 1152   0.647   2.841   0.463 -0.0333  0.0300 -0.2041
    1SOL     OW 1153   0.099   2.075   0.554 -0.3299  0.4552  0.0929
    1SOL    HW2 1154   0.155   2.078   0.631  0.4827  1.9743 -0.5377
    1SOL    HW3 1155   0.096   1.982   0.530 -0.2563  0.0228  1.6934
    1SOL    MW4 1156   0.106   2.063   0.561 -0.2130  0.5987  0.2208
    1SOL     OW 1157   3.277   3.898   0.823  0.1155 -0.0002 -0.0113
    1SOL    HW2 1158   3.314   3.816   0.788 -0.6998 -0.6068  0.5380
    1SOL    HW3 1159   3.294   3.894   0.917 -0.4177  0.2128  0.0947
    1SOL    MW4 1160   3.284   3.887   0.831 -0.0625 -0.0520  0.0753
    1SOL     OW 1161   3.630   2.465   0.800 -0.4209  0.5599  0.0606
    1SOL    HW2 1162   3.610   2.556   0.823 -0.6661  0.5235 -0.0066
    1SOL    HW3 1163   3.556   2.415   0.835 -1.0496  0.5561 -1.2656
    1SOL    MW4 1164   3.618   2.471   0.808 -0.5362  0.5546 -0.1233
    1SOL     OW 1165   4.434   3.455   0.825  0.3298  0.2864  0.8717
    1SOL    HW2 1166   4.521   3.486   0.802  0.6851 -1.6433 -0.4390
    1SOL    HW3 1167   4.375   3.504   0.767  0.8794 -1.3111 -1.0936
    1SOL    MW4 1168   4.438   3.466   0.814  0.4492 -0.1791  0.4395
    1SOL     OW 1169   0.711   3.427   0.686 -0.2158 -0.2064 -0.0273
    1SOL    HW2 1170   0.634   3.406   0.738  0.5516 -1.5308  0.5970
    1SOL    HW3 1171   0.694   3.388   0.600 -0.1614 -0.6656  0.1696
    1SOL    MW4 1172   0.699   3.419   0.681 -0.1073 -0.4416  0.0811
    1SOL     OW 1173   1.726   4.130   0.464 -0.0780 -0.4883  0.1250
    1SOL    HW2 1174   1.741   4.090   0.549 -2.6631 -1.9213 -0.0580
    1SOL    HW3 1175   1.681   4.212   0.483  2.3194  0.8390  0.2957
    1SOL    MW4 1176   1.722   4.135   0.477 -0.1029 -0.5021  0.1234
    1SOL     OW 1177   0.383   4.476   0.418  0.7345 -0.0907  0.1464
    1SOL    HW2 1178   0.474   4.456   0.440  1.0832 -0.1715 -1.3178
    1SOL    HW3 1179   0.337   4.392   0.425  1.3797 -0.6398 -2.0269
    1SOL    MW4 1180   0.389   4.463   0.422  0.8656 -0.1745 -0.3335
    1SOL     OW 1181   0.452   4.242   0.843 -0.1708 -0.1864  0.1096
    1SOL    HW2 1182   0.437   4.227   0.936 -0.7273 -0.4312 -0.0136
    1SOL    HW3 1183   0.368   4.274   0.810 -0.1275 -0.5827 -0.4021
    1SOL    MW4 1184   0.439   4.244   0.851 -0.2385 -0.2708  0.0258
    1SOL     OW 1185   0.698   4.418   0.793  0.0128 -0.0533  0.1250
    1SOL    HW2 1186   0.781   4.375   0.815  0.2884 -0.2501 -1.2397
    1SOL    HW3 1187   0.631   4.358   0.824  0.3958 -0.7714 -0.4085
    1SOL    MW4 1188   0.700   4.404   0.800  0.0997 -0.1740 -0.1254
    1SOL     OW 1189   2.568   1.210   0.184 -0.1086 -0.5583  0.0508
    1SOL    HW2 1190   2.600   1.219   0.094 -1.1339  0.4839 -0.2258
    1SOL    HW3 1191   2.477   1.240   0.180 -0.0267 -0.0963  1.5297
    1SOL    MW4 1192   2.560   1.215   0.172 -0.2332 -0.3600  0.2094
    1SOL     OW 1193   1.764   1.176   0.834 -0.0890 -0.2975  0.3119
    1SOL    HW2 1194   1.686   1.229   0.814 -0.3604 -0.7657  0.1217
    1SOL    HW3 1195   1.835   1.220   0.788 -0.0868  0.6127  1.1682
    1SOL    MW4 1196   1.763   1.189   0.825 -0.1246 -0.2393  0.3998
    1SOL     OW 1197   1.456   0.521   0.199 -0.9501 -0.4323 -0.4746
    1SOL    HW2 1198   1.512   0.447   0.219 -2.0401 -1.4605 -1.1618
    1SOL    HW3 1199   1.438   0.513   0.105 -1.6532  0.2899 -0.4043
    1SOL    MW4 1200   1.461   0.510   0.189 -1.1867 -0.4726 -0.5560
    1SOL     OW 1201   1.126   0.777   0.819  0.2650  0.3889  0.3169
    1SOL    HW2 1202   1.117   0.785   0.914 -2.6961  0.7266  0.0691
    1SOL    HW3 1203   1.103   0.686   0.801  2.1834 -0.0504  0.0444
    1SOL    MW4 1204   1.121   0.766   0.829  0.1274  0.3754  0.2483
    1SOL     OW 1205   3.727   0.481   0.730  0.8079 -0.0818  0.9816
    1SOL    HW2 1206   3.695   0.490   0.641 -0.5267 -0.1518  1.4471
    1SOL    HW3 1207   3.755   0.570   0.754 -0.2349  0.2421  1.0179
    1SOL    MW4 1208   3.727   0.494   0.722  0.4942 -0.0483  1.0479
    1SOL     OW 1209   2.021   0.956   0.137 -0.1371  0.1274  0.3280
    1SOL    HW2 1210   2.075   0.898   0.191  0.5658  1.3703  0.9669
    1SOL    HW3 1211   2.082   0.993   0.073 -0.3320  1.1648  0.7440
    1SOL    MW4 1212   2.037   0.953   0.136 -0.0703  0.4281  0.4672
    1SOL     OW 1213   1.008   1.457   0.445 -0.1160  0.1287 -0.0208
    1SOL    HW2 1214   0.978   1.545   0.421  0.1968  0.5150  0.9885
    1SOL    HW3 1215   0.958   1.398   0.388  1.1267  1.0428 -2.1486
    1SOL    MW4 1216   0.998   1.461   0.434  0.0892  0.3004 -0.1683
    1SOL     OW 1217   0.666   0.781   0.876 -0.1428 -0.5114 -0.1914
    1SOL    HW2 1218   0.742   0.822   0.836 -0.1436  0.0790  0.3940
    1SOL    HW3 1219   0.667   0.690   0.844  0.9050 -0.5566 -0.0377
    1SOL    MW4 1220   0.676   0.774   0.867 -0.0046 -0.4395 -0.0939
    1SOL     OW 1221   0.729   1.541   0.799 -0.1698 -0.5208 -0.3024
    1SOL    HW2 1222   0.796   1.600   0.766  0.1697 -0.4344  0.5194
    1SOL    HW3 1223   0.731   1.554   0.894 -0.5154 -1.4058 -0.1713
    1SOL    MW4 1224   0.738   1.550   0.808 -0.1706 -0.6261 -0.1766
    1SOL     OW 1225   3.831   2.034   0.771 -0.3600 -0.2728  0.3547
    1SOL    HW2 1226   3.858   2.043   0.680  0.1368 -0.5513  0.4715
    1SOL    HW3 1227   3.910   2.004   0.817 -0.8435 -1.0036  0.7196
    1SOL    MW4 1228   3.845   2.031   0.765 -0.3581 -0.4058  0.4182
    1SOL     OW 1229   1.371   2.509   0.440  0.0684 -0.1720 -0.0292
    1SOL    HW2 1230   1.452   2.469   0.410 -0.2924  0.8510 -2.4691
    1SOL    HW3 1231   1.395   2.599   0.463  0.1427 -0.6577  1.9574
    1SOL    MW4 1232   1.385   2.515   0.439  0.0306 -0.1011 -0.0890
    1SOL     OW 1233   2.862   0.482   0.779 -0.3169 -0.5432 -0.1504
    1SOL    HW2 1234   2.870   0.572   0.813 -0.5614 -0.1376 -1.1549
    1SOL    HW3 1235   2.942   0.438   0.809 -1.0905 -0.5459  1.9825
    1SOL    MW4 1236   2.874   0.488   0.788 -0.4516 -0.4901 -0.0015
    1SOL     OW 1237   3.347   3.998   0.537  0.0204 -0.1994 -0.5849
    1SOL    HW2 1238   3.360   3.916   0.488  0.6758 -0.2305 -0.3607
    1SOL    HW3 1239   3.391   3.983   0.621  1.2540  0.8462 -1.0337
    1SOL    MW4 1240   3.354   3.985   0.542  0.2692 -0.0653 -0.6145
    1SOL     OW 1241   0.216   4.332   0.726 -0.1498 -0.2848 -0.0450
    1SOL    HW2 1242   0.186   4.411   0.771 -0.7213 -0.2426 -0.4883
    1SOL    HW3 1243   0.144   4.270   0.736  0.1028 -0.5876 -0.1059
    1SOL    MW4 1244   0.203   4.335   0.733 -0.1919 -0.3195 -0.1115
    1SOL     OW 1245   1.366   1.753   0.422  0.4754  0.3894  0.1249
    1SOL    HW2 1246   1.325   1.670   0.398  0.6899  0.7749 -1.6220
    1SOL    HW3 1247   1.294   1.809   0.450 -0.3759  1.3544 -3.7685
    1SOL    MW4 1248   1.351   1.749   0.422  0.3912  0.5676 -0.6193
    1SOL     OW 1249   0.832   0.092   0.453  0.1220 -0.3713  0.1641
    1SOL    HW2 1250   0.915   0.141   0.454  0.0025 -0.1750  0.7835
    1SOL    HW3 1251   0.765   0.160   0.447 -0.0304 -0.4804  0.6137
    1SOL    MW4 1252   0.834   0.108   0.452  0.0861 -0.3598  0.3051
    1SOL     OW 1253   0.333   2.142   0.397  0.2295  0.0964  0.1689
    1SOL    HW2 1254   0.354   2.071   0.337  1.9370 -1.0629  2.0832
    1SOL    HW3 1255   0.244   2.123   0.427 -0.1996  0.0630 -1.0934
    1SOL    MW4 1256   0.324   2.130   0.393  0.3981 -0.0608  0.2550
    1SOL     OW 1257   1.918   2.992   0.360  0.1974  0.0536  0.0232
    1SOL    HW2 1258   1.962   2.916   0.397  1.1075  0.7215  0.3213
    1SOL    HW3 1259   1.972   3.067   0.386 -0.2195  0.7203 -0.9845
    1SOL    MW4 1260   1.931   2.992   0.368  0.2625  0.2298 -0.0704
    1SOL     OW 1261   2.521   1.427   0.514  0.1915 -0.6052  0.1389
    1SOL    HW2 1262   2.441   1.382   0.488  0.2333 -0.6732  0.1274
    1SOL    HW3 1263   2.591   1.375   0.475  0.3411 -1.6545  1.7980
    1SOL    MW4 1264   2.520   1.414   0.505  0.2167 -0.7527  0.3563
    1SOL     OW 1265   2.451   4.347   0.507 -0.3150 -0.2431  0.2909
    1SOL    HW2 1266   2.547   4.346   0.509 -0.3215  0.6045  2.1641
    1SOL    HW3 1267   2.427   4.264   0.466  1.2240 -0.5099 -0.0910
    1SOL    MW4 1268   2.461   4.336   0.502 -0.1130 -0.1664  0.4876
    1SOL     OW 1269   3.371   3.589   0.695 -0.0551 -0.3551  0.0453
    1SOL    HW2 1270   3.444   3.569   0.753 -0.6051 -1.3245  0.4163
    1SOL    HW3 1271   3.293   3.562   0.744 -0.5794 -0.4392 -0.8108
    1SOL    MW4 1272   3.370   3.583   0.709 -0.1967 -0.4935 -0.0187
    1SOL     OW 1273   4.240   1.902   0.470  0.2045  0.1506  0.2032
    1SOL    HW2 1274   4.254   1.943   0.555 -0.1127 -1.3151  0.9714
    1SOL    HW3 1275   4.220   1.975   0.411  1.6763  1.3074  1.0981
    1SOL    MW4 1276   4.239   1.917   0.473  0.3572  0.1099  0.4226
    1SOL     OW 1277   1.146   4.419   0.745  0.1212 -0.0754  0.2763
    1SOL    HW2 1278   1.156   4.410   0.650 -0.6850  1.1550  0.0711
    1SOL    HW3 1279   1.134   4.513   0.759  1.1522 -0.1458  1.6879
    1SOL    MW4 1280   1.146   4.430   0.734  0.1508  0.0782  0.4355
    1SOL     OW 1281   1.772   2.446   0.687  0.0405 -0.0866 -0.3006
    1SOL    HW2 1282   1.768   2.531   0.732 -0.6515  0.8642 -2.0985
    1SOL    HW3 1283   1.702   2.395   0.728  0.0144  0.4344  0.3265
    1SOL    MW4 1284   1.762   2.451   0.699 -0.0544  0.1075 -0.4551
    1SOL     OW 1285   1.560   0.049   0.852 -0.8113  0.0628  0.6465
    1SOL    HW2 1286   1.549   0.048   0.947 -1.0627  0.0822  0.6166
    1SOL    HW3 1287   1.576  -0.043   0.829  1.0501  0.2908  0.9204
    1SOL    MW4 1288   1.561   0.036   0.862 -0.5988  0.0954  0.6787
    1SOL     OW 1289   1.109   0.018   0.846 -0.3601 -0.2782 -0.2007
    1SOL    HW2 1290   1.177   0.077   0.812 -0.5504  0.5421  0.7868
    1SOL    HW3 1291   1.027   0.056   0.815 -0.3731 -1.2481 -1.3609
    1SOL    MW4 1292   1.107   0.031   0.838 -0.3870 -0.2980 -0.2235
    1SOL     OW 1293   1.308   0.409   0.879 -0.4798  0.6076 -0.0421
    1SOL    HW2 1294   1.317   0.418   0.974 -0.5270 -0.0591  0.0270
    1SOL    HW3 1295   1.379   0.463   0.844 -0.5836  1.0198  0.3638
    1SOL    MW4 1296   1.318   0.418   0.887 -0.4997  0.5741  0.0206
    1SOL     OW 1297   1.510   0.589   0.807  1.0611  0.1882  0.4985
    1SOL    HW2 1298   1.534   0.586   0.714 -1.9014  0.1822 -0.3443
    1SOL    HW3 1299   1.515   0.682   0.830  1.1772  0.2724  0.1389
    1SOL    MW4 1300   1.514   0.601   0.798  0.6857  0.1985  0.3399
    1SOL     OW 1301   3.311   1.686   0.496 -0.1058 -0.2518  0.3336
    1SOL    HW2 1302   3.329   1.779   0.485  0.3283 -0.5761 -1.8739
    1SOL    HW3 1303   3.396   1.643   0.483  0.1259 -0.8658  3.3223
    1SOL    MW4 1304   3.324   1.692   0.493 -0.0179 -0.3756  0.4367
    1SOL     OW 1305   0.876   0.896   0.743  0.0483 -0.2467 -0.2846
    1SOL    HW2 1306   0.882   0.899   0.647 -0.0117  0.5641 -0.2661
    1SOL    HW3 1307   0.961   0.861   0.771  0.2242 -0.0814 -0.6074
    1SOL    MW4 1308   0.888   0.891   0.734  0.0636 -0.1179 -0.3247
    1SOL     OW 1309   1.290   1.147   0.824 -0.4623  0.5074 -0.5489
    1SOL    HW2 1310   1.280   1.162   0.918 -0.5953  1.9514 -0.7877
    1SOL    HW3 1311   1.231   1.210   0.783  0.7978  1.0023 -1.6459
    1SOL    MW4 1312   1.281   1.157   0.831 -0.3134  0.7632 -0.7252
    1SOL     OW 1313   3.392   2.062   0.750  0.4840  0.5266 -0.4983
    1SOL    HW2 1314   3.391   2.037   0.658  1.2009 -0.1811 -0.3227
    1SOL    HW3 1315   3.460   2.008   0.789  0.6968  1.3491  0.3025
    1SOL    MW4 1316   3.401   2.052   0.743  0.6065  0.5417 -0.3695
    1SOL     OW 1317   1.147   4.277   0.209  0.3609 -0.1929  0.5330
    1SOL    HW2 1318   1.221   4.294   0.151  0.6479 -1.2647  0.5748
    1SOL    HW3 1319   1.162   4.188   0.242 -0.2365  0.0908  1.6022
    1SOL    MW4 1320   1.159   4.268   0.206  0.3200 -0.2966  0.6796
    1SOL     OW 1321   3.647   1.305   0.432 -0.3814  0.4808  0.4337
    1SOL    HW2 1322   3.683   1.276   0.348  0.5868  1.5855  0.4569
    1SOL    HW3 1323   3.555   1.279   0.428 -0.7960  2.0664 -1.7247
    1SOL    MW4 1324   3.639   1.298   0.420 -0.3083  0.8357  0.1520
    1SOL     OW 1325   1.903   1.523   0.316  0.3740 -0.1854  0.3888
    1SOL    HW2 1326   1.865   1.593   0.369  0.5423  0.7040 -0.6364
    1SOL    HW3 1327   1.829   1.467   0.293  0.1669 -0.1082  0.8594
    1SOL    MW4 1328   1.889   1.525   0.320  0.3688 -0.0578  0.3156
    1SOL     OW 1329   3.393   1.975   0.494  0.1085  0.1142  0.2681
    1SOL    HW2 1330   3.483   2.005   0.477 -0.0826  1.0364  0.8683
    1SOL    HW3 1331   3.338   2.044   0.459 -0.4094 -1.1183 -1.3892
    1SOL    MW4 1332   3.398   1.988   0.487  0.0150  0.0732  0.1287
    1SOL     OW 1333   3.787   4.047   0.448 -0.5231  0.1726  0.4062
    1SOL    HW2 1334   3.880   4.036   0.468 -0.3609  0.6533 -0.0609
    1SOL    HW3 1335   3.785   4.119   0.384 -1.1408 -0.4497 -0.2837
    1SOL    MW4 1336   3.799   4.055   0.442 -0.5834  0.1540  0.2535
    1SOL     OW 1337   1.099   3.689   0.723  0.0253 -0.4607  0.1887
    1SOL    HW2 1338   1.172   3.658   0.669  0.2064 -0.4972  0.4559
    1SOL    HW3 1339   1.063   3.609   0.762  0.0507 -0.4092  0.3177
    1SOL    MW4 1340   1.104   3.674   0.721  0.0525 -0.4585  0.2410
    1SOL     OW 1341   0.901   2.670   0.817  0.1854 -0.3562 -0.8065
    1SOL    HW2 1342   0.906   2.651   0.910  1.3872 -0.1437 -0.8196
    1SOL    HW3 1343   0.825   2.728   0.808  0.7914  0.6164  0.2122
    1SOL    MW4 1344   0.892   2.675   0.828  0.4239 -0.1998 -0.6738
    1SOL     OW 1345   1.562   2.803   0.711 -0.1508  0.1590 -0.1033
    1SOL    HW2 1346   1.561   2.895   0.737 -0.9977  0.3100 -0.6230
    1SOL    HW3 1347   1.487   2.764   0.756 -0.7372  0.0908 -1.1061
    1SOL    MW4 1348   1.552   2.810   0.720 -0.3400  0.1698 -0.3042
    1SOL     OW 1349   3.303   4.496   0.439 -0.0365 -0.0867 -0.2130
    1SOL    HW2 1350   3.228   4.555   0.435  0.9811  1.2547 -0.0030
    1SOL    HW3 1351   3.304   4.464   0.530  0.8222  1.4852  0.3475
    1SOL    MW4 1352   3.293   4.499   0.451  0.2110  0.2975 -0.1113
    1SOL     OW 1353   4.065   4.009   0.480  0.5040  0.3909  0.1970
    1SOL    HW2 1354   4.107   3.937   0.433  0.3102  0.0162  0.5974
    1SOL    HW3 1355   4.122   4.085   0.464  0.5541  0.2145 -0.4611
    1SOL    MW4 1356   4.078   4.010   0.472  0.4854  0.3185  0.1630
    1SOL     OW 1357   1.101   3.931   0.877  0.1511 -0.1971 -0.2347
    1SOL    HW2 1358   1.077   3.841   0.854 -0.2620 -0.1307 -0.0659
    1SOL    HW3 1359   1.112   3.930   0.972 -2.9140  0.6195  0.1844
    1SOL    MW4 1360   1.100   3.919   0.886 -0.3079 -0.0808 -0.1572
    1SOL     OW 1361   4.038   4.269   0.856  0.0275  0.2478  0.1948
    1SOL    HW2 1362   3.962   4.323   0.833 -0.7406 -0.3714  1.2452
    1SOL    HW3 1363   4.113   4.317   0.820 -0.8134  1.1069 -0.4341
    1SOL    MW4 1364   4.038   4.282   0.848 -0.1855  0.2789  0.2504
    1SOL     OW 1365   2.242   3.280   0.853  0.1188 -0.2673 -0.4151
    1SOL    HW2 1366   2.170   3.228   0.818  0.4629 -2.1080  1.5687
    1SOL    HW3 1367   2.318   3.222   0.851  0.6314  0.3168  1.3255
    1SOL    MW4 1368   2.243   3.266   0.848  0.2317 -0.4327  0.0764
    1SOL     OW 1369   2.284   1.669   0.754 -0.2376 -0.2201  0.7576
    1SOL    HW2 1370   2.368   1.628   0.773 -0.3589 -0.0021  1.7932
    1SOL    HW3 1371   2.293   1.759   0.785 -0.4205  0.1708 -0.2982
    1SOL    MW4 1372   2.296   1.675   0.761 -0.2778 -0.1397  0.7549
    1SOL     OW 1373   2.017   4.295   0.675 -0.3637 -0.4662 -0.4542
    1SOL    HW2 1374   1.990   4.386   0.668 -0.6676 -0.4942  0.2405
    1SOL    HW3 1375   1.957   4.257   0.740  1.7423 -0.3620  1.6199
    1SOL    MW4 1376   2.005   4.302   0.683 -0.1259 -0.4563 -0.0889
    1SOL     OW 1377   1.989   4.252   0.403 -0.1888  0.0081  0.0279
    1SOL    HW2 1378   1.896   4.229   0.403 -0.5127  1.2239 -0.8914
    1SOL    HW3 1379   2.011   4.265   0.495 -1.2226  0.7694  0.1857
    1SOL    MW4 1380   1.980   4.251   0.415 -0.3679  0.2689 -0.0726
    1SOL     OW 1381   2.459   4.645   0.883 -0.2582  0.1499  0.2624
    1SOL    HW2 1382   2.465   4.650   0.978  2.6997 -1.0897  0.1714
    1SOL    HW3 1383   2.437   4.554   0.865  1.3012 -0.1317 -0.2978
    1SOL    MW4 1384   2.457   4.634   0.893  0.3376 -0.0505  0.1764
    1SOL     OW 1385   1.977   3.396   0.275  0.1579  0.2521  0.2716
    1SOL    HW2 1386   1.884   3.417   0.281  0.0787  0.2318 -0.8183
    1SOL    HW3 1387   1.984   3.341   0.197  0.7320 -1.7015  1.6720
    1SOL    MW4 1388   1.965   3.392   0.265  0.2233 -0.0081  0.3126
    1SOL     OW 1389   1.744   0.455   0.856 -0.1215  0.3120 -0.3789
    1SOL    HW2 1390   1.663   0.504   0.842 -0.1977  0.4119  0.3467
    1SOL    HW3 1391   1.728   0.370   0.817 -0.9709 -0.0199  0.6603
    1SOL    MW4 1392   1.731   0.450   0.849 -0.2437  0.2814 -0.1461
    1SOL     OW 1393   3.755   0.030   0.349  0.4434 -0.2996 -0.2012
    1SOL    HW2 1394   3.785   0.118   0.373 -0.4477  0.1245 -0.6248
    1SOL    HW3 1395   3.663   0.027   0.375  0.4750 -1.1152 -0.1622
    1SOL    MW4 1396   3.747   0.041   0.355  0.3302 -0.3512 -0.2519
    1SOL     OW 1397   3.215   4.243   0.365  0.1942  0.3118 -0.4839
    1SOL    HW2 1398   3.240   4.335   0.381  0.8730  0.2741 -1.2901
    1SOL    HW3 1399   3.298   4.200   0.344  0.2000 -0.9505  1.9730
    1SOL    MW4 1400   3.229   4.250   0.364  0.2844  0.1402 -0.2661
    1SOL     OW 1401   1.588   3.086   0.828 -0.0443 -0.1558  0.0140
    1SOL    HW2 1402   1.593   3.090   0.923  0.4801 -0.7965  0.0144
    1SOL    HW3 1403   1.503   3.126   0.807 -0.9317 -1.5498  0.8646
    1SOL    MW4 1404   1.577   3.092   0.838 -0.0921 -0.4241  0.1262
    1SOL     OW 1405   3.703   3.774   0.405  0.0500 -0.1130  0.9670
    1SOL    HW2 1406   3.726   3.866   0.417  0.8409 -0.3054  0.9148
    1SOL    HW3 1407   3.608   3.771   0.418 -0.1503  0.9047 -0.2072
    1SOL    MW4 1408   3.693   3.786   0.409  0.1280 -0.0041  0.8052
    1SOL     OW 1409   1.706   3.153   0.431 -0.0650  0.5618  0.2631
    1SOL    HW2 1410   1.772   3.087   0.412 -0.0130  0.6897 -0.0058
    1SOL    HW3 1411   1.624   3.104   0.435 -0.0123  0.4666  0.1749
    1SOL    MW4 1412   1.704   3.138   0.429 -0.0511  0.5662  0.2159
    1SOL     OW 1413   2.537   1.550   0.874  0.4058 -0.2007 -0.1150
    1SOL    HW2 1414   2.535   1.459   0.844  1.0733  0.2901 -1.7089
    1SOL    HW3 1415   2.611   1.589   0.827  0.3918  1.0604  0.8872
    1SOL    MW4 1416   2.547   1.543   0.864  0.4919  0.0305 -0.1929
    1SOL     OW 1417   4.065   4.013   0.756  0.2488 -0.1346 -0.3670
    1SOL    HW2 1418   4.058   4.018   0.661 -0.0263  0.0401 -0.3374
    1SOL    HW3 1419   4.068   4.104   0.785  2.7565 -0.1766 -0.3847
    1SOL    MW4 1420   4.065   4.025   0.747  0.5431 -0.1168 -0.3654
    1SOL     OW 1421   1.691   2.775   0.325  0.3591  0.0572 -0.0084
    1SOL    HW2 1422   1.748   2.849   0.302  0.1647 -0.2326 -1.4885
    1SOL    HW3 1423   1.747   2.717   0.377  0.4734  1.3030  1.2594
    1SOL    MW4 1424   1.706   2.777   0.329  0.3487  0.1833 -0.0364
    1SOL     OW 1425   3.996   1.790   0.501 -0.6240 -0.2991  0.0409
    1SOL    HW2 1426   4.002   1.740   0.583  0.0203  0.8073  0.6691
    1SOL    HW3 1427   4.087   1.812   0.480 -0.6596 -1.6781 -1.6656
    1SOL    MW4 1428   4.009   1.786   0.509 -0.5436 -0.3351 -0.1014
    1SOL     OW 1429   1.618   2.381   0.372  0.0797  0.2154  0.2065
    1SOL    HW2 1430   1.699   2.407   0.329  0.0429  0.9767  0.5954
    1SOL    HW3 1431   1.645   2.353   0.460 -0.2895  2.1767  0.9593
    1SOL    MW4 1432   1.632   2.380   0.378  0.0261  0.5746  0.3572
    1SOL     OW 1433   3.591   1.130   0.793  0.2649  0.4599 -0.1535
    1SOL    HW2 1434   3.600   1.036   0.782  0.6169  0.5266 -0.4595
    1SOL    HW3 1435   3.575   1.143   0.886  0.7135  0.1334 -0.0317
    1SOL    MW4 1436   3.590   1.120   0.804  0.3705  0.4255 -0.1779
    1SOL     OW 1437   1.180   4.036   0.331  0.1351  0.1617  0.1642
    1SOL    HW2 1438   1.108   4.043   0.393  0.2336 -0.4639  0.3496
    1SOL    HW3 1439   1.252   3.998   0.381 -0.1041 -1.3346 -0.5704
    1SOL    MW4 1440   1.180   4.032   0.345  0.1165 -0.1183  0.0917
    1SOL     OW 1441   1.118   2.088   0.708  0.0364 -0.1370 -0.3752
    1SOL    HW2 1442   1.060   2.035   0.763  0.2926 -0.2904 -0.2505
    1SOL    HW3 1443   1.205   2.049   0.721  0.0589 -0.3127 -1.0597
    1SOL    MW4 1444   1.122   2.076   0.717  0.0732 -0.1805 -0.4491
    1SOL     OW 1445   3.281   0.221   0.344 -0.3061 -0.5292  0.1187
    1SOL    HW2 1446   3.360   0.169   0.359 -0.4001 -0.2789  1.5447
    1SOL    HW3 1447   3.209   0.158   0.357 -0.3712 -0.6014 -0.5427
    1SOL    MW4 1448   3.282   0.206   0.348 -0.3271 -0.5057  0.2196
    1SOL     OW 1449   3.247   3.142   0.539  0.1318  0.3089  0.1916
    1SOL    HW2 1450   3.292   3.058   0.552 -0.7831 -0.4187 -1.2209
    1SOL    HW3 1451   3.316   3.203   0.515  0.6943 -0.2352  0.4116
    1SOL    MW4 1452   3.262   3.139   0.537  0.0851  0.1411  0.0343
    1SOL     OW 1453   1.822   3.492   0.761  0.1334 -0.0826  0.1808
    1SOL    HW2 1454   1.806   3.483   0.855 -1.2186  0.4963  0.0211
    1SOL    HW3 1455   1.825   3.402   0.729 -1.0068 -0.2565  0.5382
    1SOL    MW4 1456   1.820   3.479   0.769 -0.1953 -0.0291  0.2069
    1SOL     OW 1457   0.812   3.089   0.448  0.3022 -0.8131  0.3104
    1SOL    HW2 1458   0.741   3.153   0.442  1.3115  0.4164  1.1591
    1SOL    HW3 1459   0.769   3.004   0.436 -1.4291 -0.1491  1.5794
    1SOL    MW4 1460   0.797   3.086   0.446  0.2069 -0.5631  0.5898
    1SOL     OW 1461   1.991   1.937   9.993  0.9305 -0.6791  0.0370
    1SOL    HW2 1462   1.932   1.896   9.930  0.4315  1.7314 -1.1204
    1SOL    HW3 1463   1.933   1.988  10.050  1.6313 -0.6752  0.7486
    1SOL    MW4 1464   1.975   1.938   9.992  0.9570 -0.3606 -0.0229
    1SOL     OW 1465   0.867   0.370   0.870 -0.1459 -0.0313  0.2404
    1SOL    HW2 1466   0.882   0.280   0.845  0.5610 -0.0456  0.7086
    1SOL    HW3 1467   0.881   0.372   0.965  0.5073  0.7021  0.1390
    1SOL    MW4 1468   0.871   0.359   0.879  0.0335  0.0636  0.2888
    1SOL     OW 1469   4.487   3.830   0.451 -0.2737  0.4674  0.0410
    1SOL    HW2 1470   4.491   3.855   0.544 -1.1701  1.1049 -0.0812
    1SOL    HW3 1471   4.547   3.757   0.443  1.5474  1.8525  0.6691
    1SOL    MW4 1472   4.495   3.824   0.463 -0.1517  0.7343  0.1078
    1SOL     OW 1473   1.821   0.207   0.462 -0.1668  0.5169  0.1675
    1SOL    HW2 1474   1.902   0.257   0.451  0.6664 -0.9483 -0.4291
    1SOL    HW3 1475   1.800   0.216   0.555 -0.4833  2.6433 -0.0713
    1SOL    MW4 1476   1.829   0.215   0.473 -0.0987  0.6042  0.0574
    1SOL     OW 1477   0.401   1.922   0.261 -0.5811  0.0238 -0.2189
    1SOL    HW2 1478   0.370   1.834   0.283 -1.0003 -0.4109 -2.3945
    1SOL    HW3 1479   0.495   1.920   0.280 -0.5297 -1.0021 -0.5542
    1SOL    MW4 1480   0.410   1.910   0.266 -0.6296 -0.1689 -0.5501
    1SOL     OW 1481   2.247   0.382   1.150 -0.5677 -0.5340 -0.0565
    1SOL    HW2 1482   2.254   0.410   1.059 -0.2945  0.0304  0.1314
    1SOL    HW3 1483   2.158   0.408   1.176 -0.7366 -0.9267 -0.2343
    1SOL    MW4 1484   2.236   0.389   1.141 -0.5541 -0.5113 -0.0551
    1SOL     OW 1485   4.263   0.496   0.726  0.4278  0.0967  0.3516
    1SOL    HW2 1486   4.261   0.498   0.630 -0.6869 -1.7792  0.3164
    1SOL    HW3 1487   4.345   0.451   0.747 -0.6322 -1.9674  0.2028
    1SOL    MW4 1488   4.274   0.490   0.716  0.1411 -0.4231  0.3272
    1SOL     OW 1489   2.456   0.678   0.247 -0.1452  0.1419  0.3317
    1SOL    HW2 1490   2.493   0.624   0.317 -0.9347  0.3077  0.8820
    1SOL    HW3 1491   2.492   0.765   0.262  0.9127 -0.1670 -0.3933
    1SOL    MW4 1492   2.465   0.682   0.258 -0.1099  0.1230  0.3087
    1SOL     OW 1493   2.730   1.270   0.398 -0.0238 -0.3487 -0.1896
    1SOL    HW2 1494   2.675   1.242   0.325  0.0632 -1.6148  0.2247
    1SOL    HW3 1495   2.752   1.189   0.444 -0.6070  0.4892  1.6081
    1SOL    MW4 1496   2.726   1.256   0.395 -0.0894 -0.4052  0.1023
    1SOL     OW 1497   2.499   1.289   0.758 -0.0578  0.2342 -0.4282
    1SOL    HW2 1498   2.495   1.318   0.667 -1.0110  0.7276 -0.2293
    1SOL    HW3 1499   2.417   1.241   0.771  0.2133 -0.0880  0.0924
    1SOL    MW4 1500   2.488   1.286   0.747 -0.1476  0.2568 -0.3333
    1SOL     OW 1501   2.239   1.173   0.800  0.0814  0.1298 -0.1292
    1SOL    HW2 1502   2.237   1.079   0.780  0.2438  0.1600 -0.2919
    1SOL    HW3 1503   2.224   1.178   0.894 -1.3190  0.0242 -0.3406
    1SOL    MW4 1504   2.237   1.161   0.810 -0.0818  0.1199 -0.1786
    1SOL     OW 1505   1.588   1.545   0.812  0.0173  0.3890  0.0035
    1SOL    HW2 1506   1.596   1.528   0.906  0.4777  1.1290  0.1036
    1SOL    HW3 1507   1.549   1.466   0.776  0.1434 -0.0245  0.7752
    1SOL    MW4 1508   1.584   1.533   0.819  0.0948  0.4321  0.1185
    1SOL     OW 1509   3.083   0.890   0.748  0.1529 -0.0538  0.3734
    1SOL    HW2 1510   3.169   0.868   0.784  0.9020  2.2577  0.0737
    1SOL    HW3 1511   3.067   0.979   0.779 -1.7017 -0.1111 -0.4059
    1SOL    MW4 1512   3.093   0.899   0.757  0.0072  0.2436  0.2310
    1SOL     OW 1513   1.331   0.618   0.408  0.4569 -0.3417  0.0479
    1SOL    HW2 1514   1.252   0.565   0.413 -1.5081  2.4021 -1.0322
    1SOL    HW3 1515   1.373   0.590   0.327  0.2361 -1.2856  0.2476
    1SOL    MW4 1516   1.326   0.607   0.398  0.1687 -0.1042 -0.0683
    1SOL     OW 1517   2.276   1.931   0.829  0.5909 -0.1861 -0.3339
    1SOL    HW2 1518   2.202   1.990   0.816  0.9049  0.3046  0.0895
    1SOL    HW3 1519   2.349   1.974   0.785  0.9480  0.0046  0.4378
    1SOL    MW4 1520   2.276   1.944   0.821  0.6795 -0.0962 -0.1763
    1SOL     OW 1521   2.165   4.051   0.466 -0.5603  0.1451  0.0958
    1SOL    HW2 1522   2.130   3.963   0.453  0.9891 -0.2624 -1.3344
    1SOL    HW3 1523   2.096   4.109   0.434 -1.3615 -0.5393  0.5491
    1SOL    MW4 1524   2.151   4.047   0.460 -0.4613  0.0010 -0.0331
    1SOL     OW 1525   3.374   2.893   0.592  0.3283 -0.5654 -0.1014
    1SOL    HW2 1526   3.376   2.892   0.688 -1.5103  1.2803 -0.0077
    1SOL    HW3 1527   3.330   2.812   0.568 -2.4391  0.6094  0.7933
    1SOL    MW4 1528   3.369   2.883   0.602 -0.2794 -0.1671  0.0290
    1SOL     OW 1529   2.281   2.466   0.684  0.3222  0.0716 -0.1748
    1SOL    HW2 1530   2.203   2.422   0.718  0.0383  0.5097 -0.2594
    1SOL    HW3 1531   2.294   2.541   0.742  0.3463  0.3239 -0.5012
    1SOL    MW4 1532   2.273   2.470   0.696  0.2880  0.1628 -0.2290
    1SOL     OW 1533   2.308   2.693   0.847  0.1793 -0.1930 -0.0810
    1SOL    HW2 1534   2.304   2.712   0.941  1.2520 -0.8337  0.0998
    1SOL    HW3 1535   2.376   2.752   0.814  1.5179 -1.6790 -0.0184
    1SOL    MW4 1536   2.316   2.703   0.855  0.4973 -0.4735 -0.0488
    1SOL     OW 1537   1.829   4.595   0.441  0.2089  0.5745 -0.2445
    1SOL    HW2 1538   1.889   4.578   0.368  0.0364 -2.2266  0.2388
    1SOL    HW3 1539   1.807   4.688   0.432  0.9109  0.5032 -3.2239
    1SOL    MW4 1540   1.834   4.605   0.430  0.2787  0.1955 -0.5739
    1SOL     OW 1541   1.793   4.270   0.859 -0.1530  0.2250 -0.1747
    1SOL    HW2 1542   1.796   4.262   0.955  0.8230 -0.4503 -0.2527
    1SOL    HW3 1543   1.763   4.185   0.829 -0.5642  0.4742 -0.4718
    1SOL    MW4 1544   1.789   4.258   0.868 -0.0784  0.1688 -0.2242
    1SOL     OW 1545   2.202   3.568   0.333 -0.4203  0.1698  0.5273
    1SOL    HW2 1546   2.242   3.491   0.372 -0.5763  0.0442  0.4374
    1SOL    HW3 1547   2.125   3.535   0.286  0.6383  0.1097 -1.2087
    1SOL    MW4 1548   2.197   3.554   0.332 -0.3014  0.1454  0.2864
    1SOL     OW 1549   3.258   2.642   0.560 -0.2009 -0.1328 -0.1270
    1SOL    HW2 1550   3.256   2.581   0.634 -0.8626 -1.3241 -1.1014
    1SOL    HW3 1551   3.301   2.593   0.490  1.1329  1.2572 -0.3064
    1SOL    MW4 1552   3.263   2.627   0.561 -0.1123 -0.1068 -0.2793
    1SOL     OW 1553   1.449   3.794   0.128  0.3039 -0.3422  0.4141
    1SOL    HW2 1554   1.496   3.862   0.175  1.4074 -1.2173  0.5887
    1SOL    HW3 1555   1.474   3.807   0.036 -0.4834  0.2736  0.2809
    1SOL    MW4 1556   1.458   3.805   0.122  0.3457 -0.3765  0.4195
    1SOL     OW 1557   1.750   4.020   0.732  0.0949  0.4269 -0.6050
    1SOL    HW2 1558   1.827   3.973   0.762  0.1628  1.7837  1.4552
    1SOL    HW3 1559   1.675   3.969   0.763  0.1407 -0.1114 -1.3494
    1SOL    MW4 1560   1.750   4.007   0.740  0.1099  0.5345 -0.4314
    1SOL     OW 1561   3.051   3.984   0.692 -0.3120  0.2996 -0.4392
    1SOL    HW2 1562   2.977   3.936   0.728  0.0277 -0.2565 -0.4760
    1SOL    HW3 1563   3.128   3.946   0.735 -0.1563  1.9849  0.8308
    1SOL    MW4 1564   3.052   3.973   0.702 -0.2463  0.4485 -0.2765
    1SOL     OW 1565   2.221   2.247   0.351 -0.2433 -0.5782  0.0465
    1SOL    HW2 1566   2.257   2.334   0.369  0.9836 -0.6848 -1.7619
    1SOL    HW3 1567   2.297   2.189   0.352 -0.6124 -1.1245 -1.8785
    1SOL    MW4 1568   2.236   2.251   0.354 -0.1302 -0.6642 -0.4461
    1SOL     OW 1569   2.296   1.271   0.424 -0.5707 -0.3714  0.1481
    1SOL    HW2 1570   2.210   1.311   0.438 -0.2826  0.2332  0.2160
    1SOL    HW3 1571   2.281   1.177   0.434 -1.2788 -0.2864 -0.1210
    1SOL    MW4 1572   2.283   1.264   0.427 -0.6261 -0.2804  0.1215
    1SOL     OW 1573   2.883   0.733   0.895  0.1386 -0.0925  0.4517
    1SOL    HW2 1574   2.890   0.741   0.990  2.1589  1.3467  0.2102
    1SOL    HW3 1575   2.965   0.769   0.862 -0.1421 -1.4746 -1.8093
    1SOL    MW4 1576   2.895   0.739   0.903  0.3681 -0.0849  0.1215
    1SOL     OW 1577   2.974   3.906   0.369  0.4350 -0.1595 -0.0500
    1SOL    HW2 1578   2.953   3.814   0.388  1.0113 -0.3829 -0.4671
    1SOL    HW3 1579   2.891   3.952   0.380 -0.1417 -0.9267 -1.0682
    1SOL    MW4 1580   2.960   3.900   0.373  0.4349 -0.2902 -0.2394
    1SOL     OW 1581   2.480   0.768   0.845 -0.3003 -0.4175 -0.0035
    1SOL    HW2 1582   2.563   0.811   0.823 -0.4538  0.1767  0.5703
    1SOL    HW3 1583   2.480   0.688   0.793  0.3204 -0.0773 -0.5363
    1SOL    MW4 1584   2.491   0.763   0.835 -0.2389 -0.2941  0.0020
    1SOL     OW 1585   1.879   1.116   0.313 -0.4173  0.0211  0.1081
    1SOL    HW2 1586   1.837   1.050   0.368  2.1251 -1.4145  0.3840
    1SOL    HW3 1587   1.927   1.066   0.248  0.9078  1.6032 -0.1578
    1SOL    MW4 1588   1.880   1.101   0.312  0.0931  0.0405  0.1094
    1SOL     OW 1589   3.295   0.518   0.436  0.1414  0.7401  0.0260
    1SOL    HW2 1590   3.206   0.547   0.417  0.9467  1.0024 -3.6902
    1SOL    HW3 1591   3.297   0.427   0.406  0.9328  0.5129  0.7517
    1SOL    MW4 1592   3.283   0.510   0.429  0.3521  0.7447 -0.3686
    1SOL     OW 1593   1.160   2.767   0.463 -0.1198 -0.8741 -0.1891
    1SOL    HW2 1594   1.250   2.768   0.430 -0.6057  0.6777 -1.5022
    1SOL    HW3 1595   1.123   2.851   0.435 -0.7295  0.3181  3.8411
    1SOL    MW4 1596   1.167   2.778   0.455 -0.2644 -0.5121  0.1694
    1SOL     OW 1597   3.260   2.179   0.344 -0.1419  0.3249  0.0068
    1SOL    HW2 1598   3.290   2.266   0.370 -0.4239  0.6815 -0.8332
    1SOL    HW3 1599   3.165   2.185   0.345 -0.1598  0.2374 -0.7257
    1SOL    MW4 1600   3.252   2.191   0.348 -0.1814  0.3605 -0.2007
    1SOL     OW 1601   2.728   1.702   0.761 -0.2619 -0.1006 -0.1720
    1SOL    HW2 1602   2.751   1.711   0.668  0.1823 -1.0425 -0.1506
    1SOL    HW3 1603   2.728   1.792   0.794  1.6345  0.0821 -0.5989
    1SOL    MW4 1604   2.731   1.715   0.753  0.0465 -0.2007 -0.2255
    1SOL     OW 1605   3.164   1.669   0.749 -0.0042  0.4381  0.3445
    1SOL    HW2 1606   3.210   1.670   0.665 -0.6935  0.1992 -0.0410
    1SOL    HW3 1607   3.153   1.762   0.771  0.0035  0.5057  0.0701
    1SOL    MW4 1608   3.169   1.682   0.740 -0.0939  0.4154  0.2575
    1SOL     OW 1609   4.484   0.124   0.599  0.1607 -0.3025  0.2365
    1SOL    HW2 1610   4.392   0.101   0.588 -0.1693  0.9331  0.2770
    1SOL    HW3 1611   4.483   0.189   0.669  1.0796 -0.3707  0.3101
    1SOL    MW4 1612   4.471   0.130   0.607  0.2389 -0.1485  0.2515
    1SOL     OW 1613   1.860   2.592   0.447 -0.3164 -0.2456  0.3401
    1SOL    HW2 1614   1.828   2.530   0.513 -1.2766  0.2516  0.3398
    1SOL    HW3 1615   1.884   2.537   0.372 -0.2839 -0.6995  0.6803
    1SOL    MW4 1616   1.859   2.576   0.446 -0.4388 -0.2398  0.3849
    1SOL     OW 1617   2.719   1.164   0.854 -0.0526  0.1204 -0.8668
    1SOL    HW2 1618   2.790   1.221   0.822 -0.8271  0.8675 -1.2877
    1SOL    HW3 1619   2.640   1.198   0.810 -0.9239  0.3069  0.8074
    1SOL    MW4 1620   2.718   1.176   0.844 -0.2697  0.2435 -0.7014
    1SOL     OW 1621   2.968   2.337   0.805 -0.2388 -0.3391 -0.1603
    1SOL    HW2 1622   2.943   2.342   0.897 -0.4416 -1.1766 -0.1628
    1SOL    HW3 1623   2.968   2.243   0.785 -0.9546 -0.1287 -1.2197
    1SOL    MW4 1624   2.964   2.325   0.814 -0.3598 -0.4220 -0.3004
    1SOL     OW 1625   2.720   2.462   0.759 -0.1696  0.2625 -0.3093
    1SOL    HW2 1626   2.812   2.438   0.751  0.1384  1.7465 -1.4056
    1SOL    HW3 1627   2.721   2.547   0.803 -1.0738 -0.1224  0.4831
    1SOL    MW4 1628   2.732   2.470   0.764 -0.2482  0.4072 -0.3494
    1SOL     OW 1629   2.733   2.735   0.853  0.1591  0.4670 -0.0813
    1SOL    HW2 1630   2.819   2.773   0.834  0.0180  0.3874 -0.8991
    1SOL    HW3 1631   2.732   2.724   0.948  1.0814  0.3941 -0.0750
    1SOL    MW4 1632   2.744   2.739   0.863  0.2620  0.4470 -0.1884
    1SOL     OW 1633   1.098   1.303   0.698  0.5957  0.4925 -0.0004
    1SOL    HW2 1634   1.016   1.257   0.717  1.7293 -0.8505  1.7601
    1SOL    HW3 1635   1.078   1.355   0.619 -1.9950  0.3641  0.5103
    1SOL    MW4 1636   1.084   1.304   0.690  0.4035  0.2984  0.2993
    1SOL     OW 1637   1.516   1.256   0.439 -0.0773  0.4083  0.1062
    1SOL    HW2 1638   1.577   1.292   0.375  0.7882  0.0167  0.6908
    1SOL    HW3 1639   1.496   1.169   0.406  0.1245  0.3262  0.1942
    1SOL    MW4 1640   1.522   1.249   0.426  0.0634  0.3459  0.1949
    1SOL     OW 1641   2.484   3.130   0.862  0.2529  0.1482  0.1567
    1SOL    HW2 1642   2.567   3.161   0.826  0.8544 -0.6570  0.8184
    1SOL    HW3 1643   2.501   3.119   0.956 -0.6608  0.1672  0.3287
    1SOL    MW4 1644   2.497   3.132   0.870  0.2115  0.0443  0.2667
    1SOL     OW 1645   2.708   3.461   0.847  0.2162  0.1224  0.4140
    1SOL    HW2 1646   2.784   3.511   0.818  1.3453 -1.8513 -0.1252
    1SOL    HW3 1647   2.707   3.471   0.942  0.5599  0.9688  0.3303
    1SOL    MW4 1648   2.718   3.469   0.856  0.4108 -0.0267  0.3318
    1SOL     OW 1649   2.911   3.595   0.729  0.1985  0.5128 -0.1690
    1SOL    HW2 1650   2.991   3.559   0.769  0.0360  0.6502  0.2786
    1SOL    HW3 1651   2.899   3.680   0.771 -1.1219 -0.2260  1.0013
    1SOL    MW4 1652   2.920   3.601   0.740  0.0026  0.4334  0.0445
    1SOL     OW 1653   2.547   2.946   0.461  0.7573 -0.4104  0.0679
    1SOL    HW2 1654   2.516   2.909   0.544  1.2551 -1.4726 -0.2108
    1SOL    HW3 1655   2.643   2.943   0.468  0.8048 -0.8940 -0.7040
    1SOL    MW4 1656   2.556   2.941   0.473  0.8292 -0.6144 -0.0707
    1SOL     OW 1657   0.674   4.373   0.523 -0.3131 -0.2747 -0.5163
    1SOL    HW2 1658   0.673   4.392   0.617 -2.4356  0.5236 -0.6701
    1SOL    HW3 1659   0.750   4.421   0.489 -0.1362  0.2635  0.6255
    1SOL    MW4 1660   0.684   4.382   0.531 -0.5698 -0.0982 -0.3859
    1SOL     OW 1661   2.656   4.060   0.734  0.5726 -0.1936  0.4718
    1SOL    HW2 1662   2.666   4.149   0.768 -1.3642  1.1212 -2.1524
    1SOL    HW3 1663   2.586   4.022   0.787  0.0644  0.5606  0.3575
    1SOL    MW4 1664   2.648   4.067   0.745  0.2499  0.0792  0.1105
    1SOL     OW 1665   2.914   1.330   0.748  0.1346 -0.4349 -0.0815
    1SOL    HW2 1666   2.900   1.414   0.791  0.3608 -0.6366  0.3962
    1SOL    HW3 1667   2.993   1.294   0.791 -1.3186 -1.9665  1.3904
    1SOL    MW4 1668   2.923   1.336   0.760 -0.0272 -0.6635  0.1757
    1SOL     OW 1669   2.006   0.584   0.803 -0.0178 -0.1437  0.2421
    1SOL    HW2 1670   1.918   0.548   0.817  0.0371  0.1879  1.5149
    1SOL    HW3 1671   2.000   0.675   0.834  0.1247  0.6405 -1.9629
    1SOL    MW4 1672   1.993   0.591   0.809  0.0082  0.0035  0.1191
    1SOL     OW 1673   2.256   0.402   0.193  0.0093 -0.3504  0.2593
    1SOL    HW2 1674   2.328   0.381   0.253  1.5292  1.0051 -1.0227
    1SOL    HW3 1675   2.286   0.480   0.147 -2.4204  0.3748 -0.1400
    1SOL    MW4 1676   2.270   0.410   0.195 -0.1106 -0.0759  0.0375
    1SOL     OW 1677   1.148   2.327   0.369 -0.2407 -0.6102  0.0030
    1SOL    HW2 1678   1.168   2.253   0.312 -0.9422  0.5527 -1.7990
    1SOL    HW3 1679   1.231   2.374   0.378 -0.1469 -0.7566 -0.1067
    1SOL    MW4 1680   1.162   2.324   0.363 -0.3208 -0.4761 -0.2492
    1SOL     OW 1681   3.104   0.364   0.797 -0.0778  0.4187  0.1598
    1SOL    HW2 1682   3.120   0.359   0.891 -0.0224 -0.0940  0.1275
    1SOL    HW3 1683   3.164   0.430   0.765  0.2831  0.2102  0.4037
    1SOL    MW4 1684   3.114   0.372   0.806 -0.0229  0.3235  0.1877
    1SOL     OW 1685   2.921   2.479   0.411  0.3584 -0.0217 -0.7447
    1SOL    HW2 1686   2.973   2.399   0.405  0.4800 -0.0193  0.1532
    1SOL    HW3 1687   2.831   2.448   0.422  0.6867 -0.0918  2.1892
    1SOL    MW4 1688   2.916   2.465   0.412  0.4177 -0.0303 -0.2391
    1SOL     OW 1689   2.468   0.534   0.735  0.0464  0.5835 -0.7771
    1SOL    HW2 1690   2.386   0.518   0.782 -0.2383  0.7638 -1.2054
    1SOL    HW3 1691   2.536   0.500   0.793 -0.1529  2.3660  0.5201
    1SOL    MW4 1692   2.466   0.527   0.749 -0.0179  0.8425 -0.6624
    1SOL     OW 1693   3.819   4.412   0.741 -0.1858 -0.0858 -0.1153
    1SOL    HW2 1694   3.740   4.358   0.750 -0.4381  0.1721 -0.7562
    1SOL    HW3 1695   3.827   4.427   0.646  0.5632 -0.0110 -0.0403
    1SOL    MW4 1696   3.809   4.407   0.729 -0.1202 -0.0420 -0.1900
    1SOL     OW 1697   3.321   1.484   0.876  0.2108 -0.1390 -0.1728
    1SOL    HW2 1698   3.272   1.539   0.816 -0.8483 -0.3705  0.4703
    1SOL    HW3 1699   3.308   1.524   0.962  0.9732 -0.3213  0.0344
    1SOL    MW4 1700   3.313   1.496   0.880  0.1717 -0.1937 -0.0606
    1SOL     OW 1701   2.268   0.896   0.730  0.2712  0.3712 -0.0426
    1SOL    HW2 1702   2.300   0.920   0.642 -0.8448 -0.6147 -0.7349
    1SOL    HW3 1703   2.346   0.865   0.776  0.4045 -1.9612 -1.7074
    1SOL    MW4 1704   2.283   0.895   0.724  0.1416 -0.0665 -0.3536
    1SOL     OW 1705   3.594   0.868   0.730 -0.2049 -0.1447  0.1938
    1SOL    HW2 1706   3.570   0.813   0.656 -0.5224  0.7523 -0.3749
    1SOL    HW3 1707   3.662   0.818   0.776 -0.4330 -0.9691 -0.3581
    1SOL    MW4 1708   3.600   0.854   0.726 -0.2770 -0.1351  0.0460
    1SOL     OW 1709   3.391   2.444   0.401 -0.7707 -0.3581 -0.3580
    1SOL    HW2 1710   3.445   2.472   0.327 -1.9720  1.9782 -0.4131
    1SOL    HW3 1711   3.453   2.408   0.464  0.3822 -1.4255 -2.0575
    1SOL    MW4 1712   3.406   2.443   0.399 -0.7772 -0.1907 -0.5895
    1SOL     OW 1713   1.556   3.858   0.847  0.0075  0.2205 -0.1895
    1SOL    HW2 1714   1.485   3.916   0.821 -0.0352 -0.1924 -1.0097
    1SOL    HW3 1715   1.553   3.786   0.784  0.4959 -0.3218  0.3985
    1SOL    MW4 1716   1.547   3.856   0.835  0.0663  0.0947 -0.2201
    1SOL     OW 1717   3.826   0.273   0.460 -0.1836 -0.5140  0.0956
    1SOL    HW2 1718   3.788   0.359   0.442 -0.8730 -0.8938 -0.2716
    1SOL    HW3 1719   3.918   0.281   0.432 -0.0681  0.2989  0.6739
    1SOL    MW4 1720   3.833   0.285   0.454 -0.2592 -0.4568  0.1234
    1SOL     OW 1721   3.630   3.256   0.804 -0.3457 -0.3239  0.2525
    1SOL    HW2 1722   3.644   3.259   0.710 -0.7306 -0.3564  0.1922
    1SOL    HW3 1723   3.536   3.237   0.814 -0.0664 -1.5959  0.6319
    1SOL    MW4 1724   3.619   3.254   0.793 -0.3593 -0.4961  0.2946
    1SOL     OW 1725   2.970   2.849   0.751  0.1664  0.1143  0.1664
    1SOL    HW2 1726   3.036   2.797   0.798  0.0095  0.0908  0.3623
    1SOL    HW3 1727   2.968   2.812   0.663 -1.2310 -1.3923  0.8143
    1SOL    MW4 1728   2.978   2.837   0.746 -0.0389 -0.0875  0.2777
    1SOL     OW 1729   1.804   1.703   0.726  0.5322 -0.0174  0.8288
    1SOL    HW2 1730   1.734   1.643   0.751  0.5297 -0.1019  0.6204
    1SOL    HW3 1731   1.883   1.666   0.766  0.6063 -0.3992  0.3494
    1SOL    MW4 1732   1.805   1.690   0.734  0.5414 -0.0790  0.7380
    1SOL     OW 1733   1.455   3.525   0.333 -0.2252 -0.1538 -0.2519
    1SOL    HW2 1734   1.447   3.602   0.277  1.0431  0.5629  0.5205
    1SOL    HW3 1735   1.391   3.540   0.403 -0.9814 -0.4868 -0.8710
    1SOL    MW4 1736   1.446   3.537   0.335 -0.1576 -0.1032 -0.2317
    1SOL     OW 1737   3.096   3.217   0.783  0.7404  1.0115 -0.9051
    1SOL    HW2 1738   3.018   3.174   0.821  0.4244  2.5093  0.1739
    1SOL    HW3 1739   3.112   3.169   0.702 -0.4877 -0.2149 -0.4476
    1SOL    MW4 1740   3.088   3.205   0.777  0.5367  1.0474 -0.7024
    1SOL     OW 1741   3.149   3.490   0.847  0.0622 -0.1019  0.0383
    1SOL    HW2 1742   3.127   3.400   0.823 -1.3718  0.5661 -1.2253
    1SOL    HW3 1743   3.146   3.490   0.943 -0.0235 -1.3637  0.0514
    1SOL    MW4 1744   3.146   3.478   0.857 -0.1385 -0.1802 -0.1267
    1SOL     OW 1745   3.399   3.728   0.457  0.2557 -0.3817 -0.4866
    1SOL    HW2 1746   3.347   3.670   0.401  2.3106 -1.7385 -1.0480
    1SOL    HW3 1747   3.411   3.679   0.538  0.0632  0.2193 -0.0918
    1SOL    MW4 1748   3.394   3.714   0.460  0.5012 -0.4814 -0.5086
    1SOL     OW 1749   3.618   3.995   0.663 -0.4450 -0.7366 -0.0912
    1SOL    HW2 1750   3.682   3.928   0.689 -1.3592 -1.8024 -0.5123
    1SOL    HW3 1751   3.661   4.044   0.593 -0.1917 -1.6385 -0.5727
    1SOL    MW4 1752   3.632   3.992   0.657 -0.5317 -0.9959 -0.2103
    1SOL     OW 1753   4.298   0.469   0.451 -0.5147  0.0419  0.4355
    1SOL    HW2 1754   4.375   0.421   0.422 -0.8062  0.5034 -1.1836
    1SOL    HW3 1755   4.224   0.420   0.415 -0.8263  1.5055 -0.9755
    1SOL    MW4 1756   4.298   0.456   0.442 -0.5941  0.2959  0.0357
    1SOL     OW 1757   3.117   4.238   0.787 -0.0476  0.3327 -0.3849
    1SOL    HW2 1758   3.057   4.303   0.750 -0.9261  0.8554  1.8691
    1SOL    HW3 1759   3.080   4.154   0.758 -0.8614  0.7215 -0.5092
    1SOL    MW4 1760   3.104   4.235   0.778 -0.2708  0.4535 -0.1040
    1SOL     OW 1761   2.752   1.013   0.481  0.1222 -0.0274  0.0284
    1SOL    HW2 1762   2.718   0.986   0.566  0.2817 -0.1874  0.0413
    1SOL    HW3 1763   2.846   0.996   0.486  0.4831  2.0374  0.6135
    1SOL    MW4 1764   2.760   1.007   0.493  0.1910  0.2240  0.1073
    1SOL     OW 1765   2.026   1.568   0.804  0.0781 -0.0814  0.0416
    1SOL    HW2 1766   2.021   1.476   0.781 -1.4237 -0.2008  0.8167
    1SOL    HW3 1767   2.119   1.591   0.793  0.1746 -1.2639 -1.6876
    1SOL    MW4 1768   2.038   1.559   0.800 -0.1073 -0.2531 -0.0843
    1SOL     OW 1769   3.078   0.112   0.714 -0.6022 -0.1648  0.7578
    1SOL    HW2 1770   3.074   0.203   0.744  1.1651  0.4404 -0.6860
    1SOL    HW3 1771   3.155   0.075   0.757 -0.2962 -0.4328  0.0055
    1SOL    MW4 1772   3.087   0.119   0.723 -0.3290 -0.1203  0.4680
    1SOL     OW 1773   3.513   0.333   0.803  0.2862 -0.1896  0.3248
    1SOL    HW2 1774   3.590   0.385   0.780 -0.0754 -0.1307 -0.7774
    1SOL    HW3 1775   3.507   0.340   0.898  1.8681 -0.5267  0.4576
    1SOL    MW4 1776   3.522   0.341   0.813  0.4475 -0.2263  0.1969
    1SOL     OW 1777   0.664   0.532   0.762 -0.2122 -0.0018 -0.6840
    1SOL    HW2 1778   0.587   0.481   0.789  0.8553 -0.4184  1.7128
    1SOL    HW3 1779   0.737   0.490   0.807  0.7604  3.3748  0.9749
    1SOL    MW4 1780   0.663   0.519   0.771  0.0569  0.3887 -0.1489
    1SOL     OW 1781   3.815   0.720   0.842  0.4122  0.4524  0.1769
    1SOL    HW2 1782   3.819   0.736   0.936  0.1279 -0.3036  0.3177
    1SOL    HW3 1783   3.899   0.750   0.809  0.2141  1.4505  0.5607
    1SOL    MW4 1784   3.826   0.726   0.850  0.3486  0.4843  0.2462
    1SOL     OW 1785   1.587   1.911   0.443  0.1201 -0.1549  0.2454
    1SOL    HW2 1786   1.515   1.853   0.419  1.1843 -1.5272  0.2527
    1SOL    HW3 1787   1.665   1.857   0.432  1.2365  1.6215 -0.7672
    1SOL    MW4 1788   1.588   1.896   0.439  0.4077 -0.1016  0.1127
    1SOL     OW 1789   3.806   1.474   0.820 -0.0734 -0.5065 -0.0048
    1SOL    HW2 1790   3.807   1.413   0.746  0.0932 -0.0005 -0.4279
    1SOL    HW3 1791   3.727   1.526   0.807  1.2677  1.3053 -1.2726
    1SOL    MW4 1792   3.796   1.473   0.808  0.1256 -0.2007 -0.2280
    1SOL     OW 1793   2.983   2.190   0.278  0.4779  0.2235 -0.2970
    1SOL    HW2 1794   2.957   2.168   0.188 -0.2931  0.7856 -0.2212
    1SOL    HW3 1795   2.933   2.129   0.332 -0.3688  1.0108 -0.1721
    1SOL    MW4 1796   2.973   2.179   0.273  0.2646  0.4017 -0.2705
    1SOL     OW 1797   4.280   2.803   0.747 -0.2925  0.8882 -0.3478
    1SOL    HW2 1798   4.336   2.739   0.791  1.0309  1.4336 -1.2267
    1SOL    HW3 1799   4.291   2.884   0.797  0.1547  1.1451 -0.8550
    1SOL    MW4 1800   4.289   2.805   0.759 -0.0582  0.9940 -0.5306
    1SOL     OW 1801   1.080   0.511   0.751  0.4433  0.0410  0.3313
    1SOL    HW2 1802   1.160   0.469   0.783  0.1555 -1.2647 -0.6266
    1SOL    HW3 1803   1.009   0.460   0.789  0.0336  1.5773  1.6838
    1SOL    MW4 1804   1.081   0.499   0.760  0.3513  0.0714  0.3834
    1SOL     OW 1805   3.663   2.782   0.520 -0.1207 -0.6215  0.0410
    1SOL    HW2 1806   3.576   2.816   0.540  0.5071  0.4685  0.9876
    1SOL    HW3 1807   3.709   2.855   0.478 -0.0346 -1.5613 -1.5433
    1SOL    MW4 1808   3.658   2.796   0.517 -0.0265 -0.6018 -0.0431
    1SOL     OW 1809   3.414   2.307   0.877 -0.1488  0.1223 -0.2885
    1SOL    HW2 1810   3.387   2.293   0.968  0.0174  2.2147  0.1154
    1SOL    HW3 1811   3.408   2.221   0.837 -1.1168 -0.6682  1.4709
    1SOL    MW4 1812   3.410   2.294   0.884 -0.2546  0.2942 -0.0030
    1SOL     OW 1813   3.809   2.320   1.135 -0.0213 -0.3723  0.5814
    1SOL    HW2 1814   3.898   2.348   1.153 -0.0490 -0.2695  0.5574
    1SOL    HW3 1815   3.801   2.322   1.040  0.0580 -0.7109  0.5646
    1SOL    MW4 1816   3.819   2.324   1.125 -0.0143 -0.4034  0.5761
    1SOL     OW 1817   2.049   1.917   0.379  0.2202  0.0919  0.4696
    1SOL    HW2 1818   2.089   1.940   0.296  0.0184 -0.6481  0.1669
    1SOL    HW3 1819   2.016   2.000   0.414 -0.4112  0.2742 -0.5624
    1SOL    MW4 1820   2.050   1.931   0.373  0.1101  0.0184  0.2936
    1SOL     OW 1821   3.570   2.724   0.897  0.0320  0.0195 -0.4792
    1SOL    HW2 1822   3.574   2.730   0.993 -1.7869  1.4678 -0.4754
    1SOL    HW3 1823   3.650   2.767   0.867 -0.0808  0.8317  0.3573
    1SOL    MW4 1824   3.581   2.730   0.906 -0.2232  0.3176 -0.3684
    1SOL     OW 1825   2.066   3.793   0.445 -0.0144 -0.1654  0.3564
    1SOL    HW2 1826   2.118   3.730   0.394 -0.5592 -0.9353  0.7468
    1SOL    HW3 1827   2.062   3.756   0.533 -1.3105 -0.1657  0.3100
    1SOL    MW4 1828   2.072   3.780   0.449 -0.2575 -0.2670  0.4018
    1SOL     OW 1829   3.843   3.082   0.874  0.2555 -0.0791 -0.1584
    1SOL    HW2 1830   3.770   3.137   0.847 -0.0904 -0.7410 -0.5906
    1SOL    HW3 1831   3.812   2.992   0.858  1.5422 -0.3316 -1.3020
    1SOL    MW4 1832   3.829   3.077   0.869  0.3798 -0.1998 -0.3663
    1SOL     OW 1833   0.182   2.541   0.397 -0.3045  0.0364  0.1766
    1SOL    HW2 1834   0.165   2.526   0.304  0.2170 -0.6204  0.1888
    1SOL    HW3 1835   0.115   2.489   0.441  0.3778 -0.8340  0.1904
    1SOL    MW4 1836   0.171   2.532   0.390 -0.1456 -0.1652  0.1801
    1SOL     OW 1837   3.697   3.292   0.535  0.3042 -0.0693 -0.1802
    1SOL    HW2 1838   3.750   3.365   0.501  0.0251 -0.3560 -1.2431
    1SOL    HW3 1839   3.607   3.320   0.520  0.1740 -0.1350  0.4728
    1SOL    MW4 1840   3.692   3.306   0.529  0.2501 -0.1156 -0.2343
    1SOL     OW 1841   4.224   3.762   0.434 -0.4126  0.0574  0.1104
    1SOL    HW2 1842   4.232   3.728   0.523 -1.3693  0.6393  0.4149
    1SOL    HW3 1843   4.315   3.772   0.405 -0.0955 -0.3771  0.9186
    1SOL    MW4 1844   4.237   3.759   0.442 -0.4969  0.0768  0.2572
    1SOL     OW 1845   3.862   3.588   0.689  0.3233  0.0072 -0.0835
    1SOL    HW2 1846   3.921   3.540   0.748 -0.7185  0.2998  1.2185
    1SOL    HW3 1847   3.887   3.559   0.601  2.0793 -0.2404  0.4789
    1SOL    MW4 1848   3.873   3.578   0.685  0.4175  0.0131  0.1625
    1SOL     OW 1849   0.667   1.884   0.403  0.0280 -0.0066  0.3619
    1SOL    HW2 1850   0.756   1.851   0.398 -0.1799 -0.6430  0.7509
    1SOL    HW3 1851   0.621   1.821   0.459 -0.9105 -0.2408 -0.6388
    1SOL    MW4 1852   0.672   1.871   0.410 -0.1233 -0.1216  0.2812
    1SOL     OW 1853   2.278   3.528   0.706 -0.2154  0.1128 -0.2154
    1SOL    HW2 1854   2.284   3.464   0.777  0.8193 -0.5320 -0.8734
    1SOL    HW3 1855   2.362   3.575   0.709 -0.3111  0.3212 -0.7773
    1SOL    MW4 1856   2.290   3.526   0.716 -0.0916  0.0551 -0.3764
    1SOL     OW 1857   1.162   4.407   0.473 -0.2320 -0.4916 -0.2584
    1SOL    HW2 1858   1.169   4.357   0.391 -0.3583  1.0700 -1.2526
    1SOL    HW3 1859   1.073   4.444   0.470  0.4150  1.1153 -0.3519
    1SOL    MW4 1860   1.151   4.405   0.462 -0.1633 -0.0739 -0.4019
    1SOL     OW 1861   4.338   4.593   0.810 -0.4351  0.3112 -0.0523
    1SOL    HW2 1862   4.289   4.605   0.891  0.7791  1.5580  0.5254
    1SOL    HW3 1863   4.290   4.646   0.745 -1.0818 -0.2294 -0.0169
    1SOL    MW4 1864   4.325   4.602   0.812 -0.3600  0.4044  0.0285
    1SOL     OW 1865   3.569   0.075   0.710 -0.3119  0.8111 -0.1712
    1SOL    HW2 1866   3.539   0.162   0.736 -0.4755  0.3180  1.3392
    1SOL    HW3 1867   3.653   0.064   0.755 -0.4014  0.1007 -0.1661
    1SOL    MW4 1868   3.577   0.085   0.719 -0.3455  0.6523  0.0287
    1SOL     OW 1869   4.196   0.088   0.594 -0.0786  0.0859  0.1657
    1SOL    HW2 1870   4.112   0.113   0.633  0.4776 -0.4320  1.7463
    1SOL    HW3 1871   4.176   0.009   0.543 -0.5376 -0.0901  0.6158
    1SOL    MW4 1872   4.182   0.081   0.592 -0.0658 -0.0057  0.4336
    1SOL     OW 1873   4.476   2.642   0.855  0.0535 -0.0777 -0.1865
    1SOL    HW2 1874   4.465   2.662   0.948  1.1588 -0.1881 -0.0258
    1SOL    HW3 1875   4.543   2.704   0.825 -1.2820  0.8844 -1.2286
    1SOL    MW4 1876   4.484   2.653   0.863  0.0231  0.0348 -0.3027
    1SOL     OW 1877   4.294   0.748   0.781  0.0451  0.1148 -0.3384
    1SOL    HW2 1878   4.298   0.656   0.754  1.5538  0.3536 -0.9737
    1SOL    HW3 1879   4.289   0.745   0.876 -2.2592 -0.6688 -0.4614
    1SOL    MW4 1880   4.294   0.735   0.790 -0.0601  0.0429 -0.4385
    1SOL     OW 1881   4.094   3.061   0.472 -0.6670 -0.4217 -0.8363
    1SOL    HW2 1882   4.157   2.989   0.474 -2.3065 -1.8543  1.6104
    1SOL    HW3 1883   4.148   3.139   0.459  1.5398 -1.7068  0.2333
    1SOL    MW4 1884   4.110   3.062   0.471 -0.5927 -0.7803 -0.3724
    1SOL     OW 1885   1.378   1.668   0.701 -0.3706 -0.1277 -0.4772
    1SOL    HW2 1886   1.460   1.630   0.729 -0.4842 -0.4474 -0.5789
    1SOL    HW3 1887   1.385   1.671   0.605 -0.4709 -0.1421 -0.4850
    1SOL    MW4 1888   1.389   1.664   0.692 -0.3989 -0.1718 -0.4917
    1SOL     OW 1889   2.237   4.220   0.843 -0.0267  0.1504 -0.0023
    1SOL    HW2 1890   2.171   4.253   0.782 -0.0848  0.2872  0.1332
    1SOL    HW3 1891   2.240   4.126   0.828  1.9943  0.5350 -2.2502
    1SOL    MW4 1892   2.229   4.212   0.833  0.2322  0.2184 -0.2810
    1SOL     OW 1893   4.240   1.528   0.806 -0.2249  0.5037  0.4671
    1SOL    HW2 1894   4.243   1.433   0.796 -0.7474  0.6113 -0.9187
    1SOL    HW3 1895   4.243   1.543   0.900 -0.4928 -0.9022  0.7117
    1SOL    MW4 1896   4.241   1.517   0.817 -0.3290  0.3324  0.3166
    1SOL     OW 1897   0.846   1.179   0.776  0.1895 -0.1034  0.1352
    1SOL    HW2 1898   0.767   1.191   0.723 -2.0687  1.5399  3.7574
    1SOL    HW3 1899   0.860   1.084   0.776  0.7026 -0.1189 -3.9162
    1SOL    MW4 1900   0.838   1.168   0.769 -0.0408  0.1112  0.0786
    1SOL     OW 1901   0.866   4.323   0.168 -0.0002 -0.3440  0.1569
    1SOL    HW2 1902   0.959   4.311   0.186  0.0850  1.1754  0.8439
    1SOL    HW3 1903   0.863   4.358   0.079  0.1425  0.3696  0.4301
    1SOL    MW4 1904   0.878   4.326   0.159  0.0299 -0.0496  0.2836
    1SOL     OW 1905   4.068   3.170   0.724  0.5681  0.4992  0.1507
    1SOL    HW2 1906   3.998   3.125   0.771  0.7615  0.5872  0.5155
    1SOL    HW3 1907   4.065   3.131   0.636 -1.0571  1.6712 -0.3501
    1SOL    MW4 1908   4.058   3.159   0.718  0.3791  0.6657  0.1327
    1SOL     OW 1909   0.228   2.262   1.163 -0.1724 -0.3491  0.2525
    1SOL    HW2 1910   0.153   2.303   1.206 -1.3842 -1.3042 -0.9154
    1SOL    HW3 1911   0.303   2.315   1.190 -1.0722 -0.1953  2.5248
    1SOL    MW4 1912   0.228   2.275   1.172 -0.4510 -0.4547  0.3984
    1SOL     OW 1913   1.979   3.887   0.814  0.0067 -0.2000 -0.8118
    1SOL    HW2 1914   2.002   3.869   0.905  1.7685 -1.5383 -1.4803
    1SOL    HW3 1915   1.987   3.802   0.770 -0.6865  0.4528 -2.2279
    1SOL    MW4 1916   1.983   3.873   0.820  0.1477 -0.2906 -1.0868
    1SOL     OW 1917   3.787   2.803   0.777  0.1135 -0.2220  0.3845
    1SOL    HW2 1918   3.872   2.760   0.783  0.1942 -0.4312 -1.8999
    1SOL    HW3 1919   3.756   2.783   0.689 -2.2308  0.0165  1.1260
    1SOL    MW4 1920   3.794   2.795   0.766 -0.1853 -0.2184  0.1811
    1SOL     OW 1921   0.898   1.990   0.839 -0.4743  0.1690  0.0917
    1SOL    HW2 1922   0.819   2.041   0.820 -0.0351  0.4660 -0.9939
    1SOL    HW3 1923   0.901   1.986   0.935 -0.9672  1.4977  0.1834
    1SOL    MW4 1924   0.888   1.996   0.849 -0.4814  0.3836 -0.0394
    1SOL     OW 1925   2.203   0.774   0.304 -0.4632 -0.0889 -0.1795
    1SOL    HW2 1926   2.287   0.736   0.279 -0.1557  1.5834 -1.8175
    1SOL    HW3 1927   2.170   0.717   0.373  2.5636 -0.1075  1.3494
    1SOL    MW4 1928   2.210   0.762   0.310 -0.0234  0.1293 -0.1939
    1SOL     OW 1929   3.648   2.078   0.469 -0.7217  0.0932  0.3378
    1SOL    HW2 1930   3.636   2.158   0.521 -0.3222 -0.5888  1.5074
    1SOL    HW3 1931   3.742   2.062   0.472 -0.6553  0.2233 -0.8848
    1SOL    MW4 1932   3.659   2.087   0.476 -0.6602  0.0203  0.3308
    1SOL     OW 1933   3.616   3.513   0.835  0.3088 -0.0915  0.0607
    1SOL    HW2 1934   3.691   3.554   0.790  0.7441 -1.6355 -0.6407
    1SOL    HW3 1935   3.632   3.419   0.827 -0.7353 -0.4076  1.5848
    1SOL    MW4 1936   3.628   3.506   0.828  0.2284 -0.3371  0.1692
    1SOL     OW 1937   4.261   3.833   0.822  0.2014  0.0072 -0.6312
    1SOL    HW2 1938   4.199   3.898   0.790  1.0659  0.9151 -0.5044
    1SOL    HW3 1939   4.256   3.839   0.917 -0.6327 -1.0070 -0.6061
    1SOL    MW4 1940   4.252   3.842   0.830  0.2060 -0.0072 -0.6112
    1SOL     OW 1941   0.470   0.998   0.476  0.0938  0.1097  0.9762
    1SOL    HW2 1942   0.486   0.973   0.567 -0.5700 -2.3183  0.4378
    1SOL    HW3 1943   0.556   1.027   0.444  0.4846  0.2746  2.1455
    1SOL    MW4 1944   0.484   0.999   0.484  0.0578 -0.1889  1.0594
    1SOL     OW 1945   3.833   3.856   0.797  0.2461 -0.2768  0.0710
    1SOL    HW2 1946   3.914   3.906   0.792  0.4094 -0.5076  0.3270
    1SOL    HW3 1947   3.859   3.766   0.774 -0.3003  0.0078 -1.7220
    1SOL    MW4 1948   3.847   3.851   0.794  0.1955 -0.2697 -0.1318
    1SOL     OW 1949   3.873   4.470   0.462 -0.2500  0.1437 -0.0855
    1SOL    HW2 1950   3.834   4.397   0.413 -0.3421  0.4056 -0.4028
    1SOL    HW3 1951   3.834   4.548   0.423  0.7939  0.4154 -0.5810
    1SOL    MW4 1952   3.862   4.470   0.450 -0.1242  0.2141 -0.1927
    1SOL     OW 1953   3.814   0.005   0.837 -0.2519  0.5340 -0.4925
    1SOL    HW2 1954   3.799  -0.084   0.807 -1.4335  1.0825 -1.6036
    1SOL    HW3 1955   3.879   0.041   0.777  2.5347 -0.5130  1.7968
    1SOL    MW4 1956   3.821  -0.002   0.825 -0.0403  0.4687 -0.3372
    1SOL     OW 1957   0.165   4.609   1.124  0.3100  0.0850 -0.1738
    1SOL    HW2 1958   0.248   4.655   1.139  0.4069  0.2760 -1.2531
    1SOL    HW3 1959   0.160   4.600   1.029 -1.2204  0.6681 -0.1546
    1SOL    MW4 1960   0.175   4.614   1.113  0.1208  0.1869 -0.3136
    1SOL     OW 1961   4.427   0.078   1.209  0.3394 -0.5181  0.0954
    1SOL    HW2 1962   4.354   0.042   1.159  0.6752 -0.5472 -0.3749
    1SOL    HW3 1963   4.505   0.041   1.169  0.5186 -2.6935  2.3586
    1SOL    MW4 1964   4.427   0.069   1.197  0.4072 -0.8089  0.3319
    1SOL     OW 1965   4.441   0.315   1.074  0.5518  0.6415  0.1374
    1SOL    HW2 1966   4.375   0.372   1.114  0.4005  0.1477  0.6064
    1SOL    HW3 1967   4.425   0.229   1.113  1.2127  0.4259 -0.0531
    1SOL    MW4 1968   4.430   0.311   1.084  0.6199  0.5479  0.1742
    1SOL     OW 1969   0.149   0.476   1.196 -0.4018  0.1735  0.5372
    1SOL    HW2 1970   0.132   0.568   1.176 -0.3737 -0.0221 -0.3968
    1SOL    HW3 1971   0.093   0.427   1.136  1.8807 -0.4580 -1.1427
    1SOL    MW4 1972   0.139   0.482   1.185 -0.0969  0.0644  0.1923
    1SOL     OW 1973   0.145   0.757   1.101 -0.3397 -0.0844  0.2372
    1SOL    HW2 1974   0.230   0.798   1.115 -0.1243  0.1718 -1.6270
    1SOL    HW3 1975   0.083   0.809   1.152  0.4415  0.5017  0.5880
    1SOL    MW4 1976   0.148   0.769   1.109 -0.2082  0.0267  0.0373
    1SOL     OW 1977   4.416   0.883   1.231  0.0361  0.5462  0.0751
    1SOL    HW2 1978   4.437   0.893   1.324 -2.5607  0.4276  0.7240
    1SOL    HW3 1979   4.421   0.972   1.196  3.1485  0.3075 -0.1981
    1SOL    MW4 1980   4.419   0.896   1.239  0.1040  0.4990  0.1247
    1SOL     OW 1981   4.452   1.150   1.131  0.6995  0.4690 -0.3940
    1SOL    HW2 1982   4.377   1.208   1.140 -0.1658 -0.6905 -0.0543
    1SOL    HW3 1983   4.527   1.205   1.156  0.3198  2.3977 -3.2519
    1SOL    MW4 1984   4.452   1.165   1.136  0.5355  0.5707 -0.7263
    1SOL     OW 1985   0.199   1.268   1.209 -0.4696 -0.0854  0.1065
    1SOL    HW2 1986   0.205   1.269   1.305 -0.9063  0.3766  0.1300
    1SOL    HW3 1987   0.279   1.224   1.181 -0.4349 -0.4025  0.6918
    1SOL    MW4 1988   0.211   1.262   1.218 -0.5226 -0.0663  0.1869
    1SOL     OW 1989   0.246   1.519   1.117  0.2795 -0.4821  0.1534
    1SOL    HW2 1990   0.227   1.429   1.144 -0.0727 -0.1459  1.0412
    1SOL    HW3 1991   0.257   1.514   1.022  1.5971 -1.6968  0.3491
    1SOL    MW4 1992   0.245   1.506   1.108  0.4069 -0.5982  0.2964
    1SOL     OW 1993   0.006   1.652   1.195  0.0526  0.1000  0.2885
    1SOL    HW2 1994   0.024   1.739   1.162  0.2832  0.8066  2.2201
    1SOL    HW3 1995   0.090   1.605   1.188  0.1241  0.2825 -0.0360
    1SOL    MW4 1996   0.019   1.657   1.190  0.0925  0.2173  0.5004
    1SOL     OW 1997   0.021   1.919   1.126  0.5503  0.0711  0.0750
    1SOL    HW2 1998  -0.064   1.933   1.168 -0.1076 -1.8972 -0.5824
    1SOL    HW3 1999   0.001   1.913   1.032  1.7049  1.8859 -0.3221
    1SOL    MW4 2000   0.007   1.920   1.119  0.6158  0.0507 -0.0641
    1SOL     OW 2001   0.234   2.004   1.263 -0.5315 -0.1204 -0.4579
    1SOL    HW2 2002   0.229   2.088   1.218  1.0173 -0.1784 -0.7845
    1SOL    HW3 2003   0.159   1.954   1.230 -0.5311  0.5463 -1.4974
    1SOL    MW4 2004   0.224   2.009   1.253 -0.3271 -0.0401 -0.6381
    1SOL     OW 2005   0.274   2.300   0.890  0.1965 -0.0318 -0.3580
    1SOL    HW2 2006   0.190   2.336   0.861 -0.1110 -0.5466 -0.1203
    1SOL    HW3 2007   0.261   2.286   0.984  1.1313  1.4983  0.0199
    1SOL    MW4 2008   0.261   2.303   0.899  0.2792  0.1023 -0.2768
    1SOL     OW 2009   0.003   2.409   1.246 -0.5209 -0.6413 -0.2846
    1SOL    HW2 2010  -0.023   2.426   1.336 -1.4594 -0.6047 -0.5529
    1SOL    HW3 2011  -0.074   2.367   1.206 -0.3486 -0.0858 -1.2298
    1SOL    MW4 2012  -0.011   2.406   1.252 -0.6221 -0.5636 -0.4447
    1SOL     OW 2013   0.003   2.671   1.151 -0.5018  0.0981 -0.5122
    1SOL    HW2 2014  -0.080   2.711   1.179 -0.7664 -1.3789  0.8659
    1SOL    HW3 2015  -0.001   2.581   1.183  1.2242 -0.2839 -1.2895
    1SOL    MW4 2016  -0.009   2.664   1.159 -0.3089 -0.1473 -0.4330
    1SOL     OW 2017   0.201   2.839   1.253 -0.0709  0.1203  0.1035
    1SOL    HW2 2018   0.209   2.837   1.348 -0.0296  1.4776  0.1373
    1SOL    HW3 2019   0.137   2.770   1.233  1.5644 -1.6997  0.9118
    1SOL    MW4 2020   0.194   2.829   1.263  0.1503  0.0591  0.2147
    1SOL     OW 2021   0.200   3.103   1.174  0.8083 -0.1367  0.0890
    1SOL    HW2 2022   0.276   3.137   1.222 -1.1550  2.0610  1.6849
    1SOL    HW3 2023   0.182   3.018   1.216  1.0604  0.3237  1.1532
    1SOL    MW4 2024   0.208   3.096   1.186  0.5826  0.2136  0.4401
    1SOL     OW 2025   4.446   3.257   1.259  0.0928  0.4006  0.4281
    1SOL    HW2 2026   4.380   3.192   1.233  0.7343  0.3623 -1.1981
    1SOL    HW3 2027   4.529   3.212   1.248  0.5043  1.2541  0.0092
    1SOL    MW4 2028   4.448   3.242   1.254  0.2317  0.5081  0.1582
    1SOL     OW 2029   4.461   3.493   1.118 -0.6738 -0.1520  0.0232
    1SOL    HW2 2030   4.457   3.407   1.160  0.7167 -0.8555 -1.2255
    1SOL    HW3 2031   4.452   3.475   1.025 -1.2055  1.1499 -0.1950
    1SOL    MW4 2032   4.459   3.479   1.111 -0.5603 -0.0730 -0.1704
    1SOL     OW 2033   0.231   3.599   1.207  0.1021 -0.1670 -0.1779
    1SOL    HW2 2034   0.230   3.595   1.303 -0.6797  0.9960 -0.1387
    1SOL    HW3 2035   0.155   3.547   1.181  0.7073 -1.0686 -0.2097
    1SOL    MW4 2036   0.221   3.591   1.216  0.0788 -0.1323 -0.1768
    1SOL     OW 2037   0.198   3.838   1.087 -0.0284  0.1077  0.0391
    1SOL    HW2 2038   0.120   3.877   1.127  0.5728  0.8753  0.4934
    1SOL    HW3 2039   0.208   3.754   1.132 -1.0927 -0.3864 -0.6427
    1SOL    MW4 2040   0.189   3.832   1.098 -0.0895  0.1440  0.0091
    1SOL     OW 2041   4.461   3.947   1.204  0.0646  0.1645  0.1843
    1SOL    HW2 2042   4.450   3.951   1.299 -0.6357  0.1921  0.1062
    1SOL    HW3 2043   4.376   3.918   1.171  0.4539 -0.3197 -0.4000
    1SOL    MW4 2044   4.448   3.944   1.212  0.0238  0.1042  0.0968
    1SOL     OW 2045   4.485   4.210   1.101  0.1368  0.3094  0.1135
    1SOL    HW2 2046   4.556   4.256   1.147  0.5852 -0.9805  0.7307
    1SOL    HW3 2047   4.482   4.124   1.142 -1.8231  0.3537  0.1160
    1SOL    MW4 2048   4.494   4.205   1.113 -0.0629  0.1450  0.1953
    1SOL     OW 2049   0.202   4.343   1.233 -0.3370 -0.4685  0.0824
    1SOL    HW2 2050   0.224   4.370   1.322  1.2676  0.8922 -0.6935
    1SOL    HW3 2051   0.186   4.425   1.187  0.4400 -1.0590 -1.2690
    1SOL    MW4 2052   0.203   4.357   1.239 -0.0228 -0.3672 -0.1981
    1SOL     OW 2053   0.635   4.658   1.136  0.1397  0.3024 -0.3245
    1SOL    HW2 2054   0.720   4.688   1.167  0.8988  0.1896 -2.2156
    1SOL    HW3 2055   0.632   4.565   1.159  0.3424  0.4150  0.1490
    1SOL    MW4 2056   0.645   4.650   1.143  0.2666  0.3023 -0.5115
    1SOL     OW 2057   0.387   0.091   1.216 -0.1532  0.0279 -0.0890
    1SOL    HW2 2058   0.387   0.182   1.186  0.2203 -0.1647 -0.6824
    1SOL    HW3 2059   0.472   0.057   1.188  0.0886 -0.2449  0.9333
    1SOL    MW4 2060   0.399   0.099   1.208 -0.0720 -0.0335 -0.0325
    1SOL     OW 2061   2.129   1.529   0.128 -0.6043 -0.4753 -0.0314
    1SOL    HW2 2062   2.169   1.612   0.155 -0.7462 -0.5660  0.4540
    1SOL    HW3 2063   2.046   1.526   0.174 -0.6535 -0.8344 -0.1429
    1SOL    MW4 2064   2.124   1.540   0.138 -0.6294 -0.5345  0.0179
    1SOL     OW 2065   0.634   0.496   1.204  0.3225 -0.3280 -0.2796
    1SOL    HW2 2066   0.623   0.591   1.199  0.6705 -0.1649  1.6655
    1SOL    HW3 2067   0.555   0.461   1.164 -0.3027  0.7947 -0.0553
    1SOL    MW4 2068   0.622   0.504   1.198  0.2860 -0.1584  0.0066
    1SOL     OW 2069   0.612   0.788   1.140  0.4055 -0.3189 -0.0605
    1SOL    HW2 2070   0.522   0.823   1.141  0.3989 -0.3127 -0.6915
    1SOL    HW3 2071   0.633   0.778   1.047  1.4118  0.5806  0.0615
    1SOL    MW4 2072   0.603   0.791   1.128  0.5375 -0.1994 -0.1277
    1SOL     OW 2073   0.363   0.893   1.164  0.1612 -0.1244 -0.0610
    1SOL    HW2 2074   0.367   0.902   1.259  0.0363  0.8610 -0.1494
    1SOL    HW3 2075   0.379   0.981   1.130  0.0939 -0.4482 -0.9490
    1SOL    MW4 2076   0.365   0.906   1.172  0.1358 -0.0371 -0.1899
    1SOL     OW 2077   0.459   1.171   1.099 -0.1588  0.3938 -0.0418
    1SOL    HW2 2078   0.532   1.219   1.137  0.0878  1.0300 -1.2984
    1SOL    HW3 2079   0.458   1.197   1.007 -2.1665  0.6398  0.0305
    1SOL    MW4 2080   0.468   1.180   1.092 -0.3912  0.5101 -0.1980
    1SOL     OW 2081   0.680   1.323   1.180  0.1364  0.0994  0.2800
    1SOL    HW2 2082   0.732   1.267   1.123 -0.2568 -0.4881  0.4876
    1SOL    HW3 2083   0.697   1.412   1.149  1.6147 -0.0531  0.6510
    1SOL    MW4 2084   0.689   1.327   1.168  0.2796  0.0018  0.3566
    1SOL     OW 2085   0.708   1.571   1.062  0.0774  0.5046 -0.3659
    1SOL    HW2 2086   0.783   1.606   1.110  0.5804  0.5033 -1.1293
    1SOL    HW3 2087   0.633   1.589   1.118  0.5602  1.1488  0.0864
    1SOL    MW4 2088   0.708   1.578   1.076  0.2074  0.5895 -0.4070
    1SOL     OW 2089   0.490   1.594   1.230  0.3550  0.2795  0.0876
    1SOL    HW2 2090   0.455   1.619   1.315 -0.4051 -0.0245 -0.1363
    1SOL    HW3 2091   0.414   1.567   1.179  0.7626  0.7847 -0.8074
    1SOL    MW4 2092   0.476   1.594   1.234  0.3085  0.3061 -0.0600
    1SOL     OW 2093   0.466   1.890   1.185 -0.1770 -0.1181  0.0201
    1SOL    HW2 2094   0.469   1.797   1.207 -1.2346 -0.5979 -1.8244
    1SOL    HW3 2095   0.378   1.918   1.209 -0.8455 -0.2978 -2.1766
    1SOL    MW4 2096   0.455   1.881   1.191 -0.4048 -0.2052 -0.5130
    1SOL     OW 2097   0.656   2.076   1.277 -0.0186 -0.1096  0.4041
    1SOL    HW2 2098   0.667   2.082   1.372 -0.4272 -0.0450  0.4493
    1SOL    HW3 2099   0.588   2.010   1.265 -0.6782  0.5947  0.1986
    1SOL    MW4 2100   0.648   2.068   1.288 -0.1595 -0.0083  0.3829
    1SOL     OW 2101   0.600   2.291   1.099 -0.0171 -0.0149  0.3448
    1SOL    HW2 2102   0.553   2.338   1.167  1.4426 -0.4173  1.6647
    1SOL    HW3 2103   0.635   2.213   1.143 -0.8865 -1.4136 -1.3761
    1SOL    MW4 2104   0.599   2.287   1.114  0.0609 -0.2522  0.2918
    1SOL     OW 2105   0.445   2.422   1.265  0.3895  0.0462 -0.1069
    1SOL    HW2 2106   0.421   2.433   1.357 -0.3296  1.7271 -0.4838
    1SOL    HW3 2107   0.442   2.510   1.228 -0.3897 -0.7422 -2.0146
    1SOL    MW4 2108   0.442   2.435   1.272  0.1919  0.1640 -0.4083
    1SOL     OW 2109   0.447   2.726   1.163 -0.2577 -0.2372  0.1618
    1SOL    HW2 2110   0.356   2.744   1.188 -1.3685 -4.1043 -0.7549
    1SOL    HW3 2111   0.448   2.736   1.067 -0.3686 -2.6115 -0.1108
    1SOL    MW4 2112   0.435   2.730   1.153 -0.4189 -1.0605  0.0049
    1SOL     OW 2113   0.710   2.827   1.213  0.4214  0.1610 -0.0542
    1SOL    HW2 2114   0.708   2.852   1.306  1.6544 -0.1724  0.0688
    1SOL    HW3 2115   0.624   2.789   1.197 -0.3127  1.5047  0.5870
    1SOL    MW4 2116   0.698   2.825   1.223  0.4872  0.2944  0.0466
    1SOL     OW 2117   0.670   3.084   1.106 -0.2031 -0.1821  0.2373
    1SOL    HW2 2118   0.748   3.138   1.120  0.6930 -0.9003 -1.7299
    1SOL    HW3 2119   0.699   2.995   1.126 -0.6899 -0.3734  0.0824
    1SOL    MW4 2120   0.684   3.079   1.110 -0.1491 -0.3021 -0.0428
    1SOL     OW 2121   0.458   3.198   1.267 -0.4371  0.2860  0.0204
    1SOL    HW2 2122   0.434   3.276   1.217  0.3301  0.3055 -0.3131
    1SOL    HW3 2123   0.525   3.155   1.214 -1.1052 -0.7892  0.0311
    1SOL    MW4 2124   0.464   3.202   1.253 -0.4240  0.1466 -0.0222
    1SOL     OW 2125   0.444   3.450   1.071 -0.1651  0.3588  0.0276
    1SOL    HW2 2126   0.526   3.472   1.115  0.2062 -0.7548 -0.1009
    1SOL    HW3 2127   0.378   3.503   1.116  0.5054  0.6827  0.6350
    1SOL    MW4 2128   0.446   3.460   1.083 -0.0276  0.2549  0.0908
    1SOL     OW 2129   0.664   3.589   1.194 -0.4035  0.2033 -0.1563
    1SOL    HW2 2130   0.670   3.607   1.288 -0.4741  0.8966 -0.2873
    1SOL    HW3 2131   0.661   3.675   1.153  1.1593 -0.0778 -0.8885
    1SOL    MW4 2132   0.665   3.603   1.201 -0.2066  0.2575 -0.2701
    1SOL     OW 2133   0.646   3.857   1.110 -0.3409 -0.3897 -0.3142
    1SOL    HW2 2134   0.561   3.887   1.141  0.5948  2.4955 -0.4231
    1SOL    HW3 2135   0.644   3.870   1.015  0.3638  0.1349 -0.2687
    1SOL    MW4 2136   0.635   3.863   1.101 -0.1245  0.0601 -0.3225
    1SOL     OW 2137   0.405   3.970   1.233 -0.4140 -0.1959  0.3279
    1SOL    HW2 2138   0.415   4.063   1.213  1.7808 -0.7008 -1.1571
    1SOL    HW3 2139   0.323   3.945   1.191 -0.3781  0.8102 -0.3681
    1SOL    MW4 2140   0.396   3.979   1.225 -0.1197 -0.1297  0.0402
    1SOL     OW 2141   0.438   4.224   1.129 -0.0228 -0.0208 -0.2521
    1SOL    HW2 2142   0.510   4.280   1.158  0.7581 -0.6535 -0.9127
    1SOL    HW3 2143   0.360   4.259   1.172  0.6728  0.7243  0.4089
    1SOL    MW4 2144   0.437   4.236   1.138  0.1720 -0.0062 -0.2520
    1SOL     OW 2145   0.625   4.380   1.233  0.1386 -0.2031 -0.5514
    1SOL    HW2 2146   0.630   4.387   1.328 -1.1265 -3.3393 -0.2126
    1SOL    HW3 2147   0.714   4.356   1.206  0.3385  0.0160 -0.1040
    1SOL    MW4 2148   0.637   4.378   1.242 -0.0018 -0.5884 -0.4476
    1SOL     OW 2149   1.124   0.041   1.138  0.6602  0.5454  0.1894
    1SOL    HW2 2150   1.121  -0.048   1.173 -0.5102  0.5730  0.1829
    1SOL    HW3 2151   1.125   0.031   1.043 -2.1725  0.5585  0.1118
    1SOL    MW4 2152   1.123   0.028   1.130  0.1320  0.5507  0.1783
    1SOL     OW 2153   0.866   0.103   1.209  0.4229 -0.8505  0.4872
    1SOL    HW2 2154   0.874   0.109   1.305  0.1599 -1.2799  0.5363
    1SOL    HW3 2155   0.951   0.070   1.180  0.3735 -1.0879  0.6090
    1SOL    MW4 2156   0.878   0.099   1.218  0.3817 -0.9384  0.5099
    1SOL     OW 2157   0.877   0.382   1.144  0.4066  0.3199  0.1767
    1SOL    HW2 2158   0.871   0.293   1.180  0.0515  0.6193  0.8686
    1SOL    HW3 2159   0.794   0.423   1.168 -0.0315  0.3897 -1.3795
    1SOL    MW4 2160   0.865   0.375   1.152  0.3019  0.3686  0.0626
    1SOL     OW 2161   1.072   0.569   1.226 -0.2376  0.5739  0.3234
    1SOL    HW2 2162   1.075   0.563   1.321 -0.1707 -0.9166  0.2341
    1SOL    HW3 2163   1.004   0.508   1.200  1.2711 -0.7255 -0.7162
    1SOL    MW4 2164   1.064   0.560   1.235 -0.0298  0.2058  0.1744
    1SOL     OW 2165   1.098   0.824   1.120 -0.0190  0.1734  0.7698
    1SOL    HW2 2166   1.020   0.857   1.164 -2.6210 -2.0002 -2.0012
    1SOL    HW3 2167   1.113   0.739   1.160 -0.5431 -0.4588 -0.3636
    1SOL    MW4 2168   1.090   0.817   1.131 -0.4314 -0.1968  0.2546
    1SOL     OW 2169   0.843   0.920   1.225 -0.0575  0.6974  0.2643
    1SOL    HW2 2170   0.852   0.994   1.164 -0.9501  0.4539 -0.1648
    1SOL    HW3 2171   0.757   0.884   1.206 -0.4684  0.7948  1.8760
    1SOL    MW4 2172   0.833   0.925   1.214 -0.2295  0.6781  0.4202
    1SOL     OW 2173   0.878   1.165   1.066  0.1167  0.4077  0.2189
    1SOL    HW2 2174   0.955   1.216   1.093 -0.7359  2.6502 -1.3977
    1SOL    HW3 2175   0.874   1.177   0.971 -0.6876 -1.9181 -0.0527
    1SOL    MW4 2176   0.887   1.173   1.057 -0.1019  0.3967 -0.0302
    1SOL     OW 2177   1.086   1.327   1.171  0.3488 -0.6365  0.1326
    1SOL    HW2 2178   1.078   1.318   1.266  1.2633 -0.2786  0.2523
    1SOL    HW3 2179   1.163   1.275   1.148  1.1065  0.5882 -0.1837
    1SOL    MW4 2180   1.095   1.319   1.180  0.5695 -0.4278  0.1067
    1SOL     OW 2181   1.144   1.581   1.048 -0.2758 -0.2119  0.4541
    1SOL    HW2 2182   1.113   1.495   1.074  0.2486 -0.8007 -0.8141
    1SOL    HW3 2183   1.117   1.589   0.956  2.1740 -0.2319 -0.3075
    1SOL    MW4 2184   1.137   1.571   1.039  0.1165 -0.2923  0.1862
    1SOL     OW 2185   0.935   1.706   1.217  0.1266  0.0064 -0.0615
    1SOL    HW2 2186   0.924   1.787   1.167 -1.2649 -2.0239 -3.2433
    1SOL    HW3 2187   1.023   1.676   1.195  0.2361  0.1041  0.2456
    1SOL    MW4 2188   0.945   1.712   1.207 -0.0426 -0.2487 -0.4408
    1SOL     OW 2189   0.892   1.973   1.114 -0.5615 -0.0264  0.1830
    1SOL    HW2 2190   0.967   2.010   1.159 -0.1873 -0.2067 -0.2942
    1SOL    HW3 2191   0.816   2.018   1.153 -0.1531  0.7617  0.0673
    1SOL    MW4 2192   0.892   1.984   1.125 -0.4583  0.0539  0.1048
    1SOL     OW 2193   1.120   2.063   1.222  0.1168  0.4449 -0.7508
    1SOL    HW2 2194   1.112   2.090   1.313  0.5233  1.1241 -0.9122
    1SOL    HW3 2195   1.115   2.145   1.172  1.0239  0.1951 -1.2707
    1SOL    MW4 2196   1.118   2.077   1.227  0.2902  0.5016 -0.8407
    1SOL     OW 2197   1.056   2.313   1.066 -0.0695  0.4262  0.1393
    1SOL    HW2 2198   1.098   2.386   1.112  0.7723  0.1020 -0.1251
    1SOL    HW3 2199   1.070   2.331   0.973 -0.2431  0.1495  0.0586
    1SOL    MW4 2200   1.063   2.325   1.060  0.0186  0.3469  0.0938
    1SOL     OW 2201   0.838   2.413   1.204  0.1280  0.2300 -0.0134
    1SOL    HW2 2202   0.910   2.358   1.172 -0.1389  0.0150 -0.2373
    1SOL    HW3 2203   0.759   2.365   1.182 -0.0735  0.2922  0.5739
    1SOL    MW4 2204   0.837   2.399   1.197  0.0662  0.2098  0.0346
    1SOL     OW 2205   0.891   2.656   1.083  0.3546  0.3133  0.4329
    1SOL    HW2 2206   0.853   2.572   1.107 -0.0897 -0.1182 -1.6541
    1SOL    HW3 2207   0.829   2.721   1.118 -0.9629 -0.3202 -0.6522
    1SOL    MW4 2208   0.878   2.653   1.090  0.1222  0.1726  0.0143
    1SOL     OW 2209   1.122   2.803   1.145 -0.3130  0.2712  0.3121
    1SOL    HW2 2210   1.115   2.821   1.238 -0.0721  0.5425  0.2755
    1SOL    HW3 2211   1.045   2.749   1.126  0.2981 -0.8465  0.9247
    1SOL    MW4 2212   1.110   2.798   1.155 -0.2006  0.1595  0.3881
    1SOL     OW 2213   1.130   3.071   1.092 -0.3259 -0.2036 -0.2974
    1SOL    HW2 2214   1.123   2.977   1.108  0.3713 -0.4520 -1.3439
    1SOL    HW3 2215   1.120   3.080   0.997  0.8032  0.6441 -0.3492
    1SOL    MW4 2216   1.128   3.060   1.082 -0.0851 -0.1247 -0.4423
    1SOL     OW 2217   0.901   3.210   1.201  0.4400  0.4282  0.5429
    1SOL    HW2 2218   0.906   3.300   1.170 -1.9584 -0.1821 -1.7762
    1SOL    HW3 2219   0.981   3.169   1.169  0.6816  1.2673  0.0617
    1SOL    MW4 2220   0.912   3.216   1.193  0.1555  0.4585  0.1734
    1SOL     OW 2221   0.898   3.468   1.118 -0.0455  0.3575  0.2000
    1SOL    HW2 2222   0.816   3.512   1.138 -0.3597  0.3834 -1.1555
    1SOL    HW3 2223   0.905   3.471   1.023  1.3502  0.0442  0.2814
    1SOL    MW4 2224   0.888   3.475   1.108  0.0972  0.3197  0.0318
    1SOL     OW 2225   1.123   3.623   1.195 -0.0690 -0.2828  0.1017
    1SOL    HW2 2226   1.193   3.567   1.163  0.4577 -0.2421  1.1477
    1SOL    HW3 2227   1.042   3.575   1.176  0.2030 -0.1252 -1.5153
    1SOL    MW4 2228   1.121   3.609   1.189  0.0365 -0.2563  0.0262
    1SOL     OW 2229   1.116   3.914   1.174 -0.4649  0.1182 -0.3203
    1SOL    HW2 2230   1.026   3.947   1.180 -0.5748  0.0208 -1.3448
    1SOL    HW3 2231   1.108   3.819   1.181 -0.3131  0.1734  0.8232
    1SOL    MW4 2232   1.103   3.906   1.176 -0.4593  0.1125 -0.3047
    1SOL     OW 2233   0.861   4.041   1.193  0.2306  0.5198 -0.1457
    1SOL    HW2 2234   0.874   4.042   1.287 -0.4430  1.3466 -0.0517
    1SOL    HW3 2235   0.797   3.971   1.178  0.7502  0.0247 -0.0469
    1SOL    MW4 2236   0.854   4.032   1.203  0.2103  0.5636 -0.1202
    1SOL     OW 2237   0.878   4.315   1.137 -0.5702  0.1464 -0.1624
    1SOL    HW2 2238   0.871   4.221   1.152 -1.5544  0.3374  0.5884
    1SOL    HW3 2239   0.899   4.323   1.044  0.5304 -0.8478 -0.0178
    1SOL    MW4 2240   0.880   4.304   1.127 -0.5548  0.0405 -0.0443
    1SOL     OW 2241   1.128   4.408   1.194 -0.3594  0.0527  0.2837
    1SOL    HW2 2242   1.135   4.395   1.288 -1.3613  0.1152  0.3771
    1SOL    HW3 2243   1.046   4.363   1.170  1.2194 -2.2456 -0.9685
    1SOL    MW4 2244   1.118   4.400   1.203 -0.2832 -0.2422  0.1309
    1SOL     OW 2245   1.530   0.033   1.151 -0.2149  0.0589  0.3403
    1SOL    HW2 2246   1.611   0.079   1.175 -0.7913  0.5531  1.3566
    1SOL    HW3 2247   1.545  -0.058   1.177  0.1451  0.0840  0.2197
    1SOL    MW4 2248   1.543   0.027   1.158 -0.2435  0.1275  0.4584
    1SOL     OW 2249   1.321   0.181   1.253 -0.1990 -0.5019 -0.0674
    1SOL    HW2 2250   1.395   0.134   1.216  0.3061  0.1697  0.0839
    1SOL    HW3 2251   1.244   0.140   1.213  0.2282 -1.5047  0.1324
    1SOL    MW4 2252   1.321   0.170   1.243 -0.0761 -0.5456 -0.0212
    1SOL     OW 2253   1.310   0.443   1.148  0.6872 -0.0764  0.3425
    1SOL    HW2 2254   1.327   0.356   1.184  1.6485  0.2024  0.5657
    1SOL    HW3 2255   1.219   0.461   1.172 -0.3024 -1.9995 -1.7176
    1SOL    MW4 2256   1.300   0.434   1.156  0.6835 -0.2933  0.1001
    1SOL     OW 2257   1.557   0.605   1.205  0.7289 -0.4525  0.4128
    1SOL    HW2 2258   1.558   0.694   1.169  0.8149 -0.6843 -0.1573
    1SOL    HW3 2259   1.466   0.576   1.198  0.3952  0.1317  1.9554
    1SOL    MW4 2260   1.545   0.613   1.200  0.6963 -0.4060  0.5410
    1SOL     OW 2261   1.543   0.867   1.131  0.2054  0.3732  0.2206
    1SOL    HW2 2262   1.636   0.874   1.153  0.2022 -1.0628  0.7555
    1SOL    HW3 2263   1.541   0.870   1.036  0.8049  0.3821  0.2031
    1SOL    MW4 2264   1.555   0.868   1.122  0.2840  0.1850  0.2890
    1SOL     OW 2265   1.308   0.945   1.252  0.0102  0.2656 -0.0198
    1SOL    HW2 2266   1.391   0.914   1.216 -0.0009  1.6045 -1.2819
    1SOL    HW3 2267   1.241   0.899   1.202  0.0035 -0.0515  0.2868
    1SOL    MW4 2268   1.310   0.935   1.241  0.0077  0.4004 -0.1459
    1SOL     OW 2269   1.303   1.182   1.091  0.3508 -0.4043 -0.2256
    1SOL    HW2 2270   1.320   1.103   1.142 -0.1056  0.5092  1.3787
    1SOL    HW3 2271   1.379   1.238   1.107 -0.4919  0.5064  0.7040
    1SOL    MW4 2272   1.315   1.179   1.099  0.1795 -0.1636  0.1087
    1SOL     OW 2273   1.531   1.312   1.184  0.1778  0.1473  0.1523
    1SOL    HW2 2274   1.604   1.254   1.161  0.3125  0.1560  0.5460
    1SOL    HW3 2275   1.528   1.309   1.280 -1.3143 -1.0806  0.0939
    1SOL    MW4 2276   1.540   1.304   1.194 -0.0012 -0.0137  0.1965
    1SOL     OW 2277   1.596   1.544   1.082 -0.1521 -0.2723 -0.1634
    1SOL    HW2 2278   1.659   1.581   1.145 -1.0590  0.2629  0.4426
    1SOL    HW3 2279   1.575   1.458   1.117  0.7547 -0.7409 -0.7353
    1SOL    MW4 2280   1.602   1.538   1.095 -0.1521 -0.2635 -0.1589
    1SOL     OW 2281   1.378   1.681   1.186  0.0695  0.3229 -0.0071
    1SOL    HW2 2282   1.453   1.631   1.153 -0.3410  0.5709 -1.3544
    1SOL    HW3 2283   1.302   1.638   1.147 -0.5098 -0.0130  1.4705
    1SOL    MW4 2284   1.378   1.668   1.177 -0.0610  0.3114  0.0101
    1SOL     OW 2285   1.349   1.947   1.086  0.1507 -0.0168 -0.0714
    1SOL    HW2 2286   1.371   1.862   1.125  0.5029  0.0507 -0.1208
    1SOL    HW3 2287   1.271   1.975   1.133 -0.7072 -0.9500 -0.9199
    1SOL    MW4 2288   1.342   1.940   1.098  0.0838 -0.1310 -0.1898
    1SOL     OW 2289   1.580   2.100   1.196  0.1291  0.2475  0.1398
    1SOL    HW2 2290   1.589   2.191   1.171 -0.8131  0.5122  0.7420
    1SOL    HW3 2291   1.502   2.069   1.150  0.7840 -0.4306 -0.5436
    1SOL    MW4 2292   1.571   2.108   1.187  0.0912  0.1929  0.1290
    1SOL     OW 2293   1.576   2.380   1.094 -0.4829 -0.0242 -0.3149
    1SOL    HW2 2294   1.483   2.389   1.115 -0.5396  0.2927 -0.7026
    1SOL    HW3 2295   1.578   2.367   0.999 -0.0685  0.8947 -0.4379
    1SOL    MW4 2296   1.564   2.379   1.084 -0.4356  0.1390 -0.3821
    1SOL     OW 2297   1.299   2.445   1.144  0.4161  0.0752  0.0510
    1SOL    HW2 2298   1.296   2.458   1.239 -1.2123 -0.0241  0.0289
    1SOL    HW3 2299   1.329   2.529   1.109 -0.9605  0.7730  0.5252
    1SOL    MW4 2300   1.303   2.458   1.152  0.0197  0.1543  0.1107
    1SOL     OW 2301   1.374   2.707   1.099 -0.5000 -0.2818 -0.1593
    1SOL    HW2 2302   1.441   2.761   1.140 -0.5900  0.1751 -0.6013
    1SOL    HW3 2303   1.291   2.746   1.127 -0.5891 -1.0116  0.6100
    1SOL    MW4 2304   1.372   2.719   1.108 -0.5237 -0.3178 -0.1161
    1SOL     OW 2305   1.585   2.838   1.202  0.2021  0.3471  0.0297
    1SOL    HW2 2306   1.663   2.788   1.177 -1.0389 -1.3998 -0.3861
    1SOL    HW3 2307   1.598   2.924   1.161  1.2217 -0.3941 -1.2364
    1SOL    MW4 2308   1.597   2.843   1.193  0.1730  0.0188 -0.1923
    1SOL     OW 2309   1.596   3.089   1.101 -0.0532  0.3708  0.2241
    1SOL    HW2 2310   1.665   3.132   1.152 -0.5429  0.1842  1.0605
    1SOL    HW3 2311   1.518   3.141   1.118 -0.3737 -0.1114  0.2338
    1SOL    MW4 2312   1.595   3.101   1.110 -0.1601  0.2825  0.3358
    1SOL     OW 2313   1.353   3.204   1.185 -0.2170  0.1997  0.1258
    1SOL    HW2 2314   1.354   3.194   1.281  0.6958  1.4280  0.2473
    1SOL    HW3 2315   1.278   3.152   1.157  0.7919 -1.9850  1.3073
    1SOL    MW4 2316   1.343   3.196   1.194  0.0366  0.0734  0.2979
    1SOL     OW 2317   1.306   3.457   1.062 -0.1309 -0.5429  0.4255
    1SOL    HW2 2318   1.322   3.379   1.115 -0.1808 -0.5584  0.4178
    1SOL    HW3 2319   1.292   3.423   0.973 -2.6320 -0.7505  0.8525
    1SOL    MW4 2320   1.306   3.442   1.057 -0.4677 -0.5720  0.4808
    1SOL     OW 2321   1.568   3.539   1.142  0.0678  0.3960  0.2538
    1SOL    HW2 2322   1.567   3.635   1.142 -0.2092  0.3980 -0.6241
    1SOL    HW3 2323   1.477   3.514   1.123  0.2822 -0.0326 -0.2222
    1SOL    MW4 2324   1.556   3.548   1.140  0.0595  0.3397  0.0752
    1SOL     OW 2325   1.580   3.818   1.130 -0.2748 -0.0787 -0.7466
    1SOL    HW2 2326   1.507   3.866   1.170 -0.0121  0.4648 -0.9139
    1SOL    HW3 2327   1.571   3.835   1.036  0.2522  0.2490 -0.7399
    1SOL    MW4 2328   1.569   3.827   1.123 -0.1706  0.0362 -0.7677
    1SOL     OW 2329   1.379   4.011   1.197  1.1513  0.1947 -0.5410
    1SOL    HW2 2330   1.378   4.103   1.171 -0.2688  0.3761  0.1403
    1SOL    HW3 2331   1.290   3.980   1.181  1.1439 -0.5785  0.8945
    1SOL    MW4 2332   1.367   4.019   1.191  0.9630  0.1168 -0.2618
    1SOL     OW 2333   1.366   4.293   1.116 -0.2905 -0.7028  0.2170
    1SOL    HW2 2334   1.278   4.328   1.131 -0.3455 -0.7373 -0.0212
    1SOL    HW3 2335   1.375   4.292   1.021  0.5768  0.8351  0.2619
    1SOL    MW4 2336   1.356   4.298   1.105 -0.1833 -0.5040  0.1915
    1SOL     OW 2337   1.576   4.436   1.218 -0.2088  0.1046  0.4795
    1SOL    HW2 2338   1.563   4.440   1.313  1.0317 -1.9802  0.7718
    1SOL    HW3 2339   1.494   4.401   1.184 -0.0653 -0.7128  0.9649
    1SOL    MW4 2340   1.563   4.432   1.226 -0.0262 -0.2785  0.5822
    1SOL     OW 2341   1.992   0.055   1.143 -0.1454 -0.0474  0.4738
    1SOL    HW2 2342   1.986  -0.039   1.160  0.5862 -0.1350  0.2892
    1SOL    HW3 2343   1.992   0.063   1.048  0.9086  0.0501  0.4740
    1SOL    MW4 2344   1.991   0.044   1.133  0.0901 -0.0461  0.4494
    1SOL     OW 2345   1.753   0.185   1.231 -0.0639  0.2502  0.1488
    1SOL    HW2 2346   1.748   0.275   1.200 -1.3652 -0.2923 -1.3238
    1SOL    HW3 2347   1.843   0.158   1.212  0.3654  1.2456  0.6969
    1SOL    MW4 2348   1.764   0.193   1.224 -0.1789  0.3099  0.0268
    1SOL     OW 2349   1.766   0.438   1.137  0.5454  0.1980 -0.4091
    1SOL    HW2 2350   1.691   0.493   1.160  0.9335  0.8806 -0.7287
    1SOL    HW3 2351   1.763   0.432   1.041  0.6699 -0.0948 -0.3943
    1SOL    MW4 2352   1.756   0.445   1.127  0.6130  0.2494 -0.4495
    1SOL     OW 2353   2.016   0.775   1.160  0.3460 -0.0602 -0.3593
    1SOL    HW2 2354   2.095   0.825   1.179 -0.0989  0.2625  0.6810
    1SOL    HW3 2355   2.034   0.688   1.195 -0.0242  0.2078  0.5028
    1SOL    MW4 2356   2.029   0.770   1.167  0.2384  0.0177 -0.1084
    1SOL     OW 2357   1.981   0.863   0.898  0.0101 -0.2322 -0.1924
    1SOL    HW2 2358   2.072   0.887   0.882  0.2357  0.0247  1.3793
    1SOL    HW3 2359   1.982   0.822   0.985 -1.4033  0.0165 -0.0465
    1SOL    MW4 2360   1.993   0.861   0.908 -0.1467 -0.1655  0.0342
    1SOL     OW 2361   1.790   0.935   1.228  0.7042  0.4055  0.2291
    1SOL    HW2 2362   1.806   0.939   1.322  3.2909  3.6316 -0.2903
    1SOL    HW3 2363   1.859   0.877   1.194 -0.5393 -1.1822  0.3122
    1SOL    MW4 2364   1.801   0.928   1.236  0.8813  0.6217  0.1715
    1SOL     OW 2365   1.793   1.183   1.105  0.4686 -0.0510  0.4460
    1SOL    HW2 2366   1.806   1.093   1.136 -1.0696 -0.3704  0.2163
    1SOL    HW3 2367   1.778   1.175   1.011 -3.2562  0.0335  0.9530
    1SOL    MW4 2368   1.793   1.170   1.097 -0.2258 -0.0820  0.4827
    1SOL     OW 2369   2.021   1.273   1.207 -0.1478 -0.3271 -0.0775
    1SOL    HW2 2370   2.088   1.230   1.154  0.1312  0.6876 -0.5768
    1SOL    HW3 2371   1.938   1.239   1.172  0.0328  0.3308 -1.1965
    1SOL    MW4 2372   2.019   1.263   1.195 -0.0873 -0.1065 -0.2909
    1SOL     OW 2373   2.032   1.544   1.102  0.8023 -0.2774 -0.5464
    1SOL    HW2 2374   2.029   1.452   1.130  1.3543 -0.2976 -0.5374
    1SOL    HW3 2375   2.019   1.540   1.007 -1.3774 -0.1818 -0.2610
    1SOL    MW4 2376   2.030   1.531   1.093  0.5875 -0.2674 -0.5076
    1SOL     OW 2377   1.827   1.667   1.252 -0.2508  0.4212  0.2887
    1SOL    HW2 2378   1.826   1.750   1.205 -0.4381 -0.5434 -1.4743
    1SOL    HW3 2379   1.893   1.615   1.206 -1.7300 -1.1918 -0.0659
    1SOL    MW4 2380   1.836   1.671   1.240 -0.4706  0.0811  0.0091
    1SOL     OW 2381   1.802   1.927   1.095 -0.3787 -0.1082  0.3719
    1SOL    HW2 2382   1.723   1.974   1.122  0.6365  2.3585 -0.7752
    1SOL    HW3 2383   1.805   1.939   1.000  0.7867 -1.1542  0.2679
    1SOL    MW4 2384   1.792   1.935   1.086 -0.0910  0.0792  0.2068
    1SOL     OW 2385   2.020   2.061   1.194  0.0834  0.4532 -0.5413
    1SOL    HW2 2386   2.010   2.065   1.290  1.3330 -0.7328 -0.3407
    1SOL    HW3 2387   1.942   2.013   1.165 -0.1996  0.6293 -0.0877
    1SOL    MW4 2388   2.008   2.055   1.203  0.2108  0.3200 -0.4549
    1SOL     OW 2389   2.025   2.328   1.069  0.9262  0.0602  0.1154
    1SOL    HW2 2390   2.098   2.378   1.105 -0.1289  0.0781  2.3609
    1SOL    HW3 2391   2.030   2.243   1.112  0.1822 -0.2602 -0.4209
    1SOL    MW4 2392   2.035   2.324   1.079  0.6886  0.0203  0.3409
    1SOL     OW 2393   1.813   2.446   1.222  0.1895  0.4770  0.3088
    1SOL    HW2 2394   1.877   2.408   1.163 -1.4810  0.4366 -1.5288
    1SOL    HW3 2395   1.729   2.413   1.191 -0.8243  1.3035  2.0594
    1SOL    MW4 2396   1.810   2.437   1.210 -0.1647  0.5810  0.2973
    1SOL     OW 2397   1.810   2.712   1.074 -0.3411  0.3136  0.0547
    1SOL    HW2 2398   1.808   2.624   1.111 -0.5911  0.6073  0.7421
    1SOL    HW3 2399   1.805   2.698   0.979 -2.9035 -0.3205  0.2446
    1SOL    MW4 2400   1.809   2.698   1.066 -0.7122  0.2687  0.1702
    1SOL     OW 2401   2.014   2.846   1.215  0.0742 -0.3257 -0.0886
    1SOL    HW2 2402   2.028   2.915   1.149 -0.7181  1.9223  2.0122
    1SOL    HW3 2403   1.945   2.792   1.177  0.0843  0.5466 -1.4143
    1SOL    MW4 2404   2.006   2.848   1.201 -0.0291  0.0861  0.0137
    1SOL     OW 2405   2.043   3.073   1.056  0.0575 -0.3721  0.1117
    1SOL    HW2 2406   1.957   3.109   1.079  0.0838 -0.2018 -0.0564
    1SOL    HW3 2407   2.051   3.089   0.962  0.9174  0.9679  0.3928
    1SOL    MW4 2408   2.032   3.080   1.046  0.1745 -0.1729  0.1266
    1SOL     OW 2409   1.837   3.209   1.198 -0.2089 -0.4253  0.0022
    1SOL    HW2 2410   1.818   3.223   1.291  1.5016  0.0224  0.3046
    1SOL    HW3 2411   1.840   3.297   1.161 -0.8073 -0.6017 -0.4564
    1SOL    MW4 2412   1.835   3.222   1.206 -0.0622 -0.3898 -0.0185
    1SOL     OW 2413   1.808   3.446   1.032  0.0911  0.3135  0.0461
    1SOL    HW2 2414   1.879   3.498   1.071  1.3009 -0.4089 -1.1717
    1SOL    HW3 2415   1.732   3.467   1.086  1.4701  0.2190  2.0955
    1SOL    MW4 2416   1.807   3.456   1.044  0.4326  0.2058  0.1557
    1SOL     OW 2417   2.005   3.598   1.195  0.0496  0.0262  0.1451
    1SOL    HW2 2418   2.008   3.598   1.291  0.1132  1.6709  0.1667
    1SOL    HW3 2419   2.076   3.540   1.168  2.4432  2.4070  1.0914
    1SOL    MW4 2420   2.014   3.591   1.204  0.3738  0.5574  0.2728
    1SOL     OW 2421   2.020   3.876   1.100  0.4719  0.6317  0.3377
    1SOL    HW2 2422   1.936   3.909   1.131 -0.1718 -0.4650 -0.1761
    1SOL    HW3 2423   2.022   3.785   1.130  0.0052 -0.3355 -2.4654
    1SOL    MW4 2424   2.009   3.868   1.108  0.3254  0.3593 -0.0998
    1SOL     OW 2425   1.787   3.982   1.216 -0.4346 -0.4362 -0.1089
    1SOL    HW2 2426   1.802   3.961   1.308 -0.5075  0.3905  0.0988
    1SOL    HW3 2427   1.727   3.914   1.186 -0.2107 -0.8564  0.3888
    1SOL    MW4 2428   1.781   3.971   1.224 -0.4147 -0.3827 -0.0157
    1SOL     OW 2429   1.781   4.244   1.141 -1.0564  0.0818 -0.3276
    1SOL    HW2 2430   1.787   4.162   1.191 -0.1943  0.6277  0.4830
    1SOL    HW3 2431   1.713   4.294   1.186  0.8133  1.2340  1.3105
    1SOL    MW4 2432   1.773   4.239   1.154 -0.6961  0.3057 -0.0044
    1SOL     OW 2433   1.980   4.442   1.210 -0.2232  0.1293 -0.1420
    1SOL    HW2 2434   1.998   4.421   1.301 -0.0037  0.2824 -0.1496
    1SOL    HW3 2435   1.909   4.382   1.184 -0.1841 -0.0121  0.0838
    1SOL    MW4 2436   1.973   4.431   1.218 -0.1889  0.1307 -0.1131
    1SOL     OW 2437   2.469   0.000   1.155  0.2736  0.1824 -0.1586
    1SOL    HW2 2438   2.540   0.061   1.178 -0.5158  0.6566  1.0427
    1SOL    HW3 2439   2.389   0.043   1.186 -0.4953 -0.5963 -1.0248
    1SOL    MW4 2440   2.468   0.014   1.162  0.0677  0.1421 -0.1144
    1SOL     OW 2441   2.242   0.122   1.226 -0.4493  0.3530 -0.3699
    1SOL    HW2 2442   2.254   0.214   1.204 -0.9705  0.5031 -0.0220
    1SOL    HW3 2443   2.150   0.104   1.209 -0.3245 -0.1398 -0.5603
    1SOL    MW4 2444   2.232   0.132   1.221 -0.5014  0.3078 -0.3492
    1SOL     OW 2445   2.014   0.496   1.239 -0.0315 -0.1659  0.1271
    1SOL    HW2 2446   1.992   0.512   1.330 -0.2989 -0.5196  0.1250
    1SOL    HW3 2447   1.930   0.483   1.195  0.1352 -0.8213 -0.0092
    1SOL    MW4 2448   2.000   0.497   1.245 -0.0448 -0.2991  0.1088
    1SOL     OW 2449   2.476   0.517   1.231  0.0222  0.3460 -0.1478
    1SOL    HW2 2450   2.460   0.522   1.326  0.4156 -1.7587  0.0698
    1SOL    HW3 2451   2.397   0.478   1.196  0.2521  0.2507 -0.5598
    1SOL    MW4 2452   2.464   0.512   1.239  0.1044  0.0558 -0.1733
    1SOL     OW 2453   2.456   0.776   1.121  0.0259  0.4515  0.5426
    1SOL    HW2 2454   2.475   0.687   1.149 -0.6231  0.3463  0.6546
    1SOL    HW3 2455   2.479   0.778   1.028  0.9750  0.4486  0.7689
    1SOL    MW4 2456   2.462   0.765   1.112  0.0656  0.4371  0.5872
    1SOL     OW 2457   2.237   0.933   1.218 -0.2661  0.0401  0.0051
    1SOL    HW2 2458   2.275   0.949   1.304  0.3615 -0.1237 -0.2403
    1SOL    HW3 2459   2.307   0.890   1.169 -0.0567  1.6049 -1.1119
    1SOL    MW4 2460   2.251   0.929   1.223 -0.1557  0.2249 -0.1748
    1SOL     OW 2461   2.219   1.184   1.069 -0.2908  0.0351 -0.0479
    1SOL    HW2 2462   2.299   1.223   1.103  1.7765 -1.6542 -2.7031
    1SOL    HW3 2463   2.221   1.094   1.101 -1.1481  0.0124 -0.0638
    1SOL    MW4 2464   2.230   1.177   1.078 -0.1314 -0.1909 -0.4003
    1SOL     OW 2465   2.414   1.306   1.207 -0.3960 -0.1705  0.2559
    1SOL    HW2 2466   2.495   1.256   1.200  0.3197  0.8063  1.4251
    1SOL    HW3 2467   2.436   1.393   1.174 -1.3722 -0.3150 -0.8224
    1SOL    MW4 2468   2.427   1.311   1.202 -0.4306 -0.0608  0.2679
    1SOL     OW 2469   2.492   1.563   1.151 -0.1331 -0.2937 -0.1897
    1SOL    HW2 2470   2.411   1.613   1.151 -0.3613 -0.6464 -1.0298
    1SOL    HW3 2471   2.525   1.569   1.061  0.3082 -0.8791 -0.0778
    1SOL    MW4 2472   2.486   1.570   1.139 -0.1047 -0.4175 -0.2857
    1SOL     OW 2473   2.251   1.670   1.225 -0.2216 -0.1425 -0.5450
    1SOL    HW2 2474   2.245   1.757   1.186 -1.8505  0.7140  1.5126
    1SOL    HW3 2475   2.179   1.621   1.186 -0.1612 -0.1350 -0.6660
    1SOL    MW4 2476   2.241   1.675   1.215 -0.4282 -0.0287 -0.2894
    1SOL     OW 2477   2.234   1.926   1.119  0.3695  0.0097 -0.7596
    1SOL    HW2 2478   2.155   1.971   1.150 -0.7888 -2.5370  0.1892
    1SOL    HW3 2479   2.218   1.911   1.026  0.0356  0.1001 -0.7173
    1SOL    MW4 2480   2.221   1.930   1.111  0.1729 -0.3144 -0.6289
    1SOL     OW 2481   2.447   2.065   1.220 -0.0914  0.2249  0.2101
    1SOL    HW2 2482   2.523   2.016   1.189  0.6712  0.6397  1.3784
    1SOL    HW3 2483   2.372   2.019   1.183  0.7201 -0.2067 -0.9337
    1SOL    MW4 2484   2.447   2.053   1.211  0.1161  0.2224  0.2133
    1SOL     OW 2485   2.475   2.323   1.145 -0.1193 -0.3406 -0.2818
    1SOL    HW2 2486   2.461   2.234   1.174  2.8211 -0.5513  0.6864
    1SOL    HW3 2487   2.504   2.314   1.054 -0.3109 -0.3562 -0.3402
    1SOL    MW4 2488   2.477   2.310   1.137  0.2434 -0.3705 -0.1618
    1SOL     OW 2489   2.234   2.463   1.183  0.7046 -0.4561  0.5479
    1SOL    HW2 2490   2.215   2.472   1.277 -0.2324 -0.9396  0.4192
    1SOL    HW3 2491   2.316   2.415   1.180  0.5456 -0.7762  1.1263
    1SOL    MW4 2492   2.242   2.458   1.195  0.5598 -0.5620  0.6073
    1SOL     OW 2493   2.249   2.738   1.117 -0.3674  0.5406  0.1813
    1SOL    HW2 2494   2.247   2.645   1.140 -0.0709  0.7161  0.9455
    1SOL    HW3 2495   2.170   2.774   1.158 -0.5240  0.6124 -0.1803
    1SOL    MW4 2496   2.238   2.730   1.125 -0.3488  0.5734  0.2345
    1SOL     OW 2497   2.473   2.845   1.212  0.2018  0.0328 -0.6428
    1SOL    HW2 2498   2.469   2.840   1.308 -1.4107  0.8465 -0.6428
    1SOL    HW3 2499   2.394   2.800   1.182  1.6797 -1.9249 -1.6837
    1SOL    MW4 2500   2.462   2.838   1.221  0.1838 -0.1180 -0.7801
    1SOL     OW 2501   2.477   3.122   1.136  0.3462  0.3438  0.3115
    1SOL    HW2 2502   2.384   3.139   1.155  0.5562  0.5517  1.1719
    1SOL    HW3 2503   2.486   3.027   1.142  0.3476  0.3860  0.9437
    1SOL    MW4 2504   2.466   3.112   1.139  0.3746  0.3769  0.5084
    1SOL     OW 2505   2.226   3.194   1.240 -0.1319  0.5331  0.2641
    1SOL    HW2 2506   2.217   3.281   1.201  0.8905 -0.5603 -2.5361
    1SOL    HW3 2507   2.170   3.138   1.186 -0.6869 -0.5846  1.9639
    1SOL    MW4 2508   2.217   3.198   1.227 -0.0701  0.2415  0.1190
    1SOL     OW 2509   2.213   3.432   1.109 -0.0032  0.4220 -0.3789
    1SOL    HW2 2510   2.290   3.487   1.127  0.2587  0.9513 -2.9622
    1SOL    HW3 2511   2.234   3.387   1.028 -1.4465 -1.3151  0.1798
    1SOL    MW4 2512   2.226   3.433   1.101 -0.1593  0.2627 -0.6461
    1SOL     OW 2513   2.419   3.596   1.204  0.3091  0.5395 -0.1708
    1SOL    HW2 2514   2.432   3.594   1.298  1.0549  2.5059 -0.2015
    1SOL    HW3 2515   2.409   3.688   1.183 -1.0196  0.0311 -1.8768
    1SOL    MW4 2516   2.420   3.608   1.213  0.2322  0.7319 -0.3999
    1SOL     OW 2517   2.436   3.871   1.155  0.3171 -0.9143  0.1339
    1SOL    HW2 2518   2.349   3.901   1.181  1.2240  0.8565  1.1845
    1SOL    HW3 2519   2.435   3.877   1.059 -0.4049  0.0016  0.1833
    1SOL    MW4 2520   2.424   3.876   1.145  0.3417 -0.5598  0.2789
    1SOL     OW 2521   2.234   4.039   1.226  0.1112  0.2148 -0.0524
    1SOL    HW2 2522   2.234   4.130   1.196  0.4437  0.1251 -0.3226
    1SOL    HW3 2523   2.162   3.998   1.178 -0.1937  0.3908  0.2471
    1SOL    MW4 2524   2.224   4.045   1.216  0.1149  0.2265 -0.0486
    1SOL     OW 2525   2.212   4.315   1.133 -0.1402 -0.2153 -0.1358
    1SOL    HW2 2526   2.137   4.373   1.144  1.6604  2.3914 -0.9284
    1SOL    HW3 2527   2.220   4.304   1.038  0.5993 -0.2697 -0.0717
    1SOL    MW4 2528   2.204   4.321   1.122  0.1950  0.1211 -0.2320
    1SOL     OW 2529   2.450   4.409   1.261  0.5679  0.0337  0.0730
    1SOL    HW2 2530   2.366   4.381   1.224  1.0193 -1.3457  0.0484
    1SOL    HW3 2531   2.465   4.495   1.222 -0.1668 -0.3144 -1.0223
    1SOL    MW4 2532   2.441   4.417   1.251  0.5302 -0.1941 -0.0747
    1SOL     OW 2533   2.889   4.642   1.145 -0.3878 -0.5137 -0.0925
    1SOL    HW2 2534   2.911   4.551   1.162  0.2320 -0.2608  0.4904
    1SOL    HW3 2535   2.880   4.648   1.050  1.2842 -0.8041 -0.2787
    1SOL    MW4 2536   2.891   4.631   1.135 -0.0856 -0.5187 -0.0401
    1SOL     OW 2537   2.681   0.143   1.245 -0.0327 -0.3334 -0.0029
    1SOL    HW2 2538   2.675   0.123   1.339  0.1929 -0.3983  0.0001
    1SOL    HW3 2539   2.753   0.087   1.214  1.0304  0.9266  0.1208
    1SOL    MW4 2540   2.690   0.133   1.253  0.1373 -0.1757  0.0137
    1SOL     OW 2541   2.711   0.400   1.160  0.2395  0.0590  0.2373
    1SOL    HW2 2542   2.707   0.311   1.196 -1.0693 -0.2150 -0.5690
    1SOL    HW3 2543   2.631   0.442   1.191  0.1680  0.5161 -0.5634
    1SOL    MW4 2544   2.700   0.394   1.169  0.0572  0.0831  0.0253
    1SOL     OW 2545   2.948   0.491   1.249  0.2596  0.1079 -0.1588
    1SOL    HW2 2546   2.951   0.581   1.218 -0.8736  0.5493  1.0027
    1SOL    HW3 2547   2.863   0.458   1.221 -0.1537  0.0376  1.1491
    1SOL    MW4 2548   2.937   0.498   1.241  0.0553  0.1568  0.1671
    1SOL     OW 2549   2.916   0.763   1.162 -0.1187  0.2602  0.2660
    1SOL    HW2 2550   2.992   0.821   1.167  0.3085 -0.4546  2.1739
    1SOL    HW3 2551   2.843   0.816   1.194  0.1750 -0.0912  1.5140
    1SOL    MW4 2552   2.916   0.778   1.167 -0.0234  0.1196  0.6825
    1SOL     OW 2553   2.695   0.918   1.239 -0.1925  0.8764  0.1608
    1SOL    HW2 2554   2.690   1.012   1.221 -0.7540  0.7048 -0.5681
    1SOL    HW3 2555   2.613   0.883   1.206  0.4538 -0.0261 -0.4961
    1SOL    MW4 2556   2.684   0.926   1.232 -0.1814  0.7347 -0.0219
    1SOL     OW 2557   2.674   1.185   1.139 -0.0430  0.6187  0.3899
    1SOL    HW2 2558   2.707   1.188   1.049  0.1407  0.0747  0.4362
    1SOL    HW3 2559   2.742   1.226   1.191  0.6359 -0.6240  0.5027
    1SOL    MW4 2560   2.687   1.191   1.134  0.0710  0.3830  0.4108
    1SOL     OW 2561   2.897   1.310   1.260  0.0615  0.1153  0.2149
    1SOL    HW2 2562   2.902   1.308   1.356 -1.0834  0.4784  0.2830
    1SOL    HW3 2563   2.901   1.402   1.237  0.7082  0.0110 -0.1206
    1SOL    MW4 2564   2.898   1.322   1.270 -0.0041  0.1495  0.1796
    1SOL     OW 2565   2.913   1.573   1.188  0.1104 -0.0731 -0.2404
    1SOL    HW2 2566   2.991   1.621   1.219  0.0597 -0.6799  0.8625
    1SOL    HW3 2567   2.922   1.571   1.093  1.7736 -0.6782 -0.0810
    1SOL    MW4 2568   2.925   1.579   1.180  0.3233 -0.2331 -0.0739
    1SOL     OW 2569   2.692   1.697   1.281  0.3793 -0.2249 -0.1724
    1SOL    HW2 2570   2.769   1.648   1.250 -0.7408 -1.5261 -0.9704
    1SOL    HW3 2571   2.617   1.651   1.241 -0.9272 -0.1714  2.1542
    1SOL    MW4 2572   2.692   1.684   1.271  0.0589 -0.3896  0.0293
    1SOL     OW 2573   2.680   1.935   1.131 -0.4118  0.4031  0.6006
    1SOL    HW2 2574   2.744   2.005   1.145  0.2415 -0.2347  0.8642
    1SOL    HW3 2575   2.710   1.864   1.188 -1.0607 -0.0910  0.3293
    1SOL    MW4 2576   2.693   1.935   1.140 -0.4110  0.2538  0.5997
    1SOL     OW 2577   2.923   2.046   1.204  0.1397  0.0600 -0.4206
    1SOL    HW2 2578   2.915   2.063   1.298  0.5303 -1.1944 -0.1460
    1SOL    HW3 2579   2.946   2.130   1.166  0.7795  0.4081  0.7100
    1SOL    MW4 2580   2.925   2.059   1.211  0.2759 -0.0594 -0.2353
    1SOL     OW 2581   2.959   2.317   1.099  0.3507  0.3315 -0.9318
    1SOL    HW2 2582   3.034   2.360   1.140  0.2044 -0.1241 -0.1723
    1SOL    HW3 2583   2.883   2.359   1.139  0.2039 -0.0593 -0.8031
    1SOL    MW4 2584   2.959   2.328   1.110  0.3119  0.2198 -0.8146
    1SOL     OW 2585   2.723   2.433   1.239  0.0288  0.0444 -0.3906
    1SOL    HW2 2586   2.720   2.448   1.334  0.4544 -0.4364 -0.2981
    1SOL    HW3 2587   2.637   2.397   1.218  0.5038 -1.4221  0.0915
    1SOL    MW4 2588   2.712   2.430   1.249  0.1476 -0.2124 -0.3150
    1SOL     OW 2589   2.715   2.717   1.129 -0.3591 -0.1506 -0.3081
    1SOL    HW2 2590   2.709   2.628   1.163 -0.6010 -0.6525 -1.6208
    1SOL    HW3 2591   2.645   2.764   1.173 -0.5096 -0.7229  0.0725
    1SOL    MW4 2592   2.705   2.711   1.139 -0.4108 -0.2925 -0.4309
    1SOL     OW 2593   2.960   2.825   1.275 -0.1312 -0.4817  0.1155
    1SOL    HW2 2594   2.929   2.832   1.365 -0.8164  0.2457 -0.1756
    1SOL    HW3 2595   2.891   2.780   1.229  0.6578 -1.7634  0.1588
    1SOL    MW4 2596   2.947   2.820   1.281 -0.1175 -0.5548  0.0829
    1SOL     OW 2597   2.929   3.086   1.190  0.2503  0.0593 -0.3973
    1SOL    HW2 2598   2.944   2.996   1.218 -1.1802  0.3948  1.5268
    1SOL    HW3 2599   2.893   3.078   1.101  1.9039 -1.1620 -0.9706
    1SOL    MW4 2600   2.926   3.073   1.182  0.2797 -0.0575 -0.2192
    1SOL     OW 2601   2.702   3.256   1.271  0.0677  0.0264 -0.3018
    1SOL    HW2 2602   2.774   3.193   1.261  0.6864  0.3653  1.8198
    1SOL    HW3 2603   2.629   3.217   1.224  1.5999 -0.3644 -2.4372
    1SOL    MW4 2604   2.702   3.243   1.264  0.3512  0.0193 -0.3035
    1SOL     OW 2605   2.664   3.491   1.117  0.2678 -0.5613 -0.4363
    1SOL    HW2 2606   2.672   3.407   1.162 -0.9617 -1.3631 -1.6564
    1SOL    HW3 2607   2.573   3.518   1.131 -0.0306 -0.6521 -2.1067
    1SOL    MW4 2608   2.653   3.483   1.125  0.0663 -0.6793 -0.8175
    1SOL     OW 2609   2.892   3.613   1.252  0.1799 -0.1380  0.2698
    1SOL    HW2 2610   2.975   3.574   1.223 -0.2284 -0.6214 -0.2661
    1SOL    HW3 2611   2.826   3.566   1.202 -0.3238  1.2580 -0.3747
    1SOL    MW4 2612   2.895   3.602   1.242  0.0598 -0.0174  0.1140
    1SOL     OW 2613   2.864   3.847   1.111 -0.3340  0.0568 -0.3606
    1SOL    HW2 2614   2.944   3.893   1.138  0.3688 -0.8006 -0.9665
    1SOL    HW3 2615   2.868   3.763   1.157 -1.3803  0.3850  0.3661
    1SOL    MW4 2616   2.875   3.842   1.121 -0.3793 -0.0129 -0.3448
    1SOL     OW 2617   2.667   4.001   1.241  0.1675  0.1129  0.0597
    1SOL    HW2 2618   2.727   3.942   1.196  0.5220  0.2219  0.3871
    1SOL    HW3 2619   2.580   3.968   1.221  0.2847  0.7448 -1.5240
    1SOL    MW4 2620   2.664   3.989   1.233  0.2296  0.2108 -0.1061
    1SOL     OW 2621   2.661   4.269   1.142 -0.5743  0.4651  0.4287
    1SOL    HW2 2622   2.675   4.183   1.180 -0.7374  0.5686  0.7231
    1SOL    HW3 2623   2.589   4.307   1.193  0.8252  1.5825  1.6510
    1SOL    MW4 2624   2.653   4.263   1.154 -0.4110  0.6266  0.6288
    1SOL     OW 2625   2.909   4.390   1.204 -0.5897  0.0011  0.1082
    1SOL    HW2 2626   2.975   4.333   1.164  0.4778  0.1046  1.6997
    1SOL    HW3 2627   2.826   4.344   1.189  0.0365 -1.0184 -0.3026
    1SOL    MW4 2628   2.906   4.376   1.196 -0.3662 -0.1197  0.2639
    1SOL     OW 2629   3.350   4.661   1.098  0.0377  0.1279 -0.5846
    1SOL    HW2 2630   3.429   4.706   1.127  0.0551  0.6024 -1.3531
    1SOL    HW3 2631   3.279   4.704   1.145  0.2355 -0.3338  0.1472
    1SOL    MW4 2632   3.351   4.672   1.108  0.0658  0.1297 -0.5895
    1SOL     OW 2633   3.118   0.113   1.217 -0.4684  0.3614 -0.2743
    1SOL    HW2 2634   3.113   0.105   1.312 -0.3552  0.2669 -0.2754
    1SOL    HW3 2635   3.039   0.069   1.186  0.6233 -1.6527 -0.3165
    1SOL    MW4 2636   3.107   0.106   1.226 -0.3095  0.0832 -0.2800
    1SOL     OW 2637   3.146   0.358   1.080  0.0600  0.1729  0.1658
    1SOL    HW2 2638   3.149   0.270   1.118  1.3313  0.0792 -0.1388
    1SOL    HW3 2639   3.076   0.402   1.127  0.1311 -0.6639  1.0578
    1SOL    MW4 2640   3.137   0.352   1.091  0.2370  0.0501  0.2432
    1SOL     OW 2641   3.330   0.501   1.239  0.1335 -0.2095  0.4646
    1SOL    HW2 2642   3.341   0.578   1.184 -1.1850  0.3027  0.9017
    1SOL    HW3 2643   3.259   0.452   1.197 -1.2373  0.4338  1.9521
    1SOL    MW4 2644   3.322   0.504   1.226 -0.2215 -0.0570  0.7186
    1SOL     OW 2645   3.375   0.732   1.105  0.2683  0.2923  0.1103
    1SOL    HW2 2646   3.366   0.759   1.013  1.2843  0.0791 -0.0540
    1SOL    HW3 2647   3.307   0.781   1.151  0.8073  1.6356 -0.5026
    1SOL    MW4 2648   3.365   0.742   1.099  0.4733  0.4414  0.0077
    1SOL     OW 2649   3.153   0.901   1.219 -0.5301 -0.0934 -0.3666
    1SOL    HW2 2650   3.140   0.896   1.313 -1.6692 -0.4988 -0.5354
    1SOL    HW3 2651   3.137   0.993   1.198 -0.8130 -0.1119 -0.2375
    1SOL    MW4 2652   3.149   0.913   1.228 -0.7174 -0.1494 -0.3718
    1SOL     OW 2653   3.091   1.163   1.150  0.1360  0.6131 -0.0232
    1SOL    HW2 2654   3.172   1.200   1.185 -0.5955 -0.2639  2.7295
    1SOL    HW3 2655   3.022   1.205   1.201 -1.0018 -0.3579 -0.7522
    1SOL    MW4 2656   3.093   1.174   1.161 -0.1106  0.3691  0.2438
    1SOL     OW 2657   3.334   1.274   1.230 -0.2836  0.0645 -0.2005
    1SOL    HW2 2658   3.345   1.290   1.324 -0.0904  0.0286 -0.2171
    1SOL    HW3 2659   3.333   1.362   1.191 -0.9985  0.1055 -0.0954
    1SOL    MW4 2660   3.335   1.288   1.237 -0.3521  0.0651 -0.1887
    1SOL     OW 2661   3.313   1.537   1.149  0.4428 -0.0620 -0.1210
    1SOL    HW2 2662   3.400   1.575   1.164  0.0830  1.8830 -2.6075
    1SOL    HW3 2663   3.252   1.598   1.190  0.1869 -1.1493  1.1539
    1SOL    MW4 2664   3.317   1.550   1.156  0.3614  0.0511 -0.2809
    1SOL     OW 2665   3.135   1.700   1.275 -0.4056  0.2326 -0.0030
    1SOL    HW2 2666   3.165   1.710   1.365 -0.1440 -0.1662 -0.0400
    1SOL    HW3 2667   3.133   1.789   1.240  0.2320  0.3233  0.1699
    1SOL    MW4 2668   3.139   1.713   1.282 -0.2868  0.1919  0.0149
    1SOL     OW 2669   3.143   1.917   1.119  0.2809 -0.5086 -0.2632
    1SOL    HW2 2670   3.207   1.980   1.151 -0.7607 -0.4783  1.8301
    1SOL    HW3 2671   3.058   1.956   1.141 -0.3871 -2.3479  0.4815
    1SOL    MW4 2672   3.140   1.930   1.126  0.0553 -0.7473  0.1112
    1SOL     OW 2673   3.339   2.062   1.230  0.4748  0.0004  0.0119
    1SOL    HW2 2674   3.418   2.012   1.208  1.1294 -0.0624  2.3650
    1SOL    HW3 2675   3.352   2.146   1.186  2.4408  0.4141  1.2949
    1SOL    MW4 2676   3.351   2.067   1.221  0.8206  0.0470  0.4917
    1SOL     OW 2677   3.360   2.327   1.147  0.3638  0.6169 -0.1154
    1SOL    HW2 2678   3.430   2.388   1.172  0.4547  0.3780  0.2137
    1SOL    HW3 2679   3.283   2.359   1.194  0.7989 -0.5144  1.4136
    1SOL    MW4 2680   3.360   2.339   1.156  0.4332  0.4363  0.1298
    1SOL     OW 2681   3.143   2.440   1.255 -0.3024  0.0695 -0.0907
    1SOL    HW2 2682   3.109   2.435   1.344 -0.7247  0.1548 -0.2474
    1SOL    HW3 2683   3.175   2.529   1.246 -0.3130  0.0780 -0.0424
    1SOL    MW4 2684   3.143   2.451   1.265 -0.3593  0.0818 -0.1050
    1SOL     OW 2685   3.200   2.704   1.198 -0.4534 -0.1327  0.3993
    1SOL    HW2 2686   3.121   2.743   1.235 -0.1214  2.1353 -1.2107
    1SOL    HW3 2687   3.187   2.709   1.103  0.9089 -1.2876  0.1276
    1SOL    MW4 2688   3.188   2.710   1.190 -0.2298  0.0143  0.1510
    1SOL     OW 2689   3.389   2.879   1.271  0.3602 -0.3157  0.1383
    1SOL    HW2 2690   3.367   2.965   1.234  0.8569  0.1849  0.9677
    1SOL    HW3 2691   3.321   2.820   1.239 -0.8663  0.7116  0.7860
    1SOL    MW4 2692   3.377   2.883   1.262  0.2639 -0.1140  0.3333
    1SOL     OW 2693   3.350   3.134   1.155 -0.2959 -0.4863 -0.1992
    1SOL    HW2 2694   3.430   3.171   1.191  0.5526 -1.1820 -1.3388
    1SOL    HW3 2695   3.280   3.176   1.205  0.8091 -0.6752  1.5292
    1SOL    MW4 2696   3.351   3.145   1.166 -0.0381 -0.6032 -0.1214
    1SOL     OW 2697   3.129   3.273   1.253 -0.0323  0.4923  0.4372
    1SOL    HW2 2698   3.126   3.266   1.348  0.8838 -0.4708  0.4089
    1SOL    HW3 2699   3.062   3.211   1.223 -0.0041  0.4536  0.4529
    1SOL    MW4 2700   3.120   3.264   1.262  0.0923  0.3603  0.4354
    1SOL     OW 2701   3.108   3.501   1.116  0.1884 -0.0788 -0.2817
    1SOL    HW2 2702   3.191   3.542   1.140  0.3095 -0.0397 -0.7597
    1SOL    HW3 2703   3.114   3.412   1.152  0.2421  0.0760  0.0896
    1SOL    MW4 2704   3.120   3.495   1.124  0.2115 -0.0534 -0.2958
    1SOL     OW 2705   3.350   3.628   1.204 -0.1732  0.0953  0.6228
    1SOL    HW2 2706   3.365   3.626   1.299 -0.5132  0.1930  0.6807
    1SOL    HW3 2707   3.431   3.595   1.166  0.7684  2.0900  0.8543
    1SOL    MW4 2708   3.363   3.623   1.212 -0.0937  0.3715  0.6610
    1SOL     OW 2709   3.328   3.876   1.109 -0.4070  0.0637 -0.8843
    1SOL    HW2 2710   3.331   3.785   1.139  0.6858  0.1753 -0.6106
    1SOL    HW3 2711   3.251   3.913   1.153  0.3410 -0.1735  0.6836
    1SOL    MW4 2712   3.319   3.869   1.119 -0.1640  0.0472 -0.6412
    1SOL     OW 2713   3.079   3.990   1.200  0.0517 -0.5866  0.1027
    1SOL    HW2 2714   3.090   3.999   1.294 -0.0555 -2.0894  0.2692
    1SOL    HW3 2715   3.084   4.080   1.166 -1.0158  0.0735  1.6536
    1SOL    MW4 2716   3.081   4.003   1.208 -0.1032 -0.6981  0.3294
    1SOL     OW 2717   3.100   4.232   1.083  0.1835 -0.0768 -0.2711
    1SOL    HW2 2718   3.176   4.278   1.118  0.7250  0.2533 -1.8450
    1SOL    HW3 2719   3.111   4.236   0.988 -2.0750  0.4613 -0.5519
    1SOL    MW4 2720   3.111   4.239   1.075 -0.0429  0.0381 -0.5158
    1SOL     OW 2721   3.314   4.371   1.187 -0.2070 -0.3213  0.3163
    1SOL    HW2 2722   3.402   4.346   1.162 -0.3267  0.7328 -1.2190
    1SOL    HW3 2723   3.305   4.461   1.157 -1.8218 -0.4359  0.3943
    1SOL    MW4 2724   3.324   4.379   1.180 -0.4361 -0.1974  0.1241
    1SOL     OW 2725   3.798   0.032   1.139 -0.1720 -0.2138  0.3544
    1SOL    HW2 2726   3.803  -0.063   1.145  0.9009 -0.1244  1.1297
    1SOL    HW3 2727   3.791   0.050   1.046 -1.6022 -1.0944  0.2827
    1SOL    MW4 2728   3.798   0.022   1.128 -0.2191 -0.3182  0.4474
    1SOL     OW 2729   3.567   0.132   1.231  0.3871 -0.1535 -0.3657
    1SOL    HW2 2730   3.546   0.210   1.179  1.5344 -0.7854 -1.8199
    1SOL    HW3 2731   3.650   0.101   1.195 -0.2128 -2.2351 -0.0184
    1SOL    MW4 2732   3.575   0.138   1.220  0.4592 -0.5116 -0.5116
    1SOL     OW 2733   3.532   0.388   1.091  0.2102 -0.0251 -0.1955
    1SOL    HW2 2734   3.605   0.439   1.126 -0.6648  2.8576 -2.3532
    1SOL    HW3 2735   3.458   0.412   1.146  0.5899 -2.1148  1.3002
    1SOL    MW4 2736   3.532   0.398   1.103  0.1450  0.0795 -0.2829
    1SOL     OW 2737   3.749   0.508   1.234 -0.1766 -0.1069  0.0853
    1SOL    HW2 2738   3.833   0.471   1.205 -0.2421 -0.0729 -0.1495
    1SOL    HW3 2739   3.753   0.600   1.205 -0.6060 -0.2951 -0.5807
    1SOL    MW4 2740   3.761   0.515   1.227 -0.2422 -0.1272 -0.0336
    1SOL     OW 2741   3.760   0.761   1.116  0.4308 -0.1242 -0.0339
    1SOL    HW2 2742   3.840   0.796   1.155  0.0338  1.0011 -0.2171
    1SOL    HW3 2743   3.692   0.826   1.136 -0.0261 -0.1052 -1.5338
    1SOL    MW4 2744   3.761   0.774   1.124  0.3178  0.0268 -0.2559
    1SOL     OW 2745   3.564   0.918   1.197  0.3649 -0.1338  0.0004
    1SOL    HW2 2746   3.544   1.004   1.159 -0.8020  0.3597  1.6654
    1SOL    HW3 2747   3.495   0.861   1.164  0.9067 -0.3336 -0.7825
    1SOL    MW4 2748   3.552   0.922   1.188  0.2825 -0.0950  0.1169
    1SOL     OW 2749   3.529   1.167   1.073  0.1824  0.2466 -0.4840
    1SOL    HW2 2750   3.613   1.188   1.113  0.0173 -0.0659  0.0311
    1SOL    HW3 2751   3.464   1.203   1.133 -0.0535  0.3253 -0.7875
    1SOL    MW4 2752   3.532   1.175   1.086  0.1295  0.2156 -0.4560
    1SOL     OW 2753   3.771   1.259   1.188  0.3166  0.1309 -0.0645
    1SOL    HW2 2754   3.799   1.261   1.280 -1.5580 -1.1039  0.5417
    1SOL    HW3 2755   3.752   1.350   1.167  0.8280  0.4311  0.7504
    1SOL    MW4 2756   3.772   1.271   1.197  0.1366  0.0076  0.1230
    1SOL     OW 2757   3.770   1.528   1.090 -0.0990  0.0615 -0.9883
    1SOL    HW2 2758   3.845   1.574   1.127 -1.1596  1.8409 -0.9849
    1SOL    HW3 2759   3.796   1.511   0.999  0.6548 -0.1406 -0.7422
    1SOL    MW4 2760   3.783   1.532   1.083 -0.1395  0.2697 -0.9555
    1SOL     OW 2761   3.552   1.663   1.204  0.0537 -0.1892  0.5582
    1SOL    HW2 2762   3.550   1.755   1.179 -0.5189 -0.4807 -0.4655
    1SOL    HW3 2763   3.630   1.628   1.162  0.1511 -0.2260  0.7684
    1SOL    MW4 2764   3.562   1.671   1.195 -0.0091 -0.2325  0.4508
    1SOL     OW 2765   3.559   1.923   1.132  0.5449  0.0825  0.3953
    1SOL    HW2 2766   3.644   1.965   1.150  1.2556 -0.8238 -0.7825
    1SOL    HW3 2767   3.555   1.918   1.037 -1.5780  1.5792  0.3834
    1SOL    MW4 2768   3.570   1.928   1.122  0.3586  0.1602  0.2382
    1SOL     OW 2769   4.035   1.934   1.134 -0.5790  0.0445  0.3510
    1SOL    HW2 2770   3.958   1.981   1.168 -0.9613 -0.7188  0.5574
    1SOL    HW3 2771   4.020   1.842   1.159 -0.3243 -0.3499 -0.9236
    1SOL    MW4 2772   4.023   1.928   1.142 -0.5960 -0.1084  0.2100
    1SOL     OW 2773   3.791   2.053   1.209 -0.0917  0.4461 -0.0194
    1SOL    HW2 2774   3.785   2.146   1.188  0.7142  0.7167  0.9052
    1SOL    HW3 2775   3.800   2.050   1.304  2.2070 -0.4658 -0.2499
    1SOL    MW4 2776   3.791   2.065   1.219  0.3178  0.3617  0.0721
    1SOL     OW 2777   3.588   2.469   1.241 -0.4027 -0.8342 -0.0179
    1SOL    HW2 2778   3.588   2.452   1.335  0.4159  0.8094  0.2980
    1SOL    HW3 2779   3.668   2.427   1.209  0.8354  1.0489  0.5132
    1SOL    MW4 2780   3.598   2.461   1.249 -0.1311 -0.3691  0.0938
    1SOL     OW 2781   3.592   2.721   1.162 -0.6081  0.0788 -0.4690
    1SOL    HW2 2782   3.587   2.632   1.197 -0.0545 -0.5671 -1.9994
    1SOL    HW3 2783   3.513   2.764   1.197 -0.7301 -0.9142  0.5150
    1SOL    MW4 2784   3.581   2.715   1.171 -0.5510 -0.1373 -0.5412
    1SOL     OW 2785   3.830   2.829   1.239  0.3319 -0.1544  0.2413
    1SOL    HW2 2786   3.826   2.834   1.335 -0.3563  2.1305  0.1291
    1SOL    HW3 2787   3.750   2.782   1.214 -0.6559  1.2159  0.7074
    1SOL    MW4 2788   3.819   2.824   1.249  0.1109  0.3281  0.2881
    1SOL     OW 2789   3.774   3.073   1.143 -0.4193 -0.1291  0.3708
    1SOL    HW2 2790   3.796   2.984   1.171  0.0585  0.0407  0.5456
    1SOL    HW3 2791   3.810   3.080   1.054  0.2020  0.1300  0.6358
    1SOL    MW4 2792   3.782   3.062   1.135 -0.2744 -0.0727  0.4288
    1SOL     OW 2793   3.569   3.266   1.253  0.6344 -0.1249  0.1145
    1SOL    HW2 2794   3.574   3.353   1.212 -1.9593  0.1501  0.2808
    1SOL    HW3 2795   3.641   3.217   1.214  0.4107  1.2341 -2.0893
    1SOL    MW4 2796   3.579   3.271   1.242  0.2625  0.0906 -0.1544
    1SOL     OW 2797   3.583   3.500   1.105  0.2774 -0.2791 -0.2753
    1SOL    HW2 2798   3.672   3.523   1.133  1.0590 -2.1653 -1.0970
    1SOL    HW3 2799   3.585   3.510   1.010 -0.9111  1.3318 -0.1429
    1SOL    MW4 2800   3.595   3.504   1.096  0.2236 -0.3154 -0.3662
    1SOL     OW 2801   3.826   3.596   1.196 -0.2283 -0.0143  0.5475
    1SOL    HW2 2802   3.822   3.603   1.292 -0.3726  0.9875  0.4772
    1SOL    HW3 2803   3.819   3.687   1.166  1.7993 -0.1402 -0.3430
    1SOL    MW4 2804   3.825   3.609   1.205  0.0200  0.1011  0.4207
    1SOL     OW 2805   3.792   3.855   1.102  0.1515 -0.1041 -0.1961
    1SOL    HW2 2806   3.716   3.911   1.121  0.7768  0.3416  1.0390
    1SOL    HW3 2807   3.808   3.868   1.009 -1.1518 -0.0276 -0.4232
    1SOL    MW4 2808   3.784   3.864   1.092  0.0622 -0.0350 -0.0631
    1SOL     OW 2809   3.553   4.028   1.212 -0.0751 -0.3700  0.4455
    1SOL    HW2 2810   3.575   4.016   1.305  2.5418 -1.4171 -0.2534
    1SOL    HW3 2811   3.476   3.973   1.199  0.7440 -1.8644  1.5836
    1SOL    MW4 2812   3.546   4.019   1.223  0.3781 -0.7048  0.5034
    1SOL     OW 2813   3.552   4.285   1.101  0.5005 -0.6439  0.0392
    1SOL    HW2 2814   3.561   4.200   1.143 -0.0575 -1.7701 -2.0426
    1SOL    HW3 2815   3.557   4.266   1.007 -0.8233  1.4621 -0.4926
    1SOL    MW4 2816   3.554   4.271   1.094  0.2520 -0.5155 -0.3057
    1SOL     OW 2817   3.806   4.415   1.209 -0.1889 -0.0140  0.1903
    1SOL    HW2 2818   3.802   4.423   1.304 -0.9591  1.3765  0.0458
    1SOL    HW3 2819   3.735   4.355   1.187  0.5812 -1.0876  0.5577
    1SOL    MW4 2820   3.796   4.408   1.219 -0.1888  0.0277  0.2197
    1SOL     OW 2821   4.226   4.640   1.068 -0.1419 -0.2276  0.1430
    1SOL    HW2 2822   4.232   4.557   1.115  1.1790 -0.2332 -0.0102
    1SOL    HW3 2823   4.153   4.686   1.109 -1.4460 -1.8266 -0.3664
    1SOL    MW4 2824   4.217   4.635   1.080 -0.1392 -0.4396  0.0556
    1SOL     OW 2825   4.037   0.145   1.212 -0.2250  0.0052  0.0085
    1SOL    HW2 2826   4.052   0.131   1.306 -1.6903 -1.5265  0.0505
    1SOL    HW3 2827   3.964   0.086   1.191 -0.0680  0.5136 -2.0440
    1SOL    MW4 2828   4.029   0.135   1.222 -0.3977 -0.1298 -0.2567
    1SOL     OW 2829   3.979   0.396   1.094 -0.0650 -0.5560 -0.4155
    1SOL    HW2 2830   3.984   0.307   1.129  0.2081 -0.2212  0.4230
    1SOL    HW3 2831   3.979   0.385   0.999 -3.1882 -1.6184 -0.3297
    1SOL    MW4 2832   3.980   0.382   1.086 -0.4408 -0.6520 -0.2935
    1SOL     OW 2833   4.232   0.482   1.166  0.0516  0.2152  0.3088
    1SOL    HW2 2834   4.229   0.481   1.262 -2.1686 -1.1830  0.2415
    1SOL    HW3 2835   4.143   0.461   1.139  1.0109 -0.9107 -2.0835
    1SOL    MW4 2836   4.220   0.479   1.175 -0.1149 -0.1178 -0.0157
    1SOL     OW 2837   4.250   0.728   1.051 -0.3064 -0.0140 -0.5494
    1SOL    HW2 2838   4.240   0.646   1.099 -2.0119  0.9190  0.7339
    1SOL    HW3 2839   4.306   0.782   1.107 -1.4569  0.6995 -0.0624
    1SOL    MW4 2840   4.256   0.724   1.065 -0.6828  0.2032 -0.3158
    1SOL     OW 2841   4.008   0.863   1.173 -0.0565  0.0132  0.2479
    1SOL    HW2 2842   4.042   0.884   1.260  0.1526 -0.1983  0.2215
    1SOL    HW3 2843   4.077   0.808   1.134 -0.7869 -1.1079  0.5019
    1SOL    MW4 2844   4.022   0.858   1.179 -0.1249 -0.1626  0.2780
    1SOL     OW 2845   4.028   1.144   1.092  0.0454 -0.3136  0.5306
    1SOL    HW2 2846   4.016   1.054   1.122 -1.4607 -0.4522 -0.4531
    1SOL    HW3 2847   3.944   1.186   1.108  0.3632  0.5906 -0.1386
    1SOL    MW4 2848   4.015   1.138   1.098 -0.1116 -0.2127  0.3127
    1SOL     OW 2849   4.224   1.300   1.196  0.1246 -0.2951  0.1791
    1SOL    HW2 2850   4.227   1.275   1.289 -0.4608 -0.4068  0.1729
    1SOL    HW3 2851   4.146   1.255   1.163 -0.1366  0.4174 -0.1698
    1SOL    MW4 2852   4.214   1.291   1.204  0.0129 -0.2159  0.1322
    1SOL     OW 2853   4.245   1.570   1.084 -0.2641 -0.2159 -0.0404
    1SOL    HW2 2854   4.244   1.479   1.114 -0.4088 -0.8507 -1.8685
    1SOL    HW3 2855   4.326   1.606   1.121 -0.3705 -0.9857  0.9758
    1SOL    MW4 2856   4.256   1.562   1.093 -0.2971 -0.4011 -0.1475
    1SOL     OW 2857   4.000   1.673   1.181  0.4993  0.2586  0.3176
    1SOL    HW2 2858   4.014   1.664   1.276  1.3839 -1.6617  0.0364
    1SOL    HW3 2859   4.082   1.643   1.142 -0.1455  0.2986 -1.0766
    1SOL    MW4 2860   4.013   1.668   1.189  0.5307  0.0105  0.0964
    1SOL     OW 2861   3.563   1.567   0.498 -0.0020  0.3584  0.0585
    1SOL    HW2 2862   3.595   1.479   0.480  0.3776  0.5401 -0.1871
    1SOL    HW3 2863   3.624   1.624   0.450  1.3118  0.8991  2.2957
    1SOL    MW4 2864   3.576   1.563   0.489  0.2215  0.4537  0.3213
    1SOL     OW 2865   4.272   2.016   1.250 -0.3082 -0.3078 -0.3189
    1SOL    HW2 2866   4.267   2.104   1.212 -0.0580 -0.7840 -1.4686
    1SOL    HW3 2867   4.193   1.973   1.219 -0.3269 -0.5575  0.0786
    1SOL    MW4 2868   4.261   2.022   1.241 -0.2775 -0.4034 -0.4183
    1SOL     OW 2869   4.265   2.280   1.149  0.0025  0.3610 -0.1644
    1SOL    HW2 2870   4.183   2.324   1.171  0.6633  1.5981 -0.0897
    1SOL    HW3 2871   4.266   2.279   1.053 -0.5352 -0.5096 -0.1653
    1SOL    MW4 2872   4.254   2.286   1.139  0.0191  0.4094 -0.1546
    1SOL     OW 2873   4.057   2.434   1.222 -0.2314 -0.2578 -0.2082
    1SOL    HW2 2874   4.046   2.441   1.317 -0.6090 -1.4802 -0.1516
    1SOL    HW3 2875   4.037   2.521   1.189 -0.2717  0.1305  0.8211
    1SOL    MW4 2876   4.053   2.446   1.230 -0.2861 -0.3681 -0.0648
    1SOL     OW 2877   4.032   2.676   1.112 -0.2671  0.1417 -0.6034
    1SOL    HW2 2878   3.956   2.720   1.149  0.0728  1.0095 -0.9269
    1SOL    HW3 2879   4.019   2.681   1.017  0.7582  1.3357 -0.7020
    1SOL    MW4 2880   4.020   2.682   1.104 -0.0868  0.4139 -0.6591
    1SOL     OW 2881   4.260   2.786   1.246 -0.5778 -0.3108  0.2299
    1SOL    HW2 2882   4.262   2.878   1.220  1.1192 -0.7596 -1.2726
    1SOL    HW3 2883   4.184   2.750   1.200 -0.2237 -0.0631 -0.5565
    1SOL    MW4 2884   4.250   2.793   1.237 -0.3071 -0.3374 -0.0720
    1SOL     OW 2885   4.249   3.056   1.158  0.0082  0.6298 -0.1846
    1SOL    HW2 2886   4.175   3.103   1.195 -1.4345 -1.2805 -0.5315
    1SOL    HW3 2887   4.245   3.075   1.064  0.6737  1.4836 -0.0393
    1SOL    MW4 2888   4.238   3.064   1.151 -0.0939  0.4904 -0.2111
    1SOL     OW 2889   4.033   3.197   1.259 -0.0497  0.2163  0.1713
    1SOL    HW2 2890   4.027   3.205   1.354 -0.2542  0.8781  0.1042
    1SOL    HW3 2891   3.951   3.154   1.233 -0.0646  0.1812  0.2795
    1SOL    MW4 2892   4.021   3.192   1.268 -0.0787  0.2990  0.1767
    1SOL     OW 2893   4.053   3.437   1.128  0.0326  0.2157  0.2811
    1SOL    HW2 2894   4.043   3.357   1.181 -0.7259 -1.2592 -2.0065
    1SOL    HW3 2895   3.977   3.490   1.150 -0.8333 -0.8529 -0.1297
    1SOL    MW4 2896   4.042   3.433   1.138 -0.1822 -0.1202 -0.0747
    1SOL     OW 2897   4.233   3.616   1.237 -0.0707  0.1188  0.3065
    1SOL    HW2 2898   4.166   3.565   1.192 -0.2030  1.0313 -0.5633
    1SOL    HW3 2899   4.316   3.580   1.205 -0.1509 -0.0565  0.2938
    1SOL    MW4 2900   4.235   3.604   1.227 -0.0982  0.2160  0.1901
    1SOL     OW 2901   4.229   3.853   1.099 -0.1479  0.0146 -0.4763
    1SOL    HW2 2902   4.161   3.916   1.117 -0.8204 -0.6165 -0.7783
    1SOL    HW3 2903   4.212   3.781   1.159  0.0159 -0.3135 -0.8171
    1SOL    MW4 2904   4.218   3.851   1.109 -0.2151 -0.1116 -0.5611
    1SOL     OW 2905   4.033   4.005   1.234  0.0841  0.1865  0.0400
    1SOL    HW2 2906   4.021   4.097   1.210  0.1983  0.1004 -0.3448
    1SOL    HW3 2907   3.950   3.963   1.210 -0.4037  0.4100  1.2841
    1SOL    MW4 2908   4.020   4.011   1.228  0.0343  0.2046  0.1534
    1SOL     OW 2909   4.019   4.268   1.129 -0.3067  0.3163  0.1201
    1SOL    HW2 2910   3.942   4.320   1.151 -1.0548 -1.2796  1.2978
    1SOL    HW3 2911   4.021   4.270   1.033 -0.7992  1.8058  0.1203
    1SOL    MW4 2912   4.009   4.276   1.119 -0.4702  0.3023  0.2756
    1SOL     OW 2913   4.266   4.363   1.192 -0.1245  0.1129 -0.0477
    1SOL    HW2 2914   4.187   4.324   1.153  1.1801 -1.7170 -0.9281
    1SOL    HW3 2915   4.338   4.316   1.151  1.4715  2.3968  0.0924
    1SOL    MW4 2916   4.265   4.352   1.181  0.2584  0.1731 -0.1454
    1SOL     OW 2917   0.195   4.660   1.598 -0.1023 -0.0022  0.0753
    1SOL    HW2 2918   0.264   4.711   1.556 -0.7425  0.8023 -0.0241
    1SOL    HW3 2919   0.114   4.700   1.566 -0.6017  0.3255  1.6964
    1SOL    MW4 2920   0.193   4.672   1.589 -0.2527  0.1473  0.2760
    1SOL     OW 2921   4.459   0.110   1.483  0.2715 -0.3879 -0.3687
    1SOL    HW2 2922   4.394   0.048   1.517 -1.5492  2.1947  1.0747
    1SOL    HW3 2923   4.464   0.090   1.390 -2.5572 -0.7681 -0.5026
    1SOL    MW4 2924   4.451   0.099   1.475 -0.3424 -0.0973 -0.1959
    1SOL     OW 2925   4.477   0.384   1.553  0.6452  0.9014  0.1328
    1SOL    HW2 2926   4.495   0.388   1.647 -0.6020  1.4935  0.3528
    1SOL    HW3 2927   4.454   0.292   1.537 -0.9039  1.1781  0.7390
    1SOL    MW4 2928   4.476   0.372   1.564  0.2766  1.0160  0.2419
    1SOL     OW 2929   0.230   0.488   1.453 -0.4284 -0.1484 -0.0202
    1SOL    HW2 2930   0.153   0.454   1.498  0.1917 -0.2866  0.9440
    1SOL    HW3 2931   0.213   0.471   1.360 -2.2144  1.1549  0.0527
    1SOL    MW4 2932   0.218   0.481   1.447 -0.5823  0.0053  0.1166
    1SOL     OW 2933   0.230   0.734   1.572 -0.4017  0.2279 -0.1182
    1SOL    HW2 2934   0.238   0.655   1.519  1.2877 -0.8308  1.6686
    1SOL    HW3 2935   0.309   0.784   1.552 -0.9313  0.9556 -0.4119
    1SOL    MW4 2936   0.241   0.731   1.562 -0.2486  0.1841  0.0788
    1SOL     OW 2937   0.004   0.866   1.490  0.1619  0.4288 -1.1193
    1SOL    HW2 2938   0.009   0.948   1.541  0.4765 -1.0196  1.2659
    1SOL    HW3 2939   0.084   0.818   1.515 -1.1489 -1.5864 -0.7078
    1SOL    MW4 2940   0.016   0.871   1.500  0.0305 -0.0282 -0.7502
    1SOL     OW 2941   0.018   1.120   1.599  0.4922 -0.6218 -0.0722
    1SOL    HW2 2942   0.028   1.142   1.692 -1.4391  1.8789 -0.3981
    1SOL    HW3 2943   0.085   1.172   1.554 -0.9272  0.9643 -0.3925
    1SOL    MW4 2944   0.028   1.130   1.605  0.0496 -0.0826 -0.1576
    1SOL     OW 2945   0.214   1.266   1.480  0.0432  0.1065 -0.0619
    1SOL    HW2 2946   0.289   1.220   1.517 -0.0740  0.3256  0.4502
    1SOL    HW3 2947   0.223   1.356   1.512  0.3336  0.4747 -1.1411
    1SOL    MW4 2948   0.225   1.272   1.489  0.0660  0.1841 -0.1366
    1SOL     OW 2949   0.212   1.537   1.576  0.1557 -0.0301 -0.4020
    1SOL    HW2 2950   0.213   1.532   1.671 -0.7551 -1.3174 -0.4431
    1SOL    HW3 2951   0.127   1.576   1.555  0.1333 -0.2262 -0.6914
    1SOL    MW4 2952   0.201   1.541   1.586  0.0326 -0.2259 -0.4456
    1SOL     OW 2953   4.452   1.636   1.468 -0.5629  0.6102  0.5291
    1SOL    HW2 2954   4.468   1.723   1.503 -0.7137  0.3835  1.1661
    1SOL    HW3 2955   4.485   1.640   1.378  0.0683  1.1150  0.7785
    1SOL    MW4 2956   4.459   1.648   1.461 -0.5002  0.6469  0.6461
    1SOL     OW 2957   4.476   1.882   1.588 -0.0089 -0.1222  0.0273
    1SOL    HW2 2958   4.476   1.879   1.684 -0.8871 -0.7859  0.0189
    1SOL    HW3 2959   4.397   1.932   1.566 -0.4684 -0.9938 -0.3581
    1SOL    MW4 2960   4.466   1.888   1.598 -0.1850 -0.3247 -0.0248
    1SOL     OW 2961   0.200   2.038   1.532 -0.3941  0.0545 -0.0650
    1SOL    HW2 2962   0.118   1.994   1.556 -1.6449  1.4468 -1.6316
    1SOL    HW3 2963   0.207   2.025   1.438  0.2125  1.5376 -0.2388
    1SOL    MW4 2964   0.190   2.030   1.523 -0.4791  0.4339 -0.2946
    1SOL     OW 2965   0.185   2.287   1.669 -0.4035  0.1159  0.2831
    1SOL    HW2 2966   0.195   2.269   1.762  2.4272 -0.4564 -0.0713
    1SOL    HW3 2967   0.193   2.201   1.627  1.7657  0.7365 -0.6680
    1SOL    MW4 2968   0.187   2.273   1.675  0.2562  0.1218  0.1109
    1SOL     OW 2969   4.467   2.417   1.530 -0.2867 -0.5937 -0.1847
    1SOL    HW2 2970   4.375   2.396   1.544 -0.3531 -0.1389  0.0810
    1SOL    HW3 2971   4.514   2.367   1.597 -0.2965 -1.1911 -0.6171
    1SOL    MW4 2972   4.461   2.408   1.540 -0.2971 -0.6125 -0.2067
    1SOL     OW 2973   0.014   2.681   1.598  0.1045  0.5526 -0.2106
    1SOL    HW2 2974  -0.073   2.716   1.581  0.4101  1.6048  0.3780
    1SOL    HW3 2975   0.011   2.591   1.565 -0.6676  1.1281 -1.7432
    1SOL    MW4 2976   0.002   2.673   1.592  0.0429  0.7677 -0.3352
    1SOL     OW 2977   0.232   2.831   1.533 -0.1767 -0.6111  0.0808
    1SOL    HW2 2978   0.309   2.793   1.575  0.1085  0.1875  0.2866
    1SOL    HW3 2979   0.160   2.774   1.560  0.0227 -0.2073  1.5469
    1SOL    MW4 2980   0.232   2.819   1.542 -0.1128 -0.4525  0.3014
    1SOL     OW 2981   0.254   3.108   1.580  0.1688 -0.4037 -0.4523
    1SOL    HW2 2982   0.166   3.145   1.576  0.3316  0.1603  0.8426
    1SOL    HW3 2983   0.243   3.018   1.550 -0.8336 -0.3099 -0.3934
    1SOL    MW4 2984   0.241   3.101   1.576  0.0580 -0.3169 -0.2738
    1SOL     OW 2985   0.015   3.223   1.530  0.2101 -0.5518  0.5405
    1SOL    HW2 2986   0.015   3.311   1.568 -0.7019 -0.0202 -0.6598
    1SOL    HW3 2987  -0.008   3.236   1.438  1.0306 -1.9562  0.1127
    1SOL    MW4 2988   0.012   3.236   1.523  0.1979 -0.6671  0.3257
    1SOL     OW 2989   0.018   3.492   1.597 -0.1674 -0.1173  0.0581
    1SOL    HW2 2990   0.016   3.519   1.689  0.6961  1.9982 -0.5306
    1SOL    HW3 2991  -0.065   3.524   1.560  0.4390  0.9401 -0.4092
    1SOL    MW4 2992   0.007   3.499   1.604  0.0267  0.3014 -0.0813
    1SOL     OW 2993   0.247   3.574   1.481  0.0071 -0.0195 -0.0774
    1SOL    HW2 2994   0.239   3.667   1.502 -0.2601 -0.0322 -0.1150
    1SOL    HW3 2995   0.170   3.534   1.521  1.0481 -0.5054  1.5060
    1SOL    MW4 2996   0.236   3.581   1.489  0.1092 -0.0851  0.1266
    1SOL     OW 2997   0.219   3.831   1.569 -0.4811  0.4056  0.0354
    1SOL    HW2 2998   0.217   3.843   1.664 -0.0364 -0.7532  0.1948
    1SOL    HW3 2999   0.294   3.883   1.540  0.8076 -1.0975  0.6023
    1SOL    MW4 3000   0.229   3.840   1.578 -0.2524  0.0541  0.1312
    1SOL     OW 3001   4.482   3.975   1.489 -0.4135  0.5999 -0.1292
    1SOL    HW2 3002   4.494   4.070   1.497 -0.7489  0.7122 -0.8764
    1SOL    HW3 3003   4.567   3.938   1.514  0.0729  1.1536 -0.9332
    1SOL    MW4 3004   4.495   3.983   1.493 -0.3936  0.6883 -0.3338
    1SOL     OW 3005   0.029   4.255   1.562 -0.0533 -0.1083 -0.5287
    1SOL    HW2 3006   0.023   4.264   1.657  1.2444 -0.2509 -0.4223
    1SOL    HW3 3007  -0.056   4.284   1.530 -0.1891  0.8223  0.6202
    1SOL    MW4 3008   0.017   4.260   1.570  0.0997 -0.0043 -0.3631
    1SOL     OW 3009   0.242   4.413   1.499  0.1722  0.5269 -0.4483
    1SOL    HW2 3010   0.157   4.373   1.520  0.8010  0.3489  1.9190
    1SOL    HW3 3011   0.233   4.504   1.527  0.8916  0.3911  0.2561
    1SOL    MW4 3012   0.230   4.420   1.506  0.3501  0.4854 -0.0429
    1SOL     OW 3013   0.680   4.648   1.588  0.2554  0.2121 -0.4689
    1SOL    HW2 3014   0.762   4.693   1.570  0.2505 -0.8960 -3.3613
    1SOL    HW3 3015   0.612   4.705   1.551 -0.0266 -0.4215 -0.9371
    1SOL    MW4 3016   0.682   4.662   1.581  0.2176 -0.0176 -0.9123
    1SOL     OW 3017   0.428   0.090   1.496 -0.6416 -0.6225 -0.3846
    1SOL    HW2 3018   0.445   0.181   1.521 -0.5883 -0.7415  0.0172
    1SOL    HW3 3019   0.432   0.090   1.400 -0.2894 -0.2703 -0.3705
    1SOL    MW4 3020   0.431   0.102   1.487 -0.5881 -0.5917 -0.3297
    1SOL     OW 3021   0.449   0.352   1.574 -0.7862  0.0685 -0.2059
    1SOL    HW2 3022   0.533   0.388   1.546 -0.6069  0.1705  0.4497
    1SOL    HW3 3023   0.384   0.406   1.529 -0.5111  0.6636  0.0941
    1SOL    MW4 3024   0.452   0.364   1.565 -0.7263  0.1605 -0.0799
    1SOL     OW 3025   0.685   0.491   1.484  1.1131  0.0010  0.3431
    1SOL    HW2 3026   0.678   0.580   1.519  0.7972  0.1994 -0.2225
    1SOL    HW3 3027   0.665   0.500   1.391  1.5953 -0.5835  0.1793
    1SOL    MW4 3028   0.682   0.504   1.477  1.1350 -0.0499  0.2469
    1SOL     OW 3029   0.642   0.765   1.573 -0.2314 -0.3205  0.6968
    1SOL    HW2 3030   0.652   0.763   1.668  0.5490 -0.8247  0.6179
    1SOL    HW3 3031   0.715   0.818   1.542  0.6449 -1.7556  0.2627
    1SOL    MW4 3032   0.653   0.771   1.582 -0.0128 -0.5763  0.6292
    1SOL     OW 3033   0.409   0.897   1.450  0.2906  0.1242  0.1475
    1SOL    HW2 3034   0.408   0.976   1.503  0.0343  0.4886 -0.3969
    1SOL    HW3 3035   0.491   0.853   1.475  0.3828  0.5039  0.5262
    1SOL    MW4 3036   0.420   0.901   1.460  0.2689  0.2224  0.1256
    1SOL     OW 3037   0.430   1.147   1.595  0.2788  0.0777 -0.4508
    1SOL    HW2 3038   0.514   1.177   1.562  1.1828 -1.4482  0.3775
    1SOL    HW3 3039   0.430   1.171   1.688 -0.4632  0.6214 -0.5862
    1SOL    MW4 3040   0.441   1.154   1.603  0.3002 -0.0520 -0.3594
    1SOL     OW 3041   0.648   1.294   1.476  0.0966 -0.2190 -0.4716
    1SOL    HW2 3042   0.644   1.378   1.520  1.2680 -0.7455  0.6634
    1SOL    HW3 3043   0.656   1.316   1.383 -0.0363  0.9063 -0.2223
    1SOL    MW4 3044   0.649   1.308   1.469  0.2336 -0.1400 -0.2888
    1SOL     OW 3045   0.648   1.536   1.588 -0.2664  0.2050 -0.1062
    1SOL    HW2 3046   0.726   1.570   1.544 -1.2024  0.6352 -1.4802
    1SOL    HW3 3047   0.576   1.590   1.553 -1.5921 -2.2174 -1.2193
    1SOL    MW4 3048   0.649   1.548   1.577 -0.5648 -0.0579 -0.4343
    1SOL     OW 3049   0.421   1.673   1.476 -0.3464 -0.3345  0.1645
    1SOL    HW2 3050   0.411   1.757   1.522 -0.6828  0.0270 -0.5570
    1SOL    HW3 3051   0.345   1.622   1.502 -1.7716  0.7331 -1.7770
    1SOL    MW4 3052   0.410   1.678   1.486 -0.5789 -0.1460 -0.1869
    1SOL     OW 3053   0.442   1.931   1.605  0.4312  0.1766  0.0514
    1SOL    HW2 3054   0.443   1.926   1.700 -0.5358  1.3763  0.1305
    1SOL    HW3 3055   0.354   1.961   1.583  0.5560 -0.3648 -1.2387
    1SOL    MW4 3056   0.431   1.935   1.614  0.3201  0.2635 -0.1082
    1SOL     OW 3057   0.674   2.065   1.562 -0.0850 -0.2712 -0.6302
    1SOL    HW2 3058   0.752   2.018   1.590 -0.7198 -0.0318  1.6723
    1SOL    HW3 3059   0.602   2.003   1.577 -0.4379 -0.1464 -1.7994
    1SOL    MW4 3060   0.675   2.051   1.568 -0.2153 -0.2234 -0.4807
    1SOL     OW 3061   0.645   2.339   1.631 -0.0163  0.0856 -0.0957
    1SOL    HW2 3062   0.558   2.363   1.601 -0.7528 -0.6900  1.3514
    1SOL    HW3 3063   0.660   2.251   1.595 -0.4274 -0.3690  0.8263
    1SOL    MW4 3064   0.636   2.331   1.622 -0.1677 -0.0768  0.2167
    1SOL     OW 3065   0.388   2.414   1.538  0.1004 -0.1666 -0.0063
    1SOL    HW2 3066   0.400   2.500   1.578  0.4743 -0.3222  0.2205
    1SOL    HW3 3067   0.311   2.378   1.582  0.1011 -0.0570  0.0854
    1SOL    MW4 3068   0.380   2.420   1.549  0.1498 -0.1726  0.0358
    1SOL     OW 3069   0.461   2.689   1.614 -0.1932 -0.2640  0.2202
    1SOL    HW2 3070   0.482   2.684   1.708  0.9960 -0.7823 -0.0659
    1SOL    HW3 3071   0.533   2.738   1.576 -0.5084 -0.3403 -0.4773
    1SOL    MW4 3072   0.473   2.695   1.622 -0.0779 -0.3421  0.0904
    1SOL     OW 3073   0.657   2.857   1.490  0.0571 -1.0087 -0.3855
    1SOL    HW2 3074   0.662   2.937   1.542 -2.4827 -1.5663  0.7592
    1SOL    HW3 3075   0.727   2.802   1.526 -0.2389 -0.5279  0.9680
    1SOL    MW4 3076   0.667   2.860   1.501 -0.3171 -1.0190 -0.0559
    1SOL     OW 3077   0.713   3.081   1.624 -0.4714  0.2171  0.2751
    1SOL    HW2 3078   0.792   3.114   1.581 -0.1437  0.5100  1.0819
    1SOL    HW3 3079   0.643   3.140   1.596 -0.3974  0.0016 -0.3838
    1SOL    MW4 3080   0.714   3.093   1.615 -0.4184  0.2275  0.2947
    1SOL     OW 3081   0.497   3.219   1.530 -0.8089  0.1771  0.5297
    1SOL    HW2 3082   0.407   3.194   1.551 -1.1567  1.3398  0.4578
    1SOL    HW3 3083   0.505   3.203   1.436 -0.6283 -0.8536  0.7148
    1SOL    MW4 3084   0.486   3.214   1.520 -0.8310  0.1948  0.5447
    1SOL     OW 3085   0.480   3.488   1.589  0.4752 -0.1408  0.0406
    1SOL    HW2 3086   0.493   3.396   1.564 -1.9370 -0.4761 -0.1294
    1SOL    HW3 3087   0.400   3.514   1.543 -0.1350  1.3474  1.8855
    1SOL    MW4 3088   0.471   3.479   1.580  0.0764  0.0114  0.2617
    1SOL     OW 3089   0.688   3.635   1.498  0.1400  0.2604  0.4851
    1SOL    HW2 3090   0.762   3.586   1.535 -0.4849 -0.6184  0.6117
    1SOL    HW3 3091   0.611   3.584   1.524 -0.4145  0.4344 -0.7854
    1SOL    MW4 3092   0.688   3.622   1.507 -0.0156  0.1674  0.3343
    1SOL     OW 3093   0.671   3.886   1.592 -0.3709 -0.1319  0.7205
    1SOL    HW2 3094   0.733   3.934   1.537 -1.7836  0.5768 -0.2926
    1SOL    HW3 3095   0.681   3.795   1.566 -0.1032  0.0425  0.2101
    1SOL    MW4 3096   0.680   3.880   1.581 -0.5220 -0.0155  0.5195
    1SOL     OW 3097   0.427   3.982   1.499 -0.2310  0.1146  0.4074
    1SOL    HW2 3098   0.508   3.943   1.534 -0.1539  1.5793  1.9645
    1SOL    HW3 3099   0.432   3.968   1.405  1.5250 -0.4305  0.5608
    1SOL    MW4 3100   0.438   3.975   1.491  0.0109  0.2360  0.6330
    1SOL     OW 3101   0.446   4.252   1.627  0.0146 -0.2590  0.1085
    1SOL    HW2 3102   0.450   4.166   1.584  0.1928  0.6334 -1.6982
    1SOL    HW3 3103   0.370   4.295   1.586 -0.8055 -0.0044  1.8719
    1SOL    MW4 3104   0.436   4.246   1.616 -0.0701 -0.1073  0.1028
    1SOL     OW 3105   0.654   4.383   1.507 -0.3034  0.2463 -0.5393
    1SOL    HW2 3106   0.581   4.342   1.554 -0.0083 -0.0360 -0.3221
    1SOL    HW3 3107   0.658   4.472   1.543 -0.4263  0.2053 -0.4205
    1SOL    MW4 3108   0.645   4.389   1.518 -0.2807  0.2031 -0.4950
    1SOL     OW 3109   1.123   4.626   1.625 -0.2902  0.2981  0.0962
    1SOL    HW2 3110   1.096   4.640   1.716  0.4044  1.6473  0.0954
    1SOL    HW3 3111   1.195   4.687   1.611 -0.8638  0.6096 -1.5890
    1SOL    MW4 3112   1.129   4.636   1.635 -0.2742  0.5174 -0.1261
    1SOL     OW 3113   0.901   0.121   1.493 -0.5133  0.2746  0.1023
    1SOL    HW2 3114   0.900   0.211   1.527  1.2674  0.4470 -0.2171
    1SOL    HW3 3115   0.981   0.083   1.528 -0.9524 -1.0011 -0.2546
    1SOL    MW4 3116   0.911   0.128   1.502 -0.3362  0.1291  0.0130
    1SOL     OW 3117   0.903   0.366   1.607  0.1429 -0.3411  0.1855
    1SOL    HW2 3118   0.908   0.380   1.702 -0.2014 -1.7339  0.4092
    1SOL    HW3 3119   0.836   0.427   1.577  0.1856  0.0346  0.8435
    1SOL    MW4 3120   0.895   0.376   1.616  0.1031 -0.4753  0.3018
    1SOL     OW 3121   1.106   0.541   1.490 -0.1095  0.5210 -0.2955
    1SOL    HW2 3122   1.094   0.628   1.527  1.0203 -0.2271  1.8652
    1SOL    HW3 3123   1.027   0.493   1.516  0.0240  0.4082 -0.1044
    1SOL    MW4 3124   1.094   0.546   1.498  0.0572  0.4075  0.0148
    1SOL     OW 3125   1.071   0.788   1.603 -0.1166 -0.3625  0.0808
    1SOL    HW2 3126   1.083   0.778   1.697  2.2810 -0.0395 -0.1429
    1SOL    HW3 3127   1.138   0.852   1.577  0.8434 -2.2008 -2.1644
    1SOL    MW4 3128   1.082   0.795   1.612  0.3264 -0.5624 -0.2450
    1SOL     OW 3129   0.846   0.915   1.503 -0.1669  0.1066 -0.0061
    1SOL    HW2 3130   0.917   0.867   1.547  0.4342  1.2190  0.2594
    1SOL    HW3 3131   0.863   0.902   1.409  0.0549 -0.1005  0.0610
    1SOL    MW4 3132   0.858   0.907   1.496 -0.0584  0.2261  0.0377
    1SOL     OW 3133   0.879   1.173   1.617 -0.1228  0.2159 -0.7153
    1SOL    HW2 3134   0.876   1.083   1.584 -1.9934 -0.2166  0.5297
    1SOL    HW3 3135   0.817   1.221   1.561  1.4294  0.9088 -1.8576
    1SOL    MW4 3136   0.870   1.168   1.605 -0.1648  0.2502 -0.7017
    1SOL     OW 3137   1.075   1.298   1.467 -0.0447  0.0214  0.1094
    1SOL    HW2 3138   1.154   1.275   1.516  0.2970 -0.4675 -0.6581
    1SOL    HW3 3139   1.003   1.272   1.524  0.3429 -1.6439 -0.1414
    1SOL    MW4 3140   1.076   1.292   1.481  0.0515 -0.2627 -0.0249
    1SOL     OW 3141   1.109   1.568   1.579 -0.3819 -0.0257 -0.0456
    1SOL    HW2 3142   1.188   1.616   1.552  0.9776 -1.8851  0.5015
    1SOL    HW3 3143   1.116   1.484   1.534 -1.7572 -0.4545  0.5153
    1SOL    MW4 3144   1.120   1.563   1.570 -0.3840 -0.3275  0.1006
    1SOL     OW 3145   0.892   1.686   1.478  0.3727 -0.0138 -0.1589
    1SOL    HW2 3146   0.970   1.643   1.513  0.2914 -0.1769 -0.1747
    1SOL    HW3 3147   0.912   1.701   1.386  0.1254 -0.6712 -0.3251
    1SOL    MW4 3148   0.905   1.682   1.471  0.3293 -0.1221 -0.1829
    1SOL     OW 3149   0.901   1.919   1.617 -0.0637 -0.0041 -0.2177
    1SOL    HW2 3150   0.972   1.964   1.572  1.1905 -0.9712  0.7486
    1SOL    HW3 3151   0.890   1.836   1.569 -0.4767  0.1049 -0.3128
    1SOL    MW4 3152   0.909   1.914   1.605  0.0473 -0.1172 -0.1026
    1SOL     OW 3153   1.077   2.080   1.496  0.0223  0.1946  0.0192
    1SOL    HW2 3154   1.160   2.042   1.527 -0.8150 -0.3885  1.5655
    1SOL    HW3 3155   1.094   2.174   1.492  1.0044  0.0065 -0.4455
    1SOL    MW4 3156   1.091   2.087   1.499  0.0414  0.0927  0.1619
    1SOL     OW 3157   1.105   2.349   1.507 -0.2751  0.1480  0.2070
    1SOL    HW2 3158   1.166   2.417   1.481  0.3814 -0.4138  0.2573
    1SOL    HW3 3159   1.020   2.393   1.512  0.2207  1.0610  0.7080
    1SOL    MW4 3160   1.102   2.363   1.504 -0.1231  0.1943  0.2797
    1SOL     OW 3161   0.853   2.437   1.496  0.4655  0.0816  0.5763
    1SOL    HW2 3162   0.831   2.416   1.406  1.4914  0.6110  0.2002
    1SOL    HW3 3163   0.785   2.393   1.548  0.0516 -0.4794 -0.4260
    1SOL    MW4 3164   0.841   2.428   1.491  0.5462  0.0772  0.3943
    1SOL     OW 3165   0.895   2.707   1.579 -0.3653  0.2263  0.3414
    1SOL    HW2 3166   0.920   2.702   1.671 -2.2254 -0.8923  0.8224
    1SOL    HW3 3167   0.902   2.617   1.547 -0.3312  0.5020 -0.4318
    1SOL    MW4 3168   0.899   2.695   1.587 -0.6061  0.1152  0.3028
    1SOL     OW 3169   1.094   2.845   1.431 -0.7554 -0.1456 -0.0964
    1SOL    HW2 3170   1.093   2.933   1.468 -0.3285  0.9830 -2.7182
    1SOL    HW3 3171   1.032   2.796   1.485  0.0356  1.3714  2.2610
    1SOL    MW4 3172   1.085   2.850   1.443 -0.5950  0.2034 -0.1312
    1SOL     OW 3173   1.114   3.084   1.568 -0.4877  0.5938 -0.2366
    1SOL    HW2 3174   1.100   3.099   1.662 -0.3311 -0.2177 -0.0778
    1SOL    HW3 3175   1.201   3.119   1.551 -0.9606  1.7347 -0.3090
    1SOL    MW4 3176   1.124   3.090   1.578 -0.5293  0.6371 -0.2253
    1SOL     OW 3177   0.914   3.242   1.491  0.5574  0.0420 -0.4012
    1SOL    HW2 3178   0.985   3.181   1.511  1.4585  1.4394  0.8169
    1SOL    HW3 3179   0.903   3.237   1.396  2.1270 -0.3846 -0.5763
    1SOL    MW4 3180   0.922   3.234   1.481  0.8835  0.1702 -0.2637
    1SOL     OW 3181   0.909   3.511   1.576 -0.6769 -0.3015 -0.5779
    1SOL    HW2 3182   0.972   3.557   1.521  0.1536 -1.2111 -0.4043
    1SOL    HW3 3183   0.918   3.419   1.551  0.1676 -0.8221  1.4648
    1SOL    MW4 3184   0.919   3.505   1.566 -0.4560 -0.4902 -0.2854
    1SOL     OW 3185   1.135   3.635   1.472  0.0002 -0.1697  0.2529
    1SOL    HW2 3186   1.205   3.572   1.486 -0.2778 -0.4459  0.4181
    1SOL    HW3 3187   1.122   3.637   1.377  1.1023  0.8405  0.1178
    1SOL    MW4 3188   1.142   3.627   1.461  0.1091 -0.0730  0.2569
    1SOL     OW 3189   1.117   3.888   1.596  0.3455 -0.1606  0.0037
    1SOL    HW2 3190   1.198   3.934   1.574  0.4297  0.3284  1.2937
    1SOL    HW3 3191   1.125   3.804   1.551  0.4336  0.8439 -1.9372
    1SOL    MW4 3192   1.129   3.883   1.587  0.3682  0.0365 -0.0823
    1SOL     OW 3193   0.904   4.004   1.465 -0.6193 -0.1923  0.2670
    1SOL    HW2 3194   0.903   4.095   1.496 -0.6046 -0.1432  0.1262
    1SOL    HW3 3195   0.973   3.962   1.515  0.0006  0.1105 -0.3319
    1SOL    MW4 3196   0.913   4.011   1.476 -0.5356 -0.1454  0.1693
    1SOL     OW 3197   0.892   4.265   1.555 -0.1651  0.2382 -0.1655
    1SOL    HW2 3198   0.883   4.259   1.650  1.1758  1.8927  0.0844
    1SOL    HW3 3199   0.817   4.317   1.527  0.0402  0.6927  0.1224
    1SOL    MW4 3200   0.881   4.271   1.564  0.0390  0.5169 -0.0944
    1SOL     OW 3201   1.123   4.383   1.471 -0.0059  0.4525 -0.0735
    1SOL    HW2 3202   1.039   4.341   1.489  0.5311  0.1011  1.6452
    1SOL    HW3 3203   1.114   4.471   1.508  0.9177 -0.0899  1.4430
    1SOL    MW4 3204   1.110   4.389   1.478  0.1869  0.3343  0.3535
    1SOL     OW 3205   1.548   4.667   1.591 -0.0703  0.6982  0.0505
    1SOL    HW2 3206   1.553   4.671   1.686  0.1974  0.0077  0.0656
    1SOL    HW3 3207   1.471   4.720   1.569  0.0423  1.1063  0.6265
    1SOL    MW4 3208   1.539   4.674   1.601 -0.0201  0.6604  0.1285
    1SOL     OW 3209   1.311   0.166   1.536  0.4050 -0.3455 -0.5368
    1SOL    HW2 3210   1.344   0.251   1.566 -2.3359  0.4025  0.4430
    1SOL    HW3 3211   1.306   0.175   1.441  0.5309  0.4327 -0.4763
    1SOL    MW4 3212   1.315   0.179   1.527  0.0601 -0.1441 -0.3996
    1SOL     OW 3213   1.332   0.439   1.640 -0.4886 -0.5123 -0.2142
    1SOL    HW2 3214   1.400   0.497   1.606 -0.1982 -0.2122  0.8298
    1SOL    HW3 3215   1.253   0.465   1.593  0.1315 -0.9303 -1.5125
    1SOL    MW4 3216   1.331   0.450   1.630 -0.3685 -0.5278 -0.2477
    1SOL     OW 3217   1.537   0.559   1.492 -0.1156 -0.7668 -0.2082
    1SOL    HW2 3218   1.623   0.523   1.516  0.0402 -0.4734 -0.3351
    1SOL    HW3 3219   1.544   0.580   1.399 -0.2638 -0.5573 -0.1718
    1SOL    MW4 3220   1.549   0.557   1.483 -0.1146 -0.7004 -0.2201
    1SOL     OW 3221   1.527   0.818   1.590  0.0631  0.3264  0.1018
    1SOL    HW2 3222   1.540   0.794   1.681  0.6338  0.3296  0.0274
    1SOL    HW3 3223   1.514   0.734   1.545 -0.1662  0.3210  0.1789
    1SOL    MW4 3224   1.527   0.804   1.596  0.1082  0.3261  0.1023
    1SOL     OW 3225   1.264   0.969   1.532 -0.1476 -0.3225  0.1523
    1SOL    HW2 3226   1.343   0.924   1.562 -0.1446 -1.0760 -0.9696
    1SOL    HW3 3227   1.274   0.975   1.437 -0.7364  0.9290  0.1573
    1SOL    MW4 3228   1.276   0.964   1.523 -0.2247 -0.2568  0.0049
    1SOL     OW 3229   1.322   1.243   1.600  0.2901 -0.0887 -0.2319
    1SOL    HW2 3230   1.320   1.246   1.695  0.4711  1.6369 -0.2555
    1SOL    HW3 3231   1.314   1.150   1.578  0.4280 -0.5162  1.4582
    1SOL    MW4 3232   1.321   1.231   1.609  0.3320  0.0826 -0.0119
    1SOL     OW 3233   1.557   1.317   1.464 -0.0550 -0.6841  0.2194
    1SOL    HW2 3234   1.486   1.280   1.516 -1.1733  0.5858 -0.3780
    1SOL    HW3 3235   1.636   1.275   1.498 -0.9394 -1.0723  1.8374
    1SOL    MW4 3236   1.558   1.306   1.475 -0.3192 -0.5678  0.3541
    1SOL     OW 3237   1.572   1.568   1.586  0.4686 -0.1479 -0.4395
    1SOL    HW2 3238   1.578   1.549   1.679  0.3603  0.0120 -0.3996
    1SOL    HW3 3239   1.575   1.482   1.544 -1.3682 -0.3664 -0.1875
    1SOL    MW4 3240   1.573   1.554   1.592  0.2120 -0.1556 -0.4010
    1SOL     OW 3241   1.332   1.701   1.472  0.0600  0.1470 -0.1073
    1SOL    HW2 3242   1.400   1.657   1.522  0.0746  0.9275  0.5805
    1SOL    HW3 3243   1.355   1.686   1.381  1.1496  0.3974  0.1213
    1SOL    MW4 3244   1.344   1.693   1.467  0.2058  0.2830  0.0137
    1SOL     OW 3245   1.305   1.969   1.574  0.0045  0.3937 -0.1805
    1SOL    HW2 3246   1.305   1.960   1.669 -1.5727  0.7601 -0.1369
    1SOL    HW3 3247   1.299   1.880   1.541  0.5584  0.2657  0.0457
    1SOL    MW4 3248   1.304   1.956   1.582 -0.1305  0.4252 -0.1450
    1SOL     OW 3249   1.557   2.056   1.474  0.1218  0.5109 -0.0740
    1SOL    HW2 3250   1.473   2.019   1.500 -1.4523  3.4462 -0.7954
    1SOL    HW3 3251   1.546   2.081   1.383  1.0248  2.8461  0.3967
    1SOL    MW4 3252   1.545   2.055   1.466  0.0331  1.2062 -0.1072
    1SOL     OW 3253   1.546   2.354   1.577 -0.4892 -0.0608 -0.2580
    1SOL    HW2 3254   1.622   2.393   1.534  0.3984  0.4899  1.7705
    1SOL    HW3 3255   1.542   2.265   1.542  0.0940  0.4319 -1.6092
    1SOL    MW4 3256   1.555   2.348   1.567 -0.2950  0.0765 -0.1688
    1SOL     OW 3257   1.332   2.488   1.432  0.3124 -0.3921 -0.5075
    1SOL    HW2 3258   1.336   2.577   1.467  1.0454 -0.4550 -0.4375
    1SOL    HW3 3259   1.404   2.442   1.474  0.6677 -0.7032 -1.4483
    1SOL    MW4 3260   1.342   2.494   1.442  0.4559 -0.4416 -0.6225
    1SOL     OW 3261   1.297   2.741   1.583 -0.0732  0.3986  0.3329
    1SOL    HW2 3262   1.376   2.786   1.554  0.1779 -0.9612 -1.1478
    1SOL    HW3 3263   1.228   2.770   1.523 -0.8560  1.9774  1.9316
    1SOL    MW4 3264   1.298   2.751   1.572 -0.1433  0.4277  0.3483
    1SOL     OW 3265   1.536   2.848   1.476 -0.2855 -0.3944 -0.0566
    1SOL    HW2 3266   1.625   2.825   1.503 -0.2028  0.4047  0.3709
    1SOL    HW3 3267   1.539   2.849   1.381  0.8482  2.1757 -0.0389
    1SOL    MW4 3268   1.548   2.846   1.467 -0.1251  0.0501  0.0021
    1SOL     OW 3269   1.557   3.084   1.625  0.1366 -0.4532  0.2301
    1SOL    HW2 3270   1.615   3.138   1.571  2.3401 -0.8315  2.1484
    1SOL    HW3 3271   1.563   2.996   1.586  1.5200 -0.6680  0.8781
    1SOL    MW4 3272   1.566   3.079   1.613  0.6100 -0.5317  0.5686
    1SOL     OW 3273   1.347   3.180   1.476 -0.0764  0.1531  0.1313
    1SOL    HW2 3274   1.328   3.267   1.510 -1.2609 -0.6852  1.6808
    1SOL    HW3 3275   1.411   3.144   1.537 -0.8301 -0.6619  0.4567
    1SOL    MW4 3276   1.353   3.187   1.489 -0.3320 -0.0648  0.3786
    1SOL     OW 3277   1.322   3.443   1.556 -0.0189  0.1450  0.3014
    1SOL    HW2 3278   1.322   3.468   1.648 -0.0096 -0.2883  0.4200
    1SOL    HW3 3279   1.397   3.490   1.519 -0.7234  1.2562  0.2498
    1SOL    MW4 3280   1.332   3.453   1.563 -0.1107  0.2346  0.3102
    1SOL     OW 3281   1.550   3.576   1.428  0.0414  0.3952 -0.4214
    1SOL    HW2 3282   1.560   3.669   1.451 -0.7321  0.5209 -0.5873
    1SOL    HW3 3283   1.543   3.576   1.333  0.3104  0.1388 -0.4408
    1SOL    MW4 3284   1.551   3.588   1.419 -0.0250  0.3781 -0.4457
    1SOL     OW 3285   1.571   3.836   1.535  0.0870  0.8654  0.4443
    1SOL    HW2 3286   1.561   3.833   1.630 -0.3759  0.7455  0.3936
    1SOL    HW3 3287   1.503   3.898   1.506 -1.0151 -0.5101  0.0257
    1SOL    MW4 3288   1.560   3.844   1.544 -0.1196  0.6680  0.3823
    1SOL     OW 3289   1.363   3.999   1.480  0.5935 -0.1960 -0.2784
    1SOL    HW2 3290   1.364   4.085   1.523  0.5977 -1.1577  1.7289
    1SOL    HW3 3291   1.356   4.018   1.387  2.7118  2.0273 -0.0044
    1SOL    MW4 3292   1.362   4.013   1.473  0.8737 -0.0300  0.0226
    1SOL     OW 3293   1.327   4.250   1.608 -0.2178 -0.5005  0.1891
    1SOL    HW2 3294   1.402   4.297   1.574  0.4825 -0.9313  1.0991
    1SOL    HW3 3295   1.251   4.291   1.566  0.5005  0.1357 -0.5004
    1SOL    MW4 3296   1.326   4.261   1.598 -0.0306 -0.4735  0.2182
    1SOL     OW 3297   1.539   4.394   1.517 -0.2523  0.0517  0.0088
    1SOL    HW2 3298   1.625   4.361   1.541 -0.1508 -0.0565 -0.5034
    1SOL    HW3 3299   1.540   4.485   1.545  0.6867  0.5699 -1.5988
    1SOL    MW4 3300   1.550   4.402   1.524 -0.1150  0.1054 -0.2711
    1SOL     OW 3301   2.010   4.641   1.562  0.1249  0.0828 -0.3994
    1SOL    HW2 3302   2.015   4.629   1.657 -0.4547  0.4076 -0.3251
    1SOL    HW3 3303   1.932   4.695   1.549 -0.1400 -0.4645 -1.1098
    1SOL    MW4 3304   2.000   4.647   1.573  0.0134  0.0534 -0.4833
    1SOL     OW 3305   1.769   0.134   1.505  0.4211 -0.0195  0.2196
    1SOL    HW2 3306   1.688   0.091   1.532 -0.5341  1.7213  0.2123
    1SOL    HW3 3307   1.756   0.154   1.413  0.1779  1.7047  0.6066
    1SOL    MW4 3308   1.757   0.131   1.497  0.2630  0.4377  0.2698
    1SOL     OW 3309   1.760   0.422   1.607  0.5981 -0.0735  0.1299
    1SOL    HW2 3310   1.845   0.455   1.578  0.5302  0.1330  0.1673
    1SOL    HW3 3311   1.759   0.331   1.578  1.1544 -0.2988  0.8126
    1SOL    MW4 3312   1.771   0.414   1.599  0.6626 -0.0759  0.2249
    1SOL     OW 3313   1.985   0.547   1.509  0.1765  0.3714 -0.5329
    1SOL    HW2 3314   2.061   0.504   1.550  0.0218 -2.4038 -2.9289
    1SOL    HW3 3315   1.997   0.640   1.527  3.7208 -0.0991 -0.1171
    1SOL    MW4 3316   1.997   0.553   1.516  0.6238 -0.0569 -0.7941
    1SOL     OW 3317   2.043   0.803   1.573 -0.3401 -0.3276 -0.6255
    1SOL    HW2 3318   2.043   0.797   1.668  0.1395 -0.5847 -0.6403
    1SOL    HW3 3319   1.959   0.843   1.551  0.2420  1.2886  0.0007
    1SOL    MW4 3320   2.032   0.808   1.583 -0.2000 -0.1484 -0.5448
    1SOL     OW 3321   1.770   0.928   1.502  0.3496  0.6564  0.0624
    1SOL    HW2 3322   1.773   1.006   1.557 -0.8450  1.1409 -0.5466
    1SOL    HW3 3323   1.688   0.885   1.525  0.9674 -0.4185  0.3520
    1SOL    MW4 3324   1.760   0.932   1.512  0.2735  0.5784  0.0204
    1SOL     OW 3325   1.795   1.189   1.576 -0.0358 -0.4855 -0.6285
    1SOL    HW2 3326   1.883   1.221   1.559 -0.1415  0.3621  0.3618
    1SOL    HW3 3327   1.788   1.187   1.672 -0.9760 -0.8564 -0.6993
    1SOL    MW4 3328   1.805   1.193   1.587 -0.1738 -0.4227 -0.5072
    1SOL     OW 3329   2.038   1.277   1.486  0.3827 -0.1584 -0.6355
    1SOL    HW2 3330   2.027   1.368   1.514 -0.7643 -0.4964  0.0079
    1SOL    HW3 3331   2.049   1.282   1.391 -0.6165  0.5806 -0.7152
    1SOL    MW4 3332   2.038   1.290   1.477  0.0997 -0.1055 -0.5611
    1SOL     OW 3333   2.028   1.519   1.632  0.2646  0.3366  0.0172
    1SOL    HW2 3334   2.102   1.564   1.591  0.3380 -0.6761 -0.9845
    1SOL    HW3 3335   1.951   1.565   1.598  0.3678  0.3217 -0.2349
    1SOL    MW4 3336   2.028   1.531   1.622  0.2880  0.2011 -0.1483
    1SOL     OW 3337   1.816   1.679   1.531 -0.0443  0.2577 -0.1838
    1SOL    HW2 3338   1.733   1.639   1.558  0.8974 -1.4191  0.3162
    1SOL    HW3 3339   1.812   1.681   1.435 -0.6262  0.1121 -0.1653
    1SOL    MW4 3340   1.805   1.674   1.522  0.0031  0.0173 -0.1152
    1SOL     OW 3341   1.786   1.948   1.587 -0.6284 -0.5615 -0.0883
    1SOL    HW2 3342   1.810   1.859   1.560  0.9010 -0.5112  1.0647
    1SOL    HW3 3343   1.706   1.966   1.538 -0.1842 -2.0375 -1.4304
    1SOL    MW4 3344   1.779   1.938   1.577 -0.3681 -0.7497 -0.1132
    1SOL     OW 3345   2.022   2.063   1.488  0.0474 -0.1892 -0.1726
    1SOL    HW2 3346   2.082   1.991   1.507 -0.8938 -0.9721 -0.1389
    1SOL    HW3 3347   1.940   2.038   1.530 -0.6041  0.3809 -1.0773
    1SOL    MW4 3348   2.019   2.050   1.496 -0.1628 -0.2170 -0.2874
    1SOL     OW 3349   1.985   2.319   1.579 -0.0945  0.6974 -0.0114
    1SOL    HW2 3350   1.981   2.301   1.672 -2.4000  0.1549 -0.1847
    1SOL    HW3 3351   1.995   2.233   1.538 -2.0500  0.6298 -0.3921
    1SOL    MW4 3352   1.986   2.305   1.586 -0.6568  0.6173 -0.0844
    1SOL     OW 3353   1.794   2.509   1.500 -0.1173 -0.8044  0.0464
    1SOL    HW2 3354   1.861   2.455   1.542  0.2631  0.0781  0.5888
    1SOL    HW3 3355   1.810   2.499   1.407  0.8751 -0.4626  0.1803
    1SOL    MW4 3356   1.805   2.500   1.494  0.0639 -0.6430  0.1357
    1SOL     OW 3357   1.765   2.767   1.602 -0.3858  0.4010 -0.5501
    1SOL    HW2 3358   1.838   2.812   1.559 -0.0593  0.6307  0.2452
    1SOL    HW3 3359   1.767   2.679   1.566 -0.5594  0.7962 -1.5457
    1SOL    MW4 3360   1.775   2.761   1.591 -0.3656  0.4835 -0.5764
    1SOL     OW 3361   2.012   2.860   1.501  0.0386 -1.0322  0.0702
    1SOL    HW2 3362   1.995   2.948   1.536  0.6460 -0.9579  0.1962
    1SOL    HW3 3363   2.028   2.874   1.408 -0.4926 -1.0908 -0.0316
    1SOL    MW4 3364   2.012   2.873   1.494  0.0484 -1.0300  0.0734
    1SOL     OW 3365   1.970   3.134   1.603  0.0762  0.3226 -0.5894
    1SOL    HW2 3366   1.967   3.118   1.697 -0.6373  1.1809 -0.4569
    1SOL    HW3 3367   2.062   3.151   1.585  0.1912  0.3347 -0.0119
    1SOL    MW4 3368   1.982   3.134   1.613 -0.0029  0.4373 -0.4957
    1SOL     OW 3369   1.749   3.239   1.464 -0.1093  0.0025 -0.0638
    1SOL    HW2 3370   1.752   3.333   1.485 -2.3593  0.0444  0.2280
    1SOL    HW3 3371   1.828   3.203   1.503  0.6408  1.7404  0.0693
    1SOL    MW4 3372   1.760   3.247   1.472 -0.3073  0.2375 -0.0076
    1SOL     OW 3373   1.797   3.506   1.554 -0.1714  0.0749  0.2358
    1SOL    HW2 3374   1.792   3.491   1.648 -0.2693  0.0563  0.2278
    1SOL    HW3 3375   1.705   3.516   1.526 -0.2302 -1.1386 -0.0583
    1SOL    MW4 3376   1.784   3.505   1.563 -0.1923 -0.0877  0.1960
    1SOL     OW 3377   2.059   3.580   1.488  0.4719 -0.0676  0.0743
    1SOL    HW2 3378   2.118   3.522   1.536  0.1001 -0.6531 -0.1768
    1SOL    HW3 3379   1.971   3.550   1.512  0.2695  0.8904  0.5607
    1SOL    MW4 3380   2.055   3.569   1.498  0.3963 -0.0186  0.1053
    1SOL     OW 3381   2.049   3.857   1.599  0.0740  0.0666 -0.4068
    1SOL    HW2 3382   2.114   3.912   1.555  0.0566 -0.6234 -1.2946
    1SOL    HW3 3383   2.059   3.771   1.559 -0.4310 -0.3960  0.4399
    1SOL    MW4 3384   2.059   3.853   1.588  0.0050 -0.0856 -0.4121
    1SOL     OW 3385   1.826   3.985   1.483 -0.4555  0.2928 -0.1286
    1SOL    HW2 3386   1.905   3.941   1.514 -0.4620 -0.5194 -1.2229
    1SOL    HW3 3387   1.754   3.932   1.517 -0.4917  0.0964 -0.5139
    1SOL    MW4 3388   1.827   3.972   1.492 -0.4611  0.1595 -0.3238
    1SOL     OW 3389   1.791   4.230   1.576  0.2169 -0.5599 -0.7262
    1SOL    HW2 3390   1.873   4.267   1.544 -1.5719  1.1146 -3.6428
    1SOL    HW3 3391   1.790   4.141   1.541  0.8640 -0.6275 -0.5689
    1SOL    MW4 3392   1.802   4.223   1.567  0.0663 -0.3481 -1.0902
    1SOL     OW 3393   2.029   4.373   1.473  0.4303  0.3230  0.0186
    1SOL    HW2 3394   2.094   4.331   1.529 -1.8172  0.0773  2.5348
    1SOL    HW3 3395   2.019   4.461   1.509  0.0581  0.6807 -0.9480
    1SOL    MW4 3396   2.036   4.379   1.485  0.0846  0.3376  0.2230
    1SOL     OW 3397   2.405   0.011   1.620  0.6721 -0.0957  0.5330
    1SOL    HW2 3398   2.400   0.003   1.715  0.0755  1.3496  0.6410
    1SOL    HW3 3399   2.333   0.069   1.597  1.0249 -0.1584 -0.7704
    1SOL    MW4 3400   2.395   0.018   1.629  0.6399  0.0868  0.3752
    1SOL     OW 3401   2.196   0.150   1.513  0.1696 -0.0560  0.2718
    1SOL    HW2 3402   2.133   0.080   1.522 -1.1645  0.9510 -0.9614
    1SOL    HW3 3403   2.210   0.158   1.419 -0.0883  1.6375  0.3502
    1SOL    MW4 3404   2.190   0.142   1.502 -0.0405  0.3003  0.1194
    1SOL     OW 3405   2.210   0.421   1.591 -0.1621  0.3250  0.2511
    1SOL    HW2 3406   2.221   0.410   1.686  1.9282  1.2317  0.1475
    1SOL    HW3 3407   2.191   0.333   1.560  0.7838 -0.2921  1.3345
    1SOL    MW4 3408   2.209   0.408   1.600  0.2389  0.3632  0.3804
    1SOL     OW 3409   2.464   0.520   1.496  0.2273  0.3218  0.0814
    1SOL    HW2 3410   2.535   0.468   1.534 -0.8738 -0.7182  0.7499
    1SOL    HW3 3411   2.384   0.476   1.524 -0.7790  2.7764  1.2517
    1SOL    MW4 3412   2.463   0.508   1.505 -0.0508  0.5084  0.3240
    1SOL     OW 3413   2.489   0.761   1.617 -0.4322 -0.1148  0.0008
    1SOL    HW2 3414   2.418   0.807   1.571 -0.0170 -0.5938 -1.1319
    1SOL    HW3 3415   2.490   0.674   1.578  1.3346  0.1493 -0.5886
    1SOL    MW4 3416   2.480   0.756   1.606 -0.1445 -0.1432 -0.2264
    1SOL     OW 3417   2.304   0.935   1.488  0.7615 -0.4380  0.6752
    1SOL    HW2 3418   2.285   1.012   1.542 -0.3579  0.1237 -0.5089
    1SOL    HW3 3419   2.229   0.877   1.502 -0.1972  0.2820 -1.2915
    1SOL    MW4 3420   2.292   0.938   1.497  0.4876 -0.2689  0.2594
    1SOL     OW 3421   2.242   1.175   1.621  0.1487  0.6053 -0.0110
    1SOL    HW2 3422   2.222   1.176   1.715 -0.2450  1.4023 -0.1006
    1SOL    HW3 3423   2.163   1.210   1.579 -0.8669 -2.5555 -0.8794
    1SOL    MW4 3424   2.229   1.180   1.628 -0.0372  0.2934 -0.1373
    1SOL     OW 3425   2.479   1.278   1.485  0.3286  0.0201 -0.0629
    1SOL    HW2 3426   2.403   1.246   1.534  1.1660  1.2245  2.1316
    1SOL    HW3 3427   2.447   1.291   1.396 -1.4717 -1.4708  0.3432
    1SOL    MW4 3428   2.465   1.276   1.480  0.2015 -0.0175  0.2803
    1SOL     OW 3429   2.496   1.522   1.632  0.1769  0.1505 -0.2654
    1SOL    HW2 3430   2.577   1.570   1.615  0.5001  0.0440  0.9491
    1SOL    HW3 3431   2.502   1.444   1.577  1.7104 -0.7469  1.1438
    1SOL    MW4 3432   2.507   1.518   1.623  0.4220  0.0180  0.0807
    1SOL     OW 3433   2.278   1.639   1.498  0.1961  0.0233 -0.1709
    1SOL    HW2 3434   2.360   1.593   1.518  0.8525  1.6518  1.0399
    1SOL    HW3 3435   2.282   1.654   1.404  0.1480 -2.0047 -0.5268
    1SOL    MW4 3436   2.290   1.635   1.488  0.2763 -0.0293 -0.0582
    1SOL     OW 3437   2.227   1.891   1.566  0.1886  0.2200  0.0792
    1SOL    HW2 3438   2.254   1.907   1.657 -1.7140  0.6817  0.5926
    1SOL    HW3 3439   2.262   1.805   1.545 -0.5116 -0.5008  1.7390
    1SOL    MW4 3440   2.235   1.882   1.575 -0.1547  0.1858  0.3659
    1SOL     OW 3441   2.443   2.064   1.498  0.1730 -0.3857  0.1520
    1SOL    HW2 3442   2.375   2.009   1.537  0.6741 -1.3421 -0.3056
    1SOL    HW3 3443   2.436   2.048   1.404 -0.2144  0.9631 -0.0435
    1SOL    MW4 3444   2.433   2.054   1.491  0.1879 -0.3338  0.0658
    1SOL     OW 3445   2.427   2.335   1.564  0.2110 -0.2972  0.2504
    1SOL    HW2 3446   2.424   2.329   1.659 -3.2271 -0.7747  0.1680
    1SOL    HW3 3447   2.427   2.244   1.533  0.4853 -0.1402 -0.2251
    1SOL    MW4 3448   2.427   2.322   1.572 -0.2062 -0.3395  0.1768
    1SOL     OW 3449   2.193   2.460   1.471  0.3869  0.2221  0.0448
    1SOL    HW2 3450   2.276   2.418   1.496  0.0184 -0.2198  0.5312
    1SOL    HW3 3451   2.126   2.406   1.511 -0.1774  0.1239 -1.0246
    1SOL    MW4 3452   2.195   2.447   1.480  0.2639  0.1507 -0.0322
    1SOL     OW 3453   2.218   2.700   1.616 -0.2004  0.4274  0.2433
    1SOL    HW2 3454   2.202   2.616   1.573  1.5068  1.0352 -1.6405
    1SOL    HW3 3455   2.155   2.760   1.577 -0.4245  0.3846  0.5304
    1SOL    MW4 3456   2.208   2.697   1.605 -0.0050  0.5023  0.0327
    1SOL     OW 3457   2.440   2.812   1.489 -0.1246 -0.4964 -0.2003
    1SOL    HW2 3458   2.440   2.902   1.519 -0.0006 -0.1904 -1.0983
    1SOL    HW3 3459   2.366   2.771   1.534 -0.9919  0.3925 -0.7939
    1SOL    MW4 3460   2.430   2.818   1.499 -0.2224 -0.3388 -0.3972
    1SOL     OW 3461   2.448   3.066   1.617  0.1713 -0.0660 -0.4234
    1SOL    HW2 3462   2.522   3.112   1.577 -0.1245  0.1410 -0.7255
    1SOL    HW3 3463   2.370   3.110   1.584 -0.1014 -0.5011 -0.3713
    1SOL    MW4 3464   2.448   3.078   1.607  0.0963 -0.0958 -0.4565
    1SOL     OW 3465   2.220   3.179   1.517 -0.0367 -0.4119 -0.2442
    1SOL    HW2 3466   2.236   3.265   1.557 -2.0701  0.1538 -0.5521
    1SOL    HW3 3467   2.216   3.197   1.423 -0.0721 -0.9074 -0.3360
    1SOL    MW4 3468   2.221   3.193   1.510 -0.3097 -0.4027 -0.2970
    1SOL     OW 3469   2.268   3.439   1.611  0.1025 -0.4068 -0.1110
    1SOL    HW2 3470   2.252   3.459   1.703 -1.4851 -1.8149 -0.0672
    1SOL    HW3 3471   2.345   3.492   1.588  0.0340  0.5563  1.7934
    1SOL    MW4 3472   2.276   3.449   1.620 -0.1161 -0.4654  0.1460
    1SOL     OW 3473   2.457   3.590   1.493  0.0665 -0.2354 -0.2917
    1SOL    HW2 3474   2.533   3.551   1.537 -0.1246 -0.7524 -0.4104
    1SOL    HW3 3475   2.458   3.682   1.520  0.6473 -0.2725 -0.1716
    1SOL    MW4 3476   2.467   3.597   1.502  0.1178 -0.3085 -0.2916
    1SOL     OW 3477   2.482   3.855   1.610  0.2875 -0.8529  0.2312
    1SOL    HW2 3478   2.496   3.836   1.703  1.2897  0.4131  0.3650
    1SOL    HW3 3479   2.555   3.913   1.587 -0.1465 -0.8827 -1.2623
    1SOL    MW4 3480   2.494   3.860   1.619  0.3624 -0.6897  0.0517
    1SOL     OW 3481   2.262   4.001   1.504  0.3593 -0.2591 -0.1452
    1SOL    HW2 3482   2.333   3.938   1.509  0.0494 -0.5644  0.5218
    1SOL    HW3 3483   2.248   4.014   1.411  0.9565 -0.5750 -0.2805
    1SOL    MW4 3484   2.269   3.994   1.493  0.3972 -0.3412 -0.0750
    1SOL     OW 3485   2.231   4.253   1.626 -0.2012 -0.0927 -0.1670
    1SOL    HW2 3486   2.310   4.296   1.592 -1.6618  1.6078 -1.4956
    1SOL    HW3 3487   2.232   4.166   1.586  1.3890 -0.3750  0.4379
    1SOL    MW4 3488   2.242   4.247   1.617 -0.1843  0.0949 -0.2624
    1SOL     OW 3489   2.463   4.410   1.533 -0.0590 -0.0206  0.4875
    1SOL    HW2 3490   2.454   4.502   1.558  1.1822  0.3436 -0.2985
    1SOL    HW3 3491   2.450   4.411   1.438 -0.6360 -0.7511  0.5605
    1SOL    MW4 3492   2.460   4.422   1.523  0.0284 -0.0687  0.3934
    1SOL     OW 3493   2.911   4.650   1.585  0.2423  0.1830  0.0105
    1SOL    HW2 3494   2.917   4.634   1.679 -2.4461 -0.2452  0.1468
    1SOL    HW3 3495   2.838   4.711   1.576 -0.1839 -0.5856 -1.8744
    1SOL    MW4 3496   2.902   4.656   1.596 -0.1683  0.0251 -0.2202
    1SOL     OW 3497   2.660   0.108   1.514  0.5101  0.0322  0.0667
    1SOL    HW2 3498   2.665   0.201   1.537 -0.6083  0.6810 -2.2198
    1SOL    HW3 3499   2.580   0.077   1.557  0.1528  0.4578 -0.2907
    1SOL    MW4 3500   2.650   0.116   1.523  0.3154  0.1740 -0.2822
    1SOL     OW 3501   2.676   0.376   1.599 -0.3663  0.1876 -0.0213
    1SOL    HW2 3502   2.680   0.386   1.694 -0.8324 -1.5571  0.2133
    1SOL    HW3 3503   2.763   0.402   1.567 -0.0493  0.2995  0.9397
    1SOL    MW4 3504   2.688   0.380   1.607 -0.3858 -0.0278  0.1364
    1SOL     OW 3505   2.911   0.494   1.521  0.0011 -0.1760  0.3455
    1SOL    HW2 3506   2.917   0.587   1.543  2.3106 -0.2653  0.2249
    1SOL    HW3 3507   2.905   0.493   1.425  1.9203 -0.2041  0.2136
    1SOL    MW4 3508   2.911   0.506   1.511  0.5591 -0.1915  0.3122
    1SOL     OW 3509   2.904   0.753   1.586  0.3778 -0.2812  0.2258
    1SOL    HW2 3510   2.886   0.749   1.680  0.0313  1.1470  0.2187
    1SOL    HW3 3511   2.833   0.805   1.550  1.5707  0.8323 -0.5568
    1SOL    MW4 3512   2.893   0.759   1.594  0.4895  0.0541  0.1215
    1SOL     OW 3513   2.698   0.896   1.516  0.4129  0.2880  0.1399
    1SOL    HW2 3514   2.617   0.861   1.554  0.0860  0.1649 -0.6708
    1SOL    HW3 3515   2.686   0.888   1.422  0.6402  1.8871 -0.0455
    1SOL    MW4 3516   2.685   0.891   1.509  0.4001  0.4827  0.0086
    1SOL     OW 3517   2.694   1.153   1.629  0.2836 -0.3521 -0.1107
    1SOL    HW2 3518   2.690   1.069   1.584 -1.0295  0.4364 -1.5059
    1SOL    HW3 3519   2.630   1.208   1.583  0.5351  1.1545  1.3012
    1SOL    MW4 3520   2.685   1.149   1.617  0.1438 -0.0494 -0.1085
    1SOL     OW 3521   2.904   1.304   1.530  0.0584  0.2874 -0.1666
    1SOL    HW2 3522   2.980   1.250   1.551 -0.8391 -0.0779  2.4173
    1SOL    HW3 3523   2.831   1.260   1.574 -1.5649  0.9262 -2.1573
    1SOL    MW4 3524   2.905   1.291   1.539 -0.2737  0.3235 -0.0885
    1SOL     OW 3525   2.939   1.579   1.630  0.0145  0.1577 -0.5490
    1SOL    HW2 3526   2.866   1.634   1.604 -1.7837 -1.2846  1.3556
    1SOL    HW3 3527   2.929   1.499   1.577  0.0012 -0.2012 -0.0050
    1SOL    MW4 3528   2.928   1.575   1.619 -0.2244 -0.0798 -0.2260
    1SOL     OW 3529   2.704   1.695   1.553  1.0513 -0.1352 -0.3087
    1SOL    HW2 3530   2.691   1.788   1.570  1.4608 -0.1100 -0.1374
    1SOL    HW3 3531   2.700   1.687   1.458  0.0031 -0.0942 -0.2717
    1SOL    MW4 3532   2.702   1.706   1.543  0.9673 -0.1264 -0.2812
    1SOL     OW 3533   2.701   1.962   1.594 -0.1356 -0.5895 -0.1297
    1SOL    HW2 3534   2.702   1.972   1.689 -1.4920  0.5868 -0.2272
    1SOL    HW3 3535   2.614   1.989   1.568  0.6819  0.4540 -1.8649
    1SOL    MW4 3536   2.690   1.967   1.603 -0.2067 -0.2966 -0.3716
    1SOL     OW 3537   2.935   2.066   1.482 -0.0009 -0.4623  0.3824
    1SOL    HW2 3538   2.914   2.149   1.524 -1.4261 -0.3595 -0.5100
    1SOL    HW3 3539   2.859   2.010   1.499 -0.9666 -0.1771 -2.6150
    1SOL    MW4 3540   2.922   2.070   1.489 -0.3164 -0.4113 -0.1308
    1SOL     OW 3541   2.880   2.306   1.602 -0.1959 -0.0238 -0.0008
    1SOL    HW2 3542   2.870   2.290   1.696  0.0640  1.2286  0.2524
    1SOL    HW3 3543   2.801   2.355   1.578 -0.5168 -0.8008 -0.5514
    1SOL    MW4 3544   2.868   2.310   1.611 -0.2041  0.0389 -0.0401
    1SOL     OW 3545   2.674   2.464   1.518 -0.1767 -0.7657 -0.0681
    1SOL    HW2 3546   2.674   2.551   1.558  0.1050  0.0467 -1.7729
    1SOL    HW3 3547   2.589   2.427   1.542 -0.7099  0.3714 -0.1600
    1SOL    MW4 3548   2.662   2.471   1.527 -0.2098 -0.5085 -0.3051
    1SOL     OW 3549   2.650   2.695   1.662  0.6742  0.2104 -0.0476
    1SOL    HW2 3550   2.726   2.737   1.621 -0.2318  2.7945  0.8596
    1SOL    HW3 3551   2.575   2.726   1.611 -0.1764  1.0635  1.6982
    1SOL    MW4 3552   2.650   2.704   1.650  0.4425  0.6640  0.3024
    1SOL     OW 3553   2.872   2.838   1.546 -0.1160  0.3462 -0.4440
    1SOL    HW2 3554   2.957   2.806   1.576  0.4777  1.9409 -0.3336
    1SOL    HW3 3555   2.878   2.933   1.556 -2.2570  0.4267  0.4494
    1SOL    MW4 3556   2.884   2.847   1.552 -0.3202  0.5672 -0.3115
    1SOL     OW 3557   2.886   3.115   1.576  0.1156 -0.4688 -0.3446
    1SOL    HW2 3558   2.894   3.101   1.671  0.6410 -2.5538 -0.6573
    1SOL    HW3 3559   2.971   3.151   1.550  0.5947 -1.4855 -0.2485
    1SOL    MW4 3560   2.898   3.118   1.585  0.2484 -0.8779 -0.3731
    1SOL     OW 3561   2.645   3.227   1.524  0.4918  0.2304  0.1488
    1SOL    HW2 3562   2.724   3.181   1.553 -0.7890 -2.1802 -0.0173
    1SOL    HW3 3563   2.657   3.239   1.430  0.2054 -1.1109 -0.0691
    1SOL    MW4 3564   2.657   3.222   1.516  0.2851 -0.2644  0.0981
    1SOL     OW 3565   2.699   3.484   1.589  0.4344 -0.0738 -0.7739
    1SOL    HW2 3566   2.684   3.480   1.684 -0.1323 -0.3352 -0.8724
    1SOL    HW3 3567   2.688   3.393   1.559  0.4273  0.0395 -1.1176
    1SOL    MW4 3568   2.696   3.471   1.598  0.3586 -0.0935 -0.8322
    1SOL     OW 3569   2.922   3.600   1.522  0.1809  0.3075  0.4348
    1SOL    HW2 3570   2.842   3.555   1.549  0.8375 -0.8525  0.5164
    1SOL    HW3 3571   2.922   3.595   1.427  0.6288 -0.5629  0.4725
    1SOL    MW4 3572   2.912   3.593   1.513  0.3264  0.0396  0.4505
    1SOL     OW 3573   2.931   3.869   1.601  0.2636  0.1732 -0.6654
    1SOL    HW2 3574   2.855   3.917   1.570  0.6250  0.7327 -0.6901
    1SOL    HW3 3575   2.918   3.780   1.569 -1.1002 -0.0946  0.5655
    1SOL    MW4 3576   2.919   3.864   1.593  0.1316  0.2120 -0.5063
    1SOL     OW 3577   2.698   3.999   1.514 -0.0218  0.0564 -0.1374
    1SOL    HW2 3578   2.698   4.090   1.544 -1.8493  0.1213 -0.2848
    1SOL    HW3 3579   2.691   4.005   1.419 -0.0017 -0.2366 -0.1572
    1SOL    MW4 3580   2.697   4.012   1.505 -0.2604  0.0262 -0.1594
    1SOL     OW 3581   2.696   4.245   1.617 -0.3287 -0.4368  0.1882
    1SOL    HW2 3582   2.771   4.282   1.571 -0.6405 -1.3627 -1.1149
    1SOL    HW3 3583   2.621   4.293   1.581 -0.5921 -1.2935 -0.4261
    1SOL    MW4 3584   2.696   4.256   1.606 -0.4046 -0.6723 -0.0647
    1SOL     OW 3585   2.894   4.398   1.484  0.1219 -0.3916  0.2197
    1SOL    HW2 3586   2.897   4.489   1.514 -0.0690 -0.5436  0.6996
    1SOL    HW3 3587   2.903   4.404   1.389  1.2917  0.0518  0.3608
    1SOL    MW4 3588   2.895   4.411   1.476  0.2511 -0.3538  0.3016
    1SOL     OW 3589   3.342   4.628   1.614 -0.7593 -0.0316 -0.6368
    1SOL    HW2 3590   3.418   4.671   1.576 -0.8881 -0.2004 -1.0923
    1SOL    HW3 3591   3.336   4.544   1.569  0.0840 -0.9704  0.9737
    1SOL    MW4 3592   3.351   4.623   1.603 -0.6647 -0.1783 -0.4845
    1SOL     OW 3593   3.138   0.094   1.483 -0.1234 -0.0281 -0.1474
    1SOL    HW2 3594   3.218   0.059   1.522 -0.0788 -0.3536 -0.5396
    1SOL    HW3 3595   3.069   0.067   1.543  0.1881  1.2768  0.8502
    1SOL    MW4 3596   3.140   0.086   1.496 -0.0768  0.1011 -0.0676
    1SOL     OW 3597   3.140   0.364   1.611 -0.0454  0.0366  0.1384
    1SOL    HW2 3598   3.144   0.273   1.581 -1.1483  0.3989 -1.1432
    1SOL    HW3 3599   3.064   0.401   1.567  0.0810  1.4480  1.0607
    1SOL    MW4 3600   3.131   0.357   1.601 -0.1740  0.2706  0.0910
    1SOL     OW 3601   3.363   0.505   1.506 -0.1003 -0.6768  0.0946
    1SOL    HW2 3602   3.290   0.446   1.525 -0.3319 -0.2730  0.4618
    1SOL    HW3 3603   3.359   0.518   1.411 -0.3852 -0.8068  0.0884
    1SOL    MW4 3604   3.353   0.499   1.496 -0.1686 -0.6407  0.1422
    1SOL     OW 3605   3.368   0.773   1.594 -0.2190  0.4958 -0.1169
    1SOL    HW2 3606   3.362   0.761   1.689  0.0576  0.2535 -0.1291
    1SOL    HW3 3607   3.368   0.684   1.558  1.3683  0.5312 -0.2386
    1SOL    MW4 3608   3.367   0.760   1.602  0.0269  0.4685 -0.1347
    1SOL     OW 3609   3.122   0.897   1.482  0.2550  0.1648  0.0742
    1SOL    HW2 3610   3.198   0.845   1.507  0.4407  1.1937  1.7263
    1SOL    HW3 3611   3.049   0.855   1.528 -0.3230 -1.2204 -2.0230
    1SOL    MW4 3612   3.122   0.884   1.491  0.2034  0.1178  0.0154
    1SOL     OW 3613   3.154   1.159   1.577 -0.2222 -0.6112  0.1550
    1SOL    HW2 3614   3.130   1.147   1.669  0.1533 -1.4794  0.1482
    1SOL    HW3 3615   3.151   1.071   1.540  1.9478 -0.6158 -0.0807
    1SOL    MW4 3616   3.151   1.146   1.585  0.1132 -0.7263  0.1229
    1SOL     OW 3617   3.376   1.302   1.500 -0.0286 -0.3316 -0.1617
    1SOL    HW2 3618   3.459   1.268   1.534 -0.3155 -1.8471 -0.9102
    1SOL    HW3 3619   3.309   1.248   1.543 -0.5499 -0.1099 -0.6875
    1SOL    MW4 3620   3.378   1.290   1.510 -0.1352 -0.5022 -0.3299
    1SOL     OW 3621   3.366   1.541   1.636 -0.0801  0.2311 -0.0457
    1SOL    HW2 3622   3.354   1.519   1.728  2.1470 -1.1475 -0.0599
    1SOL    HW3 3623   3.373   1.457   1.592  0.8338  0.8996 -1.2048
    1SOL    MW4 3624   3.365   1.527   1.642  0.3343  0.1374 -0.2005
    1SOL     OW 3625   3.173   1.709   1.562 -0.2546 -0.0230 -0.5001
    1SOL    HW2 3626   3.257   1.667   1.581 -0.8244 -1.2647 -0.7437
    1SOL    HW3 3627   3.107   1.650   1.597 -1.0210  1.3563  0.4385
    1SOL    MW4 3628   3.175   1.696   1.569 -0.4308 -0.0049 -0.4084
    1SOL     OW 3629   3.152   1.962   1.646  0.2349 -0.2355 -0.5490
    1SOL    HW2 3630   3.153   1.867   1.631 -0.6808 -0.2594 -0.4944
    1SOL    HW3 3631   3.091   1.996   1.581 -1.3463  0.0263  1.0266
    1SOL    MW4 3632   3.144   1.954   1.636 -0.0947 -0.2042 -0.3339
    1SOL     OW 3633   3.387   2.058   1.521 -0.4652  0.5727  0.4372
    1SOL    HW2 3634   3.300   2.022   1.538  0.0050 -0.9486 -0.2847
    1SOL    HW3 3635   3.395   2.060   1.426  1.4169 -2.2470  0.4584
    1SOL    MW4 3636   3.377   2.053   1.511 -0.1550 -0.0002  0.3450
    1SOL     OW 3637   3.300   2.297   1.597 -0.3734 -0.2549  0.1980
    1SOL    HW2 3638   3.373   2.354   1.573 -0.3432 -0.0686  0.7066
    1SOL    HW3 3639   3.332   2.209   1.581  0.6624 -0.2856  2.1633
    1SOL    MW4 3640   3.314   2.293   1.592 -0.2329 -0.2346  0.5244
    1SOL     OW 3641   3.094   2.457   1.523  0.2251  0.1662 -0.0739
    1SOL    HW2 3642   3.167   2.407   1.560  0.6321  0.5810 -0.3029
    1SOL    HW3 3643   3.015   2.414   1.557  0.5747 -0.3463  0.0942
    1SOL    MW4 3644   3.093   2.445   1.533  0.3250  0.1533 -0.0820
    1SOL     OW 3645   3.115   2.746   1.629 -0.4687 -0.2380 -0.0731
    1SOL    HW2 3646   3.204   2.762   1.598  0.1447 -0.1652  1.6266
    1SOL    HW3 3647   3.091   2.660   1.595 -0.3817  0.4546 -1.9025
    1SOL    MW4 3648   3.123   2.737   1.621 -0.3762 -0.1369 -0.0902
    1SOL     OW 3649   3.362   2.822   1.541  0.6448 -0.4097  0.0147
    1SOL    HW2 3650   3.351   2.909   1.579 -2.1626 -0.9297  0.4527
    1SOL    HW3 3651   3.372   2.837   1.447 -1.3529  0.2948 -0.0894
    1SOL    MW4 3652   3.362   2.835   1.534  0.0107 -0.3855  0.0587
    1SOL     OW 3653   3.338   3.085   1.621 -0.0607  0.4451  0.4185
    1SOL    HW2 3654   3.337   3.090   1.717  1.3159 -0.2674  0.4756
    1SOL    HW3 3655   3.420   3.126   1.596  0.9657 -1.9923 -0.2958
    1SOL    MW4 3656   3.348   3.091   1.631  0.2565  0.0293  0.3316
    1SOL     OW 3657   3.130   3.239   1.528  0.0615  0.1041  0.4504
    1SOL    HW2 3658   3.147   3.324   1.569  0.4512  0.5196 -0.5515
    1SOL    HW3 3659   3.200   3.182   1.561 -0.0721  0.2267  0.9504
    1SOL    MW4 3660   3.141   3.242   1.538  0.0951  0.1750  0.3841
    1SOL     OW 3661   3.159   3.500   1.624 -0.2367 -0.7568 -0.4790
    1SOL    HW2 3662   3.156   3.479   1.717  0.6628  0.7267 -0.1113
    1SOL    HW3 3663   3.075   3.542   1.606  0.1912  0.3215  0.0059
    1SOL    MW4 3664   3.147   3.503   1.634 -0.0618 -0.4187 -0.3667
    1SOL     OW 3665   3.382   3.607   1.469  0.0591 -0.3806 -0.6501
    1SOL    HW2 3666   3.457   3.585   1.524 -0.3209 -1.4418 -0.5327
    1SOL    HW3 3667   3.308   3.564   1.512 -0.1555 -1.6977 -2.2672
    1SOL    MW4 3668   3.382   3.598   1.482 -0.0193 -0.6940 -0.8482
    1SOL     OW 3669   3.343   3.876   1.602  0.6102 -0.0518  0.0830
    1SOL    HW2 3670   3.273   3.923   1.556 -0.2927  0.2595  1.7616
    1SOL    HW3 3671   3.339   3.787   1.567  0.2418  0.2955 -0.7719
    1SOL    MW4 3672   3.333   3.870   1.591  0.4423  0.0348  0.1916
    1SOL     OW 3673   3.140   3.982   1.460 -0.1945 -0.1600  0.1210
    1SOL    HW2 3674   3.143   4.073   1.489 -0.4102  0.1575 -0.8388
    1SOL    HW3 3675   3.070   3.942   1.513 -1.8789  0.8781 -1.2691
    1SOL    MW4 3676   3.131   3.989   1.471 -0.4456  0.0188 -0.1891
    1SOL     OW 3677   3.105   4.236   1.551  0.2868 -0.0682 -0.1889
    1SOL    HW2 3678   3.107   4.225   1.646  1.3681 -0.6299 -0.2749
    1SOL    HW3 3679   3.035   4.300   1.536 -0.9151 -1.1129  0.8610
    1SOL    MW4 3680   3.096   4.243   1.561  0.2708 -0.2804 -0.0618
    1SOL     OW 3681   3.341   4.362   1.480  0.0451  0.6201 -0.0965
    1SOL    HW2 3682   3.263   4.311   1.504  1.4813 -1.3720  0.4653
    1SOL    HW3 3683   3.334   4.373   1.385 -0.7140  0.1021 -0.1044
    1SOL    MW4 3684   3.329   4.357   1.471  0.1345  0.2890 -0.0235
    1SOL     OW 3685   3.796   4.650   1.612  0.3184  0.7113  0.1373
    1SOL    HW2 3686   3.797   4.653   1.707  0.1454 -0.3554  0.1756
    1SOL    HW3 3687   3.877   4.694   1.586  1.1928 -0.4613  0.8224
    1SOL    MW4 3688   3.807   4.656   1.621  0.4110  0.4163  0.2327
    1SOL     OW 3689   3.579   0.113   1.521  0.0904  0.2836 -0.0707
    1SOL    HW2 3690   3.657   0.063   1.545 -1.2185 -2.0312 -0.4107
    1SOL    HW3 3691   3.597   0.147   1.434  1.0927  0.5856  0.2548
    1SOL    MW4 3692   3.592   0.111   1.513  0.0501  0.0181 -0.0727
    1SOL     OW 3693   3.590   0.374   1.615  0.2391  0.1600  0.2165
    1SOL    HW2 3694   3.577   0.281   1.600 -0.2780  0.1420  0.7534
    1SOL    HW3 3695   3.524   0.417   1.561  0.3875  0.2138  0.0759
    1SOL    MW4 3696   3.580   0.368   1.606  0.1905  0.1647  0.2688
    1SOL     OW 3697   3.800   0.502   1.507  0.6454  0.2143  0.6388
    1SOL    HW2 3698   3.737   0.450   1.557 -0.2343 -0.7248 -1.3766
    1SOL    HW3 3699   3.775   0.489   1.415  1.9578  2.2096 -0.0524
    1SOL    MW4 3700   3.789   0.494   1.501  0.7026  0.3537  0.2817
    1SOL     OW 3701   3.827   0.766   1.590  0.1244  0.2105  0.3150
    1SOL    HW2 3702   3.766   0.811   1.532 -1.4770  0.3091  2.0296
    1SOL    HW3 3703   3.803   0.674   1.583  1.7114 -0.1167 -1.2170
    1SOL    MW4 3704   3.816   0.760   1.581  0.1225  0.1803  0.3390
    1SOL     OW 3705   3.602   0.876   1.490  0.3412 -0.8277  0.2877
    1SOL    HW2 3706   3.518   0.838   1.515  0.4202 -0.9826  0.3136
    1SOL    HW3 3707   3.587   0.913   1.402 -0.1664  0.4408  0.8927
    1SOL    MW4 3708   3.589   0.876   1.481  0.2847 -0.6807  0.3710
    1SOL     OW 3709   3.591   1.133   1.614 -0.3082  0.1879  0.1539
    1SOL    HW2 3710   3.660   1.184   1.572  0.4458 -0.0609  1.0744
    1SOL    HW3 3711   3.600   1.046   1.577 -0.3664  0.2484 -0.0026
    1SOL    MW4 3712   3.602   1.128   1.604 -0.2162  0.1630  0.2546
    1SOL     OW 3713   3.800   1.276   1.456 -0.1137  0.0785  0.5066
    1SOL    HW2 3714   3.886   1.238   1.475 -0.4628 -1.0290 -0.1407
    1SOL    HW3 3715   3.799   1.358   1.506  0.6412 -0.7564  1.9181
    1SOL    MW4 3716   3.811   1.282   1.465 -0.0601 -0.1779  0.6074
    1SOL     OW 3717   3.787   1.528   1.589  0.5980  0.5209  0.0821
    1SOL    HW2 3718   3.772   1.519   1.683  0.5414  2.3132  0.2690
    1SOL    HW3 3719   3.714   1.582   1.558 -0.0345 -1.0144 -1.2232
    1SOL    MW4 3720   3.775   1.534   1.597  0.5071  0.5548 -0.0653
    1SOL     OW 3721   3.567   1.668   1.512 -0.2797 -0.2823  0.2236
    1SOL    HW2 3722   3.495   1.616   1.548 -1.4259  0.7052 -0.6237
    1SOL    HW3 3723   3.552   1.668   1.418 -0.8027  2.2826  0.2575
    1SOL    MW4 3724   3.556   1.661   1.505 -0.5000  0.1863  0.1162
    1SOL     OW 3725   3.580   1.915   1.626 -0.0341 -0.1242 -0.1154
    1SOL    HW2 3726   3.557   1.831   1.587 -2.4386 -0.5500  2.1116
    1SOL    HW3 3727   3.517   1.977   1.589  0.2815  0.2651 -0.0010
    1SOL    MW4 3728   3.569   1.912   1.616 -0.3102 -0.1291  0.1936
    1SOL     OW 3729   3.800   2.023   1.490  0.1033 -0.1496 -0.1801
    1SOL    HW2 3730   3.797   2.105   1.540 -0.7073 -0.0168 -0.4397
    1SOL    HW3 3731   3.738   1.966   1.533 -1.5409  0.3934 -1.7600
    1SOL    MW4 3732   3.792   2.026   1.502 -0.2205 -0.0606 -0.4227
    1SOL     OW 3733   3.775   2.290   1.613 -0.0613  0.1353  0.1804
    1SOL    HW2 3734   3.777   2.280   1.708 -0.8543 -0.1916  0.1702
    1SOL    HW3 3735   3.849   2.347   1.593  0.7202 -0.6184  0.8890
    1SOL    MW4 3736   3.785   2.296   1.623 -0.0627 -0.0072  0.2725
    1SOL     OW 3737   3.542   2.402   1.503  0.0930  0.6970 -0.3451
    1SOL    HW2 3738   3.555   2.490   1.538  1.1958  0.6505 -0.6235
    1SOL    HW3 3739   3.621   2.355   1.528 -0.6365 -0.3150  0.0867
    1SOL    MW4 3740   3.554   2.408   1.511  0.1421  0.5572 -0.3251
    1SOL     OW 3741   3.588   2.656   1.595  0.1242 -0.1026  0.1352
    1SOL    HW2 3742   3.597   2.653   1.690 -0.2210  0.9849  0.2133
    1SOL    HW3 3743   3.518   2.720   1.580 -0.9194 -1.4273 -0.7906
    1SOL    MW4 3744   3.580   2.664   1.605 -0.0594 -0.1340  0.0232
    1SOL     OW 3745   3.800   2.826   1.516  0.8716  0.2239  0.0731
    1SOL    HW2 3746   3.883   2.801   1.557  1.0140 -0.5289 -0.6612
    1SOL    HW3 3747   3.735   2.768   1.556  0.5980  1.1692  1.0358
    1SOL    MW4 3748   3.802   2.815   1.527  0.8543  0.2491  0.1031
    1SOL     OW 3749   3.790   3.086   1.616 -0.3900 -0.4455 -0.7624
    1SOL    HW2 3750   3.867   3.120   1.571  0.1357 -0.6720 -0.0558
    1SOL    HW3 3751   3.771   3.003   1.572 -1.0455  0.2524 -1.8079
    1SOL    MW4 3752   3.797   3.079   1.604 -0.4072 -0.3834 -0.8070
    1SOL     OW 3753   3.566   3.237   1.560  0.2381  0.0966 -0.1691
    1SOL    HW2 3754   3.647   3.197   1.590  0.3778 -0.5291 -1.3333
    1SOL    HW3 3755   3.577   3.244   1.465 -0.4581  1.3956 -0.1575
    1SOL    MW4 3756   3.578   3.232   1.551  0.1647  0.1857 -0.3211
    1SOL     OW 3757   3.579   3.520   1.625 -0.0999  0.2964  0.0844
    1SOL    HW2 3758   3.656   3.549   1.576 -0.8347  0.2056 -1.1563
    1SOL    HW3 3759   3.576   3.425   1.611  1.2131 -0.1276  2.5476
    1SOL    MW4 3760   3.589   3.511   1.617 -0.0238  0.2284  0.2458
    1SOL     OW 3761   3.814   3.601   1.480 -0.2722 -0.5434 -0.1974
    1SOL    HW2 3762   3.878   3.550   1.530  2.0585  0.4087 -2.1052
    1SOL    HW3 3763   3.811   3.686   1.524 -0.2024 -0.5888 -0.1046
    1SOL    MW4 3764   3.822   3.605   1.492  0.0446 -0.4237 -0.4369
    1SOL     OW 3765   3.800   3.841   1.605  0.2562  0.2328 -0.5315
    1SOL    HW2 3766   3.872   3.901   1.584 -0.3967  0.3773 -2.4828
    1SOL    HW3 3767   3.724   3.879   1.560 -0.6522 -0.8477  0.0751
    1SOL    MW4 3768   3.800   3.854   1.596  0.0501  0.1094 -0.7088
    1SOL     OW 3769   3.581   3.977   1.490 -0.0557  0.0129 -0.1463
    1SOL    HW2 3770   3.587   4.058   1.541 -0.1869  0.6824 -1.1880
    1SOL    HW3 3771   3.503   3.933   1.525 -0.8027  1.0091 -0.5192
    1SOL    MW4 3772   3.571   3.982   1.501 -0.1714  0.2327 -0.3330
    1SOL     OW 3773   3.573   4.238   1.583  0.0789  0.4797 -0.1916
    1SOL    HW2 3774   3.576   4.250   1.678  1.0764  1.2126 -0.3011
    1SOL    HW3 3775   3.495   4.286   1.555  1.3714  2.7423 -0.0569
    1SOL    MW4 3776   3.563   4.246   1.592  0.3812  0.8750 -0.1882
    1SOL     OW 3777   3.795   4.397   1.504  0.0151  0.2776 -0.3280
    1SOL    HW2 3778   3.719   4.344   1.530  0.2511 -0.5181 -1.2122
    1SOL    HW3 3779   3.781   4.481   1.547  0.1202 -0.8100  1.9025
    1SOL    MW4 3780   3.783   4.401   1.513  0.0606  0.0291 -0.1503
    1SOL     OW 3781   4.256   4.620   1.603  0.5931 -0.1706 -0.3618
    1SOL    HW2 3782   4.251   4.617   1.699  0.3728  0.6191 -0.3443
    1SOL    HW3 3783   4.257   4.528   1.576  3.1153 -0.4649  0.5204
    1SOL    MW4 3784   4.256   4.607   1.612  0.8965 -0.1054 -0.2429
    1SOL     OW 3785   4.034   0.083   1.500 -0.6412  0.0681 -0.0241
    1SOL    HW2 3786   4.037   0.173   1.534 -1.4796  0.4401 -0.9228
    1SOL    HW3 3787   4.109   0.040   1.542 -1.7052  0.4680  2.4132
    1SOL    MW4 3788   4.044   0.089   1.510 -0.8917  0.1699  0.1788
    1SOL     OW 3789   4.027   0.358   1.563 -0.5581  0.3437 -0.1304
    1SOL    HW2 3790   4.028   0.351   1.659  1.5670  0.2045 -0.1185
    1SOL    HW3 3791   3.957   0.420   1.544 -1.9015 -0.6642  1.4334
    1SOL    MW4 3792   4.018   0.366   1.573 -0.4549  0.1924  0.0775
    1SOL     OW 3793   4.238   0.506   1.449  0.0130 -0.0927  0.2823
    1SOL    HW2 3794   4.169   0.460   1.496 -0.6957  0.7877  0.1033
    1SOL    HW3 3795   4.317   0.454   1.467 -0.9743 -2.0852 -0.9059
    1SOL    MW4 3796   4.240   0.493   1.458 -0.2112 -0.2394  0.1019
    1SOL     OW 3797   4.271   0.740   1.593 -0.0759  0.5118 -0.5159
    1SOL    HW2 3798   4.252   0.661   1.542 -1.8252  1.0636 -0.7813
    1SOL    HW3 3799   4.358   0.767   1.564 -0.0251 -0.5670 -1.4075
    1SOL    MW4 3800   4.280   0.733   1.582 -0.2999  0.4422 -0.6685
    1SOL     OW 3801   4.054   0.876   1.466 -0.1565 -0.5182  0.1794
    1SOL    HW2 3802   4.130   0.843   1.515  0.1838 -1.0750 -0.7179
    1SOL    HW3 3803   3.979   0.836   1.509  0.1353 -0.9211  0.3196
    1SOL    MW4 3804   4.054   0.866   1.478 -0.0730 -0.6447  0.0794
    1SOL     OW 3805   4.022   1.130   1.564  0.5027 -0.3809 -0.4310
    1SOL    HW2 3806   4.014   1.119   1.659  0.4594 -1.3481 -0.5463
    1SOL    HW3 3807   4.026   1.041   1.529 -0.0039 -0.0396 -1.3834
    1SOL    MW4 3808   4.021   1.117   1.572  0.4301 -0.4635 -0.5717
    1SOL     OW 3809   4.263   1.212   1.464  0.0109  0.5537 -0.2682
    1SOL    HW2 3810   4.187   1.183   1.513 -0.3088  0.5246 -0.7799
    1SOL    HW3 3811   4.337   1.169   1.507 -0.3992 -0.5201 -0.6245
    1SOL    MW4 3812   4.263   1.202   1.476 -0.0849  0.4083 -0.3827
    1SOL     OW 3813   4.237   1.488   1.569 -0.0274  0.6865  0.2698
    1SOL    HW2 3814   4.254   1.397   1.545  0.0007  0.7622 -0.0049
    1SOL    HW3 3815   4.314   1.536   1.538  0.0340  0.7788  0.5646
    1SOL    MW4 3816   4.249   1.483   1.562 -0.0157  0.7087  0.2724
    1SOL     OW 3817   4.029   1.642   1.469 -0.1188  0.0813  0.0253
    1SOL    HW2 3818   4.101   1.585   1.495 -0.6481 -0.4786  0.2529
    1SOL    HW3 3819   3.950   1.600   1.503 -0.8226 -0.5767 -2.2734
    1SOL    MW4 3820   4.028   1.629   1.477 -0.2809 -0.0793 -0.2481
    1SOL     OW 3821   4.011   1.887   1.620 -0.2131  0.2239  0.4072
    1SOL    HW2 3822   4.021   1.806   1.571 -0.6864 -0.4469  1.4224
    1SOL    HW3 3823   3.936   1.930   1.580 -0.5631 -0.2978  0.5008
    1SOL    MW4 3824   4.003   1.882   1.608 -0.3219  0.0666  0.5536
    1SOL     OW 3825   4.235   2.037   1.521  0.3137 -0.0299 -0.3317
    1SOL    HW2 3826   4.154   1.991   1.542  0.5438 -0.5815 -0.6154
    1SOL    HW3 3827   4.236   2.042   1.425 -0.6157  2.2567 -0.2522
    1SOL    MW4 3828   4.225   2.031   1.511  0.2213  0.1991 -0.3587
    1SOL     OW 3829   4.211   2.297   1.561  0.5409  0.3087 -0.0303
    1SOL    HW2 3830   4.212   2.308   1.656  2.3121 -0.2097  0.0241
    1SOL    HW3 3831   4.233   2.205   1.547  0.7199  0.4909 -0.9647
    1SOL    MW4 3832   4.214   2.286   1.571  0.7982  0.2646 -0.1463
    1SOL     OW 3833   3.980   2.446   1.514  0.1628 -0.3451  0.5363
    1SOL    HW2 3834   3.985   2.537   1.543  2.2013 -0.0369 -0.7462
    1SOL    HW3 3835   4.059   2.405   1.549 -0.4072 -1.4798  0.5325
    1SOL    MW4 3836   3.991   2.453   1.523  0.3562 -0.4544  0.3666
    1SOL     OW 3837   4.032   2.702   1.604  0.3349  0.9429  0.0536
    1SOL    HW2 3838   4.037   2.695   1.699 -0.1103 -0.0266  0.0138
    1SOL    HW3 3839   4.115   2.743   1.578  0.5035  1.0997  0.8409
    1SOL    MW4 3840   4.044   2.707   1.613  0.2985  0.8357  0.1521
    1SOL     OW 3841   4.283   2.803   1.523  0.2197 -0.1149 -0.2410
    1SOL    HW2 3842   4.273   2.897   1.540 -0.5505 -0.2970  0.3315
    1SOL    HW3 3843   4.272   2.794   1.429  0.5662  0.4024 -0.3320
    1SOL    MW4 3844   4.281   2.814   1.513  0.1640 -0.0708 -0.1775
    1SOL     OW 3845   4.290   3.059   1.603  0.3776  0.3129  0.0879
    1SOL    HW2 3846   4.275   3.078   1.696 -0.1536  0.9999 -0.1376
    1SOL    HW3 3847   4.365   3.113   1.580  0.8284 -0.2358  0.2351
    1SOL    MW4 3848   4.298   3.068   1.613  0.3672  0.3309  0.0775
    1SOL     OW 3849   4.039   3.170   1.524 -0.6521  0.6286 -0.3075
    1SOL    HW2 3850   4.034   3.258   1.562 -2.6579 -0.4624  2.0868
    1SOL    HW3 3851   4.123   3.137   1.552  0.1528  1.7768 -1.2851
    1SOL    MW4 3852   4.049   3.178   1.533 -0.8101  0.6361 -0.1205
    1SOL     OW 3853   4.010   3.440   1.603 -0.2774  0.2739  0.1575
    1SOL    HW2 3854   4.018   3.463   1.695 -0.2486  0.6788  0.0524
    1SOL    HW3 3855   4.079   3.489   1.559 -0.5739  0.4278 -0.1402
    1SOL    MW4 3856   4.020   3.449   1.609 -0.3128  0.3479  0.1044
    1SOL     OW 3857   4.245   3.609   1.515  0.1105  0.2318  0.0167
    1SOL    HW2 3858   4.249   3.701   1.541  0.3173 -0.0050  0.8308
    1SOL    HW3 3859   4.239   3.612   1.419  2.9384  1.0263 -0.1848
    1SOL    MW4 3860   4.244   3.622   1.505  0.5107  0.3054  0.0976
    1SOL     OW 3861   4.267   3.854   1.622 -0.1261 -0.2415  0.1009
    1SOL    HW2 3862   4.199   3.893   1.566 -0.8355 -2.0020 -0.2842
    1SOL    HW3 3863   4.347   3.900   1.597 -0.8652  0.6974 -0.6271
    1SOL    MW4 3864   4.269   3.865   1.611 -0.3171 -0.3495 -0.0459
    1SOL     OW 3865   4.040   3.990   1.528 -0.1622  0.2103 -0.2368
    1SOL    HW2 3866   4.036   4.084   1.546 -1.6924  0.2529 -0.7729
    1SOL    HW3 3867   4.030   3.983   1.433  1.9849 -0.3921 -0.4542
    1SOL    MW4 3868   4.038   4.001   1.518 -0.0815  0.1369 -0.3362
    1SOL     OW 3869   4.046   4.275   1.582 -0.0099  0.1191 -0.1509
    1SOL    HW2 3870   4.038   4.264   1.677  0.6134  1.2773  0.0465
    1SOL    HW3 3871   3.959   4.306   1.555  0.1542  0.9193  0.2173
    1SOL    MW4 3872   4.033   4.278   1.591  0.0939  0.3772 -0.0763
    1SOL     OW 3873   4.277   4.373   1.485  0.4401  0.1328 -0.3804
    1SOL    HW2 3874   4.191   4.337   1.507  0.0308  0.8772 -0.7614
    1SOL    HW3 3875   4.277   4.378   1.389  0.3509  1.4881 -0.3165
    1SOL    MW4 3876   4.266   4.369   1.475  0.3738  0.4096 -0.4222
    1SOL     OW 3877   0.229   4.638   1.867  0.0523  0.1885  0.1645
    1SOL    HW2 3878   0.308   4.682   1.897  2.4410 -3.5354 -0.3620
    1SOL    HW3 3879   0.233   4.643   1.771 -0.9150  0.8800  0.1482
    1SOL    MW4 3880   0.240   4.645   1.858  0.2399 -0.2117  0.0930
    1SOL     OW 3881   0.012   0.131   1.952 -0.3238 -0.5389 -0.3010
    1SOL    HW2 3882   0.022   0.213   1.905  1.1353 -0.0256  0.8602
    1SOL    HW3 3883   0.091   0.081   1.930 -0.4478 -0.9768  0.2433
    1SOL    MW4 3884   0.024   0.135   1.943 -0.1477 -0.5289 -0.0759
    1SOL     OW 3885   0.010   0.378   1.826 -0.3785 -0.1780  0.3188
    1SOL    HW2 3886  -0.062   0.439   1.846  0.8571  1.2333  0.5706
    1SOL    HW3 3887   0.084   0.410   1.878  0.7904 -0.8716 -0.8778
    1SOL    MW4 3888   0.010   0.390   1.836 -0.0612 -0.0833  0.1941
    1SOL     OW 3889   0.215   0.473   1.962 -0.2920 -0.0513 -0.7488
    1SOL    HW2 3890   0.292   0.430   1.924 -0.8390  0.0791 -2.0022
    1SOL    HW3 3891   0.219   0.563   1.929 -0.2397  0.3345  0.2821
    1SOL    MW4 3892   0.226   0.479   1.953 -0.3573  0.0168 -0.7781
    1SOL     OW 3893   0.233   0.720   1.844  0.0395 -0.3850 -0.0682
    1SOL    HW2 3894   0.312   0.764   1.874  0.5547 -1.6937  0.5086
    1SOL    HW3 3895   0.229   0.739   1.750  0.5847  0.3623  0.0579
    1SOL    MW4 3896   0.243   0.729   1.836  0.1794 -0.4591  0.0244
    1SOL     OW 3897   0.032   0.865   1.979  0.0209 -0.7128  0.3064
    1SOL    HW2 3898  -0.046   0.821   1.944  0.6428 -1.1170 -0.6260
    1SOL    HW3 3899   0.104   0.831   1.925  0.8419 -0.3644  1.1668
    1SOL    MW4 3900   0.031   0.854   1.967  0.2113 -0.7201  0.2968
    1SOL     OW 3901   0.012   1.138   1.860  0.2844 -0.2127 -0.4497
    1SOL    HW2 3902  -0.073   1.171   1.888  0.3673 -0.1256 -0.2970
    1SOL    HW3 3903   0.014   1.047   1.891  1.3443  0.6037  1.9857
    1SOL    MW4 3904   0.001   1.130   1.868  0.4354 -0.0933 -0.1082
    1SOL     OW 3905   0.235   1.263   2.001 -0.0351 -0.0551  0.0299
    1SOL    HW2 3906   0.238   1.350   1.962 -0.3952 -0.2706 -0.4858
    1SOL    HW3 3907   0.164   1.219   1.955  0.8552 -0.9843 -0.4675
    1SOL    MW4 3908   0.226   1.269   1.990  0.0349 -0.2060 -0.1036
    1SOL     OW 3909   0.231   1.506   1.870  0.1153 -0.6294  0.4877
    1SOL    HW2 3910   0.300   1.559   1.910  0.3373 -0.6788  0.1669
    1SOL    HW3 3911   0.150   1.552   1.893  0.3794  0.5023 -0.7559
    1SOL    MW4 3912   0.229   1.519   1.878  0.1794 -0.4865  0.2812
    1SOL     OW 3913   4.491   1.634   1.951  0.7583 -0.4540 -0.3822
    1SOL    HW2 3914   4.498   1.652   2.045 -0.5335 -0.0326 -0.3522
    1SOL    HW3 3915   4.401   1.603   1.939  0.9399 -0.5939 -1.4608
    1SOL    MW4 3916   4.480   1.632   1.962  0.6123 -0.4166 -0.5206
    1SOL     OW 3917   4.479   1.884   1.861 -0.1124 -0.1065  0.0476
    1SOL    HW2 3918   4.409   1.940   1.894  0.8973  1.3554 -0.2762
    1SOL    HW3 3919   4.457   1.797   1.895 -1.3407  0.5867  1.0906
    1SOL    MW4 3920   4.467   1.880   1.870 -0.1407  0.1777  0.1425
    1SOL     OW 3921   0.201   1.989   2.031 -0.1052  0.4139 -0.2159
    1SOL    HW2 3922   0.221   2.080   2.010 -0.5530  0.5082 -0.2330
    1SOL    HW3 3923   0.120   1.971   1.983 -0.8798  0.4903  1.0467
    1SOL    MW4 3924   0.193   1.999   2.022 -0.2665  0.4363 -0.0517
    1SOL     OW 3925   0.202   2.270   1.945 -0.4850 -0.1884 -0.0741
    1SOL    HW2 3926   0.278   2.327   1.959 -0.3222 -0.2250 -0.7579
    1SOL    HW3 3927   0.128   2.330   1.936 -0.2536 -0.0475 -1.1872
    1SOL    MW4 3928   0.202   2.286   1.946 -0.4330 -0.1748 -0.3111
    1SOL     OW 3929   4.442   2.455   1.936 -0.1204 -0.6318  0.3084
    1SOL    HW2 3930   4.444   2.425   2.026  1.2044 -0.8401  0.2256
    1SOL    HW3 3931   4.455   2.550   1.942  0.3557 -0.6975  0.3164
    1SOL    MW4 3932   4.444   2.464   1.948  0.1168 -0.6678  0.2985
    1SOL     OW 3933   4.478   2.735   1.887  0.2233  0.1425 -0.3497
    1SOL    HW2 3934   4.399   2.789   1.890 -0.6726 -1.2353  2.1052
    1SOL    HW3 3935   4.494   2.721   1.794 -3.4262 -1.0000 -0.8700
    1SOL    MW4 3936   4.470   2.741   1.875 -0.3767 -0.1903 -0.0945
    1SOL     OW 3937   0.229   2.815   2.016 -0.0049  0.5478  0.3905
    1SOL    HW2 3938   0.232   2.894   1.962  0.2754 -0.4464 -1.0838
    1SOL    HW3 3939   0.152   2.768   1.985  0.1727 -0.0532  0.8571
    1SOL    MW4 3940   0.219   2.819   2.005  0.0555  0.3374  0.2575
    1SOL     OW 3941   0.222   3.086   1.856 -0.1847 -0.3135  0.5384
    1SOL    HW2 3942   0.293   3.141   1.890 -0.6291  0.6685 -0.1207
    1SOL    HW3 3943   0.240   3.080   1.762 -0.5501 -0.6897  0.4938
    1SOL    MW4 3944   0.234   3.092   1.848 -0.2915 -0.2334  0.4456
    1SOL     OW 3945   0.018   3.251   1.957  0.0499 -0.3023 -0.4171
    1SOL    HW2 3946  -0.060   3.213   1.915 -0.2052 -0.5175  0.2522
    1SOL    HW3 3947   0.089   3.193   1.929  0.0262  0.0837 -1.2978
    1SOL    MW4 3948   0.017   3.238   1.948  0.0132 -0.2797 -0.4450
    1SOL     OW 3949   4.487   3.527   1.873  0.5653 -0.0027  0.3009
    1SOL    HW2 3950   4.572   3.562   1.898  0.9108 -1.6096  1.4213
    1SOL    HW3 3951   4.490   3.435   1.899 -0.7219 -0.6226 -1.6103
    1SOL    MW4 3952   4.499   3.519   1.880  0.4410 -0.2966  0.1966
    1SOL     OW 3953   0.246   3.631   1.956 -0.4074 -0.1395 -0.4383
    1SOL    HW2 3954   0.236   3.610   2.048 -2.9459 -0.2972 -0.7145
    1SOL    HW3 3955   0.322   3.581   1.928 -0.2163 -0.8601  1.3356
    1SOL    MW4 3956   0.255   3.622   1.964 -0.7171 -0.2556 -0.2406
    1SOL     OW 3957   0.239   3.887   1.842 -0.5194  0.3645  0.5295
    1SOL    HW2 3958   0.313   3.930   1.885 -0.1003  0.6165 -0.4300
    1SOL    HW3 3959   0.239   3.798   1.877 -0.8714  0.8754  1.8932
    1SOL    MW4 3960   0.249   3.881   1.853 -0.5105  0.4649  0.5828
    1SOL     OW 3961   0.035   4.022   1.954 -0.0061  0.1475 -0.3365
    1SOL    HW2 3962   0.028   4.111   1.918  1.8005  0.5286  0.1889
    1SOL    HW3 3963   0.111   3.984   1.910  0.1860 -0.5676  0.5942
    1SOL    MW4 3964   0.044   4.029   1.944  0.2576  0.1030 -0.1444
    1SOL     OW 3965   0.013   4.263   1.831  0.2047  0.1364 -0.1972
    1SOL    HW2 3966  -0.063   4.304   1.871 -1.3129  0.4518 -3.2661
    1SOL    HW3 3967   0.088   4.311   1.867 -1.1651  1.4573  0.9753
    1SOL    MW4 3968   0.013   4.274   1.841 -0.1764  0.3519 -0.4474
    1SOL     OW 3969   0.225   4.386   1.975  0.3443  0.4686  0.3527
    1SOL    HW2 3970   0.215   4.388   2.070  0.4962  1.6594  0.3409
    1SOL    HW3 3971   0.216   4.477   1.948 -0.9055 -0.0237 -0.8988
    1SOL    MW4 3972   0.222   4.398   1.984  0.1995  0.5603  0.1861
    1SOL     OW 3973   0.683   4.661   1.860 -0.2743 -0.1939  0.0553
    1SOL    HW2 3974   0.693   4.568   1.883 -1.2059 -0.2934  0.0734
    1SOL    HW3 3975   0.657   4.660   1.768  2.1471  0.1535 -0.6608
    1SOL    MW4 3976   0.681   4.648   1.851 -0.0778 -0.1607 -0.0367
    1SOL     OW 3977   0.454   0.110   1.955  0.3740  0.1196 -0.5557
    1SOL    HW2 3978   0.468   0.197   1.918  0.3313  0.0237 -0.8013
    1SOL    HW3 3979   0.535   0.063   1.938  0.1351 -0.1118 -1.0599
    1SOL    MW4 3980   0.467   0.115   1.948  0.3369  0.0764 -0.6547
    1SOL     OW 3981   0.451   0.362   1.862  0.1990  0.3294  0.3049
    1SOL    HW2 3982   0.536   0.404   1.878 -0.0257  0.9644 -0.1541
    1SOL    HW3 3983   0.445   0.358   1.767 -0.6024  0.9386  0.3253
    1SOL    MW4 3984   0.462   0.367   1.852  0.0636  0.4936  0.2471
    1SOL     OW 3985   0.680   0.495   1.961 -0.0239 -0.2004  0.3954
    1SOL    HW2 3986   0.682   0.490   2.057  0.3488  0.6508  0.4358
    1SOL    HW3 3987   0.767   0.466   1.934  0.7564  1.9655  0.4478
    1SOL    MW4 3988   0.692   0.491   1.970  0.1282  0.1976  0.4076
    1SOL     OW 3989   0.656   0.751   1.848 -0.5141 -0.0101 -0.1562
    1SOL    HW2 3990   0.709   0.810   1.901  1.5467 -1.2415 -0.7945
    1SOL    HW3 3991   0.660   0.667   1.895 -3.3095  0.2777  0.6850
    1SOL    MW4 3992   0.663   0.748   1.861 -0.6110 -0.1346 -0.1295
    1SOL     OW 3993   0.433   0.883   1.955  0.4522  0.4618 -0.1740
    1SOL    HW2 3994   0.448   0.903   2.047 -0.3779 -1.0621  0.3083
    1SOL    HW3 3995   0.516   0.847   1.924  0.7681  1.0864 -0.0613
    1SOL    MW4 3996   0.446   0.881   1.963  0.3844  0.3431 -0.0955
    1SOL     OW 3997   0.454   1.156   1.863  0.1174 -0.1622 -0.5203
    1SOL    HW2 3998   0.384   1.198   1.913  1.5711  0.2874  1.2004
    1SOL    HW3 3999   0.453   1.065   1.891  0.3404 -0.1074 -0.3255
    1SOL    MW4 4000   0.445   1.150   1.874  0.3386 -0.0957 -0.2675
    1SOL     OW 4001   0.662   1.298   1.967  0.2021  0.2323 -0.0215
    1SOL    HW2 4002   0.666   1.270   2.058 -1.3711 -0.3096 -0.0950
    1SOL    HW3 4003   0.595   1.243   1.928  1.2546  0.0768 -1.6601
    1SOL    MW4 4004   0.654   1.287   1.973  0.1334  0.1402 -0.2474
    1SOL     OW 4005   0.685   1.565   1.864  0.1459 -0.2837  0.0842
    1SOL    HW2 4006   0.683   1.476   1.899 -3.6805 -0.5993 -0.7691
    1SOL    HW3 4007   0.664   1.556   1.771  1.4111  1.3815 -0.4085
    1SOL    MW4 4008   0.682   1.552   1.856 -0.1920 -0.1056 -0.0933
    1SOL     OW 4009   0.451   1.665   1.965 -0.8833 -0.3576 -0.3016
    1SOL    HW2 4010   0.465   1.671   2.059 -0.7547  1.5296 -0.4082
    1SOL    HW3 4011   0.536   1.637   1.929 -0.5549  0.1983  0.0361
    1SOL    MW4 4012   0.464   1.662   1.972 -0.8229 -0.0352 -0.2711
    1SOL     OW 4013   0.435   1.917   1.880  0.2019  0.4087 -0.0753
    1SOL    HW2 4014   0.445   1.831   1.921 -0.2216  0.0028 -0.8200
    1SOL    HW3 4015   0.347   1.945   1.906  0.8287  1.2009  1.2487
    1SOL    MW4 4016   0.425   1.909   1.889  0.2287  0.4598  0.0012
    1SOL     OW 4017   0.646   2.044   1.961  0.1342 -0.1257  0.0933
    1SOL    HW2 4018   0.640   2.028   2.055  2.2277 -2.0400 -0.0562
    1SOL    HW3 4019   0.563   2.010   1.926 -0.4782  0.2096  1.1750
    1SOL    MW4 4020   0.634   2.037   1.969  0.3296 -0.3340  0.2164
    1SOL     OW 4021   0.671   2.328   1.925 -0.3911  0.7205  0.7950
    1SOL    HW2 4022   0.667   2.234   1.946  1.1948  0.5966  0.6279
    1SOL    HW3 4023   0.662   2.330   1.829 -1.8244  0.8535  0.9233
    1SOL    MW4 4024   0.669   2.316   1.915 -0.3710  0.7217  0.7899
    1SOL     OW 4025   0.434   2.422   2.028 -0.2243  0.2569 -0.1486
    1SOL    HW2 4026   0.444   2.427   2.123 -1.0151  0.5702 -0.0810
    1SOL    HW3 4027   0.518   2.386   1.997  0.2364  0.6654  0.6119
    1SOL    MW4 4028   0.447   2.418   2.036 -0.2678  0.3521 -0.0396
    1SOL     OW 4029   0.466   2.678   1.920  0.4051 -0.3814  0.4303
    1SOL    HW2 4030   0.472   2.592   1.961  1.2059  0.4252  2.0451
    1SOL    HW3 4031   0.377   2.707   1.938  0.3400 -0.5919  0.4515
    1SOL    MW4 4032   0.455   2.670   1.928  0.5022 -0.3028  0.6460
    1SOL     OW 4033   0.704   2.847   1.993 -0.5725  0.0451  0.0215
    1SOL    HW2 4034   0.713   2.857   2.088 -0.8959 -0.2679  0.0889
    1SOL    HW3 4035   0.629   2.788   1.983  0.8946 -1.7899 -0.3782
    1SOL    MW4 4036   0.695   2.840   2.004 -0.4216 -0.2384 -0.0224
    1SOL     OW 4037   0.662   3.101   1.891  0.0208  0.0762 -0.2088
    1SOL    HW2 4038   0.668   3.009   1.915  1.1062  0.1795 -0.0320
    1SOL    HW3 4039   0.674   3.101   1.796  2.5541  0.2159  0.0589
    1SOL    MW4 4040   0.665   3.089   1.881  0.4982  0.1080 -0.1500
    1SOL     OW 4041   0.423   3.224   1.996 -0.2956  0.8334 -0.1756
    1SOL    HW2 4042   0.425   3.314   1.964  0.9572  1.1228  0.6843
    1SOL    HW3 4043   0.491   3.179   1.945 -0.6744  0.4502 -0.3499
    1SOL    MW4 4044   0.432   3.230   1.985 -0.1803  0.8209 -0.0852
    1SOL     OW 4045   0.442   3.465   1.867  0.1458  0.7759 -0.3120
    1SOL    HW2 4046   0.520   3.512   1.897  1.9044 -1.9409 -0.5119
    1SOL    HW3 4047   0.444   3.473   1.772 -0.0630  1.0515 -0.2952
    1SOL    MW4 4048   0.453   3.473   1.859  0.3503  0.4537 -0.3362
    1SOL     OW 4049   0.650   3.624   1.958  0.0499  0.0075  0.0314
    1SOL    HW2 4050   0.735   3.587   1.935  1.0564  2.0824  0.3087
    1SOL    HW3 4051   0.656   3.716   1.933 -1.3810  0.6495  1.9421
    1SOL    MW4 4052   0.662   3.631   1.952 -0.0061  0.3660  0.3200
    1SOL     OW 4053   0.692   3.889   1.893  0.2101 -0.3121 -0.2861
    1SOL    HW2 4054   0.766   3.946   1.912 -0.5385  0.3234  0.8015
    1SOL    HW3 4055   0.671   3.907   1.801 -0.5207  1.8141  0.2428
    1SOL    MW4 4056   0.699   3.899   1.883  0.0150  0.0522 -0.0728
    1SOL     OW 4057   0.453   4.007   1.980  0.2643 -0.3070 -0.2109
    1SOL    HW2 4058   0.450   4.102   1.979 -1.8523 -0.3475 -0.1984
    1SOL    HW3 4059   0.541   3.985   1.948  0.2157  1.6100 -1.7346
    1SOL    MW4 4060   0.464   4.017   1.976 -0.0214 -0.0596 -0.4102
    1SOL     OW 4061   0.468   4.277   1.914 -0.0961 -0.1311 -0.3395
    1SOL    HW2 4062   0.385   4.312   1.946  0.5787  1.3238 -0.1490
    1SOL    HW3 4063   0.462   4.284   1.819  0.2745  1.0791 -0.2800
    1SOL    MW4 4064   0.457   4.283   1.906  0.0418  0.2203 -0.3066
    1SOL     OW 4065   0.693   4.416   1.962 -0.3015  0.5108 -0.3697
    1SOL    HW2 4066   0.770   4.372   1.926 -0.3744  1.2246 -1.4291
    1SOL    HW3 4067   0.619   4.363   1.931 -0.3119  0.6230 -0.5401
    1SOL    MW4 4068   0.694   4.403   1.953 -0.3124  0.6194 -0.5319
    1SOL     OW 4069   1.103   4.661   1.931 -0.1328  0.2861  0.0465
    1SOL    HW2 4070   1.190   4.699   1.943 -0.5414  1.1827  0.2377
    1SOL    HW3 4071   1.112   4.570   1.958  0.6940  0.4303  0.2734
    1SOL    MW4 4072   1.116   4.654   1.936 -0.0776  0.4234  0.1017
    1SOL     OW 4073   0.882   0.136   1.988 -0.1009 -0.3047 -0.3896
    1SOL    HW2 4074   0.962   0.087   1.969  0.0174  0.4364 -1.8353
    1SOL    HW3 4075   0.811   0.080   1.956 -0.0852 -0.3897 -0.2763
    1SOL    MW4 4076   0.883   0.122   1.982 -0.0833 -0.2182 -0.5654
    1SOL     OW 4077   0.916   0.396   1.880 -0.3163 -0.2666 -0.2692
    1SOL    HW2 4078   0.996   0.425   1.922  0.4507 -0.8101 -1.3331
    1SOL    HW3 4079   0.904   0.306   1.910  0.2600 -0.6726 -1.2353
    1SOL    MW4 4080   0.925   0.388   1.890 -0.1391 -0.3919 -0.5370
    1SOL     OW 4081   1.143   0.501   2.009 -0.7870 -0.3446  0.4837
    1SOL    HW2 4082   1.228   0.488   1.967 -1.0404  0.5896 -0.3645
    1SOL    HW3 4083   1.113   0.586   1.975 -2.4731 -1.0941  0.0429
    1SOL    MW4 4084   1.150   0.511   1.999 -1.0427 -0.3202  0.3138
    1SOL     OW 4085   1.083   0.776   1.887  0.4304  0.1668 -0.4070
    1SOL    HW2 4086   1.151   0.836   1.918 -0.6921  0.9517  0.5847
    1SOL    HW3 4087   1.001   0.822   1.905 -0.2936  0.5220 -4.2855
    1SOL    MW4 4088   1.081   0.790   1.894  0.1869  0.3172 -0.7880
    1SOL     OW 4089   0.852   0.921   1.974  0.1303  0.2716 -0.1594
    1SOL    HW2 4090   0.877   0.910   2.065 -0.5487  0.6384  0.0777
    1SOL    HW3 4091   0.875   1.011   1.952 -1.9279  0.9533  0.3834
    1SOL    MW4 4092   0.858   0.931   1.983 -0.2308  0.4100 -0.0566
    1SOL     OW 4093   0.896   1.175   1.899 -0.2938  0.6140  0.4115
    1SOL    HW2 4094   0.823   1.223   1.937 -0.6618 -0.3801  0.9943
    1SOL    HW3 4095   0.876   1.169   1.806 -0.5972  0.9594  0.4548
    1SOL    MW4 4096   0.884   1.181   1.892 -0.3824  0.5286  0.4941
    1SOL     OW 4097   1.126   1.315   1.976  0.1845 -0.4950  0.5089
    1SOL    HW2 4098   1.125   1.404   1.942  0.0850 -0.5310  0.4157
    1SOL    HW3 4099   1.039   1.281   1.956 -0.1922 -0.2025  1.6487
    1SOL    MW4 4100   1.115   1.322   1.969  0.1216 -0.4612  0.6471
    1SOL     OW 4101   1.096   1.561   1.853 -0.4119 -0.1524 -0.1348
    1SOL    HW2 4102   1.025   1.617   1.882  0.2812  1.1514 -0.9313
    1SOL    HW3 4103   1.094   1.567   1.757 -0.1531 -1.2640 -0.2222
    1SOL    MW4 4104   1.086   1.569   1.844 -0.2865 -0.1271 -0.2514
    1SOL     OW 4105   0.881   1.694   1.988  0.6486  0.0070 -0.0331
    1SOL    HW2 4106   0.880   1.787   1.966  0.5041  0.2106  0.8035
    1SOL    HW3 4107   0.809   1.656   1.939  0.9323  0.2734 -0.6566
    1SOL    MW4 4108   0.871   1.701   1.979  0.6670  0.0690 -0.0049
    1SOL     OW 4109   0.897   1.950   1.891 -0.6623 -0.4307 -0.4983
    1SOL    HW2 4110   0.814   1.990   1.917 -0.0624  0.1445  0.5661
    1SOL    HW3 4111   0.888   1.934   1.797 -1.7756  0.1111 -0.4857
    1SOL    MW4 4112   0.885   1.953   1.882 -0.7300 -0.2832 -0.3563
    1SOL     OW 4113   1.130   2.060   1.978  0.1142  0.0367  0.4999
    1SOL    HW2 4114   1.127   2.141   1.928 -0.2109  0.7995  1.7214
    1SOL    HW3 4115   1.052   2.012   1.952  0.2599  0.1575 -0.1590
    1SOL    MW4 4116   1.120   2.065   1.968  0.0906  0.1533  0.5741
    1SOL     OW 4117   1.106   2.291   1.825  0.2229 -0.1708 -0.3319
    1SOL    HW2 4118   1.180   2.343   1.858 -0.0395  0.6866 -1.0588
    1SOL    HW3 4119   1.108   2.306   1.731 -0.7114 -0.3723 -0.3806
    1SOL    MW4 4120   1.116   2.300   1.817  0.0651 -0.0842 -0.4342
    1SOL     OW 4121   0.917   2.452   1.972 -0.0621 -0.6191  0.0528
    1SOL    HW2 4122   0.977   2.398   1.920  0.2024 -0.3892  0.1215
    1SOL    HW3 4123   0.831   2.413   1.956  0.0300 -0.6032 -0.4881
    1SOL    MW4 4124   0.914   2.440   1.963 -0.0150 -0.5867 -0.0095
    1SOL     OW 4125   0.910   2.708   1.859 -0.0845 -0.1611 -0.3922
    1SOL    HW2 4126   0.894   2.618   1.886 -0.5599  0.0528  0.0541
    1SOL    HW3 4127   0.843   2.759   1.905  1.7631  0.7597  1.3629
    1SOL    MW4 4128   0.899   2.703   1.868  0.0966 -0.0112 -0.1018
    1SOL     OW 4129   1.107   2.856   1.978 -0.4404  0.0972 -0.2500
    1SOL    HW2 4130   1.094   2.864   2.072 -0.4158 -0.9387 -0.1520
    1SOL    HW3 4131   1.030   2.807   1.947 -0.4054  0.3495 -0.7536
    1SOL    MW4 4132   1.095   2.850   1.986 -0.4325 -0.0060 -0.3034
    1SOL     OW 4133   1.074   3.097   1.847 -0.2146  0.0130 -0.2159
    1SOL    HW2 4134   1.012   3.149   1.898  1.2219  1.8136 -0.2510
    1SOL    HW3 4135   1.069   3.009   1.885 -2.1433  0.3375  0.3306
    1SOL    MW4 4136   1.065   3.092   1.858 -0.2795  0.2933 -0.1485
    1SOL     OW 4137   0.881   3.254   1.959 -0.1230  0.2525 -0.2419
    1SOL    HW2 4138   0.865   3.276   2.051 -0.8279  0.9176 -0.5276
    1SOL    HW3 4139   0.802   3.209   1.930  0.4414 -0.7466 -0.2882
    1SOL    MW4 4140   0.869   3.251   1.967 -0.1415  0.2084 -0.2857
    1SOL     OW 4141   0.898   3.518   1.865 -0.2718  0.0134  0.4106
    1SOL    HW2 4142   0.888   3.428   1.897 -0.6663 -0.0802  0.0250
    1SOL    HW3 4143   0.914   3.509   1.771  0.7296  0.2982  0.5482
    1SOL    MW4 4144   0.899   3.505   1.857 -0.1917  0.0386  0.3778
    1SOL     OW 4145   1.132   3.625   1.938  0.4678  0.2270  0.4924
    1SOL    HW2 4146   1.146   3.615   2.033 -0.0570 -0.9676  0.4633
    1SOL    HW3 4147   1.040   3.602   1.926  0.6447 -0.0294 -0.3687
    1SOL    MW4 4148   1.122   3.620   1.949  0.4219  0.0355  0.3750
    1SOL     OW 4149   1.119   3.891   1.878  0.3651 -0.2045  0.0057
    1SOL    HW2 4150   1.123   3.797   1.894 -0.5990 -0.2376  0.0293
    1SOL    HW3 4151   1.112   3.898   1.782  2.5597 -0.0929 -0.1801
    1SOL    MW4 4152   1.119   3.880   1.867  0.5274 -0.1941 -0.0157
    1SOL     OW 4153   0.902   4.048   1.982 -0.1644 -0.2973 -0.6318
    1SOL    HW2 4154   0.914   4.058   2.076  0.0244 -1.2986 -0.5462
    1SOL    HW3 4155   0.966   3.982   1.956 -0.1830  0.0089 -1.4687
    1SOL    MW4 4156   0.912   4.040   1.991 -0.1420 -0.3891 -0.7310
    1SOL     OW 4157   0.908   4.283   1.849  0.2884 -0.3017  0.7433
    1SOL    HW2 4158   0.991   4.323   1.874  0.4938 -0.6985  0.6954
    1SOL    HW3 4159   0.915   4.192   1.878 -0.3784 -0.1714  1.3028
    1SOL    MW4 4160   0.920   4.276   1.856  0.2275 -0.3366  0.8107
    1SOL     OW 4161   1.120   4.381   1.974  0.1362  0.6610 -0.4906
    1SOL    HW2 4162   1.119   4.375   2.070 -0.2772  0.2280 -0.5191
    1SOL    HW3 4163   1.203   4.340   1.949  0.6298  1.5073 -0.2766
    1SOL    MW4 4164   1.131   4.375   1.984  0.1467  0.7153 -0.4661
    1SOL     OW 4165   1.558   4.664   1.877  0.8161 -0.4715  0.2723
    1SOL    HW2 4166   1.642   4.699   1.906  1.0948 -0.6313 -0.3232
    1SOL    HW3 4167   1.556   4.575   1.911  1.4113 -0.8655 -0.6929
    1SOL    MW4 4168   1.569   4.657   1.885  0.9315 -0.5445  0.0664
    1SOL     OW 4169   1.349   0.120   1.990  0.2218 -0.2368 -0.2447
    1SOL    HW2 4170   1.359   0.095   2.082  0.7609 -0.6647 -0.4148
    1SOL    HW3 4171   1.417   0.071   1.945  0.5117  0.6152 -0.7552
    1SOL    MW4 4172   1.359   0.111   1.997  0.3310 -0.1808 -0.3346
    1SOL     OW 4173   1.386   0.406   1.912  0.4137 -0.0270  0.0369
    1SOL    HW2 4174   1.368   0.316   1.942 -1.1550  0.6411  1.1249
    1SOL    HW3 4175   1.353   0.408   1.822 -0.1963 -0.3258  0.2517
    1SOL    MW4 4176   1.379   0.394   1.904  0.1264  0.0217  0.2089
    1SOL     OW 4177   1.577   0.569   2.029 -0.2890  0.2231 -0.1224
    1SOL    HW2 4178   1.660   0.544   1.990  0.6816  1.4292  1.0875
    1SOL    HW3 4179   1.511   0.521   1.980  1.0353  0.1840 -1.9011
    1SOL    MW4 4180   1.579   0.560   2.018  0.0137  0.3771 -0.1974
    1SOL     OW 4181   1.538   0.789   1.878 -0.6429 -0.2749  0.2466
    1SOL    HW2 4182   1.614   0.842   1.903 -0.3560  0.0221 -1.2103
    1SOL    HW3 4183   1.540   0.715   1.938  1.6753 -1.0417 -0.7531
    1SOL    MW4 4184   1.548   0.787   1.889 -0.2992 -0.3368 -0.0776
    1SOL     OW 4185   1.293   0.949   1.975 -0.1015 -0.6597  0.1065
    1SOL    HW2 4186   1.295   0.939   2.070 -0.3554  0.6202  0.2572
    1SOL    HW3 4187   1.368   0.900   1.943  0.7237 -0.0356  1.0724
    1SOL    MW4 4188   1.303   0.941   1.983 -0.0260 -0.4085  0.2538
    1SOL     OW 4189   1.337   1.196   1.871 -0.0281  0.1909 -0.4039
    1SOL    HW2 4190   1.324   1.109   1.909  1.6441  0.3216  0.4911
    1SOL    HW3 4191   1.262   1.247   1.903 -1.2146 -0.9822 -1.2249
    1SOL    MW4 4192   1.325   1.191   1.880  0.0359  0.0534 -0.3941
    1SOL     OW 4193   1.550   1.293   2.007 -0.3061 -0.1706  0.4038
    1SOL    HW2 4194   1.554   1.381   1.969  0.2558 -0.5512 -0.4371
    1SOL    HW3 4195   1.478   1.251   1.960 -1.1737  0.1337  1.4479
    1SOL    MW4 4196   1.541   1.299   1.996 -0.3464 -0.1807  0.4305
    1SOL     OW 4197   1.578   1.545   1.866 -0.1916  0.0050  0.3777
    1SOL    HW2 4198   1.652   1.595   1.898 -0.1632 -0.0586  0.4116
    1SOL    HW3 4199   1.501   1.588   1.904 -0.2287  0.5738 -0.3192
    1SOL    MW4 4200   1.577   1.557   1.875 -0.1926  0.0718  0.2902
    1SOL     OW 4201   1.350   1.657   1.947  0.9984  0.6050  0.1141
    1SOL    HW2 4202   1.356   1.663   2.043  1.6940  0.1550  0.1080
    1SOL    HW3 4203   1.269   1.609   1.931  1.6473 -0.6622  0.5377
    1SOL    MW4 4204   1.340   1.651   1.958  1.1759  0.3784  0.1692
    1SOL     OW 4205   1.345   1.940   1.855  0.3681  0.3610 -0.4357
    1SOL    HW2 4206   1.329   1.846   1.865 -0.2929  0.5450  0.2862
    1SOL    HW3 4207   1.271   1.981   1.898  1.0446  1.2232 -0.0826
    1SOL    MW4 4208   1.333   1.933   1.862  0.3701  0.4990 -0.2939
    1SOL     OW 4209   1.571   2.075   1.930  0.0150 -0.3682 -0.0283
    1SOL    HW2 4210   1.567   2.166   1.900 -0.6580 -0.6337 -0.7502
    1SOL    HW3 4211   1.486   2.038   1.905 -0.2593 -0.8119  1.5147
    1SOL    MW4 4212   1.559   2.082   1.923 -0.1099 -0.4621  0.0799
    1SOL     OW 4213   1.566   2.343   1.856 -0.5342 -0.2179 -0.3524
    1SOL    HW2 4214   1.647   2.389   1.877 -0.7593  0.4609 -0.9550
    1SOL    HW3 4215   1.551   2.362   1.763 -1.2780 -0.4921 -0.2912
    1SOL    MW4 4216   1.575   2.352   1.846 -0.6621 -0.1645 -0.4238
    1SOL     OW 4217   1.311   2.450   1.935  0.3109  0.1392 -0.0227
    1SOL    HW2 4218   1.296   2.545   1.933 -1.0623 -0.0402  1.0343
    1SOL    HW3 4219   1.404   2.440   1.918  0.1202  1.5815 -2.0923
    1SOL    MW4 4220   1.321   2.462   1.932  0.1045  0.3057 -0.1564
    1SOL     OW 4221   1.322   2.713   1.853 -0.0966  0.1465 -0.0497
    1SOL    HW2 4222   1.242   2.756   1.883 -0.1638  0.1799 -0.2706
    1SOL    HW3 4223   1.314   2.713   1.757 -0.9990 -2.0771 -0.0091
    1SOL    MW4 4224   1.311   2.718   1.844 -0.2247 -0.1421 -0.0736
    1SOL     OW 4225   1.516   2.870   2.007 -0.4923 -0.6270  0.2327
    1SOL    HW2 4226   1.581   2.826   1.954 -0.2921  1.2961 -1.1600
    1SOL    HW3 4227   1.432   2.840   1.973 -0.4024  1.7525 -2.2803
    1SOL    MW4 4228   1.513   2.860   1.996 -0.4539 -0.0594 -0.2826
    1SOL     OW 4229   1.560   3.127   1.896 -0.3679 -0.3020  0.1253
    1SOL    HW2 4230   1.543   3.037   1.925 -0.6686 -0.5027 -0.6620
    1SOL    HW3 4231   1.560   3.122   1.801  1.2609  0.2380  0.0898
    1SOL    MW4 4232   1.558   3.115   1.887 -0.1926 -0.2573  0.0168
    1SOL     OW 4233   1.312   3.204   1.968 -0.1389 -0.9232  0.2497
    1SOL    HW2 4234   1.393   3.161   1.941 -0.0466 -0.9980  0.6467
    1SOL    HW3 4235   1.243   3.152   1.927  0.0317 -0.4899 -0.6120
    1SOL    MW4 4236   1.314   3.192   1.959 -0.1042 -0.8759  0.1882
    1SOL     OW 4237   1.344   3.472   1.854  0.7314 -0.2633  0.0926
    1SOL    HW2 4238   1.331   3.385   1.891 -0.1799 -0.9962 -1.8916
    1SOL    HW3 4239   1.271   3.524   1.886  0.9412 -0.3797  0.7741
    1SOL    MW4 4240   1.333   3.467   1.863  0.6390 -0.3757 -0.0792
    1SOL     OW 4241   1.574   3.598   1.939 -0.0721 -0.0185  0.2973
    1SOL    HW2 4242   1.553   3.618   2.030 -0.5726  0.4847  0.0751
    1SOL    HW3 4243   1.496   3.554   1.906  0.8181 -1.9384  0.6362
    1SOL    MW4 4244   1.561   3.594   1.947 -0.0207 -0.2053  0.3126
    1SOL     OW 4245   1.562   3.855   1.850  0.0535  0.2094  0.6324
    1SOL    HW2 4246   1.642   3.902   1.872  0.8306 -1.3001  1.1170
    1SOL    HW3 4247   1.577   3.766   1.882 -1.4877 -0.3006 -0.0150
    1SOL    MW4 4248   1.574   3.849   1.857 -0.0472 -0.0567  0.6108
    1SOL     OW 4249   1.371   4.024   1.960 -0.0030  0.2462 -0.1231
    1SOL    HW2 4250   1.443   3.966   1.935  0.5615  0.1902  1.5464
    1SOL    HW3 4251   1.292   3.972   1.944  0.5051 -1.1259  1.5726
    1SOL    MW4 4252   1.370   4.009   1.955  0.1385  0.0582  0.3209
    1SOL     OW 4253   1.367   4.287   1.876  0.2231  0.3431  0.2115
    1SOL    HW2 4254   1.370   4.196   1.906  0.7060  0.2407 -0.1585
    1SOL    HW3 4255   1.369   4.282   1.781  0.2749  0.7436  0.1888
    1SOL    MW4 4256   1.367   4.274   1.867  0.2935  0.3824  0.1597
    1SOL     OW 4257   1.581   4.400   1.970 -0.1262 -0.1567 -0.2310
    1SOL    HW2 4258   1.571   4.400   2.065 -1.6077  1.5003 -0.3623
    1SOL    HW3 4259   1.505   4.351   1.938  0.7365 -1.3036 -0.5389
    1SOL    MW4 4260   1.570   4.394   1.979 -0.2078 -0.0896 -0.2890
    1SOL     OW 4261   2.049   4.664   1.851  0.1806 -0.4668 -0.3834
    1SOL    HW2 4262   2.090   4.722   1.916 -0.7874 -0.6476  0.4099
    1SOL    HW3 4263   2.068   4.576   1.884  1.1106 -0.5967 -1.2483
    1SOL    MW4 4264   2.057   4.660   1.864  0.1760 -0.5078 -0.3927
    1SOL     OW 4265   1.814   0.106   1.970  0.0375  0.5416  0.0423
    1SOL    HW2 4266   1.810   0.095   2.065  0.2610  0.3511  0.0306
    1SOL    HW3 4267   1.897   0.065   1.945  0.0973  0.8124 -0.2030
    1SOL    MW4 4268   1.825   0.099   1.979  0.0749  0.5522  0.0085
    1SOL     OW 4269   1.781   0.410   1.891  0.3860  0.3515  0.1264
    1SOL    HW2 4270   1.758   0.318   1.907 -0.6738  0.6600  0.3902
    1SOL    HW3 4271   1.762   0.423   1.798 -2.5180  1.1513  0.7621
    1SOL    MW4 4272   1.775   0.399   1.881 -0.1369  0.4977  0.2450
    1SOL     OW 4273   2.026   0.497   1.953  0.5127  0.4265 -0.5941
    1SOL    HW2 4274   2.010   0.580   1.908  0.1745  0.1470 -0.9954
    1SOL    HW3 4275   1.947   0.446   1.937 -0.3861  0.9991  1.8794
    1SOL    MW4 4276   2.013   0.501   1.945  0.3493  0.4652 -0.3208
    1SOL     OW 4277   2.015   0.764   1.868  0.2734  0.0717  0.3394
    1SOL    HW2 4278   2.082   0.789   1.931  0.3138  0.0505  0.3054
    1SOL    HW3 4279   1.934   0.801   1.902  0.2271 -0.2819  0.6152
    1SOL    MW4 4280   2.014   0.772   1.881  0.2725  0.0222  0.3713
    1SOL     OW 4281   1.783   0.893   1.963  0.1445 -0.2209 -0.2372
    1SOL    HW2 4282   1.782   0.980   1.924 -1.1331  0.3822  1.1047
    1SOL    HW3 4283   1.790   0.908   2.057 -1.1144 -1.5217  0.0919
    1SOL    MW4 4284   1.784   0.906   1.971 -0.1900 -0.3130 -0.0167
    1SOL     OW 4285   1.784   1.152   1.851 -0.6935 -0.0411  0.3382
    1SOL    HW2 4286   1.713   1.208   1.880 -0.7858  0.8973 -1.5752
    1SOL    HW3 4287   1.856   1.169   1.912 -1.1102  1.2897  0.4612
    1SOL    MW4 4288   1.784   1.161   1.863 -0.7607  0.2582  0.1020
    1SOL     OW 4289   2.002   1.235   2.012 -0.2314  0.5145 -0.0664
    1SOL    HW2 4290   2.072   1.184   1.973 -0.2091 -0.1883  0.9011
    1SOL    HW3 4291   2.026   1.245   2.104 -1.1336  0.7105  0.1595
    1SOL    MW4 4292   2.014   1.230   2.019 -0.3471  0.4476  0.0911
    1SOL     OW 4293   2.018   1.524   1.920 -0.0065 -0.3472  0.1873
    1SOL    HW2 4294   2.021   1.433   1.952  1.6116 -0.7308 -0.9377
    1SOL    HW3 4295   2.044   1.517   1.828  1.3191  1.3863  0.4117
    1SOL    MW4 4296   2.022   1.511   1.912  0.3819 -0.1690  0.0685
    1SOL     OW 4297   1.786   1.668   1.979  0.5099  0.4402 -0.0922
    1SOL    HW2 4298   1.785   1.752   1.933 -0.6287  1.4287  1.6585
    1SOL    HW3 4299   1.868   1.626   1.952 -0.0208  1.0634 -2.8070
    1SOL    MW4 4300   1.797   1.673   1.969  0.2896  0.6528 -0.2195
    1SOL     OW 4301   1.767   1.899   1.846 -0.0297 -0.3927  0.0405
    1SOL    HW2 4302   1.703   1.961   1.881  0.5137  0.0933  0.1900
    1SOL    HW3 4303   1.776   1.923   1.754  0.8495  0.3463  0.3068
    1SOL    MW4 4304   1.760   1.910   1.839  0.1578 -0.2311  0.0954
    1SOL     OW 4305   1.996   2.037   1.947  0.0851 -0.4746  0.1242
    1SOL    HW2 4306   2.077   2.001   1.911  0.0813  0.9332 -1.3621
    1SOL    HW3 4307   1.927   1.987   1.904  0.1249 -0.0295 -0.4707
    1SOL    MW4 4308   1.998   2.025   1.936  0.0898 -0.2303 -0.1503
    1SOL     OW 4309   1.983   2.310   1.868  0.2046  1.2353  0.0177
    1SOL    HW2 4310   2.069   2.334   1.903  0.1630  0.5310  0.6177
    1SOL    HW3 4311   1.972   2.218   1.891 -0.9504  1.4646  0.4462
    1SOL    MW4 4312   1.993   2.301   1.876  0.0467  1.1725  0.1534
    1SOL     OW 4313   1.802   2.492   1.949  0.0952  0.0505  0.0642
    1SOL    HW2 4314   1.800   2.463   2.041  1.1850  0.5379  0.2506
    1SOL    HW3 4315   1.865   2.433   1.907 -0.7563 -0.4754 -0.4850
    1SOL    MW4 4316   1.810   2.480   1.956  0.1266  0.0453  0.0163
    1SOL     OW 4317   1.738   2.748   1.880 -0.1027 -0.3618 -0.5408
    1SOL    HW2 4318   1.758   2.658   1.905  0.5135  0.0816  0.6154
    1SOL    HW3 4319   1.741   2.748   1.785 -0.5782 -1.6665 -0.5668
    1SOL    MW4 4320   1.741   2.736   1.871 -0.0843 -0.4754 -0.3916
    1SOL     OW 4321   1.985   2.851   1.969 -0.0688  0.1232  0.2933
    1SOL    HW2 4322   1.980   2.816   2.058  0.2618 -1.0979 -0.1653
    1SOL    HW3 4323   1.908   2.815   1.925  0.7018 -0.6719 -0.4050
    1SOL    MW4 4324   1.974   2.842   1.975  0.0765 -0.1428  0.1408
    1SOL     OW 4325   1.996   3.105   1.872 -0.2378  0.3906 -0.1867
    1SOL    HW2 4326   1.934   3.149   1.929  0.0978 -0.6986  1.0312
    1SOL    HW3 4327   1.993   3.013   1.898 -0.0290 -0.1138 -1.8743
    1SOL    MW4 4328   1.988   3.099   1.883 -0.1658  0.1805 -0.2487
    1SOL     OW 4329   1.800   3.222   1.993 -0.0841  0.1136  0.2577
    1SOL    HW2 4330   1.786   3.235   2.087 -0.8454  2.2014 -0.1165
    1SOL    HW3 4331   1.718   3.186   1.961 -1.1275  2.7923 -0.1945
    1SOL    MW4 4332   1.787   3.219   2.001 -0.3222  0.7422  0.1485
    1SOL     OW 4333   1.805   3.454   1.819 -0.0841 -0.0296  0.5034
    1SOL    HW2 4334   1.814   3.368   1.861  1.0838  0.1971  0.7393
    1SOL    HW3 4335   1.735   3.497   1.867  0.1182 -0.4199  1.1521
    1SOL    MW4 4336   1.797   3.449   1.831  0.0967 -0.0510  0.6202
    1SOL     OW 4337   1.983   3.578   1.994 -0.2221  0.3563 -0.3102
    1SOL    HW2 4338   1.994   3.668   1.963 -1.7827  0.9019  0.6184
    1SOL    HW3 4339   1.929   3.536   1.927 -1.0899  0.6762  0.1755
    1SOL    MW4 4340   1.977   3.584   1.981 -0.5423  0.4704 -0.1237
    1SOL     OW 4341   2.015   3.833   1.880  0.1171  0.2227  0.4981
    1SOL    HW2 4342   2.087   3.880   1.922 -0.4988  0.6912  1.0464
    1SOL    HW3 4343   2.040   3.828   1.788  1.0948 -0.0886  0.7742
    1SOL    MW4 4344   2.028   3.838   1.874  0.1647  0.2437  0.6070
    1SOL     OW 4345   1.795   3.986   1.962 -0.2619 -0.1623  0.1453
    1SOL    HW2 4346   1.818   4.077   1.941 -1.0129 -0.0681 -0.3071
    1SOL    HW3 4347   1.869   3.935   1.929  0.4726  0.3302  0.9891
    1SOL    MW4 4348   1.808   3.991   1.954 -0.2642 -0.0851  0.1969
    1SOL     OW 4349   1.811   4.262   1.877  0.6210  0.2111  0.6376
    1SOL    HW2 4350   1.730   4.289   1.920  0.4917  0.1245  0.4514
    1SOL    HW3 4351   1.785   4.244   1.786  0.7461 -0.3288  0.7063
    1SOL    MW4 4352   1.797   4.263   1.870  0.6206  0.1283  0.6220
    1SOL     OW 4353   2.043   4.402   1.944  0.0216 -0.0281 -0.0597
    1SOL    HW2 4354   2.113   4.345   1.913  0.0259 -0.4703  0.7472
    1SOL    HW3 4355   1.962   4.360   1.914 -0.0260 -1.0317  1.4421
    1SOL    MW4 4356   2.041   4.389   1.936  0.0160 -0.2189  0.2449
    1SOL     OW 4357   2.439   4.656   1.899  0.0249  0.3456  0.4534
    1SOL    HW2 4358   2.523   4.694   1.927  0.6156 -0.2339 -0.5386
    1SOL    HW3 4359   2.447   4.563   1.920 -0.0410  0.1394 -0.4532
    1SOL    MW4 4360   2.451   4.649   1.906  0.0939  0.2418  0.2029
    1SOL     OW 4361   2.236   0.144   1.992 -0.2857 -0.1198 -0.5098
    1SOL    HW2 4362   2.237   0.140   2.088 -0.1493  0.1857 -0.4969
    1SOL    HW3 4363   2.302   0.080   1.965  1.4327  1.5270 -0.3312
    1SOL    MW4 4364   2.245   0.135   2.001 -0.0410  0.1377 -0.4842
    1SOL     OW 4365   2.256   0.388   1.860  0.1674  0.1914  0.1586
    1SOL    HW2 4366   2.255   0.299   1.894 -0.3696 -0.0405 -0.4482
    1SOL    HW3 4367   2.179   0.430   1.899  0.1385  0.2360  0.0557
    1SOL    MW4 4368   2.245   0.382   1.869  0.0927  0.1667  0.0651
    1SOL     OW 4369   2.479   0.490   2.003  0.0405  0.0496 -0.1116
    1SOL    HW2 4370   2.552   0.445   1.961  0.5818  0.9205 -0.1187
    1SOL    HW3 4371   2.402   0.462   1.953  0.4064 -0.6392 -0.2911
    1SOL    MW4 4372   2.478   0.481   1.991  0.1605  0.0736 -0.1364
    1SOL     OW 4373   2.448   0.748   1.909  0.1906  0.2046 -0.0497
    1SOL    HW2 4374   2.453   0.654   1.926 -0.2116  0.2387  0.2568
    1SOL    HW3 4375   2.446   0.754   1.813 -1.3456 -0.1813 -0.0503
    1SOL    MW4 4376   2.449   0.736   1.898 -0.0653  0.1581 -0.0093
    1SOL     OW 4377   2.208   0.855   2.027 -0.4739 -0.6545  0.1069
    1SOL    HW2 4378   2.226   0.865   2.120  0.5818  2.8217 -0.4119
    1SOL    HW3 4379   2.289   0.822   1.990 -0.2190 -0.0386  0.1138
    1SOL    MW4 4380   2.221   0.852   2.034 -0.3009 -0.1145  0.0396
    1SOL     OW 4381   2.219   1.101   1.900 -0.3557 -0.1952 -0.0728
    1SOL    HW2 4382   2.281   1.158   1.944 -0.9050  0.5415 -0.2412
    1SOL    HW3 4383   2.222   1.019   1.949 -0.6663  0.4808  1.0822
    1SOL    MW4 4384   2.228   1.097   1.912 -0.4692 -0.0088  0.0575
    1SOL     OW 4385   2.429   1.240   2.016  0.3038 -0.0872 -0.2441
    1SOL    HW2 4386   2.426   1.249   2.111  0.0433  0.1452 -0.2745
    1SOL    HW3 4387   2.440   1.329   1.984 -0.3396 -0.0784 -0.4610
    1SOL    MW4 4388   2.430   1.253   2.025  0.1845 -0.0554 -0.2768
    1SOL     OW 4389   2.467   1.524   1.917  0.0883  0.1255  0.0193
    1SOL    HW2 4390   2.398   1.589   1.928  0.8935  0.9109  0.4929
    1SOL    HW3 4391   2.482   1.520   1.822 -1.2029 -0.6781 -0.1520
    1SOL    MW4 4392   2.460   1.532   1.906  0.0238  0.1231  0.0594
    1SOL     OW 4393   2.254   1.670   1.997  0.1852 -0.1600  0.0431
    1SOL    HW2 4394   2.251   1.678   2.093  0.0743 -0.3123  0.0519
    1SOL    HW3 4395   2.176   1.619   1.975  0.2457 -0.1796 -0.1244
    1SOL    MW4 4396   2.243   1.665   2.007  0.1783 -0.1826  0.0219
    1SOL     OW 4397   2.244   1.926   1.874  0.3208 -0.2782  0.0261
    1SOL    HW2 4398   2.312   1.987   1.905  0.0021  0.6031 -0.9846
    1SOL    HW3 4399   2.258   1.847   1.926  0.9930  0.5179  1.0877
    1SOL    MW4 4400   2.255   1.924   1.885  0.3674 -0.0569  0.0328
    1SOL     OW 4401   2.443   2.084   1.990  0.4420  0.1859 -0.5219
    1SOL    HW2 4402   2.519   2.041   1.951 -0.5784 -0.7562 -1.4925
    1SOL    HW3 4403   2.431   2.163   1.938  1.7111  1.1863  0.6425
    1SOL    MW4 4404   2.452   2.089   1.978  0.4749  0.1936 -0.4961
    1SOL     OW 4405   2.396   2.310   1.850  0.1023 -0.1232 -0.1638
    1SOL    HW2 4406   2.477   2.345   1.887  0.8551 -0.9977 -0.9645
    1SOL    HW3 4407   2.327   2.357   1.896  1.0737  1.4436 -0.2682
    1SOL    MW4 4408   2.398   2.321   1.861  0.3300 -0.0317 -0.2832
    1SOL     OW 4409   2.189   2.437   1.992  0.2946 -0.3518  0.5383
    1SOL    HW2 4410   2.193   2.438   2.088  1.9021 -0.5314  0.4831
    1SOL    HW3 4411   2.192   2.530   1.968 -0.7485 -0.2765  0.6753
    1SOL    MW4 4412   2.190   2.450   2.002  0.3693 -0.3655  0.5493
    1SOL     OW 4413   2.225   2.706   1.909  0.1543 -0.1547 -0.0634
    1SOL    HW2 4414   2.145   2.751   1.935  0.2969  0.2762 -0.3617
    1SOL    HW3 4415   2.224   2.707   1.813 -0.3418 -1.6864 -0.0959
    1SOL    MW4 4416   2.214   2.712   1.899  0.1075 -0.2999 -0.1070
    1SOL     OW 4417   2.450   2.826   2.032 -0.1333  0.0155  0.4183
    1SOL    HW2 4418   2.461   2.917   2.004 -0.2045  0.1361  0.7758
    1SOL    HW3 4419   2.368   2.798   1.991  0.1501 -0.0514 -0.1065
    1SOL    MW4 4420   2.440   2.835   2.023 -0.1054  0.0224  0.3965
    1SOL     OW 4421   2.499   3.071   1.887  0.4011  0.2910 -0.3966
    1SOL    HW2 4422   2.421   3.117   1.919  1.3644  1.3522  0.4560
    1SOL    HW3 4423   2.481   3.056   1.794 -0.9473  0.2693 -0.1433
    1SOL    MW4 4424   2.486   3.075   1.879  0.3500  0.4280 -0.2507
    1SOL     OW 4425   2.251   3.216   1.995  0.2956 -0.2328 -0.4390
    1SOL    HW2 4426   2.252   3.196   2.089  0.6684 -2.8011 -0.9273
    1SOL    HW3 4427   2.172   3.173   1.962 -0.4571  1.6332 -1.1428
    1SOL    MW4 4428   2.241   3.207   2.003  0.2451 -0.3254 -0.5960
    1SOL     OW 4429   2.219   3.469   1.891 -0.4502 -0.2686 -0.0868
    1SOL    HW2 4430   2.215   3.382   1.931  1.9353  0.6351  2.2787
    1SOL    HW3 4431   2.143   3.515   1.925 -0.7685 -0.8716  0.0288
    1SOL    MW4 4432   2.208   3.463   1.901 -0.1774 -0.2289  0.2406
    1SOL     OW 4433   2.459   3.572   1.988 -0.0288  0.1633 -0.4637
    1SOL    HW2 4434   2.466   3.560   2.082  1.2617 -1.3517 -0.7389
    1SOL    HW3 4435   2.373   3.536   1.965  0.4106 -1.1072 -0.1155
    1SOL    MW4 4436   2.449   3.566   1.997  0.1993 -0.2043 -0.4542
    1SOL     OW 4437   2.492   3.829   1.880 -0.0535 -0.0392 -0.0069
    1SOL    HW2 4438   2.412   3.877   1.900 -0.0787  0.4112 -1.1409
    1SOL    HW3 4439   2.482   3.745   1.924 -1.6513 -0.4146 -1.0493
    1SOL    MW4 4440   2.480   3.825   1.888 -0.2677 -0.0293 -0.2940
    1SOL     OW 4441   2.268   3.963   1.964  0.2265  0.2524  0.2152
    1SOL    HW2 4442   2.288   3.973   2.057 -0.1054  0.9479  0.2163
    1SOL    HW3 4443   2.247   4.051   1.934  0.6258  0.0756 -0.5930
    1SOL    MW4 4444   2.268   3.976   1.972  0.2356  0.3207  0.1086
    1SOL     OW 4445   2.240   4.230   1.903  0.6103  0.1318 -0.3538
    1SOL    HW2 4446   2.315   4.281   1.933 -0.6379  2.0621 -0.4559
    1SOL    HW3 4447   2.246   4.232   1.807 -0.3015  1.4293 -0.3948
    1SOL    MW4 4448   2.251   4.237   1.894  0.3257  0.5579 -0.3728
    1SOL     OW 4449   2.452   4.382   1.966  0.0331 -0.1822  0.3508
    1SOL    HW2 4450   2.453   4.375   2.061 -0.4419 -0.8509  0.3152
    1SOL    HW3 4451   2.532   4.339   1.937 -0.7470 -1.6961  0.3638
    1SOL    MW4 4452   2.463   4.375   1.974 -0.1326 -0.4697  0.3477
    1SOL     OW 4453   2.906   4.608   1.853 -0.1749  0.3073  0.5710
    1SOL    HW2 4454   2.973   4.666   1.890  1.0239  0.3853 -1.6545
    1SOL    HW3 4455   2.924   4.523   1.892  0.8469  0.4537  0.4187
    1SOL    MW4 4456   2.917   4.605   1.863  0.1180  0.3366  0.2573
    1SOL     OW 4457   2.694   0.096   1.955 -0.0961  0.1781 -0.2235
    1SOL    HW2 4458   2.709   0.080   2.048 -1.3731 -0.2567 -0.0814
    1SOL    HW3 4459   2.750   0.033   1.910 -0.4501 -0.4926  0.2724
    1SOL    MW4 4460   2.703   0.086   1.961 -0.3111  0.0323 -0.1392
    1SOL     OW 4461   2.699   0.372   1.871  0.6027 -0.1088 -0.3412
    1SOL    HW2 4462   2.766   0.416   1.923 -0.5273  0.1587  0.8979
    1SOL    HW3 4463   2.702   0.281   1.900 -0.1297  0.0703  0.3227
    1SOL    MW4 4464   2.708   0.366   1.882  0.3572 -0.0499 -0.0901
    1SOL     OW 4465   2.890   0.509   1.999 -0.2552 -0.4841  0.3636
    1SOL    HW2 4466   2.961   0.450   1.972 -0.9193 -1.2807  0.3508
    1SOL    HW3 4467   2.910   0.592   1.955  1.3964 -0.2865  1.4041
    1SOL    MW4 4468   2.902   0.512   1.990 -0.1249 -0.5631  0.4991
    1SOL     OW 4469   2.885   0.740   1.876 -0.3145 -0.0679  0.0170
    1SOL    HW2 4470   2.957   0.794   1.908  0.9612 -1.2059 -0.9178
    1SOL    HW3 4471   2.806   0.782   1.912  0.9267 -0.0726  2.8872
    1SOL    MW4 4472   2.884   0.752   1.885  0.0176 -0.2187  0.2723
    1SOL     OW 4473   2.669   0.875   1.992 -0.2416 -0.4473  0.1512
    1SOL    HW2 4474   2.658   0.966   1.967 -0.0504 -0.2718  0.6961
    1SOL    HW3 4475   2.585   0.834   1.970 -0.3039 -0.1562 -0.1566
    1SOL    MW4 4476   2.656   0.881   1.986 -0.2244 -0.3858  0.1825
    1SOL     OW 4477   2.666   1.138   1.905  0.1057 -0.5521 -0.3275
    1SOL    HW2 4478   2.582   1.178   1.931  0.2588 -0.8344  0.6137
    1SOL    HW3 4479   2.661   1.134   1.809 -1.0373 -0.7369 -0.2747
    1SOL    MW4 4480   2.654   1.143   1.896 -0.0250 -0.6137 -0.1963
    1SOL     OW 4481   2.908   1.279   1.999  0.1844  0.0911 -0.9347
    1SOL    HW2 4482   2.897   1.363   1.953  0.4284  0.8734  0.4250
    1SOL    HW3 4483   2.824   1.234   1.987 -1.0851  1.8670  0.9965
    1SOL    MW4 4484   2.896   1.284   1.991  0.0489  0.4287 -0.5006
    1SOL     OW 4485   2.932   1.549   1.898  0.2628  0.3228 -0.0615
    1SOL    HW2 4486   3.002   1.607   1.928 -0.7326  1.2710  0.4603
    1SOL    HW3 4487   2.941   1.547   1.803  2.2977 -1.2331  0.1286
    1SOL    MW4 4488   2.942   1.556   1.890  0.4001  0.2426  0.0323
    1SOL     OW 4489   2.687   1.690   1.982 -0.0094  0.0711  0.1131
    1SOL    HW2 4490   2.768   1.647   1.954 -0.0305 -0.6828  1.1773
    1SOL    HW3 4491   2.619   1.623   1.970 -0.5540  0.8697 -1.2548
    1SOL    MW4 4492   2.688   1.675   1.977 -0.0842  0.0768  0.0731
    1SOL     OW 4493   2.689   1.938   1.873  0.1548 -0.6981  0.1299
    1SOL    HW2 4494   2.760   1.980   1.921  0.1067 -2.2792  1.6395
    1SOL    HW3 4495   2.684   1.850   1.910 -2.0501 -0.8769 -0.5108
    1SOL    MW4 4496   2.697   1.932   1.884 -0.1423 -0.9302  0.2445
    1SOL     OW 4497   2.893   2.059   2.007 -0.2991 -0.2965 -0.1169
    1SOL    HW2 4498   2.888   2.050   2.103 -0.0268  2.2724  0.1587
    1SOL    HW3 4499   2.980   2.026   1.985 -0.4145 -1.0345  0.5038
    1SOL    MW4 4500   2.904   2.053   2.017 -0.2782 -0.0546  0.0014
    1SOL     OW 4501   2.848   2.290   1.868 -0.2083  0.2415 -0.2363
    1SOL    HW2 4502   2.918   2.344   1.904 -0.8023  0.6431  0.3221
    1SOL    HW3 4503   2.851   2.209   1.918 -0.3670  0.3961  0.0239
    1SOL    MW4 4504   2.857   2.287   1.879 -0.3076  0.3150 -0.1283
    1SOL     OW 4505   2.618   2.403   1.968 -0.2119  0.0729  0.0868
    1SOL    HW2 4506   2.629   2.498   1.956 -1.7273  0.1650 -0.6839
    1SOL    HW3 4507   2.698   2.365   1.930 -0.5614  0.9246 -1.5533
    1SOL    MW4 4508   2.630   2.411   1.961 -0.4578  0.1974 -0.2314
    1SOL     OW 4509   2.668   2.667   1.929 -0.2748 -0.1527 -0.0961
    1SOL    HW2 4510   2.593   2.714   1.966 -0.2558  0.2421 -0.5485
    1SOL    HW3 4511   2.660   2.681   1.835  1.4672  1.5534 -0.0140
    1SOL    MW4 4512   2.657   2.675   1.921 -0.0424  0.1245 -0.1451
    1SOL     OW 4513   2.909   2.815   1.992  0.3511  0.0379  0.2399
    1SOL    HW2 4514   2.899   2.882   1.924  0.4823 -1.0827 -0.9122
    1SOL    HW3 4515   2.837   2.753   1.975  1.1395 -0.9165  0.3277
    1SOL    MW4 4516   2.898   2.815   1.981  0.4723 -0.2360  0.0994
    1SOL     OW 4517   2.917   3.089   1.861 -0.8371 -0.0164  0.6665
    1SOL    HW2 4518   2.999   3.108   1.907  0.7377 -1.3620 -1.4807
    1SOL    HW3 4519   2.853   3.147   1.902  1.0794  0.7492  2.7013
    1SOL    MW4 4520   2.919   3.099   1.872 -0.3765 -0.0932  0.6517
    1SOL     OW 4521   2.715   3.234   1.980 -0.0627 -0.7170  0.0215
    1SOL    HW2 4522   2.696   3.325   1.961  2.3706 -0.2985 -0.5687
    1SOL    HW3 4523   2.641   3.186   1.944 -0.1913  0.8475 -1.8789
    1SOL    MW4 4524   2.703   3.239   1.973  0.2413 -0.4554 -0.3072
    1SOL     OW 4525   2.674   3.479   1.869  0.2294 -0.8052 -0.0878
    1SOL    HW2 4526   2.754   3.520   1.903  0.6999 -1.7742 -0.0087
    1SOL    HW3 4527   2.604   3.517   1.921  0.6027  0.3003 -0.3741
    1SOL    MW4 4528   2.676   3.489   1.881  0.3407 -0.7873 -0.1152
    1SOL     OW 4529   2.913   3.587   1.995  0.5950 -0.2196  0.2343
    1SOL    HW2 4530   2.909   3.569   2.089  2.2847  1.3764  0.6401
    1SOL    HW3 4531   2.994   3.544   1.966 -1.2394 -2.9541 -1.0521
    1SOL    MW4 4532   2.923   3.579   2.003  0.5760 -0.3698  0.1183
    1SOL     OW 4533   2.927   3.845   1.883 -0.4372  0.1912  0.4037
    1SOL    HW2 4534   2.933   3.755   1.917  0.4676  0.3229  0.5981
    1SOL    HW3 4535   2.911   3.834   1.789 -0.6114 -0.1728  0.4727
    1SOL    MW4 4536   2.926   3.831   1.875 -0.3409  0.1605  0.4383
    1SOL     OW 4537   2.699   3.995   1.994 -0.3242  0.6194 -0.1930
    1SOL    HW2 4538   2.780   3.950   1.969  0.1216  0.9242  0.7020
    1SOL    HW3 4539   2.629   3.940   1.957  0.3097  1.0447 -2.0981
    1SOL    MW4 4540   2.700   3.982   1.986 -0.1819  0.7160 -0.3263
    1SOL     OW 4541   2.692   4.257   1.910 -0.1860 -0.1162  0.0524
    1SOL    HW2 4542   2.698   4.168   1.944 -1.4161 -0.0287  0.5276
    1SOL    HW3 4543   2.682   4.246   1.816  0.1849 -0.4586  0.0491
    1SOL    MW4 4544   2.691   4.244   1.902 -0.2992 -0.1502  0.1148
    1SOL     OW 4545   2.934   4.366   1.980 -0.0186 -0.3767 -0.4430
    1SOL    HW2 4546   2.954   4.374   2.073 -0.9547 -1.4940 -0.1175
    1SOL    HW3 4547   2.843   4.336   1.978  0.0980 -0.6909 -1.7079
    1SOL    MW4 4548   2.924   4.363   1.992 -0.1266 -0.5655 -0.5670
    1SOL     OW 4549   3.328   4.644   1.889 -0.4174 -0.1620 -0.1128
    1SOL    HW2 4550   3.328   4.560   1.935 -1.2208 -0.0607  0.0655
    1SOL    HW3 4551   3.354   4.621   1.799 -0.5441 -0.5846 -0.0435
    1SOL    MW4 4552   3.331   4.630   1.883 -0.5403 -0.2046 -0.0800
    1SOL     OW 4553   3.094   0.100   1.967  0.3414  0.2562  0.6910
    1SOL    HW2 4554   3.099   0.096   2.062  1.2441 -2.4326  0.5730
    1SOL    HW3 4555   3.172   0.053   1.937  0.9753  2.5200 -1.3991
    1SOL    MW4 4556   3.105   0.093   1.976  0.5441  0.2001  0.3998
    1SOL     OW 4557   3.121   0.375   1.916  0.6071  0.0082 -0.2624
    1SOL    HW2 4558   3.111   0.281   1.926  1.6373 -0.0944 -0.1580
    1SOL    HW3 4559   3.121   0.390   1.821 -0.2586 -0.0070 -0.2738
    1SOL    MW4 4560   3.120   0.365   1.905  0.6287 -0.0074 -0.2502
    1SOL     OW 4561   3.341   0.514   2.008 -0.2598 -0.0704  0.1567
    1SOL    HW2 4562   3.414   0.467   1.969  0.3274  0.8232  0.1617
    1SOL    HW3 4563   3.263   0.466   1.980  0.2297 -0.1381 -1.0940
    1SOL    MW4 4564   3.340   0.502   1.999 -0.1180  0.0386 -0.0076
    1SOL     OW 4565   3.342   0.748   1.876  0.3107  0.0585  0.0327
    1SOL    HW2 4566   3.269   0.794   1.917 -0.9864 -0.7019 -1.3895
    1SOL    HW3 4567   3.349   0.665   1.924 -0.9043 -0.6270 -0.9546
    1SOL    MW4 4568   3.334   0.743   1.888 -0.0207 -0.1323 -0.2853
    1SOL     OW 4569   3.119   0.877   1.987  0.0309  0.2458  0.3505
    1SOL    HW2 4570   3.125   0.904   2.079  0.9052 -0.2522  0.4447
    1SOL    HW3 4571   3.094   0.956   1.940  0.3074  0.6784  0.9241
    1SOL    MW4 4572   3.116   0.891   1.993  0.1829  0.2372  0.4387
    1SOL     OW 4573   3.093   1.151   1.857 -0.3779 -0.3313  0.4181
    1SOL    HW2 4574   3.173   1.177   1.902  0.1252 -0.0860 -0.6092
    1SOL    HW3 4575   3.023   1.190   1.910  0.2223  0.2678  0.7903
    1SOL    MW4 4576   3.094   1.160   1.870 -0.2322 -0.2198  0.3316
    1SOL     OW 4577   3.345   1.236   1.975 -0.1251  0.2723  0.0321
    1SOL    HW2 4578   3.351   1.227   2.070 -0.3297 -0.7669 -0.0465
    1SOL    HW3 4579   3.339   1.330   1.960 -2.0804  0.3669  1.1854
    1SOL    MW4 4580   3.345   1.247   1.985 -0.4098  0.1478  0.1739
    1SOL     OW 4581   3.352   1.503   1.903  0.1124  0.4852 -0.5072
    1SOL    HW2 4582   3.429   1.539   1.947 -1.1765  0.3023  1.9964
    1SOL    HW3 4583   3.279   1.557   1.934 -0.7742  0.7596 -2.9679
    1SOL    MW4 4584   3.353   1.515   1.913 -0.1743  0.4973 -0.5015
    1SOL     OW 4585   3.156   1.719   1.998  0.3024 -0.1587 -0.0696
    1SOL    HW2 4586   3.165   1.693   2.089  1.3477  1.1420  0.1988
    1SOL    HW3 4587   3.156   1.814   1.999  1.5348 -0.1187 -1.5352
    1SOL    MW4 4588   3.157   1.728   2.010  0.6030  0.0184 -0.2277
    1SOL     OW 4589   3.139   1.983   1.919 -0.3466 -0.7065  0.1793
    1SOL    HW2 4590   3.231   2.000   1.939 -0.5004  0.3365  0.0541
    1SOL    HW3 4591   3.139   1.959   1.826 -0.3568  0.7078 -0.1988
    1SOL    MW4 4592   3.151   1.982   1.909 -0.3681 -0.3822  0.1129
    1SOL     OW 4593   3.392   2.027   2.004  0.0679 -0.4069  0.2565
    1SOL    HW2 4594   3.471   1.985   1.968  0.0766  0.2515 -0.4879
    1SOL    HW3 4595   3.400   2.119   1.979 -0.7272 -0.2530  0.5622
    1SOL    MW4 4596   3.404   2.034   1.996 -0.0358 -0.2999  0.1986
    1SOL     OW 4597   3.343   2.271   1.858  0.0716  0.0937 -0.2140
    1SOL    HW2 4598   3.258   2.296   1.895 -0.8531 -1.8210 -0.9535
    1SOL    HW3 4599   3.329   2.272   1.764  0.8332 -0.3662 -0.3330
    1SOL    MW4 4600   3.330   2.274   1.851  0.0501 -0.2193 -0.3271
    1SOL     OW 4601   3.093   2.409   1.975  0.1692  0.0244 -0.5368
    1SOL    HW2 4602   3.081   2.410   2.070  0.5107 -0.5018 -0.4885
    1SOL    HW3 4603   3.113   2.500   1.952  0.9099 -0.0003  0.0009
    1SOL    MW4 4604   3.094   2.421   1.984  0.3119 -0.0486 -0.4596
    1SOL     OW 4605   3.173   2.671   1.913  0.2566  0.0225 -0.7032
    1SOL    HW2 4606   3.100   2.717   1.955 -1.2108 -1.8161 -1.1933
    1SOL    HW3 4607   3.169   2.699   1.821  0.4831  0.3110 -0.6255
    1SOL    MW4 4608   3.163   2.681   1.906  0.0927 -0.1817 -0.7577
    1SOL     OW 4609   3.403   2.824   2.000 -0.2304  0.1634 -0.1708
    1SOL    HW2 4610   3.399   2.822   2.095 -0.7243  1.7900 -0.1419
    1SOL    HW3 4611   3.324   2.778   1.971 -0.9543  1.1384  0.2259
    1SOL    MW4 4612   3.392   2.818   2.008 -0.3908  0.5069 -0.1147
    1SOL     OW 4613   3.386   3.072   1.897 -0.2949  0.1184  0.2929
    1SOL    HW2 4614   3.461   3.125   1.925 -0.3947  1.1042 -1.2510
    1SOL    HW3 4615   3.399   2.988   1.941  2.6620 -0.3259 -1.2650
    1SOL    MW4 4616   3.398   3.068   1.907  0.0825  0.1895 -0.1162
    1SOL     OW 4617   3.139   3.194   1.969  0.6383 -0.2670 -0.0114
    1SOL    HW2 4618   3.152   3.210   2.063  1.2975  1.4990 -0.3864
    1SOL    HW3 4619   3.223   3.159   1.939  1.1311  1.1299 -0.3279
    1SOL    MW4 4620   3.152   3.192   1.978  0.7904  0.1502 -0.1028
    1SOL     OW 4621   3.127   3.472   1.894 -0.0671 -0.4383  0.0118
    1SOL    HW2 4622   3.130   3.380   1.921  1.7772 -0.3857  0.0854
    1SOL    HW3 4623   3.211   3.507   1.923 -0.2718  0.9691 -1.0764
    1SOL    MW4 4624   3.139   3.464   1.901  0.1490 -0.2458 -0.1222
    1SOL     OW 4625   3.377   3.569   1.962  0.5138  0.4257 -0.2289
    1SOL    HW2 4626   3.464   3.531   1.946  0.7976  0.8999  0.1897
    1SOL    HW3 4627   3.380   3.654   1.918  0.2049  0.3751 -0.3470
    1SOL    MW4 4628   3.389   3.575   1.954  0.5102  0.4818 -0.1892
    1SOL     OW 4629   3.376   3.835   1.867 -0.1206 -0.1286 -0.7505
    1SOL    HW2 4630   3.316   3.881   1.926 -0.5281 -0.5238 -0.8552
    1SOL    HW3 4631   3.345   3.857   1.779  0.3244  0.2458 -0.8147
    1SOL    MW4 4632   3.364   3.844   1.863 -0.1156 -0.1314 -0.7728
    1SOL     OW 4633   3.147   3.998   1.944  0.1501 -0.4118  0.1832
    1SOL    HW2 4634   3.128   3.988   2.038 -1.3794  1.2678  0.0941
    1SOL    HW3 4635   3.085   3.939   1.901 -0.4714  0.2451  0.1642
    1SOL    MW4 4636   3.136   3.989   1.951 -0.1335 -0.1035  0.1689
    1SOL     OW 4637   3.110   4.235   1.821  0.1130  0.1640  0.0871
    1SOL    HW2 4638   3.112   4.152   1.869  0.0951  0.4883  0.6511
    1SOL    HW3 4639   3.043   4.287   1.865 -0.4099  0.1936 -0.7423
    1SOL    MW4 4640   3.102   4.231   1.833  0.0415  0.2108  0.0521
    1SOL     OW 4641   3.313   4.368   1.966 -0.1223  0.0207 -0.1624
    1SOL    HW2 4642   3.398   4.350   1.926  0.1812  1.4099 -0.1847
    1SOL    HW3 4643   3.252   4.314   1.916  0.7397 -0.9744 -0.1569
    1SOL    MW4 4644   3.316   4.359   1.954  0.0315  0.0730 -0.1646
    1SOL     OW 4645   3.786   4.652   1.886 -0.3337  0.2154  0.0715
    1SOL    HW2 4646   3.778   4.563   1.920 -0.2461  0.6391  1.2557
    1SOL    HW3 4647   3.703   4.693   1.910  0.2905  0.9358  1.0362
    1SOL    MW4 4648   3.774   4.646   1.894 -0.2396  0.3667  0.3550
    1SOL     OW 4649   3.557   0.125   1.972  0.2071  0.6186 -0.2405
    1SOL    HW2 4650   3.561   0.119   2.067  0.4014 -0.8996 -0.3408
    1SOL    HW3 4651   3.474   0.083   1.949  1.1092 -0.8118 -0.8903
    1SOL    MW4 4652   3.546   0.119   1.981  0.3517  0.2296 -0.3395
    1SOL     OW 4653   3.542   0.397   1.887  0.3733  0.4051 -0.2416
    1SOL    HW2 4654   3.555   0.310   1.923  1.0507  0.3648 -0.5826
    1SOL    HW3 4655   3.561   0.388   1.794  0.4458  0.9164 -0.2805
    1SOL    MW4 4656   3.546   0.385   1.880  0.4723  0.4672 -0.2918
    1SOL     OW 4657   3.785   0.488   1.953  0.2319 -0.1700 -0.4126
    1SOL    HW2 4658   3.805   0.580   1.938 -0.0335  0.1171  0.9631
    1SOL    HW3 4659   3.696   0.477   1.921 -0.0006  0.2214  0.0978
    1SOL    MW4 4660   3.776   0.498   1.947  0.1662 -0.0805 -0.1638
    1SOL     OW 4661   3.817   0.763   1.889 -0.1297 -0.6240 -0.2837
    1SOL    HW2 4662   3.756   0.804   1.950  1.2203 -0.4428  0.9642
    1SOL    HW3 4663   3.769   0.758   1.806 -0.4796  3.0979 -0.3696
    1SOL    MW4 4664   3.803   0.767   1.886  0.0024 -0.1091 -0.1304
    1SOL     OW 4665   3.599   0.840   2.031  0.6164  0.0132 -0.6023
    1SOL    HW2 4666   3.583   0.926   1.993  0.4294  0.2265 -0.0367
    1SOL    HW3 4667   3.528   0.785   1.995  1.6942 -0.3177 -2.2809
    1SOL    MW4 4668   3.587   0.844   2.021  0.7339 -0.0023 -0.7493
    1SOL     OW 4669   3.568   1.093   1.917  0.1486  0.1037 -0.0498
    1SOL    HW2 4670   3.500   1.152   1.948  1.0103  0.8325  0.4820
    1SOL    HW3 4671   3.570   1.108   1.822  0.5599  1.1596  0.1143
    1SOL    MW4 4672   3.559   1.103   1.908  0.3164  0.3392  0.0421
    1SOL     OW 4673   3.808   1.233   1.967  0.2029 -0.1440 -0.0054
    1SOL    HW2 4674   3.817   1.247   2.061 -0.2471  0.8238 -0.1110
    1SOL    HW3 4675   3.727   1.184   1.958  0.4402 -0.5698  0.1369
    1SOL    MW4 4676   3.799   1.228   1.978  0.1750 -0.0725 -0.0005
    1SOL     OW 4677   3.805   1.488   1.873 -0.4781 -0.6982  0.4874
    1SOL    HW2 4678   3.887   1.536   1.884 -0.4427 -0.6631  0.0788
    1SOL    HW3 4679   3.824   1.400   1.904 -0.7036 -0.3040  1.7802
    1SOL    MW4 4680   3.818   1.483   1.879 -0.5028 -0.6416  0.6040
    1SOL     OW 4681   3.579   1.622   2.018 -0.4581  0.2027  0.3675
    1SOL    HW2 4682   3.577   1.711   1.983 -0.4423 -0.5546 -1.6226
    1SOL    HW3 4683   3.658   1.584   1.980 -0.7472 -0.8301  0.8010
    1SOL    MW4 4684   3.589   1.629   2.008 -0.4940 -0.0334  0.1621
    1SOL     OW 4685   3.589   1.874   1.915  0.3487  0.1509  0.0947
    1SOL    HW2 4686   3.672   1.917   1.936  0.5538  0.3907 -1.1594
    1SOL    HW3 4687   3.586   1.872   1.820  0.8912 -3.7637  0.0905
    1SOL    MW4 4688   3.599   1.880   1.906  0.4470 -0.3340 -0.0714
    1SOL     OW 4689   3.791   2.020   1.998 -0.0811  0.3781 -0.1228
    1SOL    HW2 4690   3.871   1.973   1.978  0.2363  0.1170  1.6627
    1SOL    HW3 4691   3.803   2.106   1.956  1.0203  0.2565 -0.0808
    1SOL    MW4 4692   3.803   2.025   1.990  0.1059  0.3276  0.1183
    1SOL     OW 4693   3.786   2.271   1.902 -0.2534 -0.2729  0.3240
    1SOL    HW2 4694   3.859   2.333   1.911  0.5112 -1.3140  1.4664
    1SOL    HW3 4695   3.708   2.323   1.925  0.1284  0.8273 -0.8242
    1SOL    MW4 4696   3.785   2.286   1.907 -0.1023 -0.2651  0.3232
    1SOL     OW 4697   3.559   2.421   1.962 -0.5768 -0.1105 -0.2759
    1SOL    HW2 4698   3.583   2.510   1.939 -1.3399  0.3173  0.5216
    1SOL    HW3 4699   3.486   2.400   1.904 -0.0065 -0.4414 -0.8787
    1SOL    MW4 4700   3.552   2.430   1.952 -0.6020 -0.0980 -0.2502
    1SOL     OW 4701   3.604   2.680   1.864  0.4735 -0.2412  0.1903
    1SOL    HW2 4702   3.686   2.714   1.900  0.1029  1.1218 -0.2163
    1SOL    HW3 4703   3.536   2.727   1.911 -0.0302  0.3691 -1.1222
    1SOL    MW4 4704   3.606   2.691   1.875  0.3583  0.0193 -0.0366
    1SOL     OW 4705   3.839   2.808   1.983 -0.2203  0.0551  0.0520
    1SOL    HW2 4706   3.824   2.822   2.076 -0.1828  0.9937 -0.0779
    1SOL    HW3 4707   3.835   2.896   1.945  1.1327 -0.1700 -0.6299
    1SOL    MW4 4708   3.837   2.821   1.990 -0.0370  0.1497 -0.0551
    1SOL     OW 4709   3.866   3.068   1.882  0.2635  0.6613  0.3570
    1SOL    HW2 4710   3.792   3.114   1.922 -0.8325 -0.0910 -0.7320
    1SOL    HW3 4711   3.844   3.064   1.789  1.5937  0.2554  0.0477
    1SOL    MW4 4712   3.853   3.073   1.875  0.2942  0.5085  0.1725
    1SOL     OW 4713   3.629   3.203   1.966 -0.2283  0.0399 -0.1653
    1SOL    HW2 4714   3.611   3.195   2.060 -1.7531 -0.0585 -0.4501
    1SOL    HW3 4715   3.617   3.296   1.948 -0.5841 -0.0434 -0.3753
    1SOL    MW4 4716   3.625   3.214   1.976 -0.4766  0.0160 -0.2307
    1SOL     OW 4717   3.633   3.469   1.886 -0.1106 -0.3179 -0.2369
    1SOL    HW2 4718   3.698   3.534   1.913  1.2233 -1.3924 -0.8172
    1SOL    HW3 4719   3.625   3.480   1.791  0.6628 -1.4631 -0.4497
    1SOL    MW4 4720   3.641   3.479   1.877  0.1674 -0.6106 -0.3414
    1SOL     OW 4721   3.824   3.644   1.998 -0.3777 -0.0557  0.1498
    1SOL    HW2 4722   3.893   3.600   1.949  0.4828 -0.2057  1.4820
    1SOL    HW3 4723   3.827   3.734   1.967 -0.2117 -0.2725 -0.4778
    1SOL    MW4 4724   3.834   3.650   1.987 -0.2422 -0.1040  0.2426
    1SOL     OW 4725   3.818   3.876   1.885 -0.1617  0.0410 -0.1618
    1SOL    HW2 4726   3.740   3.926   1.909  0.8368  0.9507  1.3020
    1SOL    HW3 4727   3.810   3.862   1.791 -0.7749  2.4324 -0.4907
    1SOL    MW4 4728   3.806   3.881   1.876 -0.1109  0.4764 -0.0122
    1SOL     OW 4729   3.587   4.017   1.935  0.1731  0.1178 -0.3757
    1SOL    HW2 4730   3.570   4.036   2.028  1.6273  0.9377 -0.2605
    1SOL    HW3 4731   3.513   3.962   1.908 -0.4800  0.2074  1.1590
    1SOL    MW4 4732   3.575   4.012   1.944  0.2787  0.2379 -0.1581
    1SOL     OW 4733   3.558   4.297   1.862 -0.1494 -0.1656  0.2986
    1SOL    HW2 4734   3.648   4.327   1.877 -0.1829  0.7187 -1.1407
    1SOL    HW3 4735   3.561   4.202   1.877  0.6749  0.0768  1.7401
    1SOL    MW4 4736   3.570   4.288   1.866 -0.0451 -0.0172  0.2990
    1SOL     OW 4737   3.793   4.382   1.961 -0.3298 -0.2750 -0.2482
    1SOL    HW2 4738   3.790   4.366   2.056 -0.4362  0.3288 -0.1477
    1SOL    HW3 4739   3.865   4.326   1.930 -0.6433 -0.8867  0.1016
    1SOL    MW4 4740   3.802   4.372   1.970 -0.3853 -0.2761 -0.1886
    1SOL     OW 4741   4.283   4.642   1.887  0.0109  0.2075  0.0524
    1SOL    HW2 4742   4.204   4.676   1.928  0.3973  0.5910  0.4860
    1SOL    HW3 4743   4.354   4.697   1.921  0.5313 -0.4691  0.0809
    1SOL    MW4 4744   4.282   4.654   1.897  0.1307  0.1688  0.1132
    1SOL     OW 4745   4.040   0.086   1.976  0.0349 -0.0373  0.1095
    1SOL    HW2 4746   4.032   0.093   2.071  1.2114  0.9214  0.1457
    1SOL    HW3 4747   3.952   0.063   1.946 -0.0093 -1.9281  1.5579
    1SOL    MW4 4748   4.027   0.084   1.984  0.1841 -0.1603  0.3053
    1SOL     OW 4749   4.014   0.335   1.845 -0.0630  0.2660  0.2662
    1SOL    HW2 4750   4.034   0.255   1.894 -0.5638 -0.2224 -0.3146
    1SOL    HW3 4751   3.933   0.367   1.883 -0.1955  0.1513  0.0819
    1SOL    MW4 4752   4.006   0.328   1.856 -0.1469  0.1864  0.1652
    1SOL     OW 4753   4.233   0.495   1.898 -0.3746 -0.0382  0.1000
    1SOL    HW2 4754   4.239   0.493   1.993 -0.6862 -0.9768  0.1105
    1SOL    HW3 4755   4.152   0.448   1.878 -1.3741  1.9080 -0.5508
    1SOL    MW4 4756   4.223   0.488   1.908 -0.5469  0.0947  0.0155
    1SOL     OW 4757   4.306   0.741   1.855 -0.2804 -0.2332  0.4108
    1SOL    HW2 4758   4.286   0.649   1.875 -0.3560 -0.3803 -0.3220
    1SOL    HW3 4759   4.294   0.748   1.760  0.3691  0.3756  0.3686
    1SOL    MW4 4760   4.301   0.729   1.845 -0.2041 -0.1723  0.3085
    1SOL     OW 4761   4.091   0.856   1.975 -0.3901 -0.0829  0.0114
    1SOL    HW2 4762   4.168   0.813   1.938 -0.3259 -0.1406  0.2130
    1SOL    HW3 4763   4.017   0.815   1.932 -0.2912  0.3047 -0.5386
    1SOL    MW4 4764   4.091   0.845   1.965 -0.3686 -0.0394 -0.0347
    1SOL     OW 4765   4.025   1.092   1.844  0.2269 -0.2798 -0.1918
    1SOL    HW2 4766   4.046   1.014   1.895  1.2556 -0.4446 -0.8742
    1SOL    HW3 4767   3.942   1.123   1.882  1.0415 -0.3132  1.6734
    1SOL    MW4 4768   4.017   1.086   1.856  0.4702 -0.3060 -0.0358
    1SOL     OW 4769   4.267   1.251   1.926  0.3650 -0.0032  0.1281
    1SOL    HW2 4770   4.254   1.238   2.020  0.5784  0.0948  0.1717
    1SOL    HW3 4771   4.190   1.212   1.885  0.1093  0.2556  0.3649
    1SOL    MW4 4772   4.256   1.244   1.933  0.3595  0.0439  0.1651
    1SOL     OW 4773   4.236   1.524   1.842 -0.1397 -0.0418 -0.5093
    1SOL    HW2 4774   4.252   1.434   1.870 -1.3214 -0.4409 -1.0454
    1SOL    HW3 4775   4.231   1.518   1.746 -0.3324  0.5673 -0.5394
    1SOL    MW4 4776   4.237   1.511   1.833 -0.3209 -0.0141 -0.5839
    1SOL     OW 4777   4.009   1.634   1.955 -0.2040  0.2080  0.2534
    1SOL    HW2 4778   4.015   1.628   2.050  1.2364 -0.1083  0.1565
    1SOL    HW3 4779   4.091   1.596   1.923 -0.1686  1.3419 -1.0748
    1SOL    MW4 4780   4.020   1.629   1.963 -0.0091  0.3159  0.0653
    1SOL     OW 4781   4.012   1.895   1.910 -0.0314 -0.2383 -0.4906
    1SOL    HW2 4782   4.022   1.806   1.945 -0.3013  0.1478  0.5658
    1SOL    HW3 4783   4.014   1.883   1.815 -0.3178 -1.4026 -0.3582
    1SOL    MW4 4784   4.014   1.882   1.902 -0.1049 -0.3411 -0.3338
    1SOL     OW 4785   4.254   2.044   1.957 -0.0895  0.2772 -0.5170
    1SOL    HW2 4786   4.251   2.074   2.048 -0.9572 -0.9975 -0.1113
    1SOL    HW3 4787   4.168   2.004   1.942  0.1819  0.1446 -1.7832
    1SOL    MW4 4788   4.242   2.042   1.967 -0.1683  0.0916 -0.6306
    1SOL     OW 4789   4.239   2.298   1.839 -0.0030 -0.1503 -0.0379
    1SOL    HW2 4790   4.249   2.210   1.876 -2.0699 -0.6370 -0.5996
    1SOL    HW3 4791   4.311   2.348   1.878  0.4360 -1.7578  1.2911
    1SOL    MW4 4792   4.250   2.293   1.849 -0.2179 -0.4265  0.0633
    1SOL     OW 4793   4.013   2.407   1.945 -0.1200  0.3218  0.2970
    1SOL    HW2 4794   4.034   2.434   2.034  0.3376 -0.9392  0.5791
    1SOL    HW3 4795   4.096   2.381   1.907  0.0041  2.7359 -1.1837
    1SOL    MW4 4796   4.027   2.407   1.952 -0.0434  0.4740  0.1388
    1SOL     OW 4797   4.059   2.682   1.875 -0.1080  0.4731  0.4967
    1SOL    HW2 4798   4.042   2.590   1.893 -0.7137  0.3690 -0.5672
    1SOL    HW3 4799   3.987   2.728   1.920  0.1801  0.4313  1.0058
    1SOL    MW4 4800   4.047   2.676   1.883 -0.1502  0.4537  0.4236
    1SOL     OW 4801   4.248   2.850   1.964  0.3734 -0.0031  0.0019
    1SOL    HW2 4802   4.256   2.848   2.059  0.8020  1.0945 -0.0088
    1SOL    HW3 4803   4.183   2.782   1.944  0.6886 -0.6208  1.0262
    1SOL    MW4 4804   4.241   2.841   1.974  0.4716  0.0603  0.1357
    1SOL     OW 4805   4.257   3.110   1.869 -0.1774 -0.2317  0.0791
    1SOL    HW2 4806   4.190   3.160   1.916  1.7015  0.7651  1.7853
    1SOL    HW3 4807   4.246   3.020   1.899 -1.3414 -0.2603 -0.3881
    1SOL    MW4 4808   4.247   3.105   1.879 -0.0834 -0.1037  0.2426
    1SOL     OW 4809   4.056   3.246   2.003 -0.2720 -0.1805  0.4413
    1SOL    HW2 4810   4.061   3.224   2.096  1.7511 -1.1316  0.1137
    1SOL    HW3 4811   3.987   3.189   1.969 -0.8721  0.0204  1.2984
    1SOL    MW4 4812   4.047   3.235   2.011 -0.0844 -0.2794  0.5114
    1SOL     OW 4813   4.036   3.504   1.892  0.1429 -0.2747  0.5540
    1SOL    HW2 4814   4.117   3.544   1.923  0.9044 -0.5196 -1.0433
    1SOL    HW3 4815   4.043   3.412   1.918  0.0854 -0.1588  0.9792
    1SOL    MW4 4816   4.048   3.497   1.899  0.2356 -0.2918  0.3995
    1SOL     OW 4817   4.253   3.655   1.979 -0.2506  0.6764 -0.2184
    1SOL    HW2 4818   4.244   3.738   1.931  1.4060 -0.0900 -1.9155
    1SOL    HW3 4819   4.325   3.610   1.936 -0.3841 -1.1756  1.4181
    1SOL    MW4 4820   4.261   3.660   1.967 -0.0501  0.3307 -0.2264
    1SOL     OW 4821   4.275   3.935   1.882 -0.2036  0.4936  0.0571
    1SOL    HW2 4822   4.360   3.963   1.914  0.1789 -0.4270 -0.1389
    1SOL    HW3 4823   4.289   3.915   1.789 -0.2356 -1.2664  0.4129
    1SOL    MW4 4824   4.288   3.936   1.874 -0.1574  0.1402  0.0782
    1SOL     OW 4825   4.034   4.021   2.020  0.0322 -0.4469  0.2936
    1SOL    HW2 4826   4.113   3.987   1.979  0.0315 -0.2099  0.0983
    1SOL    HW3 4827   3.963   3.968   1.982 -0.1215  0.7216 -1.0856
    1SOL    MW4 4828   4.035   4.009   2.010  0.0114 -0.2613  0.0858
    1SOL     OW 4829   4.039   4.258   1.861 -0.3943 -0.1641  0.5477
    1SOL    HW2 4830   4.108   4.322   1.878 -0.4625  0.0938 -0.1366
    1SOL    HW3 4831   4.061   4.183   1.917  0.3400 -0.0156  0.4544
    1SOL    MW4 4832   4.051   4.257   1.871 -0.3066 -0.1101  0.4452
    1SOL     OW 4833   4.256   4.395   1.968 -0.1278 -0.4170 -0.2034
    1SOL    HW2 4834   4.256   4.382   2.062  1.6911 -1.6383 -0.3248
    1SOL    HW3 4835   4.272   4.489   1.956  0.8960 -0.4605  0.7140
    1SOL    MW4 4836   4.258   4.405   1.979  0.2480 -0.5836 -0.0983
    1SOL     OW 4837   0.183   4.666   2.351  0.1506  0.1740  0.0339
    1SOL    HW2 4838   0.209   4.654   2.443 -1.0262  0.7809  0.4517
    1SOL    HW3 4839   0.262   4.697   2.308  0.3212  1.3410  1.1532
    1SOL    MW4 4840   0.197   4.668   2.358  0.0178  0.4082  0.2367
    1SOL     OW 4841   4.448   0.091   2.216 -0.2770 -0.2807  0.0428
    1SOL    HW2 4842   4.526   0.048   2.251 -0.4231 -0.8782 -0.3451
    1SOL    HW3 4843   4.462   0.093   2.121  0.3276  1.7454  0.1543
    1SOL    MW4 4844   4.460   0.085   2.208 -0.2160 -0.0922  0.0064
    1SOL     OW 4845   4.485   0.373   2.303  0.3760  0.4556 -0.2508
    1SOL    HW2 4846   4.564   0.414   2.268  0.2372 -0.3613 -1.5574
    1SOL    HW3 4847   4.493   0.280   2.279 -0.5764  0.2089  0.3405
    1SOL    MW4 4848   4.497   0.366   2.295  0.2322  0.3153 -0.3450
    1SOL     OW 4849   0.224   0.506   2.233 -0.3869  0.1872  0.0922
    1SOL    HW2 4850   0.295   0.453   2.270 -1.0117  0.0392  1.0929
    1SOL    HW3 4851   0.236   0.498   2.138  1.1619  0.4797  0.2485
    1SOL    MW4 4852   0.235   0.498   2.225 -0.2650  0.2063  0.2449
    1SOL     OW 4853   0.255   0.768   2.309  0.2992  0.0529 -0.0784
    1SOL    HW2 4854   0.256   0.752   2.403  0.4143 -1.0051 -0.2617
    1SOL    HW3 4855   0.239   0.682   2.269 -1.3212  0.7273 -0.9577
    1SOL    MW4 4856   0.253   0.755   2.316  0.1006  0.0023 -0.2186
    1SOL     OW 4857   4.488   0.870   2.266 -0.3616 -0.3918  0.0988
    1SOL    HW2 4858   4.581   0.856   2.285 -0.4810 -0.1514  0.8733
    1SOL    HW3 4859   4.482   0.862   2.171  0.3449 -1.0532  0.1023
    1SOL    MW4 4860   4.500   0.867   2.256 -0.2841 -0.4473  0.2015
    1SOL     OW 4861   4.468   1.145   2.327  0.3393  0.1544 -0.1023
    1SOL    HW2 4862   4.463   1.143   2.422  1.1068  0.2970 -0.0531
    1SOL    HW3 4863   4.487   1.055   2.302  1.0366  0.2871 -0.0597
    1SOL    MW4 4864   4.470   1.133   2.336  0.5326  0.1909 -0.0904
    1SOL     OW 4865   0.223   1.273   2.266 -0.2180 -0.1496  0.0113
    1SOL    HW2 4866   0.151   1.218   2.298  1.0773 -1.6111  0.4894
    1SOL    HW3 4867   0.216   1.266   2.171 -0.4120 -0.7041  0.0579
    1SOL    MW4 4868   0.212   1.265   2.258 -0.0727 -0.4158  0.0803
    1SOL     OW 4869   0.237   1.535   2.355  0.0815  0.1413 -0.2010
    1SOL    HW2 4870   0.246   1.537   2.450 -1.4920 -1.5578  0.0121
    1SOL    HW3 4871   0.238   1.442   2.333 -0.4151  0.4940 -1.7605
    1SOL    MW4 4872   0.239   1.523   2.365 -0.1916 -0.0364 -0.3786
    1SOL     OW 4873   0.001   1.660   2.230 -0.3592 -0.1204 -0.0028
    1SOL    HW2 4874  -0.013   1.746   2.268 -0.7934 -0.2197  0.0679
    1SOL    HW3 4875   0.079   1.626   2.274 -1.2147 -0.4918  1.2613
    1SOL    MW4 4876   0.009   1.667   2.241 -0.5294 -0.1825  0.1733
    1SOL     OW 4877   4.453   1.898   2.346  0.0572 -0.2128  0.2932
    1SOL    HW2 4878   4.381   1.952   2.311 -0.3709 -0.8486  0.1953
    1SOL    HW3 4879   4.531   1.954   2.336 -0.6061  0.9743  1.5722
    1SOL    MW4 4880   4.454   1.913   2.340 -0.0873 -0.1401  0.4489
    1SOL     OW 4881   0.222   2.027   2.297  0.1250  0.4990  0.3538
    1SOL    HW2 4882   0.305   1.994   2.330 -0.5292 -1.3395  0.2227
    1SOL    HW3 4883   0.223   2.006   2.204 -0.3110  0.8551  0.2666
    1SOL    MW4 4884   0.233   2.020   2.290 -0.0188  0.3033  0.3247
    1SOL     OW 4885   0.214   2.284   2.350 -0.5526 -0.0574 -0.7980
    1SOL    HW2 4886   0.206   2.293   2.445  1.9025  0.7671 -0.6422
    1SOL    HW3 4887   0.222   2.190   2.336 -0.2838 -0.1340 -0.1378
    1SOL    MW4 4888   0.214   2.273   2.361 -0.1932  0.0412 -0.6907
    1SOL     OW 4889   0.016   2.430   2.202 -0.3201  0.5428  0.0368
    1SOL    HW2 4890   0.004   2.507   2.257 -0.5065  0.8808 -0.4697
    1SOL    HW3 4891   0.081   2.377   2.247 -1.9932 -0.1982  1.6544
    1SOL    MW4 4892   0.023   2.433   2.215 -0.5654  0.4897  0.1836
    1SOL     OW 4893   0.005   2.674   2.333 -0.0541  0.3090 -0.3295
    1SOL    HW2 4894  -0.008   2.697   2.425 -0.1028 -0.4582 -0.1398
    1SOL    HW3 4895   0.090   2.713   2.311 -0.2437  0.8708 -0.0913
    1SOL    MW4 4896   0.014   2.682   2.342 -0.0855  0.2820 -0.2730
    1SOL     OW 4897   0.214   2.837   2.289  0.1709 -0.1562  0.2973
    1SOL    HW2 4898   0.295   2.788   2.307  1.0444  0.6049 -1.3974
    1SOL    HW3 4899   0.217   2.852   2.195 -1.6157  0.5082  0.3434
    1SOL    MW4 4900   0.225   2.832   2.279  0.0504  0.0317  0.0799
    1SOL     OW 4901   0.189   3.108   2.390  0.2113  0.0939  0.5973
    1SOL    HW2 4902   0.123   3.156   2.338 -0.0664  0.6355  1.4283
    1SOL    HW3 4903   0.182   3.018   2.361  0.2850  0.4484 -0.5403
    1SOL    MW4 4904   0.179   3.103   2.379  0.1843  0.2120  0.5567
    1SOL     OW 4905   4.479   3.227   2.229  0.5216  0.2543 -0.3146
    1SOL    HW2 4906   4.480   3.316   2.264  0.9949  0.2199 -0.2509
    1SOL    HW3 4907   4.509   3.237   2.139  2.8709 -0.1614  0.4023
    1SOL    MW4 4908   4.483   3.240   2.222  0.8936  0.1948 -0.2112
    1SOL     OW 4909   0.014   3.478   2.357  0.2279 -0.6449 -0.5723
    1SOL    HW2 4910   0.015   3.492   2.452  0.7505  2.4202 -0.9750
    1SOL    HW3 4911  -0.066   3.522   2.327  1.3188  0.5306 -1.8166
    1SOL    MW4 4912   0.004   3.486   2.366  0.4401 -0.0854 -0.7896
    1SOL     OW 4913   0.229   3.588   2.216  0.2502 -0.0031 -0.3088
    1SOL    HW2 4914   0.312   3.572   2.260  0.1399  0.3706  0.0363
    1SOL    HW3 4915   0.164   3.541   2.269  0.2846 -0.6069 -0.7853
    1SOL    MW4 4916   0.231   3.580   2.229  0.2401 -0.0336 -0.3264
    1SOL     OW 4917   0.211   3.845   2.324 -0.9032  0.2043 -0.3019
    1SOL    HW2 4918   0.122   3.875   2.306 -0.7371 -0.1034 -1.7349
    1SOL    HW3 4919   0.219   3.762   2.277  0.1789  0.2951 -0.3035
    1SOL    MW4 4920   0.201   3.838   2.315 -0.7385  0.1755 -0.4911
    1SOL     OW 4921   4.454   3.994   2.252  0.5210  0.2115  0.1870
    1SOL    HW2 4922   4.448   4.082   2.288 -1.0203  0.1175  0.2013
    1SOL    HW3 4923   4.476   4.007   2.159  1.0985  0.5703  0.3699
    1SOL    MW4 4924   4.456   4.007   2.244  0.3939  0.2460  0.2129
    1SOL     OW 4925   4.487   4.244   2.356 -0.6083 -0.2922  0.3315
    1SOL    HW2 4926   4.511   4.256   2.448 -0.4603 -0.4561  0.3150
    1SOL    HW3 4927   4.558   4.287   2.307 -0.1002 -1.1821  0.2734
    1SOL    MW4 4928   4.500   4.251   2.362 -0.5217 -0.4315  0.3214
    1SOL     OW 4929   0.222   4.399   2.243 -0.0051 -0.0565 -0.2234
    1SOL    HW2 4930   0.296   4.349   2.278 -0.3805 -1.5776 -1.5812
    1SOL    HW3 4931   0.231   4.485   2.283  0.8191 -1.1008  1.9263
    1SOL    MW4 4932   0.233   4.404   2.253  0.0541 -0.3948 -0.1190
    1SOL     OW 4933   0.639   4.662   2.305  0.0119  0.2097 -0.1931
    1SOL    HW2 4934   0.640   4.649   2.400  1.7847 -2.0462 -0.4708
    1SOL    HW3 4935   0.724   4.702   2.286  0.6083 -1.4544 -1.0750
    1SOL    MW4 4936   0.650   4.666   2.315  0.3245 -0.3076 -0.3459
    1SOL     OW 4937   0.412   0.104   2.228 -0.6894  0.6320  0.2114
    1SOL    HW2 4938   0.495   0.068   2.260 -0.9632 -0.2872 -0.0811
    1SOL    HW3 4939   0.421   0.104   2.133 -0.8407  0.9707  0.1973
    1SOL    MW4 4940   0.424   0.099   2.219 -0.7454  0.5554  0.1707
    1SOL     OW 4941   0.441   0.386   2.353  0.1769 -0.0957 -0.2594
    1SOL    HW2 4942   0.431   0.396   2.448  1.8421  0.0137 -0.0731
    1SOL    HW3 4943   0.432   0.292   2.338 -1.7871  0.0748 -0.2206
    1SOL    MW4 4944   0.439   0.375   2.364  0.1374 -0.0587 -0.2294
    1SOL     OW 4945   0.695   0.472   2.254  0.0993  0.1164  0.0765
    1SOL    HW2 4946   0.686   0.556   2.298 -1.3495  0.3449 -0.6119
    1SOL    HW3 4947   0.612   0.427   2.272 -1.1006  0.7321 -3.4394
    1SOL    MW4 4948   0.683   0.477   2.262 -0.2502  0.2278 -0.4780
    1SOL     OW 4949   0.680   0.753   2.361 -0.5456  1.0178 -0.0741
    1SOL    HW2 4950   0.649   0.760   2.451 -0.6741  0.5645 -0.0794
    1SOL    HW3 4951   0.617   0.802   2.309 -2.3084 -1.4238 -0.3170
    1SOL    MW4 4952   0.668   0.760   2.366 -0.7952  0.6359 -0.1070
    1SOL     OW 4953   0.469   0.911   2.234  0.1005  0.4269  0.8142
    1SOL    HW2 4954   0.456   0.996   2.276 -1.2985 -0.3951  2.0848
    1SOL    HW3 4955   0.405   0.853   2.276  1.2756 -1.3395  0.2239
    1SOL    MW4 4956   0.459   0.914   2.245  0.0710  0.0854  0.9038
    1SOL     OW 4957   0.466   1.158   2.326 -0.4219  0.4991  0.3739
    1SOL    HW2 4958   0.475   1.162   2.421  0.9217  2.3864  0.1977
    1SOL    HW3 4959   0.386   1.208   2.307 -1.1157 -0.5255  0.5510
    1SOL    MW4 4960   0.457   1.165   2.336 -0.3362  0.6130  0.3741
    1SOL     OW 4961   0.719   1.266   2.232 -0.0265  0.6666 -0.2326
    1SOL    HW2 4962   0.717   1.358   2.258 -0.0348  0.3329  0.9404
    1SOL    HW3 4963   0.633   1.232   2.256  0.5593 -0.0631  0.8632
    1SOL    MW4 4964   0.707   1.274   2.238  0.0497  0.5263  0.0670
    1SOL     OW 4965   0.702   1.526   2.333  0.1152  0.1835 -0.3875
    1SOL    HW2 4966   0.689   1.550   2.425 -1.1941  1.1613 -0.8210
    1SOL    HW3 4967   0.782   1.573   2.308 -0.0856  0.7211 -0.0355
    1SOL    MW4 4968   0.711   1.535   2.342 -0.0840  0.3834 -0.3984
    1SOL     OW 4969   0.472   1.661   2.237 -0.0903  0.1674  0.2351
    1SOL    HW2 4970   0.552   1.612   2.257 -0.1731  0.7130  1.9375
    1SOL    HW3 4971   0.402   1.611   2.277 -0.4683  0.3847 -0.1463
    1SOL    MW4 4972   0.473   1.648   2.245 -0.1511  0.2680  0.4094
    1SOL     OW 4973   0.474   1.911   2.348  0.1616 -0.7846 -0.1833
    1SOL    HW2 4974   0.545   1.953   2.300  0.6760 -1.7294 -0.2449
    1SOL    HW3 4975   0.473   1.821   2.317 -0.4541 -1.0240  0.5135
    1SOL    MW4 4976   0.483   1.905   2.337  0.1482 -0.9408 -0.0994
    1SOL     OW 4977   0.679   2.044   2.233 -0.3121  0.2232  0.2312
    1SOL    HW2 4978   0.771   2.024   2.247 -0.2814  0.1794 -0.0208
    1SOL    HW3 4979   0.667   2.131   2.270 -0.3667 -0.1153  1.0253
    1SOL    MW4 4980   0.689   2.053   2.239 -0.3152  0.1726  0.3028
    1SOL     OW 4981   0.672   2.299   2.354 -0.6576  0.2350  0.3733
    1SOL    HW2 4982   0.673   2.312   2.448  1.0841 -2.1680  0.7169
    1SOL    HW3 4983   0.755   2.334   2.323 -0.8858  0.3142 -0.1668
    1SOL    MW4 4984   0.683   2.305   2.362 -0.4579 -0.0718  0.3471
    1SOL     OW 4985   0.431   2.435   2.306  0.3891  0.3505  0.4264
    1SOL    HW2 4986   0.511   2.386   2.325  1.2383  0.9689 -1.3962
    1SOL    HW3 4987   0.360   2.372   2.319  1.2197 -0.3980  1.3727
    1SOL    MW4 4988   0.432   2.420   2.310  0.6107  0.3331  0.3107
    1SOL     OW 4989   0.462   2.718   2.359 -0.0576  0.2262 -0.0709
    1SOL    HW2 4990   0.450   2.715   2.454 -0.7100  1.4319 -0.1016
    1SOL    HW3 4991   0.459   2.627   2.331  2.0027 -0.2809  1.2806
    1SOL    MW4 4992   0.460   2.706   2.367  0.1281  0.3183  0.1035
    1SOL     OW 4993   0.673   2.871   2.281 -0.4625  0.2726  0.3354
    1SOL    HW2 4994   0.744   2.813   2.308  0.5279  1.6484  0.7024
    1SOL    HW3 4995   0.595   2.815   2.281  0.2492 -0.7330  1.9768
    1SOL    MW4 4996   0.672   2.856   2.284 -0.2379  0.3216  0.6006
    1SOL     OW 4997   0.667   3.129   2.368 -0.5674  0.3493  0.2953
    1SOL    HW2 4998   0.582   3.169   2.349  0.4408  1.3510 -2.2481
    1SOL    HW3 4999   0.659   3.039   2.338 -0.6694  0.4956 -0.1172
    1SOL    MW4 5000   0.655   3.122   2.362 -0.4478  0.5007 -0.0947
    1SOL     OW 5001   0.432   3.225   2.272 -0.1872 -0.4575  0.1679
    1SOL    HW2 5002   0.368   3.168   2.316 -0.8101 -0.7421 -1.0643
    1SOL    HW3 5003   0.415   3.211   2.179 -0.9221  2.4095 -0.1450
    1SOL    MW4 5004   0.421   3.215   2.266 -0.3663 -0.1168 -0.0360
    1SOL     OW 5005   0.452   3.495   2.354  0.8173 -0.1444  0.2805
    1SOL    HW2 5006   0.518   3.553   2.316  0.4399  0.2925  0.2881
    1SOL    HW3 5007   0.470   3.409   2.314  1.8522 -0.1950  0.8478
    1SOL    MW4 5008   0.463   3.491   2.343  0.9041 -0.0935  0.3564
    1SOL     OW 5009   0.673   3.617   2.239  0.2694 -0.0407  0.1078
    1SOL    HW2 5010   0.679   3.707   2.274  0.7347 -0.0051 -0.0596
    1SOL    HW3 5011   0.674   3.628   2.144  1.2099 -0.2762  0.0874
    1SOL    MW4 5012   0.674   3.631   2.231  0.4549 -0.0670  0.0830
    1SOL     OW 5013   0.663   3.877   2.365 -0.1089  0.1447  0.1662
    1SOL    HW2 5014   0.662   3.860   2.460 -1.6291 -1.1002 -0.0613
    1SOL    HW3 5015   0.579   3.920   2.348  0.3328  0.7179 -0.5694
    1SOL    MW4 5016   0.652   3.881   2.375 -0.2512  0.0558  0.0391
    1SOL     OW 5017   0.438   3.993   2.256  0.1917 -0.5154 -0.0574
    1SOL    HW2 5018   0.364   3.932   2.259  0.0769 -0.3518  0.4310
    1SOL    HW3 5019   0.456   4.003   2.163  0.7633 -1.9740 -0.1259
    1SOL    MW4 5020   0.430   3.986   2.244  0.2519 -0.6862 -0.0021
    1SOL     OW 5021   0.435   4.254   2.359 -0.2174  0.2759  0.5584
    1SOL    HW2 5022   0.512   4.285   2.313  0.4589 -1.4810  0.4735
    1SOL    HW3 5023   0.429   4.161   2.337 -1.0485 -0.1303  2.3629
    1SOL    MW4 5024   0.444   4.246   2.350 -0.2378 -0.0095  0.7851
    1SOL     OW 5025   0.657   4.388   2.246 -0.2003 -0.2051  0.0007
    1SOL    HW2 5026   0.656   4.482   2.261  2.4787 -0.2533  0.6163
    1SOL    HW3 5027   0.657   4.378   2.151  0.7289  0.4335 -0.0614
    1SOL    MW4 5028   0.657   4.399   2.235  0.2757 -0.1273  0.0737
    1SOL     OW 5029   1.140   4.652   2.345  0.2817  0.2555  0.0400
    1SOL    HW2 5030   1.129   4.625   2.436  1.2307 -0.2334  0.0127
    1SOL    HW3 5031   1.053   4.683   2.319  0.1672  1.0078  1.3011
    1SOL    MW4 5032   1.127   4.652   2.353  0.3916  0.2904  0.2029
    1SOL     OW 5033   0.881   0.102   2.251 -0.1132  0.0032 -0.0512
    1SOL    HW2 5034   0.892   0.189   2.288 -1.7733  0.1977  0.0202
    1SOL    HW3 5035   0.882   0.116   2.156  0.4962 -0.0292 -0.0554
    1SOL    MW4 5036   0.883   0.115   2.244 -0.2519  0.0246 -0.0427
    1SOL     OW 5037   0.904   0.352   2.384 -0.0160 -0.0940 -0.3586
    1SOL    HW2 5038   0.982   0.402   2.361 -0.0071 -0.3395 -0.8552
    1SOL    HW3 5039   0.831   0.405   2.352  0.0241 -0.7661 -1.5774
    1SOL    MW4 5040   0.905   0.365   2.377 -0.0095 -0.2150 -0.5851
    1SOL     OW 5041   1.134   0.481   2.286  0.3624 -0.1118 -0.3575
    1SOL    HW2 5042   1.208   0.426   2.313  1.5485  1.1325 -0.9780
    1SOL    HW3 5043   1.144   0.489   2.191 -1.9230 -1.8257 -0.7661
    1SOL    MW4 5044   1.145   0.475   2.277  0.2173 -0.1738 -0.4933
    1SOL     OW 5045   1.113   0.725   2.394 -0.3212  0.4319  0.3409
    1SOL    HW2 5046   1.032   0.759   2.357 -0.4826 -0.2928  0.0278
    1SOL    HW3 5047   1.128   0.643   2.349  0.7273  0.6803  0.2169
    1SOL    MW4 5048   1.105   0.719   2.383 -0.2041  0.3690  0.2830
    1SOL     OW 5049   0.906   0.854   2.250  0.2744  0.3901  0.0756
    1SOL    HW2 5050   0.911   0.942   2.288 -0.3717  1.0982 -1.4641
    1SOL    HW3 5051   0.823   0.818   2.282 -0.1533  0.8933 -0.4620
    1SOL    MW4 5052   0.896   0.861   2.259  0.1327  0.5500 -0.1984
    1SOL     OW 5053   0.920   1.125   2.334  0.0010 -0.0335  0.0295
    1SOL    HW2 5054   1.001   1.152   2.290 -0.1070  1.1664  0.5534
    1SOL    HW3 5055   0.851   1.177   2.293 -0.0568  1.3123  1.7754
    1SOL    MW4 5056   0.922   1.135   2.323 -0.0209  0.3023  0.3288
    1SOL     OW 5057   1.117   1.300   2.247  0.3132  0.2445 -0.0346
    1SOL    HW2 5058   1.198   1.266   2.287 -0.0655 -1.6135 -0.7781
    1SOL    HW3 5059   1.131   1.293   2.153 -1.3984 -1.9051 -0.1829
    1SOL    MW4 5060   1.129   1.294   2.240  0.0374 -0.2843 -0.1523
    1SOL     OW 5061   1.137   1.554   2.348  0.5172 -0.1608 -0.2620
    1SOL    HW2 5062   1.064   1.611   2.322  1.2731  0.5643 -0.8102
    1SOL    HW3 5063   1.115   1.469   2.309  0.0795  0.1132 -0.6205
    1SOL    MW4 5064   1.124   1.550   2.339  0.5592 -0.0291 -0.3815
    1SOL     OW 5065   0.913   1.683   2.243 -0.1790  0.0394  0.4200
    1SOL    HW2 5066   0.917   1.776   2.265  0.9438 -0.2813  1.6475
    1SOL    HW3 5067   0.894   1.681   2.150  1.5195  1.5330  0.0159
    1SOL    MW4 5068   0.911   1.695   2.234  0.1933  0.1942  0.5286
    1SOL     OW 5069   0.935   1.948   2.324 -0.2410 -0.3586  0.3440
    1SOL    HW2 5070   0.931   1.952   2.420 -0.3165 -0.7922  0.3584
    1SOL    HW3 5071   1.002   2.013   2.301 -2.1519  1.7480  0.5073
    1SOL    MW4 5072   0.944   1.957   2.334 -0.5031 -0.1379  0.3676
    1SOL     OW 5073   1.147   2.105   2.238  0.3111  0.2762  0.5713
    1SOL    HW2 5074   1.207   2.038   2.270  0.9178  1.1534  1.3249
    1SOL    HW3 5075   1.147   2.094   2.143  0.5892 -0.6272  0.6724
    1SOL    MW4 5076   1.155   2.095   2.230  0.4280  0.2728  0.6843
    1SOL     OW 5077   1.148   2.351   2.344 -0.2444 -0.3123  0.6058
    1SOL    HW2 5078   1.220   2.390   2.296  0.6520 -0.9639  1.4074
    1SOL    HW3 5079   1.147   2.259   2.317 -2.0392  0.1134 -0.9084
    1SOL    MW4 5080   1.157   2.344   2.334 -0.3630 -0.3421  0.5119
    1SOL     OW 5081   0.901   2.436   2.239  0.2908 -0.1928  0.1469
    1SOL    HW2 5082   0.987   2.417   2.277  1.4689  2.2197 -1.2218
    1SOL    HW3 5083   0.916   2.437   2.145 -1.3307 -0.1034 -0.1213
    1SOL    MW4 5084   0.915   2.434   2.232  0.2322  0.1371 -0.0691
    1SOL     OW 5085   0.880   2.696   2.340 -0.3458 -0.1289  0.0523
    1SOL    HW2 5086   0.871   2.689   2.435  0.6072  1.3475  0.2786
    1SOL    HW3 5087   0.870   2.607   2.308 -0.0096 -0.7450  1.6020
    1SOL    MW4 5088   0.878   2.684   2.348 -0.1757 -0.0155  0.2866
    1SOL     OW 5089   1.089   2.868   2.255  0.1118  0.3967 -0.1195
    1SOL    HW2 5090   1.164   2.823   2.292  0.6687  0.3247 -1.3199
    1SOL    HW3 5091   1.014   2.817   2.283  0.7011 -0.9977 -1.0584
    1SOL    MW4 5092   1.089   2.856   2.263  0.2630  0.2031 -0.4017
    1SOL     OW 5093   1.097   3.120   2.341 -0.1016 -0.2177 -0.0961
    1SOL    HW2 5094   1.014   3.161   2.316  0.0156  0.3717  0.4701
    1SOL    HW3 5095   1.091   3.031   2.307 -0.8043 -0.0555 -0.4015
    1SOL    MW4 5096   1.085   3.114   2.334 -0.1788 -0.1185 -0.0618
    1SOL     OW 5097   0.856   3.278   2.245 -0.3306 -0.1405 -0.1051
    1SOL    HW2 5098   0.872   3.358   2.295 -1.4757  1.2721 -1.9136
    1SOL    HW3 5099   0.789   3.231   2.294 -1.9035  1.5283 -0.6151
    1SOL    MW4 5100   0.850   3.283   2.258 -0.6892  0.2661 -0.4110
    1SOL     OW 5101   0.916   3.548   2.359  0.5022  0.2038  0.3831
    1SOL    HW2 5102   0.901   3.527   2.451  0.2079  1.6274  0.6703
    1SOL    HW3 5103   0.829   3.568   2.324  0.7810  1.0565  0.1623
    1SOL    MW4 5104   0.903   3.548   2.367  0.5001  0.5043  0.3920
    1SOL     OW 5105   1.137   3.630   2.235 -0.4566 -0.6248  0.0635
    1SOL    HW2 5106   1.206   3.599   2.294 -0.2569 -1.7924 -0.7614
    1SOL    HW3 5107   1.056   3.601   2.275 -0.4183 -0.0292  0.5776
    1SOL    MW4 5108   1.136   3.622   2.248 -0.4253 -0.7005  0.0224
    1SOL     OW 5109   1.099   3.891   2.323  0.2817 -0.1477 -0.3202
    1SOL    HW2 5110   1.175   3.946   2.304  0.4825 -0.1520  0.4637
    1SOL    HW3 5111   1.117   3.810   2.275 -1.0184  1.2023 -3.2203
    1SOL    MW4 5112   1.111   3.887   2.314  0.1366  0.0298 -0.5994
    1SOL     OW 5113   0.871   4.014   2.260  0.1763  0.1618  0.0176
    1SOL    HW2 5114   0.955   3.977   2.288  1.2612  1.6332 -1.2009
    1SOL    HW3 5115   0.807   3.948   2.285  1.6766 -0.9244  1.1158
    1SOL    MW4 5116   0.874   4.000   2.267  0.5174  0.2124  0.0019
    1SOL     OW 5117   0.879   4.280   2.369  0.1426  0.5211  0.1531
    1SOL    HW2 5118   0.881   4.195   2.325  2.0189  0.8998 -0.5077
    1SOL    HW3 5119   0.805   4.326   2.330 -1.2364 -0.9950  0.9076
    1SOL    MW4 5120   0.869   4.275   2.358  0.2083  0.3715  0.1655
    1SOL     OW 5121   1.088   4.402   2.239 -0.2302  0.0446 -0.2745
    1SOL    HW2 5122   1.023   4.366   2.299 -0.0533 -1.5642 -1.0148
    1SOL    HW3 5123   1.105   4.490   2.271  0.2900 -0.9771  2.3769
    1SOL    MW4 5124   1.082   4.409   2.251 -0.1383 -0.3023 -0.0226
    1SOL     OW 5125   1.588   4.594   2.410 -0.1576  0.1460 -0.6056
    1SOL    HW2 5126   1.677   4.618   2.385 -0.3514  0.9018 -0.5702
    1SOL    HW3 5127   1.532   4.647   2.354 -0.5925  0.5178  0.1802
    1SOL    MW4 5128   1.593   4.604   2.399 -0.2407  0.2952 -0.4976
    1SOL     OW 5129   1.398   0.070   2.265  0.5322 -0.8781 -0.0435
    1SOL    HW2 5130   1.403   0.163   2.287  0.1684 -0.7565 -0.4703
    1SOL    HW3 5131   1.313   0.042   2.299 -0.2021 -0.6008 -1.6137
    1SOL    MW4 5132   1.387   0.079   2.272  0.3873 -0.8255 -0.3068
    1SOL     OW 5133   1.347   0.334   2.363  0.2392  0.2097 -0.2809
    1SOL    HW2 5134   1.327   0.338   2.457  1.3775 -2.3329  0.1159
    1SOL    HW3 5135   1.423   0.390   2.352  0.4839  0.0308  0.4588
    1SOL    MW4 5136   1.354   0.342   2.374  0.4216 -0.1494 -0.1309
    1SOL     OW 5137   1.565   0.491   2.302  0.4823 -0.0260  0.2031
    1SOL    HW2 5138   1.644   0.443   2.326  1.3658  1.2700 -0.1069
    1SOL    HW3 5139   1.571   0.503   2.208 -1.1514 -1.7934 -0.1693
    1SOL    MW4 5140   1.576   0.486   2.293  0.3833 -0.0882  0.1130
    1SOL     OW 5141   1.556   0.771   2.346 -0.0266 -0.4475 -0.3952
    1SOL    HW2 5142   1.633   0.801   2.298  1.8391 -0.0032  2.7581
    1SOL    HW3 5143   1.562   0.676   2.345 -0.0713 -0.4462 -1.1173
    1SOL    MW4 5144   1.567   0.763   2.339  0.2137 -0.3888 -0.0746
    1SOL     OW 5145   1.297   0.887   2.265  0.2180  0.0187 -0.1454
    1SOL    HW2 5146   1.376   0.841   2.294  0.9454  1.0339 -0.5073
    1SOL    HW3 5147   1.225   0.834   2.299  1.0575 -0.1953  1.3240
    1SOL    MW4 5148   1.298   0.874   2.273  0.4247  0.1245  0.0007
    1SOL     OW 5149   1.323   1.146   2.366 -0.0251 -0.1744  0.4316
    1SOL    HW2 5150   1.328   1.136   2.461 -0.1537 -1.2876  0.3273
    1SOL    HW3 5151   1.304   1.058   2.333 -0.3422  0.2679 -0.5998
    1SOL    MW4 5152   1.321   1.133   2.374 -0.0840 -0.2630  0.2816
    1SOL     OW 5153   1.554   1.261   2.289 -0.6332  0.3873  0.4532
    1SOL    HW2 5154   1.476   1.208   2.305  0.0520 -0.9175 -0.4754
    1SOL    HW3 5155   1.556   1.275   2.195  0.5509 -0.0330  0.4105
    1SOL    MW4 5156   1.544   1.256   2.279 -0.3865  0.1597  0.3252
    1SOL     OW 5157   1.555   1.537   2.367 -0.2342 -0.0562  0.2480
    1SOL    HW2 5158   1.635   1.577   2.333 -1.2182  0.6149 -1.3498
    1SOL    HW3 5159   1.565   1.443   2.350  0.3631 -0.0234  0.4101
    1SOL    MW4 5160   1.567   1.530   2.360 -0.2851  0.0367  0.0584
    1SOL     OW 5161   1.359   1.669   2.231 -0.1980 -0.5451  0.3031
    1SOL    HW2 5162   1.425   1.653   2.298 -0.9934  2.1554  1.8102
    1SOL    HW3 5163   1.283   1.618   2.259  0.3805 -1.6517 -0.0936
    1SOL    MW4 5164   1.358   1.660   2.243 -0.2266 -0.3347  0.4497
    1SOL     OW 5165   1.339   1.925   2.319 -0.2246  0.0208 -0.2991
    1SOL    HW2 5166   1.413   1.970   2.276  1.6069 -1.0338  1.6393
    1SOL    HW3 5167   1.339   1.838   2.280  1.5154 -0.9765  1.8487
    1SOL    MW4 5168   1.349   1.920   2.308  0.2466 -0.2499  0.2401
    1SOL     OW 5169   1.552   2.057   2.199 -0.3157 -0.3519  0.3721
    1SOL    HW2 5170   1.625   2.001   2.226  0.6107  0.8960  0.4786
    1SOL    HW3 5171   1.551   2.052   2.103  0.1109 -0.1179  0.3563
    1SOL    MW4 5172   1.561   2.049   2.190 -0.1371 -0.1562  0.3841
    1SOL     OW 5173   1.556   2.320   2.311  0.1639  0.0621 -0.2071
    1SOL    HW2 5174   1.537   2.309   2.404 -1.8594  0.4973 -0.5527
    1SOL    HW3 5175   1.549   2.233   2.274  0.5503 -0.0436 -0.0373
    1SOL    MW4 5176   1.553   2.307   2.319 -0.0520  0.1051 -0.2303
    1SOL     OW 5177   1.357   2.483   2.206  0.5022  0.3394 -0.0097
    1SOL    HW2 5178   1.432   2.431   2.234  0.8481  0.8279 -0.0388
    1SOL    HW3 5179   1.351   2.469   2.112  0.5144  0.2502  0.0028
    1SOL    MW4 5180   1.366   2.474   2.197  0.5494  0.3920 -0.0119
    1SOL     OW 5181   1.302   2.726   2.364 -0.2926  0.2794 -0.3498
    1SOL    HW2 5182   1.388   2.765   2.346  0.1135 -0.4064  0.0682
    1SOL    HW3 5183   1.307   2.639   2.324  0.1695 -0.7836  1.9404
    1SOL    MW4 5184   1.314   2.719   2.356 -0.1782  0.0484  0.0079
    1SOL     OW 5185   1.540   2.852   2.299  0.0357  0.1450  0.0913
    1SOL    HW2 5186   1.545   2.947   2.314  2.7700 -0.0084  0.5097
    1SOL    HW3 5187   1.545   2.842   2.204  1.6204  0.3670  0.1382
    1SOL    MW4 5188   1.541   2.864   2.289  0.6056  0.1543  0.1526
    1SOL     OW 5189   1.554   3.124   2.356 -0.2804 -0.3016 -0.0534
    1SOL    HW2 5190   1.546   3.125   2.451  0.0263 -0.2497 -0.0273
    1SOL    HW3 5191   1.471   3.159   2.324 -0.2466  0.0083  0.2004
    1SOL    MW4 5192   1.542   3.128   2.364 -0.2354 -0.2537 -0.0162
    1SOL     OW 5193   1.324   3.244   2.238 -0.2479 -0.0928  0.1555
    1SOL    HW2 5194   1.239   3.210   2.266 -0.8232 -0.0425 -1.4895
    1SOL    HW3 5195   1.322   3.239   2.143  1.0979  1.1117  0.0457
    1SOL    MW4 5196   1.312   3.239   2.229 -0.1462  0.0727 -0.0761
    1SOL     OW 5197   1.347   3.506   2.366  0.2422 -0.1760  0.0411
    1SOL    HW2 5198   1.335   3.498   2.461  1.6282 -1.4383  0.1191
    1SOL    HW3 5199   1.339   3.417   2.333  0.0956  0.2117 -1.0049
    1SOL    MW4 5200   1.344   3.493   2.374  0.4058 -0.2913 -0.0868
    1SOL     OW 5201   1.546   3.638   2.220  0.3413  0.0167  0.4240
    1SOL    HW2 5202   1.553   3.726   2.258 -0.0168  0.6218 -0.8506
    1SOL    HW3 5203   1.479   3.594   2.273  0.9805  0.2970  1.4695
    1SOL    MW4 5204   1.538   3.644   2.232  0.3785  0.1335  0.3936
    1SOL     OW 5205   1.569   3.876   2.350  0.7010 -0.1151  0.0904
    1SOL    HW2 5206   1.562   3.871   2.445 -0.1988  0.0213  0.0305
    1SOL    HW3 5207   1.658   3.909   2.334  1.0165 -0.6004  0.8680
    1SOL    MW4 5208   1.580   3.880   2.360  0.6238 -0.1609  0.1848
    1SOL     OW 5209   1.340   4.002   2.229  0.0527  0.1971 -0.1412
    1SOL    HW2 5210   1.417   3.961   2.268  1.7400  1.5023 -2.0217
    1SOL    HW3 5211   1.354   3.995   2.135 -0.9970  2.5571 -0.4973
    1SOL    MW4 5212   1.352   3.995   2.222  0.1370  0.6809 -0.4361
    1SOL     OW 5213   1.331   4.268   2.310  0.3326  0.2365 -0.0075
    1SOL    HW2 5214   1.324   4.176   2.285 -1.5929  0.6212 -0.9778
    1SOL    HW3 5215   1.249   4.307   2.282  1.2017  2.3101  0.2225
    1SOL    MW4 5216   1.320   4.261   2.303  0.1932  0.5612 -0.1051
    1SOL     OW 5217   1.589   4.379   2.244  0.3447 -0.3744 -0.5789
    1SOL    HW2 5218   1.500   4.348   2.260 -0.3904  1.4941 -0.8621
    1SOL    HW3 5219   1.602   4.448   2.309  1.5397 -0.5556 -0.6243
    1SOL    MW4 5220   1.579   4.384   2.255  0.4054 -0.1521 -0.6220
    1SOL     OW 5221   2.001   4.635   2.382  0.5310  0.0950  0.5621
    1SOL    HW2 5222   2.079   4.674   2.342 -0.3011 -0.2412 -1.4359
    1SOL    HW3 5223   1.998   4.546   2.348 -1.2599  0.4071 -0.1586
    1SOL    MW4 5224   2.011   4.629   2.372  0.1850  0.0925  0.2036
    1SOL     OW 5225   1.781   0.075   2.267 -0.3147 -0.1155  0.1460
    1SOL    HW2 5226   1.771   0.165   2.298 -2.6326  0.1089 -1.1424
    1SOL    HW3 5227   1.868   0.049   2.297  0.3123  2.4747  0.7187
    1SOL    MW4 5228   1.791   0.084   2.275 -0.5378  0.2559  0.0517
    1SOL     OW 5229   1.800   0.348   2.350 -0.3620  0.3294  0.2741
    1SOL    HW2 5230   1.814   0.355   2.444 -0.6349  0.9654  0.2704
    1SOL    HW3 5231   1.875   0.391   2.311  0.2740 -0.8365  0.1771
    1SOL    MW4 5232   1.812   0.354   2.357 -0.3141  0.2595  0.2608
    1SOL     OW 5233   2.022   0.506   2.253 -0.0729 -0.1039  0.1363
    1SOL    HW2 5234   2.005   0.593   2.289  1.3610  0.1762  0.1679
    1SOL    HW3 5235   2.022   0.518   2.158  0.9363  0.0942  0.1582
    1SOL    MW4 5236   2.020   0.519   2.245  0.2496 -0.0408  0.1433
    1SOL     OW 5237   1.983   0.746   2.364  0.0301 -0.0977  0.2942
    1SOL    HW2 5238   2.069   0.786   2.356  0.0081 -0.2132 -0.5574
    1SOL    HW3 5239   1.961   0.753   2.457  0.3400  1.2254  0.2720
    1SOL    MW4 5240   1.991   0.752   2.375  0.0681  0.0617  0.1791
    1SOL     OW 5241   1.789   0.892   2.229 -0.1209 -0.1598  0.1849
    1SOL    HW2 5242   1.800   0.971   2.282 -0.3025 -0.4918  0.7147
    1SOL    HW3 5243   1.866   0.839   2.248  0.6910  0.4987 -1.2248
    1SOL    MW4 5244   1.800   0.895   2.238 -0.0378 -0.1167  0.0689
    1SOL     OW 5245   1.780   1.144   2.371 -0.6267  0.1126 -0.6623
    1SOL    HW2 5246   1.851   1.202   2.342  0.1043 -0.0423  0.7365
    1SOL    HW3 5247   1.701   1.183   2.336 -0.1876  2.2072  0.5895
    1SOL    MW4 5248   1.779   1.157   2.362 -0.4723  0.3685 -0.3126
    1SOL     OW 5249   2.028   1.269   2.284  0.4001 -0.5589  0.2296
    1SOL    HW2 5250   2.047   1.351   2.327  1.4707 -0.3321 -0.6380
    1SOL    HW3 5251   2.083   1.204   2.329  1.8712 -0.2386 -1.0647
    1SOL    MW4 5252   2.038   1.271   2.295  0.7355 -0.4867 -0.0556
    1SOL     OW 5253   2.031   1.544   2.410  0.2060 -0.2646  0.1231
    1SOL    HW2 5254   1.997   1.529   2.498  0.4307 -1.7113 -0.0195
    1SOL    HW3 5255   1.955   1.574   2.360 -0.1015 -0.2055  0.6233
    1SOL    MW4 5256   2.016   1.546   2.415  0.1953 -0.4475  0.1705
    1SOL     OW 5257   1.800   1.623   2.271  0.0332  0.4898  0.6951
    1SOL    HW2 5258   1.774   1.714   2.284 -3.7535 -0.4651  0.4296
    1SOL    HW3 5259   1.793   1.609   2.177  1.7085  0.2218  0.6063
    1SOL    MW4 5260   1.795   1.633   2.260 -0.2455  0.3284  0.6483
    1SOL     OW 5261   1.765   1.906   2.329  0.3066 -0.1684  0.1717
    1SOL    HW2 5262   1.768   1.917   2.424  0.1257  0.0362  0.1544
    1SOL    HW3 5263   1.836   1.962   2.297  0.8367 -0.8066  0.2356
    1SOL    MW4 5264   1.774   1.915   2.337  0.3526 -0.2257  0.1779
    1SOL     OW 5265   1.977   2.052   2.231  0.5835 -0.2100 -0.0791
    1SOL    HW2 5266   2.058   2.008   2.260 -1.1373 -3.6535 -0.2155
    1SOL    HW3 5267   1.986   2.056   2.135  1.3294  0.9960  0.0297
    1SOL    MW4 5268   1.989   2.047   2.222  0.4548 -0.5052 -0.0827
    1SOL     OW 5269   1.970   2.322   2.375 -0.6261  0.1979 -0.1176
    1SOL    HW2 5270   2.051   2.353   2.336 -0.1497  0.2046  0.8690
    1SOL    HW3 5271   1.960   2.233   2.341  0.0711  0.0057  0.1729
    1SOL    MW4 5272   1.979   2.314   2.365 -0.4711  0.1736  0.0508
    1SOL     OW 5273   1.770   2.466   2.229 -0.1593  0.5362 -0.0277
    1SOL    HW2 5274   1.836   2.414   2.275  0.8361  1.8722  0.0734
    1SOL    HW3 5275   1.689   2.416   2.240  0.6922 -0.7725  0.4388
    1SOL    MW4 5276   1.768   2.452   2.237  0.0844  0.5403  0.0472
    1SOL     OW 5277   1.773   2.728   2.369  0.2275  0.4013  0.6996
    1SOL    HW2 5278   1.773   2.641   2.330  1.0772 -0.4189  2.4314
    1SOL    HW3 5279   1.689   2.766   2.345  0.9570  0.2102 -2.4091
    1SOL    MW4 5280   1.762   2.722   2.361  0.4359  0.2677  0.5181
    1SOL     OW 5281   1.998   2.828   2.246  0.4637  0.3272  0.0177
    1SOL    HW2 5282   2.062   2.788   2.305 -0.0804  0.7198  0.8870
    1SOL    HW3 5283   1.914   2.791   2.274  0.3571 -0.5021 -1.3894
    1SOL    MW4 5284   1.995   2.818   2.258  0.3779  0.2697 -0.0532
    1SOL     OW 5285   2.008   3.090   2.388  0.0992  0.3368  0.2141
    1SOL    HW2 5286   2.093   3.109   2.347  0.1008  1.1283  0.5835
    1SOL    HW3 5287   1.986   3.002   2.356  1.4770 -0.2516  0.8116
    1SOL    MW4 5288   2.017   3.081   2.378  0.2813  0.3636  0.3414
    1SOL     OW 5289   1.796   3.244   2.276 -0.2360  0.1777  1.0613
    1SOL    HW2 5290   1.866   3.197   2.321 -1.0292 -1.9162  0.2022
    1SOL    HW3 5291   1.716   3.195   2.299 -1.0356  0.8627 -0.1807
    1SOL    MW4 5292   1.795   3.231   2.285 -0.4462 -0.0083  0.7842
    1SOL     OW 5293   1.788   3.508   2.346  0.0873 -0.0076 -0.8008
    1SOL    HW2 5294   1.781   3.415   2.326  0.2227 -0.1164 -0.3538
    1SOL    HW3 5295   1.717   3.549   2.297  0.3417 -0.2812 -1.4062
    1SOL    MW4 5296   1.778   3.501   2.337  0.1388 -0.0582 -0.8216
    1SOL     OW 5297   2.049   3.583   2.267  0.1730 -0.2212 -0.0653
    1SOL    HW2 5298   1.964   3.565   2.307  0.3443  1.6996  1.2746
    1SOL    HW3 5299   2.031   3.590   2.173 -0.8674 -1.3524  0.0470
    1SOL    MW4 5300   2.035   3.582   2.260  0.0582 -0.1171  0.1261
    1SOL     OW 5301   2.071   3.864   2.365 -0.3507 -0.4896  0.4299
    1SOL    HW2 5302   2.081   3.866   2.460  0.6369 -0.6735  0.3274
    1SOL    HW3 5303   2.090   3.773   2.341 -1.6912 -0.7217  0.1708
    1SOL    MW4 5304   2.075   3.852   2.375 -0.3974 -0.5445  0.3822
    1SOL     OW 5305   1.806   3.971   2.244 -0.4206  0.3559 -0.2468
    1SOL    HW2 5306   1.887   3.926   2.267  0.1793  1.2312 -0.5938
    1SOL    HW3 5307   1.810   3.980   2.149 -0.7113  0.7913 -0.2190
    1SOL    MW4 5308   1.817   3.967   2.234 -0.3798  0.5291 -0.2887
    1SOL     OW 5309   1.805   4.221   2.363  0.2003 -0.3829  0.2446
    1SOL    HW2 5310   1.797   4.141   2.312 -0.0489 -0.0833 -0.1933
    1SOL    HW3 5311   1.729   4.274   2.338 -0.8528 -0.9224  2.1799
    1SOL    MW4 5312   1.794   4.218   2.353  0.0284 -0.4148  0.4420
    1SOL     OW 5313   1.990   4.393   2.230 -0.3637  0.0197 -0.0297
    1SOL    HW2 5314   1.938   4.320   2.263 -1.9180  1.1925  0.1868
    1SOL    HW3 5315   1.987   4.383   2.135  0.9655 -1.2237  0.0468
    1SOL    MW4 5316   1.982   4.382   2.222 -0.3934  0.0100  0.0088
    1SOL     OW 5317   2.465   0.015   2.358 -0.2616  0.0916  0.3381
    1SOL    HW2 5318   2.545   0.060   2.331 -0.2928 -0.0504 -0.0031
    1SOL    HW3 5319   2.477  -0.075   2.327 -1.0668  0.3633 -0.7914
    1SOL    MW4 5320   2.477   0.009   2.350 -0.3719  0.1092  0.1440
    1SOL     OW 5321   2.209   0.131   2.291 -0.2650 -0.2900  0.2734
    1SOL    HW2 5322   2.208   0.219   2.329 -1.6148 -0.8082  1.4906
    1SOL    HW3 5323   2.296   0.097   2.311  0.4030  0.9035 -0.5480
    1SOL    MW4 5324   2.220   0.138   2.299 -0.3548 -0.2009  0.3254
    1SOL     OW 5325   2.221   0.390   2.415  0.2826  0.2732  0.0714
    1SOL    HW2 5326   2.162   0.447   2.366  0.7530  0.3941 -0.3732
    1SOL    HW3 5327   2.306   0.401   2.371  0.7144  0.3811  0.9163
    1SOL    MW4 5328   2.225   0.399   2.402  0.4020  0.3034  0.1240
    1SOL     OW 5329   2.485   0.448   2.310  0.2662  0.1135 -0.3372
    1SOL    HW2 5330   2.557   0.392   2.337  1.2465  1.2776 -0.5169
    1SOL    HW3 5331   2.498   0.460   2.216 -2.1040 -2.4424 -1.0869
    1SOL    MW4 5332   2.496   0.442   2.301  0.0827 -0.0702 -0.4601
    1SOL     OW 5333   2.462   0.724   2.406 -0.1987  0.1243 -0.3342
    1SOL    HW2 5334   2.514   0.790   2.361 -0.1509 -0.3746 -1.0135
    1SOL    HW3 5335   2.486   0.641   2.364 -1.1920 -0.1665 -0.3401
    1SOL    MW4 5336   2.472   0.721   2.395 -0.3238  0.0201 -0.4246
    1SOL     OW 5337   2.232   0.854   2.317 -0.5207  0.3824  0.5681
    1SOL    HW2 5338   2.234   0.943   2.351  1.1206  0.7324 -0.3916
    1SOL    HW3 5339   2.308   0.811   2.355 -0.6121 -0.2415  0.0647
    1SOL    MW4 5340   2.242   0.860   2.326 -0.3159  0.3462  0.3753
    1SOL     OW 5341   2.247   1.141   2.398 -0.3387  0.1625  0.4993
    1SOL    HW2 5342   2.330   1.175   2.367 -0.5598  0.7559  0.5476
    1SOL    HW3 5343   2.243   1.165   2.490 -0.3050 -0.3773  0.6459
    1SOL    MW4 5344   2.257   1.149   2.406 -0.3633  0.1695  0.5250
    1SOL     OW 5345   2.467   1.242   2.295  0.3257 -0.1809  0.1530
    1SOL    HW2 5346   2.548   1.201   2.326  0.7000  0.0853 -0.4615
    1SOL    HW3 5347   2.472   1.332   2.326 -0.3891 -0.5219  1.3039
    1SOL    MW4 5348   2.478   1.248   2.303  0.2811 -0.1907  0.2236
    1SOL     OW 5349   2.483   1.510   2.360 -0.5764 -0.0855  0.2232
    1SOL    HW2 5350   2.461   1.518   2.453 -0.5361  0.2306  0.2057
    1SOL    HW3 5351   2.563   1.561   2.350 -0.3064 -0.5287  0.1131
    1SOL    MW4 5352   2.491   1.518   2.371 -0.5357 -0.1023  0.2062
    1SOL     OW 5353   2.252   1.663   2.278  0.0169  0.0144  0.0919
    1SOL    HW2 5354   2.332   1.625   2.316 -0.5781 -0.9115  0.4444
    1SOL    HW3 5355   2.181   1.620   2.326 -0.6914  0.8365 -0.2212
    1SOL    MW4 5356   2.254   1.652   2.290 -0.1550  0.0006  0.0973
    1SOL     OW 5357   2.220   1.939   2.315  0.2914  0.1487 -0.0112
    1SOL    HW2 5358   2.290   1.994   2.282  0.8300 -0.7590 -0.3993
    1SOL    HW3 5359   2.261   1.853   2.329 -0.6370 -0.2797  0.1513
    1SOL    MW4 5360   2.235   1.935   2.313  0.2401 -0.0275 -0.0410
    1SOL     OW 5361   2.443   2.093   2.273 -0.1712  0.2187  0.4221
    1SOL    HW2 5362   2.506   2.031   2.311 -0.1987 -0.3184 -0.3823
    1SOL    HW3 5363   2.468   2.097   2.181 -0.4921  1.0273  0.3755
    1SOL    MW4 5364   2.455   2.085   2.266 -0.2172  0.2546  0.3097
    1SOL     OW 5365   2.390   2.334   2.410  0.0161  0.7257  0.1291
    1SOL    HW2 5366   2.451   2.394   2.367 -0.2577  0.3498 -0.7829
    1SOL    HW3 5367   2.417   2.247   2.381 -0.0865  0.4534  0.8242
    1SOL    MW4 5368   2.402   2.331   2.401 -0.0336  0.6402  0.1006
    1SOL     OW 5369   2.192   2.440   2.273 -0.0589 -0.1605 -0.1714
    1SOL    HW2 5370   2.197   2.526   2.315  0.9062 -0.0811 -0.4277
    1SOL    HW3 5371   2.265   2.391   2.311 -1.0386 -1.1171  0.5140
    1SOL    MW4 5372   2.202   2.445   2.284 -0.0608 -0.2763 -0.1147
    1SOL     OW 5373   2.218   2.702   2.397  0.3071  0.0881  0.4943
    1SOL    HW2 5374   2.221   2.712   2.492  1.5693 -1.1088  0.5996
    1SOL    HW3 5375   2.304   2.732   2.367 -0.0175  0.2805 -0.2577
    1SOL    MW4 5376   2.229   2.707   2.405  0.4306 -0.0443  0.4089
    1SOL     OW 5377   2.459   2.800   2.321  0.2094  0.3277 -0.2405
    1SOL    HW2 5378   2.518   2.733   2.355 -0.6421 -0.3586 -0.0836
    1SOL    HW3 5379   2.476   2.802   2.227  1.7172  1.3772  0.0371
    1SOL    MW4 5380   2.469   2.792   2.313  0.2959  0.3757 -0.1833
    1SOL     OW 5381   2.494   3.078   2.352 -0.1456  0.1179  0.2826
    1SOL    HW2 5382   2.568   3.114   2.302 -0.4541 -1.0645 -1.0197
    1SOL    HW3 5383   2.505   2.983   2.347 -0.6962 -0.0355  1.7083
    1SOL    MW4 5384   2.505   3.071   2.345 -0.2592 -0.0584  0.2990
    1SOL     OW 5385   2.243   3.174   2.262  0.0576 -0.4406  0.5832
    1SOL    HW2 5386   2.238   3.260   2.304 -0.1367  0.3191 -0.9964
    1SOL    HW3 5387   2.331   3.143   2.281  0.3543  0.3955  0.5730
    1SOL    MW4 5388   2.254   3.181   2.270  0.0713 -0.2301  0.3736
    1SOL     OW 5389   2.267   3.433   2.365  0.4030  0.0938  0.3734
    1SOL    HW2 5390   2.275   3.446   2.459  0.6230  0.0026  0.3673
    1SOL    HW3 5391   2.188   3.482   2.340  1.1830  1.3550  0.3600
    1SOL    MW4 5392   2.258   3.441   2.374  0.5348  0.2480  0.3710
    1SOL     OW 5393   2.481   3.576   2.266 -0.0908 -0.4457  0.0192
    1SOL    HW2 5394   2.484   3.656   2.318 -0.7050 -0.3591 -0.0797
    1SOL    HW3 5395   2.411   3.523   2.306  0.9735 -1.3675  0.7080
    1SOL    MW4 5396   2.472   3.579   2.278 -0.0315 -0.5560  0.0970
    1SOL     OW 5397   2.455   3.864   2.353  0.4328 -0.0183 -0.1823
    1SOL    HW2 5398   2.436   3.877   2.446  0.9400 -1.1985  0.0942
    1SOL    HW3 5399   2.396   3.924   2.308 -0.0964  0.2751  0.8878
    1SOL    MW4 5400   2.445   3.874   2.360  0.4299 -0.1354 -0.0045
    1SOL     OW 5401   2.269   4.048   2.262  0.1309  0.0302 -0.0126
    1SOL    HW2 5402   2.265   4.135   2.303  0.7165  0.5929 -1.1089
    1SOL    HW3 5403   2.188   4.005   2.288  0.3717  0.4733  1.5008
    1SOL    MW4 5404   2.258   4.054   2.270  0.2398  0.1631  0.0427
    1SOL     OW 5405   2.248   4.322   2.329  0.7077  0.2658 -0.0893
    1SOL    HW2 5406   2.216   4.316   2.419  2.4043  3.6008  0.8156
    1SOL    HW3 5407   2.171   4.346   2.277  0.2642  1.0772  0.9352
    1SOL    MW4 5408   2.234   4.325   2.334  0.8731  0.8130  0.1655
    1SOL     OW 5409   2.506   4.404   2.268  0.2224 -0.2146  0.0537
    1SOL    HW2 5410   2.569   4.332   2.277  0.6492  0.2344  0.7167
    1SOL    HW3 5411   2.424   4.369   2.303  0.2660 -0.5960 -0.2306
    1SOL    MW4 5412   2.504   4.390   2.274  0.2847 -0.2060  0.1037
    1SOL     OW 5413   2.912   4.605   2.355  0.7077 -0.1741  0.1357
    1SOL    HW2 5414   2.982   4.652   2.311  1.3702  0.3271  1.6923
    1SOL    HW3 5415   2.915   4.517   2.317  1.1949  0.2709 -0.8759
    1SOL    MW4 5416   2.921   4.599   2.344  0.8595 -0.0496  0.2074
    1SOL     OW 5417   2.710   0.089   2.240  0.1048 -0.2304  0.4122
    1SOL    HW2 5418   2.736   0.167   2.289 -0.6411 -0.1503  0.6983
    1SOL    HW3 5419   2.761   0.018   2.277  1.3831  0.2507 -0.3898
    1SOL    MW4 5420   2.720   0.090   2.251  0.1752 -0.1564  0.3440
    1SOL     OW 5421   2.734   0.335   2.372  0.2391 -0.0525 -0.1930
    1SOL    HW2 5422   2.725   0.347   2.467  0.3758 -0.3211 -0.1419
    1SOL    HW3 5423   2.782   0.412   2.343 -0.6616  0.5119 -0.1989
    1SOL    MW4 5424   2.739   0.346   2.381  0.1383 -0.0135 -0.1867
    1SOL     OW 5425   2.901   0.525   2.268  0.3149 -0.2879 -0.0270
    1SOL    HW2 5426   2.877   0.617   2.280 -0.3894 -0.5014  0.2137
    1SOL    HW3 5427   2.897   0.512   2.173 -0.6232 -0.3386  0.0103
    1SOL    MW4 5428   2.897   0.536   2.257  0.0980 -0.3228  0.0095
    1SOL     OW 5429   2.876   0.785   2.350 -0.3950 -0.0117  0.0860
    1SOL    HW2 5430   2.876   0.764   2.443 -0.9510 -0.8449 -0.0933
    1SOL    HW3 5431   2.788   0.819   2.333 -0.5339 -0.5588 -0.2884
    1SOL    MW4 5432   2.864   0.787   2.360 -0.4866 -0.1939  0.0129
    1SOL     OW 5433   2.642   0.905   2.290  0.0897 -0.5309 -0.1746
    1SOL    HW2 5434   2.657   0.996   2.316  0.4066 -0.6519  0.0749
    1SOL    HW3 5435   2.647   0.906   2.194  0.4938 -0.3569 -0.1508
    1SOL    MW4 5436   2.645   0.917   2.281  0.1848 -0.5239 -0.1385
    1SOL     OW 5437   2.706   1.147   2.402  0.5439 -0.2282  0.2742
    1SOL    HW2 5438   2.704   1.156   2.497  0.0921  1.3847  0.1259
    1SOL    HW3 5439   2.779   1.201   2.374  0.9068 -0.9968 -0.2710
    1SOL    MW4 5440   2.715   1.155   2.411  0.5322 -0.1167  0.1829
    1SOL     OW 5441   2.911   1.299   2.287 -0.0251 -0.0112  0.3077
    1SOL    HW2 5442   2.994   1.256   2.307  0.2333  0.7997  0.9768
    1SOL    HW3 5443   2.912   1.309   2.192 -0.4341 -2.1769  0.0431
    1SOL    MW4 5444   2.922   1.294   2.277 -0.0451 -0.1900  0.3612
    1SOL     OW 5445   2.928   1.576   2.394 -0.6521  0.0655 -0.2940
    1SOL    HW2 5446   2.932   1.585   2.489 -0.8047  0.9531 -0.3687
    1SOL    HW3 5447   2.919   1.481   2.379  2.0670 -0.3415  0.4677
    1SOL    MW4 5448   2.927   1.564   2.405 -0.3135  0.1289 -0.2031
    1SOL     OW 5449   2.683   1.691   2.271 -0.0634 -0.4958  0.1510
    1SOL    HW2 5450   2.772   1.660   2.286 -0.0310 -0.9973 -1.0639
    1SOL    HW3 5451   2.674   1.697   2.176 -1.6429 -1.4182  0.2109
    1SOL    MW4 5452   2.693   1.688   2.261 -0.2675 -0.6835 -0.0012
    1SOL     OW 5453   2.641   1.945   2.380 -0.1350  0.5442  0.0523
    1SOL    HW2 5454   2.639   1.947   2.476  1.6915  1.8503  0.0987
    1SOL    HW3 5455   2.653   1.853   2.358 -1.3180  0.1423  1.0563
    1SOL    MW4 5456   2.642   1.933   2.390 -0.0501  0.6635  0.1910
    1SOL     OW 5457   2.890   2.028   2.287  0.7425 -0.0944 -0.7333
    1SOL    HW2 5458   2.964   1.981   2.328  0.5146  0.4177  0.2811
    1SOL    HW3 5459   2.813   1.987   2.325  0.5107 -0.1515 -1.2648
    1SOL    MW4 5460   2.890   2.016   2.298  0.6816 -0.0346 -0.6697
    1SOL     OW 5461   2.861   2.292   2.349 -0.1587  0.0916 -0.3268
    1SOL    HW2 5462   2.892   2.297   2.439 -0.0434  0.4470 -0.3877
    1SOL    HW3 5463   2.873   2.200   2.325 -0.4158 -0.0520  0.0988
    1SOL    MW4 5464   2.867   2.280   2.358 -0.1774  0.1197 -0.2785
    1SOL     OW 5465   2.627   2.436   2.271 -0.2789  0.1373 -0.1115
    1SOL    HW2 5466   2.684   2.379   2.323 -0.9726  0.1318  0.6498
    1SOL    HW3 5467   2.628   2.397   2.184 -0.1885 -0.6441  0.2318
    1SOL    MW4 5468   2.634   2.423   2.266 -0.3586  0.0334  0.0343
    1SOL     OW 5469   2.667   2.667   2.424  0.5365  0.1499  0.1134
    1SOL    HW2 5470   2.733   2.719   2.378  0.5145  0.5267  0.5140
    1SOL    HW3 5471   2.665   2.584   2.376  0.1543  0.7224 -0.8775
    1SOL    MW4 5472   2.675   2.663   2.411  0.4828  0.2751  0.0353
    1SOL     OW 5473   2.870   2.827   2.273  0.1370 -0.0618  0.0128
    1SOL    HW2 5474   2.892   2.917   2.297  0.9059 -0.6336  1.5084
    1SOL    HW3 5475   2.888   2.823   2.179 -0.1369  1.4102 -0.1122
    1SOL    MW4 5476   2.876   2.838   2.264  0.2022  0.0572  0.1938
    1SOL     OW 5477   2.939   3.086   2.363  0.5359 -0.0760  0.6617
    1SOL    HW2 5478   2.924   3.095   2.457  0.3703 -1.5348  0.7750
    1SOL    HW3 5479   2.857   3.114   2.323  0.2588 -0.4180  0.9854
    1SOL    MW4 5480   2.926   3.091   2.370  0.4773 -0.3135  0.7193
    1SOL     OW 5481   2.717   3.189   2.252 -0.1154 -0.3909  0.2800
    1SOL    HW2 5482   2.706   3.273   2.297  0.3473 -0.2176  0.0693
    1SOL    HW3 5483   2.712   3.210   2.159  1.9265 -0.3111  0.1704
    1SOL    MW4 5484   2.715   3.203   2.245  0.2148 -0.3576  0.2377
    1SOL     OW 5485   2.691   3.431   2.373  0.1228 -0.1891 -0.1860
    1SOL    HW2 5486   2.760   3.484   2.332 -0.6703  0.0476 -1.2401
    1SOL    HW3 5487   2.609   3.473   2.345 -0.4557 -0.5467  0.9392
    1SOL    MW4 5488   2.689   3.444   2.363 -0.0579 -0.2050 -0.1767
    1SOL     OW 5489   2.909   3.550   2.259 -0.2140  0.4483  0.5634
    1SOL    HW2 5490   2.981   3.499   2.296  0.2344  0.9847  0.4416
    1SOL    HW3 5491   2.922   3.638   2.293 -0.2380  0.7756 -0.2690
    1SOL    MW4 5492   2.920   3.555   2.268 -0.1578  0.5622  0.4373
    1SOL     OW 5493   2.937   3.828   2.365 -0.2443  0.3474  0.2478
    1SOL    HW2 5494   2.934   3.822   2.461  2.5891  2.3986  0.5568
    1SOL    HW3 5495   2.872   3.894   2.343 -0.0685  0.7535  0.9097
    1SOL    MW4 5496   2.928   3.836   2.375  0.1528  0.6714  0.3757
    1SOL     OW 5497   2.726   3.974   2.264 -0.2443  0.3575  0.3330
    1SOL    HW2 5498   2.639   3.939   2.285 -0.5342  2.0014  1.9530
    1SOL    HW3 5499   2.721   3.994   2.170 -1.6031  0.3620  0.3924
    1SOL    MW4 5500   2.714   3.972   2.254 -0.4618  0.5751  0.5548
    1SOL     OW 5501   2.713   4.232   2.340  0.4195  0.2673 -0.1315
    1SOL    HW2 5502   2.701   4.226   2.434  1.1450 -1.6434 -0.1367
    1SOL    HW3 5503   2.718   4.141   2.310  0.8729  0.8510 -1.9158
    1SOL    MW4 5504   2.712   4.219   2.348  0.5751  0.0925 -0.3676
    1SOL     OW 5505   2.947   4.352   2.260 -0.1333  0.5200 -0.0836
    1SOL    HW2 5506   3.019   4.308   2.306  0.0680 -0.4250 -1.2800
    1SOL    HW3 5507   2.869   4.305   2.288  0.0207 -0.2424 -0.9258
    1SOL    MW4 5508   2.946   4.340   2.270 -0.0863  0.2947 -0.3526
    1SOL     OW 5509   3.323   4.622   2.339 -0.0221  0.3239  0.1990
    1SOL    HW2 5510   3.331   4.629   2.434  0.3591 -1.3533  0.2993
    1SOL    HW3 5511   3.406   4.657   2.306 -0.0763  0.7277  0.4770
    1SOL    MW4 5512   3.335   4.628   2.347  0.0210  0.1554  0.2487
    1SOL     OW 5513   3.109   0.099   2.238  0.2950 -0.1187 -0.0816
    1SOL    HW2 5514   3.103   0.193   2.254  1.1841 -0.1830  0.6457
    1SOL    HW3 5515   3.187   0.071   2.286  0.2416 -1.1649 -0.5834
    1SOL    MW4 5516   3.119   0.108   2.246  0.4053 -0.2652 -0.0520
    1SOL     OW 5517   3.109   0.361   2.322  0.2021  0.5179 -0.1185
    1SOL    HW2 5518   3.189   0.410   2.305  1.0997 -0.8237  0.1737
    1SOL    HW3 5519   3.039   0.416   2.286  1.2521  1.6681 -0.4290
    1SOL    MW4 5520   3.110   0.374   2.315  0.4592  0.4927 -0.1209
    1SOL     OW 5521   3.328   0.522   2.273 -0.1319 -0.2894 -0.4004
    1SOL    HW2 5522   3.413   0.489   2.304  0.4152  1.0309 -0.4855
    1SOL    HW3 5523   3.334   0.516   2.178 -1.0216 -2.3552 -0.3663
    1SOL    MW4 5524   3.340   0.517   2.265 -0.1771 -0.3878 -0.4072
    1SOL     OW 5525   3.335   0.768   2.401 -0.3100 -0.1223 -0.0140
    1SOL    HW2 5526   3.422   0.791   2.368  0.3791 -1.0593  1.0961
    1SOL    HW3 5527   3.320   0.679   2.370 -0.4912 -0.2875  0.5393
    1SOL    MW4 5528   3.345   0.759   2.393 -0.2429 -0.2677  0.2055
    1SOL     OW 5529   3.128   0.915   2.271 -0.7200 -0.4956 -0.2358
    1SOL    HW2 5530   3.197   0.858   2.307 -0.8629 -0.6582 -0.2207
    1SOL    HW3 5531   3.047   0.880   2.307 -0.8844 -0.7980 -0.8981
    1SOL    MW4 5532   3.127   0.902   2.281 -0.7606 -0.5569 -0.3214
    1SOL     OW 5533   3.149   1.171   2.380 -0.2048  0.1354 -0.3575
    1SOL    HW2 5534   3.233   1.201   2.346 -1.5370  0.8489 -3.1585
    1SOL    HW3 5535   3.142   1.080   2.350 -0.6630  0.2358 -0.5506
    1SOL    MW4 5536   3.159   1.163   2.372 -0.4408  0.2428 -0.7527
    1SOL     OW 5537   3.390   1.265   2.269  0.1892  0.1103 -0.1124
    1SOL    HW2 5538   3.471   1.226   2.302  0.1657 -0.1728 -0.3764
    1SOL    HW3 5539   3.380   1.347   2.317  0.4473 -0.0263  0.1725
    1SOL    MW4 5540   3.399   1.271   2.279  0.2201  0.0550 -0.1097
    1SOL     OW 5541   3.376   1.507   2.401 -0.0240 -0.0507 -0.5359
    1SOL    HW2 5542   3.380   1.532   2.493  1.9222 -0.8047 -0.4114
    1SOL    HW3 5543   3.304   1.560   2.365  0.3067  1.4769  1.0219
    1SOL    MW4 5544   3.367   1.517   2.408  0.2763  0.0513 -0.3142
    1SOL     OW 5545   3.170   1.650   2.271 -0.0985 -0.1690 -0.3541
    1SOL    HW2 5546   3.169   1.733   2.317  0.3700 -0.9179  1.0395
    1SOL    HW3 5547   3.081   1.615   2.281  0.5210 -1.2351  1.7043
    1SOL    MW4 5548   3.158   1.656   2.278  0.0451 -0.4084  0.1011
    1SOL     OW 5549   3.121   1.905   2.396 -0.0027  0.1218 -0.6781
    1SOL    HW2 5550   3.124   1.896   2.491  0.7399 -0.3351 -0.7446
    1SOL    HW3 5551   3.191   1.966   2.375 -2.0425  2.5538 -0.6745
    1SOL    MW4 5552   3.130   1.912   2.406 -0.1738  0.3825 -0.6862
    1SOL     OW 5553   3.351   2.044   2.277  0.1288  0.0520 -0.2085
    1SOL    HW2 5554   3.430   1.994   2.301 -0.4344 -1.3396 -1.1623
    1SOL    HW3 5555   3.355   2.051   2.182 -1.3462 -0.8507 -0.3631
    1SOL    MW4 5556   3.362   2.038   2.268 -0.1400 -0.2506 -0.3550
    1SOL     OW 5557   3.345   2.307   2.367 -0.4786 -0.4979 -0.3104
    1SOL    HW2 5558   3.263   2.348   2.339 -0.1821  0.6403  0.4724
    1SOL    HW3 5559   3.338   2.217   2.335 -1.0264  0.2083 -2.2796
    1SOL    MW4 5560   3.333   2.301   2.359 -0.5116 -0.2546 -0.4668
    1SOL     OW 5561   3.093   2.433   2.257  0.0542 -0.3525 -0.0622
    1SOL    HW2 5562   3.097   2.518   2.302 -0.5513 -0.5748  0.4198
    1SOL    HW3 5563   3.013   2.393   2.290 -0.1195 -0.7404 -0.9650
    1SOL    MW4 5564   3.083   2.439   2.268 -0.0486 -0.4332 -0.1178
    1SOL     OW 5565   3.128   2.703   2.345  0.0398 -0.1458 -0.4609
    1SOL    HW2 5566   3.110   2.695   2.439  0.1937  0.4706 -0.3722
    1SOL    HW3 5567   3.052   2.750   2.310  0.4681  0.5681 -0.4550
    1SOL    MW4 5568   3.115   2.708   2.353  0.1166  0.0298 -0.4482
    1SOL     OW 5569   3.384   2.789   2.276  0.1827 -0.6631  0.2142
    1SOL    HW2 5570   3.389   2.876   2.315 -0.7116  0.4803 -2.1129
    1SOL    HW3 5571   3.295   2.758   2.296  0.8132 -1.4730  1.8578
    1SOL    MW4 5572   3.373   2.796   2.284  0.1478 -0.6189  0.1240
    1SOL     OW 5573   3.369   3.047   2.345 -0.4368 -0.5674  0.0511
    1SOL    HW2 5574   3.447   3.089   2.310 -0.2355 -0.6051  0.4506
    1SOL    HW3 5575   3.296   3.100   2.311 -0.2403 -0.5543 -0.3483
    1SOL    MW4 5576   3.370   3.060   2.336 -0.3843 -0.5708  0.0510
    1SOL     OW 5577   3.171   3.215   2.239 -0.0978 -0.1321  0.5017
    1SOL    HW2 5578   3.159   3.298   2.284 -0.3422  0.3258 -0.4062
    1SOL    HW3 5579   3.106   3.157   2.277 -1.4219  0.7237 -0.4092
    1SOL    MW4 5580   3.161   3.218   2.250 -0.3049  0.0412  0.2618
    1SOL     OW 5581   3.136   3.453   2.363  0.3398  0.0925  0.0750
    1SOL    HW2 5582   3.138   3.445   2.458  0.8002 -0.5692  0.0120
    1SOL    HW3 5583   3.214   3.502   2.340 -0.9833  2.3240  0.2204
    1SOL    MW4 5584   3.146   3.458   2.372  0.2258  0.2995  0.0861
    1SOL     OW 5585   3.348   3.599   2.248 -0.1758  0.5052 -0.0724
    1SOL    HW2 5586   3.431   3.563   2.279 -1.5069 -0.8970  1.9728
    1SOL    HW3 5587   3.356   3.600   2.153  2.1614  0.3750  0.1077
    1SOL    MW4 5588   3.360   3.595   2.240 -0.0434  0.3028  0.2210
    1SOL     OW 5589   3.375   3.872   2.350  0.2800  0.0029  0.5007
    1SOL    HW2 5590   3.456   3.903   2.311 -0.6140  0.6338 -0.8836
    1SOL    HW3 5591   3.361   3.786   2.311 -0.5049  0.5416 -0.4032
    1SOL    MW4 5592   3.384   3.864   2.340  0.0584  0.1574  0.1988
    1SOL     OW 5593   3.132   3.980   2.239  0.0545 -0.3484 -0.9637
    1SOL    HW2 5594   3.215   3.950   2.276  0.0807  1.2594  0.3245
    1SOL    HW3 5595   3.068   3.915   2.269  0.8058 -1.5045 -1.8277
    1SOL    MW4 5596   3.135   3.967   2.248  0.1571 -0.2887 -0.9077
    1SOL     OW 5597   3.159   4.215   2.381  0.0531  0.2293  0.2256
    1SOL    HW2 5598   3.241   4.255   2.355  0.6683  0.0596  1.8608
    1SOL    HW3 5599   3.142   4.148   2.314  1.7537 -0.4125  0.4220
    1SOL    MW4 5600   3.167   4.211   2.369  0.3588  0.1221  0.4671
    1SOL     OW 5601   3.352   4.369   2.249 -0.3206  0.0647  0.5293
    1SOL    HW2 5602   3.340   4.457   2.282  0.0884 -0.0603  1.0071
    1SOL    HW3 5603   3.316   4.371   2.160  1.0493  1.0996 -0.0168
    1SOL    MW4 5604   3.346   4.381   2.241 -0.0858  0.1850  0.5202
    1SOL     OW 5605   3.787   4.667   2.327  0.9515 -0.1455 -0.4941
    1SOL    HW2 5606   3.791   4.672   2.422  0.9638 -0.0136 -0.5021
    1SOL    HW3 5607   3.864   4.715   2.297  1.2648 -0.6828 -0.5574
    1SOL    MW4 5608   3.797   4.674   2.336  0.9942 -0.1993 -0.5035
    1SOL     OW 5609   3.536   0.096   2.257  0.1355 -0.3900 -0.4963
    1SOL    HW2 5610   3.545   0.186   2.287  0.7176 -0.8384  0.7302
    1SOL    HW3 5611   3.624   0.058   2.269 -0.2438 -1.2754 -0.4761
    1SOL    MW4 5612   3.549   0.103   2.262  0.1624 -0.5659 -0.3319
    1SOL     OW 5613   3.566   0.365   2.346  0.0629  0.3802  0.1601
    1SOL    HW2 5614   3.580   0.339   2.437  0.8688 -0.5658 -0.2300
    1SOL    HW3 5615   3.651   0.397   2.317  0.1271 -0.4889 -0.6359
    1SOL    MW4 5616   3.579   0.366   2.355  0.1776  0.1407  0.0036
    1SOL     OW 5617   3.812   0.434   2.247  0.4623 -0.0356 -0.0232
    1SOL    HW2 5618   3.803   0.525   2.274  1.5406  0.2338 -0.5807
    1SOL    HW3 5619   3.818   0.437   2.152 -0.7283 -0.7911 -0.1338
    1SOL    MW4 5620   3.811   0.446   2.238  0.4478 -0.0997 -0.1113
    1SOL     OW 5621   3.838   0.708   2.345 -0.0119  0.1097 -0.1308
    1SOL    HW2 5622   3.856   0.715   2.439  0.4213  2.3502 -0.3372
    1SOL    HW3 5623   3.915   0.745   2.303 -0.6356  0.0561 -1.3390
    1SOL    MW4 5624   3.850   0.714   2.352 -0.0370  0.3983 -0.3173
    1SOL     OW 5625   3.586   0.830   2.299 -0.3368  0.0682 -0.3985
    1SOL    HW2 5626   3.667   0.783   2.320 -0.7739 -0.7417 -0.4977
    1SOL    HW3 5627   3.590   0.844   2.204  0.3485  1.2886 -0.1963
    1SOL    MW4 5628   3.597   0.826   2.289 -0.3040  0.1224 -0.3848
    1SOL     OW 5629   3.633   1.120   2.369  0.0921 -0.0018  0.0313
    1SOL    HW2 5630   3.634   1.127   2.464  0.9002 -1.2478  0.1442
    1SOL    HW3 5631   3.609   1.029   2.352 -0.5824  0.3547 -0.9663
    1SOL    MW4 5632   3.630   1.109   2.379  0.1101 -0.1191 -0.0856
    1SOL     OW 5633   3.845   1.276   2.226  0.3017 -0.5947 -0.2217
    1SOL    HW2 5634   3.838   1.360   2.272  0.7163  0.2871 -1.7385
    1SOL    HW3 5635   3.784   1.218   2.272  2.0031 -0.2593  2.5717
    1SOL    MW4 5636   3.836   1.280   2.238  0.5813 -0.4342 -0.0532
    1SOL     OW 5637   3.819   1.508   2.383  0.4231 -0.4361  0.3036
    1SOL    HW2 5638   3.831   1.513   2.478  0.6540  0.6555  0.2227
    1SOL    HW3 5639   3.729   1.536   2.369  0.7760  0.6025  0.0976
    1SOL    MW4 5640   3.809   1.512   2.394  0.5002 -0.1551  0.2658
    1SOL     OW 5641   3.580   1.647   2.293  0.6451 -0.4339 -0.3313
    1SOL    HW2 5642   3.507   1.598   2.331  0.4227  0.1564  0.0089
    1SOL    HW3 5643   3.571   1.633   2.199  0.5654 -1.0177 -0.2423
    1SOL    MW4 5644   3.569   1.639   2.286  0.6053 -0.4330 -0.2749
    1SOL     OW 5645   3.569   1.925   2.351  0.2120 -0.2373  0.2113
    1SOL    HW2 5646   3.653   1.961   2.323  0.3406  0.1450  1.0476
    1SOL    HW3 5647   3.577   1.830   2.337  0.7107 -0.1794  0.1002
    1SOL    MW4 5648   3.581   1.917   2.346  0.2947 -0.1792  0.3068
    1SOL     OW 5649   3.808   2.034   2.285 -0.0576 -0.1096  0.1233
    1SOL    HW2 5650   3.880   1.980   2.317 -0.5710 -0.9737 -0.1550
    1SOL    HW3 5651   3.812   2.025   2.189 -0.7882 -0.5200  0.1214
    1SOL    MW4 5652   3.818   2.025   2.276 -0.2217 -0.2778  0.0865
    1SOL     OW 5653   3.835   2.302   2.312 -0.4232 -0.3627 -0.5906
    1SOL    HW2 5654   3.744   2.325   2.294 -0.3485 -1.3821 -2.3471
    1SOL    HW3 5655   3.839   2.207   2.301  0.8898 -0.3091 -0.7125
    1SOL    MW4 5656   3.823   2.293   2.308 -0.2403 -0.4902 -0.8383
    1SOL     OW 5657   3.561   2.403   2.232 -0.1294 -0.5902 -0.1728
    1SOL    HW2 5658   3.472   2.386   2.263 -0.1401  0.8898  0.6630
    1SOL    HW3 5659   3.555   2.400   2.136 -1.0632 -0.5684 -0.1125
    1SOL    MW4 5660   3.549   2.400   2.223 -0.2542 -0.3920 -0.0541
    1SOL     OW 5661   3.594   2.641   2.384  0.0502  0.8190 -0.1476
    1SOL    HW2 5662   3.591   2.555   2.343 -0.7580  0.6911  0.1700
    1SOL    HW3 5663   3.514   2.685   2.354 -0.5982  0.6915  1.3543
    1SOL    MW4 5664   3.583   2.636   2.374 -0.1421  0.7851  0.0925
    1SOL     OW 5665   3.795   2.809   2.252 -0.0260  0.1053 -0.3718
    1SOL    HW2 5666   3.784   2.892   2.297 -0.2590 -0.5828  0.8335
    1SOL    HW3 5667   3.720   2.756   2.278 -1.0618  0.2557 -2.8449
    1SOL    MW4 5668   3.784   2.813   2.261 -0.1931  0.0343 -0.5393
    1SOL     OW 5669   3.773   3.055   2.361 -0.0880  0.5160 -0.3767
    1SOL    HW2 5670   3.763   3.087   2.450  0.4915 -1.2134  0.3165
    1SOL    HW3 5671   3.852   3.098   2.328 -0.5104  1.4389 -0.1910
    1SOL    MW4 5672   3.782   3.065   2.368 -0.0675  0.4096 -0.2606
    1SOL     OW 5673   3.579   3.210   2.238 -0.2235 -0.7345  0.6770
    1SOL    HW2 5674   3.563   3.295   2.278 -2.5401 -1.0148  0.3694
    1SOL    HW3 5675   3.652   3.174   2.289 -0.1193  0.8532  1.6828
    1SOL    MW4 5676   3.587   3.216   2.250 -0.5155 -0.5620  0.7689
    1SOL     OW 5677   3.568   3.454   2.345 -0.1154 -0.3050  0.0154
    1SOL    HW2 5678   3.580   3.458   2.440  0.2182  1.4406 -0.0714
    1SOL    HW3 5679   3.649   3.491   2.309 -0.9507  0.6720 -0.9054
    1SOL    MW4 5680   3.581   3.460   2.353 -0.1817  0.0544 -0.1175
    1SOL     OW 5681   3.819   3.573   2.263 -0.2162 -0.4566 -0.0480
    1SOL    HW2 5682   3.788   3.652   2.307 -0.8969 -0.9762  0.4156
    1SOL    HW3 5683   3.836   3.601   2.173  2.0810  0.8451  0.7313
    1SOL    MW4 5684   3.817   3.587   2.257 -0.0029 -0.3531  0.1161
    1SOL     OW 5685   3.807   3.831   2.368  0.1847 -0.0136 -0.2127
    1SOL    HW2 5686   3.799   3.841   2.462  0.1465  1.5814 -0.3798
    1SOL    HW3 5687   3.877   3.891   2.342  1.5081 -1.8155 -0.9603
    1SOL    MW4 5688   3.816   3.840   2.377  0.3543 -0.0410 -0.3331
    1SOL     OW 5689   3.612   3.968   2.224 -0.4231  0.4546 -0.6386
    1SOL    HW2 5690   3.610   4.052   2.270 -1.3484 -0.7467  1.5855
    1SOL    HW3 5691   3.684   3.919   2.265 -0.5005 -0.2010 -1.2708
    1SOL    MW4 5692   3.621   3.973   2.235 -0.5553  0.2093 -0.4287
    1SOL     OW 5693   3.570   4.212   2.350  0.1859 -0.0866  0.2926
    1SOL    HW2 5694   3.628   4.282   2.320 -0.3921  0.5569  0.6737
    1SOL    HW3 5695   3.483   4.240   2.322  0.0980 -1.2473 -0.6329
    1SOL    MW4 5696   3.566   4.225   2.342  0.0980 -0.1545  0.2205
    1SOL     OW 5697   3.785   4.375   2.255  0.4796  0.1378 -0.1302
    1SOL    HW2 5698   3.860   4.339   2.303  0.9606  1.4581  0.1364
    1SOL    HW3 5699   3.796   4.470   2.263 -1.4653  0.3369  0.2603
    1SOL    MW4 5700   3.797   4.383   2.262  0.2866  0.3381 -0.0436
    1SOL     OW 5701   4.240   4.625   2.328  0.3067  0.0357 -0.5123
    1SOL    HW2 5702   4.252   4.621   2.423 -1.2151 -0.0105 -0.3040
    1SOL    HW3 5703   4.320   4.666   2.296  1.0383 -0.3543  0.7408
    1SOL    MW4 5704   4.252   4.630   2.337  0.2027 -0.0215 -0.3195
    1SOL     OW 5705   4.028   0.099   2.243 -0.1191 -0.8618  0.4169
    1SOL    HW2 5706   4.043   0.188   2.274  0.6169 -0.4763 -1.0261
    1SOL    HW3 5707   4.098   0.048   2.283 -0.7594 -0.8800  1.5474
    1SOL    MW4 5708   4.039   0.104   2.252 -0.1068 -0.8133  0.3753
    1SOL     OW 5709   4.060   0.359   2.353  0.0273  0.2327 -0.2195
    1SOL    HW2 5710   4.119   0.419   2.307 -0.4222  1.9447  1.3599
    1SOL    HW3 5711   3.972   0.384   2.324 -0.1837  0.5875  0.6970
    1SOL    MW4 5712   4.056   0.370   2.343 -0.0601  0.5054  0.1099
    1SOL     OW 5713   4.247   0.482   2.183  0.1460 -0.2212 -0.0839
    1SOL    HW2 5714   4.251   0.562   2.235 -1.5410 -0.1437 -0.0480
    1SOL    HW3 5715   4.313   0.424   2.223  0.6578  0.7722  0.5210
    1SOL    MW4 5716   4.256   0.485   2.195 -0.0095 -0.0799  0.0005
    1SOL     OW 5717   4.277   0.705   2.350 -0.2335 -0.3682 -0.0939
    1SOL    HW2 5718   4.219   0.772   2.314  0.3327 -0.5992 -1.4568
    1SOL    HW3 5719   4.365   0.740   2.337 -0.0574 -0.0057  1.9944
    1SOL    MW4 5720   4.281   0.718   2.343 -0.1349 -0.3508  0.0019
    1SOL     OW 5721   4.066   0.851   2.255  0.3377 -0.1464 -0.0439
    1SOL    HW2 5722   4.054   0.941   2.284  1.2549 -0.1946  0.5186
    1SOL    HW3 5723   4.076   0.857   2.160  0.5510  0.3542  0.0117
    1SOL    MW4 5724   4.066   0.863   2.247  0.4873 -0.0868  0.0374
    1SOL     OW 5725   4.047   1.135   2.326 -0.0328  0.1383 -0.2284
    1SOL    HW2 5726   4.043   1.140   2.422 -1.7318  1.7650 -0.3563
    1SOL    HW3 5727   3.974   1.189   2.296 -0.3045 -1.3991 -2.4362
    1SOL    MW4 5728   4.037   1.143   2.335 -0.2923  0.1501 -0.5364
    1SOL     OW 5729   4.260   1.259   2.193 -0.0043  0.1929  0.4961
    1SOL    HW2 5730   4.183   1.210   2.221  0.8362 -1.8894 -0.7291
    1SOL    HW3 5731   4.335   1.210   2.227  0.8422  1.1172  0.0237
    1SOL    MW4 5732   4.260   1.246   2.201  0.2184  0.0401  0.2720
    1SOL     OW 5733   4.268   1.503   2.325  0.1756  0.0144  0.2862
    1SOL    HW2 5734   4.276   1.419   2.280 -0.5688 -0.3343  0.7994
    1SOL    HW3 5735   4.331   1.560   2.280  0.2829 -0.6543 -0.4284
    1SOL    MW4 5736   4.278   1.499   2.313  0.0920 -0.1198  0.2599
    1SOL     OW 5737   4.032   1.643   2.244 -0.4564  0.0731 -0.5185
    1SOL    HW2 5738   4.116   1.604   2.269 -0.5960 -0.5801 -1.0478
    1SOL    HW3 5739   3.967   1.595   2.296 -0.5021  0.5975 -0.0877
    1SOL    MW4 5740   4.035   1.631   2.254 -0.4811  0.0560 -0.5314
    1SOL     OW 5741   4.046   1.891   2.362 -0.3865 -0.5351  0.0756
    1SOL    HW2 5742   4.039   1.898   2.458  0.6264 -1.3677  0.2211
    1SOL    HW3 5743   4.023   1.800   2.343  1.2799 -0.8968 -0.2721
    1SOL    MW4 5744   4.042   1.880   2.372 -0.0329 -0.6926  0.0489
    1SOL     OW 5745   4.250   2.046   2.238 -0.5079  0.4060 -0.0399
    1SOL    HW2 5746   4.254   2.136   2.272 -0.1476  0.2436  0.3504
    1SOL    HW3 5747   4.173   2.008   2.282 -0.3397  0.3534  0.2107
    1SOL    MW4 5748   4.240   2.053   2.248 -0.4377  0.3777  0.0448
    1SOL     OW 5749   4.263   2.329   2.287 -0.5415 -0.4773  0.2379
    1SOL    HW2 5750   4.199   2.399   2.271 -0.0343  0.1548  0.9816
    1SOL    HW3 5751   4.346   2.365   2.256 -0.1748 -0.5390  1.1565
    1SOL    MW4 5752   4.265   2.343   2.281 -0.4263 -0.4020  0.4573
    1SOL     OW 5753   4.040   2.506   2.199  0.6237 -0.5927  0.2419
    1SOL    HW2 5754   4.033   2.589   2.246  1.4307 -0.4765  0.1665
    1SOL    HW3 5755   3.963   2.457   2.225 -1.5163  1.3688 -2.0756
    1SOL    MW4 5756   4.029   2.511   2.208  0.4478 -0.3188 -0.0739
    1SOL     OW 5757   4.045   2.728   2.346  0.1118 -0.1756 -0.1604
    1SOL    HW2 5758   4.057   2.735   2.441  0.1678 -0.2867 -0.1583
    1SOL    HW3 5759   3.957   2.763   2.330  0.6741  1.1817 -0.2523
    1SOL    MW4 5760   4.035   2.733   2.356  0.1936 -0.0110 -0.1721
    1SOL     OW 5761   4.275   2.819   2.239  0.3520  0.1202 -0.2334
    1SOL    HW2 5762   4.208   2.762   2.277 -0.2373  1.5334  0.9049
    1SOL    HW3 5763   4.358   2.773   2.256 -0.1400 -0.5808  0.3349
    1SOL    MW4 5764   4.277   2.805   2.246  0.2093  0.2143 -0.0081
    1SOL     OW 5765   4.255   3.088   2.334 -0.4058  0.0201 -0.3586
    1SOL    HW2 5766   4.257   3.000   2.295 -0.6116  0.1311 -0.6249
    1SOL    HW3 5767   4.337   3.129   2.305  0.5562 -0.7230  1.2855
    1SOL    MW4 5768   4.266   3.082   2.325 -0.3061 -0.0634 -0.1767
    1SOL     OW 5769   4.016   3.222   2.266  0.3179 -0.3069  0.3111
    1SOL    HW2 5770   4.022   3.306   2.312 -0.1514  0.2204 -0.5701
    1SOL    HW3 5771   4.100   3.180   2.281  0.4811  0.2304  0.9354
    1SOL    MW4 5772   4.028   3.228   2.274  0.2775 -0.1667  0.2770
    1SOL     OW 5773   4.052   3.475   2.381 -0.4512 -0.2610  0.0373
    1SOL    HW2 5774   4.119   3.538   2.352 -0.1924 -0.3491  0.4505
    1SOL    HW3 5775   3.972   3.504   2.336 -0.2962  0.2616  0.0855
    1SOL    MW4 5776   4.050   3.487   2.371 -0.3963 -0.2036  0.0982
    1SOL     OW 5777   4.270   3.609   2.260  0.0196 -0.1590 -0.3757
    1SOL    HW2 5778   4.263   3.696   2.299 -1.3496 -0.1247 -0.6552
    1SOL    HW3 5779   4.268   3.625   2.166  1.6022 -0.3663 -0.4530
    1SOL    MW4 5780   4.269   3.622   2.253  0.0482 -0.1819 -0.4227
    1SOL     OW 5781   4.245   3.866   2.351  0.3722  0.2919 -0.3353
    1SOL    HW2 5782   4.264   3.879   2.444  0.1869 -0.3067 -0.2156
    1SOL    HW3 5783   4.313   3.915   2.305  0.0791  1.1330  0.1195
    1SOL    MW4 5784   4.256   3.874   2.357  0.3095  0.3240 -0.2596
    1SOL     OW 5785   4.009   4.007   2.288 -0.0604 -0.1845  0.0253
    1SOL    HW2 5786   4.090   3.963   2.315  0.4047  0.6958  0.0808
    1SOL    HW3 5787   4.014   4.009   2.193  0.7553  1.2841  0.0807
    1SOL    MW4 5788   4.021   4.001   2.279  0.1082  0.1254  0.0401
    1SOL     OW 5789   4.030   4.275   2.353  0.1117 -0.1804 -0.2272
    1SOL    HW2 5790   4.110   4.312   2.316  0.5257 -0.9124 -0.0638
    1SOL    HW3 5791   4.027   4.185   2.320 -2.2340  0.7551 -2.7485
    1SOL    MW4 5792   4.040   4.268   2.344 -0.1431 -0.1540 -0.5381
    1SOL     OW 5793   4.263   4.353   2.243 -0.3254  0.1064 -0.1112
    1SOL    HW2 5794   4.282   4.445   2.260  0.3913  0.2031 -1.4303
    1SOL    HW3 5795   4.331   4.306   2.292 -0.0643  0.3021 -0.2835
    1SOL    MW4 5796   4.275   4.359   2.252 -0.1960  0.1445 -0.3083
    1SOL     OW 5797   0.264   4.638   2.603 -0.3253  0.1274  0.4699
    1SOL    HW2 5798   0.246   4.549   2.634  0.9941  0.2340  1.5905
    1SOL    HW3 5799   0.186   4.688   2.628 -0.5308 -0.4379  0.9893
    1SOL    MW4 5800   0.251   4.633   2.610 -0.1784  0.0672  0.6859
    1SOL     OW 5801   0.030   0.094   2.646 -0.4748  0.0119  0.3254
    1SOL    HW2 5802   0.023   0.105   2.741 -0.4843  2.7790  0.0360
    1SOL    HW3 5803   0.034   0.183   2.611  1.1232 -0.9775 -2.1703
    1SOL    MW4 5804   0.029   0.107   2.654 -0.2652  0.2464 -0.0420
    1SOL     OW 5805   4.482   0.368   2.594 -0.5563 -0.5584  0.0036
    1SOL    HW2 5806   4.555   0.422   2.624 -0.9445  0.4718 -0.8708
    1SOL    HW3 5807   4.476   0.385   2.500 -1.9749 -0.5474  0.0740
    1SOL    MW4 5808   4.491   0.378   2.585 -0.7947 -0.4210 -0.1025
    1SOL     OW 5809   0.205   0.515   2.696 -0.6159 -0.0502 -0.0217
    1SOL    HW2 5810   0.196   0.521   2.791 -0.5480 -0.3403  0.0033
    1SOL    HW3 5811   0.282   0.460   2.682 -0.4636  0.2230 -0.2433
    1SOL    MW4 5812   0.214   0.508   2.707 -0.5868 -0.0524 -0.0477
    1SOL     OW 5813   0.223   0.760   2.596 -0.1614  0.2169 -0.1384
    1SOL    HW2 5814   0.300   0.800   2.635 -0.1084 -1.0768  1.1108
    1SOL    HW3 5815   0.221   0.671   2.631 -1.0010 -0.4692 -1.8648
    1SOL    MW4 5816   0.233   0.753   2.606 -0.2652 -0.0442 -0.2017
    1SOL     OW 5817   0.013   0.901   2.691  0.2835 -0.0566 -0.1464
    1SOL    HW2 5818  -0.058   0.840   2.670 -0.4657  1.0160 -0.8414
    1SOL    HW3 5819   0.092   0.859   2.658 -0.0176 -1.2816  0.6556
    1SOL    MW4 5820   0.014   0.888   2.684  0.1454 -0.0767 -0.1323
    1SOL     OW 5821   4.475   1.172   2.608 -0.3327 -0.1371 -0.1319
    1SOL    HW2 5822   4.558   1.216   2.628 -0.8025  0.7822 -0.1611
    1SOL    HW3 5823   4.489   1.081   2.634  1.3098 -0.4109 -1.8629
    1SOL    MW4 5824   4.488   1.166   2.614 -0.1780 -0.0520 -0.3641
    1SOL     OW 5825   0.235   1.280   2.661 -0.9855  0.8020  0.5169
    1SOL    HW2 5826   0.318   1.235   2.644 -1.7992 -0.1227 -1.1065
    1SOL    HW3 5827   0.249   1.369   2.629 -1.0547  0.2621 -1.0653
    1SOL    MW4 5828   0.248   1.286   2.654 -1.1020  0.6089  0.0939
    1SOL     OW 5829   0.253   1.550   2.632 -0.0044  0.1504 -0.0661
    1SOL    HW2 5830   0.308   1.617   2.672  0.1004  0.6041 -0.9787
    1SOL    HW3 5831   0.168   1.561   2.674 -0.1448  1.2314 -0.6297
    1SOL    MW4 5832   0.249   1.560   2.643 -0.0091  0.3530 -0.2608
    1SOL     OW 5833   0.001   1.613   2.744  0.1657 -0.2208  0.3890
    1SOL    HW2 5834  -0.006   1.617   2.839 -0.1308 -0.0496  0.3615
    1SOL    HW3 5835  -0.007   1.704   2.715 -2.9258 -0.5486  0.0045
    1SOL    MW4 5836  -0.001   1.626   2.752 -0.2814 -0.2414  0.3347
    1SOL     OW 5837   4.451   1.870   2.618  0.1375 -0.0736  0.0344
    1SOL    HW2 5838   4.526   1.924   2.641  1.3204 -0.6102 -2.5102
    1SOL    HW3 5839   4.436   1.886   2.525 -0.7848 -2.5457 -0.2926
    1SOL    MW4 5840   4.459   1.879   2.609  0.1717 -0.4705 -0.3445
    1SOL     OW 5841   0.183   2.031   2.716  0.2569 -0.2449  0.0868
    1SOL    HW2 5842   0.273   2.004   2.699  0.6582  1.2788 -0.2727
    1SOL    HW3 5843   0.184   2.127   2.707 -0.9999 -0.0285  1.8333
    1SOL    MW4 5844   0.195   2.040   2.713  0.1440 -0.0157  0.2699
    1SOL     OW 5845   0.197   2.296   2.618  0.3876 -0.0953  0.2840
    1SOL    HW2 5846   0.282   2.334   2.636 -0.5399  0.4322  3.8053
    1SOL    HW3 5847   0.135   2.349   2.667 -1.5570 -2.6970  0.7854
    1SOL    MW4 5848   0.200   2.308   2.627  0.0086 -0.3688  0.8149
    1SOL     OW 5849   4.477   2.475   2.703  0.3186  0.1275  0.4969
    1SOL    HW2 5850   4.459   2.487   2.796 -1.2108  1.4384  0.0487
    1SOL    HW3 5851   4.414   2.409   2.674 -0.7564  1.3897 -0.0866
    1SOL    MW4 5852   4.467   2.468   2.711 -0.0248  0.4668  0.3607
    1SOL     OW 5853   4.474   2.740   2.603  0.4737  0.5197 -0.0786
    1SOL    HW2 5854   4.392   2.766   2.646 -0.4975 -0.6385 -1.1717
    1SOL    HW3 5855   4.484   2.648   2.625  0.8267  0.3389 -0.9838
    1SOL    MW4 5856   4.464   2.731   2.611  0.3924  0.3431 -0.3424
    1SOL     OW 5857   0.190   2.865   2.761 -0.6004  0.1968  0.1096
    1SOL    HW2 5858   0.189   2.958   2.736  0.8605 -1.0067 -4.9845
    1SOL    HW3 5859   0.118   2.826   2.712 -0.5501 -1.6072  1.4037
    1SOL    MW4 5860   0.180   2.872   2.752 -0.4010 -0.2000 -0.3920
    1SOL     OW 5861   0.203   3.141   2.675 -0.2336 -0.2185 -0.0281
    1SOL    HW2 5862   0.291   3.166   2.702 -0.2108 -0.2784 -0.0469
    1SOL    HW3 5863   0.211   3.121   2.582 -0.1135 -0.9711  0.1454
    1SOL    MW4 5864   0.215   3.142   2.666 -0.2147 -0.3259 -0.0076
    1SOL     OW 5865   4.448   3.234   2.762 -0.2443  0.0900  0.0270
    1SOL    HW2 5866   4.382   3.199   2.703  1.0492 -2.6230  0.1658
    1SOL    HW3 5867   4.531   3.205   2.727  0.5710 -1.4000  2.9871
    1SOL    MW4 5868   4.450   3.226   2.750  0.0339 -0.4647  0.4361
    1SOL     OW 5869   4.460   3.490   2.645  0.0578  0.5077  0.4684
    1SOL    HW2 5870   4.542   3.529   2.675  0.8659 -0.2166 -0.7584
    1SOL    HW3 5871   4.460   3.402   2.683 -0.1491  0.5094  0.4721
    1SOL    MW4 5872   4.471   3.483   2.654  0.1369  0.4122  0.3071
    1SOL     OW 5873   0.187   3.638   2.737  0.4259  0.4311 -0.3385
    1SOL    HW2 5874   0.179   3.644   2.832 -0.1615 -0.6209 -0.3152
    1SOL    HW3 5875   0.278   3.612   2.722  1.0692  2.5333 -0.1576
    1SOL    MW4 5876   0.198   3.635   2.747  0.4333  0.5696 -0.3116
    1SOL     OW 5877   0.227   3.864   2.596 -0.2449  0.1303 -0.2082
    1SOL    HW2 5878   0.205   3.781   2.638  1.3891  0.0122  0.4653
    1SOL    HW3 5879   0.227   3.845   2.503  0.7328 -0.7900 -0.0267
    1SOL    MW4 5880   0.224   3.851   2.589  0.0997 -0.0067 -0.0951
    1SOL     OW 5881   0.001   3.999   2.718  0.4640  0.3609 -0.7614
    1SOL    HW2 5882  -0.008   4.091   2.692  1.3011  0.1471 -1.8318
    1SOL    HW3 5883   0.074   3.966   2.666 -1.7156 -1.7274 -2.5793
    1SOL    MW4 5884   0.010   4.007   2.708  0.2866  0.0572 -1.1425
    1SOL     OW 5885   0.024   4.249   2.626  0.5711  0.4708 -0.0402
    1SOL    HW2 5886  -0.059   4.285   2.657  0.0566 -0.1966 -0.6323
    1SOL    HW3 5887   0.090   4.310   2.659 -0.2288  1.5676 -0.4425
    1SOL    MW4 5888   0.022   4.262   2.635  0.3982  0.5269 -0.1712
    1SOL     OW 5889   0.242   4.389   2.716  0.3859  0.0883 -0.3320
    1SOL    HW2 5890   0.237   4.383   2.811  1.4643  0.2772 -0.2575
    1SOL    HW3 5891   0.312   4.328   2.692  1.5483  1.5848 -0.8152
    1SOL    MW4 5892   0.251   4.380   2.725  0.6815  0.3109 -0.3860
    1SOL     OW 5893   0.677   4.638   2.583 -0.2103  0.3481  0.2922
    1SOL    HW2 5894   0.759   4.667   2.622  1.0275 -1.5159 -0.8522
    1SOL    HW3 5895   0.611   4.696   2.621  1.7250  2.4270  0.5803
    1SOL    MW4 5896   0.679   4.649   2.593  0.2084  0.3767  0.1793
    1SOL     OW 5897   0.488   0.111   2.727  0.6718 -0.0855  0.2393
    1SOL    HW2 5898   0.486   0.117   2.822 -0.7973  0.5542  0.1876
    1SOL    HW3 5899   0.418   0.049   2.705  0.3701  0.4894 -0.4574
    1SOL    MW4 5900   0.479   0.104   2.736  0.4382  0.0747  0.1404
    1SOL     OW 5901   0.433   0.371   2.638  0.2898  0.3380 -0.3213
    1SOL    HW2 5902   0.504   0.428   2.667 -0.0618  0.8298 -0.4187
    1SOL    HW3 5903   0.455   0.285   2.674  0.0373  0.8615  1.1233
    1SOL    MW4 5904   0.445   0.367   2.646  0.2101  0.4719 -0.1438
    1SOL     OW 5905   0.667   0.513   2.729 -0.2244 -0.3144  0.1832
    1SOL    HW2 5906   0.662   0.495   2.822 -0.4961 -1.8585 -0.1206
    1SOL    HW3 5907   0.741   0.460   2.698 -0.5011 -0.2579 -0.5761
    1SOL    MW4 5908   0.676   0.504   2.737 -0.2968 -0.5106  0.0429
    1SOL     OW 5909   0.644   0.766   2.624 -0.2118  0.2135  0.3824
    1SOL    HW2 5910   0.702   0.824   2.675 -0.1512  0.2299  0.2947
    1SOL    HW3 5911   0.652   0.681   2.668  0.2355  0.1035  0.0963
    1SOL    MW4 5912   0.653   0.762   2.636 -0.1448  0.2011  0.3328
    1SOL     OW 5913   0.426   0.902   2.698  0.0766 -0.3044  0.3912
    1SOL    HW2 5914   0.445   0.902   2.792  0.2816  0.8060  0.3548
    1SOL    HW3 5915   0.494   0.847   2.659  1.1384  0.7802  0.6769
    1SOL    MW4 5916   0.437   0.895   2.705  0.2438 -0.0148  0.4239
    1SOL     OW 5917   0.469   1.165   2.600 -0.0923 -0.2437  0.0685
    1SOL    HW2 5918   0.535   1.200   2.660 -1.7864  1.1608  1.1626
    1SOL    HW3 5919   0.442   1.083   2.640 -1.9556  1.1821  1.8195
    1SOL    MW4 5920   0.474   1.159   2.613 -0.5617  0.1298  0.4442
    1SOL     OW 5921   0.674   1.320   2.718 -0.1128 -0.2641 -0.0673
    1SOL    HW2 5922   0.698   1.309   2.810 -2.0525 -2.7823  0.1952
    1SOL    HW3 5923   0.746   1.280   2.669 -0.6133 -1.9037  0.4951
    1SOL    MW4 5924   0.687   1.313   2.723 -0.4348 -0.8128  0.0415
    1SOL     OW 5925   0.681   1.576   2.612  0.2287 -0.3530  0.0418
    1SOL    HW2 5926   0.595   1.614   2.630  0.2408  0.3747 -1.3495
    1SOL    HW3 5927   0.679   1.490   2.653 -1.1198 -0.2945  0.1096
    1SOL    MW4 5928   0.669   1.570   2.620  0.0524 -0.2494 -0.1328
    1SOL     OW 5929   0.451   1.729   2.709 -0.4530  0.0753  0.2529
    1SOL    HW2 5930   0.456   1.713   2.803  0.7212 -0.2162  0.1383
    1SOL    HW3 5931   0.460   1.824   2.700  0.1124  0.0355  0.3880
    1SOL    MW4 5932   0.452   1.739   2.721 -0.2235  0.0316  0.2556
    1SOL     OW 5933   0.453   1.994   2.627  0.1923  0.0142  0.1592
    1SOL    HW2 5934   0.527   2.050   2.652 -0.2110  0.3620  0.5791
    1SOL    HW3 5935   0.472   1.969   2.536 -0.4601  2.2504 -0.6352
    1SOL    MW4 5936   0.465   1.998   2.618  0.0531  0.3551  0.1097
    1SOL     OW 5937   0.718   2.103   2.708  0.4516 -0.1075 -0.3183
    1SOL    HW2 5938   0.713   2.078   2.800  0.3262  0.5970 -0.1300
    1SOL    HW3 5939   0.781   2.042   2.670  1.2140  0.2006  0.4356
    1SOL    MW4 5940   0.726   2.092   2.715  0.5356  0.0262 -0.1941
    1SOL     OW 5941   0.690   2.359   2.618  0.2688  0.2245 -0.7449
    1SOL    HW2 5942   0.765   2.408   2.652 -0.0505  0.6213 -0.6116
    1SOL    HW3 5943   0.693   2.275   2.665  1.4933 -0.3534 -1.8091
    1SOL    MW4 5944   0.701   2.354   2.629  0.3883  0.2005 -0.8678
    1SOL     OW 5945   0.428   2.440   2.695  0.7653 -0.1368 -0.0770
    1SOL    HW2 5946   0.421   2.536   2.690 -1.5966 -0.3049 -1.0290
    1SOL    HW3 5947   0.505   2.419   2.643  0.0151  1.1280 -1.7535
    1SOL    MW4 5948   0.437   2.450   2.687  0.3547  0.0079 -0.4239
    1SOL     OW 5949   0.419   2.732   2.657 -0.0954  0.2138 -0.2366
    1SOL    HW2 5950   0.505   2.773   2.671 -0.2120  1.3335 -2.4774
    1SOL    HW3 5951   0.361   2.778   2.717  0.5101  0.7751 -0.0684
    1SOL    MW4 5952   0.423   2.744   2.666 -0.0309  0.4354 -0.5100
    1SOL     OW 5953   0.685   2.803   2.708  0.5332 -0.2465 -0.2472
    1SOL    HW2 5954   0.678   2.813   2.803  0.8419 -0.0527 -0.2435
    1SOL    HW3 5955   0.696   2.892   2.675 -0.4768 -0.2187 -0.5459
    1SOL    MW4 5956   0.685   2.816   2.716  0.4407 -0.2174 -0.2861
    1SOL     OW 5957   0.675   3.077   2.644  0.0041  0.2606 -0.0448
    1SOL    HW2 5958   0.756   3.122   2.669  0.7674 -1.5293  0.7761
    1SOL    HW3 5959   0.666   3.095   2.550  0.8314  1.2647  0.0582
    1SOL    MW4 5960   0.684   3.085   2.635  0.2139  0.1569  0.0770
    1SOL     OW 5961   0.457   3.226   2.750 -0.3079 -0.5309 -0.7532
    1SOL    HW2 5962   0.463   3.220   2.846 -0.3963 -2.2699 -0.8372
    1SOL    HW3 5963   0.532   3.175   2.719 -0.3260 -0.0337 -1.6292
    1SOL    MW4 5964   0.468   3.219   2.759 -0.3220 -0.6948 -0.8800
    1SOL     OW 5965   0.420   3.505   2.647  0.0415 -0.0477 -0.0507
    1SOL    HW2 5966   0.420   3.416   2.681  0.7077  0.0532  0.2316
    1SOL    HW3 5967   0.428   3.495   2.552 -1.4079 -0.3197 -0.1508
    1SOL    MW4 5968   0.421   3.492   2.639 -0.0618 -0.0701 -0.0269
    1SOL     OW 5969   0.653   3.599   2.719  0.4017 -1.0702  0.4945
    1SOL    HW2 5970   0.644   3.623   2.811  0.2371 -0.0163  0.2117
    1SOL    HW3 5971   0.568   3.561   2.696  0.2789 -0.8852  0.6408
    1SOL    MW4 5972   0.640   3.597   2.728  0.3638 -0.9067  0.4764
    1SOL     OW 5973   0.664   3.866   2.633  0.1496 -0.1348  0.0739
    1SOL    HW2 5974   0.583   3.904   2.666  0.7631  0.2916  1.1342
    1SOL    HW3 5975   0.662   3.776   2.665 -0.3869 -0.4331 -0.7833
    1SOL    MW4 5976   0.653   3.859   2.642  0.1597 -0.1180  0.1009
    1SOL     OW 5977   0.441   3.973   2.736 -0.0116 -0.4120 -0.3911
    1SOL    HW2 5978   0.450   4.060   2.696  0.5383 -1.2832 -2.2477
    1SOL    HW3 5979   0.365   3.934   2.693 -0.4604 -0.7143  0.6765
    1SOL    MW4 5980   0.432   3.979   2.725  0.0018 -0.5667 -0.4950
    1SOL     OW 5981   0.445   4.240   2.640 -0.0164 -0.1312 -0.2269
    1SOL    HW2 5982   0.519   4.287   2.677  0.2305 -1.4870  1.0745
    1SOL    HW3 5983   0.449   4.258   2.546  0.4898  1.8056  0.1567
    1SOL    MW4 5984   0.455   4.248   2.632  0.0830 -0.0544 -0.0045
    1SOL     OW 5985   0.656   4.390   2.719 -0.3279 -0.0972  0.5715
    1SOL    HW2 5986   0.735   4.343   2.690 -0.1565 -0.2866  1.3321
    1SOL    HW3 5987   0.667   4.479   2.684  0.3898 -0.0272  0.9691
    1SOL    MW4 5988   0.668   4.395   2.711 -0.2105 -0.1130  0.7243
    1SOL     OW 5989   1.126   4.609   2.619  0.1468  0.5057 -0.4157
    1SOL    HW2 5990   1.202   4.657   2.652  0.2665  0.2186 -0.2713
    1SOL    HW3 5991   1.135   4.521   2.656 -0.7517  0.7354  0.3823
    1SOL    MW4 5992   1.137   4.604   2.628  0.0440  0.4978 -0.2916
    1SOL     OW 5993   0.903   0.067   2.738  0.4275  0.1655 -0.2978
    1SOL    HW2 5994   0.938   0.102   2.820 -0.7157 -1.4040  0.9016
    1SOL    HW3 5995   0.974   0.015   2.700  0.7716  0.4309 -0.0139
    1SOL    MW4 5996   0.917   0.065   2.744  0.3220 -0.0066 -0.1018
    1SOL     OW 5997   0.886   0.346   2.664  0.3458 -0.5789  0.0891
    1SOL    HW2 5998   0.890   0.257   2.697  1.9202 -1.5020 -2.4321
    1SOL    HW3 5999   0.877   0.336   2.569  1.0586  1.9434 -0.2814
    1SOL    MW4 6000   0.885   0.333   2.656  0.6475 -0.3679 -0.2925
    1SOL     OW 6001   1.102   0.499   2.743 -0.0066 -0.1787  0.2454
    1SOL    HW2 6002   1.084   0.591   2.724 -0.5021  0.2721  2.7339
    1SOL    HW3 6003   1.025   0.452   2.712  0.4378  0.1789 -1.4243
    1SOL    MW4 6004   1.090   0.505   2.736 -0.0134 -0.0720  0.3536
    1SOL     OW 6005   1.069   0.760   2.660  0.2072 -0.0389 -0.7791
    1SOL    HW2 6006   1.153   0.799   2.684 -0.3182  1.1690 -0.8765
    1SOL    HW3 6007   1.080   0.735   2.568  0.5778 -0.2441 -0.6826
    1SOL    MW4 6008   1.082   0.762   2.651  0.1868  0.0934 -0.7789
    1SOL     OW 6009   0.858   0.898   2.749  0.0684 -0.3829  0.2357
    1SOL    HW2 6010   0.868   0.906   2.843  0.6385 -0.4901  0.1871
    1SOL    HW3 6011   0.936   0.849   2.721  0.6920  1.0027 -0.4877
    1SOL    MW4 6012   0.870   0.892   2.757  0.2258 -0.2143  0.1340
    1SOL     OW 6013   0.864   1.160   2.597  0.3110 -0.2077 -0.0974
    1SOL    HW2 6014   0.854   1.073   2.635  1.9303 -0.1364  0.5167
    1SOL    HW3 6015   0.880   1.143   2.504 -0.0302 -0.5275 -0.1012
    1SOL    MW4 6016   0.865   1.146   2.589  0.4796 -0.2404 -0.0169
    1SOL     OW 6017   1.114   1.269   2.731  0.1028 -0.1445  0.5274
    1SOL    HW2 6018   1.136   1.357   2.700 -1.5671  0.5081  1.1316
    1SOL    HW3 6019   1.035   1.246   2.682 -0.1313 -0.8257  1.2201
    1SOL    MW4 6020   1.106   1.278   2.720 -0.1484 -0.1483  0.6986
    1SOL     OW 6021   1.127   1.520   2.617 -0.0184 -0.7055  0.1820
    1SOL    HW2 6022   1.062   1.586   2.643  0.8566  0.3456 -0.2704
    1SOL    HW3 6023   1.124   1.521   2.521  1.7244  0.4241  0.1224
    1SOL    MW4 6024   1.118   1.529   2.608  0.3270 -0.4177  0.1142
    1SOL     OW 6025   0.920   1.695   2.700  0.2455 -0.3701 -0.4251
    1SOL    HW2 6026   0.916   1.701   2.796 -0.5584  0.7725 -0.5238
    1SOL    HW3 6027   0.835   1.660   2.674  0.1106  0.2166 -0.7847
    1SOL    MW4 6028   0.909   1.691   2.709  0.1216 -0.1420 -0.4854
    1SOL     OW 6029   0.916   1.948   2.598  0.1212 -0.3563  0.3130
    1SOL    HW2 6030   0.995   1.991   2.633 -1.7176  2.0065  1.6938
    1SOL    HW3 6031   0.919   1.859   2.635  2.0183 -0.2452  0.4941
    1SOL    MW4 6032   0.927   1.942   2.608  0.1289 -0.0299  0.5193
    1SOL     OW 6033   1.125   2.070   2.726  0.0540  0.1645 -0.0308
    1SOL    HW2 6034   1.204   2.032   2.686 -0.2671  1.2881 -1.7917
    1SOL    HW3 6035   1.125   2.161   2.696 -1.4928  0.3867  0.6188
    1SOL    MW4 6036   1.136   2.077   2.717 -0.1925  0.3421 -0.1774
    1SOL     OW 6037   1.125   2.318   2.627  0.0017  0.0418  0.4066
    1SOL    HW2 6038   1.199   2.366   2.665 -0.5414  0.4272  0.9990
    1SOL    HW3 6039   1.134   2.331   2.533  1.9844 -1.8241  0.3076
    1SOL    MW4 6040   1.136   2.326   2.620  0.1917 -0.1535  0.4716
    1SOL     OW 6041   0.903   2.446   2.779 -0.0111  0.0339 -0.1681
    1SOL    HW2 6042   0.912   2.519   2.717 -0.2960 -0.1742 -0.4574
    1SOL    HW3 6043   0.968   2.382   2.750 -0.1514 -0.0677 -0.2601
    1SOL    MW4 6044   0.913   2.447   2.767 -0.0672 -0.0072 -0.2186
    1SOL     OW 6045   0.897   2.680   2.629 -0.2857  0.1552 -0.0634
    1SOL    HW2 6046   0.966   2.734   2.668 -1.5869  1.0530  1.0095
    1SOL    HW3 6047   0.816   2.708   2.672 -1.3887 -0.6376 -1.5573
    1SOL    MW4 6048   0.896   2.691   2.640 -0.6029  0.1690 -0.1190
    1SOL     OW 6049   1.083   2.832   2.749  0.0000  0.0000 -0.2007
    1SOL    HW2 6050   1.106   2.825   2.842  0.0000  0.0000 -0.2030
    1SOL    HW3 6051   1.159   2.795   2.703  0.0000  0.0000 -0.2088
    1SOL    MW4 6052   1.096   2.826   2.755  0.0000  0.0000 -0.2022
    1SOL     OW 6053   1.148   3.096   2.629  0.0000  0.0000  0.0980
    1SOL    HW2 6054   1.122   3.007   2.652  0.0000  0.0000  0.0920
    1SOL    HW3 6055   1.136   3.101   2.534  0.0000  0.0000  0.0979
    1SOL    MW4 6056   1.143   3.085   2.620  0.0000  0.0000  0.0968
    1SOL     OW 6057   0.919   3.208   2.723  0.0000  0.0000 -0.1870
    1SOL    HW2 6058   0.903   3.287   2.671  0.0000  0.0000 -0.1793
    1SOL    HW3 6059   1.006   3.179   2.695  0.0000  0.0000 -0.2028
    1SOL    MW4 6060   0.928   3.215   2.712  0.0000  0.0000 -0.1881
    1SOL     OW 6061   0.887   3.462   2.621  0.0000  0.0000  0.8882
    1SOL    HW2 6062   0.961   3.508   2.662  0.0000  0.0000  0.8595
    1SOL    HW3 6063   0.810   3.511   2.651  0.0000  0.0000  0.9494
    1SOL    MW4 6064   0.887   3.475   2.631  0.0000  0.0000  0.8924
    1SOL     OW 6065   1.102   3.599   2.729  0.0000  0.0000  0.3445
    1SOL    HW2 6066   1.101   3.626   2.821  0.0000  0.0000  0.3439
    1SOL    HW3 6067   1.100   3.681   2.680  0.0000  0.0000  0.3426
    1SOL    MW4 6068   1.102   3.613   2.735  0.0000  0.0000  0.3440
    1SOL     OW 6069   1.098   3.851   2.599  0.0000  0.0000 -0.2038
    1SOL    HW2 6070   1.178   3.889   2.637  0.0000  0.0000 -0.2126
    1SOL    HW3 6071   1.110   3.859   2.504  0.0000  0.0000 -0.2051
    1SOL    MW4 6072   1.110   3.857   2.591  0.0000  0.0000 -0.2053
    1SOL     OW 6073   0.893   4.008   2.709  0.0000  0.0000  0.4774
    1SOL    HW2 6074   0.957   3.963   2.654  0.0000  0.0000  0.4649
    1SOL    HW3 6075   0.809   3.969   2.683  0.0000  0.0000  0.4870
    1SOL    MW4 6076   0.890   3.997   2.699  0.0000  0.0000  0.4771
    1SOL     OW 6077   0.888   4.266   2.639  0.0000  0.0000 -0.0328
    1SOL    HW2 6078   0.892   4.173   2.664  0.0000  0.0000 -0.0278
    1SOL    HW3 6079   0.884   4.265   2.543  0.0000  0.0000 -0.0326
    1SOL    MW4 6080   0.888   4.254   2.630  0.0000  0.0000 -0.0319
    1SOL     OW 6081   1.144   4.351   2.728  0.0000  0.0000  0.4879
    1SOL    HW2 6082   1.137   4.378   2.819  0.0000  0.0000  0.4893
    1SOL    HW3 6083   1.055   4.327   2.703  0.0000  0.0000  0.4929
    1SOL    MW4 6084   1.131   4.351   2.736  0.0000  0.0000  0.4888
    1SOL     OW 6085   1.569   4.628   2.682  0.0393 -0.0846 -0.1128
    1SOL    HW2 6086   1.584   4.539   2.713 -0.9692 -0.5286 -0.8485
    1SOL    HW3 6087   1.574   4.621   2.586 -0.2904  0.6022 -0.1830
    1SOL    MW4 6088   1.572   4.615   2.673 -0.1372 -0.0525 -0.2193
    1SOL     OW 6089   1.331   0.105   2.714 -0.0576 -0.1267 -0.0929
    1SOL    HW2 6090   1.327   0.198   2.695  0.5197 -0.5048 -2.1466
    1SOL    HW3 6091   1.422   0.080   2.695 -0.2526 -1.1334  0.2528
    1SOL    MW4 6092   1.343   0.114   2.709 -0.0072 -0.3094 -0.3183
    1SOL     OW 6093   1.315   0.364   2.648  0.4760  0.1150 -0.4531
    1SOL    HW2 6094   1.382   0.429   2.668 -0.6627  0.9284  0.8432
    1SOL    HW3 6095   1.234   0.404   2.678 -0.0875 -2.3687  1.5315
    1SOL    MW4 6096   1.313   0.377   2.655  0.2514 -0.1054 -0.0205
    1SOL     OW 6097   1.545   0.503   2.696 -0.4584  0.1324  0.3697
    1SOL    HW2 6098   1.628   0.461   2.673 -0.5086 -0.0438  0.5076
    1SOL    HW3 6099   1.553   0.592   2.661 -1.2160 -0.6374 -1.8850
    1SOL    MW4 6100   1.557   0.509   2.688 -0.5649  0.0076  0.0904
    1SOL     OW 6101   1.575   0.781   2.625  0.1120 -0.1575  0.0301
    1SOL    HW2 6102   1.485   0.794   2.653 -0.5460  0.2917 -2.2261
    1SOL    HW3 6103   1.573   0.790   2.529  2.3108 -1.4450 -0.1833
    1SOL    MW4 6104   1.563   0.784   2.616  0.3152 -0.2681 -0.2959
    1SOL     OW 6105   1.328   0.849   2.745  0.3187 -0.2893  0.1163
    1SOL    HW2 6106   1.344   0.852   2.840  1.9156 -0.1366 -0.1452
    1SOL    HW3 6107   1.328   0.940   2.718 -1.0682 -0.2787  0.0946
    1SOL    MW4 6108   1.330   0.861   2.754  0.3463 -0.2677  0.0789
    1SOL     OW 6109   1.319   1.116   2.643  0.4050  0.1836 -0.0578
    1SOL    HW2 6110   1.392   1.163   2.684  0.4733  0.4897 -0.5273
    1SOL    HW3 6111   1.242   1.168   2.666  0.2588 -0.4252  0.8830
    1SOL    MW4 6112   1.319   1.129   2.651  0.3946  0.1438  0.0043
    1SOL     OW 6113   1.524   1.263   2.746  0.1393 -0.3657  0.1790
    1SOL    HW2 6114   1.529   1.262   2.842 -0.3033 -1.2781  0.1963
    1SOL    HW3 6115   1.607   1.225   2.718  0.1890 -0.2758  0.2036
    1SOL    MW4 6116   1.536   1.257   2.755  0.0874 -0.4742  0.1845
    1SOL     OW 6117   1.544   1.524   2.655  0.2898  0.0645 -0.0385
    1SOL    HW2 6118   1.539   1.430   2.669  1.3740  0.0744  0.4477
    1SOL    HW3 6119   1.561   1.534   2.561 -2.1402 -0.1459 -0.5125
    1SOL    MW4 6120   1.546   1.513   2.644  0.1122  0.0380 -0.0372
    1SOL     OW 6121   1.337   1.678   2.707  0.0127 -0.1190  0.2729
    1SOL    HW2 6122   1.416   1.629   2.681  0.7844  0.9556  0.5487
    1SOL    HW3 6123   1.264   1.622   2.681  0.8596 -0.9010 -0.4527
    1SOL    MW4 6124   1.338   1.664   2.700  0.2261 -0.0802  0.2136
    1SOL     OW 6125   1.352   1.941   2.603  0.1321 -0.0224 -0.3941
    1SOL    HW2 6126   1.346   1.853   2.642  0.8874 -0.1249 -0.4976
    1SOL    HW3 6127   1.344   1.925   2.508  0.5424 -0.0071 -0.4302
    1SOL    MW4 6128   1.350   1.927   2.595  0.2860 -0.0340 -0.4125
    1SOL     OW 6129   1.579   2.098   2.699 -0.3776 -0.4937  0.3885
    1SOL    HW2 6130   1.653   2.052   2.660  0.1144  0.0357  0.6913
    1SOL    HW3 6131   1.502   2.059   2.658  0.0720 -0.9876  0.0105
    1SOL    MW4 6132   1.579   2.087   2.689 -0.2532 -0.4892  0.3786
    1SOL     OW 6133   1.557   2.344   2.590 -0.3587 -0.0502  0.5969
    1SOL    HW2 6134   1.628   2.397   2.626 -1.7350  0.6429  2.3605
    1SOL    HW3 6135   1.569   2.257   2.628 -0.9017  0.2696  1.4965
    1SOL    MW4 6136   1.568   2.339   2.600 -0.6119  0.0834  0.9484
    1SOL     OW 6137   1.345   2.453   2.719 -0.2588  0.3268 -0.7226
    1SOL    HW2 6138   1.335   2.542   2.683  0.1063  0.0191 -1.5838
    1SOL    HW3 6139   1.429   2.422   2.684 -0.1964 -0.2115 -0.1032
    1SOL    MW4 6140   1.355   2.461   2.709 -0.2024  0.2153 -0.7546
    1SOL     OW 6141   1.290   2.708   2.642 -0.3457 -0.2101  0.3403
    1SOL    HW2 6142   1.369   2.757   2.668 -0.4391 -0.3656  0.9162
    1SOL    HW3 6143   1.293   2.709   2.546  0.2560 -0.0461  0.3533
    1SOL    MW4 6144   1.301   2.715   2.633 -0.2786 -0.2089  0.4182
    1SOL     OW 6145   1.553   2.829   2.721  0.0823 -0.0077  0.2744
    1SOL    HW2 6146   1.582   2.823   2.811  1.1878 -1.2779 -0.1633
    1SOL    HW3 6147   1.630   2.807   2.668 -0.9179 -0.6610 -0.9484
    1SOL    MW4 6148   1.567   2.826   2.726  0.0961 -0.2615  0.0553
    1SOL     OW 6149   1.594   3.094   2.644 -0.0492  0.3779 -0.0943
    1SOL    HW2 6150   1.673   3.126   2.688  0.2974  0.3035 -0.6535
    1SOL    HW3 6151   1.584   3.004   2.675  0.3781  0.2174 -0.4127
    1SOL    MW4 6152   1.603   3.087   2.654  0.0529  0.3467 -0.2103
    1SOL     OW 6153   1.357   3.225   2.733 -0.1573 -0.1826 -0.4790
    1SOL    HW2 6154   1.440   3.185   2.707 -0.4469 -0.5794 -0.7843
    1SOL    HW3 6155   1.290   3.171   2.692 -0.6078 -0.6988  0.9357
    1SOL    MW4 6156   1.359   3.213   2.724 -0.2549 -0.3030 -0.3328
    1SOL     OW 6157   1.339   3.484   2.638  0.2783 -0.0552 -0.2450
    1SOL    HW2 6158   1.342   3.396   2.675  0.1663  0.1016  0.1447
    1SOL    HW3 6159   1.272   3.529   2.690 -0.7337 -0.1881 -1.4221
    1SOL    MW4 6160   1.330   3.478   2.650  0.1301 -0.0520 -0.3488
    1SOL     OW 6161   1.583   3.609   2.722 -0.0074 -0.2162 -0.1498
    1SOL    HW2 6162   1.650   3.549   2.689 -0.8463 -0.0693 -2.1608
    1SOL    HW3 6163   1.502   3.579   2.681 -0.9022  0.6012  1.0073
    1SOL    MW4 6164   1.581   3.597   2.712 -0.2360 -0.0889 -0.2625
    1SOL     OW 6165   1.591   3.860   2.633  0.2788  0.4357 -0.1455
    1SOL    HW2 6166   1.515   3.893   2.681 -0.2893 -0.6081 -0.3044
    1SOL    HW3 6167   1.595   3.767   2.656  2.3321  0.7783  0.9356
    1SOL    MW4 6168   1.581   3.852   2.642  0.4749  0.3433 -0.0238
    1SOL     OW 6169   1.345   3.953   2.713  0.4558  0.2563 -0.2936
    1SOL    HW2 6170   1.357   3.950   2.808 -1.0030 -0.2725 -0.1155
    1SOL    HW3 6171   1.336   4.046   2.693  0.4271  0.3451  0.1267
    1SOL    MW4 6172   1.346   3.965   2.723  0.2596  0.1981 -0.2148
    1SOL     OW 6173   1.359   4.219   2.612  0.1970 -0.4633 -0.3281
    1SOL    HW2 6174   1.287   4.276   2.641  0.3258 -0.6563  0.3898
    1SOL    HW3 6175   1.352   4.218   2.517  0.2943  0.8808 -0.3608
    1SOL    MW4 6176   1.348   4.226   2.603  0.2269 -0.3114 -0.2377
    1SOL     OW 6177   1.578   4.354   2.724 -0.2155  0.0859 -0.4804
    1SOL    HW2 6178   1.573   4.339   2.818  0.6836 -1.2173 -0.6221
    1SOL    HW3 6179   1.503   4.306   2.688 -0.4823  0.4738 -0.4447
    1SOL    MW4 6180   1.567   4.346   2.732 -0.1320 -0.0348 -0.4942
    1SOL     OW 6181   2.028   4.651   2.666 -0.2737  0.2094 -0.4846
    1SOL    HW2 6182   2.110   4.699   2.677 -0.0878 -0.0798 -0.5805
    1SOL    HW3 6183   2.020   4.638   2.572 -0.8970  1.0352 -0.5395
    1SOL    MW4 6184   2.038   4.655   2.655 -0.3314  0.2799 -0.5043
    1SOL     OW 6185   1.792   0.126   2.757  0.2939  0.4255  0.2474
    1SOL    HW2 6186   1.861   0.078   2.711 -0.4315  0.2855 -0.7010
    1SOL    HW3 6187   1.712   0.080   2.735 -0.3850  1.8902 -0.4570
    1SOL    MW4 6188   1.791   0.114   2.748  0.1085  0.6003  0.0296
    1SOL     OW 6189   1.788   0.361   2.625  0.3879  0.0798  0.3154
    1SOL    HW2 6190   1.858   0.419   2.656  1.7327 -0.6927 -1.1930
    1SOL    HW3 6191   1.804   0.279   2.672 -0.0276  0.1717  0.6152
    1SOL    MW4 6192   1.800   0.358   2.636  0.5106 -0.0100  0.1559
    1SOL     OW 6193   2.000   0.512   2.751 -0.6145  0.1310  0.0781
    1SOL    HW2 6194   2.090   0.480   2.740 -0.6152  0.8019 -2.2199
    1SOL    HW3 6195   1.993   0.532   2.844  1.4862 -0.3515  0.3773
    1SOL    MW4 6196   2.011   0.511   2.761 -0.3374  0.1559 -0.1855
    1SOL     OW 6197   1.988   0.773   2.647  0.1584  0.1347 -0.9087
    1SOL    HW2 6198   1.988   0.683   2.679 -0.1552 -0.5709 -2.8262
    1SOL    HW3 6199   1.922   0.817   2.700  1.4925 -0.3302  1.1774
    1SOL    MW4 6200   1.980   0.767   2.658  0.2930 -0.0197 -0.8867
    1SOL     OW 6201   1.784   0.907   2.770 -0.1449 -0.0457 -0.0681
    1SOL    HW2 6202   1.780   0.998   2.738 -0.6361  0.1012  0.4241
    1SOL    HW3 6203   1.712   0.863   2.725 -1.1776  0.2886  1.2505
    1SOL    MW4 6204   1.774   0.913   2.760 -0.3459  0.0178  0.1709
    1SOL     OW 6205   1.773   1.167   2.654  0.1777 -0.0692  0.5540
    1SOL    HW2 6206   1.850   1.202   2.697  0.0514 -0.3606  1.0232
    1SOL    HW3 6207   1.794   1.170   2.561  0.1994  1.1530  0.5959
    1SOL    MW4 6208   1.786   1.172   2.647  0.1639  0.0536  0.6216
    1SOL     OW 6209   1.981   1.289   2.785 -0.2271  0.4374  0.0454
    1SOL    HW2 6210   1.974   1.281   2.880  0.0642 -1.8249 -0.0946
    1SOL    HW3 6211   2.060   1.241   2.763 -1.1368 -0.3921 -1.4845
    1SOL    MW4 6212   1.990   1.281   2.795 -0.3086  0.0296 -0.1750
    1SOL     OW 6213   1.987   1.563   2.705 -0.4792  0.9950 -0.1005
    1SOL    HW2 6214   1.895   1.584   2.722 -0.5409 -0.1167  1.0048
    1SOL    HW3 6215   1.999   1.476   2.742  0.6920  0.5758 -1.4081
    1SOL    MW4 6216   1.976   1.554   2.712 -0.3328  0.7931 -0.1273
    1SOL     OW 6217   1.748   1.703   2.783  0.1412  0.3115  0.0784
    1SOL    HW2 6218   1.753   1.693   2.878  0.4501  1.4193  0.1841
    1SOL    HW3 6219   1.669   1.656   2.758  0.8072 -1.1604  0.7155
    1SOL    MW4 6220   1.738   1.696   2.792  0.2698  0.2635  0.1762
    1SOL     OW 6221   1.784   1.939   2.603  0.0592  0.0341  0.4034
    1SOL    HW2 6222   1.857   1.993   2.635  0.5423 -1.2411  1.5039
    1SOL    HW3 6223   1.778   1.868   2.666 -1.4249 -0.4902 -0.3135
    1SOL    MW4 6224   1.793   1.937   2.616 -0.0728 -0.2035  0.4539
    1SOL     OW 6225   2.003   2.076   2.706  0.0840 -0.4676 -0.1553
    1SOL    HW2 6226   2.024   2.065   2.799 -0.3761  1.0209  0.1367
    1SOL    HW3 6227   1.979   2.168   2.697 -0.5855 -0.7636 -1.6183
    1SOL    MW4 6228   2.003   2.087   2.717 -0.0651 -0.3104 -0.3097
    1SOL     OW 6229   1.987   2.354   2.649  0.0866 -0.0331 -0.2559
    1SOL    HW2 6230   2.071   2.389   2.679 -0.8097  1.9802 -0.0136
    1SOL    HW3 6231   1.995   2.349   2.554  1.3937 -2.3782 -0.0805
    1SOL    MW4 6232   1.999   2.358   2.640  0.1407 -0.0768 -0.2007
    1SOL     OW 6233   1.762   2.492   2.713  0.2498  0.4271  0.2634
    1SOL    HW2 6234   1.752   2.492   2.808  0.1955 -0.9734  0.2616
    1SOL    HW3 6235   1.844   2.446   2.697 -0.8315 -1.3159 -0.4564
    1SOL    MW4 6236   1.771   2.486   2.723  0.1000  0.0122  0.1681
    1SOL     OW 6237   1.821   2.752   2.637  0.2955 -0.4249 -0.1588
    1SOL    HW2 6238   1.803   2.661   2.662 -1.5197 -0.0382 -0.0154
    1SOL    HW3 6239   1.816   2.751   2.541  0.7715 -0.5658 -0.1856
    1SOL    MW4 6240   1.818   2.740   2.628  0.1189 -0.3924 -0.1433
    1SOL     OW 6241   2.035   2.896   2.766 -0.2654 -0.0155 -0.2877
    1SOL    HW2 6242   2.110   2.844   2.736 -1.1712 -0.2124 -2.2445
    1SOL    HW3 6243   1.959   2.854   2.726 -1.4535  0.1537  1.7330
    1SOL    MW4 6244   2.035   2.883   2.757 -0.5417 -0.0191 -0.2789
    1SOL     OW 6245   2.062   3.145   2.660 -0.5734  0.3096 -0.0407
    1SOL    HW2 6246   2.068   3.054   2.689 -1.4858  0.3067  0.1424
    1SOL    HW3 6247   2.027   3.139   2.571 -0.1407  0.4543 -0.2214
    1SOL    MW4 6248   2.058   3.132   2.652 -0.6368  0.3281 -0.0403
    1SOL     OW 6249   1.826   3.210   2.767  0.1964 -0.1905 -0.4218
    1SOL    HW2 6250   1.812   3.297   2.732  1.6635  0.4134  0.4580
    1SOL    HW3 6251   1.916   3.188   2.743  0.3341 -0.8413  0.6331
    1SOL    MW4 6252   1.836   3.218   2.759  0.4083 -0.1965 -0.1667
    1SOL     OW 6253   1.802   3.460   2.663 -0.3185 -0.3369 -0.0762
    1SOL    HW2 6254   1.867   3.519   2.701  2.5734 -2.1772 -1.9441
    1SOL    HW3 6255   1.808   3.475   2.568 -2.0897 -1.1179 -0.3460
    1SOL    MW4 6256   1.811   3.469   2.655 -0.1707 -0.6826 -0.3586
    1SOL     OW 6257   2.045   3.589   2.741  0.1433 -0.5006  0.3183
    1SOL    HW2 6258   2.066   3.579   2.834 -0.3847 -2.7605  0.2213
    1SOL    HW3 6259   2.120   3.551   2.695 -0.1478 -0.5104 -0.1499
    1SOL    MW4 6260   2.058   3.583   2.748  0.0353 -0.8001  0.2439
    1SOL     OW 6261   2.062   3.840   2.638 -0.4152  0.0029  0.1567
    1SOL    HW2 6262   1.988   3.891   2.669 -2.1684 -1.8704 -0.8618
    1SOL    HW3 6263   2.047   3.752   2.672  1.1634 -0.4779 -0.3408
    1SOL    MW4 6264   2.050   3.835   2.646 -0.4382 -0.3073 -0.0436
    1SOL     OW 6265   1.843   3.971   2.742 -0.3180  0.0725  0.2775
    1SOL    HW2 6266   1.852   4.060   2.710  2.3598 -1.3058 -3.1690
    1SOL    HW3 6267   1.764   3.937   2.699 -0.9834  0.5573  1.1032
    1SOL    MW4 6268   1.834   3.978   2.732 -0.0525 -0.0455 -0.0682
    1SOL     OW 6269   1.813   4.231   2.653  0.6696  0.1896 -0.9048
    1SOL    HW2 6270   1.726   4.267   2.673  0.0246 -1.7410 -0.0396
    1SOL    HW3 6271   1.812   4.219   2.558 -0.4444 -0.7971 -0.7906
    1SOL    MW4 6272   1.801   4.234   2.643  0.4375 -0.1955 -0.7756
    1SOL     OW 6273   2.027   4.385   2.752  0.3958 -0.4323 -0.0821
    1SOL    HW2 6274   1.957   4.341   2.703  0.2668 -1.6934  1.2144
    1SOL    HW3 6275   2.014   4.478   2.733 -1.2757 -0.6977 -0.3297
    1SOL    MW4 6276   2.016   4.391   2.743  0.1583 -0.6337  0.0563
    1SOL     OW 6277   2.475   0.009   2.654  0.1623 -0.1904  0.3360
    1SOL    HW2 6278   2.559   0.050   2.675 -0.0040  0.0581  0.5136
    1SOL    HW3 6279   2.462   0.026   2.561 -0.6065  1.4257  0.7273
    1SOL    MW4 6280   2.484   0.017   2.644  0.0391  0.0558  0.4110
    1SOL     OW 6281   2.240   0.145   2.711 -0.0921 -0.0371 -0.3572
    1SOL    HW2 6282   2.314   0.098   2.671 -1.0670 -2.5850  0.6904
    1SOL    HW3 6283   2.255   0.135   2.805 -0.8220  0.9802 -0.1336
    1SOL    MW4 6284   2.252   0.137   2.718 -0.3171 -0.2391 -0.1895
    1SOL     OW 6285   2.255   0.414   2.679 -0.4503 -0.0196 -0.0754
    1SOL    HW2 6286   2.252   0.408   2.584 -2.4877 -1.5708  0.0372
    1SOL    HW3 6287   2.256   0.323   2.708 -0.1193  0.4393  1.3929
    1SOL    MW4 6288   2.255   0.401   2.670 -0.6754 -0.1637  0.1330
    1SOL     OW 6289   2.501   0.486   2.766  0.1704  0.7109 -0.0162
    1SOL    HW2 6290   2.499   0.580   2.750 -2.2642  0.6606 -0.2282
    1SOL    HW3 6291   2.417   0.454   2.733  1.6949 -1.8285 -1.6096
    1SOL    MW4 6292   2.490   0.494   2.760  0.0505  0.3692 -0.2546
    1SOL     OW 6293   2.466   0.743   2.692 -0.0641  0.6702  0.0210
    1SOL    HW2 6294   2.379   0.765   2.727 -0.3720  2.3718 -1.6938
    1SOL    HW3 6295   2.450   0.728   2.599  1.3635  0.1606 -0.1438
    1SOL    MW4 6296   2.452   0.744   2.684  0.0837  0.8275 -0.2270
    1SOL     OW 6297   2.235   0.905   2.740 -0.0559  0.5219 -0.2198
    1SOL    HW2 6298   2.235   0.900   2.835  0.7597  0.4754 -0.2232
    1SOL    HW3 6299   2.150   0.868   2.714  0.1653 -0.4435  0.4311
    1SOL    MW4 6300   2.223   0.899   2.749  0.0808  0.3884 -0.1345
    1SOL     OW 6301   2.209   1.173   2.675  0.4892 -0.2256  0.3144
    1SOL    HW2 6302   2.216   1.079   2.692  1.3775 -0.2029  0.1108
    1SOL    HW3 6303   2.296   1.208   2.696 -0.0490  0.6729  1.1281
    1SOL    MW4 6304   2.221   1.166   2.680  0.5352 -0.1041  0.3948
    1SOL     OW 6305   2.447   1.290   2.738  0.1334  0.6079  0.8342
    1SOL    HW2 6306   2.467   1.380   2.715  0.1381  0.5445  0.5841
    1SOL    HW3 6307   2.522   1.240   2.706 -0.3534  0.3864  0.0287
    1SOL    MW4 6308   2.459   1.295   2.731  0.0696  0.5704  0.6950
    1SOL     OW 6309   2.442   1.547   2.628 -0.3210  0.0882  0.2217
    1SOL    HW2 6310   2.359   1.580   2.661 -0.0976  1.2099 -0.3011
    1SOL    HW3 6311   2.508   1.602   2.670  0.2004 -1.1697  1.0786
    1SOL    MW4 6312   2.440   1.559   2.638 -0.2229  0.0701  0.2658
    1SOL     OW 6313   2.228   1.666   2.752  0.1215  0.2153 -0.1736
    1SOL    HW2 6314   2.223   1.746   2.700 -0.5473 -0.3292 -0.9634
    1SOL    HW3 6315   2.146   1.620   2.734  1.0733 -1.2892 -0.7961
    1SOL    MW4 6316   2.217   1.670   2.743  0.1588 -0.0550 -0.3598
    1SOL     OW 6317   2.217   1.914   2.607 -0.1334  0.2040 -0.2437
    1SOL    HW2 6318   2.145   1.973   2.630  0.6440  0.9413  0.3311
    1SOL    HW3 6319   2.219   1.915   2.512 -1.2243 -0.2495 -0.2883
    1SOL    MW4 6320   2.207   1.922   2.598 -0.1748  0.2414 -0.1736
    1SOL     OW 6321   2.435   2.042   2.747 -0.2753  0.1970 -0.2218
    1SOL    HW2 6322   2.422   2.131   2.713 -1.3030  0.2542  0.3201
    1SOL    HW3 6323   2.367   1.990   2.704 -1.6308  0.2764  1.7758
    1SOL    MW4 6324   2.424   2.047   2.737 -0.5901  0.2153  0.1135
    1SOL     OW 6325   2.413   2.313   2.678  0.6100  0.5277  0.0731
    1SOL    HW2 6326   2.504   2.341   2.691  1.0223 -0.2706 -0.9809
    1SOL    HW3 6327   2.394   2.338   2.587 -0.1835  0.5963  0.2587
    1SOL    MW4 6328   2.423   2.320   2.668  0.5596  0.4313 -0.0415
    1SOL     OW 6329   2.212   2.462   2.786 -0.4041  0.3721  0.4178
    1SOL    HW2 6330   2.224   2.451   2.881  0.3128 -0.2724  0.2600
    1SOL    HW3 6331   2.290   2.423   2.748 -0.5972  0.8187 -0.4372
    1SOL    MW4 6332   2.224   2.455   2.793 -0.3347  0.3462  0.2844
    1SOL     OW 6333   2.222   2.705   2.684  0.1040 -0.9914  0.1900
    1SOL    HW2 6334   2.310   2.732   2.711  0.3767 -2.2278  0.5712
    1SOL    HW3 6335   2.214   2.615   2.716 -1.1904 -0.9842 -0.1037
    1SOL    MW4 6336   2.233   2.697   2.692 -0.0305 -1.1537  0.2015
    1SOL     OW 6337   2.484   2.818   2.771 -0.2453  0.4272 -0.5149
    1SOL    HW2 6338   2.568   2.781   2.744  0.1590  0.3033  0.8617
    1SOL    HW3 6339   2.489   2.910   2.747  0.6283  0.6046  0.3199
    1SOL    MW4 6340   2.495   2.825   2.764 -0.0768  0.4344 -0.2229
    1SOL     OW 6341   2.516   3.065   2.637 -0.6518 -0.2570 -0.2714
    1SOL    HW2 6342   2.445   3.125   2.659  0.0253  0.5676 -0.3485
    1SOL    HW3 6343   2.517   3.063   2.541  1.8957  2.6947 -0.3668
    1SOL    MW4 6344   2.507   3.072   2.627 -0.2263  0.2413 -0.2942
    1SOL     OW 6345   2.309   3.234   2.731 -0.2453 -0.1031 -0.0024
    1SOL    HW2 6346   2.308   3.222   2.826 -1.2433  1.6342  0.2269
    1SOL    HW3 6347   2.222   3.206   2.702 -1.0629  2.3081  0.0122
    1SOL    MW4 6348   2.298   3.228   2.739 -0.4852  0.4447  0.0298
    1SOL     OW 6349   2.287   3.496   2.642 -0.5780 -0.0991 -0.0470
    1SOL    HW2 6350   2.348   3.549   2.693 -0.6749  0.6310 -0.6870
    1SOL    HW3 6351   2.305   3.406   2.669 -1.3147  0.3561  2.0048
    1SOL    MW4 6352   2.298   3.491   2.652 -0.6883  0.0572  0.1392
    1SOL     OW 6353   2.498   3.652   2.745 -0.2093  0.4085 -0.5006
    1SOL    HW2 6354   2.495   3.656   2.841 -0.5924 -1.0412 -0.4403
    1SOL    HW3 6355   2.483   3.742   2.716 -0.3014  0.8150  0.7989
    1SOL    MW4 6356   2.496   3.664   2.754 -0.2720  0.2708 -0.3214
    1SOL     OW 6357   2.466   3.905   2.620  0.3101  0.1459 -0.0859
    1SOL    HW2 6358   2.542   3.954   2.651 -0.3711  2.3487 -1.7129
    1SOL    HW3 6359   2.391   3.954   2.654 -0.3761 -0.0301 -1.3141
    1SOL    MW4 6360   2.466   3.918   2.628  0.1297  0.4134 -0.4623
    1SOL     OW 6361   2.244   4.013   2.743 -0.1463 -0.1129  0.1225
    1SOL    HW2 6362   2.235   4.002   2.838  1.3745 -1.0893  0.1763
    1SOL    HW3 6363   2.191   3.942   2.707  1.4225 -1.4122  0.3084
    1SOL    MW4 6364   2.236   4.002   2.751  0.2613 -0.4129  0.1540
    1SOL     OW 6365   2.232   4.262   2.623  0.4734 -0.3237 -0.0591
    1SOL    HW2 6366   2.238   4.174   2.660  0.2444 -0.9024 -1.3701
    1SOL    HW3 6367   2.166   4.307   2.677  0.3977 -1.0375  0.4406
    1SOL    MW4 6368   2.224   4.257   2.635  0.4332 -0.4940 -0.1659
    1SOL     OW 6369   2.467   4.391   2.719  0.0648  0.3098 -0.4512
    1SOL    HW2 6370   2.388   4.356   2.677  0.2843 -0.3199 -0.3442
    1SOL    HW3 6371   2.471   4.482   2.689 -0.6996  0.3500 -0.4598
    1SOL    MW4 6372   2.457   4.399   2.710 -0.0072  0.2322 -0.4385
    1SOL     OW 6373   2.924   4.613   2.632  0.1385 -0.1179 -0.1139
    1SOL    HW2 6374   3.001   4.668   2.651 -1.0433  0.9240  1.8412
    1SOL    HW3 6375   2.911   4.621   2.538  0.8261  1.8770 -0.0637
    1SOL    MW4 6376   2.933   4.621   2.622  0.0732  0.2828  0.1507
    1SOL     OW 6377   2.719   0.112   2.727 -0.1776  0.2490  0.1218
    1SOL    HW2 6378   2.719   0.106   2.823 -2.5118 -0.2659  0.1177
    1SOL    HW3 6379   2.783   0.047   2.700 -0.5081 -0.6010  1.3107
    1SOL    MW4 6380   2.727   0.103   2.736 -0.5293  0.0689  0.2782
    1SOL     OW 6381   2.716   0.372   2.647 -0.0264 -0.0968  0.2792
    1SOL    HW2 6382   2.721   0.284   2.685  0.1529  0.2533  1.0610
    1SOL    HW3 6383   2.632   0.407   2.677 -0.5749 -0.3738 -0.8645
    1SOL    MW4 6384   2.706   0.365   2.656 -0.0753 -0.0872  0.2315
    1SOL     OW 6385   2.911   0.544   2.728 -0.1037 -0.2362 -0.0361
    1SOL    HW2 6386   2.903   0.633   2.692 -1.2683 -0.4512 -0.3277
    1SOL    HW3 6387   2.842   0.494   2.684  0.9206 -1.4352 -0.3054
    1SOL    MW4 6388   2.901   0.549   2.717 -0.1223 -0.4228 -0.1101
    1SOL     OW 6389   2.884   0.786   2.625  0.3056  0.3875 -0.0590
    1SOL    HW2 6390   2.958   0.840   2.655 -0.7039  1.5850  0.3504
    1SOL    HW3 6391   2.807   0.833   2.657 -0.6578 -0.4113 -1.1978
    1SOL    MW4 6392   2.884   0.799   2.633  0.0453  0.4401 -0.1550
    1SOL     OW 6393   2.665   0.908   2.761  0.1418  0.1626 -0.0468
    1SOL    HW2 6394   2.680   0.883   2.852 -1.5541 -0.7457  0.0097
    1SOL    HW3 6395   2.594   0.851   2.732 -0.7168  1.8180 -1.3219
    1SOL    MW4 6396   2.657   0.897   2.770 -0.1953  0.2612 -0.2077
    1SOL     OW 6397   2.699   1.174   2.680  0.0442 -0.1255  0.3158
    1SOL    HW2 6398   2.782   1.212   2.710 -0.2278 -0.9169  2.1209
    1SOL    HW3 6399   2.688   1.095   2.732 -2.0494  0.1703  0.3716
    1SOL    MW4 6400   2.709   1.169   2.691 -0.2677 -0.1907  0.5612
    1SOL     OW 6401   2.905   1.323   2.790  0.0052 -0.2325  0.2716
    1SOL    HW2 6402   2.902   1.298   2.882  0.6488  0.4216  0.4826
    1SOL    HW3 6403   2.981   1.276   2.755  1.0023  1.1075  0.5850
    1SOL    MW4 6404   2.915   1.314   2.798  0.2213  0.0304  0.3407
    1SOL     OW 6405   2.899   1.584   2.665 -0.4317  0.4850  0.0338
    1SOL    HW2 6406   2.813   1.619   2.688  0.1462  1.8123  0.2687
    1SOL    HW3 6407   2.902   1.497   2.705 -1.0374  1.0828  1.4180
    1SOL    MW4 6408   2.888   1.577   2.673 -0.4354  0.7391  0.2475
    1SOL     OW 6409   2.658   1.659   2.761 -0.6596 -0.6246  0.4634
    1SOL    HW2 6410   2.677   1.654   2.855 -1.4033 -0.9556  0.6048
    1SOL    HW3 6411   2.666   1.752   2.739  1.4781 -0.8050  0.4214
    1SOL    MW4 6412   2.661   1.670   2.770 -0.4756 -0.6921  0.4766
    1SOL     OW 6413   2.664   1.919   2.671  0.2313  0.1268  0.6978
    1SOL    HW2 6414   2.741   1.959   2.712 -0.0130  0.3647  0.9297
    1SOL    HW3 6415   2.590   1.968   2.707  0.0930  1.4595 -1.2696
    1SOL    MW4 6416   2.664   1.931   2.681  0.1807  0.3340  0.4687
    1SOL     OW 6417   2.908   2.041   2.736 -0.2853 -0.2749  0.1437
    1SOL    HW2 6418   2.994   1.999   2.728  1.1536  2.2787  1.6689
    1SOL    HW3 6419   2.914   2.118   2.679 -1.4924  0.0651  0.4727
    1SOL    MW4 6420   2.920   2.046   2.727 -0.2546  0.1068  0.3884
    1SOL     OW 6421   2.910   2.285   2.625  0.1034 -0.5301  0.4680
    1SOL    HW2 6422   2.987   2.324   2.666 -0.2455 -0.2946  0.9025
    1SOL    HW3 6423   2.839   2.347   2.643 -0.3723 -1.1681  0.8167
    1SOL    MW4 6424   2.910   2.299   2.633 -0.0055 -0.5832  0.5715
    1SOL     OW 6425   2.669   2.421   2.713  0.1171 -0.3441 -0.1686
    1SOL    HW2 6426   2.694   2.409   2.805 -0.5933 -1.3644 -0.0901
    1SOL    HW3 6427   2.670   2.516   2.700  1.4852 -0.2589  0.5263
    1SOL    MW4 6428   2.672   2.432   2.724  0.2038 -0.4673 -0.0665
    1SOL     OW 6429   2.719   2.698   2.697  0.2816 -0.3420 -0.0422
    1SOL    HW2 6430   2.798   2.753   2.701 -1.1217  1.9461 -2.0912
    1SOL    HW3 6431   2.700   2.692   2.604 -1.1418 -2.1243  0.3510
    1SOL    MW4 6432   2.727   2.705   2.685 -0.0911 -0.2751 -0.2606
    1SOL     OW 6433   2.952   2.862   2.732 -0.0904  0.5175 -0.1560
    1SOL    HW2 6434   2.999   2.787   2.696 -1.6447 -0.3349 -0.4366
    1SOL    HW3 6435   2.961   2.853   2.827  0.8262  0.6978 -0.2231
    1SOL    MW4 6436   2.959   2.851   2.740 -0.1745  0.4289 -0.2019
    1SOL     OW 6437   2.904   3.119   2.635  0.0847 -0.0790  0.3869
    1SOL    HW2 6438   2.832   3.150   2.690 -0.9023 -1.0068 -0.3368
    1SOL    HW3 6439   2.926   3.033   2.671 -0.3314 -0.5390 -0.4305
    1SOL    MW4 6440   2.897   3.111   2.647 -0.1004 -0.2620  0.1833
    1SOL     OW 6441   2.693   3.231   2.781  0.3546  0.8422 -0.2925
    1SOL    HW2 6442   2.710   3.315   2.739  0.9651  0.9605  0.1793
    1SOL    HW3 6443   2.621   3.193   2.731 -0.2399  1.8504 -0.2145
    1SOL    MW4 6444   2.686   3.237   2.769  0.3567  0.9911 -0.2201
    1SOL     OW 6445   2.678   3.473   2.644 -0.3909  0.1346 -0.2897
    1SOL    HW2 6446   2.603   3.526   2.671 -0.7423 -0.2700 -0.4684
    1SOL    HW3 6447   2.674   3.473   2.549  0.3562  0.8527 -0.3264
    1SOL    MW4 6448   2.668   3.480   2.635 -0.3390  0.1760 -0.3181
    1SOL     OW 6449   2.914   3.576   2.732 -0.3928  0.2682  0.1901
    1SOL    HW2 6450   2.910   3.582   2.827  0.9542 -1.4851  0.3749
    1SOL    HW3 6451   2.830   3.538   2.707 -0.4804  0.1088  0.7279
    1SOL    MW4 6452   2.902   3.572   2.741 -0.2267  0.0155  0.2856
    1SOL     OW 6453   2.888   3.833   2.636 -0.0052  0.7110  0.3266
    1SOL    HW2 6454   2.955   3.893   2.670  0.5209  0.6474 -0.5881
    1SOL    HW3 6455   2.909   3.748   2.675 -0.7766  1.1199  1.6594
    1SOL    MW4 6456   2.900   3.830   2.646 -0.0377  0.7560  0.3819
    1SOL     OW 6457   2.707   3.960   2.808  0.0921  0.5836 -0.1114
    1SOL    HW2 6458   2.707   4.047   2.769 -1.3888  0.5934 -0.1168
    1SOL    HW3 6459   2.763   3.908   2.750  0.6972  1.4475 -0.3032
    1SOL    MW4 6460   2.714   3.964   2.795 -0.0236  0.6988 -0.1373
    1SOL     OW 6461   2.664   4.196   2.629  0.2659 -0.2405  0.2873
    1SOL    HW2 6462   2.733   4.259   2.649 -1.2853  1.6803 -0.1695
    1SOL    HW3 6463   2.583   4.246   2.640 -1.0983 -2.6569  1.5710
    1SOL    MW4 6464   2.662   4.211   2.633 -0.1190 -0.3061  0.3965
    1SOL     OW 6465   2.885   4.352   2.713  0.3158  0.2622 -0.3307
    1SOL    HW2 6466   2.898   4.356   2.808 -0.5223  0.1017 -0.2051
    1SOL    HW3 6467   2.894   4.443   2.684  0.0747  0.3805 -0.0340
    1SOL    MW4 6468   2.888   4.364   2.722  0.1738  0.2565 -0.2751
    1SOL     OW 6469   3.329   4.626   2.632  0.8072  0.4336 -0.3203
    1SOL    HW2 6470   3.345   4.557   2.697  2.0221 -1.7760 -2.8625
    1SOL    HW3 6471   3.262   4.681   2.672  0.3655 -1.7606  2.1509
    1SOL    MW4 6472   3.322   4.624   2.646  0.9093 -0.1469 -0.3297
    1SOL     OW 6473   3.130   0.118   2.748 -0.2010 -0.3478 -0.3731
    1SOL    HW2 6474   3.109   0.113   2.842  1.6189  1.8166  0.1928
    1SOL    HW3 6475   3.130   0.211   2.729  0.7914 -0.7152 -2.2208
    1SOL    MW4 6476   3.128   0.129   2.758  0.1700 -0.1107 -0.5419
    1SOL     OW 6477   3.119   0.371   2.608  0.1931  0.1884 -0.0615
    1SOL    HW2 6478   3.039   0.413   2.636 -0.7304 -1.4770 -0.1123
    1SOL    HW3 6479   3.103   0.348   2.516  1.0463  0.6206 -0.3183
    1SOL    MW4 6480   3.107   0.373   2.599  0.1841  0.0257 -0.1023
    1SOL     OW 6481   3.376   0.476   2.708  0.0441  0.0033  0.5161
    1SOL    HW2 6482   3.368   0.571   2.701  0.4990  0.0713  0.8901
    1SOL    HW3 6483   3.296   0.442   2.669  0.0042  0.5325  0.1257
    1SOL    MW4 6484   3.365   0.484   2.702  0.0989  0.0821  0.5140
    1SOL     OW 6485   3.365   0.756   2.676 -0.0044 -0.4881  0.0955
    1SOL    HW2 6486   3.452   0.792   2.696 -0.2303  0.4270 -0.5410
    1SOL    HW3 6487   3.358   0.762   2.581 -1.3344  0.7655  0.2665
    1SOL    MW4 6488   3.375   0.761   2.666 -0.2096 -0.2020  0.0343
    1SOL     OW 6489   3.109   0.901   2.745  0.1442  0.4519  0.0707
    1SOL    HW2 6490   3.112   0.893   2.840 -1.0731 -2.8237 -0.1313
    1SOL    HW3 6491   3.180   0.844   2.714 -0.2034  0.6104 -1.0291
    1SOL    MW4 6492   3.119   0.893   2.753 -0.0620  0.0407 -0.1009
    1SOL     OW 6493   3.111   1.176   2.678 -0.1696  0.0009  0.0248
    1SOL    HW2 6494   3.103   1.082   2.695  1.7259  0.1162  1.8442
    1SOL    HW3 6495   3.130   1.182   2.585  1.1278 -1.5697  0.1534
    1SOL    MW4 6496   3.113   1.165   2.668  0.2518 -0.1910  0.2816
    1SOL     OW 6497   3.391   1.275   2.743 -0.2931  0.1641 -0.0708
    1SOL    HW2 6498   3.401   1.286   2.837 -2.1899  2.8071 -0.1343
    1SOL    HW3 6499   3.310   1.225   2.733 -0.3046  0.2299 -0.3175
    1SOL    MW4 6500   3.382   1.270   2.754 -0.5450  0.5214 -0.1118
    1SOL     OW 6501   3.381   1.558   2.693  0.2253  0.1385  0.0015
    1SOL    HW2 6502   3.297   1.594   2.723 -0.0116 -1.2672  1.0706
    1SOL    HW3 6503   3.372   1.464   2.705  2.0429 -0.0103  0.3071
    1SOL    MW4 6504   3.369   1.550   2.698  0.4337 -0.0666  0.1829
    1SOL     OW 6505   3.147   1.657   2.767 -0.3501 -0.1841 -0.2639
    1SOL    HW2 6506   3.054   1.643   2.750 -0.4151  0.4013 -0.4080
    1SOL    HW3 6507   3.152   1.670   2.862 -0.6590  1.5485 -0.4665
    1SOL    MW4 6508   3.135   1.657   2.777 -0.3996  0.1217 -0.3097
    1SOL     OW 6509   3.148   1.919   2.686  0.1442 -0.5439  0.0459
    1SOL    HW2 6510   3.228   1.966   2.710 -0.1963 -0.2262  0.5552
    1SOL    HW3 6511   3.167   1.827   2.708  0.3958 -0.4813  0.0908
    1SOL    MW4 6512   3.161   1.913   2.692  0.1328 -0.4938  0.1190
    1SOL     OW 6513   3.410   2.054   2.731 -0.3653  0.1326 -0.3803
    1SOL    HW2 6514   3.412   2.051   2.826  0.5147 -1.3363 -0.4274
    1SOL    HW3 6515   3.389   2.145   2.710  0.3831  0.6905  1.2003
    1SOL    MW4 6516   3.408   2.065   2.740 -0.1504  0.0124 -0.1779
    1SOL     OW 6517   3.357   2.329   2.650 -0.0003 -0.0034  0.2732
    1SOL    HW2 6518   3.436   2.371   2.684  1.9219 -1.8534 -1.7052
    1SOL    HW3 6519   3.372   2.323   2.555 -1.5060 -2.4362  0.1521
    1SOL    MW4 6520   3.369   2.334   2.642  0.0546 -0.5684 -0.0036
    1SOL     OW 6521   3.123   2.407   2.762 -0.1705 -0.2021  0.0039
    1SOL    HW2 6522   3.204   2.355   2.757 -0.5023 -0.8617  1.2135
    1SOL    HW3 6523   3.118   2.434   2.854  0.2477  2.4037 -0.7102
    1SOL    MW4 6524   3.133   2.404   2.774 -0.1588  0.0548  0.0694
    1SOL     OW 6525   3.119   2.664   2.624 -0.2895 -0.0498  0.0019
    1SOL    HW2 6526   3.201   2.709   2.644 -1.2216  1.4517  0.4697
    1SOL    HW3 6527   3.132   2.575   2.656  0.9062  0.3590  0.6722
    1SOL    MW4 6528   3.132   2.658   2.631 -0.2546  0.2024  0.1521
    1SOL     OW 6529   3.355   2.814   2.711 -0.3757  0.2042  0.1641
    1SOL    HW2 6530   3.339   2.809   2.805 -0.4117 -0.3902  0.1261
    1SOL    HW3 6531   3.443   2.778   2.700 -0.2694  0.5108 -0.0013
    1SOL    MW4 6532   3.365   2.809   2.722 -0.3664  0.1662  0.1371
    1SOL     OW 6533   3.329   3.081   2.612 -0.2744  0.2337 -0.3961
    1SOL    HW2 6534   3.334   2.994   2.652  1.0534  0.8123  0.7705
    1SOL    HW3 6535   3.327   3.064   2.518  1.4279 -1.0326 -0.2324
    1SOL    MW4 6536   3.330   3.067   2.605  0.1254  0.1428 -0.2205
    1SOL     OW 6537   3.143   3.208   2.764 -0.2993 -0.6015 -0.0010
    1SOL    HW2 6538   3.203   3.178   2.696  0.2423  0.3174  0.0628
    1SOL    HW3 6539   3.058   3.170   2.739  0.1719 -1.3940 -0.4268
    1SOL    MW4 6540   3.140   3.199   2.751 -0.1657 -0.5846 -0.0486
    1SOL     OW 6541   3.151   3.458   2.658 -0.2530 -0.1108  0.3453
    1SOL    HW2 6542   3.152   3.368   2.692  0.0589  0.0772  0.8277
    1SOL    HW3 6543   3.066   3.493   2.686 -1.3441 -0.9791 -1.7398
    1SOL    MW4 6544   3.140   3.450   2.666 -0.3557 -0.2003  0.1338
    1SOL     OW 6545   3.369   3.601   2.726 -0.6624  0.2714  0.4372
    1SOL    HW2 6546   3.376   3.598   2.821 -1.0921  0.3116  0.4707
    1SOL    HW3 6547   3.285   3.559   2.707  0.3810 -1.6759 -0.0461
    1SOL    MW4 6548   3.358   3.595   2.736 -0.5815  0.0198  0.3777
    1SOL     OW 6549   3.365   3.866   2.632  0.0465  0.1925  0.2403
    1SOL    HW2 6550   3.372   3.775   2.661  0.7753  0.4807  0.9658
    1SOL    HW3 6551   3.371   3.861   2.536  0.0777 -0.5195  0.2772
    1SOL    MW4 6552   3.367   3.853   2.623  0.1469  0.1369  0.3409
    1SOL     OW 6553   3.106   3.957   2.743  0.2628  0.0261 -0.2146
    1SOL    HW2 6554   3.105   4.047   2.711  0.1642  0.7063  1.6428
    1SOL    HW3 6555   3.185   3.919   2.705 -0.0099  0.7196 -1.4893
    1SOL    MW4 6556   3.117   3.964   2.734  0.2136  0.2072 -0.1378
    1SOL     OW 6557   3.114   4.213   2.662 -0.3369  0.3354  0.2588
    1SOL    HW2 6558   3.043   4.273   2.682  1.6250  2.1954  1.8718
    1SOL    HW3 6559   3.124   4.218   2.567 -0.8095  1.8825  0.2846
    1SOL    MW4 6560   3.106   4.222   2.652 -0.1402  0.7849  0.4749
    1SOL     OW 6561   3.336   4.360   2.746 -0.0240 -0.7609 -0.2824
    1SOL    HW2 6562   3.345   4.367   2.841  0.8980 -1.1809 -0.3322
    1SOL    HW3 6563   3.251   4.318   2.732 -0.4946 -0.0143  0.3351
    1SOL    MW4 6564   3.326   4.355   2.756  0.0358 -0.7176 -0.2074
    1SOL     OW 6565   3.824   4.633   2.609 -0.6603 -0.0680 -0.0082
    1SOL    HW2 6566   3.824   4.541   2.637  1.0967  0.0856  0.5463
    1SOL    HW3 6567   3.753   4.673   2.658 -1.6698 -1.1932 -0.5066
    1SOL    MW4 6568   3.815   4.626   2.619 -0.5617 -0.1965 -0.0007
    1SOL     OW 6569   3.586   0.096   2.741 -0.0850  0.4780 -0.0846
    1SOL    HW2 6570   3.570   0.188   2.721 -2.3179  0.0579 -0.3794
    1SOL    HW3 6571   3.509   0.050   2.708  1.2996 -1.5996 -0.5606
    1SOL    MW4 6572   3.574   0.102   2.734 -0.1969  0.1485 -0.1862
    1SOL     OW 6573   3.609   0.342   2.618  0.4823 -0.0778  0.0539
    1SOL    HW2 6574   3.685   0.384   2.657  0.0653  1.1555 -0.4242
    1SOL    HW3 6575   3.535   0.399   2.641  0.0564  0.0354 -1.4687
    1SOL    MW4 6576   3.609   0.355   2.626  0.3715  0.0999 -0.2105
    1SOL     OW 6577   3.804   0.462   2.753 -0.6379  0.5702 -0.3529
    1SOL    HW2 6578   3.811   0.456   2.849 -1.3287 -0.9484 -0.3804
    1SOL    HW3 6579   3.879   0.412   2.721 -1.6571 -0.8140 -0.6023
    1SOL    MW4 6580   3.815   0.455   2.762 -0.8633  0.1872 -0.3896
    1SOL     OW 6581   3.813   0.731   2.641  0.7565 -0.1430  0.5095
    1SOL    HW2 6582   3.738   0.786   2.665  1.7772  0.5442  2.2974
    1SOL    HW3 6583   3.791   0.644   2.674  0.2938 -0.1878  0.0825
    1SOL    MW4 6584   3.800   0.727   2.649  0.8304 -0.0582  0.6890
    1SOL     OW 6585   3.603   0.890   2.721  0.0813 -0.0669 -0.1637
    1SOL    HW2 6586   3.609   0.874   2.816 -1.5806  0.1081 -0.0236
    1SOL    HW3 6587   3.628   0.983   2.712 -1.2515  0.3402  0.2765
    1SOL    MW4 6588   3.607   0.900   2.733 -0.3140  0.0098 -0.0873
    1SOL     OW 6589   3.652   1.157   2.650 -0.5380 -0.3803  0.1914
    1SOL    HW2 6590   3.725   1.209   2.683 -1.1724 -0.0288  1.0635
    1SOL    HW3 6591   3.574   1.193   2.693 -1.0599 -1.6465  0.3508
    1SOL    MW4 6592   3.651   1.168   2.660 -0.6907 -0.5010  0.3276
    1SOL     OW 6593   3.869   1.273   2.778 -0.5363 -0.0972 -0.6290
    1SOL    HW2 6594   3.923   1.224   2.716  0.3868 -0.1859  0.2423
    1SOL    HW3 6595   3.888   1.365   2.758  0.7041 -0.1305  0.3244
    1SOL    MW4 6596   3.879   1.279   2.767 -0.2511 -0.1132 -0.3879
    1SOL     OW 6597   3.866   1.520   2.651 -0.0056 -0.1277 -0.3409
    1SOL    HW2 6598   3.940   1.559   2.697 -0.3868  0.9464 -0.6247
    1SOL    HW3 6599   3.792   1.577   2.672 -1.0618 -1.9486  1.0709
    1SOL    MW4 6600   3.866   1.533   2.660 -0.1955 -0.2263 -0.1922
    1SOL     OW 6601   3.649   1.651   2.727  0.1829  0.2546 -0.1208
    1SOL    HW2 6602   3.630   1.738   2.693 -0.3401  0.3055  0.2841
    1SOL    HW3 6603   3.569   1.601   2.710  0.0526  0.1809  0.6939
    1SOL    MW4 6604   3.636   1.656   2.720  0.0968  0.2515  0.0401
    1SOL     OW 6605   3.600   1.894   2.624  0.3331 -0.0819 -0.3424
    1SOL    HW2 6606   3.526   1.940   2.665  0.1752 -0.6436  0.0145
    1SOL    HW3 6607   3.581   1.896   2.531 -0.2407 -0.3887 -0.2388
    1SOL    MW4 6608   3.588   1.900   2.617  0.2365 -0.1963 -0.2818
    1SOL     OW 6609   3.809   2.052   2.692 -0.3711  0.3501 -0.1386
    1SOL    HW2 6610   3.889   2.009   2.664  0.2991  1.4700  0.0202
    1SOL    HW3 6611   3.738   2.002   2.652  0.4957  0.7080 -2.1430
    1SOL    MW4 6612   3.810   2.040   2.683 -0.1681  0.5453 -0.3824
    1SOL     OW 6613   3.858   2.303   2.608  0.1549  0.0709  0.5050
    1SOL    HW2 6614   3.851   2.211   2.631  1.1846  0.0086  0.5994
    1SOL    HW3 6615   3.833   2.308   2.516 -0.0150 -0.2907  0.5340
    1SOL    MW4 6616   3.854   2.292   2.599  0.2682  0.0150  0.5214
    1SOL     OW 6617   3.608   2.427   2.748  0.0109  0.5746  0.2110
    1SOL    HW2 6618   3.609   2.417   2.843 -1.2583  2.3384  0.4322
    1SOL    HW3 6619   3.685   2.378   2.718 -0.3277 -1.1159  2.0123
    1SOL    MW4 6620   3.619   2.419   2.757 -0.2012  0.5844  0.4778
    1SOL     OW 6621   3.603   2.708   2.655  0.3768 -0.0061 -0.3238
    1SOL    HW2 6622   3.592   2.617   2.683 -1.9524  0.7112  1.3276
    1SOL    HW3 6623   3.598   2.705   2.560 -1.6751 -1.4216 -0.2146
    1SOL    MW4 6624   3.601   2.696   2.647 -0.2012 -0.0980 -0.0916
    1SOL     OW 6625   3.813   2.863   2.747 -0.2435  0.0540 -0.1666
    1SOL    HW2 6626   3.888   2.813   2.715 -0.3522 -0.4217  0.3230
    1SOL    HW3 6627   3.737   2.811   2.724 -0.3626  0.0412  0.2515
    1SOL    MW4 6628   3.813   2.850   2.740 -0.2735 -0.0103 -0.0470
    1SOL     OW 6629   3.771   3.116   2.637  0.0512  0.1859  0.2587
    1SOL    HW2 6630   3.695   3.146   2.687  1.6469  1.0192  2.2427
    1SOL    HW3 6631   3.785   3.026   2.665  0.1278  0.2143  0.3127
    1SOL    MW4 6632   3.763   3.108   2.647  0.2718  0.2997  0.5271
    1SOL     OW 6633   3.530   3.218   2.759  0.3808 -0.4045 -0.1395
    1SOL    HW2 6634   3.536   3.302   2.712  0.3683  0.2628  1.0449
    1SOL    HW3 6635   3.454   3.174   2.719 -0.6071  0.8386  0.3327
    1SOL    MW4 6636   3.521   3.223   2.747  0.2487 -0.1523  0.0792
    1SOL     OW 6637   3.590   3.478   2.626  0.2462  0.3063 -0.2594
    1SOL    HW2 6638   3.664   3.518   2.673  0.1850 -0.5444  0.5767
    1SOL    HW3 6639   3.514   3.527   2.658  0.3050  0.3112 -0.1234
    1SOL    MW4 6640   3.590   3.490   2.637  0.2463  0.1948 -0.1311
    1SOL     OW 6641   3.783   3.641   2.738  0.0384 -0.3984  0.2241
    1SOL    HW2 6642   3.864   3.598   2.713  1.2057  1.9023 -0.0910
    1SOL    HW3 6643   3.786   3.726   2.694 -2.7234 -0.4233 -0.1073
    1SOL    MW4 6644   3.794   3.647   2.729 -0.1721 -0.0980  0.1388
    1SOL     OW 6645   3.776   3.885   2.625  0.3102  0.2321  0.2471
    1SOL    HW2 6646   3.855   3.931   2.654 -0.7716  1.8817  0.6650
    1SOL    HW3 6647   3.704   3.930   2.670 -0.8743 -1.2797 -0.0757
    1SOL    MW4 6648   3.777   3.897   2.635  0.0110  0.2503  0.2596
    1SOL     OW 6649   3.572   4.018   2.749 -0.1284 -0.1470 -0.0964
    1SOL    HW2 6650   3.585   4.103   2.707 -2.0450  0.3066  0.1656
    1SOL    HW3 6651   3.509   3.973   2.692 -0.9464 -0.4438  1.0209
    1SOL    MW4 6652   3.565   4.023   2.736 -0.4890 -0.1268  0.0854
    1SOL     OW 6653   3.574   4.272   2.626 -0.2219  0.1143  0.2092
    1SOL    HW2 6654   3.484   4.293   2.652 -0.3063  0.1462 -0.1021
    1SOL    HW3 6655   3.568   4.257   2.531  0.1138  0.1787  0.1785
    1SOL    MW4 6656   3.561   4.273   2.617 -0.1888  0.1273  0.1640
    1SOL     OW 6657   3.804   4.390   2.746 -0.2778  0.0231 -0.2483
    1SOL    HW2 6658   3.881   4.345   2.711 -0.3344 -1.5592  1.5769
    1SOL    HW3 6659   3.730   4.350   2.700 -0.3526 -2.0568  1.6007
    1SOL    MW4 6660   3.804   4.379   2.735 -0.2949 -0.4597  0.2365
    1SOL     OW 6661   4.274   4.634   2.620  0.3997  0.1435  0.0776
    1SOL    HW2 6662   4.208   4.688   2.663  0.4127  0.2257 -0.0069
    1SOL    HW3 6663   4.356   4.682   2.629  0.3131  0.4055 -0.4830
    1SOL    MW4 6664   4.276   4.647   2.627  0.3896  0.1888 -0.0074
    1SOL     OW 6665   4.051   0.086   2.719  0.1150 -0.0714 -0.2035
    1SOL    HW2 6666   4.027   0.090   2.811 -0.0591 -0.9455 -0.2123
    1SOL    HW3 6667   3.975   0.048   2.675  0.4526 -0.2851 -0.6135
    1SOL    MW4 6668   4.038   0.082   2.725  0.1369 -0.2149 -0.2584
    1SOL     OW 6669   4.040   0.346   2.631  0.1806 -0.2879 -0.5825
    1SOL    HW2 6670   4.073   0.260   2.656 -0.2345 -0.2627  0.0737
    1SOL    HW3 6671   4.040   0.345   2.535 -0.8913 -1.4358 -0.5809
    1SOL    MW4 6672   4.044   0.334   2.622 -0.0157 -0.4361 -0.4957
    1SOL     OW 6673   4.258   0.454   2.746 -0.2042  0.2152  0.8553
    1SOL    HW2 6674   4.177   0.431   2.701 -0.0614  1.0947  0.1385
    1SOL    HW3 6675   4.327   0.406   2.699  0.1513  2.4001 -0.9301
    1SOL    MW4 6676   4.257   0.445   2.734 -0.1383  0.6195  0.5252
    1SOL     OW 6677   4.287   0.728   2.645  0.3613 -0.1819  0.4556
    1SOL    HW2 6678   4.292   0.636   2.671 -0.4893 -0.6134 -0.8461
    1SOL    HW3 6679   4.267   0.726   2.551  2.1001  1.3264  0.0009
    1SOL    MW4 6680   4.285   0.716   2.636  0.4787 -0.0398  0.2239
    1SOL     OW 6681   4.048   0.839   2.731 -0.0597 -0.2362 -0.4133
    1SOL    HW2 6682   4.123   0.786   2.705 -1.2087 -1.5724 -1.1101
    1SOL    HW3 6683   3.973   0.796   2.689 -1.2919  0.6913  0.7918
    1SOL    MW4 6684   4.048   0.826   2.722 -0.3734 -0.2901 -0.3459
    1SOL     OW 6685   4.038   1.131   2.611  0.0822  0.0887  0.4571
    1SOL    HW2 6686   4.114   1.177   2.645  1.2753 -1.0234 -0.6384
    1SOL    HW3 6687   4.046   1.042   2.646 -1.0609  0.1303  0.8495
    1SOL    MW4 6688   4.049   1.125   2.620  0.0887 -0.0526  0.3643
    1SOL     OW 6689   4.246   1.257   2.723 -0.6659  0.6000 -0.2929
    1SOL    HW2 6690   4.241   1.349   2.700 -1.4090  0.0884 -2.2827
    1SOL    HW3 6691   4.325   1.225   2.679 -0.1663  0.3632  0.7448
    1SOL    MW4 6692   4.256   1.265   2.714 -0.6986  0.5012 -0.4184
    1SOL     OW 6693   4.244   1.501   2.599  0.0311  0.3857 -0.3924
    1SOL    HW2 6694   4.328   1.540   2.624  0.8321 -0.5860 -1.4785
    1SOL    HW3 6695   4.250   1.492   2.504 -1.6321  1.0334 -0.5762
    1SOL    MW4 6696   4.256   1.505   2.590 -0.0825  0.3428 -0.5600
    1SOL     OW 6697   4.081   1.676   2.766  0.0174  0.4507  0.8239
    1SOL    HW2 6698   4.091   1.670   2.861 -0.2796 -1.4777  0.7492
    1SOL    HW3 6699   4.146   1.615   2.731 -1.4921 -0.6546 -0.1193
    1SOL    MW4 6700   4.091   1.667   2.774 -0.2208  0.0503  0.6895
    1SOL     OW 6701   4.043   1.912   2.629  0.2396  0.3910 -0.2473
    1SOL    HW2 6702   4.131   1.949   2.642  0.0425  0.4755  0.9376
    1SOL    HW3 6703   4.041   1.835   2.686 -0.6447  0.7058  0.1525
    1SOL    MW4 6704   4.054   1.907   2.639  0.0978  0.4436 -0.0381
    1SOL     OW 6705   4.282   2.056   2.734  0.5070  0.0154 -0.5575
    1SOL    HW2 6706   4.302   2.131   2.678 -0.5210 -0.4470 -1.5799
    1SOL    HW3 6707   4.339   1.986   2.702  0.8498  0.1219 -0.1753
    1SOL    MW4 6708   4.292   2.056   2.722  0.4168 -0.0315 -0.6423
    1SOL     OW 6709   4.301   2.320   2.575 -0.1783 -0.0716 -0.1824
    1SOL    HW2 6710   4.226   2.372   2.607 -0.2079  0.1162 -0.5450
    1SOL    HW3 6711   4.289   2.319   2.480 -1.4562 -2.7050 -0.0204
    1SOL    MW4 6712   4.289   2.327   2.567 -0.3505 -0.3941 -0.2086
    1SOL     OW 6713   4.079   2.435   2.697 -0.1747 -0.1345  0.1992
    1SOL    HW2 6714   4.052   2.445   2.788 -1.0411 -0.9141  0.0429
    1SOL    HW3 6715   4.002   2.399   2.653  0.1426  0.4991 -0.9025
    1SOL    MW4 6716   4.065   2.431   2.703 -0.2475 -0.1538  0.0334
    1SOL     OW 6717   4.019   2.716   2.636 -0.3749  0.5517 -0.4865
    1SOL    HW2 6718   4.101   2.755   2.667 -0.8971 -0.1846  1.9588
    1SOL    HW3 6719   4.033   2.622   2.644 -1.7706  0.4346  0.9128
    1SOL    MW4 6720   4.032   2.709   2.641 -0.6275  0.4392  0.0205
    1SOL     OW 6721   4.248   2.832   2.729  0.2937  0.5655 -0.6018
    1SOL    HW2 6722   4.246   2.838   2.825  1.2014  0.2327 -0.5628
    1SOL    HW3 6723   4.249   2.923   2.700  0.5286  0.6657 -0.2831
    1SOL    MW4 6724   4.248   2.845   2.738  0.4444  0.5348 -0.5548
    1SOL     OW 6725   4.242   3.086   2.630 -0.0446  0.3418 -0.0461
    1SOL    HW2 6726   4.161   3.126   2.662 -1.6271 -2.6441 -0.2024
    1SOL    HW3 6727   4.236   3.093   2.535 -0.9611 -1.3934 -0.1357
    1SOL    MW4 6728   4.231   3.092   2.622 -0.3738 -0.2809 -0.0784
    1SOL     OW 6729   4.008   3.221   2.719  0.3960  0.0501  0.1325
    1SOL    HW2 6730   4.018   3.313   2.693 -0.1680  0.1428  0.2311
    1SOL    HW3 6731   3.918   3.199   2.693  0.9736 -0.8828 -1.1699
    1SOL    MW4 6732   3.997   3.230   2.712  0.3977 -0.0606 -0.0267
    1SOL     OW 6733   4.006   3.511   2.654 -0.1071  0.7904  0.1324
    1SOL    HW2 6734   4.085   3.546   2.695  0.2495  3.0675 -2.3441
    1SOL    HW3 6735   4.030   3.499   2.563 -1.8212 -1.1729 -0.0953
    1SOL    MW4 6736   4.019   3.514   2.648 -0.2866  0.8321 -0.2246
    1SOL     OW 6737   4.256   3.630   2.756 -0.3561  0.5306  0.0940
    1SOL    HW2 6738   4.283   3.623   2.848 -0.2263 -0.9687 -0.0486
    1SOL    HW3 6739   4.323   3.583   2.707 -1.3912 -0.2361 -0.6010
    1SOL    MW4 6740   4.269   3.623   2.762 -0.4759  0.2317 -0.0167
    1SOL     OW 6741   4.254   3.873   2.627  0.3572 -0.1174  0.1878
    1SOL    HW2 6742   4.243   3.792   2.677  0.4644 -0.2370  0.0191
    1SOL    HW3 6743   4.336   3.911   2.660  1.3652 -1.0958 -1.1304
    1SOL    MW4 6744   4.263   3.867   2.638  0.5045 -0.2623 -0.0081
    1SOL     OW 6745   4.014   4.003   2.703 -0.1294  0.2317  0.3924
    1SOL    HW2 6746   4.023   4.008   2.798 -0.7526 -0.9527  0.5261
    1SOL    HW3 6747   4.091   3.953   2.674 -1.7487 -2.5082  0.6634
    1SOL    MW4 6748   4.025   3.997   2.711 -0.4249 -0.2863  0.4458
    1SOL     OW 6749   4.016   4.264   2.630  0.0209  0.0769  0.2379
    1SOL    HW2 6750   4.013   4.170   2.651 -1.0031 -0.1074 -0.6807
    1SOL    HW3 6751   4.020   4.267   2.534  0.5818  0.9728  0.2841
    1SOL    MW4 6752   4.016   4.252   2.620 -0.0401  0.1707  0.1228
    1SOL     OW 6753   4.267   4.352   2.712 -0.1179  0.2961  0.1566
    1SOL    HW2 6754   4.184   4.320   2.677  0.1819 -0.7765  0.4180
    1SOL    HW3 6755   4.263   4.447   2.700 -0.8256  0.1217 -1.0186
    1SOL    MW4 6756   4.256   4.360   2.706 -0.1721  0.1311  0.0358
    1SOL     OW 6757   0.196   4.636   3.063 -0.4890  0.0455 -0.1272
    1SOL    HW2 6758   0.170   4.637   3.155  0.8439 -0.4470  0.2637
    1SOL    HW3 6759   0.122   4.675   3.017 -0.9693  0.7325  1.2036
    1SOL    MW4 6760   0.182   4.641   3.069 -0.3765  0.0710  0.0997
    1SOL     OW 6761   4.463   0.105   2.940 -0.2000 -0.2672  0.8256
    1SOL    HW2 6762   4.394   0.053   2.981 -0.5814 -0.0208  0.5085
    1SOL    HW3 6763   4.469   0.184   2.994 -0.0139 -0.3907  0.9828
    1SOL    MW4 6764   4.454   0.109   2.952 -0.2251 -0.2510  0.8044
    1SOL     OW 6765   0.005   0.351   3.103  0.0861 -0.0975 -0.0838
    1SOL    HW2 6766   0.012   0.358   3.199 -0.2895  0.9771 -0.1317
    1SOL    HW3 6767  -0.078   0.393   3.082 -0.5974 -1.7416 -0.7360
    1SOL    MW4 6768  -0.005   0.357   3.113 -0.0534 -0.1726 -0.1760
    1SOL     OW 6769   0.218   0.504   2.972 -0.1251 -0.2988 -0.1126
    1SOL    HW2 6770   0.293   0.462   3.014  0.2648  0.7220  0.2186
    1SOL    HW3 6771   0.141   0.458   3.007  0.2125  0.3239  1.4624
    1SOL    MW4 6772   0.218   0.493   2.982 -0.0291 -0.0820  0.1388
    1SOL     OW 6773   0.242   0.769   3.059 -0.2336  0.2771 -0.1158
    1SOL    HW2 6774   0.255   0.762   3.154 -0.1095 -0.3316 -0.1795
    1SOL    HW3 6775   0.229   0.679   3.029  0.5454  0.3882 -0.7960
    1SOL    MW4 6776   0.242   0.756   3.068 -0.1144  0.2114 -0.2141
    1SOL     OW 6777   4.480   0.880   2.966 -0.0142 -0.5250 -0.1481
    1SOL    HW2 6778   4.552   0.819   2.983  1.6981  1.4852 -0.0799
    1SOL    HW3 6779   4.484   0.897   2.872 -1.1111 -1.2484 -0.3395
    1SOL    MW4 6780   4.490   0.874   2.956  0.0668 -0.3553 -0.1645
    1SOL     OW 6781   0.036   1.137   3.068  0.2429  0.5756 -0.4792
    1SOL    HW2 6782  -0.045   1.180   3.040  0.3827  1.0356 -0.1815
    1SOL    HW3 6783   0.022   1.044   3.050 -1.5152  0.2316  2.3544
    1SOL    MW4 6784   0.024   1.130   3.062  0.0296  0.5910 -0.0660
    1SOL     OW 6785   0.254   1.268   2.945 -0.0122 -0.1116 -0.4586
    1SOL    HW2 6786   0.174   1.233   2.984 -0.3305  1.0147 -0.0870
    1SOL    HW3 6787   0.238   1.267   2.851 -0.6671  0.5783 -0.3609
    1SOL    MW4 6788   0.241   1.263   2.938 -0.1406  0.1280 -0.3970
    1SOL     OW 6789   0.263   1.533   3.098  0.0863  0.7350  0.3022
    1SOL    HW2 6790   0.175   1.564   3.078  0.1226  0.1543 -0.7889
    1SOL    HW3 6791   0.262   1.441   3.073  0.8951  0.6434  0.6070
    1SOL    MW4 6792   0.252   1.525   3.092  0.1977  0.6464  0.1984
    1SOL     OW 6793   0.016   1.627   3.016  0.6285 -0.3196 -0.2825
    1SOL    HW2 6794  -0.050   1.579   3.066  1.8545  0.2563  1.9451
    1SOL    HW3 6795   0.001   1.719   3.039  2.0350 -0.1692  0.0354
    1SOL    MW4 6796   0.005   1.633   3.026  0.9756 -0.2238  0.0534
    1SOL     OW 6797   4.473   1.900   3.099 -0.1458  0.0367  0.4445
    1SOL    HW2 6798   4.401   1.957   3.072  0.5157  0.5758 -0.2147
    1SOL    HW3 6799   4.551   1.945   3.069  0.4233 -0.9074  0.4934
    1SOL    MW4 6800   4.474   1.913   3.091  0.0167 -0.0167  0.3641
    1SOL     OW 6801   0.201   2.017   3.006  0.4584 -0.0673  0.3610
    1SOL    HW2 6802   0.202   2.112   3.018  0.1357  0.0069 -0.1630
    1SOL    HW3 6803   0.214   2.006   2.912 -0.7574 -0.5027  0.2359
    1SOL    MW4 6804   0.203   2.028   2.995  0.2554 -0.1147  0.2754
    1SOL     OW 6805   0.202   2.303   3.098  0.3210  0.2933  0.0298
    1SOL    HW2 6806   0.231   2.315   3.189  0.5147  0.6419 -0.0772
    1SOL    HW3 6807   0.269   2.346   3.046  0.2985 -0.0587 -0.2919
    1SOL    MW4 6808   0.214   2.310   3.103  0.3436  0.2928 -0.0269
    1SOL     OW 6809   4.470   2.434   2.986  0.3223 -0.5720 -0.3846
    1SOL    HW2 6810   4.440   2.519   3.020  1.1783  0.7984 -2.8936
    1SOL    HW3 6811   4.547   2.413   3.038  0.6964  0.6931 -0.4107
    1SOL    MW4 6812   4.476   2.443   2.997  0.4845 -0.2239 -0.7188
    1SOL     OW 6813   4.453   2.685   3.094  0.1804  0.3722  0.0455
    1SOL    HW2 6814   4.463   2.682   3.189  1.0628 -1.4906 -0.0869
    1SOL    HW3 6815   4.534   2.728   3.064  0.0268  0.7110  0.1144
    1SOL    MW4 6816   4.465   2.690   3.103  0.2761  0.1709  0.0372
    1SOL     OW 6817   0.195   2.831   3.056 -0.1469  0.3504 -0.1135
    1SOL    HW2 6818   0.276   2.784   3.075 -0.1880  0.9802  1.7288
    1SOL    HW3 6819   0.193   2.838   2.960  0.5197 -2.1659 -0.3302
    1SOL    MW4 6820   0.205   2.826   3.046 -0.0644  0.1016  0.1011
    1SOL     OW 6821   0.241   3.089   3.154  0.3886 -0.4196  0.5326
    1SOL    HW2 6822   0.165   3.123   3.106 -0.1068 -1.1463  0.7978
    1SOL    HW3 6823   0.250   2.999   3.123  0.4408 -0.6964  1.3493
    1SOL    MW4 6824   0.232   3.082   3.143  0.3301 -0.5519  0.6754
    1SOL     OW 6825   0.004   3.180   3.025 -0.2262  0.0517 -0.2143
    1SOL    HW2 6826  -0.084   3.160   3.059 -0.6564 -1.6675 -2.2052
    1SOL    HW3 6827  -0.012   3.204   2.934  1.6311 -3.4725 -1.5760
    1SOL    MW4 6828  -0.010   3.180   3.017 -0.0377 -0.6399 -0.6566
    1SOL     OW 6829   0.024   3.455   3.117  0.2318  0.1406 -0.4903
    1SOL    HW2 6830  -0.053   3.496   3.079 -0.9189 -0.4846  1.1014
    1SOL    HW3 6831   0.019   3.364   3.091  0.3925  0.0807 -0.3166
    1SOL    MW4 6832   0.013   3.449   3.109  0.1011  0.0503 -0.2573
    1SOL     OW 6833   0.237   3.619   3.014  0.0256  0.1998  0.3958
    1SOL    HW2 6834   0.231   3.705   3.056 -0.2064  1.0059 -1.2267
    1SOL    HW3 6835   0.173   3.565   3.060 -0.1051  1.0154  1.1803
    1SOL    MW4 6836   0.228   3.623   3.026 -0.0222  0.4137  0.2849
    1SOL     OW 6837   0.243   3.872   3.132  0.1319 -0.0640  0.1582
    1SOL    HW2 6838   0.259   3.888   3.225  0.7919  0.1393  0.0145
    1SOL    HW3 6839   0.320   3.909   3.088 -0.2223 -0.0726 -0.4723
    1SOL    MW4 6840   0.256   3.879   3.139  0.1723 -0.0384  0.0560
    1SOL     OW 6841   0.005   3.994   3.005  0.0711  0.1138  0.4461
    1SOL    HW2 6842   0.090   3.962   3.037  0.6070  2.4996  1.5548
    1SOL    HW3 6843   0.015   3.996   2.910  1.0103 -0.2876  0.5211
    1SOL    MW4 6844   0.018   3.990   2.997  0.2657  0.3757  0.6025
    1SOL     OW 6845   4.490   4.245   3.113  0.0791 -0.3640 -0.4794
    1SOL    HW2 6846   4.490   4.230   3.207  0.7563 -0.5146 -0.5070
    1SOL    HW3 6847   4.487   4.158   3.074  0.0523 -0.3095 -0.5995
    1SOL    MW4 6848   4.489   4.232   3.120  0.1650 -0.3762 -0.4992
    1SOL     OW 6849   0.234   4.364   3.005  0.1444  0.3549 -0.0590
    1SOL    HW2 6850   0.159   4.330   3.055 -0.8662  1.1360 -0.9960
    1SOL    HW3 6851   0.252   4.449   3.043  0.7243  0.0489  0.3402
    1SOL    MW4 6852   0.226   4.371   3.016  0.0876  0.4177 -0.1299
    1SOL     OW 6853   0.701   4.658   3.066  0.3285 -0.2121 -0.2009
    1SOL    HW2 6854   0.718   4.570   3.032 -0.8618 -0.8132  0.7012
    1SOL    HW3 6855   0.619   4.685   3.024  0.2343  0.1089  0.1801
    1SOL    MW4 6856   0.692   4.650   3.056  0.1590 -0.2489 -0.0317
    1SOL     OW 6857   0.435   0.100   3.012  0.4625  0.1188 -0.6817
    1SOL    HW2 6858   0.416   0.186   3.050  2.1654 -0.4607  1.5552
    1SOL    HW3 6859   0.353   0.052   3.019  0.0845  0.8518  0.0242
    1SOL    MW4 6860   0.421   0.105   3.018  0.6373  0.1390 -0.2935
    1SOL     OW 6861   0.420   0.365   3.070  0.0007  0.1346  0.5237
    1SOL    HW2 6862   0.421   0.372   3.165  0.2295 -2.6968  0.7721
    1SOL    HW3 6863   0.494   0.418   3.042  1.5268 -1.0589  2.1315
    1SOL    MW4 6864   0.430   0.373   3.079  0.2322 -0.3965  0.7687
    1SOL     OW 6865   0.657   0.501   3.006 -0.6408  0.3129 -0.3917
    1SOL    HW2 6866   0.743   0.462   3.022 -0.6334  0.5428  0.1571
    1SOL    HW3 6867   0.662   0.586   3.049 -1.0951  0.3818 -0.4795
    1SOL    MW4 6868   0.669   0.507   3.014 -0.6998  0.3523 -0.3307
    1SOL     OW 6869   0.670   0.754   3.112 -0.5123  0.5506 -0.1873
    1SOL    HW2 6870   0.681   0.759   3.207  0.2167  0.0876 -0.2412
    1SOL    HW3 6871   0.753   0.785   3.076 -0.4364 -0.1730 -0.6545
    1SOL    MW4 6872   0.682   0.759   3.120 -0.4061  0.3940 -0.2561
    1SOL     OW 6873   0.471   0.898   2.972  0.3569 -0.1833 -0.1483
    1SOL    HW2 6874   0.388   0.861   3.002  0.7059 -0.6523  0.2505
    1SOL    HW3 6875   0.538   0.843   3.013  0.8601 -0.1662 -0.9349
    1SOL    MW4 6876   0.469   0.886   2.982  0.4693 -0.2429 -0.1993
    1SOL     OW 6877   0.482   1.148   3.078  0.0586 -0.2942  0.0143
    1SOL    HW2 6878   0.483   1.061   3.038  0.5443 -0.3527  0.1585
    1SOL    HW3 6879   0.412   1.194   3.031 -2.0169 -1.6039  1.7279
    1SOL    MW4 6880   0.473   1.142   3.066 -0.1512 -0.4746  0.2592
    1SOL     OW 6881   0.699   1.285   2.997  0.0525  0.6271 -0.1771
    1SOL    HW2 6882   0.775   1.230   3.015  0.2148  0.8029 -0.3295
    1SOL    HW3 6883   0.624   1.234   3.029  0.2403  0.4844  0.0332
    1SOL    MW4 6884   0.699   1.271   3.004  0.0988  0.6313 -0.1695
    1SOL     OW 6885   0.681   1.566   3.078 -0.0061  0.3220  0.7416
    1SOL    HW2 6886   0.695   1.570   3.173 -0.1954 -1.5963  0.8792
    1SOL    HW3 6887   0.686   1.472   3.057  0.8121  0.7939 -1.2657
    1SOL    MW4 6888   0.683   1.554   3.088  0.0769  0.1311  0.4950
    1SOL     OW 6889   0.462   1.689   2.984  0.1065  0.2902 -0.3883
    1SOL    HW2 6890   0.531   1.643   3.030 -0.4648 -0.5946 -0.4053
    1SOL    HW3 6891   0.381   1.648   3.014 -0.3124  0.1470 -1.6765
    1SOL    MW4 6892   0.460   1.678   2.994 -0.0241  0.1546 -0.5608
    1SOL     OW 6893   0.464   1.928   3.088 -0.0649 -0.1903 -0.1164
    1SOL    HW2 6894   0.474   1.840   3.049 -1.6772  0.2190 -1.5079
    1SOL    HW3 6895   0.379   1.958   3.057  0.1054  1.5327  1.0589
    1SOL    MW4 6896   0.454   1.920   3.079 -0.2552  0.0911 -0.1447
    1SOL     OW 6897   0.700   2.034   2.992  0.4666  0.2383 -0.1168
    1SOL    HW2 6898   0.774   1.992   3.035  0.7663  2.7031  1.9275
    1SOL    HW3 6899   0.625   1.979   3.013  1.3864 -1.2095 -0.5555
    1SOL    MW4 6900   0.700   2.022   3.001  0.6275  0.3724  0.0949
    1SOL     OW 6901   0.661   2.294   3.089  0.0956  0.4915  0.1595
    1SOL    HW2 6902   0.663   2.301   3.184 -1.7380  0.6495  0.2080
    1SOL    HW3 6903   0.680   2.202   3.071  1.6304  0.7037  0.6001
    1SOL    MW4 6904   0.664   2.283   3.099  0.0561  0.5405  0.2239
    1SOL     OW 6905   0.411   2.400   2.972 -0.2613  0.0257 -0.0933
    1SOL    HW2 6906   0.487   2.361   3.015 -0.4469 -0.7854 -0.4922
    1SOL    HW3 6907   0.436   2.407   2.880 -0.8340 -0.6453 -0.3000
    1SOL    MW4 6908   0.424   2.396   2.965 -0.3614 -0.1695 -0.1731
    1SOL     OW 6909   0.427   2.683   3.086  0.1056 -0.5973 -0.8169
    1SOL    HW2 6910   0.502   2.733   3.055  0.2705 -0.1410  0.3030
    1SOL    HW3 6911   0.431   2.601   3.037  1.2118 -0.4924 -0.9095
    1SOL    MW4 6912   0.437   2.679   3.075  0.2733 -0.5233 -0.6814
    1SOL     OW 6913   0.653   2.832   2.979  0.3454 -0.5682  0.4503
    1SOL    HW2 6914   0.737   2.799   3.009  0.5377 -0.5170 -0.0269
    1SOL    HW3 6915   0.649   2.922   3.011  1.1877 -0.0325 -0.9155
    1SOL    MW4 6916   0.663   2.839   2.987  0.4818 -0.4907  0.2072
    1SOL     OW 6917   0.675   3.088   3.106 -0.2612 -0.2946  0.2352
    1SOL    HW2 6918   0.675   3.094   3.201  0.4256 -0.2415  0.2289
    1SOL    HW3 6919   0.604   3.147   3.078 -0.1533  0.0480  0.6862
    1SOL    MW4 6920   0.665   3.097   3.115 -0.1563 -0.2425  0.2940
    1SOL     OW 6921   0.459   3.222   3.021 -0.3473 -0.1866 -0.1912
    1SOL    HW2 6922   0.454   3.313   3.050 -2.2230  0.1417 -1.4912
    1SOL    HW3 6923   0.392   3.176   3.071 -0.7840 -0.4358 -0.9880
    1SOL    MW4 6924   0.450   3.228   3.031 -0.6524 -0.1762 -0.4680
    1SOL     OW 6925   0.476   3.497   3.077 -0.1256 -0.2887 -0.9397
    1SOL    HW2 6926   0.480   3.495   3.173  1.3112  1.8096 -0.9377
    1SOL    HW3 6927   0.393   3.541   3.058 -0.0679 -0.0584 -0.6613
    1SOL    MW4 6928   0.465   3.503   3.087  0.0716  0.0186 -0.9027
    1SOL     OW 6929   0.700   3.635   2.989 -0.3154  0.2451 -0.4567
    1SOL    HW2 6930   0.782   3.606   3.030 -0.6048  1.2807  0.9187
    1SOL    HW3 6931   0.632   3.583   3.031 -0.4440 -0.0140 -0.9847
    1SOL    MW4 6932   0.702   3.625   3.000 -0.3704  0.3476 -0.3450
    1SOL     OW 6933   0.732   3.881   3.099  0.2586  0.0792 -0.3158
    1SOL    HW2 6934   0.723   3.880   3.194  1.4878 -0.6394 -0.1924
    1SOL    HW3 6935   0.719   3.790   3.073  0.7511  0.1307 -0.7503
    1SOL    MW4 6936   0.729   3.869   3.108  0.4858 -0.0091 -0.3572
    1SOL     OW 6937   0.482   3.951   3.016  0.6065 -0.2686 -0.4933
    1SOL    HW2 6938   0.572   3.932   3.042  0.1413 -3.3455 -1.0092
    1SOL    HW3 6939   0.486   3.961   2.921  0.6005  1.0131 -0.3781
    1SOL    MW4 6940   0.494   3.950   3.007  0.5443 -0.5054 -0.5462
    1SOL     OW 6941   0.479   4.231   3.055  0.2993 -0.1747  0.2656
    1SOL    HW2 6942   0.481   4.139   3.032 -0.7836 -0.6658  2.0329
    1SOL    HW3 6943   0.391   4.260   3.030  0.7802  0.5103 -0.6969
    1SOL    MW4 6944   0.467   4.223   3.049  0.2199 -0.1488  0.3717
    1SOL     OW 6945   0.691   4.389   2.984 -0.0543 -0.5160 -0.2323
    1SOL    HW2 6946   0.618   4.337   3.016 -1.3869  0.9403 -0.8842
    1SOL    HW3 6947   0.677   4.395   2.890  0.4801  0.4146 -0.2597
    1SOL    MW4 6948   0.680   4.383   2.976 -0.1597 -0.2012 -0.3221
    1SOL     OW 6949   1.181   4.629   3.136  0.3216 -0.5587 -0.0884
    1SOL    HW2 6950   1.255   4.672   3.093  1.4426 -2.9691 -0.6517
    1SOL    HW3 6951   1.104   4.667   3.095  1.2823  0.5051 -0.9540
    1SOL    MW4 6952   1.181   4.640   3.125  0.5962 -0.7362 -0.2770
    1SOL     OW 6953   0.968   0.085   3.031  0.2248  0.1515  0.2832
    1SOL    HW2 6954   0.954   0.175   3.059  0.1774  0.0059  0.7376
    1SOL    HW3 6955   0.882   0.043   3.038  0.3478 -0.0587  0.5503
    1SOL    MW4 6956   0.955   0.091   3.036  0.2347  0.1045  0.3784
    1SOL     OW 6957   0.901   0.358   3.090 -0.1163  0.1710 -0.4532
    1SOL    HW2 6958   0.891   0.365   3.185 -1.5121  1.0371 -0.6572
    1SOL    HW3 6959   0.981   0.407   3.071 -0.4901  1.0236  0.1466
    1SOL    MW4 6960   0.911   0.365   3.100 -0.3499  0.3977 -0.4008
    1SOL     OW 6961   1.127   0.483   3.022 -0.5680  0.0698  0.2328
    1SOL    HW2 6962   1.206   0.432   3.042 -0.8330 -0.0669  0.9515
    1SOL    HW3 6963   1.126   0.489   2.926  0.4148  0.2358  0.2315
    1SOL    MW4 6964   1.137   0.477   3.012 -0.4734  0.0737  0.3273
    1SOL     OW 6965   1.160   0.740   3.129 -0.0961  0.2289 -0.0557
    1SOL    HW2 6966   1.153   0.746   3.224 -0.4748 -0.2628 -0.0499
    1SOL    HW3 6967   1.146   0.647   3.110 -2.0319  0.6356 -0.7500
    1SOL    MW4 6968   1.157   0.728   3.139 -0.4014  0.2177 -0.1466
    1SOL     OW 6969   0.900   0.871   3.019  0.1801 -0.2179 -0.7364
    1SOL    HW2 6970   0.893   0.961   3.053 -0.4268 -0.6327  0.2744
    1SOL    HW3 6971   0.986   0.842   3.047  0.2281 -0.0822 -0.7397
    1SOL    MW4 6972   0.910   0.879   3.028  0.1063 -0.2547 -0.6034
    1SOL     OW 6973   0.897   1.139   3.106 -0.5582 -0.0503  0.0694
    1SOL    HW2 6974   0.897   1.131   3.201 -1.2631 -0.3968  0.0402
    1SOL    HW3 6975   0.972   1.196   3.087  0.0042 -0.5469  0.7773
    1SOL    MW4 6976   0.907   1.145   3.116 -0.5770 -0.1615  0.1590
    1SOL     OW 6977   1.123   1.313   3.040 -0.2709 -0.0767 -0.9228
    1SOL    HW2 6978   1.188   1.248   3.067  0.7891  1.4774  0.3236
    1SOL    HW3 6979   1.123   1.307   2.944  0.2384 -1.5051 -0.8533
    1SOL    MW4 6980   1.132   1.304   3.031 -0.0638 -0.0601 -0.7489
    1SOL     OW 6981   1.123   1.568   3.159  0.3459  0.1161 -0.1004
    1SOL    HW2 6982   1.189   1.599   3.098 -1.5802 -0.4716 -2.5597
    1SOL    HW3 6983   1.107   1.477   3.134  0.2101 -0.4410  1.9006
    1SOL    MW4 6984   1.129   1.560   3.148  0.0739 -0.0347 -0.1612
    1SOL     OW 6985   0.926   1.669   2.986 -0.1043 -0.2444  0.1363
    1SOL    HW2 6986   0.984   1.619   3.042 -0.1692 -1.5586 -0.9520
    1SOL    HW3 6987   0.839   1.631   3.000 -0.3651  0.3693  0.2244
    1SOL    MW4 6988   0.922   1.657   2.995 -0.1473 -0.3369  0.0045
    1SOL     OW 6989   0.948   1.938   3.095  0.7218  0.0974 -0.0179
    1SOL    HW2 6990   0.973   1.948   3.187 -0.0350  1.5303  0.0425
    1SOL    HW3 6991   0.961   1.845   3.077 -1.1142 -0.6209  2.1464
    1SOL    MW4 6992   0.953   1.927   3.105  0.3797  0.1916  0.2756
    1SOL     OW 6993   1.109   2.133   3.003 -0.0776 -0.1834  0.0682
    1SOL    HW2 6994   1.056   2.068   3.047 -0.5437  1.2525  1.6778
    1SOL    HW3 6995   1.105   2.108   2.910 -2.7886 -0.6652  0.2555
    1SOL    MW4 6996   1.101   2.121   2.996 -0.4967 -0.0579  0.3052
    1SOL     OW 6997   1.137   2.374   3.125  0.3974  0.4651 -0.1538
    1SOL    HW2 6998   1.046   2.397   3.108  0.4083  1.5041  1.1176
    1SOL    HW3 6999   1.147   2.286   3.089 -0.9110  0.6251 -0.9274
    1SOL    MW4 7000   1.126   2.366   3.118  0.2263  0.6237 -0.0880
    1SOL     OW 7001   0.885   2.461   3.058  0.0686  0.2144 -0.1443
    1SOL    HW2 7002   0.802   2.415   3.067  0.1608  0.2048  0.6549
    1SOL    HW3 7003   0.902   2.462   2.964 -0.5735 -0.2507 -0.2628
    1SOL    MW4 7004   0.876   2.455   3.047 -0.0040  0.1519 -0.0546
    1SOL     OW 7005   0.872   2.730   3.085 -0.2208  0.3614  0.6619
    1SOL    HW2 7006   0.860   2.762   3.175  0.6832 -1.7737  1.5721
    1SOL    HW3 7007   0.869   2.635   3.093  0.5657  0.1342 -1.4914
    1SOL    MW4 7008   0.870   2.722   3.098  0.0022  0.0498  0.4981
    1SOL     OW 7009   1.138   2.823   3.031  0.0979  0.0002  0.5636
    1SOL    HW2 7010   1.129   2.914   3.058 -0.3040  0.2402 -0.3424
    1SOL    HW3 7011   1.051   2.786   3.043  0.1301 -0.1227  0.4201
    1SOL    MW4 7012   1.125   2.830   3.036  0.0491  0.0155  0.4251
    1SOL     OW 7013   1.101   3.091   3.111 -0.1688  0.4287 -0.0609
    1SOL    HW2 7014   1.173   3.137   3.068 -0.8024  1.9524  0.4747
    1SOL    HW3 7015   1.022   3.128   3.072 -0.6845 -0.5517  0.0386
    1SOL    MW4 7016   1.100   3.102   3.100 -0.3204  0.5004  0.0229
    1SOL     OW 7017   0.881   3.261   3.022 -0.4334  0.2652 -0.0611
    1SOL    HW2 7018   0.801   3.217   3.050 -0.2546 -0.5466 -0.8079
    1SOL    HW3 7019   0.883   3.248   2.927  0.3606  0.6591 -0.1019
    1SOL    MW4 7020   0.870   3.254   3.013 -0.3051  0.2103 -0.1650
    1SOL     OW 7021   0.939   3.521   3.112 -1.0879  0.0867 -0.1165
    1SOL    HW2 7022   1.018   3.566   3.084 -1.4540  0.8533  0.0608
    1SOL    HW3 7023   0.944   3.435   3.070  0.0531 -0.0320  0.2598
    1SOL    MW4 7024   0.950   3.516   3.103 -0.9856  0.1724 -0.0434
    1SOL     OW 7025   1.161   3.650   2.993  0.3337  0.3252 -0.0518
    1SOL    HW2 7026   1.233   3.604   3.035  1.0228  1.8696  0.5092
    1SOL    HW3 7027   1.170   3.741   3.023 -1.6148  0.6153 -0.2645
    1SOL    MW4 7028   1.171   3.656   3.003  0.1676  0.5674 -0.0060
    1SOL     OW 7029   1.199   3.922   3.088 -0.0949  0.3244 -0.0762
    1SOL    HW2 7030   1.199   3.923   3.184 -0.4687  0.0431 -0.0708
    1SOL    HW3 7031   1.124   3.975   3.063 -0.3628 -0.1126 -0.2027
    1SOL    MW4 7032   1.189   3.929   3.098 -0.1795  0.2296 -0.0920
    1SOL     OW 7033   0.966   4.014   2.974  0.1038  0.5031  0.0343
    1SOL    HW2 7034   0.901   3.970   3.029  1.6828 -2.1126 -0.1205
    1SOL    HW3 7035   0.948   3.985   2.885  1.5566 -0.3958  0.0069
    1SOL    MW4 7036   0.955   4.005   2.970  0.5038  0.0396  0.0105
    1SOL     OW 7037   0.912   4.276   3.103  0.3980  0.4531 -0.1914
    1SOL    HW2 7038   0.919   4.188   3.067  1.0397  0.7440 -0.7972
    1SOL    HW3 7039   0.838   4.316   3.057 -0.0267  0.1577  0.2378
    1SOL    MW4 7040   0.903   4.270   3.092  0.4267  0.4525 -0.2146
    1SOL     OW 7041   1.151   4.385   2.996  0.1295  0.0536  0.2142
    1SOL    HW2 7042   1.069   4.345   3.025  0.1209  1.0284  1.5989
    1SOL    HW3 7043   1.160   4.463   3.051 -0.4410  2.6388 -3.2169
    1SOL    MW4 7044   1.141   4.390   3.007  0.0530  0.5231 -0.0560
    1SOL     OW 7045   1.629   4.641   3.122  0.0104 -0.2092 -0.2403
    1SOL    HW2 7046   1.614   4.659   3.215  0.6938  0.8575 -0.3248
    1SOL    HW3 7047   1.549   4.671   3.079 -0.1456 -0.3290 -0.0357
    1SOL    MW4 7048   1.617   4.648   3.129  0.0802 -0.0849 -0.2244
    1SOL     OW 7049   1.385   0.082   3.006  0.1313  0.3430  0.2105
    1SOL    HW2 7050   1.381   0.174   3.033  0.7478  0.6347 -0.7112
    1SOL    HW3 7051   1.362   0.083   2.913  2.1459 -0.2048 -0.3003
    1SOL    MW4 7052   1.381   0.094   2.998  0.4785  0.3092  0.0215
    1SOL     OW 7053   1.363   0.361   3.097  0.4897  0.0713 -0.0800
    1SOL    HW2 7054   1.351   0.369   3.192  0.2157  0.7015 -0.1671
    1SOL    HW3 7055   1.434   0.421   3.076  0.1297  0.4022 -0.3649
    1SOL    MW4 7056   1.371   0.370   3.107  0.4060  0.1981 -0.1290
    1SOL     OW 7057   1.578   0.492   2.980  0.2436  0.2169  0.2758
    1SOL    HW2 7058   1.574   0.581   3.015  0.8001  0.5061 -0.3905
    1SOL    HW3 7059   1.575   0.503   2.885 -0.0425 -0.4969  0.1977
    1SOL    MW4 7060   1.577   0.505   2.972  0.2792  0.1609  0.1774
    1SOL     OW 7061   1.586   0.761   3.117  0.4108 -0.0524  0.2378
    1SOL    HW2 7062   1.578   0.760   3.212 -0.0620  0.4549  0.2075
    1SOL    HW3 7063   1.513   0.816   3.088  1.3951  0.9613 -0.3414
    1SOL    MW4 7064   1.575   0.768   3.126  0.4783  0.1483  0.1571
    1SOL     OW 7065   1.370   0.883   3.025  0.2983  0.0473 -0.8905
    1SOL    HW2 7066   1.357   0.963   3.076 -0.3441 -1.0010  0.6321
    1SOL    HW3 7067   1.296   0.827   3.049  0.4607 -0.8181 -2.3269
    1SOL    MW4 7068   1.359   0.886   3.035  0.2351 -0.2052 -0.8790
    1SOL     OW 7069   1.320   1.141   3.140  0.4444 -0.3054 -0.3031
    1SOL    HW2 7070   1.332   1.167   3.232 -0.8291  0.0234 -0.2167
    1SOL    HW3 7071   1.371   1.205   3.090 -1.4366  1.5028 -0.0012
    1SOL    MW4 7072   1.328   1.153   3.146  0.0281 -0.0234 -0.2518
    1SOL     OW 7073   1.522   1.290   3.027 -0.7997 -0.0993  0.2165
    1SOL    HW2 7074   1.592   1.245   3.073 -0.4968 -0.2833 -0.4156
    1SOL    HW3 7075   1.523   1.379   3.063  1.7952  0.8058 -1.9303
    1SOL    MW4 7076   1.531   1.296   3.037 -0.4175 -0.0042 -0.1502
    1SOL     OW 7077   1.555   1.556   3.120  0.1669  0.0304  0.2566
    1SOL    HW2 7078   1.630   1.611   3.096  0.2428 -0.2851 -0.2381
    1SOL    HW3 7079   1.481   1.595   3.073  0.3234 -0.6107 -0.5363
    1SOL    MW4 7080   1.555   1.569   3.111  0.1976 -0.0958  0.0868
    1SOL     OW 7081   1.330   1.656   2.989 -0.0692 -0.0797  0.5057
    1SOL    HW2 7082   1.353   1.745   3.015  1.1706 -0.7245  1.7137
    1SOL    HW3 7083   1.337   1.656   2.894  0.5231  0.9699  0.5416
    1SOL    MW4 7084   1.334   1.667   2.980  0.1726 -0.0263  0.6697
    1SOL     OW 7085   1.369   1.955   3.050  0.0605 -0.0881  0.1448
    1SOL    HW2 7086   1.364   1.940   3.145  1.2271 -1.2638  0.0478
    1SOL    HW3 7087   1.289   2.001   3.028 -0.8058 -0.9106  1.5189
    1SOL    MW4 7088   1.358   1.959   3.060  0.1001 -0.3518  0.3135
    1SOL     OW 7089   1.602   2.093   2.970 -0.5766 -0.2267  0.2152
    1SOL    HW2 7090   1.530   2.033   2.989 -0.9069 -0.2819 -1.1851
    1SOL    HW3 7091   1.605   2.098   2.875  0.5468  0.6600  0.2858
    1SOL    MW4 7092   1.593   2.086   2.960 -0.4721 -0.1171  0.0398
    1SOL     OW 7093   1.577   2.322   3.094  0.1750 -0.1603 -0.6815
    1SOL    HW2 7094   1.495   2.358   3.061  0.2161  0.0568 -0.5434
    1SOL    HW3 7095   1.582   2.234   3.056  0.0160 -0.0671 -0.9141
    1SOL    MW4 7096   1.567   2.315   3.085  0.1595 -0.1194 -0.6938
    1SOL     OW 7097   1.366   2.461   2.988  0.4790 -0.2686 -0.4759
    1SOL    HW2 7098   1.279   2.453   3.027 -0.0166  1.0360 -1.2735
    1SOL    HW3 7099   1.351   2.451   2.894  1.0959  0.5847 -0.6713
    1SOL    MW4 7100   1.353   2.459   2.981  0.4951  0.0162 -0.6068
    1SOL     OW 7101   1.370   2.709   3.107  1.0296  0.3180  0.3903
    1SOL    HW2 7102   1.364   2.627   3.057  3.6032 -1.1204  2.2969
    1SOL    HW3 7103   1.284   2.750   3.097 -0.3075 -2.6121 -0.6396
    1SOL    MW4 7104   1.358   2.703   3.099  1.1927 -0.2584  0.5059
    1SOL     OW 7105   1.583   2.826   3.008 -0.1059 -0.0892  0.4449
    1SOL    HW2 7106   1.649   2.771   3.051  0.0412  0.4045  0.8548
    1SOL    HW3 7107   1.499   2.794   3.042  0.0671  1.1084  2.0806
    1SOL    MW4 7108   1.580   2.815   3.018 -0.0637  0.1340  0.7148
    1SOL     OW 7109   1.541   3.083   3.111  0.2420  0.2691 -0.4275
    1SOL    HW2 7110   1.543   3.087   3.207  1.5138  2.1636 -0.5170
    1SOL    HW3 7111   1.543   2.990   3.091  0.2792 -0.1322  1.3773
    1SOL    MW4 7112   1.541   3.071   3.121  0.4147  0.4661 -0.2012
    1SOL     OW 7113   1.324   3.221   3.015  0.0048  0.3314  0.2602
    1SOL    HW2 7114   1.391   3.163   3.051  0.4992  1.4674  1.2177
    1SOL    HW3 7115   1.334   3.213   2.920 -1.3163 -2.7041  0.3142
    1SOL    MW4 7116   1.335   3.212   3.007 -0.1043  0.0806  0.3936
    1SOL     OW 7117   1.363   3.495   3.089 -0.1641 -0.2659 -0.1841
    1SOL    HW2 7118   1.351   3.477   3.182  0.7466 -1.4066 -0.2711
    1SOL    HW3 7119   1.349   3.410   3.046  0.0778  0.1100 -1.0238
    1SOL    MW4 7120   1.360   3.481   3.095 -0.0120 -0.3667 -0.3066
    1SOL     OW 7121   1.617   3.617   3.016 -0.0482 -0.2584  0.1184
    1SOL    HW2 7122   1.532   3.579   3.035 -0.8144  1.6247  0.6125
    1SOL    HW3 7123   1.616   3.631   2.921 -0.8061  0.9251  0.2934
    1SOL    MW4 7124   1.606   3.614   3.006 -0.2491  0.1462  0.2067
    1SOL     OW 7125   1.647   3.878   3.109 -0.0901  0.2520 -0.0323
    1SOL    HW2 7126   1.732   3.910   3.081 -0.2921  1.1346  0.3377
    1SOL    HW3 7127   1.639   3.791   3.070  1.1661 -0.0164  0.3022
    1SOL    MW4 7128   1.657   3.870   3.100  0.0490  0.3333  0.0606
    1SOL     OW 7129   1.437   4.019   3.014 -0.0942  0.5181 -0.5611
    1SOL    HW2 7130   1.512   3.968   3.044  0.0951  0.8270 -0.5154
    1SOL    HW3 7131   1.361   3.976   3.055  0.2089  1.2571  0.7831
    1SOL    MW4 7132   1.437   4.006   3.023 -0.0292  0.6571 -0.3774
    1SOL     OW 7133   1.359   4.271   3.129 -0.2490  0.1371  0.0369
    1SOL    HW2 7134   1.375   4.185   3.092  1.0036  0.8328 -1.0897
    1SOL    HW3 7135   1.280   4.302   3.084 -1.1557 -0.7252  1.0142
    1SOL    MW4 7136   1.350   4.264   3.118 -0.2035  0.1154  0.0174
    1SOL     OW 7137   1.597   4.374   3.025  0.5037  0.2041 -0.3186
    1SOL    HW2 7138   1.508   4.348   3.051  0.7950 -0.2774  0.2193
    1SOL    HW3 7139   1.610   4.459   3.068  0.3843  0.1651 -0.2026
    1SOL    MW4 7140   1.587   4.382   3.034  0.5265  0.1354 -0.2322
    1SOL     OW 7141   2.042   0.012   3.102 -0.1377  0.4290  0.3481
    1SOL    HW2 7142   2.042  -0.007   3.196 -0.4968  1.4181  0.5608
    1SOL    HW3 7143   1.960   0.060   3.088 -0.3466 -0.1882 -0.5729
    1SOL    MW4 7144   2.031   0.016   3.112 -0.2127  0.4783  0.2546
    1SOL     OW 7145   1.819   0.147   3.034  0.1920 -0.2474  0.1965
    1SOL    HW2 7146   1.753   0.084   3.064 -0.3179  0.1820 -0.0146
    1SOL    HW3 7147   1.817   0.140   2.938 -0.4337  0.6618  0.1366
    1SOL    MW4 7148   1.810   0.138   3.025  0.0422 -0.0708  0.1609
    1SOL     OW 7149   1.788   0.391   3.141 -0.3559  0.3584 -0.3487
    1SOL    HW2 7150   1.799   0.300   3.114 -0.7961  0.3707 -0.5679
    1SOL    HW3 7151   1.710   0.421   3.095 -2.0394 -0.1033  2.1133
    1SOL    MW4 7152   1.780   0.383   3.132 -0.6361  0.2991 -0.0529
    1SOL     OW 7153   2.008   0.541   3.026  0.0601 -0.4111 -0.0348
    1SOL    HW2 7154   1.929   0.496   3.058  1.0196 -2.8065 -0.8932
    1SOL    HW3 7155   2.081   0.493   3.066  1.0945  1.2322  0.0580
    1SOL    MW4 7156   2.007   0.528   3.035  0.3231 -0.5103 -0.1361
    1SOL     OW 7157   2.012   0.781   3.135  0.1737 -0.2806  0.1549
    1SOL    HW2 7158   1.934   0.830   3.110 -0.6292 -1.0190  1.1832
    1SOL    HW3 7159   1.991   0.690   3.116  1.2880 -0.3497 -0.8091
    1SOL    MW4 7160   1.999   0.776   3.129  0.2149 -0.3871  0.1633
    1SOL     OW 7161   1.793   0.927   3.052  0.1241  0.0213 -0.1295
    1SOL    HW2 7162   1.729   0.868   3.091 -0.0284 -0.0467 -0.4810
    1SOL    HW3 7163   1.781   0.917   2.958 -0.9095  1.6977 -0.2010
    1SOL    MW4 7164   1.783   0.918   3.045 -0.0325  0.2335 -0.1855
    1SOL     OW 7165   1.746   1.188   3.171 -0.0376  0.1362  0.3933
    1SOL    HW2 7166   1.746   1.178   3.266 -1.1660 -0.2397  0.3625
    1SOL    HW3 7167   1.778   1.104   3.138 -1.9039 -0.6108  0.3861
    1SOL    MW4 7168   1.750   1.176   3.179 -0.4326 -0.0120  0.3884
    1SOL     OW 7169   1.982   1.296   3.063 -0.3012 -0.1031  0.0110
    1SOL    HW2 7170   2.063   1.251   3.088 -0.8912 -0.2378  1.7479
    1SOL    HW3 7171   1.917   1.265   3.126 -1.1520  1.7851  0.0875
    1SOL    MW4 7172   1.985   1.286   3.074 -0.4913  0.1283  0.2503
    1SOL     OW 7173   2.012   1.559   3.138 -0.0158 -0.0423  0.3862
    1SOL    HW2 7174   2.044   1.566   3.227  1.0248 -1.5379  0.1470
    1SOL    HW3 7175   1.975   1.470   3.132 -0.4190  0.1786 -0.5598
    1SOL    MW4 7176   2.011   1.548   3.149  0.0682 -0.2103  0.2296
    1SOL     OW 7177   1.770   1.710   3.067 -0.2013  0.0382  0.2328
    1SOL    HW2 7178   1.781   1.805   3.078  0.9390  0.0599 -0.9487
    1SOL    HW3 7179   1.855   1.673   3.091 -0.4767 -0.6457  0.1600
    1SOL    MW4 7180   1.782   1.718   3.072 -0.0870 -0.0492  0.0672
    1SOL     OW 7181   1.828   1.983   3.085 -0.1153 -0.2372  0.4001
    1SOL    HW2 7182   1.912   2.012   3.051 -0.5354  0.1401 -0.3398
    1SOL    HW3 7183   1.764   2.023   3.026 -0.9382  1.7834  2.6136
    1SOL    MW4 7184   1.830   1.992   3.073 -0.2793  0.0792  0.5944
    1SOL     OW 7185   2.055   2.073   2.976  0.3475 -0.4573  0.0924
    1SOL    HW2 7186   2.134   2.041   3.021  0.5292 -1.1613 -0.7115
    1SOL    HW3 7187   2.044   2.163   3.008  1.6851 -0.2294 -0.0600
    1SOL    MW4 7188   2.064   2.081   2.986  0.5479 -0.5202 -0.0339
    1SOL     OW 7189   1.989   2.313   3.085 -0.2645  0.1278 -0.0467
    1SOL    HW2 7190   2.065   2.369   3.074 -0.8424  0.9994  0.3235
    1SOL    HW3 7191   1.914   2.371   3.073 -0.8810 -0.2356  1.9459
    1SOL    MW4 7192   1.989   2.328   3.082 -0.4220  0.1948  0.2651
    1SOL     OW 7193   1.784   2.452   2.977  0.1316 -0.0716  0.4350
    1SOL    HW2 7194   1.790   2.537   3.021 -0.1099  0.8540 -1.2805
    1SOL    HW3 7195   1.718   2.404   3.027  0.1714  0.8003  1.3411
    1SOL    MW4 7196   1.776   2.457   2.989  0.1050  0.1659  0.3281
    1SOL     OW 7197   1.819   2.675   3.104 -0.2291  0.2361 -0.3053
    1SOL    HW2 7198   1.826   2.701   3.196  1.7528  1.5442 -0.7933
    1SOL    HW3 7199   1.894   2.717   3.061 -0.9122 -0.6559 -2.4542
    1SOL    MW4 7200   1.830   2.684   3.110 -0.0578  0.2911 -0.6530
    1SOL     OW 7201   2.053   2.831   3.025 -0.3749  0.5429  0.1819
    1SOL    HW2 7202   2.016   2.910   3.066  0.0473  1.3752 -1.0348
    1SOL    HW3 7203   2.059   2.853   2.932  0.7622 -0.5348 -0.0000
    1SOL    MW4 7204   2.049   2.845   3.018 -0.1690  0.5105 -0.0026
    1SOL     OW 7205   2.008   3.081   3.124 -0.2841  0.4503 -0.0136
    1SOL    HW2 7206   2.014   3.094   3.218  0.1118  2.6340 -0.3096
    1SOL    HW3 7207   1.931   3.131   3.097  0.4835  1.1135 -1.0419
    1SOL    MW4 7208   1.999   3.089   3.133 -0.1307  0.8259 -0.1884
    1SOL     OW 7209   1.785   3.224   3.050  0.3041  0.0256  0.6727
    1SOL    HW2 7210   1.710   3.169   3.072  1.5034 -1.5690  0.8473
    1SOL    HW3 7211   1.791   3.220   2.955 -0.2556  0.7215  0.6078
    1SOL    MW4 7212   1.776   3.216   3.040  0.3885 -0.0930  0.6871
    1SOL     OW 7213   1.812   3.489   3.141 -0.4834 -0.5039  0.3021
    1SOL    HW2 7214   1.798   3.399   3.112  0.0851 -0.9211  1.2863
    1SOL    HW3 7215   1.747   3.540   3.094  1.5141 -0.8911 -3.0131
    1SOL    MW4 7216   1.801   3.484   3.131 -0.1447 -0.6099 -0.0052
    1SOL     OW 7217   2.070   3.571   3.023 -0.2670 -0.2591 -0.3443
    1SOL    HW2 7218   2.083   3.655   3.067  0.9212 -0.6007 -0.0322
    1SOL    HW3 7219   1.983   3.542   3.052 -0.1792  0.2935  0.4985
    1SOL    MW4 7220   2.060   3.578   3.033 -0.0985 -0.2310 -0.1915
    1SOL     OW 7221   2.077   3.818   3.137  0.0142  0.3972 -0.2227
    1SOL    HW2 7222   2.080   3.854   3.226  0.9176  0.1096 -0.1333
    1SOL    HW3 7223   2.009   3.869   3.093 -1.0610 -0.0786  0.8985
    1SOL    MW4 7224   2.069   3.830   3.143 -0.0086  0.2966 -0.0629
    1SOL     OW 7225   1.893   3.983   3.017 -0.1588 -0.1319 -0.7594
    1SOL    HW2 7226   1.881   4.070   3.057 -0.0886 -0.9101  1.0159
    1SOL    HW3 7227   1.860   3.993   2.928  1.5837  2.2345 -1.2185
    1SOL    MW4 7228   1.887   3.996   3.011  0.0802  0.0777 -0.5856
    1SOL     OW 7229   1.833   4.248   3.121  0.0954  0.0687  0.0507
    1SOL    HW2 7230   1.897   4.313   3.091 -0.5885  0.1761 -1.1890
    1SOL    HW3 7231   1.749   4.279   3.088 -0.5029 -0.4670  1.0439
    1SOL    MW4 7232   1.831   4.261   3.113 -0.0738  0.0119  0.0181
    1SOL     OW 7233   2.053   4.409   3.034  0.0825 -0.0835  0.2584
    1SOL    HW2 7234   2.048   4.502   3.052  1.2945 -0.1989  1.2524
    1SOL    HW3 7235   2.060   4.403   2.939 -1.5291  0.7581  0.0804
    1SOL    MW4 7236   2.054   4.420   3.024  0.0296  0.0124  0.3657
    1SOL     OW 7237   2.458   0.013   3.157 -0.1780 -0.1811  0.6479
    1SOL    HW2 7238   2.449  -0.077   3.126  0.9727 -0.1973  0.3745
    1SOL    HW3 7239   2.392   0.061   3.108  0.9877 -0.3758 -1.1566
    1SOL    MW4 7240   2.448   0.007   3.147  0.1276 -0.2090  0.3736
    1SOL     OW 7241   2.256   0.127   2.996 -0.4106 -0.3904 -0.2727
    1SOL    HW2 7242   2.235   0.212   3.034 -1.6074 -0.2739 -1.1692
    1SOL    HW3 7243   2.183   0.070   3.021  0.0052 -0.9522 -0.3170
    1SOL    MW4 7244   2.244   0.131   3.004 -0.5138 -0.4492 -0.3970
    1SOL     OW 7245   2.224   0.382   3.123 -0.0283  0.4392  0.0586
    1SOL    HW2 7246   2.218   0.368   3.217  0.2639 -0.0263  0.0081
    1SOL    HW3 7247   2.301   0.438   3.111 -0.1823  0.6641  0.1108
    1SOL    MW4 7248   2.233   0.387   3.134 -0.0098  0.4075  0.0589
    1SOL     OW 7249   2.438   0.542   3.055 -0.1748  0.0840  0.0064
    1SOL    HW2 7250   2.503   0.476   3.080  0.6686  1.3477  1.1806
    1SOL    HW3 7251   2.429   0.532   2.960  1.3765 -0.4323 -0.0924
    1SOL    MW4 7252   2.445   0.532   3.046  0.1411  0.1826  0.1483
    1SOL     OW 7253   2.430   0.790   3.197 -0.2161 -0.2520 -0.2138
    1SOL    HW2 7254   2.518   0.806   3.163 -0.0156 -0.6800  0.1012
    1SOL    HW3 7255   2.413   0.698   3.178 -1.1793  0.1823 -1.5982
    1SOL    MW4 7256   2.439   0.780   3.190 -0.3166 -0.2511 -0.3548
    1SOL     OW 7257   2.239   0.880   3.012  0.3139 -0.1141  0.3701
    1SOL    HW2 7258   2.311   0.861   3.071 -0.4010  1.4317  1.7697
    1SOL    HW3 7259   2.164   0.835   3.051 -0.2781  1.3566  0.9572
    1SOL    MW4 7260   2.238   0.872   3.025  0.1414  0.2840  0.6320
    1SOL     OW 7261   2.234   1.148   3.119  1.1155 -0.4607  0.3345
    1SOL    HW2 7262   2.216   1.147   3.213  2.5676 -0.1810  0.6207
    1SOL    HW3 7263   2.227   1.056   3.092 -3.9372 -0.0352 -0.2107
    1SOL    MW4 7264   2.231   1.136   3.128  0.6402 -0.3678  0.3004
    1SOL     OW 7265   2.471   1.297   3.026 -0.1693  0.2146 -0.0932
    1SOL    HW2 7266   2.392   1.247   3.045  0.5408 -0.5612  0.8288
    1SOL    HW3 7267   2.482   1.290   2.931 -0.3145 -1.0157 -0.0175
    1SOL    MW4 7268   2.462   1.290   3.016 -0.0949 -0.0501  0.0384
    1SOL     OW 7269   2.419   1.545   3.162  0.5520  0.1210  0.0771
    1SOL    HW2 7270   2.351   1.592   3.113  1.6011  0.7825 -0.7562
    1SOL    HW3 7271   2.432   1.464   3.112  0.0909 -0.1921  0.4623
    1SOL    MW4 7272   2.412   1.541   3.149  0.6294  0.1671  0.0179
    1SOL     OW 7273   2.223   1.693   3.030 -0.0611 -0.0136 -0.3386
    1SOL    HW2 7274   2.142   1.649   3.055  0.0232 -0.6014 -1.0541
    1SOL    HW3 7275   2.225   1.686   2.934  0.7114  0.2110 -0.3431
    1SOL    MW4 7276   2.213   1.686   3.020  0.0517 -0.0616 -0.4334
    1SOL     OW 7277   2.238   1.949   3.152 -0.4618  0.2079 -0.1035
    1SOL    HW2 7278   2.318   1.985   3.113  0.7326 -0.9986  1.1572
    1SOL    HW3 7279   2.226   1.865   3.109 -1.0036  0.3330 -0.2060
    1SOL    MW4 7280   2.247   1.943   3.141 -0.3757  0.0652  0.0491
    1SOL     OW 7281   2.454   2.067   3.030  0.0900 -0.0501  0.0677
    1SOL    HW2 7282   2.532   2.018   3.056 -0.5606 -1.2320 -0.1435
    1SOL    HW3 7283   2.442   2.044   2.938 -0.4766  0.1639  0.0882
    1SOL    MW4 7284   2.463   2.058   3.021 -0.0703 -0.1779  0.0427
    1SOL     OW 7285   2.471   2.326   3.124 -0.1049 -0.4096 -0.2998
    1SOL    HW2 7286   2.470   2.326   3.220  1.2802 -0.2585 -0.2809
    1SOL    HW3 7287   2.464   2.234   3.100  0.7410 -0.5460 -0.0314
    1SOL    MW4 7288   2.470   2.314   3.134  0.1895 -0.4077 -0.2618
    1SOL     OW 7289   2.234   2.455   3.077  0.2226 -0.0332  0.2736
    1SOL    HW2 7290   2.242   2.547   3.103 -0.5069 -0.3071  1.5150
    1SOL    HW3 7291   2.320   2.418   3.096 -0.2779 -0.2136  2.3112
    1SOL    MW4 7292   2.246   2.462   3.083  0.0603 -0.0932  0.7064
    1SOL     OW 7293   2.269   2.724   3.139 -0.0158  0.0946  0.2125
    1SOL    HW2 7294   2.345   2.767   3.099 -1.0621  1.2975 -0.5360
    1SOL    HW3 7295   2.194   2.772   3.105 -1.1168 -1.0120  1.0279
    1SOL    MW4 7296   2.269   2.736   3.129 -0.2990  0.1070  0.2213
    1SOL     OW 7297   2.546   2.830   3.053  0.2666 -0.2095 -0.1789
    1SOL    HW2 7298   2.517   2.917   3.082  0.8526 -0.0313 -0.1205
    1SOL    HW3 7299   2.533   2.831   2.958  0.3271 -0.0409 -0.1856
    1SOL    MW4 7300   2.540   2.842   3.044  0.3517 -0.1636 -0.1719
    1SOL     OW 7301   2.458   3.062   3.165 -0.2301 -0.0105 -0.1762
    1SOL    HW2 7302   2.536   3.111   3.138 -1.8705  2.4812 -0.5103
    1SOL    HW3 7303   2.387   3.097   3.111 -2.1394 -0.2068  2.1206
    1SOL    MW4 7304   2.459   3.073   3.155 -0.6986  0.2923  0.0827
    1SOL     OW 7305   2.258   3.169   3.005 -0.4320  0.2266 -0.1061
    1SOL    HW2 7306   2.262   3.255   3.047 -0.8576  0.1038  0.1926
    1SOL    HW3 7307   2.173   3.134   3.031 -0.3855 -0.1601 -0.4737
    1SOL    MW4 7308   2.247   3.176   3.014 -0.4821  0.1595 -0.1154
    1SOL     OW 7309   2.286   3.439   3.129  0.0545 -0.4122  0.5624
    1SOL    HW2 7310   2.365   3.494   3.125 -0.3231  0.1942  1.5022
    1SOL    HW3 7311   2.218   3.491   3.087 -0.0333 -0.6343  0.4246
    1SOL    MW4 7312   2.288   3.453   3.123 -0.0067 -0.3614  0.6680
    1SOL     OW 7313   2.490   3.612   3.038  0.0618 -0.3687 -0.2140
    1SOL    HW2 7314   2.560   3.563   3.081 -1.0463 -2.1839 -0.4192
    1SOL    HW3 7315   2.491   3.698   3.080  0.8408 -1.1799  1.4575
    1SOL    MW4 7316   2.499   3.617   3.049  0.0184 -0.7153 -0.0205
    1SOL     OW 7317   2.490   3.867   3.149  0.0629 -0.2304  0.0532
    1SOL    HW2 7318   2.480   3.841   3.241 -0.5384 -1.5411 -0.3791
    1SOL    HW3 7319   2.561   3.931   3.150 -0.4567  0.3447  1.5457
    1SOL    MW4 7320   2.498   3.872   3.162 -0.0851 -0.3273  0.1931
    1SOL     OW 7321   2.256   3.985   3.019 -0.2927  0.7984  0.3195
    1SOL    HW2 7322   2.333   3.932   3.041 -0.7858  0.6472  1.7372
    1SOL    HW3 7323   2.182   3.932   3.049 -0.9579  0.9190 -1.0845
    1SOL    MW4 7324   2.256   3.971   3.026 -0.4456  0.7946  0.3211
    1SOL     OW 7325   2.278   4.249   3.106  0.1035 -0.4388  0.1772
    1SOL    HW2 7326   2.263   4.157   3.087  0.3517 -0.0253 -2.0839
    1SOL    HW3 7327   2.198   4.293   3.079  0.1253  0.0730  0.9124
    1SOL    MW4 7328   2.266   4.243   3.100  0.1395 -0.3171 -0.0243
    1SOL     OW 7329   2.472   4.431   3.014  0.3470 -0.4259 -0.3863
    1SOL    HW2 7330   2.410   4.367   3.049  2.0257 -1.0664  1.5263
    1SOL    HW3 7331   2.475   4.413   2.920 -1.1980 -1.3953 -0.2605
    1SOL    MW4 7332   2.464   4.420   3.006  0.3645 -0.6380 -0.1173
    1SOL     OW 7333   2.901   4.662   3.108 -0.1852 -0.0747 -0.0369
    1SOL    HW2 7334   2.989   4.697   3.096  0.1378 -0.1159  2.0497
    1SOL    HW3 7335   2.902   4.578   3.062  1.2026 -0.5699  0.8850
    1SOL    MW4 7336   2.913   4.655   3.100  0.0403 -0.1454  0.3605
    1SOL     OW 7337   2.683   0.096   3.007 -0.3607  0.7844  0.0311
    1SOL    HW2 7338   2.756   0.062   3.058  0.0599  1.9380  0.2038
    1SOL    HW3 7339   2.605   0.068   3.055  0.0026  0.8238  0.6439
    1SOL    MW4 7340   2.682   0.088   3.020 -0.2573  0.9418  0.1349
    1SOL     OW 7341   2.658   0.375   3.095 -0.3683 -0.0020 -0.3435
    1SOL    HW2 7342   2.665   0.285   3.062 -0.0980 -0.2547  0.3920
    1SOL    HW3 7343   2.670   0.367   3.189  0.6266  0.9346 -0.3853
    1SOL    MW4 7344   2.660   0.362   3.103 -0.2012  0.0882 -0.2520
    1SOL     OW 7345   2.909   0.492   3.021  0.0370  0.0539 -0.4816
    1SOL    HW2 7346   2.822   0.461   3.046  0.0666  0.2843 -0.1018
    1SOL    HW3 7347   2.900   0.515   2.928 -0.6110  1.2074 -0.1315
    1SOL    MW4 7348   2.896   0.491   3.012 -0.0446  0.2365 -0.3853
    1SOL     OW 7349   2.882   0.737   3.142 -0.3639  0.0526  0.0715
    1SOL    HW2 7350   2.892   0.723   3.236  0.3851  0.7759  0.1060
    1SOL    HW3 7351   2.899   0.651   3.103  0.8559  0.0862  0.4984
    1SOL    MW4 7352   2.886   0.724   3.149 -0.1040  0.1524  0.1323
    1SOL     OW 7353   2.678   0.881   3.037  0.2570 -0.0336  0.2653
    1SOL    HW2 7354   2.688   0.971   3.067  0.8662  0.0574 -0.2184
    1SOL    HW3 7355   2.755   0.836   3.069  0.5746 -0.0934 -0.5561
    1SOL    MW4 7356   2.689   0.887   3.045  0.3796 -0.0294  0.0930
    1SOL     OW 7357   2.691   1.124   3.153  0.3029 -0.7286 -0.0282
    1SOL    HW2 7358   2.773   1.166   3.126  1.4747 -2.0346  1.4445
    1SOL    HW3 7359   2.623   1.178   3.113  1.8687  0.3966 -1.2528
    1SOL    MW4 7360   2.693   1.137   3.144  0.6640 -0.7523  0.0048
    1SOL     OW 7361   2.912   1.280   3.091 -0.1723  0.2876  0.0484
    1SOL    HW2 7362   3.001   1.249   3.109 -0.7488 -0.5315  1.5551
    1SOL    HW3 7363   2.915   1.374   3.109  0.2622  0.1712  0.5950
    1SOL    MW4 7364   2.924   1.288   3.095 -0.1907  0.1642  0.3192
    1SOL     OW 7365   2.915   1.539   3.167 -0.1941 -0.0121  0.1209
    1SOL    HW2 7366   2.929   1.544   3.261  1.4325 -0.1663 -0.0989
    1SOL    HW3 7367   2.988   1.587   3.129 -0.2199 -0.9011 -1.0931
    1SOL    MW4 7368   2.927   1.546   3.174  0.0169 -0.1497 -0.0684
    1SOL     OW 7369   2.657   1.653   3.028 -0.0318  0.2749  0.4239
    1SOL    HW2 7370   2.725   1.618   3.085 -0.0437 -1.0792 -0.3853
    1SOL    HW3 7371   2.575   1.617   3.064 -0.0347 -0.6165 -0.4655
    1SOL    MW4 7372   2.655   1.644   3.040 -0.0334 -0.0212  0.2000
    1SOL     OW 7373   2.677   1.920   3.140 -0.4435  0.5743 -0.3052
    1SOL    HW2 7374   2.761   1.952   3.106  0.4854  0.3995  1.7575
    1SOL    HW3 7375   2.669   1.831   3.104  0.2832  0.5818 -0.4988
    1SOL    MW4 7376   2.687   1.912   3.131 -0.2251  0.5522 -0.0587
    1SOL     OW 7377   2.913   2.031   3.009 -0.4751  0.1435  0.3612
    1SOL    HW2 7378   2.916   2.120   3.045 -0.4919  0.5394 -0.6140
    1SOL    HW3 7379   2.898   2.043   2.916 -0.3868 -0.8879  0.2075
    1SOL    MW4 7380   2.911   2.045   3.002 -0.4659  0.0598  0.2122
    1SOL     OW 7381   2.889   2.284   3.150  0.4641  0.2129 -0.1195
    1SOL    HW2 7382   2.970   2.320   3.114  0.1407  0.9667 -0.0998
    1SOL    HW3 7383   2.820   2.329   3.102  0.0551 -0.1484  0.1328
    1SOL    MW4 7384   2.891   2.295   3.139  0.3672  0.2646 -0.0837
    1SOL     OW 7385   2.710   2.423   2.995  0.0524 -0.5510 -0.3438
    1SOL    HW2 7386   2.730   2.504   3.043 -0.6950 -0.6608  0.1661
    1SOL    HW3 7387   2.625   2.395   3.029  0.1064 -1.3265 -0.8216
    1SOL    MW4 7388   2.702   2.430   3.006 -0.0393 -0.6678 -0.3395
    1SOL     OW 7389   2.749   2.666   3.123 -0.1248 -0.3092 -0.0516
    1SOL    HW2 7390   2.753   2.669   3.219 -0.9708 -0.8404  0.0039
    1SOL    HW3 7391   2.678   2.726   3.100  0.6693  0.5219 -0.4105
    1SOL    MW4 7392   2.741   2.675   3.133 -0.1318 -0.2694 -0.0916
    1SOL     OW 7393   2.952   2.853   3.015  0.0139 -0.0056  0.4930
    1SOL    HW2 7394   3.034   2.810   3.040  0.3436 -0.7224 -1.6893
    1SOL    HW3 7395   2.884   2.790   3.037  0.2282 -0.2981  0.3213
    1SOL    MW4 7396   2.954   2.839   3.021  0.0858 -0.1390  0.1824
    1SOL     OW 7397   2.941   3.090   3.136  0.2958  0.4287 -0.2318
    1SOL    HW2 7398   2.853   3.126   3.120  0.6656  1.7185  0.5603
    1SOL    HW3 7399   2.938   3.002   3.099 -1.0940  0.7484 -0.9045
    1SOL    MW4 7400   2.929   3.083   3.129  0.1609  0.6411 -0.2160
    1SOL     OW 7401   2.700   3.198   3.065 -0.2971 -0.3724  0.2312
    1SOL    HW2 7402   2.714   3.286   3.100 -0.4865  0.2559 -1.2700
    1SOL    HW3 7403   2.695   3.209   2.970 -1.4177 -1.8529  0.0852
    1SOL    MW4 7404   2.701   3.211   3.057 -0.4697 -0.4847  0.0141
    1SOL     OW 7405   2.677   3.469   3.160 -0.1568 -0.0218 -0.2482
    1SOL    HW2 7406   2.705   3.470   3.252  0.4213 -0.2048 -0.4184
    1SOL    HW3 7407   2.748   3.511   3.113 -0.1581 -0.5040 -0.6920
    1SOL    MW4 7408   2.690   3.474   3.166 -0.0806 -0.1092 -0.3293
    1SOL     OW 7409   2.891   3.592   3.005 -0.2018 -0.1408 -0.1036
    1SOL    HW2 7410   2.974   3.562   3.041  1.0886  0.7015 -2.3123
    1SOL    HW3 7411   2.888   3.685   3.028 -1.0249 -0.3927  0.8446
    1SOL    MW4 7412   2.901   3.601   3.013 -0.1402 -0.0627 -0.2699
    1SOL     OW 7413   2.910   3.824   3.128  0.7387 -0.0300  0.0013
    1SOL    HW2 7414   2.937   3.842   3.217  1.4516  1.6097 -0.5276
    1SOL    HW3 7415   2.844   3.891   3.109  0.8832 -0.1167 -0.8248
    1SOL    MW4 7416   2.905   3.835   3.137  0.8519  0.1748 -0.1774
    1SOL     OW 7417   2.725   4.034   3.069  0.3283  0.0378  0.1196
    1SOL    HW2 7418   2.711   4.128   3.071  0.2710  0.0179  0.9792
    1SOL    HW3 7419   2.712   4.009   2.977  2.4104  1.1541 -0.4974
    1SOL    MW4 7420   2.721   4.043   3.057  0.5956  0.1826  0.1519
    1SOL     OW 7421   2.695   4.297   3.143 -0.2353 -0.2519  0.0791
    1SOL    HW2 7422   2.683   4.282   3.237  1.0232  1.4631  0.5344
    1SOL    HW3 7423   2.620   4.351   3.118  0.0666  0.2923  0.3489
    1SOL    MW4 7424   2.683   4.302   3.152 -0.0293  0.0458  0.1748
    1SOL     OW 7425   2.919   4.412   2.984 -0.5301  0.2101  0.1669
    1SOL    HW2 7426   2.997   4.367   3.014  0.8744  0.8538 -2.3994
    1SOL    HW3 7427   2.848   4.375   3.037  1.0587 -2.5149  0.4688
    1SOL    MW4 7428   2.920   4.402   2.995 -0.1352 -0.0644 -0.1321
    1SOL     OW 7429   3.346   4.640   3.107 -0.4190 -0.1280  0.7877
    1SOL    HW2 7430   3.430   4.670   3.073 -0.4141 -0.7627  0.2322
    1SOL    HW3 7431   3.339   4.549   3.078 -1.6540  0.1498  0.1572
    1SOL    MW4 7432   3.356   4.632   3.099 -0.5813 -0.1750  0.6313
    1SOL     OW 7433   3.134   0.128   3.041 -0.2820 -0.8078  0.5736
    1SOL    HW2 7434   3.141   0.214   3.082  1.3548 -0.2434 -0.8228
    1SOL    HW3 7435   3.211   0.080   3.074  0.7112 -0.5549 -1.3106
    1SOL    MW4 7436   3.145   0.133   3.051  0.0648 -0.6999  0.1409
    1SOL     OW 7437   3.133   0.378   3.151 -0.1365 -0.0339 -0.1554
    1SOL    HW2 7438   3.199   0.402   3.086 -0.2671 -0.4839 -0.4607
    1SOL    HW3 7439   3.050   0.402   3.112 -0.2379 -0.5926 -0.2908
    1SOL    MW4 7440   3.131   0.384   3.138 -0.1669 -0.1670 -0.2134
    1SOL     OW 7441   3.330   0.470   2.992 -0.0310 -0.0236 -0.0982
    1SOL    HW2 7442   3.407   0.436   3.037  0.0729  0.6264  0.2211
    1SOL    HW3 7443   3.350   0.460   2.899  0.6751  0.6649 -0.0226
    1SOL    MW4 7444   3.342   0.464   2.985  0.0758  0.1531 -0.0460
    1SOL     OW 7445   3.346   0.741   3.092 -0.0491 -0.1965  0.0658
    1SOL    HW2 7446   3.382   0.726   3.180  0.6062 -0.1427 -0.1889
    1SOL    HW3 7447   3.355   0.657   3.048  2.0491  0.4311 -0.8008
    1SOL    MW4 7448   3.352   0.728   3.098  0.3142 -0.1067 -0.0818
    1SOL     OW 7449   3.120   0.883   3.028  0.1588  0.4628 -0.0273
    1SOL    HW2 7450   3.197   0.842   3.066 -0.2542 -0.3147 -0.0104
    1SOL    HW3 7451   3.046   0.830   3.060 -0.3185  0.7673 -0.6027
    1SOL    MW4 7452   3.120   0.870   3.037  0.0412  0.4004 -0.1009
    1SOL     OW 7453   3.147   1.144   3.123  0.3086  0.0787  0.3284
    1SOL    HW2 7454   3.225   1.173   3.076 -0.6865  0.0190 -1.4207
    1SOL    HW3 7455   3.134   1.054   3.094  0.2061 -0.2729  1.4553
    1SOL    MW4 7456   3.156   1.136   3.113  0.1638  0.0243  0.2465
    1SOL     OW 7457   3.398   1.232   3.031  0.2288  0.6120 -0.2618
    1SOL    HW2 7458   3.465   1.178   3.073  0.4601  0.8732 -0.2934
    1SOL    HW3 7459   3.406   1.317   3.074 -0.5311  0.4516  0.2004
    1SOL    MW4 7460   3.408   1.236   3.042  0.1590  0.6253 -0.2050
    1SOL     OW 7461   3.389   1.521   3.099 -0.4599 -0.0143 -0.0305
    1SOL    HW2 7462   3.391   1.535   3.194  0.7594 -0.6422  0.0528
    1SOL    HW3 7463   3.466   1.568   3.067 -0.6379 -0.1550 -0.6658
    1SOL    MW4 7464   3.400   1.529   3.107 -0.3226 -0.1158 -0.1030
    1SOL     OW 7465   3.154   1.655   3.066  0.0988 -0.2395 -0.1237
    1SOL    HW2 7466   3.234   1.606   3.085  0.5766  0.7140  0.3131
    1SOL    HW3 7467   3.182   1.745   3.055 -0.9242  0.1094  0.0736
    1SOL    MW4 7468   3.168   1.660   3.067  0.0269 -0.0677 -0.0401
    1SOL     OW 7469   3.165   1.937   3.088  0.2636 -0.2276  0.3273
    1SOL    HW2 7470   3.171   1.927   3.183  0.7366 -0.2093  0.3011
    1SOL    HW3 7471   3.074   1.962   3.072  0.2751  0.1262  0.8094
    1SOL    MW4 7472   3.154   1.939   3.098  0.3276 -0.1785  0.3874
    1SOL     OW 7473   3.395   2.055   3.002 -0.1605  0.5815 -0.0535
    1SOL    HW2 7474   3.460   1.993   3.036  0.5637 -0.0949 -2.5482
    1SOL    HW3 7475   3.311   2.020   3.031  0.2694 -1.4104 -1.1199
    1SOL    MW4 7476   3.393   2.042   3.010 -0.0083  0.2294 -0.5236
    1SOL     OW 7477   3.357   2.297   3.129  0.1864 -0.1231 -0.1728
    1SOL    HW2 7478   3.366   2.293   3.224  0.8248  0.5836 -0.2060
    1SOL    HW3 7479   3.375   2.207   3.100 -0.4937 -0.4549  0.4062
    1SOL    MW4 7480   3.360   2.285   3.138  0.1810 -0.0734 -0.1009
    1SOL     OW 7481   3.113   2.416   3.038 -0.5153  0.0373 -0.1106
    1SOL    HW2 7482   3.191   2.370   3.069 -0.7817  0.5844  1.3738
    1SOL    HW3 7483   3.128   2.508   3.061 -1.6234  0.1361  0.2421
    1SOL    MW4 7484   3.125   2.422   3.045 -0.6967  0.1225  0.1316
    1SOL     OW 7485   3.140   2.679   3.116 -0.0417  0.2490 -0.0501
    1SOL    HW2 7486   3.221   2.718   3.086  1.9356 -1.7237  2.4737
    1SOL    HW3 7487   3.147   2.679   3.212 -1.7099 -2.5628  0.1412
    1SOL    MW4 7488   3.151   2.684   3.125 -0.0010 -0.3822  0.3083
    1SOL     OW 7489   3.337   2.802   3.002  0.4839 -0.2073  0.6433
    1SOL    HW2 7490   3.416   2.754   3.027  0.3446 -0.4383  0.6402
    1SOL    HW3 7491   3.342   2.884   3.052  1.6508  0.5851 -0.7545
    1SOL    MW4 7492   3.348   2.807   3.012  0.6194 -0.1333  0.4582
    1SOL     OW 7493   3.337   3.039   3.144 -0.1626 -0.2204  0.0933
    1SOL    HW2 7494   3.286   3.115   3.114  0.4426  0.2566  0.2537
    1SOL    HW3 7495   3.351   3.055   3.237  2.8423  1.1823 -0.5349
    1SOL    MW4 7496   3.332   3.051   3.152  0.3138  0.0277  0.0319
    1SOL     OW 7497   3.160   3.239   3.035  0.0683  0.3340  0.8493
    1SOL    HW2 7498   3.094   3.185   3.078 -1.1655  1.9433  1.0301
    1SOL    HW3 7499   3.152   3.217   2.942 -0.6057  0.3819  0.8923
    1SOL    MW4 7500   3.150   3.229   3.028 -0.1833  0.5527  0.8788
    1SOL     OW 7501   3.129   3.500   3.121 -0.2153 -0.1510  0.3738
    1SOL    HW2 7502   3.210   3.536   3.084  0.7107  0.2362  2.6882
    1SOL    HW3 7503   3.137   3.405   3.109  0.1873 -0.0540 -0.1536
    1SOL    MW4 7504   3.140   3.492   3.114 -0.0403 -0.0870  0.6096
    1SOL     OW 7505   3.360   3.588   2.999 -0.8795 -0.0317 -0.1090
    1SOL    HW2 7506   3.435   3.547   3.042 -0.5964  1.1248  0.5354
    1SOL    HW3 7507   3.364   3.680   3.028 -2.2188  0.1586 -0.5214
    1SOL    MW4 7508   3.371   3.595   3.008 -1.0188  0.1459 -0.0784
    1SOL     OW 7509   3.372   3.859   3.102  0.1176  0.2886  0.2940
    1SOL    HW2 7510   3.375   3.852   3.197  0.6442  0.5096  0.2957
    1SOL    HW3 7511   3.291   3.907   3.084  0.2362  0.6288  0.6582
    1SOL    MW4 7512   3.362   3.865   3.112  0.2024  0.3626  0.3424
    1SOL     OW 7513   3.121   3.975   3.028  0.7540  0.2898  0.3898
    1SOL    HW2 7514   3.053   3.925   3.072  3.4338 -1.3290  2.8598
    1SOL    HW3 7515   3.111   3.954   2.935 -2.1151  0.1796  0.6822
    1SOL    MW4 7516   3.111   3.966   3.022  0.7288  0.0618  0.7539
    1SOL     OW 7517   3.123   4.240   3.092 -0.3980 -0.0983 -0.4179
    1SOL    HW2 7518   3.115   4.228   3.187  2.5320  0.7324 -0.0120
    1SOL    HW3 7519   3.130   4.151   3.058  0.9797 -0.3560  0.4501
    1SOL    MW4 7520   3.123   4.226   3.100  0.1700 -0.0229 -0.2496
    1SOL     OW 7521   3.369   4.367   3.023  0.3292  0.1268  0.2528
    1SOL    HW2 7522   3.438   4.313   3.063 -0.4787 -1.1465 -0.0453
    1SOL    HW3 7523   3.287   4.329   3.055 -0.2631  0.7670 -0.4886
    1SOL    MW4 7524   3.368   4.355   3.033  0.1442  0.0434  0.1159
    1SOL     OW 7525   3.802   4.641   3.123  0.0736  0.2489  0.0194
    1SOL    HW2 7526   3.787   4.547   3.108 -0.8554  0.5664 -1.0796
    1SOL    HW3 7527   3.726   4.684   3.085  0.1715  1.4242  1.1160
    1SOL    MW4 7528   3.790   4.634   3.116 -0.0362  0.4458  0.0191
    1SOL     OW 7529   3.584   0.087   3.021  0.1633 -0.2013 -0.6731
    1SOL    HW2 7530   3.569   0.176   3.052 -2.1475 -0.6436 -0.4312
    1SOL    HW3 7531   3.590   0.095   2.926  0.2567  0.2473 -0.6298
    1SOL    MW4 7532   3.583   0.099   3.013 -0.1295 -0.2005 -0.6354
    1SOL     OW 7533   3.560   0.360   3.111 -0.1705  0.4702  0.3000
    1SOL    HW2 7534   3.561   0.357   3.207 -1.9427  1.4054  0.3808
    1SOL    HW3 7535   3.648   0.388   3.086  0.1512  0.7171  1.6898
    1SOL    MW4 7536   3.572   0.363   3.120 -0.3619  0.6262  0.4942
    1SOL     OW 7537   3.803   0.452   3.027  0.0377 -0.8124  0.2487
    1SOL    HW2 7538   3.883   0.407   3.052  0.7949  1.1950  1.6035
    1SOL    HW3 7539   3.808   0.536   3.073 -1.9090  0.1278 -1.1955
    1SOL    MW4 7540   3.814   0.457   3.037 -0.1194 -0.4235  0.2370
    1SOL     OW 7541   3.817   0.715   3.149 -0.3320  0.1586 -0.3217
    1SOL    HW2 7542   3.833   0.729   3.242 -1.3544  0.6255 -0.1999
    1SOL    HW3 7543   3.887   0.763   3.105 -0.1223  0.3393  0.2049
    1SOL    MW4 7544   3.828   0.723   3.155 -0.4392  0.2440 -0.2363
    1SOL     OW 7545   3.594   0.853   2.995 -0.7421  0.1143 -0.1053
    1SOL    HW2 7546   3.662   0.806   3.044 -1.2181 -1.1269 -0.6010
    1SOL    HW3 7547   3.512   0.826   3.036 -1.0172  0.5949 -0.3395
    1SOL    MW4 7548   3.592   0.843   3.007 -0.8414  0.0139 -0.2012
    1SOL     OW 7549   3.641   1.102   3.130  0.3522 -0.2869  0.0146
    1SOL    HW2 7550   3.715   1.149   3.092  0.2826 -0.3351 -0.1838
    1SOL    HW3 7551   3.636   1.020   3.080  0.7576 -0.7114  0.6561
    1SOL    MW4 7552   3.650   1.097   3.118  0.3965 -0.3494  0.0732
    1SOL     OW 7553   3.858   1.238   3.045 -0.3294 -0.0748  0.1201
    1SOL    HW2 7554   3.863   1.329   3.075 -0.1151 -0.2719  0.6898
    1SOL    HW3 7555   3.848   1.245   2.950  0.0283  0.5419  0.1226
    1SOL    MW4 7556   3.858   1.251   3.037 -0.2539 -0.0194  0.1957
    1SOL     OW 7557   3.864   1.488   3.129 -0.3258  0.4419  0.3713
    1SOL    HW2 7558   3.870   1.503   3.224 -1.2888  1.1377  0.3359
    1SOL    HW3 7559   3.795   1.548   3.100 -1.0581 -0.8190 -0.5326
    1SOL    MW4 7560   3.855   1.498   3.138 -0.5493  0.3674  0.2475
    1SOL     OW 7561   3.659   1.628   3.016 -0.7014  0.4523  0.1601
    1SOL    HW2 7562   3.660   1.719   3.045  1.2240  0.4270  0.2006
    1SOL    HW3 7563   3.653   1.633   2.920 -0.5686  0.6199  0.1616
    1SOL    MW4 7564   3.658   1.641   3.007 -0.4299  0.4710  0.1657
    1SOL     OW 7565   3.597   1.888   3.085  0.8932  0.1856  0.1467
    1SOL    HW2 7566   3.614   1.898   3.179  0.0085  0.9366  0.2431
    1SOL    HW3 7567   3.673   1.926   3.042  1.7029 -0.9607  0.5622
    1SOL    MW4 7568   3.609   1.894   3.092  0.8833  0.1335  0.2141
    1SOL     OW 7569   3.802   2.013   2.978 -0.1354 -0.0333 -0.1236
    1SOL    HW2 7570   3.806   2.106   3.001  0.9835 -0.2819  0.7724
    1SOL    HW3 7571   3.816   2.011   2.884  0.0662  0.6986 -0.1127
    1SOL    MW4 7572   3.805   2.025   2.969  0.0391  0.0303 -0.0041
    1SOL     OW 7573   3.840   2.283   3.026 -0.1367  0.2284 -0.1077
    1SOL    HW2 7574   3.863   2.278   3.119  0.3004 -0.0658 -0.2318
    1SOL    HW3 7575   3.757   2.330   3.025 -0.4897 -0.3709  0.4818
    1SOL    MW4 7576   3.833   2.289   3.038 -0.1256  0.1104 -0.0463
    1SOL     OW 7577   3.595   2.409   3.038 -0.0849 -0.0109  0.1131
    1SOL    HW2 7578   3.595   2.504   3.040 -0.0342  0.0216 -1.0138
    1SOL    HW3 7579   3.510   2.383   3.073  0.1281  0.4383  0.9456
    1SOL    MW4 7580   3.584   2.418   3.043 -0.0501  0.0527  0.0744
    1SOL     OW 7581   3.588   2.672   3.085 -0.0127  0.1171 -0.3668
    1SOL    HW2 7582   3.587   2.688   3.179 -0.5006  0.9995 -0.5121
    1SOL    HW3 7583   3.661   2.726   3.053 -1.3262  1.6657 -0.7943
    1SOL    MW4 7584   3.598   2.681   3.093 -0.2503  0.4380 -0.4425
    1SOL     OW 7585   3.815   2.831   3.018 -0.1971  0.2948 -0.0401
    1SOL    HW2 7586   3.823   2.919   3.055  0.7393 -0.4520  1.5869
    1SOL    HW3 7587   3.824   2.843   2.923 -0.6262  1.9984  0.1203
    1SOL    MW4 7588   3.817   2.844   3.010 -0.1302  0.4210  0.1957
    1SOL     OW 7589   3.842   3.090   3.120 -0.0436  0.4399 -0.2286
    1SOL    HW2 7590   3.908   3.142   3.073  0.7012 -1.4265 -1.3286
    1SOL    HW3 7591   3.758   3.121   3.086  0.2294  2.7828  1.1194
    1SOL    MW4 7592   3.840   3.101   3.109  0.0908  0.5026 -0.1960
    1SOL     OW 7593   3.580   3.172   3.027  0.0040  0.1043  0.2463
    1SOL    HW2 7594   3.510   3.122   3.068  0.3474 -0.7795 -0.2444
    1SOL    HW3 7595   3.556   3.178   2.935  0.2023  0.4469  0.2141
    1SOL    MW4 7596   3.568   3.166   3.021  0.0753  0.0331  0.1774
    1SOL     OW 7597   3.573   3.423   3.124  0.2391  0.1591  0.3012
    1SOL    HW2 7598   3.649   3.472   3.091  0.4325 -0.6538 -0.4934
    1SOL    HW3 7599   3.575   3.340   3.075 -1.1602  0.1269  0.2655
    1SOL    MW4 7600   3.583   3.418   3.113  0.0801  0.0474  0.1917
    1SOL     OW 7601   3.770   3.592   3.026 -0.5261  0.5250  0.0438
    1SOL    HW2 7602   3.775   3.679   3.067 -1.6453  0.2959  0.6738
    1SOL    HW3 7603   3.764   3.611   2.932  1.2568  1.0695  0.0256
    1SOL    MW4 7604   3.770   3.606   3.019 -0.4387  0.5667  0.1245
    1SOL     OW 7605   3.807   3.849   3.129  0.1787  0.5082  0.0206
    1SOL    HW2 7606   3.817   3.866   3.223  0.9765  1.6981 -0.2760
    1SOL    HW3 7607   3.740   3.912   3.101 -3.1724 -2.5892  0.5718
    1SOL    MW4 7608   3.799   3.859   3.138 -0.1583  0.2563  0.0541
    1SOL     OW 7609   3.588   4.006   3.029 -0.3413 -0.1837 -0.0438
    1SOL    HW2 7610   3.514   3.951   3.054 -1.0634  1.2607  1.0601
    1SOL    HW3 7611   3.576   4.021   2.935  0.3465 -2.5876 -0.5518
    1SOL    MW4 7612   3.577   4.001   3.020 -0.3457 -0.3104  0.0348
    1SOL     OW 7613   3.588   4.260   3.137  0.1103  0.0765  0.5614
    1SOL    HW2 7614   3.665   4.296   3.093 -0.1029  0.3815  0.4391
    1SOL    HW3 7615   3.579   4.171   3.102  0.6667 -0.1214  0.9006
    1SOL    MW4 7616   3.597   4.253   3.127  0.1554  0.0906  0.5901
    1SOL     OW 7617   3.813   4.383   3.023  0.1563  0.2627  0.0503
    1SOL    HW2 7618   3.889   4.339   3.061  1.2365  1.4830 -0.6316
    1SOL    HW3 7619   3.832   4.385   2.929 -0.7760  0.4891 -0.1387
    1SOL    MW4 7620   3.826   4.377   3.015  0.1760  0.4535 -0.0644
    1SOL     OW 7621   4.239   4.623   3.059  0.3815 -0.5277 -0.3902
    1SOL    HW2 7622   4.255   4.633   3.153  2.3644 -1.2887 -0.6471
    1SOL    HW3 7623   4.251   4.530   3.042  0.3872 -0.3284 -1.4865
    1SOL    MW4 7624   4.242   4.612   3.069  0.6437 -0.6013 -0.5686
    1SOL     OW 7625   4.012   0.072   2.984 -0.2059  0.3316 -0.5504
    1SOL    HW2 7626   4.089   0.026   3.019 -0.7322  1.3463  2.0022
    1SOL    HW3 7627   3.938   0.019   3.013 -0.5787  0.0635 -1.9320
    1SOL    MW4 7628   4.013   0.059   2.992 -0.3247  0.4301 -0.3958
    1SOL     OW 7629   4.029   0.315   3.109 -0.1359 -0.1080  0.2074
    1SOL    HW2 7630   4.116   0.347   3.085  0.3911 -0.5559  1.5053
    1SOL    HW3 7631   4.021   0.231   3.064  0.1370 -0.1162  0.1740
    1SOL    MW4 7632   4.039   0.308   3.100 -0.0300 -0.1681  0.3741
    1SOL     OW 7633   4.262   0.446   3.025  0.5602  0.0977  0.4422
    1SOL    HW2 7634   4.267   0.537   3.054  1.4288  0.4998 -0.9300
    1SOL    HW3 7635   4.256   0.452   2.929 -1.8449 -1.2007  0.4691
    1SOL    MW4 7636   4.262   0.459   3.016  0.3576 -0.0206  0.2646
    1SOL     OW 7637   4.282   0.747   3.099  0.1757 -0.2054 -0.5421
    1SOL    HW2 7638   4.196   0.768   3.062  0.2481  1.8555  0.3729
    1SOL    HW3 7639   4.343   0.801   3.048  0.6750 -0.0653  0.1977
    1SOL    MW4 7640   4.279   0.757   3.087  0.2513  0.0850 -0.3238
    1SOL     OW 7641   4.038   0.823   3.008  0.3854  0.3261  0.2714
    1SOL    HW2 7642   4.043   0.912   3.040  1.2983  0.5271 -0.4129
    1SOL    HW3 7643   4.037   0.831   2.913  0.6081 -0.3969  0.2000
    1SOL    MW4 7644   4.038   0.836   3.000  0.5355  0.2573  0.1717
    1SOL     OW 7645   4.053   1.085   3.125  0.0649  0.2196 -0.2649
    1SOL    HW2 7646   4.052   1.091   3.221 -0.5687  0.0018 -0.2606
    1SOL    HW3 7647   3.986   1.148   3.096 -0.5069 -0.5061 -0.5269
    1SOL    MW4 7648   4.044   1.094   3.134 -0.0944  0.0950 -0.2987
    1SOL     OW 7649   4.272   1.245   3.019  0.5776 -0.2645 -0.1136
    1SOL    HW2 7650   4.212   1.175   3.044  0.0304  0.2717  0.0906
    1SOL    HW3 7651   4.263   1.251   2.924  0.5150 -0.3736 -0.1143
    1SOL    MW4 7652   4.263   1.237   3.010  0.4969 -0.2083 -0.0868
    1SOL     OW 7653   4.307   1.505   3.142  0.4263 -0.9007 -0.2519
    1SOL    HW2 7654   4.230   1.555   3.114  0.3777 -1.3357 -0.8964
    1SOL    HW3 7655   4.287   1.415   3.117  0.0705 -1.4305  1.8050
    1SOL    MW4 7656   4.294   1.500   3.135  0.3729 -1.0278 -0.0653
    1SOL     OW 7657   4.084   1.646   3.056  0.1404 -0.1237 -0.5384
    1SOL    HW2 7658   4.060   1.738   3.069 -0.0477 -0.1554 -0.6570
    1SOL    HW3 7659   4.011   1.597   3.093 -0.6509 -0.2167 -2.1612
    1SOL    MW4 7660   4.071   1.652   3.062  0.0114 -0.1401 -0.7682
    1SOL     OW 7661   4.035   1.909   3.107  0.0153 -0.5808 -0.2735
    1SOL    HW2 7662   4.111   1.952   3.068 -0.6301  0.3646 -0.4895
    1SOL    HW3 7663   3.960   1.949   3.064 -0.6455 -0.6847  0.7742
    1SOL    MW4 7664   4.035   1.920   3.097 -0.1569 -0.4698 -0.1636
    1SOL     OW 7665   4.267   2.052   3.015 -0.0671 -0.1961  0.3047
    1SOL    HW2 7666   4.263   2.144   3.041  0.6292 -0.2465  0.6022
    1SOL    HW3 7667   4.271   2.054   2.920 -0.6614  0.0609  0.2839
    1SOL    MW4 7668   4.267   2.065   3.006 -0.0534 -0.1690  0.3409
    1SOL     OW 7669   4.239   2.308   3.107  0.1872 -0.1542 -0.3800
    1SOL    HW2 7670   4.171   2.352   3.056  0.3133 -0.1535 -0.5479
    1SOL    HW3 7671   4.321   2.343   3.072  0.2496  0.5552  0.4686
    1SOL    MW4 7672   4.240   2.319   3.096  0.2117 -0.0606 -0.2902
    1SOL     OW 7673   4.057   2.459   2.960  0.1009 -0.0125 -0.3020
    1SOL    HW2 7674   4.059   2.543   3.006  1.0002 -0.4359  0.4513
    1SOL    HW3 7675   3.979   2.415   2.994 -1.0123  0.9671 -1.5307
    1SOL    MW4 7676   4.047   2.464   2.971  0.0730  0.0610 -0.3648
    1SOL     OW 7677   4.031   2.690   3.100  0.6157 -0.3241 -0.3620
    1SOL    HW2 7678   4.030   2.677   3.195  0.0864 -2.3342 -0.6213
    1SOL    HW3 7679   3.950   2.738   3.081 -0.4345 -1.9210 -0.0355
    1SOL    MW4 7680   4.020   2.694   3.110  0.4072 -0.8001 -0.3536
    1SOL     OW 7681   4.242   2.845   3.004  0.1069  0.1915 -0.1052
    1SOL    HW2 7682   4.172   2.788   3.037  0.5123 -0.3583 -0.1976
    1SOL    HW3 7683   4.322   2.808   3.040  0.3526  0.8374  0.0178
    1SOL    MW4 7684   4.243   2.833   3.013  0.1931  0.2041 -0.1011
    1SOL     OW 7685   4.246   3.103   3.109 -0.1909  0.1901 -0.1865
    1SOL    HW2 7686   4.170   3.150   3.074 -1.2395 -0.4608  1.1619
    1SOL    HW3 7687   4.232   3.012   3.083 -0.7299 -0.2124  1.4609
    1SOL    MW4 7688   4.234   3.097   3.101 -0.4001  0.0513  0.2084
    1SOL     OW 7689   4.039   3.233   2.989 -0.5620 -0.6265  0.1685
    1SOL    HW2 7690   4.032   3.325   3.014 -0.9603 -0.3263 -1.0264
    1SOL    HW3 7691   4.030   3.233   2.894  0.1201 -1.8343  0.0933
    1SOL    MW4 7692   4.037   3.245   2.980 -0.5245 -0.7460  0.0012
    1SOL     OW 7693   4.022   3.531   3.105 -0.5499  0.2571  0.5691
    1SOL    HW2 7694   4.029   3.529   3.201 -1.6299  0.6237  0.6648
    1SOL    HW3 7695   3.929   3.547   3.088 -0.0885  1.8864 -0.5176
    1SOL    MW4 7696   4.010   3.533   3.115 -0.6313  0.5207  0.4382
    1SOL     OW 7697   4.279   3.591   3.032  0.1535 -0.4294  0.1227
    1SOL    HW2 7698   4.282   3.685   3.052 -1.0370 -0.5390  0.8842
    1SOL    HW3 7699   4.188   3.566   3.051  0.0567 -1.4060 -1.5959
    1SOL    MW4 7700   4.267   3.600   3.037 -0.0162 -0.5729 -0.0038
    1SOL     OW 7701   4.275   3.865   3.096 -0.5354 -0.9711 -0.2547
    1SOL    HW2 7702   4.198   3.910   3.061  0.3333 -0.0317 -0.9749
    1SOL    HW3 7703   4.349   3.912   3.060  0.3947 -1.9980  0.2806
    1SOL    MW4 7704   4.274   3.877   3.087 -0.2980 -0.9828 -0.2789
    1SOL     OW 7705   4.043   3.980   3.000  0.9395 -0.2435  0.0216
    1SOL    HW2 7706   4.027   4.070   3.026 -1.9724  0.1575 -2.8295
    1SOL    HW3 7707   3.972   3.930   3.041  1.5527 -0.9815  0.1975
    1SOL    MW4 7708   4.031   3.985   3.009  0.6356 -0.2880 -0.3314
    1SOL     OW 7709   4.057   4.244   3.123  0.1100 -0.6462 -0.3126
    1SOL    HW2 7710   4.079   4.255   3.216 -1.6146 -0.6365  0.1033
    1SOL    HW3 7711   4.128   4.289   3.077  1.0052 -0.6869  0.9973
    1SOL    MW4 7712   4.069   4.251   3.129  0.0005 -0.6499 -0.0846
    1SOL     OW 7713   4.277   4.355   2.995  0.0571  0.1949 -0.0948
    1SOL    HW2 7714   4.352   4.311   3.034 -1.7698 -2.5546  0.4736
    1SOL    HW3 7715   4.291   4.348   2.900  1.2659  1.1193  0.0012
    1SOL    MW4 7716   4.288   4.348   2.987 -0.0248 -0.0463 -0.0072
    1SOL     OW 7717   0.212   4.664   3.341 -0.2918 -0.1706  0.1393
    1SOL    HW2 7718   0.285   4.722   3.362 -0.7889 -0.0767  1.6884
    1SOL    HW3 7719   0.237   4.580   3.379 -0.9416 -0.1577  0.6062
    1SOL    MW4 7720   0.225   4.661   3.349 -0.4431 -0.1564  0.4055
    1SOL     OW 7721   0.007   0.101   3.488 -0.6925 -0.0465 -0.1140
    1SOL    HW2 7722  -0.016   0.191   3.464 -1.6175 -0.4650 -0.8412
    1SOL    HW3 7723   0.077   0.077   3.428  0.0237  0.4186  0.5314
    1SOL    MW4 7724   0.013   0.109   3.477 -0.7201 -0.0404 -0.1247
    1SOL     OW 7725   4.473   0.358   3.396  0.2039 -0.0218 -0.1333
    1SOL    HW2 7726   4.399   0.391   3.447  0.3265  1.6688 -1.0155
    1SOL    HW3 7727   4.547   0.412   3.424  0.9856 -1.2900  0.2944
    1SOL    MW4 7728   4.473   0.369   3.407  0.3233  0.0339 -0.1934
    1SOL     OW 7729   0.201   0.505   3.442  0.1399  0.1694  0.1026
    1SOL    HW2 7730   0.285   0.465   3.418 -0.1314  0.4090 -1.2693
    1SOL    HW3 7731   0.206   0.593   3.405 -0.3785  0.4798  0.7682
    1SOL    MW4 7732   0.213   0.511   3.434  0.0357  0.2419  0.0095
    1SOL     OW 7733   0.239   0.770   3.328  0.0990 -0.1893  0.0712
    1SOL    HW2 7734   0.310   0.812   3.376 -0.1895  0.8233 -0.3845
    1SOL    HW3 7735   0.159   0.807   3.364 -0.1340  0.1705 -0.8116
    1SOL    MW4 7736   0.238   0.780   3.339  0.0302 -0.0082 -0.1056
    1SOL     OW 7737   0.018   0.881   3.446  0.1037 -0.0397 -0.1058
    1SOL    HW2 7738   0.010   0.887   3.541 -0.5351 -0.4588 -0.1307
    1SOL    HW3 7739   0.013   0.972   3.416  0.3349  0.0958  0.2596
    1SOL    MW4 7740   0.016   0.894   3.455  0.0499 -0.0771 -0.0608
    1SOL     OW 7741   0.003   1.147   3.358  0.0607 -0.2318 -0.0734
    1SOL    HW2 7742   0.079   1.187   3.401 -0.6052 -0.2918  1.1825
    1SOL    HW3 7743   0.027   1.144   3.265  0.4607  2.2917 -0.0718
    1SOL    MW4 7744   0.016   1.152   3.351  0.0256  0.0932  0.0925
    1SOL     OW 7745   0.249   1.279   3.452 -0.1858 -0.1588  0.0454
    1SOL    HW2 7746   0.251   1.270   3.547  0.3792  1.8304  0.2414
    1SOL    HW3 7747   0.246   1.373   3.436  1.3791 -0.4058 -1.9297
    1SOL    MW4 7748   0.249   1.290   3.462  0.0952  0.0710 -0.1895
    1SOL     OW 7749   0.276   1.566   3.377  0.1992 -0.1019  0.3913
    1SOL    HW2 7750   0.349   1.612   3.418 -0.4703  0.7106  0.6984
    1SOL    HW3 7751   0.290   1.577   3.283  0.7057 -0.3415  0.4331
    1SOL    MW4 7752   0.287   1.573   3.370  0.1777 -0.0265  0.4373
    1SOL     OW 7753   0.042   1.667   3.520  0.2386  0.0801 -0.5388
    1SOL    HW2 7754  -0.031   1.618   3.481  0.0289  1.7679 -2.3138
    1SOL    HW3 7755   0.118   1.641   3.470  0.4891  0.0067 -0.1240
    1SOL    MW4 7756   0.042   1.657   3.508  0.2439  0.2930 -0.7184
    1SOL     OW 7757   0.007   1.915   3.377  0.3445 -0.0337  0.5526
    1SOL    HW2 7758   0.014   1.829   3.418  0.6515  0.7930  2.2397
    1SOL    HW3 7759  -0.013   1.895   3.285  2.1214 -1.9431  0.5262
    1SOL    MW4 7760   0.005   1.901   3.370  0.6194 -0.1765  0.7718
    1SOL     OW 7761   0.246   2.048   3.461  0.0586  0.1360  0.0490
    1SOL    HW2 7762   0.167   2.004   3.429 -0.3753  0.9563 -0.0215
    1SOL    HW3 7763   0.240   2.041   3.556 -1.8280  3.0894  0.2225
    1SOL    MW4 7764   0.235   2.041   3.469 -0.2476  0.6337  0.0627
    1SOL     OW 7765   0.241   2.317   3.371  0.5398  0.2231 -0.4437
    1SOL    HW2 7766   0.158   2.359   3.396  1.4258  1.3310  0.6843
    1SOL    HW3 7767   0.230   2.226   3.397 -0.0995  0.4900  0.2387
    1SOL    MW4 7768   0.228   2.310   3.377  0.5723  0.4046 -0.2048
    1SOL     OW 7769   0.007   2.433   3.471 -0.4975  0.2257 -0.1035
    1SOL    HW2 7770   0.012   2.442   3.567 -1.1174  2.1181 -0.2401
    1SOL    HW3 7771  -0.077   2.389   3.456 -1.9819  2.9160  0.0607
    1SOL    MW4 7772  -0.003   2.428   3.482 -0.7753  0.8304 -0.0999
    1SOL     OW 7773   4.475   2.680   3.365  0.6678  0.3189 -0.5250
    1SOL    HW2 7774   4.559   2.724   3.380  1.4630 -0.4570 -2.4920
    1SOL    HW3 7775   4.488   2.591   3.397 -0.0800  0.7436  1.0073
    1SOL    MW4 7776   4.488   2.674   3.371  0.6742  0.2728 -0.5825
    1SOL     OW 7777   0.219   2.804   3.465  0.2326  0.0746  0.1275
    1SOL    HW2 7778   0.298   2.772   3.421  0.9054  0.5357  0.9877
    1SOL    HW3 7779   0.212   2.896   3.438 -0.7152 -0.3105 -0.9464
    1SOL    MW4 7780   0.229   2.812   3.456  0.1963  0.0849  0.0994
    1SOL     OW 7781   0.217   3.075   3.418 -0.4455  0.3570  0.1032
    1SOL    HW2 7782   0.161   3.145   3.453 -0.2118  0.5825  0.0260
    1SOL    HW3 7783   0.209   3.084   3.323 -0.8730 -0.0898  0.0964
    1SOL    MW4 7784   0.208   3.085   3.410 -0.4711  0.3278  0.0920
    1SOL     OW 7785   0.028   3.265   3.503 -0.2115 -0.3580 -0.0567
    1SOL    HW2 7786  -0.049   3.232   3.457 -1.1379 -0.8836  1.8011
    1SOL    HW3 7787   0.036   3.356   3.476 -2.2205  0.0466  0.6492
    1SOL    MW4 7788   0.019   3.273   3.494 -0.5987 -0.3741  0.2813
    1SOL     OW 7789   0.052   3.499   3.390  0.1319  0.1148  0.0691
    1SOL    HW2 7790  -0.034   3.535   3.413 -0.4768 -2.2554  1.6838
    1SOL    HW3 7791   0.040   3.466   3.301 -0.2687  0.8554 -0.1618
    1SOL    MW4 7792   0.039   3.500   3.381 -0.0013 -0.1004  0.2518
    1SOL     OW 7793   0.288   3.627   3.488 -0.4412  0.3466  0.0343
    1SOL    HW2 7794   0.265   3.634   3.581 -1.5471  0.1951 -0.2203
    1SOL    HW3 7795   0.205   3.605   3.445  0.0628  0.4573 -0.9909
    1SOL    MW4 7796   0.274   3.625   3.495 -0.5206  0.3412 -0.1347
    1SOL     OW 7797   0.264   3.899   3.409 -0.1673  0.4156  0.0769
    1SOL    HW2 7798   0.181   3.929   3.447 -1.0783 -1.4700 -0.3294
    1SOL    HW3 7799   0.265   3.805   3.427  2.2156  0.5282  0.6522
    1SOL    MW4 7800   0.253   3.890   3.416  0.0269  0.1817  0.0992
    1SOL     OW 7801   0.018   3.980   3.504  0.2382  0.0358 -0.5582
    1SOL    HW2 7802  -0.001   3.997   3.596 -0.0912 -1.0406 -0.4207
    1SOL    HW3 7803   0.017   4.066   3.463  0.2904  0.5123  0.4271
    1SOL    MW4 7804   0.016   3.993   3.510  0.2016 -0.0436 -0.4098
    1SOL     OW 7805   0.018   4.226   3.384  0.5174  0.1104 -0.1757
    1SOL    HW2 7806  -0.060   4.277   3.407  0.6518 -0.3277  1.2655
    1SOL    HW3 7807   0.091   4.278   3.418  0.6670 -0.9265  1.1304
    1SOL    MW4 7808   0.017   4.240   3.391  0.5549 -0.0839  0.1869
    1SOL     OW 7809   0.218   4.386   3.492  0.5106 -0.3038  0.3986
    1SOL    HW2 7810   0.206   4.384   3.587 -0.3839 -0.0957  0.2952
    1SOL    HW3 7811   0.307   4.354   3.478  0.2336 -1.4760  1.2367
    1SOL    MW4 7812   0.228   4.382   3.502  0.3561 -0.4311  0.4957
    1SOL     OW 7813   0.677   4.628   3.338 -0.3696 -0.1852 -0.2121
    1SOL    HW2 7814   0.742   4.691   3.370 -0.8302  1.1028 -1.7175
    1SOL    HW3 7815   0.680   4.638   3.243 -1.6880 -1.2147 -0.3663
    1SOL    MW4 7816   0.686   4.638   3.330 -0.6043 -0.1502 -0.4311
    1SOL     OW 7817   0.439   0.139   3.436  0.1080 -0.1430 -0.3546
    1SOL    HW2 7818   0.431   0.138   3.532 -0.0550  0.2399 -0.3641
    1SOL    HW3 7819   0.512   0.080   3.418 -0.8904 -1.4555 -0.0983
    1SOL    MW4 7820   0.448   0.131   3.446 -0.0452 -0.2657 -0.3221
    1SOL     OW 7821   0.423   0.394   3.343  0.0991  0.0486 -0.1812
    1SOL    HW2 7822   0.498   0.441   3.380  1.2986 -1.2242 -0.9164
    1SOL    HW3 7823   0.431   0.305   3.378 -0.8736 -0.1899 -0.5434
    1SOL    MW4 7824   0.434   0.388   3.352  0.1290 -0.1508 -0.3257
    1SOL     OW 7825   0.660   0.504   3.498  0.2190 -0.5210  0.1508
    1SOL    HW2 7826   0.676   0.512   3.592  0.5242 -1.6656  0.1995
    1SOL    HW3 7827   0.738   0.462   3.463  0.2443  0.1950 -0.6756
    1SOL    MW4 7828   0.672   0.500   3.506  0.2626 -0.5774  0.0479
    1SOL     OW 7829   0.687   0.776   3.381  0.1310  0.1679  0.1544
    1SOL    HW2 7830   0.601   0.811   3.405 -1.1137 -1.8270 -1.2992
    1SOL    HW3 7831   0.685   0.685   3.409  1.5287 -0.0922 -0.5481
    1SOL    MW4 7832   0.675   0.769   3.388  0.1512 -0.1296 -0.1304
    1SOL     OW 7833   0.453   0.895   3.457 -0.1170 -0.2907 -0.3372
    1SOL    HW2 7834   0.470   0.912   3.549  0.2553 -2.1652 -0.0273
    1SOL    HW3 7835   0.470   0.978   3.413  0.6593  0.3600  1.1614
    1SOL    MW4 7836   0.457   0.908   3.463  0.0345 -0.4522 -0.0987
    1SOL     OW 7837   0.474   1.153   3.353 -0.6111 -0.1117 -0.0933
    1SOL    HW2 7838   0.400   1.209   3.378 -0.2208 -0.0373  0.9518
    1SOL    HW3 7839   0.467   1.144   3.258 -1.5578  0.4652 -0.0863
    1SOL    MW4 7840   0.463   1.159   3.344 -0.6845 -0.0257  0.0453
    1SOL     OW 7841   0.688   1.301   3.460 -0.0595  0.0576 -0.0397
    1SOL    HW2 7842   0.613   1.266   3.412  0.7126 -0.6131 -0.7720
    1SOL    HW3 7843   0.694   1.392   3.431 -0.5992  0.1216  0.0385
    1SOL    MW4 7844   0.679   1.308   3.450 -0.0287 -0.0224 -0.1256
    1SOL     OW 7845   0.693   1.549   3.366  0.0577 -0.1775 -0.5836
    1SOL    HW2 7846   0.770   1.594   3.401  0.4333 -0.1766 -1.3869
    1SOL    HW3 7847   0.618   1.598   3.401  0.4284 -0.0400  0.0181
    1SOL    MW4 7848   0.693   1.562   3.375  0.1562 -0.1594 -0.6101
    1SOL     OW 7849   0.501   1.719   3.480  0.1701  0.0755  0.2756
    1SOL    HW2 7850   0.513   1.719   3.575  1.3902  0.5742  0.1245
    1SOL    HW3 7851   0.497   1.812   3.456  1.9892 -0.0052 -0.4138
    1SOL    MW4 7852   0.502   1.731   3.489  0.5710  0.1307  0.1645
    1SOL     OW 7853   0.498   1.968   3.367 -0.3534  0.1425  0.1820
    1SOL    HW2 7854   0.412   1.999   3.396 -0.1291  1.1349 -0.2064
    1SOL    HW3 7855   0.486   1.948   3.274  0.2278  1.7484 -0.2458
    1SOL    MW4 7856   0.485   1.969   3.359 -0.2471  0.4853  0.0744
    1SOL     OW 7857   0.708   2.097   3.477 -0.2855  0.3062  0.3051
    1SOL    HW2 7858   0.673   2.092   3.566  0.0804 -0.2893  0.4199
    1SOL    HW3 7859   0.644   2.051   3.423  1.2478 -2.5306  0.8060
    1SOL    MW4 7860   0.695   2.090   3.482 -0.0349 -0.1469  0.3862
    1SOL     OW 7861   0.683   2.332   3.363  0.3232  0.3868 -0.0459
    1SOL    HW2 7862   0.757   2.370   3.410  0.1020  0.1261  0.5217
    1SOL    HW3 7863   0.667   2.249   3.407  0.3036  0.0044 -0.7806
    1SOL    MW4 7864   0.691   2.326   3.375  0.2915  0.3021 -0.0679
    1SOL     OW 7865   0.458   2.450   3.483  0.5302 -0.2570  0.4460
    1SOL    HW2 7866   0.534   2.416   3.435 -0.5662  0.0236 -1.5108
    1SOL    HW3 7867   0.387   2.389   3.461  0.0688 -0.2523  1.9072
    1SOL    MW4 7868   0.459   2.437   3.474  0.3247 -0.2196  0.3808
    1SOL     OW 7869   0.468   2.699   3.375 -0.1226 -0.5196 -0.0324
    1SOL    HW2 7870   0.468   2.614   3.419  3.4798 -0.0311  1.0678
    1SOL    HW3 7871   0.478   2.678   3.282  1.3475 -1.3187  0.2887
    1SOL    MW4 7872   0.469   2.685   3.368  0.5466 -0.5605  0.1552
    1SOL     OW 7873   0.663   2.887   3.477  0.2431  0.1307 -0.2304
    1SOL    HW2 7874   0.739   2.842   3.439  0.6925  0.8036 -0.1331
    1SOL    HW3 7875   0.589   2.831   3.456  1.0501 -1.7161  1.6048
    1SOL    MW4 7876   0.664   2.874   3.470  0.4088 -0.0243  0.0246
    1SOL     OW 7877   0.709   3.143   3.382  0.2556  0.4261  0.2218
    1SOL    HW2 7878   0.624   3.182   3.402 -0.0943 -0.3408  0.2539
    1SOL    HW3 7879   0.705   3.056   3.421  0.9240  0.2603 -0.0747
    1SOL    MW4 7880   0.697   3.137   3.390  0.2977  0.3028  0.1869
    1SOL     OW 7881   0.430   3.236   3.463 -0.1258  0.0608 -0.0487
    1SOL    HW2 7882   0.442   3.229   3.558 -0.4790  0.3138  0.0162
    1SOL    HW3 7883   0.371   3.164   3.441  1.9061 -1.5507 -0.4560
    1SOL    MW4 7884   0.424   3.226   3.473  0.0957 -0.1185 -0.0939
    1SOL     OW 7885   0.484   3.490   3.363 -0.2278 -0.4276 -0.3877
    1SOL    HW2 7886   0.468   3.404   3.402 -0.9602 -0.2551 -0.2989
    1SOL    HW3 7887   0.418   3.547   3.403  0.4638  0.2569 -0.1880
    1SOL    MW4 7888   0.473   3.486   3.374 -0.2332 -0.3147 -0.3495
    1SOL     OW 7889   0.701   3.622   3.500  0.2087 -0.1979 -0.1346
    1SOL    HW2 7890   0.779   3.576   3.469 -0.3759 -1.5256  0.3162
    1SOL    HW3 7891   0.627   3.574   3.460 -0.4043  0.3864  0.2891
    1SOL    MW4 7892   0.701   3.609   3.491  0.0507 -0.2959 -0.0188
    1SOL     OW 7893   0.717   3.871   3.382 -0.2970  0.1020  0.2051
    1SOL    HW2 7894   0.637   3.918   3.408 -1.0568 -0.6837 -0.7026
    1SOL    HW3 7895   0.708   3.784   3.421 -0.1131 -0.1576 -0.3368
    1SOL    MW4 7896   0.705   3.866   3.391 -0.3729 -0.0355  0.0138
    1SOL     OW 7897   0.494   4.037   3.470  0.1386 -0.4353 -0.1337
    1SOL    HW2 7898   0.491   4.122   3.426  0.8941 -0.1254  0.3953
    1SOL    HW3 7899   0.413   3.993   3.444 -1.0512  1.0979  0.9125
    1SOL    MW4 7900   0.483   4.042   3.461  0.0813 -0.1922  0.0741
    1SOL     OW 7901   0.493   4.282   3.345 -0.4755 -0.2270 -0.1801
    1SOL    HW2 7902   0.577   4.305   3.386  0.4001 -0.4765 -1.8053
    1SOL    HW3 7903   0.512   4.276   3.252 -2.4225  0.1772 -0.6315
    1SOL    MW4 7904   0.507   4.284   3.338 -0.6168 -0.2065 -0.4542
    1SOL     OW 7905   0.697   4.382   3.507 -0.7543 -0.1412 -0.1447
    1SOL    HW2 7906   0.771   4.336   3.468  1.5000  2.0068  1.3804
    1SOL    HW3 7907   0.698   4.468   3.466 -2.8573 -0.3072 -0.5870
    1SOL    MW4 7908   0.707   4.387   3.497 -0.7343  0.1197 -0.0017
    1SOL     OW 7909   1.123   0.016   3.404  0.2142 -0.0020  0.2197
    1SOL    HW2 7910   1.201   0.055   3.445  0.8254  0.2261 -1.1418
    1SOL    HW3 7911   1.146   0.009   3.311 -1.7529  0.9800 -0.3642
    1SOL    MW4 7912   1.137   0.020   3.397  0.0352  0.1583 -0.0370
    1SOL     OW 7913   0.867   0.148   3.446  0.0600 -0.0201 -0.2764
    1SOL    HW2 7914   0.868   0.142   3.541  0.7326  0.2661 -0.2699
    1SOL    HW3 7915   0.952   0.115   3.418 -0.4951 -1.0490 -0.8383
    1SOL    MW4 7916   0.878   0.143   3.455  0.0755 -0.1181 -0.3498
    1SOL     OW 7917   0.885   0.402   3.358  0.5495  0.3326  0.3473
    1SOL    HW2 7918   0.957   0.452   3.397  0.2445  0.6400  0.5223
    1SOL    HW3 7919   0.890   0.316   3.401  0.2293  0.6648  1.0568
    1SOL    MW4 7920   0.895   0.397   3.369  0.4670  0.4170  0.4642
    1SOL     OW 7921   1.108   0.531   3.470  0.2237 -0.4921  0.5622
    1SOL    HW2 7922   1.088   0.532   3.563 -0.8787 -2.3599  0.3754
    1SOL    HW3 7923   1.142   0.618   3.451 -0.4593  0.2102  2.5056
    1SOL    MW4 7924   1.110   0.543   3.480 -0.0119 -0.6459  0.7939
    1SOL     OW 7925   1.155   0.789   3.419 -0.0239 -0.2055 -0.3510
    1SOL    HW2 7926   1.234   0.832   3.453  1.3684 -2.6643 -0.3864
    1SOL    HW3 7927   1.083   0.836   3.461  1.4861  1.2223  0.7308
    1SOL    MW4 7928   1.156   0.801   3.429  0.3591 -0.3415 -0.2129
    1SOL     OW 7929   0.918   0.895   3.509 -0.0728  0.0987 -0.0533
    1SOL    HW2 7930   0.909   0.984   3.475 -0.2143  0.1189  0.0367
    1SOL    HW3 7931   0.844   0.848   3.471  0.0609 -0.0064 -0.1832
    1SOL    MW4 7932   0.907   0.901   3.499 -0.0739  0.0874 -0.0584
    1SOL     OW 7933   0.900   1.136   3.393 -0.3854 -0.5483 -0.1877
    1SOL    HW2 7934   0.970   1.180   3.442  0.1906 -1.2807 -0.3485
    1SOL    HW3 7935   0.819   1.178   3.423  0.1254  0.3469 -0.0457
    1SOL    MW4 7936   0.898   1.147   3.403 -0.2420 -0.5269 -0.1903
    1SOL     OW 7937   1.127   1.269   3.529 -0.1502 -0.2499  0.1077
    1SOL    HW2 7938   1.123   1.284   3.624  1.4566  1.0809  0.0010
    1SOL    HW3 7939   1.134   1.357   3.492 -1.8610 -0.7131 -1.3233
    1SOL    MW4 7940   1.128   1.283   3.537 -0.1639 -0.1354 -0.0951
    1SOL     OW 7941   1.153   1.518   3.423 -0.2100 -0.0373  0.1897
    1SOL    HW2 7942   1.218   1.585   3.445 -0.5674  0.8422 -1.3725
    1SOL    HW3 7943   1.150   1.518   3.328 -1.3285 -1.2186  0.2166
    1SOL    MW4 7944   1.161   1.527   3.414 -0.4047 -0.0771 -0.0131
    1SOL     OW 7945   0.916   1.668   3.441  0.0502 -0.0297 -0.1806
    1SOL    HW2 7946   0.937   1.757   3.412  0.0572  0.3680  0.9968
    1SOL    HW3 7947   0.997   1.620   3.428  0.4998  0.5097  0.5515
    1SOL    MW4 7948   0.930   1.674   3.436  0.1104  0.0938  0.0715
    1SOL     OW 7949   0.926   1.947   3.380 -0.1088 -0.6407 -0.4511
    1SOL    HW2 7950   1.007   1.995   3.401 -0.0498 -1.1230  0.4844
    1SOL    HW3 7951   0.856   2.004   3.412 -0.0513 -1.0384  0.4008
    1SOL    MW4 7952   0.928   1.961   3.387 -0.0935 -0.7569 -0.2151
    1SOL     OW 7953   1.159   2.061   3.463 -0.4954 -0.1110 -0.2525
    1SOL    HW2 7954   1.236   2.019   3.425 -1.1842 -0.0675 -1.7099
    1SOL    HW3 7955   1.168   2.154   3.440 -0.5442  0.0483  0.3409
    1SOL    MW4 7956   1.171   2.068   3.455 -0.5927 -0.0842 -0.3664
    1SOL     OW 7957   1.130   2.336   3.394 -0.0445 -0.0947 -0.4101
    1SOL    HW2 7958   1.207   2.374   3.435  0.5239 -1.4281 -0.1979
    1SOL    HW3 7959   1.135   2.363   3.303  1.2318 -0.9850 -0.6269
    1SOL    MW4 7960   1.141   2.344   3.388  0.1988 -0.3881 -0.4106
    1SOL     OW 7961   0.888   2.480   3.462  0.0426 -0.1012 -0.1749
    1SOL    HW2 7962   0.891   2.494   3.557 -1.1294  0.1059 -0.1650
    1SOL    HW3 7963   0.966   2.427   3.443 -0.7535 -1.7838  1.1769
    1SOL    MW4 7964   0.899   2.475   3.472 -0.2171 -0.2961  0.0045
    1SOL     OW 7965   0.894   2.749   3.368  0.0659  0.5369 -0.2075
    1SOL    HW2 7966   0.974   2.780   3.411  0.3844  1.4102 -1.3946
    1SOL    HW3 7967   0.885   2.658   3.397  0.1505  1.1684  1.8424
    1SOL    MW4 7968   0.903   2.741   3.378  0.1191  0.7353 -0.0937
    1SOL     OW 7969   1.131   2.840   3.493  0.4038 -0.5218 -0.3295
    1SOL    HW2 7970   1.143   2.844   3.588 -1.5554 -0.9503 -0.0557
    1SOL    HW3 7971   1.211   2.798   3.461  1.9825  1.4134  0.9150
    1SOL    MW4 7972   1.143   2.835   3.501  0.3536 -0.3231 -0.1290
    1SOL     OW 7973   1.112   3.090   3.386  0.4783  0.2780 -0.8358
    1SOL    HW2 7974   1.117   3.001   3.421  0.3971  0.3303 -0.6885
    1SOL    HW3 7975   1.102   3.079   3.292  2.7132  0.1582 -1.0979
    1SOL    MW4 7976   1.111   3.077   3.378  0.7625  0.2692 -0.8512
    1SOL     OW 7977   0.915   3.248   3.502 -0.0952 -0.2539  0.4434
    1SOL    HW2 7978   0.985   3.195   3.465  0.3423  1.2890 -1.0089
    1SOL    HW3 7979   0.835   3.211   3.465  0.0209 -1.3234  1.2380
    1SOL    MW4 7980   0.914   3.236   3.492 -0.0222 -0.1915  0.3567
    1SOL     OW 7981   0.923   3.535   3.386 -0.0471 -0.1398 -0.1883
    1SOL    HW2 7982   0.923   3.447   3.424 -2.0166 -0.0527  0.0412
    1SOL    HW3 7983   0.913   3.520   3.292 -2.6506 -0.1053  0.0587
    1SOL    MW4 7984   0.922   3.521   3.378 -0.6505 -0.1240 -0.1254
    1SOL     OW 7985   1.160   3.640   3.492 -0.3873 -0.3167 -0.1003
    1SOL    HW2 7986   1.142   3.644   3.585  0.1477  0.7419 -0.0325
    1SOL    HW3 7987   1.083   3.598   3.454 -1.4888  1.0410  0.5878
    1SOL    MW4 7988   1.148   3.635   3.499 -0.4621  0.0021 -0.0005
    1SOL     OW 7989   1.185   3.883   3.357  0.3369  0.1898 -0.8809
    1SOL    HW2 7990   1.253   3.930   3.406 -1.3952  1.5366  0.2858
    1SOL    HW3 7991   1.177   3.799   3.401  0.4686  0.4660 -0.3253
    1SOL    MW4 7992   1.193   3.878   3.370  0.1256  0.4041 -0.6537
    1SOL     OW 7993   0.946   4.005   3.432 -0.3929 -0.5506 -0.2313
    1SOL    HW2 7994   1.023   3.952   3.409 -0.4883 -0.9128  0.2721
    1SOL    HW3 7995   0.871   3.951   3.407 -0.5101 -1.3508  1.7714
    1SOL    MW4 7996   0.946   3.991   3.426 -0.4210 -0.7043  0.0992
    1SOL     OW 7997   0.956   4.292   3.384 -0.2118  0.2872 -0.1530
    1SOL    HW2 7998   0.959   4.199   3.406 -1.4380  0.0515 -0.9252
    1SOL    HW3 7999   0.941   4.293   3.289  1.7153  1.2777 -0.4872
    1SOL    MW4 8000   0.955   4.280   3.374 -0.1194  0.3872 -0.2990
    1SOL     OW 8001   1.165   4.417   3.486 -0.6869  0.0176  0.1622
    1SOL    HW2 8002   1.096   4.371   3.439 -1.4216  0.4459  0.8074
    1SOL    HW3 8003   1.157   4.508   3.457 -1.2639  0.3179  1.2455
    1SOL    MW4 8004   1.155   4.423   3.476 -0.8599  0.1135  0.3903
    1SOL     OW 8005   1.575   0.018   3.387 -0.2604  0.1734  0.1432
    1SOL    HW2 8006   1.582  -0.075   3.410 -1.2672 -0.1860 -0.9642
    1SOL    HW3 8007   1.505   0.051   3.444 -1.3980 -0.2661 -0.9589
    1SOL    MW4 8008   1.566   0.010   3.398 -0.5432  0.0680 -0.1483
    1SOL     OW 8009   1.340   0.145   3.499  0.2065  0.3244  0.1976
    1SOL    HW2 8010   1.333   0.161   3.593 -1.8369  1.0566 -0.0563
    1SOL    HW3 8011   1.338   0.232   3.460 -0.1646 -0.0351 -0.5909
    1SOL    MW4 8012   1.339   0.159   3.506 -0.1122  0.3736  0.0601
    1SOL     OW 8013   1.331   0.392   3.382  0.1561  0.0551 -0.0508
    1SOL    HW2 8014   1.398   0.428   3.441 -0.6685 -0.6252  1.3448
    1SOL    HW3 8015   1.249   0.427   3.416 -0.2661  0.2436 -1.2696
    1SOL    MW4 8016   1.329   0.401   3.394 -0.0082 -0.0097 -0.0274
    1SOL     OW 8017   1.568   0.495   3.522  0.7263  0.0687 -0.0673
    1SOL    HW2 8018   1.564   0.484   3.617 -0.4405 -0.0765 -0.1245
    1SOL    HW3 8019   1.643   0.442   3.494  0.3203 -0.8856  0.6367
    1SOL    MW4 8020   1.577   0.487   3.531  0.5188 -0.0764  0.0184
    1SOL     OW 8021   1.595   0.741   3.394  0.0375  0.1317 -0.0231
    1SOL    HW2 8022   1.514   0.785   3.419  1.1670  1.7536  0.8443
    1SOL    HW3 8023   1.594   0.658   3.443 -1.1033  0.1207 -0.0575
    1SOL    MW4 8024   1.585   0.736   3.404  0.0361  0.3443  0.0870
    1SOL     OW 8025   1.395   0.912   3.495 -0.2271  0.3998  0.1569
    1SOL    HW2 8026   1.376   0.906   3.588  0.1854  1.1521  0.2959
    1SOL    HW3 8027   1.403   1.006   3.478 -1.1666  0.3223 -0.8113
    1SOL    MW4 8028   1.394   0.923   3.505 -0.2966  0.4888  0.0474
    1SOL     OW 8029   1.371   1.188   3.408  0.3576 -0.3187 -0.3041
    1SOL    HW2 8030   1.431   1.251   3.449 -0.0630 -1.1830  1.7072
    1SOL    HW3 8031   1.285   1.211   3.442 -0.3661  0.4017 -2.5468
    1SOL    MW4 8032   1.368   1.199   3.418  0.2067 -0.3377 -0.3345
    1SOL     OW 8033   1.570   1.332   3.516 -0.1035  0.3424 -0.2724
    1SOL    HW2 8034   1.575   1.346   3.611 -2.6583 -0.8921  0.0730
    1SOL    HW3 8035   1.647   1.279   3.496 -0.2599 -0.5000  1.3208
    1SOL    MW4 8036   1.581   1.327   3.526 -0.4613  0.0682 -0.0167
    1SOL     OW 8037   1.578   1.583   3.397 -0.6552 -0.1070 -0.0340
    1SOL    HW2 8038   1.571   1.495   3.433  0.2816 -0.3073 -0.3299
    1SOL    HW3 8039   1.566   1.572   3.303 -0.2719  0.0501 -0.1002
    1SOL    MW4 8040   1.575   1.570   3.389 -0.4811 -0.1127 -0.0820
    1SOL     OW 8041   1.341   1.710   3.499  0.1692 -0.0717 -0.2030
    1SOL    HW2 8042   1.353   1.739   3.589  0.8253  1.2429 -0.6990
    1SOL    HW3 8043   1.427   1.680   3.471 -0.2090 -1.2226 -0.1362
    1SOL    MW4 8044   1.354   1.710   3.507  0.2059 -0.0501 -0.2599
    1SOL     OW 8045   1.385   1.921   3.332  0.1964  0.4931 -0.1113
    1SOL    HW2 8046   1.469   1.951   3.369  0.7375  0.2858 -1.1455
    1SOL    HW3 8047   1.369   1.837   3.374 -0.2557  1.2247  1.2140
    1SOL    MW4 8048   1.394   1.914   3.342  0.2081  0.5623 -0.0730
    1SOL     OW 8049   1.593   2.045   3.472  0.2125  0.0179 -0.5168
    1SOL    HW2 8050   1.679   2.028   3.434 -0.2347 -1.3218 -0.9524
    1SOL    HW3 8051   1.574   2.136   3.448  0.7512 -0.2132 -1.8683
    1SOL    MW4 8052   1.602   2.055   3.464  0.2246 -0.1893 -0.7524
    1SOL     OW 8053   1.538   2.289   3.374 -0.2287 -0.5676  0.0522
    1SOL    HW2 8054   1.480   2.356   3.411  1.1328 -0.5876  2.3064
    1SOL    HW3 8055   1.551   2.316   3.283 -1.7525  0.8083  0.2169
    1SOL    MW4 8056   1.532   2.302   3.367 -0.2501 -0.3889  0.3715
    1SOL     OW 8057   1.356   2.452   3.494 -0.1621  0.4627  0.2967
    1SOL    HW2 8058   1.342   2.464   3.588  0.8334 -1.7590  0.7715
    1SOL    HW3 8059   1.351   2.540   3.457 -0.2799  1.3938  2.4602
    1SOL    MW4 8060   1.353   2.465   3.502 -0.0465  0.2923  0.6447
    1SOL     OW 8061   1.354   2.707   3.373 -0.0152  0.1377 -0.1468
    1SOL    HW2 8062   1.434   2.741   3.412  0.2434 -0.2356 -0.3507
    1SOL    HW3 8063   1.367   2.716   3.279 -0.8797  1.5842 -0.1363
    1SOL    MW4 8064   1.366   2.712   3.366 -0.0951  0.2792 -0.1721
    1SOL     OW 8065   1.579   2.821   3.515  0.1613  0.5855 -0.2729
    1SOL    HW2 8066   1.665   2.793   3.483  0.8895  0.3115  1.8702
    1SOL    HW3 8067   1.574   2.914   3.491  1.1892  0.6868 -0.1192
    1SOL    MW4 8068   1.590   2.830   3.508  0.3928  0.5624  0.0300
    1SOL     OW 8069   1.564   3.099   3.390  0.0433  0.1551 -0.2038
    1SOL    HW2 8070   1.638   3.154   3.416  0.2423 -0.6927  1.1056
    1SOL    HW3 8071   1.487   3.145   3.423  0.0956  0.3769 -0.3932
    1SOL    MW4 8072   1.564   3.112   3.398  0.0763  0.0725 -0.0560
    1SOL     OW 8073   1.326   3.222   3.505 -0.0170 -0.1905  0.5062
    1SOL    HW2 8074   1.326   3.226   3.601  0.0799 -1.0180  0.5415
    1SOL    HW3 8075   1.261   3.155   3.484 -0.3324  0.2759 -0.0213
    1SOL    MW4 8076   1.317   3.214   3.515 -0.0459 -0.2384  0.4413
    1SOL     OW 8077   1.346   3.475   3.364 -0.2910  0.7191 -0.3173
    1SOL    HW2 8078   1.332   3.386   3.396 -0.5388  0.2008 -1.8231
    1SOL    HW3 8079   1.286   3.529   3.415  0.4430  0.1558  1.1715
    1SOL    MW4 8080   1.336   3.470   3.375 -0.2266  0.5763 -0.3195
    1SOL     OW 8081   1.547   3.625   3.460  0.3578 -0.5128  0.3049
    1SOL    HW2 8082   1.536   3.630   3.555  0.8338 -0.1502  0.3447
    1SOL    HW3 8083   1.482   3.562   3.431  0.1127 -0.5136  0.8582
    1SOL    MW4 8084   1.537   3.618   3.469  0.3883 -0.4649  0.3831
    1SOL     OW 8085   1.591   3.884   3.380 -0.2250  0.0350  0.0056
    1SOL    HW2 8086   1.571   3.793   3.403  2.8424 -0.5973  0.4912
    1SOL    HW3 8087   1.606   3.883   3.286  0.2321 -0.0694  0.0766
    1SOL    MW4 8088   1.590   3.872   3.371  0.2400 -0.0622  0.0792
    1SOL     OW 8089   1.375   4.004   3.526  0.1595 -0.1204 -0.1424
    1SOL    HW2 8090   1.372   4.099   3.515 -0.4784 -0.1145  0.0704
    1SOL    HW3 8091   1.450   3.976   3.474  0.5103  0.5315  0.0160
    1SOL    MW4 8092   1.384   4.013   3.518  0.1216 -0.0343 -0.0937
    1SOL     OW 8093   1.393   4.273   3.425 -0.4841 -0.0068 -0.1127
    1SOL    HW2 8094   1.312   4.321   3.441  0.0950  0.4682  1.5059
    1SOL    HW3 8095   1.403   4.275   3.330 -1.5069  1.3815 -0.2154
    1SOL    MW4 8096   1.384   4.280   3.414 -0.5426  0.2389  0.0870
    1SOL     OW 8097   1.606   4.424   3.491 -0.2853 -0.5972  0.5114
    1SOL    HW2 8098   1.680   4.380   3.449 -0.5328 -0.8240  0.3095
    1SOL    HW3 8099   1.530   4.371   3.467 -0.5063 -0.3936  0.7587
    1SOL    MW4 8100   1.606   4.411   3.482 -0.3470 -0.5994  0.5171
    1SOL     OW 8101   2.034   4.633   3.400  0.3212  0.3018 -0.0166
    1SOL    HW2 8102   2.095   4.703   3.423 -0.4506  0.5494  1.3550
    1SOL    HW3 8103   1.953   4.657   3.444 -0.2765 -0.8863 -0.4469
    1SOL    MW4 8104   2.032   4.646   3.409  0.1407  0.1779  0.1075
    1SOL     OW 8105   1.812   0.082   3.502  0.3972 -0.1465  0.1949
    1SOL    HW2 8106   1.798   0.082   3.597  0.2556 -1.6512  0.1731
    1SOL    HW3 8107   1.723   0.087   3.465  0.4357  0.1105  0.1348
    1SOL    MW4 8108   1.798   0.083   3.510  0.3835 -0.3111  0.1838
    1SOL     OW 8109   1.778   0.342   3.429  0.0757  0.5240  0.1562
    1SOL    HW2 8110   1.808   0.254   3.450 -0.3872  0.4070  0.3455
    1SOL    HW3 8111   1.771   0.343   3.333 -0.8316  0.0470  0.2125
    1SOL    MW4 8112   1.781   0.331   3.419 -0.1050  0.4456  0.1886
    1SOL     OW 8113   1.979   0.498   3.520 -0.3984 -0.1688  0.4272
    1SOL    HW2 8114   1.965   0.586   3.484 -1.9068  0.0223  1.4180
    1SOL    HW3 8115   1.901   0.450   3.493 -0.9061 -0.4017  2.2838
    1SOL    MW4 8116   1.967   0.503   3.511 -0.6644 -0.1743  0.8028
    1SOL     OW 8117   2.012   0.765   3.410  0.0430  0.1203 -0.1781
    1SOL    HW2 8118   2.079   0.821   3.449 -0.3805  0.6300 -0.1664
    1SOL    HW3 8119   2.033   0.763   3.317  1.5722 -1.8087  0.1726
    1SOL    MW4 8120   2.023   0.773   3.403  0.1888 -0.0670 -0.1304
    1SOL     OW 8121   1.784   0.892   3.537 -0.0648 -0.0514  0.4553
    1SOL    HW2 8122   1.865   0.854   3.503 -0.5408 -2.7945  2.2076
    1SOL    HW3 8123   1.714   0.849   3.487 -0.4552  2.8870 -1.6087
    1SOL    MW4 8124   1.785   0.881   3.526 -0.1792 -0.0257  0.4144
    1SOL     OW 8125   1.766   1.163   3.449 -0.1927 -0.6006 -0.1890
    1SOL    HW2 8126   1.848   1.204   3.477 -0.2387 -0.7195  0.1305
    1SOL    HW3 8127   1.778   1.070   3.469 -0.2536 -0.6774 -0.5091
    1SOL    MW4 8128   1.779   1.156   3.456 -0.2068 -0.6266 -0.1891
    1SOL     OW 8129   1.992   1.291   3.529 -0.5951  0.2603 -0.1379
    1SOL    HW2 8130   2.006   1.296   3.623  1.3944  0.3462 -0.4094
    1SOL    HW3 8131   1.989   1.383   3.500  0.3633  0.2300 -0.3556
    1SOL    MW4 8132   1.994   1.304   3.537 -0.2060  0.2677 -0.2024
    1SOL     OW 8133   2.013   1.547   3.415 -0.0834 -0.5662 -0.4027
    1SOL    HW2 8134   2.089   1.598   3.443  0.1884 -0.7869 -0.7246
    1SOL    HW3 8135   1.938   1.601   3.437  0.1943 -0.1262 -0.5378
    1SOL    MW4 8136   2.013   1.561   3.422 -0.0107 -0.5373 -0.4630
    1SOL     OW 8137   1.796   1.719   3.479 -0.1152  0.4216  0.7362
    1SOL    HW2 8138   1.796   1.803   3.432 -1.2636  0.4269  0.7233
    1SOL    HW3 8139   1.717   1.675   3.447 -1.0831  0.5415  2.8663
    1SOL    MW4 8140   1.786   1.724   3.468 -0.3945  0.4382  1.0152
    1SOL     OW 8141   1.832   1.976   3.354 -0.0954  0.2024 -0.3447
    1SOL    HW2 8142   1.904   2.026   3.391  1.4027 -1.0054 -1.5865
    1SOL    HW3 8143   1.837   1.990   3.260 -1.3954 -0.0275 -0.4704
    1SOL    MW4 8144   1.842   1.984   3.347 -0.0693  0.0126 -0.5255
    1SOL     OW 8145   2.037   2.111   3.503 -0.1110  0.1410  0.1224
    1SOL    HW2 8146   2.116   2.059   3.488  1.2386  1.9854  0.6724
    1SOL    HW3 8147   2.052   2.192   3.454 -0.8812  1.2500  1.6902
    1SOL    MW4 8148   2.049   2.115   3.495 -0.0348  0.5305  0.4020
    1SOL     OW 8149   2.017   2.364   3.347 -0.4779 -0.0439  0.2529
    1SOL    HW2 8150   1.930   2.369   3.387 -1.0334  2.8573 -1.1699
    1SOL    HW3 8151   2.000   2.330   3.259  0.3733 -3.4189  1.3154
    1SOL    MW4 8152   2.003   2.360   3.341 -0.4389 -0.1066  0.2055
    1SOL     OW 8153   1.770   2.421   3.469  0.5741 -0.4172 -0.0941
    1SOL    HW2 8154   1.755   2.433   3.563 -1.3088  0.6069 -0.4930
    1SOL    HW3 8155   1.701   2.361   3.441 -0.8620  1.7782 -1.3906
    1SOL    MW4 8156   1.759   2.415   3.478  0.1363  0.0076 -0.3173
    1SOL     OW 8157   1.822   2.699   3.399 -0.6000  0.3511  0.1898
    1SOL    HW2 8158   1.908   2.709   3.440 -0.6255  2.6827 -0.2896
    1SOL    HW3 8159   1.803   2.605   3.407  1.9922 -0.2098  0.2525
    1SOL    MW4 8160   1.830   2.688   3.406 -0.2614  0.5846  0.1349
    1SOL     OW 8161   2.059   2.815   3.498 -0.0320  0.0328  0.2397
    1SOL    HW2 8162   2.050   2.828   3.592  2.1349  0.5623  0.4039
    1SOL    HW3 8163   2.050   2.902   3.461  0.2883 -0.0047  0.0715
    1SOL    MW4 8164   2.057   2.828   3.506  0.2961  0.0980  0.2389
    1SOL     OW 8165   2.034   3.071   3.395 -0.1673 -0.1699 -0.0557
    1SOL    HW2 8166   2.109   3.123   3.422 -0.1604  0.0813 -0.5366
    1SOL    HW3 8167   1.959   3.113   3.437  0.1239 -1.3310  1.6492
    1SOL    MW4 8168   2.034   3.083   3.404 -0.1280 -0.2899  0.1056
    1SOL     OW 8169   1.804   3.229   3.503 -0.0609  0.0886  0.4723
    1SOL    HW2 8170   1.798   3.236   3.598 -1.2869 -0.1313  0.4191
    1SOL    HW3 8171   1.812   3.319   3.472 -0.6439  0.2269  0.7244
    1SOL    MW4 8172   1.804   3.242   3.511 -0.2996  0.0777  0.4985
    1SOL     OW 8173   1.796   3.487   3.429  0.2372  0.2290 -0.4359
    1SOL    HW2 8174   1.706   3.519   3.437  0.4640  1.0449 -1.1508
    1SOL    HW3 8175   1.812   3.484   3.335  0.1830 -2.1047 -0.4040
    1SOL    MW4 8176   1.786   3.491   3.418  0.2600  0.0288 -0.5257
    1SOL     OW 8177   2.023   3.640   3.497 -0.0107 -0.3339 -0.0009
    1SOL    HW2 8178   2.099   3.587   3.472 -0.7481 -1.2789 -0.2691
    1SOL    HW3 8179   1.949   3.596   3.456 -0.9487 -0.5054  1.8144
    1SOL    MW4 8180   2.024   3.627   3.488 -0.2315 -0.4811  0.2031
    1SOL     OW 8181   2.074   3.914   3.411  0.4191 -0.3133  0.5552
    1SOL    HW2 8182   1.987   3.953   3.420 -0.1363 -1.4991  0.4086
    1SOL    HW3 8183   2.064   3.825   3.443  1.7453 -0.2611  1.1486
    1SOL    MW4 8184   2.062   3.907   3.416  0.5209 -0.4630  0.6142
    1SOL     OW 8185   1.820   4.025   3.485 -0.0790  0.6749 -0.1812
    1SOL    HW2 8186   1.824   4.033   3.580 -0.4740  0.5948 -0.1591
    1SOL    HW3 8187   1.736   3.983   3.468 -0.3317  1.3628 -0.6134
    1SOL    MW4 8188   1.810   4.021   3.495 -0.1644  0.7553 -0.2351
    1SOL     OW 8189   1.809   4.276   3.379  0.0015  0.5522 -0.1658
    1SOL    HW2 8190   1.795   4.187   3.411  1.7851  0.1429 -0.4669
    1SOL    HW3 8191   1.818   4.267   3.284  1.2390  0.8975 -0.0968
    1SOL    MW4 8192   1.809   4.263   3.371  0.4001  0.5441 -0.1965
    1SOL     OW 8193   2.052   4.381   3.494 -0.1075 -0.3737  0.4093
    1SOL    HW2 8194   1.988   4.328   3.447  1.0752 -0.6706 -0.9250
    1SOL    HW3 8195   2.038   4.470   3.463 -0.4714 -0.2996  0.7926
    1SOL    MW4 8196   2.042   4.385   3.484  0.0005 -0.4029  0.2837
    1SOL     OW 8197   2.487   0.050   3.426 -0.4729  0.1445  0.5908
    1SOL    HW2 8198   2.489  -0.045   3.440 -0.7529 -0.0187 -0.4435
    1SOL    HW3 8199   2.473   0.060   3.332 -1.2631  1.2151  0.8137
    1SOL    MW4 8200   2.486   0.039   3.415 -0.6142  0.2642  0.4840
    1SOL     OW 8201   2.225   0.134   3.510  0.0961 -0.0760 -0.0220
    1SOL    HW2 8202   2.242   0.221   3.475  1.2208 -0.1546  0.2971
    1SOL    HW3 8203   2.305   0.084   3.492  0.5197 -0.2517  2.1800
    1SOL    MW4 8204   2.238   0.139   3.503  0.3006 -0.1096  0.3102
    1SOL     OW 8205   2.225   0.394   3.411 -0.4243 -0.1359  0.0531
    1SOL    HW2 8206   2.291   0.432   3.469 -0.9802  0.8438  0.0611
    1SOL    HW3 8207   2.142   0.427   3.445 -0.9201 -1.3738  0.0536
    1SOL    MW4 8208   2.223   0.403   3.423 -0.5631 -0.1700  0.0544
    1SOL     OW 8209   2.461   0.521   3.544 -0.0289  0.2031 -0.1287
    1SOL    HW2 8210   2.535   0.483   3.497 -0.1557  0.8594 -0.8621
    1SOL    HW3 8211   2.463   0.614   3.521 -1.4880  0.1069 -0.6998
    1SOL    MW4 8212   2.471   0.529   3.535 -0.2382  0.2770 -0.3006
    1SOL     OW 8213   2.458   0.801   3.464 -0.2781 -0.1576 -0.3896
    1SOL    HW2 8214   2.549   0.830   3.471 -0.5010  0.1702  1.3649
    1SOL    HW3 8215   2.438   0.807   3.371  1.2212  0.6021 -0.6789
    1SOL    MW4 8216   2.467   0.806   3.453 -0.1097 -0.0141 -0.1962
    1SOL     OW 8217   2.212   0.912   3.535  0.0515  0.0035  0.0570
    1SOL    HW2 8218   2.209   0.999   3.497  0.6344 -0.2775 -0.6405
    1SOL    HW3 8219   2.300   0.880   3.515  0.9881  0.5098  3.0730
    1SOL    MW4 8220   2.223   0.919   3.528  0.2520  0.0333  0.3629
    1SOL     OW 8221   2.217   1.179   3.416 -0.0675  0.4535 -0.2776
    1SOL    HW2 8222   2.291   1.231   3.447  0.6466 -0.9205  0.3872
    1SOL    HW3 8223   2.140   1.220   3.455  0.4013  1.5125 -0.4568
    1SOL    MW4 8224   2.216   1.191   3.425  0.0885  0.4120 -0.2136
    1SOL     OW 8225   2.461   1.317   3.487 -0.2918  0.7125  0.1543
    1SOL    HW2 8226   2.444   1.293   3.578 -1.4296 -1.1525 -0.5359
    1SOL    HW3 8227   2.538   1.266   3.462 -2.5259 -2.1363 -1.2118
    1SOL    MW4 8228   2.468   1.307   3.496 -0.7367  0.0905 -0.1171
    1SOL     OW 8229   2.469   1.588   3.424 -0.6780  0.3831 -0.1970
    1SOL    HW2 8230   2.477   1.496   3.450  0.0128  1.0471  2.0701
    1SOL    HW3 8231   2.456   1.585   3.330 -0.9090 -2.0587 -0.1292
    1SOL    MW4 8232   2.468   1.575   3.415 -0.6175  0.1485  0.1111
    1SOL     OW 8233   2.229   1.701   3.502  0.3595 -0.3716  0.0516
    1SOL    HW2 8234   2.241   1.706   3.597  3.4309  1.0501 -0.3246
    1SOL    HW3 8235   2.313   1.666   3.470  0.1665  1.2367 -2.2912
    1SOL    MW4 8236   2.242   1.697   3.510  0.7391  0.0281 -0.3071
    1SOL     OW 8237   2.256   1.963   3.425 -0.0786  0.1312  0.4853
    1SOL    HW2 8238   2.221   1.879   3.455  1.5129 -0.1021  1.7464
    1SOL    HW3 8239   2.246   1.960   3.330 -0.8975 -1.0861  0.5890
    1SOL    MW4 8240   2.250   1.951   3.416  0.0234 -0.0603  0.6654
    1SOL     OW 8241   2.486   2.069   3.502  0.3160  0.4560 -0.3182
    1SOL    HW2 8242   2.413   2.017   3.469 -0.0625  0.3644  0.6636
    1SOL    HW3 8243   2.483   2.149   3.450 -0.3351  0.3603 -0.4331
    1SOL    MW4 8244   2.476   2.072   3.490  0.1800  0.4315 -0.2036
    1SOL     OW 8245   2.473   2.325   3.396 -0.6790  0.2310  0.1025
    1SOL    HW2 8246   2.394   2.368   3.428 -0.3982  0.4683  0.4797
    1SOL    HW3 8247   2.545   2.369   3.442 -0.3753 -0.4817  0.3108
    1SOL    MW4 8248   2.472   2.336   3.406 -0.6020  0.1681  0.1798
    1SOL     OW 8249   2.238   2.470   3.477  0.2222 -0.1440 -0.3527
    1SOL    HW2 8250   2.162   2.447   3.422 -0.4572 -0.1204  0.5694
    1SOL    HW3 8251   2.277   2.545   3.433 -0.7435  0.3265 -0.4246
    1SOL    MW4 8252   2.233   2.476   3.464  0.0048 -0.0787 -0.2408
    1SOL     OW 8253   2.318   2.722   3.399  0.3856 -0.1644  0.0574
    1SOL    HW2 8254   2.238   2.757   3.439 -0.2408 -1.7340  0.2407
    1SOL    HW3 8255   2.306   2.735   3.305  0.0553 -0.0933  0.1072
    1SOL    MW4 8256   2.306   2.728   3.392  0.2596 -0.3624  0.0882
    1SOL     OW 8257   2.538   2.839   3.535  0.1295 -0.2570  0.2827
    1SOL    HW2 8258   2.516   2.926   3.503  1.9417 -0.1195 -0.6715
    1SOL    HW3 8259   2.464   2.784   3.507  0.2193  0.4653 -1.4597
    1SOL    MW4 8260   2.525   2.843   3.527  0.3805 -0.1440 -0.0732
    1SOL     OW 8261   2.431   3.074   3.470  0.1855 -0.2584  0.0585
    1SOL    HW2 8262   2.505   3.134   3.472 -0.4315  0.5376 -0.4473
    1SOL    HW3 8263   2.419   3.055   3.377  0.8798 -1.8018  0.2773
    1SOL    MW4 8264   2.439   3.079   3.458  0.1957 -0.3572  0.0210
    1SOL     OW 8265   2.213   3.242   3.505  0.1643 -0.1696  0.1700
    1SOL    HW2 8266   2.206   3.248   3.601  0.1598  0.0928  0.1535
    1SOL    HW3 8267   2.297   3.198   3.490  0.2803  0.0083  0.2900
    1SOL    MW4 8268   2.223   3.237   3.516  0.1791 -0.1116  0.1838
    1SOL     OW 8269   2.253   3.496   3.411 -0.1848 -0.1868 -0.7156
    1SOL    HW2 8270   2.251   3.412   3.458  1.3020 -0.1343 -0.5368
    1SOL    HW3 8271   2.256   3.471   3.319  1.4440 -0.3771 -0.6356
    1SOL    MW4 8272   2.253   3.481   3.405  0.2265 -0.2050 -0.6816
    1SOL     OW 8273   2.484   3.597   3.508  0.2099 -0.1662  0.4325
    1SOL    HW2 8274   2.502   3.687   3.479  2.0575 -0.4845  0.5297
    1SOL    HW3 8275   2.410   3.569   3.454 -0.1748  1.3021  0.1709
    1SOL    MW4 8276   2.477   3.606   3.497  0.4029 -0.0145  0.4108
    1SOL     OW 8277   2.515   3.845   3.412  0.4012 -0.0976 -0.6247
    1SOL    HW2 8278   2.592   3.898   3.433  0.6483 -0.9062  0.5615
    1SOL    HW3 8279   2.441   3.899   3.439  0.6440 -0.2783  0.4073
    1SOL    MW4 8280   2.515   3.859   3.418  0.4656 -0.2282 -0.3321
    1SOL     OW 8281   2.316   4.045   3.505  0.5419  0.4962  0.1530
    1SOL    HW2 8282   2.332   4.133   3.471  0.9785 -0.4309 -2.1054
    1SOL    HW3 8283   2.230   4.021   3.470 -0.4992  0.7852  2.4224
    1SOL    MW4 8284   2.307   4.053   3.496  0.4623  0.4125  0.1547
    1SOL     OW 8285   2.289   4.295   3.394  0.2948  0.0364  0.0408
    1SOL    HW2 8286   2.207   4.332   3.428  0.3191  1.2009 -1.1498
    1SOL    HW3 8287   2.270   4.276   3.302  1.1032 -0.5127 -0.0137
    1SOL    MW4 8288   2.275   4.297   3.386  0.4046  0.1178 -0.1237
    1SOL     OW 8289   2.491   4.453   3.497  0.1705  0.3283  0.0719
    1SOL    HW2 8290   2.488   4.428   3.589  1.5444  0.8232  0.2634
    1SOL    HW3 8291   2.418   4.406   3.456  0.6985 -1.3587  1.0507
    1SOL    MW4 8292   2.481   4.443   3.503  0.4218  0.1707  0.2265
    1SOL     OW 8293   2.927   4.622   3.400  0.1251  0.0201  0.2067
    1SOL    HW2 8294   2.857   4.678   3.431 -1.1288 -2.0772  1.2445
    1SOL    HW3 8295   2.915   4.619   3.305 -1.0373 -0.1265  0.3511
    1SOL    MW4 8296   2.916   4.629   3.392 -0.1936 -0.2756  0.3629
    1SOL     OW 8297   2.730   0.143   3.495  0.0503  0.2618  0.0130
    1SOL    HW2 8298   2.722   0.153   3.589 -0.9322 -0.2625 -0.0110
    1SOL    HW3 8299   2.648   0.102   3.467  0.6826 -0.4086 -0.9461
    1SOL    MW4 8300   2.718   0.139   3.504  0.0038  0.1042 -0.1166
    1SOL     OW 8301   2.668   0.388   3.391  0.2924  0.5904 -0.0839
    1SOL    HW2 8302   2.736   0.442   3.431 -0.1516 -1.4122  3.5481
    1SOL    HW3 8303   2.684   0.300   3.423 -2.2745 -0.4748 -1.5006
    1SOL    MW4 8304   2.679   0.384   3.400 -0.1049  0.1857  0.2084
    1SOL     OW 8305   2.903   0.461   3.507 -0.0007 -0.0220 -0.0264
    1SOL    HW2 8306   2.897   0.466   3.603  0.8789  0.6155  0.0091
    1SOL    HW3 8307   2.899   0.553   3.479  0.7001 -0.1433 -0.5295
    1SOL    MW4 8308   2.902   0.474   3.516  0.2079  0.0461 -0.0880
    1SOL     OW 8309   2.927   0.735   3.420  0.0446  0.3139  1.2518
    1SOL    HW2 8310   3.014   0.775   3.419 -0.1915  0.8284  1.0105
    1SOL    HW3 8311   2.868   0.808   3.438 -0.5434  0.3962 -0.8455
    1SOL    MW4 8312   2.931   0.750   3.422 -0.0639  0.3927  0.9434
    1SOL     OW 8313   2.720   0.881   3.514  0.0744  0.0752  0.0989
    1SOL    HW2 8314   2.711   0.872   3.609 -1.0118 -0.1193 -0.0198
    1SOL    HW3 8315   2.697   0.973   3.497 -0.5932 -0.1270 -0.0803
    1SOL    MW4 8316   2.716   0.892   3.524 -0.1569  0.0229  0.0598
    1SOL     OW 8317   2.675   1.138   3.432  0.4419  0.3173  0.3380
    1SOL    HW2 8318   2.751   1.193   3.451  0.2998  0.3500  0.8321
    1SOL    HW3 8319   2.677   1.125   3.337  1.1807  0.1399  0.3785
    1SOL    MW4 8320   2.685   1.144   3.422  0.5205  0.2983  0.4086
    1SOL     OW 8321   2.898   1.280   3.504  0.3700  0.1428  0.1983
    1SOL    HW2 8322   2.888   1.267   3.598 -0.0896 -0.6530  0.0415
    1SOL    HW3 8323   2.971   1.224   3.479  0.7541  0.6590  0.1458
    1SOL    MW4 8324   2.906   1.271   3.513  0.3600  0.1060  0.1707
    1SOL     OW 8325   2.927   1.546   3.454  0.1743  0.6527  0.4246
    1SOL    HW2 8326   2.861   1.599   3.498  0.3696  0.9860  0.3205
    1SOL    HW3 8327   2.903   1.455   3.474 -1.2804  0.7065 -0.9812
    1SOL    MW4 8328   2.915   1.541   3.462  0.0079  0.7038  0.2253
    1SOL     OW 8329   2.703   1.691   3.544  0.0682 -0.0119  0.3714
    1SOL    HW2 8330   2.714   1.778   3.505  0.3262  0.6300  1.8520
    1SOL    HW3 8331   2.612   1.668   3.524 -0.4509  1.2422  1.2512
    1SOL    MW4 8332   2.692   1.699   3.536  0.0339  0.2383  0.6831
    1SOL     OW 8333   2.719   1.936   3.420 -0.3839  0.0644 -0.5368
    1SOL    HW2 8334   2.643   1.991   3.434  0.6896  1.2043  0.9049
    1SOL    HW3 8335   2.716   1.915   3.326 -1.4320  1.6043 -0.8652
    1SOL    MW4 8336   2.709   1.940   3.409 -0.3805  0.4178 -0.3898
    1SOL     OW 8337   2.960   2.035   3.506 -0.2753  0.0883 -0.4888
    1SOL    HW2 8338   2.965   2.026   3.601 -0.0485 -0.7809 -0.5796
    1SOL    HW3 8339   2.878   1.990   3.482 -0.1617  0.0102 -0.7357
    1SOL    MW4 8340   2.949   2.028   3.515 -0.2306 -0.0367 -0.5336
    1SOL     OW 8341   2.905   2.304   3.427 -0.5308 -0.3679 -0.4874
    1SOL    HW2 8342   2.924   2.211   3.444  0.2002 -0.1688 -0.2202
    1SOL    HW3 8343   2.912   2.313   3.332 -0.5986 -0.5813 -0.5138
    1SOL    MW4 8344   2.908   2.293   3.416 -0.4435 -0.3698 -0.4556
    1SOL     OW 8345   2.696   2.478   3.508 -0.1779  0.0463 -0.4061
    1SOL    HW2 8346   2.695   2.500   3.601  0.3921 -0.2834 -0.3182
    1SOL    HW3 8347   2.766   2.413   3.499  0.2334  0.5836 -1.1859
    1SOL    MW4 8348   2.705   2.472   3.519 -0.0484  0.0739 -0.4973
    1SOL     OW 8349   2.757   2.726   3.410 -0.0955 -0.1027 -0.2961
    1SOL    HW2 8350   2.744   2.636   3.442 -0.5130  0.7104  1.9101
    1SOL    HW3 8351   2.684   2.775   3.446 -0.2997  0.9989 -2.1428
    1SOL    MW4 8352   2.746   2.720   3.419 -0.1776  0.1497 -0.2487
    1SOL     OW 8353   2.978   2.835   3.507  0.2235 -0.0329 -0.4212
    1SOL    HW2 8354   2.957   2.847   3.600  1.4311  1.0869 -0.2790
    1SOL    HW3 8355   2.908   2.779   3.474 -0.2666 -0.3706  1.1446
    1SOL    MW4 8356   2.966   2.829   3.515  0.3185  0.0703 -0.1960
    1SOL     OW 8357   2.918   3.094   3.415 -0.2940 -0.3667 -0.1088
    1SOL    HW2 8358   2.931   3.011   3.460 -0.8585 -0.3701  0.0512
    1SOL    HW3 8359   2.931   3.074   3.322  1.1895 -0.2937  0.0677
    1SOL    MW4 8360   2.922   3.080   3.408 -0.1729 -0.3574 -0.0646
    1SOL     OW 8361   2.672   3.206   3.479 -0.1001 -0.1680  0.0383
    1SOL    HW2 8362   2.704   3.221   3.568 -0.4712  0.4422  0.0727
    1SOL    HW3 8363   2.748   3.172   3.432  0.4321  0.6701  0.2847
    1SOL    MW4 8364   2.686   3.204   3.485 -0.0789  0.0231  0.0756
    1SOL     OW 8365   2.737   3.463   3.440  0.0665  0.0151  0.1982
    1SOL    HW2 8366   2.715   3.370   3.451 -0.6427 -0.0991 -1.9276
    1SOL    HW3 8367   2.664   3.510   3.480 -0.0932 -0.3495  0.3416
    1SOL    MW4 8368   2.724   3.457   3.446 -0.0482 -0.0482 -0.0634
    1SOL     OW 8369   2.956   3.596   3.525  0.0602  0.1021 -0.0377
    1SOL    HW2 8370   2.955   3.675   3.472 -0.7683  0.0922 -0.0526
    1SOL    HW3 8371   2.885   3.542   3.489  0.1764 -0.3552  0.3988
    1SOL    MW4 8372   2.946   3.599   3.513 -0.0341  0.0401  0.0179
    1SOL     OW 8373   2.969   3.864   3.391 -0.0467 -0.1554  0.4424
    1SOL    HW2 8374   3.035   3.921   3.430  0.1757  0.7849 -1.2700
    1SOL    HW3 8375   2.886   3.907   3.409  0.2066  1.4062 -1.9209
    1SOL    MW4 8376   2.967   3.877   3.399  0.0160  0.1748 -0.0951
    1SOL     OW 8377   2.739   3.997   3.490 -0.1575 -0.3286  0.4199
    1SOL    HW2 8378   2.718   3.997   3.583  0.9914  2.0124  0.7086
    1SOL    HW3 8379   2.721   4.086   3.461  1.0194 -0.6007 -1.2372
    1SOL    MW4 8380   2.734   4.009   3.498  0.1495 -0.0558  0.2391
    1SOL     OW 8381   2.674   4.251   3.429 -0.1405  0.0153  0.0247
    1SOL    HW2 8382   2.758   4.297   3.434  0.4178 -0.7719 -1.7499
    1SOL    HW3 8383   2.609   4.317   3.457  1.0906  0.4649  1.9027
    1SOL    MW4 8384   2.676   4.266   3.433  0.0954 -0.0296  0.0384
    1SOL     OW 8385   2.926   4.365   3.492  0.2702 -0.0684 -0.0106
    1SOL    HW2 8386   2.938   4.372   3.587  0.8565 -0.0820 -0.0799
    1SOL    HW3 8387   2.942   4.453   3.459 -0.5724  0.0811 -0.0361
    1SOL    MW4 8388   2.930   4.378   3.500  0.2365 -0.0505 -0.0229
    1SOL     OW 8389   3.376   4.664   3.389 -0.8306 -0.7195 -0.0078
    1SOL    HW2 8390   3.300   4.694   3.438 -0.1982  1.2222 -0.1772
    1SOL    HW3 8391   3.346   4.659   3.298 -0.5310  0.8400 -0.1944
    1SOL    MW4 8392   3.362   4.667   3.383 -0.7076 -0.2575 -0.0551
    1SOL     OW 8393   3.143   0.102   3.518  0.1630  0.0699  0.0730
    1SOL    HW2 8394   3.131   0.185   3.472 -0.9230  0.6056  1.2899
    1SOL    HW3 8395   3.076   0.044   3.480  0.9472 -0.2751 -0.8042
    1SOL    MW4 8396   3.133   0.105   3.507  0.1233  0.0951  0.1178
    1SOL     OW 8397   3.152   0.353   3.421  0.4099  0.4576  0.1676
    1SOL    HW2 8398   3.074   0.390   3.461  0.7468 -0.0404  1.2907
    1SOL    HW3 8399   3.138   0.364   3.327 -0.5555  1.2741  0.3999
    1SOL    MW4 8400   3.140   0.359   3.414  0.3271  0.4997  0.3462
    1SOL     OW 8401   3.357   0.543   3.491  0.6276  0.2495 -0.4755
    1SOL    HW2 8402   3.341   0.560   3.583  0.2138  2.5145 -0.9317
    1SOL    HW3 8403   3.297   0.472   3.469 -1.1949  1.5021  0.3684
    1SOL    MW4 8404   3.347   0.535   3.500  0.3324  0.7136 -0.4244
    1SOL     OW 8405   3.424   0.773   3.370  0.4987 -0.1347 -0.2085
    1SOL    HW2 8406   3.503   0.813   3.408  0.3470 -0.3423  0.3370
    1SOL    HW3 8407   3.413   0.692   3.420  1.7289 -1.6783 -2.3620
    1SOL    MW4 8408   3.433   0.767   3.382  0.6409 -0.3659 -0.4208
    1SOL     OW 8409   3.160   0.879   3.433  0.7945  0.4270 -0.2882
    1SOL    HW2 8410   3.156   0.974   3.422  1.5171  0.7737  2.1092
    1SOL    HW3 8411   3.252   0.858   3.416  0.4891  0.0549 -1.4934
    1SOL    MW4 8412   3.172   0.889   3.429  0.8495  0.4236 -0.1307
    1SOL     OW 8413   3.131   1.155   3.410 -0.2469 -0.1626  0.0134
    1SOL    HW2 8414   3.209   1.206   3.429 -0.6895  0.6909 -0.4359
    1SOL    HW3 8415   3.129   1.150   3.314  0.2775 -1.7810  0.0679
    1SOL    MW4 8416   3.141   1.161   3.400 -0.2360 -0.2635 -0.0389
    1SOL     OW 8417   3.371   1.275   3.454 -0.4415 -0.0656 -0.7147
    1SOL    HW2 8418   3.447   1.231   3.417 -0.5055 -0.1097 -0.7932
    1SOL    HW3 8419   3.373   1.364   3.418 -0.0991  0.1156 -0.2597
    1SOL    MW4 8420   3.381   1.281   3.445 -0.4046 -0.0476 -0.6652
    1SOL     OW 8421   3.374   1.537   3.375 -0.0390  0.0202  0.1839
    1SOL    HW2 8422   3.456   1.576   3.406 -0.2996  1.0543 -0.3841
    1SOL    HW3 8423   3.306   1.585   3.422 -0.3262 -0.7182  0.5250
    1SOL    MW4 8424   3.376   1.549   3.385 -0.1111  0.0592  0.1540
    1SOL     OW 8425   3.159   1.671   3.501 -0.7722  0.1656  0.2926
    1SOL    HW2 8426   3.166   1.750   3.446 -0.2154  1.3269  1.9912
    1SOL    HW3 8427   3.074   1.634   3.478 -0.2672  0.2728 -1.8207
    1SOL    MW4 8428   3.148   1.677   3.491 -0.6320  0.3328  0.2379
    1SOL     OW 8429   3.166   1.916   3.363 -0.0568 -0.1915 -0.1546
    1SOL    HW2 8430   3.097   1.966   3.408  0.5688  0.2153  0.3629
    1SOL    HW3 8431   3.246   1.941   3.408  0.2004 -2.1044  0.4926
    1SOL    MW4 8432   3.167   1.926   3.375  0.0596 -0.3902 -0.0010
    1SOL     OW 8433   3.394   2.015   3.476  0.1864  0.2080 -0.5707
    1SOL    HW2 8434   3.393   2.109   3.456  0.5416  0.6315  1.3631
    1SOL    HW3 8435   3.381   2.010   3.570  0.2016 -1.6952 -0.6578
    1SOL    MW4 8436   3.392   2.027   3.486  0.2348  0.0126 -0.3271
    1SOL     OW 8437   3.387   2.283   3.415  0.2006 -0.2738  0.0114
    1SOL    HW2 8438   3.460   2.340   3.439 -0.0078 -1.1803  3.0758
    1SOL    HW3 8439   3.309   2.330   3.446  0.0620 -2.3428  3.0681
    1SOL    MW4 8440   3.386   2.297   3.422  0.1550 -0.6664  0.8192
    1SOL     OW 8441   3.167   2.433   3.484 -0.2680  0.1203  0.0971
    1SOL    HW2 8442   3.162   2.521   3.448 -0.0897  0.2731  0.4453
    1SOL    HW3 8443   3.079   2.397   3.473 -0.2826  0.2659 -0.2398
    1SOL    MW4 8444   3.155   2.440   3.478 -0.2463  0.1597  0.0987
    1SOL     OW 8445   3.166   2.692   3.407  0.5442 -0.0945  0.2912
    1SOL    HW2 8446   3.251   2.735   3.418  0.4452  0.3282 -0.5891
    1SOL    HW3 8447   3.105   2.745   3.459  0.3266  1.1374 -1.1909
    1SOL    MW4 8448   3.169   2.705   3.416  0.5023  0.1237 -0.0205
    1SOL     OW 8449   3.396   2.825   3.476  0.3427 -0.0643 -0.4964
    1SOL    HW2 8450   3.399   2.818   3.571 -0.8325 -0.2707 -0.4666
    1SOL    HW3 8451   3.394   2.919   3.458 -0.3719 -0.0400 -0.2831
    1SOL    MW4 8452   3.396   2.837   3.486  0.0935 -0.0885 -0.4642
    1SOL     OW 8453   3.398   3.076   3.406  0.0251 -0.0401 -0.3560
    1SOL    HW2 8454   3.474   3.113   3.451  0.1278  0.1467 -0.6859
    1SOL    HW3 8455   3.323   3.127   3.439  0.0249 -0.2967  0.0522
    1SOL    MW4 8456   3.398   3.087   3.417  0.0386 -0.0494 -0.3457
    1SOL     OW 8457   3.167   3.217   3.497  0.1360 -0.2558 -0.6681
    1SOL    HW2 8458   3.151   3.305   3.462  0.0929 -0.9486 -2.3960
    1SOL    HW3 8459   3.091   3.166   3.469  0.1810 -0.8659  0.3088
    1SOL    MW4 8460   3.155   3.222   3.489  0.1364 -0.4277 -0.7672
    1SOL     OW 8461   3.165   3.470   3.395 -0.2787  0.2478 -0.2461
    1SOL    HW2 8462   3.090   3.511   3.439 -0.3206  1.1806 -1.1630
    1SOL    HW3 8463   3.155   3.494   3.303  0.3660 -0.8333 -0.6059
    1SOL    MW4 8464   3.154   3.479   3.389 -0.1993  0.2284 -0.4146
    1SOL     OW 8465   3.381   3.607   3.517  0.3485 -0.1298 -0.0475
    1SOL    HW2 8466   3.388   3.691   3.471 -1.1342  0.6670  1.1563
    1SOL    HW3 8467   3.303   3.565   3.480  1.2339 -1.1187 -0.8389
    1SOL    MW4 8468   3.372   3.612   3.506  0.2697 -0.1550  0.0069
    1SOL     OW 8469   3.366   3.850   3.375 -0.1295  0.0896 -0.1799
    1SOL    HW2 8470   3.447   3.892   3.405  0.0449 -0.6190  0.3297
    1SOL    HW3 8471   3.297   3.894   3.425 -0.0111  0.3154 -0.2141
    1SOL    MW4 8472   3.367   3.862   3.386 -0.0911  0.0260 -0.1171
    1SOL     OW 8473   3.167   4.006   3.505 -0.1602  0.3998 -0.5048
    1SOL    HW2 8474   3.157   4.026   3.598 -0.7678 -2.0815  0.0177
    1SOL    HW3 8475   3.157   4.090   3.460 -0.3604  1.5412  1.6402
    1SOL    MW4 8476   3.164   4.020   3.511 -0.2668  0.2232 -0.1528
    1SOL     OW 8477   3.131   4.246   3.376 -0.6084  0.0116 -0.3807
    1SOL    HW2 8478   3.198   4.304   3.412 -1.3025  0.5996 -0.0253
    1SOL    HW3 8479   3.048   4.282   3.408 -0.9875 -1.8384  0.7565
    1SOL    MW4 8480   3.129   4.259   3.385 -0.7498 -0.1550 -0.1836
    1SOL     OW 8481   3.315   4.402   3.482  0.0817  0.4496  0.2217
    1SOL    HW2 8482   3.330   4.424   3.574  0.6699 -0.1340  0.2628
    1SOL    HW3 8483   3.334   4.484   3.435  2.1622  0.0883  0.3879
    1SOL    MW4 8484   3.319   4.416   3.488  0.4337  0.3247  0.2489
    1SOL     OW 8485   3.826   4.634   3.405  0.2295 -0.0814 -0.3275
    1SOL    HW2 8486   3.749   4.684   3.432 -0.7863 -1.5211 -0.5318
    1SOL    HW3 8487   3.835   4.651   3.312  0.4008  0.3856 -0.2299
    1SOL    MW4 8488   3.817   4.643   3.397  0.1178 -0.2093 -0.3417
    1SOL     OW 8489   3.601   0.096   3.501  0.1269 -0.0263  0.2990
    1SOL    HW2 8490   3.590   0.185   3.469  1.0198  0.0812  0.2616
    1SOL    HW3 8491   3.520   0.051   3.478 -1.0734  1.2570  1.9437
    1SOL    MW4 8492   3.589   0.102   3.493  0.0863  0.1572  0.5112
    1SOL     OW 8493   3.551   0.370   3.401 -0.3129  0.3484  0.3581
    1SOL    HW2 8494   3.636   0.411   3.418  0.2886 -0.1116 -1.4760
    1SOL    HW3 8495   3.487   0.432   3.435  0.7247  1.0708  1.0263
    1SOL    MW4 8496   3.554   0.383   3.408 -0.0963  0.3830  0.2043
    1SOL     OW 8497   3.789   0.459   3.508  0.1614  0.1689  0.1390
    1SOL    HW2 8498   3.790   0.455   3.603  0.9632  1.3490  0.1801
    1SOL    HW3 8499   3.873   0.422   3.481  0.0784  0.1515 -0.1037
    1SOL    MW4 8500   3.800   0.453   3.517  0.2563  0.3223  0.1123
    1SOL     OW 8501   3.840   0.712   3.427 -0.3675  0.2396  0.4865
    1SOL    HW2 8502   3.925   0.732   3.466  0.8142 -0.5034 -1.6788
    1SOL    HW3 8503   3.814   0.629   3.467 -0.4438  0.8344  1.6985
    1SOL    MW4 8504   3.848   0.704   3.438 -0.2215  0.2200  0.3607
    1SOL     OW 8505   3.639   0.882   3.505 -0.2017  0.6408 -0.1494
    1SOL    HW2 8506   3.623   0.869   3.598  0.8978  1.8541  0.2267
    1SOL    HW3 8507   3.712   0.823   3.485  0.2443  1.1335  0.0028
    1SOL    MW4 8508   3.647   0.873   3.514  0.0021  0.8659 -0.0796
    1SOL     OW 8509   3.612   1.141   3.403 -0.3050 -0.4588 -0.1826
    1SOL    HW2 8510   3.608   1.049   3.429 -1.9554 -1.0286 -2.3237
    1SOL    HW3 8511   3.618   1.139   3.308 -0.5751  1.6464 -0.2748
    1SOL    MW4 8512   3.612   1.129   3.394 -0.5581 -0.2562 -0.4771
    1SOL     OW 8513   3.851   1.271   3.464  0.4092 -0.0362 -0.3764
    1SOL    HW2 8514   3.854   1.280   3.559  0.5148  1.7863 -0.5294
    1SOL    HW3 8515   3.767   1.230   3.446  0.6459 -0.9449  0.5303
    1SOL    MW4 8516   3.840   1.267   3.474  0.4544  0.0843 -0.2768
    1SOL     OW 8517   3.834   1.535   3.396 -0.1110  0.1615 -0.1876
    1SOL    HW2 8518   3.918   1.570   3.428 -0.5749 -0.1342  1.3996
    1SOL    HW3 8519   3.835   1.443   3.422 -0.4537 -0.1289 -1.1692
    1SOL    MW4 8520   3.845   1.528   3.403 -0.2172  0.0842 -0.1075
    1SOL     OW 8521   3.601   1.661   3.456  0.3787 -0.5411  0.3281
    1SOL    HW2 8522   3.609   1.749   3.417  1.4531 -0.2858  1.1296
    1SOL    HW3 8523   3.684   1.619   3.438 -0.0935 -1.3690  0.0515
    1SOL    MW4 8524   3.613   1.667   3.448  0.4585 -0.6167  0.3974
    1SOL     OW 8525   3.612   1.912   3.363 -0.1312 -0.0879 -0.3464
    1SOL    HW2 8526   3.687   1.963   3.394 -0.4203  0.8177 -1.1164
    1SOL    HW3 8527   3.535   1.959   3.396 -0.3614 -1.7789  1.6409
    1SOL    MW4 8528   3.611   1.925   3.371 -0.1998 -0.1915 -0.1857
    1SOL     OW 8529   3.825   2.075   3.476 -0.1404  0.2741  0.2235
    1SOL    HW2 8530   3.796   2.067   3.567  0.6009 -0.1687  0.4230
    1SOL    HW3 8531   3.899   2.016   3.469  0.9085  1.6034 -0.2082
    1SOL    MW4 8532   3.831   2.066   3.487  0.0961  0.3908  0.1929
    1SOL     OW 8533   3.848   2.317   3.319 -0.4389  0.2982  0.1019
    1SOL    HW2 8534   3.915   2.369   3.365  1.5059 -0.7956 -1.4321
    1SOL    HW3 8535   3.846   2.234   3.367 -0.3867  0.1736 -0.1138
    1SOL    MW4 8536   3.857   2.313   3.332 -0.1755  0.1373 -0.1290
    1SOL     OW 8537   3.630   2.442   3.441 -0.3413  0.7638  0.3166
    1SOL    HW2 8538   3.632   2.537   3.429 -0.0775  0.8842  1.2499
    1SOL    HW3 8539   3.705   2.410   3.391  0.4220  1.1931  1.1608
    1SOL    MW4 8540   3.640   2.451   3.433 -0.2058  0.8366  0.5510
    1SOL     OW 8541   3.635   2.712   3.371 -0.2042  0.1522  0.3324
    1SOL    HW2 8542   3.705   2.751   3.423  1.0247 -1.5653  0.0062
    1SOL    HW3 8543   3.555   2.741   3.414  0.6507  2.6766  0.3351
    1SOL    MW4 8544   3.634   2.721   3.384  0.0708  0.2587  0.2897
    1SOL     OW 8545   3.836   2.817   3.520 -0.2560  0.2281  0.1266
    1SOL    HW2 8546   3.824   2.828   3.615  0.0561  0.4307  0.1433
    1SOL    HW3 8547   3.819   2.904   3.484 -2.2661 -0.2714 -0.2006
    1SOL    MW4 8548   3.832   2.830   3.528 -0.4799  0.1891  0.0856
    1SOL     OW 8549   3.810   3.064   3.404 -0.0940  0.1119 -0.4913
    1SOL    HW2 8550   3.893   3.103   3.433  0.0395  1.1510 -2.2075
    1SOL    HW3 8551   3.822   3.050   3.310 -1.2644 -1.2930 -0.4436
    1SOL    MW4 8552   3.822   3.068   3.395 -0.2310  0.0637 -0.7114
    1SOL     OW 8553   3.600   3.192   3.550  0.3922 -0.3259  0.1447
    1SOL    HW2 8554   3.598   3.273   3.501 -0.0786 -1.5213 -1.8698
    1SOL    HW3 8555   3.685   3.153   3.529 -0.9245 -2.1696 -2.0125
    1SOL    MW4 8556   3.611   3.197   3.541  0.1564 -0.7269 -0.4055
    1SOL     OW 8557   3.598   3.431   3.398  0.5022  0.5594  0.1682
    1SOL    HW2 8558   3.538   3.504   3.411 -0.5853 -0.2559 -0.2247
    1SOL    HW3 8559   3.605   3.423   3.302 -0.8435 -1.0240  0.1806
    1SOL    MW4 8560   3.591   3.440   3.387  0.1810  0.2427  0.1180
    1SOL     OW 8561   3.797   3.609   3.483  0.3729  0.1171  0.0892
    1SOL    HW2 8562   3.805   3.607   3.579 -1.8458  2.0359  0.3457
    1SOL    HW3 8563   3.737   3.538   3.463  1.3673 -0.7278  0.0227
    1SOL    MW4 8564   3.790   3.599   3.493  0.2115  0.2592  0.1144
    1SOL     OW 8565   3.846   3.866   3.399 -0.1278  0.4518  0.1791
    1SOL    HW2 8566   3.762   3.907   3.418 -0.7544 -1.1349  0.8919
    1SOL    HW3 8567   3.836   3.775   3.427  2.2866  0.5590  1.5995
    1SOL    MW4 8568   3.834   3.859   3.405  0.1082  0.2565  0.4604
    1SOL     OW 8569   3.602   3.980   3.436 -0.0121  0.2600 -0.0408
    1SOL    HW2 8570   3.620   3.964   3.529  1.0967  0.7493 -0.1600
    1SOL    HW3 8571   3.565   4.068   3.435  1.9401  1.1219 -0.2502
    1SOL    MW4 8572   3.600   3.990   3.448  0.3920  0.4385 -0.0842
    1SOL     OW 8573   3.561   4.274   3.429  0.0732 -0.0396 -0.1647
    1SOL    HW2 8574   3.475   4.311   3.450 -0.3154 -0.7037 -0.5712
    1SOL    HW3 8575   3.565   4.278   3.333  0.4881 -0.0346 -0.1451
    1SOL    MW4 8576   3.550   4.280   3.419  0.0770 -0.1264 -0.2155
    1SOL     OW 8577   3.833   4.379   3.468 -0.1062 -0.2713 -0.3329
    1SOL    HW2 8578   3.749   4.332   3.462 -0.6919  0.6716  0.2123
    1SOL    HW3 8579   3.811   4.470   3.448  0.7799 -0.0098 -0.1415
    1SOL    MW4 8580   3.819   4.384   3.465 -0.0665 -0.1125 -0.2360
    1SOL     OW 8581   4.296   4.658   3.339 -0.1752  0.5463 -0.4016
    1SOL    HW2 8582   4.305   4.566   3.366  0.1433  1.1414  1.5789
    1SOL    HW3 8583   4.369   4.702   3.383 -1.0360  1.9634 -0.3977
    1SOL    MW4 8584   4.307   4.651   3.349 -0.2470  0.8125 -0.1400
    1SOL     OW 8585   4.062   0.088   3.483 -0.1363 -0.0970 -0.2167
    1SOL    HW2 8586   4.141   0.055   3.439  0.3503  2.0024 -0.9880
    1SOL    HW3 8587   3.991   0.035   3.447  0.3685  0.9251 -2.8953
    1SOL    MW4 8588   4.063   0.077   3.472 -0.0052  0.3149 -0.6719
    1SOL     OW 8589   4.025   0.338   3.382  0.4242  0.6026  0.1615
    1SOL    HW2 8590   4.029   0.246   3.409  2.8765  0.8608  0.8266
    1SOL    HW3 8591   4.007   0.334   3.288 -1.9286 -0.4657  0.6103
    1SOL    MW4 8592   4.023   0.325   3.373  0.4368  0.4957  0.3083
    1SOL     OW 8593   4.230   0.449   3.514  0.0228  0.1549  0.1957
    1SOL    HW2 8594   4.245   0.530   3.465  1.7498 -0.8945 -1.0723
    1SOL    HW3 8595   4.162   0.404   3.464  0.1663  0.1224  0.0290
    1SOL    MW4 8596   4.223   0.454   3.501  0.2694  0.0122  0.0067
    1SOL     OW 8597   4.281   0.701   3.367 -0.0045 -0.3787  0.0799
    1SOL    HW2 8598   4.363   0.744   3.393  0.0998  0.1513 -1.1293
    1SOL    HW3 8599   4.277   0.711   3.272 -0.6593 -1.8562 -0.0560
    1SOL    MW4 8600   4.291   0.708   3.358 -0.0768 -0.5037 -0.0975
    1SOL     OW 8601   4.089   0.852   3.502  0.3393 -0.5279  0.0221
    1SOL    HW2 8602   4.084   0.928   3.444  1.0954  0.4663  1.2337
    1SOL    HW3 8603   4.150   0.792   3.459 -0.9583 -0.8632 -1.3886
    1SOL    MW4 8604   4.096   0.854   3.489  0.2680 -0.4410 -0.0043
    1SOL     OW 8605   4.065   1.109   3.392  0.0406 -0.2198 -0.0366
    1SOL    HW2 8606   4.142   1.149   3.433  1.2221  0.3995 -2.7201
    1SOL    HW3 8607   3.991   1.160   3.424  0.9768  0.5416  0.9433
    1SOL    MW4 8608   4.065   1.121   3.401  0.3204 -0.0376 -0.2613
    1SOL     OW 8609   4.289   1.252   3.482 -0.3628 -0.0422 -0.1359
    1SOL    HW2 8610   4.286   1.344   3.454 -2.3518  0.0046  0.1293
    1SOL    HW3 8611   4.365   1.216   3.437 -1.1217  1.0763 -2.4000
    1SOL    MW4 8612   4.298   1.260   3.472 -0.7253  0.1115 -0.3994
    1SOL     OW 8613   4.318   1.524   3.428 -0.3975 -0.0264 -0.3555
    1SOL    HW2 8614   4.230   1.560   3.440 -0.7843 -0.4274 -1.8409
    1SOL    HW3 8615   4.331   1.524   3.333  1.2110  0.0193 -0.1525
    1SOL    MW4 8616   4.308   1.529   3.417 -0.2365 -0.0732 -0.5245
    1SOL     OW 8617   4.091   1.656   3.501  0.5779  0.5098  0.5233
    1SOL    HW2 8618   4.062   1.663   3.592 -0.7888 -1.3423  0.2643
    1SOL    HW3 8619   4.075   1.743   3.464 -0.5379  0.7672  1.5775
    1SOL    MW4 8620   4.085   1.668   3.508  0.2508  0.2993  0.6282
    1SOL     OW 8621   4.021   1.899   3.399 -0.1543  0.4644  0.6953
    1SOL    HW2 8622   4.100   1.951   3.419 -0.1399  0.7941 -0.1652
    1SOL    HW3 8623   4.021   1.893   3.303 -1.2015  0.4962  0.6930
    1SOL    MW4 8624   4.032   1.905   3.389 -0.2904  0.5121  0.5813
    1SOL     OW 8625   4.255   2.046   3.443  0.1880 -0.1151  0.1907
    1SOL    HW2 8626   4.259   2.141   3.432  0.7143 -0.1147  0.3397
    1SOL    HW3 8627   4.345   2.016   3.425 -0.4398 -0.8120 -1.9925
    1SOL    MW4 8628   4.268   2.054   3.439  0.1740 -0.2072 -0.0780
    1SOL     OW 8629   4.269   2.316   3.398  0.4081  0.4945 -0.0413
    1SOL    HW2 8630   4.187   2.362   3.419  0.6491  1.1384 -0.4646
    1SOL    HW3 8631   4.262   2.299   3.304 -0.2573 -1.5304  0.3651
    1SOL    MW4 8632   4.257   2.320   3.388  0.3519  0.3121 -0.0434
    1SOL     OW 8633   4.036   2.436   3.485 -0.4813 -0.3886 -0.2718
    1SOL    HW2 8634   4.029   2.437   3.581 -0.5145  0.2787 -0.2776
    1SOL    HW3 8635   4.054   2.527   3.462 -1.2683 -0.3989 -0.9536
    1SOL    MW4 8636   4.037   2.448   3.495 -0.5894 -0.3021 -0.3624
    1SOL     OW 8637   4.057   2.699   3.386 -0.2145 -0.1995 -0.1059
    1SOL    HW2 8638   4.134   2.748   3.417  0.0271 -1.8621  2.0177
    1SOL    HW3 8639   3.985   2.730   3.441 -0.4150 -0.9489  0.0562
    1SOL    MW4 8640   4.058   2.710   3.398 -0.2093 -0.5178  0.1955
    1SOL     OW 8641   4.276   2.851   3.466  0.3283 -0.0233 -0.0737
    1SOL    HW2 8642   4.273   2.864   3.561 -0.2807 -1.3118  0.0852
    1SOL    HW3 8643   4.355   2.799   3.452  0.3888  0.1221 -0.2731
    1SOL    MW4 8644   4.286   2.846   3.477  0.2551 -0.1743 -0.0789
    1SOL     OW 8645   4.290   3.140   3.394  0.0151  0.4276 -0.1943
    1SOL    HW2 8646   4.294   3.047   3.413  0.5024  0.7068  1.0908
    1SOL    HW3 8647   4.283   3.145   3.298  2.0739 -0.8598 -0.4371
    1SOL    MW4 8648   4.290   3.129   3.384  0.3510  0.2944 -0.0570
    1SOL     OW 8649   4.009   3.229   3.477 -0.3606  0.8350 -0.2833
    1SOL    HW2 8650   4.025   3.313   3.435  0.0512  0.3440 -1.1286
    1SOL    HW3 8651   4.094   3.186   3.478 -0.9473 -0.3933 -1.6981
    1SOL    MW4 8652   4.022   3.234   3.472 -0.3834  0.6082 -0.5817
    1SOL     OW 8653   4.042   3.499   3.378 -0.1399 -0.0324  0.5253
    1SOL    HW2 8654   4.113   3.550   3.416 -0.5837  1.2549 -0.2972
    1SOL    HW3 8655   3.962   3.539   3.413 -0.5313  0.7922 -1.2486
    1SOL    MW4 8656   4.041   3.511   3.387 -0.2503  0.2463  0.1826
    1SOL     OW 8657   4.309   3.607   3.491 -0.1296 -0.3185 -0.3070
    1SOL    HW2 8658   4.307   3.607   3.586  0.8414 -0.0665 -0.2786
    1SOL    HW3 8659   4.300   3.699   3.466  1.8984 -0.1103 -0.3785
    1SOL    MW4 8660   4.308   3.619   3.500  0.2661 -0.2580 -0.3126
    1SOL     OW 8661   4.290   3.846   3.381 -0.2511  0.0337  0.0418
    1SOL    HW2 8662   4.373   3.891   3.400  1.1236 -2.9199  1.2400
    1SOL    HW3 8663   4.286   3.844   3.285  0.8946  0.4609 -0.0253
    1SOL    MW4 8664   4.301   3.852   3.371  0.0815 -0.2995  0.1910
    1SOL     OW 8665   4.075   3.999   3.484 -0.3415  0.7116  0.3444
    1SOL    HW2 8666   4.144   3.949   3.439 -1.6246 -0.7129 -0.0816
    1SOL    HW3 8667   3.993   3.959   3.455 -1.3183  1.6385  1.7450
    1SOL    MW4 8668   4.073   3.987   3.474 -0.6399  0.6461  0.4730
    1SOL     OW 8669   4.073   4.269   3.391 -0.3675  0.2511 -0.2873
    1SOL    HW2 8670   4.064   4.176   3.415 -1.0773  0.2020 -0.7262
    1SOL    HW3 8671   3.995   4.310   3.428 -0.3088  0.5819 -0.5401
    1SOL    MW4 8672   4.062   4.262   3.399 -0.4530  0.2890 -0.3786
    1SOL     OW 8673   4.306   4.398   3.464 -0.1913  0.3847  0.2039
    1SOL    HW2 8674   4.305   4.402   3.560  0.1641  0.0048  0.2255
    1SOL    HW3 8675   4.229   4.344   3.443 -0.8724  1.3353  0.2241
    1SOL    MW4 8676   4.295   4.391   3.474 -0.2346  0.4601  0.2093
    1SOL     OW 8677   0.243   4.623   3.819 -0.2811  0.0591 -0.0600
    1SOL    HW2 8678   0.252   4.638   3.914 -0.9523  0.6733 -0.0869
    1SOL    HW3 8679   0.164   4.671   3.795 -0.4346 -0.5754 -0.8346
    1SOL    MW4 8680   0.234   4.631   3.829 -0.3899  0.0567 -0.1655
    1SOL     OW 8681   0.002   0.096   3.750 -0.1652 -0.0936  0.0733
    1SOL    HW2 8682   0.000   0.185   3.786  0.2608 -0.7128  1.6711
    1SOL    HW3 8683   0.005   0.109   3.655 -1.6001  1.5864  0.2226
    1SOL    MW4 8684   0.002   0.110   3.743 -0.2983  0.0464  0.3035
    1SOL     OW 8685   4.478   0.352   3.838 -0.2827 -0.2457  0.1729
    1SOL    HW2 8686   4.392   0.395   3.837 -0.3155 -0.3244 -0.9252
    1SOL    HW3 8687   4.537   0.416   3.799 -0.3188 -1.1482 -1.4072
    1SOL    MW4 8688   4.475   0.366   3.833 -0.2918 -0.3752 -0.1805
    1SOL     OW 8689   0.200   0.530   3.745 -0.2522 -0.2510  0.2224
    1SOL    HW2 8690   0.200   0.624   3.765  1.0993 -0.1231 -0.3254
    1SOL    HW3 8691   0.198   0.527   3.649 -1.1077 -0.8014  0.2532
    1SOL    MW4 8692   0.200   0.542   3.735 -0.1867 -0.3067  0.1543
    1SOL     OW 8693   0.232   0.805   3.788  0.0900  0.1786 -0.3410
    1SOL    HW2 8694   0.225   0.774   3.879  0.3023 -1.1082 -0.7459
    1SOL    HW3 8695   0.142   0.823   3.762 -0.0988 -0.6831 -0.2915
    1SOL    MW4 8696   0.220   0.803   3.797  0.0931 -0.1049 -0.3877
    1SOL     OW 8697   4.470   0.889   3.722  0.0765 -0.1409  0.2032
    1SOL    HW2 8698   4.397   0.851   3.771 -0.2116  0.8884  0.5670
    1SOL    HW3 8699   4.486   0.974   3.763 -0.0325  0.6477 -1.3475
    1SOL    MW4 8700   4.463   0.895   3.734  0.0234  0.0990  0.0465
    1SOL     OW 8701   0.027   1.136   3.846  0.2122  0.0431  0.0123
    1SOL    HW2 8702  -0.050   1.178   3.805 -0.4122 -1.4500 -0.3881
    1SOL    HW3 8703   0.008   1.139   3.940 -0.1827 -0.0162 -0.0619
    1SOL    MW4 8704   0.014   1.142   3.853  0.0776 -0.1619 -0.0505
    1SOL     OW 8705   0.207   1.307   3.723  0.2075 -0.1878 -0.0503
    1SOL    HW2 8706   0.244   1.374   3.780 -1.4658  0.5227  0.2363
    1SOL    HW3 8707   0.150   1.256   3.780 -0.2215 -0.4892 -0.7434
    1SOL    MW4 8708   0.205   1.309   3.738 -0.0699 -0.1340 -0.1037
    1SOL     OW 8709   0.309   1.528   3.840 -0.1499 -0.3967  0.3481
    1SOL    HW2 8710   0.293   1.511   3.933 -0.0432 -1.5630  0.1619
    1SOL    HW3 8711   0.223   1.554   3.805 -0.3897 -0.8787  0.5755
    1SOL    MW4 8712   0.295   1.529   3.848 -0.1675 -0.6140  0.3536
    1SOL     OW 8713   0.019   1.606   3.813  0.5027 -0.4027  0.7582
    1SOL    HW2 8714   0.020   1.701   3.827 -0.7953 -0.0229 -1.3952
    1SOL    HW3 8715   0.003   1.596   3.719 -0.5678 -2.7624  1.1389
    1SOL    MW4 8716   0.017   1.617   3.802  0.1902 -0.6639  0.5240
    1SOL     OW 8717   0.013   1.894   3.857 -0.5185 -0.4014 -0.7316
    1SOL    HW2 8718   0.007   1.902   3.952  1.2792 -1.7605 -0.4979
    1SOL    HW3 8719  -0.066   1.938   3.825 -0.7714  0.7143  1.3430
    1SOL    MW4 8720   0.001   1.901   3.865 -0.3147 -0.4336 -0.4272
    1SOL     OW 8721   0.230   2.023   3.726  0.0086 -0.2911  0.1136
    1SOL    HW2 8722   0.226   2.110   3.767 -1.2548  0.3888 -1.4189
    1SOL    HW3 8723   0.150   1.979   3.755  0.2367 -0.6377  0.2164
    1SOL    MW4 8724   0.219   2.029   3.735 -0.1280 -0.2472 -0.0751
    1SOL     OW 8725   0.231   2.278   3.849  0.1992 -0.0278  0.2660
    1SOL    HW2 8726   0.229   2.288   3.944  1.3321  1.0466  0.2040
    1SOL    HW3 8727   0.159   2.333   3.817  0.0979 -0.0388  0.4794
    1SOL    MW4 8728   0.221   2.287   3.857  0.3353  0.1125  0.2861
    1SOL     OW 8729   4.479   2.431   3.778 -0.3028  0.0914 -0.2787
    1SOL    HW2 8730   4.397   2.394   3.810 -0.2223 -0.4692 -0.7083
    1SOL    HW3 8731   4.486   2.516   3.821 -0.8090 -0.1223  0.2239
    1SOL    MW4 8732   4.469   2.437   3.788 -0.3591 -0.0107 -0.2694
    1SOL     OW 8733   4.477   2.712   3.863  0.4568 -0.2596 -0.3798
    1SOL    HW2 8734   4.476   2.738   3.956  1.4916 -0.6822 -0.2504
    1SOL    HW3 8735   4.553   2.757   3.826  0.4196 -0.6061 -0.8789
    1SOL    MW4 8736   4.487   2.721   3.871  0.5884 -0.3612 -0.4287
    1SOL     OW 8737   0.211   2.830   3.759  0.0287 -0.0521 -0.1959
    1SOL    HW2 8738   0.286   2.790   3.801  1.1626  1.1416 -1.0435
    1SOL    HW3 8739   0.211   2.793   3.670 -0.4993 -0.1918 -0.1395
    1SOL    MW4 8740   0.221   2.820   3.753  0.1086  0.0865 -0.3004
    1SOL     OW 8741   0.224   3.115   3.823  0.1248 -0.5247 -0.4546
    1SOL    HW2 8742   0.249   3.115   3.915 -0.5153  0.3914 -0.2790
    1SOL    HW3 8743   0.238   3.025   3.794  2.0822 -0.4055  0.0594
    1SOL    MW4 8744   0.229   3.103   3.831  0.2986 -0.3881 -0.3638
    1SOL     OW 8745   4.470   3.239   3.781  0.7449  0.4698  0.4375
    1SOL    HW2 8746   4.552   3.196   3.807  0.7927  0.1686 -0.1885
    1SOL    HW3 8747   4.486   3.267   3.691  0.6817  1.7513  0.8191
    1SOL    MW4 8748   4.483   3.237   3.773  0.7429  0.5991  0.4053
    1SOL     OW 8749   4.476   3.479   3.906 -0.1422  0.0481  0.2101
    1SOL    HW2 8750   4.554   3.517   3.865 -0.4182 -0.6846 -1.0191
    1SOL    HW3 8751   4.477   3.388   3.878 -1.8629  0.2315 -0.4615
    1SOL    MW4 8752   4.487   3.472   3.897 -0.4057 -0.0248 -0.0408
    1SOL     OW 8753   0.215   3.589   3.755  0.3465 -0.5816  0.0110
    1SOL    HW2 8754   0.295   3.560   3.798  1.1089  0.2497 -0.8256
    1SOL    HW3 8755   0.211   3.683   3.773  0.3507 -0.3394 -1.2035
    1SOL    MW4 8756   0.225   3.598   3.763  0.4476 -0.4401 -0.2596
    1SOL     OW 8757   0.192   3.843   3.838  0.0731 -0.4353 -0.5530
    1SOL    HW2 8758   0.270   3.885   3.801 -0.6113  1.6724  0.3102
    1SOL    HW3 8759   0.199   3.860   3.932 -1.6051  0.1002 -0.5100
    1SOL    MW4 8760   0.204   3.851   3.846 -0.2386 -0.0863 -0.4332
    1SOL     OW 8761   4.475   4.002   3.780 -0.4300  0.1345  0.0262
    1SOL    HW2 8762   4.403   3.943   3.804 -0.2076 -1.5397 -3.1535
    1SOL    HW3 8763   4.554   3.955   3.805 -0.3132 -0.0166 -0.6252
    1SOL    MW4 8764   4.476   3.988   3.787 -0.3858 -0.1063 -0.4792
    1SOL     OW 8765   4.480   4.271   3.884  0.6776 -0.0760 -0.0853
    1SOL    HW2 8766   4.568   4.294   3.852  0.6049 -1.1971 -1.1269
    1SOL    HW3 8767   4.462   4.186   3.845 -0.3670 -0.4334  1.1575
    1SOL    MW4 8768   4.490   4.263   3.874  0.5302 -0.2713 -0.0587
    1SOL     OW 8769   0.221   4.360   3.758 -0.4662  0.2730  0.0650
    1SOL    HW2 8770   0.297   4.318   3.798 -0.7327 -0.5777 -0.2997
    1SOL    HW3 8771   0.226   4.451   3.786  1.5169  0.5701 -1.2121
    1SOL    MW4 8772   0.232   4.366   3.767 -0.2397  0.1993 -0.1519
    1SOL     OW 8773   0.646   0.006   3.821 -0.0848 -0.1498  0.2826
    1SOL    HW2 8774   0.630  -0.089   3.822 -1.5682  0.0868 -0.0615
    1SOL    HW3 8775   0.579   0.041   3.763 -0.2497  1.2507  1.2905
    1SOL    MW4 8776   0.635  -0.002   3.814 -0.3022  0.0663  0.3703
    1SOL     OW 8777   0.417   0.134   3.714  0.1151 -0.0313 -0.3217
    1SOL    HW2 8778   0.404   0.217   3.759  2.1230 -0.2215  0.6685
    1SOL    HW3 8779   0.352   0.075   3.753  0.7449  0.2563  1.2092
    1SOL    MW4 8780   0.407   0.137   3.725  0.4631 -0.0185  0.0110
    1SOL     OW 8781   0.427   0.394   3.842  0.1584 -0.9687  0.1982
    1SOL    HW2 8782   0.498   0.452   3.814  0.1989 -1.1680 -0.1143
    1SOL    HW3 8783   0.347   0.441   3.819  0.1118  0.9554  3.9084
    1SOL    MW4 8784   0.426   0.408   3.836  0.1576 -0.7412  0.6464
    1SOL     OW 8785   0.659   0.547   3.789 -0.0031 -0.0534 -0.2525
    1SOL    HW2 8786   0.729   0.491   3.821 -1.6646 -1.3567  1.2132
    1SOL    HW3 8787   0.672   0.630   3.833 -0.1475 -0.7120  1.0607
    1SOL    MW4 8788   0.670   0.550   3.799 -0.2414 -0.3123  0.1142
    1SOL     OW 8789   0.661   0.797   3.932 -0.0600  0.4293  0.3312
    1SOL    HW2 8790   0.741   0.842   3.907 -0.3260  0.2673 -0.8217
    1SOL    HW3 8791   0.593   0.835   3.876 -0.5437 -0.4074  0.3456
    1SOL    MW4 8792   0.663   0.808   3.922 -0.1588  0.2975  0.1810
    1SOL     OW 8793   0.482   0.920   3.733  0.0974  0.2832 -0.0293
    1SOL    HW2 8794   0.474   1.014   3.749  0.6964  0.1839  0.8917
    1SOL    HW3 8795   0.398   0.884   3.761  0.1815  0.4395  0.4337
    1SOL    MW4 8796   0.470   0.928   3.739  0.1875  0.2907  0.1535
    1SOL     OW 8797   0.422   1.166   3.830 -0.4106 -0.3259  0.0879
    1SOL    HW2 8798   0.497   1.214   3.795  0.3884 -1.6572 -0.0558
    1SOL    HW3 8799   0.345   1.213   3.796  0.3435 -0.6167 -2.1061
    1SOL    MW4 8800   0.421   1.179   3.821 -0.2057 -0.5398 -0.2205
    1SOL     OW 8801   0.622   1.304   3.734 -0.5234 -0.1635 -0.1598
    1SOL    HW2 8802   0.697   1.275   3.786 -1.1003 -1.8013 -0.2446
    1SOL    HW3 8803   0.650   1.293   3.643  0.3360  2.3287 -0.2495
    1SOL    MW4 8804   0.635   1.299   3.729 -0.4861 -0.0508 -0.1829
    1SOL     OW 8805   0.715   1.564   3.882 -0.2581  0.0381  0.2495
    1SOL    HW2 8806   0.789   1.605   3.837 -0.6504  0.9124  0.4104
    1SOL    HW3 8807   0.690   1.491   3.824 -0.1145  0.5415 -0.4529
    1SOL    MW4 8808   0.722   1.560   3.868 -0.2909  0.2198  0.1779
    1SOL     OW 8809   0.508   1.713   3.765  0.1634  0.0213  0.0963
    1SOL    HW2 8810   0.587   1.673   3.802  0.0877  1.1854  1.5902
    1SOL    HW3 8811   0.438   1.652   3.789  0.2513  0.2872  1.0470
    1SOL    MW4 8812   0.509   1.700   3.773  0.1650  0.2100  0.4189
    1SOL     OW 8813   0.461   1.945   3.888 -0.4068 -0.4833 -0.2057
    1SOL    HW2 8814   0.491   1.859   3.857  0.9341 -0.3767  0.7554
    1SOL    HW3 8815   0.380   1.961   3.839 -0.8719 -2.4574 -0.1215
    1SOL    MW4 8816   0.454   1.936   3.877 -0.2913 -0.7297 -0.0677
    1SOL     OW 8817   0.669   2.096   3.764  0.3073 -0.1416 -0.3566
    1SOL    HW2 8818   0.663   2.185   3.799 -0.4082  0.0091 -0.8394
    1SOL    HW3 8819   0.598   2.048   3.807  1.5582 -0.8581  0.9520
    1SOL    MW4 8820   0.658   2.102   3.774  0.3779 -0.2162 -0.2475
    1SOL     OW 8821   0.690   2.355   3.842 -0.0047  0.2165 -0.3774
    1SOL    HW2 8822   0.760   2.408   3.805  0.3004 -1.3915 -2.2198
    1SOL    HW3 8823   0.610   2.401   3.819  0.3639  1.2439  0.3615
    1SOL    MW4 8824   0.689   2.368   3.834  0.0842  0.1400 -0.5231
    1SOL     OW 8825   0.456   2.443   3.765 -0.1325 -0.2098 -0.3988
    1SOL    HW2 8826   0.380   2.397   3.799 -0.8552 -0.1966 -1.9355
    1SOL    HW3 8827   0.442   2.445   3.670  1.9609 -0.5403 -0.7383
    1SOL    MW4 8828   0.444   2.437   3.757  0.0484 -0.2518 -0.6464
    1SOL     OW 8829   0.436   2.695   3.872 -0.6719  0.1655 -0.1947
    1SOL    HW2 8830   0.502   2.748   3.827 -0.6488 -0.6278 -1.1111
    1SOL    HW3 8831   0.447   2.607   3.835 -1.8340 -0.1063  0.0995
    1SOL    MW4 8832   0.446   2.690   3.862 -0.8222  0.0250 -0.2768
    1SOL     OW 8833   0.642   2.849   3.742  0.3249 -0.2252 -0.0882
    1SOL    HW2 8834   0.726   2.822   3.778  0.8521 -0.5256 -1.5431
    1SOL    HW3 8835   0.658   2.865   3.649 -1.1660 -0.0485 -0.3416
    1SOL    MW4 8836   0.655   2.848   3.735  0.1978 -0.2418 -0.3135
    1SOL     OW 8837   0.673   3.106   3.837 -0.1854  0.0749  0.2926
    1SOL    HW2 8838   0.687   3.101   3.932 -1.2302 -0.4129  0.4284
    1SOL    HW3 8839   0.648   3.017   3.812 -2.7839  0.8347  0.0411
    1SOL    MW4 8840   0.672   3.094   3.846 -0.6661  0.1106  0.2773
    1SOL     OW 8841   0.463   3.257   3.750 -0.6046 -0.6318 -0.3034
    1SOL    HW2 8842   0.536   3.205   3.783 -0.3538  0.3980  0.7901
    1SOL    HW3 8843   0.385   3.210   3.780 -0.3791 -0.4613  0.5557
    1SOL    MW4 8844   0.462   3.244   3.759 -0.5417 -0.4735 -0.0460
    1SOL     OW 8845   0.431   3.503   3.898 -0.0794  0.2543 -0.1563
    1SOL    HW2 8846   0.496   3.561   3.859 -0.3471  0.9384  0.4075
    1SOL    HW3 8847   0.449   3.417   3.859 -0.0369  0.8221 -1.4195
    1SOL    MW4 8848   0.442   3.499   3.887 -0.1091  0.4194 -0.2487
    1SOL     OW 8849   0.652   3.656   3.793  0.1507  0.0155  0.4520
    1SOL    HW2 8850   0.671   3.748   3.811  2.0105 -0.0646 -0.9009
    1SOL    HW3 8851   0.647   3.651   3.698  1.0811 -1.4571  0.4626
    1SOL    MW4 8852   0.654   3.667   3.783  0.5188 -0.1893  0.2747
    1SOL     OW 8853   0.680   3.919   3.857  0.2732 -0.3094  0.5867
    1SOL    HW2 8854   0.722   3.897   3.940  0.6076 -2.3427 -0.0795
    1SOL    HW3 8855   0.745   3.971   3.810  1.2185 -1.6038  0.4431
    1SOL    MW4 8856   0.694   3.923   3.862  0.4421 -0.7484  0.4795
    1SOL     OW 8857   0.432   3.965   3.733 -0.2334 -0.4364 -0.0448
    1SOL    HW2 8858   0.499   3.940   3.797  0.6672  0.3309 -0.6793
    1SOL    HW3 8859   0.481   3.986   3.653 -1.3247 -1.2150 -0.9507
    1SOL    MW4 8860   0.447   3.964   3.731 -0.2586 -0.4380 -0.2482
    1SOL     OW 8861   0.435   4.220   3.855  0.1832 -0.3192 -0.1827
    1SOL    HW2 8862   0.519   4.262   3.836 -1.1742  0.9107 -4.0040
    1SOL    HW3 8863   0.435   4.141   3.800 -1.3683 -0.0268 -0.6203
    1SOL    MW4 8864   0.446   4.215   3.845 -0.2006 -0.1183 -0.7448
    1SOL     OW 8865   0.659   4.397   3.779 -0.5435  0.1745 -0.4994
    1SOL    HW2 8866   0.745   4.363   3.803 -0.3443  1.3781  0.5512
    1SOL    HW3 8867   0.652   4.382   3.685  0.0109 -1.6864 -0.2486
    1SOL    MW4 8868   0.669   4.391   3.770 -0.4441  0.0877 -0.3276
    1SOL     OW 8869   1.082   0.010   3.850  0.4394  0.1757  0.3469
    1SOL    HW2 8870   1.147   0.075   3.822 -0.0713  0.6348  0.2329
    1SOL    HW3 8871   1.120  -0.074   3.823  0.3468  0.5402 -0.9655
    1SOL    MW4 8872   1.096   0.008   3.843  0.3597  0.2843  0.1588
    1SOL     OW 8873   0.862   0.122   3.723 -0.0485  0.3499  0.1644
    1SOL    HW2 8874   0.940   0.090   3.768 -0.1227  2.3779  1.7924
    1SOL    HW3 8875   0.789   0.077   3.765  0.0953 -0.0605 -0.0214
    1SOL    MW4 8876   0.863   0.112   3.734 -0.0392  0.5633  0.3548
    1SOL     OW 8877   0.872   0.371   3.856 -0.0512  0.4843  0.6376
    1SOL    HW2 8878   0.867   0.351   3.950  2.3884  0.5739  0.8075
    1SOL    HW3 8879   0.881   0.286   3.814  0.2767  0.5477  0.5826
    1SOL    MW4 8880   0.872   0.357   3.863  0.3140  0.5045  0.6528
    1SOL     OW 8881   1.064   0.541   3.747 -0.3081 -0.3012  0.1456
    1SOL    HW2 8882   1.138   0.501   3.792 -0.0444 -0.3405 -0.3240
    1SOL    HW3 8883   0.988   0.493   3.778 -0.0011 -1.1011 -0.3450
    1SOL    MW4 8884   1.064   0.530   3.757 -0.2328 -0.4119  0.0188
    1SOL     OW 8885   1.113   0.779   3.895  0.1719  0.0964 -0.0056
    1SOL    HW2 8886   1.095   0.767   3.989  0.1791 -0.4140 -0.0711
    1SOL    HW3 8887   1.094   0.694   3.856 -1.1278  0.6796 -0.6678
    1SOL    MW4 8888   1.108   0.766   3.903  0.0013  0.1060 -0.1018
    1SOL     OW 8889   0.890   0.903   3.785 -0.1265 -0.0963 -0.2619
    1SOL    HW2 8890   0.976   0.871   3.813 -0.2729 -0.5101 -0.2848
    1SOL    HW3 8891   0.894   0.902   3.689  0.1089  0.6072 -0.2650
    1SOL    MW4 8892   0.902   0.899   3.776 -0.1147 -0.0581 -0.2651
    1SOL     OW 8893   0.860   1.165   3.851  0.0739 -0.0999  0.1336
    1SOL    HW2 8894   0.864   1.171   3.946 -0.4128  0.3127  0.1300
    1SOL    HW3 8895   0.872   1.072   3.831  1.6334  0.0050  0.5212
    1SOL    MW4 8896   0.862   1.154   3.861  0.2155 -0.0316  0.1843
    1SOL     OW 8897   1.128   1.302   3.809  0.0494  0.4875 -0.4879
    1SOL    HW2 8898   1.124   1.395   3.834  0.3078  0.4744 -0.3926
    1SOL    HW3 8899   1.045   1.266   3.838  0.3639  0.4649  0.4016
    1SOL    MW4 8900   1.117   1.310   3.816  0.1251  0.4829 -0.3581
    1SOL     OW 8901   1.112   1.571   3.882 -0.5804 -0.5348  0.2261
    1SOL    HW2 8902   1.089   1.577   3.974 -0.4270 -0.4728  0.2600
    1SOL    HW3 8903   1.190   1.625   3.873 -1.5608  0.8296 -0.2720
    1SOL    MW4 8904   1.119   1.579   3.893 -0.6896 -0.3465  0.1647
    1SOL     OW 8905   0.900   1.683   3.726 -0.4250 -0.0323  0.5423
    1SOL    HW2 8906   0.985   1.667   3.766  0.2758  0.9885 -0.5036
    1SOL    HW3 8907   0.919   1.698   3.634 -1.7297  0.2831  0.3102
    1SOL    MW4 8908   0.914   1.683   3.719 -0.5047  0.1440  0.3738
    1SOL     OW 8909   0.901   1.961   3.774  0.1181  0.1739  0.1275
    1SOL    HW2 8910   0.898   1.867   3.758 -0.8746 -0.2673  2.5625
    1SOL    HW3 8911   0.816   1.993   3.743  0.5580  0.3176 -0.9394
    1SOL    MW4 8912   0.889   1.953   3.768  0.0451  0.1346  0.3080
    1SOL     OW 8913   1.136   2.105   3.742  0.7280  0.5014  0.2432
    1SOL    HW2 8914   1.056   2.055   3.762  0.7012  0.3046 -0.3425
    1SOL    HW3 8915   1.146   2.097   3.647  1.1568  0.9646  0.2472
    1SOL    MW4 8916   1.126   2.097   3.732  0.7809  0.5367  0.1664
    1SOL     OW 8917   1.104   2.367   3.866  0.1140 -0.1943 -0.0741
    1SOL    HW2 8918   1.103   2.352   3.960 -0.6296  0.1613 -0.0197
    1SOL    HW3 8919   1.087   2.281   3.827 -0.6359 -0.1413  0.1409
    1SOL    MW4 8920   1.102   2.354   3.873 -0.0831 -0.1404 -0.0384
    1SOL     OW 8921   0.901   2.542   3.743  0.2701 -0.1059 -0.3345
    1SOL    HW2 8922   0.881   2.625   3.787  0.2156 -0.3964  0.1953
    1SOL    HW3 8923   0.970   2.503   3.797 -1.4027 -1.5339  0.8205
    1SOL    MW4 8924   0.907   2.548   3.756  0.0423 -0.3328 -0.1123
    1SOL     OW 8925   0.875   2.776   3.861  0.0261  0.2840 -0.0901
    1SOL    HW2 8926   0.896   2.758   3.952 -0.2924 -0.6700 -0.1984
    1SOL    HW3 8927   0.955   2.812   3.824  1.0497 -1.9382 -0.1237
    1SOL    MW4 8928   0.888   2.778   3.868  0.1192 -0.1347 -0.1090
    1SOL     OW 8929   1.115   2.864   3.774  0.4269 -0.1780  0.2908
    1SOL    HW2 8930   1.177   2.819   3.831  0.3117 -0.1971  0.4012
    1SOL    HW3 8931   1.108   2.952   3.810  1.9709  0.4776 -0.9328
    1SOL    MW4 8932   1.123   2.870   3.786  0.6154 -0.0942  0.1440
    1SOL     OW 8933   1.099   3.110   3.907 -0.2188  0.7313  0.0135
    1SOL    HW2 8934   1.183   3.133   3.867 -0.2287  0.4695 -0.1602
    1SOL    HW3 8935   1.037   3.173   3.870  0.2275  2.1388  1.5583
    1SOL    MW4 8936   1.102   3.121   3.897 -0.1613  0.8824  0.1945
    1SOL     OW 8937   0.893   3.252   3.781 -0.0876 -0.3259  0.1950
    1SOL    HW2 8938   0.823   3.190   3.800 -0.6148 -0.1333 -1.0625
    1SOL    HW3 8939   0.906   3.246   3.686  0.3992  0.9047  0.1688
    1SOL    MW4 8940   0.886   3.243   3.771 -0.0930 -0.1380  0.0253
    1SOL     OW 8941   0.872   3.511   3.879  0.0802  0.3621  0.2345
    1SOL    HW2 8942   0.867   3.421   3.848  0.0556 -0.1448  1.6442
    1SOL    HW3 8943   0.788   3.550   3.857  0.0512  0.0118 -0.2759
    1SOL    MW4 8944   0.861   3.504   3.872  0.0730  0.2489  0.3531
    1SOL     OW 8945   1.080   3.658   3.758  0.5895  0.0987  0.3747
    1SOL    HW2 8946   1.071   3.747   3.791  0.4849 -0.1988  1.1628
    1SOL    HW3 8947   1.009   3.610   3.800  0.0334 -0.1425 -0.8177
    1SOL    MW4 8948   1.069   3.663   3.768  0.5025  0.0274  0.3211
    1SOL     OW 8949   1.070   3.915   3.867  0.0370 -0.0112  0.6490
    1SOL    HW2 8950   1.049   3.930   3.959 -1.3691  0.3908  0.2860
    1SOL    HW3 8951   1.161   3.942   3.858  0.4022 -0.7265  2.0693
    1SOL    MW4 8952   1.079   3.921   3.878 -0.1003 -0.0525  0.7885
    1SOL     OW 8953   0.892   4.037   3.700 -0.0211  0.3208 -0.3509
    1SOL    HW2 8954   0.963   3.990   3.744  0.4058  0.6980 -0.6273
    1SOL    HW3 8955   0.909   4.024   3.607  0.3846  1.4309 -0.4369
    1SOL    MW4 8956   0.904   4.029   3.693  0.0888  0.5174 -0.3989
    1SOL     OW 8957   0.910   4.278   3.833  0.2722  0.3452 -0.0845
    1SOL    HW2 8958   0.909   4.255   3.926  0.1767  0.6775 -0.0038
    1SOL    HW3 8959   0.922   4.194   3.788  0.3981  0.1932  0.2294
    1SOL    MW4 8960   0.912   4.264   3.840  0.2762  0.3686 -0.0324
    1SOL     OW 8961   1.128   4.419   3.758  0.2547  0.0565 -0.5241
    1SOL    HW2 8962   1.047   4.379   3.788  0.1435  0.3976 -0.3708
    1SOL    HW3 8963   1.125   4.411   3.663  0.9013 -1.5885 -0.4194
    1SOL    MW4 8964   1.117   4.413   3.749  0.3253 -0.1159 -0.4904
    1SOL     OW 8965   1.533   0.040   3.865  0.4863 -0.0955 -0.1781
    1SOL    HW2 8966   1.528   0.021   3.959 -1.9963  0.8523 -0.0689
    1SOL    HW3 8967   1.533  -0.046   3.824 -1.5431 -0.5250  0.6188
    1SOL    MW4 8968   1.532   0.026   3.872 -0.1090 -0.0272 -0.0584
    1SOL     OW 8969   1.299   0.182   3.770 -0.9942  0.0826  0.7105
    1SOL    HW2 8970   1.306   0.274   3.795 -1.5960  0.2619  0.2420
    1SOL    HW3 8971   1.376   0.141   3.808  0.2970  1.1489 -0.6844
    1SOL    MW4 8972   1.310   0.189   3.778 -0.9032  0.2469  0.4644
    1SOL     OW 8973   1.295   0.438   3.862 -0.0729  0.3020 -0.6959
    1SOL    HW2 8974   1.294   0.421   3.956  0.7564  0.5533 -0.6408
    1SOL    HW3 8975   1.381   0.476   3.845  0.3516 -1.0807 -1.7867
    1SOL    MW4 8976   1.306   0.441   3.872  0.0926  0.1527 -0.8326
    1SOL     OW 8977   1.547   0.523   3.809 -0.2362  0.1394  0.2683
    1SOL    HW2 8978   1.618   0.461   3.829 -0.2640  0.3113  0.9127
    1SOL    HW3 8979   1.578   0.607   3.844 -0.8460  0.1697  0.7342
    1SOL    MW4 8980   1.561   0.526   3.816 -0.3203  0.1661  0.4148
    1SOL     OW 8981   1.578   0.772   3.896  0.0042 -0.0421  0.2375
    1SOL    HW2 8982   1.648   0.832   3.870  0.2164 -0.9617 -1.4133
    1SOL    HW3 8983   1.501   0.803   3.848 -0.4656  0.3274  1.2228
    1SOL    MW4 8984   1.578   0.784   3.886 -0.0298 -0.1146  0.1495
    1SOL     OW 8985   1.346   0.870   3.780 -0.4982  0.3328  0.3658
    1SOL    HW2 8986   1.363   0.956   3.817 -0.1160  0.3499  0.1581
    1SOL    HW3 8987   1.281   0.831   3.837 -0.5470  0.6956  0.5560
    1SOL    MW4 8988   1.340   0.876   3.792 -0.4542  0.3829  0.3636
    1SOL     OW 8989   1.365   1.154   3.858 -0.0792 -0.0577 -0.3444
    1SOL    HW2 8990   1.440   1.210   3.838  0.6969 -1.1382 -0.4954
    1SOL    HW3 8991   1.290   1.202   3.824  0.4678  1.3216  0.3554
    1SOL    MW4 8992   1.365   1.167   3.850  0.0952 -0.0184 -0.2718
    1SOL     OW 8993   1.560   1.345   3.805  0.1248  0.3248 -0.0335
    1SOL    HW2 8994   1.636   1.293   3.831 -0.5801 -0.6870  0.0512
    1SOL    HW3 8995   1.578   1.433   3.837  1.3214  0.1170 -0.1399
    1SOL    MW4 8996   1.572   1.349   3.813  0.1897  0.1639 -0.0365
    1SOL     OW 8997   1.590   1.617   3.867 -0.5084  0.1893  0.3803
    1SOL    HW2 8998   1.625   1.656   3.947 -0.3677 -0.6810  0.7482
    1SOL    HW3 8999   1.643   1.654   3.797  0.8164 -0.7437  0.8906
    1SOL    MW4 9000   1.601   1.627   3.868 -0.3151 -0.0485  0.4961
    1SOL     OW 9001   1.366   1.738   3.774  0.1616 -0.4057  0.4052
    1SOL    HW2 9002   1.359   1.832   3.794  2.3597 -0.2662  0.5939
    1SOL    HW3 9003   1.433   1.705   3.834 -0.9605 -2.2242  0.6882
    1SOL    MW4 9004   1.374   1.746   3.784  0.3035 -0.6273  0.4675
    1SOL     OW 9005   1.360   1.998   3.862  0.1563 -0.1223  0.0787
    1SOL    HW2 9006   1.347   1.978   3.955 -1.3721 -0.8389 -0.2664
    1SOL    HW3 9007   1.274   2.028   3.832 -0.3670 -3.3814 -1.9590
    1SOL    MW4 9008   1.347   2.000   3.870 -0.1144 -0.6468 -0.2358
    1SOL     OW 9009   1.572   2.113   3.750 -0.1405 -0.5633 -0.4031
    1SOL    HW2 9010   1.490   2.087   3.792 -0.2406 -0.5242 -0.5736
    1SOL    HW3 9011   1.561   2.087   3.659 -1.5099  2.8888 -1.2922
    1SOL    MW4 9012   1.560   2.106   3.744 -0.3343 -0.1025 -0.5429
    1SOL     OW 9013   1.576   2.355   3.891  0.1179 -0.0688  0.0736
    1SOL    HW2 9014   1.586   2.334   3.984 -1.1305  0.6437  0.3783
    1SOL    HW3 9015   1.588   2.271   3.847 -1.0144 -0.7451  1.0059
    1SOL    MW4 9016   1.579   2.341   3.898 -0.1962 -0.0639  0.2367
    1SOL     OW 9017   1.336   2.462   3.770 -0.2244 -0.2139  0.0021
    1SOL    HW2 9018   1.406   2.414   3.814 -1.0713 -0.3732  1.2169
    1SOL    HW3 9019   1.256   2.419   3.799 -0.9244  1.1102  0.0796
    1SOL    MW4 9020   1.335   2.450   3.780 -0.4284 -0.0603  0.1729
    1SOL     OW 9021   1.309   2.715   3.897 -0.0282 -0.1125 -0.3011
    1SOL    HW2 9022   1.326   2.693   3.989  0.8408  0.6426 -0.2780
    1SOL    HW3 9023   1.311   2.631   3.852  0.5804 -0.3790  0.2118
    1SOL    MW4 9024   1.312   2.701   3.903  0.1665 -0.0479 -0.2306
    1SOL     OW 9025   1.532   2.853   3.797 -0.2583  0.0761 -0.0966
    1SOL    HW2 9026   1.471   2.792   3.839 -0.8908  1.1002  0.4851
    1SOL    HW3 9027   1.531   2.828   3.704 -1.5409  0.0671 -0.0887
    1SOL    MW4 9028   1.524   2.842   3.790 -0.5109  0.2100 -0.0186
    1SOL     OW 9029   1.567   3.104   3.883 -0.1052 -0.0049  0.0637
    1SOL    HW2 9030   1.573   3.110   3.979  0.8132  0.2284  0.0055
    1SOL    HW3 9031   1.553   3.011   3.865 -0.4948 -0.0183  0.4364
    1SOL    MW4 9032   1.566   3.093   3.894 -0.0355  0.0243  0.1051
    1SOL     OW 9033   1.321   3.203   3.789 -0.3466  0.2625 -0.0803
    1SOL    HW2 9034   1.315   3.296   3.813 -1.3682  0.6039 -1.6223
    1SOL    HW3 9035   1.410   3.178   3.814 -0.1666  1.5628  0.6452
    1SOL    MW4 9036   1.332   3.212   3.796 -0.4575  0.4795 -0.1879
    1SOL     OW 9037   1.307   3.483   3.824  0.1372 -0.2894 -0.0596
    1SOL    HW2 9038   1.389   3.526   3.798  0.1382 -0.2433  0.0201
    1SOL    HW3 9039   1.238   3.542   3.795  0.1868  0.6557  1.6688
    1SOL    MW4 9040   1.309   3.496   3.817  0.1438 -0.1583  0.1791
    1SOL     OW 9041   1.517   3.645   3.726  0.2248 -0.0858 -0.2085
    1SOL    HW2 9042   1.594   3.595   3.752 -0.9604 -1.5790  0.5395
    1SOL    HW3 9043   1.527   3.729   3.769  1.6516 -0.0885 -0.4905
    1SOL    MW4 9044   1.528   3.649   3.735  0.2567 -0.2832 -0.1469
    1SOL     OW 9045   1.553   3.881   3.861  0.2117 -0.1189  0.3409
    1SOL    HW2 9046   1.540   3.858   3.953 -0.6479 -0.3416  0.1744
    1SOL    HW3 9047   1.476   3.933   3.839 -0.2937 -1.2572 -0.6267
    1SOL    MW4 9048   1.541   3.885   3.870  0.0317 -0.2983  0.1915
    1SOL     OW 9049   1.330   4.027   3.805 -0.3475  0.2498  0.0725
    1SOL    HW2 9050   1.343   4.119   3.832 -1.3557  0.7684 -1.2000
    1SOL    HW3 9051   1.335   4.029   3.710 -0.4696 -1.0171  0.0374
    1SOL    MW4 9052   1.333   4.040   3.796 -0.4965  0.1507 -0.1001
    1SOL     OW 9053   1.350   4.292   3.872 -0.7082  0.0456 -0.4187
    1SOL    HW2 9054   1.427   4.343   3.846 -0.4030  0.5964  1.5177
    1SOL    HW3 9055   1.275   4.343   3.841 -0.3198 -0.0921 -1.5947
    1SOL    MW4 9056   1.350   4.305   3.864 -0.6167  0.1001 -0.3185
    1SOL     OW 9057   1.563   4.450   3.762 -0.1686  0.1466  0.3443
    1SOL    HW2 9058   1.634   4.399   3.801 -0.0353 -0.7441 -1.0240
    1SOL    HW3 9059   1.574   4.439   3.668 -2.6455 -0.7780  0.1022
    1SOL    MW4 9060   1.574   4.442   3.755 -0.4777 -0.0930  0.1318
    1SOL     OW 9061   1.997   4.654   3.855  0.2516  0.3051 -0.2414
    1SOL    HW2 9062   2.076   4.703   3.832  0.2122  0.1708 -0.6802
    1SOL    HW3 9063   2.016   4.564   3.831  0.2125  0.1575  0.2845
    1SOL    MW4 9064   2.010   4.649   3.849  0.2410  0.2680 -0.2298
    1SOL     OW 9065   1.775   0.112   3.766  0.1881 -0.1311  0.0227
    1SOL    HW2 9066   1.848   0.063   3.803 -0.3367 -0.6332  0.4105
    1SOL    HW3 9067   1.697   0.074   3.808 -0.2929  0.3784 -0.4010
    1SOL    MW4 9068   1.774   0.100   3.777  0.0554 -0.1301  0.0181
    1SOL     OW 9069   1.777   0.359   3.865  0.4096  0.0626 -0.2372
    1SOL    HW2 9070   1.774   0.360   3.961 -0.4476  1.5744 -0.2613
    1SOL    HW3 9071   1.766   0.267   3.841 -0.9839 -0.1332  1.0786
    1SOL    MW4 9072   1.775   0.347   3.874  0.1125  0.2362 -0.0665
    1SOL     OW 9073   1.975   0.547   3.793 -0.3529 -0.6610  0.1841
    1SOL    HW2 9074   1.904   0.487   3.816  0.8522 -2.6853 -1.1224
    1SOL    HW3 9075   1.977   0.545   3.697  0.2276  0.8819  0.1537
    1SOL    MW4 9076   1.966   0.539   3.783 -0.1172 -0.7246  0.0079
    1SOL     OW 9077   2.011   0.800   3.907 -0.5600 -0.2784  0.3091
    1SOL    HW2 9078   2.005   0.796   4.003  1.1874 -1.3427  0.3859
    1SOL    HW3 9079   1.994   0.711   3.878  1.4045 -0.5056 -0.2081
    1SOL    MW4 9080   2.008   0.788   3.916 -0.0703 -0.4489  0.2511
    1SOL     OW 9081   1.783   0.922   3.819 -0.6991  0.2228  0.1513
    1SOL    HW2 9082   1.868   0.891   3.849 -0.6472  0.5076  0.2930
    1SOL    HW3 9083   1.788   0.918   3.723 -0.3650  0.6813  0.1500
    1SOL    MW4 9084   1.795   0.917   3.810 -0.6481  0.3209  0.1698
    1SOL     OW 9085   1.775   1.195   3.883 -0.6348 -0.1613 -0.1019
    1SOL    HW2 9086   1.744   1.205   3.973  0.8530 -0.9094  0.5021
    1SOL    HW3 9087   1.756   1.104   3.861 -0.4682 -0.1400 -0.3340
    1SOL    MW4 9088   1.768   1.184   3.892 -0.4165 -0.2573 -0.0529
    1SOL     OW 9089   2.015   1.336   3.830 -0.2200 -0.0754  0.0230
    1SOL    HW2 9090   2.085   1.288   3.873  0.8294  1.5312  0.1523
    1SOL    HW3 9091   1.934   1.292   3.858  0.5743 -0.3899  1.8984
    1SOL    MW4 9092   2.013   1.324   3.839  0.0234  0.0949  0.2875
    1SOL     OW 9093   2.042   1.607   3.899 -0.3866  0.1968  0.3256
    1SOL    HW2 9094   1.960   1.640   3.861 -0.4794  0.0189  0.3710
    1SOL    HW3 9095   2.049   1.518   3.866 -0.8291 -0.2004  1.3028
    1SOL    MW4 9096   2.032   1.600   3.889 -0.4573  0.1211  0.4604
    1SOL     OW 9097   1.824   1.715   3.760  0.2278 -0.3666 -0.1301
    1SOL    HW2 9098   1.812   1.801   3.801  1.3410 -0.5969  0.6955
    1SOL    HW3 9099   1.829   1.733   3.666 -0.4249  0.3764 -0.0234
    1SOL    MW4 9100   1.823   1.729   3.753  0.2886 -0.2990 -0.0072
    1SOL     OW 9101   1.793   1.983   3.876 -0.2442  0.2638 -0.7738
    1SOL    HW2 9102   1.723   2.023   3.823 -1.0111 -1.6331 -1.2390
    1SOL    HW3 9103   1.874   2.013   3.835 -0.8135  0.6102 -1.6687
    1SOL    MW4 9104   1.794   1.993   3.864 -0.4205  0.0591 -0.9532
    1SOL     OW 9105   2.004   2.384   3.889  0.1407  0.2670 -0.0172
    1SOL    HW2 9106   2.088   2.422   3.863  0.1046  0.0339 -0.4864
    1SOL    HW3 9107   1.988   2.418   3.977  1.3287 -0.6459  0.5682
    1SOL    MW4 9108   2.013   2.393   3.897  0.2925  0.1156 -0.0019
    1SOL     OW 9109   2.246   2.517   3.765 -0.1757  0.7920  0.2355
    1SOL    HW2 9110   2.227   2.514   3.672 -0.1685  1.0755  0.2262
    1SOL    HW3 9111   2.325   2.463   3.776  0.1275  1.1912  0.0066
    1SOL    MW4 9112   2.254   2.509   3.754 -0.1347  0.8821  0.2043
    1SOL     OW 9113   1.789   2.478   3.750 -0.3763 -0.0714 -0.0823
    1SOL    HW2 9114   1.869   2.449   3.794 -0.4063  0.8324  0.5943
    1SOL    HW3 9115   1.719   2.436   3.799 -0.4624  1.7218  1.4178
    1SOL    MW4 9116   1.791   2.469   3.762 -0.3916  0.2844  0.2053
    1SOL     OW 9117   3.152   2.286   4.507  0.0851  1.1134  0.1513
    1SOL    HW2 9118   3.091   2.273   4.580  2.0553 -0.5690  1.5662
    1SOL    HW3 9119   3.181   2.377   4.514  1.0561  0.6691  2.1306
    1SOL    MW4 9120   3.148   2.296   4.517  0.4730  0.8328  0.5989
    1SOL     OW 9121   1.988   3.105   3.887  0.1270 -0.2048 -0.0249
    1SOL    HW2 9122   2.063   3.161   3.863  0.0771 -0.3275 -0.4830
    1SOL    HW3 9123   1.976   3.120   3.980  0.9097 -0.4030  0.1122
    1SOL    MW4 9124   1.997   3.114   3.896  0.2238 -0.2470 -0.0672
    1SOL     OW 9125   1.999   2.869   3.765 -0.0413 -0.1722  0.2345
    1SOL    HW2 9126   2.001   2.958   3.799  0.2978 -0.0363 -0.1413
    1SOL    HW3 9127   1.928   2.827   3.814 -1.9484  1.0411 -1.3816
    1SOL    MW4 9128   1.990   2.875   3.776 -0.2481  0.0060 -0.0281
    1SOL     OW 9129   1.785   3.253   3.780 -0.2123  0.0695 -0.0842
    1SOL    HW2 9130   1.862   3.211   3.819  0.6475  1.7374  0.0926
    1SOL    HW3 9131   1.712   3.195   3.800  0.5277 -0.0768  2.3635
    1SOL    MW4 9132   1.786   3.240   3.788 -0.0014  0.2701  0.2623
    1SOL     OW 9133   1.748   3.533   3.834  0.1230  0.1322  0.3119
    1SOL    HW2 9134   1.831   3.578   3.817  0.3885  0.2699  1.9544
    1SOL    HW3 9135   1.765   3.442   3.806  0.6017  0.3108  0.0021
    1SOL    MW4 9136   1.761   3.527   3.828  0.2213  0.1740  0.4878
    1SOL     OW 9137   1.987   3.687   3.791 -0.0719  0.3366  0.3565
    1SOL    HW2 9138   2.057   3.629   3.822  0.1237  0.7740  0.7452
    1SOL    HW3 9139   1.987   3.676   3.696  0.1126 -0.1297  0.4083
    1SOL    MW4 9140   1.997   3.678   3.783 -0.0218  0.3328  0.4146
    1SOL     OW 9141   2.011   3.961   3.888  0.0481 -0.3886 -0.1677
    1SOL    HW2 9142   2.084   4.005   3.845 -1.2473  1.1802 -0.8244
    1SOL    HW3 9143   2.011   3.872   3.853  0.0223  0.3846 -2.1699
    1SOL    MW4 9144   2.020   3.955   3.878 -0.1264 -0.0796 -0.5186
    1SOL     OW 9145   1.764   4.052   3.762 -0.1569 -0.4009 -0.0379
    1SOL    HW2 9146   1.834   4.018   3.817  0.6308 -2.4680 -2.2262
    1SOL    HW3 9147   1.685   4.008   3.794 -0.1393  0.3508  1.0690
    1SOL    MW4 9148   1.763   4.042   3.773 -0.0507 -0.5746 -0.1805
    1SOL     OW 9149   1.778   4.327   3.863 -0.4354  0.4840  0.1009
    1SOL    HW2 9150   1.867   4.351   3.837  0.3150  0.3626  2.4145
    1SOL    HW3 9151   1.768   4.237   3.831  0.0802  0.6790 -0.6280
    1SOL    MW4 9152   1.789   4.318   3.855 -0.2682  0.4935  0.3099
    1SOL     OW 9153   2.025   4.391   3.787 -0.0375  0.3625  0.3341
    1SOL    HW2 9154   2.111   4.361   3.817 -0.4734 -0.8351  0.4313
    1SOL    HW3 9155   2.030   4.384   3.691  0.1212  0.7019  0.3183
    1SOL    MW4 9156   2.037   4.386   3.778 -0.0739  0.2494  0.3445
    1SOL     OW 9157   2.460   0.033   3.880 -0.0472 -0.4631 -0.0750
    1SOL    HW2 9158   2.452   0.044   3.975  0.9437 -1.1438  0.0958
    1SOL    HW3 9159   2.486  -0.058   3.869  1.8684  0.1596 -0.8848
    1SOL    MW4 9160   2.462   0.023   3.891  0.3364 -0.4707 -0.1593
    1SOL     OW 9161   2.220   0.144   3.790 -0.1770 -0.1282  0.1533
    1SOL    HW2 9162   2.307   0.112   3.811 -0.1995  0.2777  0.8930
    1SOL    HW3 9163   2.219   0.151   3.694  0.2482 -1.1047  0.0736
    1SOL    MW4 9164   2.231   0.141   3.780 -0.1240 -0.2035  0.2403
    1SOL     OW 9165   2.213   0.438   3.872 -0.2271  0.2344 -0.0489
    1SOL    HW2 9166   2.216   0.347   3.841  0.0117 -0.1637  1.1204
    1SOL    HW3 9167   2.138   0.476   3.826 -1.2649 -0.9943  0.6150
    1SOL    MW4 9168   2.203   0.431   3.862 -0.3326  0.0198  0.1931
    1SOL     OW 9169   2.463   0.538   3.817  0.2642 -0.3750  0.0453
    1SOL    HW2 9170   2.373   0.508   3.831  0.1004  0.4063  0.7311
    1SOL    HW3 9171   2.478   0.525   3.724 -1.1375  0.9900 -0.3951
    1SOL    MW4 9172   2.453   0.533   3.807  0.0577 -0.0919  0.0777
    1SOL     OW 9173   2.439   0.795   3.942  0.1147  0.3440  0.1787
    1SOL    HW2 9174   2.369   0.838   3.894 -1.2615 -0.3392  1.5136
    1SOL    HW3 9175   2.442   0.707   3.906 -0.0874  0.2079  0.4907
    1SOL    MW4 9176   2.430   0.789   3.931 -0.0935  0.2359  0.3960
    1SOL     OW 9177   2.239   0.928   3.807  0.3371 -0.1861  0.4946
    1SOL    HW2 9178   2.159   0.883   3.835 -0.7193  0.9419 -0.6640
    1SOL    HW3 9179   2.241   0.915   3.712 -0.3153  2.7055  0.0507
    1SOL    MW4 9180   2.228   0.920   3.798  0.1116  0.3443  0.2832
    1SOL     OW 9181   2.209   1.182   3.954  0.1244 -0.2100 -0.1165
    1SOL    HW2 9182   2.263   1.171   4.032  0.3126  0.9419 -0.0795
    1SOL    HW3 9183   2.215   1.097   3.909  2.0086 -0.0918 -0.1450
    1SOL    MW4 9184   2.217   1.169   3.958  0.3977 -0.0424 -0.1154
    1SOL     OW 9185   2.394   1.267   3.768  0.2488  0.4700 -0.1753
    1SOL    HW2 9186   2.408   1.359   3.793 -0.8372  0.7818 -0.6680
    1SOL    HW3 9187   2.325   1.237   3.826  0.7398 -0.0977  0.1135
    1SOL    MW4 9188   2.386   1.275   3.779  0.1705  0.4362 -0.2022
    1SOL     OW 9189   2.461   1.530   3.836  0.0368 -0.7051  0.3350
    1SOL    HW2 9190   2.548   1.566   3.817 -0.1852  0.9505  2.2447
    1SOL    HW3 9191   2.402   1.605   3.830 -1.0853 -1.5949  0.1798
    1SOL    MW4 9192   2.465   1.545   3.833 -0.1407 -0.6042  0.5665
    1SOL     OW 9193   2.253   1.724   3.781  0.5698  0.8047 -0.3783
    1SOL    HW2 9194   2.258   1.814   3.812 -1.7045  0.7712  0.1719
    1SOL    HW3 9195   2.176   1.687   3.826  1.2882 -1.3184 -0.8040
    1SOL    MW4 9196   2.244   1.731   3.791  0.3641  0.5201 -0.3622
    1SOL     OW 9197   2.252   1.966   3.904  0.2736 -0.3462  0.3647
    1SOL    HW2 9198   2.168   2.001   3.876 -0.4748 -1.9912  0.4590
    1SOL    HW3 9199   2.317   2.021   3.861 -0.8596 -0.3783 -1.4208
    1SOL    MW4 9200   2.250   1.978   3.895  0.0253 -0.5676  0.1414
    1SOL     OW 9201   2.477   2.056   3.777 -0.0619 -0.2149 -0.4682
    1SOL    HW2 9202   2.477   2.073   3.682  1.4431  0.6111 -0.3320
    1SOL    HW3 9203   2.559   2.010   3.793 -1.1705 -2.0673  0.1763
    1SOL    MW4 9204   2.488   2.052   3.766 -0.0095 -0.3502 -0.3650
    1SOL     OW 9205   2.225   2.758   3.873 -0.7265  0.1914  0.0927
    1SOL    HW2 9206   2.152   2.804   3.830  0.1398  1.4256 -0.0772
    1SOL    HW3 9207   2.233   2.676   3.825 -0.3437  1.1771 -1.5634
    1SOL    MW4 9208   2.216   2.754   3.861 -0.5617  0.4842 -0.1485
    1SOL     OW 9209   0.873   2.162   4.636  0.0769  0.2777  0.0016
    1SOL    HW2 9210   0.879   2.249   4.676  0.4622  0.2539 -0.0034
    1SOL    HW3 9211   0.957   2.151   4.590  0.3892 -0.4571  0.7356
    1SOL    MW4 9212   0.885   2.172   4.635  0.1689  0.1776  0.0973
    1SOL     OW 9213   2.023   2.097   3.784  0.1074  0.2167  0.2441
    1SOL    HW2 9214   2.006   2.179   3.831 -0.6914 -0.6234  1.4796
    1SOL    HW3 9215   2.036   2.123   3.693  1.1708  1.8464  0.8423
    1SOL    MW4 9216   2.023   2.111   3.778  0.1423  0.3207  0.4859
    1SOL     OW 9217   2.483   2.871   3.812  0.4272 -0.2849  0.0094
    1SOL    HW2 9218   2.399   2.826   3.826 -0.0128  0.0961 -1.3252
    1SOL    HW3 9219   2.501   2.860   3.719  1.3340  0.5631  0.0795
    1SOL    MW4 9220   2.474   2.864   3.802  0.4888 -0.1228 -0.1576
    1SOL     OW 9221   2.453   3.139   3.828  0.4743  0.3562 -0.0543
    1SOL    HW2 9222   2.442   3.144   3.923  1.2151 -0.1558  0.0612
    1SOL    HW3 9223   2.459   3.045   3.809 -0.5760  0.4133 -0.7132
    1SOL    MW4 9224   2.452   3.127   3.838  0.4337  0.2964 -0.1259
    1SOL     OW 9225   2.202   3.248   3.788  0.1384  0.0136 -0.3449
    1SOL    HW2 9226   2.218   3.333   3.829 -0.0879 -0.1539  0.0962
    1SOL    HW3 9227   2.285   3.201   3.794  0.9809  1.1137 -2.7918
    1SOL    MW4 9228   2.215   3.253   3.794  0.2193  0.1369 -0.6096
    1SOL     OW 9229   2.196   3.514   3.879 -0.1059  0.4512  0.0601
    1SOL    HW2 9230   2.200   3.523   3.974  0.1059  1.1581 -0.0153
    1SOL    HW3 9231   2.277   3.554   3.847 -0.4392  0.7227 -0.4521
    1SOL    MW4 9232   2.207   3.521   3.887 -0.1218  0.5801 -0.0174
    1SOL     OW 9233   2.443   3.586   3.798 -0.6111  0.3074  0.0530
    1SOL    HW2 9234   2.527   3.564   3.838 -1.3461 -0.6209  1.1022
    1SOL    HW3 9235   2.459   3.581   3.704  0.5226  0.1903  0.2444
    1SOL    MW4 9236   2.456   3.583   3.791 -0.5584  0.1693  0.2167
    1SOL     OW 9237   2.464   3.891   3.881  0.1110  0.0565  0.1126
    1SOL    HW2 9238   2.539   3.928   3.836 -0.1373  0.3892 -0.0325
    1SOL    HW3 9239   2.459   3.800   3.850  0.1900  0.1638 -0.2103
    1SOL    MW4 9240   2.473   3.884   3.871  0.0882  0.1144  0.0508
    1SOL     OW 9241   2.256   4.066   3.790 -0.1014 -0.3267 -0.4400
    1SOL    HW2 9242   2.315   4.001   3.827 -0.3930  0.4220  1.3535
    1SOL    HW3 9243   2.286   4.076   3.699 -0.3139 -3.2344 -0.8732
    1SOL    MW4 9244   2.267   4.059   3.783 -0.1678 -0.6123 -0.2604
    1SOL     OW 9245   2.268   4.326   3.879 -0.2196 -0.0702  0.4524
    1SOL    HW2 9246   2.264   4.325   3.975  0.2279  0.8389  0.4779
    1SOL    HW3 9247   2.277   4.234   3.855  1.0423 -0.1905  1.3444
    1SOL    MW4 9248   2.269   4.314   3.889  0.0060  0.0334  0.5736
    1SOL     OW 9249   2.495   4.440   3.773  0.2125  0.2005  0.2427
    1SOL    HW2 9250   2.547   4.365   3.801  0.1487  0.2343  0.4498
    1SOL    HW3 9251   2.404   4.415   3.792  0.0131 -0.4862 -1.5084
    1SOL    MW4 9252   2.490   4.427   3.779  0.1779  0.1140  0.0389
    1SOL     OW 9253   2.888   0.006   3.885 -0.3551  0.0437 -0.0466
    1SOL    HW2 9254   2.898   0.027   3.978 -0.0801  0.1017 -0.0896
    1SOL    HW3 9255   2.968   0.039   3.844 -1.0028  1.1154 -0.4928
    1SOL    MW4 9256   2.900   0.013   3.892 -0.4044  0.1936 -0.1111
    1SOL     OW 9257   2.682   0.156   3.786  0.1889 -0.0602  0.2038
    1SOL    HW2 9258   2.750   0.101   3.825  1.2923  0.3816 -1.0762
    1SOL    HW3 9259   2.600   0.113   3.810  1.0101 -1.9628 -0.2938
    1SOL    MW4 9260   2.680   0.143   3.794  0.4427 -0.2529 -0.0308
    1SOL     OW 9261   2.672   0.379   3.925 -0.1270  0.2337  0.2398
    1SOL    HW2 9262   2.677   0.296   3.879  0.3800  1.1560 -1.4291
    1SOL    HW3 9263   2.592   0.420   3.892 -0.0422  0.6812  0.5809
    1SOL    MW4 9264   2.662   0.374   3.915 -0.0486  0.4144  0.0641
    1SOL     OW 9265   2.879   0.478   3.790 -0.5906  0.0700  0.1273
    1SOL    HW2 9266   2.957   0.449   3.837 -0.0570  2.5095  0.8406
    1SOL    HW3 9267   2.806   0.444   3.841 -0.0420 -2.2894 -0.5748
    1SOL    MW4 9268   2.880   0.470   3.803 -0.4478  0.0806  0.1287
    1SOL     OW 9269   2.896   0.761   3.904 -0.4039 -0.1588 -0.1589
    1SOL    HW2 9270   2.953   0.800   3.838 -0.7189 -0.4382 -0.5977
    1SOL    HW3 9271   2.895   0.667   3.882  1.2367 -0.6074  1.5385
    1SOL    MW4 9272   2.903   0.754   3.892 -0.2291 -0.2549  0.0072
    1SOL     OW 9273   2.656   0.875   3.791 -0.0820  0.2006 -0.3767
    1SOL    HW2 9274   2.727   0.851   3.851 -0.2695  0.0509 -0.2106
    1SOL    HW3 9275   2.580   0.829   3.826 -0.1657  0.0130 -0.8033
    1SOL    MW4 9276   2.656   0.866   3.804 -0.1178  0.1562 -0.4110
    1SOL     OW 9277   2.629   1.154   3.846  0.4894  0.4018  0.1713
    1SOL    HW2 9278   2.631   1.059   3.828  1.9021  0.4642 -0.0088
    1SOL    HW3 9279   2.541   1.181   3.819  0.2151 -0.7881 -0.1546
    1SOL    MW4 9280   2.617   1.145   3.840  0.6397  0.2530  0.1047
    1SOL     OW 9281   2.876   1.262   3.777  0.4033 -0.1698  1.0342
    1SOL    HW2 9282   2.883   1.347   3.820 -1.6487  0.0656  0.9531
    1SOL    HW3 9283   2.797   1.223   3.814  0.3544 -1.2949 -0.2218
    1SOL    MW4 9284   2.867   1.268   3.788  0.1264 -0.2873  0.8578
    1SOL     OW 9285   2.918   1.507   3.873 -0.4483 -0.1535 -0.4016
    1SOL    HW2 9286   2.939   1.504   3.966 -1.9745 -0.7965 -0.0667
    1SOL    HW3 9287   2.997   1.542   3.832 -0.2171  1.3736  1.2774
    1SOL    MW4 9288   2.931   1.511   3.880 -0.6192 -0.0370 -0.1359
    1SOL     OW 9289   2.704   1.662   3.819 -0.5091  0.0308  0.1301
    1SOL    HW2 9290   2.768   1.596   3.845 -0.4015  0.2979  0.5446
    1SOL    HW3 9291   2.723   1.679   3.727 -1.1401 -1.1992 -0.2348
    1SOL    MW4 9292   2.715   1.656   3.810 -0.5782 -0.0961  0.1366
    1SOL     OW 9293   2.705   1.920   3.920 -0.2957 -0.1839 -0.0650
    1SOL    HW2 9294   2.694   1.925   4.015  1.2961 -0.0982  0.1131
    1SOL    HW3 9295   2.703   1.826   3.901 -0.5736 -0.2032  0.0420
    1SOL    MW4 9296   2.703   1.908   3.930 -0.1223 -0.1751 -0.0272
    1SOL     OW 9297   2.919   2.305   3.816  0.0730  0.0745  0.6145
    1SOL    HW2 9298   2.852   2.370   3.793  0.3887  0.1971  0.0526
    1SOL    HW3 9299   3.001   2.343   3.786  0.3532 -0.2562  0.9552
    1SOL    MW4 9300   2.921   2.318   3.809  0.1514  0.0470  0.5856
    1SOL     OW 9301   3.004   1.696   4.452  0.0855 -0.1067  0.4885
    1SOL    HW2 9302   2.966   1.776   4.414  0.9379  0.5242  0.9328
    1SOL    HW3 9303   2.928   1.639   4.467 -0.3127 -0.2173 -1.7396
    1SOL    MW4 9304   2.989   1.699   4.449  0.1452 -0.0381  0.2532
    1SOL     OW 9305   2.700   2.479   3.792  0.6472 -0.3907  0.2516
    1SOL    HW2 9306   2.700   2.561   3.840  1.0483 -0.8579  1.0635
    1SOL    HW3 9307   2.621   2.434   3.820  0.3116 -0.1806 -0.3640
    1SOL    MW4 9308   2.690   2.484   3.802  0.6559 -0.4246  0.2775
    1SOL     OW 9309   2.706   2.731   3.931  0.4624 -0.3028  0.3545
    1SOL    HW2 9310   2.624   2.779   3.916  0.8240  0.4584  0.7790
    1SOL    HW3 9311   2.714   2.727   4.027 -0.1207 -2.1895  0.3574
    1SOL    MW4 9312   2.696   2.737   3.942  0.4332 -0.4513  0.4110
    1SOL     OW 9313   2.905   2.831   3.775 -0.5264 -0.2667  0.6494
    1SOL    HW2 9314   2.910   2.916   3.818 -0.9748  0.1800 -0.1462
    1SOL    HW3 9315   2.831   2.787   3.817 -0.8932  0.1240  0.4274
    1SOL    MW4 9316   2.896   2.837   3.786 -0.6342 -0.1564  0.5150
    1SOL     OW 9317   2.921   3.110   3.880 -0.0825 -0.4993  0.1924
    1SOL    HW2 9318   2.998   3.147   3.836  0.0259 -0.3903  0.4684
    1SOL    HW3 9319   2.847   3.159   3.844  0.0185 -0.3176  0.2309
    1SOL    MW4 9320   2.921   3.121   3.869 -0.0546 -0.4611  0.2339
    1SOL     OW 9321   2.715   3.242   3.760  0.4345  0.2990 -0.3273
    1SOL    HW2 9322   2.695   3.328   3.797  1.0132  0.7815 -1.1205
    1SOL    HW3 9323   2.646   3.185   3.792  0.6282  0.8336  1.0592
    1SOL    MW4 9324   2.704   3.246   3.769  0.5367  0.4332 -0.2489
    1SOL     OW 9325   2.692   3.499   3.869 -0.0932  0.6142  0.0290
    1SOL    HW2 9326   2.691   3.459   3.956 -0.7680  0.3654 -0.0862
    1SOL    HW3 9327   2.783   3.526   3.855  0.5509 -1.6032 -0.2295
    1SOL    MW4 9328   2.704   3.497   3.878 -0.0973  0.2890 -0.0203
    1SOL     OW 9329   2.952   3.565   3.814  0.3357 -0.1208  0.2704
    1SOL    HW2 9330   3.044   3.546   3.831  0.0077 -1.9472  0.1007
    1SOL    HW3 9331   2.946   3.572   3.719  0.1966 -0.5908  0.2430
    1SOL    MW4 9332   2.963   3.564   3.804  0.2744 -0.4234  0.2444
    1SOL     OW 9333   2.945   3.852   3.879 -0.0195  0.2443 -0.5306
    1SOL    HW2 9334   2.935   3.872   3.973  1.1666  0.3105 -0.4153
    1SOL    HW3 9335   2.948   3.757   3.875 -0.6422  0.2188 -0.5730
    1SOL    MW4 9336   2.944   3.842   3.891  0.0548  0.2496 -0.5207
    1SOL     OW 9337   2.686   3.998   3.769 -0.0227 -0.0117  0.0820
    1SOL    HW2 9338   2.687   4.085   3.810  0.0425 -0.0890  0.2471
    1SOL    HW3 9339   2.769   3.959   3.796  0.1210  0.0210 -0.3092
    1SOL    MW4 9340   2.697   4.004   3.778  0.0050 -0.0172  0.0520
    1SOL     OW 9341   2.710   4.266   3.876  0.2574 -0.1045  0.3838
    1SOL    HW2 9342   2.798   4.281   3.841 -0.3453  2.3957 -0.1326
    1SOL    HW3 9343   2.717   4.290   3.969 -0.0261  0.7202  0.1951
    1SOL    MW4 9344   2.723   4.271   3.884  0.1404  0.3347  0.2909
    1SOL     OW 9345   2.954   4.417   3.763 -0.2135  0.4769 -0.0411
    1SOL    HW2 9346   3.030   4.379   3.807  0.0466  1.8178  0.7075
    1SOL    HW3 9347   2.934   4.495   3.815 -0.6024  1.4643 -1.6639
    1SOL    MW4 9348   2.961   4.422   3.776 -0.2306  0.7839 -0.1566
    1SOL     OW 9349   3.338   4.637   3.855 -0.2410  0.2484  0.7448
    1SOL    HW2 9350   3.340   4.628   3.950  0.3903  2.1091  0.9352
    1SOL    HW3 9351   3.413   4.693   3.835 -0.1370 -0.4542 -0.8969
    1SOL    MW4 9352   3.348   4.643   3.865 -0.1440  0.4015  0.5531
    1SOL     OW 9353   3.122   0.123   3.800  0.3486  0.3827 -0.3943
    1SOL    HW2 9354   3.187   0.059   3.831 -0.0709 -0.1196 -0.5456
    1SOL    HW3 9355   3.136   0.126   3.705 -0.5511 -0.5117 -0.5603
    1SOL    MW4 9356   3.133   0.115   3.792  0.1745  0.1984 -0.4361
    1SOL     OW 9357   3.118   0.379   3.903  0.9822 -0.2483 -0.3761
    1SOL    HW2 9358   3.120   0.357   3.996  1.0529 -0.6722 -0.4755
    1SOL    HW3 9359   3.130   0.295   3.859  2.5601  0.1695 -0.7594
    1SOL    MW4 9360   3.120   0.365   3.910  1.1997 -0.2491 -0.4396
    1SOL     OW 9361   3.333   0.553   3.777 -0.1591  0.4494 -0.2320
    1SOL    HW2 9362   3.390   0.477   3.790 -0.4721  0.2676  0.0668
    1SOL    HW3 9363   3.248   0.526   3.811 -0.2235  0.9981  0.0526
    1SOL    MW4 9364   3.330   0.540   3.783 -0.2089  0.4979 -0.1552
    1SOL     OW 9365   3.320   0.814   3.866 -0.2991  0.3828  0.2316
    1SOL    HW2 9366   3.300   0.807   3.959 -1.2278  1.0130  0.0888
    1SOL    HW3 9367   3.351   0.726   3.842  1.2177  0.5816  1.4038
    1SOL    MW4 9368   3.321   0.801   3.875 -0.2217  0.4922  0.3674
    1SOL     OW 9369   3.096   0.868   3.714 -0.7124  0.1564  0.2036
    1SOL    HW2 9370   3.179   0.850   3.759 -0.4434  0.4812 -0.1615
    1SOL    HW3 9371   3.117   0.859   3.621 -1.7522 -2.5454  0.1972
    1SOL    MW4 9372   3.110   0.864   3.708 -0.8144 -0.1572  0.1547
    1SOL     OW 9373   3.124   1.130   3.812  0.0856  0.4376  0.1956
    1SOL    HW2 9374   3.119   1.040   3.779  0.3717  0.7681 -0.7439
    1SOL    HW3 9375   3.034   1.163   3.805  0.1114  0.4483 -0.0870
    1SOL    MW4 9376   3.111   1.122   3.807  0.1268  0.4827  0.0346
    1SOL     OW 9377   3.369   1.241   3.739  0.1401 -0.1893 -0.1026
    1SOL    HW2 9378   3.290   1.195   3.766 -1.5488  1.7398 -1.6972
    1SOL    HW3 9379   3.360   1.254   3.645  1.1082  2.3821  0.1181
    1SOL    MW4 9380   3.358   1.236   3.731  0.0451  0.4045 -0.2840
    1SOL     OW 9381   3.404   1.490   3.851 -0.1141 -0.7435 -0.1397
    1SOL    HW2 9382   3.319   1.525   3.824  0.0291 -0.3590 -0.1027
    1SOL    HW3 9383   3.406   1.402   3.814 -0.4597 -0.6952 -0.2831
    1SOL    MW4 9384   3.393   1.483   3.843 -0.1409 -0.6864 -0.1538
    1SOL     OW 9385   3.168   1.590   3.797 -0.1572  0.5061 -0.8417
    1SOL    HW2 9386   3.162   1.682   3.823 -0.0428  0.5641 -1.0153
    1SOL    HW3 9387   3.175   1.593   3.701  0.5070  0.3485 -0.7996
    1SOL    MW4 9388   3.168   1.602   3.788 -0.0544  0.4929 -0.8588
    1SOL     OW 9389   3.149   1.862   3.855 -0.3999  0.4036 -0.0232
    1SOL    HW2 9390   3.147   1.872   3.951  1.1476  0.8817 -0.0350
    1SOL    HW3 9391   3.073   1.911   3.825  0.9299  3.0146  0.7359
    1SOL    MW4 9392   3.138   1.870   3.864 -0.0203  0.8112  0.0753
    1SOL     OW 9393   3.324   2.033   3.739 -0.2042 -0.6702  0.0735
    1SOL    HW2 9394   3.258   1.976   3.778 -0.4117  0.2516  1.0867
    1SOL    HW3 9395   3.407   2.000   3.771 -0.3367 -0.2802  0.8181
    1SOL    MW4 9396   3.326   2.021   3.748 -0.2489 -0.4971  0.3057
    1SOL     OW 9397   3.399   2.270   3.840  0.2556  0.3760 -0.0221
    1SOL    HW2 9398   3.344   2.341   3.808  0.6746  1.2655  1.1820
    1SOL    HW3 9399   3.358   2.191   3.806 -1.4538  1.0542  0.3914
    1SOL    MW4 9400   3.386   2.269   3.831  0.0854  0.5829  0.1912
    1SOL     OW 9401   3.172   2.418   3.747  0.1931  0.3871  0.3695
    1SOL    HW2 9402   3.164   2.502   3.793  3.0102  0.6471  0.4753
    1SOL    HW3 9403   3.165   2.440   3.654  2.3698  1.0149  0.3079
    1SOL    MW4 9404   3.170   2.432   3.741  0.8516  0.5043  0.3750
    1SOL     OW 9405   3.141   2.692   3.807 -0.1945  0.1651  0.0406
    1SOL    HW2 9406   3.157   2.720   3.897 -0.4541  0.6791 -0.0758
    1SOL    HW3 9407   3.063   2.739   3.780 -0.5440 -0.5505 -0.2085
    1SOL    MW4 9408   3.133   2.702   3.816 -0.2749  0.1383 -0.0074
    1SOL     OW 9409   3.389   2.797   3.746 -0.0470 -0.9056 -0.2580
    1SOL    HW2 9410   3.300   2.766   3.762 -0.1530 -0.6132 -0.2919
    1SOL    HW3 9411   3.392   2.884   3.784  0.0925 -0.7372 -0.6551
    1SOL    MW4 9412   3.378   2.804   3.753 -0.0427 -0.8447 -0.3150
    1SOL     OW 9413   3.383   3.051   3.843 -0.3285 -0.0985 -0.4346
    1SOL    HW2 9414   3.362   3.042   3.936  0.0444  3.2741  0.0498
    1SOL    HW3 9415   3.456   3.113   3.841 -0.1386 -0.3505 -2.9538
    1SOL    MW4 9416   3.390   3.058   3.855 -0.2542  0.3130 -0.7029
    1SOL     OW 9417   3.166   3.213   3.763 -0.1843  0.0209  0.0353
    1SOL    HW2 9418   3.242   3.161   3.791  1.6193  2.3074 -0.5122
    1SOL    HW3 9419   3.168   3.209   3.668 -1.4174 -0.7896  0.0290
    1SOL    MW4 9420   3.177   3.206   3.754 -0.1092  0.2158 -0.0379
    1SOL     OW 9421   3.208   3.474   3.886  1.0325 -0.4092  0.1515
    1SOL    HW2 9422   3.278   3.517   3.836 -0.2585  0.3477 -1.0461
    1SOL    HW3 9423   3.193   3.392   3.839 -0.1113  0.2563 -0.6897
    1SOL    MW4 9424   3.215   3.469   3.873  0.7112 -0.2217 -0.1175
    1SOL     OW 9425   3.424   3.601   3.795 -0.3147 -0.3372 -0.3503
    1SOL    HW2 9426   3.409   3.690   3.825  1.6308 -0.2014  0.3022
    1SOL    HW3 9427   3.414   3.606   3.700  0.4165  0.7347 -0.3876
    1SOL    MW4 9428   3.421   3.613   3.786  0.0386 -0.1779 -0.2694
    1SOL     OW 9429   3.400   3.858   3.862 -0.2602  0.2118 -0.0445
    1SOL    HW2 9430   3.475   3.901   3.820 -0.1788  2.3736  2.2324
    1SOL    HW3 9431   3.327   3.916   3.843 -0.5193  0.3723  1.4550
    1SOL    MW4 9432   3.401   3.871   3.854 -0.2837  0.5183  0.4537
    1SOL     OW 9433   3.180   3.995   3.786  0.3136  0.2772 -0.2532
    1SOL    HW2 9434   3.161   4.083   3.821  1.2777 -0.1748  1.4679
    1SOL    HW3 9435   3.105   3.942   3.814  0.6045  0.1411  0.2664
    1SOL    MW4 9436   3.167   4.000   3.794  0.4792  0.1996  0.0424
    1SOL     OW 9437   3.149   4.235   3.894 -0.2647  0.2103 -0.3928
    1SOL    HW2 9438   3.149   4.248   3.988  0.8709 -0.3767 -0.3082
    1SOL    HW3 9439   3.227   4.281   3.863 -0.1141 -0.3883 -0.9260
    1SOL    MW4 9440   3.159   4.243   3.902 -0.0951  0.0539 -0.4520
    1SOL     OW 9441   3.336   4.383   3.767 -0.5669  0.0630 -0.3133
    1SOL    HW2 9442   3.420   4.337   3.764 -0.4017  0.4088 -1.1391
    1SOL    HW3 9443   3.349   4.453   3.831 -0.8600 -1.1001  1.0422
    1SOL    MW4 9444   3.349   4.386   3.775 -0.5836 -0.0453 -0.2437
    1SOL     OW 9445   3.776   0.015   3.879 -0.2270  0.5355  0.5469
    1SOL    HW2 9446   3.845   0.073   3.846 -1.6498  1.7742 -0.3290
    1SOL    HW3 9447   3.791  -0.068   3.833  1.6855  0.2345  1.6357
    1SOL    MW4 9448   3.787   0.012   3.869 -0.1626  0.6595  0.5751
    1SOL     OW 9449   3.546   0.128   3.777 -0.7514  0.2391  0.0987
    1SOL    HW2 9450   3.624   0.090   3.818 -0.1611  1.7383  0.4316
    1SOL    HW3 9451   3.567   0.129   3.683 -0.3472  0.6250  0.1846
    1SOL    MW4 9452   3.559   0.123   3.770 -0.6204  0.4878  0.1540
    1SOL     OW 9453   3.558   0.394   3.842  0.1663  0.7958  0.0899
    1SOL    HW2 9454   3.640   0.438   3.820  0.2169  1.4825  1.5981
    1SOL    HW3 9455   3.573   0.302   3.818  0.6591  1.2846 -1.4945
    1SOL    MW4 9456   3.571   0.388   3.836  0.2382  0.9509  0.0796
    1SOL     OW 9457   3.793   0.509   3.793  0.0564  0.1579  0.6108
    1SOL    HW2 9458   3.884   0.492   3.817  0.3697 -0.3036 -0.8555
    1SOL    HW3 9459   3.774   0.595   3.831  0.7448 -0.2463  1.8923
    1SOL    MW4 9460   3.803   0.518   3.801  0.1884  0.0437  0.5865
    1SOL     OW 9461   3.782   0.762   3.907 -0.2724  0.1233  0.1436
    1SOL    HW2 9462   3.856   0.797   3.858 -0.1543 -0.8614 -0.3886
    1SOL    HW3 9463   3.705   0.801   3.865 -0.0410  1.7384  1.1702
    1SOL    MW4 9464   3.782   0.772   3.895 -0.2260  0.2065  0.2089
    1SOL     OW 9465   3.571   0.874   3.759 -0.3492 -0.1442 -0.0221
    1SOL    HW2 9466   3.589   0.965   3.782 -0.8467  0.2062 -0.9897
    1SOL    HW3 9467   3.490   0.852   3.806 -0.8820  0.2918 -0.7285
    1SOL    MW4 9468   3.563   0.883   3.768 -0.4854 -0.0404 -0.2427
    1SOL     OW 9469   3.617   1.134   3.817  0.5724  0.0376  0.0682
    1SOL    HW2 9470   3.689   1.172   3.767 -1.1051  0.8538 -1.7903
    1SOL    HW3 9471   3.540   1.185   3.790 -0.6502 -0.5893  2.2624
    1SOL    MW4 9472   3.616   1.146   3.807  0.1900  0.0625  0.1128
    1SOL     OW 9473   3.839   1.272   3.737 -0.2923  0.1371  0.1034
    1SOL    HW2 9474   3.923   1.233   3.759 -0.9497 -1.4470 -0.0722
    1SOL    HW3 9475   3.834   1.351   3.791  1.1993  0.1240  0.2740
    1SOL    MW4 9476   3.849   1.277   3.747 -0.1822 -0.0737  0.1028
    1SOL     OW 9477   3.839   1.519   3.876 -0.6634  0.3080  0.1369
    1SOL    HW2 9478   3.823   1.515   3.971  0.0046  1.7584  0.3292
    1SOL    HW3 9479   3.762   1.565   3.841 -1.1353 -0.6402 -0.1039
    1SOL    MW4 9480   3.826   1.524   3.884 -0.6378  0.3742  0.1307
    1SOL     OW 9481   3.632   1.651   3.751  0.3593 -0.4475 -0.2836
    1SOL    HW2 9482   3.556   1.595   3.767 -0.6099  0.9732  0.1962
    1SOL    HW3 9483   3.630   1.669   3.657 -0.1589 -0.0629 -0.2023
    1SOL    MW4 9484   3.622   1.646   3.741  0.1631 -0.2093 -0.2096
    1SOL     OW 9485   3.552   1.894   3.822  0.0726  0.1181  0.4589
    1SOL    HW2 9486   3.573   1.803   3.802 -0.3386 -0.0631  0.8470
    1SOL    HW3 9487   3.569   1.903   3.915  0.1153  0.4392  0.4210
    1SOL    MW4 9488   3.557   1.883   3.832  0.0238  0.1366  0.5052
    1SOL     OW 9489   3.776   2.047   3.766 -0.4414  0.3053  0.0199
    1SOL    HW2 9490   3.853   2.006   3.805 -0.5379 -1.0633 -1.1902
    1SOL    HW3 9491   3.703   1.993   3.795 -0.5392 -0.6022 -1.8140
    1SOL    MW4 9492   3.777   2.035   3.775 -0.4671  0.0050 -0.3815
    1SOL     OW 9493   3.802   2.300   3.864 -0.2394 -0.1735  0.0752
    1SOL    HW2 9494   3.795   2.217   3.818  0.1518 -0.0429 -0.2199
    1SOL    HW3 9495   3.743   2.359   3.817 -1.1885 -0.5127  0.8117
    1SOL    MW4 9496   3.793   2.297   3.852 -0.3130 -0.2010  0.1335
    1SOL     OW 9497   3.595   2.451   3.737  0.3122 -0.0207 -0.0241
    1SOL    HW2 9498   3.538   2.374   3.739 -1.3858  1.1997  0.0591
    1SOL    HW3 9499   3.607   2.469   3.644 -0.0322  0.1456 -0.0367
    1SOL    MW4 9500   3.589   2.443   3.725  0.0427  0.1621 -0.0148
    1SOL     OW 9501   3.587   2.665   3.898  0.1041  0.8400 -0.1232
    1SOL    HW2 9502   3.611   2.593   3.840  1.7880  1.5322 -0.2962
    1SOL    HW3 9503   3.514   2.707   3.854  0.0211  0.1008 -0.7102
    1SOL    MW4 9504   3.580   2.661   3.885  0.3152  0.8340 -0.2236
    1SOL     OW 9505   3.807   2.789   3.781  0.1049  0.2226 -0.4564
    1SOL    HW2 9506   3.884   2.743   3.814 -0.2346  0.3220  0.5084
    1SOL    HW3 9507   3.733   2.733   3.806 -0.1903  0.4912 -0.7186
    1SOL    MW4 9508   3.807   2.776   3.789  0.0212  0.2716 -0.3636
    1SOL     OW 9509   3.824   3.053   3.887  0.0899  0.2685 -0.5200
    1SOL    HW2 9510   3.744   3.101   3.867  0.4501 -0.5004 -4.1386
    1SOL    HW3 9511   3.805   2.963   3.861  0.8066 -0.7592  2.3564
    1SOL    MW4 9512   3.811   3.048   3.881  0.2317  0.0310 -0.6180
    1SOL     OW 9513   3.592   3.207   3.819 -0.3253 -0.1341  0.6916
    1SOL    HW2 9514   3.612   3.294   3.853  0.3703 -0.2256  0.5233
    1SOL    HW3 9515   3.613   3.212   3.726 -1.2180 -0.1953  0.4832
    1SOL    MW4 9516   3.598   3.219   3.811 -0.3514 -0.1540  0.6423
    1SOL     OW 9517   3.658   3.473   3.892 -0.5943  0.0434  0.0869
    1SOL    HW2 9518   3.662   3.474   3.987 -0.7983 -2.6398  0.1716
    1SOL    HW3 9519   3.575   3.518   3.871 -0.9380 -0.0625  1.2002
    1SOL    MW4 9520   3.647   3.479   3.901 -0.6666 -0.3245  0.2451
    1SOL     OW 9521   3.858   3.625   3.756 -0.4894 -0.0136 -0.3783
    1SOL    HW2 9522   3.886   3.706   3.799 -0.4093 -0.8284  1.1512
    1SOL    HW3 9523   3.782   3.595   3.806 -0.3118 -1.0603 -0.7044
    1SOL    MW4 9524   3.852   3.631   3.768 -0.4556 -0.2592 -0.2198
    1SOL     OW 9525   3.809   3.890   3.884 -0.2408  0.1796 -0.2321
    1SOL    HW2 9526   3.807   3.900   3.980 -0.4814 -1.2482 -0.0732
    1SOL    HW3 9527   3.890   3.934   3.857  1.3027 -1.8137  0.9597
    1SOL    MW4 9528   3.820   3.897   3.893 -0.0689 -0.2718 -0.0539
    1SOL     OW 9529   3.613   3.975   3.730 -0.1747  0.2657  0.2275
    1SOL    HW2 9530   3.612   4.065   3.763  1.8627  1.1074 -1.9084
    1SOL    HW3 9531   3.685   3.933   3.777  0.2564  0.3668 -0.3416
    1SOL    MW4 9532   3.623   3.981   3.741  0.1512  0.3898 -0.1295
    1SOL     OW 9533   3.586   4.245   3.821  0.1089 -0.7404  0.0172
    1SOL    HW2 9534   3.580   4.247   3.916  3.2144 -1.8174  0.3004
    1SOL    HW3 9535   3.663   4.297   3.800  0.4780 -1.9484 -1.7652
    1SOL    MW4 9536   3.595   4.252   3.831  0.5677 -1.0419 -0.1805
    1SOL     OW 9537   3.805   4.431   3.745  0.3927 -0.7125  0.2913
    1SOL    HW2 9538   3.878   4.398   3.798  2.2689  1.5689 -0.7553
    1SOL    HW3 9539   3.835   4.419   3.654 -0.1719  1.0016 -0.1314
    1SOL    MW4 9540   3.819   4.425   3.740  0.5660 -0.1855  0.0975
    1SOL     OW 9541   4.253   4.631   3.837  0.2516 -0.4120 -0.3164
    1SOL    HW2 9542   4.264   4.633   3.932  0.2653  0.0796 -0.3296
    1SOL    HW3 9543   4.330   4.676   3.803 -0.1359  0.0910 -0.5332
    1SOL    MW4 9544   4.264   4.637   3.845  0.2027 -0.2804 -0.3467
    1SOL     OW 9545   4.008   0.142   3.777 -0.0975  0.5790  0.5069
    1SOL    HW2 9546   4.074   0.083   3.814 -0.8225 -0.1994  0.5545
    1SOL    HW3 9547   4.034   0.151   3.685  0.4625  0.8146  0.6823
    1SOL    MW4 9548   4.020   0.135   3.769 -0.1197  0.5074  0.5362
    1SOL     OW 9549   4.027   0.388   3.891  0.0587 -0.1612 -0.3450
    1SOL    HW2 9550   4.022   0.375   3.985  0.6418  1.4901 -0.0664
    1SOL    HW3 9551   4.008   0.302   3.853 -0.0838 -0.8484  1.2695
    1SOL    MW4 9552   4.023   0.375   3.898  0.1163 -0.0339 -0.0954
    1SOL     OW 9553   4.241   0.498   3.791 -0.2476 -0.1878  0.6416
    1SOL    HW2 9554   4.169   0.451   3.832  2.0012 -2.4311  2.2226
    1SOL    HW3 9555   4.233   0.478   3.697 -1.7194 -0.3264  0.7917
    1SOL    MW4 9556   4.231   0.489   3.784 -0.1445 -0.5020  0.8700
    1SOL     OW 9557   4.237   0.771   3.822 -0.1437 -0.1615 -0.0547
    1SOL    HW2 9558   4.144   0.793   3.813 -0.5390 -1.0969  1.5668
    1SOL    HW3 9559   4.240   0.676   3.809  0.5556 -0.1799  0.2176
    1SOL    MW4 9560   4.225   0.761   3.819 -0.1035 -0.2874  0.1950
    1SOL     OW 9561   3.984   0.865   3.769 -0.0063  0.1452  0.0144
    1SOL    HW2 9562   3.988   0.956   3.801 -0.8117 -0.3000  1.4300
    1SOL    HW3 9563   4.008   0.871   3.677  2.2081  1.5096  0.6352
    1SOL    MW4 9564   3.987   0.878   3.761  0.1795  0.2665  0.2832
    1SOL     OW 9565   4.061   1.112   3.822 -0.0704  0.0534  0.1339
    1SOL    HW2 9566   4.069   1.087   3.914  0.3914 -1.2445 -0.2529
    1SOL    HW3 9567   4.138   1.166   3.805 -0.2444  0.4429  0.5416
    1SOL    MW4 9568   4.072   1.116   3.832 -0.0324 -0.0664  0.1366
    1SOL     OW 9569   4.285   1.243   3.753  0.2318  0.1899  0.0496
    1SOL    HW2 9570   4.266   1.335   3.770  0.4208  0.4340 -1.0531
    1SOL    HW3 9571   4.298   1.238   3.659 -0.3753 -1.0747  0.0209
    1SOL    MW4 9572   4.284   1.254   3.743  0.1764  0.0551 -0.0997
    1SOL     OW 9573   4.251   1.512   3.866 -0.0949  0.3725  0.0908
    1SOL    HW2 9574   4.189   1.571   3.822 -0.3219  0.0618 -0.0159
    1SOL    HW3 9575   4.337   1.551   3.850 -0.1857  0.3359 -0.5274
    1SOL    MW4 9576   4.254   1.525   3.858 -0.1369  0.3266 -0.0050
    1SOL     OW 9577   4.046   1.682   3.767 -0.5053 -0.6202 -0.0574
    1SOL    HW2 9578   4.024   1.767   3.804 -1.1130 -1.0287  0.5207
    1SOL    HW3 9579   3.975   1.624   3.795  0.2132 -1.4552  0.0723
    1SOL    MW4 9580   4.034   1.686   3.776 -0.4907 -0.7842  0.0360
    1SOL     OW 9581   4.045   1.941   3.845  0.7531  0.2249  0.0407
    1SOL    HW2 9582   4.076   1.933   3.935  0.8242 -0.0986 -0.0125
    1SOL    HW3 9583   4.124   1.956   3.793  0.5599  2.1048  0.2280
    1SOL    MW4 9584   4.060   1.942   3.850  0.7372  0.4302  0.0584
    1SOL     OW 9585   4.277   2.019   3.711 -0.4038 -0.5756  0.3742
    1SOL    HW2 9586   4.280   2.100   3.762 -0.5467 -0.3668  0.0491
    1SOL    HW3 9587   4.270   2.047   3.621  0.3303 -0.9417  0.1914
    1SOL    MW4 9588   4.277   2.033   3.706 -0.3262 -0.5963  0.3071
    1SOL     OW 9589   4.245   2.250   3.855 -0.0294 -0.5184 -0.5019
    1SOL    HW2 9590   4.251   2.273   3.948  0.8680 -0.3691 -0.5953
    1SOL    HW3 9591   4.175   2.307   3.822 -0.6520 -0.8827  0.1728
    1SOL    MW4 9592   4.237   2.261   3.863  0.0072 -0.5465 -0.4251
    1SOL     OW 9593   4.038   2.407   3.755  0.3037  0.1949  0.6675
    1SOL    HW2 9594   4.021   2.490   3.798  2.7552 -0.6491  3.4278
    1SOL    HW3 9595   3.970   2.348   3.787  0.2082  0.4106  0.8596
    1SOL    MW4 9596   4.027   2.410   3.765  0.6137  0.1118  1.0574
    1SOL     OW 9597   4.048   2.676   3.862 -0.1017 -1.1026  0.0003
    1SOL    HW2 9598   4.061   2.714   3.948 -3.2941  0.7991 -0.3034
    1SOL    HW3 9599   4.107   2.725   3.805  0.1450 -0.6461  0.6474
    1SOL    MW4 9600   4.058   2.687   3.865 -0.4907 -0.7913  0.0455
    1SOL     OW 9601   4.259   2.839   3.753  0.1436  0.3458 -0.1117
    1SOL    HW2 9602   4.271   2.930   3.781 -0.7215  0.3075  0.4068
    1SOL    HW3 9603   4.338   2.794   3.783 -0.4442  0.4524  1.6515
    1SOL    MW4 9604   4.271   2.845   3.761 -0.0482  0.3550  0.1891
    1SOL     OW 9605   4.252   3.096   3.879 -0.6817 -0.3157  0.1933
    1SOL    HW2 9606   4.186   3.158   3.847  1.2169  2.8956  2.1438
    1SOL    HW3 9607   4.335   3.132   3.848  0.5066 -1.6456  1.7587
    1SOL    MW4 9608   4.254   3.109   3.871 -0.2742 -0.0677  0.6573
    1SOL     OW 9609   4.018   3.217   3.804  0.0583  0.1806 -0.0785
    1SOL    HW2 9610   3.956   3.150   3.834 -0.2522 -0.0703 -1.2251
    1SOL    HW3 9611   3.992   3.233   3.713  0.9151  0.9645 -0.1876
    1SOL    MW4 9612   4.006   3.210   3.796  0.1302  0.2511 -0.2441
    1SOL     OW 9613   4.065   3.485   3.847  0.1602 -0.5087  0.1479
    1SOL    HW2 9614   4.043   3.392   3.842 -1.1748 -0.2296  0.6527
    1SOL    HW3 9615   3.984   3.530   3.826  0.5277  0.5527  0.9481
    1SOL    MW4 9616   4.052   3.478   3.843  0.0329 -0.3321  0.3200
    1SOL     OW 9617   4.288   3.601   3.748  0.4140  0.3183  0.2204
    1SOL    HW2 9618   4.208   3.560   3.780  0.3970  0.5847  0.5190
    1SOL    HW3 9619   4.359   3.559   3.798  0.2441  2.0196  1.9006
    1SOL    MW4 9620   4.287   3.590   3.759  0.3891  0.5782  0.4811
    1SOL     OW 9621   4.271   3.842   3.867  0.1794 -0.0342 -0.1778
    1SOL    HW2 9622   4.194   3.885   3.830  0.2585 -0.5378 -0.9301
    1SOL    HW3 9623   4.268   3.753   3.832  1.8857  0.3634 -1.3703
    1SOL    MW4 9624   4.260   3.836   3.858  0.4148 -0.0484 -0.4346
    1SOL     OW 9625   4.041   3.985   3.775 -0.6614 -0.3332  0.4234
    1SOL    HW2 9626   4.019   4.075   3.798  0.8639  0.0326  0.5551
    1SOL    HW3 9627   4.072   3.990   3.685 -1.3098 -0.8591  0.1678
    1SOL    MW4 9628   4.043   3.997   3.766 -0.5460 -0.3545  0.4072
    1SOL     OW 9629   3.995   4.256   3.841  0.1257 -0.2145  0.3351
    1SOL    HW2 9630   3.998   4.242   3.936 -1.1795  1.5806  0.6697
    1SOL    HW3 9631   4.081   4.291   3.819  0.4339 -0.6369  0.8516
    1SOL    MW4 9632   4.007   4.259   3.851 -0.0057 -0.0334  0.4475
    1SOL     OW 9633   4.261   4.370   3.742 -0.0262 -0.3043  0.1975
    1SOL    HW2 9634   4.257   4.460   3.774  2.1889 -0.0367 -0.1504
    1SOL    HW3 9635   4.324   4.327   3.801  1.8656 -0.5642 -1.9311
    1SOL    MW4 9636   4.269   4.377   3.754  0.5155 -0.3033 -0.1295
    1SOL     OW 9637   3.626   1.434   4.541 -0.0986 -0.1402 -0.0648
    1SOL    HW2 9638   3.690   1.375   4.502  0.2007 -1.2826  2.0526
    1SOL    HW3 9639   3.542   1.391   4.527 -0.0864 -0.1171 -0.2091
    1SOL    MW4 9640   3.624   1.421   4.534 -0.0575 -0.2880  0.1960
    1SOL     OW 9641   4.001   4.235   4.117  0.0491 -0.1799 -0.5288
    1SOL    HW2 9642   4.012   4.154   4.168  0.7600 -0.3310 -0.9179
    1SOL    HW3 9643   3.936   4.285   4.166 -0.1209 -0.8261 -0.0805
    1SOL    MW4 9644   3.994   4.231   4.130  0.1206 -0.2847 -0.5212
    1SOL     OW 9645   2.005   0.317   4.604 -0.0504 -0.0695 -0.8785
    1SOL    HW2 9646   1.929   0.268   4.574 -0.8333  0.0018  0.9602
    1SOL    HW3 9647   1.980   0.409   4.593 -0.1671 -0.0469 -0.4043
    1SOL    MW4 9648   1.992   0.323   4.598 -0.1692 -0.0572 -0.5736
    1SOL     OW 9649   0.644   0.760   4.197 -0.3474  0.1836 -0.0981
    1SOL    HW2 9650   0.719   0.819   4.209  0.7799 -1.2663  0.0864
    1SOL    HW3 9651   0.644   0.741   4.103  1.1657 -1.9419  0.3080
    1SOL    MW4 9652   0.654   0.765   4.186  0.0010 -0.2881 -0.0200
    1SOL     OW 9653   4.218   0.768   4.092 -0.7340 -0.3220  0.1625
    1SOL    HW2 9654   4.220   0.780   3.997 -0.4408  1.1299  0.3436
    1SOL    HW3 9655   4.304   0.796   4.122 -0.0689 -2.7809  0.6557
    1SOL    MW4 9656   4.230   0.773   4.083 -0.6075 -0.4548  0.2518
    1SOL     OW 9657   2.034   2.203   4.447  0.1046 -0.3770  0.0509
    1SOL    HW2 9658   2.017   2.205   4.541 -0.3446 -1.1471 -0.0116
    1SOL    HW3 9659   2.118   2.249   4.437  0.4993 -0.9032  0.9031
    1SOL    MW4 9660   2.043   2.210   4.458  0.0973 -0.5479  0.1554
    1SOL     OW 9661   0.034   1.135   4.130 -0.1134 -0.0811 -0.2973
    1SOL    HW2 9662  -0.053   1.166   4.156  0.2981  1.8029 -1.0317
    1SOL    HW3 9663   0.095   1.188   4.183  0.6017 -1.1702 -0.0054
    1SOL    MW4 9664   0.031   1.146   4.141  0.0352  0.0236 -0.3562
    1SOL     OW 9665   1.125   2.829   4.303 -0.1677  0.0497  0.0817
    1SOL    HW2 9666   1.132   2.913   4.258  0.5179  0.0288  0.1405
    1SOL    HW3 9667   1.111   2.852   4.395  0.5439  0.1109  0.1809
    1SOL    MW4 9668   1.124   2.843   4.309  0.0166  0.0548  0.1020
    1SOL     OW 9669   0.570   4.213   4.507  0.0351 -0.0996  0.0554
    1SOL    HW2 9670   0.485   4.256   4.499  0.0249 -0.0823  0.2754
    1SOL    HW3 9671   0.552   4.132   4.555 -0.1164 -0.8341 -1.1932
    1SOL    MW4 9672   0.556   4.208   4.512  0.0138 -0.1945 -0.0801
    1SOL     OW 9673   3.115   3.602   4.477 -0.3697 -0.4731 -0.1174
    1SOL    HW2 9674   3.210   3.599   4.486  0.0033 -0.7552 -3.4149
    1SOL    HW3 9675   3.085   3.520   4.516  0.6783 -0.2485  1.2125
    1SOL    MW4 9676   3.123   3.591   4.483 -0.1822 -0.4809 -0.3767
    1SOL     OW 9677   0.412   3.536   4.631  0.2166 -0.1040  0.1286
    1SOL    HW2 9678   0.466   3.601   4.587  0.2091  0.9422  1.6177
    1SOL    HW3 9679   0.324   3.574   4.629  0.0250 -0.5446  0.1233
    1SOL    MW4 9680   0.407   3.550   4.625  0.1904 -0.0241  0.3247
    1SOL     OW 9681   1.333   4.022   4.167  0.3222 -0.6751 -0.0337
    1SOL    HW2 9682   1.386   3.948   4.137  1.4583  0.1787 -0.1976
    1SOL    HW3 9683   1.358   4.035   4.258 -0.2125 -0.7821  0.1287
    1SOL    MW4 9684   1.343   4.014   4.175  0.4014 -0.5770 -0.0343
    1SOL     OW 9685   0.262   2.335   4.125  0.0968  0.0596 -0.1320
    1SOL    HW2 9686   0.243   2.249   4.163 -0.9807  0.9269  1.3342
    1SOL    HW3 9687   0.342   2.364   4.168  0.2628 -0.0341 -0.3708
    1SOL    MW4 9688   0.270   2.327   4.135 -0.0235  0.1616  0.0300
    1SOL     OW 9689   1.083   4.373   4.230  0.1640 -0.0681  0.3449
    1SOL    HW2 9690   1.075   4.382   4.325  1.0386  2.8616  0.1882
    1SOL    HW3 9691   1.163   4.322   4.217  0.6276  0.4427  1.1694
    1SOL    MW4 9692   1.092   4.368   4.241  0.3406  0.3858  0.4334
    1SOL     OW 9693   4.225   4.389   4.230  0.0456  0.1468  0.2718
    1SOL    HW2 9694   4.231   4.478   4.194  0.7612 -0.2107 -0.5081
    1SOL    HW3 9695   4.160   4.346   4.176 -0.3276  0.2045  0.6740
    1SOL    MW4 9696   4.217   4.395   4.218  0.0906  0.1073  0.2222
    1SOL     OW 9697   4.281   2.178   4.343 -0.0211  0.3404  0.4151
    1SOL    HW2 9698   4.223   2.180   4.419  1.7934 -1.4595  1.8914
    1SOL    HW3 9699   4.289   2.085   4.321 -1.0699  0.8452 -2.4715
    1SOL    MW4 9700   4.274   2.166   4.350  0.0796  0.1693  0.2289
    1SOL     OW 9701   0.288   2.851   4.220 -0.1855  0.0081  0.2489
    1SOL    HW2 9702   0.292   2.933   4.171  0.3955 -0.4909 -0.5214
    1SOL    HW3 9703   0.206   2.810   4.192 -0.0282 -0.1091 -0.0335
    1SOL    MW4 9704   0.277   2.857   4.210 -0.0880 -0.0730  0.1092
    1SOL     OW 9705   2.124   1.463   4.654 -0.1741 -0.4553  0.4881
    1SOL    HW2 9706   2.048   1.518   4.636 -0.1586 -0.3111  0.8567
    1SOL    HW3 9707   2.199   1.521   4.639 -0.0683 -1.1231 -1.7202
    1SOL    MW4 9708   2.124   1.478   4.649 -0.1578 -0.5244  0.2451
    1SOL     OW 9709   4.313   3.072   4.150 -0.1106 -0.1136 -0.0374
    1SOL    HW2 9710   4.396   3.112   4.177  0.2723 -0.3981 -0.7872
    1SOL    HW3 9711   4.312   3.082   4.055 -1.4088  0.7922  0.0667
    1SOL    MW4 9712   4.324   3.079   4.141 -0.2313 -0.0317 -0.1230
    1SOL     OW 9713   3.335   2.773   4.503  0.0157  0.0519  0.0113
    1SOL    HW2 9714   3.357   2.864   4.521  0.1282 -0.3030  1.7475
    1SOL    HW3 9715   3.410   2.723   4.534 -0.3595 -0.6819 -0.2508
    1SOL    MW4 9716   3.348   2.778   4.510 -0.0186 -0.0918  0.2060
    1SOL     OW 9717   1.947   1.157   4.394  0.2075 -0.1995  0.3774
    1SOL    HW2 9718   1.958   1.238   4.345  2.8162 -2.4351 -2.9871
    1SOL    HW3 9719   1.995   1.171   4.476 -0.5215  2.0894  0.4239
    1SOL    MW4 9720   1.955   1.169   4.399  0.4555 -0.1924 -0.0606
    1SOL     OW 9721   0.653   1.707   4.781  0.0207 -0.3209 -0.0908
    1SOL    HW2 9722   0.725   1.764   4.754  0.3389 -1.0604 -0.8008
    1SOL    HW3 9723   0.619   1.748   4.861  0.0454  1.0475 -0.7546
    1SOL    MW4 9724   0.658   1.720   4.788  0.0659 -0.2379 -0.2728
    1SOL     OW 9725   0.224   4.411   4.243  0.5255 -0.4100 -0.1030
    1SOL    HW2 9726   0.250   4.387   4.332  1.8903 -1.9613 -0.9130
    1SOL    HW3 9727   0.145   4.360   4.227  1.3103 -1.5269 -0.4440
    1SOL    MW4 9728   0.217   4.401   4.253  0.8091 -0.7625 -0.2546
    1SOL     OW 9729   3.192   1.228   4.070  0.0143  0.3460 -0.0883
    1SOL    HW2 9730   3.171   1.224   3.977 -0.8037  0.4062  0.0856
    1SOL    HW3 9731   3.129   1.291   4.106 -0.0426 -0.0967  0.6013
    1SOL    MW4 9732   3.181   1.236   4.063 -0.1011  0.2955  0.0253
    1SOL     OW 9733   0.826   1.149   4.596 -0.3322 -0.4511  0.0678
    1SOL    HW2 9734   0.867   1.067   4.569 -0.2163 -0.6309  0.7800
    1SOL    HW3 9735   0.890   1.191   4.653 -1.7982 -1.5786  2.6462
    1SOL    MW4 9736   0.840   1.144   4.600 -0.5103 -0.6236  0.5016
    1SOL     OW 9737   0.521   0.003   4.089  0.0239 -0.1242 -0.0480
    1SOL    HW2 9738   0.579  -0.015   4.163  0.1213  0.6006  0.0522
    1SOL    HW3 9739   0.578  -0.001   4.012  0.2336  0.7528  0.0658
    1SOL    MW4 9740   0.536  -0.000   4.088  0.0645  0.0872 -0.0200
    1SOL     OW 9741   0.466   0.296   4.106  0.1016 -0.1010 -0.3339
    1SOL    HW2 9742   0.452   0.319   4.014  0.5466  1.5701  0.0024
    1SOL    HW3 9743   0.469   0.201   4.106  0.9892 -0.0973 -2.1799
    1SOL    MW4 9744   0.464   0.287   4.094  0.2774  0.1200 -0.5331
    1SOL     OW 9745   0.854   0.913   4.290  0.4836 -0.4413 -0.1356
    1SOL    HW2 9746   0.863   1.005   4.265 -0.0918 -0.4728 -0.4607
    1SOL    HW3 9747   0.888   0.909   4.379 -1.6635  0.5356  0.7555
    1SOL    MW4 9748   0.860   0.925   4.298  0.1244 -0.3166 -0.0606
    1SOL     OW 9749   4.112   0.559   4.515  0.3079 -0.1507  0.3129
    1SOL    HW2 9750   4.207   0.564   4.526  0.3512  0.0514 -0.1077
    1SOL    HW3 9751   4.086   0.649   4.493 -0.0137 -0.1550  0.6790
    1SOL    MW4 9752   4.121   0.572   4.513  0.2708 -0.1245  0.3057
    1SOL     OW 9753   2.763   2.116   4.535 -0.0637  0.4447  0.0285
    1SOL    HW2 9754   2.813   2.134   4.455  0.0580  0.0579  0.0187
    1SOL    HW3 9755   2.694   2.182   4.535 -0.4546  0.0501 -0.7333
    1SOL    MW4 9756   2.760   2.127   4.524 -0.0994  0.3414 -0.0730
    1SOL     OW 9757   0.668   1.582   4.158 -0.1928 -0.1940  0.4828
    1SOL    HW2 9758   0.621   1.508   4.197 -0.7492 -0.1304 -0.0746
    1SOL    HW3 9759   0.663   1.567   4.064  0.2828  0.1973  0.3960
    1SOL    MW4 9760   0.661   1.570   4.151 -0.2035 -0.1340  0.3977
    1SOL     OW 9761   0.213   0.730   4.054  0.4714  0.3144  0.0462
    1SOL    HW2 9762   0.228   0.644   4.094  0.4262 -0.2788 -1.2098
    1SOL    HW3 9763   0.144   0.769   4.107  0.5615 -0.3784  0.6845
    1SOL    MW4 9764   0.206   0.724   4.067  0.4773  0.1447 -0.0353
    1SOL     OW 9765   0.557   2.436   4.490 -0.0876 -0.2673  0.0983
    1SOL    HW2 9766   0.628   2.492   4.521  0.5039 -1.1914  0.4030
    1SOL    HW3 9767   0.597   2.351   4.474 -1.1344 -0.8152  0.3130
    1SOL    MW4 9768   0.571   2.432   4.492 -0.1476 -0.4616  0.1664
    1SOL     OW 9769   3.752   1.016   4.602  0.2734  0.0107  0.8466
    1SOL    HW2 9770   3.785   1.084   4.543  0.1287  0.7955  1.6608
    1SOL    HW3 9771   3.681   0.974   4.553  0.7782  0.0249  0.0939
    1SOL    MW4 9772   3.747   1.020   4.588  0.3209  0.1161  0.8545
    1SOL     OW 9773   0.423   1.957   4.158  0.2396 -0.0653  0.0838
    1SOL    HW2 9774   0.512   1.989   4.176 -0.3951  1.7220  0.1963
    1SOL    HW3 9775   0.412   1.968   4.064 -0.1155  0.4205  0.1797
    1SOL    MW4 9776   0.433   1.963   4.148  0.1090  0.2347  0.1116
    1SOL     OW 9777   1.799   3.162   4.522 -0.1902  0.1193  0.0644
    1SOL    HW2 9778   1.871   3.100   4.524 -0.3102 -0.0552 -0.8403
    1SOL    HW3 9779   1.788   3.184   4.429  0.2963  2.0055  0.4233
    1SOL    MW4 9780   1.807   3.157   4.510 -0.1420  0.3452 -0.0076
    1SOL     OW 9781   0.702   2.302   4.109 -0.1778 -0.1694  0.5293
    1SOL    HW2 9782   0.632   2.349   4.152 -0.8491 -0.5421 -0.1398
    1SOL    HW3 9783   0.689   2.320   4.016 -0.0873 -1.1834  0.3155
    1SOL    MW4 9784   0.691   2.310   4.102 -0.2545 -0.3521  0.4134
    1SOL     OW 9785   1.821   3.419   4.660 -0.2783 -0.0071 -0.3185
    1SOL    HW2 9786   1.829   3.333   4.619 -0.4059  0.3092 -1.0035
    1SOL    HW3 9787   1.883   3.474   4.613 -0.7675  0.4742 -0.3904
    1SOL    MW4 9788   1.830   3.415   4.649 -0.3597  0.0980 -0.4187
    1SOL     OW 9789   0.699   2.894   4.234  0.5727 -0.1776 -0.2962
    1SOL    HW2 9790   0.778   2.844   4.212  0.3569 -0.4708 -0.4079
    1SOL    HW3 9791   0.627   2.845   4.194  0.3838  0.3638 -0.6164
    1SOL    MW4 9792   0.700   2.881   4.226  0.5193 -0.1447 -0.3533
    1SOL     OW 9793   1.596   2.828   4.257  0.2799 -0.5669  0.2600
    1SOL    HW2 9794   1.590   2.818   4.352  0.1673 -0.1091  0.3035
    1SOL    HW3 9795   1.672   2.775   4.232  1.7410  1.1836  0.8911
    1SOL    MW4 9796   1.605   2.820   4.267  0.4578 -0.2754  0.3490
    1SOL     OW 9797   0.698   3.140   4.122 -0.6158 -0.5013 -0.1698
    1SOL    HW2 9798   0.683   3.053   4.157 -0.1349 -0.6151 -0.2500
    1SOL    HW3 9799   0.617   3.188   4.141 -1.0187 -1.0661 -0.4419
    1SOL    MW4 9800   0.685   3.135   4.129 -0.6055 -0.5908 -0.2165
    1SOL     OW 9801   0.063   3.216   4.209  0.2456  0.3015 -0.5008
    1SOL    HW2 9802   0.030   3.305   4.197 -1.5219 -0.4139 -0.9663
    1SOL    HW3 9803   0.079   3.210   4.304 -0.7487  0.7277 -0.2990
    1SOL    MW4 9804   0.061   3.227   4.220 -0.1188  0.2632 -0.5360
    1SOL     OW 9805   0.826   1.303   4.372  0.1600 -0.2489  0.2569
    1SOL    HW2 9806   0.743   1.318   4.326  0.6946 -1.4582 -1.1390
    1SOL    HW3 9807   0.801   1.254   4.450 -0.8054  2.1119  1.4813
    1SOL    MW4 9808   0.811   1.299   4.376  0.1032 -0.0970  0.2346
    1SOL     OW 9809   3.787   3.619   4.540 -0.5503  0.5120 -0.3620
    1SOL    HW2 9810   3.819   3.614   4.450  0.5454  0.6500  0.0060
    1SOL    HW3 9811   3.802   3.532   4.576 -0.8622  0.4957 -0.2693
    1SOL    MW4 9812   3.793   3.607   4.533 -0.4466  0.5281 -0.3009
    1SOL     OW 9813   0.688   3.675   4.263  0.0808 -0.0512 -0.0556
    1SOL    HW2 9814   0.765   3.638   4.219 -0.2493 -0.1706 -0.5412
    1SOL    HW3 9815   0.714   3.765   4.284  0.6632 -0.3588  0.5740
    1SOL    MW4 9816   0.702   3.682   4.260  0.1141 -0.1075 -0.0362
    1SOL     OW 9817   2.272   0.313   4.487  0.0863  0.4697 -0.2359
    1SOL    HW2 9818   2.190   0.310   4.536  0.8244 -0.4747  0.9594
    1SOL    HW3 9819   2.275   0.401   4.450 -1.8292  0.2526 -0.9177
    1SOL    MW4 9820   2.262   0.324   4.489 -0.0691  0.3164 -0.1678
    1SOL     OW 9821   4.322   0.955   4.629  0.0398  0.5489  0.6852
    1SOL    HW2 9822   4.340   0.950   4.723 -1.8071 -0.3430  1.0124
    1SOL    HW3 9823   4.231   0.927   4.620  0.1456  0.7644 -1.3601
    1SOL    MW4 9824   4.313   0.950   4.640 -0.1898  0.4596  0.4587
    1SOL     OW 9825   0.327   4.327   4.505  0.5283 -0.4867 -0.3108
    1SOL    HW2 9826   0.268   4.384   4.555  0.5029  1.1440 -2.1390
    1SOL    HW3 9827   0.296   4.239   4.524 -2.5621  0.3206 -1.2177
    1SOL    MW4 9828   0.315   4.323   4.514  0.1172 -0.1655 -0.6719
    1SOL     OW 9829   1.137   4.644   4.131  0.1350  0.1130 -0.6243
    1SOL    HW2 9830   1.127   4.549   4.139  1.1601  0.0718  0.5039
    1SOL    HW3 9831   1.125   4.663   4.038 -0.9556 -1.0112 -0.7118
    1SOL    MW4 9832   1.134   4.634   4.120  0.1262 -0.0405 -0.4869
    1SOL     OW 9833   0.907   0.094   4.263  0.3623 -0.2964  0.2829
    1SOL    HW2 9834   0.904   0.174   4.210  0.1908 -0.0237  0.7062
    1SOL    HW3 9835   0.976   0.041   4.223  2.2102  1.1401  1.5276
    1SOL    MW4 9836   0.916   0.097   4.250  0.5835 -0.0709  0.5026
    1SOL     OW 9837   1.093   4.108   4.543  0.1274 -0.2497  0.2967
    1SOL    HW2 9838   1.097   4.203   4.530  0.9086 -0.1397  1.2924
    1SOL    HW3 9839   1.114   4.096   4.635 -2.5503 -1.2223  0.8115
    1SOL    MW4 9840   1.097   4.119   4.553 -0.1229 -0.3638  0.4959
    1SOL     OW 9841   0.409   1.671   4.156  0.1004 -0.0091 -0.3588
    1SOL    HW2 9842   0.496   1.632   4.155  0.3713  0.5391  0.9657
    1SOL    HW3 9843   0.424   1.764   4.142 -0.2808  0.0760 -0.2070
    1SOL    MW4 9844   0.422   1.678   4.154  0.0859  0.0744 -0.1640
    1SOL     OW 9845   1.074   0.778   4.176  0.3133  0.0158  0.0429
    1SOL    HW2 9846   1.138   0.841   4.210 -0.5165  1.0689 -0.3525
    1SOL    HW3 9847   0.990   0.809   4.208 -0.1409 -0.6872 -0.4641
    1SOL    MW4 9848   1.072   0.790   4.185  0.1440  0.0620 -0.0758
    1SOL     OW 9849   1.591   0.499   4.508  0.0822 -0.3536  0.3901
    1SOL    HW2 9850   1.632   0.572   4.555  0.6113 -0.8672  0.7379
    1SOL    HW3 9851   1.661   0.433   4.501  0.2289  0.0246 -1.8123
    1SOL    MW4 9852   1.606   0.500   4.513  0.1714 -0.3715  0.1454
    1SOL     OW 9853   0.924   1.176   4.149  0.3381  0.3006  0.0464
    1SOL    HW2 9854   0.873   1.213   4.221 -1.4282 -0.6719 -0.6949
    1SOL    HW3 9855   1.001   1.232   4.143 -0.0973  1.1208  1.8990
    1SOL    MW4 9856   0.928   1.188   4.158  0.0476  0.2806  0.1931
    1SOL     OW 9857   0.120   1.572   4.458 -0.0553 -0.0983  0.2937
    1SOL    HW2 9858   0.105   1.492   4.509 -0.5821  0.4254  0.9760
    1SOL    HW3 9859   0.205   1.603   4.489  0.2112 -0.4686 -0.0678
    1SOL    MW4 9860   0.129   1.566   4.469 -0.0896 -0.0781  0.3362
    1SOL     OW 9861   4.094   4.024   4.534 -0.0832  0.3438  0.0033
    1SOL    HW2 9862   4.179   4.041   4.574 -0.0120  0.5067 -0.2160
    1SOL    HW3 9863   4.072   3.934   4.560  0.0794  0.3582  0.1920
    1SOL    MW4 9864   4.102   4.015   4.543 -0.0520  0.3672 -0.0010
    1SOL     OW 9865   1.181   3.550   4.531  0.0449  0.1361 -0.3481
    1SOL    HW2 9866   1.176   3.573   4.439  0.5976  0.1324 -0.3839
    1SOL    HW3 9867   1.136   3.621   4.576  0.4224  0.5222 -0.5698
    1SOL    MW4 9868   1.174   3.563   4.525  0.1677  0.1867 -0.3815
    1SOL     OW 9869   0.630   2.164   4.467 -0.4425  0.3510  0.0558
    1SOL    HW2 9870   0.718   2.168   4.505 -0.5604  1.4085  0.2429
    1SOL    HW3 9871   0.645   2.140   4.375 -0.0223 -0.3204  0.2950
    1SOL    MW4 9872   0.644   2.162   4.460 -0.4026  0.4017  0.1121
    1SOL     OW 9873   0.881   1.928   4.054 -0.0940  0.4041 -0.2501
    1SOL    HW2 9874   0.944   1.974   4.108  0.7132  0.3360 -1.1121
    1SOL    HW3 9875   0.878   1.978   3.972  1.3540 -1.4570 -1.4828
    1SOL    MW4 9876   0.889   1.941   4.050  0.2035  0.1496 -0.5264
    1SOL     OW 9877   2.629   2.519   4.374 -0.0272 -0.0922  0.7547
    1SOL    HW2 9878   2.649   2.457   4.304  0.3064  0.2878  0.5146
    1SOL    HW3 9879   2.533   2.519   4.378 -0.1196  1.1591 -0.8560
    1SOL    MW4 9880   2.619   2.511   4.365  0.0045  0.1230  0.5102
    1SOL     OW 9881   0.292   4.031   4.538 -0.1347 -0.0336  0.2759
    1SOL    HW2 9882   0.333   4.017   4.453  0.2853  2.2894  0.0791
    1SOL    HW3 9883   0.217   3.972   4.538  1.1655 -1.7472 -0.7673
    1SOL    MW4 9884   0.288   4.021   4.527  0.0923  0.0467  0.1125
    1SOL     OW 9885   0.928   2.729   4.136 -0.2799 -0.1379 -0.0367
    1SOL    HW2 9886   0.915   2.646   4.181  0.0438 -0.5554 -0.7137
    1SOL    HW3 9887   0.997   2.773   4.185 -1.8025  0.6053  1.5164
    1SOL    MW4 9888   0.935   2.724   4.148 -0.4380 -0.0951  0.0787
    1SOL     OW 9889   1.228   3.875   4.770  0.2792 -0.4090  0.2367
    1SOL    HW2 9890   1.312   3.858   4.728 -0.4557 -0.6951 -1.1518
    1SOL    HW3 9891   1.237   3.963   4.806  1.3814 -0.6733  0.6341
    1SOL    MW4 9892   1.240   3.884   4.769  0.3278 -0.4816  0.1059
    1SOL     OW 9893   1.100   3.077   4.189 -0.3748 -0.0419 -0.0086
    1SOL    HW2 9894   1.092   3.102   4.097 -0.1571  1.0041  0.2547
    1SOL    HW3 9895   1.022   3.112   4.230 -0.2179 -0.0549  0.3009
    1SOL    MW4 9896   1.089   3.085   4.182 -0.3254  0.0942  0.0672
    1SOL     OW 9897   3.542   0.132   4.182 -0.1431 -0.0175  0.5251
    1SOL    HW2 9898   3.636   0.123   4.163  0.3884  0.4928  2.7580
    1SOL    HW3 9899   3.521   0.221   4.154  0.0336 -0.1216  0.0443
    1SOL    MW4 9900   3.552   0.142   4.175 -0.0496  0.0361  0.7563
    1SOL     OW 9901   0.200   3.649   4.250 -0.0350  0.1573 -0.3440
    1SOL    HW2 9902   0.199   3.727   4.195 -1.3684 -0.1427 -0.7482
    1SOL    HW3 9903   0.289   3.614   4.239  1.0035  2.2984  0.8287
    1SOL    MW4 9904   0.212   3.655   4.241 -0.0739  0.4001 -0.2432
    1SOL     OW 9905   4.046   2.715   4.123 -0.4904 -0.1883  0.1018
    1SOL    HW2 9906   4.042   2.624   4.154 -1.0628  0.2078  1.2291
    1SOL    HW3 9907   3.976   2.760   4.171 -0.5093  0.7498 -0.7871
    1SOL    MW4 9908   4.036   2.709   4.134 -0.5689 -0.0122  0.1330
    1SOL     OW 9909   2.013   2.845   4.277 -0.4136 -0.0589 -0.2297
    1SOL    HW2 9910   1.950   2.783   4.239 -0.0287 -0.9087  0.4957
    1SOL    HW3 9911   2.098   2.814   4.246 -0.1969 -0.0802  0.3731
    1SOL    MW4 9912   2.016   2.832   4.268 -0.3343 -0.1736 -0.0548
    1SOL     OW 9913   0.465   3.272   4.230  0.2359 -0.3239 -0.1452
    1SOL    HW2 9914   0.453   3.366   4.216 -0.6237 -0.1769  1.4199
    1SOL    HW3 9915   0.479   3.264   4.325 -1.0200 -1.8862 -0.0685
    1SOL    MW4 9916   0.465   3.284   4.241 -0.0432 -0.5107  0.0715
    1SOL     OW 9917   0.884   4.225   4.088 -0.1695 -0.2703  0.1281
    1SOL    HW2 9918   0.801   4.235   4.135 -0.6902 -0.7826 -0.6824
    1SOL    HW3 9919   0.948   4.271   4.143 -1.2089  1.2179  0.1032
    1SOL    MW4 9920   0.882   4.232   4.102 -0.3753 -0.1416  0.0181
    1SOL     OW 9921   1.369   4.565   4.780 -0.2733  0.1698  0.1353
    1SOL    HW2 9922   1.447   4.615   4.755 -0.7802  0.5837 -0.6406
    1SOL    HW3 9923   1.297   4.612   4.740 -0.8441 -0.7165  0.1119
    1SOL    MW4 9924   1.370   4.578   4.771 -0.4154  0.1073  0.0296
    1SOL     OW 9925   2.685   4.015   4.234  0.5056  0.4322  0.2012
    1SOL    HW2 9926   2.689   3.974   4.321  1.1535  1.1017  0.4927
    1SOL    HW3 9927   2.599   3.992   4.201 -0.2402  1.2066  1.5418
    1SOL    MW4 9928   2.674   4.006   4.241  0.4926  0.6223  0.4168
    1SOL     OW 9929   1.340   0.133   4.226 -0.0725 -0.1795 -0.2533
    1SOL    HW2 9930   1.327   0.213   4.176  0.7061  0.8031  1.0966
    1SOL    HW3 9931   1.272   0.073   4.194 -0.1551  0.7354 -1.8288
    1SOL    MW4 9932   1.329   0.135   4.215  0.0192  0.0709 -0.2832
    1SOL     OW 9933   1.300   0.376   4.126 -0.2648 -0.2518  0.5377
    1SOL    HW2 9934   1.372   0.431   4.156  0.2919  0.2239 -1.5435
    1SOL    HW3 9935   1.224   0.409   4.173  0.4696  0.7787  1.0402
    1SOL    MW4 9936   1.300   0.388   4.136 -0.0945 -0.0531  0.3295
    1SOL     OW 9937   1.559   3.503   4.736 -0.1167 -0.2274  0.5714
    1SOL    HW2 9938   1.650   3.473   4.729 -0.4723 -1.5269  1.4495
    1SOL    HW3 9939   1.558   3.555   4.817 -0.0546  0.1464  0.3318
    1SOL    MW4 9940   1.571   3.506   4.746 -0.1552 -0.3495  0.6561
    1SOL     OW 9941   2.558   2.305   4.517  0.3184  0.0139 -0.1570
    1SOL    HW2 9942   2.593   2.385   4.479  1.5261 -0.3345  0.1733
    1SOL    HW3 9943   2.466   2.302   4.490 -0.1137  2.2053  0.9741
    1SOL    MW4 9944   2.551   2.315   4.509  0.4208  0.2573  0.0358
    1SOL     OW 9945   1.950   4.426   4.492  0.2235 -0.1015 -0.0230
    1SOL    HW2 9946   1.959   4.409   4.398 -1.1443  0.1049 -0.2016
    1SOL    HW3 9947   1.860   4.456   4.502  1.1356  2.4209  0.9801
    1SOL    MW4 9948   1.939   4.427   4.481  0.1633  0.2589  0.0858
    1SOL     OW 9949   0.904   3.272   4.252  0.6284 -0.1447  0.0643
    1SOL    HW2 9950   0.912   3.243   4.342  0.2388  0.7976  0.4049
    1SOL    HW3 9951   0.824   3.230   4.220  0.7217 -0.4099  0.1759
    1SOL    MW4 9952   0.895   3.263   4.259  0.5893 -0.0553  0.1245
    1SOL     OW 9953   1.348   1.147   4.134  0.4187  0.3666  0.1877
    1SOL    HW2 9954   1.436   1.184   4.140  0.2163  0.8257  0.3957
    1SOL    HW3 9955   1.326   1.152   4.041  0.0258  1.6659  0.3306
    1SOL    MW4 9956   1.357   1.152   4.122  0.3402  0.5987  0.2337
    1SOL     OW 9957   3.149   2.555   4.451  0.1114  0.0870 -0.0103
    1SOL    HW2 9958   3.056   2.549   4.471 -0.4802 -0.0100 -2.6441
    1SOL    HW3 9959   3.176   2.639   4.486 -0.2298 -1.1755  3.4675
    1SOL    MW4 9960   3.140   2.565   4.458 -0.0114 -0.0925  0.1011
    1SOL     OW 9961   3.251   4.415   4.558 -0.1459  0.0625  0.3595
    1SOL    HW2 9962   3.169   4.366   4.547 -0.7594  1.3964 -1.2380
    1SOL    HW3 9963   3.223   4.506   4.566  1.2823  0.7425 -2.0343
    1SOL    MW4 9964   3.236   4.421   4.558 -0.0384  0.3281 -0.1669
    1SOL     OW 9965   2.678   2.354   4.135  0.3324  0.3953 -0.1961
    1SOL    HW2 9966   2.632   2.272   4.153  0.7465 -0.2538 -2.0345
    1SOL    HW3 9967   2.615   2.408   4.089  0.2080  0.9587  0.6151
    1SOL    MW4 9968   2.664   2.351   4.132  0.3707  0.3839 -0.3319
    1SOL     OW 9969   1.370   0.106   4.512 -0.1550  0.0472 -0.3096
    1SOL    HW2 9970   1.377   0.196   4.543  1.5797 -0.2873  0.3211
    1SOL    HW3 9971   1.373   0.113   4.416  0.2617  0.6315 -0.2533
    1SOL    MW4 9972   1.371   0.119   4.503  0.1289  0.0801 -0.2189
    1SOL     OW 9973   1.995   0.591   4.547  0.1186 -0.0968  0.7921
    1SOL    HW2 9974   1.981   0.565   4.455  1.7528 -1.9528  1.0274
    1SOL    HW3 9975   2.075   0.642   4.545 -0.5962  1.0435  1.0073
    1SOL    MW4 9976   2.003   0.594   4.534  0.2398 -0.1912  0.8512
    1SOL     OW 9977   1.784   2.721   3.870 -0.5739 -0.2996 -0.5900
    1SOL    HW2 9978   1.703   2.770   3.855 -0.3524  0.0995 -0.5024
    1SOL    HW3 9979   1.773   2.641   3.820 -0.8680 -0.0780 -0.8854
    1SOL    MW4 9980   1.772   2.717   3.861 -0.5835 -0.2177 -0.6173
    1SOL     OW 9981   2.950   3.839   4.534  0.2193  0.5103 -0.2077
    1SOL    HW2 9982   3.021   3.904   4.531  0.0428  0.6897 -0.5183
    1SOL    HW3 9983   2.995   3.755   4.526  0.4448  0.5990  0.1384
    1SOL    MW4 9984   2.965   3.837   4.532  0.2258  0.5457 -0.2036
    1SOL     OW 9985   1.071   2.039   4.215  0.0844 -0.2148 -0.1176
    1SOL    HW2 9986   1.147   1.986   4.193  0.8579  0.8370 -0.0460
    1SOL    HW3 9987   1.065   2.034   4.310 -0.2644 -0.7386 -0.1668
    1SOL    MW4 9988   1.080   2.032   4.225  0.1404 -0.1452 -0.1149
    1SOL     OW 9989   3.577   4.015   4.226 -0.3603 -0.0353  0.5519
    1SOL    HW2 9990   3.657   3.964   4.213  0.0541  1.1068 -1.5425
    1SOL    HW3 9991   3.508   3.964   4.184 -0.0852  0.7250 -0.8402
    1SOL    MW4 9992   3.579   4.001   4.219 -0.2694  0.2155  0.0920
    1SOL     OW 9993   3.066   0.898   4.601 -0.3128  0.1198  0.2093
    1SOL    HW2 9994   3.097   0.813   4.574 -0.9843  0.3558 -1.3597
    1SOL    HW3 9995   3.144   0.952   4.608  0.0011 -0.3257  0.1236
    1SOL    MW4 9996   3.080   0.894   4.598 -0.3598  0.0920 -0.0095
    1SOL     OW 9997   3.262   0.117   4.551  0.2178  0.0653 -0.1490
    1SOL    HW2 9998   3.354   0.126   4.575  0.4421  0.8144 -1.2586
    1SOL    HW3 9999   3.220   0.194   4.587  0.0889 -0.1167  0.0852
    1SOL    MW410000   3.269   0.128   4.559  0.2306  0.1401 -0.2642
    1SOL     OW10001   1.785   0.119   4.242  0.2309  0.0251  0.1678
    1SOL    HW210002   1.855   0.069   4.199 -0.8093  0.6216 -2.3334
    1SOL    HW310003   1.704   0.084   4.206 -0.6536  1.1601  1.0060
    1SOL    MW410004   1.784   0.108   4.231 -0.0230  0.2535 -0.0520
    1SOL     OW10005   0.837   3.948   4.084  0.1817  0.2104 -0.1104
    1SOL    HW210006   0.866   4.039   4.090 -0.1742  0.3513 -0.5256
    1SOL    HW310007   0.905   3.899   4.131  0.8351  0.5927 -0.6331
    1SOL    MW410008   0.850   3.954   4.091  0.2210  0.2792 -0.2346
    1SOL     OW10009   0.704   3.941   4.331 -0.1555  0.2043  0.1785
    1SOL    HW210010   0.761   3.970   4.402 -0.4491 -0.3102  0.6213
    1SOL    HW310011   0.746   3.976   4.252  0.8897 -0.3352  0.4829
    1SOL    MW410012   0.717   3.950   4.330 -0.0564  0.0653  0.2770
    1SOL     OW10013   1.521   0.501   4.249  0.2680  0.1277 -0.2509
    1SOL    HW210014   1.544   0.508   4.342  1.1194 -1.0169 -0.3530
    1SOL    HW310015   1.521   0.591   4.217 -2.0494  0.7238  1.3093
    1SOL    MW410016   1.524   0.514   4.257  0.0745  0.0553 -0.0582
    1SOL     OW10017   1.761   0.250   4.505 -0.2106 -0.2379 -0.2579
    1SOL    HW210018   1.704   0.194   4.557 -1.2307  0.4792 -0.6045
    1SOL    HW310019   1.786   0.196   4.430 -0.7459 -0.4199 -0.3036
    1SOL    MW410020   1.757   0.235   4.502 -0.4158 -0.1673 -0.3099
    1SOL     OW10021   2.000   4.662   4.131 -0.0396  0.1183  0.0016
    1SOL    HW210022   2.065   4.726   4.161  0.0023  0.3316 -0.5428
    1SOL    HW310023   2.012   4.658   4.037  0.6087 -1.4314  0.1445
    1SOL    MW410024   2.010   4.670   4.123  0.0515 -0.0577 -0.0515
    1SOL     OW10025   1.964   0.549   4.275 -0.0279 -0.1244 -0.2627
    1SOL    HW210026   2.044   0.521   4.231  0.8630  0.7271  0.7730
    1SOL    HW310027   1.893   0.505   4.227  0.7739  1.8266 -3.3635
    1SOL    MW410028   1.965   0.539   4.263  0.1954  0.2453 -0.5350
    1SOL     OW10029   1.564   0.008   4.138  0.2123  0.3257 -0.0686
    1SOL    HW210030   1.485   0.055   4.168 -0.5931 -0.2970 -1.1858
    1SOL    HW310031   1.548  -0.083   4.163  1.1878  0.4221  0.9124
    1SOL    MW410032   1.551   0.002   4.145  0.2348  0.2562 -0.0863
    1SOL     OW10033   1.092   0.457   4.520 -0.1606 -0.1249 -0.1245
    1SOL    HW210034   1.187   0.442   4.518 -0.1494 -0.0377 -0.2377
    1SOL    HW310035   1.054   0.369   4.524 -0.0857 -0.1757 -0.4978
    1SOL    MW410036   1.100   0.443   4.520 -0.1493 -0.1201 -0.1884
    1SOL     OW10037   3.812   0.723   4.196  0.0581  0.0843 -0.0783
    1SOL    HW210038   3.740   0.781   4.222  1.2738  1.9818 -0.8199
    1SOL    HW310039   3.814   0.729   4.101  0.3415 -1.0423 -0.1478
    1SOL    MW410040   3.802   0.732   4.187  0.2556  0.1860 -0.1850
    1SOL     OW10041   3.561   0.139   4.478  0.0338 -0.4261 -0.3378
    1SOL    HW210042   3.646   0.098   4.495  0.1203 -0.1614 -0.1207
    1SOL    HW310043   3.555   0.143   4.382  1.2731  1.5708 -0.3791
    1SOL    MW410044   3.572   0.134   4.467  0.2089 -0.1277 -0.3147
    1SOL     OW10045   0.873   1.508   4.570  0.6377  0.5534  0.0674
    1SOL    HW210046   0.895   1.456   4.493  0.7073 -1.1277  1.1781
    1SOL    HW310047   0.778   1.519   4.565  0.3423 -1.3577  0.7944
    1SOL    MW410048   0.863   1.502   4.559  0.6079  0.0794  0.3104
    1SOL     OW10049   1.356   1.973   4.534  0.1899 -0.3785 -0.2949
    1SOL    HW210050   1.426   1.971   4.598 -0.8045 -0.8028  0.8028
    1SOL    HW310051   1.348   1.883   4.503 -1.2949 -0.7905  1.1914
    1SOL    MW410052   1.364   1.961   4.538 -0.1373 -0.4889  0.0458
    1SOL     OW10053   1.532   1.428   4.252  0.4236 -0.0074  0.1810
    1SOL    HW210054   1.517   1.441   4.345 -0.8555  1.4104 -0.1934
    1SOL    HW310055   1.467   1.484   4.209  0.0449 -1.7103 -1.5590
    1SOL    MW410056   1.521   1.437   4.259  0.2048 -0.0449 -0.0982
    1SOL     OW10057   1.686   1.644   4.154 -0.1951  0.3704 -0.6461
    1SOL    HW210058   1.634   1.576   4.197 -0.3800  0.4963 -0.6713
    1SOL    HW310059   1.776   1.614   4.162 -0.1731  0.7207  0.4106
    1SOL    MW410060   1.691   1.631   4.161 -0.2165  0.4333 -0.5097
    1SOL     OW10061   1.108   1.537   4.148 -0.0651 -0.7362  0.0935
    1SOL    HW210062   1.114   1.459   4.204  1.3241  0.0842  1.1119
    1SOL    HW310063   1.039   1.590   4.187 -0.1175 -0.8570  0.1636
    1SOL    MW410064   1.100   1.534   4.161  0.1115 -0.6437  0.2375
    1SOL     OW10065   0.039   2.184   4.462 -0.2218 -0.0112 -0.2520
    1SOL    HW210066  -0.043   2.184   4.413 -0.5140 -0.3326  0.2268
    1SOL    HW310067   0.100   2.135   4.407 -0.3248  0.3118 -0.6523
    1SOL    MW410068   0.037   2.177   4.448 -0.2740 -0.0110 -0.2413
    1SOL     OW10069   3.604   2.656   4.200  0.0067 -0.0962 -0.2261
    1SOL    HW210070   3.607   2.641   4.106 -1.4845 -2.1696  0.0133
    1SOL    HW310071   3.517   2.692   4.216  0.3673  0.5486  0.3294
    1SOL    MW410072   3.593   2.659   4.190 -0.1426 -0.2849 -0.1211
    1SOL     OW10073   3.794   1.980   4.801  0.3512  0.5587 -0.3841
    1SOL    HW210074   3.711   1.968   4.754 -1.6290  0.5598  2.9471
    1SOL    HW310075   3.818   1.892   4.829  0.7273  0.7357 -0.1568
    1SOL    MW410076   3.786   1.967   4.798  0.1395  0.5821  0.0858
    1SOL     OW10077   2.242   2.717   4.163 -0.3685  0.1736 -0.0906
    1SOL    HW210078   2.225   2.685   4.075 -0.3722  1.0098 -0.4033
    1SOL    HW310079   2.263   2.639   4.214 -0.9407 -0.3851 -0.6963
    1SOL    MW410080   2.242   2.703   4.158 -0.4444  0.2103 -0.2117
    1SOL     OW10081   1.956   1.599   4.173  0.1660  0.2280  0.3590
    1SOL    HW210082   1.988   1.602   4.083  1.0660 -0.4673  0.6474
    1SOL    HW310083   1.996   1.675   4.215  2.0386 -1.0111  0.8960
    1SOL    MW410084   1.966   1.610   4.167  0.5318 -0.0271  0.4678
    1SOL     OW10085   2.610   1.952   4.208  0.1346  0.1262  0.0066
    1SOL    HW210086   2.566   2.037   4.206  0.5419  0.3236 -0.5740
    1SOL    HW310087   2.543   1.890   4.179  0.0142  0.3318 -0.1600
    1SOL    MW410088   2.595   1.955   4.204  0.1724  0.1794 -0.0916
    1SOL     OW10089   1.353   2.687   4.164  0.0478 -0.0023  0.2113
    1SOL    HW210090   1.286   2.732   4.217 -0.1249 -0.3607  0.2998
    1SOL    HW310091   1.436   2.722   4.195 -0.1612  1.6094 -0.9715
    1SOL    MW410092   1.355   2.698   4.175 -0.0026  0.1631  0.0668
    1SOL     OW10093   1.993   3.586   4.247  0.0314  0.4094  0.4779
    1SOL    HW210094   1.925   3.549   4.191  0.3298  0.4355  0.0956
    1SOL    HW310095   1.984   3.681   4.237 -0.4974  0.4428  1.1767
    1SOL    MW410096   1.983   3.594   4.239  0.0011  0.4172  0.5193
    1SOL     OW10097   1.015   1.739   4.502  0.0055  0.3325 -0.1252
    1SOL    HW210098   0.983   1.735   4.412  1.7669  0.3433 -0.7844
    1SOL    HW310099   0.968   1.669   4.547 -1.2844  0.6694 -0.9062
    1SOL    MW410100   1.005   1.729   4.496  0.0676  0.3783 -0.3157
    1SOL     OW10101   1.951   3.851   4.154 -0.3042 -0.0309  0.2576
    1SOL    HW210102   1.962   3.889   4.066  0.3740  2.4262  1.3489
    1SOL    HW310103   1.873   3.895   4.189 -0.4874 -0.8901  0.9324
    1SOL    MW410104   1.942   3.862   4.147 -0.2389  0.1800  0.4911
    1SOL     OW10105   1.331   4.305   4.156  0.6054 -0.2282  0.1309
    1SOL    HW210106   1.320   4.312   4.061 -0.9695  1.0137  0.3735
    1SOL    HW310107   1.352   4.213   4.171  0.8081 -0.4557 -1.4163
    1SOL    MW410108   1.332   4.294   4.145  0.4244 -0.0939 -0.0415
    1SOL     OW10109   1.532   3.836   4.128 -0.0321  0.1792 -0.1476
    1SOL    HW210110   1.547   3.745   4.150 -0.0680  0.1750 -0.1390
    1SOL    HW310111   1.607   3.883   4.164  0.3952  0.0498 -0.8689
    1SOL    MW410112   1.544   3.830   4.135  0.0196  0.1616 -0.2418
    1SOL     OW10113   2.458   2.889   4.236 -0.1218  0.2447  0.2455
    1SOL    HW210114   2.456   2.975   4.194  1.0749  0.1289 -0.0550
    1SOL    HW310115   2.381   2.844   4.202  0.0326  0.6881 -0.6910
    1SOL    MW410116   2.448   2.895   4.226  0.0565  0.2880  0.0825
    1SOL     OW10117   2.437   0.097   4.158  0.3096 -0.7087  0.3983
    1SOL    HW210118   2.431   0.039   4.234 -1.4735  0.5708  1.2558
    1SOL    HW310119   2.509   0.156   4.179 -0.1233 -0.4133  1.0615
    1SOL    MW410120   2.446   0.097   4.170  0.0172 -0.5009  0.5994
    1SOL     OW10121   4.073   1.900   4.151  0.1651 -0.0579  0.2879
    1SOL    HW210122   4.050   1.807   4.161  0.2511 -0.0167  0.9143
    1SOL    HW310123   3.990   1.946   4.157  0.2583 -0.0046  1.2506
    1SOL    MW410124   4.059   1.894   4.153  0.1888 -0.0453  0.4978
    1SOL     OW10125   1.499   4.247   4.579  0.0724  0.0392 -0.0134
    1SOL    HW210126   1.463   4.255   4.668  2.0244  0.1073  0.8060
    1SOL    HW310127   1.436   4.193   4.532 -2.0438  1.7620  0.8054
    1SOL    MW410128   1.486   4.241   4.585  0.0508  0.2756  0.2027
    1SOL     OW10129   2.517   0.740   4.217 -0.0633 -0.4108  0.0067
    1SOL    HW210130   2.484   0.771   4.133  0.2377 -1.5211 -0.5367
    1SOL    HW310131   2.612   0.730   4.203 -0.2588 -2.3426 -0.1023
    1SOL    MW410132   2.525   0.743   4.204 -0.0491 -0.8121 -0.0792
    1SOL     OW10133   3.742   3.115   4.738 -0.2006 -0.0138  0.2850
    1SOL    HW210134   3.773   3.053   4.673  0.6638  0.4417  0.2622
    1SOL    HW310135   3.813   3.121   4.802  0.5018  2.3284 -0.6657
    1SOL    MW410136   3.755   3.107   4.738  0.0062  0.3555  0.1564
    1SOL     OW10137   1.936   0.801   4.170 -0.1279  0.3839  0.1848
    1SOL    HW210138   2.002   0.861   4.203  1.4403 -0.7488 -0.8195
    1SOL    HW310139   1.950   0.720   4.220 -1.5086  0.4888  0.7687
    1SOL    MW410140   1.947   0.798   4.181 -0.1030  0.2483  0.1287
    1SOL     OW10141   0.481   2.451   4.224 -0.3246 -0.3418 -0.0740
    1SOL    HW210142   0.492   2.447   4.319  2.6367  0.0210 -0.3572
    1SOL    HW310143   0.482   2.544   4.203 -1.6073 -0.3925 -0.4255
    1SOL    MW410144   0.483   2.462   4.233 -0.1031 -0.3006 -0.1578
    1SOL     OW10145   0.229   1.264   4.295 -0.5311  0.1823 -0.4505
    1SOL    HW210146   0.240   1.346   4.247 -0.6533  0.7317  0.4571
    1SOL    HW310147   0.286   1.202   4.249  1.9773  1.5445  0.7211
    1SOL    MW410148   0.238   1.266   4.282 -0.2163  0.4345 -0.1760
    1SOL     OW10149   2.630   1.142   4.113  0.4155  0.2087  0.0589
    1SOL    HW210150   2.711   1.098   4.137  1.0051  2.1334  1.6864
    1SOL    HW310151   2.637   1.155   4.019  2.3892  1.1131  0.3038
    1SOL    MW410152   2.641   1.138   4.104  0.7539  0.5821  0.3066
    1SOL     OW10153   3.138   2.732   4.092  0.3410 -0.0235 -0.1482
    1SOL    HW210154   3.066   2.767   4.145 -0.5816 -0.9456 -0.7864
    1SOL    HW310155   3.140   2.638   4.113  1.3071 -0.0176 -0.1957
    1SOL    MW410156   3.129   2.724   4.102  0.3467 -0.1445 -0.2384
    1SOL     OW10157   0.431   4.242   4.129  0.1049 -0.1567  0.1384
    1SOL    HW210158   0.409   4.217   4.039  0.1493 -0.2710  0.1591
    1SOL    HW310159   0.364   4.306   4.153  1.8099  2.0890 -0.9947
    1SOL    MW410160   0.419   4.247   4.120  0.3357  0.1245 -0.0086
    1SOL     OW10161   1.099   2.127   4.504  0.3684 -0.0426  0.0274
    1SOL    HW210162   1.158   2.056   4.527  2.1126  0.9192 -1.2636
    1SOL    HW310163   1.149   2.207   4.524 -0.2683  0.7888 -1.5941
    1SOL    MW410164   1.114   2.128   4.509  0.5145  0.1941 -0.3562
    1SOL     OW10165   2.574   1.917   4.491 -0.2860 -0.0300  0.2681
    1SOL    HW210166   2.644   1.976   4.519  0.5590 -0.9264  0.1019
    1SOL    HW310167   2.572   1.925   4.396  1.2107 -1.7607  0.0705
    1SOL    MW410168   2.583   1.926   4.482  0.0229 -0.3766  0.2198
    1SOL     OW10169   2.972   1.306   4.529  0.4118 -0.1381 -0.1428
    1SOL    HW210170   2.904   1.368   4.502 -0.1197 -0.9122 -0.6262
    1SOL    HW310171   3.054   1.355   4.520 -0.0504  0.6994  0.1255
    1SOL    MW410172   2.974   1.320   4.524  0.2809 -0.1297 -0.1712
    1SOL     OW10173   2.719   2.596   4.837 -0.5016 -0.0634 -0.2679
    1SOL    HW210174   2.702   2.502   4.839 -0.8530  0.0068  0.1093
    1SOL    HW310175   2.785   2.610   4.905 -0.8888  0.0474  0.0880
    1SOL    MW410176   2.726   2.585   4.846 -0.5989 -0.0393 -0.1712
    1SOL     OW10177   0.044   2.480   4.233  0.1505 -0.2857 -0.0414
    1SOL    HW210178   0.051   2.483   4.329  0.4361 -0.4851 -0.0557
    1SOL    HW310179   0.112   2.417   4.206  0.7934  0.5779 -0.4501
    1SOL    MW410180   0.054   2.472   4.243  0.2730 -0.1979 -0.0968
    1SOL     OW10181   4.044   3.217   4.231  0.1137 -0.4824  0.2483
    1SOL    HW210182   4.126   3.182   4.197  1.1650  1.2928  0.8453
    1SOL    HW310183   4.047   3.310   4.208 -1.9250 -0.4840 -0.0711
    1SOL    MW410184   4.055   3.225   4.224 -0.0172 -0.2484  0.2847
    1SOL     OW10185   1.826   2.693   4.141  0.2685 -0.6338 -0.5919
    1SOL    HW210186   1.885   2.618   4.137  0.1754 -0.6647 -1.3952
    1SOL    HW310187   1.808   2.714   4.050 -0.9946 -0.6475 -0.3500
    1SOL    MW410188   1.831   2.686   4.128  0.0896 -0.6397 -0.6657
    1SOL     OW10189   0.745   3.246   4.649 -0.2006  0.2266  0.2782
    1SOL    HW210190   0.669   3.190   4.665  0.0051 -0.0509  0.2830
    1SOL    HW310191   0.729   3.323   4.703 -1.1773  0.8045 -0.7909
    1SOL    MW410192   0.733   3.249   4.658 -0.3023  0.2661  0.1383
    1SOL     OW10193   4.203   3.512   4.527 -0.1026  0.2907 -0.2751
    1SOL    HW210194   4.290   3.494   4.564 -0.2948  0.8972  0.4902
    1SOL    HW310195   4.157   3.428   4.533  0.4986 -0.0850 -0.8817
    1SOL    MW410196   4.209   3.499   4.533 -0.0486  0.3211 -0.2537
    1SOL     OW10197   2.377   3.153   4.652 -0.8873 -0.1484 -0.0853
    1SOL    HW210198   2.468   3.126   4.666 -0.4317 -0.8265 -3.7736
    1SOL    HW310199   2.325   3.080   4.687  0.0430 -0.8221 -0.0905
    1SOL    MW410200   2.382   3.140   4.658 -0.7045 -0.3269 -0.5727
    1SOL     OW10201   2.203   3.979   4.244 -0.1815  0.3530  0.2797
    1SOL    HW210202   2.203   3.921   4.321 -0.4594 -0.1349 -0.0846
    1SOL    HW310203   2.128   3.949   4.192  0.4802  0.1651 -0.5704
    1SOL    MW410204   2.193   3.967   4.247 -0.1307  0.2642  0.1197
    1SOL     OW10205   2.468   4.339   4.293  0.0119 -0.1034 -0.0566
    1SOL    HW210206   2.514   4.289   4.361  0.5788 -1.5194 -1.4731
    1SOL    HW310207   2.475   4.430   4.322  1.5017 -0.5440  1.0466
    1SOL    MW410208   2.475   4.345   4.306  0.2835 -0.3481 -0.0978
    1SOL     OW10209   2.481   0.174   4.632  0.6741  0.4250 -0.1177
    1SOL    HW210210   2.434   0.183   4.549  0.1252  0.7437  0.2313
    1SOL    HW310211   2.564   0.132   4.607  0.5591  0.6130 -0.8408
    1SOL    MW410212   2.486   0.169   4.618  0.5865  0.4918 -0.1669
    1SOL     OW10213   2.778   0.150   4.344  0.3753  0.2910  0.2036
    1SOL    HW210214   2.721   0.211   4.298 -0.7375 -0.6287  0.3437
    1SOL    HW310215   2.826   0.104   4.274  1.2768  1.3768  0.1031
    1SOL    MW410216   2.777   0.152   4.329  0.3474  0.3129  0.2089
    1SOL     OW10217   2.212   3.804   4.458 -0.5845  0.4835  0.3148
    1SOL    HW210218   2.163   3.727   4.488 -0.3786  0.2365  0.0269
    1SOL    HW310219   2.303   3.784   4.480 -0.4737  0.4466 -0.1728
    1SOL    MW410220   2.218   3.791   4.465 -0.5429  0.4461  0.2131
    1SOL     OW10221   2.609   0.323   4.191  0.0720 -0.3517  0.1846
    1SOL    HW210222   2.554   0.394   4.222 -0.8562 -1.0668  0.2010
    1SOL    HW310223   2.642   0.353   4.106  0.9734  0.7516  0.9197
    1SOL    MW410224   2.606   0.336   4.184  0.0684 -0.3005  0.2832
    1SOL     OW10225   0.679   4.313   4.255 -0.0565  0.2895  0.2762
    1SOL    HW210226   0.602   4.304   4.198 -0.7195  0.9605  1.0505
    1SOL    HW310227   0.652   4.272   4.338  0.3112  0.8144  0.6536
    1SOL    MW410228   0.665   4.306   4.259 -0.0954  0.4473  0.4282
    1SOL     OW10229   2.787   0.718   4.175 -0.1487 -0.2241 -0.3642
    1SOL    HW210230   2.862   0.680   4.220 -0.3325 -1.5364 -1.1477
    1SOL    HW310231   2.812   0.722   4.083 -1.4396 -1.7688 -0.8179
    1SOL    MW410232   2.800   0.714   4.169 -0.3436 -0.6011 -0.5274
    1SOL     OW10233   2.461   2.787   4.505  0.1098  0.0431  0.2266
    1SOL    HW210234   2.472   2.831   4.421 -0.3109  0.3334  0.3220
    1SOL    HW310235   2.423   2.702   4.483 -1.0165  0.5455  0.2102
    1SOL    MW410236   2.458   2.781   4.491 -0.0944  0.1478  0.2365
    1SOL     OW10237   2.614   4.220   4.512  0.1828 -0.2962 -0.1564
    1SOL    HW210238   2.633   4.127   4.525 -1.3614 -0.5565  0.3337
    1SOL    HW310239   2.555   4.243   4.584 -0.4154  0.7562 -0.9713
    1SOL    MW410240   2.609   4.211   4.523 -0.0999 -0.1922 -0.1984
    1SOL     OW10241   2.026   3.530   4.522  0.1067  0.2226  0.2422
    1SOL    HW210242   2.050   3.438   4.538 -2.3885 -0.3214  1.0835
    1SOL    HW310243   2.011   3.534   4.427  0.8094 -0.0770  0.1108
    1SOL    MW410244   2.028   3.518   4.511 -0.1299  0.1113  0.3362
    1SOL     OW10245   2.786   1.489   4.457  0.0913 -0.1402  0.1205
    1SOL    HW210246   2.714   1.540   4.493 -0.6701  0.0129 -1.5782
    1SOL    HW310247   2.752   1.455   4.374  1.6877 -0.7260 -0.3060
    1SOL    MW410248   2.772   1.492   4.450  0.2017 -0.1973 -0.1602
    1SOL     OW10249   4.460   3.450   4.625  0.2951 -0.3193  0.2347
    1SOL    HW210250   4.498   3.362   4.615  1.0795 -0.0721  0.9575
    1SOL    HW310251   4.528   3.509   4.592 -0.5595 -0.0295 -1.0211
    1SOL    MW410252   4.474   3.446   4.620  0.2861 -0.2487  0.1645
    1SOL     OW10253   3.524   3.296   4.501 -0.3118 -0.2641 -0.4009
    1SOL    HW210254   3.614   3.310   4.531 -0.6550  1.0555  0.0187
    1SOL    HW310255   3.534   3.263   4.412  0.8024 -5.6847  1.4747
    1SOL    MW410256   3.537   3.293   4.493 -0.2098 -0.8051 -0.0982
    1SOL     OW10257   2.918   2.025   3.789  0.4414  0.0355  0.4349
    1SOL    HW210258   2.845   1.985   3.835 -0.8793  1.4633 -0.3591
    1SOL    HW310259   2.911   2.118   3.809  1.5888  0.2933 -0.2830
    1SOL    MW410260   2.908   2.032   3.797  0.4187  0.2580  0.2356
    1SOL     OW10261   0.377   0.114   4.493  0.2391 -0.3795 -0.0019
    1SOL    HW210262   0.411   0.201   4.511  0.7258 -0.7107  0.6745
    1SOL    HW310263   0.452   0.056   4.502 -0.3380 -1.0149  0.7423
    1SOL    MW410264   0.391   0.118   4.496  0.2272 -0.5070  0.1860
    1SOL     OW10265   1.799   0.848   4.869 -0.0530 -0.0998  0.5786
    1SOL    HW210266   1.818   0.827   4.960 -0.6923 -0.2055  0.6898
    1SOL    HW310267   1.883   0.876   4.833  0.6446 -1.9996  0.6586
    1SOL    MW410268   1.813   0.849   4.876 -0.0453 -0.3644  0.6037
    1SOL     OW10269   0.065   2.964   4.595  0.1117  0.1518  0.2748
    1SOL    HW210270  -0.006   2.921   4.547  2.2176 -2.4950 -0.6153
    1SOL    HW310271   0.035   2.966   4.686 -0.7715 -1.7088  0.0433
    1SOL    MW410272   0.052   2.959   4.601  0.2731 -0.4427  0.1268
    1SOL     OW10273   2.115   1.195   4.610 -0.1724  0.0045 -0.1134
    1SOL    HW210274   2.196   1.173   4.562 -0.0643 -0.0781  0.1090
    1SOL    HW310275   2.122   1.288   4.627  1.1959 -0.5236  2.3830
    1SOL    MW410276   2.127   1.204   4.606  0.0222 -0.0759  0.2446
    1SOL     OW10277   0.401   3.267   4.512  0.5161 -0.1704 -0.4484
    1SOL    HW210278   0.399   3.337   4.577  0.4732 -1.4401  0.9453
    1SOL    HW310279   0.429   3.190   4.561  1.8384 -0.8579 -2.2302
    1SOL    MW410280   0.405   3.266   4.527  0.6849 -0.4287 -0.5002
    1SOL     OW10281   2.646   3.069   4.650 -0.2390  0.4981 -0.1417
    1SOL    HW210282   2.679   3.105   4.568 -0.3468  0.0874 -0.3684
    1SOL    HW310283   2.673   2.977   4.648  0.2555  0.6234  0.5454
    1SOL    MW410284   2.654   3.061   4.639 -0.1876  0.4604 -0.0815
    1SOL     OW10285   2.949   3.587   4.241 -0.5165  0.1775  0.0398
    1SOL    HW210286   3.001   3.610   4.318  0.9153  0.3756 -0.9578
    1SOL    HW310287   2.937   3.671   4.196 -1.4570  0.0832  0.1165
    1SOL    MW410288   2.955   3.601   4.245 -0.4518  0.1915 -0.0820
    1SOL     OW10289   2.713   3.480   4.330 -0.0795  0.0136 -0.2741
    1SOL    HW210290   2.802   3.514   4.316 -0.3037  0.3842 -0.8316
    1SOL    HW310291   2.656   3.551   4.300 -0.5639 -0.2278  0.0777
    1SOL    MW410292   2.718   3.494   4.324 -0.1733  0.0308 -0.3014
    1SOL     OW10293   2.904   3.862   4.157  0.3614  0.1017  0.0970
    1SOL    HW210294   2.824   3.910   4.179  0.1744 -0.1924  0.0650
    1SOL    HW310295   2.974   3.910   4.201  0.3352  1.1346 -0.9817
    1SOL    MW410296   2.903   3.875   4.166  0.3333  0.1996 -0.0491
    1SOL     OW10297   2.724   4.301   4.159 -0.7478  0.4105  0.0421
    1SOL    HW210298   2.644   4.336   4.198 -0.7424  0.9750 -0.4416
    1SOL    HW310299   2.721   4.207   4.178 -0.6512  0.6982  1.5465
    1SOL    MW410300   2.713   4.293   4.167 -0.7343  0.5226  0.1774
    1SOL     OW10301   2.462   3.899   4.149  0.1175 -0.1576  0.5127
    1SOL    HW210302   2.463   3.881   4.055  0.8310  0.8100  0.3292
    1SOL    HW310303   2.375   3.935   4.165 -0.0795 -0.5176  0.2612
    1SOL    MW410304   2.451   3.902   4.139  0.1855 -0.0775  0.4549
    1SOL     OW10305   2.951   4.413   4.287 -0.2165 -0.2008  0.1724
    1SOL    HW210306   2.882   4.374   4.234  0.0768 -0.0015 -0.3643
    1SOL    HW310307   3.032   4.376   4.252 -0.0371 -0.2308  0.6213
    1SOL    MW410308   2.953   4.403   4.275 -0.1543 -0.1788  0.1607
    1SOL     OW10309   3.325   4.628   4.137  0.1598 -0.3437 -0.4081
    1SOL    HW210310   3.394   4.692   4.153 -0.2573  0.0734 -0.2524
    1SOL    HW310311   3.245   4.671   4.167 -0.1138 -0.9691 -0.2305
    1SOL    MW410312   3.324   4.642   4.143  0.0684 -0.3715 -0.3643
    1SOL     OW10313   1.364   1.651   4.198  0.2169 -0.0977  0.0531
    1SOL    HW210314   1.302   1.582   4.174  1.2268 -0.1378 -2.6210
    1SOL    HW310315   1.339   1.676   4.287 -1.5281 -2.4025  0.2518
    1SOL    MW410316   1.352   1.645   4.206  0.1199 -0.4070 -0.2737
    1SOL     OW10317   2.980   0.564   4.331 -0.0884 -0.1273  0.0372
    1SOL    HW210318   2.917   0.512   4.383  0.0106 -1.0365 -0.7408
    1SOL    HW310319   3.051   0.583   4.392 -0.5943 -0.0567  0.6118
    1SOL    MW410320   2.981   0.560   4.346 -0.1421 -0.2380  0.0105
    1SOL     OW10321   3.367   0.582   4.258  0.3616  0.1801 -0.5029
    1SOL    HW210322   3.386   0.588   4.352  1.2123  1.5872 -0.7545
    1SOL    HW310323   3.437   0.527   4.223  0.8597  0.8308 -0.5373
    1SOL    MW410324   3.379   0.575   4.266  0.5395  0.4516 -0.5403
    1SOL     OW10325   2.229   0.098   4.742  0.3390 -0.2575 -0.3349
    1SOL    HW210326   2.315   0.134   4.721  0.5419  0.2170  1.2106
    1SOL    HW310327   2.167   0.168   4.721  0.2104 -0.9662 -2.4249
    1SOL    MW410328   2.232   0.112   4.736  0.3486 -0.2884 -0.4067
    1SOL     OW10329   4.449   4.332   4.616 -0.5491  0.1852  0.2570
    1SOL    HW210330   4.378   4.373   4.568 -0.4196 -0.5702 -0.5900
    1SOL    HW310331   4.519   4.397   4.615 -0.9620  0.6369  0.4500
    1SOL    MW410332   4.449   4.346   4.610 -0.5870  0.1454  0.1707
    1SOL     OW10333   3.143   1.014   4.238 -0.2364 -0.0199  0.0509
    1SOL    HW210334   3.049   0.999   4.228 -0.1701 -0.5908  0.2327
    1SOL    HW310335   3.164   1.086   4.178 -0.4571 -1.0881 -1.3239
    1SOL    MW410336   3.134   1.021   4.229 -0.2568 -0.2362 -0.1063
    1SOL     OW10337   1.593   0.011   4.637  0.6416 -0.1144  0.1331
    1SOL    HW210338   1.518   0.040   4.584  0.0451 -0.5050  0.7534
    1SOL    HW310339   1.625  -0.067   4.590 -0.1329 -0.6932  0.5547
    1SOL    MW410340   1.587   0.004   4.624  0.4607 -0.2424  0.2704
    1SOL     OW10341   2.741   3.181   4.433  0.1094  0.1839 -0.3267
    1SOL    HW210342   2.809   3.247   4.447 -0.0115  0.2686 -0.1294
    1SOL    HW310343   2.748   3.159   4.340  0.0255  0.6102 -0.4346
    1SOL    MW410344   2.751   3.187   4.423  0.0827  0.2511 -0.3152
    1SOL     OW10345   2.496   1.589   4.117 -0.0934 -0.2444  0.2577
    1SOL    HW210346   2.431   1.658   4.127  2.2493  2.0179  0.3863
    1SOL    HW310347   2.473   1.545   4.035 -0.8288  1.5555 -0.5190
    1SOL    MW410348   2.485   1.592   4.108  0.1185  0.2916  0.1721
    1SOL     OW10349   2.677   4.664   4.549 -0.0372  0.6714 -0.3862
    1SOL    HW210350   2.728   4.590   4.580 -1.7362 -0.9619 -1.3875
    1SOL    HW310351   2.730   4.703   4.480  1.0231  0.6023  0.3858
    1SOL    MW410352   2.691   4.660   4.544 -0.1211  0.4468 -0.4163
    1SOL     OW10353   2.255   2.254   4.066  0.1464 -0.4620  0.2344
    1SOL    HW210354   2.200   2.182   4.096 -1.0360  0.5056  0.4178
    1SOL    HW310355   2.232   2.328   4.122 -0.6057  0.8038 -1.6954
    1SOL    MW410356   2.245   2.255   4.077 -0.1092 -0.1671  0.0038
    1SOL     OW10357   3.537   0.888   4.481  0.0769 -0.5310  0.2198
    1SOL    HW210358   3.559   0.914   4.391  0.3027 -1.8821 -0.1312
    1SOL    HW310359   3.457   0.936   4.500  0.0347 -0.2091 -0.7029
    1SOL    MW410360   3.529   0.898   4.471  0.1013 -0.6668  0.0520
    1SOL     OW10361   3.918   1.715   4.876 -0.1325  0.5519  0.1103
    1SOL    HW210362   3.961   1.700   4.960  0.4049 -0.4312 -0.3383
    1SOL    HW310363   3.915   1.629   4.834 -1.2321  0.8654 -0.4863
    1SOL    MW410364   3.923   1.702   4.882 -0.2065  0.4637 -0.0277
    1SOL     OW10365   3.392   2.286   4.127  0.2703 -0.4141 -0.4428
    1SOL    HW210366   3.320   2.347   4.143  0.5890  0.1519 -1.1471
    1SOL    HW310367   3.394   2.275   4.032  1.0861 -0.4675 -0.4265
    1SOL    MW410368   3.383   2.292   4.117  0.4199 -0.3464 -0.5331
    1SOL     OW10369   2.243   4.263   4.159  0.0175  0.1361 -0.2659
    1SOL    HW210370   2.240   4.171   4.184  0.6742  0.1398 -0.1699
    1SOL    HW310371   2.331   4.292   4.183 -0.2849  0.8712 -0.0127
    1SOL    MW410372   2.254   4.255   4.166  0.0641  0.2337 -0.2198
    1SOL     OW10373   3.343   3.047   4.109 -0.2536  0.3848  0.1153
    1SOL    HW210374   3.260   3.079   4.145 -0.0327 -0.3906  1.3525
    1SOL    HW310375   3.358   2.964   4.154  0.6410 -0.0223 -0.9185
    1SOL    MW410376   3.334   3.040   4.120 -0.1063  0.2286  0.1421
    1SOL     OW10377   2.455   3.139   4.113  0.1384 -0.5041  0.1549
    1SOL    HW210378   2.535   3.191   4.118 -0.3798  0.4839 -1.5859
    1SOL    HW310379   2.391   3.189   4.164 -0.3475  0.5870 -1.4802
    1SOL    MW410380   2.457   3.152   4.121  0.0060 -0.2298 -0.2909
    1SOL     OW10381   3.374   3.613   4.208  0.0880 -0.1859 -0.4930
    1SOL    HW210382   3.299   3.554   4.201 -0.1685  0.0532  0.2393
    1SOL    HW310383   3.396   3.614   4.301 -0.0214  1.0170 -0.4711
    1SOL    MW410384   3.367   3.605   4.219  0.0398  0.0043 -0.3939
    1SOL     OW10385   3.608   3.465   4.168  0.0818  0.0902  0.2333
    1SOL    HW210386   3.582   3.376   4.191 -0.4762 -0.1384 -1.1697
    1SOL    HW310387   3.527   3.516   4.174 -0.0568  0.0427 -1.0626
    1SOL    MW410388   3.594   3.460   4.172 -0.0098  0.0539 -0.1235
    1SOL     OW10389   3.362   3.871   4.131 -0.2595  0.2421 -0.8676
    1SOL    HW210390   3.364   3.781   4.163  2.2201  0.5709 -0.0802
    1SOL    HW310391   3.370   3.862   4.036 -0.9829 -0.3878 -0.8815
    1SOL    MW410392   3.363   3.858   4.123 -0.0279  0.2024 -0.7648
    1SOL     OW10393   0.037   2.748   4.143 -0.3333 -0.1833  0.1077
    1SOL    HW210394  -0.054   2.775   4.158 -0.7080 -0.8069 -0.9915
    1SOL    HW310395   0.040   2.657   4.172 -0.2261 -0.3690 -0.4842
    1SOL    MW410396   0.025   2.739   4.149 -0.3686 -0.2904 -0.1159
    1SOL     OW10397   4.474   0.867   4.184 -0.1268  0.2690 -0.0685
    1SOL    HW210398   4.444   0.853   4.274 -0.9194 -0.6762 -0.4637
    1SOL    HW310399   4.508   0.956   4.184 -0.3245  0.3581  1.1160
    1SOL    MW410400   4.474   0.877   4.196 -0.2575  0.1560  0.0353
    1SOL     OW10401   3.578   4.249   4.081 -0.6013  0.6991 -0.5985
    1SOL    HW210402   3.527   4.314   4.129  1.5198  1.0790  1.2301
    1SOL    HW310403   3.577   4.171   4.136 -0.0536  0.3946 -1.0058
    1SOL    MW410404   3.571   4.247   4.094 -0.2489  0.7095 -0.4106
    1SOL     OW10405   3.806   4.661   4.150 -0.6497 -0.4535 -0.2635
    1SOL    HW210406   3.806   4.573   4.186  2.0330 -0.4405 -0.1705
    1SOL    HW310407   3.783   4.649   4.058 -0.8636 -1.1738 -0.1208
    1SOL    MW410408   3.803   4.648   4.142 -0.3242 -0.5468 -0.2322
    1SOL     OW10409   2.448   2.189   4.234 -0.4610  0.0577 -0.3197
    1SOL    HW210410   2.400   2.213   4.314 -0.3711  0.9245 -0.5179
    1SOL    HW310411   2.382   2.194   4.165 -0.7000 -1.3600 -0.2097
    1SOL    MW410412   2.433   2.193   4.236 -0.4809 -0.0148 -0.3309
    1SOL     OW10413   3.529   0.403   4.130 -0.0133 -0.1534  0.4797
    1SOL    HW210414   3.621   0.415   4.153 -0.3716 -1.0107  2.4621
    1SOL    HW310415   3.529   0.399   4.034  1.8281  1.2202  0.3920
    1SOL    MW410416   3.541   0.404   4.120  0.1826 -0.0853  0.7291
    1SOL     OW10417   4.020   0.343   4.160  0.2532 -0.0522  0.3083
    1SOL    HW210418   4.034   0.256   4.197  1.0801  0.5008  1.3227
    1SOL    HW310419   3.933   0.369   4.192  0.2797 -0.2432  0.5363
    1SOL    MW410420   4.010   0.335   4.169  0.3657 -0.0045  0.4721
    1SOL     OW10421   0.912   4.258   4.814 -0.6616 -0.1200  0.2647
    1SOL    HW210422   0.870   4.313   4.747  0.0005 -0.5295 -0.4969
    1SOL    HW310423   0.854   4.182   4.822 -0.3335 -0.4578 -0.4439
    1SOL    MW410424   0.899   4.255   4.806 -0.5310 -0.2189  0.0710
    1SOL     OW10425   2.437   4.612   4.408 -0.3049  0.3884  0.0595
    1SOL    HW210426   2.502   4.629   4.476 -1.1016 -0.0868  0.9565
    1SOL    HW310427   2.355   4.598   4.456 -0.7828 -0.4209 -0.9609
    1SOL    MW410428   2.435   4.612   4.423 -0.4730  0.2193  0.0434
    1SOL     OW10429   2.078   2.077   4.212  0.2331 -0.5049  0.2542
    1SOL    HW210430   2.067   2.105   4.303 -0.5529 -0.7562  0.2462
    1SOL    HW310431   1.995   2.102   4.170  0.4496 -0.7234 -0.3051
    1SOL    MW410432   2.065   2.084   4.218  0.1578 -0.5670  0.1798
    1SOL     OW10433   0.037   2.455   4.525 -0.1769 -0.6416 -0.1201
    1SOL    HW210434   0.058   2.363   4.509 -0.4369 -0.7076 -0.0844
    1SOL    HW310435   0.121   2.496   4.548 -0.0759 -0.8846 -0.0597
    1SOL    MW410436   0.051   2.448   4.526 -0.1979 -0.6821 -0.1073
    1SOL     OW10437   4.304   2.338   4.134 -0.1951  0.2871  0.5232
    1SOL    HW210438   4.369   2.405   4.157 -2.1028  1.8450  1.4737
    1SOL    HW310439   4.306   2.277   4.208  1.7747 -0.9333 -0.4927
    1SOL    MW410440   4.313   2.338   4.147 -0.1869  0.3319  0.5150
    1SOL     OW10441   3.444   1.548   4.113 -0.2513 -0.0068  0.0900
    1SOL    HW210442   3.366   1.596   4.141 -0.8727 -0.6231 -0.5366
    1SOL    HW310443   3.423   1.518   4.024  0.2486 -1.1248  0.3347
    1SOL    MW410444   3.431   1.550   4.105 -0.2673 -0.2357  0.0396
    1SOL     OW10445   3.595   1.936   4.089 -0.5531  0.5438 -0.2988
    1SOL    HW210446   3.613   1.858   4.141 -0.0173  1.1482  0.4415
    1SOL    HW310447   3.534   1.987   4.141  0.6160  1.5365  0.1283
    1SOL    MW410448   3.590   1.933   4.103 -0.3281  0.7546 -0.1450
    1SOL     OW10449   1.866   1.556   4.538  0.1854 -0.0091  0.4745
    1SOL    HW210450   1.800   1.620   4.513 -2.3895 -2.5735  0.4457
    1SOL    HW310451   1.827   1.471   4.517  3.6064 -1.6123  0.2120
    1SOL    MW410452   1.852   1.553   4.532  0.2972 -0.5590  0.4363
    1SOL     OW10453   0.797   4.385   4.574  0.0756 -0.4629 -0.2339
    1SOL    HW210454   0.744   4.464   4.584  0.4768 -0.0205 -1.6474
    1SOL    HW310455   0.732   4.314   4.565 -0.2965 -0.4878  2.2685
    1SOL    MW410456   0.781   4.386   4.575  0.0795 -0.4077 -0.0901
    1SOL     OW10457   3.857   2.916   4.542  0.0424 -0.3235 -0.3196
    1SOL    HW210458   3.830   2.893   4.454  0.5425 -0.0692 -0.5452
    1SOL    HW310459   3.850   2.835   4.592 -1.0679 -0.2734 -0.3803
    1SOL    MW410460   3.853   2.903   4.537 -0.0381 -0.2835 -0.3576
    1SOL     OW10461   3.383   2.044   4.232  0.0694 -0.0795  0.2630
    1SOL    HW210462   3.370   2.126   4.185 -1.1600 -0.6829 -0.4857
    1SOL    HW310463   3.371   2.067   4.324 -1.8941  0.2957 -0.0591
    1SOL    MW410464   3.380   2.057   4.238 -0.3519 -0.1097  0.1221
    1SOL     OW10465   1.685   4.033   4.519 -0.4922 -0.3935  0.2368
    1SOL    HW210466   1.627   4.103   4.549 -0.0594  0.4757 -0.9570
    1SOL    HW310467   1.773   4.063   4.541 -0.2504 -0.2204 -0.9102
    1SOL    MW410468   1.689   4.046   4.526 -0.4033 -0.2565 -0.0720
    1SOL     OW10469   3.808   3.091   4.176  0.0291  0.1181 -0.1184
    1SOL    HW210470   3.885   3.135   4.212  0.3767 -0.7281  0.1946
    1SOL    HW310471   3.829   3.074   4.085  0.8302 -1.4504  0.3407
    1SOL    MW410472   3.821   3.095   4.169  0.1807 -0.2003 -0.0167
    1SOL     OW10473   3.804   4.395   4.238 -0.4838 -0.1609  0.2705
    1SOL    HW210474   3.727   4.344   4.211 -0.5604 -0.1918  0.5479
    1SOL    HW310475   3.797   4.399   4.333 -0.8532  0.9563  0.2050
    1SOL    MW410476   3.793   4.389   4.247 -0.5429 -0.0172  0.2985
    1SOL     OW10477   3.542   3.204   4.242  0.8412  0.0768 -0.4752
    1SOL    HW210478   3.472   3.151   4.204  0.5180  0.6935 -0.7500
    1SOL    HW310479   3.622   3.175   4.197  0.6745 -0.2094 -0.5849
    1SOL    MW410480   3.544   3.193   4.231  0.7763  0.1204 -0.5260
    1SOL     OW10481   1.301   2.330   4.482  0.2936  0.2521 -0.6047
    1SOL    HW210482   1.377   2.282   4.514  0.9627  1.7707  0.1216
    1SOL    HW310483   1.325   2.355   4.392 -0.2170 -1.0844 -1.1277
    1SOL    MW410484   1.314   2.327   4.474  0.3145  0.2761 -0.5779
    1SOL     OW10485   4.291   2.815   4.531  0.6354  0.3356 -0.5941
    1SOL    HW210486   4.277   2.726   4.563  0.0316  0.3645 -0.7655
    1SOL    HW310487   4.278   2.808   4.437 -0.5039  0.8144 -0.4765
    1SOL    MW410488   4.287   2.802   4.523  0.4058  0.4025 -0.6013
    1SOL     OW10489   1.339   3.468   4.091  0.1397  0.0179  0.4469
    1SOL    HW210490   1.324   3.455   3.998 -1.6128  0.0139  0.7128
    1SOL    HW310491   1.335   3.381   4.129  0.4667  0.0602  0.5824
    1SOL    MW410492   1.337   3.455   4.084 -0.0484  0.0231  0.4997
    1SOL     OW10493   3.151   4.253   4.185  0.1393 -0.2550 -0.1229
    1SOL    HW210494   3.134   4.167   4.223  0.9458 -0.8351 -1.0604
    1SOL    HW310495   3.237   4.278   4.218 -0.8465  1.0175  1.6035
    1SOL    MW410496   3.160   4.245   4.195  0.1156 -0.1631 -0.0186
    1SOL     OW10497   4.328   1.224   4.517 -0.4137 -0.2666  0.2420
    1SOL    HW210498   4.318   1.138   4.557  0.5217  0.3193  1.7503
    1SOL    HW310499   4.254   1.275   4.551 -0.9795 -0.4544 -0.6650
    1SOL    MW410500   4.317   1.219   4.526 -0.3653 -0.2141  0.3214
    1SOL     OW10501   4.355   4.072   4.648  0.0410  0.0265 -0.1359
    1SOL    HW210502   4.387   4.162   4.643 -0.5901  0.2696  0.1351
    1SOL    HW310503   4.340   4.057   4.741 -0.4744 -0.1431 -0.2480
    1SOL    MW410504   4.357   4.082   4.659 -0.1101  0.0362 -0.1149
    1SOL     OW10505   3.853   2.335   4.123 -0.4955 -0.0076  0.2978
    1SOL    HW210506   3.768   2.349   4.164 -1.4103  1.0798 -1.9153
    1SOL    HW310507   3.834   2.317   4.032  1.6618  0.6741 -0.3338
    1SOL    MW410508   3.839   2.335   4.117 -0.3314  0.2255 -0.0772
    1SOL     OW10509   3.118   0.346   4.642  0.4196 -0.4646 -0.2740
    1SOL    HW210510   3.109   0.365   4.736 -0.6174 -0.8836 -0.2782
    1SOL    HW310511   3.028   0.339   4.611  0.7653 -0.1775 -1.3371
    1SOL    MW410512   3.105   0.348   4.650  0.3283 -0.4820 -0.4148
    1SOL     OW10513   0.318   1.069   4.566  0.0318  0.2721  0.3862
    1SOL    HW210514   0.249   1.136   4.561 -0.3076 -0.0957  0.0666
    1SOL    HW310515   0.398   1.118   4.584 -0.3156  0.7064  0.7551
    1SOL    MW410516   0.319   1.085   4.567 -0.0588  0.2809  0.3929
    1SOL     OW10517   4.380   0.538   4.438  0.3243 -0.2202  0.2617
    1SOL    HW210518   4.422   0.623   4.452  1.5125 -0.8072  0.4050
    1SOL    HW310519   4.344   0.543   4.350  0.0571  0.5637  0.4122
    1SOL    MW410520   4.381   0.550   4.428  0.4454 -0.1942  0.3004
    1SOL     OW10521   0.096   0.124   4.489 -0.6066 -0.0493  0.5164
    1SOL    HW210522   0.073   0.122   4.397 -1.6938 -0.5362  0.7861
    1SOL    HW310523   0.189   0.103   4.492 -0.4644  0.4463 -0.4966
    1SOL    MW410524   0.105   0.121   4.477 -0.7313 -0.0481  0.4187
    1SOL     OW10525   4.071   1.059   4.091  0.6380 -0.4377 -0.0924
    1SOL    HW210526   4.007   1.119   4.129  1.2877  0.8708 -1.0414
    1SOL    HW310527   4.073   0.985   4.152  1.3095  1.3786  2.1892
    1SOL    MW410528   4.063   1.057   4.104  0.8125 -0.0254  0.0839
    1SOL     OW10529   2.873   1.066   4.478  0.2514  0.0606 -0.0200
    1SOL    HW210530   2.935   1.011   4.525  0.1548 -0.9155 -1.0194
    1SOL    HW310531   2.909   1.155   4.484  1.3408 -0.3868  0.0602
    1SOL    MW410532   2.886   1.071   4.485  0.3824 -0.1273 -0.1416
    1SOL     OW10533   0.899   0.649   4.585  0.0082  0.5971  0.0815
    1SOL    HW210534   0.957   0.581   4.551  1.5960  1.6252  0.6561
    1SOL    HW310535   0.814   0.630   4.545  0.6180 -1.2226 -0.4026
    1SOL    MW410536   0.895   0.638   4.575  0.2982  0.4926  0.0935
    1SOL     OW10537   1.759   0.681   4.633 -0.1641 -0.5968 -0.0706
    1SOL    HW210538   1.846   0.650   4.605  0.5371  1.8908 -0.7870
    1SOL    HW310539   1.773   0.710   4.723 -0.4207 -0.7826  0.0292
    1SOL    MW410540   1.773   0.680   4.641 -0.1055 -0.2932 -0.1521
    1SOL     OW10541   1.080   4.404   4.507  0.0688 -0.1798 -0.1826
    1SOL    HW210542   1.119   4.481   4.549 -0.2427 -1.6477  2.9178
    1SOL    HW310543   0.987   4.409   4.528  0.0223 -1.3511 -0.0853
    1SOL    MW410544   1.073   4.415   4.515  0.0216 -0.5283  0.2394
    1SOL     OW10545   3.774   0.438   4.246  0.7559  0.1412  0.4968
    1SOL    HW210546   3.792   0.532   4.246 -0.1263  0.3138  0.3914
    1SOL    HW310547   3.735   0.421   4.332 -1.2496  0.3030 -0.3569
    1SOL    MW410548   3.771   0.448   4.257  0.3748  0.1853  0.3700
    1SOL     OW10549   3.617   2.378   4.249 -0.0893 -0.0112 -0.3949
    1SOL    HW210550   3.536   2.343   4.211 -0.2823  0.4369 -0.3929
    1SOL    HW310551   3.603   2.472   4.254 -0.5112 -0.1568  1.8374
    1SOL    MW410552   3.605   2.386   4.245 -0.1702  0.0286 -0.1001
    1SOL     OW10553   4.043   3.494   4.131 -0.1976 -0.5001  0.1884
    1SOL    HW210554   4.049   3.479   4.037 -0.5520 -1.3764  0.2947
    1SOL    HW310555   4.120   3.547   4.152 -0.9525  0.9958 -0.8310
    1SOL    MW410556   4.054   3.499   4.121 -0.3443 -0.4184  0.0682
    1SOL     OW10557   4.067   2.463   4.236  0.1506 -0.3331  0.2524
    1SOL    HW210558   3.989   2.425   4.196  0.6492  0.7184 -1.8168
    1SOL    HW310559   4.140   2.424   4.187  0.9155 -1.0738  1.9581
    1SOL    MW410560   4.066   2.453   4.224  0.3166 -0.2921  0.2046
    1SOL     OW10561   1.451   3.240   4.721  0.1395  0.0485 -0.1606
    1SOL    HW210562   1.485   3.329   4.733  0.3695  0.3086 -2.4009
    1SOL    HW310563   1.525   3.183   4.743  0.5045  0.4674 -0.2931
    1SOL    MW410564   1.466   3.244   4.725  0.2180  0.1380 -0.4740
    1SOL     OW10565   3.688   0.404   4.500  0.5930 -0.7325 -0.2516
    1SOL    HW210566   3.643   0.320   4.501  1.3843 -1.1595  1.1707
    1SOL    HW310567   3.755   0.397   4.568  1.4657  0.6211 -0.9302
    1SOL    MW410568   3.691   0.392   4.509  0.8123 -0.6102 -0.1531
    1SOL     OW10569   3.838   3.613   4.256 -0.2720  0.1275 -0.5360
    1SOL    HW210570   3.759   3.560   4.246 -0.6808  0.5161  0.5853
    1SOL    HW310571   3.903   3.569   4.201 -1.0608 -0.6066 -0.8992
    1SOL    MW410572   3.836   3.600   4.247 -0.4301  0.0818 -0.4358
    1SOL     OW10573   2.329   1.448   4.334  0.3765 -0.5084  0.1074
    1SOL    HW210574   2.240   1.442   4.299 -0.4530 -0.1892  2.1162
    1SOL    HW310575   2.373   1.511   4.276 -0.9305 -0.0562 -0.4041
    1SOL    MW410576   2.323   1.456   4.322  0.0947 -0.4065  0.3047
    1SOL     OW10577   4.255   3.626   4.259 -0.4858  0.2424 -0.2206
    1SOL    HW210578   4.327   3.568   4.235 -1.1364 -1.1767  1.1713
    1SOL    HW310579   4.243   3.613   4.353 -1.2253  1.9996 -0.0388
    1SOL    MW410580   4.263   3.617   4.268 -0.6690  0.2871 -0.0134
    1SOL     OW10581   0.427   3.983   4.292  0.1019  0.0721 -0.2906
    1SOL    HW210582   0.439   4.068   4.249  0.1386  0.0300 -0.3628
    1SOL    HW310583   0.515   3.957   4.318  0.0401  0.2585  0.1161
    1SOL    MW410584   0.440   3.991   4.290  0.0986  0.0911 -0.2460
    1SOL     OW10585   1.153   4.658   4.622  0.0481 -0.0374 -0.3907
    1SOL    HW210586   1.094   4.729   4.596  0.1288  0.0566 -0.3189
    1SOL    HW310587   1.237   4.680   4.582  0.4435  0.6591  0.8180
    1SOL    MW410588   1.157   4.670   4.613  0.1109  0.0668 -0.2217
    1SOL     OW10589   3.810   3.890   4.195  0.0264  0.3026  0.3710
    1SOL    HW210590   3.890   3.932   4.226 -0.7695  0.4374  2.2939
    1SOL    HW310591   3.821   3.798   4.215 -0.0619  0.2274  0.0869
    1SOL    MW410592   3.822   3.884   4.201 -0.0904  0.3104  0.5870
    1SOL     OW10593   2.872   0.372   4.509  0.1474 -0.4049 -0.0694
    1SOL    HW210594   2.859   0.296   4.453  0.8166 -0.7906  0.2988
    1SOL    HW310595   2.783   0.396   4.537  0.0083 -1.5802  0.5245
    1SOL    MW410596   2.858   0.365   4.505  0.2174 -0.6109  0.0577
    1SOL     OW10597   3.832   2.652   4.645  0.0912 -0.6130  0.2711
    1SOL    HW210598   3.809   2.590   4.714  2.7548 -0.0928  1.6775
    1SOL    HW310599   3.894   2.605   4.590  0.4105  0.0385  0.0673
    1SOL    MW410600   3.837   2.638   4.647  0.4847 -0.4582  0.4296
    1SOL     OW10601   2.600   1.650   4.598 -0.1575 -0.3107  0.1167
    1SOL    HW210602   2.608   1.742   4.572  3.2160 -0.3994  0.5343
    1SOL    HW310603   2.596   1.652   4.694  1.3537 -0.6411  0.1982
    1SOL    MW410604   2.601   1.663   4.607  0.4866 -0.3661  0.1822
    1SOL     OW10605   4.303   1.901   4.299 -0.2170 -0.1970  0.3570
    1SOL    HW210606   4.315   1.836   4.368 -0.1662 -2.8140 -2.0310
    1SOL    HW310607   4.217   1.881   4.262 -0.5770  1.6665  0.1265
    1SOL    MW410608   4.293   1.890   4.303 -0.2580 -0.2965  0.0119
    1SOL     OW10609   4.046   0.095   4.246  0.6248 -0.9459  0.0848
    1SOL    HW210610   4.065   0.047   4.327  0.0896 -2.0854 -0.4486
    1SOL    HW310611   3.959   0.066   4.221  0.8340 -0.7000 -0.9643
    1SOL    MW410612   4.037   0.085   4.253  0.5817 -1.0638 -0.1240
    1SOL     OW10613   0.989   2.900   4.564  0.2046 -0.1788  0.3994
    1SOL    HW210614   0.899   2.874   4.544  0.5127 -0.7330 -0.2988
    1SOL    HW310615   0.990   2.995   4.552 -0.2428 -0.1905  0.2470
    1SOL    MW410616   0.977   2.909   4.560  0.1861 -0.2534  0.2875
    1SOL     OW10617   1.753   0.933   4.557  0.1865  0.2385 -0.4644
    1SOL    HW210618   1.756   0.840   4.576 -1.2806  0.4140  0.6925
    1SOL    HW310619   1.828   0.970   4.603  2.0437 -0.6576 -2.6979
    1SOL    MW410620   1.763   0.926   4.565  0.2381  0.1433 -0.6065
    1SOL     OW10621   1.672   2.974   4.686  0.3780  0.0333 -0.2789
    1SOL    HW210622   1.752   2.936   4.721  0.8394  1.7029  0.5555
    1SOL    HW310623   1.702   3.036   4.619 -0.4072 -1.8085 -2.3952
    1SOL    MW410624   1.686   2.977   4.682  0.3355  0.0107 -0.4478
    1SOL     OW10625   0.240   1.472   4.093  0.0610 -0.1666 -0.1626
    1SOL    HW210626   0.154   1.514   4.096  0.0784 -0.0690 -0.9893
    1SOL    HW310627   0.302   1.543   4.111 -0.0111 -0.1902  0.1921
    1SOL    MW410628   0.237   1.487   4.096  0.0538 -0.1568 -0.2246
    1SOL     OW10629   3.986   4.279   4.570  0.5180  0.5510 -0.3601
    1SOL    HW210630   4.063   4.328   4.543  0.7410  0.0592 -0.6140
    1SOL    HW310631   4.004   4.188   4.545  0.1503  0.3182  0.2005
    1SOL    MW410632   3.998   4.273   4.563  0.4988  0.4554 -0.3195
    1SOL     OW10633   4.371   1.751   4.514  0.0637 -0.3136 -0.3155
    1SOL    HW210634   4.398   1.770   4.604  0.3265 -0.2514 -0.4061
    1SOL    HW310635   4.428   1.679   4.487 -0.1341 -0.4478 -0.3719
    1SOL    MW410636   4.382   1.744   4.522  0.0715 -0.3232 -0.3343
    1SOL     OW10637   0.539   1.249   4.578  0.0242 -0.1004  0.1713
    1SOL    HW210638   0.625   1.207   4.586  0.1857  0.6217  2.6493
    1SOL    HW310639   0.556   1.341   4.597 -1.2212  0.1018  0.3132
    1SOL    MW410640   0.553   1.255   4.582 -0.1189  0.0216  0.5174
    1SOL     OW10641   0.017   1.898   4.119  0.1329 -0.1361  0.4269
    1SOL    HW210642   0.043   1.808   4.140  0.6571 -0.4217 -1.4127
    1SOL    HW310643  -0.061   1.913   4.174 -1.0063 -2.3172 -0.5180
    1SOL    MW410644   0.010   1.888   4.129  0.0517 -0.4616  0.0591
    1SOL     OW10645   1.945   4.167   4.621  0.0868 -0.0798 -0.3278
    1SOL    HW210646   2.030   4.129   4.602  0.1984 -0.4449  0.8761
    1SOL    HW310647   1.953   4.259   4.594  1.4084  0.3096  1.3365
    1SOL    MW410648   1.957   4.174   4.615  0.2759 -0.0763  0.0505
    1SOL     OW10649   4.087   1.362   4.622  0.1502  0.0282  0.3305
    1SOL    HW210650   4.029   1.400   4.687 -0.1032 -0.3295  0.3145
    1SOL    HW310651   4.123   1.437   4.575 -1.2863  0.2062 -0.5187
    1SOL    MW410652   4.084   1.377   4.624 -0.0730  0.0045  0.2165
    1SOL     OW10653   0.444   3.553   4.178 -0.6383  0.0176  0.0343
    1SOL    HW210654   0.530   3.589   4.196 -0.1732 -1.2282  0.3344
    1SOL    HW310655   0.443   3.538   4.084 -0.7279  0.5102 -0.0470
    1SOL    MW410656   0.455   3.556   4.168 -0.5887 -0.0823  0.0634
    1SOL     OW10657   3.262   1.565   4.488  0.4359  0.0901 -0.1384
    1SOL    HW210658   3.344   1.614   4.499 -0.2530  0.8574  1.7673
    1SOL    HW310659   3.194   1.631   4.501 -0.4818 -0.7089 -0.9209
    1SOL    MW410660   3.264   1.581   4.491  0.2239  0.0859  0.0091
    1SOL     OW10661   0.196   0.312   4.776  0.3472  0.3151  0.0356
    1SOL    HW210662   0.112   0.311   4.731 -0.0079  0.0705  0.6987
    1SOL    HW310663   0.194   0.235   4.833  0.8835  0.4938  0.3058
    1SOL    MW410664   0.185   0.301   4.778  0.3711  0.3064  0.1588
    1SOL     OW10665   3.457   0.617   4.533  0.0482 -0.0096  0.5660
    1SOL    HW210666   3.529   0.555   4.549 -0.4702 -0.9135 -0.5816
    1SOL    HW310667   3.500   0.698   4.506  0.6222 -0.6966 -0.6003
    1SOL    MW410668   3.472   0.619   4.532  0.0556 -0.2195  0.2613
    1SOL     OW10669   0.394   1.678   4.446 -0.1564  0.7148 -0.0024
    1SOL    HW210670   0.454   1.751   4.459  0.8819 -0.1408  0.1294
    1SOL    HW310671   0.386   1.669   4.351 -0.1759  0.9157 -0.0190
    1SOL    MW410672   0.401   1.686   4.436 -0.0219  0.6284  0.0129
    1SOL     OW10673   0.218   3.894   4.102  0.0287 -0.2153 -0.0540
    1SOL    HW210674   0.295   3.914   4.155 -0.4055  0.6162  0.2753
    1SOL    HW310675   0.144   3.917   4.158 -0.5229 -2.9469  0.4193
    1SOL    MW410676   0.219   3.899   4.116 -0.1014 -0.4659  0.0520
    1SOL     OW10677   2.109   0.972   4.287 -0.1591  0.5995 -0.0595
    1SOL    HW210678   2.189   1.022   4.273 -0.4911  1.0386 -0.3969
    1SOL    HW310679   2.047   1.035   4.323 -0.7799  0.6008 -1.0931
    1SOL    MW410680   2.111   0.987   4.290 -0.2847  0.6576 -0.2403
    1SOL     OW10681   1.175   4.161   4.814  0.1488  0.1981  0.4928
    1SOL    HW210682   1.246   4.223   4.832  0.7829 -0.3130 -0.1844
    1SOL    HW310683   1.095   4.209   4.834  0.6118  1.3550 -0.3903
    1SOL    MW410684   1.174   4.175   4.819  0.2936  0.2837  0.2866
    1SOL     OW10685   4.043   3.750   4.575 -0.4681  0.3168  0.1383
    1SOL    HW210686   4.113   3.685   4.569  0.3326  1.2284 -0.5998
    1SOL    HW310687   3.963   3.698   4.580  0.1605 -0.7272 -0.2995
    1SOL    MW410688   4.042   3.734   4.575 -0.2794  0.2995 -0.0167
    1SOL     OW10689   0.683   0.234   4.589 -0.2547  0.3975  0.2163
    1SOL    HW210690   0.611   0.279   4.634 -0.3387 -0.2041  0.6940
    1SOL    HW310691   0.667   0.249   4.496 -1.8290 -0.9568  0.2431
    1SOL    MW410692   0.671   0.242   4.583 -0.4736  0.1395  0.2823
    1SOL     OW10693   0.103   1.294   4.547  0.0171  0.1962 -0.0663
    1SOL    HW210694   0.142   1.288   4.460  1.6437  0.2259  0.6402
    1SOL    HW310695   0.010   1.275   4.533  0.1210  0.9119 -1.9031
    1SOL    MW410696   0.096   1.291   4.534  0.2454  0.2946 -0.2155
    1SOL     OW10697   4.288   1.481   4.127 -0.3876 -0.0952 -0.0864
    1SOL    HW210698   4.293   1.388   4.149 -0.7957  0.0088  0.4509
    1SOL    HW310699   4.277   1.483   4.032  1.3539 -0.5476 -0.3054
    1SOL    MW410700   4.287   1.469   4.117 -0.2117 -0.1413 -0.0448
    1SOL     OW10701   2.997   1.428   4.135  0.2173  0.5064  0.0381
    1SOL    HW210702   3.020   1.503   4.189  0.1859 -1.3450  2.7189
    1SOL    HW310703   2.918   1.393   4.176  1.1747 -1.9722 -0.1993
    1SOL    MW410704   2.989   1.433   4.147  0.3393 -0.0648  0.3600
    1SOL     OW10705   3.807   2.830   4.287  0.5189  0.3255  0.2233
    1SOL    HW210706   3.794   2.910   4.236  0.5687 -0.1826 -0.5939
    1SOL    HW310707   3.734   2.774   4.262  0.2117  0.3014  1.1686
    1SOL    MW410708   3.796   2.834   4.277  0.4847  0.2553  0.2403
    1SOL     OW10709   3.853   2.037   4.460 -0.2071  0.4046 -0.5223
    1SOL    HW210710   3.893   2.116   4.498 -1.1476  0.1906  0.9565
    1SOL    HW310711   3.852   2.054   4.365 -0.3416  2.1461 -0.2268
    1SOL    MW410712   3.858   2.050   4.452 -0.3493  0.6061 -0.2885
    1SOL     OW10713   4.136   2.076   4.557  0.0462 -0.3051  0.0444
    1SOL    HW210714   4.096   1.990   4.569  0.4572 -0.3160  1.3546
    1SOL    HW310715   4.224   2.068   4.595  0.4024  0.4419 -0.5905
    1SOL    MW410716   4.142   2.064   4.563  0.1478 -0.2079  0.1330
    1SOL     OW10717   1.993   4.399   4.224 -0.1559 -0.3599  0.0355
    1SOL    HW210718   2.005   4.488   4.191 -0.0012  0.4073  2.0688
    1SOL    HW310719   2.066   4.349   4.187  0.3949  0.6202 -0.2173
    1SOL    MW410720   2.004   4.404   4.215 -0.0629 -0.1297  0.2704
    1SOL     OW10721   2.831   4.407   4.547  0.2938 -0.5782  0.1713
    1SOL    HW210722   2.768   4.337   4.528 -0.4046  0.2818 -0.7374
    1SOL    HW310723   2.880   4.418   4.466 -0.0113  0.3908  0.1048
    1SOL    MW410724   2.829   4.399   4.534  0.1614 -0.3371  0.0424
    1SOL     OW10725   2.525   2.346   4.804  0.0110 -0.1051 -0.0906
    1SOL    HW210726   2.444   2.299   4.824  1.0969 -2.2278 -0.5391
    1SOL    HW310727   2.538   2.333   4.710  0.6590  0.6109 -0.1109
    1SOL    MW410728   2.516   2.338   4.794  0.2398 -0.2906 -0.1526
    1SOL     OW10729   1.076   0.512   4.238  0.3560  0.0353 -0.1882
    1SOL    HW210730   1.077   0.510   4.334 -1.0718  1.1891 -0.1286
    1SOL    HW310731   1.072   0.605   4.216 -0.0635 -0.2496 -1.3478
    1SOL    MW410732   1.076   0.524   4.248  0.1123  0.1499 -0.3333
    1SOL     OW10733   0.289   0.842   4.437  0.9907 -0.2119 -0.0046
    1SOL    HW210734   0.315   0.910   4.499  1.8602 -0.4973 -0.0520
    1SOL    HW310735   0.329   0.868   4.354  0.7474 -0.4108 -0.1839
    1SOL    MW410736   0.298   0.854   4.435  1.0733 -0.2758 -0.0339
    1SOL     OW10737   0.675   0.598   4.437 -0.2327  0.1734 -0.2782
    1SOL    HW210738   0.591   0.588   4.482 -0.1738 -0.1018 -0.2351
    1SOL    HW310739   0.651   0.640   4.354 -0.3738  0.4093 -0.1199
    1SOL    MW410740   0.661   0.603   4.432 -0.2435  0.1683 -0.2518
    1SOL     OW10741   0.843   2.530   4.512 -0.1365 -0.5298 -0.1557
    1SOL    HW210742   0.931   2.552   4.544 -0.5306 -0.0871  0.6373
    1SOL    HW310743   0.857   2.503   4.421  0.8087 -0.3752 -0.0641
    1SOL    MW410744   0.856   2.529   4.504 -0.0638 -0.4511 -0.0381
    1SOL     OW10745   1.165   3.614   4.253 -0.1299 -0.2558 -0.3704
    1SOL    HW210746   1.219   3.571   4.187 -1.4994 -2.7214  0.0698
    1SOL    HW310747   1.075   3.601   4.223 -0.6729  0.4506  0.8881
    1SOL    MW410748   1.160   3.607   4.240 -0.3822 -0.4878 -0.1459
    1SOL     OW10749   3.154   3.173   4.264  0.5624 -0.0522  0.6722
    1SOL    HW210750   3.162   3.265   4.238 -0.8420 -0.0736  0.1475
    1SOL    HW310751   3.160   3.175   4.359  0.8291  0.5555  0.6471
    1SOL    MW410752   3.156   3.186   4.273  0.4122  0.0253  0.5999
    1SOL     OW10753   3.592   2.298   4.511  0.1543 -0.6071  0.2894
    1SOL    HW210754   3.605   2.316   4.418  0.2820 -0.6155  0.3051
    1SOL    HW310755   3.681   2.287   4.546  0.2130  1.5267  0.8413
    1SOL    MW410756   3.606   2.299   4.504  0.1791 -0.3269  0.3638
    1SOL     OW10757   0.575   1.322   4.277 -0.2617  0.3202 -0.4439
    1SOL    HW210758   0.542   1.312   4.366 -0.4146  1.3095 -0.3806
    1SOL    HW310759   0.534   1.251   4.228  0.1468 -0.4812  0.3569
    1SOL    MW410760   0.565   1.312   4.282 -0.2280  0.3450 -0.3300
    1SOL     OW10761   1.476   2.070   4.307 -0.2192  0.3880 -0.5924
    1SOL    HW210762   1.548   2.008   4.299  1.9418  2.7535 -0.0264
    1SOL    HW310763   1.433   2.047   4.390  0.0181 -0.8764 -0.8111
    1SOL    MW410764   1.480   2.059   4.317  0.0972  0.5331 -0.5469
    1SOL     OW10765   1.264   2.828   4.606  0.6809  0.1572 -0.3321
    1SOL    HW210766   1.174   2.855   4.588  0.4181 -0.5520 -0.0992
    1SOL    HW310767   1.279   2.854   4.697  1.5069  2.3844 -1.0641
    1SOL    MW410768   1.254   2.835   4.615  0.7553  0.3576 -0.3977
    1SOL     OW10769   0.863   3.969   4.555 -0.1903 -0.0444 -0.4416
    1SOL    HW210770   0.939   4.025   4.537  1.6629 -2.1505  0.5133
    1SOL    HW310771   0.835   3.993   4.643 -0.9760  1.1175 -1.0080
    1SOL    MW410772   0.870   3.979   4.564 -0.0495 -0.1688 -0.3905
    1SOL     OW10773   4.488   3.477   4.179 -0.1693  0.0947  0.1601
    1SOL    HW210774   4.563   3.522   4.219 -0.1324  0.8996 -0.8023
    1SOL    HW310775   4.496   3.495   4.086 -1.1618 -0.4245 -0.0313
    1SOL    MW410776   4.499   3.485   4.172 -0.2954  0.1326  0.0076
    1SOL     OW10777   3.525   1.700   4.490 -0.2459 -0.0460  0.0274
    1SOL    HW210778   3.560   1.778   4.533  1.0085 -0.9432  0.6535
    1SOL    HW310779   3.579   1.628   4.522 -0.5055 -0.9965 -1.6027
    1SOL    MW410780   3.536   1.701   4.500 -0.1149 -0.2899 -0.1049
    1SOL     OW10781   0.051   3.890   4.541 -0.4215 -0.3870 -0.2617
    1SOL    HW210782   0.035   3.897   4.447  0.6813 -0.0519 -0.4336
    1SOL    HW310783  -0.001   3.961   4.580 -0.4962 -0.2280 -0.6564
    1SOL    MW410784   0.042   3.900   4.534 -0.2859 -0.3219 -0.3362
    1SOL     OW10785   2.775   3.321   4.726 -0.0192 -0.2850  0.5512
    1SOL    HW210786   2.697   3.377   4.729  1.0863  1.2232  1.8930
    1SOL    HW310787   2.739   3.232   4.724 -1.7837  0.3848  0.8903
    1SOL    MW410788   2.760   3.317   4.726 -0.1059  0.0024  0.7730
    1SOL     OW10789   4.490   0.782   4.468  0.0413  0.0028 -0.0720
    1SOL    HW210790   4.584   0.802   4.463  0.3571 -0.8922  1.9434
    1SOL    HW310791   4.458   0.834   4.542 -0.5276 -1.5956  0.8318
    1SOL    MW410792   4.498   0.792   4.477  0.0076 -0.3262  0.3133
    1SOL     OW10793   2.598   1.062   4.583  0.3093  0.3847  0.1206
    1SOL    HW210794   2.684   1.068   4.542  0.2565 -1.5572 -0.3640
    1SOL    HW310795   2.612   1.006   4.660 -0.6239 -0.4865 -0.3327
    1SOL    MW410796   2.611   1.055   4.588  0.1793  0.0136 -0.0029
    1SOL     OW10797   1.564   3.571   4.211  0.1565  0.4015 -0.1100
    1SOL    HW210798   1.489   3.535   4.164 -0.4319  0.2769  0.9179
    1SOL    HW310799   1.533   3.582   4.301  1.6141 -0.4279  0.5076
    1SOL    MW410800   1.550   3.568   4.217  0.2712  0.2756  0.1078
    1SOL     OW10801   3.140   3.987   4.251 -0.1002 -0.2941  0.1499
    1SOL    HW210802   3.219   3.943   4.219 -0.7727 -0.5791 -1.1586
    1SOL    HW310803   3.142   3.975   4.346  1.4525 -0.2556  0.1306
    1SOL    MW410804   3.151   3.980   4.259  0.0160 -0.3269 -0.0253
    1SOL     OW10805   0.205   2.095   4.253  0.0952  0.4485  0.1550
    1SOL    HW210806   0.147   2.039   4.202  0.0245 -0.1578  0.8875
    1SOL    HW310807   0.293   2.062   4.236  0.2734  1.5870 -1.2307
    1SOL    MW410808   0.209   2.083   4.244  0.1094  0.5186  0.0682
    1SOL     OW10809   2.148   1.854   4.558 -0.0317 -0.1059  0.5253
    1SOL    HW210810   2.206   1.930   4.554  0.4833 -0.4723  0.9217
    1SOL    HW310811   2.206   1.779   4.544 -0.7827 -0.3465 -1.5314
    1SOL    MW410812   2.163   1.854   4.556 -0.0629 -0.1861  0.3066
    1SOL     OW10813   2.983   3.373   4.536 -0.0899  0.0885 -0.4203
    1SOL    HW210814   2.918   3.366   4.606 -0.6457 -1.2993 -1.0623
    1SOL    HW310815   3.051   3.310   4.559  0.4506  0.6686 -0.3866
    1SOL    MW410816   2.984   3.364   4.548 -0.0920 -0.0181 -0.5002
    1SOL     OW10817   0.611   3.719   4.559 -0.9034  0.0352 -0.1826
    1SOL    HW210818   0.650   3.706   4.473 -2.3092  0.5126 -0.9252
    1SOL    HW310819   0.681   3.703   4.621 -0.3013 -1.9570 -1.3634
    1SOL    MW410820   0.625   3.715   4.555 -1.0095 -0.1647 -0.4363
    1SOL     OW10821   1.792   3.257   4.271 -0.2709 -0.1491 -0.0728
    1SOL    HW210822   1.722   3.206   4.231 -0.3116  0.6197 -0.9989
    1SOL    HW310823   1.807   3.330   4.210  0.9429  0.0077  0.3953
    1SOL    MW410824   1.785   3.260   4.258 -0.1160 -0.0267 -0.1340
    1SOL     OW10825   2.974   2.319   4.085  0.0845 -0.2051  0.2611
    1SOL    HW210826   2.883   2.344   4.101  0.4198  1.6105 -0.5604
    1SOL    HW310827   2.976   2.295   3.992  0.2725 -1.0910  0.4859
    1SOL    MW410828   2.962   2.319   4.075  0.1538 -0.0823  0.1817
    1SOL     OW10829   2.476   3.736   4.490  0.0040 -0.0735 -0.3320
    1SOL    HW210830   2.479   3.694   4.404  1.8088 -0.7059  0.0188
    1SOL    HW310831   2.477   3.663   4.553  0.8423  0.4143  0.2402
    1SOL    MW410832   2.477   3.721   4.487  0.3526 -0.0925 -0.2103
    1SOL     OW10833   1.399   4.307   4.867 -0.5170  0.1753  0.0986
    1SOL    HW210834   1.397   4.402   4.851 -0.7118  0.0527 -0.6452
    1SOL    HW310835   1.431   4.298   4.957  0.6853  0.9042 -0.2475
    1SOL    MW410836   1.403   4.318   4.877 -0.3840  0.2556 -0.0453
    1SOL     OW10837   4.384   2.060   4.679  0.2406 -0.0191  0.3695
    1SOL    HW210838   4.377   2.136   4.737  0.9718  0.6722 -0.4403
    1SOL    HW310839   4.437   2.090   4.605  1.7812 -1.7383  0.7284
    1SOL    MW410840   4.390   2.074   4.677  0.5403 -0.1547  0.3095
    1SOL     OW10841   3.548   2.580   4.530  0.4440  0.3716  0.2672
    1SOL    HW210842   3.634   2.607   4.496  0.9181  1.1841  2.0474
    1SOL    HW310843   3.552   2.484   4.531  1.3726  0.4067  0.4239
    1SOL    MW410844   3.560   2.571   4.525  0.6287  0.4835  0.5226
    1SOL     OW10845   1.811   2.091   4.124  0.2577  0.2498  0.2511
    1SOL    HW210846   1.794   2.048   4.040  0.4132  2.3294 -0.8644
    1SOL    HW310847   1.752   2.166   4.126  2.8860  2.3863  0.3129
    1SOL    MW410848   1.801   2.095   4.114  0.6250  0.8063  0.1116
    1SOL     OW10849   1.651   1.210   4.141  0.0268 -0.2287  0.4636
    1SOL    HW210850   1.672   1.140   4.203 -0.1270  0.6474  1.4917
    1SOL    HW310851   1.637   1.288   4.194 -2.0157  0.1065 -0.5040
    1SOL    MW410852   1.652   1.211   4.156 -0.2630 -0.0688  0.4721
    1SOL     OW10853   3.398   3.591   4.483  0.4020 -0.3830  0.0351
    1SOL    HW210854   3.442   3.507   4.498  2.0479  0.3107 -0.7752
    1SOL    HW310855   3.449   3.655   4.531  0.1565  0.4108 -0.7317
    1SOL    MW410856   3.410   3.588   4.491  0.5867 -0.1867 -0.1731
    1SOL     OW10857   0.993   0.191   4.526 -0.2999  0.1206  0.3040
    1SOL    HW210858   0.954   0.157   4.445 -1.1260  1.4499  0.1268
    1SOL    HW310859   0.920   0.196   4.588  0.2141 -0.3384  0.9561
    1SOL    MW410860   0.978   0.187   4.523 -0.3411  0.2354  0.3667
    1SOL     OW10861   2.245   2.885   4.660  0.1110  0.2692 -0.5422
    1SOL    HW210862   2.199   2.813   4.704 -0.8479  0.3924 -1.3344
    1SOL    HW310863   2.323   2.844   4.623  0.1738 -0.1290  0.0259
    1SOL    MW410864   2.249   2.870   4.661 -0.0074  0.2332 -0.5717
    1SOL     OW10865   3.858   2.295   4.601 -0.0415  0.3340  0.0873
    1SOL    HW210866   3.919   2.352   4.555 -0.3264 -1.4668 -2.6483
    1SOL    HW310867   3.909   2.257   4.672  1.6302  0.0456 -1.2233
    1SOL    MW410868   3.873   2.297   4.604  0.1416  0.0582 -0.4468
    1SOL     OW10869   1.592   2.285   4.173  0.2513  0.2741 -0.1387
    1SOL    HW210870   1.646   2.334   4.235  0.1210  0.5742 -0.2651
    1SOL    HW310871   1.561   2.210   4.223  1.3190 -0.2502 -0.2442
    1SOL    MW410872   1.595   2.282   4.188  0.3750  0.2446 -0.1693
    1SOL     OW10873   1.301   1.715   4.476 -0.2672  0.1378 -0.2291
    1SOL    HW210874   1.340   1.642   4.523 -0.9243  0.2144  0.4543
    1SOL    HW310875   1.207   1.697   4.478 -0.3274  0.2886 -1.2731
    1SOL    MW410876   1.294   1.703   4.482 -0.3617  0.1678 -0.2766
    1SOL     OW10877   3.825   0.050   4.527 -0.0843 -0.1460  0.6934
    1SOL    HW210878   3.841   0.102   4.605 -0.6421 -0.4944  1.0371
    1SOL    HW310879   3.818  -0.040   4.558  0.3262 -0.3669  0.1655
    1SOL    MW410880   3.826   0.045   4.541 -0.1037 -0.2211  0.6690
    1SOL     OW10881   2.033   3.004   4.515  0.0308  0.3113 -0.3179
    1SOL    HW210882   2.034   2.963   4.429 -1.2934 -1.2504  0.3908
    1SOL    HW310883   2.106   2.963   4.562 -0.6652 -0.4951  0.0579
    1SOL    MW410884   2.043   2.993   4.510 -0.2353 -0.0010 -0.1745
    1SOL     OW10885   4.288   3.878   4.142  0.4749  0.1725 -0.0689
    1SOL    HW210886   4.271   3.789   4.174  0.0945  0.0028 -0.7420
    1SOL    HW310887   4.313   3.867   4.051  1.0927  0.7039  0.0358
    1SOL    MW410888   4.289   3.865   4.134  0.5059  0.2201 -0.1435
    1SOL     OW10889   0.733   2.796   4.503 -0.4542 -0.5381  0.3973
    1SOL    HW210890   0.720   2.820   4.411  0.3272 -0.1746  0.3779
    1SOL    HW310891   0.778   2.712   4.500  1.4071  0.4367  0.4229
    1SOL    MW410892   0.737   2.788   4.490 -0.1055 -0.3614  0.3982
    1SOL     OW10893   0.971   0.901   4.555  0.0956 -0.6827  0.1316
    1SOL    HW210894   0.932   0.815   4.569 -1.1387  0.2459  2.7498
    1SOL    HW310895   1.061   0.892   4.585 -0.0004 -1.1081  0.2990
    1SOL    MW410896   0.978   0.889   4.561 -0.0799 -0.6163  0.4992
    1SOL     OW10897   4.265   2.810   4.253  0.4888  0.6637  0.1376
    1SOL    HW210898   4.185   2.780   4.210  0.5426  0.4469  0.1830
    1SOL    HW310899   4.274   2.901   4.227  0.4435  0.5755 -0.1967
    1SOL    MW410900   4.256   2.818   4.244  0.4897  0.6232  0.0997
    1SOL     OW10901   0.256   4.653   4.123  0.0347 -0.0527 -0.0648
    1SOL    HW210902   0.351   4.660   4.126 -0.0674  1.3292  0.1286
    1SOL    HW310903   0.236   4.574   4.174  0.9619  0.6320  1.3718
    1SOL    MW410904   0.266   4.644   4.130  0.1436  0.2203  0.1502
    1SOL     OW10905   3.388   2.105   4.513 -0.2190  0.0209 -0.0601
    1SOL    HW210906   3.451   2.176   4.520 -1.3533  1.3585 -2.5482
    1SOL    HW310907   3.304   2.145   4.534 -0.6853 -0.9031 -0.1124
    1SOL    MW410908   3.385   2.119   4.517 -0.4301  0.0756 -0.3948
    1SOL     OW10909   0.414   1.162   4.104  0.2751  0.1889 -0.3741
    1SOL    HW210910   0.409   1.068   4.123  1.5206  0.3744  0.9571
    1SOL    HW310911   0.423   1.166   4.009 -0.1782 -1.0264 -0.4795
    1SOL    MW410912   0.415   1.150   4.094  0.3797  0.0530 -0.2117
    1SOL     OW10913   2.238   3.268   4.245 -0.6166 -0.1170  0.4609
    1SOL    HW210914   2.180   3.208   4.199 -0.4851 -0.1912  0.3917
    1SOL    HW310915   2.202   3.271   4.334 -0.1235 -0.9682  0.6983
    1SOL    MW410916   2.226   3.260   4.251 -0.5343 -0.2391  0.4830
    1SOL     OW10917   0.022   0.114   4.226  0.3057  0.0648 -0.3513
    1SOL    HW210918   0.090   0.061   4.184 -0.0121  0.3186 -1.1776
    1SOL    HW310919   0.027   0.199   4.183  0.5422  0.6004  0.6991
    1SOL    MW410920   0.032   0.118   4.215  0.2950  0.1689 -0.3223
    1SOL     OW10921   1.346   4.052   4.446 -0.1317  0.4132 -0.3374
    1SOL    HW210922   1.257   4.055   4.482  0.2910  0.3565  0.7380
    1SOL    HW310923   1.386   3.977   4.489  0.2532  0.0684 -1.2809
    1SOL    MW410924   1.339   4.043   4.456 -0.0253  0.3605 -0.3204
    1SOL     OW10925   1.023   3.749   4.645  0.1402  0.5825  0.5361
    1SOL    HW210926   1.093   3.805   4.679  0.8079  0.1944 -0.1754
    1SOL    HW310927   0.978   3.803   4.580 -0.3543  0.9005  1.1363
    1SOL    MW410928   1.026   3.764   4.641  0.1631  0.5734  0.5212
    1SOL     OW10929   2.355   1.186   4.475 -0.1258 -0.0047 -0.8225
    1SOL    HW210930   2.360   1.276   4.445  0.4097 -0.5573 -2.4805
    1SOL    HW310931   2.440   1.168   4.514 -1.0426  0.9131  1.6472
    1SOL    MW410932   2.367   1.195   4.476 -0.1762  0.0435 -0.7157
    1SOL     OW10933   2.186   0.793   4.519  0.0552  0.3821 -0.1950
    1SOL    HW210934   2.155   0.854   4.452 -0.3172  1.8335  1.2765
    1SOL    HW310935   2.282   0.796   4.511 -0.0127 -0.4001 -1.4749
    1SOL    MW410936   2.195   0.801   4.509 -0.0029  0.4705 -0.1698
    1SOL     OW10937   1.303   0.911   4.284  0.3468  0.1412  0.5097
    1SOL    HW210938   1.357   0.839   4.251 -1.0978 -0.6354 -0.2025
    1SOL    HW310939   1.330   0.986   4.231 -0.2072 -0.5481 -0.7933
    1SOL    MW410940   1.313   0.911   4.272  0.0832 -0.0522  0.2437
    1SOL     OW10941   4.029   0.893   4.573 -0.1928 -0.0739  0.3817
    1SOL    HW210942   4.030   0.888   4.478 -1.0188  1.4670  0.2790
    1SOL    HW310943   3.937   0.890   4.597  0.0945 -2.8839  1.3090
    1SOL    MW410944   4.017   0.892   4.564 -0.2637 -0.2413  0.4911
    1SOL     OW10945   2.013   0.947   4.710  0.1238  0.1825 -0.0528
    1SOL    HW210946   2.076   0.894   4.661  1.0261 -1.4256  2.7396
    1SOL    HW310947   2.051   1.035   4.712  1.2413 -0.2864 -0.2196
    1SOL    MW410948   2.026   0.951   4.704  0.3901 -0.0916  0.2933
    1SOL     OW10949   1.317   3.233   4.256  0.1924 -0.5471  0.0059
    1SOL    HW210950   1.301   3.233   4.350 -1.1275 -1.3345 -0.2083
    1SOL    HW310951   1.247   3.178   4.219  0.7096 -0.2763 -1.4254
    1SOL    MW410952   1.306   3.226   4.263  0.0865 -0.6154 -0.2117
    1SOL     OW10953   1.099   2.295   4.149  0.5463 -0.0156  0.4582
    1SOL    HW210954   1.182   2.338   4.171  1.8831 -0.8281 -2.6513
    1SOL    HW310955   1.112   2.205   4.177  0.7662 -0.1623 -0.1051
    1SOL    MW410956   1.112   2.289   4.155  0.7517 -0.1423 -0.0262
    1SOL     OW10957   4.145   1.588   4.489  0.2148 -0.0647 -0.0125
    1SOL    HW210958   4.081   1.659   4.492  0.4632  0.2756 -1.8263
    1SOL    HW310959   4.226   1.627   4.520  0.1355  0.2167 -0.1573
    1SOL    MW410960   4.147   1.602   4.493  0.2370  0.0175 -0.2708
    1SOL     OW10961   0.147   4.526   4.608 -0.1584  0.2244  0.0128
    1SOL    HW210962   0.151   4.560   4.697  1.6700  1.3166 -0.4594
    1SOL    HW310963   0.116   4.600   4.555  1.7567  0.5485 -0.6975
    1SOL    MW410964   0.143   4.540   4.613  0.3355  0.4115 -0.1426
    1SOL     OW10965   3.325   1.049   4.470  0.0666  0.3235  0.2055
    1SOL    HW210966   3.265   1.058   4.397  0.5676  0.8119 -0.1509
    1SOL    HW310967   3.356   1.138   4.487 -0.6595  0.3405  1.5363
    1SOL    MW410968   3.321   1.062   4.463  0.0370  0.3903  0.3347
    1SOL     OW10969   3.566   3.757   4.598 -0.0607 -0.1101  0.2447
    1SOL    HW210970   3.554   3.766   4.693  1.0047  0.9386  0.2851
    1SOL    HW310971   3.647   3.707   4.589 -0.1046 -0.1128 -0.1233
    1SOL    MW410972   3.575   3.751   4.610  0.0744  0.0281  0.2012
    1SOL     OW10973   0.652   4.608   4.567 -0.3508  0.0261  0.3159
    1SOL    HW210974   0.666   4.700   4.585  1.3801 -0.0512 -0.5254
    1SOL    HW310975   0.651   4.602   4.471 -1.7105 -0.6491  0.3558
    1SOL    MW410976   0.654   4.619   4.556 -0.3019 -0.0730  0.2103
    1SOL     OW10977   0.582   1.876   4.475 -0.0075  0.1232 -0.0201
    1SOL    HW210978   0.645   1.868   4.547 -0.1792 -0.5649  0.0614
    1SOL    HW310979   0.557   1.968   4.475 -0.1587  0.0956  0.9460
    1SOL    MW410980   0.587   1.887   4.485 -0.0501  0.0287  0.1183
    1SOL     OW10981   2.043   1.409   4.349  0.3709  0.0994 -0.0078
    1SOL    HW210982   2.007   1.468   4.282 -0.5262  0.1948  0.5478
    1SOL    HW310983   2.028   1.455   4.432 -0.0651 -0.7694  0.4061
    1SOL    MW410984   2.036   1.423   4.351  0.1950 -0.0027  0.1202
    1SOL     OW10985   4.267   4.651   4.105 -0.3460  0.0852 -0.7127
    1SOL    HW210986   4.194   4.700   4.143 -0.7733 -0.8337 -0.3378
    1SOL    HW310987   4.345   4.697   4.135 -0.7130 -0.0694  0.4849
    1SOL    MW410988   4.267   4.664   4.114 -0.4511 -0.0563 -0.5050
    1SOL     OW10989   2.722   2.790   4.643 -0.1554  0.0654  0.3294
    1SOL    HW210990   2.632   2.784   4.611 -0.4365  1.4473  0.8402
    1SOL    HW310991   2.722   2.738   4.723 -0.1512 -1.0500 -0.3753
    1SOL    MW410992   2.710   2.782   4.649 -0.1919  0.1001  0.3037
    1SOL     OW10993   2.225   4.522   4.579  0.3308 -0.6611  0.4281
    1SOL    HW210994   2.220   4.589   4.648 -0.9436  0.1942 -0.4899
    1SOL    HW310995   2.135   4.496   4.564  0.4537  0.2259 -1.9590
    1SOL    MW410996   2.213   4.528   4.586  0.1786 -0.4315 -0.0081
    1SOL     OW10997   3.038   4.225   4.617  0.3583  0.2425 -0.3786
    1SOL    HW210998   2.951   4.253   4.588  0.7574  0.7598 -1.1008
    1SOL    HW310999   3.048   4.262   4.704 -0.3644 -0.2753 -0.0749
    1SOL    MW411000   3.028   4.233   4.624  0.3154  0.2422 -0.4339
    1SOL     OW11001   3.505   4.317   4.516  0.4017  0.1205 -0.0275
    1SOL    HW211002   3.488   4.223   4.509  0.7663  0.0266  0.3509
    1SOL    HW311003   3.426   4.352   4.557  0.5189 -0.1103  0.4003
    1SOL    MW411004   3.492   4.309   4.521  0.4656  0.0777  0.0792
    1SOL     OW11005   2.940   2.284   4.682 -0.1694  0.0293  0.0196
    1SOL    HW211006   2.906   2.368   4.651  0.3316 -0.0192 -0.6711
    1SOL    HW311007   2.882   2.219   4.643 -0.7785  0.0728  0.8517
    1SOL    MW411008   2.928   2.287   4.673 -0.1838  0.0286  0.0386
    1SOL     OW11009   1.767   4.280   4.146  0.6855  0.1269 -0.3338
    1SOL    HW211010   1.769   4.296   4.052  1.8477 -1.3825 -0.5906
    1SOL    HW311011   1.850   4.315   4.179  0.4809  0.2480  0.0657
    1SOL    MW411012   1.778   4.287   4.138  0.8118 -0.0563 -0.3147
    1SOL     OW11013   2.352   1.140   4.194  0.6486  0.0644  0.3505
    1SOL    HW211014   2.444   1.132   4.167  1.1256  3.2324  0.8610
    1SOL    HW311015   2.357   1.149   4.289 -0.2508 -0.5391  0.4533
    1SOL    MW411016   2.365   1.140   4.203  0.5929  0.4027  0.4320
    1SOL     OW11017   0.762   4.007   4.814  0.3185  0.4740 -0.4460
    1SOL    HW211018   0.789   3.917   4.834  0.2208  0.1925 -1.5736
    1SOL    HW311019   0.667   4.001   4.798  0.1655  0.9141  0.2506
    1SOL    MW411020   0.753   3.994   4.815  0.2854  0.4947 -0.5026
    1SOL     OW11021   2.598   0.422   4.539 -0.5913 -0.1737 -0.1653
    1SOL    HW211022   2.557   0.351   4.588 -0.2279 -0.9208 -0.9227
    1SOL    HW311023   2.529   0.454   4.481 -0.4709 -0.5870 -0.5400
    1SOL    MW411024   2.584   0.417   4.538 -0.5276 -0.3268 -0.3147
    1SOL     OW11025   4.081   1.632   4.224  0.3640  0.0207 -0.2450
    1SOL    HW211026   4.144   1.588   4.166  0.0683 -1.9149  0.8790
    1SOL    HW311027   4.107   1.607   4.312 -2.1796 -1.0788  0.2296
    1SOL    MW411028   4.093   1.623   4.228 -0.0110 -0.3796 -0.0339
    1SOL     OW11029   1.943   1.795   4.720 -0.2111 -0.0721  0.0654
    1SOL    HW211030   1.898   1.724   4.675 -2.1053  0.9421  0.2898
    1SOL    HW311031   2.002   1.832   4.654 -1.1569 -0.1677 -0.8436
    1SOL    MW411032   1.945   1.791   4.705 -0.5859  0.0491 -0.0248
    1SOL     OW11033   1.121   2.541   4.578 -0.1495 -0.0348  0.1234
    1SOL    HW211034   1.180   2.615   4.594  0.1409 -0.7044  2.2129
    1SOL    HW311035   1.179   2.469   4.554 -0.1745 -0.4745  1.3747
    1SOL    MW411036   1.136   2.541   4.577 -0.1144 -0.1812  0.5641
    1SOL     OW11037   2.943   2.860   4.269 -0.1088 -0.2048  0.2473
    1SOL    HW211038   2.926   2.948   4.234  0.8543 -0.6005 -1.2401
    1SOL    HW311039   2.856   2.820   4.275 -0.4162  0.3366 -0.4681
    1SOL    MW411040   2.929   2.867   4.265 -0.0224 -0.1857 -0.0429
    1SOL     OW11041   1.533   0.773   4.181 -0.1791  0.1663 -0.3914
    1SOL    HW211042   1.591   0.834   4.225 -1.3650  1.0158  0.0140
    1SOL    HW311043   1.552   0.785   4.088  1.7631 -1.0641 -0.1751
    1SOL    MW411044   1.543   0.783   4.174 -0.0794  0.1161 -0.3095
    1SOL     OW11045   4.005   2.504   4.502  0.2531  0.1023 -0.2312
    1SOL    HW211046   4.020   2.485   4.409 -1.0755  2.8235 -1.0525
    1SOL    HW311047   4.092   2.522   4.537  0.7313 -0.6115 -1.0350
    1SOL    MW411048   4.018   2.504   4.494  0.1411  0.3672 -0.4454
    1SOL     OW11049   4.053   4.007   4.255 -1.0668  0.3421  0.6729
    1SOL    HW211050   4.134   3.961   4.235 -0.5401  1.1268  0.9494
    1SOL    HW311051   4.051   4.013   4.350  0.5239  3.7079  0.5726
    1SOL    MW411052   4.063   4.002   4.265 -0.7873  0.8898  0.6962
    1SOL     OW11053   3.186   3.998   4.521 -0.0247 -0.1811 -0.0117
    1SOL    HW211054   3.151   4.078   4.558  1.1542 -0.5156  1.8826
    1SOL    HW311055   3.277   4.019   4.500 -0.2704 -0.4338 -1.4154
    1SOL    MW411056   3.193   4.011   4.523  0.0985 -0.2584  0.0534
    1SOL     OW11057   4.422   0.328   4.601 -0.0735 -0.2504 -0.0781
    1SOL    HW211058   4.426   0.399   4.537  0.3498 -0.1631  0.0425
    1SOL    HW311059   4.476   0.258   4.563  2.1771  0.6923  1.2738
    1SOL    MW411060   4.430   0.328   4.587  0.2799 -0.1146  0.1159
    1SOL     OW11061   0.986   3.174   4.506 -0.2419  0.3258  0.3641
    1SOL    HW211062   0.910   3.198   4.560 -0.5407  1.3965 -0.5095
    1SOL    HW311063   1.058   3.226   4.541 -0.3721  0.8065 -0.0644
    1SOL    MW411064   0.985   3.184   4.517 -0.2984  0.5307  0.1922
    1SOL     OW11065   0.310   2.595   4.551 -0.4201 -0.0834  0.2784
    1SOL    HW211066   0.326   2.689   4.543  2.0663 -0.2667  2.2042
    1SOL    HW311067   0.396   2.556   4.532 -0.7716 -1.7838  2.1408
    1SOL    MW411068   0.324   2.602   4.547 -0.1384 -0.3319  0.7777
    1SOL     OW11069   1.732   1.315   4.482 -0.5939 -0.0634  0.2610
    1SOL    HW211070   1.653   1.273   4.517 -1.5247  0.0631 -1.6589
    1SOL    HW311071   1.779   1.244   4.439 -0.5602  0.2193 -0.1666
    1SOL    MW411072   1.728   1.300   4.481 -0.7123 -0.0093 -0.0482
    1SOL     OW11073   0.399   0.902   4.185 -0.7803 -0.6075  0.1150
    1SOL    HW211074   0.486   0.862   4.188 -0.4725  0.1380  1.7877
    1SOL    HW311075   0.343   0.834   4.150  0.3845 -1.2987 -0.4509
    1SOL    MW411076   0.403   0.888   4.181 -0.5861 -0.6003  0.2604
    1SOL     OW11077   2.331   1.797   4.146 -0.2043 -0.6013 -0.2871
    1SOL    HW211078   2.252   1.808   4.200 -0.3397  0.5370 -0.6998
    1SOL    HW311079   2.310   1.842   4.064  0.3717 -1.4704 -0.9155
    1SOL    MW411080   2.318   1.805   4.142 -0.1464 -0.5658 -0.4244
    1SOL     OW11081   4.184   2.389   4.815 -0.1398  0.0023  0.3037
    1SOL    HW211082   4.225   2.425   4.894 -0.3788 -0.3973  0.6137
    1SOL    HW311083   4.132   2.315   4.847  1.1223 -1.2314 -0.4461
    1SOL    MW411084   4.182   2.384   4.830 -0.0048 -0.2131  0.2456
    1SOL     OW11085   2.362   2.554   4.717  0.2052 -0.0628 -0.1390
    1SOL    HW211086   2.368   2.540   4.623 -0.0143 -0.3352 -0.1154
    1SOL    HW311087   2.398   2.474   4.756 -0.8408 -0.4778  0.0009
    1SOL    MW411088   2.367   2.541   4.710  0.0384 -0.1531 -0.1183
    1SOL     OW11089   1.144   1.302   4.284  0.0127 -0.0475  0.2176
    1SOL    HW211090   1.212   1.247   4.244 -0.4832 -0.5495  0.0643
    1SOL    HW311091   1.146   1.280   4.377  1.0187  0.9640  0.4601
    1SOL    MW411092   1.154   1.292   4.291  0.0800  0.0198  0.2298
    1SOL     OW11093   3.375   1.310   4.505  0.1665  0.0123  0.2286
    1SOL    HW211094   3.406   1.310   4.414  0.5947  0.4307  0.3682
    1SOL    HW311095   3.346   1.400   4.520 -1.9950 -0.6011 -0.1790
    1SOL    MW411096   3.375   1.322   4.495 -0.0622 -0.0136  0.1931
    1SOL     OW11097   1.732   4.020   4.240  0.5252 -0.2052  0.1309
    1SOL    HW211098   1.741   4.110   4.208 -0.4527 -0.2478 -0.2726
    1SOL    HW311099   1.700   4.030   4.330  0.8557 -0.1451  0.2438
    1SOL    MW411100   1.729   4.033   4.247  0.4398 -0.2031  0.0930
    1SOL     OW11101   4.046   0.840   4.291  0.1012 -0.3454  0.0431
    1SOL    HW211102   3.964   0.805   4.257  0.4718 -1.0335 -0.1383
    1SOL    HW311103   4.113   0.802   4.235  0.4712  1.0452 -0.4710
    1SOL    MW411104   4.044   0.831   4.279  0.1988 -0.2527 -0.0486
    1SOL     OW11105   0.258   0.503   4.194  0.1816 -0.0105  0.0908
    1SOL    HW211106   0.173   0.459   4.184 -0.0820  0.9212 -2.0409
    1SOL    HW311107   0.319   0.451   4.143  0.3878  0.6545 -0.3567
    1SOL    MW411108   0.255   0.491   4.186  0.1740  0.2002 -0.2499
    1SOL     OW11109   1.228   3.284   4.559 -0.1790 -0.4269  0.2505
    1SOL    HW211110   1.219   3.379   4.561  0.0346 -0.3934 -0.4188
    1SOL    HW311111   1.307   3.267   4.612 -0.2059 -0.2322  0.3540
    1SOL    MW411112   1.237   3.294   4.566 -0.1543 -0.3967  0.1755
    1SOL     OW11113   1.479   3.609   4.485 -0.0426 -0.0571 -0.0885
    1SOL    HW211114   1.386   3.586   4.488  0.6340 -3.2886 -1.4135
    1SOL    HW311115   1.516   3.568   4.564  0.3867  0.6906  0.1042
    1SOL    MW411116   1.471   3.600   4.496  0.1032 -0.3848 -0.2375
    1SOL     OW11117   0.019   3.981   4.268  0.4677 -0.0489  0.1967
    1SOL    HW211118  -0.067   3.947   4.241  0.0202 -0.1931  1.7903
    1SOL    HW311119   0.030   4.061   4.216 -0.7552  0.1190  0.1877
    1SOL    MW411120   0.009   3.987   4.257  0.2475 -0.0458  0.4063
    1SOL     OW11121   0.673   4.589   4.295 -0.3024  0.2915  0.2959
    1SOL    HW211122   0.763   4.621   4.286 -0.2622  0.1102  0.0269
    1SOL    HW311123   0.681   4.494   4.284 -0.4074  0.1785  1.1571
    1SOL    MW411124   0.686   4.581   4.292 -0.3110  0.2527  0.3738
    1SOL     OW11125   0.784   3.708   4.763  0.6469  0.5920  0.3848
    1SOL    HW211126   0.760   3.619   4.792  0.8967  0.5660  0.5069
    1SOL    HW311127   0.876   3.701   4.739 -0.0479  0.0800 -2.4252
    1SOL    MW411128   0.793   3.695   4.763  0.5882  0.5212  0.0300
    1SOL     OW11129   0.026   0.367   4.126  0.6171  0.1657 -0.0018
    1SOL    HW211130   0.015   0.377   4.031 -0.1326 -0.6118 -0.0069
    1SOL    HW311131  -0.049   0.413   4.163  1.0684  0.7188  0.2254
    1SOL    MW411132   0.014   0.374   4.118  0.5774  0.1361  0.0277
    1SOL     OW11133   1.312   1.908   4.119  0.3145  0.3320  0.0321
    1SOL    HW211134   1.369   1.950   4.185 -0.3084  0.1838  0.6670
    1SOL    HW311135   1.316   1.815   4.141  0.7740  0.1889 -0.6625
    1SOL    MW411136   1.320   1.901   4.131  0.2930  0.2936  0.0238
    1SOL     OW11137   1.571   3.108   4.172 -0.0906  0.0125 -0.2623
    1SOL    HW211138   1.510   3.160   4.225  0.8088  0.3208  0.5072
    1SOL    HW311139   1.554   3.018   4.197 -0.4075  0.0746 -0.2467
    1SOL    MW411140   1.561   3.103   4.183 -0.0137  0.0618 -0.1583
    1SOL     OW11141   2.475   3.628   4.234  0.1288 -0.6411  0.5013
    1SOL    HW211142   2.393   3.588   4.202  0.6309 -1.5315  0.3070
    1SOL    HW311143   2.469   3.719   4.206 -0.3044 -0.9628 -0.5133
    1SOL    MW411144   2.463   3.635   4.226  0.1380 -0.8011  0.3419
    1SOL     OW11145   2.449   2.518   4.071  0.0355  0.4377  0.0211
    1SOL    HW211146   2.388   2.489   4.139 -0.3756  0.8591 -0.1647
    1SOL    HW311147   2.458   2.612   4.086  1.6919  0.1585  0.8947
    1SOL    MW411148   2.442   2.527   4.082  0.1998  0.4566  0.1125
    1SOL     OW11149   0.169   3.637   4.543 -0.3211 -0.1139  0.1594
    1SOL    HW211150   0.118   3.717   4.557  1.4279  0.9526  0.5674
    1SOL    HW311151   0.193   3.639   4.451 -0.4410 -0.2646  0.1257
    1SOL    MW411152   0.165   3.648   4.533 -0.1062  0.0069  0.2084
    1SOL     OW11153   0.902   2.463   4.216 -0.3315 -0.0393  0.4128
    1SOL    HW211154   0.833   2.418   4.167 -0.4344 -1.1495  1.5578
    1SOL    HW311155   0.982   2.415   4.194 -0.0732  0.6373 -0.1411
    1SOL    MW411156   0.904   2.451   4.207 -0.3110 -0.0966  0.4907
    1SOL     OW11157   2.085   1.817   4.290 -1.0195  0.0095  0.2159
    1SOL    HW211158   2.093   1.843   4.382  1.7773 -0.9190  0.2767
    1SOL    HW311159   2.078   1.899   4.242  0.0161  0.6085  1.0720
    1SOL    MW411160   2.085   1.831   4.296 -0.5140 -0.0340  0.3366
    1SOL     OW11161   2.667   3.949   4.509 -0.0402  0.1164 -0.1255
    1SOL    HW211162   2.746   3.908   4.545 -0.6264 -0.5513  0.4068
    1SOL    HW311163   2.599   3.882   4.516 -0.7331  0.7886 -0.2977
    1SOL    MW411164   2.669   3.935   4.515 -0.2089  0.1171 -0.0787
    1SOL     OW11165   3.999   1.827   4.564 -0.3739  0.2053 -0.0383
    1SOL    HW211166   3.925   1.877   4.531 -0.0373  1.5349  1.1597
    1SOL    HW311167   3.980   1.814   4.657  0.9189  0.6279  0.2946
    1SOL    MW411168   3.987   1.832   4.571 -0.1588  0.4364  0.1636
    1SOL     OW11169   3.844   1.523   4.156  0.0293 -0.0693  0.3490
    1SOL    HW211170   3.775   1.577   4.195  0.2374  0.0499  0.5556
    1SOL    HW311171   3.926   1.568   4.180  0.0910  0.9372 -1.6441
    1SOL    MW411172   3.846   1.536   4.164  0.0648  0.0793  0.1140
    1SOL     OW11173   4.292   1.220   4.218  0.2137 -0.3353 -0.4548
    1SOL    HW211174   4.236   1.152   4.181  0.6413 -0.9423 -0.0127
    1SOL    HW311175   4.289   1.205   4.313  0.4554  0.1464 -0.3677
    1SOL    MW411176   4.285   1.209   4.226  0.3018 -0.3518 -0.3853
    1SOL     OW11177   2.188   0.188   4.226 -0.2213 -0.1534 -0.1741
    1SOL    HW211178   2.194   0.198   4.321 -1.2812  0.8043 -0.2055
    1SOL    HW311179   2.272   0.149   4.201  0.5964  0.8114  0.9925
    1SOL    MW411180   2.200   0.184   4.235 -0.2532  0.1003 -0.0243
    1SOL     OW11181   0.594   1.522   4.572 -0.5228 -0.0391  0.3777
    1SOL    HW211182   0.601   1.558   4.661 -0.6306 -0.8641  0.7197
    1SOL    HW311183   0.522   1.570   4.532  0.7992  1.7538  0.0571
    1SOL    MW411184   0.586   1.533   4.579 -0.3626  0.0887  0.3805
    1SOL     OW11185   1.265   0.930   4.563  0.1544  0.0096 -0.2507
    1SOL    HW211186   1.281   0.904   4.473  0.3860  0.3655 -0.3140
    1SOL    HW311187   1.352   0.928   4.604  0.0055 -0.4611  0.0456
    1SOL    MW411188   1.279   0.926   4.557  0.1653 -0.0055 -0.2198
    1SOL     OW11189   3.423   1.278   4.222 -0.3413 -0.5143 -0.1752
    1SOL    HW211190   3.445   1.364   4.185 -0.3107 -0.3592  0.1928
    1SOL    HW311191   3.347   1.249   4.173 -0.5613 -0.1173 -0.0726
    1SOL    MW411192   3.416   1.286   4.211 -0.3664 -0.4414 -0.1130
    1SOL     OW11193   1.725   0.948   4.260 -0.2595  0.3330  0.4265
    1SOL    HW211194   1.807   0.908   4.233 -0.1806  0.7711  0.0130
    1SOL    HW311195   1.728   0.948   4.356 -0.1483 -0.4081  0.4211
    1SOL    MW411196   1.736   0.943   4.269 -0.2344  0.2930  0.3705
    1SOL     OW11197   1.690   1.890   4.277 -0.0124 -0.4919  0.3661
    1SOL    HW211198   1.751   1.941   4.224  0.4243 -0.9978  0.3676
    1SOL    HW311199   1.675   1.810   4.226 -2.5514  0.6416 -0.7597
    1SOL    MW411200   1.696   1.886   4.263 -0.2897 -0.4091  0.2174
    1SOL     OW11201   2.323   2.067   4.550 -0.3844  0.3307  0.3608
    1SOL    HW211202   2.322   2.142   4.490 -1.2805 -0.6284 -0.8640
    1SOL    HW311203   2.411   2.030   4.540 -0.7952 -0.3221 -1.0330
    1SOL    MW411204   2.335   2.072   4.541 -0.5567  0.1180  0.0153
    1SOL     OW11205   2.951   2.160   4.329 -0.5330  0.1426  0.4552
    1SOL    HW211206   3.024   2.185   4.386  0.1462 -1.0099  0.0942
    1SOL    HW311207   2.969   2.205   4.247  0.4203 -1.1130 -0.0279
    1SOL    MW411208   2.963   2.170   4.326 -0.3176 -0.1752  0.3438
    1SOL     OW11209   2.161   3.277   4.515  0.0881 -0.6607 -0.3804
    1SOL    HW211210   2.249   3.278   4.554 -0.4053 -2.2302  0.8601
    1SOL    HW311211   2.130   3.188   4.531 -2.5633  0.4829  1.0806
    1SOL    MW411212   2.169   3.265   4.523 -0.3266 -0.7167 -0.0243
    1SOL     OW11213   1.799   2.364   4.362 -0.3385 -0.3658  0.1943
    1SOL    HW211214   1.870   2.308   4.394 -0.1754 -0.2697 -0.0016
    1SOL    HW311215   1.795   2.436   4.426 -0.6271 -0.6611  0.5133
    1SOL    MW411216   1.808   2.366   4.375 -0.3550 -0.3922  0.2108
    1SOL     OW11217   3.861   1.210   4.841 -0.2813 -0.2687 -0.2433
    1SOL    HW211218   3.953   1.202   4.817 -0.1061  0.4855  0.1635
    1SOL    HW311219   3.818   1.135   4.799  0.6846 -1.2055  0.4192
    1SOL    MW411220   3.867   1.199   4.832 -0.1307 -0.2928 -0.1025
    1SOL     OW11221   0.528   3.959   4.658  0.0441  0.5394  0.5698
    1SOL    HW211222   0.574   3.892   4.606 -0.1537 -0.2778  1.4253
    1SOL    HW311223   0.436   3.950   4.633  0.1586  1.2477 -0.1299
    1SOL    MW411224   0.522   3.949   4.648  0.0331  0.5250  0.5898
    1SOL     OW11225   2.875   2.541   4.508 -0.5010 -0.3147 -0.5475
    1SOL    HW211226   2.853   2.622   4.554 -1.3640 -2.1411  2.4466
    1SOL    HW311227   2.792   2.511   4.470 -0.7096 -0.9952  0.4151
    1SOL    MW411228   2.861   2.547   4.509 -0.6423 -0.6456 -0.0253
    1SOL     OW11229   2.896   3.111   4.167 -0.1900  0.1387 -0.2783
    1SOL    HW211230   2.928   3.096   4.078  0.9346  0.4824  0.0546
    1SOL    HW311231   2.973   3.142   4.215 -0.0408 -2.8627  1.5657
    1SOL    MW411232   2.910   3.113   4.162 -0.0219 -0.2120  0.0086
    1SOL     OW11233   1.533   2.799   4.533 -0.2052  0.3603 -0.1892
    1SOL    HW211234   1.582   2.846   4.601  2.0595 -2.0897 -0.0337
    1SOL    HW311235   1.441   2.809   4.559  0.5195  0.7680  2.4287
    1SOL    MW411236   1.527   2.806   4.546  0.1893  0.0906  0.1769
    1SOL     OW11237   1.359   0.363   4.572 -0.6267 -0.0923 -0.3263
    1SOL    HW211238   1.334   0.384   4.663 -0.2064  0.5156 -0.3508
    1SOL    HW311239   1.442   0.408   4.559 -0.6736 -0.2016 -1.0089
    1SOL    MW411240   1.367   0.372   4.583 -0.5774 -0.0266 -0.4196
    1SOL     OW11241   1.231   1.208   4.550 -0.2890 -0.4496 -0.2998
    1SOL    HW211242   1.184   1.241   4.627  0.6405  1.6609 -0.5923
    1SOL    HW311243   1.226   1.113   4.558 -1.1772 -0.2643  1.7746
    1SOL    MW411244   1.224   1.200   4.561 -0.2836 -0.1467 -0.0648
    1SOL     OW11245   0.313   2.877   4.496 -0.3702  0.2541  0.0098
    1SOL    HW211246   0.295   2.874   4.402  1.6870  0.3544 -0.3959
    1SOL    HW311247   0.226   2.883   4.536 -1.1972  2.0053 -1.9549
    1SOL    MW411248   0.299   2.877   4.489 -0.2079  0.4983 -0.3028
    1SOL     OW11249   3.620   1.935   4.595  0.9196 -0.5086  0.5061
    1SOL    HW211250   3.547   1.986   4.561  1.3463 -0.4956 -0.4281
    1SOL    HW311251   3.696   1.968   4.547  1.6896  0.1155  2.1229
    1SOL    MW411252   3.621   1.946   4.584  1.0774 -0.4245  0.5965
    1SOL     OW11253   3.781   4.434   4.490  0.2422  0.0401 -0.1393
    1SOL    HW211254   3.706   4.395   4.535  1.0696  0.3340  1.5506
    1SOL    HW311255   3.855   4.378   4.515  1.0935  1.5069  0.6607
    1SOL    MW411256   3.781   4.421   4.499  0.4637  0.2728  0.1888
    1SOL     OW11257   3.423   3.054   4.607  0.2168  0.3578  0.6823
    1SOL    HW211258   3.447   3.133   4.559  0.9406  1.5676  2.9347
    1SOL    HW311259   3.467   3.063   4.691 -1.2441 -1.5304  1.7012
    1SOL    MW411260   3.432   3.066   4.612  0.1194  0.2685  1.1139
    1SOL     OW11261   0.636   3.454   4.793 -0.0788 -0.4989 -0.1229
    1SOL    HW211262   0.596   3.429   4.877  0.1365  1.2953  0.5417
    1SOL    HW311263   0.562   3.483   4.739  0.0847  1.1393  0.4931
    1SOL    MW411264   0.621   3.454   4.797 -0.0288 -0.0460  0.0453
    1SOL     OW11265   3.176   0.402   4.193  0.2344 -0.5208 -0.1784
    1SOL    HW211266   3.090   0.438   4.213  0.0487 -0.8634 -0.3486
    1SOL    HW311267   3.238   0.464   4.231 -0.0938 -0.5929  0.4762
    1SOL    MW411268   3.173   0.415   4.200  0.1662 -0.5755 -0.1144
    1SOL     OW11269   0.284   3.100   4.089 -0.3040 -0.6425 -0.0254
    1SOL    HW211270   0.348   3.159   4.129 -0.0139 -0.5701 -0.5945
    1SOL    HW311271   0.201   3.124   4.129 -0.3831  0.9528 -1.1256
    1SOL    MW411272   0.282   3.111   4.100 -0.2762 -0.4222 -0.2451
    1SOL     OW11273   1.523   0.939   4.698 -0.4761 -0.0612 -0.1669
    1SOL    HW211274   1.605   0.922   4.652  0.5233  1.9744  0.7873
    1SOL    HW311275   1.544   0.924   4.790 -1.1049  0.6788  0.1022
    1SOL    MW411276   1.537   0.935   4.704 -0.4271  0.3050 -0.0057
    1SOL     OW11277   2.248   3.517   4.136 -0.0508 -0.0089 -0.4526
    1SOL    HW211278   2.259   3.429   4.171 -0.0236 -0.6289 -1.9584
    1SOL    HW311279   2.170   3.551   4.180  1.2841  0.1155  1.8635
    1SOL    MW411280   2.239   3.510   4.146  0.1287 -0.0744 -0.3462
    1SOL     OW11281   3.915   0.261   4.695  0.7311 -0.7699 -0.3138
    1SOL    HW211282   4.003   0.279   4.663  0.6770  1.4791  0.7303
    1SOL    HW311283   3.910   0.307   4.779 -1.1023 -1.7138  0.1247
    1SOL    MW411284   3.926   0.269   4.702  0.4821 -0.5977 -0.1183
    1SOL     OW11285   2.463   0.825   4.497 -0.8575 -0.0891 -0.1082
    1SOL    HW211286   2.492   0.794   4.411  0.6200 -0.2546  0.4274
    1SOL    HW311287   2.496   0.914   4.503 -1.4657  0.1238  0.0482
    1SOL    MW411288   2.471   0.832   4.486 -0.7429 -0.0829 -0.0167
    1SOL     OW11289   4.090   3.251   4.516  0.0483 -0.0433 -0.3957
    1SOL    HW211290   4.086   3.202   4.434 -0.4033 -1.3386  0.3815
    1SOL    HW311291   4.103   3.184   4.584  0.7289  1.0341  0.5619
    1SOL    MW411292   4.091   3.236   4.514  0.0792 -0.0718 -0.1669
    1SOL     OW11293   2.194   0.446   4.148 -0.3115  0.2378  0.2793
    1SOL    HW211294   2.217   0.450   4.055  1.7107 -0.9529  0.7006
    1SOL    HW311295   2.167   0.355   4.162 -1.6147  0.6728  0.6422
    1SOL    MW411296   2.193   0.435   4.137 -0.2167  0.1381  0.3834
    1SOL     OW11297   3.593   0.902   4.218  0.4136 -0.3283 -0.3417
    1SOL    HW211298   3.510   0.889   4.173 -0.8553  0.5355  1.6986
    1SOL    HW311299   3.625   0.986   4.186 -0.4227  0.2168  0.2180
    1SOL    MW411300   3.587   0.911   4.208  0.1361 -0.1425  0.0010
    1SOL     OW11301   0.534   3.022   4.603  0.5953  0.1226  0.1456
    1SOL    HW211302   0.603   2.955   4.605  0.3761 -0.1211 -0.3334
    1SOL    HW311303   0.457   2.976   4.570 -0.0685  0.1613  1.6001
    1SOL    MW411304   0.533   3.007   4.599  0.4788  0.0958  0.2742
    1SOL     OW11305   2.330   1.644   4.530  0.0436  0.1303  0.3530
    1SOL    HW211306   2.422   1.663   4.550  0.7835 -0.8610 -1.9291
    1SOL    HW311307   2.333   1.565   4.476 -2.0727  0.7315 -0.7144
    1SOL    MW411308   2.342   1.636   4.526 -0.1378  0.0789 -0.0887
    1SOL     OW11309   0.908   1.718   4.258 -0.0100  0.1484  0.5492
    1SOL    HW211310   0.823   1.673   4.256 -0.3667  0.8469 -0.2873
    1SOL    HW311311   0.902   1.784   4.189  1.0060  0.5874  0.8689
    1SOL    MW411312   0.896   1.721   4.249  0.0769  0.2985  0.4811
    1SOL     OW11313   3.636   1.698   4.220  0.3893  0.0010 -0.1429
    1SOL    HW211314   3.599   1.708   4.308  0.4349  2.8877 -0.4168
    1SOL    HW311315   3.566   1.654   4.170 -0.1565 -0.4425  1.0014
    1SOL    MW411316   3.622   1.693   4.225  0.3231  0.3233 -0.0281
    1SOL     OW11317   3.371   2.810   4.236  0.1337 -0.5958  0.1572
    1SOL    HW211318   3.302   2.772   4.182 -0.9671  2.3993 -0.6775
    1SOL    HW311319   3.341   2.796   4.326 -1.6119  0.6943 -0.2020
    1SOL    MW411320   3.358   2.803   4.241 -0.2420 -0.0303 -0.0010
    1SOL     OW11321   4.259   2.544   4.597  0.4970 -0.2045  0.2811
    1SOL    HW211322   4.347   2.523   4.564  0.3543 -0.5170  0.0942
    1SOL    HW311323   4.250   2.492   4.676  0.3148 -0.5070  0.0627
    1SOL    MW411324   4.270   2.535   4.603  0.4544 -0.2856  0.2270
    1SOL     OW11325   0.660   0.327   4.307  0.4047  0.4660 -0.5647
    1SOL    HW211326   0.653   0.416   4.339 -0.9243  0.1802 -0.0126
    1SOL    HW311327   0.592   0.320   4.239 -2.2178 -1.2268  2.0857
    1SOL    MW411328   0.650   0.338   4.302 -0.1167  0.2049 -0.1421
    1SOL     OW11329   1.567   4.420   4.248  0.2058 -0.0203 -0.1742
    1SOL    HW211330   1.639   4.367   4.214 -0.3960 -0.0671 -1.4286
    1SOL    HW311331   1.488   4.374   4.220 -0.3155  1.2021 -0.7791
    1SOL    MW411332   1.566   4.407   4.240  0.0576  0.1349 -0.4191
    1SOL     OW11333   3.144   1.907   4.132  0.5712  0.4867 -0.0545
    1SOL    HW211334   3.057   1.914   4.172  0.5883  0.3938 -0.0012
    1SOL    HW311335   3.201   1.957   4.191  0.9957 -1.4568  1.2310
    1SOL    MW411336   3.140   1.915   4.145  0.6292  0.2180  0.1221
    1SOL     OW11337   3.637   1.135   4.097  0.0366 -0.2149  0.0715
    1SOL    HW211338   3.625   1.131   4.002 -0.6024  0.4543  0.1179
    1SOL    HW311339   3.560   1.182   4.129 -0.0112 -0.8935  0.9798
    1SOL    MW411340   3.625   1.141   4.089 -0.0541 -0.2162  0.1974
    1SOL     OW11341   1.771   0.407   4.138 -0.6957 -0.1356 -0.5438
    1SOL    HW211342   1.687   0.440   4.171 -1.3526 -1.4682 -0.8388
    1SOL    HW311343   1.771   0.315   4.163  0.8180 -0.0655 -0.2974
    1SOL    MW411344   1.760   0.399   4.145 -0.5826 -0.3022 -0.5498
    1SOL     OW11345   3.401   4.377   4.258  0.2347  0.5804 -0.2387
    1SOL    HW211346   3.440   4.384   4.345  0.7031 -0.1940 -0.3835
    1SOL    HW311347   3.372   4.466   4.238  1.0405  0.9623  0.2773
    1SOL    MW411348   3.402   4.389   4.267  0.4029  0.5279 -0.1898
    1SOL     OW11349   2.414   0.501   4.307 -0.0946  0.3588 -0.3369
    1SOL    HW211350   2.444   0.586   4.274 -0.1488  0.0326 -1.2250
    1SOL    HW311351   2.336   0.481   4.256 -0.3560 -0.0084  0.2003
    1SOL    MW411352   2.408   0.510   4.296 -0.1359  0.2674 -0.3829
    1SOL     OW11353   2.677   2.731   4.204 -0.9014  0.0552  0.3867
    1SOL    HW211354   2.602   2.790   4.218 -2.4607 -2.0308  1.1346
    1SOL    HW311355   2.658   2.656   4.260  1.6476 -0.6396  0.3648
    1SOL    MW411356   2.664   2.729   4.214 -0.7710 -0.3116  0.4826
    1SOL     OW11357   2.703   1.409   4.200 -0.1633  0.2619 -0.0548
    1SOL    HW211358   2.665   1.325   4.173  1.4572 -0.3834 -0.4079
    1SOL    HW311359   2.640   1.475   4.171 -0.9414 -0.7668 -0.7352
    1SOL    MW411360   2.690   1.406   4.192 -0.0520  0.0409 -0.1912
    1SOL     OW11361   3.170   3.426   4.167  0.0471 -0.2149  0.4297
    1SOL    HW211362   3.184   3.447   4.075 -0.8283 -1.3383  0.0360
    1SOL    HW311363   3.091   3.474   4.191 -0.1118 -0.4672  0.4109
    1SOL    MW411364   3.162   3.435   4.158 -0.0894 -0.3965  0.3753
    1SOL     OW11365   3.463   4.016   4.476  0.0090  0.1426  0.7183
    1SOL    HW211366   3.498   3.941   4.524  0.7008  0.5286  0.8270
    1SOL    HW311367   3.508   4.013   4.391  1.1125  1.2442  1.2397
    1SOL    MW411368   3.473   4.006   4.471  0.2458  0.3386  0.8011
    1SOL     OW11369   3.879   1.248   4.205 -0.4104 -0.2531  0.3929
    1SOL    HW211370   3.882   1.343   4.197 -3.2231 -0.1678 -0.3320
    1SOL    HW311371   3.791   1.224   4.174  0.5130 -3.1575 -0.1909
    1SOL    MW411372   3.868   1.257   4.199 -0.6599 -0.6251  0.2198
    1SOL     OW11373   3.202   1.644   4.193 -0.9782 -0.5924 -0.3754
    1SOL    HW211374   3.188   1.634   4.288 -1.8482  0.7660 -0.3506
    1SOL    HW311375   3.193   1.738   4.178  0.9461 -0.5729 -1.5380
    1SOL    MW411376   3.199   1.655   4.204 -0.8388 -0.4107 -0.5255
    1SOL     OW11377   4.095   0.009   4.508  0.0586 -0.1437 -0.4681
    1SOL    HW211378   4.000   0.019   4.519  0.3701 -0.6378  2.9609
    1SOL    HW311379   4.130   0.097   4.521  0.3069 -0.4589  0.9908
    1SOL    MW411380   4.087   0.022   4.511  0.1321 -0.2505  0.1769
    1SOL     OW11381   2.885   1.896   4.278 -0.0086 -0.2839  0.6238
    1SOL    HW211382   2.903   1.989   4.294  1.7846 -0.5862  0.5096
    1SOL    HW311383   2.791   1.892   4.262  0.2439  1.8819 -1.7430
    1SOL    MW411384   2.875   1.908   4.278  0.2613 -0.0380  0.2961
    1SOL     OW11385   4.272   0.500   4.181  0.1651 -0.4312 -0.1840
    1SOL    HW211386   4.243   0.567   4.119  0.9664 -1.2157 -1.4012
    1SOL    HW311387   4.198   0.440   4.188  0.2805 -0.6485 -0.8065
    1SOL    MW411388   4.258   0.501   4.174  0.2866 -0.5634 -0.4268
    1SOL     OW11389   4.205   4.423   4.504  0.8535 -0.0813 -0.0490
    1SOL    HW211390   4.226   4.422   4.411  0.8268 -1.2992 -0.0466
    1SOL    HW311391   4.172   4.511   4.520  1.1389  0.2248 -1.1301
    1SOL    MW411392   4.203   4.434   4.494  0.8883 -0.2017 -0.1917
    1SOL     OW11393   2.009   3.109   4.168 -0.1743  0.1937 -0.1646
    1SOL    HW211394   1.990   3.016   4.179  0.3738  0.1233  0.1864
    1SOL    HW311395   1.933   3.153   4.208 -0.4353 -0.1023 -0.3350
    1SOL    MW411396   1.996   3.102   4.175 -0.1367  0.1452 -0.1411
    1SOL     OW11397   1.030   1.301   4.743  0.5956  0.1094 -0.5845
    1SOL    HW211398   1.024   1.336   4.833 -0.7592 -0.6063 -0.3772
    1SOL    HW311399   1.012   1.377   4.687 -1.4162 -0.0282 -0.1575
    1SOL    MW411400   1.027   1.316   4.748  0.1514 -0.0032 -0.5002
    1SOL     OW11401   0.822   1.906   4.684 -0.1627  0.5043 -0.2488
    1SOL    HW211402   0.834   2.000   4.670 -0.5547  0.5771 -0.1162
    1SOL    HW311403   0.892   1.865   4.633  0.7190  0.9140  0.6236
    1SOL    MW411404   0.833   1.913   4.675 -0.0981  0.5680 -0.1154
    1SOL     OW11405   3.166   0.609   4.534 -0.1155  0.1514  0.0186
    1SOL    HW211406   3.261   0.620   4.541 -0.0634  0.2323 -0.8248
    1SOL    HW311407   3.150   0.518   4.558  0.3331 -0.2854 -1.3107
    1SOL    MW411408   3.176   0.599   4.538 -0.0494  0.1044 -0.2680
    1SOL     OW11409   3.332   0.838   4.138 -0.1707  0.0608 -0.4511
    1SOL    HW211410   3.340   0.756   4.187  0.3443 -0.0153 -0.6519
    1SOL    HW311411   3.270   0.890   4.188  0.7903  0.2151  0.6051
    1SOL    MW411412   3.325   0.834   4.151  0.0241  0.0712 -0.3386
    1SOL     OW11413   3.828   1.254   4.472  0.1383 -0.2574  0.1639
    1SOL    HW211414   3.906   1.294   4.510  1.1973 -1.0658 -1.0974
    1SOL    HW311415   3.849   1.244   4.379 -0.6863 -2.3461  0.1736
    1SOL    MW411416   3.841   1.258   4.464  0.1693 -0.6396 -0.0010
    1SOL     OW11417   2.447   2.329   3.836 -0.4136 -0.5572 -0.1179
    1SOL    HW211418   2.399   2.339   3.919  1.2735 -0.2275  0.8420
    1SOL    HW311419   2.453   2.234   3.824 -0.1558 -0.6190  0.4555
    1SOL    MW411420   2.441   2.318   3.845 -0.1569 -0.5219  0.0842
    1SOL     OW11421   2.410   4.301   4.677  0.0930 -0.2706 -0.0487
    1SOL    HW211422   2.358   4.377   4.649 -0.7169 -0.5203  0.7760
    1SOL    HW311423   2.397   4.296   4.771  2.1247  0.0312  0.2588
    1SOL    MW411424   2.402   4.310   4.686  0.2542 -0.2637  0.1001
    1SOL     OW11425   3.835   1.473   4.747 -0.0787 -0.5012  0.1243
    1SOL    HW211426   3.762   1.488   4.687  1.1944 -1.1424 -1.6533
    1SOL    HW311427   3.822   1.383   4.778  0.7842 -1.2081 -1.4559
    1SOL    MW411428   3.824   1.463   4.743  0.2034 -0.6789 -0.3190
    1SOL     OW11429   3.166   0.151   4.290 -0.0554 -0.3729 -0.3431
    1SOL    HW211430   3.167   0.243   4.266 -1.0259 -0.0705  0.7328
    1SOL    HW311431   3.208   0.147   4.376 -1.8015 -0.6335  0.5339
    1SOL    MW411432   3.171   0.162   4.298 -0.4139 -0.3674 -0.0854
    1SOL     OW11433   2.688   3.320   4.107  0.1715  0.1743  0.6468
    1SOL    HW211434   2.762   3.260   4.109  1.4403  1.6538 -0.7881
    1SOL    HW311435   2.699   3.374   4.186  1.9292  1.8720 -0.7046
    1SOL    MW411436   2.699   3.319   4.118  0.5705  0.5934  0.2794
    1SOL     OW11437   1.090   3.897   4.192  0.0983  0.4445  0.3192
    1SOL    HW211438   1.168   3.951   4.184  0.3220  0.1198  0.3318
    1SOL    HW311439   1.122   3.811   4.219 -0.2326  0.2154 -0.0084
    1SOL    MW411440   1.104   3.893   4.195  0.0843  0.3715  0.2770
    1SOL     OW11441   0.434   0.363   4.607 -0.0893  0.2876 -0.0919
    1SOL    HW211442   0.356   0.353   4.661  0.6491  1.2240  1.1735
    1SOL    HW311443   0.415   0.439   4.552  0.5124  1.4536  1.2817
    1SOL    MW411444   0.421   0.372   4.607  0.0875  0.5650  0.2561
    1SOL     OW11445   0.671   2.056   4.215 -0.1248  0.0097  0.0938
    1SOL    HW211446   0.726   1.990   4.172  2.0870  1.0067  1.3139
    1SOL    HW311447   0.688   2.137   4.165 -2.3306 -0.1516 -0.9962
    1SOL    MW411448   0.680   2.058   4.203 -0.1240  0.1202  0.1116
    1SOL     OW11449   0.503   2.708   4.125 -0.3734 -0.2299  0.0636
    1SOL    HW211450   0.489   2.701   4.031 -1.1135 -0.2995  0.1769
    1SOL    HW311451   0.425   2.754   4.157 -0.7721 -1.4220  0.8299
    1SOL    MW411452   0.491   2.713   4.117 -0.5236 -0.3963  0.1798
    1SOL     OW11453   1.341   2.416   4.216  0.1821  0.3334 -0.3206
    1SOL    HW211454   1.428   2.384   4.195 -0.0576 -0.2384 -0.4576
    1SOL    HW311455   1.346   2.510   4.202  0.3303  0.1062 -1.8807
    1SOL    MW411456   1.353   2.424   4.211  0.1700  0.2282 -0.5445
    1SOL     OW11457   2.967   2.884   4.555  0.1249  0.3785  0.2165
    1SOL    HW211458   2.879   2.855   4.579  0.6385 -1.9554 -0.6223
    1SOL    HW311459   2.968   2.879   4.459  1.6647 -1.1132  0.3030
    1SOL    MW411460   2.955   2.880   4.545  0.3958 -0.1266  0.1173
    1SOL     OW11461   2.863   0.987   4.204  0.4404  0.0411 -0.1509
    1SOL    HW211462   2.851   1.014   4.295  2.5591  0.0039  0.1600
    1SOL    HW311463   2.825   0.899   4.199  1.5612 -0.5111  1.0350
    1SOL    MW411464   2.856   0.979   4.215  0.8681 -0.0367  0.0467
    1SOL     OW11465   4.154   0.284   4.554  0.2132 -0.2571 -0.2702
    1SOL    HW211466   4.249   0.282   4.565  0.3157 -0.3761 -1.1113
    1SOL    HW311467   4.134   0.377   4.540  0.0036 -0.0220  1.5139
    1SOL    MW411468   4.164   0.296   4.553  0.1993 -0.2418 -0.1464
    1SOL     OW11469   0.121   3.215   4.480  0.2598 -0.7508 -0.3006
    1SOL    HW211470   0.093   3.132   4.518 -0.2420 -0.2285  0.4979
    1SOL    HW311471   0.217   3.210   4.478  0.2378 -1.2714 -0.0880
    1SOL    MW411472   0.130   3.203   4.485  0.1907 -0.7505 -0.1669
    1SOL     OW11473   3.141   3.124   4.555 -0.2378  0.2343 -0.1454
    1SOL    HW211474   3.093   3.041   4.549 -0.1014 -0.0516  2.1499
    1SOL    HW311475   3.225   3.100   4.595  0.3539  1.2940 -0.7301
    1SOL    MW411476   3.146   3.110   4.559 -0.1416  0.3364  0.0801
    1SOL     OW11477   1.479   1.493   4.541  0.0828  0.1651  0.0455
    1SOL    HW211478   1.549   1.555   4.562 -0.6555  0.0510  3.1484
    1SOL    HW311479   1.495   1.419   4.600 -2.1005 -0.2704  0.1086
    1SOL    MW411480   1.490   1.492   4.552 -0.3026  0.0926  0.4635
    1SOL     OW11481   1.514   1.210   4.615 -0.0718 -0.3018 -0.3411
    1SOL    HW211482   1.422   1.210   4.587 -0.3497 -1.4061  0.5434
    1SOL    HW311483   1.529   1.121   4.647  1.1935 -0.0055 -0.1038
    1SOL    MW411484   1.503   1.199   4.616  0.0587 -0.4085 -0.1931
    1SOL     OW11485   3.836   2.059   4.188 -0.0815 -0.2266 -0.4773
    1SOL    HW211486   3.750   2.040   4.150  0.2962  0.1032 -1.5344
    1SOL    HW311487   3.851   2.151   4.167  0.1222 -0.0252  0.5306
    1SOL    MW411488   3.826   2.069   4.180 -0.0050 -0.1569 -0.4840
    1SOL     OW11489   2.960   0.012   4.175 -0.0021 -0.1752 -0.3557
    1SOL    HW211490   3.025   0.065   4.221  0.7575  0.4961 -2.1514
    1SOL    HW311491   2.963  -0.073   4.218  2.5906 -0.3784 -0.8881
    1SOL    MW411492   2.969   0.008   4.187  0.4401 -0.1134 -0.6633
    1SOL     OW11493   0.375   0.591   4.465 -0.2615  0.0942  0.0832
    1SOL    HW211494   0.335   0.677   4.475  0.3870  0.3679  0.2825
    1SOL    HW311495   0.327   0.551   4.392 -0.7714  0.4967  0.1951
    1SOL    MW411496   0.363   0.597   4.456 -0.2432  0.1835  0.1245
    1SOL     OW11497   1.675   4.461   4.498  0.1568  0.0035  0.0814
    1SOL    HW211498   1.647   4.378   4.537  0.2238 -0.1225 -0.1413
    1SOL    HW311499   1.647   4.456   4.407  1.5467 -0.4351 -0.3426
    1SOL    MW411500   1.668   4.449   4.491  0.3490 -0.0706 -0.0033
    1SOL     OW11501   4.010   2.145   4.785  0.0933  0.6245  0.0971
    1SOL    HW211502   3.941   2.081   4.802 -0.2860  1.0988  0.3416
    1SOL    HW311503   4.051   2.115   4.704 -0.7358  0.6388 -0.3266
    1SOL    MW411504   4.007   2.132   4.777 -0.0663  0.6890  0.0739
    1SOL     OW11505   4.087   3.020   4.662 -0.3701 -0.3349  0.5164
    1SOL    HW211506   4.009   2.990   4.615 -0.4811  1.0652 -0.2189
    1SOL    HW311507   4.157   2.961   4.633 -0.6818 -0.1862 -0.5479
    1SOL    MW411508   4.086   3.008   4.652 -0.4258 -0.1304  0.2785
    1SOL     OW11509   2.555   3.440   4.600 -0.0103  0.4192 -0.5683
    1SOL    HW211510   2.514   3.354   4.596 -2.7125  1.7050 -1.2677
    1SOL    HW311511   2.611   3.443   4.522 -0.8142 -0.2432 -1.1807
    1SOL    MW411512   2.557   3.429   4.589 -0.4730  0.5012 -0.7410
    1SOL     OW11513   1.459   3.855   4.596  0.1090  0.0904 -0.2963
    1SOL    HW211514   1.537   3.906   4.574  0.5980  0.0281  1.1995
    1SOL    HW311515   1.474   3.769   4.556  1.6619 -0.5049  1.4877
    1SOL    MW411516   1.471   3.850   4.588  0.3784  0.0038  0.1369
    1SOL     OW11517   1.776   3.469   4.094  0.0252 -0.1374 -0.0642
    1SOL    HW211518   1.766   3.500   4.004 -0.7062 -0.4649 -0.0998
    1SOL    HW311519   1.698   3.502   4.139  0.7081  0.5662  0.6031
    1SOL    MW411520   1.764   3.478   4.088  0.0188 -0.0880  0.0196
    1SOL     OW11521   1.665   1.757   4.537  0.2162 -0.3904  0.2103
    1SOL    HW211522   1.670   1.813   4.459  2.2092 -0.8253  0.0002
    1SOL    HW311523   1.624   1.813   4.603 -1.3724  0.0279 -1.0888
    1SOL    MW411524   1.660   1.772   4.535  0.2695 -0.3926  0.0110
    1SOL     OW11525   2.239   2.261   4.724  0.0728  0.2590 -0.0943
    1SOL    HW211526   2.268   2.180   4.683 -1.1157 -0.4671  0.4784
    1SOL    HW311527   2.219   2.319   4.651 -1.0708 -0.6789 -0.5465
    1SOL    MW411528   2.240   2.258   4.709 -0.2346  0.0393 -0.0787
    1SOL     OW11529   0.914   3.546   4.160 -0.3653  0.6565 -0.0258
    1SOL    HW211530   0.910   3.459   4.199  0.1590  0.5844 -0.1290
    1SOL    HW311531   0.911   3.530   4.065  0.3885  0.7124 -0.0590
    1SOL    MW411532   0.913   3.533   4.153 -0.1966  0.6545 -0.0443
    1SOL     OW11533   0.020   1.632   4.196  0.3299 -0.1999 -0.8859
    1SOL    HW211534   0.055   1.612   4.283 -0.7300  0.8640 -0.2005
    1SOL    HW311535  -0.063   1.584   4.192 -1.0613  2.0834 -0.1500
    1SOL    MW411536   0.014   1.623   4.207  0.0065  0.2418 -0.6976
    1SOL     OW11537   3.803   3.318   4.569  0.0134  0.0712 -0.6800
    1SOL    HW211538   3.888   3.288   4.537 -0.5234 -0.7937 -1.2952
    1SOL    HW311539   3.783   3.260   4.642  0.8669  1.5426  0.7614
    1SOL    MW411540   3.812   3.307   4.574  0.0553  0.1514 -0.5713
    1SOL     OW11541   3.193   2.456   4.180 -0.6630  0.0789 -0.2415
    1SOL    HW211542   3.180   2.476   4.273  0.3104 -0.8064  0.0981
    1SOL    HW311543   3.109   2.421   4.151 -0.9269  0.2107  0.3518
    1SOL    MW411544   3.180   2.454   4.189 -0.5693 -0.0207 -0.1183
    1SOL     OW11545   0.003   4.252   4.154 -0.0332  0.1337 -0.1770
    1SOL    HW211546  -0.076   4.286   4.197 -0.6709 -0.6593 -0.6879
    1SOL    HW311547  -0.014   4.264   4.061 -0.3042 -1.6189 -0.3694
    1SOL    MW411548  -0.010   4.258   4.148 -0.1526 -0.2017 -0.2694
    1SOL     OW11549   1.974   2.457   4.154 -0.7155  0.2303 -0.2725
    1SOL    HW211550   1.925   2.409   4.220 -0.5668 -0.0261 -0.3471
    1SOL    HW311551   2.063   2.462   4.189 -0.9847  1.4350  0.2549
    1SOL    MW411552   1.979   2.451   4.167 -0.7315  0.3555 -0.2131
    1SOL     OW11553   0.879   0.352   4.131 -0.3166 -0.1744  0.1153
    1SOL    HW211554   0.940   0.403   4.184 -0.7726 -0.8908  1.3711
    1SOL    HW311555   0.800   0.346   4.185 -1.2691  0.1679 -1.1961
    1SOL    MW411556   0.876   0.358   4.145 -0.5025 -0.2238  0.1082
    1NA      NA11557   3.101   4.079   0.487  0.1187  0.1429  0.7484
    1NA      NA11558   0.859   2.441   0.676 -0.4781  0.0390  0.0784
   4.49070   4.66690  10.00000
