Gromacs Runs On Most of All Computer Systems in water
11558
    1RG35     P    1   2.221   2.426   4.386  0.0039 -0.1891  0.0732
    1RG35   O1P    2   2.324   2.476   4.467 -0.5754  0.1063  0.0554
    1RG35   O2P    3   2.192   2.287   4.405 -0.3254  0.1323 -0.2642
    1RG35   O5'    4   2.094   2.503   4.436 -0.5801 -0.1776  0.3576
    1RG35   C5'    5   2.072   2.641   4.424  0.2461  0.1851  0.4789
    1RG35  H5'1    6   2.047   2.666   4.321  0.5639  2.3578  0.9133
    1RG35  H5'2    7   2.167   2.689   4.448  0.9645 -0.8877 -0.1487
    1RG35   C4'    8   1.963   2.689   4.521  0.1677 -0.2405 -0.7872
    1RG35   H4'    9   1.968   2.798   4.516 -1.1965 -0.0191  1.7396
    1RG35   O4'   10   1.833   2.648   4.482  0.1147  0.0832  0.2187
    1RG35   C1'   11   1.758   2.675   4.600 -0.0830 -0.2926 -0.1292
    1RG35   H1'   12   1.706   2.768   4.578 -0.3899 -0.6473 -0.9481
    1RG35    N9   13   1.655   2.570   4.611  0.0122  0.4038  0.0570
    1RG35    C8   14   1.520   2.578   4.581  0.5581 -0.3714  0.2020
    1RG35    H8   15   1.475   2.666   4.538  0.2317 -0.3256  0.6326
    1RG35    N7   16   1.452   2.476   4.615  0.2599  0.3062  0.7043
    1RG35    C5   17   1.550   2.382   4.659 -0.1341 -0.1456 -1.0470
    1RG35    C6   18   1.538   2.240   4.701  0.3066  0.0742 -0.2885
    1RG35    O6   19   1.448   2.160   4.707 -0.3172 -0.4116 -0.2950
    1RG35    N1   20   1.653   2.190   4.747  0.1116 -0.5813 -0.2087
    1RG35    H1   21   1.656   2.096   4.782  0.2437 -0.1857  0.8820
    1RG35    C2   22   1.769   2.258   4.744  0.3367 -0.0902 -0.5096
    1RG35    N2   23   1.871   2.193   4.787 -0.5926 -0.0008 -0.1102
    1RG35   H21   24   1.864   2.093   4.799 -0.1392 -0.0281 -0.0712
    1RG35   H22   25   1.964   2.233   4.785  0.6467 -2.5892  1.8406
    1RG35    N3   26   1.792   2.385   4.700  0.1379  0.0505 -0.0530
    1RG35    C4   27   1.674   2.445   4.664 -0.2441 -0.5784 -0.1919
    1RG35   C3'   28   1.985   2.654   4.664 -0.3732  0.2600  0.2855
    1RG35   H3'   29   1.991   2.545   4.667 -0.4301  0.2521  0.1111
    1RG35   C2'   30   1.851   2.695   4.720  0.3188  0.5024  0.2495
    1RG35  H2'1   31   1.816   2.643   4.809 -1.7827  1.5043  0.0394
    1RG35   O2'   32   1.846   2.828   4.752 -0.1985  0.0463 -0.7541
    1RG35  HO'2   33   1.909   2.842   4.824  0.0954 -1.1642 -0.7549
    1RG35   O3'   34   2.098   2.706   4.736  0.1072 -0.5004 -0.8429
    1RG35   H3T   35   2.157   2.633   4.752  0.3911 -0.5993 -2.2749
    1RG35   O3P   36   2.228   2.460   4.246 -0.1777 -0.3701  0.3872
    1SOL     OW   37   2.408   1.926   0.482 -0.3603  0.1703 -0.1461
    1SOL    HW2   38   2.395   1.832   0.478  0.8226  0.0249 -0.8592
    1SOL    HW3   39   2.320   1.963   0.475 -0.7738 -0.8608 -0.4468
    1SOL    MW4   40   2.394   1.919   0.480 -0.2584  0.0150 -0.2798
    1SOL     OW   41   4.300   3.616   0.773 -0.6511 -0.0554 -0.3665
    1SOL    HW2   42   4.273   3.703   0.803  0.5646 -0.3877  1.7822
    1SOL    HW3   43   4.222   3.562   0.783 -0.4487 -0.0060  1.6563
    1SOL    MW4   44   4.286   3.620   0.778 -0.4640 -0.0930  0.1838
    1SOL     OW   45   2.755   0.321   0.408 -0.4407 -0.0690  0.2443
    1SOL    HW2   46   2.665   0.355   0.417 -0.4619  0.1253 -0.6228
    1SOL    HW3   47   2.811   0.398   0.420 -0.3499 -0.3493  1.6641
    1SOL    MW4   48   2.750   0.336   0.410 -0.4313 -0.0803  0.3172
    1SOL     OW   49   2.160   2.559   0.615  0.0648  0.1759 -0.4079
    1SOL    HW2   50   2.160   2.637   0.670 -0.4790 -0.3667  0.3781
    1SOL    HW3   51   2.088   2.573   0.553 -0.8112 -0.2169  0.5003
    1SOL    MW4   52   2.150   2.571   0.614 -0.1223  0.0527 -0.1844
    1SOL     OW   53   0.528   3.226   0.325  0.0069 -0.0819 -0.2065
    1SOL    HW2   54   0.586   3.301   0.334 -1.2175  0.9691 -0.9402
    1SOL    HW3   55   0.461   3.239   0.392 -1.1875  0.4072 -1.4730
    1SOL    MW4   56   0.526   3.237   0.335 -0.3122  0.1214 -0.4705
    1SOL     OW   57   0.033   2.458   0.761 -0.1818  0.5455  0.2621
    1SOL    HW2   58   0.034   2.462   0.666  2.0280 -0.1054  0.2235
    1SOL    HW3   59   0.039   2.549   0.790 -0.7784  0.7374 -0.2264
    1SOL    MW4   60   0.034   2.470   0.752  0.0311  0.4849  0.1926
    1SOL     OW   61   1.301   0.152   0.514 -0.3851 -0.1120  0.5119
    1SOL    HW2   62   1.328   0.130   0.604 -0.3096  0.5614  0.6560
    1SOL    HW3   63   1.381   0.183   0.472 -0.0458 -1.9672 -0.2971
    1SOL    MW4   64   1.315   0.153   0.520 -0.3304 -0.2679  0.4242
    1SOL     OW   65   4.394   0.146   0.581 -0.2015  0.0459  0.5212
    1SOL    HW2   66   4.434   0.174   0.664  1.3302  0.7317 -0.4297
    1SOL    HW3   67   4.454   0.177   0.514 -0.9807 -1.2791 -0.8192
    1SOL    MW4   68   4.408   0.154   0.583 -0.1020 -0.0384  0.2189
    1SOL     OW   69   2.748   1.545   0.449 -0.2149 -0.0853 -0.0253
    1SOL    HW2   70   2.797   1.618   0.411 -0.4964  0.8927  1.4568
    1SOL    HW3   71   2.810   1.472   0.451  0.6017  0.6093  0.0807
    1SOL    MW4   72   2.762   1.545   0.444 -0.1440  0.1354  0.1842
    1SOL     OW   73   2.292   0.152   0.777 -0.6644 -0.3160  0.2629
    1SOL    HW2   74   2.363   0.099   0.813 -0.1689  0.2410  0.1031
    1SOL    HW3   75   2.320   0.174   0.689 -2.0363 -1.9635 -0.6253
    1SOL    MW4   76   2.305   0.148   0.770 -0.7801 -0.4599  0.1246
    1SOL     OW   77   4.043   1.098   0.803 -0.0524  0.5789  0.0626
    1SOL    HW2   78   4.006   1.108   0.891 -0.6965 -0.9145 -0.0279
    1SOL    HW3   79   3.978   1.139   0.746 -2.0190 -2.6830 -0.1724
    1SOL    MW4   80   4.029   1.105   0.807 -0.3967 -0.0485  0.0197
    1SOL     OW   81   0.524   2.472   0.725 -0.2360 -0.1692  0.1425
    1SOL    HW2   82   0.531   2.437   0.636 -1.5867  2.2196 -0.9616
    1SOL    HW3   83   0.443   2.435   0.759 -0.9009  0.7109 -0.4746
    1SOL    MW4   84   0.514   2.463   0.717 -0.5020  0.2620 -0.0846
    1SOL     OW   85   4.013   0.689   0.499 -0.3513 -0.0954  0.2924
    1SOL    HW2   86   4.026   0.732   0.583 -0.3675  0.4315  0.0309
    1SOL    HW3   87   4.039   0.755   0.434  1.7140 -1.2180 -0.0768
    1SOL    MW4   88   4.018   0.704   0.501 -0.0811 -0.1740  0.2092
    1SOL     OW   89   4.029   1.911   0.809 -0.2063  0.4653 -0.1793
    1SOL    HW2   90   4.030   1.817   0.792 -0.6458  0.4040  0.1498
    1SOL    HW3   91   4.017   1.919   0.904 -1.5421  0.8753 -0.3695
    1SOL    MW4   92   4.028   1.900   0.819 -0.4411  0.5113 -0.1609
    1SOL     OW   93   4.004   3.265   0.464  0.2158  0.2458  0.4629
    1SOL    HW2   94   4.082   3.300   0.420 -0.1192  0.3308 -0.0795
    1SOL    HW3   95   3.943   3.339   0.465  0.3961  0.3910  1.5249
    1SOL    MW4   96   4.006   3.279   0.458  0.1955  0.2761  0.5314
    1SOL     OW   97   0.758   1.286   0.461  0.2583 -0.0488  0.0642
    1SOL    HW2   98   0.766   1.380   0.444  0.4126 -0.1755 -0.5896
    1SOL    HW3   99   0.678   1.260   0.416  0.9064 -0.4736 -0.8640
    1SOL    MW4  100   0.749   1.295   0.453  0.3642 -0.1215 -0.1445
    1SOL     OW  101   3.171   0.378   0.330 -0.0106 -0.1186 -0.5285
    1SOL    HW2  102   3.146   0.384   0.238  1.2760 -1.7385 -1.0083
    1SOL    HW3  103   3.152   0.287   0.354 -0.5434  0.3514  0.8808
    1SOL    MW4  104   3.165   0.367   0.321  0.0889 -0.2703 -0.4059
    1SOL     OW  105   1.764   0.796   0.125  0.6481  0.5709  0.5008
    1SOL    HW2  106   1.830   0.741   0.083  0.5308  0.3774  0.5696
    1SOL    HW3  107   1.728   0.741   0.194  2.4192  1.6372  2.3407
    1SOL    MW4  108   1.768   0.781   0.129  0.8664  0.6861  0.7526
    1SOL     OW  109   2.824   2.422   0.587  0.0586  0.2617  0.0849
    1SOL    HW2  110   2.739   2.457   0.613 -0.3316 -0.5584 -0.0589
    1SOL    HW3  111   2.858   2.381   0.667 -0.3325 -0.6762 -0.2231
    1SOL    MW4  112   2.818   2.421   0.601 -0.0443  0.0298  0.0252
    1SOL     OW  113   0.171   0.473   0.726 -0.4096 -0.2256  0.4495
    1SOL    HW2  114   0.184   0.561   0.762 -0.5526  0.0848 -0.2344
    1SOL    HW3  115   0.127   0.488   0.642 -1.3253 -1.0140  0.7785
    1SOL    MW4  116   0.167   0.487   0.720 -0.5493 -0.2887  0.4026
    1SOL     OW  117   2.900   2.623   0.414  0.5304 -0.1872  0.0260
    1SOL    HW2  118   2.993   2.610   0.398  0.6131 -0.6197  0.8475
    1SOL    HW3  119   2.879   2.564   0.486 -0.2397  0.3882  0.2860
    1SOL    MW4  120   2.909   2.614   0.421  0.4399 -0.1681  0.1687
    1SOL     OW  121   0.616   0.377   0.542 -0.1213  0.0291  0.1073
    1SOL    HW2  122   0.632   0.437   0.615 -0.9253 -0.7927  0.9757
    1SOL    HW3  123   0.575   0.300   0.582  0.0624 -0.7256 -1.1147
    1SOL    MW4  124   0.612   0.375   0.557 -0.2032 -0.1789  0.0606
    1SOL     OW  125   3.820   1.254   0.727  0.1751  0.5581 -0.4325
    1SOL    HW2  126   3.763   1.260   0.651 -0.0793 -0.2476 -0.3163
    1SOL    HW3  127   3.775   1.192   0.785  0.6338  0.7521  0.1320
    1SOL    MW4  128   3.806   1.246   0.725  0.2017  0.4774 -0.3427
    1SOL     OW  129   0.386   4.034   0.761  0.1472  0.0840 -0.5809
    1SOL    HW2  130   0.408   4.037   0.668  2.8655  0.6704  0.0243
    1SOL    HW3  131   0.407   4.122   0.794  0.7264 -0.5851  0.8963
    1SOL    MW4  132   0.392   4.046   0.753  0.5822  0.0734 -0.3061
    1SOL     OW  133   0.134   0.016   0.878  0.2897  0.3256  0.1842
    1SOL    HW2  134   0.039   0.008   0.869  0.1581  1.8755  0.1418
    1SOL    HW3  135   0.163   0.056   0.796  0.6922  2.0557  1.1605
    1SOL    MW4  136   0.126   0.020   0.866  0.3254  0.7582  0.3074
    1SOL     OW  137   3.973   1.916   0.398 -0.3269 -0.2883 -0.0828
    1SOL    HW2  138   4.049   1.954   0.441  0.7144 -0.1945 -1.9719
    1SOL    HW3  139   3.992   1.922   0.305 -2.1330 -1.3442 -0.5482
    1SOL    MW4  140   3.985   1.922   0.392 -0.4277 -0.4152 -0.3935
    1SOL     OW  141   2.028   2.269   0.814  0.0851 -0.0763  0.4127
    1SOL    HW2  142   2.018   2.283   0.908  0.6565  2.7496  0.0877
    1SOL    HW3  143   1.952   2.312   0.776  0.0025 -0.9731 -0.4635
    1SOL    MW4  144   2.016   2.276   0.821  0.1495  0.1781  0.2542
    1SOL     OW  145   4.419   3.983   0.514  0.2538  0.0630  0.1844
    1SOL    HW2  146   4.442   3.997   0.606  0.5907  1.0387 -0.0442
    1SOL    HW3  147   4.402   3.889   0.508 -0.4613  0.1067  1.3921
    1SOL    MW4  148   4.420   3.973   0.526  0.2041  0.1974  0.3135
    1SOL     OW  149   0.788   4.074   0.540  0.1391 -0.1357 -0.0831
    1SOL    HW2  150   0.719   4.141   0.538  1.7991  1.6336  0.0000
    1SOL    HW3  151   0.812   4.067   0.632  0.1826 -0.6099 -0.1334
    1SOL    MW4  152   0.782   4.082   0.552  0.3639  0.0348 -0.0788
    1SOL     OW  153   1.633   2.305   0.825 -0.0004 -0.3280  0.7705
    1SOL    HW2  154   1.541   2.332   0.817 -0.3014 -1.2770  0.9035
    1SOL    HW3  155   1.631   2.211   0.805  1.4141  0.2796 -2.5706
    1SOL    MW4  156   1.621   2.296   0.821  0.1466 -0.3729  0.3472
    1SOL     OW  157   1.976   3.120   0.813 -0.0010 -0.2535 -0.3447
    1SOL    HW2  158   1.970   3.030   0.779  1.3368 -0.4347 -0.1250
    1SOL    HW3  159   1.901   3.165   0.775 -0.9329 -1.5777 -0.1240
    1SOL    MW4  160   1.965   3.114   0.804  0.0528 -0.4520 -0.2865
    1SOL     OW  161   2.542   3.424   0.403  0.2372  0.0810  0.2847
    1SOL    HW2  162   2.555   3.374   0.323  0.0752 -0.0857  0.3609
    1SOL    HW3  163   2.465   3.384   0.444 -0.1728  0.6916  0.1147
    1SOL    MW4  164   2.534   3.412   0.398  0.1616  0.1395  0.2723
    1SOL     OW  165   0.264   0.070   0.600  0.0186  0.6343 -0.3393
    1SOL    HW2  166   0.238  -0.009   0.554  1.0533  0.4320 -0.6025
    1SOL    HW3  167   0.237   0.142   0.543 -0.1717  0.4410 -0.4927
    1SOL    MW4  168   0.257   0.069   0.587  0.1300  0.5821 -0.3943
    1SOL     OW  169   1.738   2.979   0.304  0.2077 -0.1622 -0.2762
    1SOL    HW2  170   1.684   2.907   0.335 -0.3585  0.9106  1.2998
    1SOL    HW3  171   1.694   3.058   0.336  1.7395  0.8033 -0.4859
    1SOL    MW4  172   1.725   2.980   0.312  0.3351  0.1066 -0.0959
    1SOL     OW  173   2.914   4.419   0.454  0.7863  0.1053 -0.2663
    1SOL    HW2  174   2.924   4.412   0.549  0.9013 -0.7175 -0.3315
    1SOL    HW3  175   2.910   4.513   0.437  1.7955  0.2855  0.4369
    1SOL    MW4  176   2.914   4.430   0.465  0.9344  0.0205 -0.1821
    1SOL     OW  177   0.451   1.933   0.524 -0.6934 -0.2681 -0.1745
    1SOL    HW2  178   0.443   1.925   0.619  1.0201 -0.2314 -0.0134
    1SOL    HW3  179   0.462   1.843   0.492 -0.7930 -0.2389 -0.2944
    1SOL    MW4  180   0.451   1.920   0.532 -0.4805 -0.2594 -0.1691
    1SOL     OW  181   3.340   0.712   0.879  0.4444 -0.3779 -0.0818
    1SOL    HW2  182   3.337   0.621   0.850  0.8412 -0.7909  1.1484
    1SOL    HW3  183   3.426   0.744   0.851 -0.3101  0.0994 -1.8994
    1SOL    MW4  184   3.351   0.704   0.872  0.3972 -0.3694 -0.1593
    1SOL     OW  185   1.748   3.250   0.693  0.1760  0.0402  0.1594
    1SOL    HW2  186   1.737   3.271   0.601  0.0701  1.8383  0.5594
    1SOL    HW3  187   1.680   3.185   0.711  0.8915 -1.1080 -1.2648
    1SOL    MW4  188   1.737   3.244   0.683  0.2564  0.1259  0.0243
    1SOL     OW  189   1.982   2.867   0.666 -0.0738 -0.3174 -0.4821
    1SOL    HW2  190   1.990   2.863   0.571 -0.6515 -0.4179 -0.5250
    1SOL    HW3  191   2.070   2.845   0.698 -0.1310 -1.2835 -0.9693
    1SOL    MW4  192   1.995   2.863   0.657 -0.1577 -0.4580 -0.5521
    1SOL     OW  193   2.129   1.996   0.465 -0.5067 -0.1482 -0.7102
    1SOL    HW2  194   2.155   2.089   0.463  1.8556 -0.6997  1.3175
    1SOL    HW3  195   2.087   1.985   0.550  2.1980 -1.6258  0.4862
    1SOL    MW4  196   2.127   2.007   0.476  0.1619 -0.4160 -0.2848
    1SOL     OW  197   3.582   1.886   0.817 -0.0517  0.3712 -0.0007
    1SOL    HW2  198   3.661   1.938   0.803  0.9802 -0.6813  1.6935
    1SOL    HW3  199   3.593   1.809   0.760 -0.7121  1.1030 -1.1226
    1SOL    MW4  200   3.594   1.882   0.808 -0.0026  0.3288  0.0748
    1SOL     OW  201   0.237   2.842   0.743  0.1651 -0.2300 -0.1510
    1SOL    HW2  202   0.326   2.817   0.765 -0.4020 -1.7743  0.4319
    1SOL    HW3  203   0.229   2.933   0.774  1.3008 -0.3125  0.3932
    1SOL    MW4  204   0.247   2.851   0.750  0.2401 -0.4444 -0.0023
    1SOL     OW  205   1.588   4.445   0.477 -0.5625 -0.4325 -0.7777
    1SOL    HW2  206   1.498   4.456   0.448 -1.0209  0.8814  1.0398
    1SOL    HW3  207   1.628   4.530   0.463 -0.4378 -0.1546  1.1533
    1SOL    MW4  208   1.581   4.458   0.471 -0.6064 -0.2227 -0.2832
    1SOL     OW  209   0.013   2.738   0.354  0.0912 -0.5843  0.1926
    1SOL    HW2  210  -0.072   2.737   0.398 -0.7411  0.2576 -1.3347
    1SOL    HW3  211   0.060   2.811   0.394  0.7459 -2.0752  2.1984
    1SOL    MW4  212   0.008   2.747   0.365  0.0672 -0.6700  0.2557
    1SOL     OW  213   2.478   2.011   0.749 -0.0176  0.2754 -0.5852
    1SOL    HW2  214   2.487   2.009   0.654 -2.9265  1.6858 -0.9623
    1SOL    HW3  215   2.497   2.102   0.773 -1.2415  0.4028 -0.0643
    1SOL    MW4  216   2.482   2.023   0.740 -0.5629  0.4780 -0.5662
    1SOL     OW  217   2.914   3.097   0.852  0.1632  0.1867  0.9374
    1SOL    HW2  218   2.831   3.140   0.834  1.1570  1.3967 -0.9398
    1SOL    HW3  219   2.900   3.005   0.829 -0.7183  0.3263  0.9111
    1SOL    MW4  220   2.902   3.090   0.847  0.1779  0.3648  0.6862
    1SOL     OW  221   0.882   4.325   0.867  0.3850  0.1972 -0.2359
    1SOL    HW2  222   0.875   4.231   0.850 -1.3904  0.1639  0.5193
    1SOL    HW3  223   0.943   4.357   0.801 -0.5397 -1.1765 -1.8023
    1SOL    MW4  224   0.889   4.317   0.856  0.0288  0.0114 -0.3429
    1SOL     OW  225   2.902   1.323   0.504  0.2116  0.0798 -0.1726
    1SOL    HW2  226   2.855   1.255   0.456  1.0291 -0.0391 -0.8305
    1SOL    HW3  227   2.892   1.298   0.596 -2.4939  1.0478 -0.1628
    1SOL    MW4  228   2.895   1.311   0.510 -0.0374  0.1919 -0.2581
    1SOL     OW  229   1.165   3.581   0.301  0.5951 -0.2149  1.0226
    1SOL    HW2  230   1.238   3.614   0.249 -1.1812 -0.3274 -1.6083
    1SOL    HW3  231   1.152   3.648   0.368  2.0971  0.5467  0.5910
    1SOL    MW4  232   1.173   3.595   0.303  0.5590 -0.1292  0.6185
    1SOL     OW  233   1.494   0.427   0.198 -0.2752 -0.1903 -0.3401
    1SOL    HW2  234   1.491   0.369   0.122  2.5137 -1.0914  0.1871
    1SOL    HW3  235   1.512   0.369   0.272 -2.1154  0.7925  0.9236
    1SOL    MW4  236   1.496   0.412   0.198 -0.1502 -0.1796 -0.1038
    1SOL     OW  237   0.445   4.035   0.494 -0.2019  0.0354 -0.1846
    1SOL    HW2  238   0.495   4.114   0.475  0.1200 -0.4126 -1.2169
    1SOL    HW3  239   0.354   4.061   0.481 -0.1292  0.3638 -0.0486
    1SOL    MW4  240   0.439   4.049   0.490 -0.1498  0.0196 -0.3029
    1SOL     OW  241   0.027   2.466   0.470  0.5533  0.1692  0.4749
    1SOL    HW2  242   0.019   2.559   0.449 -0.2620  0.3973  1.7260
    1SOL    HW3  243  -0.054   2.427   0.438  0.4198  0.0854  0.9020
    1SOL    MW4  244   0.015   2.473   0.463  0.4287  0.1884  0.6963
    1SOL     OW  245   1.442   0.803   0.462  0.3410  0.2647 -0.1901
    1SOL    HW2  246   1.368   0.746   0.442  0.3380 -0.0811  0.7829
    1SOL    HW3  247   1.426   0.833   0.551  0.6298  1.3461 -0.4983
    1SOL    MW4  248   1.430   0.799   0.471  0.3788  0.3617 -0.1024
    1SOL     OW  249   0.225   3.834   0.861  0.3420 -0.3820 -0.0366
    1SOL    HW2  250   0.218   3.831   0.956  0.2604 -0.2314 -0.0370
    1SOL    HW3  251   0.281   3.909   0.843 -0.1205 -0.0528 -0.1281
    1SOL    MW4  252   0.231   3.844   0.871  0.2702 -0.3188 -0.0488
    1SOL     OW  253   1.987   0.719   0.433 -0.2357 -0.0390  0.0372
    1SOL    HW2  254   1.980   0.626   0.456 -0.0637 -0.0167  0.1889
    1SOL    HW3  255   2.071   0.746   0.472  0.9560 -0.4508 -2.1676
    1SOL    MW4  256   1.997   0.710   0.441 -0.0557 -0.0904 -0.2336
    1SOL     OW  257   0.413   0.891   0.774 -0.1551  0.2205  0.3653
    1SOL    HW2  258   0.495   0.851   0.801  0.5250  0.6189 -1.0705
    1SOL    HW3  259   0.422   0.984   0.797  0.3824  0.5409 -1.0709
    1SOL    MW4  260   0.425   0.898   0.780  0.0055  0.3154 -0.0135
    1SOL     OW  261   3.087   4.234   0.357  0.1764  0.3592  0.1660
    1SOL    HW2  262   3.114   4.250   0.266  1.9031  0.1133  0.6134
    1SOL    HW3  263   3.024   4.303   0.376 -0.3787  0.2752 -1.2860
    1SOL    MW4  264   3.082   4.245   0.348  0.3309  0.3152  0.0335
    1SOL     OW  265   1.477   1.070   0.340 -0.1924  0.4154 -0.4300
    1SOL    HW2  266   1.459   0.983   0.376  1.3062  0.9954  1.8574
    1SOL    HW3  267   1.561   1.060   0.294  0.6936  0.9380  1.0336
    1SOL    MW4  268   1.486   1.057   0.339  0.1223  0.5609  0.0649
    1SOL     OW  269   1.307   3.206   0.658  0.1433  0.2707  0.1394
    1SOL    HW2  270   1.318   3.134   0.596 -0.6754 -1.0716  1.5208
    1SOL    HW3  271   1.231   3.181   0.710 -0.0119  2.0419  0.7831
    1SOL    MW4  272   1.299   3.193   0.656  0.0147  0.3273  0.4066
    1SOL     OW  273   0.004   1.039   0.482 -0.0668 -0.1496 -0.4314
    1SOL    HW2  274  -0.032   1.128   0.475 -1.0180 -0.5900 -1.0846
    1SOL    HW3  275  -0.016   1.012   0.571  0.5429  0.4308 -0.1140
    1SOL    MW4  276  -0.003   1.047   0.493 -0.1119 -0.1311 -0.4757
    1SOL     OW  277   2.356   0.204   0.509 -0.1281 -0.1027  0.5014
    1SOL    HW2  278   2.405   0.131   0.472  0.6372  0.4409  0.4132
    1SOL    HW3  279   2.406   0.282   0.483 -0.8734  0.4480  0.6708
    1SOL    MW4  280   2.369   0.205   0.501 -0.1252  0.0417  0.5121
    1SOL     OW  281   1.092   3.124   0.826  0.3305 -0.1643  0.2649
    1SOL    HW2  282   1.021   3.170   0.781  0.7841 -1.5210 -1.9171
    1SOL    HW3  283   1.068   3.032   0.821  1.4962 -0.5069  0.8272
    1SOL    MW4  284   1.080   3.118   0.819  0.5442 -0.3884  0.0512
    1SOL     OW  285   1.498   2.110   0.127 -0.0874 -0.6202 -0.2860
    1SOL    HW2  286   1.551   2.036   0.158  1.6212  0.7109  0.0276
    1SOL    HW3  287   1.416   2.102   0.176 -0.0293 -2.4523 -0.4415
    1SOL    MW4  288   1.494   2.099   0.138  0.1458 -0.6862 -0.2651
    1SOL     OW  289   1.989   1.138   0.546 -0.1617  0.2099 -0.1992
    1SOL    HW2  290   1.953   1.051   0.531  0.4502  0.2516 -1.9658
    1SOL    HW3  291   1.944   1.195   0.484  0.1369  0.9807  0.2707
    1SOL    MW4  292   1.978   1.134   0.536 -0.0415  0.3171 -0.3703
    1SOL     OW  293   0.706   3.088   0.827 -0.2429 -0.6412 -0.2282
    1SOL    HW2  294   0.635   3.132   0.782 -0.2743 -0.4599 -0.0010
    1SOL    HW3  295   0.678   3.084   0.918  0.2934 -0.0495 -0.0312
    1SOL    MW4  296   0.693   3.093   0.833 -0.1762 -0.5391 -0.1722
    1SOL     OW  297   0.867   3.841   0.407 -0.0199  0.3550 -0.1212
    1SOL    HW2  298   0.839   3.919   0.456 -1.7011  0.3786 -1.0740
    1SOL    HW3  299   0.957   3.826   0.436 -0.4673  1.2395  1.8613
    1SOL    MW4  300   0.875   3.850   0.417 -0.3008  0.4747  0.0147
    1SOL     OW  301   1.139   3.320   0.411 -0.3085 -0.2293  0.2760
    1SOL    HW2  302   1.171   3.335   0.500  0.9470 -0.1327 -0.1832
    1SOL    HW3  303   1.152   3.403   0.366  2.6758 -1.3298 -1.0567
    1SOL    MW4  304   1.145   3.333   0.417  0.2508 -0.3619  0.0396
    1SOL     OW  305   1.801   0.877   0.758  0.1473  0.3876  0.1096
    1SOL    HW2  306   1.787   0.959   0.806  0.2086 -0.0938  0.9604
    1SOL    HW3  307   1.878   0.839   0.799  0.4881  0.2101 -0.7068
    1SOL    MW4  308   1.809   0.883   0.770  0.2004  0.3006  0.1141
    1SOL     OW  309   4.479   3.988   0.786 -0.1924 -0.1651  0.1498
    1SOL    HW2  310   4.401   3.941   0.817  0.0529  0.0476  1.1285
    1SOL    HW3  311   4.552   3.946   0.832  0.0603  0.9700  0.8167
    1SOL    MW4  312   4.478   3.976   0.797 -0.1264  0.0126  0.3670
    1SOL     OW  313   3.350   4.620   0.793 -0.1595 -0.6164 -0.2340
    1SOL    HW2  314   3.346   4.616   0.888 -0.4316 -0.4295 -0.2367
    1SOL    HW3  315   3.435   4.660   0.774 -0.5845  0.3939 -0.0393
    1SOL    MW4  316   3.361   4.625   0.803 -0.2515 -0.4582 -0.2086
    1SOL     OW  317   4.423   1.977   0.417  0.2481 -0.5583  0.2458
    1SOL    HW2  318   4.510   2.008   0.439 -0.3940 -0.0760  2.1900
    1SOL    HW3  319   4.426   1.883   0.432  0.5314 -0.5856  0.0056
    1SOL    MW4  320   4.435   1.969   0.422  0.2007 -0.4984  0.4706
    1SOL     OW  321   0.262   2.328   0.387  1.2742  0.5061  0.3938
    1SOL    HW2  322   0.263   2.234   0.403  0.5043  0.0723 -1.8777
    1SOL    HW3  323   0.188   2.360   0.439  1.5568 -0.1333  1.1981
    1SOL    MW4  324   0.252   2.320   0.396  1.2099  0.3645  0.2002
    1SOL     OW  325   2.463   4.362   0.762 -0.2344 -0.0079 -0.3256
    1SOL    HW2  326   2.380   4.328   0.794  0.4240 -0.6015  0.7477
    1SOL    HW3  327   2.449   4.374   0.668 -1.5460 -0.0499 -0.1423
    1SOL    MW4  328   2.450   4.359   0.753 -0.3207 -0.0920 -0.1599
    1SOL     OW  329   3.648   3.024   0.270 -0.3317  0.0953 -0.1577
    1SOL    HW2  330   3.624   2.934   0.291 -2.6521  0.5258 -0.8590
    1SOL    HW3  331   3.620   3.037   0.180 -0.7430  1.7553  0.1856
    1SOL    MW4  332   3.641   3.014   0.261 -0.6921  0.3710 -0.2050
    1SOL     OW  333   2.691   4.271   0.394 -0.2235 -0.0560 -0.3617
    1SOL    HW2  334   2.734   4.187   0.410  0.4709  0.7171  2.1350
    1SOL    HW3  335   2.759   4.336   0.408 -1.0514  0.9768 -1.0732
    1SOL    MW4  336   2.705   4.268   0.398 -0.2410  0.1822 -0.1262
    1SOL     OW  337   4.271   1.259   0.765 -0.6619 -0.0859  0.1507
    1SOL    HW2  338   4.352   1.226   0.803 -0.5533 -0.1391 -0.1257
    1SOL    HW3  339   4.203   1.200   0.797 -0.1907 -1.8964 -2.0837
    1SOL    MW4  340   4.273   1.247   0.774 -0.5851 -0.3318 -0.1805
    1SOL     OW  341   2.259   1.099   0.447 -0.4211  0.6022  0.1989
    1SOL    HW2  342   2.273   1.151   0.368 -1.2609 -0.5717 -0.7364
    1SOL    HW3  343   2.170   1.120   0.475 -1.0218 -0.8458 -0.5842
    1SOL    MW4  344   2.249   1.108   0.440 -0.6108  0.2564 -0.0278
    1SOL     OW  345   2.167   2.422   0.271  0.1616 -0.6186  0.6105
    1SOL    HW2  346   2.250   2.423   0.223  0.0906 -1.2165  0.4774
    1SOL    HW3  347   2.181   2.361   0.342  0.5580  0.9195  1.8863
    1SOL    MW4  348   2.180   2.414   0.274  0.2046 -0.4945  0.7613
    1SOL     OW  349   4.366   3.172   0.268 -0.1963 -0.3240 -0.1498
    1SOL    HW2  350   4.419   3.149   0.192  0.6896 -1.1907  0.7175
    1SOL    HW3  351   4.309   3.097   0.282  0.1760 -0.4936  0.4969
    1SOL    MW4  352   4.365   3.159   0.260 -0.0300 -0.4604  0.0499
    1SOL     OW  353   0.328   3.326   0.513  0.5798  0.0621  0.1465
    1SOL    HW2  354   0.251   3.278   0.484  0.8883 -0.1062 -0.4050
    1SOL    HW3  355   0.307   3.418   0.498 -1.0590  0.3313  3.6689
    1SOL    MW4  356   0.315   3.332   0.507  0.4043  0.0756  0.5385
    1SOL     OW  357   2.442   2.880   0.729  0.0755  0.2178 -0.2134
    1SOL    HW2  358   2.433   2.963   0.776 -0.1889 -0.7716  1.5401
    1SOL    HW3  359   2.503   2.829   0.783 -1.1920 -1.3991 -0.2679
    1SOL    MW4  360   2.449   2.885   0.743 -0.1271 -0.1259  0.0107
    1SOL     OW  361   3.730   4.128   0.416  0.0659 -0.4088 -0.1106
    1SOL    HW2  362   3.661   4.194   0.418  0.1965 -0.2886  0.7462
    1SOL    HW3  363   3.809   4.174   0.446  0.6569 -0.3982 -1.6293
    1SOL    MW4  364   3.732   4.143   0.420  0.1609 -0.3920 -0.1979
    1SOL     OW  365   3.417   3.123   0.835 -0.1745  0.7114 -0.0540
    1SOL    HW2  366   3.333   3.151   0.799 -0.5637  0.3156  0.5372
    1SOL    HW3  367   3.399   3.105   0.927 -0.0806 -2.0008 -0.5178
    1SOL    MW4  368   3.403   3.125   0.842 -0.2136  0.3011 -0.0373
    1SOL     OW  369   2.313   1.297   0.225  0.4936 -0.0750 -0.0068
    1SOL    HW2  370   2.230   1.341   0.213  0.5254  0.0695  0.3049
    1SOL    HW3  371   2.367   1.359   0.274  0.6546 -0.3185  0.1278
    1SOL    MW4  372   2.309   1.311   0.230  0.5190 -0.0880  0.0520
    1SOL     OW  373   4.222   2.103   0.772  0.2026  0.8190  0.4434
    1SOL    HW2  374   4.303   2.056   0.794  0.0665  1.1718  1.7208
    1SOL    HW3  375   4.152   2.042   0.797  0.0654  0.6684 -0.3044
    1SOL    MW4  376   4.224   2.089   0.778  0.1669  0.8461  0.5133
    1SOL     OW  377   0.452   0.544   0.377  0.2024 -0.0785 -0.6940
    1SOL    HW2  378   0.426   0.627   0.417 -2.3748 -1.0233 -0.3136
    1SOL    HW3  379   0.503   0.499   0.444 -1.4973 -0.3295  0.4622
    1SOL    MW4  380   0.455   0.549   0.391 -0.3619 -0.2362 -0.4913
    1SOL     OW  381   4.264   3.083   0.834  0.0155 -0.3213 -0.6725
    1SOL    HW2  382   4.198   3.152   0.830 -0.1256 -0.5068 -1.9033
    1SOL    HW3  383   4.342   3.123   0.795  0.2765 -0.4883 -0.3204
    1SOL    MW4  384   4.265   3.098   0.828  0.0310 -0.3676 -0.7884
    1SOL     OW  385   0.250   2.076   0.785 -0.0711  0.0390 -0.2417
    1SOL    HW2  386   0.319   2.023   0.825 -1.2847 -1.6743 -0.3321
    1SOL    HW3  387   0.272   2.166   0.807  0.3404 -0.7111  2.6584
    1SOL    MW4  388   0.262   2.081   0.793 -0.1769 -0.2861  0.1290
    1SOL     OW  389   4.483   4.255   0.835 -0.3658 -0.1810  0.1181
    1SOL    HW2  390   4.474   4.239   0.928 -0.9629 -1.0150 -0.0776
    1SOL    HW3  391   4.487   4.168   0.795 -0.6001  0.1592 -0.6761
    1SOL    MW4  392   4.482   4.241   0.842 -0.4755 -0.2465 -0.0125
    1SOL     OW  393   1.960   2.581   0.418  0.3688  0.3187 -0.3510
    1SOL    HW2  394   2.009   2.543   0.345 -0.0088  0.2466 -0.5644
    1SOL    HW3  395   1.884   2.525   0.429 -1.6776  2.5815 -2.4955
    1SOL    MW4  396   1.957   2.569   0.410  0.0490  0.6075 -0.6621
    1SOL     OW  397   2.969   2.054   0.701  0.4738  0.3508 -0.4115
    1SOL    HW2  398   3.044   2.007   0.739  0.8881  0.2559 -1.3407
    1SOL    HW3  399   2.894   1.997   0.716  0.5770  0.4678  0.5716
    1SOL    MW4  400   2.969   2.041   0.708  0.5419  0.3536 -0.4045
    1SOL     OW  401   1.767   0.150   0.743 -0.2679  0.1047 -0.7507
    1SOL    HW2  402   1.712   0.098   0.802 -0.2702  1.8767  0.8754
    1SOL    HW3  403   1.856   0.117   0.758 -0.2009  0.8461  0.6596
    1SOL    MW4  404   1.772   0.139   0.753 -0.2594  0.4364 -0.3501
    1SOL     OW  405   1.984   4.601   0.450  0.0469 -0.4925  0.0570
    1SOL    HW2  406   1.989   4.553   0.367  2.2366 -0.2998  0.0506
    1SOL    HW3  407   2.001   4.536   0.517 -1.5749 -0.6175  0.3644
    1SOL    MW4  408   1.987   4.586   0.448  0.1218 -0.4835  0.0967
    1SOL     OW  409   1.551   2.047   0.727 -0.0380  0.2306 -0.5189
    1SOL    HW2  410   1.543   2.070   0.634  0.2044 -1.3111 -0.9377
    1SOL    HW3  411   1.471   1.997   0.747  0.4854 -0.4996 -0.2280
    1SOL    MW4  412   1.539   2.043   0.717  0.0631 -0.0691 -0.5357
    1SOL     OW  413   1.593   1.459   0.124 -0.0484 -0.0710  0.0286
    1SOL    HW2  414   1.553   1.512   0.055 -2.1144 -0.3149  1.0045
    1SOL    HW3  415   1.600   1.520   0.198 -1.0372 -0.7261  0.6744
    1SOL    MW4  416   1.588   1.474   0.125 -0.4514 -0.1895  0.2426
    1SOL     OW  417   1.727   3.776   0.470  0.4034  0.7069 -0.3064
    1SOL    HW2  418   1.793   3.844   0.484  1.7800 -0.5546 -0.4742
    1SOL    HW3  419   1.777   3.702   0.434 -1.2807  0.0770 -1.3954
    1SOL    MW4  420   1.743   3.775   0.467  0.3628  0.4575 -0.4722
    1SOL     OW  421   1.505   3.917   0.335  0.4117  0.4546 -0.3306
    1SOL    HW2  422   1.533   3.984   0.272  0.0174  0.0639 -0.9313
    1SOL    HW3  423   1.586   3.886   0.375  0.7107  0.3545 -1.0071
    1SOL    MW4  424   1.519   3.922   0.332  0.3991  0.3901 -0.4991
    1SOL     OW  425   1.150   1.529   0.870  0.0483  0.1738 -0.0989
    1SOL    HW2  426   1.149   1.444   0.824  0.3997 -0.8174  1.6987
    1SOL    HW3  427   1.232   1.569   0.842  0.5300 -0.6648  0.0787
    1SOL    MW4  428   1.161   1.523   0.860  0.1581 -0.0676  0.1618
    1SOL     OW  429   1.342   0.088   0.776  0.0487 -0.3381 -0.0086
    1SOL    HW2  430   1.422   0.048   0.810  0.5714  0.4665 -0.2712
    1SOL    HW3  431   1.345   0.179   0.807  0.2034  0.2314 -1.6037
    1SOL    MW4  432   1.353   0.095   0.784  0.1380 -0.1568 -0.2537
    1SOL     OW  433   3.609   2.516   0.447  0.2192 -0.1733  0.5284
    1SOL    HW2  434   3.576   2.492   0.534  0.7709  1.0856  1.1133
    1SOL    HW3  435   3.681   2.576   0.465  0.0219  0.4920 -0.8161
    1SOL    MW4  436   3.614   2.521   0.461  0.2661  0.0808  0.4282
    1SOL     OW  437   1.956   0.457   0.532 -0.1674 -0.1200  0.2348
    1SOL    HW2  438   1.998   0.371   0.527 -0.3087 -0.2120  0.5600
    1SOL    HW3  439   1.965   0.483   0.624 -0.1822  0.1834  0.1523
    1SOL    MW4  440   1.962   0.449   0.544 -0.1881 -0.0921  0.2668
    1SOL     OW  441   0.859   4.038   0.809  0.1088 -0.0987 -0.1777
    1SOL    HW2  442   0.797   3.985   0.859 -0.1082  1.2765  1.0689
    1SOL    HW3  443   0.944   3.995   0.821 -0.1428 -0.4283  0.4197
    1SOL    MW4  444   0.862   4.026   0.817  0.0470  0.0391  0.0656
    1SOL     OW  445   4.056   2.705   0.862  0.1816  0.1443  0.1508
    1SOL    HW2  446   4.050   2.625   0.811  0.4532  0.4786 -0.4163
    1SOL    HW3  447   4.143   2.740   0.841 -0.0563  0.7453  0.1592
    1SOL    MW4  448   4.067   2.699   0.853  0.1860  0.2680  0.0770
    1SOL     OW  449   3.837   3.718   0.555  0.2561  0.3313 -0.3195
    1SOL    HW2  450   3.765   3.775   0.529  0.4456  0.9684  0.5175
    1SOL    HW3  451   3.914   3.755   0.513  0.2369  0.1770 -0.4895
    1SOL    MW4  452   3.838   3.730   0.546  0.2785  0.3951 -0.2315
    1SOL     OW  453   1.104   0.371   0.496 -0.0907  0.3528  0.0442
    1SOL    HW2  454   1.178   0.312   0.509  0.3145  0.9851  0.6843
    1SOL    HW3  455   1.092   0.413   0.581 -0.7793  0.7218 -0.2292
    1SOL    MW4  456   1.113   0.369   0.509 -0.1279  0.4849  0.0926
    1SOL     OW  457   2.695   0.826   0.791 -0.6431  0.0175 -0.4621
    1SOL    HW2  458   2.702   0.913   0.830 -1.8338 -0.3733  0.6594
    1SOL    HW3  459   2.775   0.781   0.818 -0.1649  0.6632 -0.7962
    1SOL    MW4  460   2.707   0.832   0.800 -0.7372  0.0511 -0.3583
    1SOL     OW  461   1.778   1.917   0.817 -0.7376  0.2145  0.3968
    1SOL    HW2  462   1.701   1.965   0.785 -1.0089  0.9896  2.1752
    1SOL    HW3  463   1.756   1.825   0.803 -1.3680  0.4894 -0.4683
    1SOL    MW4  464   1.765   1.911   0.811 -0.8565  0.3530  0.5173
    1SOL     OW  465   1.631   0.644   0.305  0.3116 -0.0700 -0.3394
    1SOL    HW2  466   1.574   0.588   0.252  0.8516 -1.7844  0.8277
    1SOL    HW3  467   1.574   0.712   0.340 -0.5315 -0.3813 -1.1226
    1SOL    MW4  468   1.616   0.645   0.303  0.2716 -0.3372 -0.2887
    1SOL     OW  469   0.900   3.490   0.848 -0.5824  0.2070 -0.1767
    1SOL    HW2  470   0.899   3.411   0.793  0.8492  0.2587 -0.2986
    1SOL    HW3  471   0.825   3.541   0.818 -0.5058 -0.3151 -1.2855
    1SOL    MW4  472   0.890   3.486   0.836 -0.3834  0.1450 -0.3390
    1SOL     OW  473   1.984   1.226   0.814  0.2737  0.2755  0.1622
    1SOL    HW2  474   2.000   1.213   0.721  0.8390  1.1298  0.1351
    1SOL    HW3  475   2.063   1.192   0.857  1.0643  2.0613  0.1808
    1SOL    MW4  476   1.996   1.220   0.808  0.4525  0.6239  0.1611
    1SOL     OW  477   4.165   2.994   0.318  0.0139 -0.5338 -0.0055
    1SOL    HW2  478   4.071   3.005   0.332  0.3880  1.2009  1.3519
    1SOL    HW3  479   4.190   2.923   0.377 -0.1866  0.0930  0.8541
    1SOL    MW4  480   4.156   2.986   0.328  0.0367 -0.2222  0.2870
    1SOL     OW  481   0.455   1.668   0.751  0.0598  0.0072  0.1949
    1SOL    HW2  482   0.533   1.613   0.764 -0.1048 -0.0713  0.8923
    1SOL    HW3  483   0.475   1.748   0.800  0.2150  0.4852 -0.6491
    1SOL    MW4  484   0.468   1.671   0.759  0.0585  0.0598  0.1755
    1SOL     OW  485   0.525   0.061   0.362 -0.1319  0.2663 -0.5539
    1SOL    HW2  486   0.546   0.092   0.450  1.8121 -0.5599 -0.6851
    1SOL    HW3  487   0.474   0.131   0.323 -0.2608  1.0202  0.9329
    1SOL    MW4  488   0.521   0.074   0.369  0.1075  0.2567 -0.3751
    1SOL     OW  489   1.359   2.412   0.810 -0.3292  0.5044  0.3014
    1SOL    HW2  490   1.356   2.411   0.715  1.1114  1.9669  0.2122
    1SOL    HW3  491   1.355   2.505   0.833 -0.8508  0.1572  1.6674
    1SOL    MW4  492   1.358   2.424   0.801 -0.2080  0.6514  0.4699
    1SOL     OW  493   1.558   2.813   0.442 -0.1636 -0.2230  0.3166
    1SOL    HW2  494   1.538   2.734   0.392  2.3212 -0.3138 -0.5856
    1SOL    HW3  495   1.562   2.784   0.533 -1.1539 -0.7488  0.2012
    1SOL    MW4  496   1.556   2.799   0.448  0.0337 -0.3042  0.1823
    1SOL     OW  497   3.101   0.134   0.458 -0.4253 -0.4114  0.2749
    1SOL    HW2  498   3.019   0.093   0.431  0.4834 -2.3487  0.3486
    1SOL    HW3  499   3.103   0.123   0.554 -0.5110  0.4719  0.3825
    1SOL    MW4  500   3.090   0.127   0.467 -0.3166 -0.5505  0.2989
    1SOL     OW  501   2.928   4.372   0.742 -0.2696  0.3083 -0.4839
    1SOL    HW2  502   2.945   4.440   0.807 -0.0508  0.4959 -0.7387
    1SOL    HW3  503   2.844   4.334   0.769 -1.4079  2.0416 -1.4974
    1SOL    MW4  504   2.919   4.376   0.755 -0.3910  0.5617 -0.6512
    1SOL     OW  505   0.102   1.478   0.459 -0.1748 -0.2662 -0.0884
    1SOL    HW2  506   0.047   1.554   0.443  0.3425  0.2836  0.6995
    1SOL    HW3  507   0.041   1.406   0.475 -0.6533  0.2524  0.4022
    1SOL    MW4  508   0.087   1.478   0.459 -0.1697 -0.1253  0.0803
    1SOL     OW  509   1.572   1.261   0.786  0.2111 -0.2317 -0.1004
    1SOL    HW2  510   1.573   1.269   0.690 -0.0650  3.2926  0.1213
    1SOL    HW3  511   1.487   1.220   0.805 -0.8577  1.3501 -1.2677
    1SOL    MW4  512   1.561   1.257   0.776  0.0337  0.4420 -0.2251
    1SOL     OW  513   1.349   3.454   0.774 -0.5159 -0.2194 -0.2849
    1SOL    HW2  514   1.421   3.497   0.727 -1.0166  1.4960  0.4845
    1SOL    HW3  515   1.338   3.370   0.729  0.8931  0.1814 -1.4267
    1SOL    MW4  516   1.357   3.448   0.762 -0.3960  0.0598 -0.3340
    1SOL     OW  517   3.785   2.348   0.816 -0.4164  0.9641 -0.3943
    1SOL    HW2  518   3.696   2.361   0.781 -0.7206 -0.0688 -0.0343
    1SOL    HW3  519   3.801   2.254   0.805  0.4252  1.0529  0.0400
    1SOL    MW4  520   3.775   2.337   0.810 -0.3452  0.8397 -0.2895
    1SOL     OW  521   2.051   0.021   0.833  0.1691  0.2306 -0.7978
    1SOL    HW2  522   2.132   0.068   0.813  1.4207 -1.0858  1.0185
    1SOL    HW3  523   2.062  -0.065   0.791 -0.3416  0.0842 -0.6334
    1SOL    MW4  524   2.063   0.016   0.825  0.2668  0.0376 -0.5364
    1SOL     OW  525   2.822   0.057   0.463 -0.6821 -0.2616 -0.0138
    1SOL    HW2  526   2.806   0.148   0.436 -0.6189 -0.3825 -0.4664
    1SOL    HW3  527   2.777   0.049   0.547 -1.8393 -0.1854 -0.6094
    1SOL    MW4  528   2.814   0.068   0.470 -0.8264 -0.2675 -0.1521
    1SOL     OW  529   0.417   4.472   0.350 -0.1525  0.2615  0.8060
    1SOL    HW2  530   0.459   4.558   0.356 -0.2884  0.4506 -0.8389
    1SOL    HW3  531   0.337   4.481   0.402 -0.5999  1.3905 -0.0661
    1SOL    MW4  532   0.412   4.484   0.358 -0.2294  0.4358  0.4739
    1SOL     OW  533   0.684   2.072   0.757 -0.1238  0.6822 -0.0281
    1SOL    HW2  534   0.673   2.077   0.662  0.6481  1.0703 -0.1100
    1SOL    HW3  535   0.730   2.153   0.779 -1.5925  1.2862  0.8811
    1SOL    MW4  536   0.689   2.083   0.747 -0.2157  0.8135  0.0811
    1SOL     OW  537   3.171   2.564   0.432  0.1245  0.4640 -0.1468
    1SOL    HW2  538   3.239   2.508   0.394 -0.4697 -0.4085  0.0557
    1SOL    HW3  539   3.173   2.544   0.526 -0.9957 -0.2194 -0.2595
    1SOL    MW4  540   3.180   2.554   0.439 -0.1016  0.2589 -0.1350
    1SOL     OW  541   2.315   1.644   0.480 -0.1297  0.5626 -0.0150
    1SOL    HW2  542   2.274   1.625   0.565 -1.7562 -0.5745 -1.0179
    1SOL    HW3  543   2.369   1.566   0.462  1.3463  1.4153  0.6065
    1SOL    MW4  544   2.317   1.631   0.489 -0.1497  0.5250 -0.0654
    1SOL     OW  545   3.946   4.269   0.518  0.6424 -0.3392 -0.2056
    1SOL    HW2  546   4.022   4.212   0.518  0.0629 -1.1690 -2.1622
    1SOL    HW3  547   3.971   4.343   0.463 -0.3617 -1.2329 -1.9166
    1SOL    MW4  548   3.959   4.271   0.511  0.4337 -0.5665 -0.6894
    1SOL     OW  549   2.246   2.239   0.470 -0.0160 -0.0339 -0.2900
    1SOL    HW2  550   2.248   2.242   0.565  0.4336 -1.6996 -0.2277
    1SOL    HW3  551   2.337   2.228   0.444 -0.2381 -0.5306 -0.8775
    1SOL    MW4  552   2.258   2.238   0.479  0.0143 -0.3190 -0.3593
    1SOL     OW  553   3.016   0.798   0.506  0.4401  0.1260 -0.1717
    1SOL    HW2  554   3.018   0.704   0.486 -2.7933 -0.0300 -0.0641
    1SOL    HW3  555   3.031   0.802   0.600  0.7479 -0.2849 -0.2008
    1SOL    MW4  556   3.018   0.786   0.516  0.0541  0.0511 -0.1613
    1SOL     OW  557   4.279   4.423   0.724 -0.3665 -0.3375 -0.9065
    1SOL    HW2  558   4.341   4.361   0.763  0.3052 -0.2980 -1.8959
    1SOL    HW3  559   4.298   4.506   0.769  0.5006 -0.2591 -1.4132
    1SOL    MW4  560   4.290   4.426   0.735 -0.1636 -0.3219 -1.1040
    1SOL     OW  561   1.588   0.753   0.875 -0.3844 -0.1998 -0.4805
    1SOL    HW2  562   1.673   0.789   0.849 -0.3074  0.0551  0.0963
    1SOL    HW3  563   1.524   0.797   0.819 -0.3181  1.0822  0.4310
    1SOL    MW4  564   1.591   0.764   0.864 -0.3655  0.0030 -0.2841
    1SOL     OW  565   0.608   3.928   0.881 -0.3230  0.3306 -0.7013
    1SOL    HW2  566   0.526   3.955   0.840 -0.8584  0.0238  0.1512
    1SOL    HW3  567   0.618   3.835   0.857 -0.3871  0.2836 -0.5490
    1SOL    MW4  568   0.599   3.919   0.872 -0.4021  0.2840 -0.5687
    1SOL     OW  569   1.115   3.769   0.497 -0.3905 -0.0452 -0.3252
    1SOL    HW2  570   1.113   3.726   0.583 -0.8727 -0.0794 -0.3531
    1SOL    HW3  571   1.159   3.852   0.514  0.0144 -0.2916 -0.1542
    1SOL    MW4  572   1.121   3.774   0.511 -0.4008 -0.0823 -0.3063
    1SOL     OW  573   0.932   1.631   0.729 -0.2456  0.5083 -0.0121
    1SOL    HW2  574   0.942   1.727   0.728 -0.0043  0.4944  0.8767
    1SOL    HW3  575   1.003   1.600   0.785 -1.9833  0.0047  1.9899
    1SOL    MW4  576   0.943   1.640   0.736 -0.4430  0.4401  0.3694
    1SOL     OW  577   4.422   1.709   0.466  0.1026  0.1196 -0.2386
    1SOL    HW2  578   4.350   1.648   0.451  0.0872 -0.0142  0.3592
    1SOL    HW3  579   4.436   1.707   0.561  1.3679 -0.3971 -0.4255
    1SOL    MW4  580   4.415   1.701   0.477  0.2675  0.0337 -0.1844
    1SOL     OW  581   0.671   4.640   0.759 -0.0357  0.5054  0.0314
    1SOL    HW2  582   0.674   4.627   0.853 -0.7518  0.9297  0.1132
    1SOL    HW3  583   0.668   4.552   0.722  2.1757  0.2864  0.3278
    1SOL    MW4  584   0.671   4.627   0.766  0.1615  0.5326  0.0812
    1SOL     OW  585   0.244   3.593   0.740 -0.0688  0.3598  0.7599
    1SOL    HW2  586   0.242   3.680   0.780  0.1872  0.3343  0.8315
    1SOL    HW3  587   0.322   3.551   0.777  1.5581  1.2202 -1.6041
    1SOL    MW4  588   0.254   3.599   0.750  0.1796  0.4699  0.4575
    1SOL     OW  589   0.070   3.192   0.480  0.5883  0.4035  0.3646
    1SOL    HW2  590   0.001   3.192   0.414 -0.4226  1.8416  1.3670
    1SOL    HW3  591   0.105   3.103   0.479 -0.2331  0.0839 -1.2371
    1SOL    MW4  592   0.065   3.181   0.471  0.3465  0.5510  0.2855
    1SOL     OW  593   2.390   0.830   0.164  0.3583  0.7713  0.4178
    1SOL    HW2  594   2.403   0.751   0.110 -0.9843  1.1553 -0.5171
    1SOL    HW3  595   2.294   0.837   0.172  0.5131  1.5765  1.5914
    1SOL    MW4  596   2.379   0.820   0.158  0.2017  0.9282  0.4493
    1SOL     OW  597   3.813   3.482   0.400  0.4023  0.4445 -0.2116
    1SOL    HW2  598   3.806   3.551   0.466  0.7386 -0.4457  0.7629
    1SOL    HW3  599   3.884   3.510   0.343  1.0127  0.5592  0.6002
    1SOL    MW4  600   3.821   3.495   0.401  0.5274  0.3424  0.0241
    1SOL     OW  601   2.728   1.865   0.802 -0.4146 -0.3088 -0.1602
    1SOL    HW2  602   2.643   1.904   0.781 -0.0653  0.3935 -0.3007
    1SOL    HW3  603   2.735   1.871   0.897 -0.4672 -0.2363 -0.1607
    1SOL    MW4  604   2.718   1.871   0.812 -0.3757 -0.2066 -0.1788
    1SOL     OW  605   1.338   4.303   0.872 -0.5641 -0.9493 -0.3408
    1SOL    HW2  606   1.264   4.345   0.827 -0.1066  0.6578  0.3560
    1SOL    HW3  607   1.415   4.347   0.837 -0.1411 -0.4054  1.2353
    1SOL    MW4  608   1.338   4.315   0.861 -0.4479 -0.6647 -0.0409
    1SOL     OW  609   2.504   3.728   0.460 -0.6405 -0.0918  0.0341
    1SOL    HW2  610   2.496   3.643   0.418  2.3345 -1.0523  1.2590
    1SOL    HW3  611   2.592   3.758   0.437 -1.6685  2.7173 -0.4642
    1SOL    MW4  612   2.515   3.721   0.451 -0.3836  0.1521  0.1300
    1SOL     OW  613   2.945   4.618   0.870  0.0657 -0.0729  0.6420
    1SOL    HW2  614   3.020   4.661   0.829  0.0909  0.4117  1.1921
    1SOL    HW3  615   2.872   4.635   0.809  0.2208  0.1719  0.5231
    1SOL    MW4  616   2.945   4.626   0.856  0.0896  0.0234  0.6989
    1SOL     OW  617   2.547   3.234   0.183  0.1435  0.1169 -0.4186
    1SOL    HW2  618   2.458   3.213   0.211  0.3560 -0.5237 -0.2037
    1SOL    HW3  619   2.595   3.151   0.192  1.3285  1.0048  1.6305
    1SOL    MW4  620   2.542   3.220   0.188  0.3276  0.1495 -0.1199
    1SOL     OW  621   2.472   3.885   0.854  0.3768 -0.0584  0.3182
    1SOL    HW2  622   2.389   3.928   0.836  0.2318 -0.0919  0.8984
    1SOL    HW3  623   2.464   3.800   0.809  0.2348  0.0738  0.0891
    1SOL    MW4  624   2.460   3.879   0.845  0.3388 -0.0453  0.3645
    1SOL     OW  625   2.314   3.143   0.321  0.3036 -0.1452  0.4587
    1SOL    HW2  626   2.333   3.059   0.362 -0.0781 -1.6015 -2.2557
    1SOL    HW3  627   2.229   3.131   0.278  0.6505  1.3346 -0.7040
    1SOL    MW4  628   2.305   3.131   0.321  0.2990 -0.1421 -0.0528
    1SOL     OW  629   0.781   1.583   0.475 -0.4915 -0.6411 -0.4647
    1SOL    HW2  630   0.827   1.635   0.408 -0.4864 -1.6190 -1.2323
    1SOL    HW3  631   0.835   1.593   0.553  0.0641 -0.3275 -0.8799
    1SOL    MW4  632   0.794   1.591   0.476 -0.4176 -0.7287 -0.6208
    1SOL     OW  633   3.934   1.651   0.474 -0.1862 -0.1653  0.1136
    1SOL    HW2  634   3.951   1.743   0.453 -1.9128  0.3935  1.1073
    1SOL    HW3  635   3.946   1.645   0.569 -0.5511 -0.8641  0.1217
    1SOL    MW4  636   3.938   1.662   0.484 -0.4623 -0.1836  0.2457
    1SOL     OW  637   4.249   2.769   0.464 -0.0715  0.2955 -0.9826
    1SOL    HW2  638   4.276   2.772   0.556  0.4148 -0.7435 -1.0825
    1SOL    HW3  639   4.188   2.695   0.460 -1.4236  1.3997 -1.1616
    1SOL    MW4  640   4.244   2.759   0.476 -0.1855  0.3040 -1.0194
    1SOL     OW  641   3.130   1.680   0.471  0.0187  0.1776  0.4519
    1SOL    HW2  642   3.047   1.685   0.424  0.2528  0.3060  0.0458
    1SOL    HW3  643   3.155   1.588   0.465  0.5503  0.3774 -0.5656
    1SOL    MW4  644   3.123   1.668   0.464  0.1197  0.2209  0.2641
    1SOL     OW  645   2.721   0.059   0.739 -0.3659  0.0556 -0.5784
    1SOL    HW2  646   2.717   0.152   0.761 -1.1988 -0.5540  2.0758
    1SOL    HW3  647   2.636   0.025   0.765 -0.1119 -1.4359 -1.6504
    1SOL    MW4  648   2.709   0.067   0.746 -0.4420 -0.2216 -0.3697
    1SOL     OW  649   3.163   1.382   0.462 -0.5681  0.0902 -1.1842
    1SOL    HW2  650   3.083   1.362   0.511 -0.1266 -0.1738 -0.5737
    1SOL    HW3  651   3.148   1.342   0.376 -0.2989 -1.6242 -0.4444
    1SOL    MW4  652   3.150   1.374   0.457 -0.4745 -0.1708 -1.0060
    1SOL     OW  653   1.336   1.902   0.825 -0.1380  0.0776  0.0895
    1SOL    HW2  654   1.340   1.811   0.796  1.9269  0.7052 -1.6660
    1SOL    HW3  655   1.355   1.898   0.919  1.3597 -1.1709 -0.2563
    1SOL    MW4  656   1.339   1.889   0.834  0.3321 -0.0043 -0.1878
    1SOL     OW  657   0.475   1.913   0.867 -0.5260 -0.1718  0.1724
    1SOL    HW2  658   0.540   1.983   0.858 -1.5099  0.7911  0.4768
    1SOL    HW3  659   0.464   1.904   0.962 -1.5766  0.3720  0.1084
    1SOL    MW4  660   0.482   1.921   0.878 -0.7945  0.0271  0.2041
    1SOL     OW  661   4.342   4.550   0.493  0.1071  0.0233 -0.3022
    1SOL    HW2  662   4.369   4.631   0.536 -1.0508  0.9082 -1.1988
    1SOL    HW3  663   4.313   4.493   0.565  0.7047  0.4861  0.3092
    1SOL    MW4  664   4.342   4.553   0.508  0.0339  0.2012 -0.3399
    1SOL     OW  665   0.888   3.248   0.709 -0.0971  0.4530 -0.1940
    1SOL    HW2  666   0.888   3.232   0.615 -0.4243  1.3050 -0.3496
    1SOL    HW3  667   0.808   3.207   0.741  0.7139 -1.0377 -0.0655
    1SOL    MW4  668   0.878   3.241   0.701 -0.0332  0.3686 -0.1976
    1SOL     OW  669   1.579   3.490   0.402  0.4882 -0.4739  0.3089
    1SOL    HW2  670   1.667   3.519   0.379  1.0455 -1.2867  1.3671
    1SOL    HW3  671   1.570   3.511   0.495 -0.8241  0.5444 -0.0459
    1SOL    MW4  672   1.590   3.496   0.411  0.3886 -0.4468  0.4017
    1SOL     OW  673   2.893   3.862   0.869  0.0339 -0.0656  0.2173
    1SOL    HW2  674   2.807   3.901   0.850 -0.2067 -0.5592  0.2989
    1SOL    HW3  675   2.905   3.876   0.963 -1.1941 -2.4356  0.7810
    1SOL    MW4  676   2.883   3.869   0.879 -0.1597 -0.4435  0.3025
    1SOL     OW  677   1.102   0.998   0.518 -0.2711  0.1708 -0.0487
    1SOL    HW2  678   1.108   0.956   0.432  0.0547 -1.2565  0.6464
    1SOL    HW3  679   1.184   0.976   0.562 -1.0952 -0.4726  1.2120
    1SOL    MW4  680   1.114   0.989   0.512 -0.3369 -0.1023  0.2094
    1SOL     OW  681   1.571   3.654   0.663 -0.1258  0.0822 -0.1136
    1SOL    HW2  682   1.643   3.620   0.716  0.4019 -1.0823 -1.5732
    1SOL    HW3  683   1.614   3.710   0.598 -0.6605  0.3876 -0.2062
    1SOL    MW4  684   1.587   3.657   0.661 -0.1268 -0.0315 -0.3183
    1SOL     OW  685   2.179   4.298   0.507 -0.0736 -0.4403 -0.9459
    1SOL    HW2  686   2.268   4.331   0.495  0.1151 -0.5939  0.0003
    1SOL    HW3  687   2.186   4.204   0.491 -0.2321 -0.3323 -1.6883
    1SOL    MW4  688   2.191   4.290   0.503 -0.0699 -0.4468 -0.9190
    1SOL     OW  689   0.004   0.517   0.501  0.4616  0.7693 -0.2203
    1SOL    HW2  690  -0.091   0.510   0.495  0.4489  0.1113  0.6470
    1SOL    HW3  691   0.025   0.599   0.456 -0.5704  1.2154  0.0996
    1SOL    MW4  692  -0.006   0.527   0.494  0.3238  0.7414 -0.0637
    1SOL     OW  693   4.074   4.539   0.395  0.1280  0.2217 -0.1996
    1SOL    HW2  694   4.167   4.543   0.420  0.0708 -1.0519  0.2405
    1SOL    HW3  695   4.072   4.573   0.306  1.2356 -1.0108 -0.7203
    1SOL    MW4  696   4.086   4.544   0.387  0.2661 -0.1092 -0.2102
    1SOL     OW  697   2.505   2.274   0.834  0.0344 -0.4344 -0.2111
    1SOL    HW2  698   2.570   2.332   0.795  0.4640 -1.1366 -0.5503
    1SOL    HW3  699   2.423   2.297   0.789  0.1103  0.2302 -0.0088
    1SOL    MW4  700   2.503   2.285   0.823  0.1013 -0.4396 -0.2292
    1SOL     OW  701   4.238   3.399   0.326 -0.2124 -0.4105  0.0446
    1SOL    HW2  702   4.319   3.449   0.335 -0.5642  0.0705  0.5309
    1SOL    HW3  703   4.267   3.312   0.298  0.5492 -0.5138  1.1220
    1SOL    MW4  704   4.253   3.394   0.324 -0.1583 -0.3610  0.2509
    1SOL     OW  705   3.172   1.918   0.826  0.5393 -0.4671 -0.1811
    1SOL    HW2  706   3.165   1.932   0.921 -0.4841  1.4593 -0.5235
    1SOL    HW3  707   3.247   1.973   0.800 -0.0543  0.1010 -0.6984
    1SOL    MW4  708   3.181   1.927   0.835  0.3257 -0.1380 -0.2946
    1SOL     OW  709   2.950   3.552   0.448  0.5249 -0.1035  0.1013
    1SOL    HW2  710   2.992   3.467   0.435 -0.1243 -0.7961  2.2451
    1SOL    HW3  711   2.961   3.570   0.541 -0.9247  1.3086  0.0257
    1SOL    MW4  712   2.957   3.543   0.459  0.2480 -0.0083  0.3741
    1SOL     OW  713   1.369   4.320   0.236  0.6725  0.0023  0.7199
    1SOL    HW2  714   1.364   4.408   0.273 -0.4283 -0.5085  1.8272
    1SOL    HW3  715   1.278   4.290   0.232  1.0526 -1.1622  0.5789
    1SOL    MW4  716   1.357   4.327   0.240  0.5774 -0.2189  0.8474
    1SOL     OW  717   3.142   2.737   0.851 -0.2626 -0.2274  0.0237
    1SOL    HW2  718   3.146   2.651   0.808 -0.7603  0.2107 -0.9195
    1SOL    HW3  719   3.223   2.781   0.825 -0.8919  0.3087 -1.0722
    1SOL    MW4  720   3.153   2.731   0.842 -0.4113 -0.0992 -0.2454
    1SOL     OW  721   2.699   0.325   0.840 -0.2213 -0.2060  0.0697
    1SOL    HW2  722   2.698   0.349   0.932  0.1043  0.2200 -0.0359
    1SOL    HW3  723   2.769   0.379   0.802  0.1953 -0.9653 -0.2581
    1SOL    MW4  724   2.708   0.335   0.847 -0.1235 -0.2500  0.0125
    1SOL     OW  725   3.168   2.489   0.739  0.5912 -0.1320 -0.0676
    1SOL    HW2  726   3.238   2.435   0.776  0.4282 -0.1321  0.2458
    1SOL    HW3  727   3.093   2.430   0.732  0.9348 -0.4219 -1.4446
    1SOL    MW4  728   3.167   2.474   0.743  0.6149 -0.1705 -0.2080
    1SOL     OW  729   1.465   2.379   0.144 -0.4337 -0.1375  0.1447
    1SOL    HW2  730   1.474   2.423   0.060  1.0423 -0.0474  0.3312
    1SOL    HW3  731   1.515   2.298   0.134 -1.5278 -0.8639  0.4405
    1SOL    MW4  732   1.473   2.374   0.132 -0.3833 -0.2215  0.2083
    1SOL     OW  733   0.683   3.665   0.536 -0.1175  0.0496 -0.0341
    1SOL    HW2  734   0.608   3.716   0.505 -0.5291  0.0341  0.9208
    1SOL    HW3  735   0.755   3.692   0.479 -0.5186  1.1214 -0.0492
    1SOL    MW4  736   0.683   3.676   0.524 -0.2248  0.1888  0.0899
    1SOL     OW  737   1.829   2.692   0.798 -0.4209 -0.3745 -0.3423
    1SOL    HW2  738   1.744   2.728   0.773 -0.0468  0.5328 -0.3221
    1SOL    HW3  739   1.892   2.733   0.739  0.0489 -0.7883 -0.1388
    1SOL    MW4  740   1.826   2.702   0.787 -0.3096 -0.3095 -0.3128
    1SOL     OW  741   2.453   3.638   0.722 -0.0705  0.1561  0.1841
    1SOL    HW2  742   2.487   3.668   0.637  0.1361  1.7017  0.7922
    1SOL    HW3  743   2.516   3.571   0.749  1.1095  1.1990  0.1144
    1SOL    MW4  744   2.466   3.633   0.714  0.1125  0.4978  0.2552
    1SOL     OW  745   2.686   3.225   0.795  0.4157 -0.1125  0.2169
    1SOL    HW2  746   2.703   3.219   0.700  2.6240 -0.0359  0.5750
    1SOL    HW3  747   2.674   3.318   0.811  0.5125 -0.0760  0.0827
    1SOL    MW4  748   2.687   3.236   0.784  0.7198 -0.0978  0.2464
    1SOL     OW  749   2.706   4.249   0.829 -0.1161 -0.1161  0.0077
    1SOL    HW2  750   2.711   4.258   0.924  0.7957  0.8332 -0.1179
    1SOL    HW3  751   2.621   4.286   0.805 -0.4706 -0.6295  0.4848
    1SOL    MW4  752   2.696   4.255   0.838 -0.0427 -0.0587  0.0541
    1SOL     OW  753   0.455   3.777   0.386  0.4768  0.1932 -0.1090
    1SOL    HW2  754   0.473   3.782   0.292  0.6330 -0.6067 -0.1277
    1SOL    HW3  755   0.446   3.868   0.414  1.1948  0.4650 -0.7531
    1SOL    MW4  756   0.456   3.790   0.377  0.5922  0.1235 -0.1964
    1SOL     OW  757   1.603   4.403   0.760  0.3171 -0.1174 -0.4507
    1SOL    HW2  758   1.606   4.393   0.665  0.2441 -0.8889 -0.3754
    1SOL    HW3  759   1.689   4.373   0.790  0.1146 -0.4878 -0.2272
    1SOL    MW4  760   1.615   4.397   0.751  0.2807 -0.2685 -0.4113
    1SOL     OW  761   0.967   1.669   0.266  0.2780  0.0702 -0.2322
    1SOL    HW2  762   0.915   1.646   0.188  0.3995 -0.3662 -0.1840
    1SOL    HW3  763   1.036   1.603   0.269 -0.9172 -1.1725  1.4119
    1SOL    MW4  764   0.969   1.657   0.256  0.1364 -0.1514 -0.0089
    1SOL     OW  765   1.985   2.894   0.391 -0.2564  0.2239  0.3905
    1SOL    HW2  766   1.897   2.929   0.375 -0.8629 -0.5176  1.9359
    1SOL    HW3  767   1.975   2.799   0.379  0.2115  0.0949  0.9746
    1SOL    MW4  768   1.972   2.886   0.388 -0.2748  0.1090  0.6714
    1SOL     OW  769   0.879   3.235   0.438 -0.4951  0.3371 -0.1474
    1SOL    HW2  770   0.965   3.272   0.417 -0.8086  0.5472 -1.0690
    1SOL    HW3  771   0.816   3.301   0.408 -0.9952 -0.0194  0.1074
    1SOL    MW4  772   0.882   3.248   0.432 -0.6024  0.3178 -0.2354
    1SOL     OW  773   2.765   3.761   0.381  0.2314 -0.2544 -0.1001
    1SOL    HW2  774   2.725   3.736   0.298  0.4393  0.8270 -0.5223
    1SOL    HW3  775   2.819   3.686   0.405  0.2364 -0.5303 -0.9723
    1SOL    MW4  776   2.767   3.747   0.373  0.2594 -0.1481 -0.2709
    1SOL     OW  777   3.590   3.243   0.423  0.5341 -0.1048  0.1384
    1SOL    HW2  778   3.654   3.311   0.400  0.4870  0.0654  0.5148
    1SOL    HW3  779   3.620   3.165   0.376  0.6280  0.1564 -0.2397
    1SOL    MW4  780   3.602   3.242   0.413  0.5403 -0.0479  0.1382
    1SOL     OW  781   1.299   4.564   0.416  0.4769 -0.2691 -0.0577
    1SOL    HW2  782   1.221   4.510   0.432  0.1471 -0.0145 -0.8152
    1SOL    HW3  783   1.273   4.652   0.443  0.8780 -0.3891  0.7690
    1SOL    MW4  784   1.285   4.568   0.422  0.4864 -0.2508 -0.0486
    1SOL     OW  785   0.888   3.605   0.239 -0.0944 -0.0834 -0.1934
    1SOL    HW2  786   0.981   3.584   0.247  0.0190  0.4803 -0.0495
    1SOL    HW3  787   0.881   3.698   0.260 -0.8108 -0.3283  0.7056
    1SOL    MW4  788   0.899   3.614   0.243 -0.1739 -0.0415 -0.0558
    1SOL     OW  789   4.111   0.073   0.753  0.7910  0.2869 -0.2254
    1SOL    HW2  790   4.108   0.084   0.658 -0.1261 -0.4406 -0.2777
    1SOL    HW3  791   4.091   0.160   0.788 -0.8847  0.0950 -0.6871
    1SOL    MW4  792   4.108   0.086   0.746  0.4492  0.1656 -0.2933
    1SOL     OW  793   4.477   0.890   0.743 -0.2147 -0.2589  0.2926
    1SOL    HW2  794   4.396   0.858   0.783  0.5033  0.1456  2.1655
    1SOL    HW3  795   4.545   0.831   0.779  0.0810 -2.0841 -3.0515
    1SOL    MW4  796   4.476   0.878   0.753 -0.0811 -0.4463  0.0985
    1SOL     OW  797   1.813   0.932   0.489 -0.9422  0.4162  0.0012
    1SOL    HW2  798   1.780   0.927   0.579  0.7653  0.7279  0.6604
    1SOL    HW3  799   1.861   0.851   0.476 -0.5742  0.6932 -0.3856
    1SOL    MW4  800   1.815   0.921   0.499 -0.6683  0.4939  0.0372
    1SOL     OW  801   0.496   1.209   0.381 -0.1365  0.3317  0.3882
    1SOL    HW2  802   0.448   1.278   0.427  0.0359  0.2666  0.6752
    1SOL    HW3  803   0.433   1.139   0.371 -1.0915  1.5262 -2.2841
    1SOL    MW4  804   0.481   1.209   0.386 -0.2398  0.4808  0.0735
    1SOL     OW  805   2.255   0.407   0.873  0.0012  0.2144 -0.0735
    1SOL    HW2  806   2.263   0.314   0.853  0.9245  0.2955 -0.1147
    1SOL    HW3  807   2.165   0.429   0.850  0.0789 -0.4385 -1.0340
    1SOL    MW4  808   2.244   0.398   0.867  0.1333  0.1389 -0.2057
    1SOL     OW  809   3.382   4.334   0.716 -0.0251  0.0400 -0.3022
    1SOL    HW2  810   3.371   4.428   0.724  0.1697  0.0552 -0.2245
    1SOL    HW3  811   3.299   4.297   0.746 -0.2755  0.2056 -0.7742
    1SOL    MW4  812   3.370   4.341   0.721 -0.0327  0.0639 -0.3542
    1SOL     OW  813   3.630   4.221   0.827 -0.4643 -0.2808 -0.2149
    1SOL    HW2  814   3.547   4.257   0.796 -0.7868 -1.4037 -0.6725
    1SOL    HW3  815   3.636   4.135   0.787  1.0465 -0.1256 -0.3705
    1SOL    MW4  816   3.620   4.215   0.818 -0.3076 -0.4086 -0.2958
    1SOL     OW  817   0.597   4.282   0.449 -0.0164  0.2903 -0.3755
    1SOL    HW2  818   0.628   4.329   0.526  0.2618  1.0389 -0.9328
    1SOL    HW3  819   0.547   4.347   0.400 -0.8991 -0.4100 -0.4074
    1SOL    MW4  820   0.595   4.297   0.453 -0.0962  0.2961 -0.4532
    1SOL     OW  821   2.269   2.332   0.720  0.1656  0.3205 -0.5072
    1SOL    HW2  822   2.242   2.417   0.687  1.1614  0.5568 -0.7344
    1SOL    HW3  823   2.191   2.297   0.763 -0.4552  1.0285 -1.0453
    1SOL    MW4  824   2.255   2.338   0.722  0.2148  0.4449 -0.6081
    1SOL     OW  825   3.385   0.463   0.737 -0.3317  0.1263 -0.1699
    1SOL    HW2  826   3.383   0.464   0.641  0.0271  1.7918 -0.1717
    1SOL    HW3  827   3.469   0.422   0.758 -0.0740  0.4447 -0.5715
    1SOL    MW4  828   3.396   0.458   0.727 -0.2499  0.3881 -0.2232
    1SOL     OW  829   0.792   2.562   0.510  0.0627 -0.4778 -0.4066
    1SOL    HW2  830   0.755   2.647   0.488 -0.7488 -0.6038  0.4114
    1SOL    HW3  831   0.732   2.499   0.469 -0.9701 -0.6967  1.3916
    1SOL    MW4  832   0.779   2.565   0.501 -0.1805 -0.5233 -0.0615
    1SOL     OW  833   0.184   4.111   0.474 -0.1747 -0.0901  0.2009
    1SOL    HW2  834   0.157   4.198   0.446  0.1890 -0.0337  0.0266
    1SOL    HW3  835   0.101   4.065   0.492 -0.3936  0.0257 -0.5011
    1SOL    MW4  836   0.169   4.116   0.473 -0.1556 -0.0672  0.0853
    1SOL     OW  837   0.253   1.025   0.351  0.0495  0.1109 -0.2453
    1SOL    HW2  838   0.178   1.056   0.402 -0.6717  1.1590 -1.8970
    1SOL    HW3  839   0.220   0.951   0.300  0.4455 -0.1639 -0.1078
    1SOL    MW4  840   0.239   1.020   0.351  0.0066  0.2129 -0.4451
    1SOL     OW  841   2.038   3.620   0.744 -0.4413 -0.1839 -0.0485
    1SOL    HW2  842   2.097   3.560   0.789 -0.8858 -0.9982 -0.5414
    1SOL    HW3  843   1.950   3.596   0.775 -0.5974  0.4004 -0.0277
    1SOL    MW4  844   2.034   3.609   0.754 -0.5205 -0.2139 -0.1108
    1SOL     OW  845   4.034   0.315   0.868  0.4976  0.4312  0.0601
    1SOL    HW2  846   4.109   0.370   0.844  0.6650  0.4358  0.6045
    1SOL    HW3  847   3.965   0.343   0.808  0.8062  0.7154 -0.1685
    1SOL    MW4  848   4.035   0.326   0.857  0.5598  0.4693  0.1017
    1SOL     OW  849   2.973   2.041   0.418 -0.5729 -0.0029 -0.0755
    1SOL    HW2  850   2.985   2.044   0.513  2.4847  2.1376 -0.4286
    1SOL    HW3  851   2.919   2.117   0.398  1.5009  1.4797 -0.2878
    1SOL    MW4  852   2.968   2.051   0.428  0.1042  0.4749 -0.1501
    1SOL     OW  853   0.604   2.993   0.182 -0.2169  0.5153  0.1131
    1SOL    HW2  854   0.590   3.004   0.088 -0.2654 -0.6295 -0.0168
    1SOL    HW3  855   0.587   3.080   0.219 -1.6877  0.6272 -0.7596
    1SOL    MW4  856   0.600   3.006   0.174 -0.4174  0.3791 -0.0192
    1SOL     OW  857   1.073   2.577   0.464 -0.0586  0.0667 -0.2852
    1SOL    HW2  858   0.980   2.578   0.440  0.3744  0.2294 -2.0023
    1SOL    HW3  859   1.091   2.667   0.493 -0.4296  0.0341  0.0525
    1SOL    MW4  860   1.063   2.589   0.465 -0.0504  0.0839 -0.4672
    1SOL     OW  861   1.781   4.223   0.380  0.0314  0.0593 -0.6913
    1SOL    HW2  862   1.726   4.289   0.421  0.2220  0.8570 -1.7039
    1SOL    HW3  863   1.734   4.197   0.301  1.1056  0.8225 -1.6215
    1SOL    MW4  864   1.768   4.229   0.375  0.1982  0.2656 -0.9477
    1SOL     OW  865   3.349   1.154   0.485  0.2754 -0.1321  0.6207
    1SOL    HW2  866   3.294   1.233   0.479  1.5120  0.8490  1.8719
    1SOL    HW3  867   3.362   1.141   0.579  1.8815 -0.5491  0.3540
    1SOL    MW4  868   3.343   1.163   0.496  0.6504 -0.0577  0.7506
    1SOL     OW  869   0.758   2.341   0.798  0.2712 -0.3568 -0.1745
    1SOL    HW2  870   0.740   2.326   0.891  1.7046  1.2084  0.3858
    1SOL    HW3  871   0.686   2.396   0.768 -0.1487 -0.7938  0.0230
    1SOL    MW4  872   0.746   2.346   0.807  0.4050 -0.2079 -0.0745
    1SOL     OW  873   4.488   3.543   0.329  0.0223  0.2705  0.4528
    1SOL    HW2  874   4.509   3.559   0.237 -0.8128  0.6387  0.3146
    1SOL    HW3  875   4.572   3.542   0.373  0.5001 -0.8868 -0.4714
    1SOL    MW4  876   4.502   3.545   0.322 -0.0248  0.1662  0.3126
    1SOL     OW  877   3.384   2.841   0.761  0.3376 -0.2272 -0.2367
    1SOL    HW2  878   3.397   2.935   0.771  0.2093 -0.3953  1.6577
    1SOL    HW3  879   3.454   2.801   0.813  0.5596 -1.1875 -1.2488
    1SOL    MW4  880   3.395   2.848   0.769  0.3500 -0.3760 -0.1203
    1SOL     OW  881   0.481   2.749   0.841  0.1612 -0.2470  0.2528
    1SOL    HW2  882   0.562   2.796   0.824 -0.2306 -0.1629 -1.5117
    1SOL    HW3  883   0.489   2.669   0.789  0.0266 -1.2484  1.7609
    1SOL    MW4  884   0.492   2.745   0.832  0.0917 -0.3681  0.2190
    1SOL     OW  885   2.965   0.505   0.467 -0.1296  0.4665 -0.5387
    1SOL    HW2  886   3.040   0.450   0.446 -1.0677 -1.3115  0.6033
    1SOL    HW3  887   2.952   0.493   0.561 -0.1782  2.9090 -0.2039
    1SOL    MW4  888   2.973   0.496   0.477 -0.2599  0.5541 -0.3439
    1SOL     OW  889   2.238   4.025   0.727 -0.3257  0.0642 -0.3240
    1SOL    HW2  890   2.217   4.029   0.634  1.2012  0.5185 -0.6640
    1SOL    HW3  891   2.168   3.973   0.766 -0.7951 -0.3966 -1.7775
    1SOL    MW4  892   2.226   4.019   0.720 -0.1862  0.0634 -0.5606
    1SOL     OW  893   1.321   4.043   0.768  0.3595  0.4746  0.1556
    1SOL    HW2  894   1.241   4.004   0.804  0.1194  0.7234 -0.1056
    1SOL    HW3  895   1.317   4.135   0.794  1.0875  0.2578  1.0476
    1SOL    MW4  896   1.310   4.050   0.776  0.4239  0.4787  0.2388
    1SOL     OW  897   3.536   0.692   0.505  0.0693 -0.0238  0.2978
    1SOL    HW2  898   3.470   0.753   0.470  1.0351  0.9032  0.0788
    1SOL    HW3  899   3.493   0.607   0.503 -1.4018  0.6774  0.8498
    1SOL    MW4  900   3.521   0.689   0.500  0.0026  0.1911  0.3418
    1SOL     OW  901   4.476   1.962   0.871 -0.0991  0.4052 -0.5493
    1SOL    HW2  902   4.567   1.984   0.854  0.2408 -0.8223 -0.3099
    1SOL    HW3  903   4.461   1.880   0.825 -0.7342 -0.0424  0.4379
    1SOL    MW4  904   4.486   1.954   0.863 -0.1378  0.1842 -0.3875
    1SOL     OW  905   0.045   1.145   0.822  0.2243  0.1598  0.1570
    1SOL    HW2  906   0.047   1.146   0.918 -0.5190  0.9120  0.1700
    1SOL    HW3  907   0.033   1.053   0.799  2.3961 -0.2931  0.7372
    1SOL    MW4  908   0.044   1.133   0.831  0.4127  0.1993  0.2353
    1SOL     OW  909   3.069   3.286   0.412  0.0425  0.1070 -0.3345
    1SOL    HW2  910   3.157   3.323   0.402  0.2703 -0.5330 -0.7071
    1SOL    HW3  911   3.083   3.194   0.429 -0.5649 -0.0528 -0.6670
    1SOL    MW4  912   3.083   3.279   0.413 -0.0074  0.0012 -0.4275
    1SOL     OW  913   1.916   2.298   0.233  0.1012  0.5523 -0.4289
    1SOL    HW2  914   1.998   2.346   0.243  0.6019 -0.4857  0.4575
    1SOL    HW3  915   1.870   2.311   0.316  0.5967 -1.1513  0.1310
    1SOL    MW4  916   1.921   2.306   0.245  0.2326  0.1907 -0.2381
    1SOL     OW  917   3.158   1.089   0.836 -0.2772 -0.2279  0.0770
    1SOL    HW2  918   3.229   1.150   0.817 -2.0074  1.6659 -0.4372
    1SOL    HW3  919   3.158   1.082   0.932 -0.9087  1.6409  0.2380
    1SOL    MW4  920   3.167   1.096   0.847 -0.5889  0.2685  0.0303
    1SOL     OW  921   3.144   3.026   0.508  0.7860 -0.6370  0.0240
    1SOL    HW2  922   3.206   2.965   0.467 -1.2332 -2.4966 -0.3637
    1SOL    HW3  923   3.058   2.987   0.493 -0.3880  1.1242  1.8472
    1SOL    MW4  924   3.141   3.013   0.501  0.3648 -0.6499  0.2134
    1SOL     OW  925   1.380   0.884   0.732  0.1407  0.1459 -0.4285
    1SOL    HW2  926   1.370   0.971   0.770  0.6131 -0.9588  2.3565
    1SOL    HW3  927   1.301   0.837   0.758 -0.4523 -0.0872 -2.5301
    1SOL    MW4  928   1.368   0.890   0.740  0.1249 -0.0307 -0.3383
    1SOL     OW  929   3.777   0.554   0.492 -0.3437 -0.6491 -0.0838
    1SOL    HW2  930   3.704   0.613   0.475  0.0688 -0.0515  0.1961
    1SOL    HW3  931   3.854   0.610   0.489 -0.0282 -0.9993  1.1308
    1SOL    MW4  932   3.778   0.569   0.489 -0.2480 -0.6165  0.1134
    1SOL     OW  933   4.029   2.474   0.712  0.0708 -0.4520  0.1458
    1SOL    HW2  934   4.096   2.425   0.760 -1.3273  0.0247  2.6761
    1SOL    HW3  935   3.948   2.427   0.730 -0.7057  0.5711 -0.6099
    1SOL    MW4  936   4.027   2.461   0.721 -0.2160 -0.2539  0.3800
    1SOL     OW  937   1.839   1.608   0.461 -0.8395  0.0486  0.3094
    1SOL    HW2  938   1.917   1.638   0.415 -1.7871  0.8866 -0.7906
    1SOL    HW3  939   1.857   1.627   0.554  0.6288 -0.6326  0.1697
    1SOL    MW4  940   1.852   1.615   0.468 -0.7709  0.0693  0.1459
    1SOL     OW  941   1.163   0.838   0.291 -0.1044  0.0347 -0.4337
    1SOL    HW2  942   1.172   0.864   0.199  0.9227 -0.3378 -0.4558
    1SOL    HW3  943   1.198   0.749   0.293  0.4357  0.2641  0.4299
    1SOL    MW4  944   1.169   0.829   0.279  0.1023  0.0158 -0.3227
    1SOL     OW  945   1.732   1.034   0.244  0.0721  0.3181  0.3510
    1SOL    HW2  946   1.738   0.953   0.194  0.1476  0.1014  0.7021
    1SOL    HW3  947   1.774   1.013   0.328  0.3969  0.8226  0.3156
    1SOL    MW4  948   1.739   1.020   0.249  0.1247  0.3560  0.3926
    1SOL     OW  949   4.034   0.811   0.744  0.3190 -0.2789  0.3364
    1SOL    HW2  950   4.042   0.905   0.753 -0.1179 -0.1567 -0.4669
    1SOL    HW3  951   4.118   0.776   0.774  0.7961  0.4235 -0.1649
    1SOL    MW4  952   4.046   0.819   0.749  0.3247 -0.1701  0.1643
    1SOL     OW  953   0.889   1.924   0.346 -0.0028 -0.1287  0.0857
    1SOL    HW2  954   0.923   1.839   0.319 -1.5472 -1.3766  1.9695
    1SOL    HW3  955   0.967   1.976   0.367  0.9890 -0.7228 -2.0332
    1SOL    MW4  956   0.904   1.920   0.345 -0.0757 -0.3719  0.0547
    1SOL     OW  957   0.700   3.433   0.363  0.4339 -0.3963 -0.1796
    1SOL    HW2  958   0.762   3.480   0.308  0.9364 -0.5718  0.2310
    1SOL    HW3  959   0.697   3.484   0.444  0.2272 -0.5237 -0.1049
    1SOL    MW4  960   0.708   3.446   0.367  0.4730 -0.4363 -0.1155
    1SOL     OW  961   2.079   3.100   0.195  0.3336  0.2421  0.1660
    1SOL    HW2  962   2.064   3.076   0.104 -0.3453  1.6525 -0.1217
    1SOL    HW3  963   2.036   3.031   0.246 -0.5885  0.2437 -0.6059
    1SOL    MW4  964   2.071   3.088   0.190  0.1221  0.4284  0.0262
    1SOL     OW  965   1.345   2.233   0.353  0.2070  0.5175  0.1105
    1SOL    HW2  966   1.368   2.293   0.282  1.8630  1.9089  1.7974
    1SOL    HW3  967   1.429   2.195   0.381 -0.4060  0.0987  1.4228
    1SOL    MW4  968   1.359   2.236   0.347  0.3445  0.6459  0.5062
    1SOL     OW  969   2.717   0.848   0.510  0.1917  0.4140 -0.2042
    1SOL    HW2  970   2.710   0.833   0.604 -0.0979  0.9962 -0.1317
    1SOL    HW3  971   2.809   0.832   0.489  0.8161  2.8470  0.6221
    1SOL    MW4  972   2.728   0.844   0.519  0.2363  0.8119 -0.0857
    1SOL     OW  973   1.642   1.935   0.293  0.1091  0.1127 -0.1880
    1SOL    HW2  974   1.630   1.840   0.300 -1.5000  0.1515 -2.2040
    1SOL    HW3  975   1.732   1.945   0.262  0.7923 -0.6803  1.4556
    1SOL    MW4  976   1.652   1.924   0.290 -0.0131  0.0132 -0.2371
    1SOL     OW  977   3.776   2.103   0.501 -0.1571  0.2966 -0.1419
    1SOL    HW2  978   3.798   2.189   0.467 -0.4002 -0.6179 -2.7295
    1SOL    HW3  979   3.838   2.044   0.457 -0.4292 -0.9271  1.0866
    1SOL    MW4  980   3.787   2.106   0.491 -0.2251  0.0145 -0.3212
    1SOL     OW  981   3.892   2.994   0.423  0.4630 -0.0504  0.3234
    1SOL    HW2  982   3.808   3.015   0.383  0.3011  0.4176  0.9085
    1SOL    HW3  983   3.922   3.076   0.462  0.9535 -0.3339  0.5550
    1SOL    MW4  984   3.885   3.007   0.423  0.5064 -0.0260  0.4312
    1SOL     OW  985   1.357   2.685   0.852 -0.1939  0.7287 -0.1794
    1SOL    HW2  986   1.370   2.682   0.946 -1.9986 -1.2857  0.0396
    1SOL    HW3  987   1.290   2.752   0.838  0.8841  1.8328 -0.1608
    1SOL    MW4  988   1.350   2.694   0.862 -0.2898  0.6087 -0.1480
    1SOL     OW  989   3.571   0.203   0.487  0.0944 -0.6486  0.2147
    1SOL    HW2  990   3.550   0.140   0.417  2.8040 -1.7584  0.3465
    1SOL    HW3  991   3.572   0.150   0.567 -0.3786  0.1154  0.7316
    1SOL    MW4  992   3.568   0.188   0.488  0.3898 -0.6942  0.3003
    1SOL     OW  993   4.051   3.499   0.870  0.4836  0.2861 -0.1552
    1SOL    HW2  994   4.050   3.407   0.844  1.3737  0.8262 -2.2300
    1SOL    HW3  995   4.068   3.497   0.964 -1.6556 -1.7127  0.2334
    1SOL    MW4  996   4.053   3.487   0.879  0.3190  0.0937 -0.3777
    1SOL     OW  997   0.408   0.337   0.833  0.4119 -0.0642  0.2343
    1SOL    HW2  998   0.343   0.390   0.788 -0.4848 -1.2739  0.0769
    1SOL    HW3  999   0.423   0.262   0.775  1.5775 -0.0514  0.4942
    1SOL    MW4 1000   0.402   0.334   0.820  0.4474 -0.2221  0.2478
    1SOL     OW 1001   2.023   4.382   0.286 -0.0289  0.2468 -0.2214
    1SOL    HW2 1002   1.950   4.325   0.312  0.3017 -0.0732  0.0175
    1SOL    HW3 1003   2.095   4.355   0.343 -0.0867  1.4339  0.4295
    1SOL    MW4 1004   2.023   4.371   0.297  0.0072  0.3614 -0.1040
    1SOL     OW 1005   4.476   0.307   0.853  0.1043 -0.3756  0.0297
    1SOL    HW2 1006   4.543   0.363   0.812 -1.0908  0.3959 -0.8996
    1SOL    HW3 1007   4.479   0.330   0.945 -1.0144  1.9206 -0.4800
    1SOL    MW4 1008   4.485   0.318   0.859 -0.2012  0.0292 -0.1602
    1SOL     OW 1009   2.086   1.669   0.329  0.4427 -0.1118  0.0541
    1SOL    HW2 1010   2.170   1.674   0.374 -0.1253  0.6647  1.0562
    1SOL    HW3 1011   2.080   1.752   0.281 -0.1787  0.2557  0.7616
    1SOL    MW4 1012   2.096   1.681   0.328  0.2859  0.0392  0.2797
    1SOL     OW 1013   0.201   0.729   0.825 -0.1954  0.3093 -0.2226
    1SOL    HW2 1014   0.277   0.784   0.805 -1.1490  1.9891  0.5821
    1SOL    HW3 1015   0.182   0.748   0.918 -1.9487  0.4068 -0.5727
    1SOL    MW4 1016   0.208   0.739   0.835 -0.5525  0.5438 -0.1626
    1SOL     OW 1017   0.255   1.333   0.747 -0.1245 -0.1075 -0.3533
    1SOL    HW2 1018   0.273   1.348   0.654 -1.9965  1.1077 -0.5442
    1SOL    HW3 1019   0.196   1.258   0.748  0.7359 -0.7917 -0.0578
    1SOL    MW4 1020   0.249   1.325   0.735 -0.2580 -0.0374 -0.3395
    1SOL     OW 1021   0.513   1.673   0.484 -0.3907 -0.3015  0.1058
    1SOL    HW2 1022   0.602   1.641   0.474 -0.6456 -0.7305 -0.8095
    1SOL    HW3 1023   0.495   1.664   0.578 -0.2156 -2.2276 -0.0198
    1SOL    MW4 1024   0.522   1.668   0.495 -0.4012 -0.6123 -0.0316
    1SOL     OW 1025   4.391   1.304   0.517 -0.3615 -0.1946  0.4938
    1SOL    HW2 1026   4.324   1.369   0.495  0.2451  0.4203  0.4626
    1SOL    HW3 1027   4.357   1.262   0.597 -0.9253 -0.0897  0.3154
    1SOL    MW4 1028   4.377   1.307   0.525 -0.3562 -0.0995  0.4662
    1SOL     OW 1029   0.198   1.571   0.882  0.8569  0.1191 -0.0174
    1SOL    HW2 1030   0.202   1.479   0.855  0.1133 -0.1299  0.7080
    1SOL    HW3 1031   0.269   1.613   0.833  0.1858 -0.5198 -1.5594
    1SOL    MW4 1032   0.208   1.565   0.872  0.6702  0.0021 -0.1252
    1SOL     OW 1033   1.092   2.840   0.793  0.2961 -0.4717 -0.1187
    1SOL    HW2 1034   1.022   2.781   0.822 -1.1570  0.5385 -1.5232
    1SOL    HW3 1035   1.080   2.847   0.698 -0.4766  3.1845  0.1710
    1SOL    MW4 1036   1.081   2.833   0.784  0.0023  0.1440 -0.2657
    1SOL     OW 1037   4.050   2.558   0.440  0.3189 -0.0936 -0.5869
    1SOL    HW2 1038   4.109   2.502   0.390  0.2376 -0.5960 -0.1287
    1SOL    HW3 1039   4.050   2.520   0.528  0.4306  0.7583 -0.2148
    1SOL    MW4 1040   4.058   2.546   0.445  0.3223 -0.0477 -0.4773
    1SOL     OW 1041   1.112   2.311   0.795  0.2166  0.4118  0.0023
    1SOL    HW2 1042   1.118   2.224   0.756  0.2712  1.1190 -1.5822
    1SOL    HW3 1043   1.203   2.336   0.813  0.2237  0.2811  0.1487
    1SOL    MW4 1044   1.125   2.303   0.792  0.2247  0.4876 -0.1875
    1SOL     OW 1045   0.705   2.821   0.464  0.1985  0.1919  0.2266
    1SOL    HW2 1046   0.617   2.822   0.425  0.7601  0.0979 -1.0797
    1SOL    HW3 1047   0.755   2.884   0.411  0.3597  1.8989  2.3317
    1SOL    MW4 1048   0.700   2.830   0.452  0.2938  0.4044  0.3320
    1SOL     OW 1049   4.254   2.361   0.830 -0.9047  0.5160  0.4077
    1SOL    HW2 1050   4.246   2.265   0.831 -1.3759  0.5559  1.6283
    1SOL    HW3 1051   4.340   2.377   0.793 -0.1152 -0.4462  1.7651
    1SOL    MW4 1052   4.264   2.350   0.825 -0.8626  0.3941  0.7479
    1SOL     OW 1053   0.377   1.435   0.485 -0.3026 -0.5025 -0.0619
    1SOL    HW2 1054   0.290   1.459   0.453  0.1034  0.4507 -0.4867
    1SOL    HW3 1055   0.428   1.516   0.475  0.2963 -0.6989  1.3372
    1SOL    MW4 1056   0.372   1.449   0.480 -0.1701 -0.4027  0.0666
    1SOL     OW 1057   4.002   1.633   0.739  0.6678  0.2748  0.3708
    1SOL    HW2 1058   3.935   1.577   0.776  1.1279  0.1238  0.9891
    1SOL    HW3 1059   4.084   1.602   0.778  1.1137  0.3675 -0.4761
    1SOL    MW4 1060   4.004   1.622   0.749  0.7873  0.2671  0.3406
    1SOL     OW 1061   0.239   3.095   0.827 -0.0632 -0.1163 -0.5244
    1SOL    HW2 1062   0.244   3.105   0.922 -0.7114  0.3004 -0.5289
    1SOL    HW3 1063   0.151   3.125   0.805 -0.4168 -1.5619 -1.0937
    1SOL    MW4 1064   0.228   3.101   0.837 -0.1954 -0.2518 -0.6000
    1SOL     OW 1065   1.151   1.460   0.289 -0.4684 -0.0589 -0.3016
    1SOL    HW2 1066   1.096   1.393   0.332  0.4226 -0.5433  0.0994
    1SOL    HW3 1067   1.228   1.411   0.259  1.2572  1.1527  1.9797
    1SOL    MW4 1068   1.154   1.444   0.291 -0.1231  0.0371  0.0523
    1SOL     OW 1069   0.265   2.644   0.259  0.3735 -0.5765  0.2599
    1SOL    HW2 1070   0.254   2.551   0.241  1.2512 -0.6988  0.3320
    1SOL    HW3 1071   0.176   2.678   0.266  0.0524 -1.5807  1.1019
    1SOL    MW4 1072   0.252   2.637   0.257  0.4469 -0.7250  0.3805
    1SOL     OW 1073   4.478   3.209   0.744 -0.4379  0.2559  0.0861
    1SOL    HW2 1074   4.505   3.211   0.652 -0.5388  1.0577  0.0746
    1SOL    HW3 1075   4.483   3.300   0.773  0.2458 -0.0866  1.0635
    1SOL    MW4 1076   4.482   3.221   0.736 -0.3610  0.3166  0.2136
    1SOL     OW 1077   0.471   3.473   0.857 -0.1334  0.2171  1.0560
    1SOL    HW2 1078   0.464   3.463   0.952  1.6978 -0.5778  1.1350
    1SOL    HW3 1079   0.468   3.384   0.824  1.0869  0.3648  0.5246
    1SOL    MW4 1080   0.470   3.460   0.865  0.2692  0.1318  0.9963
    1SOL     OW 1081   0.433   2.862   0.363 -0.4024  0.5137 -0.5098
    1SOL    HW2 1082   0.473   2.903   0.287 -0.7291  0.4444 -0.7191
    1SOL    HW3 1083   0.383   2.788   0.327 -1.7942  1.3874 -0.3828
    1SOL    MW4 1084   0.432   2.857   0.348 -0.6291  0.6199 -0.5207
    1SOL     OW 1085   0.441   1.166   0.850  0.1861 -0.2896 -0.1106
    1SOL    HW2 1086   0.524   1.199   0.816 -0.1235 -0.6543 -1.2303
    1SOL    HW3 1087   0.374   1.220   0.808 -0.2303 -1.1632 -0.6072
    1SOL    MW4 1088   0.443   1.177   0.840  0.0904 -0.4531 -0.3239
    1SOL     OW 1089   0.513   0.157   0.651  0.1580  0.1217  0.0602
    1SOL    HW2 1090   0.436   0.102   0.637  1.1283 -0.9909 -1.0724
    1SOL    HW3 1091   0.573   0.101   0.702  0.7827  0.4623 -0.2991
    1SOL    MW4 1092   0.511   0.142   0.656  0.3685  0.0199 -0.1366
    1SOL     OW 1093   0.399   0.392   1.112 -0.7490  0.0009 -0.2012
    1SOL    HW2 1094   0.375   0.390   1.019 -0.9404 -1.6472 -0.1296
    1SOL    HW3 1095   0.334   0.449   1.152  0.3618  2.1562 -1.3449
    1SOL    MW4 1096   0.387   0.399   1.105 -0.6276  0.0678 -0.3426
    1SOL     OW 1097   2.044   2.000   0.762  0.2188  0.2033  0.2580
    1SOL    HW2 1098   2.018   2.089   0.786  0.3060  0.0730  0.8446
    1SOL    HW3 1099   1.970   1.945   0.786  0.4521  0.0236  0.5657
    1SOL    MW4 1100   2.031   2.005   0.768  0.2611  0.1624  0.3761
    1SOL     OW 1101   3.408   1.224   0.760 -0.1073  0.1871  0.1230
    1SOL    HW2 1102   3.482   1.184   0.805 -0.7608  0.1182  1.1471
    1SOL    HW3 1103   3.431   1.317   0.755  0.0327  0.1683  0.4528
    1SOL    MW4 1104   3.421   1.231   0.765 -0.1752  0.1755  0.3016
    1SOL     OW 1105   3.619   1.638   0.710  0.9469 -0.0924  0.3255
    1SOL    HW2 1106   3.543   1.586   0.739  0.0297  1.7477  1.3161
    1SOL    HW3 1107   3.629   1.617   0.617 -0.8428 -0.2666  0.1628
    1SOL    MW4 1108   3.610   1.628   0.702  0.5898  0.1273  0.4346
    1SOL     OW 1109   0.908   0.112   0.723 -0.6070 -0.1470 -0.0539
    1SOL    HW2 1110   0.909   0.141   0.632 -0.6814 -0.4787 -0.1605
    1SOL    HW3 1111   0.825   0.066   0.733 -0.3744 -0.5478  0.0436
    1SOL    MW4 1112   0.897   0.110   0.713 -0.5861 -0.2436 -0.0551
    1SOL     OW 1113   0.747   2.832   0.751  0.2725 -0.2830  0.1732
    1SOL    HW2 1114   0.735   2.923   0.780 -1.2251 -0.9478  1.7180
    1SOL    HW3 1115   0.718   2.832   0.660 -0.1309  0.6940  0.2917
    1SOL    MW4 1116   0.742   2.844   0.743  0.0218 -0.2420  0.3927
    1SOL     OW 1117   1.544   0.254   0.419  0.5672 -0.3831 -0.5875
    1SOL    HW2 1118   1.593   0.331   0.447  0.4708 -0.6227  0.2516
    1SOL    HW3 1119   1.609   0.183   0.418  0.9879 -0.0054 -2.7772
    1SOL    MW4 1120   1.559   0.255   0.422  0.6100 -0.3648 -0.7656
    1SOL     OW 1121   0.477   3.212   0.742 -0.0208  0.8269  0.2090
    1SOL    HW2 1122   0.437   3.257   0.668  0.1569  0.4065 -0.1493
    1SOL    HW3 1123   0.404   3.165   0.783 -0.1052  0.9966  0.2522
    1SOL    MW4 1124   0.462   3.211   0.738 -0.0085  0.7939  0.1674
    1SOL     OW 1125   0.663   1.283   0.736 -0.0784  1.0548  0.1260
    1SOL    HW2 1126   0.689   1.282   0.644 -0.6951 -0.3950 -0.0408
    1SOL    HW3 1127   0.662   1.376   0.760 -0.8338  1.5110 -1.5986
    1SOL    MW4 1128   0.666   1.295   0.727 -0.2595  0.9238 -0.1236
    1SOL     OW 1129   2.910   1.513   0.858 -0.3697  0.0617 -0.4954
    1SOL    HW2 1130   2.838   1.537   0.799 -0.4452  0.7305 -0.1402
    1SOL    HW3 1131   2.987   1.553   0.818 -0.4674  0.7723  0.0007
    1SOL    MW4 1132   2.910   1.522   0.845 -0.3924  0.2437 -0.3830
    1SOL     OW 1133   4.472   1.701   0.765 -0.4015  0.2481 -0.0194
    1SOL    HW2 1134   4.398   1.645   0.791  0.4691 -0.0778  1.8756
    1SOL    HW3 1135   4.549   1.658   0.804  0.8338  0.4416 -2.1816
    1SOL    MW4 1136   4.472   1.688   0.774 -0.1235  0.2307 -0.0547
    1SOL     OW 1137   1.258   4.010   0.500 -0.2642 -0.3960 -0.0255
    1SOL    HW2 1138   1.277   4.011   0.593  0.7019  0.4463 -0.2188
    1SOL    HW3 1139   1.337   3.977   0.459 -0.1946  0.4853 -0.6337
    1SOL    MW4 1140   1.271   4.006   0.507 -0.1276 -0.1688 -0.1312
    1SOL     OW 1141   0.888   2.265   0.517  0.0873 -0.1520  0.3068
    1SOL    HW2 1142   0.811   2.212   0.492  0.2491 -0.4489  0.4291
    1SOL    HW3 1143   0.963   2.213   0.487  0.2633 -0.2261  0.8738
    1SOL    MW4 1144   0.888   2.251   0.510  0.1318 -0.2007  0.3977
    1SOL     OW 1145   2.532   0.020   0.398 -0.2479  0.4501 -0.0221
    1SOL    HW2 1146   2.623   0.032   0.427 -0.3101  0.9405 -0.0285
    1SOL    HW3 1147   2.535   0.038   0.304 -0.1573 -0.5648 -0.2169
    1SOL    MW4 1148   2.545   0.024   0.390 -0.2441  0.3810 -0.0486
    1SOL     OW 1149   0.905   2.980   0.317 -0.2699  0.0429 -0.0801
    1SOL    HW2 1150   0.909   3.070   0.347 -0.7708  0.0024  0.1063
    1SOL    HW3 1151   0.852   2.983   0.238  1.3007  0.1960 -1.1472
    1SOL    MW4 1152   0.899   2.992   0.311 -0.1288  0.0579 -0.1963
    1SOL     OW 1153   0.205   2.071   0.494  0.6663  0.7511  0.4695
    1SOL    HW2 1154   0.206   2.087   0.588 -0.7169  0.5088  0.5337
    1SOL    HW3 1155   0.275   2.006   0.480  0.5680  0.4364  1.3940
    1SOL    MW4 1156   0.214   2.064   0.505  0.4708  0.6776  0.5999
    1SOL     OW 1157   3.326   3.887   0.835  0.4110 -0.0677  0.1442
    1SOL    HW2 1158   3.338   3.798   0.801 -3.3528 -0.1465 -1.1642
    1SOL    HW3 1159   3.318   3.875   0.930  2.1424 -0.8124  0.2302
    1SOL    MW4 1160   3.327   3.874   0.843  0.1426 -0.1764 -0.0171
    1SOL     OW 1161   3.540   2.480   0.718  0.1598  0.3586 -0.1419
    1SOL    HW2 1162   3.546   2.555   0.778 -0.2943  2.1691 -2.2942
    1SOL    HW3 1163   3.472   2.425   0.757  0.4247  1.0986  1.4247
    1SOL    MW4 1164   3.532   2.483   0.731  0.1349  0.6950 -0.2192
    1SOL     OW 1165   0.026   3.470   0.844  0.3646 -0.1212  0.4141
    1SOL    HW2 1166   0.111   3.511   0.825  0.0546 -0.0456 -0.8653
    1SOL    HW3 1167  -0.038   3.537   0.820 -0.0650 -0.2559  1.1783
    1SOL    MW4 1168   0.029   3.485   0.838  0.2671 -0.1292  0.3462
    1SOL     OW 1169   0.679   3.659   0.817  1.1284  0.5001  0.1714
    1SOL    HW2 1170   0.612   3.594   0.840  1.5522 -0.0056 -0.0034
    1SOL    HW3 1171   0.675   3.665   0.722  1.5385  0.2390  0.1354
    1SOL    MW4 1172   0.670   3.651   0.808  1.2383  0.3986  0.1436
    1SOL     OW 1173   1.868   4.012   0.522 -0.0388  0.0781 -0.3354
    1SOL    HW2 1174   1.836   4.023   0.612 -0.9771 -1.7020 -0.4340
    1SOL    HW3 1175   1.836   4.090   0.476 -0.9364  0.2085  0.4859
    1SOL    MW4 1176   1.860   4.024   0.528 -0.2810 -0.1397 -0.2400
    1SOL     OW 1177   0.178   4.463   0.499 -0.2459  0.4152  0.1966
    1SOL    HW2 1178   0.085   4.476   0.484  0.1361  1.4625 -1.5502
    1SOL    HW3 1179   0.187   4.447   0.593 -1.9939  2.0722  0.6670
    1SOL    MW4 1180   0.167   4.463   0.509 -0.4261  0.7720  0.0282
    1SOL     OW 1181   0.435   4.287   0.872 -0.1395 -0.2220 -0.2452
    1SOL    HW2 1182   0.418   4.295   0.966  0.8446  0.9266 -0.1537
    1SOL    HW3 1183   0.356   4.324   0.831  0.2431  1.0914  0.1563
    1SOL    MW4 1184   0.422   4.293   0.879  0.0409  0.1030 -0.1802
    1SOL     OW 1185   0.661   4.358   0.716  0.7186 -0.1883 -0.2408
    1SOL    HW2 1186   0.733   4.347   0.779  0.8560  0.5984 -0.2577
    1SOL    HW3 1187   0.582   4.341   0.766  0.7603  1.4904  0.4189
    1SOL    MW4 1188   0.660   4.354   0.731  0.7423  0.1369 -0.1559
    1SOL     OW 1189   2.536   1.112   0.210  0.1155  0.3715 -0.0176
    1SOL    HW2 1190   2.474   1.182   0.190 -1.0793 -0.3333  1.1197
    1SOL    HW3 1191   2.492   1.032   0.179 -0.1581 -0.2928  2.0410
    1SOL    MW4 1192   2.522   1.110   0.203 -0.0780  0.1909  0.4040
    1SOL     OW 1193   1.762   1.112   0.897  0.0546 -0.1191  0.1906
    1SOL    HW2 1194   1.691   1.162   0.857 -0.4382 -1.1301 -0.2078
    1SOL    HW3 1195   1.841   1.159   0.870 -0.2819 -0.6267 -1.7738
    1SOL    MW4 1196   1.763   1.125   0.888 -0.0548 -0.3194 -0.1212
    1SOL     OW 1197   1.685   0.478   0.538 -0.0385  0.3188  0.0039
    1SOL    HW2 1198   1.687   0.546   0.471 -0.1016 -1.2843 -1.6564
    1SOL    HW3 1199   1.773   0.440   0.537 -0.6566 -1.1485 -0.7152
    1SOL    MW4 1200   1.697   0.482   0.529 -0.1284 -0.0863 -0.3101
    1SOL     OW 1201   1.150   0.758   0.844  0.4468  0.5627 -0.4888
    1SOL    HW2 1202   1.160   0.752   0.939 -1.3492  1.1192 -0.2491
    1SOL    HW3 1203   1.135   0.668   0.816  1.4261  0.3348 -0.3127
    1SOL    MW4 1204   1.150   0.746   0.853  0.3390  0.6061 -0.4340
    1SOL     OW 1205   3.823   0.435   0.735  0.3655  0.2735  0.4952
    1SOL    HW2 1206   3.807   0.466   0.646  0.4771  1.2165  0.7969
    1SOL    HW3 1207   3.840   0.515   0.785  2.1839 -0.4088  0.9789
    1SOL    MW4 1208   3.823   0.450   0.730  0.6201  0.3079  0.5988
    1SOL     OW 1209   2.063   1.411   0.209 -0.1478  0.6302 -0.6001
    1SOL    HW2 1210   2.035   1.500   0.233 -1.1958  0.4127 -1.0092
    1SOL    HW3 1211   1.984   1.369   0.175  0.2470 -0.6060 -0.0191
    1SOL    MW4 1212   2.049   1.417   0.207 -0.2341  0.4383 -0.5774
    1SOL     OW 1213   1.043   1.269   0.476 -0.3050  0.0286 -0.7872
    1SOL    HW2 1214   0.949   1.271   0.459 -0.5761 -2.5906  0.1538
    1SOL    HW3 1215   1.065   1.176   0.477  1.9137  0.5164  1.0860
    1SOL    MW4 1216   1.034   1.257   0.474 -0.0480 -0.2525 -0.4159
    1SOL     OW 1217   0.664   0.790   0.858  0.3676 -0.5573 -0.1309
    1SOL    HW2 1218   0.747   0.823   0.823  0.3787 -1.1343 -0.6652
    1SOL    HW3 1219   0.658   0.701   0.824 -0.3447 -0.6104  0.1311
    1SOL    MW4 1220   0.675   0.783   0.849  0.2751 -0.6404 -0.1668
    1SOL     OW 1221   0.676   1.542   0.842 -0.6105 -0.6082 -0.4155
    1SOL    HW2 1222   0.766   1.567   0.821 -0.8032 -0.2374 -0.8089
    1SOL    HW3 1223   0.670   1.550   0.937 -0.1419 -0.9137 -0.3630
    1SOL    MW4 1224   0.687   1.546   0.852 -0.5741 -0.5995 -0.4605
    1SOL     OW 1225   3.803   2.065   0.757  0.0464 -0.3690 -0.7746
    1SOL    HW2 1226   3.801   2.073   0.661  0.4309 -0.6695 -0.8111
    1SOL    HW3 1227   3.883   2.017   0.775  0.6930  0.9068 -0.2036
    1SOL    MW4 1228   3.813   2.059   0.747  0.1826 -0.2403 -0.7041
    1SOL     OW 1229   1.324   2.450   0.537 -0.0005 -0.2652 -0.1180
    1SOL    HW2 1230   1.320   2.370   0.484  0.3630  0.4017 -1.1642
    1SOL    HW3 1231   1.238   2.490   0.527  0.4782  0.5021 -1.2250
    1SOL    MW4 1232   1.312   2.445   0.529  0.1105 -0.0761 -0.4020
    1SOL     OW 1233   2.898   0.477   0.731 -0.1726  0.0017 -0.4623
    1SOL    HW2 1234   2.891   0.547   0.796  1.9784  1.6680 -1.9245
    1SOL    HW3 1235   2.976   0.428   0.757 -0.5677 -0.6676 -0.5353
    1SOL    MW4 1236   2.908   0.480   0.743  0.0591  0.1332 -0.6649
    1SOL     OW 1237   3.107   3.800   0.416  0.2746 -0.2090 -0.1819
    1SOL    HW2 1238   3.195   3.771   0.439  0.3241  0.6813  0.7947
    1SOL    HW3 1239   3.058   3.719   0.403  0.4800 -0.7853  2.2524
    1SOL    MW4 1240   3.112   3.785   0.417  0.3083 -0.1676  0.2681
    1SOL     OW 1241   0.208   4.409   0.777 -0.2633  0.3950 -0.5080
    1SOL    HW2 1242   0.182   4.494   0.812  0.5487  0.0168  1.0395
    1SOL    HW3 1243   0.141   4.349   0.809 -0.6833  0.3884 -1.3738
    1SOL    MW4 1244   0.196   4.412   0.786 -0.2116  0.3443 -0.4181
    1SOL     OW 1245   1.410   1.537   0.477  0.1129  0.4549  0.4525
    1SOL    HW2 1246   1.451   1.453   0.497  0.4384  0.6691  0.6883
    1SOL    HW3 1247   1.333   1.514   0.425  0.3417  0.0305  0.3000
    1SOL    MW4 1248   1.405   1.523   0.473  0.1861  0.4271  0.4635
    1SOL     OW 1249   0.862   0.222   0.475  0.0329  0.1056 -0.4331
    1SOL    HW2 1250   0.943   0.271   0.462  0.0582  0.1376 -0.1731
    1SOL    HW3 1251   0.792   0.285   0.460  0.0279 -0.2862 -2.0985
    1SOL    MW4 1252   0.864   0.237   0.472  0.0356  0.0581 -0.6185
    1SOL     OW 1253   4.253   2.346   0.365  0.1236  0.3109  0.1299
    1SOL    HW2 1254   4.246   2.337   0.269 -1.0506 -0.4240  0.2757
    1SOL    HW3 1255   4.228   2.259   0.398  1.2913  0.3270  1.0752
    1SOL    MW4 1256   4.249   2.333   0.356  0.1230  0.2160  0.2739
    1SOL     OW 1257   1.341   2.962   0.485  0.0936 -0.2998  0.4703
    1SOL    HW2 1258   1.419   2.909   0.471  0.0494 -0.1740 -0.2742
    1SOL    HW3 1259   1.335   3.017   0.407 -1.5217 -1.3166 -0.1611
    1SOL    MW4 1260   1.350   2.962   0.473 -0.1254 -0.4175  0.2888
    1SOL     OW 1261   2.494   1.187   0.562 -0.0963 -0.1567  0.4551
    1SOL    HW2 1262   2.412   1.148   0.531  0.7169 -0.6808 -1.1049
    1SOL    HW3 1263   2.560   1.153   0.501  1.4006 -0.4207  2.2152
    1SOL    MW4 1264   2.492   1.177   0.550  0.2086 -0.2606  0.4815
    1SOL     OW 1265   2.453   4.414   0.475  0.4376 -0.3213  0.1939
    1SOL    HW2 1266   2.523   4.363   0.436  0.4775  0.3099 -0.5618
    1SOL    HW3 1267   2.471   4.504   0.449 -0.4033 -0.0989  0.3678
    1SOL    MW4 1268   2.464   4.419   0.467  0.3319 -0.2079  0.1171
    1SOL     OW 1269   3.367   3.630   0.751 -0.1690  0.2526  0.2465
    1SOL    HW2 1270   3.446   3.585   0.782  0.4024 -0.5344 -2.2350
    1SOL    HW3 1271   3.296   3.570   0.770  0.0012  0.3343  1.1733
    1SOL    MW4 1272   3.368   3.616   0.757 -0.0713  0.1597  0.0414
    1SOL     OW 1273   4.202   1.521   0.416 -0.5506 -0.1322  0.1282
    1SOL    HW2 1274   4.221   1.533   0.323 -0.6884 -0.1572  0.0967
    1SOL    HW3 1275   4.123   1.573   0.431  1.4839  2.8303  1.0195
    1SOL    MW4 1276   4.194   1.529   0.406 -0.2999  0.2553  0.2417
    1SOL     OW 1277   1.103   4.368   0.709  0.2867 -0.3656  0.3545
    1SOL    HW2 1278   1.072   4.389   0.621 -1.1797 -0.0049  0.9432
    1SOL    HW3 1279   1.111   4.452   0.753 -1.2803 -0.7064  1.3060
    1SOL    MW4 1280   1.100   4.382   0.703 -0.1135 -0.3638  0.5577
    1SOL     OW 1281   1.826   2.443   0.700 -0.1245 -0.0520 -0.0560
    1SOL    HW2 1282   1.822   2.532   0.733 -1.0487  0.2675 -0.9771
    1SOL    HW3 1283   1.753   2.399   0.743 -0.6539  0.0731 -0.8112
    1SOL    MW4 1284   1.816   2.449   0.710 -0.3163  0.0069 -0.2772
    1SOL     OW 1285   1.590   4.662   0.877  0.0922  0.9350  0.3089
    1SOL    HW2 1286   1.584   4.661   0.973  1.6388  1.4033  0.4175
    1SOL    HW3 1287   1.597   4.569   0.853 -1.1926  0.7556  0.5719
    1SOL    MW4 1288   1.590   4.650   0.887  0.1268  0.9727  0.3579
    1SOL     OW 1289   1.113   4.618   0.830 -0.2573 -0.1037  0.3527
    1SOL    HW2 1290   1.192   4.668   0.809 -0.9940  0.2627 -1.5949
    1SOL    HW3 1291   1.042   4.665   0.787 -1.1107 -2.2108 -0.6054
    1SOL    MW4 1292   1.114   4.631   0.822 -0.4671 -0.3333 -0.0307
    1SOL     OW 1293   1.318   0.351   0.838  0.0189 -0.2386  0.4041
    1SOL    HW2 1294   1.335   0.354   0.932 -0.9945  1.3081  0.5663
    1SOL    HW3 1295   1.387   0.407   0.800 -0.3430  0.1818  0.3609
    1SOL    MW4 1296   1.330   0.359   0.846 -0.1626  0.0209  0.4199
    1SOL     OW 1297   1.527   0.507   0.762  0.5216  0.2232 -0.3493
    1SOL    HW2 1298   1.573   0.514   0.679 -0.1976  0.5409 -0.7238
    1SOL    HW3 1299   1.545   0.591   0.806  1.2239 -0.1013 -0.0169
    1SOL    MW4 1300   1.535   0.519   0.757  0.5193  0.2223 -0.3549
    1SOL     OW 1301   2.902   1.759   0.339  0.0224 -0.1923 -0.1397
    1SOL    HW2 1302   2.846   1.756   0.261 -0.3235  1.2628  0.0424
    1SOL    HW3 1303   2.909   1.852   0.360  1.8015 -0.4309  0.3618
    1SOL    MW4 1304   2.896   1.771   0.331  0.2115 -0.0317 -0.0496
    1SOL     OW 1305   0.896   0.877   0.740  0.0173  0.6067  0.1264
    1SOL    HW2 1306   0.932   0.891   0.652 -0.3509  0.2877 -0.0800
    1SOL    HW3 1307   0.968   0.836   0.789  0.6463  1.9641  0.3516
    1SOL    MW4 1308   0.911   0.873   0.735  0.0517  0.7437  0.1289
    1SOL     OW 1309   1.318   1.135   0.841 -0.3174 -0.2787 -0.4153
    1SOL    HW2 1310   1.314   1.169   0.931  1.1743 -0.8304 -0.1233
    1SOL    HW3 1311   1.248   1.181   0.795 -0.2722  0.9714  0.7199
    1SOL    MW4 1312   1.308   1.146   0.847 -0.1146 -0.1864 -0.2270
    1SOL     OW 1313   3.378   2.064   0.751  0.0817 -0.2963 -0.2595
    1SOL    HW2 1314   3.384   2.068   0.655  0.1888  0.5739 -0.2210
    1SOL    HW3 1315   3.449   2.006   0.777  0.4686 -0.0135 -0.6674
    1SOL    MW4 1316   3.388   2.057   0.742  0.1466 -0.1445 -0.3082
    1SOL     OW 1317   0.246   3.592   0.460  0.1009 -0.4782  0.2577
    1SOL    HW2 1318   0.306   3.663   0.437  0.5404 -0.0421  2.6234
    1SOL    HW3 1319   0.232   3.602   0.554 -0.1234 -3.3210  0.5571
    1SOL    MW4 1320   0.252   3.603   0.469  0.1293 -0.7956  0.6093
    1SOL     OW 1321   3.632   1.304   0.516  0.1944  0.2032  0.5146
    1SOL    HW2 1322   3.630   1.396   0.490 -0.0392  0.0533  0.0028
    1SOL    HW3 1323   3.544   1.272   0.498  0.2898 -0.1330  0.6459
    1SOL    MW4 1324   3.620   1.312   0.510  0.1762  0.1391  0.4644
    1SOL     OW 1325   1.818   1.330   0.426 -0.8274  0.2883  0.0328
    1SOL    HW2 1326   1.809   1.340   0.331  1.7625  0.0402 -0.2827
    1SOL    HW3 1327   1.839   1.417   0.458 -1.6677  0.3649  0.3669
    1SOL    MW4 1328   1.820   1.343   0.417 -0.5965  0.2658  0.0353
    1SOL     OW 1329   2.736   2.508   0.224  0.1861  0.5798 -0.3040
    1SOL    HW2 1330   2.804   2.505   0.156  0.8323 -0.9630  0.4052
    1SOL    HW3 1331   2.777   2.555   0.297  0.8739 -1.2744  0.5246
    1SOL    MW4 1332   2.751   2.514   0.224  0.3619  0.1314 -0.1011
    1SOL     OW 1333   3.603   3.884   0.484  0.5621  0.1588  0.3774
    1SOL    HW2 1334   3.660   3.955   0.453 -0.0674  1.3118  1.8046
    1SOL    HW3 1335   3.580   3.909   0.573 -2.1170 -0.3053 -0.1336
    1SOL    MW4 1336   3.607   3.897   0.492  0.1259  0.2499  0.4983
    1SOL     OW 1337   1.126   3.622   0.748  0.5632  0.3242 -0.2790
    1SOL    HW2 1338   1.203   3.566   0.757  0.9294  1.1367  1.8516
    1SOL    HW3 1339   1.054   3.570   0.784  0.2606 -0.0639 -1.4041
    1SOL    MW4 1340   1.127   3.608   0.754  0.5716  0.3803 -0.1463
    1SOL     OW 1341   0.924   2.609   0.821  0.2823 -0.3313  0.2479
    1SOL    HW2 1342   0.924   2.625   0.915 -1.7069 -3.0360  0.7889
    1SOL    HW3 1343   0.853   2.663   0.787 -1.2077 -1.8683  0.8471
    1SOL    MW4 1344   0.915   2.618   0.829 -0.1768 -0.8910  0.3983
    1SOL     OW 1345   1.570   2.811   0.725  0.1116  0.1187  0.5173
    1SOL    HW2 1346   1.574   2.902   0.754 -1.7339  0.3551  0.0746
    1SOL    HW3 1347   1.488   2.778   0.761  0.2922 -1.0898 -0.1599
    1SOL    MW4 1348   1.560   2.818   0.734 -0.1081 -0.0093  0.3695
    1SOL     OW 1349   3.498   4.303   0.446  0.8102 -0.0337 -0.6411
    1SOL    HW2 1350   3.467   4.318   0.536 -0.3165 -0.9934 -0.8612
    1SOL    HW3 1351   3.447   4.365   0.394  2.2270  1.2847 -0.5116
    1SOL    MW4 1352   3.487   4.313   0.451  0.8483  0.0134 -0.6531
    1SOL     OW 1353   4.149   4.036   0.523  0.3829 -0.1691 -0.0368
    1SOL    HW2 1354   4.109   3.962   0.477 -0.9441 -0.2852  1.2439
    1SOL    HW3 1355   4.243   4.025   0.509  0.1858 -1.9524 -0.1240
    1SOL    MW4 1356   4.156   4.025   0.515  0.1817 -0.4196  0.1207
    1SOL     OW 1357   1.106   3.903   0.848 -0.1694 -0.0301  0.1489
    1SOL    HW2 1358   1.086   3.817   0.812 -0.0896 -0.1392  0.3687
    1SOL    HW3 1359   1.127   3.887   0.940  1.4502  0.0128 -0.2046
    1SOL    MW4 1360   1.106   3.890   0.855  0.0546 -0.0389  0.1312
    1SOL     OW 1361   4.050   4.303   0.842 -0.1778  0.4932 -0.3816
    1SOL    HW2 1362   3.970   4.343   0.808  0.5267  0.7283 -1.8184
    1SOL    HW3 1363   4.120   4.351   0.798  0.7477  0.3131  0.8880
    1SOL    MW4 1364   4.049   4.315   0.832  0.0372  0.5007 -0.4037
    1SOL     OW 1365   2.220   3.249   0.752 -0.1211  0.5659  0.2871
    1SOL    HW2 1366   2.135   3.215   0.779  0.4231  1.2686  3.0138
    1SOL    HW3 1367   2.283   3.183   0.782  0.4067  0.7138 -0.4772
    1SOL    MW4 1368   2.217   3.236   0.759  0.0205  0.6781  0.5460
    1SOL     OW 1369   2.245   1.624   0.752 -0.3518  0.1305 -0.0708
    1SOL    HW2 1370   2.332   1.593   0.776 -0.8845 -1.0375  0.3814
    1SOL    HW3 1371   2.236   1.709   0.795 -0.1026 -0.5279  1.2897
    1SOL    MW4 1372   2.255   1.631   0.761 -0.3891 -0.1104  0.1684
    1SOL     OW 1373   2.042   4.435   0.698  0.0480 -0.5445 -0.0104
    1SOL    HW2 1374   2.090   4.376   0.639  0.6762 -0.6950  0.6459
    1SOL    HW3 1375   1.975   4.379   0.738  0.2829 -0.6846  0.1898
    1SOL    MW4 1376   2.040   4.420   0.695  0.1619 -0.5822  0.1026
    1SOL     OW 1377   2.138   4.034   0.465  0.4177 -0.0534  0.1945
    1SOL    HW2 1378   2.042   4.031   0.467  0.3827  1.6213  1.9411
    1SOL    HW3 1379   2.164   3.947   0.433 -1.6462 -0.9941  0.9947
    1SOL    MW4 1380   2.129   4.022   0.461  0.1411  0.0434  0.5305
    1SOL     OW 1381   2.494   4.627   0.855 -0.3156  0.1528 -0.0584
    1SOL    HW2 1382   2.500   4.620   0.951  0.9185  0.5739 -0.0929
    1SOL    HW3 1383   2.475   4.539   0.825  1.5544 -0.4384  0.4296
    1SOL    MW4 1384   2.492   4.615   0.864  0.0939  0.1307  0.0014
    1SOL     OW 1385   2.110   3.547   0.483 -0.0777 -0.2529  0.0961
    1SOL    HW2 1386   2.184   3.487   0.480 -1.2689 -1.8034  0.5950
    1SOL    HW3 1387   2.087   3.552   0.576 -0.0558  0.8978  0.0426
    1SOL    MW4 1388   2.117   3.540   0.495 -0.2320 -0.3054  0.1549
    1SOL     OW 1389   1.744   0.404   0.877  0.2794  0.6497 -0.2202
    1SOL    HW2 1390   1.667   0.440   0.832  0.5078  0.5150 -0.7221
    1SOL    HW3 1391   1.767   0.326   0.826  0.0531  0.0342  0.6001
    1SOL    MW4 1392   1.737   0.398   0.865  0.2797  0.5507 -0.1782
    1SOL     OW 1393   2.838   4.007   0.468 -0.2967  0.2991  0.3750
    1SOL    HW2 1394   2.828   3.926   0.418 -2.7992  0.0996  1.0957
    1SOL    HW3 1395   2.798   3.988   0.553 -2.1742  2.6516  0.1051
    1SOL    MW4 1396   2.831   3.994   0.472 -0.8748  0.5832  0.4345
    1SOL     OW 1397   3.332   4.034   0.428  0.0894 -0.4689 -0.0351
    1SOL    HW2 1398   3.402   3.971   0.408  2.2663  1.1820  2.0621
    1SOL    HW3 1399   3.377   4.118   0.437 -2.1300  0.5952  1.5422
    1SOL    MW4 1400   3.347   4.036   0.427  0.0839 -0.1111  0.4497
    1SOL     OW 1401   1.550   3.093   0.779 -0.1594 -0.0412 -0.0335
    1SOL    HW2 1402   1.544   3.099   0.874 -0.2712 -1.1944  0.0437
    1SOL    HW3 1403   1.469   3.133   0.747  1.2335  3.0817  0.2213
    1SOL    MW4 1404   1.538   3.099   0.787  0.0098  0.2186  0.0103
    1SOL     OW 1405   3.371   3.699   0.466  0.4943  0.1366 -0.7693
    1SOL    HW2 1406   3.372   3.679   0.560 -1.2365  2.1596 -0.3008
    1SOL    HW3 1407   3.440   3.765   0.455  1.0213 -0.4500 -1.0109
    1SOL    MW4 1408   3.381   3.705   0.477  0.3355  0.3262 -0.7394
    1SOL     OW 1409   1.620   3.225   0.422 -0.1458  0.2667  0.2562
    1SOL    HW2 1410   1.613   3.318   0.403 -0.1379  0.3384  0.6056
    1SOL    HW3 1411   1.531   3.191   0.413 -0.4759  0.6552  1.9492
    1SOL    MW4 1412   1.608   3.233   0.418 -0.1885  0.3276  0.5257
    1SOL     OW 1413   2.473   1.485   0.865  0.2136  0.2576 -0.2577
    1SOL    HW2 1414   2.478   1.393   0.839 -0.5660  0.6044 -1.6762
    1SOL    HW3 1415   2.551   1.525   0.825  1.4633 -0.0871  1.7385
    1SOL    MW4 1416   2.484   1.478   0.856  0.2756  0.2578 -0.1815
    1SOL     OW 1417   3.984   4.052   0.767  0.4775 -0.3595  0.0736
    1SOL    HW2 1418   4.027   4.032   0.684  1.3789  0.5410  0.3190
    1SOL    HW3 1419   4.010   4.142   0.787 -1.1770  0.0684  0.4362
    1SOL    MW4 1420   3.993   4.061   0.759  0.3781 -0.1845  0.1538
    1SOL     OW 1421   1.531   2.555   0.354 -0.0091  0.7598  0.5281
    1SOL    HW2 1422   1.463   2.525   0.414 -0.7118  0.1957 -0.5200
    1SOL    HW3 1423   1.510   2.511   0.271  0.0201  2.7275 -0.5508
    1SOL    MW4 1424   1.519   2.545   0.351 -0.0980  0.9451  0.2474
    1SOL     OW 1425   3.670   1.570   0.446  0.3483 -0.2131 -0.8028
    1SOL    HW2 1426   3.632   1.645   0.401 -0.3355 -0.0917 -0.0334
    1SOL    HW3 1427   3.765   1.579   0.433  0.3491  1.3793  0.2303
    1SOL    MW4 1428   3.678   1.581   0.438  0.2582  0.0131 -0.5650
    1SOL     OW 1429   1.594   2.138   0.460 -0.0909 -0.1378 -0.1546
    1SOL    HW2 1430   1.646   2.217   0.444  2.0089 -1.0921  1.6455
    1SOL    HW3 1431   1.629   2.073   0.399 -0.4816 -0.2401 -0.2700
    1SOL    MW4 1432   1.605   2.140   0.450  0.1346 -0.2773  0.0677
    1SOL     OW 1433   3.648   1.078   0.855 -0.1049  0.4371  0.3530
    1SOL    HW2 1434   3.643   0.985   0.831  1.1305  0.4708 -0.0680
    1SOL    HW3 1435   3.617   1.081   0.946  0.9027 -0.5445  0.7372
    1SOL    MW4 1436   3.643   1.066   0.864  0.1910  0.3120  0.3481
    1SOL     OW 1437   1.034   4.158   0.382 -0.2105 -0.3789  0.2013
    1SOL    HW2 1438   0.950   4.138   0.424 -0.0559  0.6816  1.0630
    1SOL    HW3 1439   1.098   4.109   0.434 -0.1422  0.0043  0.4806
    1SOL    MW4 1440   1.031   4.149   0.395 -0.1811 -0.1884  0.3518
    1SOL     OW 1441   1.135   2.061   0.697 -0.5539 -0.1579  0.0341
    1SOL    HW2 1442   1.058   2.006   0.713 -0.4633 -0.2409  0.1796
    1SOL    HW3 1443   1.203   2.026   0.755 -0.4430 -0.0048 -0.0021
    1SOL    MW4 1444   1.134   2.049   0.707 -0.5274 -0.1485  0.0485
    1SOL     OW 1445   3.414   0.444   0.468 -0.1519  0.6971  0.3269
    1SOL    HW2 1446   3.451   0.356   0.463 -0.9681  0.2932  1.1611
    1SOL    HW3 1447   3.335   0.439   0.414  0.4456  1.2535 -0.5952
    1SOL    MW4 1448   3.408   0.432   0.460 -0.1807  0.7173  0.3153
    1SOL     OW 1449   2.676   2.990   0.355 -0.0371  0.2885 -0.1320
    1SOL    HW2 1450   2.598   2.944   0.388  0.0154  0.4005  0.1503
    1SOL    HW3 1451   2.675   3.074   0.400  0.7439 -0.0652  0.5609
    1SOL    MW4 1452   2.666   2.995   0.365  0.0727  0.2568 -0.0033
    1SOL     OW 1453   1.767   3.519   0.797  0.7505  0.3431  0.2569
    1SOL    HW2 1454   1.791   3.520   0.889  1.0588  1.0270  0.1736
    1SOL    HW3 1455   1.773   3.427   0.771  1.6478  0.2856  0.6613
    1SOL    MW4 1456   1.771   3.507   0.805  0.9096  0.4256  0.2992
    1SOL     OW 1457   0.187   2.928   0.477  0.5006  0.1735 -0.2481
    1SOL    HW2 1458   0.187   2.884   0.562  1.2642 -0.5252 -0.6139
    1SOL    HW3 1459   0.276   2.918   0.444 -0.1447 -0.7182 -1.7386
    1SOL    MW4 1460   0.199   2.921   0.484  0.5162 -0.0365 -0.4930
    1SOL     OW 1461   1.830   1.284   0.126  0.4611  0.2700 -0.3728
    1SOL    HW2 1462   1.787   1.208   0.163  0.6425 -0.5522 -1.8357
    1SOL    HW3 1463   1.759   1.336   0.087  0.3489  0.8280  0.5423
    1SOL    MW4 1464   1.815   1.281   0.126  0.4702  0.2351 -0.4451
    1SOL     OW 1465   0.854   0.359   0.847 -0.3130 -0.6016 -0.0817
    1SOL    HW2 1466   0.882   0.280   0.802 -0.4712 -1.2902  1.0154
    1SOL    HW3 1467   0.881   0.346   0.938  0.8126  1.1564 -0.1359
    1SOL    MW4 1468   0.861   0.347   0.853 -0.1854 -0.4605  0.0559
    1SOL     OW 1469   4.317   3.699   0.508 -0.5505  0.2870 -0.2097
    1SOL    HW2 1470   4.314   3.669   0.599 -0.4566  1.3584  0.1513
    1SOL    HW3 1471   4.385   3.646   0.467  0.3606  0.7375  0.6913
    1SOL    MW4 1472   4.325   3.688   0.514 -0.4177  0.4878 -0.0433
    1SOL     OW 1473   1.722   0.049   0.466 -0.0735  0.1573 -0.0656
    1SOL    HW2 1474   1.713   0.071   0.559  0.8934  0.2348  0.0169
    1SOL    HW3 1475   1.817   0.039   0.453 -0.0588  1.8003 -1.4084
    1SOL    MW4 1476   1.734   0.051   0.477  0.0560  0.3843 -0.2319
    1SOL     OW 1477   0.677   2.093   0.455  0.3524 -0.5597 -0.0267
    1SOL    HW2 1478   0.592   2.049   0.451  0.1521 -0.0834 -1.4544
    1SOL    HW3 1479   0.737   2.033   0.410  0.4295 -0.1642 -0.4565
    1SOL    MW4 1480   0.673   2.079   0.449  0.3361 -0.4444 -0.2717
    1SOL     OW 1481   2.226   0.367   1.140  0.0148  0.5630  0.2836
    1SOL    HW2 1482   2.238   0.399   1.051  0.6269 -3.0308 -0.9930
    1SOL    HW3 1483   2.140   0.399   1.166  0.2075  2.3917 -1.2332
    1SOL    MW4 1484   2.216   0.376   1.132  0.1211  0.3302 -0.0849
    1SOL     OW 1485   4.261   0.459   0.776  0.4156  0.1809 -0.2133
    1SOL    HW2 1486   4.261   0.447   0.681  0.3875 -1.0557 -0.0670
    1SOL    HW3 1487   4.322   0.393   0.809 -0.0951  0.1353  0.6781
    1SOL    MW4 1488   4.269   0.449   0.768  0.3443  0.0117 -0.0764
    1SOL     OW 1489   2.464   0.739   0.414  0.0764 -0.0217  0.5477
    1SOL    HW2 1490   2.550   0.771   0.441 -0.0159  0.5145  0.1888
    1SOL    HW3 1491   2.451   0.775   0.327 -1.3918  1.5519  1.4051
    1SOL    MW4 1492   2.474   0.748   0.406 -0.1295  0.2567  0.6134
    1SOL     OW 1493   2.719   1.110   0.418 -0.1313 -0.6404 -0.1170
    1SOL    HW2 1494   2.671   1.107   0.335 -3.8103  2.0913  1.7218
    1SOL    HW3 1495   2.726   1.019   0.446 -0.9713 -1.3899 -2.2832
    1SOL    MW4 1496   2.714   1.098   0.411 -0.7277 -0.3787 -0.1602
    1SOL     OW 1497   2.478   1.207   0.836  0.5928 -0.5177  0.0295
    1SOL    HW2 1498   2.496   1.196   0.743  0.9174 -1.3533  0.1854
    1SOL    HW3 1499   2.391   1.169   0.849  0.1255  0.5037 -0.1160
    1SOL    MW4 1500   2.469   1.200   0.826  0.5739 -0.4932  0.0309
    1SOL     OW 1501   2.223   1.103   0.878 -0.5588  0.5344  0.0557
    1SOL    HW2 1502   2.227   1.009   0.859  2.2515  0.5277  0.4717
    1SOL    HW3 1503   2.219   1.108   0.974 -0.2421  0.8604  0.0515
    1SOL    MW4 1504   2.223   1.091   0.888 -0.1464  0.5766  0.1100
    1SOL     OW 1505   1.599   1.520   0.868 -0.1792 -0.2059  0.2626
    1SOL    HW2 1506   1.590   1.517   0.963  0.9310  0.7310  0.4063
    1SOL    HW3 1507   1.598   1.428   0.841 -0.1422 -0.4881  1.2059
    1SOL    MW4 1508   1.598   1.508   0.877 -0.0278 -0.1196  0.4060
    1SOL     OW 1509   3.129   0.828   0.780 -0.5998 -0.0529 -0.6484
    1SOL    HW2 1510   3.208   0.794   0.822 -0.3891  1.2993  0.0705
    1SOL    HW3 1511   3.133   0.923   0.795 -1.8582  0.1359 -1.4622
    1SOL    MW4 1512   3.140   0.836   0.787 -0.7381  0.1504 -0.6610
    1SOL     OW 1513   1.268   0.577   0.334 -0.4644 -0.4333  0.0033
    1SOL    HW2 1514   1.209   0.514   0.376  1.1053 -0.8461  1.6675
    1SOL    HW3 1515   1.330   0.522   0.285 -0.2768 -0.0903 -0.1429
    1SOL    MW4 1516   1.269   0.561   0.333 -0.2326 -0.4425  0.2036
    1SOL     OW 1517   2.265   1.870   0.853 -0.0745 -0.0360  0.0550
    1SOL    HW2 1518   2.187   1.919   0.827  0.3376  1.2900  1.2560
    1SOL    HW3 1519   2.337   1.910   0.803  0.1573  0.1529  0.5341
    1SOL    MW4 1520   2.264   1.882   0.843  0.0105  0.1639  0.2767
    1SOL     OW 1521   2.248   3.793   0.379 -0.1939  0.4925  0.5576
    1SOL    HW2 1522   2.207   3.715   0.415  0.5494 -0.1142  0.1053
    1SOL    HW3 1523   2.339   3.788   0.409  0.0804  0.7113 -0.2240
    1SOL    MW4 1524   2.255   3.782   0.388 -0.0598  0.4411  0.3948
    1SOL     OW 1525   3.541   2.771   0.327  0.1748 -0.1484  0.0652
    1SOL    HW2 1526   3.569   2.679   0.331 -0.3467 -0.2831  0.6460
    1SOL    HW3 1527   3.466   2.776   0.387  1.0481  0.9649  1.0882
    1SOL    MW4 1528   3.535   2.759   0.335  0.2213 -0.0193  0.2768
    1SOL     OW 1529   2.402   2.605   0.487  0.2763 -0.0174 -0.4816
    1SOL    HW2 1530   2.315   2.586   0.524  0.8750 -2.2527 -0.1835
    1SOL    HW3 1531   2.406   2.553   0.407  0.3318  2.1694 -1.9590
    1SOL    MW4 1532   2.391   2.596   0.481  0.3624 -0.0238 -0.6371
    1SOL     OW 1533   2.207   2.752   0.794  0.0081  0.2269  0.3902
    1SOL    HW2 1534   2.221   2.739   0.887 -0.0001 -0.6260  0.2742
    1SOL    HW3 1535   2.286   2.796   0.763  1.3887 -2.2868  0.2190
    1SOL    MW4 1536   2.219   2.756   0.802  0.1893 -0.2174  0.3523
    1SOL     OW 1537   1.586   4.149   0.198 -0.3693  0.4115  0.4811
    1SOL    HW2 1538   1.512   4.196   0.237 -1.4507 -1.1697  0.3862
    1SOL    HW3 1539   1.579   4.168   0.104 -1.0808 -0.2803  0.3837
    1SOL    MW4 1540   1.575   4.158   0.190 -0.6058  0.1121  0.4557
    1SOL     OW 1541   1.851   4.274   0.831 -0.0299  0.1247 -0.2872
    1SOL    HW2 1542   1.839   4.285   0.925  1.7256 -1.0247  0.1027
    1SOL    HW3 1543   1.829   4.182   0.815  0.5474  0.0847 -0.8536
    1SOL    MW4 1544   1.846   4.263   0.841  0.2779 -0.0324 -0.3105
    1SOL     OW 1545   2.311   3.331   0.506  0.2521  0.0250 -0.1549
    1SOL    HW2 1546   2.308   3.260   0.443  0.1546  0.6853 -0.9006
    1SOL    HW3 1547   2.281   3.292   0.588  1.8282 -1.2185 -0.1443
    1SOL    MW4 1548   2.306   3.317   0.509  0.4473 -0.0517 -0.2519
    1SOL     OW 1549   2.908   2.888   0.475  0.0706 -0.0573  0.5511
    1SOL    HW2 1550   2.910   2.796   0.449  2.3675 -0.1093  0.8062
    1SOL    HW3 1551   2.834   2.925   0.427 -0.5810 -1.9210  0.0768
    1SOL    MW4 1552   2.898   2.881   0.465  0.2878 -0.3099  0.5222
    1SOL     OW 1553   1.421   3.650   0.218  0.5135  0.1905 -0.4395
    1SOL    HW2 1554   1.448   3.741   0.231  1.2214 -0.1630  0.6716
    1SOL    HW3 1555   1.488   3.598   0.264 -0.8498 -0.7972  0.4923
    1SOL    MW4 1556   1.433   3.655   0.226  0.4271  0.0136 -0.1699
    1SOL     OW 1557   1.760   4.008   0.777 -0.1484 -0.1702 -0.4345
    1SOL    HW2 1558   1.836   3.955   0.802 -0.4391 -0.5802 -0.4112
    1SOL    HW3 1559   1.685   3.950   0.792 -0.7060  1.1710  2.2338
    1SOL    MW4 1560   1.760   3.993   0.783 -0.2602 -0.0474 -0.0793
    1SOL     OW 1561   3.096   3.971   0.701  0.1772  0.4376  0.2533
    1SOL    HW2 1562   3.019   3.926   0.736  0.4395 -0.4583 -0.3196
    1SOL    HW3 1563   3.170   3.931   0.748  0.4556 -0.1193 -0.6447
    1SOL    MW4 1564   3.096   3.960   0.712  0.2484  0.2460  0.0592
    1SOL     OW 1565   2.467   2.437   0.265 -0.1927  0.0859 -0.0244
    1SOL    HW2 1566   2.555   2.474   0.256 -0.1994 -0.2437 -1.5939
    1SOL    HW3 1567   2.482   2.345   0.286 -0.1542  0.1036  0.0261
    1SOL    MW4 1568   2.481   2.430   0.266 -0.1888  0.0451 -0.2248
    1SOL     OW 1569   2.215   0.845   0.520 -0.4748  0.2935 -0.0848
    1SOL    HW2 1570   2.210   0.939   0.507  0.5517  0.6125  1.7405
    1SOL    HW3 1571   2.297   0.820   0.477 -1.4413 -0.0142 -1.8123
    1SOL    MW4 1572   2.225   0.854   0.512 -0.4668  0.2950 -0.0719
    1SOL     OW 1573   2.917   0.717   0.873  0.3370  0.2448 -0.0356
    1SOL    HW2 1574   2.920   0.706   0.968 -0.3966  0.3345  0.0021
    1SOL    HW3 1575   3.002   0.754   0.850  0.7337 -0.3196  0.5178
    1SOL    MW4 1576   2.929   0.720   0.882  0.2925  0.1822  0.0424
    1SOL     OW 1577   2.741   3.251   0.500  0.0756 -0.1375 -0.1364
    1SOL    HW2 1578   2.690   3.325   0.468 -0.2770  0.5047  1.8359
    1SOL    HW3 1579   2.830   3.267   0.469  0.0669  1.2971  0.5592
    1SOL    MW4 1580   2.746   3.263   0.491  0.0279  0.1364  0.2156
    1SOL     OW 1581   2.472   0.703   0.879  0.2710  0.4011  0.4288
    1SOL    HW2 1582   2.549   0.752   0.851  0.2739  1.0054  1.4756
    1SOL    HW3 1583   2.467   0.630   0.818  0.9378  1.0607 -0.4357
    1SOL    MW4 1584   2.481   0.700   0.867  0.3593  0.5679  0.4529
    1SOL     OW 1585   1.371   1.294   0.202  0.1034  0.3499  0.3246
    1SOL    HW2 1586   1.389   1.213   0.249 -1.3089  0.0060  0.2791
    1SOL    HW3 1587   1.458   1.332   0.186  0.7828 -1.3228  0.0060
    1SOL    MW4 1588   1.385   1.289   0.206  0.0068  0.0838  0.2766
    1SOL     OW 1589   3.312   0.858   0.448 -0.1677 -0.5392  0.1236
    1SOL    HW2 1590   3.312   0.953   0.441  0.1795 -0.4490  1.2153
    1SOL    HW3 1591   3.220   0.835   0.461  0.0115 -0.1571  2.1790
    1SOL    MW4 1592   3.300   0.868   0.449 -0.0982 -0.4768  0.5388
    1SOL     OW 1593   1.096   2.844   0.510 -0.2602  0.0087  0.1044
    1SOL    HW2 1594   1.047   2.889   0.440  0.2099  2.5705  1.3493
    1SOL    HW3 1595   1.187   2.870   0.496  0.0573 -0.7634  0.7278
    1SOL    MW4 1596   1.101   2.853   0.499 -0.1563  0.2449  0.3509
    1SOL     OW 1597   3.321   2.817   0.476 -0.0389 -0.3859 -0.3775
    1SOL    HW2 1598   3.342   2.814   0.569 -1.9358 -1.3315  0.0473
    1SOL    HW3 1599   3.271   2.737   0.460  1.1243 -0.7510 -2.4356
    1SOL    MW4 1600   3.317   2.806   0.486 -0.1357 -0.5586 -0.5931
    1SOL     OW 1601   2.694   1.584   0.728  0.0448 -0.6204 -0.3304
    1SOL    HW2 1602   2.711   1.572   0.634  2.0464 -0.3548 -0.0377
    1SOL    HW3 1603   2.714   1.677   0.743 -0.2500 -0.6735  0.3624
    1SOL    MW4 1604   2.699   1.595   0.717  0.2701 -0.5925 -0.2003
    1SOL     OW 1605   3.123   1.642   0.740 -0.3665  0.3531  0.4088
    1SOL    HW2 1606   3.129   1.649   0.644  1.2567 -0.8067  0.3875
    1SOL    HW3 1607   3.136   1.731   0.772  0.3695  0.5575 -0.4273
    1SOL    MW4 1608   3.126   1.654   0.731 -0.0551  0.2270  0.2957
    1SOL     OW 1609   0.129   0.269   0.453  0.1828 -0.1011  0.1566
    1SOL    HW2 1610   0.088   0.355   0.464 -0.0154 -0.1754  0.0035
    1SOL    HW3 1611   0.199   0.283   0.389  0.0875 -0.0707  0.0573
    1SOL    MW4 1612   0.133   0.282   0.446  0.1441 -0.1069  0.1233
    1SOL     OW 1613   1.741   2.383   0.438 -0.0908 -0.2697 -0.0491
    1SOL    HW2 1614   1.762   2.405   0.528  0.3415 -0.2658 -0.1517
    1SOL    HW3 1615   1.667   2.440   0.416 -1.0023 -1.1341  0.7045
    1SOL    MW4 1616   1.734   2.393   0.447 -0.1539 -0.3831  0.0368
    1SOL     OW 1617   2.730   1.107   0.910 -0.0760  0.0731  0.4358
    1SOL    HW2 1618   2.794   1.166   0.870 -0.6499 -0.6751 -1.6338
    1SOL    HW3 1619   2.645   1.145   0.889 -0.4133 -0.8785  0.0262
    1SOL    MW4 1620   2.727   1.120   0.902 -0.1962 -0.1512  0.1088
    1SOL     OW 1621   2.951   2.316   0.795  0.2334 -0.4210  0.0086
    1SOL    HW2 1622   2.968   2.228   0.762 -0.1537 -0.9403  1.2172
    1SOL    HW3 1623   2.918   2.304   0.883 -0.7995  0.8929 -0.1796
    1SOL    MW4 1624   2.949   2.303   0.802  0.0458 -0.3159  0.1432
    1SOL     OW 1625   2.583   2.504   0.675  0.6957 -0.1938 -0.2511
    1SOL    HW2 1626   2.515   2.547   0.623 -0.9205 -0.1509  1.8326
    1SOL    HW3 1627   2.602   2.566   0.745  2.3799 -0.5381 -0.3766
    1SOL    MW4 1628   2.577   2.518   0.677  0.7045 -0.2334  0.0073
    1SOL     OW 1629   2.654   2.727   0.839  0.2354 -0.1036 -0.0605
    1SOL    HW2 1630   2.720   2.792   0.814 -1.0476  1.2253 -0.0552
    1SOL    HW3 1631   2.680   2.701   0.928 -0.3316  1.8705  0.7260
    1SOL    MW4 1632   2.666   2.732   0.848 -0.0086  0.3321  0.0439
    1SOL     OW 1633   1.120   1.300   0.735  0.0906  0.2808 -0.2738
    1SOL    HW2 1634   1.045   1.250   0.766  0.2786  0.6717  0.8616
    1SOL    HW3 1635   1.110   1.303   0.640  0.6331 -2.7776 -0.4670
    1SOL    MW4 1636   1.109   1.294   0.726  0.1870 -0.0710 -0.1495
    1SOL     OW 1637   1.558   1.271   0.525 -0.0985 -0.5213  0.2963
    1SOL    HW2 1638   1.529   1.197   0.472 -0.4820 -0.4822  0.4506
    1SOL    HW3 1639   1.640   1.298   0.485 -0.6288 -0.1894 -0.5661
    1SOL    MW4 1640   1.565   1.264   0.513 -0.2190 -0.4724  0.2029
    1SOL     OW 1641   2.443   3.124   0.861  0.3597 -0.0581  0.1551
    1SOL    HW2 1642   2.523   3.165   0.827  0.0670 -0.0348 -0.5180
    1SOL    HW3 1643   2.462   3.106   0.953  0.2207  2.3119  0.6732
    1SOL    MW4 1644   2.456   3.127   0.869  0.3028  0.2575  0.1346
    1SOL     OW 1645   2.679   3.490   0.835  0.2917  0.3343 -0.4676
    1SOL    HW2 1646   2.764   3.514   0.797  0.1390  0.8712 -0.4754
    1SOL    HW3 1647   2.695   3.489   0.929  0.3647  0.2079 -0.4813
    1SOL    MW4 1648   2.693   3.493   0.842  0.2813  0.3884 -0.4705
    1SOL     OW 1649   2.916   3.617   0.732  0.0024  0.7009  0.0586
    1SOL    HW2 1650   2.987   3.567   0.773 -0.8758 -0.7309 -0.1293
    1SOL    HW3 1651   2.917   3.701   0.777  0.3463 -0.1273  1.6451
    1SOL    MW4 1652   2.926   3.622   0.743 -0.0682  0.4029  0.2431
    1SOL     OW 1653   2.429   2.899   0.450  0.4303  0.4863  0.6424
    1SOL    HW2 1654   2.458   2.889   0.540  1.3091 -0.2094  0.2805
    1SOL    HW3 1655   2.408   2.810   0.421 -1.2845  0.8645  0.6273
    1SOL    MW4 1656   2.430   2.886   0.458  0.3200  0.4447  0.5927
    1SOL     OW 1657   0.351   0.287   0.276 -0.2482 -0.5183 -0.3145
    1SOL    HW2 1658   0.344   0.291   0.180 -1.5429 -0.0914 -0.2118
    1SOL    HW3 1659   0.377   0.375   0.302  1.4534 -0.9938 -0.3689
    1SOL    MW4 1660   0.353   0.299   0.266 -0.1945 -0.5247 -0.3082
    1SOL     OW 1661   2.696   3.993   0.723 -0.0373 -0.4836  0.3286
    1SOL    HW2 1662   2.701   4.084   0.752  0.6766 -0.1683 -0.7667
    1SOL    HW3 1663   2.609   3.964   0.750  0.2140  0.1233  1.8336
    1SOL    MW4 1664   2.685   4.001   0.730  0.0899 -0.3619  0.3827
    1SOL     OW 1665   2.928   1.256   0.775 -0.3698 -0.6005 -0.2129
    1SOL    HW2 1666   2.927   1.346   0.808 -0.1409 -0.2789 -1.0489
    1SOL    HW3 1667   3.008   1.218   0.811 -1.7835 -1.3008  2.2626
    1SOL    MW4 1668   2.939   1.263   0.784 -0.5260 -0.6505  0.0033
    1SOL     OW 1669   1.990   0.502   0.822 -0.0068  0.0665 -0.5321
    1SOL    HW2 1670   1.902   0.476   0.845  0.3365 -0.2881  0.3798
    1SOL    HW3 1671   2.000   0.590   0.859  0.8670 -0.8774  1.5096
    1SOL    MW4 1672   1.980   0.511   0.830  0.1537 -0.1048 -0.1425
    1SOL     OW 1673   2.500   0.440   0.460 -0.0679 -0.2090  0.0320
    1SOL    HW2 1674   2.467   0.521   0.421  0.1687 -0.2979 -0.3539
    1SOL    HW3 1675   2.504   0.459   0.554 -0.4919  0.0561  0.0021
    1SOL    MW4 1676   2.496   0.453   0.467 -0.0923 -0.1858 -0.0229
    1SOL     OW 1677   1.088   2.092   0.424  0.2424  0.4742 -0.0728
    1SOL    HW2 1678   1.171   2.120   0.385  0.5630 -0.2272  0.1043
    1SOL    HW3 1679   1.112   2.064   0.512 -0.4231  1.7087  0.5153
    1SOL    MW4 1680   1.102   2.092   0.430  0.1969  0.5443  0.0282
    1SOL     OW 1681   3.122   0.343   0.841 -0.3580  0.5008  0.3207
    1SOL    HW2 1682   3.135   0.333   0.935 -0.2533 -2.8666  0.0209
    1SOL    HW3 1683   3.204   0.381   0.809  0.1512  0.3132  1.3797
    1SOL    MW4 1684   3.134   0.347   0.849 -0.2770  0.0317  0.4208
    1SOL     OW 1685   2.513   2.193   0.365 -0.1788 -0.0103 -0.1593
    1SOL    HW2 1686   2.604   2.219   0.379 -0.5595  0.8912  0.6836
    1SOL    HW3 1687   2.514   2.097   0.367  0.5555  0.0140  1.1078
    1SOL    MW4 1688   2.525   2.184   0.367 -0.1323  0.1121  0.1191
    1SOL     OW 1689   2.496   0.479   0.737  0.1020  0.3706  0.0838
    1SOL    HW2 1690   2.412   0.452   0.773  0.2849 -0.2178  0.0674
    1SOL    HW3 1691   2.561   0.430   0.786  0.4031  0.3241 -0.3530
    1SOL    MW4 1692   2.494   0.469   0.748  0.1659  0.2869  0.0240
    1SOL     OW 1693   3.819   4.395   0.724  0.3916  0.3286 -0.1883
    1SOL    HW2 1694   3.747   4.340   0.755  1.3828 -1.0583 -0.3068
    1SOL    HW3 1695   3.860   4.343   0.655  2.6400  0.3185  1.1240
    1SOL    MW4 1696   3.815   4.381   0.719  0.8190  0.1450 -0.0308
    1SOL     OW 1697   3.380   1.534   0.796 -0.2151  0.5172  0.1311
    1SOL    HW2 1698   3.290   1.555   0.770 -0.0678  0.9909  0.0132
    1SOL    HW3 1699   3.381   1.543   0.891  0.0339  1.7241  0.0107
    1SOL    MW4 1700   3.368   1.538   0.805 -0.1631  0.7387  0.0997
    1SOL     OW 1701   2.235   0.825   0.790 -0.0024  0.2245 -0.5876
    1SOL    HW2 1702   2.226   0.814   0.696 -1.9265 -2.1137 -0.1638
    1SOL    HW3 1703   2.316   0.779   0.812 -1.1123 -1.8677 -0.7230
    1SOL    MW4 1704   2.245   0.817   0.781 -0.4029 -0.3601 -0.5496
    1SOL     OW 1705   3.601   0.806   0.794 -0.2112 -0.3878 -0.0879
    1SOL    HW2 1706   3.571   0.759   0.716 -0.4716  0.2431 -0.3770
    1SOL    HW3 1707   3.668   0.750   0.832 -1.7858 -1.8553  0.5925
    1SOL    MW4 1708   3.606   0.792   0.789 -0.4532 -0.4982 -0.0363
    1SOL     OW 1709   3.381   2.397   0.330  0.0057 -0.2577 -0.4705
    1SOL    HW2 1710   3.393   2.306   0.356 -0.6831 -0.1350  0.2737
    1SOL    HW3 1711   3.460   2.441   0.361 -0.0351 -0.4412 -0.1105
    1SOL    MW4 1712   3.393   2.391   0.337 -0.0908 -0.2656 -0.3249
    1SOL     OW 1713   1.529   3.864   0.843  0.0410 -0.2315  0.1150
    1SOL    HW2 1714   1.457   3.923   0.819  0.3822  0.2874  0.3476
    1SOL    HW3 1715   1.523   3.792   0.780  0.2122  0.5411 -0.7896
    1SOL    MW4 1716   1.519   3.862   0.831  0.1086 -0.0608  0.0263
    1SOL     OW 1717   3.841   0.272   0.466 -0.1636 -0.0908 -0.1845
    1SOL    HW2 1718   3.834   0.366   0.454 -0.5441  0.1634  1.8683
    1SOL    HW3 1719   3.753   0.243   0.489  0.2460 -0.7388  0.5875
    1SOL    MW4 1720   3.829   0.280   0.467 -0.1595 -0.1427  0.1882
    1SOL     OW 1721   3.828   2.729   0.476 -0.0426 -0.0158  0.1594
    1SOL    HW2 1722   3.857   2.814   0.444 -0.2454 -0.4366 -1.2121
    1SOL    HW3 1723   3.905   2.672   0.465  0.1220  0.0135  1.1580
    1SOL    MW4 1724   3.842   2.732   0.470 -0.0474 -0.0672  0.1102
    1SOL     OW 1725   2.887   2.856   0.758 -0.0655 -0.1494 -0.5545
    1SOL    HW2 1726   2.965   2.808   0.787  0.4647 -0.0275 -1.7741
    1SOL    HW3 1727   2.894   2.859   0.663 -0.2632  2.0782 -0.5136
    1SOL    MW4 1728   2.898   2.850   0.750 -0.0219  0.1609 -0.7101
    1SOL     OW 1729   1.835   1.633   0.748  0.1656 -0.6050 -0.2232
    1SOL    HW2 1730   1.759   1.586   0.784 -0.3321  0.9964  0.8531
    1SOL    HW3 1731   1.909   1.594   0.794 -0.2098 -0.6179  0.3909
    1SOL    MW4 1732   1.834   1.621   0.759  0.0504 -0.3955 -0.0002
    1SOL     OW 1733   1.346   3.168   0.305 -0.5744  0.3021 -0.1545
    1SOL    HW2 1734   1.401   3.220   0.247  1.5179 -0.5955  0.9583
    1SOL    HW3 1735   1.266   3.220   0.317  1.1446  2.8922  0.3263
    1SOL    MW4 1736   1.342   3.182   0.299 -0.0714  0.5255  0.0557
    1SOL     OW 1737   3.160   3.180   0.740 -0.0365 -0.3695  0.2393
    1SOL    HW2 1738   3.076   3.159   0.780 -0.8459  0.6709 -0.8904
    1SOL    HW3 1739   3.166   3.120   0.665  1.2530 -1.9727  1.5655
    1SOL    MW4 1740   3.150   3.169   0.735  0.0267 -0.4437  0.2652
    1SOL     OW 1741   3.135   3.454   0.799  0.4538 -0.1522 -0.8507
    1SOL    HW2 1742   3.121   3.368   0.761 -1.4982 -1.0293  1.7518
    1SOL    HW3 1743   3.156   3.437   0.891  0.1550  2.1405 -0.3223
    1SOL    MW4 1744   3.136   3.441   0.806  0.1569  0.0343 -0.4377
    1SOL     OW 1745   3.334   3.387   0.437  0.0876 -0.0142 -0.7152
    1SOL    HW2 1746   3.361   3.478   0.451  0.6507 -0.5017  1.4495
    1SOL    HW3 1747   3.413   3.335   0.449 -0.3687 -0.8663 -1.2958
    1SOL    MW4 1748   3.348   3.392   0.440  0.1016 -0.1910 -0.5061
    1SOL     OW 1749   3.566   3.972   0.745 -0.2830  0.2059  0.0428
    1SOL    HW2 1750   3.484   3.944   0.785  0.1707 -1.6286 -0.2385
    1SOL    HW3 1751   3.633   3.947   0.809  0.2875 -1.1004 -1.0234
    1SOL    MW4 1752   3.564   3.965   0.759 -0.1478 -0.2086 -0.1349
    1SOL     OW 1753   0.085   0.763   0.394  0.3575  0.0706  0.5283
    1SOL    HW2 1754   0.178   0.759   0.415  0.4057  0.4892  0.4037
    1SOL    HW3 1755   0.056   0.847   0.430  0.2588  0.4117 -0.3337
    1SOL    MW4 1756   0.094   0.773   0.401  0.3509  0.1708  0.3981
    1SOL     OW 1757   3.149   4.218   0.804  0.5029 -0.1553  0.1416
    1SOL    HW2 1758   3.070   4.267   0.785  0.9930  0.6206  0.0961
    1SOL    HW3 1759   3.129   4.128   0.777 -0.1094  0.1790 -0.5230
    1SOL    MW4 1760   3.136   4.213   0.798  0.4869 -0.0095  0.0480
    1SOL     OW 1761   2.105   0.812   0.200 -0.6730  0.2046  0.2586
    1SOL    HW2 1762   2.070   0.765   0.276 -1.5568  0.0616 -0.2326
    1SOL    HW3 1763   2.036   0.873   0.175 -0.8870 -0.5854 -1.1629
    1SOL    MW4 1764   2.091   0.814   0.207 -0.8175  0.0815  0.0062
    1SOL     OW 1765   2.037   1.494   0.877 -0.0080 -0.1877 -0.1883
    1SOL    HW2 1766   2.034   1.402   0.848  0.4011 -0.4195  0.4880
    1SOL    HW3 1767   2.101   1.535   0.819  0.7724 -0.6401  0.3293
    1SOL    MW4 1768   2.045   1.487   0.866  0.1490 -0.2779 -0.0308
    1SOL     OW 1769   3.122   0.097   0.734  0.5149  0.2859  0.1275
    1SOL    HW2 1770   3.127   0.181   0.781  0.0841  0.2909  0.1697
    1SOL    HW3 1771   3.201   0.050   0.761  0.0028  0.0786  1.2790
    1SOL    MW4 1772   3.133   0.102   0.744  0.3905  0.2592  0.2850
    1SOL     OW 1773   3.595   0.310   0.832  0.1029 -0.4290 -0.0598
    1SOL    HW2 1774   3.676   0.350   0.802  0.9058 -2.4465 -0.6596
    1SOL    HW3 1775   3.591   0.332   0.925  0.5473  0.9644 -0.3547
    1SOL    MW4 1776   3.605   0.318   0.840  0.2673 -0.5114 -0.1778
    1SOL     OW 1777   0.620   0.508   0.789 -0.6247 -0.2285  0.0605
    1SOL    HW2 1778   0.548   0.448   0.808  0.4725 -1.7887 -0.6161
    1SOL    HW3 1779   0.699   0.457   0.806  0.3378  0.9836 -0.6847
    1SOL    MW4 1780   0.621   0.494   0.794 -0.3529 -0.2744 -0.1270
    1SOL     OW 1781   3.831   0.672   0.873 -0.5592 -0.1601  0.4958
    1SOL    HW2 1782   3.836   0.679   0.968 -0.1588 -0.5958  0.5061
    1SOL    HW3 1783   3.895   0.735   0.840 -0.4633 -0.2482  0.5161
    1SOL    MW4 1784   3.840   0.681   0.881 -0.4938 -0.2292  0.4998
    1SOL     OW 1785   1.613   1.645   0.331  0.0700 -0.9056  0.0693
    1SOL    HW2 1786   1.541   1.640   0.393  0.8553 -0.6181  1.0144
    1SOL    HW3 1787   1.690   1.615   0.380  1.0102  0.8867 -0.2536
    1SOL    MW4 1788   1.614   1.641   0.345  0.2978 -0.6312  0.1513
    1SOL     OW 1789   3.803   1.484   0.863  0.3803 -0.4782 -0.0004
    1SOL    HW2 1790   3.817   1.401   0.819 -1.0540 -0.4460 -0.5443
    1SOL    HW3 1791   3.724   1.519   0.823 -1.1545 -0.5986  2.8387
    1SOL    MW4 1792   3.795   1.478   0.852 -0.0114 -0.4898  0.3025
    1SOL     OW 1793   2.791   2.249   0.367  0.3774 -0.0280 -0.5957
    1SOL    HW2 1794   2.784   2.319   0.302 -1.4356  0.1799 -0.1981
    1SOL    HW3 1795   2.811   2.295   0.449  0.5737 -0.1025 -0.6017
    1SOL    MW4 1796   2.792   2.265   0.369  0.1643 -0.0105 -0.5440
    1SOL     OW 1797   4.278   2.823   0.757 -0.0806 -0.4946 -0.3882
    1SOL    HW2 1798   4.346   2.796   0.819 -0.4056 -0.8578 -0.1836
    1SOL    HW3 1799   4.276   2.918   0.762 -0.8625 -0.5757  0.9779
    1SOL    MW4 1800   4.287   2.832   0.766 -0.2265 -0.5534 -0.1810
    1SOL     OW 1801   1.091   0.496   0.745 -0.2921 -0.0229  0.1117
    1SOL    HW2 1802   1.166   0.451   0.783 -0.1836  0.2861  0.2611
    1SOL    HW3 1803   1.015   0.454   0.786 -0.1928 -0.0999  0.2178
    1SOL    MW4 1804   1.091   0.485   0.755 -0.2646  0.0077  0.1454
    1SOL     OW 1805   3.838   2.362   0.403 -0.0556 -0.1844  0.0934
    1SOL    HW2 1806   3.894   2.434   0.377  0.4172 -0.8944 -0.8754
    1SOL    HW3 1807   3.749   2.396   0.395  0.0948 -0.2080 -1.9503
    1SOL    MW4 1808   3.834   2.376   0.399  0.0265 -0.2813 -0.3040
    1SOL     OW 1809   3.356   2.322   0.843  0.4932 -0.2562 -0.3369
    1SOL    HW2 1810   3.377   2.325   0.936  1.5881  1.2682 -0.5992
    1SOL    HW3 1811   3.368   2.230   0.818  2.0680 -0.3294  0.6296
    1SOL    MW4 1812   3.361   2.310   0.852  0.8452 -0.0648 -0.2440
    1SOL     OW 1813   3.812   2.336   1.118  0.1860 -0.5127  0.1022
    1SOL    HW2 1814   3.890   2.380   1.151  0.3036 -1.1238  0.6583
    1SOL    HW3 1815   3.814   2.351   1.023  1.2767 -1.0010  0.0408
    1SOL    MW4 1816   3.823   2.344   1.110  0.3457 -0.6578  0.1675
    1SOL     OW 1817   1.905   1.997   0.272 -0.0058 -0.1003 -0.3799
    1SOL    HW2 1818   1.921   2.089   0.251 -0.0161 -0.3865 -1.7019
    1SOL    HW3 1819   1.972   1.975   0.337 -0.2174  0.9275  0.2034
    1SOL    MW4 1820   1.916   2.006   0.278 -0.0352 -0.0026 -0.4773
    1SOL     OW 1821   3.585   2.691   0.875 -0.2384  0.0738  0.4250
    1SOL    HW2 1822   3.578   2.698   0.970 -1.6584 -1.7727  0.5129
    1SOL    HW3 1823   3.668   2.732   0.853  0.3770  0.0269  2.5343
    1SOL    MW4 1824   3.595   2.697   0.884 -0.3440 -0.1760  0.7150
    1SOL     OW 1825   1.847   3.560   0.353 -0.0436 -0.0631 -0.1737
    1SOL    HW2 1826   1.931   3.538   0.393 -0.1214 -1.4505 -0.7476
    1SOL    HW3 1827   1.869   3.590   0.265 -0.0740  0.4431 -0.0068
    1SOL    MW4 1828   1.861   3.561   0.347 -0.0579 -0.1795 -0.2275
    1SOL     OW 1829   3.843   3.087   0.855  0.0073 -0.0786  0.4510
    1SOL    HW2 1830   3.772   3.126   0.804 -0.0855 -0.2179  0.4752
    1SOL    HW3 1831   3.848   2.996   0.825  0.6077  0.1054 -0.0233
    1SOL    MW4 1832   3.834   3.080   0.844  0.0741 -0.0727  0.3915
    1SOL     OW 1833   4.173   2.093   0.480 -0.5889 -0.0529  0.4991
    1SOL    HW2 1834   4.257   2.051   0.466 -1.0577 -1.1450  0.9387
    1SOL    HW3 1835   4.164   2.098   0.575 -1.8166 -1.5775  0.4773
    1SOL    MW4 1836   4.183   2.088   0.491 -0.8130 -0.3982  0.5542
    1SOL     OW 1837   3.648   3.239   0.721  0.0684  0.3543 -0.0812
    1SOL    HW2 1838   3.649   3.240   0.626 -0.5789  1.4445 -0.0880
    1SOL    HW3 1839   3.567   3.194   0.745  1.2323 -1.7766 -0.0181
    1SOL    MW4 1840   3.638   3.234   0.712  0.1366  0.2170 -0.0737
    1SOL     OW 1841   4.067   3.789   0.402 -0.0972  0.3033 -0.4425
    1SOL    HW2 1842   4.047   3.729   0.330 -0.2447 -0.8421  0.5389
    1SOL    HW3 1843   4.153   3.760   0.433 -0.3508  0.3460  0.2933
    1SOL    MW4 1844   4.076   3.777   0.396 -0.1497  0.1581 -0.2160
    1SOL     OW 1845   3.807   3.645   0.811 -0.5596 -0.0140  0.4544
    1SOL    HW2 1846   3.884   3.603   0.848 -0.9622 -1.2975 -0.1252
    1SOL    HW3 1847   3.830   3.664   0.721 -0.5740  0.5111  0.5596
    1SOL    MW4 1848   3.820   3.642   0.804 -0.6146 -0.1142  0.3918
    1SOL     OW 1849   0.559   2.378   0.455  0.6683  0.0302  0.5438
    1SOL    HW2 1850   0.467   2.384   0.430  0.3887  0.5209  1.6499
    1SOL    HW3 1851   0.584   2.288   0.434  0.0234 -0.0170 -0.0449
    1SOL    MW4 1852   0.550   2.367   0.449  0.5463  0.0887  0.6121
    1SOL     OW 1853   2.253   3.499   0.859  0.0020  0.0870  0.4976
    1SOL    HW2 1854   2.256   3.406   0.834 -0.0512  0.1913  0.0968
    1SOL    HW3 1855   2.304   3.543   0.791  1.2921  0.1763  1.4956
    1SOL    MW4 1856   2.260   3.492   0.847  0.1655  0.1128  0.5764
    1SOL     OW 1857   1.045   4.429   0.443  0.1539 -0.3811  0.9454
    1SOL    HW2 1858   1.027   4.340   0.414 -0.6220 -0.3177  1.2172
    1SOL    HW3 1859   0.969   4.480   0.414  0.9819  0.3587  0.0561
    1SOL    MW4 1860   1.032   4.424   0.436  0.1607 -0.2751  0.8639
    1SOL     OW 1861   4.350   4.653   0.868  0.0518 -0.7243  0.4640
    1SOL    HW2 1862   4.318   4.638   0.957  0.2426 -1.1852  0.4543
    1SOL    HW3 1863   4.281   4.705   0.826  0.1980 -0.0486  1.0399
    1SOL    MW4 1864   4.337   4.658   0.874  0.0968 -0.6959  0.5387
    1SOL     OW 1865   3.610   0.058   0.719 -0.6476 -0.1653 -0.0705
    1SOL    HW2 1866   3.596   0.128   0.783 -1.1770 -1.0143  0.7659
    1SOL    HW3 1867   3.703   0.037   0.726 -0.6150  0.0410  0.1144
    1SOL    MW4 1868   3.620   0.064   0.729 -0.7131 -0.2501  0.0642
    1SOL     OW 1869   4.213   0.455   0.498 -0.4653 -0.0455  0.3668
    1SOL    HW2 1870   4.182   0.374   0.458  1.7381 -0.5490 -0.4066
    1SOL    HW3 1871   4.143   0.518   0.481 -1.5751 -1.4161 -0.2874
    1SOL    MW4 1872   4.199   0.453   0.491 -0.3209 -0.2928  0.1785
    1SOL     OW 1873   0.022   2.716   0.860  0.0783  0.2328 -0.0639
    1SOL    HW2 1874   0.047   2.690   0.948  0.0912  1.2513  0.2359
    1SOL    HW3 1875   0.104   2.738   0.817 -0.2154  2.9894  0.7326
    1SOL    MW4 1876   0.036   2.715   0.866  0.0412  0.7308  0.0807
    1SOL     OW 1877   4.284   0.730   0.842  0.2413 -0.2058  0.1843
    1SOL    HW2 1878   4.259   0.739   0.934 -1.0305  1.2496 -0.2942
    1SOL    HW3 1879   4.284   0.635   0.827 -0.2338 -0.4234  1.4960
    1SOL    MW4 1880   4.281   0.719   0.852  0.0110 -0.0425  0.2942
    1SOL     OW 1881   4.034   3.570   0.219  0.4111  0.0632  0.3169
    1SOL    HW2 1882   4.099   3.504   0.242 -0.1055 -0.5258  0.0747
    1SOL    HW3 1883   4.005   3.545   0.131 -3.2397 -2.1148  2.0640
    1SOL    MW4 1884   4.039   3.558   0.210 -0.1388 -0.3021  0.5154
    1SOL     OW 1885   1.381   1.640   0.745 -0.0989 -0.7487  0.6433
    1SOL    HW2 1886   1.455   1.589   0.780  0.0223 -1.1843 -0.2169
    1SOL    HW3 1887   1.387   1.627   0.650 -1.1948 -0.6528  0.5634
    1SOL    MW4 1888   1.392   1.631   0.737 -0.2276 -0.7935  0.5193
    1SOL     OW 1889   2.217   4.257   0.872  0.1823 -0.2650 -0.1857
    1SOL    HW2 1890   2.137   4.298   0.840 -0.4535 -2.3009 -1.2839
    1SOL    HW3 1891   2.224   4.176   0.822  2.1616 -0.8144  0.9319
    1SOL    MW4 1892   2.208   4.252   0.861  0.3598 -0.6061 -0.1832
    1SOL     OW 1893   4.251   1.542   0.825 -0.5151  0.4113 -0.4047
    1SOL    HW2 1894   4.272   1.452   0.800 -0.9079  0.2067 -0.0115
    1SOL    HW3 1895   4.275   1.547   0.918  0.0632  0.8893 -0.5701
    1SOL    MW4 1896   4.257   1.531   0.834 -0.4907  0.4474 -0.3746
    1SOL     OW 1897   0.893   1.138   0.824 -0.3878 -0.4485  0.7324
    1SOL    HW2 1898   0.814   1.174   0.783  0.0479 -1.9351 -1.5168
    1SOL    HW3 1899   0.887   1.044   0.809  0.9468 -0.7715  2.1148
    1SOL    MW4 1900   0.882   1.130   0.816 -0.1543 -0.6872  0.6180
    1SOL     OW 1901   0.799   4.601   0.385 -0.2067 -0.1522 -0.1976
    1SOL    HW2 1902   0.815   4.690   0.416  0.7354 -0.2239 -0.4749
    1SOL    HW3 1903   0.706   4.600   0.363 -0.0598  0.9906 -0.8930
    1SOL    MW4 1904   0.789   4.612   0.386 -0.0631 -0.0114 -0.3259
    1SOL     OW 1905   4.047   3.257   0.762 -0.2557 -0.1381 -0.1274
    1SOL    HW2 1906   3.975   3.205   0.797 -1.8661  1.9013 -0.2846
    1SOL    HW3 1907   4.029   3.263   0.668  0.3578 -0.0127 -0.2362
    1SOL    MW4 1908   4.035   3.251   0.755 -0.3867  0.1476 -0.1625
    1SOL     OW 1909   0.236   2.292   1.088 -0.0049  0.0789  0.0121
    1SOL    HW2 1910   0.167   2.332   1.140 -0.2821 -0.6830  0.2463
    1SOL    HW3 1911   0.313   2.348   1.101 -0.6129  1.0054 -0.3662
    1SOL    MW4 1912   0.237   2.304   1.096 -0.1217  0.1001 -0.0069
    1SOL     OW 1913   2.006   3.893   0.833  0.2517  0.1442  0.6026
    1SOL    HW2 1914   2.025   3.897   0.926 -0.7734 -0.0233  0.8230
    1SOL    HW3 1915   2.031   3.804   0.807  1.1335  0.3974  0.5806
    1SOL    MW4 1916   2.012   3.881   0.842  0.2329  0.1554  0.6288
    1SOL     OW 1917   3.808   2.817   0.762  0.2024 -0.3477  0.5483
    1SOL    HW2 1918   3.891   2.789   0.800  0.6348 -0.2209 -0.2878
    1SOL    HW3 1919   3.815   2.792   0.669 -0.9685 -0.9654  0.6152
    1SOL    MW4 1920   3.820   2.810   0.754  0.1049 -0.4125  0.4469
    1SOL     OW 1921   0.913   1.907   0.794  0.2130 -0.0320  0.2058
    1SOL    HW2 1922   0.829   1.952   0.797  0.3599  0.2863 -0.3537
    1SOL    HW3 1923   0.950   1.917   0.881 -1.1987 -1.8496  1.0439
    1SOL    MW4 1924   0.907   1.914   0.806  0.0461 -0.2298  0.2425
    1SOL     OW 1925   2.088   0.217   0.528 -0.4701  0.0456  0.3148
    1SOL    HW2 1926   2.184   0.209   0.527 -0.3604  0.8376  1.9736
    1SOL    HW3 1927   2.056   0.130   0.507  0.6303 -0.6144  1.2975
    1SOL    MW4 1928   2.097   0.205   0.525 -0.3107  0.0630  0.6633
    1SOL     OW 1929   3.253   1.908   0.391 -0.1824  0.3368 -0.5671
    1SOL    HW2 1930   3.214   1.826   0.422  0.7059  0.1713  0.1620
    1SOL    HW3 1931   3.181   1.971   0.391 -1.7383 -1.2788 -4.5546
    1SOL    MW4 1932   3.239   1.905   0.395 -0.2704  0.1019 -0.9970
    1SOL     OW 1933   3.599   3.494   0.863  0.1297  0.1801 -0.4212
    1SOL    HW2 1934   3.668   3.552   0.830  0.9575 -0.3366  0.3657
    1SOL    HW3 1935   3.606   3.416   0.808 -1.5606  1.1412 -2.0597
    1SOL    MW4 1936   3.609   3.491   0.851  0.0157  0.2387 -0.5335
    1SOL     OW 1937   4.227   3.880   0.858  0.2817 -0.1981 -0.1760
    1SOL    HW2 1938   4.163   3.941   0.820 -0.5300  0.1135  1.6583
    1SOL    HW3 1939   4.218   3.891   0.952  1.3519 -1.9357  0.1484
    1SOL    MW4 1940   4.218   3.890   0.865  0.3157 -0.3865  0.1088
    1SOL     OW 1941   0.363   0.787   0.494  0.6061  0.1269  0.3090
    1SOL    HW2 1942   0.380   0.803   0.587 -0.4922 -0.4706  0.6277
    1SOL    HW3 1943   0.365   0.873   0.454  2.1431  0.2865  0.7030
    1SOL    MW4 1944   0.365   0.800   0.501  0.6640  0.0691  0.4030
    1SOL     OW 1945   3.783   3.918   0.903 -0.1044  0.1142  0.1710
    1SOL    HW2 1946   3.850   3.964   0.852 -0.4929 -0.6185 -1.0316
    1SOL    HW3 1947   3.797   3.826   0.883  0.3285 -0.2565  2.1506
    1SOL    MW4 1948   3.794   3.912   0.893 -0.0987 -0.0315  0.2735
    1SOL     OW 1949   4.086   0.156   0.460  0.2160 -0.1760 -0.2096
    1SOL    HW2 1950   4.070   0.062   0.452 -0.7120 -0.1474  1.0874
    1SOL    HW3 1951   3.998   0.195   0.468  0.5671  0.8523 -1.1576
    1SOL    MW4 1952   4.072   0.149   0.460  0.1407 -0.0365 -0.1635
    1SOL     OW 1953   3.869   4.642   0.862 -0.4710 -0.1155  0.1527
    1SOL    HW2 1954   3.854   4.562   0.811 -0.4053 -0.5274  0.7693
    1SOL    HW3 1955   3.950   4.678   0.828 -1.1947  0.4169 -1.0511
    1SOL    MW4 1956   3.877   4.636   0.851 -0.5579 -0.0997  0.0753
    1SOL     OW 1957   0.224   0.009   1.150 -0.0065 -0.2832  0.0145
    1SOL    HW2 1958   0.313   0.037   1.169  0.2802 -0.5226 -0.9487
    1SOL    HW3 1959   0.212   0.029   1.057 -0.3962 -1.7567 -0.2639
    1SOL    MW4 1960   0.234   0.016   1.140 -0.0201 -0.5092 -0.1494
    1SOL     OW 1961   4.466   0.085   1.265  0.5303  0.1281  0.0153
    1SOL    HW2 1962   4.395   0.039   1.220  0.0070  0.9520 -0.0092
    1SOL    HW3 1963   4.546   0.048   1.227  0.1590 -1.6399  0.8663
    1SOL    MW4 1964   4.467   0.074   1.254  0.4125  0.0035  0.1243
    1SOL     OW 1965   4.475   0.346   1.133 -0.3489  0.0063 -0.0300
    1SOL    HW2 1966   4.394   0.392   1.154 -0.7301 -0.5066 -0.3364
    1SOL    HW3 1967   4.474   0.269   1.189 -0.3955 -0.3315 -0.4846
    1SOL    MW4 1968   4.464   0.342   1.143 -0.4048 -0.1059 -0.1304
    1SOL     OW 1969   0.194   0.535   1.206  0.5609  0.0481  0.0022
    1SOL    HW2 1970   0.184   0.624   1.172  1.1827  0.8922  1.9381
    1SOL    HW3 1971   0.118   0.488   1.174 -0.5220  1.6710  0.1386
    1SOL    MW4 1972   0.183   0.541   1.197  0.5001  0.3735  0.2755
    1SOL     OW 1973   0.184   0.796   1.081 -0.0463  0.3516  0.3105
    1SOL    HW2 1974   0.258   0.841   1.120 -0.5153 -0.1801  1.8251
    1SOL    HW3 1975   0.107   0.838   1.118 -0.5124  0.2289 -0.4867
    1SOL    MW4 1976   0.183   0.808   1.091 -0.1697  0.2652  0.4053
    1SOL     OW 1977   4.442   0.920   1.190 -0.4155 -0.3523 -0.1207
    1SOL    HW2 1978   4.467   0.929   1.282 -0.3882  1.3838 -0.2842
    1SOL    HW3 1979   4.454   1.008   1.153 -0.6053 -0.9906 -1.7351
    1SOL    MW4 1980   4.447   0.933   1.197 -0.4373 -0.2075 -0.3554
    1SOL     OW 1981   4.483   1.167   1.082  0.1182 -0.1564  0.1024
    1SOL    HW2 1982   4.403   1.214   1.104 -0.3216 -0.3630 -1.0617
    1SOL    HW3 1983   4.553   1.220   1.123 -0.5870  0.0273  1.0984
    1SOL    MW4 1984   4.482   1.180   1.091 -0.0329 -0.1595  0.0801
    1SOL     OW 1985   0.185   1.314   1.213 -0.4995  0.3010  0.3145
    1SOL    HW2 1986   0.193   1.308   1.308 -0.7110 -0.6790  0.2691
    1SOL    HW3 1987   0.263   1.271   1.180 -0.3785  0.7282  0.0365
    1SOL    MW4 1988   0.196   1.308   1.221 -0.5114  0.2280  0.2717
    1SOL     OW 1989   0.198   1.581   1.154 -0.1661 -0.3027  0.0733
    1SOL    HW2 1990   0.208   1.490   1.184 -0.5368 -0.1771  0.5773
    1SOL    HW3 1991   0.213   1.576   1.060 -1.4109 -1.1014 -0.1028
    1SOL    MW4 1992   0.201   1.568   1.146 -0.3793 -0.3915  0.1165
    1SOL     OW 1993   4.454   1.702   1.265  0.1644  0.3995 -0.6498
    1SOL    HW2 1994   4.441   1.789   1.226  1.9296  1.1399  0.3162
    1SOL    HW3 1995   4.529   1.666   1.218 -0.3657 -0.4821 -0.8306
    1SOL    MW4 1996   4.462   1.709   1.254  0.3271  0.3809 -0.5462
    1SOL     OW 1997   4.465   1.955   1.145 -0.1037  0.6061 -0.2839
    1SOL    HW2 1998   4.399   2.015   1.180 -1.3017  0.3516 -2.0260
    1SOL    HW3 1999   4.448   1.952   1.051  0.9957 -1.1786 -0.4677
    1SOL    MW4 2000   4.454   1.962   1.137 -0.1168  0.3371 -0.5381
    1SOL     OW 2001   0.254   2.045   1.210 -0.1976 -0.0670  0.3321
    1SOL    HW2 2002   0.241   2.125   1.160  0.5122 -0.7098 -0.9200
    1SOL    HW3 2003   0.187   1.985   1.177  1.1100 -0.9270 -0.8124
    1SOL    MW4 2004   0.244   2.048   1.199  0.0686 -0.2651  0.0160
    1SOL     OW 2005   0.283   2.352   0.832  0.0738  0.3077  0.0717
    1SOL    HW2 2006   0.201   2.375   0.789  0.0639 -0.0801 -0.1228
    1SOL    HW3 2007   0.260   2.342   0.924 -0.2810 -0.6649 -0.1131
    1SOL    MW4 2008   0.269   2.354   0.838  0.0257  0.1283  0.0217
    1SOL     OW 2009   0.045   2.428   1.217  0.1819 -0.5996  0.4879
    1SOL    HW2 2010   0.029   2.432   1.311  0.3994  0.8331  0.4641
    1SOL    HW3 2011  -0.042   2.417   1.178  0.0654 -0.9143  0.8330
    1SOL    MW4 2012   0.031   2.427   1.225  0.1950 -0.4518  0.5304
    1SOL     OW 2013   0.165   2.655   1.110 -0.2510 -0.2765 -0.1825
    1SOL    HW2 2014   0.119   2.731   1.146  1.7296  0.5793  0.6222
    1SOL    HW3 2015   0.141   2.583   1.168 -0.9226  0.0630 -0.0343
    1SOL    MW4 2016   0.156   2.656   1.123 -0.0783 -0.1185 -0.0569
    1SOL     OW 2017   0.124   2.911   1.239 -0.1476  0.0255 -0.0355
    1SOL    HW2 2018   0.142   2.887   1.329  0.4948  1.9556  0.3844
    1SOL    HW3 2019   0.030   2.896   1.228 -0.0348 -1.1811  0.6400
    1SOL    MW4 2020   0.114   2.906   1.249 -0.0479  0.1211  0.1090
    1SOL     OW 2021   0.230   3.136   1.102 -0.0245  0.3993 -0.3729
    1SOL    HW2 2022   0.316   3.157   1.135  0.3544  0.2186 -1.2171
    1SOL    HW3 2023   0.205   3.056   1.148  0.0379  0.7400  0.2492
    1SOL    MW4 2024   0.238   3.128   1.112  0.0337  0.4203 -0.4022
    1SOL     OW 2025   0.017   3.227   1.232  0.3879  0.2751 -0.3014
    1SOL    HW2 2026  -0.047   3.163   1.201  0.0078 -0.3612  1.7370
    1SOL    HW3 2027   0.101   3.196   1.195 -0.0484 -0.4521 -0.7050
    1SOL    MW4 2028   0.020   3.214   1.223  0.2804  0.0951 -0.0856
    1SOL     OW 2029   0.024   3.473   1.117  0.0451 -0.7310 -0.2361
    1SOL    HW2 2030   0.012   3.383   1.146 -0.8262 -0.2019  1.0656
    1SOL    HW3 2031   0.020   3.468   1.021 -0.5574 -1.9972 -0.1535
    1SOL    MW4 2032   0.022   3.460   1.108 -0.1494 -0.8283 -0.0536
    1SOL     OW 2033   0.242   3.621   1.272 -0.0101  0.3240  0.0322
    1SOL    HW2 2034   0.215   3.635   1.362  0.6022  0.2669  0.2278
    1SOL    HW3 2035   0.166   3.582   1.230 -0.6251  1.2448  0.2791
    1SOL    MW4 2036   0.228   3.618   1.278 -0.0105  0.4377  0.0907
    1SOL     OW 2037   0.215   3.870   1.149  0.1318 -0.0887 -0.3716
    1SOL    HW2 2038   0.146   3.923   1.188  0.4414  0.0340  0.0071
    1SOL    HW3 2039   0.224   3.795   1.208 -0.7823 -0.9169 -1.2674
    1SOL    MW4 2040   0.207   3.867   1.162  0.0520 -0.1819 -0.4398
    1SOL     OW 2041   0.007   4.017   1.241 -0.1135  0.3408 -0.0081
    1SOL    HW2 2042  -0.003   4.015   1.336  0.1040 -0.5377  0.0017
    1SOL    HW3 2043  -0.049   3.947   1.209  0.2822  0.2330 -0.4805
    1SOL    MW4 2044  -0.002   4.007   1.249 -0.0326  0.2112 -0.0691
    1SOL     OW 2045   4.459   4.255   1.109 -0.1273  0.5066  0.1331
    1SOL    HW2 2046   4.529   4.303   1.154  0.6345 -0.0638 -0.4207
    1SOL    HW3 2047   4.457   4.170   1.153  0.0865  0.2283 -0.3873
    1SOL    MW4 2048   4.468   4.250   1.121  0.0014  0.3948 -0.0086
    1SOL     OW 2049   0.145   4.414   1.225 -0.1777 -0.0509 -0.3282
    1SOL    HW2 2050   0.156   4.404   1.319  0.5795  0.3596 -0.3742
    1SOL    HW3 2051   0.184   4.499   1.204 -1.1407  0.2735 -0.8743
    1SOL    MW4 2052   0.151   4.424   1.234 -0.2049  0.0467 -0.4063
    1SOL     OW 2053   0.675   4.634   1.052 -1.0744 -0.0982  0.0652
    1SOL    HW2 2054   0.754   4.660   1.099 -0.3612 -0.9051 -0.6804
    1SOL    HW3 2055   0.643   4.556   1.099 -1.2737  0.0565  0.1899
    1SOL    MW4 2056   0.681   4.627   1.064 -1.0066 -0.1841 -0.0168
    1SOL     OW 2057   0.491   0.123   1.199  0.1311  0.0250  0.0438
    1SOL    HW2 2058   0.469   0.209   1.164 -0.7131 -0.6465 -1.1073
    1SOL    HW3 2059   0.558   0.090   1.140  1.3076  0.3484  1.1558
    1SOL    MW4 2060   0.497   0.130   1.187  0.1749 -0.0209  0.0386
    1SOL     OW 2061   2.491   1.419   0.395 -0.0782 -0.0615  0.9311
    1SOL    HW2 2062   2.582   1.447   0.386 -0.2472  0.5207  1.0223
    1SOL    HW3 2063   2.495   1.346   0.457  0.4501 -0.7405  0.0988
    1SOL    MW4 2064   2.503   1.413   0.402 -0.0310 -0.0744  0.8334
    1SOL     OW 2065   0.649   0.476   1.200 -0.5445 -0.0409 -0.2885
    1SOL    HW2 2066   0.633   0.570   1.186  0.5538  0.1911 -0.0325
    1SOL    HW3 2067   0.568   0.434   1.172 -0.6602  0.9026 -1.4021
    1SOL    MW4 2068   0.636   0.483   1.195 -0.4148  0.1142 -0.4017
    1SOL     OW 2069   0.609   0.751   1.124  0.2997 -0.6739 -0.3322
    1SOL    HW2 2070   0.527   0.798   1.142  0.5972 -0.1631 -0.2972
    1SOL    HW3 2071   0.618   0.754   1.028  0.4190 -0.4862 -0.3155
    1SOL    MW4 2072   0.599   0.758   1.114  0.3546 -0.5817 -0.3253
    1SOL     OW 2073   0.382   0.909   1.219  0.1381 -0.0139  0.0335
    1SOL    HW2 2074   0.387   0.909   1.315  0.0971  0.5369  0.0360
    1SOL    HW3 2075   0.389   1.001   1.195  0.2678 -0.1647 -0.5016
    1SOL    MW4 2076   0.383   0.921   1.229  0.1498  0.0389 -0.0367
    1SOL     OW 2077   0.413   1.188   1.114 -0.2902 -0.4594 -0.1319
    1SOL    HW2 2078   0.499   1.223   1.135 -0.2454 -0.1968 -0.7237
    1SOL    HW3 2079   0.415   1.176   1.019 -1.7583  1.8915 -0.5006
    1SOL    MW4 2080   0.425   1.191   1.104 -0.4780 -0.1144 -0.2586
    1SOL     OW 2081   0.667   1.288   1.201  0.1681  0.1511  0.2305
    1SOL    HW2 2082   0.724   1.235   1.145  0.7937 -0.6186  1.5833
    1SOL    HW3 2083   0.687   1.378   1.176  1.2703 -0.1518 -0.0096
    1SOL    MW4 2084   0.677   1.293   1.190  0.3961  0.0097  0.3775
    1SOL     OW 2085   0.679   1.555   1.100  0.3994  0.2707  0.5930
    1SOL    HW2 2086   0.744   1.599   1.156 -0.0311  1.9316 -0.1861
    1SOL    HW3 2087   0.595   1.584   1.135  0.0975 -0.7185  0.6832
    1SOL    MW4 2088   0.677   1.565   1.112  0.3028  0.3594  0.5021
    1SOL     OW 2089   0.460   1.663   1.224  0.4121 -0.0914  0.3383
    1SOL    HW2 2090   0.447   1.644   1.317  0.0306 -0.7238  0.1547
    1SOL    HW3 2091   0.373   1.654   1.185  0.2118  2.0352  0.2427
    1SOL    MW4 2092   0.447   1.659   1.231  0.3354  0.1057  0.3015
    1SOL     OW 2093   0.490   1.910   1.142  0.2135 -0.1399  0.5342
    1SOL    HW2 2094   0.484   1.822   1.178  0.6923 -0.3488  0.1088
    1SOL    HW3 2095   0.410   1.954   1.171 -0.6304 -1.1020 -0.2993
    1SOL    MW4 2096   0.479   1.904   1.150  0.1653 -0.2943  0.3679
    1SOL     OW 2097   0.723   2.040   1.199 -0.1631  0.6152 -0.1861
    1SOL    HW2 2098   0.717   2.034   1.295 -0.3908  1.3617 -0.1473
    1SOL    HW3 2099   0.645   1.994   1.168  0.0268  0.1829 -0.0121
    1SOL    MW4 2100   0.712   2.033   1.208 -0.1680  0.6568 -0.1580
    1SOL     OW 2101   0.697   2.291   1.069  0.7802  0.5792 -0.0618
    1SOL    HW2 2102   0.622   2.340   1.103  0.0484 -0.5083 -0.0887
    1SOL    HW3 2103   0.699   2.211   1.121  2.9334  1.3053  1.0707
    1SOL    MW4 2104   0.687   2.287   1.080  0.9677  0.5317  0.0840
    1SOL     OW 2105   0.473   2.438   1.152 -0.1759  0.5678  0.5072
    1SOL    HW2 2106   0.472   2.427   1.247 -0.6557  0.5014  0.4981
    1SOL    HW3 2107   0.454   2.531   1.139 -2.9266  0.0326  0.4100
    1SOL    MW4 2108   0.470   2.449   1.163 -0.6022  0.4880  0.4933
    1SOL     OW 2109   0.433   2.749   1.118  0.2350  0.0639 -0.7966
    1SOL    HW2 2110   0.344   2.715   1.124  0.4816 -0.5240 -0.4838
    1SOL    HW3 2111   0.455   2.740   1.025  0.2587 -0.5306 -0.7357
    1SOL    MW4 2112   0.424   2.744   1.106  0.2706 -0.0918 -0.7472
    1SOL     OW 2113   0.691   2.833   1.189 -0.4131  0.3222  0.1006
    1SOL    HW2 2114   0.706   2.831   1.284  0.4794 -0.0978 -0.0389
    1SOL    HW3 2115   0.605   2.792   1.177 -0.4125  0.1364  0.7124
    1SOL    MW4 2116   0.682   2.827   1.200 -0.2952  0.2422  0.1630
    1SOL     OW 2117   0.652   3.074   1.100  0.3085 -0.0849 -0.2583
    1SOL    HW2 2118   0.727   3.129   1.122  0.1572 -0.2573  0.7138
    1SOL    HW3 2119   0.673   2.988   1.138 -0.4379 -0.0954  0.1563
    1SOL    MW4 2120   0.665   3.070   1.108  0.1900 -0.1092 -0.0755
    1SOL     OW 2121   0.456   3.221   1.224  0.4422 -0.3473 -0.3719
    1SOL    HW2 2122   0.467   3.313   1.198 -0.4491 -0.1372 -0.0253
    1SOL    HW3 2123   0.526   3.175   1.178  1.3508  0.6135  0.0331
    1SOL    MW4 2124   0.466   3.227   1.214  0.4445 -0.1929 -0.2726
    1SOL     OW 2125   0.463   3.500   1.134 -0.4722 -0.1177 -0.3194
    1SOL    HW2 2126   0.541   3.551   1.156 -1.5778  0.4770  2.4709
    1SOL    HW3 2127   0.393   3.542   1.184 -1.8459 -2.9531  0.2288
    1SOL    MW4 2128   0.464   3.512   1.144 -0.7993 -0.4132  0.1210
    1SOL     OW 2129   0.694   3.641   1.225 -0.7903  0.0664  0.7115
    1SOL    HW2 2130   0.687   3.628   1.320  0.4675  0.8529  0.9326
    1SOL    HW3 2131   0.688   3.736   1.214 -1.3148 -0.0526 -0.0386
    1SOL    MW4 2132   0.693   3.652   1.236 -0.6936  0.1545  0.6418
    1SOL     OW 2133   0.647   3.899   1.144  0.2440 -0.1083 -0.2465
    1SOL    HW2 2134   0.566   3.940   1.174  0.1245 -0.9338  0.5927
    1SOL    HW3 2135   0.647   3.912   1.049 -1.6472 -1.4247 -0.4670
    1SOL    MW4 2136   0.637   3.906   1.135 -0.0213 -0.3908 -0.1649
    1SOL     OW 2137   0.416   4.038   1.265 -0.0543 -0.3234 -0.3614
    1SOL    HW2 2138   0.423   4.124   1.223  0.0187  0.0840  0.4683
    1SOL    HW3 2139   0.351   3.991   1.214  0.3105  0.0229 -1.1607
    1SOL    MW4 2140   0.409   4.044   1.253  0.0035 -0.2241 -0.3574
    1SOL     OW 2141   0.390   4.306   1.139  0.2509  0.0280  0.1687
    1SOL    HW2 2142   0.451   4.371   1.174 -0.3398  0.7820 -0.1830
    1SOL    HW3 2143   0.305   4.334   1.173 -0.0941 -0.1772 -0.5366
    1SOL    MW4 2144   0.387   4.319   1.148  0.1274  0.1001  0.0292
    1SOL     OW 2145   0.616   4.439   1.237  0.0585  0.7750  0.0245
    1SOL    HW2 2146   0.627   4.420   1.330 -1.0779 -0.9247 -0.1723
    1SOL    HW3 2147   0.691   4.397   1.195  0.5907  1.5722  0.1642
    1SOL    MW4 2148   0.627   4.431   1.244 -0.0212  0.6557  0.0168
    1SOL     OW 2149   1.120   0.033   1.096 -0.0095  0.0754  0.4154
    1SOL    HW2 2150   1.102  -0.053   1.134  0.2488 -0.2145 -0.1210
    1SOL    HW3 2151   1.124   0.018   1.002  1.7158  0.3755  0.4226
    1SOL    MW4 2152   1.118   0.020   1.089  0.2522  0.0768  0.3456
    1SOL     OW 2153   0.873   0.061   1.214 -0.0108 -0.2635  0.2013
    1SOL    HW2 2154   0.874   0.083   1.308 -0.6454  0.7377 -0.0104
    1SOL    HW3 2155   0.964   0.041   1.193 -0.3741 -4.0638  1.8350
    1SOL    MW4 2156   0.885   0.062   1.224 -0.1425 -0.6328  0.3890
    1SOL     OW 2157   0.894   0.347   1.123  0.2882  0.0592  0.2421
    1SOL    HW2 2158   0.903   0.256   1.150 -0.3003  0.1247  0.6653
    1SOL    HW3 2159   0.809   0.374   1.156  0.8439  1.0388  0.9200
    1SOL    MW4 2160   0.884   0.338   1.131  0.2840  0.1971  0.3874
    1SOL     OW 2161   1.119   0.498   1.224  0.2020  0.1614  0.3352
    1SOL    HW2 2162   1.130   0.480   1.318 -0.6207 -1.1652  0.1800
    1SOL    HW3 2163   1.044   0.446   1.198  0.7472  0.1157 -1.1912
    1SOL    MW4 2164   1.111   0.489   1.233  0.1653 -0.0197  0.1132
    1SOL     OW 2165   1.104   0.750   1.115  0.0710 -0.0523  0.4088
    1SOL    HW2 2166   1.014   0.781   1.129 -0.4171 -1.7425  1.1797
    1SOL    HW3 2167   1.112   0.675   1.174  2.1049  0.2850  0.5770
    1SOL    MW4 2168   1.093   0.744   1.125  0.2749 -0.2308  0.5329
    1SOL     OW 2169   0.882   0.872   1.194  0.3918 -0.2182 -0.0969
    1SOL    HW2 2170   0.890   0.960   1.157 -0.3068  0.1205  0.5351
    1SOL    HW3 2171   0.793   0.844   1.170  0.0461 -0.1260  1.0196
    1SOL    MW4 2172   0.871   0.880   1.186  0.2540 -0.1614  0.1338
    1SOL     OW 2173   0.857   1.118   1.091  0.1898 -0.2723 -0.3627
    1SOL    HW2 2174   0.926   1.170   1.132 -1.3584  0.8614  0.8149
    1SOL    HW3 2175   0.876   1.124   0.997  0.8245  1.2777 -0.1480
    1SOL    MW4 2176   0.869   1.126   1.084  0.0693  0.0817 -0.1791
    1SOL     OW 2177   1.061   1.294   1.217 -0.0086 -0.3267 -0.5734
    1SOL    HW2 2178   1.079   1.302   1.311  0.6585  2.5210 -0.9131
    1SOL    HW3 2179   1.136   1.246   1.182  0.3623 -0.2659  0.1262
    1SOL    MW4 2180   1.073   1.288   1.225  0.1285  0.0571 -0.5260
    1SOL     OW 2181   1.140   1.532   1.139 -0.4427  0.3019  0.1366
    1SOL    HW2 2182   1.112   1.447   1.170  1.0188 -0.0990  0.3754
    1SOL    HW3 2183   1.122   1.530   1.045 -1.0840  0.0117  0.2614
    1SOL    MW4 2184   1.134   1.521   1.131 -0.3345  0.2108  0.1847
    1SOL     OW 2185   0.897   1.683   1.221  0.2832  0.5640 -0.0160
    1SOL    HW2 2186   0.897   1.761   1.166 -1.3014 -0.1568 -1.0922
    1SOL    HW3 2187   0.982   1.642   1.206  0.6657  1.4780 -0.3266
    1SOL    MW4 2188   0.908   1.688   1.212  0.1245  0.5894 -0.1988
    1SOL     OW 2189   0.979   1.942   1.074  0.0241 -0.4478  0.1666
    1SOL    HW2 2190   1.059   1.974   1.116 -0.2673  3.1554 -1.7636
    1SOL    HW3 2191   0.909   1.996   1.111 -0.6899  0.3666 -2.2487
    1SOL    MW4 2192   0.980   1.953   1.084 -0.1085  0.1349 -0.4067
    1SOL     OW 2193   1.203   2.049   1.227  0.0926  0.2593 -0.3966
    1SOL    HW2 2194   1.200   2.052   1.323  0.2090  0.0666 -0.3877
    1SOL    HW3 2195   1.187   2.140   1.200 -0.7313  0.1814 -0.2107
    1SOL    MW4 2196   1.200   2.062   1.236 -0.0008  0.2239 -0.3709
    1SOL     OW 2197   1.131   2.309   1.099 -0.1985 -0.3261  0.2121
    1SOL    HW2 2198   1.216   2.349   1.117 -0.8333  0.5837  1.2029
    1SOL    HW3 2199   1.130   2.297   1.004  1.9258 -2.3783  0.3951
    1SOL    MW4 2200   1.142   2.313   1.089 -0.0020 -0.4768  0.3669
    1SOL     OW 2201   0.905   2.430   1.181  0.3518 -0.0731 -0.3275
    1SOL    HW2 2202   0.989   2.396   1.151 -0.2172 -1.2165 -0.6255
    1SOL    HW3 2203   0.839   2.374   1.140 -0.5275  0.1106  0.7985
    1SOL    MW4 2204   0.907   2.418   1.172  0.1607 -0.1998 -0.2182
    1SOL     OW 2205   0.913   2.696   1.094 -0.2585 -0.0182  0.2221
    1SOL    HW2 2206   0.888   2.606   1.115 -1.2571 -0.1551 -1.4338
    1SOL    HW3 2207   0.838   2.749   1.122 -0.4500  0.0837 -0.4633
    1SOL    MW4 2208   0.899   2.691   1.101 -0.4155 -0.0226 -0.0869
    1SOL     OW 2209   1.157   2.844   1.157 -0.0464 -0.1214  0.3704
    1SOL    HW2 2210   1.147   2.850   1.252 -1.7088  1.9814  0.0938
    1SOL    HW3 2211   1.082   2.792   1.129 -1.7025  2.4345 -0.1246
    1SOL    MW4 2212   1.146   2.838   1.166 -0.4843  0.4935  0.2686
    1SOL     OW 2213   1.088   3.103   1.113 -0.1797 -0.0745 -0.3631
    1SOL    HW2 2214   1.112   3.012   1.125  0.6171  0.1066 -0.5526
    1SOL    HW3 2215   1.080   3.114   1.018 -2.2198 -0.4314 -0.2588
    1SOL    MW4 2216   1.090   3.093   1.102 -0.3437 -0.0978 -0.3743
    1SOL     OW 2217   0.869   3.229   1.199  0.2157 -0.2743  0.3303
    1SOL    HW2 2218   0.887   3.320   1.179 -1.7619 -0.0063 -0.2570
    1SOL    HW3 2219   0.947   3.182   1.168  0.5546  1.0165 -0.8173
    1SOL    MW4 2220   0.882   3.234   1.193 -0.0004 -0.0684  0.1012
    1SOL     OW 2221   0.903   3.486   1.132  0.7455  0.6190  0.3163
    1SOL    HW2 2222   0.831   3.533   1.174  0.2062 -0.1145  0.2414
    1SOL    HW3 2223   0.875   3.476   1.041 -0.4014 -2.1657  0.9043
    1SOL    MW4 2224   0.890   3.491   1.125  0.5230  0.1550  0.3840
    1SOL     OW 2225   1.141   3.613   1.214  0.1147  0.3265  0.0281
    1SOL    HW2 2226   1.213   3.597   1.153 -0.2521 -0.3835 -0.2196
    1SOL    HW3 2227   1.067   3.563   1.179  0.0820 -0.6133  1.3931
    1SOL    MW4 2228   1.141   3.605   1.202  0.0620  0.1090  0.1755
    1SOL     OW 2229   1.134   3.880   1.117 -0.0332  0.1240 -0.2904
    1SOL    HW2 2230   1.061   3.937   1.141  0.7721  0.5632  1.1728
    1SOL    HW3 2231   1.117   3.798   1.163 -0.9470 -0.6610 -2.0203
    1SOL    MW4 2232   1.122   3.877   1.126 -0.0476  0.0784 -0.3256
    1SOL     OW 2233   0.912   4.025   1.188 -0.0069  0.4918  0.4049
    1SOL    HW2 2234   0.930   4.037   1.281 -0.0732  0.6476  0.3985
    1SOL    HW3 2235   0.818   4.005   1.184  0.2208 -0.6225  0.4659
    1SOL    MW4 2236   0.902   4.024   1.200  0.0144  0.3653  0.4121
    1SOL     OW 2237   0.846   4.315   1.137  0.3939  0.1555 -0.1375
    1SOL    HW2 2238   0.875   4.224   1.146 -0.6210 -0.1863 -0.3039
    1SOL    HW3 2239   0.853   4.333   1.043 -0.3344 -0.0739 -0.2433
    1SOL    MW4 2240   0.851   4.305   1.125  0.1640  0.0801 -0.1734
    1SOL     OW 2241   1.069   4.457   1.229  0.2251 -0.1917  0.3128
    1SOL    HW2 2242   1.070   4.437   1.323 -0.2337 -1.6727  0.0123
    1SOL    HW3 2243   0.987   4.420   1.197  0.0406  0.9464 -0.5395
    1SOL    MW4 2244   1.058   4.449   1.237  0.1402 -0.2375  0.1607
    1SOL     OW 2245   1.547   4.661   1.162 -0.4197  0.2328 -0.0681
    1SOL    HW2 2246   1.634   4.696   1.182 -0.3802 -0.4639  1.0377
    1SOL    HW3 2247   1.554   4.568   1.182 -1.5080  0.2310  0.3590
    1SOL    MW4 2248   1.559   4.653   1.168 -0.5580  0.1402  0.1342
    1SOL     OW 2249   1.317   0.127   1.286  0.0283 -0.6022  0.2318
    1SOL    HW2 2250   1.392   0.076   1.257  0.2715 -0.9697  1.4701
    1SOL    HW3 2251   1.243   0.092   1.236  0.7048 -0.0513 -1.1917
    1SOL    MW4 2252   1.317   0.116   1.276  0.1497 -0.5780  0.2073
    1SOL     OW 2253   1.325   0.353   1.129  0.1678 -0.1530 -0.3462
    1SOL    HW2 2254   1.334   0.267   1.171  0.7964 -0.2246 -0.6206
    1SOL    HW3 2255   1.246   0.391   1.168  0.1260 -0.6792  0.0861
    1SOL    MW4 2256   1.316   0.346   1.140  0.2451 -0.2319 -0.3253
    1SOL     OW 2257   1.529   0.496   1.238 -0.0942 -0.0746  0.0127
    1SOL    HW2 2258   1.529   0.587   1.206  0.5351 -0.0826 -0.0178
    1SOL    HW3 2259   1.449   0.458   1.202 -0.1738  0.3673 -0.2816
    1SOL    MW4 2260   1.519   0.503   1.229 -0.0217 -0.0173 -0.0302
    1SOL     OW 2261   1.532   0.761   1.151  0.1719 -0.2495 -0.6532
    1SOL    HW2 2262   1.610   0.795   1.194  0.3004 -0.8830 -0.3673
    1SOL    HW3 2263   1.558   0.751   1.059 -0.0415  0.9237 -0.8428
    1SOL    MW4 2264   1.546   0.764   1.145  0.1607 -0.1783 -0.6405
    1SOL     OW 2265   1.305   0.907   1.203 -0.5619 -0.5232 -0.0309
    1SOL    HW2 2266   1.379   0.847   1.195 -0.6753 -0.9344  1.7330
    1SOL    HW3 2267   1.229   0.855   1.179 -0.4984 -0.6556  0.0568
    1SOL    MW4 2268   1.305   0.892   1.199 -0.5684 -0.5949  0.2133
    1SOL     OW 2269   1.305   1.175   1.122 -0.1271 -0.0980 -0.2068
    1SOL    HW2 2270   1.290   1.082   1.138  1.5937 -0.5168 -0.9257
    1SOL    HW3 2271   1.395   1.190   1.152  0.3986  0.8313 -2.1476
    1SOL    MW4 2272   1.315   1.165   1.128  0.1692 -0.0306 -0.5578
    1SOL     OW 2273   1.550   1.247   1.224 -0.3633  0.5834  0.3086
    1SOL    HW2 2274   1.639   1.214   1.212 -0.4431  0.2062  0.7680
    1SOL    HW3 2275   1.540   1.255   1.319 -1.5800 -1.4603  0.3727
    1SOL    MW4 2276   1.560   1.244   1.235 -0.5344  0.2642  0.3777
    1SOL     OW 2277   1.572   1.510   1.137 -0.0924 -0.7639 -0.4834
    1SOL    HW2 2278   1.655   1.548   1.165  0.3350 -1.2371 -1.0846
    1SOL    HW3 2279   1.578   1.418   1.161 -1.2542 -0.4109  1.2550
    1SOL    MW4 2280   1.584   1.503   1.144 -0.1893 -0.7796 -0.3333
    1SOL     OW 2281   1.356   1.681   1.221  0.3583 -0.0739  0.2538
    1SOL    HW2 2282   1.428   1.620   1.203  0.4647  0.1418 -0.0436
    1SOL    HW3 2283   1.277   1.633   1.193  0.6703  0.9260 -2.4478
    1SOL    MW4 2284   1.355   1.666   1.215  0.4134  0.0865 -0.1420
    1SOL     OW 2285   1.393   1.908   1.100  0.4139 -0.2454 -0.2600
    1SOL    HW2 2286   1.396   1.820   1.137 -0.0665 -0.9559 -1.8753
    1SOL    HW3 2287   1.327   1.954   1.152  0.8427 -0.7552  0.7505
    1SOL    MW4 2288   1.385   1.902   1.111  0.4070 -0.4064 -0.3397
    1SOL     OW 2289   1.614   2.037   1.213 -0.5417 -0.7895  0.2328
    1SOL    HW2 2290   1.601   2.129   1.190  2.7110 -0.3419 -0.0779
    1SOL    HW3 2291   1.539   1.992   1.174  0.9895  0.9214 -5.1139
    1SOL    MW4 2292   1.602   2.043   1.205  0.0894 -0.5050 -0.5137
    1SOL     OW 2293   1.614   2.285   1.101  0.3607  0.0151  0.2137
    1SOL    HW2 2294   1.529   2.321   1.126 -0.8432 -2.0566 -0.7859
    1SOL    HW3 2295   1.613   2.285   1.005  1.2436 -0.5970  0.1968
    1SOL    MW4 2296   1.603   2.290   1.091  0.3185 -0.3393  0.0796
    1SOL     OW 2297   1.385   2.420   1.169  0.5133 -0.1312 -0.0336
    1SOL    HW2 2298   1.382   2.411   1.264  1.0130 -1.6069 -0.1440
    1SOL    HW3 2299   1.378   2.515   1.153 -2.1177 -0.0555  1.3413
    1SOL    MW4 2300   1.384   2.432   1.179  0.2321 -0.3157  0.1330
    1SOL     OW 2301   1.392   2.696   1.118 -0.0705 -0.1160 -0.1405
    1SOL    HW2 2302   1.470   2.747   1.139  0.0968 -0.5010  0.1857
    1SOL    HW3 2303   1.319   2.755   1.135  0.0649 -0.4128  1.5304
    1SOL    MW4 2304   1.392   2.711   1.123 -0.0308 -0.2060  0.1231
    1SOL     OW 2305   1.593   2.871   1.210 -0.4949  0.1387  0.3313
    1SOL    HW2 2306   1.674   2.843   1.167 -0.8615 -0.1647 -0.1705
    1SOL    HW3 2307   1.563   2.946   1.159 -0.5799  0.1929  0.4603
    1SOL    MW4 2308   1.600   2.877   1.198 -0.5544  0.1059  0.2822
    1SOL     OW 2309   1.535   3.099   1.041  0.3500  0.0902  0.8605
    1SOL    HW2 2310   1.603   3.154   1.080 -0.0135  1.2454 -0.1294
    1SOL    HW3 2311   1.453   3.144   1.062  0.0122 -0.3417  0.4797
    1SOL    MW4 2312   1.533   3.112   1.049  0.2574  0.1857  0.6797
    1SOL     OW 2313   1.313   3.250   1.158  0.4219  0.0062 -0.2426
    1SOL    HW2 2314   1.334   3.241   1.251 -0.2862  0.4966 -0.0395
    1SOL    HW3 2315   1.240   3.190   1.144 -0.9317  1.5591  0.0041
    1SOL    MW4 2316   1.306   3.241   1.169  0.1500  0.2756 -0.1832
    1SOL     OW 2317   1.361   3.510   1.068  0.5944  0.0286 -0.0658
    1SOL    HW2 2318   1.342   3.421   1.095  0.6401  0.1803  0.4708
    1SOL    HW3 2319   1.370   3.505   0.973  1.4303 -0.6925  0.0476
    1SOL    MW4 2320   1.360   3.498   1.059  0.7107 -0.0465  0.0200
    1SOL     OW 2321   1.566   3.606   1.210  0.2542  0.0317  0.1805
    1SOL    HW2 2322   1.579   3.694   1.173  0.2568 -0.5518 -1.2344
    1SOL    HW3 2323   1.495   3.569   1.158  0.7149 -1.0604  0.3195
    1SOL    MW4 2324   1.558   3.613   1.198  0.3154 -0.1893  0.0122
    1SOL     OW 2325   1.611   3.856   1.099 -0.2728  0.4673  0.1953
    1SOL    HW2 2326   1.544   3.916   1.130  0.3476  2.0212 -1.4209
    1SOL    HW3 2327   1.602   3.856   1.004  1.2944 -0.1599  0.0191
    1SOL    MW4 2328   1.601   3.864   1.090  0.0160  0.5896 -0.0412
    1SOL     OW 2329   1.391   4.031   1.187 -0.0295  0.1343 -0.1925
    1SOL    HW2 2330   1.372   4.122   1.167 -0.7645  0.5846  2.3386
    1SOL    HW3 2331   1.310   3.984   1.168 -0.7828  0.5873  1.7831
    1SOL    MW4 2332   1.378   4.037   1.182 -0.2260  0.2532  0.4021
    1SOL     OW 2333   1.314   4.301   1.161  0.2598  0.0257 -0.6126
    1SOL    HW2 2334   1.234   4.346   1.190  0.1529  0.0396 -0.9240
    1SOL    HW3 2335   1.315   4.313   1.066  1.7622  1.8841 -0.3951
    1SOL    MW4 2336   1.304   4.309   1.153  0.4441  0.2728 -0.6251
    1SOL     OW 2337   1.563   4.371   1.214  0.3289 -0.1287 -0.0418
    1SOL    HW2 2338   1.576   4.371   1.309 -0.0901  3.4322  0.1062
    1SOL    HW3 2339   1.469   4.355   1.203 -0.1687  2.3156  0.3407
    1SOL    MW4 2340   1.552   4.369   1.225  0.2079  0.6638  0.0281
    1SOL     OW 2341   2.017   0.034   1.105  0.1047  0.0867 -0.5786
    1SOL    HW2 2342   2.025  -0.054   1.142  0.6304  0.2778 -0.2407
    1SOL    HW3 2343   2.042   0.024   1.013  0.7053 -0.0109 -0.4054
    1SOL    MW4 2344   2.021   0.021   1.098  0.2534  0.0990 -0.5113
    1SOL     OW 2345   1.787   0.128   1.230  0.1942 -0.1033 -0.3359
    1SOL    HW2 2346   1.776   0.223   1.223  1.9008  0.0840 -0.5907
    1SOL    HW3 2347   1.870   0.110   1.187  0.3060 -1.6218  0.4833
    1SOL    MW4 2348   1.796   0.138   1.224  0.4342 -0.2789 -0.2615
    1SOL     OW 2349   1.781   0.405   1.152 -0.0885 -0.0910 -0.1744
    1SOL    HW2 2350   1.698   0.433   1.190 -0.9315 -0.4987 -1.6832
    1SOL    HW3 2351   1.760   0.383   1.061  1.5406 -0.8228 -0.3962
    1SOL    MW4 2352   1.767   0.406   1.145  0.0151 -0.2413 -0.4028
    1SOL     OW 2353   1.998   0.752   1.187 -0.1759  0.0925  0.1386
    1SOL    HW2 2354   2.083   0.791   1.209  0.0869  0.0492 -0.7949
    1SOL    HW3 2355   2.004   0.662   1.220  0.7799 -0.4333 -1.4215
    1SOL    MW4 2356   2.010   0.745   1.194 -0.0150  0.0175 -0.1904
    1SOL     OW 2357   1.999   0.767   0.918 -0.4435 -0.3073 -0.2442
    1SOL    HW2 2358   2.090   0.787   0.896 -0.1804 -1.3852 -0.1926
    1SOL    HW3 2359   1.997   0.765   1.013 -0.4365 -0.6493 -0.2505
    1SOL    MW4 2360   2.010   0.769   0.927 -0.4079 -0.4947 -0.2383
    1SOL     OW 2361   1.782   0.899   1.270  0.1623  0.3893  0.3005
    1SOL    HW2 2362   1.796   0.904   1.365  2.2667  0.7055 -0.0118
    1SOL    HW3 2363   1.864   0.863   1.236  0.2484  2.3670 -1.6341
    1SOL    MW4 2364   1.795   0.895   1.278  0.4512  0.6920  0.0042
    1SOL     OW 2365   1.804   1.143   1.169 -0.2966  0.6237 -0.2412
    1SOL    HW2 2366   1.789   1.058   1.211  0.3260  0.3701 -0.5253
    1SOL    HW3 2367   1.784   1.128   1.077 -0.1271  0.7689 -0.3009
    1SOL    MW4 2368   1.800   1.130   1.163 -0.1922  0.6094 -0.2866
    1SOL     OW 2369   2.020   1.277   1.262  0.3222 -0.2922 -0.0896
    1SOL    HW2 2370   2.081   1.207   1.241  0.2032  0.0690 -1.6685
    1SOL    HW3 2371   1.938   1.251   1.219  0.1539  0.5920 -0.3138
    1SOL    MW4 2372   2.017   1.264   1.254  0.2844 -0.1278 -0.3277
    1SOL     OW 2373   2.060   1.540   1.160  0.0258 -0.0780 -0.1766
    1SOL    HW2 2374   2.057   1.454   1.202 -0.8886  0.2689  0.5037
    1SOL    HW3 2375   2.051   1.522   1.067  0.4425 -0.7632 -0.0810
    1SOL    MW4 2376   2.058   1.526   1.153 -0.0398 -0.1225 -0.0741
    1SOL     OW 2377   1.807   1.644   1.210  0.3180 -0.3328 -0.1478
    1SOL    HW2 2378   1.822   1.734   1.180 -0.2322  0.2604  1.3192
    1SOL    HW3 2379   1.894   1.608   1.223  0.5414 -0.0051 -0.7184
    1SOL    MW4 2380   1.820   1.651   1.208  0.2749 -0.2112 -0.0294
    1SOL     OW 2381   1.836   1.908   1.123 -0.1053  0.1847  0.8811
    1SOL    HW2 2382   1.760   1.951   1.162  0.7783  1.4859  1.2428
    1SOL    HW3 2383   1.816   1.901   1.030 -1.6440 -1.6426  1.3353
    1SOL    MW4 2384   1.823   1.913   1.116 -0.1917  0.1153  0.9888
    1SOL     OW 2385   2.039   2.073   1.230  0.0236 -0.1201 -0.0411
    1SOL    HW2 2386   2.034   2.073   1.325  0.3921  0.9983 -0.0102
    1SOL    HW3 2387   1.964   2.022   1.201 -1.3734  1.4254  0.8032
    1SOL    MW4 2388   2.029   2.066   1.238 -0.1121  0.2315  0.0744
    1SOL     OW 2389   2.023   2.333   1.084  0.0610  0.3407  0.1623
    1SOL    HW2 2390   2.107   2.379   1.075  0.0463  0.4728  0.6931
    1SOL    HW3 2391   2.039   2.267   1.151 -0.6085  1.1837  1.1674
    1SOL    MW4 2392   2.036   2.331   1.092 -0.0291  0.4692  0.3650
    1SOL     OW 2393   1.803   2.484   1.179  0.3734  0.1275  0.0447
    1SOL    HW2 2394   1.880   2.433   1.153  0.0643  0.4844 -1.6167
    1SOL    HW3 2395   1.729   2.426   1.162  0.1673  0.3355  0.2353
    1SOL    MW4 2396   1.804   2.470   1.174  0.3055  0.2022 -0.1494
    1SOL     OW 2397   1.801   2.748   1.082 -0.0566  0.1631  0.2755
    1SOL    HW2 2398   1.804   2.656   1.109 -0.6856  0.1135  0.1907
    1SOL    HW3 2399   1.808   2.745   0.986 -1.6579  0.1001  0.1484
    1SOL    MW4 2400   1.802   2.735   1.073 -0.3507  0.1481  0.2477
    1SOL     OW 2401   2.028   2.869   1.185  0.3004  0.0966  0.1570
    1SOL    HW2 2402   2.033   2.956   1.146 -0.5573  0.5366  1.0318
    1SOL    HW3 2403   1.954   2.827   1.141  0.0707  0.1755  0.4681
    1SOL    MW4 2404   2.019   2.875   1.174  0.1571  0.1650  0.3134
    1SOL     OW 2405   2.003   3.149   1.102  0.0208 -0.0643 -0.3573
    1SOL    HW2 2406   1.917   3.154   1.144  0.1615  1.7192 -0.2512
    1SOL    HW3 2407   1.985   3.162   1.009  0.1896  0.4906 -0.3132
    1SOL    MW4 2408   1.989   3.151   1.096  0.0616  0.2441 -0.3375
    1SOL     OW 2409   1.736   3.228   1.194 -0.1483 -0.1668  0.4725
    1SOL    HW2 2410   1.771   3.232   1.282 -1.9537  1.5714  1.1466
    1SOL    HW3 2411   1.762   3.311   1.154 -3.0206  0.9611  0.8425
    1SOL    MW4 2412   1.744   3.240   1.200 -0.7654  0.2112  0.6104
    1SOL     OW 2413   1.797   3.495   1.086 -0.1976 -0.4223 -0.0378
    1SOL    HW2 2414   1.873   3.536   1.127  0.7708 -0.3827 -1.7961
    1SOL    HW3 2415   1.721   3.534   1.129  0.7749 -0.3940  1.6788
    1SOL    MW4 2416   1.797   3.505   1.097  0.0584 -0.4132 -0.0434
    1SOL     OW 2417   2.010   3.629   1.205 -0.0417 -0.0908  0.6057
    1SOL    HW2 2418   2.017   3.622   1.300  0.6213 -0.5809  0.5191
    1SOL    HW3 2419   2.094   3.599   1.172 -1.1050 -2.2281 -0.2489
    1SOL    MW4 2420   2.022   3.624   1.213 -0.0944 -0.4377  0.4815
    1SOL     OW 2421   2.033   3.877   1.118  0.1611 -0.2536 -0.1261
    1SOL    HW2 2422   1.952   3.920   1.147 -0.6156 -1.0380 -1.0860
    1SOL    HW3 2423   2.019   3.784   1.138  0.8982 -0.3689 -0.1490
    1SOL    MW4 2424   2.020   3.870   1.125  0.1559 -0.3724 -0.2557
    1SOL     OW 2425   1.827   4.051   1.195  0.0126 -0.3460  0.1202
    1SOL    HW2 2426   1.822   4.041   1.290 -3.3453 -0.5761 -0.0031
    1SOL    HW3 2427   1.756   3.996   1.161  0.2208  0.8526 -2.4168
    1SOL    MW4 2428   1.817   4.043   1.203 -0.4032 -0.2184 -0.2309
    1SOL     OW 2429   1.832   4.316   1.101  0.0164 -0.8333 -0.0085
    1SOL    HW2 2430   1.828   4.225   1.130  0.3605 -0.9182 -0.2269
    1SOL    HW3 2431   1.749   4.353   1.129  0.2103 -1.0007  0.7828
    1SOL    MW4 2432   1.820   4.309   1.108  0.0874 -0.8669  0.0670
    1SOL     OW 2433   2.047   4.458   1.235  0.3238 -0.0190 -0.3694
    1SOL    HW2 2434   2.042   4.449   1.330  0.2154  0.8343 -0.2959
    1SOL    HW3 2435   1.975   4.404   1.202 -0.7278  1.0819  0.1096
    1SOL    MW4 2436   2.037   4.449   1.243  0.1709  0.2394 -0.2967
    1SOL     OW 2437   2.468   4.651   1.136 -0.1933 -0.3340 -0.3676
    1SOL    HW2 2438   2.531   4.704   1.185 -0.6271  0.5451 -0.7520
    1SOL    HW3 2439   2.382   4.688   1.159 -0.4340 -0.2713 -1.3586
    1SOL    MW4 2440   2.465   4.663   1.145 -0.2825 -0.2098 -0.5490
    1SOL     OW 2441   2.230   0.116   1.251 -0.1348 -0.0396 -0.1027
    1SOL    HW2 2442   2.229   0.207   1.221  0.8312 -0.0706 -0.2300
    1SOL    HW3 2443   2.158   0.074   1.202 -0.0372  0.4554 -0.6689
    1SOL    MW4 2444   2.220   0.122   1.240  0.0057  0.0216 -0.1943
    1SOL     OW 2445   2.017   0.496   1.273 -0.1060  0.1899  0.2138
    1SOL    HW2 2446   2.023   0.492   1.369  0.8227 -1.6669  0.1041
    1SOL    HW3 2447   1.929   0.462   1.254 -0.3140  0.6145  0.4204
    1SOL    MW4 2448   2.006   0.491   1.283 -0.0110  0.0009  0.2265
    1SOL     OW 2449   2.446   0.465   1.244  0.1694  0.0792  0.0663
    1SOL    HW2 2450   2.441   0.448   1.338 -2.3110  2.3005  0.3916
    1SOL    HW3 2451   2.365   0.427   1.209  0.4697  0.3952 -0.9926
    1SOL    MW4 2452   2.435   0.458   1.252 -0.1185  0.4140 -0.0306
    1SOL     OW 2453   2.436   0.732   1.150  0.0963  0.0374  0.2684
    1SOL    HW2 2454   2.458   0.647   1.189  2.2651  0.0336 -0.9284
    1SOL    HW3 2455   2.443   0.718   1.056 -1.4823  1.0538 -0.0246
    1SOL    MW4 2456   2.440   0.719   1.143  0.1740  0.1709  0.0716
    1SOL     OW 2457   2.229   0.878   1.265  0.3027 -0.1141  0.2236
    1SOL    HW2 2458   2.240   0.862   1.359  0.1497  1.4938  0.5221
    1SOL    HW3 2459   2.297   0.825   1.223  1.0148 -0.0523  1.2932
    1SOL    MW4 2460   2.239   0.869   1.272  0.3765  0.1062  0.4041
    1SOL     OW 2461   2.233   1.139   1.152 -0.1810 -0.2001  0.3110
    1SOL    HW2 2462   2.283   1.207   1.196 -1.1073  1.6711 -1.4226
    1SOL    HW3 2463   2.261   1.058   1.193  1.3292  1.1767  2.0830
    1SOL    MW4 2464   2.243   1.137   1.163 -0.1037  0.2284  0.3160
    1SOL     OW 2465   2.469   1.275   1.298  0.1119  0.4459  0.4293
    1SOL    HW2 2466   2.538   1.220   1.261  0.1148 -0.1702  1.3384
    1SOL    HW3 2467   2.477   1.358   1.251  1.5189  0.4128  0.5924
    1SOL    MW4 2468   2.479   1.278   1.287  0.2980  0.3603  0.5708
    1SOL     OW 2469   2.471   1.489   1.135 -0.1744  0.2381 -0.2908
    1SOL    HW2 2470   2.415   1.564   1.155  0.8603  0.9115  0.1174
    1SOL    HW3 2471   2.479   1.489   1.040  1.2967  1.7388 -0.1815
    1SOL    MW4 2472   2.465   1.499   1.125  0.1559  0.5250 -0.2226
    1SOL     OW 2473   2.283   1.687   1.264 -0.3213 -0.1681 -0.2658
    1SOL    HW2 2474   2.269   1.768   1.215 -1.9188  0.1172  0.6101
    1SOL    HW3 2475   2.208   1.632   1.240 -0.2478 -0.6484  0.5927
    1SOL    MW4 2476   2.271   1.690   1.255 -0.5224 -0.1937 -0.0368
    1SOL     OW 2477   2.280   1.945   1.134  0.2468  0.0648  0.3651
    1SOL    HW2 2478   2.193   1.982   1.145  0.8654  1.5607  0.3710
    1SOL    HW3 2479   2.284   1.921   1.042 -0.3454 -0.4755  0.4774
    1SOL    MW4 2480   2.269   1.947   1.123  0.2503  0.1910  0.3808
    1SOL     OW 2481   2.499   2.048   1.255  0.3645 -0.5588 -0.4151
    1SOL    HW2 2482   2.566   2.011   1.197 -0.1803 -0.2617 -1.2336
    1SOL    HW3 2483   2.419   2.002   1.232  0.0098  0.0261 -0.3483
    1SOL    MW4 2484   2.497   2.037   1.245  0.2458 -0.4425 -0.5143
    1SOL     OW 2485   2.481   2.303   1.137 -0.6096 -0.4855 -0.1357
    1SOL    HW2 2486   2.482   2.219   1.184  2.3831 -0.1996  0.4065
    1SOL    HW3 2487   2.495   2.279   1.045 -0.7370 -0.6424 -0.1152
    1SOL    MW4 2488   2.483   2.289   1.131 -0.2315 -0.4685 -0.0614
    1SOL     OW 2489   2.261   2.460   1.158  0.2269 -0.0341  0.0409
    1SOL    HW2 2490   2.248   2.482   1.251 -0.4604 -0.5491  0.0769
    1SOL    HW3 2491   2.346   2.417   1.155  0.1677 -0.1835  0.4621
    1SOL    MW4 2492   2.270   2.458   1.170  0.1287 -0.1216  0.1011
    1SOL     OW 2493   2.249   2.744   1.059 -0.2204  0.4274  0.2785
    1SOL    HW2 2494   2.258   2.651   1.081 -2.5333 -0.2218 -1.2692
    1SOL    HW3 2495   2.171   2.772   1.107 -0.0865  1.3203 -0.0219
    1SOL    MW4 2496   2.240   2.736   1.068 -0.5081  0.4597  0.0348
    1SOL     OW 2497   2.461   2.831   1.214  0.4127 -0.1185 -0.8545
    1SOL    HW2 2498   2.450   2.817   1.308 -0.2291 -1.0848 -1.0646
    1SOL    HW3 2499   2.378   2.802   1.176  1.2091 -1.1256 -1.8622
    1SOL    MW4 2500   2.448   2.826   1.221  0.4332 -0.3788 -1.0153
    1SOL     OW 2501   2.519   3.099   1.124 -0.0986  0.3206 -0.0060
    1SOL    HW2 2502   2.441   3.150   1.145  0.6613  0.7229  2.0113
    1SOL    HW3 2503   2.506   3.016   1.170 -0.0781 -0.2532 -1.0214
    1SOL    MW4 2504   2.507   3.095   1.133  0.0043  0.2980  0.1262
    1SOL     OW 2505   2.268   3.216   1.204  0.0336 -0.5074  0.1345
    1SOL    HW2 2506   2.277   3.310   1.190 -0.2676 -0.1833  1.9165
    1SOL    HW3 2507   2.174   3.199   1.198  0.0630 -0.6394  0.0476
    1SOL    MW4 2508   2.257   3.226   1.202 -0.0021 -0.4823  0.3582
    1SOL     OW 2509   2.242   3.487   1.128 -0.5061  0.6637  0.0905
    1SOL    HW2 2510   2.327   3.519   1.157 -0.8192  1.4661  0.1339
    1SOL    HW3 2511   2.246   3.493   1.033 -0.7991  1.4344  0.1272
    1SOL    MW4 2512   2.254   3.492   1.119 -0.5860  0.8712  0.1011
    1SOL     OW 2513   2.505   3.544   1.210 -0.0373 -0.4015  0.1652
    1SOL    HW2 2514   2.511   3.548   1.305  2.8773 -0.2773 -0.0025
    1SOL    HW3 2515   2.510   3.635   1.181 -0.3317 -0.4840 -0.1538
    1SOL    MW4 2516   2.506   3.556   1.219  0.3083 -0.3963  0.1009
    1SOL     OW 2517   2.493   3.829   1.130  0.2121 -0.3806  0.0739
    1SOL    HW2 2518   2.422   3.894   1.134  0.2523 -0.3907  1.0271
    1SOL    HW3 2519   2.501   3.809   1.036 -1.4353 -0.8029 -0.0053
    1SOL    MW4 2520   2.484   3.835   1.118  0.0005 -0.4375  0.1893
    1SOL     OW 2521   2.279   4.003   1.157  0.0263 -0.1786  0.1315
    1SOL    HW2 2522   2.252   4.094   1.149  0.6761  0.1388  1.4771
    1SOL    HW3 2523   2.198   3.953   1.147 -0.6006  0.6306  1.1213
    1SOL    MW4 2524   2.265   4.008   1.155  0.0293 -0.0300  0.4396
    1SOL     OW 2525   2.240   4.282   1.158  0.1305  0.2349 -0.1892
    1SOL    HW2 2526   2.173   4.340   1.192 -0.2344 -0.8311  0.9637
    1SOL    HW3 2527   2.235   4.292   1.063 -2.1186 -0.3191 -0.1659
    1SOL    MW4 2528   2.231   4.291   1.150 -0.2143  0.0210 -0.0341
    1SOL     OW 2529   2.489   4.397   1.260 -0.1368  0.6751  0.2131
    1SOL    HW2 2530   2.408   4.353   1.233  0.8285 -0.1824 -1.3827
    1SOL    HW3 2531   2.484   4.483   1.218 -0.5374  0.8818  0.6822
    1SOL    MW4 2532   2.477   4.403   1.251 -0.0625  0.5894  0.0644
    1SOL     OW 2533   2.887   4.619   1.156 -0.3114  0.2879 -0.0360
    1SOL    HW2 2534   2.918   4.532   1.181  0.6714  0.6576  0.0535
    1SOL    HW3 2535   2.892   4.620   1.061  1.6479  0.9644  0.0685
    1SOL    MW4 2536   2.891   4.607   1.147  0.0768  0.4263 -0.0103
    1SOL     OW 2537   2.680   0.116   1.246  0.3248  0.1334  0.1356
    1SOL    HW2 2538   2.689   0.127   1.341  1.5813  0.3884  0.0050
    1SOL    HW3 2539   2.755   0.062   1.221  0.2697  0.4617 -0.7793
    1SOL    MW4 2540   2.691   0.110   1.255  0.4833  0.2103 -0.0023
    1SOL     OW 2541   2.668   0.354   1.106 -0.5151 -0.2644  0.1272
    1SOL    HW2 2542   2.682   0.269   1.148 -0.2577  0.5987  1.8486
    1SOL    HW3 2543   2.592   0.391   1.151 -0.2563  0.6671 -0.1838
    1SOL    MW4 2544   2.660   0.347   1.118 -0.4470 -0.0276  0.3132
    1SOL     OW 2545   2.910   0.474   1.234  0.0488  0.1637 -0.0752
    1SOL    HW2 2546   2.921   0.566   1.213  0.5705 -0.0454 -0.7162
    1SOL    HW3 2547   2.824   0.451   1.199  0.3037  0.1772 -0.7071
    1SOL    MW4 2548   2.900   0.483   1.227  0.1514  0.1379 -0.2433
    1SOL     OW 2549   2.913   0.741   1.172 -0.3343  0.0368 -0.4639
    1SOL    HW2 2550   2.993   0.793   1.183 -0.7999  0.4291  1.1826
    1SOL    HW3 2551   2.843   0.798   1.204 -1.1441 -0.7104 -0.8794
    1SOL    MW4 2552   2.915   0.756   1.178 -0.5028 -0.0101 -0.3016
    1SOL     OW 2553   2.655   0.858   1.270  0.2011  0.3832  0.3041
    1SOL    HW2 2554   2.647   0.950   1.247  0.4873  0.4085  0.3029
    1SOL    HW3 2555   2.588   0.814   1.218  0.8043  0.4467 -0.5425
    1SOL    MW4 2556   2.645   0.864   1.260  0.3188  0.3949  0.1923
    1SOL     OW 2557   2.696   1.140   1.187  0.6336  0.0081  0.8024
    1SOL    HW2 2558   2.697   1.134   1.092 -1.2432  1.4942  0.6588
    1SOL    HW3 2559   2.783   1.175   1.210  1.3165 -0.9333 -0.2839
    1SOL    MW4 2560   2.708   1.144   1.178  0.4764  0.0799  0.6403
    1SOL     OW 2561   2.935   1.274   1.244  0.7599 -0.1002  0.1278
    1SOL    HW2 2562   2.913   1.286   1.336 -2.3793 -1.9024 -0.3204
    1SOL    HW3 2563   2.920   1.360   1.204 -3.0478 -0.5749  0.3782
    1SOL    MW4 2564   2.930   1.287   1.251 -0.1569 -0.4005  0.1018
    1SOL     OW 2565   2.892   1.537   1.134 -0.0290  0.3857  0.1313
    1SOL    HW2 2566   2.964   1.586   1.174 -0.4517  1.2167 -0.1035
    1SOL    HW3 2567   2.911   1.540   1.040  0.2804 -0.4615  0.1579
    1SOL    MW4 2568   2.904   1.544   1.127 -0.0441  0.3836  0.1040
    1SOL     OW 2569   2.679   1.654   1.248 -0.0215  0.1525  0.0315
    1SOL    HW2 2570   2.763   1.622   1.216  0.1770  0.1082  0.6001
    1SOL    HW3 2571   2.614   1.606   1.197  0.3005  0.4899 -0.7014
    1SOL    MW4 2572   2.682   1.643   1.237  0.0474  0.1912  0.0099
    1SOL     OW 2573   2.717   1.909   1.092  0.2783 -0.2125 -0.1074
    1SOL    HW2 2574   2.785   1.962   1.132 -0.0786 -0.3058  0.6247
    1SOL    HW3 2575   2.705   1.836   1.152 -0.4769 -0.1869 -0.2263
    1SOL    MW4 2576   2.724   1.906   1.105  0.1316 -0.2215 -0.0266
    1SOL     OW 2577   2.906   2.060   1.236 -0.8497 -0.2781  0.1399
    1SOL    HW2 2578   2.928   2.089   1.325 -0.7022  0.5455 -0.1648
    1SOL    HW3 2579   2.902   2.140   1.184 -1.4664 -0.7062 -0.4907
    1SOL    MW4 2580   2.908   2.074   1.241 -0.9115 -0.2258  0.0165
    1SOL     OW 2581   2.888   2.297   1.062  0.2853  0.4175 -0.3454
    1SOL    HW2 2582   2.968   2.331   1.103 -0.0705  1.4691 -0.4924
    1SOL    HW3 2583   2.818   2.334   1.115 -0.1300  0.4020 -0.8856
    1SOL    MW4 2584   2.890   2.307   1.074  0.1836  0.5543 -0.4361
    1SOL     OW 2585   2.700   2.429   1.210  0.4439  0.7845 -0.3117
    1SOL    HW2 2586   2.704   2.435   1.306  1.4670 -1.0350 -0.2127
    1SOL    HW3 2587   2.618   2.384   1.193  1.7716 -1.7739 -0.1084
    1SOL    MW4 2588   2.690   2.424   1.221  0.7541  0.2069 -0.2718
    1SOL     OW 2589   2.697   2.669   1.105 -0.0595  0.1254  0.0603
    1SOL    HW2 2590   2.687   2.579   1.134 -1.1839 -0.2567 -1.4239
    1SOL    HW3 2591   2.622   2.715   1.142 -0.5275  0.0214 -0.7413
    1SOL    MW4 2592   2.686   2.664   1.114 -0.2694  0.0613 -0.2412
    1SOL     OW 2593   2.942   2.745   1.215 -0.0949  0.1326  0.0616
    1SOL    HW2 2594   2.924   2.757   1.308 -0.1813  0.6416 -0.0146
    1SOL    HW3 2595   2.859   2.712   1.179  0.5133 -1.8910  0.4845
    1SOL    MW4 2596   2.929   2.742   1.223 -0.0260 -0.0672  0.1072
    1SOL     OW 2597   2.961   3.041   1.125 -0.0901 -0.2138  0.0125
    1SOL    HW2 2598   2.965   2.946   1.139 -0.1052 -0.5289 -2.0099
    1SOL    HW3 2599   2.967   3.052   1.030  0.9544  1.8747  0.2866
    1SOL    MW4 2600   2.963   3.030   1.114  0.0455  0.0203 -0.2183
    1SOL     OW 2601   2.757   3.225   1.188 -0.2059 -0.0946 -0.3183
    1SOL    HW2 2602   2.832   3.166   1.195 -0.1062  0.1335  0.6324
    1SOL    HW3 2603   2.689   3.172   1.148  0.0409 -0.7123  0.0628
    1SOL    MW4 2604   2.758   3.210   1.184 -0.1602 -0.1462 -0.1427
    1SOL     OW 2605   2.753   3.477   1.097  0.1825  0.4380  0.2527
    1SOL    HW2 2606   2.767   3.386   1.123 -0.0026 -0.0699 -1.3387
    1SOL    HW3 2607   2.670   3.501   1.137  0.4204  0.0239  1.0003
    1SOL    MW4 2608   2.744   3.468   1.106  0.1893  0.3164  0.1413
    1SOL     OW 2609   2.963   3.615   1.205 -0.3070 -0.1763 -0.2583
    1SOL    HW2 2610   3.043   3.579   1.167 -0.2317 -0.7682  0.4722
    1SOL    HW3 2611   2.893   3.572   1.156 -0.1847  0.4789 -1.0247
    1SOL    MW4 2612   2.964   3.605   1.193 -0.2809 -0.1676 -0.2630
    1SOL     OW 2613   2.918   3.872   1.140 -0.3211  0.5105 -0.1394
    1SOL    HW2 2614   3.003   3.897   1.176 -0.1355  1.2689 -1.0691
    1SOL    HW3 2615   2.910   3.779   1.159  0.9140  0.3355 -0.4184
    1SOL    MW4 2616   2.928   3.863   1.147 -0.1338  0.5877 -0.2989
    1SOL     OW 2617   2.689   4.003   1.204 -0.2860 -0.1559 -0.7176
    1SOL    HW2 2618   2.769   3.955   1.183 -0.5778 -0.1298 -1.9705
    1SOL    HW3 2619   2.618   3.943   1.180 -0.6519 -0.8214  1.9431
    1SOL    MW4 2620   2.690   3.989   1.198 -0.3729 -0.2396 -0.5319
    1SOL     OW 2621   2.683   4.272   1.123  0.5784 -0.1639 -0.1233
    1SOL    HW2 2622   2.679   4.182   1.155 -0.1003  0.1568  0.7251
    1SOL    HW3 2623   2.611   4.316   1.168  0.0524  0.4828 -1.5770
    1SOL    MW4 2624   2.673   4.266   1.134  0.4196 -0.0362 -0.2033
    1SOL     OW 2625   2.929   4.343   1.219  0.1411 -0.2699 -0.5421
    1SOL    HW2 2626   2.993   4.284   1.180 -0.6245 -0.4730 -1.5075
    1SOL    HW3 2627   2.844   4.310   1.190 -0.4809 -0.5555  1.4614
    1SOL    MW4 2628   2.926   4.331   1.210 -0.0417 -0.3343 -0.4052
    1SOL     OW 2629   3.321   4.623   1.095  0.1829  0.0182  0.1483
    1SOL    HW2 2630   3.400   4.676   1.111 -0.4030  1.0309 -0.2767
    1SOL    HW3 2631   3.254   4.661   1.152  0.1840 -1.2964  1.0358
    1SOL    MW4 2632   3.323   4.635   1.105  0.1054 -0.0219  0.2092
    1SOL     OW 2633   3.100   0.095   1.200  0.0993 -0.2276  0.5292
    1SOL    HW2 2634   3.099   0.111   1.295 -0.0080 -1.7809  0.7955
    1SOL    HW3 2635   3.027   0.034   1.186 -1.0962  1.4660 -0.8267
    1SOL    MW4 2636   3.090   0.089   1.211 -0.0725 -0.2091  0.3854
    1SOL     OW 2637   3.136   0.357   1.104  0.0753 -0.2987 -0.0071
    1SOL    HW2 2638   3.124   0.268   1.138 -1.3026 -0.9758 -2.1990
    1SOL    HW3 2639   3.074   0.410   1.154 -0.3923 -0.8934  0.0499
    1SOL    MW4 2640   3.126   0.353   1.115 -0.1681 -0.4665 -0.2887
    1SOL     OW 2641   3.356   0.465   1.246  0.1821  0.4863 -0.1604
    1SOL    HW2 2642   3.366   0.552   1.205 -0.1169  0.2620 -0.7162
    1SOL    HW3 2643   3.280   0.427   1.202 -0.3879  0.3955  0.8874
    1SOL    MW4 2644   3.347   0.472   1.235  0.0675  0.4447 -0.0955
    1SOL     OW 2645   3.381   0.740   1.142  0.3617  0.0888  0.2832
    1SOL    HW2 2646   3.373   0.710   1.052  0.3102 -0.0613  0.3373
    1SOL    HW3 2647   3.300   0.790   1.158  1.1304  1.5450 -0.2891
    1SOL    MW4 2648   3.369   0.743   1.132  0.4561  0.2611  0.2148
    1SOL     OW 2649   3.156   0.879   1.206 -0.0231 -0.3853  0.2184
    1SOL    HW2 2650   3.162   0.858   1.299 -1.8715 -0.7811  0.2494
    1SOL    HW3 2651   3.160   0.974   1.203 -0.4868 -0.3496  0.7298
    1SOL    MW4 2652   3.158   0.889   1.218 -0.3281 -0.4328  0.2899
    1SOL     OW 2653   3.159   1.141   1.120 -0.5622 -0.2087  0.4775
    1SOL    HW2 2654   3.241   1.188   1.136 -0.5330  0.0848 -0.4900
    1SOL    HW3 2655   3.093   1.193   1.166 -0.5448  0.8555 -0.6646
    1SOL    MW4 2656   3.161   1.154   1.128 -0.5562 -0.0296  0.1991
    1SOL     OW 2657   3.387   1.277   1.196  0.0816  0.1429 -0.3118
    1SOL    HW2 2658   3.376   1.293   1.290 -2.3843 -1.4485 -0.2881
    1SOL    HW3 2659   3.379   1.364   1.156  0.0311  0.6869  0.8606
    1SOL    MW4 2660   3.384   1.291   1.203 -0.2503  0.0049 -0.1541
    1SOL     OW 2661   3.345   1.529   1.080 -0.0754  0.2311 -0.0828
    1SOL    HW2 2662   3.424   1.561   1.122  0.3985  0.2175 -0.9532
    1SOL    HW3 2663   3.273   1.564   1.133  0.5273 -0.3975  1.1605
    1SOL    MW4 2664   3.346   1.538   1.092  0.0668  0.1464 -0.0335
    1SOL     OW 2665   3.136   1.662   1.207  0.6141 -0.3894 -0.4330
    1SOL    HW2 2666   3.135   1.672   1.302  1.6809 -1.4280 -0.2975
    1SOL    HW3 2667   3.140   1.752   1.174  1.1892 -0.0476  0.5230
    1SOL    MW4 2668   3.137   1.675   1.215  0.8307 -0.4812 -0.2891
    1SOL     OW 2669   3.130   1.940   1.112  0.6429  0.1610  0.1728
    1SOL    HW2 2670   3.203   1.991   1.147  0.5379 -0.3073  1.0873
    1SOL    HW3 2671   3.053   1.973   1.160  0.4761 -0.3861  0.2834
    1SOL    MW4 2672   3.129   1.951   1.123  0.6073  0.0271  0.3080
    1SOL     OW 2673   3.374   2.086   1.202  0.1608 -0.3940 -0.1366
    1SOL    HW2 2674   3.447   2.036   1.167  0.0820  0.2835 -1.2984
    1SOL    HW3 2675   3.395   2.177   1.184 -0.1714 -0.0615  1.0628
    1SOL    MW4 2676   3.386   2.091   1.195  0.1066 -0.2606 -0.1317
    1SOL     OW 2677   3.392   2.352   1.112  0.2926 -0.0369  0.0693
    1SOL    HW2 2678   3.447   2.417   1.157 -0.1779 -0.0664  0.6849
    1SOL    HW3 2679   3.303   2.372   1.140  0.1525 -1.0210  0.3376
    1SOL    MW4 2680   3.387   2.364   1.122  0.2120 -0.1705  0.1858
    1SOL     OW 2681   3.126   2.378   1.180  0.1819 -0.3773  0.2049
    1SOL    HW2 2682   3.136   2.387   1.275 -0.0554  0.7090  0.1340
    1SOL    HW3 2683   3.118   2.468   1.148  0.0093 -0.7497 -0.8197
    1SOL    MW4 2684   3.126   2.391   1.188  0.1278 -0.2830  0.0603
    1SOL     OW 2685   3.176   2.637   1.113  0.0966  0.1266  0.1340
    1SOL    HW2 2686   3.102   2.668   1.165  0.7581 -0.7447  1.6295
    1SOL    HW3 2687   3.159   2.669   1.025 -2.3552 -0.5511  0.3282
    1SOL    MW4 2688   3.164   2.645   1.108 -0.1395 -0.0777  0.3569
    1SOL     OW 2689   3.374   2.796   1.222 -0.4914  0.0748  0.3914
    1SOL    HW2 2690   3.353   2.882   1.185 -2.8419  0.1953  1.9353
    1SOL    HW3 2691   3.316   2.735   1.176  1.1839 -0.7570 -0.7189
    1SOL    MW4 2692   3.364   2.799   1.211 -0.5805 -0.0191  0.4486
    1SOL     OW 2693   3.384   3.065   1.118  0.0859 -0.4401  0.5462
    1SOL    HW2 2694   3.455   3.094   1.175 -0.6664 -1.3589  1.9948
    1SOL    HW3 2695   3.305   3.104   1.157 -0.3198 -0.2223 -0.4769
    1SOL    MW4 2696   3.383   3.074   1.131 -0.0668 -0.5324  0.6025
    1SOL     OW 2697   3.163   3.198   1.228  0.0496 -0.1794  0.2364
    1SOL    HW2 2698   3.150   3.208   1.322  0.0256 -0.1280  0.2278
    1SOL    HW3 2699   3.090   3.142   1.200 -0.1178  0.0527  0.1996
    1SOL    MW4 2700   3.151   3.192   1.236  0.0243 -0.1419  0.2306
    1SOL     OW 2701   3.164   3.451   1.080 -0.3694 -0.1358  0.2612
    1SOL    HW2 2702   3.243   3.481   1.126 -0.1567  0.0704 -0.2455
    1SOL    HW3 2703   3.135   3.375   1.132  0.5441 -0.6298  0.0655
    1SOL    MW4 2704   3.171   3.445   1.093 -0.2208 -0.1736  0.1686
    1SOL     OW 2705   3.363   3.587   1.246  0.2891  0.0695  0.2408
    1SOL    HW2 2706   3.375   3.588   1.341  0.0862 -0.5213  0.2740
    1SOL    HW3 2707   3.446   3.555   1.211  0.1950 -0.1807  0.2465
    1SOL    MW4 2708   3.376   3.583   1.254  0.2496 -0.0415  0.2459
    1SOL     OW 2709   3.383   3.829   1.117 -0.5171  0.3270  0.1201
    1SOL    HW2 2710   3.380   3.737   1.143  0.7893  0.5937  1.2745
    1SOL    HW3 2711   3.309   3.869   1.163 -1.3929 -0.2314 -0.7836
    1SOL    MW4 2712   3.373   3.822   1.127 -0.4601  0.2882  0.1531
    1SOL     OW 2713   3.157   3.957   1.212  0.1934 -0.6623 -0.1941
    1SOL    HW2 2714   3.148   3.987   1.303  0.8984 -1.1882  0.0519
    1SOL    HW3 2715   3.165   4.037   1.161 -0.6089 -0.3448  0.1568
    1SOL    MW4 2716   3.157   3.971   1.217  0.1805 -0.6897 -0.1153
    1SOL     OW 2717   3.136   4.201   1.092 -0.1380 -0.1060 -0.3903
    1SOL    HW2 2718   3.198   4.268   1.122 -0.2452  0.5019 -1.5127
    1SOL    HW3 2719   3.145   4.201   0.997 -0.2259 -1.6105 -0.4123
    1SOL    MW4 2720   3.146   4.210   1.083 -0.1636 -0.2241 -0.5413
    1SOL     OW 2721   3.341   4.371   1.225  0.0068 -0.2418 -0.1126
    1SOL    HW2 2722   3.424   4.336   1.194 -1.1925 -1.4146 -2.1429
    1SOL    HW3 2723   3.330   4.453   1.176  0.6068  0.6277  1.1840
    1SOL    MW4 2724   3.350   4.377   1.214 -0.0725 -0.2813 -0.2095
    1SOL     OW 2725   3.790   4.646   1.122  0.6327  0.1039  0.2285
    1SOL    HW2 2726   3.787   4.552   1.138 -2.9734  0.0316 -0.4511
    1SOL    HW3 2727   3.820   4.654   1.031 -0.6234 -0.4483 -0.2283
    1SOL    MW4 2728   3.794   4.635   1.112 -0.0091  0.0215  0.0788
    1SOL     OW 2729   3.551   0.090   1.174 -0.4419 -0.1719  0.0747
    1SOL    HW2 2730   3.564   0.178   1.139 -1.7312  0.3877  0.9900
    1SOL    HW3 2731   3.635   0.046   1.158  0.7847  1.7107  1.0634
    1SOL    MW4 2732   3.564   0.096   1.167 -0.4499  0.1503  0.3258
    1SOL     OW 2733   3.581   0.358   1.112  0.4950 -0.5321 -0.1570
    1SOL    HW2 2734   3.650   0.410   1.153  1.1129 -0.0873 -1.7363
    1SOL    HW3 2735   3.502   0.382   1.160  1.3725 -0.8253  1.4812
    1SOL    MW4 2736   3.580   0.368   1.124  0.6924 -0.5121 -0.1491
    1SOL     OW 2737   3.811   0.491   1.223 -0.6311  0.4332 -0.3040
    1SOL    HW2 2738   3.895   0.467   1.184 -1.3948 -1.3953 -0.8605
    1SOL    HW3 2739   3.806   0.586   1.211  1.7172  0.6935  0.4742
    1SOL    MW4 2740   3.821   0.501   1.216 -0.4218  0.2263 -0.2747
    1SOL     OW 2741   3.815   0.747   1.134 -0.1904 -0.2969  0.8324
    1SOL    HW2 2742   3.892   0.801   1.152 -0.5324  0.1806  0.8778
    1SOL    HW3 2743   3.741   0.800   1.165 -0.7135  0.1415 -1.1314
    1SOL    MW4 2744   3.815   0.761   1.141 -0.3042 -0.1760  0.5792
    1SOL     OW 2745   3.602   0.874   1.230  0.0638 -0.5779  0.1059
    1SOL    HW2 2746   3.602   0.963   1.196  0.1102  0.1475  1.9322
    1SOL    HW3 2747   3.520   0.836   1.200  0.6581 -0.3824 -1.8082
    1SOL    MW4 2748   3.591   0.881   1.222  0.1485 -0.4565  0.0942
    1SOL     OW 2749   3.603   1.121   1.134  0.4280  0.1249  0.4406
    1SOL    HW2 2750   3.677   1.173   1.167 -0.2170  1.5071 -0.2564
    1SOL    HW3 2751   3.526   1.172   1.157 -0.2092 -0.4403 -0.4143
    1SOL    MW4 2752   3.603   1.135   1.142  0.2592  0.2327  0.2358
    1SOL     OW 2753   3.812   1.275   1.243  0.1896  0.2619  0.0471
    1SOL    HW2 2754   3.810   1.276   1.339  1.8660 -0.4379  0.0999
    1SOL    HW3 2755   3.817   1.367   1.218 -0.1350  0.4381  0.6255
    1SOL    MW4 2756   3.812   1.287   1.252  0.3681  0.1928  0.1303
    1SOL     OW 2757   3.827   1.525   1.138 -0.2166  0.4174  0.2855
    1SOL    HW2 2758   3.909   1.575   1.141  0.0599  0.1602 -2.2949
    1SOL    HW3 2759   3.818   1.499   1.047 -2.5121 -0.7094  0.8059
    1SOL    MW4 2760   3.837   1.528   1.126 -0.4830  0.2348  0.0137
    1SOL     OW 2761   3.588   1.643   1.211 -0.6947 -0.3930 -0.0650
    1SOL    HW2 2762   3.567   1.726   1.168  0.4157  1.9394  3.6288
    1SOL    HW3 2763   3.672   1.617   1.172 -1.6352 -0.4220 -2.0972
    1SOL    MW4 2764   3.597   1.651   1.200 -0.6726 -0.0892  0.1543
    1SOL     OW 2765   3.545   1.886   1.091 -0.2981  0.3264  0.3413
    1SOL    HW2 2766   3.632   1.917   1.115 -0.2571  0.8444 -0.4754
    1SOL    HW3 2767   3.544   1.888   0.996 -1.0028 -0.2452  0.3314
    1SOL    MW4 2768   3.556   1.890   1.082 -0.3855  0.3192  0.2322
    1SOL     OW 2769   4.017   1.943   1.101  0.0190  0.2646 -0.8406
    1SOL    HW2 2770   3.929   1.966   1.129 -0.1962 -0.4897 -0.8806
    1SOL    HW3 2771   4.043   1.871   1.159  1.9472  2.7093  1.4464
    1SOL    MW4 2772   4.009   1.936   1.112  0.2451  0.4877 -0.5441
    1SOL     OW 2773   3.766   2.052   1.176  0.0829  0.2995 -0.0130
    1SOL    HW2 2774   3.775   2.143   1.150  2.0620  0.2065  0.2839
    1SOL    HW3 2775   3.751   2.056   1.271 -2.1925  0.4110 -0.3619
    1SOL    MW4 2776   3.765   2.064   1.185  0.0439  0.3021 -0.0199
    1SOL     OW 2777   3.598   2.470   1.233  0.3339  0.3081  0.0829
    1SOL    HW2 2778   3.592   2.472   1.328 -0.5239 -0.4497  0.0545
    1SOL    HW3 2779   3.667   2.407   1.213 -0.1181 -0.2304  0.1949
    1SOL    MW4 2780   3.606   2.462   1.243  0.1612  0.1371  0.0941
    1SOL     OW 2781   3.634   2.741   1.138  0.3770  0.2190  0.3215
    1SOL    HW2 2782   3.626   2.649   1.164  0.2241 -0.4461 -2.0106
    1SOL    HW3 2783   3.550   2.780   1.162 -0.3016 -0.7224 -0.5104
    1SOL    MW4 2784   3.622   2.734   1.145  0.2670  0.0072 -0.0960
    1SOL     OW 2785   3.874   2.826   1.234  0.0189 -0.5714 -0.3666
    1SOL    HW2 2786   3.862   2.821   1.329 -0.2106 -1.1744 -0.4267
    1SOL    HW3 2787   3.797   2.783   1.198 -0.7491  1.2031 -0.8616
    1SOL    MW4 2788   3.863   2.819   1.242 -0.1128 -0.4165 -0.4399
    1SOL     OW 2789   3.833   3.075   1.128 -0.4460  0.1548  0.4464
    1SOL    HW2 2790   3.861   2.988   1.156 -1.4104 -0.2654  0.1141
    1SOL    HW3 2791   3.836   3.071   1.032 -1.1953  0.2508  0.4162
    1SOL    MW4 2792   3.837   3.063   1.119 -0.6721  0.1118  0.3986
    1SOL     OW 2793   3.596   3.198   1.259 -0.2299  0.0542 -0.4090
    1SOL    HW2 2794   3.588   3.271   1.199 -0.4131 -0.0337 -0.4927
    1SOL    HW3 2795   3.681   3.158   1.239 -0.0005  0.4180 -0.1663
    1SOL    MW4 2796   3.606   3.202   1.249 -0.2241  0.0906 -0.3880
    1SOL     OW 2797   3.569   3.445   1.116 -0.2526  0.0072  0.2058
    1SOL    HW2 2798   3.657   3.473   1.140 -0.2595 -0.2336  0.5291
    1SOL    HW3 2799   3.564   3.455   1.021  0.3290 -0.5701  0.1157
    1SOL    MW4 2800   3.580   3.450   1.107 -0.1767 -0.1009  0.2366
    1SOL     OW 2801   3.819   3.583   1.216  0.5176  0.0612 -0.0389
    1SOL    HW2 2802   3.801   3.593   1.309 -0.5269  1.4306 -0.3645
    1SOL    HW3 2803   3.834   3.673   1.185 -3.0782  0.0929 -1.9462
    1SOL    MW4 2804   3.818   3.596   1.224 -0.0944  0.2460 -0.3334
    1SOL     OW 2805   3.834   3.886   1.177  0.2191  0.0123 -0.2313
    1SOL    HW2 2806   3.757   3.933   1.208  0.0911 -0.4472  0.1472
    1SOL    HW3 2807   3.837   3.905   1.083  0.7540  1.6020  0.0938
    1SOL    MW4 2808   3.824   3.894   1.169  0.2728  0.1612 -0.1384
    1SOL     OW 2809   3.571   4.009   1.240 -0.0498  0.2662 -0.2143
    1SOL    HW2 2810   3.569   3.983   1.332  0.8110  0.2934 -0.1869
    1SOL    HW3 2811   3.523   3.939   1.195  0.4786 -0.3073  0.1176
    1SOL    MW4 2812   3.564   3.996   1.246  0.1335  0.1941 -0.1669
    1SOL     OW 2813   3.610   4.244   1.101 -0.2273 -0.4754 -0.2912
    1SOL    HW2 2814   3.592   4.156   1.133  0.5493 -0.9657 -1.2019
    1SOL    HW3 2815   3.628   4.233   1.008 -0.4149  0.6841 -0.4756
    1SOL    MW4 2816   3.610   4.231   1.093 -0.1495 -0.3872 -0.4358
    1SOL     OW 2817   3.831   4.383   1.218  0.0191  0.4642 -0.3674
    1SOL    HW2 2818   3.834   4.380   1.314  0.3735  0.3765 -0.3809
    1SOL    HW3 2819   3.749   4.338   1.196 -0.4578  1.1843 -0.0751
    1SOL    MW4 2820   3.821   4.377   1.228  0.0029  0.5474 -0.3306
    1SOL     OW 2821   4.241   4.608   1.113  0.0104 -0.0102  0.2564
    1SOL    HW2 2822   4.245   4.522   1.155 -1.2943 -0.3616 -0.3199
    1SOL    HW3 2823   4.165   4.651   1.154 -0.3236  0.2393 -0.6185
    1SOL    MW4 2824   4.231   4.602   1.124 -0.2060 -0.0234  0.0648
    1SOL     OW 2825   4.030   0.095   1.253  0.0600  0.1062 -0.4111
    1SOL    HW2 2826   4.005   0.105   1.345  0.1319 -0.4337 -0.3351
    1SOL    HW3 2827   3.959   0.043   1.215 -0.3897  1.0241 -0.8504
    1SOL    MW4 2828   4.017   0.090   1.260  0.0105  0.1561 -0.4592
    1SOL     OW 2829   4.049   0.362   1.141  0.1974 -0.1174 -0.3931
    1SOL    HW2 2830   4.042   0.275   1.181  0.7757  0.1505  0.2914
    1SOL    HW3 2831   4.044   0.345   1.047  0.3279 -0.8939 -0.2686
    1SOL    MW4 2832   4.047   0.348   1.134  0.2913 -0.1845 -0.2866
    1SOL     OW 2833   4.274   0.485   1.235  0.6859 -0.3157  0.1320
    1SOL    HW2 2834   4.265   0.472   1.329 -0.9263  0.0455  0.0541
    1SOL    HW3 2835   4.192   0.451   1.198 -0.3924  3.0079 -0.7360
    1SOL    MW4 2836   4.262   0.479   1.243  0.3309  0.1705  0.0072
    1SOL     OW 2837   4.236   0.749   1.123 -0.0223  0.0667 -0.1543
    1SOL    HW2 2838   4.258   0.664   1.161 -0.0303 -0.6798 -1.7614
    1SOL    HW3 2839   4.310   0.805   1.144  1.3684 -1.1700 -1.6180
    1SOL    MW4 2840   4.248   0.745   1.131  0.1602 -0.1950 -0.5593
    1SOL     OW 2841   4.016   0.896   1.222  0.0581  0.2995 -0.3159
    1SOL    HW2 2842   4.016   0.901   1.318 -0.3160  0.2569 -0.3128
    1SOL    HW3 2843   4.099   0.852   1.201 -0.6790 -1.3143  0.0778
    1SOL    MW4 2844   4.027   0.891   1.232 -0.0887  0.0811 -0.2636
    1SOL     OW 2845   4.033   1.148   1.106 -0.2196 -0.1483 -0.2667
    1SOL    HW2 2846   4.026   1.061   1.147 -0.6080 -0.3546 -0.7739
    1SOL    HW3 2847   3.972   1.202   1.155  0.4567 -0.0071  0.4399
    1SOL    MW4 2848   4.024   1.143   1.118 -0.1812 -0.1569 -0.2404
    1SOL     OW 2849   4.253   1.286   1.167 -0.0814 -0.2868  0.4144
    1SOL    HW2 2850   4.243   1.298   1.262  0.4587 -0.2918  0.4765
    1SOL    HW3 2851   4.173   1.241   1.140  0.4237 -1.6342  1.1144
    1SOL    MW4 2852   4.241   1.282   1.176  0.0558 -0.4652  0.5150
    1SOL     OW 2853   4.259   1.558   1.114 -0.3933 -0.4637  0.0311
    1SOL    HW2 2854   4.256   1.462   1.119 -0.6885 -0.4720 -0.2251
    1SOL    HW3 2855   4.338   1.582   1.160 -0.2644 -0.8408  0.0126
    1SOL    MW4 2856   4.269   1.548   1.120 -0.4148 -0.5146 -0.0051
    1SOL     OW 2857   4.053   1.711   1.220  0.2012 -0.0259  0.6576
    1SOL    HW2 2858   4.047   1.702   1.315  0.1734  0.3708  0.6950
    1SOL    HW3 2859   4.122   1.650   1.194  0.3909  0.0571  0.9655
    1SOL    MW4 2860   4.061   1.702   1.229  0.2222  0.0376  0.7032
    1SOL     OW 2861   3.432   2.117   0.481  0.1093  0.0509  0.5214
    1SOL    HW2 2862   3.393   2.033   0.457 -0.5486  0.4078  0.3070
    1SOL    HW3 2863   3.525   2.099   0.492  0.2661 -0.3378 -1.2976
    1SOL    MW4 2864   3.439   2.104   0.479  0.0434  0.0467  0.2531
    1SOL     OW 2865   4.229   2.105   1.222 -0.3224 -0.0635  0.0003
    1SOL    HW2 2866   4.232   2.189   1.176 -0.0267 -0.2925 -0.3986
    1SOL    HW3 2867   4.164   2.054   1.175  1.7844 -1.2203 -1.7451
    1SOL    MW4 2868   4.221   2.109   1.210 -0.0052 -0.2465 -0.2825
    1SOL     OW 2869   4.291   2.357   1.099  0.3190  0.1855 -0.2576
    1SOL    HW2 2870   4.216   2.398   1.143  0.1765 -0.1937 -0.1355
    1SOL    HW3 2871   4.276   2.372   1.006  0.0984  0.1309 -0.2315
    1SOL    MW4 2872   4.279   2.364   1.093  0.2713  0.1283 -0.2381
    1SOL     OW 2873   4.046   2.444   1.206  0.3919 -0.5014 -0.3559
    1SOL    HW2 2874   4.031   2.437   1.300 -0.7691 -0.7650 -0.5541
    1SOL    HW3 2875   4.056   2.538   1.190  0.1914 -0.4249 -0.0298
    1SOL    MW4 2876   4.045   2.455   1.216  0.2117 -0.5260 -0.3392
    1SOL     OW 2877   4.104   2.715   1.140 -0.6253 -0.2938  0.0125
    1SOL    HW2 2878   4.030   2.765   1.174 -1.3496  0.3774 -2.4314
    1SOL    HW3 2879   4.088   2.709   1.046  0.1877 -3.8869  0.0075
    1SOL    MW4 2880   4.092   2.721   1.132 -0.6137 -0.6795 -0.3107
    1SOL     OW 2881   4.343   2.822   1.228 -0.2265  0.1228  0.2751
    1SOL    HW2 2882   4.324   2.894   1.168  0.6342  0.6342  0.6007
    1SOL    HW3 2883   4.272   2.760   1.215  0.2624 -0.0486 -1.7166
    1SOL    MW4 2884   4.331   2.823   1.218 -0.0486  0.1676  0.0553
    1SOL     OW 2885   4.295   3.077   1.111  0.2389 -0.0463  0.1637
    1SOL    HW2 2886   4.213   3.124   1.130  0.1392 -0.3897  0.5654
    1SOL    HW3 2887   4.296   3.071   1.015 -0.0816  0.1811  0.1429
    1SOL    MW4 2888   4.284   3.082   1.101  0.1836 -0.0618  0.2140
    1SOL     OW 2889   4.072   3.189   1.218  0.1591  0.3016 -0.3739
    1SOL    HW2 2890   4.071   3.195   1.314 -0.8867 -1.2835 -0.2517
    1SOL    HW3 2891   3.984   3.159   1.196  0.5951  0.0384 -1.7870
    1SOL    MW4 2892   4.060   3.186   1.228  0.0782  0.0579 -0.5442
    1SOL     OW 2893   4.056   3.450   1.134  0.3087 -0.4212 -0.0577
    1SOL    HW2 2894   4.066   3.361   1.169  0.8451 -0.4126 -0.1892
    1SOL    HW3 2895   3.972   3.480   1.169  0.7861 -0.4535  1.1329
    1SOL    MW4 2896   4.047   3.442   1.143  0.4425 -0.4246  0.0821
    1SOL     OW 2897   4.285   3.612   1.219  0.2137  0.0848  0.1730
    1SOL    HW2 2898   4.214   3.553   1.193  0.5609  0.3945 -1.4924
    1SOL    HW3 2899   4.365   3.569   1.191  0.5281  0.9223 -0.2289
    1SOL    MW4 2900   4.286   3.598   1.212  0.3014  0.2360 -0.0998
    1SOL     OW 2901   4.288   3.870   1.115 -0.1005 -0.3105  0.5533
    1SOL    HW2 2902   4.217   3.915   1.162 -1.2742 -0.1761 -1.3094
    1SOL    HW3 2903   4.294   3.785   1.158 -0.9898 -0.1078  1.1064
    1SOL    MW4 2904   4.280   3.865   1.127 -0.3729 -0.2658  0.3806
    1SOL     OW 2905   4.074   4.014   1.218  0.3264  0.1750 -0.2028
    1SOL    HW2 2906   4.060   4.103   1.184 -0.4838  0.1595  0.0902
    1SOL    HW3 2907   3.987   3.974   1.217  0.6701 -0.5711 -0.1998
    1SOL    MW4 2908   4.061   4.021   1.213  0.2651  0.0749 -0.1637
    1SOL     OW 2909   4.060   4.271   1.127 -0.4764 -0.2819  0.3168
    1SOL    HW2 2910   3.984   4.319   1.160 -0.2183  1.2069 -1.2028
    1SOL    HW3 2911   4.062   4.291   1.033  1.4781 -0.7320  0.2467
    1SOL    MW4 2912   4.050   4.280   1.119 -0.1841 -0.1450  0.1070
    1SOL     OW 2913   4.268   4.371   1.252 -0.6534  0.4286 -0.7930
    1SOL    HW2 2914   4.189   4.335   1.211  0.4834 -0.7125 -2.0447
    1SOL    HW3 2915   4.340   4.322   1.212  0.7118  1.6405  0.1273
    1SOL    MW4 2916   4.267   4.360   1.241 -0.3233  0.4377 -0.8367
    1SOL     OW 2917   0.229   4.652   1.594 -0.3774  0.0559  0.2608
    1SOL    HW2 2918   0.294   4.696   1.540 -1.0029  1.5193  0.6718
    1SOL    HW3 2919   0.146   4.696   1.573 -0.7828  0.0203  1.7073
    1SOL    MW4 2920   0.226   4.663   1.584 -0.5134  0.2443  0.5058
    1SOL     OW 2921   4.473   0.088   1.545  0.1232 -0.2141  0.2832
    1SOL    HW2 2922   4.390   0.051   1.575 -0.7270  0.9157 -0.6093
    1SOL    HW3 2923   4.472   0.075   1.450  1.7798 -1.7684  0.4524
    1SOL    MW4 2924   4.462   0.081   1.536  0.2298 -0.2701  0.1876
    1SOL     OW 2925   0.006   0.359   1.580  0.5324  0.7203 -0.4070
    1SOL    HW2 2926   0.005   0.356   1.675  2.7239  0.9431 -0.3498
    1SOL    HW3 2927  -0.009   0.269   1.552  0.1838  0.6060  0.1568
    1SOL    MW4 2928   0.004   0.347   1.589  0.7758  0.7347 -0.3251
    1SOL     OW 2929   0.232   0.500   1.475  0.2326 -0.4155 -0.4712
    1SOL    HW2 2930   0.167   0.433   1.496 -0.6158  0.6155  0.2212
    1SOL    HW3 2931   0.219   0.519   1.383 -0.2906 -0.3718 -0.3868
    1SOL    MW4 2932   0.222   0.494   1.466  0.0517 -0.2737 -0.3688
    1SOL     OW 2933   0.197   0.750   1.614 -0.3470 -0.0524 -0.1466
    1SOL    HW2 2934   0.197   0.671   1.559 -0.4148 -0.0533 -0.1445
    1SOL    HW3 2935   0.275   0.798   1.585 -0.5836  0.1196 -0.4909
    1SOL    MW4 2936   0.207   0.746   1.603 -0.3871 -0.0298 -0.1918
    1SOL     OW 2937   0.021   0.887   1.464  0.2655  0.0860  0.0709
    1SOL    HW2 2938   0.016   0.974   1.506 -0.9904  1.3348 -2.5387
    1SOL    HW3 2939   0.081   0.837   1.519 -0.6067  1.9550  2.8110
    1SOL    MW4 2940   0.028   0.892   1.477 -0.0157  0.4973  0.0882
    1SOL     OW 2941   4.476   1.140   1.567  0.0447  0.4950  0.5931
    1SOL    HW2 2942   4.474   1.155   1.662 -0.4896 -0.8654  0.8136
    1SOL    HW3 2943   4.552   1.190   1.537  0.8497  0.0936  1.8954
    1SOL    MW4 2944   4.486   1.149   1.576  0.0801  0.2626  0.7939
    1SOL     OW 2945   0.199   1.300   1.494  0.2305  0.0634  0.1606
    1SOL    HW2 2946   0.267   1.240   1.523  0.5895  0.3724 -0.0281
    1SOL    HW3 2947   0.210   1.378   1.548 -0.5755 -0.2376  0.7752
    1SOL    MW4 2948   0.209   1.302   1.505  0.1715  0.0644  0.2168
    1SOL     OW 2949   0.240   1.542   1.617  0.6424 -0.1098 -0.2717
    1SOL    HW2 2950   0.231   1.538   1.713 -1.0000 -0.7714 -0.4309
    1SOL    HW3 2951   0.169   1.600   1.589 -0.6627 -2.1694 -1.3106
    1SOL    MW4 2952   0.229   1.549   1.626  0.2535 -0.4690 -0.4297
    1SOL     OW 2953   0.004   1.706   1.533 -0.2274 -0.2069  0.0003
    1SOL    HW2 2954  -0.000   1.799   1.553 -0.3148 -0.1262 -0.3804
    1SOL    HW3 2955  -0.006   1.702   1.438  0.0469 -0.5838 -0.0145
    1SOL    MW4 2956   0.002   1.717   1.523 -0.2031 -0.2460 -0.0519
    1SOL     OW 2957   4.479   1.970   1.600 -0.4214  0.7162  0.1092
    1SOL    HW2 2958   4.468   1.979   1.694 -1.1458 -0.5611  0.1614
    1SOL    HW3 2959   4.393   1.990   1.563 -0.3246  0.5281 -0.2247
    1SOL    MW4 2960   4.466   1.974   1.607 -0.5040  0.5227  0.0720
    1SOL     OW 2961   0.235   2.050   1.498 -0.1143 -0.2010  0.3695
    1SOL    HW2 2962   0.148   2.025   1.529  0.0974 -0.3426  0.8650
    1SOL    HW3 2963   0.222   2.073   1.406 -0.7062 -0.0399  0.4901
    1SOL    MW4 2964   0.222   2.049   1.490 -0.1645 -0.1984  0.4507
    1SOL     OW 2965   0.251   2.310   1.551  0.2397 -0.2109  0.0757
    1SOL    HW2 2966   0.246   2.316   1.647  0.1588 -0.5023  0.0894
    1SOL    HW3 2967   0.251   2.216   1.533 -0.3441 -0.1460 -0.2430
    1SOL    MW4 2968   0.251   2.298   1.561  0.1520 -0.2408  0.0355
    1SOL     OW 2969   4.490   2.442   1.489 -0.1932 -0.0553  0.5678
    1SOL    HW2 2970   4.423   2.384   1.523  0.3006 -0.9280  0.0687
    1SOL    HW3 2971   4.573   2.401   1.513  0.1664  0.6484  0.5606
    1SOL    MW4 2972   4.492   2.429   1.496 -0.0801 -0.0775  0.5009
    1SOL     OW 2973   4.485   2.679   1.636 -0.1781  0.2175 -0.0740
    1SOL    HW2 2974   4.411   2.725   1.599  0.2682  1.6317  0.7485
    1SOL    HW3 2975   4.479   2.590   1.601 -1.9286  0.4779 -0.4370
    1SOL    MW4 2976   4.475   2.673   1.626 -0.3500  0.4385 -0.0136
    1SOL     OW 2977   0.188   2.818   1.498  0.2850 -0.1460  0.3057
    1SOL    HW2 2978   0.275   2.778   1.488 -0.0199 -0.4915 -1.0512
    1SOL    HW3 2979   0.135   2.748   1.537  0.0336 -0.7060 -1.0296
    1SOL    MW4 2980   0.193   2.803   1.502  0.2116 -0.2654 -0.0496
    1SOL     OW 2981   0.218   3.081   1.579  0.0617 -0.4602  0.4302
    1SOL    HW2 2982   0.126   3.108   1.570  0.0313 -0.3648  1.0570
    1SOL    HW3 2983   0.216   2.986   1.564 -0.1572 -0.4808  0.5887
    1SOL    MW4 2984   0.205   3.072   1.576  0.0288 -0.4504  0.5337
    1SOL     OW 2985   4.479   3.207   1.507  0.1993  0.6131  0.4655
    1SOL    HW2 2986   4.473   3.300   1.529 -0.7000  1.1008 -1.7219
    1SOL    HW3 2987   4.484   3.206   1.411 -1.0592 -1.6512  0.4019
    1SOL    MW4 2988   4.479   3.219   1.497 -0.0854  0.3786  0.1686
    1SOL     OW 2989   4.490   3.483   1.621 -0.2682 -0.3258  0.6356
    1SOL    HW2 2990   4.463   3.475   1.713  0.4714  0.7806  0.9676
    1SOL    HW3 2991   4.426   3.544   1.583 -1.3009 -1.7152  0.0874
    1SOL    MW4 2992   4.478   3.490   1.628 -0.3068 -0.3633  0.6071
    1SOL     OW 2993   0.213   3.634   1.548 -0.2825  0.2865  0.0883
    1SOL    HW2 2994   0.197   3.723   1.580 -0.3060  0.3573 -0.1194
    1SOL    HW3 2995   0.139   3.583   1.582  0.0913  0.2028  0.7785
    1SOL    MW4 2996   0.201   3.639   1.557 -0.2363  0.2847  0.1520
    1SOL     OW 2997   0.223   3.903   1.652 -0.3824 -0.2655 -0.6341
    1SOL    HW2 2998   0.235   3.887   1.746 -0.6830  0.9343 -0.3906
    1SOL    HW3 2999   0.307   3.938   1.623 -0.7663  0.7697 -0.5080
    1SOL    MW4 3000   0.236   3.905   1.661 -0.4727  0.0296 -0.5854
    1SOL     OW 3001   0.001   4.028   1.522 -0.0377 -0.0864 -0.7262
    1SOL    HW2 3002  -0.007   4.118   1.553 -0.2530 -0.6578  0.9386
    1SOL    HW3 3003   0.079   3.994   1.566 -0.9274 -1.2294  0.0141
    1SOL    MW4 3004   0.010   4.035   1.532 -0.1835 -0.3123 -0.4090
    1SOL     OW 3005   0.001   4.279   1.650  0.2401 -0.4994 -0.0212
    1SOL    HW2 3006  -0.016   4.257   1.742 -0.7311 -2.1101 -0.5635
    1SOL    HW3 3007  -0.076   4.327   1.621  0.5175 -0.0487 -0.0200
    1SOL    MW4 3008  -0.011   4.282   1.658  0.1483 -0.6518 -0.0925
    1SOL     OW 3009   0.218   4.387   1.499 -0.3310 -0.7043  0.3637
    1SOL    HW2 3010   0.143   4.358   1.551 -0.0778  0.6036  1.4660
    1SOL    HW3 3011   0.229   4.479   1.521 -0.0253 -0.1898 -1.7708
    1SOL    MW4 3012   0.209   4.395   1.509 -0.2573 -0.4640  0.2277
    1SOL     OW 3013   0.680   4.639   1.577 -0.4360  0.2806  0.1148
    1SOL    HW2 3014   0.759   4.683   1.545 -0.2588  0.9595  1.4204
    1SOL    HW3 3015   0.608   4.697   1.550 -0.3822  0.2813 -0.0274
    1SOL    MW4 3016   0.681   4.652   1.569 -0.4055  0.3705  0.2685
    1SOL     OW 3017   0.460   0.118   1.475 -0.2149  0.1969 -0.1042
    1SOL    HW2 3018   0.450   0.208   1.507  0.1190  0.2841 -0.2455
    1SOL    HW3 3019   0.475   0.128   1.381  1.0376  0.0571  0.0760
    1SOL    MW4 3020   0.461   0.131   1.467 -0.0056  0.1900 -0.0991
    1SOL     OW 3021   0.463   0.398   1.566  0.0495 -0.1056  0.3787
    1SOL    HW2 3022   0.538   0.447   1.532  0.5971 -0.2966  1.2921
    1SOL    HW3 3023   0.387   0.450   1.541  0.6666  1.5690  1.8938
    1SOL    MW4 3024   0.463   0.411   1.558  0.2031  0.0901  0.6990
    1SOL     OW 3025   0.693   0.514   1.463  0.0738  0.6156 -0.1851
    1SOL    HW2 3026   0.671   0.602   1.494 -1.9637  0.2776 -0.6053
    1SOL    HW3 3027   0.661   0.512   1.373 -2.0743 -1.3192  0.5844
    1SOL    MW4 3028   0.686   0.526   1.455 -0.4784  0.3157 -0.1390
    1SOL     OW 3029   0.626   0.773   1.549 -0.4716 -0.4021 -0.3517
    1SOL    HW2 3030   0.628   0.778   1.644  0.0984  0.0249 -0.3792
    1SOL    HW3 3031   0.708   0.816   1.521  0.0727 -1.8015 -0.9691
    1SOL    MW4 3032   0.637   0.779   1.558 -0.3245 -0.5305 -0.4368
    1SOL     OW 3033   0.388   0.901   1.498  0.2635 -0.0706 -0.0899
    1SOL    HW2 3034   0.394   0.991   1.531 -1.7641 -0.4933  1.5628
    1SOL    HW3 3035   0.472   0.862   1.518  0.6549  1.0435  0.4914
    1SOL    MW4 3036   0.400   0.908   1.505  0.0476  0.0206  0.2048
    1SOL     OW 3037   0.417   1.159   1.593  1.0551 -0.6336 -0.0140
    1SOL    HW2 3038   0.482   1.221   1.560  0.1655 -0.1154 -0.8094
    1SOL    HW3 3039   0.423   1.165   1.688  0.8854  0.7525 -0.0896
    1SOL    MW4 3040   0.426   1.168   1.601  0.9153 -0.3824 -0.1290
    1SOL     OW 3041   0.631   1.284   1.483  0.6778 -0.1210 -0.4069
    1SOL    HW2 3042   0.663   1.371   1.510  1.7163 -0.8014  0.6059
    1SOL    HW3 3043   0.636   1.285   1.388  0.0672  1.1658 -0.4381
    1SOL    MW4 3044   0.636   1.296   1.474  0.7343 -0.0409 -0.2773
    1SOL     OW 3045   0.698   1.556   1.608 -0.1535 -0.0876 -0.2621
    1SOL    HW2 3046   0.768   1.613   1.577  0.6706 -0.6128  0.6408
    1SOL    HW3 3047   0.620   1.587   1.562  0.4557  1.2107 -0.4286
    1SOL    MW4 3048   0.697   1.568   1.598  0.0356  0.0143 -0.1650
    1SOL     OW 3049   0.457   1.642   1.511  0.3665 -0.3474 -0.1031
    1SOL    HW2 3050   0.450   1.735   1.534  0.4100 -0.9838  2.6127
    1SOL    HW3 3051   0.377   1.602   1.544  0.2252 -1.2544 -1.4947
    1SOL    MW4 3052   0.446   1.649   1.518  0.3535 -0.5510  0.0716
    1SOL     OW 3053   0.462   1.917   1.556  0.0209 -0.1829  0.2450
    1SOL    HW2 3054   0.465   1.920   1.651 -1.1859 -2.3315  0.3880
    1SOL    HW3 3055   0.380   1.960   1.532 -0.8568 -1.7319  0.3551
    1SOL    MW4 3056   0.452   1.923   1.565 -0.2541 -0.6708  0.2784
    1SOL     OW 3057   0.684   2.070   1.472  0.2518 -0.1394 -0.4611
    1SOL    HW2 3058   0.756   2.033   1.524  0.4703  0.5256 -0.2902
    1SOL    HW3 3059   0.609   2.014   1.492  0.0236  0.8647  1.5435
    1SOL    MW4 3060   0.684   2.058   1.481  0.2505  0.0808 -0.1740
    1SOL     OW 3061   0.669   2.329   1.570  0.3084 -0.1083 -0.0938
    1SOL    HW2 3062   0.595   2.369   1.525  0.4433 -0.3868 -0.5704
    1SOL    HW3 3063   0.663   2.236   1.548  0.2994 -0.2707  0.5731
    1SOL    MW4 3064   0.659   2.322   1.561  0.3250 -0.1664 -0.0687
    1SOL     OW 3065   0.462   2.454   1.431  0.1085 -0.1294 -0.2798
    1SOL    HW2 3066   0.448   2.537   1.477 -0.2297 -0.8518  0.9476
    1SOL    HW3 3067   0.392   2.397   1.463  0.3772 -0.9114 -1.0670
    1SOL    MW4 3068   0.451   2.458   1.442  0.0993 -0.3278 -0.2216
    1SOL     OW 3069   0.449   2.707   1.545 -0.0231 -0.2867  0.3915
    1SOL    HW2 3070   0.462   2.711   1.640  0.6845 -1.4460  0.3502
    1SOL    HW3 3071   0.528   2.749   1.509  0.0490 -0.4979  0.3022
    1SOL    MW4 3072   0.461   2.713   1.553  0.0798 -0.4675  0.3743
    1SOL     OW 3073   0.686   2.824   1.457 -0.6338 -0.4199 -0.6241
    1SOL    HW2 3074   0.674   2.913   1.489 -0.5276 -0.5160 -0.3161
    1SOL    HW3 3075   0.761   2.790   1.506 -1.4095 -1.0856  0.1103
    1SOL    MW4 3076   0.694   2.831   1.467 -0.7221 -0.5205 -0.4865
    1SOL     OW 3077   0.694   3.083   1.577 -0.1553 -0.6427 -0.0489
    1SOL    HW2 3078   0.767   3.128   1.533 -0.9418  0.8251  0.1138
    1SOL    HW3 3079   0.617   3.137   1.556 -0.5543  0.0604  3.0488
    1SOL    MW4 3080   0.694   3.096   1.568 -0.3117 -0.3562  0.3814
    1SOL     OW 3081   0.458   3.216   1.504 -0.2931 -0.0306 -0.0822
    1SOL    HW2 3082   0.383   3.162   1.529 -1.0434 -0.0794 -2.2888
    1SOL    HW3 3083   0.452   3.223   1.409  1.8897  0.8937 -0.1977
    1SOL    MW4 3084   0.448   3.210   1.495 -0.1041  0.0849 -0.3885
    1SOL     OW 3085   0.459   3.504   1.621  0.1416 -0.0050 -0.4351
    1SOL    HW2 3086   0.456   3.412   1.597 -1.1900 -0.5671  1.6987
    1SOL    HW3 3087   0.375   3.539   1.590  0.5285  0.4250 -0.9977
    1SOL    MW4 3088   0.448   3.497   1.614  0.0170 -0.0224 -0.2278
    1SOL     OW 3089   0.676   3.648   1.518  0.2878 -0.0937 -0.2143
    1SOL    HW2 3090   0.756   3.602   1.543 -0.3109 -2.5884 -2.7820
    1SOL    HW3 3091   0.606   3.599   1.561 -0.1342  0.2488 -0.5128
    1SOL    MW4 3092   0.678   3.636   1.527  0.1531 -0.3777 -0.5924
    1SOL     OW 3093   0.711   3.925   1.587  0.5216  0.1851  0.1854
    1SOL    HW2 3094   0.782   3.950   1.527 -0.3656 -0.1857 -1.0430
    1SOL    HW3 3095   0.699   3.831   1.571 -2.4509  0.8758 -2.0343
    1SOL    MW4 3096   0.719   3.916   1.577  0.0123  0.2275 -0.2695
    1SOL     OW 3097   0.449   4.012   1.532 -0.0568  0.1345  0.5099
    1SOL    HW2 3098   0.539   3.985   1.548  0.6541  1.9667 -0.3179
    1SOL    HW3 3099   0.441   4.012   1.436 -1.5729 -2.0115  0.5933
    1SOL    MW4 3100   0.460   4.008   1.521 -0.1631  0.0930  0.4116
    1SOL     OW 3101   0.421   4.268   1.621  0.5680 -0.4630 -0.3179
    1SOL    HW2 3102   0.427   4.177   1.594  2.0864 -0.1346 -1.1267
    1SOL    HW3 3103   0.336   4.297   1.588  0.5591 -1.2802 -1.0193
    1SOL    MW4 3104   0.410   4.260   1.613  0.7672 -0.5279 -0.5172
    1SOL     OW 3105   0.637   4.385   1.508  0.0002  0.2643  0.0852
    1SOL    HW2 3106   0.549   4.361   1.536 -0.3056 -0.1165 -1.1620
    1SOL    HW3 3107   0.645   4.477   1.530 -0.7453  0.3150  0.1512
    1SOL    MW4 3108   0.627   4.394   1.514 -0.1385  0.2213 -0.0707
    1SOL     OW 3109   1.124   4.631   1.620  0.3248 -0.4658 -0.0062
    1SOL    HW2 3110   1.113   4.636   1.715  1.0577 -1.2182  0.1160
    1SOL    HW3 3111   1.195   4.692   1.601 -0.8662  0.8770 -0.2652
    1SOL    MW4 3112   1.132   4.640   1.630  0.2643 -0.3881 -0.0241
    1SOL     OW 3113   0.915   0.087   1.486 -0.2095  0.2768  0.3289
    1SOL    HW2 3114   0.925   0.179   1.513  0.0180  0.4498 -0.3408
    1SOL    HW3 3115   0.984   0.041   1.533 -0.6265  0.3708  1.0382
    1SOL    MW4 3116   0.925   0.093   1.496 -0.2345  0.3120  0.3339
    1SOL     OW 3117   0.921   0.357   1.546  0.2772 -0.3938  0.1256
    1SOL    HW2 3118   0.916   0.360   1.641  0.6161  1.9718  0.0983
    1SOL    HW3 3119   0.847   0.409   1.516  0.1917 -1.0955 -0.9134
    1SOL    MW4 3120   0.911   0.364   1.554  0.3106 -0.1743 -0.0150
    1SOL     OW 3121   1.160   0.484   1.502 -0.2096  0.4728 -0.0905
    1SOL    HW2 3122   1.149   0.572   1.537 -0.0061  1.2893 -2.0747
    1SOL    HW3 3123   1.076   0.441   1.518 -0.3017  0.9993  0.8933
    1SOL    MW4 3124   1.147   0.490   1.509 -0.1949  0.6500 -0.2224
    1SOL     OW 3125   1.103   0.759   1.597 -0.0349 -0.5676  0.0662
    1SOL    HW2 3126   1.115   0.754   1.691 -1.3947  1.3262  0.3860
    1SOL    HW3 3127   1.173   0.815   1.566 -0.6506  0.2992  0.2185
    1SOL    MW4 3128   1.114   0.766   1.605 -0.2956 -0.2034  0.1285
    1SOL     OW 3129   0.881   0.860   1.469  0.6671 -0.1207  0.2627
    1SOL    HW2 3130   0.963   0.823   1.503  2.1337  1.1378 -1.7673
    1SOL    HW3 3131   0.889   0.853   1.374 -1.2358  0.7830  0.0116
    1SOL    MW4 3132   0.893   0.854   1.461  0.6095  0.1645 -0.0383
    1SOL     OW 3133   0.853   1.114   1.575 -0.3154 -0.3935 -0.3339
    1SOL    HW2 3134   0.860   1.033   1.525 -1.0755 -0.6511 -0.0322
    1SOL    HW3 3135   0.782   1.162   1.533 -0.4790 -0.2905  0.0584
    1SOL    MW4 3136   0.845   1.110   1.563 -0.4373 -0.4139 -0.2425
    1SOL     OW 3137   1.069   1.309   1.500 -0.4613 -0.0256 -0.4961
    1SOL    HW2 3138   1.147   1.266   1.534 -0.0120  0.9702 -0.2514
    1SOL    HW3 3139   0.996   1.258   1.535  0.0068  0.6637  1.5373
    1SOL    MW4 3140   1.069   1.297   1.509 -0.3403  0.1968 -0.1955
    1SOL     OW 3141   1.117   1.559   1.588  0.4409  0.2768  0.3521
    1SOL    HW2 3142   1.198   1.587   1.545  0.1772 -0.1730 -0.4423
    1SOL    HW3 3143   1.102   1.470   1.555 -0.4624  0.4256  0.3645
    1SOL    MW4 3144   1.126   1.551   1.578  0.2869  0.2370  0.2489
    1SOL     OW 3145   0.899   1.703   1.501  0.3456 -0.2684  0.6055
    1SOL    HW2 3146   0.973   1.646   1.520 -0.3263 -1.3054  0.1148
    1SOL    HW3 3147   0.895   1.707   1.405  0.2166  0.3801  0.6329
    1SOL    MW4 3148   0.909   1.696   1.491  0.2399 -0.3197  0.5443
    1SOL     OW 3149   0.902   1.947   1.587 -0.8508  0.1145  0.1335
    1SOL    HW2 3150   0.979   1.992   1.551  0.0405 -1.0911  0.5126
    1SOL    HW3 3151   0.911   1.857   1.558 -1.8433 -0.1607  0.6588
    1SOL    MW4 3152   0.913   1.941   1.579 -0.8641 -0.0807  0.2528
    1SOL     OW 3153   1.125   2.064   1.483  0.0630 -0.0679 -0.4819
    1SOL    HW2 3154   1.204   2.030   1.524  0.3488  1.2584  0.0871
    1SOL    HW3 3155   1.127   2.158   1.501 -1.9484 -0.1037  0.0525
    1SOL    MW4 3156   1.135   2.072   1.491 -0.1647  0.1023 -0.3364
    1SOL     OW 3157   1.139   2.323   1.561 -0.4168 -0.2568  0.7661
    1SOL    HW2 3158   1.217   2.371   1.533  0.2373 -1.5091  0.4160
    1SOL    HW3 3159   1.066   2.370   1.520  0.1118  1.1513  1.4191
    1SOL    MW4 3160   1.140   2.335   1.552 -0.2607 -0.2363  0.8060
    1SOL     OW 3161   0.906   2.439   1.462 -0.2736  0.1286  0.0254
    1SOL    HW2 3162   0.904   2.429   1.367 -2.7689 -0.1945  0.0908
    1SOL    HW3 3163   0.826   2.397   1.493  1.3823 -1.3652  2.4499
    1SOL    MW4 3164   0.895   2.432   1.453 -0.3843 -0.1111  0.3541
    1SOL     OW 3165   0.915   2.696   1.577  0.0833 -0.0546  0.1079
    1SOL    HW2 3166   0.915   2.703   1.672  0.9565  0.7086  0.0647
    1SOL    HW3 3167   0.903   2.603   1.559 -1.0543 -0.0716  0.9420
    1SOL    MW4 3168   0.914   2.685   1.587  0.0484  0.0439  0.2123
    1SOL     OW 3169   1.136   2.825   1.452 -0.5814  0.4421  0.3986
    1SOL    HW2 3170   1.131   2.910   1.495 -2.3031  0.7977 -0.4460
    1SOL    HW3 3171   1.055   2.781   1.478  0.4104 -1.0650  1.0477
    1SOL    MW4 3172   1.125   2.830   1.461 -0.6777  0.2904  0.3729
    1SOL     OW 3173   1.155   3.091   1.548  0.0219  0.0136  0.0267
    1SOL    HW2 3174   1.140   3.110   1.640  0.8855 -0.8183  0.3475
    1SOL    HW3 3175   1.231   3.143   1.524 -0.0930  0.0932 -0.1601
    1SOL    MW4 3176   1.163   3.100   1.557  0.1208 -0.0856  0.0443
    1SOL     OW 3177   0.912   3.232   1.474 -0.2408  0.2440 -0.0957
    1SOL    HW2 3178   0.993   3.183   1.493 -0.8572 -0.8603 -0.2755
    1SOL    HW3 3179   0.912   3.240   1.378 -0.7770 -0.5042 -0.1580
    1SOL    MW4 3180   0.923   3.227   1.464 -0.3929 -0.0007 -0.1277
    1SOL     OW 3181   0.893   3.488   1.600  0.0418 -0.1541 -0.3893
    1SOL    HW2 3182   0.967   3.533   1.560 -0.4894  0.6968 -0.4268
    1SOL    HW3 3183   0.887   3.404   1.554  0.3642  0.1903 -1.0548
    1SOL    MW4 3184   0.902   3.483   1.589  0.0142  0.0038 -0.4822
    1SOL     OW 3185   1.134   3.609   1.499 -0.2718 -0.1984  0.4020
    1SOL    HW2 3186   1.218   3.570   1.524  0.2829  0.7601  0.0654
    1SOL    HW3 3187   1.137   3.613   1.403 -0.9481 -0.6876  0.3526
    1SOL    MW4 3188   1.145   3.604   1.490 -0.2879 -0.1369  0.3511
    1SOL     OW 3189   1.147   3.870   1.567  0.3952 -0.2099 -0.1017
    1SOL    HW2 3190   1.229   3.900   1.527  1.2238  0.0716  1.7508
    1SOL    HW3 3191   1.145   3.776   1.550 -0.3482  0.2523 -2.6771
    1SOL    MW4 3192   1.158   3.862   1.560  0.4064 -0.1118 -0.1971
    1SOL     OW 3193   0.939   4.027   1.468 -0.1915 -0.1578  0.1464
    1SOL    HW2 3194   0.938   4.104   1.526  0.1336 -1.2574  1.6592
    1SOL    HW3 3195   1.007   3.971   1.506  0.0812 -0.8696 -1.3796
    1SOL    MW4 3196   0.948   4.030   1.481 -0.1127 -0.3972  0.1446
    1SOL     OW 3197   0.891   4.279   1.597 -0.3571  0.0014 -0.3812
    1SOL    HW2 3198   0.886   4.262   1.691 -3.0937 -2.3230 -0.8733
    1SOL    HW3 3199   0.806   4.318   1.575  0.2211  0.4511 -1.9175
    1SOL    MW4 3200   0.879   4.282   1.607 -0.6419 -0.2460 -0.6489
    1SOL     OW 3201   1.137   4.384   1.487  0.0154 -0.0420  0.2273
    1SOL    HW2 3202   1.068   4.341   1.537 -0.3218 -0.1367 -0.3137
    1SOL    HW3 3203   1.153   4.466   1.534  1.2649 -1.1185  1.7619
    1SOL    MW4 3204   1.130   4.389   1.500  0.1358 -0.1969  0.3583
    1SOL     OW 3205   1.609   4.650   1.615  0.2271 -0.6280  0.2400
    1SOL    HW2 3206   1.611   4.653   1.710  0.5404 -0.9977  0.2479
    1SOL    HW3 3207   1.525   4.688   1.591 -0.0323 -0.9324  0.6790
    1SOL    MW4 3208   1.598   4.656   1.624  0.2342 -0.7172  0.2991
    1SOL     OW 3209   1.356   0.105   1.561 -0.6244 -0.2237 -0.4500
    1SOL    HW2 3210   1.353   0.192   1.599 -0.2709  0.0079 -0.9461
    1SOL    HW3 3211   1.341   0.119   1.467 -0.9588 -0.7338 -0.4797
    1SOL    MW4 3212   1.353   0.118   1.553 -0.6220 -0.2604 -0.5194
    1SOL     OW 3213   1.356   0.366   1.643  0.4217  0.1377 -0.0171
    1SOL    HW2 3214   1.431   0.413   1.606 -0.1475  0.2250 -1.1059
    1SOL    HW3 3215   1.281   0.400   1.594 -0.1049 -1.2778 -0.2086
    1SOL    MW4 3216   1.356   0.377   1.632  0.2772 -0.0375 -0.1861
    1SOL     OW 3217   1.543   0.521   1.507 -0.2094 -0.1872  0.2576
    1SOL    HW2 3218   1.628   0.481   1.522  1.0639  1.6272 -1.7308
    1SOL    HW3 3219   1.523   0.503   1.415 -0.4052  2.1688 -0.1975
    1SOL    MW4 3220   1.552   0.514   1.496 -0.0671  0.3631 -0.0650
    1SOL     OW 3221   1.562   0.775   1.571 -0.2944 -0.7774 -0.3908
    1SOL    HW2 3222   1.558   0.765   1.667 -0.3231 -1.0478 -0.4188
    1SOL    HW3 3223   1.550   0.686   1.538 -0.1660 -0.6991 -0.6437
    1SOL    MW4 3224   1.560   0.762   1.580 -0.2812 -0.8028 -0.4278
    1SOL     OW 3225   1.317   0.905   1.478  0.0379  0.0063 -0.5047
    1SOL    HW2 3226   1.394   0.853   1.502  0.7702  1.0239 -0.6400
    1SOL    HW3 3227   1.329   0.924   1.385 -0.4775  0.0047 -0.5742
    1SOL    MW4 3228   1.328   0.901   1.469  0.0665  0.1403 -0.5317
    1SOL     OW 3229   1.309   1.165   1.621  0.0869  0.0623  0.1038
    1SOL    HW2 3230   1.345   1.159   1.709 -1.0190  0.5188  0.5886
    1SOL    HW3 3231   1.298   1.074   1.593 -1.0482 -0.0917  1.0442
    1SOL    MW4 3232   1.312   1.152   1.629 -0.2089  0.1022  0.2917
    1SOL     OW 3233   1.521   1.307   1.495 -0.0994 -0.1821 -0.7758
    1SOL    HW2 3234   1.444   1.260   1.527 -0.0651 -0.7421 -1.5018
    1SOL    HW3 3235   1.595   1.254   1.524  0.0195  0.4374  0.0546
    1SOL    MW4 3236   1.520   1.294   1.503 -0.0793 -0.1742 -0.7619
    1SOL     OW 3237   1.595   1.569   1.600 -0.4772  0.1026  0.2857
    1SOL    HW2 3238   1.571   1.566   1.693 -0.1005  0.2433  0.3869
    1SOL    HW3 3239   1.575   1.481   1.568 -0.2952 -0.0457  0.5776
    1SOL    MW4 3240   1.589   1.557   1.608 -0.4035  0.1016  0.3375
    1SOL     OW 3241   1.349   1.655   1.490  0.0515  0.0979  0.1423
    1SOL    HW2 3242   1.424   1.605   1.522 -0.3432 -1.2649 -1.0057
    1SOL    HW3 3243   1.358   1.655   1.395 -1.4382 -0.1894 -0.0244
    1SOL    MW4 3244   1.360   1.648   1.482 -0.1972 -0.1198 -0.0310
    1SOL     OW 3245   1.354   1.930   1.556  0.0492 -0.0422  0.2867
    1SOL    HW2 3246   1.378   1.956   1.645  0.5914 -0.8046  0.3650
    1SOL    HW3 3247   1.360   1.835   1.557 -0.4641 -0.0803 -0.4214
    1SOL    MW4 3248   1.358   1.921   1.568  0.0530 -0.1478  0.2035
    1SOL     OW 3249   1.600   2.048   1.484  0.0800  0.5260  0.3200
    1SOL    HW2 3250   1.518   2.000   1.497  0.0492  0.9182  1.6883
    1SOL    HW3 3251   1.617   2.042   1.390  0.5331 -2.8820  0.5561
    1SOL    MW4 3252   1.591   2.041   1.474  0.1358  0.1280  0.5317
    1SOL     OW 3253   1.580   2.313   1.580 -0.1115  0.1121 -0.1095
    1SOL    HW2 3254   1.647   2.361   1.532  0.3780 -0.6056 -0.1333
    1SOL    HW3 3255   1.591   2.222   1.554 -0.6280 -0.1125  0.4379
    1SOL    MW4 3256   1.590   2.308   1.570 -0.1152 -0.0122 -0.0404
    1SOL     OW 3257   1.365   2.425   1.442 -0.1005 -0.1035  0.0308
    1SOL    HW2 3258   1.383   2.517   1.456  0.8428 -0.2164 -0.3893
    1SOL    HW3 3259   1.432   2.379   1.492 -0.8119 -0.5730  0.5704
    1SOL    MW4 3260   1.376   2.431   1.450 -0.0699 -0.1802  0.0465
    1SOL     OW 3261   1.369   2.695   1.539  0.4108  0.1125  0.1152
    1SOL    HW2 3262   1.445   2.748   1.518  0.5256  0.2793  0.9468
    1SOL    HW3 3263   1.294   2.750   1.515  0.5387  0.3182  0.1848
    1SOL    MW4 3264   1.369   2.709   1.533  0.4426  0.1616  0.2340
    1SOL     OW 3265   1.585   2.866   1.491 -0.2133  0.1722 -0.2079
    1SOL    HW2 3266   1.657   2.809   1.515  0.1158  0.2478 -1.0321
    1SOL    HW3 3267   1.582   2.864   1.396 -2.1347 -0.8706 -0.1579
    1SOL    MW4 3268   1.594   2.859   1.482 -0.4236  0.0446 -0.3099
    1SOL     OW 3269   1.588   3.127   1.572  0.1973 -0.4986 -0.1546
    1SOL    HW2 3270   1.677   3.143   1.541  0.5704 -1.7785  0.2342
    1SOL    HW3 3271   1.573   3.034   1.556 -0.9456 -0.3639  0.0997
    1SOL    MW4 3272   1.598   3.117   1.566  0.0958 -0.6499 -0.0696
    1SOL     OW 3273   1.375   3.250   1.460  0.6306 -0.0349 -0.1381
    1SOL    HW2 3274   1.383   3.335   1.503  0.5485  0.0883 -0.3662
    1SOL    HW3 3275   1.452   3.201   1.488  0.6218  0.0750  0.0804
    1SOL    MW4 3276   1.386   3.255   1.470  0.6187 -0.0043 -0.1394
    1SOL     OW 3277   1.397   3.507   1.609 -0.1041 -0.1905  0.1645
    1SOL    HW2 3278   1.406   3.506   1.704 -0.3819 -0.2959  0.1889
    1SOL    HW3 3279   1.479   3.546   1.578  0.3173 -0.8684  0.4111
    1SOL    MW4 3280   1.409   3.512   1.617 -0.0852 -0.2937  0.2003
    1SOL     OW 3281   1.620   3.618   1.490  0.0452 -0.0443  0.2471
    1SOL    HW2 3282   1.628   3.712   1.506  0.9026 -0.2838  1.3120
    1SOL    HW3 3283   1.602   3.611   1.396  0.2767  1.1670  0.1001
    1SOL    MW4 3284   1.619   3.629   1.480  0.1889  0.0837  0.3682
    1SOL     OW 3285   1.614   3.887   1.554  0.0783 -0.2561 -0.5509
    1SOL    HW2 3286   1.605   3.893   1.650 -0.3929  2.3835 -0.7104
    1SOL    HW3 3287   1.529   3.916   1.521  0.8056  0.4994 -1.7732
    1SOL    MW4 3288   1.602   3.892   1.563  0.1119  0.1915 -0.7334
    1SOL     OW 3289   1.384   3.988   1.461 -0.5452  0.0794 -0.0504
    1SOL    HW2 3290   1.399   4.071   1.505 -1.0299 -0.4679  1.1633
    1SOL    HW3 3291   1.397   4.007   1.368 -1.5117  1.6937  0.1437
    1SOL    MW4 3292   1.388   4.001   1.455 -0.7366  0.2203  0.1354
    1SOL     OW 3293   1.402   4.246   1.565 -0.0212 -0.1148  0.1297
    1SOL    HW2 3294   1.478   4.297   1.538  0.6492 -1.4335 -0.4781
    1SOL    HW3 3295   1.327   4.292   1.526  0.6227  0.1369 -0.8045
    1SOL    MW4 3296   1.402   4.259   1.556  0.1522 -0.2551 -0.0737
    1SOL     OW 3297   1.610   4.401   1.482 -0.0865 -0.1627 -0.0773
    1SOL    HW2 3298   1.674   4.343   1.525 -1.9824 -1.0789  1.6167
    1SOL    HW3 3299   1.629   4.488   1.517  0.0535 -0.4879  0.6759
    1SOL    MW4 3300   1.621   4.405   1.492 -0.3182 -0.3266  0.2456
    1SOL     OW 3301   2.013   4.635   1.650 -0.0716  0.0285 -0.4024
    1SOL    HW2 3302   1.984   4.645   1.741 -0.6381 -0.8554 -0.4785
    1SOL    HW3 3303   1.965   4.702   1.602  1.7767  1.8846  0.2609
    1SOL    MW4 3304   2.003   4.645   1.655  0.0978  0.1559 -0.3250
    1SOL     OW 3305   1.813   0.129   1.513 -0.1310 -0.5847  0.6198
    1SOL    HW2 3306   1.742   0.078   1.553  0.5844 -1.3251  0.9548
    1SOL    HW3 3307   1.793   0.126   1.419 -0.1741 -1.3866  0.6432
    1SOL    MW4 3308   1.801   0.122   1.506 -0.0422 -0.7882  0.6671
    1SOL     OW 3309   1.762   0.395   1.611  0.2849 -0.1545 -0.2711
    1SOL    HW2 3310   1.838   0.451   1.597  0.3813 -0.3311 -0.4456
    1SOL    HW3 3311   1.788   0.310   1.577  0.1233 -0.2970 -0.0419
    1SOL    MW4 3312   1.775   0.392   1.605  0.2764 -0.1966 -0.2639
    1SOL     OW 3313   2.019   0.512   1.558 -0.5562  0.7058  0.3726
    1SOL    HW2 3314   2.098   0.459   1.568 -2.1362 -1.6096  0.9966
    1SOL    HW3 3315   2.036   0.590   1.611  1.6066  0.6277 -0.1485
    1SOL    MW4 3316   2.032   0.515   1.566 -0.4792  0.3900  0.3861
    1SOL     OW 3317   2.025   0.775   1.667 -0.4247  0.1765 -0.3485
    1SOL    HW2 3318   2.017   0.790   1.761 -0.4353  0.5317 -0.4050
    1SOL    HW3 3319   1.966   0.840   1.628  1.4047  1.6561 -0.7061
    1SOL    MW4 3320   2.016   0.786   1.674 -0.1848  0.4186 -0.4032
    1SOL     OW 3321   1.806   0.897   1.543 -0.3048  0.0813 -0.1816
    1SOL    HW2 3322   1.785   0.990   1.553  0.2441  0.0487  1.5518
    1SOL    HW3 3323   1.721   0.853   1.550 -0.4276  0.3826  0.2602
    1SOL    MW4 3324   1.792   0.904   1.545 -0.2484  0.1168  0.1054
    1SOL     OW 3325   1.750   1.158   1.595 -0.6051  0.4120  0.1396
    1SOL    HW2 3326   1.831   1.197   1.563 -0.5464  0.1536 -0.0248
    1SOL    HW3 3327   1.757   1.163   1.691 -0.0066 -0.4069  0.1417
    1SOL    MW4 3328   1.762   1.164   1.604 -0.5183  0.2698  0.1183
    1SOL     OW 3329   2.010   1.253   1.526  0.0381 -0.2480  0.4120
    1SOL    HW2 3330   2.008   1.344   1.555  1.6079 -0.1105  0.1364
    1SOL    HW3 3331   2.016   1.259   1.430 -0.5166 -0.6477  0.3509
    1SOL    MW4 3332   2.011   1.266   1.517  0.1719 -0.2826  0.3676
    1SOL     OW 3333   2.005   1.519   1.586  0.3585  0.1010  0.2200
    1SOL    HW2 3334   2.085   1.568   1.571  0.1090 -0.0939 -1.8990
    1SOL    HW3 3335   1.935   1.579   1.559  0.0667 -1.4726 -2.7505
    1SOL    MW4 3336   2.006   1.533   1.581  0.2871 -0.1323 -0.4514
    1SOL     OW 3337   1.809   1.698   1.499 -0.2403  0.1261 -0.0800
    1SOL    HW2 3338   1.736   1.651   1.540 -1.2420  2.3052  0.7193
    1SOL    HW3 3339   1.798   1.682   1.405 -0.7386 -0.9866  0.1575
    1SOL    MW4 3340   1.798   1.690   1.492 -0.4382  0.2669  0.0569
    1SOL     OW 3341   1.812   1.940   1.625  0.1998 -0.0582 -0.0045
    1SOL    HW2 3342   1.816   1.851   1.591  0.9557  0.1545 -0.4917
    1SOL    HW3 3343   1.740   1.981   1.577  0.2457 -0.2265 -0.2186
    1SOL    MW4 3344   1.803   1.934   1.614  0.3055 -0.0523 -0.0970
    1SOL     OW 3345   2.036   2.051   1.511  0.3472 -0.7828 -0.1217
    1SOL    HW2 3346   2.114   2.009   1.548  0.1043 -0.3803  0.8707
    1SOL    HW3 3347   1.963   2.003   1.548  0.0303  1.2451  2.0156
    1SOL    MW4 3348   2.037   2.039   1.521  0.2735 -0.4623  0.2912
    1SOL     OW 3349   2.013   2.319   1.556  0.4496 -0.2492 -0.0493
    1SOL    HW2 3350   2.025   2.342   1.648 -0.0299 -0.6932  0.1298
    1SOL    HW3 3351   2.018   2.223   1.555  0.2592 -0.2548 -0.4555
    1SOL    MW4 3352   2.015   2.309   1.568  0.3612 -0.3085 -0.0793
    1SOL     OW 3353   1.786   2.453   1.449 -0.1148  0.1308  0.1651
    1SOL    HW2 3354   1.866   2.405   1.471  0.7816  1.4087 -0.2396
    1SOL    HW3 3355   1.797   2.477   1.357 -0.1606  1.8033  0.5686
    1SOL    MW4 3356   1.798   2.450   1.440 -0.0027  0.5200  0.1650
    1SOL     OW 3357   1.821   2.707   1.564  0.7106 -0.7497  0.5223
    1SOL    HW2 3358   1.897   2.753   1.528  1.5126 -1.6496  1.0436
    1SOL    HW3 3359   1.829   2.617   1.530  0.6022 -1.1904  1.6332
    1SOL    MW4 3360   1.832   2.701   1.555  0.8022 -0.9265  0.7378
    1SOL     OW 3361   2.052   2.830   1.453 -0.3906 -0.2398 -0.7582
    1SOL    HW2 3362   2.075   2.918   1.482  0.5563 -0.4897 -0.7120
    1SOL    HW3 3363   2.046   2.837   1.358 -0.5727 -0.0693 -0.7342
    1SOL    MW4 3364   2.054   2.842   1.444 -0.2894 -0.2503 -0.7490
    1SOL     OW 3365   2.081   3.098   1.565  0.2291  0.0376  0.0705
    1SOL    HW2 3366   2.073   3.100   1.661 -0.5161  1.0955 -0.0053
    1SOL    HW3 3367   2.164   3.142   1.547  0.0627  0.4175  0.2098
    1SOL    MW4 3368   2.091   3.104   1.575  0.1090  0.2275  0.0790
    1SOL     OW 3369   1.840   3.198   1.461  0.1244  0.2038 -0.8271
    1SOL    HW2 3370   1.860   3.283   1.500  0.0799  0.2802 -0.9690
    1SOL    HW3 3371   1.921   3.148   1.470 -0.2757 -0.2149  0.4925
    1SOL    MW4 3372   1.854   3.203   1.467  0.0658  0.1585 -0.6717
    1SOL     OW 3373   1.832   3.459   1.550 -0.0336  0.9093 -0.2583
    1SOL    HW2 3374   1.841   3.464   1.646 -0.3052  3.1245 -0.3229
    1SOL    HW3 3375   1.750   3.505   1.531  0.3436  1.0425 -1.6145
    1SOL    MW4 3376   1.823   3.466   1.560 -0.0196  1.2193 -0.4456
    1SOL     OW 3377   2.047   3.626   1.483 -0.4378  0.9369 -0.1612
    1SOL    HW2 3378   2.127   3.576   1.495 -0.4897  1.1699  1.2553
    1SOL    HW3 3379   1.978   3.572   1.521 -0.5312  1.9290  1.1280
    1SOL    MW4 3380   2.048   3.613   1.489 -0.4570  1.0984  0.1957
    1SOL     OW 3381   2.082   3.871   1.598  0.3079 -0.3115 -0.1435
    1SOL    HW2 3382   2.150   3.914   1.546  0.5820 -1.5758 -0.8490
    1SOL    HW3 3383   2.084   3.780   1.570 -1.2440 -0.5009  0.2986
    1SOL    MW4 3384   2.091   3.865   1.587  0.1395 -0.5033 -0.1783
    1SOL     OW 3385   1.866   3.996   1.477  0.3224  0.0004 -0.6234
    1SOL    HW2 3386   1.943   3.959   1.519  0.0463  1.2147  1.0084
    1SOL    HW3 3387   1.792   3.946   1.514  0.1953  0.0833 -0.7656
    1SOL    MW4 3388   1.866   3.985   1.488  0.2692  0.1714 -0.4269
    1SOL     OW 3389   1.804   4.239   1.612 -0.2944  0.6390 -0.1274
    1SOL    HW2 3390   1.887   4.285   1.599  0.0535  0.5425  1.6444
    1SOL    HW3 3391   1.815   4.156   1.566  0.5186  0.7053 -0.0532
    1SOL    MW4 3392   1.817   4.234   1.604 -0.1411  0.6351  0.1161
    1SOL     OW 3393   2.026   4.415   1.503 -0.0191 -0.0971 -0.2446
    1SOL    HW2 3394   2.090   4.359   1.546 -0.4318 -0.0746  0.4129
    1SOL    HW3 3395   2.029   4.498   1.552 -1.9665 -0.7718  1.0879
    1SOL    MW4 3396   2.035   4.419   1.515 -0.3302 -0.1826  0.0179
    1SOL     OW 3397   2.458   0.014   1.601  0.0364 -0.2877  0.0213
    1SOL    HW2 3398   2.458  -0.001   1.695 -1.4412  0.9571  0.2339
    1SOL    HW3 3399   2.376   0.060   1.584  2.0469  2.9490 -1.3115
    1SOL    MW4 3400   2.448   0.018   1.611  0.1066  0.3033 -0.1265
    1SOL     OW 3401   2.223   0.124   1.541  0.4183 -0.1045 -0.3453
    1SOL    HW2 3402   2.154   0.067   1.575  1.1580 -1.4436 -1.0834
    1SOL    HW3 3403   2.235   0.097   1.450  2.4176 -0.3737 -0.0252
    1SOL    MW4 3404   2.215   0.113   1.534  0.7794 -0.3167 -0.4004
    1SOL     OW 3405   2.241   0.378   1.637  0.3243 -0.0233 -0.0666
    1SOL    HW2 3406   2.241   0.388   1.733 -0.9407 -0.7138  0.0132
    1SOL    HW3 3407   2.240   0.283   1.624  1.0611  0.0636 -0.7741
    1SOL    MW4 3408   2.241   0.367   1.648  0.2544 -0.1030 -0.1493
    1SOL     OW 3409   2.468   0.467   1.510  0.3217 -0.8237 -0.4602
    1SOL    HW2 3410   2.542   0.433   1.560  0.3346 -1.0156 -0.6092
    1SOL    HW3 3411   2.391   0.431   1.553  0.2357  0.7058  0.7096
    1SOL    MW4 3412   2.468   0.458   1.522  0.3121 -0.6472 -0.3254
    1SOL     OW 3413   2.488   0.743   1.618  0.0462  0.1725 -0.3858
    1SOL    HW2 3414   2.408   0.791   1.599  0.0455  0.2765 -0.1295
    1SOL    HW3 3415   2.486   0.667   1.559 -0.2022  0.2155 -0.4319
    1SOL    MW4 3416   2.478   0.739   1.608  0.0134  0.1918 -0.3582
    1SOL     OW 3417   2.249   0.850   1.548 -0.1520 -0.0526  0.0853
    1SOL    HW2 3418   2.249   0.942   1.574 -2.2631  0.2010 -0.7684
    1SOL    HW3 3419   2.180   0.810   1.600 -0.3003 -0.8235 -0.6977
    1SOL    MW4 3420   2.240   0.857   1.558 -0.4501 -0.1209 -0.1307
    1SOL     OW 3421   2.234   1.113   1.635 -0.2201 -0.3743 -0.0236
    1SOL    HW2 3422   2.237   1.115   1.730 -0.8647  1.4689 -0.0186
    1SOL    HW3 3423   2.160   1.169   1.612  0.2398 -0.3870 -1.6198
    1SOL    MW4 3424   2.225   1.121   1.644 -0.2444 -0.1328 -0.2334
    1SOL     OW 3425   2.462   1.293   1.582 -0.5665  0.1046 -0.1535
    1SOL    HW2 3426   2.389   1.244   1.619 -0.3763  0.1438  0.2758
    1SOL    HW3 3427   2.453   1.282   1.487 -0.8675 -0.2653 -0.0820
    1SOL    MW4 3428   2.451   1.285   1.574 -0.5808  0.0609 -0.0875
    1SOL     OW 3429   2.445   1.561   1.633 -0.0822 -0.0977 -0.3334
    1SOL    HW2 3430   2.520   1.602   1.589 -0.1152 -0.2027 -0.4888
    1SOL    HW3 3431   2.451   1.468   1.609 -0.0078 -0.1837  0.0184
    1SOL    MW4 3432   2.455   1.554   1.624 -0.0770 -0.1230 -0.3074
    1SOL     OW 3433   2.224   1.703   1.534  0.0112  0.2294 -0.5486
    1SOL    HW2 3434   2.288   1.645   1.575 -1.4412 -0.7077  0.4099
    1SOL    HW3 3435   2.254   1.710   1.443 -0.2825 -2.8069 -0.9576
    1SOL    MW4 3436   2.236   1.696   1.527 -0.2196 -0.2948 -0.4761
    1SOL     OW 3437   2.268   1.960   1.642  0.2121  0.5705 -0.4483
    1SOL    HW2 3438   2.240   1.954   1.734 -2.5853  3.3410 -1.0313
    1SOL    HW3 3439   2.272   1.870   1.612  0.1268 -0.3336  2.0955
    1SOL    MW4 3440   2.265   1.948   1.650 -0.1681  0.8167 -0.1895
    1SOL     OW 3441   2.484   2.077   1.536 -0.0161  0.2999  0.4369
    1SOL    HW2 3442   2.402   2.045   1.574 -0.9902  1.6016 -0.5097
    1SOL    HW3 3443   2.474   2.064   1.441  0.4140  1.4644  0.2194
    1SOL    MW4 3444   2.472   2.071   1.528 -0.0880  0.6254  0.2835
    1SOL     OW 3445   2.466   2.350   1.590  0.3988 -0.7711  0.1111
    1SOL    HW2 3446   2.478   2.348   1.685 -0.1487 -2.6614  0.1661
    1SOL    HW3 3447   2.480   2.260   1.563 -0.2052 -0.3840 -1.5118
    1SOL    MW4 3448   2.470   2.338   1.599  0.2470 -0.9694 -0.0957
    1SOL     OW 3449   2.246   2.450   1.428  0.0580  0.2482 -0.2019
    1SOL    HW2 3450   2.323   2.410   1.469 -0.4895  0.8376  1.4483
    1SOL    HW3 3451   2.172   2.401   1.464 -0.5638  2.1687  1.2163
    1SOL    MW4 3452   2.247   2.439   1.438 -0.0961  0.5794  0.2030
    1SOL     OW 3453   2.236   2.681   1.597  0.5350  0.0810  0.2563
    1SOL    HW2 3454   2.249   2.604   1.541  0.3940 -0.1815  0.5833
    1SOL    HW3 3455   2.166   2.731   1.554  0.5329 -0.0426  0.1167
    1SOL    MW4 3456   2.228   2.678   1.584  0.5159  0.0298  0.2811
    1SOL     OW 3457   2.458   2.800   1.489 -0.2474  0.2316 -0.0510
    1SOL    HW2 3458   2.462   2.895   1.505 -1.5987  0.5495 -1.4545
    1SOL    HW3 3459   2.385   2.770   1.543 -0.0247  0.0291  0.1412
    1SOL    MW4 3460   2.449   2.809   1.498 -0.3960  0.2468 -0.2109
    1SOL     OW 3461   2.490   3.062   1.543 -0.2029 -0.1391 -0.1743
    1SOL    HW2 3462   2.571   3.102   1.512 -0.3457 -0.9135 -1.5938
    1SOL    HW3 3463   2.426   3.134   1.537  0.0511  0.0670 -0.4970
    1SOL    MW4 3464   2.492   3.077   1.538 -0.1881 -0.2139 -0.4042
    1SOL     OW 3465   2.306   3.234   1.467  0.0874  0.2123 -0.8493
    1SOL    HW2 3466   2.280   3.323   1.494  1.4683  0.7622 -1.3088
    1SOL    HW3 3467   2.291   3.233   1.372 -0.8010 -0.3619 -0.7115
    1SOL    MW4 3468   2.300   3.246   1.458  0.1523  0.2096 -0.8919
    1SOL     OW 3469   2.273   3.499   1.576 -0.4107 -0.0980  0.0206
    1SOL    HW2 3470   2.272   3.488   1.671 -0.1681 -2.1971 -0.2133
    1SOL    HW3 3471   2.358   3.541   1.558 -0.5091  0.4244  0.7218
    1SOL    MW4 3472   2.284   3.503   1.586 -0.3917 -0.3057  0.0823
    1SOL     OW 3473   2.528   3.585   1.487 -0.1411  0.6105  0.1486
    1SOL    HW2 3474   2.605   3.538   1.517 -0.1813  0.3675 -0.1258
    1SOL    HW3 3475   2.528   3.666   1.538  0.6082  0.8709 -0.2599
    1SOL    MW4 3476   2.538   3.590   1.498 -0.0477  0.6127  0.0585
    1SOL     OW 3477   2.503   3.844   1.615  0.3604  0.0848  0.1539
    1SOL    HW2 3478   2.497   3.868   1.708  0.9438  0.5895  0.0665
    1SOL    HW3 3479   2.576   3.896   1.582 -0.2789  0.4123 -0.7530
    1SOL    MW4 3480   2.512   3.854   1.623  0.3529  0.1945  0.0226
    1SOL     OW 3481   2.298   4.017   1.471 -0.2236 -0.1932 -0.0367
    1SOL    HW2 3482   2.370   3.958   1.497  1.6219  1.9702 -0.0741
    1SOL    HW3 3483   2.291   4.005   1.376 -0.7657 -1.3074  0.1306
    1SOL    MW4 3484   2.307   4.008   1.462 -0.0517 -0.0548 -0.0196
    1SOL     OW 3485   2.219   4.248   1.615 -0.3678  0.5114 -0.0004
    1SOL    HW2 3486   2.291   4.306   1.589 -0.4480  1.0323  0.9477
    1SOL    HW3 3487   2.239   4.166   1.570 -0.1043  1.1701 -1.1361
    1SOL    MW4 3488   2.231   4.245   1.606 -0.3438  0.6671 -0.0253
    1SOL     OW 3489   2.444   4.417   1.536  0.0038  0.7890 -0.2435
    1SOL    HW2 3490   2.450   4.510   1.558  0.0765  0.9325 -0.8734
    1SOL    HW3 3491   2.448   4.414   1.441  0.1351  0.1298 -0.2210
    1SOL    MW4 3492   2.446   4.429   1.527  0.0308  0.7205 -0.3238
    1SOL     OW 3493   2.916   4.620   1.573  0.0634 -0.3187 -0.4764
    1SOL    HW2 3494   2.904   4.619   1.668  0.0348 -1.3630 -0.4837
    1SOL    HW3 3495   2.854   4.686   1.542 -0.6334 -0.6719  0.1477
    1SOL    MW4 3496   2.906   4.629   1.582 -0.0322 -0.5026 -0.3951
    1SOL     OW 3497   2.682   0.133   1.525  0.6462 -0.1254 -0.2435
    1SOL    HW2 3498   2.682   0.212   1.579 -0.8000  0.1159 -0.5905
    1SOL    HW3 3499   2.606   0.083   1.555  1.0808 -1.0063 -0.5812
    1SOL    MW4 3500   2.672   0.137   1.536  0.5126 -0.2098 -0.3338
    1SOL     OW 3501   2.668   0.390   1.658 -0.3513  0.0283 -0.1487
    1SOL    HW2 3502   2.685   0.394   1.753 -0.3661 -1.6161 -0.0612
    1SOL    HW3 3503   2.737   0.443   1.619 -0.2293  0.5656  0.7808
    1SOL    MW4 3504   2.680   0.397   1.666 -0.3369 -0.1177 -0.0144
    1SOL     OW 3505   2.884   0.475   1.528 -0.0636 -0.1912  0.0675
    1SOL    HW2 3506   2.888   0.567   1.557 -0.2627 -0.1823  0.0722
    1SOL    HW3 3507   2.888   0.480   1.433  0.7508 -0.2299  0.0975
    1SOL    MW4 3508   2.885   0.488   1.520  0.0179 -0.1951  0.0720
    1SOL     OW 3509   2.906   0.746   1.578  0.1907  0.6693  0.2340
    1SOL    HW2 3510   2.911   0.747   1.673  0.4368  1.5764  0.2101
    1SOL    HW3 3511   2.853   0.822   1.555 -1.5055 -0.6035 -0.2677
    1SOL    MW4 3512   2.900   0.756   1.588 -0.0005  0.6211  0.1646
    1SOL     OW 3513   2.716   0.933   1.532 -0.1037  0.2407 -0.4289
    1SOL    HW2 3514   2.679   0.870   1.593  0.9348  0.1146  0.0799
    1SOL    HW3 3515   2.675   0.913   1.448 -0.8501 -0.1764  0.0317
    1SOL    MW4 3516   2.705   0.922   1.529 -0.0653  0.1690 -0.3010
    1SOL     OW 3517   2.698   1.189   1.662 -0.4067  0.3505 -0.0451
    1SOL    HW2 3518   2.705   1.100   1.627  1.3703  0.8078 -0.9318
    1SOL    HW3 3519   2.612   1.219   1.634 -0.5046 -0.6300 -0.8384
    1SOL    MW4 3520   2.687   1.181   1.654 -0.1853  0.2815 -0.2668
    1SOL     OW 3521   2.901   1.317   1.507 -0.0886  0.0878 -0.2980
    1SOL    HW2 3522   2.973   1.260   1.533  0.9814  1.0266 -1.1277
    1SOL    HW3 3523   2.827   1.288   1.560  1.2183 -0.0607  1.5168
    1SOL    MW4 3524   2.901   1.306   1.517  0.2251  0.1920 -0.1680
    1SOL     OW 3525   2.914   1.582   1.594 -0.0535  0.0643  0.4435
    1SOL    HW2 3526   2.833   1.618   1.558  0.8808  1.0139 -0.7260
    1SOL    HW3 3527   2.913   1.490   1.567 -0.4323  0.2300 -0.1216
    1SOL    MW4 3528   2.903   1.574   1.586  0.0200  0.2115  0.2147
    1SOL     OW 3529   2.665   1.678   1.519 -0.0786 -0.4363 -0.2783
    1SOL    HW2 3530   2.684   1.771   1.529 -0.3960 -0.3264 -0.6686
    1SOL    HW3 3531   2.660   1.665   1.424 -2.1059 -0.4293 -0.1967
    1SOL    MW4 3532   2.667   1.689   1.508 -0.3881 -0.4208 -0.3190
    1SOL     OW 3533   2.706   1.938   1.595  0.0456  0.2506 -0.1070
    1SOL    HW2 3534   2.691   1.930   1.689 -0.7266  1.6379 -0.1009
    1SOL    HW3 3535   2.632   1.989   1.562  1.0681  1.0616 -1.2259
    1SOL    MW4 3536   2.694   1.943   1.603  0.0789  0.5405 -0.2538
    1SOL     OW 3537   2.958   2.068   1.515 -0.1054 -0.2534 -0.0419
    1SOL    HW2 3538   2.951   2.158   1.546 -1.0475 -0.5633  0.6675
    1SOL    HW3 3539   2.884   2.023   1.555  0.1602 -1.2658 -0.6711
    1SOL    MW4 3540   2.947   2.074   1.525 -0.1948 -0.4277 -0.0314
    1SOL     OW 3541   2.939   2.327   1.600 -0.1417  0.1879 -0.0982
    1SOL    HW2 3542   2.949   2.346   1.694 -1.7153 -1.7582  0.5028
    1SOL    HW3 3543   2.852   2.361   1.578 -1.3186 -2.5228  0.0668
    1SOL    MW4 3544   2.929   2.334   1.610 -0.5045 -0.4265  0.0029
    1SOL     OW 3545   2.708   2.435   1.499 -0.3365  0.4086  0.2089
    1SOL    HW2 3546   2.721   2.527   1.523 -0.2212  0.0065  1.7614
    1SOL    HW3 3547   2.625   2.412   1.541  0.2758 -0.5496  0.9017
    1SOL    MW4 3548   2.699   2.444   1.508 -0.2406  0.2294  0.5051
    1SOL     OW 3549   2.687   2.699   1.615  0.3397 -0.6540  0.6027
    1SOL    HW2 3550   2.758   2.742   1.568 -1.3449  0.9013 -0.5932
    1SOL    HW3 3551   2.608   2.724   1.567 -1.0249 -2.2555  1.9617
    1SOL    MW4 3552   2.686   2.708   1.603 -0.0627 -0.6599  0.6241
    1SOL     OW 3553   2.925   2.812   1.492  0.1833  0.0318 -0.1106
    1SOL    HW2 3554   3.000   2.760   1.521 -0.5908 -0.7218  0.5586
    1SOL    HW3 3555   2.938   2.898   1.534  0.6511 -0.1049  0.0314
    1SOL    MW4 3556   2.937   2.817   1.502  0.1426 -0.0856 -0.0036
    1SOL     OW 3557   2.938   3.072   1.589  0.4929 -0.9523  0.0463
    1SOL    HW2 3558   2.918   3.100   1.678 -1.9984  0.0831 -0.8104
    1SOL    HW3 3559   3.014   3.125   1.563 -0.2694  0.4925  0.7124
    1SOL    MW4 3560   2.945   3.083   1.597  0.0637 -0.6251  0.0211
    1SOL     OW 3561   2.717   3.200   1.465  0.0416  0.9269  0.2487
    1SOL    HW2 3562   2.800   3.170   1.500 -0.0867  0.8899  0.5187
    1SOL    HW3 3563   2.734   3.215   1.372  0.4910  1.4350  0.4120
    1SOL    MW4 3564   2.730   3.198   1.457  0.0842  0.9892  0.3060
    1SOL     OW 3565   2.746   3.460   1.586 -0.5908 -0.2345  0.1536
    1SOL    HW2 3566   2.716   3.459   1.676  0.9266 -1.9623  0.6673
    1SOL    HW3 3567   2.731   3.371   1.553  0.4576 -0.1088 -0.7294
    1SOL    MW4 3568   2.740   3.448   1.593 -0.2522 -0.4458  0.1050
    1SOL     OW 3569   2.944   3.636   1.482 -0.2440  0.3653  0.0490
    1SOL    HW2 3570   2.875   3.571   1.492  0.0861  0.1423  1.0011
    1SOL    HW3 3571   2.955   3.646   1.388  0.4483 -1.7887 -0.1296
    1SOL    MW4 3572   2.937   3.629   1.471 -0.1092  0.0517  0.1510
    1SOL     OW 3573   2.932   3.884   1.589 -0.0307  0.2455  0.1618
    1SOL    HW2 3574   2.848   3.918   1.558 -0.0180 -0.1464 -0.3072
    1SOL    HW3 3575   2.938   3.797   1.551 -0.9762 -1.0986  2.9276
    1SOL    MW4 3576   2.922   3.877   1.580 -0.1538  0.0165  0.4648
    1SOL     OW 3577   2.705   3.992   1.498  0.2525  0.2154  0.1044
    1SOL    HW2 3578   2.708   4.082   1.532 -0.3983  0.2045  0.2012
    1SOL    HW3 3579   2.692   4.003   1.404 -0.3225  0.2205  0.1820
    1SOL    MW4 3580   2.703   4.006   1.490  0.0906  0.2146  0.1274
    1SOL     OW 3581   2.684   4.260   1.631 -0.3378  0.2103  0.1702
    1SOL    HW2 3582   2.760   4.308   1.597 -1.5667  1.5532 -0.7640
    1SOL    HW3 3583   2.608   4.307   1.595 -1.5972 -1.9259 -0.0245
    1SOL    MW4 3584   2.684   4.273   1.622 -0.6661  0.1054  0.0211
    1SOL     OW 3585   2.898   4.365   1.505 -0.1724  0.2792  0.1302
    1SOL    HW2 3586   2.903   4.459   1.526  1.1802  0.1042  0.6964
    1SOL    HW3 3587   2.892   4.363   1.409 -1.7935  0.9739  0.1997
    1SOL    MW4 3588   2.898   4.377   1.495 -0.2077  0.3471  0.2142
    1SOL     OW 3589   3.359   4.658   1.628  0.1544  0.1102  0.1351
    1SOL    HW2 3590   3.421   4.717   1.584  0.7919 -0.9260 -0.3630
    1SOL    HW3 3591   3.374   4.573   1.588  0.2938 -0.7162  1.8942
    1SOL    MW4 3592   3.369   4.655   1.617  0.2568 -0.1355  0.3015
    1SOL     OW 3593   3.120   0.115   1.494  0.2300 -0.1854 -0.0332
    1SOL    HW2 3594   3.204   0.081   1.526 -0.0014 -1.3241 -0.6151
    1SOL    HW3 3595   3.056   0.050   1.522 -0.5278  0.9022  0.7952
    1SOL    MW4 3596   3.123   0.102   1.502  0.0997 -0.1922 -0.0006
    1SOL     OW 3597   3.118   0.350   1.615  0.0246  0.4579  0.4048
    1SOL    HW2 3598   3.104   0.266   1.573  0.3361  0.1578  0.8978
    1SOL    HW3 3599   3.038   0.400   1.597 -0.2790 -0.0445  0.3606
    1SOL    MW4 3600   3.106   0.346   1.607  0.0255  0.3520  0.4641
    1SOL     OW 3601   3.338   0.488   1.543  0.2374 -0.3101  0.2591
    1SOL    HW2 3602   3.257   0.441   1.564  0.1017 -0.2617 -0.1371
    1SOL    HW3 3603   3.346   0.479   1.448 -0.3638  1.3787  0.0342
    1SOL    MW4 3604   3.328   0.480   1.533  0.1402 -0.0809  0.1773
    1SOL     OW 3605   3.338   0.747   1.644 -0.1672 -0.2225  0.4025
    1SOL    HW2 3606   3.343   0.757   1.739  1.8606 -0.7483  0.3701
    1SOL    HW3 3607   3.351   0.653   1.629 -1.3423 -0.2828 -0.3647
    1SOL    MW4 3608   3.340   0.736   1.655 -0.0546 -0.2998  0.2970
    1SOL     OW 3609   3.160   0.865   1.491 -0.0723 -0.0684  0.1723
    1SOL    HW2 3610   3.227   0.819   1.541  0.4063  1.0559  0.5699
    1SOL    HW3 3611   3.078   0.818   1.512 -0.0099  0.8615  2.6253
    1SOL    MW4 3612   3.158   0.853   1.500 -0.0010  0.2026  0.5484
    1SOL     OW 3613   3.136   1.134   1.564  0.7313  0.4252 -0.1892
    1SOL    HW2 3614   3.119   1.114   1.656 -0.1068  0.1896 -0.3947
    1SOL    HW3 3615   3.155   1.049   1.525 -0.0822  0.3771 -0.4815
    1SOL    MW4 3616   3.136   1.120   1.571  0.5136  0.3878 -0.2550
    1SOL     OW 3617   3.357   1.277   1.482 -0.1587 -0.1608  0.1783
    1SOL    HW2 3618   3.440   1.243   1.516 -0.1099  0.8981  1.1574
    1SOL    HW3 3619   3.290   1.231   1.532 -0.1665 -0.9120 -0.5130
    1SOL    MW4 3620   3.359   1.266   1.493 -0.1531 -0.1202  0.2161
    1SOL     OW 3621   3.367   1.528   1.581  0.3197  0.1340 -0.3386
    1SOL    HW2 3622   3.366   1.509   1.674 -2.4681 -0.4520 -0.4424
    1SOL    HW3 3623   3.357   1.442   1.539  2.7625  0.2484 -1.2350
    1SOL    MW4 3624   3.366   1.514   1.587  0.2742  0.0718 -0.4706
    1SOL     OW 3625   3.135   1.677   1.491  0.1700 -0.1442  0.1858
    1SOL    HW2 3626   3.207   1.640   1.541  1.0595 -0.8626 -1.5884
    1SOL    HW3 3627   3.058   1.628   1.520  0.6299 -0.3831  1.0154
    1SOL    MW4 3628   3.134   1.666   1.501  0.3479 -0.2705  0.0612
    1SOL     OW 3629   3.180   1.927   1.592 -0.3261 -0.0697 -0.2327
    1SOL    HW2 3630   3.164   1.839   1.560 -0.6332 -0.5415  1.1972
    1SOL    HW3 3631   3.104   1.978   1.564 -1.2124 -0.7790  0.8411
    1SOL    MW4 3632   3.168   1.922   1.584 -0.4833 -0.2254  0.0978
    1SOL     OW 3633   3.393   2.043   1.475 -0.4674 -0.0352  0.8263
    1SOL    HW2 3634   3.317   1.996   1.509 -0.7974  0.3883  0.6937
    1SOL    HW3 3635   3.386   2.034   1.380  0.3388 -1.0454  0.8596
    1SOL    MW4 3636   3.382   2.036   1.467 -0.4044 -0.1128  0.8132
    1SOL     OW 3637   3.371   2.302   1.572 -0.0802  0.5242 -0.1501
    1SOL    HW2 3638   3.441   2.363   1.554  0.1727 -0.0301 -1.0734
    1SOL    HW3 3639   3.393   2.223   1.522 -1.2340  0.2653 -0.2853
    1SOL    MW4 3640   3.383   2.299   1.563 -0.1991  0.4170 -0.2898
    1SOL     OW 3641   3.149   2.428   1.461  0.1233  0.3142 -0.3693
    1SOL    HW2 3642   3.224   2.378   1.490  0.9497  1.6448 -0.1625
    1SOL    HW3 3643   3.075   2.393   1.511  0.4367 -1.5556 -1.1795
    1SOL    MW4 3644   3.149   2.417   1.471  0.2737  0.2429 -0.4488
    1SOL     OW 3645   3.159   2.688   1.588  0.2391 -0.2631  0.4408
    1SOL    HW2 3646   3.249   2.699   1.558 -0.0501  0.0475 -0.3390
    1SOL    HW3 3647   3.136   2.599   1.561 -0.2770  0.2863 -0.9716
    1SOL    MW4 3648   3.168   2.677   1.580  0.1328 -0.1497  0.1515
    1SOL     OW 3649   3.399   2.815   1.510 -0.1799 -0.6878 -0.4891
    1SOL    HW2 3650   3.363   2.895   1.549  2.1729 -0.0937  0.5993
    1SOL    HW3 3651   3.375   2.820   1.418  0.2864  1.5152 -0.5330
    1SOL    MW4 3652   3.391   2.826   1.503  0.1922 -0.3185 -0.3513
    1SOL     OW 3653   3.360   3.088   1.622 -0.6135  0.6909 -0.3182
    1SOL    HW2 3654   3.372   3.104   1.716  0.0588  0.2459 -0.3225
    1SOL    HW3 3655   3.445   3.105   1.584 -0.2651 -1.3552 -0.5272
    1SOL    MW4 3656   3.373   3.092   1.630 -0.4787  0.3622 -0.3464
    1SOL     OW 3657   3.158   3.235   1.503 -0.5148 -0.0116  0.2071
    1SOL    HW2 3658   3.163   3.323   1.541  0.8602  0.4630 -1.0230
    1SOL    HW3 3659   3.225   3.185   1.550 -0.0727  0.0840 -0.3169
    1SOL    MW4 3660   3.168   3.240   1.514 -0.2749  0.0634 -0.0243
    1SOL     OW 3661   3.135   3.480   1.628 -0.3427  0.5952 -0.1936
    1SOL    HW2 3662   3.137   3.521   1.714  1.5867  1.8616 -0.7921
    1SOL    HW3 3663   3.076   3.535   1.576  0.0561  0.9901 -0.2282
    1SOL    MW4 3664   3.128   3.493   1.633 -0.0355  0.8144 -0.2773
    1SOL     OW 3665   3.371   3.623   1.530 -0.1463 -0.0866  0.2850
    1SOL    HW2 3666   3.444   3.590   1.581  0.9158  0.7121 -0.6985
    1SOL    HW3 3667   3.295   3.572   1.561  0.5583  0.0269  2.2570
    1SOL    MW4 3668   3.370   3.612   1.541  0.0868  0.0339  0.4154
    1SOL     OW 3669   3.347   3.883   1.628  0.0794  0.0995 -0.2747
    1SOL    HW2 3670   3.288   3.928   1.568  0.1886 -0.9473 -1.1957
    1SOL    HW3 3671   3.344   3.791   1.600  0.8648 -0.2467  0.7217
    1SOL    MW4 3672   3.339   3.877   1.617  0.1974 -0.0839 -0.2650
    1SOL     OW 3673   3.159   4.004   1.478  0.0225 -0.2179 -0.0376
    1SOL    HW2 3674   3.162   4.092   1.515 -1.7546  0.2608 -0.9712
    1SOL    HW3 3675   3.079   3.965   1.513 -0.6341 -0.4630 -1.7238
    1SOL    MW4 3676   3.149   4.011   1.487 -0.2985 -0.1874 -0.3834
    1SOL     OW 3677   3.144   4.252   1.573 -0.4353 -0.0249 -0.0417
    1SOL    HW2 3678   3.154   4.243   1.668 -0.4955 -0.6787 -0.0983
    1SOL    HW3 3679   3.059   4.294   1.562 -0.4857 -0.0659  0.1841
    1SOL    MW4 3680   3.134   4.256   1.584 -0.4499 -0.1168 -0.0192
    1SOL     OW 3681   3.366   4.412   1.494  0.2773 -0.6891 -0.1680
    1SOL    HW2 3682   3.291   4.361   1.525 -0.5059  0.1999 -0.5978
    1SOL    HW3 3683   3.358   4.410   1.399 -0.0451  0.6813 -0.1677
    1SOL    MW4 3684   3.355   4.405   1.485  0.1316 -0.3910 -0.2247
    1SOL     OW 3685   3.778   4.645   1.623  0.0319 -0.0404 -0.3806
    1SOL    HW2 3686   3.778   4.656   1.718 -1.5874 -3.1273  0.0430
    1SOL    HW3 3687   3.866   4.673   1.596  0.8843 -0.1507  2.1448
    1SOL    MW4 3688   3.790   4.650   1.632 -0.0691 -0.4622  0.0085
    1SOL     OW 3689   3.557   0.115   1.453 -0.1186 -0.0364  0.5759
    1SOL    HW2 3690   3.629   0.067   1.494 -1.2777 -1.7178  0.6718
    1SOL    HW3 3691   3.564   0.095   1.360  0.1848  0.6730  0.4439
    1SOL    MW4 3692   3.567   0.106   1.446 -0.2317 -0.1646  0.5711
    1SOL     OW 3693   3.577   0.349   1.583 -0.1982 -0.1111  0.3045
    1SOL    HW2 3694   3.576   0.266   1.536 -0.2110 -0.0524  0.2017
    1SOL    HW3 3695   3.490   0.386   1.570  0.2676  0.6136 -0.8926
    1SOL    MW4 3696   3.565   0.343   1.575 -0.1385 -0.0077  0.1329
    1SOL     OW 3697   3.809   0.474   1.505  0.3389  0.0225 -0.1296
    1SOL    HW2 3698   3.725   0.435   1.529  1.5190 -1.3627  1.8961
    1SOL    HW3 3699   3.805   0.482   1.410 -1.3565 -1.7446 -0.2518
    1SOL    MW4 3700   3.797   0.470   1.496  0.2711 -0.3934  0.1216
    1SOL     OW 3701   3.808   0.778   1.580 -0.4818  0.0773 -0.3873
    1SOL    HW2 3702   3.729   0.817   1.545 -0.0225  0.1982 -1.2848
    1SOL    HW3 3703   3.802   0.685   1.557 -1.4037 -0.3468  1.4403
    1SOL    MW4 3704   3.797   0.771   1.573 -0.5429  0.0374 -0.2645
    1SOL     OW 3705   3.569   0.884   1.497 -0.2517  0.2666  0.0376
    1SOL    HW2 3706   3.478   0.866   1.521  0.2005 -0.0818  1.5343
    1SOL    HW3 3707   3.568   0.887   1.402 -1.4122 -1.9910 -0.0667
    1SOL    MW4 3708   3.556   0.882   1.488 -0.3450 -0.0772  0.2211
    1SOL     OW 3709   3.575   1.153   1.596 -0.1183 -0.0852  0.2365
    1SOL    HW2 3710   3.647   1.202   1.557 -0.8260  0.8132  0.0269
    1SOL    HW3 3711   3.590   1.062   1.569  1.2891 -0.0136  0.7577
    1SOL    MW4 3712   3.586   1.147   1.587 -0.0257  0.0428  0.2776
    1SOL     OW 3713   3.796   1.274   1.506  0.0975  0.1606  0.3856
    1SOL    HW2 3714   3.874   1.222   1.527 -0.0061 -0.0818  0.1786
    1SOL    HW3 3715   3.804   1.352   1.560  0.4662  0.1183  0.3968
    1SOL    MW4 3716   3.808   1.277   1.516  0.1326  0.1230  0.3598
    1SOL     OW 3717   3.819   1.520   1.658 -0.0228 -0.4905  0.0295
    1SOL    HW2 3718   3.801   1.528   1.752  0.8850  4.1697 -0.0483
    1SOL    HW3 3719   3.757   1.580   1.616  2.8691  1.3371 -1.8333
    1SOL    MW4 3720   3.809   1.529   1.665  0.4785  0.3656 -0.2266
    1SOL     OW 3721   3.618   1.612   1.488 -0.3295  0.7333 -0.3156
    1SOL    HW2 3722   3.538   1.565   1.511  0.5798 -1.6020 -1.7453
    1SOL    HW3 3723   3.613   1.623   1.393  1.1135  0.4136 -0.4398
    1SOL    MW4 3724   3.607   1.607   1.478 -0.0193  0.3830 -0.5203
    1SOL     OW 3725   3.560   1.855   1.630  0.6677  0.0714  0.1646
    1SOL    HW2 3726   3.572   1.783   1.568  0.8890  0.9604 -0.8423
    1SOL    HW3 3727   3.493   1.910   1.589  0.4736  0.4141  0.9450
    1SOL    MW4 3728   3.553   1.853   1.616  0.6711  0.2339  0.1348
    1SOL     OW 3729   3.741   2.018   1.472 -0.2100 -0.1549  0.4708
    1SOL    HW2 3730   3.760   2.100   1.518  2.0436 -0.9491  1.0538
    1SOL    HW3 3731   3.675   1.975   1.525  0.4969  0.1077  1.5800
    1SOL    MW4 3732   3.735   2.023   1.485  0.1805 -0.2251  0.6940
    1SOL     OW 3733   3.791   2.264   1.597  0.0933  0.1214 -0.0699
    1SOL    HW2 3734   3.812   2.269   1.690  0.8486 -0.2538 -0.2137
    1SOL    HW3 3735   3.857   2.320   1.555 -1.0911  1.3996 -0.2633
    1SOL    MW4 3736   3.803   2.272   1.604  0.0367  0.2406 -0.1143
    1SOL     OW 3737   3.597   2.447   1.527  0.1147 -0.4495 -0.5202
    1SOL    HW2 3738   3.611   2.527   1.576 -0.0604 -1.0148  0.4589
    1SOL    HW3 3739   3.668   2.389   1.555 -1.3227 -1.5907  0.7885
    1SOL    MW4 3740   3.608   2.450   1.537 -0.0980 -0.6747 -0.2183
    1SOL     OW 3741   3.643   2.696   1.606  0.3940 -0.1841  0.0060
    1SOL    HW2 3742   3.639   2.697   1.701 -0.2145  0.4460 -0.0164
    1SOL    HW3 3743   3.559   2.732   1.578  1.7875  2.7401 -0.7127
    1SOL    MW4 3744   3.632   2.701   1.615  0.4976  0.2847 -0.0918
    1SOL     OW 3745   3.865   2.814   1.503  0.3142  0.7917 -0.2322
    1SOL    HW2 3746   3.940   2.762   1.531  0.2320  0.4532 -0.6370
    1SOL    HW3 3747   3.791   2.779   1.552  0.6756  2.1221  1.3058
    1SOL    MW4 3748   3.865   2.803   1.513  0.3512  0.9227 -0.0827
    1SOL     OW 3749   3.842   3.080   1.589 -0.1416  0.2218  0.2507
    1SOL    HW2 3750   3.912   3.127   1.544 -0.2415 -0.5236 -0.6893
    1SOL    HW3 3751   3.858   2.988   1.569 -2.3156  0.1517 -1.3405
    1SOL    MW4 3752   3.853   3.074   1.580 -0.4418  0.1142 -0.0832
    1SOL     OW 3753   3.614   3.218   1.530 -0.4025  0.6170  0.0355
    1SOL    HW2 3754   3.693   3.168   1.551 -0.7181  0.6909  1.4044
    1SOL    HW3 3755   3.607   3.212   1.435  1.2253  0.5698 -0.0968
    1SOL    MW4 3756   3.623   3.211   1.520 -0.2296  0.6204  0.1987
    1SOL     OW 3757   3.594   3.480   1.626 -0.5165  0.5291 -0.1809
    1SOL    HW2 3758   3.670   3.521   1.585  1.1332 -1.2838  0.9999
    1SOL    HW3 3759   3.594   3.390   1.593 -1.5411  0.2174  0.6460
    1SOL    MW4 3760   3.604   3.474   1.616 -0.4339  0.2489  0.0840
    1SOL     OW 3761   3.820   3.599   1.492  0.0456 -0.0540 -0.6100
    1SOL    HW2 3762   3.899   3.553   1.518 -0.2101  0.0641  0.4176
    1SOL    HW3 3763   3.832   3.688   1.525 -0.9517 -0.3042  0.4530
    1SOL    MW4 3764   3.832   3.605   1.500 -0.1199 -0.0715 -0.3340
    1SOL     OW 3765   3.815   3.868   1.593  0.0473 -0.2357 -0.2219
    1SOL    HW2 3766   3.890   3.911   1.551  0.0362 -0.1712 -0.1740
    1SOL    HW3 3767   3.739   3.910   1.554  0.0290 -0.5825 -0.5766
    1SOL    MW4 3768   3.815   3.879   1.582  0.0432 -0.2728 -0.2623
    1SOL     OW 3769   3.570   3.980   1.511 -0.3553 -0.0917 -0.2441
    1SOL    HW2 3770   3.563   4.075   1.515  1.6140  0.0897 -0.5580
    1SOL    HW3 3771   3.487   3.948   1.546 -0.9731  1.7344  0.0055
    1SOL    MW4 3772   3.558   3.988   1.516 -0.1769  0.1731 -0.2525
    1SOL     OW 3773   3.607   4.276   1.551  0.3659  0.2141 -0.3375
    1SOL    HW2 3774   3.607   4.260   1.646  0.5795  0.7044 -0.2535
    1SOL    HW3 3775   3.522   4.317   1.534  0.2166 -0.1210 -0.4011
    1SOL    MW4 3776   3.595   4.280   1.561  0.3743  0.2346 -0.3347
    1SOL     OW 3777   3.839   4.390   1.489 -0.1881 -0.4332  0.2736
    1SOL    HW2 3778   3.761   4.336   1.505  0.5972 -1.1262  1.8312
    1SOL    HW3 3779   3.831   4.463   1.550 -0.2000  0.1068 -0.3739
    1SOL    MW4 3780   3.828   4.393   1.499 -0.0863 -0.4535  0.3936
    1SOL     OW 3781   4.221   4.657   1.618  0.3027  0.2404  0.1828
    1SOL    HW2 3782   4.225   4.656   1.714  0.3170 -0.0474  0.1798
    1SOL    HW3 3783   4.223   4.565   1.593  1.6382  0.3476 -0.1524
    1SOL    MW4 3784   4.222   4.645   1.627  0.4811  0.2165  0.1380
    1SOL     OW 3785   3.990   0.109   1.536 -0.4372 -0.0410  0.1894
    1SOL    HW2 3786   4.004   0.199   1.565  0.3282  0.3074 -1.2338
    1SOL    HW3 3787   4.072   0.064   1.554 -0.3914 -0.1356 -0.2335
    1SOL    MW4 3788   4.003   0.115   1.542 -0.3304 -0.0075 -0.0541
    1SOL     OW 3789   4.034   0.366   1.636  0.2908 -0.4539 -0.0384
    1SOL    HW2 3790   4.037   0.369   1.732 -0.4885  0.5792 -0.0249
    1SOL    HW3 3791   3.954   0.415   1.614  1.2928  0.6671 -1.2738
    1SOL    MW4 3792   4.024   0.373   1.646  0.3200 -0.1697 -0.1996
    1SOL     OW 3793   4.244   0.499   1.509  0.0586  0.0679  0.3615
    1SOL    HW2 3794   4.177   0.453   1.560 -0.7667  0.0531 -0.7273
    1SOL    HW3 3795   4.326   0.454   1.532 -0.3529 -0.1680  1.3915
    1SOL    MW4 3796   4.246   0.487   1.519 -0.1054  0.0348  0.3537
    1SOL     OW 3797   4.252   0.759   1.603 -0.4475 -0.0587  0.2657
    1SOL    HW2 3798   4.236   0.679   1.553 -3.0133 -0.2299  1.2886
    1SOL    HW3 3799   4.339   0.788   1.575 -0.8220 -1.4516 -2.4664
    1SOL    MW4 3800   4.262   0.752   1.593 -0.8359 -0.2651  0.0403
    1SOL     OW 3801   4.030   0.920   1.497 -0.2379  0.0145  0.4978
    1SOL    HW2 3802   4.103   0.871   1.534 -0.5742  0.2435  1.4714
    1SOL    HW3 3803   3.952   0.871   1.523 -0.3900 -0.8838 -1.5271
    1SOL    MW4 3804   4.030   0.907   1.505 -0.3023 -0.0739  0.3591
    1SOL     OW 3805   4.041   1.183   1.569  0.4292  0.1515  0.1989
    1SOL    HW2 3806   4.048   1.173   1.664 -0.5935  0.5278  0.3228
    1SOL    HW3 3807   4.045   1.094   1.535  1.9696  0.0976  0.5084
    1SOL    MW4 3808   4.042   1.170   1.577  0.4973  0.1941  0.2562
    1SOL     OW 3809   4.247   1.289   1.445 -0.2042 -0.0159  0.1830
    1SOL    HW2 3810   4.174   1.263   1.501 -1.3913  0.8177 -0.9428
    1SOL    HW3 3811   4.318   1.230   1.469 -1.6752 -1.7726  0.3090
    1SOL    MW4 3812   4.246   1.278   1.456 -0.5550 -0.1377  0.0513
    1SOL     OW 3813   4.275   1.552   1.581 -0.2609 -0.1424  0.3721
    1SOL    HW2 3814   4.287   1.471   1.532 -1.5029 -0.6555  0.9024
    1SOL    HW3 3815   4.354   1.602   1.563 -0.0028 -0.9738 -0.9089
    1SOL    MW4 3816   4.287   1.548   1.572 -0.3910 -0.3200  0.2730
    1SOL     OW 3817   4.027   1.622   1.481  0.0888  0.3097  0.0681
    1SOL    HW2 3818   4.106   1.602   1.532 -0.5255  0.3680  1.0552
    1SOL    HW3 3819   3.956   1.582   1.531 -0.5253  0.4170 -0.7235
    1SOL    MW4 3820   4.028   1.614   1.494 -0.0734  0.3315  0.0939
    1SOL     OW 3821   3.977   1.895   1.555  0.6300 -0.3948  0.5434
    1SOL    HW2 3822   3.979   1.805   1.522 -1.7870 -1.0116  1.9911
    1SOL    HW3 3823   3.895   1.931   1.522  1.2981  1.0898  0.4732
    1SOL    MW4 3824   3.966   1.888   1.546  0.3991 -0.2804  0.7250
    1SOL     OW 3825   4.224   2.033   1.492  0.3577 -0.1264 -0.1951
    1SOL    HW2 3826   4.139   2.002   1.521  0.6218 -0.5419  0.1397
    1SOL    HW3 3827   4.211   2.055   1.400 -0.2650  0.3960  0.0118
    1SOL    MW4 3828   4.211   2.032   1.484  0.3104 -0.1125 -0.1235
    1SOL     OW 3829   4.254   2.302   1.581 -0.2374 -0.1551 -0.0069
    1SOL    HW2 3830   4.255   2.313   1.676  0.6632 -1.3316  0.1335
    1SOL    HW3 3831   4.240   2.208   1.568  0.2580 -0.0951 -1.0287
    1SOL    MW4 3832   4.252   2.291   1.592 -0.0534 -0.3023 -0.1230
    1SOL     OW 3833   4.005   2.405   1.483 -0.0152  0.4469  0.1578
    1SOL    HW2 3834   4.006   2.485   1.534 -0.6389  0.3326  0.3587
    1SOL    HW3 3835   4.088   2.362   1.502 -0.1090  0.5628  0.8303
    1SOL    MW4 3836   4.016   2.410   1.492 -0.1097  0.4470  0.2731
    1SOL     OW 3837   4.059   2.663   1.612  0.6412  0.0518  0.2919
    1SOL    HW2 3838   4.057   2.700   1.700  1.0145  0.9089 -0.0532
    1SOL    HW3 3839   4.134   2.705   1.570  0.0679  0.1493 -0.6486
    1SOL    MW4 3840   4.069   2.673   1.618  0.6146  0.1776  0.1223
    1SOL     OW 3841   4.269   2.800   1.512  0.4435 -0.1411  0.0482
    1SOL    HW2 3842   4.251   2.885   1.553 -1.4240 -0.1310 -0.7443
    1SOL    HW3 3843   4.307   2.822   1.427 -0.8004 -0.0680 -0.5001
    1SOL    MW4 3844   4.272   2.815   1.507  0.0324 -0.1299 -0.1287
    1SOL     OW 3845   4.253   3.064   1.617 -0.4933  0.1006  0.4473
    1SOL    HW2 3846   4.276   3.063   1.710 -1.3783 -1.8489  0.6645
    1SOL    HW3 3847   4.330   3.100   1.574  0.2003  0.3465  1.8573
    1SOL    MW4 3848   4.266   3.069   1.624 -0.5193 -0.1242  0.6621
    1SOL     OW 3849   4.067   3.233   1.496 -0.2627  0.1847 -0.0662
    1SOL    HW2 3850   4.070   3.323   1.529 -0.2493  0.4270 -0.7290
    1SOL    HW3 3851   4.140   3.189   1.539  0.4588  0.7998 -0.6515
    1SOL    MW4 3852   4.077   3.239   1.506 -0.1655  0.2978 -0.2309
    1SOL     OW 3853   4.055   3.492   1.581  0.2218 -0.1783 -0.2096
    1SOL    HW2 3854   4.056   3.486   1.676 -1.0672  0.6925 -0.1269
    1SOL    HW3 3855   4.125   3.554   1.561 -1.5027  2.0533  0.4028
    1SOL    MW4 3856   4.065   3.500   1.591 -0.1755  0.2313 -0.1178
    1SOL     OW 3857   4.290   3.632   1.501 -0.2868 -0.0071  0.4604
    1SOL    HW2 3858   4.293   3.726   1.521 -0.1147 -0.1894  1.3058
    1SOL    HW3 3859   4.290   3.628   1.405  0.1349  0.8429  0.4187
    1SOL    MW4 3860   4.290   3.644   1.491 -0.2084  0.0811  0.5665
    1SOL     OW 3861   4.254   3.899   1.610 -0.0180 -0.3094 -0.1060
    1SOL    HW2 3862   4.170   3.932   1.578 -0.6106  0.3628  2.0452
    1SOL    HW3 3863   4.319   3.961   1.577 -0.6174  0.4144  0.0663
    1SOL    MW4 3864   4.251   3.911   1.602 -0.1750 -0.1252  0.2005
    1SOL     OW 3865   4.025   4.017   1.504 -0.6658  0.1654 -0.0169
    1SOL    HW2 3866   4.019   4.097   1.556 -0.7389 -0.4907  1.0043
    1SOL    HW3 3867   4.037   4.048   1.414 -0.5068  1.3205  0.3854
    1SOL    MW4 3868   4.026   4.032   1.499 -0.6547  0.2308  0.1708
    1SOL     OW 3869   4.047   4.274   1.631  0.5303 -0.0302  0.3832
    1SOL    HW2 3870   4.036   4.291   1.724 -0.1587 -0.9492  0.4727
    1SOL    HW3 3871   3.967   4.306   1.591  0.3041 -0.7536  0.2540
    1SOL    MW4 3872   4.035   4.281   1.638  0.4096 -0.2470  0.3779
    1SOL     OW 3873   4.274   4.399   1.530  0.1858 -0.4906  0.0183
    1SOL    HW2 3874   4.195   4.354   1.558  0.2027 -1.5616 -1.5977
    1SOL    HW3 3875   4.272   4.393   1.434  1.1522  1.2978 -0.1367
    1SOL    MW4 3876   4.263   4.393   1.521  0.3161 -0.3958 -0.2152
    1SOL     OW 3877   0.206   4.638   1.878  0.1029 -0.2423 -0.7249
    1SOL    HW2 3878   0.279   4.697   1.898  0.4258 -0.5878 -0.8571
    1SOL    HW3 3879   0.203   4.637   1.782  0.2287 -0.5995 -0.7238
    1SOL    MW4 3880   0.215   4.646   1.868  0.1621 -0.3352 -0.7421
    1SOL     OW 3881   0.001   0.121   1.983  0.1658  0.2115  0.2241
    1SOL    HW2 3882  -0.002   0.200   1.930  1.0377  0.1853  0.1365
    1SOL    HW3 3883   0.075   0.071   1.948 -0.3012 -0.5811  0.3588
    1SOL    MW4 3884   0.010   0.125   1.971  0.2189  0.1035  0.2303
    1SOL     OW 3885   4.488   0.360   1.845 -0.2820  0.1776  0.2044
    1SOL    HW2 3886   4.408   0.395   1.884  0.0045  0.4189  0.5679
    1SOL    HW3 3887   4.559   0.394   1.899 -0.0633 -1.8294  1.2374
    1SOL    MW4 3888   4.487   0.369   1.857 -0.2155 -0.0553  0.3887
    1SOL     OW 3889   0.212   0.442   1.990  0.3746  0.3810  0.7484
    1SOL    HW2 3890   0.295   0.418   1.947 -0.2903 -1.9200  0.6810
    1SOL    HW3 3891   0.195   0.532   1.961  1.4869 -0.0657 -1.3601
    1SOL    MW4 3892   0.221   0.451   1.981  0.4336  0.0185  0.4613
    1SOL     OW 3893   0.199   0.713   1.894  0.3558  0.3368  0.6612
    1SOL    HW2 3894   0.274   0.770   1.910  0.0740  0.5128  1.3780
    1SOL    HW3 3895   0.195   0.704   1.799  1.5770 -0.0678  0.6435
    1SOL    MW4 3896   0.208   0.719   1.883  0.4797  0.3066  0.7536
    1SOL     OW 3897   0.017   0.902   1.928  0.2687  0.0990  0.0583
    1SOL    HW2 3898  -0.065   0.857   1.912  0.2142  0.2844 -0.1779
    1SOL    HW3 3899   0.084   0.834   1.919  0.1485 -0.0369  0.1868
    1SOL    MW4 3900   0.015   0.888   1.925  0.2457  0.1055  0.0440
    1SOL     OW 3901   0.024   1.163   1.841 -0.5126  0.5580  0.0703
    1SOL    HW2 3902  -0.060   1.203   1.866 -0.6301  0.4128 -0.0916
    1SOL    HW3 3903   0.025   1.079   1.887 -0.9058  0.1147 -0.7223
    1SOL    MW4 3904   0.013   1.157   1.851 -0.5800  0.4804 -0.0556
    1SOL     OW 3905   0.194   1.296   1.989 -0.1831  0.2324  0.0682
    1SOL    HW2 3906   0.178   1.387   1.965 -1.2064  0.6607  2.2859
    1SOL    HW3 3907   0.125   1.247   1.945  0.5879  0.4553 -1.4275
    1SOL    MW4 3908   0.183   1.301   1.980 -0.2163  0.3182  0.1634
    1SOL     OW 3909   0.194   1.555   1.893 -0.2186 -0.0888  0.0397
    1SOL    HW2 3910   0.269   1.604   1.927 -0.0853  1.2459 -2.0761
    1SOL    HW3 3911   0.118   1.605   1.922 -0.0773  1.5434 -2.2639
    1SOL    MW4 3912   0.194   1.568   1.902 -0.1824  0.3026 -0.5435
    1SOL     OW 3913   4.459   1.721   1.994 -0.3713 -0.0288 -0.0405
    1SOL    HW2 3914   4.451   1.687   2.083  0.6986 -0.2350 -0.0112
    1SOL    HW3 3915   4.385   1.683   1.947  0.7746 -2.4218 -0.0086
    1SOL    MW4 3916   4.448   1.711   2.000 -0.0787 -0.3716 -0.0323
    1SOL     OW 3917   4.460   1.986   1.860  0.1522 -0.4685 -0.3445
    1SOL    HW2 3918   4.380   2.020   1.902  0.4735  0.7591 -0.6879
    1SOL    HW3 3919   4.465   1.895   1.888  0.3380  0.3082  2.3008
    1SOL    MW4 3920   4.450   1.979   1.869  0.2193 -0.2041 -0.0408
    1SOL     OW 3921   0.229   2.083   1.908  0.1969  0.5458  0.1973
    1SOL    HW2 3922   0.238   2.170   1.869 -2.0923  0.3354 -0.8976
    1SOL    HW3 3923   0.137   2.061   1.897  0.1905 -0.9477  2.7969
    1SOL    MW4 3924   0.218   2.091   1.902 -0.1060  0.3214  0.3958
    1SOL     OW 3925   0.235   2.343   1.829 -0.1594  0.8855  0.1335
    1SOL    HW2 3926   0.304   2.392   1.874  0.3127  1.4452 -1.1694
    1SOL    HW3 3927   0.155   2.367   1.876  0.5074  0.3438  1.5615
    1SOL    MW4 3928   0.233   2.353   1.841 -0.0091  0.8879  0.1500
    1SOL     OW 3929   4.488   2.423   1.973  0.0418  0.1056  0.2944
    1SOL    HW2 3930   4.498   2.430   2.068 -3.0113  0.7787  0.6339
    1SOL    HW3 3931   4.485   2.513   1.942 -1.0489 -0.0663 -0.1467
    1SOL    MW4 3932   4.489   2.436   1.981 -0.5054  0.1719  0.2810
    1SOL     OW 3933   0.004   2.696   1.914  0.0804 -0.4700 -0.0026
    1SOL    HW2 3934  -0.059   2.758   1.949  0.5381  0.0546 -0.0985
    1SOL    HW3 3935  -0.009   2.699   1.819  0.6019  0.0245 -0.0597
    1SOL    MW4 3936  -0.006   2.704   1.906  0.2096 -0.3355 -0.0228
    1SOL     OW 3937   0.245   2.851   1.961 -0.3332 -0.3499  0.4479
    1SOL    HW2 3938   0.231   2.940   1.929  1.1847  0.0410  0.7962
    1SOL    HW3 3939   0.165   2.804   1.939 -0.1444  0.4412 -2.0379
    1SOL    MW4 3940   0.233   2.856   1.954 -0.1080 -0.1941  0.1659
    1SOL     OW 3941   0.215   3.133   1.864 -0.0710 -0.2914 -0.1339
    1SOL    HW2 3942   0.299   3.168   1.892  0.2158 -1.0269 -0.0535
    1SOL    HW3 3943   0.223   3.125   1.769 -0.1351 -0.1450 -0.1518
    1SOL    MW4 3944   0.227   3.136   1.855 -0.0416 -0.3688 -0.1255
    1SOL     OW 3945   0.016   3.207   2.025  0.4255  0.0270  0.1356
    1SOL    HW2 3946  -0.059   3.164   1.985  0.1648  2.0455 -1.6222
    1SOL    HW3 3947   0.090   3.184   1.968  0.9353 -0.8548  1.1174
    1SOL    MW4 3948   0.016   3.198   2.013  0.4584  0.1769  0.0331
    1SOL     OW 3949   4.479   3.453   1.900  0.2494  0.1294 -0.1956
    1SOL    HW2 3950   4.559   3.500   1.925  0.5793 -0.5647  0.0868
    1SOL    HW3 3951   4.482   3.372   1.952 -2.0195  1.3108  1.9048
    1SOL    MW4 3952   4.490   3.449   1.911 -0.0064  0.1938  0.1186
    1SOL     OW 3953   0.226   3.593   2.003 -0.1939 -0.5606 -0.1550
    1SOL    HW2 3954   0.232   3.597   2.098  0.3989  0.9186 -0.2371
    1SOL    HW3 3955   0.309   3.556   1.975 -0.0676 -0.2943 -0.1337
    1SOL    MW4 3956   0.238   3.588   2.012 -0.0990 -0.3304 -0.1628
    1SOL     OW 3957   0.258   3.855   1.914 -0.3302  0.3163 -0.0089
    1SOL    HW2 3958   0.331   3.899   1.958  0.2504  1.1552 -1.7521
    1SOL    HW3 3959   0.256   3.768   1.952  0.1450  1.0244  1.6754
    1SOL    MW4 3960   0.267   3.849   1.925 -0.1909  0.5205 -0.0167
    1SOL     OW 3961   0.024   3.963   1.984 -0.4893  0.0318  0.0094
    1SOL    HW2 3962   0.034   4.053   1.954  1.2853 -0.3563 -0.6043
    1SOL    HW3 3963   0.109   3.921   1.967 -2.0536 -2.4598 -2.0672
    1SOL    MW4 3964   0.037   3.969   1.978 -0.4615 -0.3481 -0.3455
    1SOL     OW 3965   0.002   4.237   1.914  0.2304  0.1718  0.5531
    1SOL    HW2 3966  -0.072   4.294   1.934  0.1148 -0.0058  0.6311
    1SOL    HW3 3967   0.079   4.290   1.933  0.1282  0.7103 -0.5198
    1SOL    MW4 3968   0.002   4.251   1.919  0.2016  0.2193  0.4219
    1SOL     OW 3969   0.214   4.401   2.009  0.1323 -0.1976  0.2798
    1SOL    HW2 3970   0.203   4.415   2.103 -1.6489 -0.6257  0.1383
    1SOL    HW3 3971   0.199   4.488   1.970  0.4372 -0.1145  0.3434
    1SOL    MW4 3972   0.211   4.415   2.016 -0.0625 -0.2432  0.2694
    1SOL     OW 3973   0.680   4.662   1.846  0.4706  0.2620  0.2567
    1SOL    HW2 3974   0.681   4.572   1.876  2.2929  0.0766 -0.2430
    1SOL    HW3 3975   0.691   4.655   1.751  0.1947  0.9934  0.1688
    1SOL    MW4 3976   0.682   4.649   1.837  0.6747  0.3338  0.1793
    1SOL     OW 3977   0.438   0.112   1.929  0.3005 -0.0676  0.7825
    1SOL    HW2 3978   0.458   0.202   1.906 -0.6883 -0.3275 -1.1799
    1SOL    HW3 3979   0.515   0.062   1.900 -0.9577 -0.4004 -2.1626
    1SOL    MW4 3980   0.451   0.117   1.922  0.0040 -0.1458  0.1351
    1SOL     OW 3981   0.447   0.385   1.849 -0.1558 -0.6006 -0.5157
    1SOL    HW2 3982   0.519   0.442   1.878  0.3417 -1.3883 -0.2018
    1SOL    HW3 3983   0.454   0.385   1.753 -0.2712  0.0070 -0.5284
    1SOL    MW4 3984   0.457   0.393   1.840 -0.1054 -0.6243 -0.4760
    1SOL     OW 3985   0.657   0.515   1.940  0.1651 -0.2682 -0.0012
    1SOL    HW2 3986   0.648   0.500   2.034 -0.4953 -0.8587 -0.1552
    1SOL    HW3 3987   0.727   0.455   1.914  0.4646  0.0162  0.1381
    1SOL    MW4 3988   0.665   0.505   1.949  0.1175 -0.3086 -0.0033
    1SOL     OW 3989   0.661   0.786   1.834  0.1372  0.5104  0.7234
    1SOL    HW2 3990   0.742   0.824   1.867  0.9323 -0.2436 -0.3473
    1SOL    HW3 3991   0.659   0.697   1.871 -0.6319  0.8204  1.4451
    1SOL    MW4 3992   0.671   0.779   1.844  0.1405  0.4519  0.6773
    1SOL     OW 3993   0.425   0.883   1.977 -0.4427  0.2227  0.1349
    1SOL    HW2 3994   0.449   0.872   2.069 -0.4008 -1.6723 -0.0685
    1SOL    HW3 3995   0.502   0.852   1.928 -0.7970  0.3645 -0.5254
    1SOL    MW4 3996   0.439   0.877   1.982 -0.4839 -0.0086  0.0209
    1SOL     OW 3997   0.433   1.163   1.884  0.4005  0.4190 -0.1140
    1SOL    HW2 3998   0.352   1.204   1.916  0.6272  0.5490  0.2869
    1SOL    HW3 3999   0.431   1.075   1.920 -1.5862 -0.9885 -3.4062
    1SOL    MW4 4000   0.422   1.157   1.893  0.1683  0.2505 -0.4954
    1SOL     OW 4001   0.666   1.273   1.978  0.0890  0.3582 -0.5986
    1SOL    HW2 4002   0.671   1.260   2.073 -0.4687  2.2897 -0.2872
    1SOL    HW3 4003   0.580   1.238   1.954 -0.1904  0.7896 -0.2313
    1SOL    MW4 4004   0.655   1.267   1.988 -0.0215  0.6698 -0.5091
    1SOL     OW 4005   0.680   1.547   1.882 -0.1765  0.0555 -0.0314
    1SOL    HW2 4006   0.674   1.457   1.914 -0.2399  0.2513  0.5159
    1SOL    HW3 4007   0.680   1.539   1.787 -1.3532 -0.4540  0.0078
    1SOL    MW4 4008   0.679   1.534   1.874 -0.3401  0.0141  0.0461
    1SOL     OW 4009   0.440   1.664   1.952 -0.0766  0.2154  0.1939
    1SOL    HW2 4010   0.447   1.663   2.048  1.4711  3.6552  0.2054
    1SOL    HW3 4011   0.510   1.605   1.922 -0.4842 -0.7773  1.1501
    1SOL    MW4 4012   0.450   1.656   1.961  0.0738  0.5382  0.3217
    1SOL     OW 4013   0.473   1.913   1.837 -0.2670 -0.2203  0.8210
    1SOL    HW2 4014   0.463   1.825   1.875  0.5628 -0.3736  0.6774
    1SOL    HW3 4015   0.404   1.965   1.880 -0.0073 -0.6494  1.7738
    1SOL    MW4 4016   0.462   1.908   1.848 -0.1233 -0.2971  0.9277
    1SOL     OW 4017   0.687   2.044   1.937 -0.1518  0.8778 -0.1135
    1SOL    HW2 4018   0.681   2.042   2.033  1.5921  0.0065 -0.0152
    1SOL    HW3 4019   0.608   1.998   1.908 -0.1035  0.1099  0.9268
    1SOL    MW4 4020   0.676   2.038   1.946  0.0846  0.6614  0.0367
    1SOL     OW 4021   0.682   2.307   1.843 -0.5850  0.3305 -0.0446
    1SOL    HW2 4022   0.690   2.218   1.877  0.5170  0.5250  0.2124
    1SOL    HW3 4023   0.665   2.295   1.749 -2.1153 -0.1711  0.2811
    1SOL    MW4 4024   0.681   2.293   1.835 -0.6415  0.2899  0.0323
    1SOL     OW 4025   0.458   2.467   1.941 -0.0662  0.1592  0.1527
    1SOL    HW2 4026   0.458   2.454   2.035  0.1183  0.4108  0.1900
    1SOL    HW3 4027   0.523   2.406   1.907  0.0327  0.2319  0.2125
    1SOL    MW4 4028   0.466   2.458   1.949 -0.0288  0.2019  0.1656
    1SOL     OW 4029   0.456   2.712   1.830  0.4482  0.0885 -0.3970
    1SOL    HW2 4030   0.456   2.623   1.866 -0.4334 -0.1827 -1.0435
    1SOL    HW3 4031   0.375   2.751   1.862  0.5399  0.4496 -0.6075
    1SOL    MW4 4032   0.446   2.705   1.839  0.3440  0.1004 -0.5102
    1SOL     OW 4033   0.677   2.839   1.941  0.7720 -0.0603 -0.1951
    1SOL    HW2 4034   0.669   2.839   2.036  0.6631  0.1016 -0.2041
    1SOL    HW3 4035   0.600   2.789   1.911 -0.0339  1.2008 -0.2651
    1SOL    MW4 4036   0.666   2.832   1.949  0.6512  0.1276 -0.2054
    1SOL     OW 4037   0.689   3.091   1.864  0.4138 -0.1760 -0.1609
    1SOL    HW2 4038   0.675   2.999   1.887  0.3041  0.0207  0.5577
    1SOL    HW3 4039   0.685   3.092   1.768 -1.5000 -0.6093 -0.1039
    1SOL    MW4 4040   0.687   3.079   1.854  0.1467 -0.2072 -0.0584
    1SOL     OW 4041   0.464   3.216   1.946 -0.0104  0.4065 -0.1486
    1SOL    HW2 4042   0.458   3.301   1.903  0.8604  0.5563  0.0196
    1SOL    HW3 4043   0.552   3.185   1.926 -0.3021 -0.4396 -0.1682
    1SOL    MW4 4044   0.475   3.223   1.938  0.0660  0.3147 -0.1290
    1SOL     OW 4045   0.465   3.499   1.899  0.0568  0.2293  0.1844
    1SOL    HW2 4046   0.533   3.558   1.931  0.4807 -0.3369  0.3302
    1SOL    HW3 4047   0.464   3.514   1.804 -0.7683  1.4430  0.3585
    1SOL    MW4 4048   0.474   3.509   1.890  0.0039  0.3147  0.2266
    1SOL     OW 4049   0.690   3.647   1.980  0.1745  0.1018 -0.4013
    1SOL    HW2 4050   0.764   3.591   1.956  0.3838  0.5491 -0.8115
    1SOL    HW3 4051   0.714   3.733   1.946 -0.3432  0.3421 -0.1546
    1SOL    MW4 4052   0.703   3.651   1.972  0.1338  0.1924 -0.4228
    1SOL     OW 4053   0.718   3.913   1.915  0.3209  0.7389  0.2308
    1SOL    HW2 4054   0.806   3.944   1.934  0.4539  0.4222  0.1364
    1SOL    HW3 4055   0.705   3.933   1.822  1.5172 -2.1141 -0.6146
    1SOL    MW4 4056   0.728   3.919   1.905  0.4963  0.3207  0.1068
    1SOL     OW 4057   0.462   4.016   2.023  0.1683 -0.3490  0.4055
    1SOL    HW2 4058   0.467   4.101   1.980 -0.4913 -0.5094  0.0143
    1SOL    HW3 4059   0.546   3.974   2.002 -0.2385 -0.5214 -0.9207
    1SOL    MW4 4060   0.474   4.022   2.015  0.0276 -0.3924  0.1788
    1SOL     OW 4061   0.446   4.272   1.893 -0.4682 -0.3906 -0.1019
    1SOL    HW2 4062   0.368   4.318   1.923  0.5566  0.9310  0.6513
    1SOL    HW3 4063   0.434   4.262   1.799 -1.3983  0.1051 -0.0365
    1SOL    MW4 4064   0.434   4.277   1.884 -0.4557 -0.1512  0.0061
    1SOL     OW 4065   0.698   4.413   1.955 -0.0187 -0.3252 -0.0557
    1SOL    HW2 4066   0.767   4.358   1.917 -0.2268  0.1375 -1.1451
    1SOL    HW3 4067   0.617   4.370   1.930 -0.1732  0.3120 -0.6911
    1SOL    MW4 4068   0.697   4.400   1.946 -0.0666 -0.1802 -0.2832
    1SOL     OW 4069   1.107   4.635   1.896  0.0111 -0.0990  0.2249
    1SOL    HW2 4070   1.189   4.677   1.919 -0.5176  0.6379  0.7617
    1SOL    HW3 4071   1.117   4.545   1.927  1.7000 -0.7966 -2.1817
    1SOL    MW4 4072   1.119   4.628   1.903  0.1642 -0.0935 -0.0217
    1SOL     OW 4073   0.888   0.119   1.964  0.5503  0.2547  0.4823
    1SOL    HW2 4074   0.956   0.057   1.937 -0.3725 -0.1587 -0.9200
    1SOL    HW3 4075   0.807   0.082   1.930 -0.1201  1.8175  0.3419
    1SOL    MW4 4076   0.886   0.106   1.956  0.3402  0.4064  0.2787
    1SOL     OW 4077   0.903   0.358   1.825 -0.1390 -0.5927  0.6399
    1SOL    HW2 4078   0.962   0.421   1.866  0.7414 -0.4677 -0.8108
    1SOL    HW3 4079   0.912   0.279   1.879 -0.9506  0.3724  2.2279
    1SOL    MW4 4080   0.912   0.356   1.837 -0.1299 -0.4488  0.6582
    1SOL     OW 4081   1.081   0.493   1.977  0.2449 -0.2116  0.1844
    1SOL    HW2 4082   1.166   0.450   1.966  0.3948 -0.0730  0.7952
    1SOL    HW3 4083   1.091   0.579   1.937  0.0515 -0.6135 -0.7332
    1SOL    MW4 4084   1.094   0.498   1.970  0.2393 -0.2463  0.1438
    1SOL     OW 4085   1.096   0.743   1.866  0.0243 -0.4128 -0.3300
    1SOL    HW2 4086   1.168   0.802   1.888  1.5020 -1.6619 -1.7125
    1SOL    HW3 4087   1.017   0.792   1.891  1.2998  1.2378  0.6030
    1SOL    MW4 4088   1.095   0.758   1.872  0.3874 -0.3598 -0.3893
    1SOL     OW 4089   0.882   0.898   1.930  0.3628  0.4857 -0.2613
    1SOL    HW2 4090   0.900   0.902   2.024  0.9304 -0.3348 -0.3304
    1SOL    HW3 4091   0.877   0.990   1.903  1.1324  0.7352  0.4017
    1SOL    MW4 4092   0.884   0.910   1.939  0.5392  0.4103 -0.1829
    1SOL     OW 4093   0.884   1.168   1.847  0.4628 -0.7857 -0.5120
    1SOL    HW2 4094   0.804   1.206   1.882  0.6873 -0.4666 -0.3498
    1SOL    HW3 4095   0.868   1.160   1.753  0.7422  0.4989 -0.6723
    1SOL    MW4 4096   0.871   1.172   1.839  0.5292 -0.5740 -0.5118
    1SOL     OW 4097   1.103   1.299   1.976  0.6242  0.0420 -0.1630
    1SOL    HW2 4098   1.118   1.387   1.941  0.0251  0.7177  1.2306
    1SOL    HW3 4099   1.023   1.270   1.933  0.9707  0.0732 -0.8287
    1SOL    MW4 4100   1.094   1.307   1.966  0.5908  0.1354 -0.0670
    1SOL     OW 4101   1.131   1.559   1.865 -0.1033  0.3511  0.0500
    1SOL    HW2 4102   1.055   1.611   1.892 -0.5517 -0.2099 -0.1173
    1SOL    HW3 4103   1.123   1.552   1.770 -1.4604 -2.1527  0.2863
    1SOL    MW4 4104   1.120   1.565   1.856 -0.3415 -0.0533  0.0591
    1SOL     OW 4105   0.910   1.691   1.986  0.2096  0.1231  0.3514
    1SOL    HW2 4106   0.924   1.783   1.960 -0.4772 -0.0605 -0.6558
    1SOL    HW3 4107   0.824   1.669   1.952  0.6073 -1.0754  0.1099
    1SOL    MW4 4108   0.901   1.700   1.978  0.1714 -0.0592  0.1868
    1SOL     OW 4109   0.921   1.931   1.864  0.2834  0.0608 -0.0923
    1SOL    HW2 4110   0.838   1.974   1.884  0.6356  0.3023  0.9238
    1SOL    HW3 4111   0.920   1.918   1.770 -0.1341  1.6927 -0.3307
    1SOL    MW4 4112   0.910   1.935   1.855  0.2747  0.3079  0.0101
    1SOL     OW 4113   1.125   2.070   1.984  0.0719  0.8303 -0.2616
    1SOL    HW2 4114   1.131   2.152   1.936  1.4001  0.3029 -1.0383
    1SOL    HW3 4115   1.055   2.022   1.940 -0.8386  1.6298  0.3203
    1SOL    MW4 4116   1.117   2.074   1.971  0.1270  0.8664 -0.2874
    1SOL     OW 4117   1.115   2.313   1.860 -0.1481 -0.3068  0.1898
    1SOL    HW2 4118   1.196   2.355   1.890  0.3115 -1.1267  0.0966
    1SOL    HW3 4119   1.110   2.336   1.767 -0.9124  1.1665  0.5837
    1SOL    MW4 4120   1.125   2.322   1.851 -0.1884 -0.2203  0.2295
    1SOL     OW 4121   0.900   2.466   1.935  0.6639 -0.1975  0.0580
    1SOL    HW2 4122   0.965   2.402   1.906  0.4194 -0.0481 -0.8210
    1SOL    HW3 4123   0.815   2.427   1.912  0.4814  0.1105  0.1973
    1SOL    MW4 4124   0.897   2.453   1.928  0.6076 -0.1373 -0.0396
    1SOL     OW 4125   0.922   2.733   1.863  0.6926  0.3101  0.3234
    1SOL    HW2 4126   0.917   2.644   1.899  0.1949 -0.4644 -1.5903
    1SOL    HW3 4127   0.837   2.772   1.883 -0.1550 -0.6449 -1.2998
    1SOL    MW4 4128   0.910   2.726   1.871  0.5151  0.0818 -0.1433
    1SOL     OW 4129   1.155   2.861   1.944  0.2383 -0.1795  0.1810
    1SOL    HW2 4130   1.155   2.853   2.040 -0.4771  1.8517  0.3947
    1SOL    HW3 4131   1.072   2.822   1.917  0.1179 -0.1324  0.4731
    1SOL    MW4 4132   1.144   2.855   1.953  0.1280  0.0949  0.2477
    1SOL     OW 4133   1.124   3.114   1.834  0.1775 -0.0959 -0.4292
    1SOL    HW2 4134   1.046   3.139   1.883 -1.6026 -0.9254 -2.7690
    1SOL    HW3 4135   1.145   3.026   1.866  0.9220  0.6136  1.0905
    1SOL    MW4 4136   1.117   3.106   1.845  0.0410 -0.1116 -0.5374
    1SOL     OW 4137   0.916   3.213   1.976  0.4069 -0.0615 -0.0217
    1SOL    HW2 4138   0.905   3.230   2.069 -0.1295 -0.2220 -0.0550
    1SOL    HW3 4139   0.833   3.174   1.948  0.9958 -1.1008 -0.3223
    1SOL    MW4 4140   0.903   3.210   1.984  0.4139 -0.2196 -0.0658
    1SOL     OW 4141   0.889   3.484   1.891  0.1334 -0.5177 -0.0854
    1SOL    HW2 4142   0.895   3.391   1.911  0.7653 -0.8035 -1.5041
    1SOL    HW3 4143   0.879   3.487   1.795  1.6162  0.9298 -0.2142
    1SOL    MW4 4144   0.888   3.472   1.881  0.4124 -0.3645 -0.2896
    1SOL     OW 4145   1.115   3.641   1.954  0.0282 -0.0348  0.2446
    1SOL    HW2 4146   1.124   3.626   2.048 -2.2025 -0.2839  0.4506
    1SOL    HW3 4147   1.045   3.581   1.927 -0.0639  0.7794 -1.3836
    1SOL    MW4 4148   1.107   3.631   1.963 -0.2782  0.0398  0.0569
    1SOL     OW 4149   1.191   3.883   1.854 -0.1811  0.6993  0.0481
    1SOL    HW2 4150   1.165   3.796   1.883 -1.5500  1.5826  1.5698
    1SOL    HW3 4151   1.185   3.879   1.758  2.6306 -1.7157 -0.0866
    1SOL    MW4 4152   1.187   3.871   1.845  0.0093  0.4973  0.2310
    1SOL     OW 4153   0.961   3.999   1.971 -0.4906 -0.4369  0.1855
    1SOL    HW2 4154   0.946   3.990   2.065 -0.5978 -1.0463  0.1110
    1SOL    HW3 4155   1.035   3.941   1.952 -0.4484 -0.2928 -0.0999
    1SOL    MW4 4156   0.969   3.990   1.981 -0.4992 -0.4983  0.1380
    1SOL     OW 4157   0.912   4.254   1.869  0.3331  0.0547  0.3209
    1SOL    HW2 4158   0.995   4.285   1.905  0.7724  0.1043 -0.6918
    1SOL    HW3 4159   0.918   4.158   1.874  0.1095  0.0798  1.0016
    1SOL    MW4 4160   0.924   4.245   1.874  0.3615  0.0644  0.2772
    1SOL     OW 4161   1.149   4.378   1.963 -0.3279 -0.1911 -0.5651
    1SOL    HW2 4162   1.160   4.365   2.057 -1.5889 -1.0286 -0.5324
    1SOL    HW3 4163   1.230   4.344   1.925  0.5085  0.8278  0.2545
    1SOL    MW4 4164   1.161   4.372   1.971 -0.3839 -0.1674 -0.4528
    1SOL     OW 4165   1.606   0.001   1.887 -0.2549 -0.1926 -0.3673
    1SOL    HW2 4166   1.659   0.058   1.943  0.8888 -1.0935 -0.5200
    1SOL    HW3 4167   1.628  -0.087   1.916 -1.0268 -0.6045 -1.0315
    1SOL    MW4 4168   1.616  -0.003   1.898 -0.2059 -0.3657 -0.4750
    1SOL     OW 4169   1.331   0.094   1.994 -0.0959  0.0554  0.1189
    1SOL    HW2 4170   1.328   0.074   2.088 -1.4339 -0.1144  0.0423
    1SOL    HW3 4171   1.414   0.057   1.965  0.8050  0.9700  1.4258
    1SOL    MW4 4172   1.342   0.087   2.003 -0.1535  0.1537  0.2811
    1SOL     OW 4173   1.328   0.373   1.918 -0.4014  0.5943  0.1520
    1SOL    HW2 4174   1.328   0.280   1.943 -0.9397  0.9036  1.3650
    1SOL    HW3 4175   1.334   0.372   1.823  0.0789 -0.6781  0.1792
    1SOL    MW4 4176   1.328   0.360   1.909 -0.4091  0.4673  0.3157
    1SOL     OW 4177   1.538   0.549   1.984  0.0307  0.1209  0.2649
    1SOL    HW2 4178   1.613   0.505   1.944 -0.0320  0.6054 -0.3957
    1SOL    HW3 4179   1.462   0.501   1.953  0.1028 -0.9220  1.6426
    1SOL    MW4 4180   1.538   0.537   1.974  0.0319  0.0473  0.3594
    1SOL     OW 4181   1.548   0.777   1.847  0.0194  0.0246 -0.2416
    1SOL    HW2 4182   1.623   0.828   1.878 -0.2290  0.5414 -0.4755
    1SOL    HW3 4183   1.556   0.692   1.891 -0.0557  0.5700  0.8272
    1SOL    MW4 4184   1.559   0.772   1.857 -0.0234  0.1648 -0.1315
    1SOL     OW 4185   1.318   0.905   1.954 -0.1330 -0.0604 -0.2458
    1SOL    HW2 4186   1.304   0.890   2.047  0.1534 -0.2314 -0.2295
    1SOL    HW3 4187   1.399   0.859   1.934  0.5961  1.2272 -0.2644
    1SOL    MW4 4188   1.327   0.897   1.964  0.0010  0.0870 -0.2460
    1SOL     OW 4189   1.345   1.167   1.905 -0.6316  0.6039  0.4148
    1SOL    HW2 4190   1.345   1.076   1.936 -1.5799  0.4477 -0.0126
    1SOL    HW3 4191   1.257   1.199   1.924 -1.5276  0.2464 -2.7310
    1SOL    MW4 4192   1.334   1.159   1.911 -0.8750  0.5361 -0.0565
    1SOL     OW 4193   1.556   1.328   2.013 -0.2942 -0.4022  0.1903
    1SOL    HW2 4194   1.535   1.412   1.973  1.3705  0.0410  0.2238
    1SOL    HW3 4195   1.492   1.267   1.975 -1.0703  0.7283 -0.3497
    1SOL    MW4 4196   1.545   1.331   2.003 -0.1769 -0.1945  0.1235
    1SOL     OW 4197   1.518   1.549   1.859  0.2083 -0.0506  0.0413
    1SOL    HW2 4198   1.607   1.571   1.888  0.2514  1.6731 -1.2946
    1SOL    HW3 4199   1.463   1.619   1.893 -0.2996  0.0468 -0.9421
    1SOL    MW4 4200   1.522   1.561   1.867  0.1469  0.1898 -0.2646
    1SOL     OW 4201   1.330   1.702   1.964  0.1314  0.0758 -0.8783
    1SOL    HW2 4202   1.311   1.691   2.057  1.5903  0.6029 -0.4958
    1SOL    HW3 4203   1.257   1.660   1.919 -0.2292 -0.8306  0.5116
    1SOL    MW4 4204   1.318   1.695   1.970  0.2764  0.0257 -0.6443
    1SOL     OW 4205   1.348   1.953   1.838 -0.1161 -0.4608 -0.2401
    1SOL    HW2 4206   1.355   1.873   1.891 -0.4639  0.2919  0.9709
    1SOL    HW3 4207   1.271   1.998   1.873 -1.0168 -0.4716 -2.1300
    1SOL    MW4 4208   1.339   1.948   1.850 -0.2807 -0.3629 -0.3297
    1SOL     OW 4209   1.540   2.098   1.967 -0.2238 -0.3067  0.0838
    1SOL    HW2 4210   1.558   2.185   1.930 -1.3894 -0.1411 -0.1201
    1SOL    HW3 4211   1.472   2.062   1.910 -1.3673 -0.4369  1.5100
    1SOL    MW4 4212   1.533   2.105   1.954 -0.5285 -0.3021  0.2451
    1SOL     OW 4213   1.582   2.343   1.859  0.0318  0.0691  0.2185
    1SOL    HW2 4214   1.658   2.391   1.893  0.2202  0.3561 -0.5925
    1SOL    HW3 4215   1.588   2.353   1.764 -0.4459 -0.7902  0.0929
    1SOL    MW4 4216   1.593   2.351   1.851 -0.0063 -0.0062  0.0950
    1SOL     OW 4217   1.344   2.439   1.934  0.3000  0.6394 -0.0538
    1SOL    HW2 4218   1.351   2.518   1.881  0.4617 -0.5898 -1.9098
    1SOL    HW3 4219   1.423   2.390   1.914  0.4904  0.2892  1.5469
    1SOL    MW4 4220   1.355   2.443   1.924  0.3464  0.4308 -0.0875
    1SOL     OW 4221   1.353   2.679   1.814 -0.6815  0.4275  0.0265
    1SOL    HW2 4222   1.288   2.740   1.849 -0.5731  1.1464 -1.0032
    1SOL    HW3 4223   1.346   2.689   1.719 -0.6973 -1.2066 -0.1632
    1SOL    MW4 4224   1.343   2.688   1.806 -0.6692  0.3068 -0.1343
    1SOL     OW 4225   1.578   2.832   1.912  0.3101  0.2553  0.3304
    1SOL    HW2 4226   1.660   2.794   1.879 -0.2873 -1.2162  0.4737
    1SOL    HW3 4227   1.509   2.789   1.860 -0.4014  0.9352  0.7042
    1SOL    MW4 4228   1.580   2.821   1.901  0.1374  0.1509  0.3986
    1SOL     OW 4229   1.568   3.129   1.859 -0.2911 -0.1906  0.2848
    1SOL    HW2 4230   1.591   3.039   1.881 -2.4151 -0.8920 -0.2741
    1SOL    HW3 4231   1.550   3.127   1.765 -0.2892  0.8260  0.2615
    1SOL    MW4 4232   1.569   3.117   1.850 -0.5711 -0.1495  0.2080
    1SOL     OW 4233   1.332   3.253   1.963 -0.2874 -0.1585 -0.1743
    1SOL    HW2 4234   1.399   3.194   1.928 -0.9778 -0.7383 -0.5438
    1SOL    HW3 4235   1.250   3.220   1.925 -0.8822  0.0193  0.9516
    1SOL    MW4 4236   1.330   3.241   1.953 -0.4570 -0.2117 -0.0744
    1SOL     OW 4237   1.374   3.525   1.896 -0.4493  0.5108 -0.3916
    1SOL    HW2 4238   1.355   3.434   1.918  1.1508  0.8048  2.5798
    1SOL    HW3 4239   1.291   3.571   1.909 -0.5829 -0.0772  0.9179
    1SOL    MW4 4240   1.361   3.519   1.901 -0.2558  0.4721  0.1732
    1SOL     OW 4241   1.624   3.638   1.959  0.2955  0.1299 -0.2624
    1SOL    HW2 4242   1.613   3.664   2.050 -0.0026 -0.0329 -0.2517
    1SOL    HW3 4243   1.543   3.592   1.937  0.5470 -0.2122 -0.4776
    1SOL    MW4 4244   1.612   3.635   1.968  0.2894  0.0632 -0.2893
    1SOL     OW 4245   1.630   3.892   1.834 -0.3197  0.4212  0.2941
    1SOL    HW2 4246   1.706   3.924   1.882 -1.4408  1.3922  1.4527
    1SOL    HW3 4247   1.619   3.802   1.864  0.1024  0.4278  0.4704
    1SOL    MW4 4248   1.639   3.885   1.844 -0.4119  0.5500  0.4702
    1SOL     OW 4249   1.425   3.997   1.968 -0.2902 -0.3955 -0.4542
    1SOL    HW2 4250   1.498   3.952   1.925 -0.7666 -0.2167 -1.4832
    1SOL    HW3 4251   1.347   3.958   1.928 -0.7608 -0.4545  0.5015
    1SOL    MW4 4252   1.424   3.986   1.957 -0.4152 -0.3798 -0.4638
    1SOL     OW 4253   1.385   4.245   1.870  0.9017  0.2820 -0.1230
    1SOL    HW2 4254   1.416   4.162   1.907 -0.0731 -0.6185 -1.3011
    1SOL    HW3 4255   1.387   4.231   1.775 -0.6436  1.1092 -0.2852
    1SOL    MW4 4256   1.389   4.232   1.863  0.5693  0.2728 -0.2998
    1SOL     OW 4257   1.600   4.383   1.962  0.0742  0.0151  0.0693
    1SOL    HW2 4258   1.581   4.363   2.054  0.4429 -1.9400 -0.2558
    1SOL    HW3 4259   1.522   4.356   1.915  0.8575 -1.3759 -0.4653
    1SOL    MW4 4260   1.588   4.377   1.968  0.2263 -0.4263 -0.0441
    1SOL     OW 4261   1.988   0.005   1.935 -0.0060  0.3079  0.0995
    1SOL    HW2 4262   2.067   0.047   1.968 -0.0922 -0.2639  1.0825
    1SOL    HW3 4263   1.992  -0.084   1.970 -0.1052 -0.3289 -1.4744
    1SOL    MW4 4264   1.999  -0.001   1.944 -0.0303  0.1483  0.0216
    1SOL     OW 4265   1.766   0.161   2.023 -0.0538  0.3199  0.1328
    1SOL    HW2 4266   1.754   0.169   2.118 -1.6961 -0.4755  0.0148
    1SOL    HW3 4267   1.844   0.105   2.014 -1.1089 -1.3574  1.0568
    1SOL    MW4 4268   1.775   0.154   2.035 -0.4098 -0.0063  0.2389
    1SOL     OW 4269   1.767   0.428   1.885  0.2046  0.0863 -0.0433
    1SOL    HW2 4270   1.767   0.335   1.910 -0.7699  0.1081  0.0850
    1SOL    HW3 4271   1.774   0.427   1.790  2.1126 -0.0540  0.0815
    1SOL    MW4 4272   1.768   0.416   1.876  0.3276  0.0707 -0.0099
    1SOL     OW 4273   1.993   0.532   1.999  0.0952  0.2456 -0.4237
    1SOL    HW2 4274   1.994   0.625   1.976 -1.2366  0.4465  0.3011
    1SOL    HW3 4275   1.909   0.500   1.966  1.6325 -1.3174 -3.0073
    1SOL    MW4 4276   1.982   0.540   1.992  0.1223  0.0659 -0.6688
    1SOL     OW 4277   1.982   0.792   1.938  0.1062 -0.1255  0.3420
    1SOL    HW2 4278   2.052   0.840   1.983  0.0887 -0.3951  0.6655
    1SOL    HW3 4279   1.905   0.847   1.949 -0.0333 -0.4733  1.1802
    1SOL    MW4 4280   1.981   0.806   1.946  0.0854 -0.2069  0.4953
    1SOL     OW 4281   1.757   0.930   1.983  0.0751 -0.0175  0.5936
    1SOL    HW2 4282   1.755   1.022   1.958  0.2970  0.2323  1.4577
    1SOL    HW3 4283   1.760   0.931   2.079  0.3346 -0.9141  0.6068
    1SOL    MW4 4284   1.757   0.942   1.992  0.1385 -0.1028  0.7093
    1SOL     OW 4285   1.752   1.182   1.881 -0.3730  0.1869  0.6007
    1SOL    HW2 4286   1.692   1.240   1.927 -0.5009  1.3213 -0.9565
    1SOL    HW3 4287   1.839   1.207   1.913 -0.5025  0.5872  0.6368
    1SOL    MW4 4288   1.756   1.193   1.892 -0.4071  0.3895  0.4001
    1SOL     OW 4289   1.987   1.270   2.003 -0.4988  0.2842 -0.4465
    1SOL    HW2 4290   2.066   1.232   1.965  0.6625  2.2448 -0.1025
    1SOL    HW3 4291   1.980   1.230   2.089 -0.3086 -0.4490 -0.7659
    1SOL    MW4 4292   1.996   1.260   2.009 -0.3203  0.4462 -0.4432
    1SOL     OW 4293   1.998   1.533   1.867 -0.0337 -0.3508  0.3774
    1SOL    HW2 4294   1.984   1.447   1.906 -3.3597 -0.4426 -0.9537
    1SOL    HW3 4295   1.993   1.518   1.773 -0.2569  1.2445  0.1315
    1SOL    MW4 4296   1.996   1.520   1.860 -0.5020 -0.1525  0.1693
    1SOL     OW 4297   1.759   1.673   1.937  0.1068 -0.6578 -0.2187
    1SOL    HW2 4298   1.775   1.766   1.923  0.9386 -0.6927  0.5015
    1SOL    HW3 4299   1.840   1.630   1.908 -0.5137 -1.2140 -1.1676
    1SOL    MW4 4300   1.772   1.680   1.931  0.1347 -0.7359 -0.2488
    1SOL     OW 4301   1.764   1.952   1.903 -0.2056 -0.2232 -0.2208
    1SOL    HW2 4302   1.688   2.005   1.927  0.3584  0.4111  0.1773
    1SOL    HW3 4303   1.763   1.951   1.807  0.3894  1.3985 -0.2544
    1SOL    MW4 4304   1.754   1.959   1.894 -0.0527  0.0745 -0.1726
    1SOL     OW 4305   1.988   2.085   1.987  0.0793 -0.1033  0.0484
    1SOL    HW2 4306   2.056   2.018   1.972 -0.7136 -0.6678 -1.0885
    1SOL    HW3 4307   1.908   2.046   1.951 -0.6509  0.9522  0.5228
    1SOL    MW4 4308   1.987   2.071   1.980 -0.1217 -0.0386 -0.0391
    1SOL     OW 4309   2.025   2.338   1.838 -0.1541  0.6965  0.2692
    1SOL    HW2 4310   2.082   2.384   1.900 -0.0157  0.0592  0.6162
    1SOL    HW3 4311   2.012   2.251   1.877 -0.7364  0.5734 -0.1872
    1SOL    MW4 4312   2.031   2.333   1.851 -0.2124  0.5963  0.2546
    1SOL     OW 4313   1.808   2.477   1.967 -0.3754  0.2071  0.1421
    1SOL    HW2 4314   1.806   2.471   2.062 -0.8474 -1.5845  0.0353
    1SOL    HW3 4315   1.877   2.417   1.940  0.1713  1.1686 -0.6251
    1SOL    MW4 4316   1.817   2.468   1.976 -0.3655  0.0975  0.0266
    1SOL     OW 4317   1.824   2.727   1.847 -0.1108 -0.4969  0.2893
    1SOL    HW2 4318   1.814   2.643   1.891 -0.1439 -1.0466 -0.7352
    1SOL    HW3 4319   1.817   2.705   1.754  2.6476  0.2552 -0.1331
    1SOL    MW4 4320   1.821   2.713   1.840  0.2488 -0.4699  0.0983
    1SOL     OW 4321   2.056   2.853   1.973 -0.5247 -0.2044  0.3314
    1SOL    HW2 4322   2.048   2.831   2.066 -0.1971 -1.3960  0.0850
    1SOL    HW3 4323   1.977   2.816   1.934 -0.1720 -0.5913 -0.0188
    1SOL    MW4 4324   2.045   2.845   1.980 -0.4351 -0.4125  0.2526
    1SOL     OW 4325   2.055   3.103   1.848 -0.3532  0.0517  0.1685
    1SOL    HW2 4326   1.979   3.153   1.878 -0.6752 -0.3921  0.0949
    1SOL    HW3 4327   2.046   3.018   1.891  0.3867  0.1770  0.5704
    1SOL    MW4 4328   2.043   3.099   1.858 -0.2978  0.0098  0.2118
    1SOL     OW 4329   1.825   3.245   1.942  0.5393 -0.1123 -0.3730
    1SOL    HW2 4330   1.813   3.255   2.037  1.4176 -1.2736 -0.1306
    1SOL    HW3 4331   1.750   3.194   1.914  1.3076 -1.4908  0.0344
    1SOL    MW4 4332   1.814   3.240   1.951  0.7564 -0.4475 -0.2873
    1SOL     OW 4333   1.828   3.505   1.839  0.7544  0.1683  0.1995
    1SOL    HW2 4334   1.828   3.419   1.882  0.2314 -0.7872 -1.6446
    1SOL    HW3 4335   1.749   3.548   1.873 -0.9818 -1.5135 -1.5301
    1SOL    MW4 4336   1.817   3.499   1.849  0.4562 -0.1795 -0.2719
    1SOL     OW 4337   2.057   3.601   1.959  0.3220 -0.1908  0.3355
    1SOL    HW2 4338   2.066   3.690   1.924 -1.3972  1.0572  2.9226
    1SOL    HW3 4339   1.977   3.567   1.918  0.2034 -0.0120  0.4187
    1SOL    MW4 4340   2.048   3.608   1.949  0.0794 -0.0029  0.6878
    1SOL     OW 4341   2.077   3.881   1.881 -0.3310  0.0572  0.4675
    1SOL    HW2 4342   2.155   3.917   1.924 -0.1354 -0.6774  0.7410
    1SOL    HW3 4343   2.099   3.880   1.788 -0.1894  0.2681  0.4975
    1SOL    MW4 4344   2.090   3.886   1.875 -0.2866 -0.0119  0.5076
    1SOL     OW 4345   1.840   3.979   1.991  0.2675  0.5135  0.0014
    1SOL    HW2 4346   1.842   4.070   1.962  0.3182  0.7367  0.6951
    1SOL    HW3 4347   1.918   3.940   1.951 -1.1414  0.0995 -2.4141
    1SOL    MW4 4348   1.851   3.986   1.982  0.0883  0.4883 -0.2259
    1SOL     OW 4349   1.824   4.259   1.892  0.2415  0.1513 -0.3112
    1SOL    HW2 4350   1.736   4.290   1.912  0.1536  0.6933 -1.4670
    1SOL    HW3 4351   1.822   4.241   1.797  0.8363 -1.5774 -0.0289
    1SOL    MW4 4352   1.812   4.261   1.882  0.3084 -0.0052 -0.4264
    1SOL     OW 4353   2.020   4.404   2.018 -0.3130 -0.2952  0.1753
    1SOL    HW2 4354   2.097   4.353   1.991 -0.4121  0.1898 -1.0362
    1SOL    HW3 4355   1.946   4.357   1.981 -0.4959  0.0341  0.1246
    1SOL    MW4 4356   2.021   4.391   2.010 -0.3500 -0.1874  0.0086
    1SOL     OW 4357   2.438   0.003   1.876 -0.3530  0.2765  0.5007
    1SOL    HW2 4358   2.521   0.051   1.883  0.1270 -0.0926 -2.0614
    1SOL    HW3 4359   2.457  -0.083   1.913  0.4568  0.1628 -0.1461
    1SOL    MW4 4360   2.452  -0.002   1.882 -0.1826  0.2122  0.0775
    1SOL     OW 4361   2.225   0.124   2.014 -0.1303  0.4577 -0.2774
    1SOL    HW2 4362   2.243   0.116   2.108 -1.6917 -0.6139 -0.0576
    1SOL    HW3 4363   2.296   0.076   1.972 -0.3489 -0.5020  0.4305
    1SOL    MW4 4364   2.237   0.116   2.021 -0.3653  0.1897 -0.1552
    1SOL     OW 4365   2.229   0.388   1.911 -0.9267  0.2282 -0.1292
    1SOL    HW2 4366   2.227   0.300   1.949 -0.0753  0.1804 -0.1906
    1SOL    HW3 4367   2.152   0.432   1.948  0.2651  0.4001  2.1811
    1SOL    MW4 4368   2.218   0.383   1.921 -0.6571  0.2445  0.1675
    1SOL     OW 4369   2.445   0.518   2.037 -0.0147  0.0646 -0.1446
    1SOL    HW2 4370   2.520   0.465   2.011 -0.6718 -1.2915  0.6781
    1SOL    HW3 4371   2.372   0.484   1.985 -0.0006  1.6656 -1.2679
    1SOL    MW4 4372   2.446   0.507   2.027 -0.0999  0.0969 -0.1843
    1SOL     OW 4373   2.436   0.762   1.898  0.2770  0.2561 -0.4174
    1SOL    HW2 4374   2.452   0.678   1.941  0.4658  0.1905 -0.6139
    1SOL    HW3 4375   2.444   0.743   1.805 -0.7131  0.2718 -0.5111
    1SOL    MW4 4376   2.439   0.748   1.892  0.1717  0.2496 -0.4557
    1SOL     OW 4377   2.218   0.908   2.020 -0.2841  0.5547  0.6078
    1SOL    HW2 4378   2.216   0.893   2.114 -0.7794  0.0560  0.5240
    1SOL    HW3 4379   2.292   0.855   1.989 -1.0991 -0.5522  0.5138
    1SOL    MW4 4380   2.228   0.899   2.028 -0.4568  0.3428  0.5841
    1SOL     OW 4381   2.211   1.155   1.910  0.0744  0.1393 -0.3863
    1SOL    HW2 4382   2.295   1.197   1.930  0.0382  1.0800 -2.0897
    1SOL    HW3 4383   2.210   1.077   1.965  0.8276  1.5491  1.7051
    1SOL    MW4 4384   2.222   1.150   1.920  0.1688  0.4494 -0.3351
    1SOL     OW 4385   2.440   1.286   1.985  0.0420 -0.2486  0.3779
    1SOL    HW2 4386   2.438   1.296   2.081 -0.2996  0.3262  0.3160
    1SOL    HW3 4387   2.433   1.376   1.952 -4.1371 -0.7370 -0.2441
    1SOL    MW4 4388   2.439   1.299   1.994 -0.5543 -0.2372  0.2878
    1SOL     OW 4389   2.477   1.556   1.909 -0.1105  0.2753 -0.3725
    1SOL    HW2 4390   2.406   1.617   1.928  0.4939  0.6967  0.5724
    1SOL    HW3 4391   2.483   1.555   1.814 -1.9996 -0.4884 -0.5067
    1SOL    MW4 4392   2.469   1.564   1.899 -0.2801  0.2301 -0.2655
    1SOL     OW 4393   2.234   1.665   1.974 -0.2882 -0.4619 -0.0114
    1SOL    HW2 4394   2.214   1.645   2.066  0.1208 -0.0121  0.1713
    1SOL    HW3 4395   2.159   1.628   1.926 -1.1660  0.4824  0.6076
    1SOL    MW4 4396   2.221   1.657   1.980 -0.3495 -0.2779  0.0943
    1SOL     OW 4397   2.225   1.943   1.939 -0.5223  0.2838 -0.2092
    1SOL    HW2 4398   2.305   1.990   1.961 -0.3478  0.3347 -0.9286
    1SOL    HW3 4399   2.237   1.857   1.979 -0.4551  0.5540  0.3553
    1SOL    MW4 4400   2.237   1.938   1.947 -0.4904  0.3262 -0.2297
    1SOL     OW 4401   2.480   2.081   2.009 -0.1039  0.1581  0.1305
    1SOL    HW2 4402   2.566   2.048   1.981 -0.0912  0.6288 -0.4008
    1SOL    HW3 4403   2.477   2.171   1.975 -1.0290 -0.0440 -0.3291
    1SOL    MW4 4404   2.491   2.089   2.001 -0.2244  0.1936 -0.0005
    1SOL     OW 4405   2.506   2.353   1.872 -0.3984 -0.2613  0.0373
    1SOL    HW2 4406   2.586   2.384   1.915 -1.0537 -1.0519  1.8816
    1SOL    HW3 4407   2.437   2.409   1.909 -0.7023  0.4474 -1.5823
    1SOL    MW4 4408   2.507   2.365   1.883 -0.5248 -0.2718  0.0669
    1SOL     OW 4409   2.236   2.461   1.975 -0.5983 -0.0178 -0.0419
    1SOL    HW2 4410   2.242   2.475   2.070  0.7324 -1.5213  0.1195
    1SOL    HW3 4411   2.227   2.549   1.938 -1.1231  0.5817  1.4823
    1SOL    MW4 4412   2.236   2.475   1.983 -0.4919 -0.1371  0.1805
    1SOL     OW 4413   2.278   2.721   1.865 -0.1012 -0.4852  0.1826
    1SOL    HW2 4414   2.205   2.774   1.896  1.4366  1.8595 -0.0763
    1SOL    HW3 4415   2.264   2.717   1.770 -0.0585 -0.2794  0.1664
    1SOL    MW4 4416   2.266   2.728   1.856  0.1073 -0.1488  0.1465
    1SOL     OW 4417   2.480   2.886   1.977 -0.2738  0.0066  0.0353
    1SOL    HW2 4418   2.499   2.963   1.923  0.6715 -0.9935 -1.0919
    1SOL    HW3 4419   2.413   2.838   1.928  0.4162 -0.7895 -0.1307
    1SOL    MW4 4420   2.474   2.890   1.964 -0.0579 -0.2306 -0.1354
    1SOL     OW 4421   2.529   3.106   1.816 -0.2618 -0.0777  0.1445
    1SOL    HW2 4422   2.450   3.157   1.833 -0.2056 -0.0915  0.4413
    1SOL    HW3 4423   2.522   3.082   1.723 -0.5874 -0.0493  0.1609
    1SOL    MW4 4424   2.518   3.110   1.806 -0.2973 -0.0758  0.1860
    1SOL     OW 4425   2.297   3.213   1.927  0.1308  0.2600  0.0934
    1SOL    HW2 4426   2.304   3.200   2.022  0.5798  0.3646  0.0778
    1SOL    HW3 4427   2.210   3.181   1.905  0.5511 -1.1024  0.3309
    1SOL    MW4 4428   2.287   3.207   1.937  0.2456  0.0942  0.1227
    1SOL     OW 4429   2.264   3.468   1.854  0.2349 -0.0064 -0.3843
    1SOL    HW2 4430   2.264   3.375   1.877  1.3001 -0.1154 -0.8114
    1SOL    HW3 4431   2.187   3.503   1.898 -0.7027 -1.2793 -0.9679
    1SOL    MW4 4432   2.254   3.460   1.862  0.2518 -0.1888 -0.5176
    1SOL     OW 4433   2.443   3.631   1.965  0.2528  0.0447  0.5366
    1SOL    HW2 4434   2.436   3.615   2.059 -0.5909  0.9435  0.6343
    1SOL    HW3 4435   2.384   3.568   1.926  0.5768 -0.3056  0.6098
    1SOL    MW4 4436   2.435   3.621   1.972  0.1843  0.1171  0.5591
    1SOL     OW 4437   2.472   3.896   1.878 -0.5838  0.2669 -0.4206
    1SOL    HW2 4438   2.416   3.954   1.931  0.0501 -1.0540  1.7683
    1SOL    HW3 4439   2.453   3.808   1.912  2.2804 -0.2734 -0.1298
    1SOL    MW4 4440   2.462   3.892   1.890 -0.1223  0.0212 -0.0935
    1SOL     OW 4441   2.278   4.038   2.021 -0.5150  0.7141 -0.5966
    1SOL    HW2 4442   2.286   4.039   2.116  2.6011 -0.7093 -0.7960
    1SOL    HW3 4443   2.279   4.130   1.995  0.3877  1.0590  0.6410
    1SOL    MW4 4444   2.279   4.050   2.030  0.0153  0.5722 -0.4599
    1SOL     OW 4445   2.259   4.285   1.910  0.1901 -0.1448 -0.0377
    1SOL    HW2 4446   2.346   4.322   1.928  0.2727 -1.2437  1.9498
    1SOL    HW3 4447   2.254   4.281   1.814  2.0544  0.5754 -0.1864
    1SOL    MW4 4448   2.270   4.289   1.900  0.4470 -0.1945  0.2049
    1SOL     OW 4449   2.505   4.414   1.980 -0.0090  0.1570 -0.2098
    1SOL    HW2 4450   2.510   4.423   2.075  0.7359 -2.0858  0.0125
    1SOL    HW3 4451   2.587   4.369   1.956  0.5376  2.0847 -2.1020
    1SOL    MW4 4452   2.517   4.409   1.989  0.1612  0.1154 -0.4301
    1SOL     OW 4453   2.885   4.614   1.856  0.1861 -0.6248  0.3319
    1SOL    HW2 4454   2.952   4.681   1.872  0.3026 -0.2888 -1.3652
    1SOL    HW3 4455   2.921   4.535   1.895  0.9971 -0.1565  0.5567
    1SOL    MW4 4456   2.899   4.613   1.863  0.3085 -0.5188  0.1377
    1SOL     OW 4457   2.677   0.116   1.946  0.5317  0.3147 -0.4606
    1SOL    HW2 4458   2.673   0.112   2.041  2.9053  1.1810 -0.2752
    1SOL    HW3 4459   2.736   0.045   1.921 -0.9890 -0.6501 -1.3986
    1SOL    MW4 4460   2.685   0.106   1.955  0.6442  0.3017 -0.5599
    1SOL     OW 4461   2.688   0.393   1.954 -0.5055 -0.4101 -0.3650
    1SOL    HW2 4462   2.774   0.419   1.986 -0.4235 -0.9352 -0.1565
    1SOL    HW3 4463   2.693   0.298   1.945 -0.6104 -0.2914 -1.7274
    1SOL    MW4 4464   2.700   0.384   1.957 -0.5085 -0.4637 -0.5174
    1SOL     OW 4465   2.949   0.513   2.018  0.1115 -0.0314 -0.0859
    1SOL    HW2 4466   3.022   0.464   1.981 -0.0955 -0.8008  0.4985
    1SOL    HW3 4467   2.945   0.593   1.966  1.3198 -0.0119 -0.1636
    1SOL    MW4 4468   2.958   0.517   2.006  0.2437 -0.1303 -0.0191
    1SOL     OW 4469   2.914   0.745   1.865 -0.2813  0.0335 -0.6527
    1SOL    HW2 4470   2.992   0.790   1.896 -0.8126  0.3045  0.3312
    1SOL    HW3 4471   2.847   0.766   1.930 -0.4333 -2.5361  0.0927
    1SOL    MW4 4472   2.915   0.753   1.878 -0.3715 -0.2698 -0.4244
    1SOL     OW 4473   2.677   0.866   1.993 -0.4070  0.1529 -0.0919
    1SOL    HW2 4474   2.679   0.961   1.984  1.5120 -0.0775 -2.7417
    1SOL    HW3 4475   2.603   0.838   1.938 -0.8372  0.0856  0.5156
    1SOL    MW4 4476   2.667   0.875   1.984 -0.2105  0.1136 -0.3614
    1SOL     OW 4477   2.664   1.160   1.935  0.0634  0.9046 -0.0188
    1SOL    HW2 4478   2.582   1.202   1.959 -0.5513  0.5725 -1.4752
    1SOL    HW3 4479   2.666   1.163   1.840  1.2466 -0.0342 -0.0431
    1SOL    MW4 4480   2.654   1.166   1.926  0.1383  0.7371 -0.2141
    1SOL     OW 4481   2.913   1.253   1.978 -0.0430  0.0494  0.1035
    1SOL    HW2 4482   2.913   1.343   1.945  1.4456  0.1450  0.3718
    1SOL    HW3 4483   2.826   1.220   1.955 -0.0880  1.0849 -1.2715
    1SOL    MW4 4484   2.901   1.261   1.970  0.1473  0.1986 -0.0424
    1SOL     OW 4485   2.910   1.515   1.875  0.2211 -0.2605  0.2072
    1SOL    HW2 4486   2.990   1.559   1.904  0.0671  0.2483 -0.1167
    1SOL    HW3 4487   2.904   1.535   1.781  0.2402 -1.1274  0.0167
    1SOL    MW4 4488   2.919   1.524   1.866  0.2036 -0.3078  0.1394
    1SOL     OW 4489   2.712   1.671   1.986 -0.1862 -0.3884 -0.0653
    1SOL    HW2 4490   2.781   1.612   1.955  0.3544  0.0550  0.2760
    1SOL    HW3 4491   2.630   1.624   1.969  0.2250 -1.1020 -0.0856
    1SOL    MW4 4492   2.710   1.657   1.980 -0.0606 -0.4240 -0.0229
    1SOL     OW 4493   2.683   1.941   1.881  0.0995 -0.0302 -0.2227
    1SOL    HW2 4494   2.771   1.959   1.915 -0.3999  1.5417  0.3158
    1SOL    HW3 4495   2.666   1.850   1.906  1.6243 -0.4084 -0.4822
    1SOL    MW4 4496   2.692   1.931   1.889  0.2348  0.1273 -0.1858
    1SOL     OW 4497   2.950   2.058   1.949 -0.0152 -0.0770 -0.3787
    1SOL    HW2 4498   2.941   2.031   2.041  0.2045 -0.2342 -0.4033
    1SOL    HW3 4499   3.031   2.015   1.919  0.3950  0.6933 -0.3864
    1SOL    MW4 4500   2.960   2.049   1.957  0.0682  0.0038 -0.3829
    1SOL     OW 4501   2.961   2.335   1.873  0.3482  0.0794  0.1018
    1SOL    HW2 4502   3.042   2.380   1.897  1.4119 -0.8276 -1.7129
    1SOL    HW3 4503   2.970   2.248   1.911  0.2287 -0.0282 -0.1180
    1SOL    MW4 4504   2.973   2.330   1.881  0.4728 -0.0546 -0.1664
    1SOL     OW 4505   2.734   2.437   1.989 -0.2149  0.1627  0.0374
    1SOL    HW2 4506   2.736   2.531   1.971  1.4257 -0.0687 -1.1560
    1SOL    HW3 4507   2.807   2.402   1.937 -0.8216 -1.7636  0.4676
    1SOL    MW4 4508   2.744   2.445   1.980 -0.0782 -0.1221 -0.0633
    1SOL     OW 4509   2.693   2.707   1.903 -0.3483 -0.1767 -0.3595
    1SOL    HW2 4510   2.619   2.757   1.937 -0.0167  0.3943 -0.4772
    1SOL    HW3 4511   2.677   2.703   1.808  0.0923  0.4814 -0.4652
    1SOL    MW4 4512   2.681   2.713   1.895 -0.2465 -0.0145 -0.3889
    1SOL     OW 4513   2.915   2.845   2.001  0.0269 -0.1090  0.0496
    1SOL    HW2 4514   2.909   2.929   1.956  2.4501 -0.4456 -0.9801
    1SOL    HW3 4515   2.839   2.796   1.971 -0.0987  0.8335 -1.2053
    1SOL    MW4 4516   2.904   2.850   1.991  0.3300 -0.0288 -0.2519
    1SOL     OW 4517   2.923   3.110   1.882  0.3340  0.0869  0.2502
    1SOL    HW2 4518   3.010   3.150   1.890  0.2112  0.5860 -0.8654
    1SOL    HW3 4519   2.868   3.164   1.938  0.5458  0.3662  0.1944
    1SOL    MW4 4520   2.927   3.122   1.891  0.3457  0.1895  0.0956
    1SOL     OW 4521   2.699   3.244   2.002 -0.0229  0.0071  0.3213
    1SOL    HW2 4522   2.714   3.324   1.951 -0.1474 -0.3530 -0.2910
    1SOL    HW3 4523   2.631   3.197   1.953  0.8333 -0.9978  0.0764
    1SOL    MW4 4524   2.692   3.248   1.989  0.0737 -0.1731  0.2081
    1SOL     OW 4525   2.681   3.514   1.867  0.3677  0.2193 -0.0301
    1SOL    HW2 4526   2.753   3.557   1.913  0.4826  1.0184 -0.9267
    1SOL    HW3 4527   2.602   3.547   1.909  0.4719  0.9086 -0.3750
    1SOL    MW4 4528   2.680   3.524   1.878  0.3965  0.4160 -0.1937
    1SOL     OW 4529   2.908   3.624   1.981  0.2320  0.5789 -0.2363
    1SOL    HW2 4530   2.900   3.617   2.076 -0.7142 -1.3017 -0.4201
    1SOL    HW3 4531   2.993   3.586   1.961 -0.3562 -0.7468 -0.2840
    1SOL    MW4 4532   2.918   3.618   1.991  0.0298  0.1562 -0.2669
    1SOL     OW 4533   2.917   3.888   1.879  0.1439  0.8499  0.5311
    1SOL    HW2 4534   2.902   3.801   1.916  0.4863 -0.1664 -1.6336
    1SOL    HW3 4535   2.911   3.875   1.784 -1.0142  3.4206  0.2062
    1SOL    MW4 4536   2.914   3.875   1.871  0.0365  1.0550  0.2024
    1SOL     OW 4537   2.680   3.994   2.014  0.2621  0.8704 -0.4486
    1SOL    HW2 4538   2.753   3.953   1.968  0.0332  0.6707 -0.6353
    1SOL    HW3 4539   2.602   3.955   1.975  0.0864 -0.8400  1.5474
    1SOL    MW4 4540   2.679   3.984   2.002  0.2086  0.6185 -0.2098
    1SOL     OW 4541   2.720   4.257   1.902  0.1231  0.0346  0.8592
    1SOL    HW2 4542   2.711   4.173   1.947  0.3275 -0.7951 -0.6385
    1SOL    HW3 4543   2.693   4.239   1.812 -0.4144  1.7166  0.6759
    1SOL    MW4 4544   2.715   4.244   1.896  0.0789  0.1469  0.6374
    1SOL     OW 4545   2.961   4.378   1.953  0.2151 -0.4589  0.1364
    1SOL    HW2 4546   2.970   4.386   2.048  2.4376 -1.4517  0.0500
    1SOL    HW3 4547   2.878   4.332   1.940  0.5678 -1.5727  1.6565
    1SOL    MW4 4548   2.951   4.373   1.964  0.5550 -0.7367  0.3254
    1SOL     OW 4549   3.347   4.606   1.919 -0.1943  0.0945 -0.3731
    1SOL    HW2 4550   3.340   4.519   1.957 -0.9700  0.7440  0.9960
    1SOL    HW3 4551   3.325   4.594   1.827 -0.1301 -1.1744 -0.2331
    1SOL    MW4 4552   3.343   4.593   1.912 -0.2882  0.0124 -0.1740
    1SOL     OW 4553   3.115   0.080   1.962  0.5850  0.1756 -0.6082
    1SOL    HW2 4554   3.116   0.093   2.056 -0.8802  0.3002 -0.5866
    1SOL    HW3 4555   3.190   0.024   1.944 -0.1172 -1.2604  0.8562
    1SOL    MW4 4556   3.125   0.074   1.972  0.2992  0.0026 -0.4121
    1SOL     OW 4557   3.143   0.346   1.893  0.3437  0.2283  0.0430
    1SOL    HW2 4558   3.126   0.257   1.923  1.6607  0.0546  0.3040
    1SOL    HW3 4559   3.150   0.339   1.798 -0.5853  0.2403 -0.0349
    1SOL    MW4 4560   3.142   0.334   1.884  0.3948  0.2070  0.0672
    1SOL     OW 4561   3.363   0.479   1.994 -0.5819 -0.3318  0.3806
    1SOL    HW2 4562   3.436   0.435   1.949  0.1112 -2.0263  3.0384
    1SOL    HW3 4563   3.285   0.435   1.959 -0.1065 -1.1253  0.2878
    1SOL    MW4 4564   3.362   0.467   1.983 -0.4280 -0.6601  0.7188
    1SOL     OW 4565   3.377   0.750   1.934 -0.3785  0.5612  0.1634
    1SOL    HW2 4566   3.292   0.782   1.965 -0.5531  0.4280 -0.1763
    1SOL    HW3 4567   3.375   0.656   1.951 -1.3564  0.1039 -2.2371
    1SOL    MW4 4568   3.366   0.742   1.940 -0.5307  0.4832 -0.1981
    1SOL     OW 4569   3.157   0.882   2.021 -0.0744  0.0465 -0.3192
    1SOL    HW2 4570   3.154   0.904   2.114  2.5579 -0.2955 -0.0979
    1SOL    HW3 4571   3.135   0.963   1.975 -0.2340  0.5169  0.5938
    1SOL    MW4 4572   3.154   0.896   2.027  0.2518  0.0635 -0.1693
    1SOL     OW 4573   3.109   1.101   1.856  0.3687  0.2558  0.1485
    1SOL    HW2 4574   3.185   1.154   1.878 -0.1427  1.1286 -0.1609
    1SOL    HW3 4575   3.034   1.155   1.878 -0.1602 -0.1602 -0.5821
    1SOL    MW4 4576   3.109   1.115   1.862  0.2315  0.3161  0.0113
    1SOL     OW 4577   3.349   1.197   1.951 -0.3309  0.2985 -0.1485
    1SOL    HW2 4578   3.337   1.199   2.046  0.6211  0.4169 -0.0260
    1SOL    HW3 4579   3.339   1.288   1.924 -0.4286  0.2910 -0.1372
    1SOL    MW4 4580   3.346   1.209   1.960 -0.2184  0.3130 -0.1310
    1SOL     OW 4581   3.315   1.454   1.867  0.4019 -0.3949 -0.1762
    1SOL    HW2 4582   3.379   1.512   1.908  0.0321 -0.3841  0.3842
    1SOL    HW3 4583   3.232   1.500   1.873  0.5941  0.3276 -2.3832
    1SOL    MW4 4584   3.313   1.468   1.873  0.3786 -0.2981 -0.3934
    1SOL     OW 4585   3.131   1.647   1.939  0.2134 -0.2722  0.4487
    1SOL    HW2 4586   3.130   1.634   2.033  0.4143  0.5667  0.5693
    1SOL    HW3 4587   3.142   1.742   1.927  1.4549 -0.5110 -0.4190
    1SOL    MW4 4588   3.132   1.658   1.950  0.4036 -0.1931  0.3500
    1SOL     OW 4589   3.162   1.904   1.875  0.1851  0.4648  0.4258
    1SOL    HW2 4590   3.242   1.948   1.903  0.1385  0.7487  0.1188
    1SOL    HW3 4591   3.166   1.908   1.779 -0.0502  0.2155  0.4069
    1SOL    MW4 4592   3.173   1.910   1.866  0.1481  0.4694  0.3829
    1SOL     OW 4593   3.351   2.056   2.009  0.3606  0.1932 -0.0705
    1SOL    HW2 4594   3.431   2.008   1.984  0.2025 -0.4328  0.5939
    1SOL    HW3 4595   3.365   2.144   1.976  1.0516 -0.0791 -0.5342
    1SOL    MW4 4596   3.364   2.061   2.002  0.4311  0.0749 -0.0441
    1SOL     OW 4597   3.384   2.289   1.863 -0.0590 -0.0221 -0.0064
    1SOL    HW2 4598   3.314   2.353   1.878 -0.1488 -0.1768  0.2208
    1SOL    HW3 4599   3.376   2.266   1.770  1.1138  1.6669 -0.5601
    1SOL    MW4 4600   3.374   2.295   1.852  0.0839  0.1802 -0.0496
    1SOL     OW 4601   3.182   2.463   1.942  0.2554 -0.8628 -0.0053
    1SOL    HW2 4602   3.196   2.465   2.037 -0.3101 -1.9392  0.1091
    1SOL    HW3 4603   3.179   2.555   1.916 -0.3711 -0.5516  1.1355
    1SOL    MW4 4604   3.184   2.475   1.951  0.0980 -0.9639  0.1602
    1SOL     OW 4605   3.153   2.732   1.879  0.1430  0.6952  0.5924
    1SOL    HW2 4606   3.088   2.789   1.920 -0.6695  0.3679 -0.2368
    1SOL    HW3 4607   3.139   2.743   1.785  1.0432  0.3454  0.4152
    1SOL    MW4 4608   3.143   2.741   1.872  0.1545  0.6061  0.4596
    1SOL     OW 4609   3.408   2.829   1.973 -0.3277 -0.4880  0.0347
    1SOL    HW2 4610   3.397   2.823   2.068 -0.8533  2.8875  0.2537
    1SOL    HW3 4611   3.324   2.798   1.938 -0.7180 -0.2214  0.7250
    1SOL    MW4 4612   3.395   2.824   1.981 -0.4485 -0.0074  0.1549
    1SOL     OW 4613   3.406   3.099   1.909  0.7204  0.5267  0.0993
    1SOL    HW2 4614   3.480   3.137   1.956  1.3158  0.4185 -0.7330
    1SOL    HW3 4615   3.410   3.005   1.929  1.6461  0.3095 -1.0550
    1SOL    MW4 4616   3.416   3.092   1.918  0.9212  0.4838 -0.1628
    1SOL     OW 4617   3.169   3.223   1.954  0.1114 -0.0605  0.0478
    1SOL    HW2 4618   3.173   3.238   2.048  1.3666 -1.3222  0.2141
    1SOL    HW3 4619   3.247   3.171   1.934 -0.6350 -0.6251 -1.5309
    1SOL    MW4 4620   3.180   3.218   1.964  0.1786 -0.3014 -0.1385
    1SOL     OW 4621   3.142   3.502   1.901  0.0421  0.0833  0.3635
    1SOL    HW2 4622   3.156   3.409   1.917  0.2097  0.1889  0.8449
    1SOL    HW3 4623   3.213   3.545   1.949  0.9084  0.3778 -1.1652
    1SOL    MW4 4624   3.153   3.495   1.910  0.1786  0.1361  0.2252
    1SOL     OW 4625   3.380   3.614   2.007  0.5737 -0.2607 -1.0478
    1SOL    HW2 4626   3.462   3.574   1.977  1.1879  0.6294 -0.5864
    1SOL    HW3 4627   3.385   3.705   1.975  0.6273  0.3222  0.5842
    1SOL    MW4 4628   3.392   3.621   1.999  0.6621 -0.0665 -0.7718
    1SOL     OW 4629   3.390   3.868   1.923 -0.1665 -0.4832 -0.0144
    1SOL    HW2 4630   3.306   3.906   1.947  0.5586  0.6655  0.7336
    1SOL    HW3 4631   3.382   3.850   1.829 -1.2623 -0.4393  0.0619
    1SOL    MW4 4632   3.378   3.870   1.914 -0.2153 -0.3257  0.0945
    1SOL     OW 4633   3.153   3.960   1.982  0.1469 -0.2953 -0.3099
    1SOL    HW2 4634   3.142   3.989   2.073  0.1843 -1.2511  0.0008
    1SOL    HW3 4635   3.065   3.933   1.955  0.2942 -0.7913 -0.2908
    1SOL    MW4 4636   3.140   3.961   1.990  0.1712 -0.4869 -0.2663
    1SOL     OW 4637   3.142   4.219   1.847 -0.2031  0.0264 -0.4253
    1SOL    HW2 4638   3.122   4.129   1.870 -1.2612 -0.0744 -1.6809
    1SOL    HW3 4639   3.071   4.271   1.884 -1.6387 -0.0839 -2.9175
    1SOL    MW4 4640   3.130   4.214   1.855 -0.5322 -0.0014 -0.9198
    1SOL     OW 4641   3.359   4.330   1.987  0.1717 -0.4789  0.0345
    1SOL    HW2 4642   3.438   4.306   1.938 -0.1552  0.4531 -0.9690
    1SOL    HW3 4643   3.288   4.289   1.938 -0.1262  0.1712 -0.0801
    1SOL    MW4 4644   3.360   4.321   1.974  0.0892 -0.2699 -0.1129
    1SOL     OW 4645   3.820   0.001   1.901  0.1818 -0.6032 -0.0516
    1SOL    HW2 4646   3.810  -0.092   1.924 -2.3941 -0.7178 -1.4220
    1SOL    HW3 4647   3.733   0.037   1.915  1.1226  1.5908  0.2490
    1SOL    MW4 4648   3.807  -0.007   1.906 -0.0339 -0.3285 -0.1928
    1SOL     OW 4649   3.557   0.089   1.953  0.1356  0.0031  0.0057
    1SOL    HW2 4650   3.559   0.093   2.049 -1.1038 -0.4276  0.0660
    1SOL    HW3 4651   3.481   0.035   1.934 -0.3731  1.1480 -1.2612
    1SOL    MW4 4652   3.547   0.082   1.963 -0.0951  0.0974 -0.1537
    1SOL     OW 4653   3.601   0.355   1.851 -0.0899 -0.1234 -0.6216
    1SOL    HW2 4654   3.582   0.264   1.874 -1.7294  0.3562 -0.0296
    1SOL    HW3 4655   3.606   0.354   1.755  2.1151 -1.2299 -0.5393
    1SOL    MW4 4656   3.599   0.343   1.841 -0.0153 -0.2061 -0.5327
    1SOL     OW 4657   3.817   0.476   1.971 -0.0568 -0.0585  0.2900
    1SOL    HW2 4658   3.818   0.566   1.938  0.8887  0.9312  2.9550
    1SOL    HW3 4659   3.746   0.434   1.922  0.2621  1.7888 -1.8265
    1SOL    MW4 4660   3.807   0.482   1.960  0.1101  0.3158  0.3623
    1SOL     OW 4661   3.851   0.754   1.867 -0.1589  0.0704  0.1505
    1SOL    HW2 4662   3.776   0.797   1.908 -0.5913  0.0033 -0.5540
    1SOL    HW3 4663   3.836   0.764   1.773 -1.8388 -4.1399 -0.1748
    1SOL    MW4 4664   3.839   0.761   1.860 -0.4375 -0.4941  0.0145
    1SOL     OW 4665   3.622   0.860   1.974 -0.0064 -0.0270 -0.2503
    1SOL    HW2 4666   3.621   0.944   1.930 -1.2971  0.1108  0.0294
    1SOL    HW3 4667   3.531   0.830   1.972  0.4261 -1.3789 -0.2846
    1SOL    MW4 4668   3.610   0.867   1.968 -0.1199 -0.1872 -0.2178
    1SOL     OW 4669   3.591   1.111   1.872  0.1762 -0.0559 -0.1708
    1SOL    HW2 4670   3.511   1.146   1.913 -0.1263 -1.3136  0.3239
    1SOL    HW3 4671   3.576   1.122   1.778 -1.0009 -1.1792 -0.1194
    1SOL    MW4 4672   3.578   1.117   1.865 -0.0193 -0.3700 -0.0988
    1SOL     OW 4673   3.816   1.264   1.945 -0.5398 -0.1365  0.0436
    1SOL    HW2 4674   3.817   1.267   2.040 -0.8922  0.6846  0.0289
    1SOL    HW3 4675   3.732   1.223   1.923 -1.4849  1.7265  0.0632
    1SOL    MW4 4676   3.805   1.259   1.955 -0.7112  0.2176  0.0443
    1SOL     OW 4677   3.773   1.541   1.930  0.1257  0.1309 -0.5380
    1SOL    HW2 4678   3.854   1.588   1.951  0.2386 -0.5947  0.6524
    1SOL    HW3 4679   3.797   1.449   1.934 -1.0315 -0.1277  1.0234
    1SOL    MW4 4680   3.787   1.535   1.933 -0.0122  0.0011 -0.1748
    1SOL     OW 4681   3.517   1.631   1.965 -0.0418  0.0521  0.7234
    1SOL    HW2 4682   3.523   1.727   1.961 -1.8420  0.1105 -2.2140
    1SOL    HW3 4683   3.605   1.601   1.943  0.2564  1.0200  0.5691
    1SOL    MW4 4684   3.530   1.640   1.961 -0.2398  0.1876  0.3155
    1SOL     OW 4685   3.542   1.905   1.902 -0.5885 -0.2115 -0.1968
    1SOL    HW2 4686   3.618   1.955   1.931 -0.3088 -0.9680  0.3784
    1SOL    HW3 4687   3.558   1.888   1.809  0.0129 -0.4920 -0.0442
    1SOL    MW4 4688   3.554   1.910   1.893 -0.4725 -0.3486 -0.1009
    1SOL     OW 4689   3.801   2.005   1.969  0.3297 -0.5594  0.4354
    1SOL    HW2 4690   3.869   1.964   1.916 -0.1752  0.7638 -1.3005
    1SOL    HW3 4691   3.816   2.099   1.959 -0.7906 -0.2725  1.3034
    1SOL    MW4 4692   3.812   2.012   1.960  0.1154 -0.3469  0.3210
    1SOL     OW 4693   3.798   2.272   1.877  0.0456 -0.6225  0.7503
    1SOL    HW2 4694   3.861   2.340   1.901  1.0596 -1.3386  0.1303
    1SOL    HW3 4695   3.713   2.309   1.902  0.5644  0.9437  0.2613
    1SOL    MW4 4696   3.795   2.286   1.884  0.2477 -0.5102  0.6040
    1SOL     OW 4697   3.591   2.432   1.981  0.3163  0.2788  0.5104
    1SOL    HW2 4698   3.592   2.520   1.942  0.0582  0.3983  0.7666
    1SOL    HW3 4699   3.508   2.394   1.952  1.4985 -0.7999 -1.5914
    1SOL    MW4 4700   3.580   2.439   1.972  0.4382  0.1526  0.2669
    1SOL     OW 4701   3.610   2.681   1.876 -0.0501  0.4766  0.0233
    1SOL    HW2 4702   3.678   2.733   1.918 -0.4053 -0.7221  2.1456
    1SOL    HW3 4703   3.528   2.728   1.895 -0.1559  0.1898  0.2931
    1SOL    MW4 4704   3.608   2.694   1.884 -0.1109  0.2806  0.3389
    1SOL     OW 4705   3.830   2.839   1.980 -0.3900  0.1559  0.2601
    1SOL    HW2 4706   3.825   2.839   2.076  0.9632  0.9251  0.3536
    1SOL    HW3 4707   3.834   2.931   1.956  0.5834 -0.0544 -0.4410
    1SOL    MW4 4708   3.830   2.851   1.990 -0.0830  0.2294  0.1799
    1SOL     OW 4709   3.884   3.105   1.860  0.1161 -0.1825  0.1993
    1SOL    HW2 4710   3.795   3.127   1.887 -0.4557  0.4013 -1.9835
    1SOL    HW3 4711   3.882   3.113   1.764  2.9557  1.5816  0.2012
    1SOL    MW4 4712   3.872   3.109   1.851  0.4156  0.1271 -0.0886
    1SOL     OW 4713   3.635   3.237   1.991  0.0826 -0.1445 -0.0634
    1SOL    HW2 4714   3.636   3.237   2.087 -1.7206  0.0690 -0.0293
    1SOL    HW3 4715   3.630   3.329   1.968 -0.0839 -0.2294 -0.3580
    1SOL    MW4 4716   3.635   3.249   2.001 -0.1774 -0.1276 -0.0980
    1SOL     OW 4717   3.619   3.507   1.920 -0.3519  0.0586 -0.0197
    1SOL    HW2 4718   3.704   3.527   1.958 -0.8975  3.0292 -0.2799
    1SOL    HW3 4719   3.626   3.532   1.829 -1.7153  0.9605  0.1081
    1SOL    MW4 4720   3.631   3.513   1.913 -0.6037  0.5693 -0.0371
    1SOL     OW 4721   3.845   3.593   2.010  0.2776 -0.2709 -0.3572
    1SOL    HW2 4722   3.924   3.550   1.977  1.0993  0.4677  0.6014
    1SOL    HW3 4723   3.846   3.679   1.969  0.3665  0.0082  0.2225
    1SOL    MW4 4724   3.856   3.599   2.000  0.3979 -0.1366 -0.1543
    1SOL     OW 4725   3.850   3.832   1.869  0.7793 -0.1815 -0.0001
    1SOL    HW2 4726   3.773   3.882   1.899 -0.3090 -0.9451 -1.4841
    1SOL    HW3 4727   3.851   3.845   1.774  1.8363 -1.1016 -0.1151
    1SOL    MW4 4728   3.840   3.841   1.860  0.7753 -0.4036 -0.2111
    1SOL     OW 4729   3.638   3.997   1.960  0.0080  0.1542 -0.3557
    1SOL    HW2 4730   3.645   4.034   2.049 -1.8360  0.7516 -0.4247
    1SOL    HW3 4731   3.550   3.959   1.958 -0.9139  2.2654 -2.6738
    1SOL    MW4 4732   3.627   3.997   1.972 -0.3569  0.5119 -0.6707
    1SOL     OW 4733   3.597   4.234   1.834 -0.0894  0.4516  0.0260
    1SOL    HW2 4734   3.670   4.283   1.871 -0.1421  0.1684  0.5188
    1SOL    HW3 4735   3.607   4.146   1.870 -0.4315  0.3009 -0.2402
    1SOL    MW4 4736   3.608   4.229   1.844 -0.1414  0.3939  0.0560
    1SOL     OW 4737   3.790   4.405   1.954  0.2398  0.1283  0.4962
    1SOL    HW2 4738   3.771   4.393   2.048  0.8442  0.7734  0.7031
    1SOL    HW3 4739   3.868   4.351   1.939 -0.9390 -1.4796 -0.0660
    1SOL    MW4 4740   3.798   4.396   1.965  0.1640  0.0014  0.4492
    1SOL     OW 4741   4.265   4.658   1.884  0.6275 -0.0492 -0.0943
    1SOL    HW2 4742   4.188   4.705   1.917  0.0196 -1.5169  0.6568
    1SOL    HW3 4743   4.340   4.707   1.918  0.0067 -0.0493  1.3293
    1SOL    MW4 4744   4.264   4.670   1.893  0.4659 -0.2432  0.1925
    1SOL     OW 4745   4.038   0.131   1.976  0.6583 -0.0898  0.2035
    1SOL    HW2 4746   4.041   0.107   2.069  1.4925 -0.2892  0.1270
    1SOL    HW3 4747   3.957   0.091   1.944 -0.7161  1.6865  1.3082
    1SOL    MW4 4748   4.028   0.123   1.984  0.5875  0.1183  0.3392
    1SOL     OW 4749   4.061   0.389   1.899  0.0558  0.3105 -0.0013
    1SOL    HW2 4750   4.069   0.297   1.923  0.6543  0.4324  0.2711
    1SOL    HW3 4751   3.986   0.421   1.950 -1.3301 -0.4795 -1.4913
    1SOL    MW4 4752   4.052   0.381   1.909 -0.0477  0.2224 -0.1620
    1SOL     OW 4753   4.294   0.480   1.990  0.1190 -0.1386 -0.0331
    1SOL    HW2 4754   4.275   0.480   2.084  0.7402 -0.2074  0.0917
    1SOL    HW3 4755   4.215   0.445   1.949 -0.7250  1.2821  0.3541
    1SOL    MW4 4756   4.281   0.476   1.997  0.0892  0.0397  0.0345
    1SOL     OW 4757   4.297   0.740   1.895 -0.0146  0.1393 -0.2263
    1SOL    HW2 4758   4.309   0.652   1.930 -0.2094  0.3767  0.4456
    1SOL    HW3 4759   4.274   0.726   1.803 -1.3586 -0.5637  0.1995
    1SOL    MW4 4760   4.296   0.726   1.887 -0.2179  0.0778 -0.0814
    1SOL     OW 4761   4.063   0.916   1.955 -0.1163  0.1224  0.2236
    1SOL    HW2 4762   4.141   0.866   1.931 -0.0946  1.2240 -2.2290
    1SOL    HW3 4763   3.991   0.871   1.911 -0.5729  0.2734  0.8094
    1SOL    MW4 4764   4.064   0.904   1.946 -0.1740  0.2877 -0.0229
    1SOL     OW 4765   4.063   1.170   1.840  0.1616 -0.4577 -0.1591
    1SOL    HW2 4766   4.073   1.091   1.893  0.5058  0.8729  1.7974
    1SOL    HW3 4767   3.985   1.213   1.875  0.0341  0.1264 -1.1505
    1SOL    MW4 4768   4.054   1.165   1.851  0.1903 -0.2050 -0.0318
    1SOL     OW 4769   4.296   1.287   1.935 -0.5115  0.3033  0.5004
    1SOL    HW2 4770   4.281   1.268   2.028 -0.5870  0.9916  0.6293
    1SOL    HW3 4771   4.211   1.272   1.894 -0.2094 -1.1071  0.3515
    1SOL    MW4 4772   4.283   1.282   1.942 -0.4816  0.2080  0.4977
    1SOL     OW 4773   4.265   1.563   1.874  0.3191 -0.5154 -0.0017
    1SOL    HW2 4774   4.285   1.474   1.901  1.7294 -0.6512 -1.3962
    1SOL    HW3 4775   4.254   1.558   1.779  2.2678  1.1027 -0.3504
    1SOL    MW4 4776   4.266   1.551   1.865  0.7625 -0.3197 -0.2317
    1SOL     OW 4777   4.022   1.675   1.966 -0.1938 -0.1965  0.1302
    1SOL    HW2 4778   4.038   1.680   2.060  0.8422 -1.3822  0.0336
    1SOL    HW3 4779   4.096   1.624   1.932 -1.9053 -2.0105 -0.9741
    1SOL    MW4 4780   4.034   1.669   1.974 -0.2828 -0.5921 -0.0281
    1SOL     OW 4781   4.041   1.926   1.834  0.3453 -0.4829 -0.2306
    1SOL    HW2 4782   4.041   1.844   1.882 -0.2484 -0.4475 -0.1762
    1SOL    HW3 4783   4.021   1.901   1.744 -1.2881 -0.2355  0.0547
    1SOL    MW4 4784   4.039   1.912   1.828  0.0515 -0.4456 -0.1857
    1SOL     OW 4785   4.217   2.079   1.972  0.2085 -0.2732  0.2887
    1SOL    HW2 4786   4.206   2.061   2.066 -2.3886  2.3767  0.5835
    1SOL    HW3 4787   4.154   2.021   1.929 -3.4401  3.1199  0.7639
    1SOL    MW4 4788   4.207   2.069   1.979 -0.6161  0.5245  0.3903
    1SOL     OW 4789   4.232   2.330   1.865  0.6775  0.2311 -0.0477
    1SOL    HW2 4790   4.221   2.248   1.913  1.4257 -0.1484 -0.5122
    1SOL    HW3 4791   4.315   2.365   1.897  0.9573  0.1989 -0.7340
    1SOL    MW4 4792   4.242   2.324   1.876  0.8130  0.1767 -0.1996
    1SOL     OW 4793   4.004   2.444   1.951  0.1180  0.1641  0.4259
    1SOL    HW2 4794   4.023   2.441   2.045  1.0333  0.1687  0.2444
    1SOL    HW3 4795   4.079   2.401   1.910  0.1033  0.8701 -0.3561
    1SOL    MW4 4796   4.017   2.438   1.958  0.2365  0.2577  0.2989
    1SOL     OW 4797   4.069   2.703   1.885 -0.0224  0.0526  0.1244
    1SOL    HW2 4798   4.057   2.614   1.920  1.9645 -0.1981  0.2586
    1SOL    HW3 4799   3.988   2.748   1.906 -0.2853 -1.1620  1.8732
    1SOL    MW4 4800   4.057   2.697   1.893  0.2055 -0.1409  0.3729
    1SOL     OW 4801   4.284   2.830   2.023 -0.4230 -0.1517 -0.1805
    1SOL    HW2 4802   4.246   2.825   2.111 -1.2269  0.6065 -0.4715
    1SOL    HW3 4803   4.222   2.781   1.969  0.1762 -0.7850 -0.2924
    1SOL    MW4 4804   4.271   2.823   2.028 -0.4501 -0.1352 -0.2339
    1SOL     OW 4805   4.289   3.077   1.874 -0.3282 -0.2131 -0.0184
    1SOL    HW2 4806   4.229   3.136   1.918 -0.1231 -0.0490  0.0438
    1SOL    HW3 4807   4.283   2.995   1.923 -0.1283 -0.0434  0.2951
    1SOL    MW4 4808   4.280   3.074   1.886 -0.2747 -0.1688  0.0311
    1SOL     OW 4809   4.108   3.240   1.994  0.8438  0.0791 -0.0862
    1SOL    HW2 4810   4.090   3.209   2.083 -0.5218  0.2217 -0.2909
    1SOL    HW3 4811   4.028   3.219   1.945  1.3619  0.5171 -1.1390
    1SOL    MW4 4812   4.095   3.233   1.999  0.7319  0.1554 -0.2524
    1SOL     OW 4813   4.074   3.488   1.877 -0.2951 -0.2398  0.2801
    1SOL    HW2 4814   4.141   3.538   1.923 -0.1418 -0.7884  0.6704
    1SOL    HW3 4815   4.082   3.400   1.914  0.4357 -0.9095 -1.4575
    1SOL    MW4 4816   4.084   3.483   1.888 -0.1788 -0.4005  0.1023
    1SOL     OW 4817   4.280   3.617   2.005  0.2312  0.1413  0.2800
    1SOL    HW2 4818   4.302   3.701   1.964 -2.1399 -0.1181 -1.6811
    1SOL    HW3 4819   4.344   3.555   1.970 -0.2716  0.4256 -1.1839
    1SOL    MW4 4820   4.291   3.620   1.995 -0.1473  0.1450 -0.1718
    1SOL     OW 4821   4.282   3.852   1.878  0.0251 -0.1559 -0.3586
    1SOL    HW2 4822   4.366   3.888   1.906  0.1971  0.0917 -1.1782
    1SOL    HW3 4823   4.270   3.886   1.790 -0.8823 -0.2883 -0.2840
    1SOL    MW4 4824   4.292   3.861   1.870 -0.0720 -0.1409 -0.4569
    1SOL     OW 4825   4.074   3.991   1.993  0.4088 -0.0334  0.1885
    1SOL    HW2 4826   4.154   3.958   1.953  0.2831  0.2460 -0.2974
    1SOL    HW3 4827   4.005   3.934   1.959  0.0313  1.4655 -1.5892
    1SOL    MW4 4828   4.075   3.979   1.984  0.3424  0.2015 -0.1101
    1SOL     OW 4829   4.020   4.253   1.919 -0.3814  0.0334  0.2825
    1SOL    HW2 4830   4.098   4.306   1.938 -0.1958 -0.1223 -0.0564
    1SOL    HW3 4831   4.043   4.165   1.949 -0.4659  0.0077  0.2711
    1SOL    MW4 4832   4.033   4.249   1.926 -0.3676  0.0095  0.2363
    1SOL     OW 4833   4.269   4.390   1.950  0.2222  0.3240 -0.2476
    1SOL    HW2 4834   4.259   4.373   2.044 -1.0298 -0.2351 -0.4752
    1SOL    HW3 4835   4.264   4.485   1.943 -1.2843  0.2773  0.0838
    1SOL    MW4 4836   4.267   4.400   1.962 -0.1416  0.2441 -0.2340
    1SOL     OW 4837   0.188   0.030   2.332  0.0061 -0.1207 -0.1669
    1SOL    HW2 4838   0.210   0.019   2.425 -0.1564 -0.5974 -0.1830
    1SOL    HW3 4839   0.262   0.079   2.296 -0.6837  1.4855  0.5472
    1SOL    MW4 4840   0.201   0.035   2.340 -0.1063  0.0283 -0.0746
    1SOL     OW 4841   4.432   0.121   2.244 -0.1650 -0.2105 -0.2851
    1SOL    HW2 4842   4.519   0.094   2.275 -0.6024  0.5999  1.6997
    1SOL    HW3 4843   4.443   0.130   2.149  2.2088  0.8415  0.0405
    1SOL    MW4 4844   4.445   0.118   2.235  0.0906  0.0352  0.0196
    1SOL     OW 4845   4.466   0.370   2.392  0.1014 -0.5429  0.3105
    1SOL    HW2 4846   4.537   0.402   2.335 -0.6650  1.2263  0.3141
    1SOL    HW3 4847   4.439   0.287   2.352  0.8832 -0.2823 -0.7878
    1SOL    MW4 4848   4.472   0.363   2.379  0.1030 -0.2751  0.1662
    1SOL     OW 4849   0.194   0.484   2.255 -0.0877 -0.4589  0.1383
    1SOL    HW2 4850   0.269   0.435   2.289  0.3127 -0.5943 -0.9061
    1SOL    HW3 4851   0.201   0.475   2.160 -0.6605  0.6652 -0.0213
    1SOL    MW4 4852   0.205   0.477   2.247 -0.1104 -0.3285 -0.0205
    1SOL     OW 4853   0.222   0.766   2.347 -0.0469 -0.1469 -0.3508
    1SOL    HW2 4854   0.228   0.773   2.442 -0.5055 -0.3701 -0.3005
    1SOL    HW3 4855   0.232   0.672   2.329 -0.0925 -0.1222 -0.5115
    1SOL    MW4 4856   0.224   0.754   2.357 -0.1134 -0.1730 -0.3653
    1SOL     OW 4857   0.020   0.911   2.220 -0.1361  0.9611 -0.3967
    1SOL    HW2 4858   0.088   0.853   2.255 -1.9616 -1.0561 -0.0722
    1SOL    HW3 4859   0.027   0.901   2.125 -1.0275 -0.5175 -0.3199
    1SOL    MW4 4860   0.030   0.902   2.212 -0.4946  0.4999 -0.3438
    1SOL     OW 4861   0.007   1.159   2.337  0.8543  0.1318  0.5574
    1SOL    HW2 4862  -0.013   1.146   2.429  0.7519  1.8384  0.7891
    1SOL    HW3 4863   0.017   1.071   2.302 -2.2072 -0.6681  1.5113
    1SOL    MW4 4864   0.006   1.146   2.344  0.4368  0.2514  0.7138
    1SOL     OW 4865   0.245   1.274   2.262 -0.1173 -0.4118 -0.0584
    1SOL    HW2 4866   0.164   1.234   2.295 -1.2418  1.2605 -0.6936
    1SOL    HW3 4867   0.228   1.287   2.168  0.9222 -0.1655 -0.2139
    1SOL    MW4 4868   0.232   1.271   2.254 -0.1285 -0.1588 -0.1626
    1SOL     OW 4869   0.219   1.551   2.328 -0.1385  0.4365 -0.0314
    1SOL    HW2 4870   0.224   1.559   2.424 -0.0477  1.4121 -0.1143
    1SOL    HW3 4871   0.246   1.461   2.311 -0.0476  0.2823  0.8560
    1SOL    MW4 4872   0.223   1.540   2.339 -0.1145  0.5449  0.0749
    1SOL     OW 4873   4.446   1.643   2.274 -0.4794 -0.0221 -0.0148
    1SOL    HW2 4874   4.457   1.730   2.312  0.6358 -0.4248  0.6299
    1SOL    HW3 4875   4.533   1.604   2.278 -0.8513 -0.9628 -0.8126
    1SOL    MW4 4876   4.459   1.649   2.280 -0.3810 -0.1994 -0.0348
    1SOL     OW 4877   4.478   1.921   2.357  0.3129 -0.4021 -0.5579
    1SOL    HW2 4878   4.401   1.970   2.326 -0.2737 -1.7767 -1.3101
    1SOL    HW3 4879   4.551   1.962   2.311 -0.2336 -0.5597 -1.5992
    1SOL    MW4 4880   4.477   1.933   2.347  0.1636 -0.6043 -0.7946
    1SOL     OW 4881   0.180   2.056   2.212  0.1893  0.1554 -0.0948
    1SOL    HW2 4882   0.267   2.024   2.237  0.7625  0.6792 -1.3956
    1SOL    HW3 4883   0.187   2.072   2.118 -1.1038  0.8989 -0.0621
    1SOL    MW4 4884   0.193   2.054   2.203  0.0943  0.3228 -0.2623
    1SOL     OW 4885   0.215   2.318   2.354  0.1333  0.1544  0.6941
    1SOL    HW2 4886   0.210   2.314   2.450  0.2686 -0.3331  0.6787
    1SOL    HW3 4887   0.205   2.228   2.325 -1.1074  0.4514  0.1783
    1SOL    MW4 4888   0.213   2.306   2.363 -0.0125  0.1292  0.6244
    1SOL     OW 4889   4.472   2.432   2.248  0.1189 -0.5687 -0.2934
    1SOL    HW2 4890   4.459   2.513   2.299 -0.9113 -1.5820  1.0889
    1SOL    HW3 4891   4.561   2.404   2.271  0.3827  0.0187 -0.5690
    1SOL    MW4 4892   4.482   2.439   2.258  0.0176 -0.6251 -0.1476
    1SOL     OW 4893   4.478   2.687   2.360 -0.2179 -0.3500  0.7211
    1SOL    HW2 4894   4.485   2.676   2.455  0.6061  0.1606  0.7180
    1SOL    HW3 4895   4.556   2.735   2.335 -0.2142 -0.8628 -0.2850
    1SOL    MW4 4896   4.489   2.692   2.369 -0.1087 -0.3502  0.5877
    1SOL     OW 4897   0.201   2.832   2.269 -0.3086  0.2397 -0.0272
    1SOL    HW2 4898   0.271   2.770   2.288  0.3940  0.9524 -0.2228
    1SOL    HW3 4899   0.209   2.850   2.176 -0.7207  0.3643 -0.0400
    1SOL    MW4 4900   0.212   2.827   2.259 -0.2703  0.3500 -0.0546
    1SOL     OW 4901   0.296   3.073   2.370  0.1414 -0.6101 -0.0497
    1SOL    HW2 4902   0.210   3.107   2.345 -0.0974 -0.8063  0.4822
    1SOL    HW3 4903   0.288   2.978   2.360  0.4449 -0.5951 -0.4440
    1SOL    MW4 4904   0.283   3.065   2.365  0.1499 -0.6340 -0.0317
    1SOL     OW 4905   0.062   3.170   2.287  0.0433 -0.3362  0.2683
    1SOL    HW2 4906   0.050   3.255   2.330  0.7900 -0.2818  0.3870
    1SOL    HW3 4907   0.053   3.190   2.193 -2.5571 -0.6326  0.4351
    1SOL    MW4 4908   0.059   3.184   2.280 -0.2012 -0.3681  0.3061
    1SOL     OW 4909   0.023   3.419   2.414 -0.4394 -0.1357 -0.1007
    1SOL    HW2 4910   0.027   3.426   2.509 -1.4464  0.8790 -0.1227
    1SOL    HW3 4911  -0.060   3.461   2.390 -0.9703 -1.8395 -1.2983
    1SOL    MW4 4912   0.013   3.426   2.423 -0.6423 -0.2267 -0.2615
    1SOL     OW 4913   0.223   3.598   2.283  0.0702 -0.2201 -0.3023
    1SOL    HW2 4914   0.309   3.560   2.299  0.5835  0.8512 -0.4888
    1SOL    HW3 4915   0.163   3.541   2.331  0.7279 -1.6979 -1.1573
    1SOL    MW4 4916   0.226   3.585   2.291  0.2247 -0.2737 -0.4396
    1SOL     OW 4917   0.217   3.870   2.345  0.0271 -0.4203 -0.1014
    1SOL    HW2 4918   0.132   3.901   2.313  0.2398 -0.1913 -0.4363
    1SOL    HW3 4919   0.225   3.782   2.309  1.1376  0.5497 -2.2725
    1SOL    MW4 4920   0.207   3.862   2.336  0.2017 -0.2620 -0.4320
    1SOL     OW 4921   4.474   3.961   2.258  0.1085 -0.1775 -0.2798
    1SOL    HW2 4922   4.477   4.051   2.291  1.9294 -0.8468  1.4223
    1SOL    HW3 4923   4.469   3.971   2.163  2.4565  1.7298 -0.2388
    1SOL    MW4 4924   4.474   3.974   2.250  0.6590 -0.0141 -0.0498
    1SOL     OW 4925   4.470   4.214   2.348  0.4281  0.5355 -0.5715
    1SOL    HW2 4926   4.486   4.225   2.441 -1.7158 -0.3654 -0.0649
    1SOL    HW3 4927   4.523   4.282   2.306  1.5153  0.8550  1.2787
    1SOL    MW4 4928   4.479   4.224   2.354  0.2885  0.4592 -0.2604
    1SOL     OW 4929   0.162   4.437   2.293 -0.2628 -0.3875  0.3306
    1SOL    HW2 4930   0.245   4.400   2.324  0.3698  0.2285 -0.5987
    1SOL    HW3 4931   0.172   4.532   2.305 -1.0954 -0.3564  0.8340
    1SOL    MW4 4932   0.174   4.445   2.298 -0.2892 -0.3023  0.2744
    1SOL     OW 4933   0.628   4.652   2.335  0.3284 -0.0980 -0.4443
    1SOL    HW2 4934   0.652   4.662   2.427  0.5283  1.1127 -0.6277
    1SOL    HW3 4935   0.705   4.682   2.287  1.1468 -2.9262 -1.0236
    1SOL    MW4 4936   0.641   4.657   2.341  0.4627 -0.3114 -0.5448
    1SOL     OW 4937   0.418   0.134   2.218  0.4240  0.7718  0.4251
    1SOL    HW2 4938   0.490   0.083   2.255  0.6239  0.9060  0.2149
    1SOL    HW3 4939   0.434   0.135   2.124 -0.0928  0.4245  0.3323
    1SOL    MW4 4940   0.429   0.128   2.211  0.3822  0.7436  0.3848
    1SOL     OW 4941   0.429   0.378   2.348 -0.2934  0.1098 -0.4809
    1SOL    HW2 4942   0.438   0.374   2.443 -0.6674  1.6048 -0.3742
    1SOL    HW3 4943   0.458   0.292   2.318 -1.0060 -0.6823  1.0455
    1SOL    MW4 4944   0.434   0.366   2.356 -0.4368  0.2025 -0.2654
    1SOL     OW 4945   0.621   0.499   2.209  0.0597  0.2379 -0.1013
    1SOL    HW2 4946   0.641   0.589   2.234  0.3546  0.7650 -2.1077
    1SOL    HW3 4947   0.547   0.474   2.264 -2.0942  2.8288 -1.6960
    1SOL    MW4 4948   0.614   0.508   2.220 -0.1856  0.6492 -0.5765
    1SOL     OW 4949   0.680   0.745   2.312  0.1363  0.3178  0.3256
    1SOL    HW2 4950   0.679   0.754   2.408 -1.7592  0.3638  0.3293
    1SOL    HW3 4951   0.602   0.792   2.283  0.7222  0.3385 -1.2634
    1SOL    MW4 4952   0.670   0.752   2.321 -0.0365  0.3266  0.1166
    1SOL     OW 4953   0.457   0.877   2.239  0.1580 -0.1269  0.5039
    1SOL    HW2 4954   0.459   0.954   2.295 -2.4769 -0.2883  0.8513
    1SOL    HW3 4955   0.375   0.833   2.261  1.5466 -2.9662  0.2109
    1SOL    MW4 4956   0.447   0.881   2.249 -0.0065 -0.5228  0.5114
    1SOL     OW 4957   0.438   1.117   2.374  0.3604  0.2502 -0.2146
    1SOL    HW2 4958   0.427   1.111   2.469  1.0842  1.9253 -0.0085
    1SOL    HW3 4959   0.368   1.176   2.346 -0.6681 -1.2863 -0.8986
    1SOL    MW4 4960   0.427   1.124   2.383  0.3202  0.2685 -0.2778
    1SOL     OW 4961   0.661   1.247   2.258 -0.0835  0.0103  0.0957
    1SOL    HW2 4962   0.655   1.336   2.295 -0.2572 -0.2711  0.7437
    1SOL    HW3 4963   0.585   1.201   2.293 -0.5544 -0.1117 -1.0461
    1SOL    MW4 4964   0.650   1.253   2.267 -0.1684 -0.0429  0.0308
    1SOL     OW 4965   0.677   1.537   2.345  0.3340 -0.0274 -0.0301
    1SOL    HW2 4966   0.652   1.555   2.436  0.2472 -0.0323 -0.0532
    1SOL    HW3 4967   0.755   1.589   2.331  1.0097 -0.9061  0.4031
    1SOL    MW4 4968   0.684   1.546   2.355  0.4117 -0.1438  0.0236
    1SOL     OW 4969   0.468   1.683   2.241 -0.1575  0.0453  0.0690
    1SOL    HW2 4970   0.542   1.626   2.263 -0.7150 -0.7921 -0.2482
    1SOL    HW3 4971   0.391   1.636   2.270 -0.6854  0.2626 -0.9620
    1SOL    MW4 4972   0.468   1.669   2.248 -0.3007 -0.0364 -0.1087
    1SOL     OW 4973   0.411   1.940   2.318 -0.3924  0.1722  0.2256
    1SOL    HW2 4974   0.484   1.989   2.280 -0.4615  0.6032  0.6345
    1SOL    HW3 4975   0.433   1.848   2.305 -0.8002  0.3183 -1.5717
    1SOL    MW4 4976   0.423   1.935   2.311 -0.4553  0.2483  0.0424
    1SOL     OW 4977   0.651   2.039   2.216 -0.0904  0.0226  0.3221
    1SOL    HW2 4978   0.736   2.011   2.251  0.2538 -0.0381 -0.5517
    1SOL    HW3 4979   0.644   2.131   2.241 -0.0284 -0.1241  0.8964
    1SOL    MW4 4980   0.662   2.047   2.224 -0.0368 -0.0050  0.2825
    1SOL     OW 4981   0.654   2.310   2.277  0.2659 -0.1545  0.1575
    1SOL    HW2 4982   0.657   2.311   2.373  1.6755 -1.1704  0.1376
    1SOL    HW3 4983   0.734   2.353   2.249 -0.2533  0.3512 -0.5760
    1SOL    MW4 4984   0.665   2.315   2.286  0.3833 -0.2217  0.0582
    1SOL     OW 4985   0.417   2.453   2.239 -0.1879 -0.5028 -0.5354
    1SOL    HW2 4986   0.492   2.408   2.277 -0.3778  0.4351  0.9792
    1SOL    HW3 4987   0.341   2.408   2.276 -0.3753  0.1805 -0.0892
    1SOL    MW4 4988   0.417   2.441   2.249 -0.2377 -0.2890 -0.2766
    1SOL     OW 4989   0.442   2.703   2.351  0.1670  0.1271  0.3378
    1SOL    HW2 4990   0.448   2.685   2.444 -0.4735 -0.0283  0.3481
    1SOL    HW3 4991   0.436   2.617   2.310  1.5080  0.1503  0.0746
    1SOL    MW4 4992   0.442   2.690   2.357  0.2595  0.1097  0.3045
    1SOL     OW 4993   0.657   2.849   2.235  0.2811  0.5797 -0.0551
    1SOL    HW2 4994   0.735   2.803   2.268 -0.0639 -0.7470 -1.0313
    1SOL    HW3 4995   0.584   2.807   2.279 -0.0832 -0.2740 -1.4343
    1SOL    MW4 4996   0.658   2.837   2.245  0.1875  0.2921 -0.3657
    1SOL     OW 4997   0.693   3.088   2.355 -0.4370  0.1567  0.3049
    1SOL    HW2 4998   0.615   3.130   2.318 -0.2282 -0.1436 -0.4773
    1SOL    HW3 4999   0.694   3.000   2.317  0.6697  0.3983 -0.2541
    1SOL    MW4 5000   0.683   3.082   2.345 -0.2634  0.1488  0.1278
    1SOL     OW 5001   0.477   3.217   2.234  0.1501 -0.4794 -0.0555
    1SOL    HW2 5002   0.409   3.160   2.270  0.8252 -1.0360  0.3712
    1SOL    HW3 5003   0.467   3.210   2.140 -0.8552  0.0230  0.0072
    1SOL    MW4 5004   0.467   3.208   2.227  0.1065 -0.4864  0.0091
    1SOL     OW 5005   0.466   3.460   2.359  0.0115 -0.3070 -0.0697
    1SOL    HW2 5006   0.535   3.507   2.312 -0.6578 -0.0068 -0.7794
    1SOL    HW3 5007   0.462   3.375   2.315  0.5305 -0.6530  0.5502
    1SOL    MW4 5008   0.475   3.455   2.347 -0.0083 -0.3133 -0.0815
    1SOL     OW 5009   0.658   3.623   2.249 -0.2173  0.0207  0.3028
    1SOL    HW2 5010   0.657   3.714   2.279 -0.8499  0.2056 -0.2435
    1SOL    HW3 5011   0.676   3.630   2.155  0.5192 -0.4704  0.4047
    1SOL    MW4 5012   0.660   3.636   2.240 -0.2036 -0.0198  0.2444
    1SOL     OW 5013   0.677   3.877   2.352  0.4811 -0.4452  0.5883
    1SOL    HW2 5014   0.670   3.862   2.446 -0.7374 -1.1795  0.3941
    1SOL    HW3 5015   0.599   3.927   2.330  1.7572  1.4329  0.2837
    1SOL    MW4 5016   0.666   3.881   2.362  0.4888 -0.2942  0.5224
    1SOL     OW 5017   0.453   4.033   2.301  0.2612  0.1043  0.1152
    1SOL    HW2 5018   0.362   4.004   2.307  1.0343 -2.5152 -0.1875
    1SOL    HW3 5019   0.466   4.049   2.208  0.2367  0.0559  0.1032
    1SOL    MW4 5020   0.443   4.031   2.289  0.3600 -0.2480  0.0737
    1SOL     OW 5021   0.448   4.321   2.350  0.6562  0.1373  0.3570
    1SOL    HW2 5022   0.527   4.363   2.317  1.4806 -1.5861  0.1198
    1SOL    HW3 5023   0.456   4.230   2.323 -1.3399 -0.0885  0.4657
    1SOL    MW4 5024   0.459   4.315   2.342  0.5016 -0.1197  0.3402
    1SOL     OW 5025   0.698   4.398   2.237 -0.0854 -0.1160  0.0275
    1SOL    HW2 5026   0.672   4.482   2.273  1.0225  0.3715 -0.2957
    1SOL    HW3 5027   0.690   4.408   2.143  1.3317  0.0626 -0.0785
    1SOL    MW4 5028   0.693   4.410   2.230  0.2477 -0.0281 -0.0291
    1SOL     OW 5029   1.090   4.619   2.327 -0.1624 -0.3667 -0.2325
    1SOL    HW2 5030   1.100   4.650   2.418  2.3576 -0.7367 -0.3557
    1SOL    HW3 5031   1.009   4.661   2.297  0.0085  1.3351  1.5564
    1SOL    MW4 5032   1.080   4.629   2.335  0.1926 -0.1907 -0.0126
    1SOL     OW 5033   0.832   0.119   2.227  0.0696 -0.2060 -0.0244
    1SOL    HW2 5034   0.847   0.207   2.262 -1.4045  0.1354 -0.2233
    1SOL    HW3 5035   0.851   0.127   2.133  1.2313 -0.4374  0.1767
    1SOL    MW4 5036   0.837   0.132   2.219  0.0284 -0.1915 -0.0238
    1SOL     OW 5037   0.824   0.389   2.349 -0.5937  0.4726  0.0178
    1SOL    HW2 5038   0.896   0.435   2.306  1.3568 -1.6166  0.9243
    1SOL    HW3 5039   0.745   0.423   2.307  0.7912  3.9662  0.0472
    1SOL    MW4 5040   0.823   0.399   2.338 -0.1537  0.6579  0.1411
    1SOL     OW 5041   1.053   0.488   2.247 -0.0726 -0.1847  0.2779
    1SOL    HW2 5042   1.134   0.446   2.274  0.0433 -0.4137 -0.4357
    1SOL    HW3 5043   1.058   0.493   2.152 -0.5279  0.5407  0.2860
    1SOL    MW4 5044   1.064   0.483   2.238 -0.1173 -0.1192  0.1848
    1SOL     OW 5045   1.089   0.738   2.340  0.3090 -0.3625 -0.2485
    1SOL    HW2 5046   1.012   0.783   2.305 -0.0366  0.3424  1.3394
    1SOL    HW3 5047   1.075   0.646   2.319 -0.9777 -0.2396  0.0332
    1SOL    MW4 5048   1.077   0.732   2.333  0.0936 -0.2533 -0.0019
    1SOL     OW 5049   0.874   0.897   2.215 -0.1005 -0.0330 -0.2378
    1SOL    HW2 5050   0.886   0.978   2.264  1.6556 -0.7380  0.5293
    1SOL    HW3 5051   0.793   0.860   2.250 -0.9304  1.3938 -0.6232
    1SOL    MW4 5052   0.865   0.903   2.226  0.0218  0.0623 -0.1874
    1SOL     OW 5053   0.904   1.133   2.345 -0.5114 -0.2244  0.5886
    1SOL    HW2 5054   0.978   1.186   2.315  0.9850 -1.8706  1.3296
    1SOL    HW3 5055   0.827   1.177   2.307  0.8763  1.0901 -0.7898
    1SOL    MW4 5056   0.903   1.146   2.336 -0.1309 -0.2680  0.5045
    1SOL     OW 5057   1.099   1.284   2.246 -0.3117 -0.2056 -0.2507
    1SOL    HW2 5058   1.181   1.244   2.272  1.2227  2.6642 -0.5138
    1SOL    HW3 5059   1.104   1.290   2.150  0.5681  2.7140 -0.0800
    1SOL    MW4 5060   1.110   1.280   2.237  0.0069  0.5581 -0.2627
    1SOL     OW 5061   1.119   1.552   2.359 -0.1618  0.0445  0.5680
    1SOL    HW2 5062   1.045   1.601   2.322 -0.7723 -0.4676  1.0884
    1SOL    HW3 5063   1.116   1.467   2.316  0.2002  0.0634  0.5033
    1SOL    MW4 5064   1.109   1.547   2.349 -0.1947 -0.0206  0.6282
    1SOL     OW 5065   0.896   1.672   2.254  0.1213 -0.0021  0.4924
    1SOL    HW2 5066   0.896   1.764   2.278  1.7680  0.0104  0.4915
    1SOL    HW3 5067   0.890   1.672   2.159 -0.8774  0.0707  0.5485
    1SOL    MW4 5068   0.895   1.684   2.245  0.2067  0.0093  0.4997
    1SOL     OW 5069   0.894   1.948   2.319 -0.0962  0.4638  0.2008
    1SOL    HW2 5070   0.896   1.942   2.415  0.3942 -0.6841  0.1194
    1SOL    HW3 5071   0.977   1.989   2.296  0.1132  0.0436  0.2129
    1SOL    MW4 5072   0.905   1.953   2.329 -0.0039  0.2567  0.1917
    1SOL     OW 5073   1.105   2.082   2.252 -0.7140 -0.1228 -0.3022
    1SOL    HW2 5074   1.171   2.022   2.287  1.9535  2.2717 -0.9998
    1SOL    HW3 5075   1.114   2.074   2.157 -1.8118 -0.1544 -0.4081
    1SOL    MW4 5076   1.115   2.073   2.244 -0.5069  0.1888 -0.4079
    1SOL     OW 5077   1.098   2.347   2.332 -0.5600 -0.1954  0.0015
    1SOL    HW2 5078   1.178   2.389   2.301 -0.4484 -0.1583  0.3351
    1SOL    HW3 5079   1.109   2.254   2.309 -0.3388 -0.2216  0.2101
    1SOL    MW4 5080   1.110   2.340   2.325 -0.5159 -0.1936  0.0732
    1SOL     OW 5081   0.869   2.460   2.208 -0.2359 -0.0876 -0.3015
    1SOL    HW2 5082   0.946   2.423   2.251  0.8803  1.2682 -1.0879
    1SOL    HW3 5083   0.889   2.456   2.115 -1.0763  0.3747 -0.5087
    1SOL    MW4 5084   0.882   2.454   2.202 -0.1995  0.1521 -0.4327
    1SOL     OW 5085   0.878   2.708   2.325  0.3741 -0.2262  0.4780
    1SOL    HW2 5086   0.889   2.698   2.420  0.5471 -0.8044  0.4014
    1SOL    HW3 5087   0.875   2.618   2.292 -1.9022 -0.0594  0.1729
    1SOL    MW4 5088   0.879   2.695   2.334  0.0966 -0.2804  0.4277
    1SOL     OW 5089   1.104   2.837   2.225 -0.2473  0.5363 -0.5113
    1SOL    HW2 5090   1.181   2.786   2.251  0.2301  1.4125 -0.1697
    1SOL    HW3 5091   1.030   2.790   2.262  0.3480  1.3050  1.7087
    1SOL    MW4 5092   1.105   2.824   2.233 -0.1059  0.7536 -0.1733
    1SOL     OW 5093   1.128   3.098   2.344 -0.2160 -0.3198 -0.2581
    1SOL    HW2 5094   1.053   3.134   2.297  0.4412 -0.7991 -1.7119
    1SOL    HW3 5095   1.134   3.007   2.314  0.0074 -0.7465  1.0366
    1SOL    MW4 5096   1.119   3.091   2.334 -0.0997 -0.4394 -0.2792
    1SOL     OW 5097   0.914   3.253   2.245 -0.2112  0.3657  0.2826
    1SOL    HW2 5098   0.907   3.346   2.267 -1.3527  0.3194  0.1132
    1SOL    HW3 5099   0.835   3.213   2.281  0.8196 -0.7503  1.3763
    1SOL    MW4 5100   0.903   3.260   2.253 -0.2258  0.2124  0.4044
    1SOL     OW 5101   0.896   3.493   2.357 -0.2381  0.6366  0.2967
    1SOL    HW2 5102   0.900   3.491   2.453  1.8131 -1.7202  0.2070
    1SOL    HW3 5103   0.807   3.522   2.338 -1.0274  0.1321  2.9132
    1SOL    MW4 5104   0.885   3.497   2.367 -0.0715  0.2589  0.6297
    1SOL     OW 5105   1.096   3.620   2.216 -0.0979 -0.4233  0.2172
    1SOL    HW2 5106   1.178   3.586   2.253  1.4325  3.1149  0.2467
    1SOL    HW3 5107   1.028   3.568   2.258  1.9848 -1.4581  2.4623
    1SOL    MW4 5108   1.098   3.608   2.227  0.3786 -0.0930  0.5171
    1SOL     OW 5109   1.133   3.860   2.326  0.4015 -0.0341 -0.0775
    1SOL    HW2 5110   1.208   3.896   2.278 -1.4116  0.7450 -2.4408
    1SOL    HW3 5111   1.118   3.774   2.286 -0.7656  0.3671 -0.5053
    1SOL    MW4 5112   1.141   3.853   2.314  0.0083  0.1218 -0.4458
    1SOL     OW 5113   0.905   3.971   2.234  0.2470  0.2980  0.0600
    1SOL    HW2 5114   0.981   3.923   2.267  0.0977  0.8658  1.2460
    1SOL    HW3 5115   0.830   3.926   2.273  0.0471  0.6640  0.0992
    1SOL    MW4 5116   0.905   3.958   2.243  0.2010  0.4213  0.2217
    1SOL     OW 5117   0.888   4.247   2.378  0.3281  0.1354  0.3769
    1SOL    HW2 5118   0.872   4.153   2.375  1.5159 -0.0984  0.9219
    1SOL    HW3 5119   0.819   4.286   2.325 -1.1777 -0.9095  1.5308
    1SOL    MW4 5120   0.877   4.240   2.371  0.2861 -0.0334  0.6008
    1SOL     OW 5121   1.132   4.356   2.264  0.2756  0.4028 -0.2383
    1SOL    HW2 5122   1.051   4.319   2.299  0.3675 -0.8945 -1.3519
    1SOL    HW3 5123   1.134   4.446   2.298 -1.5910  0.4323 -0.1393
    1SOL    MW4 5124   1.121   4.363   2.273  0.0415  0.2356 -0.3719
    1SOL     OW 5125   1.565   4.613   2.327  0.2217 -0.0462 -0.2883
    1SOL    HW2 5126   1.639   4.670   2.310 -0.2127  0.5499 -0.1970
    1SOL    HW3 5127   1.489   4.661   2.293  0.1085 -1.5049 -2.2427
    1SOL    MW4 5128   1.565   4.627   2.320  0.1494 -0.1602 -0.5341
    1SOL     OW 5129   1.328   0.084   2.275 -0.4489 -0.2366  0.2024
    1SOL    HW2 5130   1.328   0.172   2.313  1.0551 -0.3950  0.6009
    1SOL    HW3 5131   1.241   0.049   2.295 -0.8582  0.9502  0.5254
    1SOL    MW4 5132   1.317   0.091   2.283 -0.3046 -0.1009  0.2975
    1SOL     OW 5133   1.288   0.363   2.348  0.1513  0.5631  0.1892
    1SOL    HW2 5134   1.304   0.352   2.442 -0.0208  1.8286  0.3788
    1SOL    HW3 5135   1.366   0.409   2.316  1.0631 -1.4986 -0.6584
    1SOL    MW4 5136   1.301   0.368   2.357  0.2488  0.4580  0.1023
    1SOL     OW 5137   1.516   0.499   2.261  0.3913  0.0500  0.1438
    1SOL    HW2 5138   1.602   0.477   2.298  0.1840 -0.3007  0.4175
    1SOL    HW3 5139   1.531   0.507   2.167  0.8374  0.5288  0.2532
    1SOL    MW4 5140   1.529   0.498   2.254  0.4228  0.0669  0.1945
    1SOL     OW 5141   1.520   0.775   2.342 -0.0050 -0.3993  0.4063
    1SOL    HW2 5142   1.604   0.798   2.302 -0.7298  0.1654 -0.8444
    1SOL    HW3 5143   1.507   0.683   2.319 -0.0091 -0.3162  0.0693
    1SOL    MW4 5144   1.529   0.766   2.334 -0.1011 -0.3138  0.1972
    1SOL     OW 5145   1.293   0.884   2.239 -0.1577  0.2691  0.1175
    1SOL    HW2 5146   1.377   0.851   2.272 -0.2497  0.7559  0.8441
    1SOL    HW3 5147   1.227   0.827   2.278 -0.2929  1.0783  1.1114
    1SOL    MW4 5148   1.296   0.872   2.248 -0.1876  0.4401  0.3445
    1SOL     OW 5149   1.319   1.130   2.348  0.8726  0.0348 -0.0876
    1SOL    HW2 5150   1.310   1.135   2.443  0.6070  0.4513 -0.1306
    1SOL    HW3 5151   1.300   1.039   2.326  0.7893 -0.0282  0.2445
    1SOL    MW4 5152   1.315   1.119   2.358  0.8266  0.0813 -0.0496
    1SOL     OW 5153   1.544   1.284   2.291 -0.2947  0.3758  0.3527
    1SOL    HW2 5154   1.474   1.221   2.308  0.3889 -0.2816  0.7580
    1SOL    HW3 5155   1.547   1.291   2.196  0.4178 -1.1256  0.2435
    1SOL    MW4 5156   1.535   1.276   2.281 -0.1106  0.0911  0.3917
    1SOL     OW 5157   1.524   1.542   2.368  0.1382 -0.3170  0.7920
    1SOL    HW2 5158   1.598   1.586   2.325  0.5445 -0.7649  1.0382
    1SOL    HW3 5159   1.532   1.451   2.342  0.9408 -0.7697  2.6155
    1SOL    MW4 5160   1.535   1.536   2.359  0.2977 -0.4358  1.0650
    1SOL     OW 5161   1.327   1.668   2.242 -0.0077  0.0219 -0.2130
    1SOL    HW2 5162   1.403   1.627   2.283 -0.7511 -1.7602 -0.5662
    1SOL    HW3 5163   1.252   1.637   2.294 -0.8055 -0.9963 -1.8952
    1SOL    MW4 5164   1.327   1.658   2.254 -0.2110 -0.3477 -0.4814
    1SOL     OW 5165   1.306   1.925   2.360  0.6003 -0.0698 -0.0811
    1SOL    HW2 5166   1.387   1.965   2.328  0.9855 -0.0633  0.9011
    1SOL    HW3 5167   1.306   1.837   2.322 -0.0160  0.6700 -1.8526
    1SOL    MW4 5168   1.316   1.919   2.350  0.5697  0.0286 -0.1853
    1SOL     OW 5169   1.551   2.002   2.219 -0.0962 -0.4838  0.1077
    1SOL    HW2 5170   1.627   1.955   2.254  0.7066  0.8864  0.2132
    1SOL    HW3 5171   1.578   2.031   2.132 -1.0467 -1.3013 -0.4819
    1SOL    MW4 5172   1.564   1.999   2.212 -0.1158 -0.4110  0.0436
    1SOL     OW 5173   1.564   2.286   2.311  0.4528 -0.2882  0.0383
    1SOL    HW2 5174   1.546   2.298   2.404 -1.2570  0.3678 -0.3507
    1SOL    HW3 5175   1.555   2.192   2.297  1.3621 -0.4677  0.6625
    1SOL    MW4 5176   1.561   2.275   2.321  0.3471 -0.2253  0.0696
    1SOL     OW 5177   1.326   2.444   2.217  0.2036 -0.4916  0.2901
    1SOL    HW2 5178   1.396   2.389   2.253  2.0873  1.1793 -0.7357
    1SOL    HW3 5179   1.339   2.439   2.122 -0.6104  0.4327  0.1334
    1SOL    MW4 5180   1.337   2.436   2.209  0.3448 -0.1493  0.1340
    1SOL     OW 5181   1.323   2.711   2.314  0.2609 -0.7370 -0.5322
    1SOL    HW2 5182   1.398   2.758   2.277  1.3958 -1.3165  0.9383
    1SOL    HW3 5183   1.326   2.625   2.273 -1.1597  0.0859 -2.4041
    1SOL    MW4 5184   1.333   2.706   2.304  0.2233 -0.7050 -0.5853
    1SOL     OW 5185   1.546   2.827   2.196 -0.0049  0.2689  0.8314
    1SOL    HW2 5186   1.540   2.918   2.225 -1.0446  0.4347  0.1204
    1SOL    HW3 5187   1.563   2.833   2.102  0.0092 -0.2640  0.7975
    1SOL    MW4 5188   1.547   2.839   2.187 -0.1402  0.2203  0.7329
    1SOL     OW 5189   1.573   3.109   2.279 -0.2706 -0.4304 -0.1869
    1SOL    HW2 5190   1.576   3.090   2.373 -0.7421  1.1575  0.1715
    1SOL    HW3 5191   1.492   3.158   2.267  0.5292  0.7135 -1.1501
    1SOL    MW4 5192   1.563   3.113   2.290 -0.2273 -0.0699 -0.2666
    1SOL     OW 5193   1.349   3.261   2.260  0.2820  0.3671 -0.1987
    1SOL    HW2 5194   1.279   3.199   2.283  1.1862 -0.9553 -0.8980
    1SOL    HW3 5195   1.351   3.260   2.164  1.6852 -0.1105 -0.1745
    1SOL    MW4 5196   1.340   3.252   2.251  0.5864  0.1297 -0.2880
    1SOL     OW 5197   1.330   3.522   2.335  0.5921  0.2783 -0.0214
    1SOL    HW2 5198   1.322   3.530   2.430  0.2226  0.3555 -0.0562
    1SOL    HW3 5199   1.342   3.428   2.320  1.4373  0.3573  0.1531
    1SOL    MW4 5200   1.330   3.511   2.346  0.6548  0.2987 -0.0029
    1SOL     OW 5201   1.575   3.655   2.233  0.0229  0.0653 -0.0067
    1SOL    HW2 5202   1.570   3.738   2.281 -0.1346  0.9348 -1.4988
    1SOL    HW3 5203   1.493   3.610   2.254  0.7830 -0.4027  2.0296
    1SOL    MW4 5204   1.563   3.660   2.242  0.1023  0.1183  0.0653
    1SOL     OW 5205   1.598   3.889   2.377  0.1133 -0.0592 -0.1428
    1SOL    HW2 5206   1.609   3.883   2.472  0.6270 -0.8505 -0.2366
    1SOL    HW3 5207   1.680   3.927   2.346 -0.1932  0.5216 -0.2352
    1SOL    MW4 5208   1.611   3.893   2.385  0.1407 -0.0865 -0.1671
    1SOL     OW 5209   1.378   3.977   2.253 -0.1068  0.2139 -0.0280
    1SOL    HW2 5210   1.455   3.947   2.300 -0.7251  0.2920  1.0516
    1SOL    HW3 5211   1.408   3.990   2.163  1.2118  0.5561  0.4534
    1SOL    MW4 5212   1.392   3.975   2.247 -0.0145  0.2692  0.1779
    1SOL     OW 5213   1.364   4.244   2.354 -0.6897  0.3876  0.7243
    1SOL    HW2 5214   1.376   4.156   2.316 -0.9286  0.5077  0.3626
    1SOL    HW3 5215   1.281   4.274   2.317  0.2303  1.4676 -0.5135
    1SOL    MW4 5216   1.355   4.236   2.344 -0.5997  0.5460  0.5133
    1SOL     OW 5217   1.578   4.361   2.242 -0.1504 -0.6544 -0.4431
    1SOL    HW2 5218   1.496   4.329   2.280  0.1348  0.4231  1.1321
    1SOL    HW3 5219   1.582   4.453   2.266  1.8428 -0.8461  0.1123
    1SOL    MW4 5220   1.568   4.369   2.250  0.1501 -0.5379 -0.1624
    1SOL     OW 5221   1.993   4.665   2.343  0.1289 -0.0831 -0.1953
    1SOL    HW2 5222   2.083   4.694   2.326  0.2609 -1.1237 -1.2881
    1SOL    HW3 5223   1.997   4.570   2.339 -0.9850 -0.1468  0.0208
    1SOL    MW4 5224   2.005   4.657   2.340 -0.0010 -0.2289 -0.3107
    1SOL     OW 5225   1.757   0.144   2.309  0.1470 -0.0492  0.1003
    1SOL    HW2 5226   1.756   0.232   2.345  0.1093 -0.9432  2.3227
    1SOL    HW3 5227   1.845   0.111   2.327  0.3001 -0.3339 -1.1004
    1SOL    MW4 5228   1.768   0.151   2.316  0.1622 -0.2047  0.2351
    1SOL     OW 5229   1.741   0.399   2.410 -0.3678 -0.1764 -0.3678
    1SOL    HW2 5230   1.759   0.391   2.504 -0.3945 -1.3391 -0.4666
    1SOL    HW3 5231   1.823   0.430   2.372  0.2367 -1.6429 -0.2527
    1SOL    MW4 5232   1.754   0.402   2.417 -0.2916 -0.5233 -0.3653
    1SOL     OW 5233   1.982   0.474   2.287 -0.7275  0.6014 -0.5628
    1SOL    HW2 5234   1.997   0.566   2.306  1.0718  0.5545 -1.6921
    1SOL    HW3 5235   1.961   0.472   2.194 -0.5971 -0.1647 -0.5768
    1SOL    MW4 5236   1.981   0.486   2.277 -0.4729  0.4942 -0.7138
    1SOL     OW 5237   1.984   0.741   2.358  0.0209 -0.0850 -0.1820
    1SOL    HW2 5238   2.065   0.788   2.337 -0.8136  1.5289  0.1390
    1SOL    HW3 5239   1.977   0.746   2.453  0.8010 -2.3687  0.0179
    1SOL    MW4 5240   1.994   0.748   2.368  0.0137 -0.1734 -0.1130
    1SOL     OW 5241   1.764   0.878   2.253  0.1710  0.1150  0.2420
    1SOL    HW2 5242   1.764   0.951   2.315 -0.3475  0.0774  0.2900
    1SOL    HW3 5243   1.835   0.821   2.282  1.3034  1.1633 -0.4566
    1SOL    MW4 5244   1.773   0.880   2.265  0.2520  0.2483  0.1562
    1SOL     OW 5245   1.765   1.147   2.414  0.8522 -0.1935 -0.5063
    1SOL    HW2 5246   1.844   1.176   2.369  0.8364  0.7018  0.0109
    1SOL    HW3 5247   1.695   1.201   2.377  0.6122 -0.4482 -0.4253
    1SOL    MW4 5248   1.766   1.158   2.403  0.8185 -0.1090 -0.4275
    1SOL     OW 5249   1.989   1.217   2.280  0.4023  0.2191  0.0869
    1SOL    HW2 5250   1.989   1.310   2.302  0.6381  0.1708  0.2920
    1SOL    HW3 5251   2.062   1.181   2.329 -0.0290 -0.1795  0.4309
    1SOL    MW4 5252   1.999   1.225   2.289  0.3766  0.1602  0.1595
    1SOL     OW 5253   1.959   1.474   2.349  0.0605 -0.1645  0.1588
    1SOL    HW2 5254   1.989   1.515   2.430  0.9030  1.3038 -0.8898
    1SOL    HW3 5255   1.888   1.530   2.318 -0.6762 -1.0642  0.1866
    1SOL    MW4 5256   1.954   1.486   2.355  0.0746 -0.0894  0.0243
    1SOL     OW 5257   1.764   1.643   2.238 -0.4797  0.4790  0.3141
    1SOL    HW2 5258   1.779   1.731   2.274  1.1239  0.5671 -0.5184
    1SOL    HW3 5259   1.747   1.659   2.145 -0.9750 -0.0354  0.3184
    1SOL    MW4 5260   1.764   1.657   2.230 -0.3335  0.4227  0.2048
    1SOL     OW 5261   1.784   1.906   2.343 -0.2407 -0.3522 -0.2025
    1SOL    HW2 5262   1.774   1.917   2.437 -1.0756  0.4965 -0.3823
    1SOL    HW3 5263   1.863   1.955   2.321  0.1179 -0.7927  0.0972
    1SOL    MW4 5264   1.793   1.914   2.352 -0.3035 -0.2984 -0.1867
    1SOL     OW 5265   2.005   2.073   2.267 -0.3538  0.3683 -0.1368
    1SOL    HW2 5266   2.070   2.010   2.299 -0.6191 -0.1238 -0.5530
    1SOL    HW3 5267   2.004   2.060   2.172 -1.2926  0.1408 -0.0992
    1SOL    MW4 5268   2.013   2.063   2.259 -0.5126  0.2732 -0.1869
    1SOL     OW 5269   2.008   2.333   2.327 -0.3696 -0.1059 -0.0980
    1SOL    HW2 5270   2.099   2.355   2.308 -0.7876  1.5013 -0.3165
    1SOL    HW3 5271   1.998   2.242   2.298  1.5381 -0.7727  1.2463
    1SOL    MW4 5272   2.019   2.324   2.321 -0.1731  0.0181  0.0505
    1SOL     OW 5273   1.788   2.455   2.237  0.4436 -0.0402  0.8740
    1SOL    HW2 5274   1.870   2.408   2.255 -0.9953 -1.5547  3.7549
    1SOL    HW3 5275   1.719   2.395   2.265 -1.7013  1.0871 -1.8343
    1SOL    MW4 5276   1.790   2.441   2.243 -0.0291 -0.0913  0.8969
    1SOL     OW 5277   1.782   2.720   2.347 -0.9070 -0.0705  0.2871
    1SOL    HW2 5278   1.776   2.630   2.316 -0.6532  0.0115 -0.0047
    1SOL    HW3 5279   1.713   2.766   2.300 -1.3732 -0.2210  0.8235
    1SOL    MW4 5280   1.772   2.714   2.336 -0.9350 -0.0796  0.3192
    1SOL     OW 5281   2.015   2.848   2.280  0.0456  0.0024  0.4125
    1SOL    HW2 5282   2.083   2.797   2.324 -0.6054 -1.3409 -0.1280
    1SOL    HW3 5283   1.933   2.808   2.306 -0.4784  0.7702 -0.0202
    1SOL    MW4 5284   2.013   2.836   2.289 -0.1097 -0.0734  0.2844
    1SOL     OW 5285   2.017   3.113   2.312 -0.1396  0.0702  0.1895
    1SOL    HW2 5286   2.097   3.148   2.273 -0.0675 -0.2885  0.0111
    1SOL    HW3 5287   2.021   3.019   2.295 -0.8661  0.1213 -0.2824
    1SOL    MW4 5288   2.028   3.105   2.305 -0.2258  0.0300  0.1035
    1SOL     OW 5289   1.798   3.266   2.222 -0.0209 -0.2596 -0.1095
    1SOL    HW2 5290   1.874   3.216   2.252 -0.5635  0.2058  2.1316
    1SOL    HW3 5291   1.725   3.205   2.229  0.2031 -0.8634 -2.7537
    1SOL    MW4 5292   1.798   3.251   2.227 -0.0629 -0.2778 -0.1626
    1SOL     OW 5293   1.798   3.524   2.324  0.5942  0.4422 -0.3376
    1SOL    HW2 5294   1.796   3.440   2.278 -0.4630 -0.3555  1.1365
    1SOL    HW3 5295   1.713   3.564   2.303  0.3090  0.2891  0.5255
    1SOL    MW4 5296   1.786   3.518   2.315  0.4172  0.3166 -0.0291
    1SOL     OW 5297   2.022   3.658   2.254 -0.1322 -0.0077 -0.3216
    1SOL    HW2 5298   1.941   3.619   2.287 -0.9728  2.2110  0.3436
    1SOL    HW3 5299   2.025   3.633   2.162 -1.1578 -0.7742 -0.1566
    1SOL    MW4 5300   2.011   3.650   2.246 -0.3786  0.1838 -0.2122
    1SOL     OW 5301   2.042   3.899   2.376  0.1918  0.2181  0.0396
    1SOL    HW2 5302   2.044   3.871   2.468  0.2152 -1.0401 -0.3321
    1SOL    HW3 5303   2.047   3.817   2.326  1.7621  0.9726 -1.0965
    1SOL    MW4 5304   2.043   3.885   2.381  0.4022  0.1516 -0.1595
    1SOL     OW 5305   1.825   4.019   2.266  0.5179  0.3350  0.3707
    1SOL    HW2 5306   1.901   3.975   2.303 -0.0552 -1.0952 -0.1320
    1SOL    HW3 5307   1.841   4.019   2.172  0.0911  0.4126  0.2974
    1SOL    MW4 5308   1.837   4.014   2.258  0.3859  0.1569  0.2947
    1SOL     OW 5309   1.805   4.271   2.374 -0.0669  0.7483 -0.5707
    1SOL    HW2 5310   1.822   4.184   2.340  0.0500 -0.0328  1.4391
    1SOL    HW3 5311   1.725   4.299   2.329 -0.2074 -0.4562 -1.0808
    1SOL    MW4 5312   1.796   4.264   2.363 -0.0701  0.4864 -0.3731
    1SOL     OW 5313   2.033   4.381   2.299 -0.2760  0.1076 -0.0094
    1SOL    HW2 5314   1.948   4.348   2.329  0.0000 -0.4111  0.2094
    1SOL    HW3 5315   2.027   4.380   2.204  0.5733 -2.8418 -0.0861
    1SOL    MW4 5316   2.021   4.376   2.291 -0.1276 -0.3500  0.0095
    1SOL     OW 5317   2.492   4.646   2.362  0.3608  0.6266  0.0754
    1SOL    HW2 5318   2.570   4.688   2.324  0.4891 -0.0855 -0.4636
    1SOL    HW3 5319   2.493   4.558   2.326 -1.5770  1.1076 -1.2059
    1SOL    MW4 5320   2.503   4.640   2.352  0.1221  0.5960 -0.1645
    1SOL     OW 5321   2.250   0.092   2.290 -0.7645 -0.1227  0.0348
    1SOL    HW2 5322   2.249   0.175   2.336 -1.0689  0.1348 -0.4284
    1SOL    HW3 5323   2.336   0.055   2.308 -0.4197  0.5511 -0.2202
    1SOL    MW4 5324   2.261   0.098   2.298 -0.7589  0.0001 -0.0601
    1SOL     OW 5325   2.203   0.350   2.402  0.1785 -0.4586  0.5907
    1SOL    HW2 5326   2.127   0.397   2.370  0.8080  1.0188  1.1915
    1SOL    HW3 5327   2.278   0.399   2.368  0.8501 -1.0353  1.2146
    1SOL    MW4 5328   2.203   0.363   2.394  0.3502 -0.3397  0.7520
    1SOL     OW 5329   2.412   0.479   2.299  0.0116  0.0546 -0.4944
    1SOL    HW2 5330   2.505   0.454   2.299 -0.3933 -1.5378 -1.5659
    1SOL    HW3 5331   2.396   0.511   2.210 -0.1721  1.4819  0.0526
    1SOL    MW4 5332   2.422   0.480   2.287 -0.0660  0.0328 -0.5636
    1SOL     OW 5333   2.436   0.716   2.425  0.4474  0.1014  0.0142
    1SOL    HW2 5334   2.517   0.748   2.386  1.3883 -0.9464  1.0709
    1SOL    HW3 5335   2.430   0.625   2.396 -0.8175  0.4165 -0.7722
    1SOL    MW4 5336   2.446   0.708   2.416  0.4046  0.0047  0.0501
    1SOL     OW 5337   2.231   0.877   2.296 -0.0935 -0.0034  0.2701
    1SOL    HW2 5338   2.237   0.963   2.338  1.3387 -0.8759  1.9018
    1SOL    HW3 5339   2.312   0.833   2.320 -0.4124 -1.4890 -1.3039
    1SOL    MW4 5340   2.242   0.883   2.305  0.0532 -0.3146  0.2778
    1SOL     OW 5341   2.245   1.138   2.391  0.0683 -0.3195 -0.2838
    1SOL    HW2 5342   2.315   1.185   2.345  1.3455 -2.3440 -0.4345
    1SOL    HW3 5343   2.241   1.180   2.477  1.9143 -0.5898 -0.0465
    1SOL    MW4 5344   2.254   1.150   2.397  0.4802 -0.6223 -0.2723
    1SOL     OW 5345   2.418   1.287   2.251 -0.3219 -0.3836 -0.3974
    1SOL    HW2 5346   2.491   1.240   2.291 -0.8444 -0.7852  0.0871
    1SOL    HW3 5347   2.423   1.376   2.287  0.9227  0.0761 -1.6386
    1SOL    MW4 5348   2.428   1.293   2.261 -0.2267 -0.3760 -0.4971
    1SOL     OW 5349   2.422   1.536   2.371  0.2177 -0.1670  0.2944
    1SOL    HW2 5350   2.424   1.544   2.466 -0.8969  1.5714  0.1881
    1SOL    HW3 5351   2.508   1.567   2.343  0.9999 -1.8095  0.7837
    1SOL    MW4 5352   2.434   1.541   2.380  0.1740 -0.1543  0.3450
    1SOL     OW 5353   2.178   1.639   2.257 -0.0329  0.5193  0.5832
    1SOL    HW2 5354   2.257   1.599   2.293 -0.2362 -0.2167  0.2469
    1SOL    HW3 5355   2.109   1.576   2.278  0.2674 -1.3682 -3.4687
    1SOL    MW4 5356   2.179   1.625   2.264 -0.0200  0.1732  0.0043
    1SOL     OW 5357   2.197   1.902   2.351  0.1208 -0.2592  0.3419
    1SOL    HW2 5358   2.290   1.921   2.336  0.1650 -0.4841  0.3294
    1SOL    HW3 5359   2.186   1.812   2.320 -0.1668 -0.1272  0.0593
    1SOL    MW4 5360   2.208   1.892   2.345  0.0887 -0.2713  0.3028
    1SOL     OW 5361   2.440   2.065   2.293 -0.0759  0.5733  0.1726
    1SOL    HW2 5362   2.508   2.002   2.314  0.1717  1.4001  1.9292
    1SOL    HW3 5363   2.440   2.069   2.197  0.9775 -0.8925  0.0917
    1SOL    MW4 5364   2.449   2.057   2.283  0.0958  0.4890  0.3936
    1SOL     OW 5365   2.496   2.319   2.378 -0.1459 -0.5620  0.0275
    1SOL    HW2 5366   2.584   2.347   2.352 -1.3016  1.9235 -1.3429
    1SOL    HW3 5367   2.489   2.229   2.347  2.0465 -0.9071  0.4866
    1SOL    MW4 5368   2.507   2.311   2.371 -0.0091 -0.2794 -0.0925
    1SOL     OW 5369   2.249   2.412   2.281  0.1114 -0.1466  0.1023
    1SOL    HW2 5370   2.246   2.505   2.302 -0.5273 -0.6548  2.3469
    1SOL    HW3 5371   2.334   2.383   2.315  0.8127 -0.1849 -1.6013
    1SOL    MW4 5372   2.260   2.421   2.288  0.1197 -0.2186  0.1738
    1SOL     OW 5373   2.226   2.676   2.367  0.1939 -0.1800  0.1196
    1SOL    HW2 5374   2.241   2.707   2.457  0.1547  0.6816 -0.1639
    1SOL    HW3 5375   2.288   2.726   2.314 -0.3380 -0.1101 -0.4409
    1SOL    MW4 5376   2.236   2.687   2.372  0.1187 -0.0570  0.0081
    1SOL     OW 5377   2.412   2.823   2.239 -0.5675 -0.5212  0.2848
    1SOL    HW2 5378   2.492   2.782   2.271  0.1394  0.2447 -0.4587
    1SOL    HW3 5379   2.432   2.846   2.148 -1.6999 -0.4980  0.0371
    1SOL    MW4 5380   2.425   2.821   2.231 -0.6239 -0.4170  0.1538
    1SOL     OW 5381   2.443   3.090   2.345  0.4808 -0.2133  0.1330
    1SOL    HW2 5382   2.537   3.098   2.332  0.4627 -1.8249 -1.2101
    1SOL    HW3 5383   2.421   3.003   2.310 -1.4006 -0.1027  0.9679
    1SOL    MW4 5384   2.452   3.080   2.338  0.2303 -0.4110  0.0660
    1SOL     OW 5385   2.244   3.244   2.216  0.1288  0.2285 -0.2298
    1SOL    HW2 5386   2.231   3.335   2.244  1.3494  0.3760 -0.1011
    1SOL    HW3 5387   2.315   3.212   2.272 -1.0610 -1.1659  0.5075
    1SOL    MW4 5388   2.252   3.252   2.227  0.1326  0.0639 -0.1156
    1SOL     OW 5389   2.241   3.487   2.341  0.4125 -0.1572 -0.0194
    1SOL    HW2 5390   2.244   3.492   2.437 -0.7700  0.4833 -0.0155
    1SOL    HW3 5391   2.171   3.547   2.316  1.5184  0.5900 -1.3599
    1SOL    MW4 5392   2.232   3.496   2.350  0.4025  0.0257 -0.1957
    1SOL     OW 5393   2.471   3.592   2.242  0.2416 -0.1458  0.4898
    1SOL    HW2 5394   2.491   3.663   2.303 -0.5542  1.8858 -1.5466
    1SOL    HW3 5395   2.387   3.558   2.271 -0.6593  1.5462 -0.1051
    1SOL    MW4 5396   2.463   3.597   2.254  0.0179  0.3457  0.1428
    1SOL     OW 5397   2.504   3.829   2.375  0.0587 -0.0466  0.3797
    1SOL    HW2 5398   2.522   3.838   2.469  0.2828  1.1186  0.2347
    1SOL    HW3 5399   2.425   3.881   2.361  1.7615  2.3515 -0.6201
    1SOL    MW4 5400   2.496   3.837   2.385  0.3130  0.4237  0.2286
    1SOL     OW 5401   2.283   4.006   2.291 -0.0067 -0.6209  0.5467
    1SOL    HW2 5402   2.290   4.098   2.320  0.0829 -0.4849  0.0940
    1SOL    HW3 5403   2.199   3.977   2.325 -1.9313  0.8481 -2.7092
    1SOL    MW4 5404   2.273   4.014   2.300 -0.2487 -0.4091  0.0575
    1SOL     OW 5405   2.282   4.260   2.369 -0.0889 -0.0823  0.0159
    1SOL    HW2 5406   2.286   4.270   2.464 -0.3090 -0.0721  0.0237
    1SOL    HW3 5407   2.201   4.304   2.344 -0.8525 -1.4507  0.0084
    1SOL    MW4 5408   2.272   4.267   2.378 -0.2186 -0.2618  0.0157
    1SOL     OW 5409   2.503   4.409   2.247  0.1395  0.0963 -0.4471
    1SOL    HW2 5410   2.582   4.361   2.272 -0.1555  1.0266  2.4248
    1SOL    HW3 5411   2.431   4.352   2.274 -0.2191 -0.7757 -3.1142
    1SOL    MW4 5412   2.504   4.395   2.254  0.0534  0.1040 -0.4201
    1SOL     OW 5413   2.914   4.666   2.385 -0.2277 -0.2961  0.0742
    1SOL    HW2 5414   2.987   4.718   2.353 -0.3831  1.3715  2.3030
    1SOL    HW3 5415   2.926   4.580   2.344  1.4900  0.7152 -1.6194
    1SOL    MW4 5416   2.926   4.661   2.376 -0.0215  0.0574  0.1450
    1SOL     OW 5417   2.699   0.109   2.216  0.4039  0.0267  0.5265
    1SOL    HW2 5418   2.707   0.193   2.261  1.5461 -0.4030  1.1401
    1SOL    HW3 5419   2.765   0.053   2.257 -0.9798 -1.4600  0.7548
    1SOL    MW4 5420   2.709   0.113   2.227  0.3719 -0.2262  0.6378
    1SOL     OW 5421   2.669   0.381   2.330  0.0574  0.2659  0.0880
    1SOL    HW2 5422   2.668   0.374   2.425  0.4403  0.6085  0.1200
    1SOL    HW3 5423   2.753   0.423   2.310 -0.8621  1.9918 -0.2700
    1SOL    MW4 5424   2.680   0.386   2.340 -0.0136  0.5388  0.0451
    1SOL     OW 5425   2.909   0.485   2.277 -0.1341  0.4090 -0.0189
    1SOL    HW2 5426   2.925   0.576   2.302 -0.0644  0.8605 -1.6449
    1SOL    HW3 5427   2.920   0.484   2.181  0.7485 -1.4918  0.0758
    1SOL    MW4 5428   2.912   0.497   2.267 -0.0083  0.2178 -0.2208
    1SOL     OW 5429   2.891   0.756   2.376 -0.1459  0.0952 -0.0973
    1SOL    HW2 5430   2.872   0.734   2.467  0.6280 -0.7517 -0.1286
    1SOL    HW3 5431   2.808   0.788   2.341 -0.8155 -0.9235  0.5139
    1SOL    MW4 5432   2.878   0.757   2.383 -0.1321 -0.1510 -0.0210
    1SOL     OW 5433   2.646   0.850   2.258 -0.5945  0.2468 -0.0531
    1SOL    HW2 5434   2.640   0.940   2.291 -0.3488 -0.1426  1.1028
    1SOL    HW3 5435   2.668   0.859   2.166  0.8649  1.3485  0.3932
    1SOL    MW4 5436   2.648   0.863   2.251 -0.3695  0.3408  0.1583
    1SOL     OW 5437   2.633   1.145   2.357  0.4795 -0.3707 -0.0007
    1SOL    HW2 5438   2.646   1.162   2.450 -0.2524  0.0102  0.0370
    1SOL    HW3 5439   2.709   1.185   2.315 -0.3913  1.6208  0.2331
    1SOL    MW4 5440   2.645   1.153   2.364  0.2680 -0.0578  0.0350
    1SOL     OW 5441   2.875   1.239   2.257 -0.6476  0.3252 -0.0331
    1SOL    HW2 5442   2.966   1.229   2.287 -0.2342  0.5695 -1.1752
    1SOL    HW3 5443   2.881   1.240   2.161 -1.8320  0.5920 -0.1159
    1SOL    MW4 5444   2.888   1.237   2.248 -0.7493  0.3927 -0.1945
    1SOL     OW 5445   2.884   1.510   2.326  0.5273 -0.0891 -0.0160
    1SOL    HW2 5446   2.890   1.498   2.420  2.4652 -1.4987 -0.2892
    1SOL    HW3 5447   2.878   1.421   2.290 -1.5487  0.4718 -1.1665
    1SOL    MW4 5448   2.884   1.497   2.333  0.5090 -0.2012 -0.2038
    1SOL     OW 5449   2.659   1.650   2.269 -0.2678  0.1428  0.2392
    1SOL    HW2 5450   2.740   1.613   2.305  0.4937  2.1031  0.5962
    1SOL    HW3 5451   2.675   1.654   2.174  1.0087  2.6691  0.5128
    1SOL    MW4 5452   2.672   1.646   2.261  0.0012  0.7348  0.3223
    1SOL     OW 5453   2.670   1.906   2.340 -0.1781  0.0561 -0.0422
    1SOL    HW2 5454   2.680   1.898   2.435  0.3529 -0.1553 -0.1111
    1SOL    HW3 5455   2.690   1.819   2.306  2.3579  0.7746 -0.5421
    1SOL    MW4 5456   2.674   1.894   2.348  0.2265  0.1230 -0.1175
    1SOL     OW 5457   2.902   1.993   2.216  0.2434 -0.1049 -0.3456
    1SOL    HW2 5458   2.970   1.933   2.248 -0.6267 -0.1107  1.6138
    1SOL    HW3 5459   2.821   1.958   2.253 -0.6233  0.7800 -1.3875
    1SOL    MW4 5460   2.900   1.981   2.225  0.0145  0.0111 -0.2246
    1SOL     OW 5461   2.980   2.304   2.327  0.1550  0.0657  0.0847
    1SOL    HW2 5462   2.960   2.300   2.421  1.2256 -0.5544  0.2935
    1SOL    HW3 5463   2.970   2.213   2.297  1.9668 -0.1433  0.0591
    1SOL    MW4 5464   2.976   2.291   2.335  0.5355 -0.0434  0.1090
    1SOL     OW 5465   2.721   2.435   2.267  0.3355  0.0687 -0.3906
    1SOL    HW2 5466   2.805   2.401   2.299 -0.1684 -1.0209 -0.1836
    1SOL    HW3 5467   2.728   2.430   2.171  0.5377  0.0570 -0.3749
    1SOL    MW4 5468   2.733   2.429   2.258  0.2956 -0.0768 -0.3610
    1SOL     OW 5469   2.647   2.717   2.341  0.2286 -0.4829  0.3780
    1SOL    HW2 5470   2.726   2.768   2.321  0.3140  0.0247  1.9012
    1SOL    HW3 5471   2.675   2.626   2.333  0.6492 -0.2966 -0.2828
    1SOL    MW4 5472   2.661   2.712   2.337  0.2954 -0.3915  0.4919
    1SOL     OW 5473   2.864   2.861   2.279 -0.5556 -0.0268  0.1721
    1SOL    HW2 5474   2.896   2.942   2.317  3.3099 -1.6022  0.4900
    1SOL    HW3 5475   2.871   2.874   2.184  0.0156  0.0077  0.2218
    1SOL    MW4 5476   2.869   2.873   2.272  0.0298 -0.2301  0.2203
    1SOL     OW 5477   2.982   3.109   2.355  0.1837  0.3858 -0.0151
    1SOL    HW2 5478   2.966   3.114   2.449 -0.7100  0.9138 -0.1825
    1SOL    HW3 5479   2.899   3.138   2.316  0.5654  0.2134 -0.9576
    1SOL    MW4 5480   2.969   3.114   2.362  0.1163  0.4327 -0.1614
    1SOL     OW 5481   2.720   3.155   2.274 -0.2356  0.1140 -0.5123
    1SOL    HW2 5482   2.708   3.237   2.323 -1.1050 -0.6330  0.5413
    1SOL    HW3 5483   2.692   3.176   2.185 -1.6127  0.6463  0.0318
    1SOL    MW4 5484   2.715   3.169   2.268 -0.5322  0.0854 -0.3016
    1SOL     OW 5485   2.684   3.428   2.323  0.3258 -0.0630  0.2651
    1SOL    HW2 5486   2.752   3.483   2.284  1.2543 -1.6953 -0.4678
    1SOL    HW3 5487   2.602   3.459   2.284  0.7080  1.5200  0.6964
    1SOL    MW4 5488   2.682   3.439   2.313  0.4985 -0.0694  0.2253
    1SOL     OW 5489   2.911   3.604   2.265  0.0348 -0.6374  0.1748
    1SOL    HW2 5490   2.991   3.574   2.308  0.3577  0.4294  0.3447
    1SOL    HW3 5491   2.890   3.687   2.309 -1.1625 -0.9075  0.1247
    1SOL    MW4 5492   2.919   3.611   2.277 -0.0808 -0.5324  0.1905
    1SOL     OW 5493   2.934   3.850   2.392  0.3637 -0.5273 -0.1170
    1SOL    HW2 5494   2.964   3.871   2.480  1.1085  0.1248 -0.5230
    1SOL    HW3 5495   2.856   3.904   2.379  0.1721 -0.7285  0.1892
    1SOL    MW4 5496   2.927   3.860   2.402  0.4365 -0.4678 -0.1302
    1SOL     OW 5497   2.720   3.989   2.292 -0.0397  0.3940 -0.0537
    1SOL    HW2 5498   2.657   3.925   2.326  1.8252 -1.4407 -0.0190
    1SOL    HW3 5499   2.708   3.986   2.197 -0.6746  0.7669  0.0093
    1SOL    MW4 5500   2.710   3.980   2.284  0.1223  0.2012 -0.0408
    1SOL     OW 5501   2.717   4.274   2.341 -0.2260  0.0719 -0.0888
    1SOL    HW2 5502   2.694   4.273   2.434 -3.7036 -0.4928 -0.8669
    1SOL    HW3 5503   2.737   4.182   2.321 -0.8227 -0.0426 -0.1783
    1SOL    MW4 5504   2.717   4.262   2.350 -0.7634 -0.0176 -0.2031
    1SOL     OW 5505   2.925   4.425   2.269  0.1776 -0.7466 -0.1299
    1SOL    HW2 5506   3.000   4.394   2.320 -0.7973 -2.7661  0.1071
    1SOL    HW3 5507   2.855   4.363   2.288 -1.4526  0.8808 -0.6668
    1SOL    MW4 5508   2.926   4.413   2.278 -0.1662 -0.7982 -0.1695
    1SOL     OW 5509   3.369   4.613   2.342  0.0697 -0.2080 -0.0008
    1SOL    HW2 5510   3.367   4.617   2.438 -0.2649 -0.7472  0.0199
    1SOL    HW3 5511   3.448   4.661   2.318 -1.0144  1.8284  0.4257
    1SOL    MW4 5512   3.379   4.619   2.352 -0.1175 -0.0105  0.0584
    1SOL     OW 5513   3.129   0.088   2.236 -0.3959  0.0708  0.6901
    1SOL    HW2 5514   3.141   0.178   2.267 -1.4861  0.6760 -0.5782
    1SOL    HW3 5515   3.211   0.044   2.258  0.3990  1.5372  0.7540
    1SOL    MW4 5516   3.141   0.094   2.243 -0.4349  0.3441  0.5310
    1SOL     OW 5517   3.131   0.345   2.352  0.2860 -0.4457 -0.1758
    1SOL    HW2 5518   3.214   0.383   2.325  0.7808 -0.9099  0.6376
    1SOL    HW3 5519   3.064   0.397   2.309  0.9749  0.7666  0.2071
    1SOL    MW4 5520   3.133   0.357   2.343  0.4423 -0.3470 -0.0176
    1SOL     OW 5521   3.346   0.490   2.268  0.0281  0.4453  0.0676
    1SOL    HW2 5522   3.416   0.432   2.297  0.0635  0.0928 -0.7295
    1SOL    HW3 5523   3.347   0.484   2.173 -2.1113 -0.8028  0.0961
    1SOL    MW4 5524   3.355   0.481   2.259 -0.2494  0.2341 -0.0341
    1SOL     OW 5525   3.342   0.761   2.359  0.6442 -0.0811 -0.0068
    1SOL    HW2 5526   3.419   0.785   2.307  1.4536 -1.4963  0.5088
    1SOL    HW3 5527   3.319   0.673   2.328  1.2104 -1.0011  2.1030
    1SOL    MW4 5528   3.349   0.753   2.348  0.8254 -0.3892  0.3395
    1SOL     OW 5529   3.095   0.923   2.296  0.1465  0.1268  0.3789
    1SOL    HW2 5530   3.183   0.899   2.325  0.0397 -0.0994  0.5207
    1SOL    HW3 5531   3.038   0.862   2.342 -0.3033  1.9712  2.3203
    1SOL    MW4 5532   3.099   0.912   2.306  0.0732  0.3402  0.6540
    1SOL     OW 5533   3.117   1.205   2.376  0.2343  0.2953 -0.3276
    1SOL    HW2 5534   3.184   1.237   2.315 -0.0549  0.1475 -0.7234
    1SOL    HW3 5535   3.102   1.114   2.350  0.8096 -0.0687  0.5840
    1SOL    MW4 5536   3.124   1.198   2.364  0.2720  0.2278 -0.2596
    1SOL     OW 5537   3.359   1.260   2.236 -0.5233 -0.8389  0.3551
    1SOL    HW2 5538   3.433   1.222   2.283 -0.6076 -1.8877 -0.3462
    1SOL    HW3 5539   3.365   1.354   2.253  1.0839 -0.8971  0.1370
    1SOL    MW4 5540   3.369   1.267   2.244 -0.3223 -0.9849  0.2337
    1SOL     OW 5541   3.358   1.506   2.358  0.1256 -0.6094  0.3835
    1SOL    HW2 5542   3.333   1.488   2.449 -1.7009 -0.4663 -0.0583
    1SOL    HW3 5543   3.277   1.536   2.317  1.2067  0.4738 -1.0079
    1SOL    MW4 5544   3.344   1.508   2.365  0.0272 -0.4474  0.1416
    1SOL     OW 5545   3.148   1.616   2.237 -0.2815  0.1113  0.2172
    1SOL    HW2 5546   3.137   1.703   2.274  1.9152  1.0919 -1.3486
    1SOL    HW3 5547   3.061   1.576   2.244 -1.4361  2.5772  0.5361
    1SOL    MW4 5548   3.135   1.622   2.243 -0.1438  0.5658  0.0529
    1SOL     OW 5549   3.101   1.870   2.347  0.2831 -0.4021 -0.0146
    1SOL    HW2 5550   3.108   1.880   2.442  0.2613 -0.4863 -0.0047
    1SOL    HW3 5551   3.170   1.927   2.312  0.3737 -0.4698  0.0543
    1SOL    MW4 5552   3.111   1.879   2.355  0.2918 -0.4221 -0.0043
    1SOL     OW 5553   3.307   2.026   2.276 -0.2702 -0.2516  0.1087
    1SOL    HW2 5554   3.382   1.983   2.317 -0.3957  0.2783  0.8975
    1SOL    HW3 5555   3.331   2.030   2.183  0.6668 -0.1191  0.3435
    1SOL    MW4 5556   3.320   2.021   2.269 -0.1631 -0.1645  0.2437
    1SOL     OW 5557   3.386   2.295   2.377 -0.4001  0.4005 -0.1147
    1SOL    HW2 5558   3.324   2.354   2.334  0.5094  1.4423 -0.0067
    1SOL    HW3 5559   3.361   2.208   2.345  0.2545  1.1429 -2.7948
    1SOL    MW4 5560   3.374   2.291   2.367 -0.1938  0.6359 -0.4539
    1SOL     OW 5561   3.205   2.458   2.246 -0.1732 -0.0690 -0.0488
    1SOL    HW2 5562   3.185   2.551   2.254  0.6694  0.1705 -0.6072
    1SOL    HW3 5563   3.122   2.414   2.259 -0.5284  0.7541  0.4826
    1SOL    MW4 5564   3.192   2.465   2.248 -0.1087  0.0710 -0.0525
    1SOL     OW 5565   3.109   2.711   2.335 -0.0637 -0.1583 -0.5323
    1SOL    HW2 5566   3.103   2.703   2.430 -0.0204 -1.1419 -0.6048
    1SOL    HW3 5567   3.023   2.743   2.308  0.6793  2.4616  0.0532
    1SOL    MW4 5568   3.097   2.714   2.344  0.0401  0.0572 -0.4644
    1SOL     OW 5569   3.353   2.843   2.268 -0.2329 -0.3475 -0.0349
    1SOL    HW2 5570   3.351   2.935   2.296  1.6965 -0.4337  0.4493
    1SOL    HW3 5571   3.265   2.811   2.284 -0.9830  1.4830 -0.3890
    1SOL    MW4 5572   3.341   2.851   2.274 -0.0772 -0.1173 -0.0179
    1SOL     OW 5573   3.374   3.107   2.344 -0.0699 -0.0426 -0.1509
    1SOL    HW2 5574   3.451   3.144   2.301  0.3393 -1.0138 -0.2649
    1SOL    HW3 5575   3.301   3.157   2.309  0.5685  1.4877  0.6067
    1SOL    MW4 5576   3.375   3.119   2.334  0.0684  0.0315 -0.0660
    1SOL     OW 5577   3.167   3.262   2.234 -0.3378  0.4388  0.0546
    1SOL    HW2 5578   3.180   3.345   2.280 -1.1839  0.9347 -0.5762
    1SOL    HW3 5579   3.097   3.218   2.282  1.9747 -1.1910  2.0642
    1SOL    MW4 5580   3.160   3.267   2.246 -0.1445  0.2890  0.2363
    1SOL     OW 5581   3.144   3.511   2.365 -0.2499 -0.1447 -0.0757
    1SOL    HW2 5582   3.164   3.500   2.458 -1.0797  0.2261  0.1602
    1SOL    HW3 5583   3.220   3.556   2.328 -0.2655  0.4494  0.6047
    1SOL    MW4 5584   3.156   3.516   2.372 -0.3612 -0.0174  0.0453
    1SOL     OW 5585   3.381   3.656   2.281 -0.8709 -0.2105  0.0872
    1SOL    HW2 5586   3.450   3.606   2.326 -1.1137  0.6236  1.4150
    1SOL    HW3 5587   3.388   3.629   2.189 -0.2523 -1.8187  0.5872
    1SOL    MW4 5588   3.391   3.646   2.275 -0.8214 -0.3128  0.3283
    1SOL     OW 5589   3.375   3.932   2.307 -0.1915  0.0782  0.5182
    1SOL    HW2 5590   3.460   3.963   2.276 -0.2711 -0.4712 -0.2860
    1SOL    HW3 5591   3.382   3.836   2.304 -0.5244  0.0214  1.3353
    1SOL    MW4 5592   3.387   3.923   2.302 -0.2458 -0.0014  0.5200
    1SOL     OW 5593   3.115   4.020   2.252  0.8193 -0.2012 -0.6316
    1SOL    HW2 5594   3.203   3.981   2.250  0.7984 -0.3643  0.8092
    1SOL    HW3 5595   3.061   3.953   2.294 -0.2292 -0.5424 -2.4864
    1SOL    MW4 5596   3.119   4.006   2.257  0.6781 -0.2675 -0.6859
    1SOL     OW 5597   3.116   4.270   2.387 -0.7925 -0.4975 -0.0251
    1SOL    HW2 5598   3.193   4.299   2.339 -0.5556  0.0045  0.6557
    1SOL    HW3 5599   3.099   4.182   2.353 -0.7773 -0.0523 -1.1953
    1SOL    MW4 5600   3.124   4.262   2.376 -0.7591 -0.3729 -0.0894
    1SOL     OW 5601   3.337   4.346   2.266 -0.4694  0.0455 -0.2510
    1SOL    HW2 5602   3.351   4.439   2.280 -1.7833  0.4145 -1.3141
    1SOL    HW3 5603   3.364   4.331   2.176 -0.4355 -0.5764 -0.1407
    1SOL    MW4 5604   3.342   4.356   2.256 -0.6382  0.0119 -0.3767
    1SOL     OW 5605   3.804   4.633   2.338 -0.2978  0.3327 -0.0131
    1SOL    HW2 5606   3.813   4.625   2.433  0.4529 -2.3812 -0.2731
    1SOL    HW3 5607   3.883   4.678   2.309 -0.2589  0.6493  0.5964
    1SOL    MW4 5608   3.816   4.637   2.347 -0.1936  0.0167  0.0329
    1SOL     OW 5609   3.591   0.110   2.244  0.0985 -0.0487 -0.1389
    1SOL    HW2 5610   3.588   0.203   2.267 -0.0127 -0.5707  2.0345
    1SOL    HW3 5611   3.672   0.078   2.284 -0.8715 -1.3143  0.8440
    1SOL    MW4 5612   3.602   0.118   2.252 -0.0439 -0.2845  0.2773
    1SOL     OW 5613   3.588   0.359   2.340  0.1671 -0.0900 -0.1009
    1SOL    HW2 5614   3.579   0.377   2.433 -1.1803 -0.3269 -0.1758
    1SOL    HW3 5615   3.666   0.409   2.313 -0.5144  1.4572  0.7650
    1SOL    MW4 5616   3.597   0.368   2.349 -0.1009  0.0829  0.0036
    1SOL     OW 5617   3.803   0.488   2.238 -0.3685 -0.2489  0.2843
    1SOL    HW2 5618   3.802   0.583   2.251 -0.8517 -0.2747  0.4606
    1SOL    HW3 5619   3.802   0.477   2.143  1.2256 -0.0697  0.2335
    1SOL    MW4 5620   3.802   0.499   2.227 -0.2220 -0.2286  0.3011
    1SOL     OW 5621   3.838   0.745   2.329 -0.0282 -0.1759 -0.2527
    1SOL    HW2 5622   3.846   0.755   2.424  0.0485 -0.0419 -0.2739
    1SOL    HW3 5623   3.924   0.770   2.295 -0.1879  0.1721 -0.3921
    1SOL    MW4 5624   3.850   0.749   2.337 -0.0389 -0.1123 -0.2739
    1SOL     OW 5625   3.604   0.870   2.249  0.1503 -0.1943 -0.5026
    1SOL    HW2 5626   3.677   0.812   2.270  0.9074  0.7469 -0.4620
    1SOL    HW3 5627   3.603   0.875   2.153 -0.1112 -0.5196 -0.5166
    1SOL    MW4 5628   3.613   0.863   2.239  0.2158 -0.1131 -0.4990
    1SOL     OW 5629   3.595   1.138   2.354  0.4694 -0.2706  0.0101
    1SOL    HW2 5630   3.606   1.137   2.449  2.3319  1.6738 -0.1337
    1SOL    HW3 5631   3.593   1.046   2.329 -0.6378 -0.8007  1.9934
    1SOL    MW4 5632   3.596   1.126   2.363  0.5689 -0.0840  0.2525
    1SOL     OW 5633   3.824   1.246   2.240  0.1206  0.4408 -0.5212
    1SOL    HW2 5634   3.819   1.340   2.261  1.6517  0.6743 -1.1567
    1SOL    HW3 5635   3.738   1.212   2.265  0.2414  1.6130  1.6506
    1SOL    MW4 5636   3.812   1.254   2.246  0.3386  0.6262 -0.3185
    1SOL     OW 5637   3.822   1.506   2.327 -0.3565 -0.0074 -0.3929
    1SOL    HW2 5638   3.827   1.495   2.422 -0.8018 -0.1777 -0.3889
    1SOL    HW3 5639   3.754   1.573   2.314 -1.5923 -1.2966 -0.6714
    1SOL    MW4 5640   3.814   1.514   2.338 -0.5784 -0.1999 -0.4289
    1SOL     OW 5641   3.582   1.654   2.243 -0.4013 -0.3119 -0.5907
    1SOL    HW2 5642   3.527   1.597   2.298 -0.0658  1.1399  1.3041
    1SOL    HW3 5643   3.538   1.654   2.158 -0.8885 -2.6818 -0.3714
    1SOL    MW4 5644   3.569   1.646   2.239 -0.4213 -0.4330 -0.3116
    1SOL     OW 5645   3.530   1.912   2.372 -0.4724 -0.2875 -0.3063
    1SOL    HW2 5646   3.605   1.951   2.327  0.2475 -0.3442  0.8204
    1SOL    HW3 5647   3.539   1.818   2.357 -0.3709 -0.2857 -0.2584
    1SOL    MW4 5648   3.541   1.905   2.364 -0.3641 -0.2948 -0.1514
    1SOL     OW 5649   3.765   2.021   2.241 -0.3190 -0.0887 -0.0459
    1SOL    HW2 5650   3.827   1.959   2.280  0.1949  0.1899 -0.4157
    1SOL    HW3 5651   3.779   2.013   2.146 -0.9898 -0.1713 -0.1411
    1SOL    MW4 5652   3.775   2.012   2.233 -0.3395 -0.0627 -0.1070
    1SOL     OW 5653   3.815   2.304   2.289 -0.1322 -0.3115 -0.0582
    1SOL    HW2 5654   3.736   2.357   2.277  0.3898  0.9051  1.6874
    1SOL    HW3 5655   3.785   2.214   2.278 -1.9876  0.0620  1.6723
    1SOL    MW4 5656   3.800   2.299   2.286 -0.3083 -0.1016  0.4005
    1SOL     OW 5657   3.588   2.466   2.265  0.8979 -0.0026  0.4252
    1SOL    HW2 5658   3.523   2.408   2.306 -1.1747  2.3280  0.5347
    1SOL    HW3 5659   3.584   2.444   2.172 -0.8514  0.8628  0.2805
    1SOL    MW4 5660   3.579   2.455   2.258  0.3936  0.4191  0.4206
    1SOL     OW 5661   3.585   2.708   2.378 -0.5302  0.2656  0.2122
    1SOL    HW2 5662   3.587   2.617   2.348  0.4656  0.6663 -0.9890
    1SOL    HW3 5663   3.496   2.737   2.358 -0.5217 -0.1164 -0.4167
    1SOL    MW4 5664   3.573   2.700   2.371 -0.3974  0.2680 -0.0293
    1SOL     OW 5665   3.783   2.847   2.245  0.0483 -0.1492 -0.4092
    1SOL    HW2 5666   3.777   2.933   2.287  0.0577 -0.6653  0.6662
    1SOL    HW3 5667   3.707   2.800   2.278  1.7944 -1.6652  1.5932
    1SOL    MW4 5668   3.772   2.852   2.255  0.2801 -0.4172 -0.0033
    1SOL     OW 5669   3.822   3.091   2.392  0.5050  0.1358 -0.0079
    1SOL    HW2 5670   3.828   3.117   2.484 -0.0032  2.4248 -0.6014
    1SOL    HW3 5671   3.908   3.111   2.355  0.7250 -0.8274 -0.0423
    1SOL    MW4 5672   3.834   3.097   2.399  0.4671  0.3104 -0.0908
    1SOL     OW 5673   3.622   3.238   2.262  0.0602 -0.4097 -0.2069
    1SOL    HW2 5674   3.599   3.316   2.312  0.2155  0.1040 -0.9400
    1SOL    HW3 5675   3.693   3.197   2.313  1.1340  0.8251 -0.6965
    1SOL    MW4 5676   3.628   3.243   2.276  0.2222 -0.1791 -0.3679
    1SOL     OW 5677   3.558   3.474   2.392 -0.3674  0.2351  0.6926
    1SOL    HW2 5678   3.565   3.475   2.488  0.9841 -1.0106  0.6380
    1SOL    HW3 5679   3.647   3.493   2.362 -0.5035 -0.6216 -0.2924
    1SOL    MW4 5680   3.571   3.476   2.401 -0.2067 -0.0424  0.5553
    1SOL     OW 5681   3.819   3.599   2.314 -0.0274  0.1191  0.1795
    1SOL    HW2 5682   3.838   3.685   2.351  1.0314 -0.1284  0.2368
    1SOL    HW3 5683   3.814   3.614   2.219  0.8544  0.1250  0.1301
    1SOL    MW4 5684   3.821   3.612   2.306  0.2286  0.0875  0.1805
    1SOL     OW 5685   3.793   3.873   2.378 -0.4874 -0.3429  0.1414
    1SOL    HW2 5686   3.804   3.866   2.473 -0.4812 -0.7496  0.1097
    1SOL    HW3 5687   3.875   3.912   2.347 -0.7321  0.3581  0.3737
    1SOL    MW4 5688   3.806   3.877   2.387 -0.5190 -0.3040  0.1678
    1SOL     OW 5689   3.633   4.035   2.232 -0.2643  0.5022 -0.0482
    1SOL    HW2 5690   3.614   4.110   2.288  1.2627  0.6656  0.2668
    1SOL    HW3 5691   3.693   3.981   2.284 -0.8411 -0.6157 -0.5279
    1SOL    MW4 5692   3.638   4.037   2.246 -0.1388  0.3762 -0.0701
    1SOL     OW 5693   3.591   4.265   2.388  0.4266  0.3565  0.2028
    1SOL    HW2 5694   3.658   4.320   2.348  0.1581 -0.3056 -1.1744
    1SOL    HW3 5695   3.508   4.305   2.362  0.2662  0.8192  1.3937
    1SOL    MW4 5696   3.589   4.278   2.380  0.3698  0.3300  0.1781
    1SOL     OW 5697   3.782   4.387   2.224  0.3704  0.2626  0.3683
    1SOL    HW2 5698   3.858   4.335   2.251  0.2786  0.6880  1.4694
    1SOL    HW3 5699   3.792   4.470   2.271 -2.6079 -0.9404  3.3228
    1SOL    MW4 5700   3.793   4.391   2.234 -0.0348  0.1597  0.9034
    1SOL     OW 5701   4.275   4.590   2.353 -0.3898  0.3493 -0.1437
    1SOL    HW2 5702   4.288   4.608   2.446 -0.3367  1.3617 -0.3435
    1SOL    HW3 5703   4.329   4.655   2.308  0.8369 -1.1482 -0.8629
    1SOL    MW4 5704   4.284   4.601   2.359 -0.2213  0.2856 -0.2649
    1SOL     OW 5705   4.052   0.080   2.256 -0.4573 -0.4941  0.1427
    1SOL    HW2 5706   4.040   0.158   2.310 -1.7220 -1.3453  1.1168
    1SOL    HW3 5707   4.123   0.033   2.298 -1.3477 -1.0868  1.0144
    1SOL    MW4 5708   4.060   0.084   2.269 -0.7415 -0.6846  0.3862
    1SOL     OW 5709   4.022   0.355   2.349  0.3416  0.1706  0.0905
    1SOL    HW2 5710   4.096   0.406   2.316 -0.5614  1.3173 -0.1907
    1SOL    HW3 5711   3.945   0.400   2.315 -0.5102 -0.6957  0.8451
    1SOL    MW4 5712   4.022   0.368   2.340  0.1106  0.2076  0.1531
    1SOL     OW 5713   4.267   0.511   2.269  0.3024 -0.1415 -0.0871
    1SOL    HW2 5714   4.274   0.605   2.281 -0.9568 -0.1307  0.7224
    1SOL    HW3 5715   4.334   0.474   2.326 -1.0646  0.1825  1.7994
    1SOL    MW4 5716   4.277   0.518   2.278 -0.0443 -0.0973  0.2687
    1SOL     OW 5717   4.293   0.791   2.351 -0.1999  0.4135  0.2643
    1SOL    HW2 5718   4.214   0.812   2.301 -0.1949  1.9886  0.8879
    1SOL    HW3 5719   4.362   0.840   2.307  0.0824  0.5873  0.9043
    1SOL    MW4 5720   4.292   0.800   2.339 -0.1621  0.6443  0.4311
    1SOL     OW 5721   4.062   0.872   2.228 -0.0014  0.3504 -0.1289
    1SOL    HW2 5722   4.068   0.958   2.268  0.6186  1.3086 -2.2123
    1SOL    HW3 5723   4.065   0.889   2.134 -0.6193 -1.8897 -0.5803
    1SOL    MW4 5724   4.063   0.885   2.221 -0.0019  0.1813 -0.4635
    1SOL     OW 5725   4.066   1.123   2.353 -0.7334  0.3159 -0.2149
    1SOL    HW2 5726   4.057   1.128   2.448 -0.5797  0.9549 -0.2285
    1SOL    HW3 5727   3.982   1.155   2.319 -0.2706  1.4478 -0.3032
    1SOL    MW4 5728   4.054   1.128   2.361 -0.6518  0.5494 -0.2284
    1SOL     OW 5729   4.270   1.233   2.215  0.7184  0.2142 -0.0227
    1SOL    HW2 5730   4.207   1.187   2.270  0.2335 -0.1602 -0.8867
    1SOL    HW3 5731   4.355   1.211   2.253  0.3600  0.3965  0.9020
    1SOL    MW4 5732   4.273   1.224   2.228  0.6070  0.1887 -0.0148
    1SOL     OW 5733   4.234   1.481   2.335  0.2454 -0.3441  0.0969
    1SOL    HW2 5734   4.247   1.395   2.297 -1.2925 -0.6112  0.1589
    1SOL    HW3 5735   4.296   1.538   2.288 -0.1899 -1.0731 -1.3602
    1SOL    MW4 5736   4.244   1.477   2.324 -0.0153 -0.4755 -0.0873
    1SOL     OW 5737   4.034   1.651   2.245  0.1564  0.1150 -0.0602
    1SOL    HW2 5738   4.107   1.594   2.269  1.4375  1.3644 -0.9292
    1SOL    HW3 5739   3.956   1.601   2.270  1.3065 -0.8708  1.6810
    1SOL    MW4 5740   4.033   1.637   2.252  0.4778  0.1498  0.0551
    1SOL     OW 5741   4.001   1.896   2.357 -0.4085  0.3944 -0.1047
    1SOL    HW2 5742   4.015   1.910   2.451  0.2874  0.9151 -0.2872
    1SOL    HW3 5743   4.011   1.801   2.346 -0.9518  0.2693  0.4218
    1SOL    MW4 5744   4.004   1.885   2.368 -0.3881  0.4467 -0.0594
    1SOL     OW 5745   4.227   2.031   2.253  0.2328 -0.0423  0.0807
    1SOL    HW2 5746   4.229   2.113   2.302  0.1591  0.0278 -0.0333
    1SOL    HW3 5747   4.152   1.983   2.288 -0.8086  0.7020 -1.0776
    1SOL    MW4 5748   4.218   2.036   2.264  0.0858  0.0651 -0.0873
    1SOL     OW 5749   4.267   2.301   2.357  0.3808  0.4422 -0.1221
    1SOL    HW2 5750   4.201   2.344   2.303  0.1354  0.9011  0.5320
    1SOL    HW3 5751   4.346   2.353   2.345  0.4441  0.2870 -0.3786
    1SOL    MW4 5752   4.269   2.313   2.348  0.3567  0.4823 -0.0696
    1SOL     OW 5753   4.065   2.429   2.224  0.0656  0.5490  0.0602
    1SOL    HW2 5754   4.073   2.510   2.275 -0.3994  1.1157 -0.7545
    1SOL    HW3 5755   3.991   2.383   2.262 -0.1010  0.8382  0.0843
    1SOL    MW4 5756   4.056   2.434   2.235 -0.0176  0.6621 -0.0441
    1SOL     OW 5757   3.998   2.686   2.324  0.0360 -0.2574  0.5283
    1SOL    HW2 5758   4.001   2.685   2.419  1.4707  0.3469  0.5071
    1SOL    HW3 5759   3.921   2.739   2.303 -0.9725 -1.3721  1.3292
    1SOL    MW4 5760   3.988   2.693   2.334  0.0925 -0.3247  0.6313
    1SOL     OW 5761   4.239   2.824   2.289 -0.1929  0.2234 -0.3584
    1SOL    HW2 5762   4.171   2.760   2.312 -0.1322  0.6100  0.9059
    1SOL    HW3 5763   4.321   2.780   2.308 -0.1580  0.8395  1.0181
    1SOL    MW4 5764   4.241   2.810   2.295 -0.1798  0.3557 -0.0098
    1SOL     OW 5765   4.297   3.084   2.382 -0.1139  0.6483  0.3211
    1SOL    HW2 5766   4.284   2.995   2.348 -1.8019  1.2858 -0.7590
    1SOL    HW3 5767   4.388   3.104   2.362  0.5183 -1.1139  1.2715
    1SOL    MW4 5768   4.308   3.075   2.375 -0.2532  0.5002  0.3040
    1SOL     OW 5769   4.070   3.185   2.262  0.0740  0.2969 -0.0885
    1SOL    HW2 5770   4.062   3.273   2.298  0.5386  0.6611 -0.8791
    1SOL    HW3 5771   4.155   3.154   2.295 -0.9198 -0.5594  1.7145
    1SOL    MW4 5772   4.080   3.192   2.271  0.0048  0.2320  0.0448
    1SOL     OW 5773   4.059   3.433   2.361  0.0196 -0.5159 -0.7154
    1SOL    HW2 5774   4.126   3.497   2.335 -0.6347  0.2242 -0.5822
    1SOL    HW3 5775   3.976   3.477   2.343 -0.4431 -0.3540  1.7018
    1SOL    MW4 5776   4.057   3.447   2.355 -0.1278 -0.3967 -0.3791
    1SOL     OW 5777   4.275   3.588   2.281 -0.1148  0.0815  0.4270
    1SOL    HW2 5778   4.280   3.679   2.309  1.8971  0.2550 -0.4328
    1SOL    HW3 5779   4.270   3.592   2.185  0.9855 -0.7239  0.3218
    1SOL    MW4 5780   4.275   3.601   2.272  0.2961 -0.0021  0.2997
    1SOL     OW 5781   4.252   3.843   2.367 -0.1790 -0.2864 -0.0416
    1SOL    HW2 5782   4.274   3.845   2.460  0.9292 -2.4437 -0.2232
    1SOL    HW3 5783   4.324   3.890   2.324  0.0353 -0.5232  0.0600
    1SOL    MW4 5784   4.264   3.850   2.373 -0.0043 -0.6022 -0.0522
    1SOL     OW 5785   4.034   3.977   2.279 -0.1154  0.2473  0.1307
    1SOL    HW2 5786   4.111   3.934   2.316 -0.1685  0.3749  0.3862
    1SOL    HW3 5787   4.047   3.972   2.184 -0.2292 -0.5305  0.1556
    1SOL    MW4 5788   4.046   3.971   2.271 -0.1378  0.1616  0.1678
    1SOL     OW 5789   3.995   4.264   2.330 -0.1424 -0.3337 -0.1578
    1SOL    HW2 5790   4.075   4.313   2.312  1.2101 -1.9896  1.1284
    1SOL    HW3 5791   4.015   4.174   2.303 -0.9097 -1.1358  1.7921
    1SOL    MW4 5792   4.009   4.259   2.324 -0.0653 -0.6580  0.2689
    1SOL     OW 5793   4.231   4.368   2.228  0.2274  0.1855 -0.2994
    1SOL    HW2 5794   4.235   4.460   2.255 -1.1613  0.1113  0.1822
    1SOL    HW3 5795   4.306   4.328   2.270 -0.0501  0.7735  0.7770
    1SOL    MW4 5796   4.241   4.375   2.237  0.0076  0.2537 -0.0937
    1SOL     OW 5797   0.243   4.664   2.630  0.3148 -0.2631  0.1470
    1SOL    HW2 5798   0.238   4.571   2.649  0.5387 -0.2014  0.5023
    1SOL    HW3 5799   0.170   4.703   2.679  2.5543  0.2788  3.1869
    1SOL    MW4 5800   0.233   4.657   2.639  0.6398 -0.1836  0.5949
    1SOL     OW 5801   0.015   0.081   2.763 -0.6706 -0.1938  0.0412
    1SOL    HW2 5802   0.022   0.080   2.859  0.7837  0.5239 -0.0435
    1SOL    HW3 5803  -0.011   0.170   2.741 -0.4084 -0.1884 -0.2603
    1SOL    MW4 5804   0.013   0.092   2.773 -0.4441 -0.0984 -0.0098
    1SOL     OW 5805   0.000   0.344   2.679 -0.2508  0.1849  0.2607
    1SOL    HW2 5806   0.079   0.392   2.705 -0.0083  0.3026 -0.6768
    1SOL    HW3 5807  -0.009   0.362   2.585 -0.4592 -1.1583  0.0118
    1SOL    MW4 5808   0.009   0.352   2.670 -0.2460  0.0232  0.1042
    1SOL     OW 5809   0.216   0.488   2.752  0.1315 -0.1006  0.0104
    1SOL    HW2 5810   0.233   0.498   2.846 -0.6014  1.2366  0.0238
    1SOL    HW3 5811   0.300   0.464   2.714  0.7244  0.6471  0.8449
    1SOL    MW4 5812   0.229   0.486   2.759  0.1130  0.1745  0.1223
    1SOL     OW 5813   0.219   0.744   2.627 -0.4534  0.0155 -0.4571
    1SOL    HW2 5814   0.299   0.785   2.661  0.8019 -2.0584 -0.7857
    1SOL    HW3 5815   0.212   0.662   2.676 -0.5776 -1.3418 -2.6823
    1SOL    MW4 5816   0.229   0.739   2.638 -0.3042 -0.4372 -0.7942
    1SOL     OW 5817   0.009   0.877   2.762  0.6918  0.3407 -0.1686
    1SOL    HW2 5818  -0.068   0.824   2.743  0.0951  1.3395 -0.5499
    1SOL    HW3 5819   0.075   0.847   2.700  1.0515 -1.4466  1.0371
    1SOL    MW4 5820   0.008   0.866   2.751  0.6599  0.2367 -0.0598
    1SOL     OW 5821   4.457   1.140   2.639 -0.2247 -0.2844 -0.3838
    1SOL    HW2 5822   4.532   1.197   2.656 -0.5585  0.0927 -0.1885
    1SOL    HW3 5823   4.473   1.064   2.695  0.1808 -0.3547 -0.5921
    1SOL    MW4 5824   4.469   1.137   2.649 -0.2151 -0.2439 -0.3858
    1SOL     OW 5825   0.167   1.303   2.727 -0.4361 -0.0932 -0.0484
    1SOL    HW2 5826   0.236   1.243   2.699 -1.3897 -1.4768  0.4892
    1SOL    HW3 5827   0.187   1.385   2.682  1.3573 -0.5657 -0.1508
    1SOL    MW4 5828   0.179   1.306   2.717 -0.3253 -0.3382  0.0091
    1SOL     OW 5829   0.205   1.545   2.602 -0.5457  0.2375  0.2797
    1SOL    HW2 5830   0.276   1.579   2.656  0.0341  0.0993 -0.3945
    1SOL    HW3 5831   0.130   1.601   2.623 -0.3945  0.0317  1.4078
    1SOL    MW4 5832   0.204   1.557   2.612 -0.4493  0.1923  0.3395
    1SOL     OW 5833   4.460   1.680   2.713  0.5189 -0.2755  0.6799
    1SOL    HW2 5834   4.478   1.669   2.806  1.3517  0.1157  0.5703
    1SOL    HW3 5835   4.469   1.775   2.698 -0.4502 -0.2197  0.3735
    1SOL    MW4 5836   4.464   1.691   2.723  0.5007 -0.2165  0.6249
    1SOL     OW 5837   4.451   1.948   2.633  0.0850  0.0346  0.4497
    1SOL    HW2 5838   4.536   1.985   2.654  0.3296  0.9891 -2.0369
    1SOL    HW3 5839   4.460   1.916   2.543 -1.5424 -1.7919  0.9046
    1SOL    MW4 5840   4.463   1.949   2.624 -0.0978 -0.0805  0.1817
    1SOL     OW 5841   0.214   2.031   2.715 -0.1308  0.0688  0.7417
    1SOL    HW2 5842   0.296   1.996   2.678 -0.7078 -1.4812  0.8855
    1SOL    HW3 5843   0.210   2.121   2.684  1.5653  0.1140  0.6108
    1SOL    MW4 5844   0.225   2.038   2.706  0.0169 -0.1297  0.7432
    1SOL     OW 5845   0.226   2.298   2.643 -0.0339  0.4816 -0.7916
    1SOL    HW2 5846   0.300   2.340   2.687  0.0264  1.2982 -1.6304
    1SOL    HW3 5847   0.149   2.339   2.681 -0.0463 -0.1843 -0.0992
    1SOL    MW4 5848   0.226   2.309   2.654 -0.0276  0.5014 -0.8111
    1SOL     OW 5849   0.019   2.425   2.771 -0.1159 -0.0939 -0.0265
    1SOL    HW2 5850   0.006   2.420   2.865  1.0817 -1.0140  0.1082
    1SOL    HW3 5851  -0.064   2.396   2.733 -0.6220  0.3568  0.7393
    1SOL    MW4 5852   0.007   2.420   2.778 -0.0247 -0.1557  0.0920
    1SOL     OW 5853   0.025   2.672   2.632 -0.0110 -0.0446  0.0016
    1SOL    HW2 5854  -0.061   2.700   2.664 -0.2917 -2.4866  1.5138
    1SOL    HW3 5855   0.039   2.587   2.673  2.3974 -0.4520 -1.5815
    1SOL    MW4 5856   0.016   2.664   2.642  0.2697 -0.4203 -0.0079
    1SOL     OW 5857   0.248   2.831   2.762 -0.4353  0.0425 -0.0403
    1SOL    HW2 5858   0.270   2.915   2.724  1.0717 -0.7546 -0.9421
    1SOL    HW3 5859   0.176   2.798   2.708 -0.7158  0.5277  0.0338
    1SOL    MW4 5860   0.241   2.837   2.750 -0.2735  0.0014 -0.1495
    1SOL     OW 5861   0.287   3.077   2.654 -0.0273 -0.3521  0.1527
    1SOL    HW2 5862   0.364   3.127   2.680  0.7508 -1.6580  0.3860
    1SOL    HW3 5863   0.290   3.078   2.558 -0.5965  0.9077  0.1264
    1SOL    MW4 5864   0.298   3.084   2.645  0.0003 -0.3581  0.1802
    1SOL     OW 5865   0.059   3.149   2.794 -0.0707  0.3788  0.2237
    1SOL    HW2 5866  -0.019   3.107   2.758 -0.3014  0.9548  0.0484
    1SOL    HW3 5867   0.129   3.123   2.735 -0.2078  0.2212  0.1286
    1SOL    MW4 5868   0.058   3.140   2.782 -0.1192  0.4337  0.1881
    1SOL     OW 5869   0.020   3.426   2.701 -0.3874  0.4356  0.3971
    1SOL    HW2 5870   0.097   3.477   2.727  1.4674 -1.4178 -1.2804
    1SOL    HW3 5871   0.036   3.338   2.737 -0.9918 -0.3645 -1.2506
    1SOL    MW4 5872   0.032   3.421   2.709 -0.2225  0.0858 -0.0415
    1SOL     OW 5873   0.206   3.617   2.759 -0.1599 -0.4141  0.2658
    1SOL    HW2 5874   0.220   3.601   2.852 -0.3606  1.4836  0.6315
    1SOL    HW3 5875   0.276   3.567   2.715 -0.7179 -2.1928  1.3443
    1SOL    MW4 5876   0.217   3.608   2.765 -0.2600 -0.3986  0.4563
    1SOL     OW 5877   0.201   3.877   2.631  0.0328 -0.2768 -0.3086
    1SOL    HW2 5878   0.191   3.787   2.663  0.2854 -0.6879 -1.3453
    1SOL    HW3 5879   0.198   3.868   2.535  0.6023  0.7510 -0.4246
    1SOL    MW4 5880   0.200   3.864   2.622  0.1412 -0.1955 -0.4609
    1SOL     OW 5881   4.480   4.009   2.737 -0.1409  0.3865  0.1633
    1SOL    HW2 5882   4.469   4.098   2.705 -1.4423  0.1328 -0.1429
    1SOL    HW3 5883   4.559   3.977   2.693  1.6160  2.0906  1.9443
    1SOL    MW4 5884   4.489   4.016   2.727 -0.0806  0.5784  0.3579
    1SOL     OW 5885   4.468   4.259   2.632  0.1075 -0.0698  0.0194
    1SOL    HW2 5886   4.396   4.310   2.670  0.7148 -0.4212  1.6879
    1SOL    HW3 5887   4.545   4.314   2.642  0.4264 -0.5169  0.0388
    1SOL    MW4 5888   4.469   4.273   2.638  0.2298 -0.1750  0.2420
    1SOL     OW 5889   0.211   4.392   2.704 -0.3585  0.1444  0.3198
    1SOL    HW2 5890   0.207   4.388   2.799  1.5188 -0.8598  0.3750
    1SOL    HW3 5891   0.290   4.342   2.681 -0.0559  1.4953 -1.6797
    1SOL    MW4 5892   0.221   4.385   2.713 -0.0709  0.1903  0.0629
    1SOL     OW 5893   0.673   0.005   2.607 -0.5838  0.4538 -0.1444
    1SOL    HW2 5894   0.758   0.029   2.644 -0.6164  0.0465  0.2060
    1SOL    HW3 5895   0.611   0.060   2.654 -0.5785  0.2801  0.0655
    1SOL    MW4 5896   0.676   0.016   2.618 -0.5873  0.3772 -0.0706
    1SOL     OW 5897   0.461   0.136   2.719  0.2624  0.5174  0.2276
    1SOL    HW2 5898   0.455   0.126   2.814  1.7056 -1.4224  0.1673
    1SOL    HW3 5899   0.389   0.084   2.684  0.9520 -0.4586  0.2279
    1SOL    MW4 5900   0.451   0.128   2.727  0.5439  0.1327  0.2201
    1SOL     OW 5901   0.452   0.406   2.635 -0.4469  0.0303 -0.1224
    1SOL    HW2 5902   0.533   0.440   2.672 -0.8309 -0.2936  1.0652
    1SOL    HW3 5903   0.450   0.314   2.661 -1.6552  0.2788  0.7321
    1SOL    MW4 5904   0.462   0.398   2.644 -0.6569  0.0204  0.1471
    1SOL     OW 5905   0.688   0.518   2.727  0.0307 -0.3528 -0.1962
    1SOL    HW2 5906   0.672   0.500   2.819  0.3351  2.7457  0.5379
    1SOL    HW3 5907   0.764   0.465   2.704  0.6282 -0.3187  1.6577
    1SOL    MW4 5908   0.696   0.509   2.736  0.1497  0.0604  0.1450
    1SOL     OW 5909   0.684   0.766   2.606 -0.0108 -0.1040  0.3763
    1SOL    HW2 5910   0.745   0.818   2.658  0.8199  0.2170 -0.9110
    1SOL    HW3 5911   0.683   0.680   2.649  0.2244  0.3169  1.2473
    1SOL    MW4 5912   0.692   0.762   2.619  0.1298 -0.0061  0.3214
    1SOL     OW 5913   0.451   0.870   2.704  0.2456  0.2478 -0.3004
    1SOL    HW2 5914   0.464   0.876   2.799  0.9253  0.4386 -0.3998
    1SOL    HW3 5915   0.538   0.849   2.669 -0.2131 -0.8448 -0.7933
    1SOL    MW4 5916   0.464   0.868   2.712  0.2747  0.1288 -0.3786
    1SOL     OW 5917   0.406   1.140   2.646 -0.0706 -0.3443  0.0535
    1SOL    HW2 5918   0.492   1.182   2.655 -0.3620  0.0976  0.8391
    1SOL    HW3 5919   0.421   1.049   2.674  0.7834 -1.0607 -2.6201
    1SOL    MW4 5920   0.419   1.133   2.651  0.0036 -0.3806 -0.1955
    1SOL     OW 5921   0.649   1.275   2.742 -0.2954 -0.0740 -0.2059
    1SOL    HW2 5922   0.677   1.288   2.833 -1.1191 -1.8742  0.3352
    1SOL    HW3 5923   0.722   1.229   2.700 -0.7086 -1.0179  0.0898
    1SOL    MW4 5924   0.662   1.271   2.748 -0.4586 -0.4363 -0.0958
    1SOL     OW 5925   0.642   1.539   2.623 -0.0996  0.4776 -0.0487
    1SOL    HW2 5926   0.563   1.585   2.651  0.4749  0.8686  0.9153
    1SOL    HW3 5927   0.635   1.452   2.663  0.5171  0.8972  0.9852
    1SOL    MW4 5928   0.631   1.533   2.632  0.0576  0.5846  0.2151
    1SOL     OW 5929   0.421   1.685   2.700  0.0566  0.5209  0.0492
    1SOL    HW2 5930   0.433   1.693   2.794 -1.9186  1.7192  0.2242
    1SOL    HW3 5931   0.438   1.772   2.666  0.4471  0.1684 -0.6704
    1SOL    MW4 5932   0.425   1.697   2.708 -0.1525  0.6324 -0.0229
    1SOL     OW 5933   0.452   1.946   2.605  0.3804 -0.6259  0.1810
    1SOL    HW2 5934   0.533   1.991   2.632  0.4059 -0.8669  0.5044
    1SOL    HW3 5935   0.449   1.958   2.510  0.1615  0.4384  0.3134
    1SOL    MW4 5936   0.463   1.954   2.596  0.3549 -0.5172  0.2410
    1SOL     OW 5937   0.698   2.067   2.701  0.1855 -0.0565 -0.2430
    1SOL    HW2 5938   0.688   2.064   2.796  1.6376  0.3124 -0.0675
    1SOL    HW3 5939   0.772   2.009   2.683  0.9550  1.1501 -0.9943
    1SOL    MW4 5940   0.706   2.059   2.711  0.4786  0.1514 -0.3192
    1SOL     OW 5941   0.665   2.312   2.556  0.0498  0.3169  0.2335
    1SOL    HW2 5942   0.729   2.352   2.614  0.1479 -0.3941  0.6245
    1SOL    HW3 5943   0.660   2.221   2.585 -1.1137  0.3554  0.1890
    1SOL    MW4 5944   0.673   2.305   2.568 -0.0908  0.2279  0.2792
    1SOL     OW 5945   0.445   2.422   2.733  0.3190 -0.7546 -0.2582
    1SOL    HW2 5946   0.439   2.516   2.721 -0.3794 -0.6387  0.9486
    1SOL    HW3 5947   0.485   2.390   2.652  0.1108  0.5144 -0.8675
    1SOL    MW4 5948   0.450   2.430   2.721  0.1993 -0.5717 -0.1793
    1SOL     OW 5949   0.445   2.671   2.635  0.1058  0.0709  0.2052
    1SOL    HW2 5950   0.531   2.695   2.669 -0.1576 -0.9588  1.6024
    1SOL    HW3 5951   0.383   2.716   2.692 -0.2994  0.7217 -0.7303
    1SOL    MW4 5952   0.448   2.680   2.647  0.0176  0.0207  0.2661
    1SOL     OW 5953   0.683   2.791   2.736 -0.4455 -0.1299  0.0314
    1SOL    HW2 5954   0.672   2.821   2.827  1.3429 -0.3395  0.3333
    1SOL    HW3 5955   0.706   2.870   2.688  0.2840 -0.2971  0.0905
    1SOL    MW4 5956   0.685   2.806   2.742 -0.1132 -0.1798  0.0787
    1SOL     OW 5957   0.720   3.050   2.642  0.1350 -0.1424  0.1013
    1SOL    HW2 5958   0.798   3.087   2.683  1.9796 -1.9358 -1.7033
    1SOL    HW3 5959   0.731   3.068   2.548 -2.1313  0.4781 -0.0869
    1SOL    MW4 5960   0.732   3.057   2.635  0.0794 -0.2968 -0.1616
    1SOL     OW 5961   0.509   3.221   2.739  0.3410  0.7555 -0.3259
    1SOL    HW2 5962   0.494   3.225   2.834  0.7802  1.1175 -0.2683
    1SOL    HW3 5963   0.579   3.157   2.729  0.7068  1.1566 -0.3538
    1SOL    MW4 5964   0.516   3.213   2.750  0.4472  0.8559 -0.3219
    1SOL     OW 5965   0.425   3.486   2.641 -0.3122  0.2446 -0.0611
    1SOL    HW2 5966   0.449   3.403   2.682  0.1213  0.4016  0.0016
    1SOL    HW3 5967   0.434   3.470   2.547 -0.5936  0.1076 -0.0651
    1SOL    MW4 5968   0.429   3.473   2.634 -0.2921  0.2472 -0.0532
    1SOL     OW 5969   0.677   3.604   2.722  0.0376  0.0325  0.5303
    1SOL    HW2 5970   0.679   3.604   2.818 -0.1504  0.7006  0.5354
    1SOL    HW3 5971   0.591   3.568   2.700 -0.0461  0.1792  0.6179
    1SOL    MW4 5972   0.666   3.599   2.732  0.0017  0.1402  0.5426
    1SOL     OW 5973   0.667   3.871   2.618  0.3526 -0.3208  0.2656
    1SOL    HW2 5974   0.581   3.899   2.648  0.2093  0.2623 -0.6669
    1SOL    HW3 5975   0.682   3.788   2.662 -1.4489 -1.2989 -0.9192
    1SOL    MW4 5976   0.658   3.864   2.628  0.0960 -0.3729 -0.0138
    1SOL     OW 5977   0.442   4.000   2.709  0.3321  0.1967 -0.1717
    1SOL    HW2 5978   0.444   4.086   2.667  2.4222 -0.0233 -0.5566
    1SOL    HW3 5979   0.356   3.965   2.687 -0.1905  1.8041 -0.7709
    1SOL    MW4 5980   0.431   4.007   2.701  0.5389  0.3791 -0.3014
    1SOL     OW 5981   0.458   4.280   2.633  0.3353 -0.2492 -0.1030
    1SOL    HW2 5982   0.530   4.337   2.660 -1.9193  2.6676  0.0518
    1SOL    HW3 5983   0.448   4.297   2.539 -1.0210  0.4488  0.1529
    1SOL    MW4 5984   0.466   4.290   2.624 -0.1411  0.2279 -0.0486
    1SOL     OW 5985   0.674   4.422   2.730  0.1151  0.1044 -0.0695
    1SOL    HW2 5986   0.751   4.377   2.695  0.3456 -0.4963  1.1948
    1SOL    HW3 5987   0.672   4.506   2.683  0.2445 -0.8077 -1.7148
    1SOL    MW4 5988   0.684   4.427   2.719  0.1626 -0.0954 -0.1197
    1SOL     OW 5989   1.119   4.624   2.597 -0.0295 -0.1390  0.1564
    1SOL    HW2 5990   1.180   4.674   2.651  1.0765 -0.5316 -0.7306
    1SOL    HW3 5991   1.126   4.534   2.629 -2.4973  0.3324  2.1917
    1SOL    MW4 5992   1.128   4.619   2.608 -0.2091 -0.1283  0.3076
    1SOL     OW 5993   0.912   0.099   2.707  0.3403 -0.1564 -0.4654
    1SOL    HW2 5994   0.922   0.108   2.802  1.6436  2.2945 -0.7777
    1SOL    HW3 5995   0.982   0.039   2.681  1.1209  0.5666 -0.0640
    1SOL    MW4 5996   0.923   0.092   2.716  0.6154  0.2624 -0.4537
    1SOL     OW 5997   0.895   0.364   2.612  0.3458 -0.3664  0.4161
    1SOL    HW2 5998   0.893   0.268   2.619 -0.1351 -0.3221  0.8235
    1SOL    HW3 5999   0.865   0.382   2.523 -0.4653 -0.5441  0.6581
    1SOL    MW4 6000   0.891   0.354   2.601  0.1754 -0.3840  0.5019
    1SOL     OW 6001   1.121   0.470   2.702 -0.5371 -0.2754  0.0062
    1SOL    HW2 6002   1.112   0.564   2.685  0.6994 -0.2707 -0.6729
    1SOL    HW3 6003   1.039   0.432   2.670 -0.9163  0.5347  0.0035
    1SOL    MW4 6004   1.109   0.478   2.695 -0.4241 -0.1678 -0.0834
    1SOL     OW 6005   1.054   0.743   2.622 -0.2391  0.1595  0.4107
    1SOL    HW2 6006   1.129   0.796   2.648 -0.1933 -0.3047  1.2721
    1SOL    HW3 6007   1.057   0.741   2.527 -0.0951  1.4834  0.3795
    1SOL    MW4 6008   1.064   0.750   2.613 -0.2142  0.2730  0.5202
    1SOL     OW 6009   0.842   0.901   2.774  0.1247 -0.2078 -0.1324
    1SOL    HW2 6010   0.854   0.917   2.868  0.0917  0.2306 -0.2011
    1SOL    HW3 6011   0.920   0.852   2.748  0.0726 -0.4382  0.1531
    1SOL    MW4 6012   0.854   0.897   2.783  0.1134 -0.1804 -0.1040
    1SOL     OW 6013   0.857   1.133   2.626 -0.0980 -0.0615  0.2417
    1SOL    HW2 6014   0.881   1.050   2.669  0.9998  0.9097  1.5223
    1SOL    HW3 6015   0.872   1.116   2.533  1.7908 -0.7675  0.6400
    1SOL    MW4 6016   0.862   1.120   2.619  0.2961 -0.0265  0.4632
    1SOL     OW 6017   1.073   1.274   2.743  0.1587 -0.1849 -0.4598
    1SOL    HW2 6018   1.070   1.362   2.705  1.6178  0.4933  0.9230
    1SOL    HW3 6019   1.005   1.225   2.697 -1.2513  1.9036 -0.6480
    1SOL    MW4 6020   1.064   1.279   2.732  0.1652  0.1802 -0.3023
    1SOL     OW 6021   1.095   1.530   2.631  0.4225  0.2733 -0.3126
    1SOL    HW2 6022   1.017   1.582   2.652  0.0783 -0.6879  0.8416
    1SOL    HW3 6023   1.104   1.538   2.536 -1.2826  0.1082 -0.4970
    1SOL    MW4 6024   1.086   1.538   2.621  0.1521  0.1247 -0.1848
    1SOL     OW 6025   0.881   1.654   2.717 -0.4623  0.0115  0.1475
    1SOL    HW2 6026   0.879   1.662   2.813 -0.9339 -0.7724  0.2037
    1SOL    HW3 6027   0.799   1.610   2.695 -0.5100  0.4938 -0.6528
    1SOL    MW4 6028   0.870   1.649   2.727 -0.5308 -0.0283  0.0491
    1SOL     OW 6029   0.901   1.907   2.598 -0.1070 -0.2310  0.0861
    1SOL    HW2 6030   0.987   1.941   2.622  0.6423 -1.1791 -1.1594
    1SOL    HW3 6031   0.903   1.816   2.628 -0.2588 -0.5668 -0.9082
    1SOL    MW4 6032   0.913   1.899   2.605 -0.0282 -0.4004 -0.2093
    1SOL     OW 6033   1.126   2.035   2.722 -0.0449  0.3121  0.0564
    1SOL    HW2 6034   1.210   2.003   2.691  0.0318  0.0342  0.5360
    1SOL    HW3 6035   1.116   2.121   2.682  0.9236  0.7743  0.8069
    1SOL    MW4 6036   1.136   2.042   2.713  0.0930  0.3364  0.2191
    1SOL     OW 6037   1.102   2.299   2.617 -0.4346  0.4371  0.1298
    1SOL    HW2 6038   1.156   2.365   2.661 -1.0876  1.3759 -0.4474
    1SOL    HW3 6039   1.117   2.315   2.524 -0.4338 -0.3727 -0.0067
    1SOL    MW4 6040   1.111   2.310   2.610 -0.5207  0.4542  0.0358
    1SOL     OW 6041   0.879   2.414   2.721 -0.2687  0.1411  0.5057
    1SOL    HW2 6042   0.883   2.503   2.686 -1.0618  0.7196  1.8555
    1SOL    HW3 6043   0.959   2.372   2.690 -0.0947  1.1897 -0.4917
    1SOL    MW4 6044   0.890   2.420   2.712 -0.3504  0.3557  0.5522
    1SOL     OW 6045   0.895   2.672   2.604 -0.1988 -0.1418 -0.1603
    1SOL    HW2 6046   0.962   2.735   2.633 -0.5763  0.6570 -0.9904
    1SOL    HW3 6047   0.813   2.707   2.640 -0.0987 -1.4359  1.3513
    1SOL    MW4 6048   0.893   2.685   2.613 -0.2354 -0.2072 -0.0701
    1SOL     OW 6049   1.083   2.832   2.691  0.0000  0.0000 -0.1977
    1SOL    HW2 6050   1.106   2.825   2.784  0.0000  0.0000 -0.1953
    1SOL    HW3 6051   1.159   2.795   2.645  0.0000  0.0000 -0.1891
    1SOL    MW4 6052   1.096   2.826   2.697  0.0000  0.0000 -0.1962
    1SOL     OW 6053   1.148   3.096   2.642  0.0000  0.0000  0.2289
    1SOL    HW2 6054   1.122   3.007   2.665  0.0000  0.0000  0.2370
    1SOL    HW3 6055   1.136   3.101   2.547  0.0000  0.0000  0.2291
    1SOL    MW4 6056   1.143   3.085   2.633  0.0000  0.0000  0.2301
    1SOL     OW 6057   0.919   3.208   2.752  0.0000  0.0000 -0.2349
    1SOL    HW2 6058   0.903   3.287   2.700  0.0000  0.0000 -0.2321
    1SOL    HW3 6059   1.006   3.179   2.724  0.0000  0.0000 -0.2249
    1SOL    MW4 6060   0.928   3.215   2.741  0.0000  0.0000 -0.2332
    1SOL     OW 6061   0.887   3.462   2.633  0.0000  0.0000  0.1442
    1SOL    HW2 6062   0.961   3.508   2.674  0.0000  0.0000  0.1521
    1SOL    HW3 6063   0.810   3.511   2.663  0.0000  0.0000  0.1320
    1SOL    MW4 6064   0.887   3.475   2.642  0.0000  0.0000  0.1435
    1SOL     OW 6065   1.102   3.599   2.719  0.0000  0.0000 -0.2566
    1SOL    HW2 6066   1.101   3.626   2.810  0.0000  0.0000 -0.2580
    1SOL    HW3 6067   1.100   3.681   2.670  0.0000  0.0000 -0.2605
    1SOL    MW4 6068   1.102   3.613   2.724  0.0000  0.0000 -0.2573
    1SOL     OW 6069   1.098   3.851   2.594  0.0000  0.0000 -0.1904
    1SOL    HW2 6070   1.178   3.889   2.631  0.0000  0.0000 -0.1895
    1SOL    HW3 6071   1.110   3.859   2.499  0.0000  0.0000 -0.1903
    1SOL    MW4 6072   1.110   3.857   2.586  0.0000  0.0000 -0.1903
    1SOL     OW 6073   0.893   4.008   2.729  0.0000  0.0000  0.1139
    1SOL    HW2 6074   0.957   3.963   2.674  0.0000  0.0000  0.1107
    1SOL    HW3 6075   0.809   3.969   2.702  0.0000  0.0000  0.1220
    1SOL    MW4 6076   0.890   3.997   2.718  0.0000  0.0000  0.1147
    1SOL     OW 6077   0.888   4.266   2.657  0.0000  0.0000 -0.5167
    1SOL    HW2 6078   0.892   4.173   2.682  0.0000  0.0000 -0.5125
    1SOL    HW3 6079   0.884   4.265   2.562  0.0000  0.0000 -0.5167
    1SOL    MW4 6080   0.888   4.254   2.648  0.0000  0.0000 -0.5162
    1SOL     OW 6081   1.144   4.351   2.712  0.0000  0.0000  0.4586
    1SOL    HW2 6082   1.137   4.378   2.803  0.0000  0.0000  0.4580
    1SOL    HW3 6083   1.055   4.327   2.687  0.0000  0.0000  0.4444
    1SOL    MW4 6084   1.131   4.351   2.721  0.0000  0.0000  0.4566
    1SOL     OW 6085   1.562   4.637   2.618 -0.5558  0.4248  0.5459
    1SOL    HW2 6086   1.590   4.551   2.651 -0.2824  0.7281  1.1071
    1SOL    HW3 6087   1.567   4.628   2.523  0.8019  0.2478  0.6222
    1SOL    MW4 6088   1.567   4.624   2.610 -0.3406  0.4416  0.6299
    1SOL     OW 6089   1.336   0.084   2.727 -0.0459 -0.3365 -0.2499
    1SOL    HW2 6090   1.336   0.171   2.686  0.3182 -0.0785  0.2875
    1SOL    HW3 6091   1.410   0.038   2.687  0.6344  0.0992  0.4984
    1SOL    MW4 6092   1.346   0.090   2.716  0.0919 -0.2449 -0.0803
    1SOL     OW 6093   1.328   0.333   2.615  0.5586 -0.1230 -0.0166
    1SOL    HW2 6094   1.390   0.398   2.649  0.8817 -1.0783  1.2937
    1SOL    HW3 6095   1.242   0.369   2.635  0.7476 -0.8722  2.3219
    1SOL    MW4 6096   1.325   0.346   2.623  0.6262 -0.3479  0.4647
    1SOL     OW 6097   1.526   0.501   2.718 -0.5524 -0.0450 -0.2455
    1SOL    HW2 6098   1.612   0.464   2.696  0.6176  1.2323  2.0156
    1SOL    HW3 6099   1.534   0.594   2.695 -1.0143  0.2691  0.8583
    1SOL    MW4 6100   1.539   0.509   2.712 -0.4590  0.1649  0.1986
    1SOL     OW 6101   1.527   0.774   2.624  0.4493  0.3294 -0.3117
    1SOL    HW2 6102   1.436   0.797   2.646  0.5865  1.3716 -0.7816
    1SOL    HW3 6103   1.527   0.769   2.528  0.9805  0.7175 -0.3314
    1SOL    MW4 6104   1.515   0.777   2.614  0.5375  0.5181 -0.3762
    1SOL     OW 6105   1.294   0.878   2.705 -0.3564 -0.2388 -0.0435
    1SOL    HW2 6106   1.322   0.878   2.796 -2.3187  0.4352  0.5965
    1SOL    HW3 6107   1.309   0.967   2.675 -1.5611  0.0850  0.2567
    1SOL    MW4 6108   1.299   0.890   2.713 -0.7743 -0.1072  0.0803
    1SOL     OW 6109   1.302   1.152   2.662  0.1457 -0.2539 -0.1722
    1SOL    HW2 6110   1.379   1.196   2.698 -0.7640  2.4425 -1.4005
    1SOL    HW3 6111   1.227   1.202   2.694 -1.0226 -1.7217 -0.5020
    1SOL    MW4 6112   1.302   1.164   2.671 -0.1284 -0.0918 -0.3777
    1SOL     OW 6113   1.516   1.277   2.782  0.0476 -0.2027 -0.3439
    1SOL    HW2 6114   1.515   1.277   2.877  0.5836 -0.5647 -0.3353
    1SOL    HW3 6115   1.598   1.234   2.759  0.2116  0.4297 -0.9635
    1SOL    MW4 6116   1.527   1.271   2.791  0.1401 -0.1671 -0.4244
    1SOL     OW 6117   1.543   1.530   2.647  0.0723 -0.0749 -0.2296
    1SOL    HW2 6118   1.541   1.447   2.695 -0.1843 -0.2802 -0.5914
    1SOL    HW3 6119   1.530   1.505   2.555  1.2110  0.2567 -0.4882
    1SOL    MW4 6120   1.541   1.515   2.641  0.1886 -0.0582 -0.3114
    1SOL     OW 6121   1.326   1.663   2.730 -0.4628  0.2790 -0.4606
    1SOL    HW2 6122   1.393   1.611   2.686 -0.3131  0.5392 -0.5375
    1SOL    HW3 6123   1.243   1.625   2.700 -0.3525  0.0288 -0.4485
    1SOL    MW4 6124   1.324   1.651   2.720 -0.4284  0.2804 -0.4690
    1SOL     OW 6125   1.355   1.918   2.649 -0.1387 -0.1147  0.0859
    1SOL    HW2 6126   1.333   1.830   2.682 -0.4777 -0.3297 -0.7055
    1SOL    HW3 6127   1.349   1.910   2.554  1.9491  0.2033 -0.0947
    1SOL    MW4 6128   1.351   1.905   2.641  0.0921 -0.1011 -0.0422
    1SOL     OW 6129   1.582   2.080   2.760  0.0219 -0.3685  0.1121
    1SOL    HW2 6130   1.652   2.054   2.700  0.0477  0.3830 -0.1896
    1SOL    HW3 6131   1.513   2.015   2.745  1.5133 -2.4790  2.0465
    1SOL    MW4 6132   1.582   2.068   2.750  0.2221 -0.5476  0.3273
    1SOL     OW 6133   1.501   2.323   2.595 -0.1640  0.0750  0.1610
    1SOL    HW2 6134   1.585   2.356   2.628 -0.0571 -0.6905  0.7031
    1SOL    HW3 6135   1.485   2.244   2.648  0.4165 -1.6770 -2.1840
    1SOL    MW4 6136   1.510   2.317   2.606 -0.0732 -0.2573 -0.0768
    1SOL     OW 6137   1.290   2.484   2.707 -0.2013 -0.1815  0.0656
    1SOL    HW2 6138   1.304   2.573   2.674 -1.0883 -0.0968 -0.1009
    1SOL    HW3 6139   1.365   2.434   2.674  0.0317  0.3873 -0.2762
    1SOL    MW4 6140   1.301   2.489   2.698 -0.2877 -0.0954 -0.0014
    1SOL     OW 6141   1.332   2.736   2.600  0.3738 -0.2232  0.1850
    1SOL    HW2 6142   1.414   2.764   2.642  0.0429  0.4930  0.3517
    1SOL    HW3 6143   1.356   2.724   2.508  0.8718 -0.8585  0.3916
    1SOL    MW4 6144   1.346   2.738   2.594  0.3960 -0.2122  0.2346
    1SOL     OW 6145   1.558   2.849   2.716 -0.0009  0.3448  0.3366
    1SOL    HW2 6146   1.558   2.855   2.811  1.8069  0.3929  0.3499
    1SOL    HW3 6147   1.644   2.813   2.694  0.2014  1.7892 -1.3621
    1SOL    MW4 6148   1.569   2.845   2.725  0.2644  0.5414  0.1142
    1SOL     OW 6149   1.579   3.075   2.567 -0.2254  0.1683  0.3542
    1SOL    HW2 6150   1.651   3.126   2.605  2.0343 -1.8897 -1.0155
    1SOL    HW3 6151   1.575   2.995   2.620 -1.7809  0.4276  0.6577
    1SOL    MW4 6152   1.588   3.071   2.579 -0.1323 -0.0689  0.2136
    1SOL     OW 6153   1.388   3.223   2.685 -0.3490 -0.0164  0.5653
    1SOL    HW2 6154   1.461   3.183   2.637  0.2115 -0.0238  1.4266
    1SOL    HW3 6155   1.313   3.167   2.665 -0.2544  0.3177 -0.7894
    1SOL    MW4 6156   1.388   3.210   2.676 -0.2623  0.0267  0.5000
    1SOL     OW 6157   1.331   3.509   2.611 -0.2213 -0.0763  0.1024
    1SOL    HW2 6158   1.331   3.416   2.636 -0.5757 -0.6097 -1.7904
    1SOL    HW3 6159   1.247   3.542   2.644  0.5212 -0.0446  2.0416
    1SOL    MW4 6160   1.320   3.501   2.619 -0.1700 -0.1423  0.1085
    1SOL     OW 6161   1.558   3.603   2.725 -0.6258 -0.4632 -0.0027
    1SOL    HW2 6162   1.617   3.535   2.693 -0.8623 -0.7586  0.1942
    1SOL    HW3 6163   1.474   3.584   2.683 -0.7129 -0.3370  0.1121
    1SOL    MW4 6164   1.555   3.592   2.715 -0.6683 -0.4854  0.0386
    1SOL     OW 6165   1.602   3.872   2.669 -0.1968 -0.3578  0.1543
    1SOL    HW2 6166   1.513   3.909   2.674  0.0111  0.4657 -1.9436
    1SOL    HW3 6167   1.589   3.778   2.679 -1.3669 -0.2915 -0.6583
    1SOL    MW4 6168   1.588   3.864   2.671 -0.3238 -0.2403 -0.2298
    1SOL     OW 6169   1.324   3.967   2.695 -0.5726  0.5045 -0.1397
    1SOL    HW2 6170   1.332   3.981   2.789 -1.2208  0.6854 -0.1067
    1SOL    HW3 6171   1.357   4.048   2.656  0.0066  0.2988 -0.0776
    1SOL    MW4 6172   1.329   3.979   2.702 -0.5817  0.5012 -0.1271
    1SOL     OW 6173   1.385   4.223   2.631 -0.2927  0.4584  0.5959
    1SOL    HW2 6174   1.299   4.254   2.660 -0.3926  0.9281 -0.1902
    1SOL    HW3 6175   1.391   4.251   2.540  0.6226  0.2661  0.5936
    1SOL    MW4 6176   1.374   4.231   2.623 -0.1851  0.4950  0.4916
    1SOL     OW 6177   1.606   4.388   2.727 -0.0000  0.3302 -0.0352
    1SOL    HW2 6178   1.611   4.384   2.823 -1.0756  0.8551  0.0492
    1SOL    HW3 6179   1.528   4.338   2.705  0.8242 -0.6828 -0.7242
    1SOL    MW4 6180   1.597   4.381   2.737 -0.0333  0.2661 -0.1147
    1SOL     OW 6181   1.981   4.657   2.621 -0.4605  0.3090  0.4160
    1SOL    HW2 6182   2.061   4.702   2.648 -0.3389 -0.4167  1.3058
    1SOL    HW3 6183   1.977   4.670   2.526  0.5110  0.6697  0.4142
    1SOL    MW4 6184   1.991   4.665   2.612 -0.3163  0.2608  0.5333
    1SOL     OW 6185   1.778   0.104   2.770 -0.0945  0.0901 -0.1643
    1SOL    HW2 6186   1.852   0.062   2.726  0.1339 -1.1702  1.3882
    1SOL    HW3 6187   1.702   0.074   2.721  0.2578 -0.2252 -0.5299
    1SOL    MW4 6188   1.778   0.095   2.758 -0.0180 -0.1178 -0.0076
    1SOL     OW 6189   1.774   0.378   2.672 -0.0582  0.0972 -0.3299
    1SOL    HW2 6190   1.848   0.422   2.714 -0.3267  1.4564 -1.2347
    1SOL    HW3 6191   1.769   0.292   2.715  2.2699 -0.1642 -0.4805
    1SOL    MW4 6192   1.783   0.372   2.683  0.2136  0.2420 -0.4692
    1SOL     OW 6193   2.032   0.501   2.756 -0.1044  0.2396  0.2652
    1SOL    HW2 6194   2.112   0.460   2.722 -0.5587 -1.2055  0.9060
    1SOL    HW3 6195   2.042   0.499   2.851 -0.3861  1.1331  0.3194
    1SOL    MW4 6196   2.044   0.495   2.764 -0.2015  0.1669  0.3569
    1SOL     OW 6197   1.993   0.769   2.637  0.2833 -0.6168 -0.0834
    1SOL    HW2 6198   1.980   0.694   2.694 -0.0597 -0.9449 -0.5971
    1SOL    HW3 6199   1.929   0.834   2.667 -1.3701 -1.5744 -1.4673
    1SOL    MW4 6200   1.983   0.768   2.648  0.0198 -0.7864 -0.3335
    1SOL     OW 6201   1.773   0.912   2.768 -0.0047 -0.1287  0.4795
    1SOL    HW2 6202   1.759   1.005   2.753  0.6546 -0.3059 -1.3304
    1SOL    HW3 6203   1.686   0.872   2.754 -0.1874  0.1521  0.8127
    1SOL    MW4 6204   1.759   0.919   2.765  0.0583 -0.1150  0.2847
    1SOL     OW 6205   1.762   1.194   2.687  0.1308 -0.2228 -0.1423
    1SOL    HW2 6206   1.839   1.247   2.708 -1.0356  1.0681  1.0349
    1SOL    HW3 6207   1.770   1.175   2.594  0.8336  1.6521 -0.4910
    1SOL    MW4 6208   1.773   1.199   2.677  0.0696  0.1949 -0.0331
    1SOL     OW 6209   1.998   1.326   2.750 -0.1286 -0.2045  0.4700
    1SOL    HW2 6210   2.009   1.313   2.844  1.9132  0.4186  0.3514
    1SOL    HW3 6211   2.067   1.271   2.711 -0.0094  0.6867 -0.5888
    1SOL    MW4 6212   2.009   1.317   2.757  0.1566 -0.0048  0.3145
    1SOL     OW 6213   2.004   1.573   2.618 -0.5863  0.2138  0.1101
    1SOL    HW2 6214   1.922   1.617   2.638 -0.6558  0.4678 -0.7103
    1SOL    HW3 6215   2.007   1.498   2.678 -0.6931  1.0535  1.1800
    1SOL    MW4 6216   1.994   1.569   2.628 -0.6095  0.3580  0.1431
    1SOL     OW 6217   1.776   1.683   2.699 -0.2523 -0.1849 -0.1468
    1SOL    HW2 6218   1.791   1.667   2.792 -2.6765  1.0112  0.4924
    1SOL    HW3 6219   1.693   1.640   2.680  0.0312 -0.0882 -1.6616
    1SOL    MW4 6220   1.767   1.675   2.709 -0.5347 -0.0144 -0.2625
    1SOL     OW 6221   1.789   1.947   2.612 -0.2484 -0.2980 -0.0323
    1SOL    HW2 6222   1.873   1.976   2.648 -0.4269  0.2488 -0.0604
    1SOL    HW3 6223   1.787   1.853   2.630  0.2557 -0.2666  0.1972
    1SOL    MW4 6224   1.800   1.938   2.619 -0.2054 -0.2216 -0.0057
    1SOL     OW 6225   2.005   2.088   2.733  0.0924 -0.3380  0.2392
    1SOL    HW2 6226   2.000   2.089   2.829 -0.6025 -1.2107  0.2185
    1SOL    HW3 6227   1.998   2.180   2.707 -1.7961 -0.2696  0.9244
    1SOL    MW4 6228   2.004   2.100   2.742 -0.2484 -0.4439  0.3271
    1SOL     OW 6229   1.991   2.360   2.611 -0.3447 -0.4411 -0.2505
    1SOL    HW2 6230   2.079   2.386   2.638 -0.2974  0.2924 -1.0759
    1SOL    HW3 6231   1.998   2.342   2.517 -0.9594 -0.8807 -0.2191
    1SOL    MW4 6232   2.003   2.361   2.602 -0.4199 -0.4022 -0.3555
    1SOL     OW 6233   1.737   2.442   2.695 -0.7194  0.0491  0.0840
    1SOL    HW2 6234   1.741   2.453   2.790 -1.9612  0.1509  0.1363
    1SOL    HW3 6235   1.824   2.411   2.670  0.0982  1.5013  1.0588
    1SOL    MW4 6236   1.749   2.440   2.704 -0.7752  0.2544  0.2193
    1SOL     OW 6237   1.775   2.709   2.618  0.2204  0.1120  0.0142
    1SOL    HW2 6238   1.753   2.620   2.643 -1.5572  0.5290  0.0453
    1SOL    HW3 6239   1.788   2.705   2.523  0.0402 -0.1683  0.0013
    1SOL    MW4 6240   1.774   2.697   2.609 -0.0379  0.1297  0.0167
    1SOL     OW 6241   2.004   2.855   2.713 -0.4148  0.4019  0.2636
    1SOL    HW2 6242   2.084   2.807   2.693 -0.2336  0.7866  0.0549
    1SOL    HW3 6243   1.935   2.807   2.667  0.0558  1.4966 -1.6486
    1SOL    MW4 6244   2.006   2.842   2.704 -0.3288  0.5970 -0.0160
    1SOL     OW 6245   2.050   3.119   2.615  0.2380  0.2138  0.0927
    1SOL    HW2 6246   2.049   3.026   2.639 -1.2014  0.0380 -0.6120
    1SOL    HW3 6247   2.048   3.120   2.520  1.1191  0.9752  0.0682
    1SOL    MW4 6248   2.050   3.107   2.606  0.1643  0.2913 -0.0033
    1SOL     OW 6249   1.804   3.212   2.691  0.5127  0.2161  0.2920
    1SOL    HW2 6250   1.799   3.304   2.664  1.2160 -0.0394 -0.7318
    1SOL    HW3 6251   1.893   3.184   2.667  0.6631 -0.4387  1.5589
    1SOL    MW4 6252   1.815   3.220   2.684  0.6255  0.0961  0.3245
    1SOL     OW 6253   1.780   3.481   2.598 -0.4263  0.0662  0.6142
    1SOL    HW2 6254   1.866   3.517   2.620  0.9905 -2.5730 -0.2707
    1SOL    HW3 6255   1.774   3.490   2.503 -0.4815 -1.0422  0.5023
    1SOL    MW4 6256   1.791   3.487   2.588 -0.2466 -0.4282  0.4828
    1SOL     OW 6257   2.041   3.558   2.694 -0.2332 -0.3618  0.3992
    1SOL    HW2 6258   2.032   3.558   2.789 -0.7173 -1.4984  0.3680
    1SOL    HW3 6259   2.130   3.525   2.679 -0.3131 -0.6081  0.4551
    1SOL    MW4 6260   2.052   3.554   2.705 -0.3078 -0.5443  0.4025
    1SOL     OW 6261   2.074   3.841   2.653 -0.2699 -0.1056  0.0333
    1SOL    HW2 6262   1.990   3.872   2.688  0.3993 -0.0521  1.6265
    1SOL    HW3 6263   2.076   3.748   2.677  0.2843 -0.0208  0.3117
    1SOL    MW4 6264   2.063   3.833   2.661 -0.1087 -0.0875  0.2804
    1SOL     OW 6265   1.855   3.956   2.772 -0.4853  0.9207 -0.2305
    1SOL    HW2 6266   1.874   4.042   2.733 -1.2500  1.7140  1.1096
    1SOL    HW3 6267   1.770   3.932   2.735 -0.3678  0.8393 -0.4475
    1SOL    MW4 6268   1.846   3.964   2.762 -0.5707  1.0147 -0.0823
    1SOL     OW 6269   1.816   4.224   2.645 -0.3484  0.0589 -0.4063
    1SOL    HW2 6270   1.737   4.266   2.680 -1.3832 -1.3764 -0.9545
    1SOL    HW3 6271   1.815   4.246   2.551 -0.8680 -1.1034 -0.6871
    1SOL    MW4 6272   1.805   4.232   2.637 -0.5534 -0.2842 -0.5159
    1SOL     OW 6273   2.016   4.384   2.746  0.3365 -0.2801  0.2442
    1SOL    HW2 6274   1.942   4.332   2.716  2.4717 -1.5847 -3.0575
    1SOL    HW3 6275   2.007   4.468   2.700  0.8378 -0.4364 -0.1562
    1SOL    MW4 6276   2.005   4.389   2.736  0.6840 -0.4735 -0.2441
    1SOL     OW 6277   2.466   4.645   2.633  0.1496  0.3156 -0.0477
    1SOL    HW2 6278   2.538   4.695   2.671  1.2178 -1.2459  0.0432
    1SOL    HW3 6279   2.484   4.643   2.539  0.6885 -0.7867  0.0740
    1SOL    MW4 6280   2.478   4.651   2.626  0.3617 -0.0353 -0.0198
    1SOL     OW 6281   2.224   0.087   2.735 -0.0606 -0.5862  0.0165
    1SOL    HW2 6282   2.299   0.040   2.698  0.1244  1.4082 -2.2530
    1SOL    HW3 6283   2.237   0.082   2.830  2.5378 -0.9368 -0.3204
    1SOL    MW4 6284   2.235   0.080   2.743  0.3066 -0.3693 -0.3276
    1SOL     OW 6285   2.244   0.363   2.668  0.0213  0.0130 -0.0883
    1SOL    HW2 6286   2.234   0.359   2.573  2.8599  0.0589 -0.4395
    1SOL    HW3 6287   2.233   0.273   2.698 -1.2525  0.0573 -0.3974
    1SOL    MW4 6288   2.242   0.351   2.660  0.2277  0.0249 -0.1752
    1SOL     OW 6289   2.459   0.502   2.757 -0.3184  0.4249 -0.1323
    1SOL    HW2 6290   2.436   0.595   2.753 -0.8209  0.2785 -0.6726
    1SOL    HW3 6291   2.381   0.456   2.724 -0.3439 -0.2253  0.8165
    1SOL    MW4 6292   2.446   0.508   2.752 -0.3881  0.3198 -0.0784
    1SOL     OW 6293   2.432   0.760   2.707  0.1304 -0.2609  0.0865
    1SOL    HW2 6294   2.351   0.804   2.731 -0.3370 -1.2871  0.4207
    1SOL    HW3 6295   2.422   0.739   2.615  0.6535  0.9545 -0.2593
    1SOL    MW4 6296   2.420   0.763   2.698  0.1378 -0.2359  0.0851
    1SOL     OW 6297   2.206   0.916   2.728 -0.2398  0.1902 -0.6228
    1SOL    HW2 6298   2.207   0.909   2.824  0.7196  0.2054 -0.6301
    1SOL    HW3 6299   2.123   0.877   2.703 -0.0897 -0.6614  0.1606
    1SOL    MW4 6300   2.195   0.910   2.738 -0.0935  0.0799 -0.5205
    1SOL     OW 6301   2.227   1.190   2.662 -0.0539  0.0659  0.1915
    1SOL    HW2 6302   2.242   1.096   2.675 -0.3592  0.2316  1.7858
    1SOL    HW3 6303   2.306   1.232   2.696 -0.0092  0.4051 -0.3229
    1SOL    MW4 6304   2.239   1.183   2.668 -0.0882  0.1324  0.3338
    1SOL     OW 6305   2.465   1.314   2.773  0.4154  0.0182  0.0164
    1SOL    HW2 6306   2.452   1.401   2.736 -0.1494 -0.3978 -0.7832
    1SOL    HW3 6307   2.533   1.275   2.719 -0.8418 -0.8160 -0.9811
    1SOL    MW4 6308   2.472   1.320   2.761  0.1750 -0.1469 -0.2208
    1SOL     OW 6309   2.438   1.558   2.654  0.1113  0.0931 -0.3373
    1SOL    HW2 6310   2.365   1.614   2.679 -0.3693 -0.1005 -1.3109
    1SOL    HW3 6311   2.515   1.605   2.685 -0.4055  0.4146  0.4743
    1SOL    MW4 6312   2.439   1.572   2.661 -0.0203  0.1100 -0.3586
    1SOL     OW 6313   2.225   1.707   2.749  0.3866  0.0385 -0.1571
    1SOL    HW2 6314   2.213   1.789   2.702  0.9599 -0.4003 -1.0755
    1SOL    HW3 6315   2.152   1.652   2.720  1.2402 -0.5476 -1.2398
    1SOL    MW4 6316   2.213   1.711   2.739  0.5751 -0.0968 -0.4210
    1SOL     OW 6317   2.227   1.950   2.627 -0.4678 -0.2994 -0.3400
    1SOL    HW2 6318   2.158   2.006   2.664 -0.0023 -0.4229  0.7133
    1SOL    HW3 6319   2.208   1.949   2.533 -0.0416  2.2643 -0.5085
    1SOL    MW4 6320   2.215   1.958   2.620 -0.3502  0.0228 -0.2232
    1SOL     OW 6321   2.475   2.056   2.705  0.0840  0.0559  0.1550
    1SOL    HW2 6322   2.472   2.150   2.686  0.9721  0.4748  1.9806
    1SOL    HW3 6323   2.392   2.023   2.670  0.4601  1.2196 -1.9429
    1SOL    MW4 6324   2.464   2.064   2.698  0.2511  0.2649  0.1192
    1SOL     OW 6325   2.479   2.310   2.643  0.1360  0.2751 -0.0970
    1SOL    HW2 6326   2.556   2.359   2.671  0.1747 -0.2437  0.7196
    1SOL    HW3 6327   2.486   2.307   2.548  1.2196  0.0732 -0.0205
    1SOL    MW4 6328   2.490   2.316   2.634  0.2844  0.1798  0.0210
    1SOL     OW 6329   2.240   2.454   2.719  0.4489 -0.2632  0.1748
    1SOL    HW2 6330   2.252   2.455   2.814 -0.0327  0.9327  0.2312
    1SOL    HW3 6331   2.314   2.404   2.686  0.2054 -1.3558  1.2382
    1SOL    MW4 6332   2.251   2.448   2.727  0.3531 -0.2494  0.3223
    1SOL     OW 6333   2.251   2.737   2.659 -0.1498  0.3953  0.2158
    1SOL    HW2 6334   2.333   2.772   2.692  0.8065 -1.0377 -0.5781
    1SOL    HW3 6335   2.257   2.642   2.673 -1.7542  0.2913  0.3504
    1SOL    MW4 6336   2.263   2.729   2.665 -0.2348  0.1924  0.1290
    1SOL     OW 6337   2.471   2.875   2.755 -0.1815  0.2236  0.3807
    1SOL    HW2 6338   2.544   2.834   2.709 -1.1620 -1.0807 -0.0174
    1SOL    HW3 6339   2.469   2.965   2.721  0.2043 -0.2140 -0.8238
    1SOL    MW4 6340   2.480   2.882   2.744 -0.2599 -0.0062  0.1693
    1SOL     OW 6341   2.498   3.123   2.629 -0.3777  0.2767  0.1560
    1SOL    HW2 6342   2.430   3.186   2.651 -0.2020  0.5902 -0.2021
    1SOL    HW3 6343   2.473   3.090   2.543 -0.8578 -0.6722  0.6525
    1SOL    MW4 6344   2.486   3.127   2.620 -0.4179  0.1929  0.1743
    1SOL     OW 6345   2.273   3.250   2.712 -0.9102  0.2637  0.5897
    1SOL    HW2 6346   2.278   3.239   2.807 -0.0116 -1.8081  0.3140
    1SOL    HW3 6347   2.192   3.205   2.686  0.6046 -2.1905 -0.0189
    1SOL    MW4 6348   2.263   3.243   2.721 -0.5920 -0.3335  0.4730
    1SOL     OW 6349   2.295   3.514   2.608 -0.1702 -0.3652  0.4410
    1SOL    HW2 6350   2.368   3.560   2.649  0.6354 -0.0519 -1.3145
    1SOL    HW3 6351   2.292   3.430   2.654  1.9679 -0.8079 -0.1719
    1SOL    MW4 6352   2.304   3.509   2.620  0.2182 -0.3824  0.1287
    1SOL     OW 6353   2.522   3.627   2.733  0.1483  0.2092 -0.6221
    1SOL    HW2 6354   2.523   3.624   2.828  0.6483  0.9000 -0.6033
    1SOL    HW3 6355   2.539   3.719   2.712 -1.9866  0.4727 -1.3359
    1SOL    MW4 6356   2.524   3.639   2.743 -0.0672  0.3350 -0.7138
    1SOL     OW 6357   2.525   3.886   2.644 -0.5856 -0.1115  0.1545
    1SOL    HW2 6358   2.588   3.921   2.706  0.4451  1.3155 -1.6244
    1SOL    HW3 6359   2.441   3.927   2.668  0.2131  2.0713 -0.6600
    1SOL    MW4 6360   2.522   3.896   2.655 -0.3440  0.3648 -0.1876
    1SOL     OW 6361   2.279   4.001   2.751 -0.2310  0.1814  0.0980
    1SOL    HW2 6362   2.277   4.005   2.847  0.6383 -1.8676  0.2252
    1SOL    HW3 6363   2.215   3.933   2.729 -0.2306  0.4593 -0.7660
    1SOL    MW4 6364   2.270   3.993   2.761 -0.1161 -0.0525  0.0005
    1SOL     OW 6365   2.249   4.261   2.663 -0.2636  0.0224  0.1636
    1SOL    HW2 6366   2.243   4.167   2.677  0.1747  0.0031  0.2272
    1SOL    HW3 6367   2.171   4.297   2.705 -1.0453 -0.4166 -0.8837
    1SOL    MW4 6368   2.238   4.253   2.670 -0.3090 -0.0381  0.0336
    1SOL     OW 6369   2.502   4.351   2.666 -0.4662 -0.3256 -0.2458
    1SOL    HW2 6370   2.409   4.333   2.680 -0.5639  0.3492 -0.0005
    1SOL    HW3 6371   2.504   4.438   2.626 -0.0200 -0.9983 -1.7108
    1SOL    MW4 6372   2.490   4.360   2.663 -0.4201 -0.3257 -0.4070
    1SOL     OW 6373   2.888   0.019   2.660  0.0855  0.2724 -0.5549
    1SOL    HW2 6374   2.974   0.053   2.683  0.6827 -1.1381 -0.6599
    1SOL    HW3 6375   2.897  -0.009   2.569  0.1827 -1.9285  0.1041
    1SOL    MW4 6376   2.900   0.020   2.651  0.1774 -0.2041 -0.4818
    1SOL     OW 6377   2.655   0.133   2.744  0.4432  0.3126 -0.1515
    1SOL    HW2 6378   2.661   0.130   2.839  0.9644  0.2112 -0.1884
    1SOL    HW3 6379   2.744   0.117   2.713  0.3804  0.8984 -0.6460
    1SOL    MW4 6380   2.667   0.130   2.752  0.5038  0.3765 -0.2215
    1SOL     OW 6381   2.639   0.361   2.600 -0.0403 -0.1595  0.3268
    1SOL    HW2 6382   2.642   0.277   2.645 -1.2657 -0.1876  0.3896
    1SOL    HW3 6383   2.573   0.411   2.648  0.6829  0.8387  0.2896
    1SOL    MW4 6384   2.630   0.357   2.612 -0.1066 -0.0315  0.3302
    1SOL     OW 6385   2.856   0.481   2.715  0.0452 -0.1421 -0.1755
    1SOL    HW2 6386   2.847   0.574   2.694  0.7037 -0.2528 -0.9839
    1SOL    HW3 6387   2.784   0.439   2.669 -0.4645  0.0091  0.4818
    1SOL    MW4 6388   2.846   0.488   2.706  0.0651 -0.1368 -0.1953
    1SOL     OW 6389   2.868   0.749   2.649  0.3200 -0.7567 -0.0034
    1SOL    HW2 6390   2.949   0.791   2.676 -0.3878  0.5226  0.1827
    1SOL    HW3 6391   2.799   0.812   2.674 -0.7350 -1.9107  0.0376
    1SOL    MW4 6392   2.869   0.763   2.656  0.0875 -0.7401  0.0267
    1SOL     OW 6393   2.674   0.921   2.738  0.5060  0.5993  0.0614
    1SOL    HW2 6394   2.694   0.925   2.831  2.0359  1.7941 -0.3024
    1SOL    HW3 6395   2.584   0.890   2.734  0.5455  0.2009  1.9206
    1SOL    MW4 6396   2.665   0.917   2.750  0.7131  0.7043  0.2587
    1SOL     OW 6397   2.673   1.183   2.643 -0.3819 -0.2632 -0.1315
    1SOL    HW2 6398   2.759   1.221   2.658 -0.3925  0.0121 -0.7865
    1SOL    HW3 6399   2.680   1.094   2.677  0.4380 -0.5488 -1.0350
    1SOL    MW4 6400   2.685   1.176   2.650 -0.2751 -0.2646 -0.3371
    1SOL     OW 6401   2.909   1.289   2.743  0.2406  0.3086 -0.1086
    1SOL    HW2 6402   2.907   1.289   2.839  0.7657  0.1117 -0.0992
    1SOL    HW3 6403   2.991   1.246   2.721  0.4030  0.8924 -0.6404
    1SOL    MW4 6404   2.919   1.284   2.753  0.3312  0.3598 -0.1776
    1SOL     OW 6405   2.881   1.522   2.607  0.5937 -0.4973 -0.2381
    1SOL    HW2 6406   2.817   1.566   2.663  0.3711 -0.5057 -0.4830
    1SOL    HW3 6407   2.889   1.434   2.646 -0.5763 -0.9627 -0.9931
    1SOL    MW4 6408   2.873   1.516   2.619  0.4098 -0.5597 -0.3698
    1SOL     OW 6409   2.672   1.676   2.743 -0.2116  0.0948 -0.6309
    1SOL    HW2 6410   2.684   1.686   2.837  0.8027  0.6051 -0.8025
    1SOL    HW3 6411   2.667   1.766   2.710 -0.0740 -0.0781 -1.1221
    1SOL    MW4 6412   2.673   1.689   2.751 -0.0596  0.1392 -0.7184
    1SOL     OW 6413   2.695   1.917   2.611 -0.1021  0.3031  0.0316
    1SOL    HW2 6414   2.774   1.962   2.639  0.5194 -0.0800 -1.0702
    1SOL    HW3 6415   2.624   1.978   2.628  0.5619  1.0843 -0.0064
    1SOL    MW4 6416   2.696   1.931   2.617  0.0675  0.3555 -0.1190
    1SOL     OW 6417   2.891   2.061   2.725 -0.2290  0.1706  0.2189
    1SOL    HW2 6418   2.968   2.011   2.697  0.2589  0.6399  0.7121
    1SOL    HW3 6419   2.896   2.142   2.673  0.7530  1.1059  1.7345
    1SOL    MW4 6420   2.902   2.065   2.714 -0.0353  0.3560  0.4838
    1SOL     OW 6421   2.906   2.305   2.600  0.0731 -0.1772  0.1258
    1SOL    HW2 6422   2.980   2.341   2.649 -0.2323 -1.9318  1.9144
    1SOL    HW3 6423   2.829   2.350   2.636 -0.1552 -1.4941  1.3294
    1SOL    MW4 6424   2.905   2.316   2.611  0.0026 -0.5825  0.5205
    1SOL     OW 6425   2.710   2.456   2.707 -0.1774 -0.5211  0.2083
    1SOL    HW2 6426   2.733   2.449   2.800 -1.1611 -1.4122  0.3995
    1SOL    HW3 6427   2.709   2.550   2.689  1.0770 -0.3853  0.8247
    1SOL    MW4 6428   2.713   2.467   2.717 -0.1416 -0.6208  0.3147
    1SOL     OW 6429   2.682   2.720   2.628 -0.2033 -0.2864 -0.2750
    1SOL    HW2 6430   2.757   2.773   2.655 -0.0058 -0.3007 -0.7896
    1SOL    HW3 6431   2.675   2.734   2.534 -0.8096 -0.3390 -0.2410
    1SOL    MW4 6432   2.691   2.728   2.619 -0.2573 -0.2952 -0.3383
    1SOL     OW 6433   2.910   2.854   2.728  0.4806 -0.0058  0.2288
    1SOL    HW2 6434   2.992   2.819   2.692 -0.7857 -1.7974 -1.0168
    1SOL    HW3 6435   2.915   2.838   2.822  1.7356  0.2838  0.2145
    1SOL    MW4 6436   2.921   2.847   2.735  0.4795 -0.2038  0.0625
    1SOL     OW 6437   2.914   3.128   2.626 -0.0989  0.0739 -0.1189
    1SOL    HW2 6438   2.863   3.190   2.677 -0.7443  0.0101 -0.6854
    1SOL    HW3 6439   2.895   3.043   2.666  0.6296  0.2153  0.5303
    1SOL    MW4 6440   2.905   3.125   2.638 -0.0880  0.0839 -0.1082
    1SOL     OW 6441   2.718   3.254   2.773 -0.3080 -0.2112  0.4381
    1SOL    HW2 6442   2.719   3.341   2.734 -0.4953 -0.8059 -0.9421
    1SOL    HW3 6443   2.647   3.208   2.727  0.0277 -1.1993  0.8826
    1SOL    MW4 6444   2.709   3.259   2.762 -0.2882 -0.4201  0.3145
    1SOL     OW 6445   2.737   3.481   2.622  0.1713  0.0713  0.1046
    1SOL    HW2 6446   2.665   3.538   2.650 -1.4306 -1.5845 -0.5106
    1SOL    HW3 6447   2.723   3.469   2.529  1.7424  0.3838 -0.1776
    1SOL    MW4 6448   2.725   3.487   2.614  0.1671 -0.1061 -0.0136
    1SOL     OW 6449   2.941   3.628   2.755  0.1347  0.3458 -0.3723
    1SOL    HW2 6450   2.933   3.619   2.850 -0.0311  2.2408 -0.1888
    1SOL    HW3 6451   2.860   3.591   2.720  0.3440 -0.6813  0.1762
    1SOL    MW4 6452   2.930   3.622   2.763  0.1404  0.4604 -0.2756
    1SOL     OW 6453   2.982   3.884   2.652 -0.6266  0.2043 -0.5631
    1SOL    HW2 6454   3.064   3.926   2.681 -1.0223  1.2503 -0.9434
    1SOL    HW3 6455   2.985   3.797   2.692  1.3803 -0.3182 -1.7869
    1SOL    MW4 6456   2.994   3.878   2.661 -0.4139  0.2735 -0.7744
    1SOL     OW 6457   2.732   4.002   2.773  0.2215  0.4194  0.1296
    1SOL    HW2 6458   2.729   4.086   2.725  0.6422  1.3245  1.6618
    1SOL    HW3 6459   2.823   3.974   2.765 -0.0737 -0.2606 -0.9793
    1SOL    MW4 6460   2.743   4.010   2.765  0.2382  0.4492  0.1855
    1SOL     OW 6461   2.750   4.250   2.616  0.2825 -0.3231  0.2291
    1SOL    HW2 6462   2.817   4.293   2.669 -0.0078  0.4755 -0.0484
    1SOL    HW3 6463   2.669   4.297   2.637  0.1827  0.0418 -0.9727
    1SOL    MW4 6464   2.748   4.262   2.626  0.2308 -0.1702  0.0339
    1SOL     OW 6465   2.913   4.421   2.767 -0.0855 -0.1606 -0.0759
    1SOL    HW2 6466   2.908   4.409   2.861  0.0939  1.0589  0.0947
    1SOL    HW3 6467   2.896   4.514   2.753 -0.5930 -0.4132 -1.2856
    1SOL    MW4 6468   2.910   4.431   2.777 -0.1285 -0.0334 -0.2129
    1SOL     OW 6469   3.363   4.655   2.618  0.0975 -0.0084  0.6416
    1SOL    HW2 6470   3.381   4.582   2.676  0.2789  0.5610  1.3057
    1SOL    HW3 6471   3.272   4.679   2.637 -0.5722 -1.2262 -0.8788
    1SOL    MW4 6472   3.353   4.649   2.628  0.0329 -0.0939  0.5291
    1SOL     OW 6473   3.134   0.116   2.723 -0.0839  0.4662  0.4928
    1SOL    HW2 6474   3.135   0.124   2.818  1.3727  1.9739  0.3737
    1SOL    HW3 6475   3.114   0.204   2.691 -2.5199 -0.4262 -0.5933
    1SOL    MW4 6476   3.131   0.129   2.731 -0.2129  0.5473  0.3338
    1SOL     OW 6477   3.114   0.372   2.644 -0.0173 -0.0474 -0.1878
    1SOL    HW2 6478   3.037   0.421   2.674 -0.6985 -0.3747 -1.3996
    1SOL    HW3 6479   3.109   0.375   2.549  1.4349 -0.1423 -0.2753
    1SOL    MW4 6480   3.103   0.379   2.636  0.0844 -0.1031 -0.3591
    1SOL     OW 6481   3.340   0.503   2.697  0.0004 -0.2045 -0.2609
    1SOL    HW2 6482   3.326   0.592   2.664  0.2761 -0.0693 -0.0169
    1SOL    HW3 6483   3.261   0.455   2.673  0.4746 -0.2878 -1.7122
    1SOL    MW4 6484   3.328   0.508   2.689  0.0994 -0.1977 -0.4203
    1SOL     OW 6485   3.329   0.774   2.627  0.0758  0.3800 -0.3387
    1SOL    HW2 6486   3.414   0.799   2.664  0.1557  1.3587 -1.1836
    1SOL    HW3 6487   3.340   0.781   2.532  0.4321 -3.8967 -0.7328
    1SOL    MW4 6488   3.341   0.778   2.620  0.1333 -0.0553 -0.5021
    1SOL     OW 6489   3.094   0.876   2.714  0.0821 -0.0019 -0.3264
    1SOL    HW2 6490   3.102   0.894   2.807  0.5436 -0.8552 -0.1981
    1SOL    HW3 6491   3.177   0.835   2.689 -0.2430 -0.2800 -0.9894
    1SOL    MW4 6492   3.106   0.873   2.723  0.0999 -0.1512 -0.3970
    1SOL     OW 6493   3.136   1.141   2.639 -0.5566  0.1112  0.1496
    1SOL    HW2 6494   3.132   1.046   2.639 -0.7579  0.1047 -1.1717
    1SOL    HW3 6495   3.131   1.165   2.546  2.0924  1.2982  0.2642
    1SOL    MW4 6496   3.135   1.132   2.627 -0.2337  0.2669 -0.0095
    1SOL     OW 6497   3.366   1.248   2.748  0.0629 -0.2110 -0.4026
    1SOL    HW2 6498   3.364   1.229   2.842 -0.7599 -0.7268 -0.5245
    1SOL    HW3 6499   3.282   1.217   2.715  0.0872  0.5493 -1.2015
    1SOL    MW4 6500   3.355   1.242   2.756 -0.0424 -0.1788 -0.5240
    1SOL     OW 6501   3.351   1.508   2.653 -0.4409 -0.0901  0.1593
    1SOL    HW2 6502   3.271   1.553   2.681  0.5033  1.7167 -0.0092
    1SOL    HW3 6503   3.345   1.421   2.693 -0.8500  1.2019  2.9994
    1SOL    MW4 6504   3.340   1.502   2.662 -0.3705  0.3188  0.5119
    1SOL     OW 6505   3.115   1.633   2.711 -0.4088 -0.5718 -0.8038
    1SOL    HW2 6506   3.040   1.587   2.673 -1.7637  0.2462  0.8097
    1SOL    HW3 6507   3.111   1.613   2.804  1.3777 -0.4865 -0.6940
    1SOL    MW4 6508   3.105   1.624   2.718 -0.3517 -0.4528 -0.5765
    1SOL     OW 6509   3.100   1.898   2.649 -0.2611  0.3936  0.3347
    1SOL    HW2 6510   3.183   1.941   2.668 -0.8752  1.6407  0.2208
    1SOL    HW3 6511   3.114   1.806   2.674  0.8127  0.8060  1.2640
    1SOL    MW4 6512   3.113   1.891   2.655 -0.2003  0.6126  0.4425
    1SOL     OW 6513   3.318   2.039   2.749  0.0307  0.7143 -0.4163
    1SOL    HW2 6514   3.306   2.035   2.844 -0.3648 -0.7895 -0.5256
    1SOL    HW3 6515   3.341   2.131   2.732 -0.2675  1.0798  1.0808
    1SOL    MW4 6516   3.320   2.051   2.759 -0.0608  0.5643 -0.2332
    1SOL     OW 6517   3.355   2.306   2.659 -0.2358 -0.1674 -0.0528
    1SOL    HW2 6518   3.434   2.355   2.679 -2.0029  2.6462  0.3108
    1SOL    HW3 6519   3.356   2.297   2.563 -0.1144  1.0007 -0.1645
    1SOL    MW4 6520   3.366   2.311   2.649 -0.4532  0.3581 -0.0196
    1SOL     OW 6521   3.126   2.427   2.768 -0.3216 -0.0071  0.0983
    1SOL    HW2 6522   3.206   2.378   2.750  0.3330  0.8701  0.5607
    1SOL    HW3 6523   3.122   2.432   2.864 -0.4382  0.7348  0.0611
    1SOL    MW4 6524   3.136   2.421   2.778 -0.2508  0.2062  0.1545
    1SOL     OW 6525   3.105   2.677   2.620 -0.1365 -0.5607 -0.3590
    1SOL    HW2 6526   3.183   2.722   2.653 -0.3115 -0.2118 -0.4243
    1SOL    HW3 6527   3.111   2.589   2.656 -0.0404 -0.3435  0.1515
    1SOL    MW4 6528   3.116   2.671   2.629 -0.1471 -0.4857 -0.3002
    1SOL     OW 6529   3.352   2.847   2.731  0.5376 -0.0765  0.1242
    1SOL    HW2 6530   3.349   2.840   2.826  1.6142 -1.3767  0.0716
    1SOL    HW3 6531   3.428   2.795   2.705 -0.8503 -1.3329 -1.5915
    1SOL    MW4 6532   3.362   2.839   2.740  0.4964 -0.4137 -0.1090
    1SOL     OW 6533   3.401   3.111   2.623  0.4236  0.2224  0.2068
    1SOL    HW2 6534   3.395   3.019   2.650  0.5769  0.1462 -0.0149
    1SOL    HW3 6535   3.395   3.107   2.527 -0.2426  0.4979  0.2313
    1SOL    MW4 6536   3.399   3.098   2.614  0.3557  0.2484  0.1805
    1SOL     OW 6537   3.162   3.226   2.711  0.1271  0.2802  0.4820
    1SOL    HW2 6538   3.236   3.172   2.683  0.2724  1.1345 -0.7830
    1SOL    HW3 6539   3.085   3.181   2.675  0.1116 -0.0028  0.8633
    1SOL    MW4 6540   3.162   3.213   2.703  0.1442  0.3555  0.3655
    1SOL     OW 6541   3.166   3.504   2.662  0.1604 -0.2163  0.2329
    1SOL    HW2 6542   3.167   3.409   2.672 -2.6496 -0.3403 -0.2296
    1SOL    HW3 6543   3.079   3.530   2.694  0.1825  1.9756 -1.3861
    1SOL    MW4 6544   3.154   3.495   2.668 -0.2074  0.0567 -0.0415
    1SOL     OW 6545   3.381   3.689   2.729 -0.2855  0.7635 -0.0897
    1SOL    HW2 6546   3.386   3.678   2.824  0.8596 -1.2017 -0.3498
    1SOL    HW3 6547   3.308   3.633   2.703 -0.0319  0.6045 -0.4595
    1SOL    MW4 6548   3.372   3.680   2.738 -0.1006  0.4833 -0.1729
    1SOL     OW 6549   3.393   3.935   2.584  0.3127  0.0418 -0.1528
    1SOL    HW2 6550   3.378   3.846   2.618  2.4176  0.2234  1.3591
    1SOL    HW3 6551   3.391   3.925   2.489  1.0809 -1.7547 -0.0051
    1SOL    MW4 6552   3.391   3.922   2.576  0.6917 -0.1714  0.0660
    1SOL     OW 6553   3.200   4.036   2.741  0.0547  0.2409  0.4635
    1SOL    HW2 6554   3.185   4.129   2.722  1.6016  0.7287  1.5160
    1SOL    HW3 6555   3.253   4.005   2.667 -0.7827  0.0850 -0.0822
    1SOL    MW4 6556   3.205   4.045   2.729  0.1481  0.2842  0.5300
    1SOL     OW 6557   3.146   4.303   2.651 -0.1779 -0.0317 -0.4972
    1SOL    HW2 6558   3.057   4.328   2.677  0.0009 -0.1398  0.2309
    1SOL    HW3 6559   3.142   4.295   2.556 -0.6139  1.3225 -0.6106
    1SOL    MW4 6560   3.134   4.305   2.642 -0.2120  0.1330 -0.4160
    1SOL     OW 6561   3.372   4.422   2.764  0.1110 -0.2604  0.0104
    1SOL    HW2 6562   3.358   4.424   2.859 -2.0924 -0.2559 -0.2764
    1SOL    HW3 6563   3.294   4.378   2.730  0.7056  0.0866 -1.8425
    1SOL    MW4 6564   3.360   4.416   2.772 -0.1016 -0.2141 -0.2718
    1SOL     OW 6565   3.823   4.646   2.627  0.1964 -0.7057 -0.1797
    1SOL    HW2 6566   3.820   4.566   2.680 -0.1547 -0.2375  0.5145
    1SOL    HW3 6567   3.740   4.691   2.646 -0.0717 -0.6708 -1.3556
    1SOL    MW4 6568   3.811   4.642   2.636  0.1147 -0.6394 -0.2434
    1SOL     OW 6569   3.598   0.128   2.719  0.3465 -0.0604 -0.8279
    1SOL    HW2 6570   3.592   0.217   2.687  0.3617 -0.3231 -1.5668
    1SOL    HW3 6571   3.512   0.090   2.702 -0.5509  0.6156  1.9295
    1SOL    MW4 6572   3.586   0.135   2.713  0.2303 -0.0059 -0.5617
    1SOL     OW 6573   3.573   0.389   2.618 -0.3031 -0.2768  0.3586
    1SOL    HW2 6574   3.652   0.428   2.656 -0.5488  0.0946  0.4921
    1SOL    HW3 6575   3.502   0.444   2.650 -0.4305  0.6832 -1.4678
    1SOL    MW4 6576   3.574   0.402   2.627 -0.3521 -0.1011  0.1352
    1SOL     OW 6577   3.808   0.498   2.708  0.2620  0.0178  0.0730
    1SOL    HW2 6578   3.823   0.507   2.802 -0.5186 -0.2570  0.2315
    1SOL    HW3 6579   3.889   0.459   2.675 -0.8792 -3.5942  1.2595
    1SOL    MW4 6580   3.820   0.494   2.716  0.0083 -0.4950  0.2503
    1SOL     OW 6581   3.828   0.776   2.599  0.0235 -0.1075 -0.1426
    1SOL    HW2 6582   3.740   0.804   2.626  0.7598  1.5153  0.6217
    1SOL    HW3 6583   3.835   0.686   2.632 -1.1180 -0.0477  0.3110
    1SOL    MW4 6584   3.817   0.768   2.607 -0.0298  0.1145  0.0181
    1SOL     OW 6585   3.581   0.854   2.724 -0.3233  0.9042  0.2062
    1SOL    HW2 6586   3.582   0.852   2.820 -0.0461 -0.6990  0.1824
    1SOL    HW3 6587   3.591   0.946   2.702 -2.3172  1.5181  1.7341
    1SOL    MW4 6588   3.583   0.866   2.734 -0.5498  0.7737  0.4046
    1SOL     OW 6589   3.620   1.128   2.625  0.3110  0.5309 -0.0578
    1SOL    HW2 6590   3.690   1.178   2.668  0.3086  1.1520 -0.7615
    1SOL    HW3 6591   3.540   1.175   2.647  0.2011  0.2834  0.0735
    1SOL    MW4 6592   3.619   1.141   2.634  0.2959  0.5801 -0.1335
    1SOL     OW 6593   3.819   1.276   2.721  0.1863 -0.2350  0.4277
    1SOL    HW2 6594   3.889   1.230   2.674 -0.2302  1.3744 -1.8755
    1SOL    HW3 6595   3.824   1.366   2.687 -1.7505  0.3581  1.6811
    1SOL    MW4 6596   3.829   1.282   2.710 -0.1245  0.0557  0.2890
    1SOL     OW 6597   3.815   1.513   2.602  0.1299  0.1604  0.0994
    1SOL    HW2 6598   3.896   1.549   2.639  0.6539 -0.6019 -0.2701
    1SOL    HW3 6599   3.745   1.558   2.649  0.7782 -0.0536  1.3117
    1SOL    MW4 6600   3.817   1.523   2.613  0.2847  0.0317  0.2105
    1SOL     OW 6601   3.607   1.650   2.728 -0.3503  0.1473  0.2808
    1SOL    HW2 6602   3.599   1.744   2.707 -0.7704  0.1842  0.6067
    1SOL    HW3 6603   3.531   1.610   2.685  0.5501 -0.2327 -0.9736
    1SOL    MW4 6604   3.596   1.657   2.719 -0.2868  0.1020  0.1583
    1SOL     OW 6605   3.544   1.918   2.653  0.1711 -0.4004 -0.2985
    1SOL    HW2 6606   3.461   1.960   2.673  0.5484 -0.1680  0.7828
    1SOL    HW3 6607   3.543   1.906   2.558 -0.5241  0.7932 -0.4361
    1SOL    MW4 6608   3.533   1.922   2.643  0.1290 -0.2122 -0.1740
    1SOL     OW 6609   3.787   2.065   2.725 -0.2304 -0.3461 -0.3665
    1SOL    HW2 6610   3.855   2.006   2.693  0.5041 -0.7088  1.8058
    1SOL    HW3 6611   3.705   2.016   2.713 -0.2858  0.5072 -3.9810
    1SOL    MW4 6612   3.785   2.051   2.719 -0.1409 -0.2813 -0.5565
    1SOL     OW 6613   3.802   2.328   2.594 -0.0173  0.3627 -0.4057
    1SOL    HW2 6614   3.786   2.241   2.632  1.4057  0.4744  0.4996
    1SOL    HW3 6615   3.810   2.311   2.500  1.0132 -0.6186 -0.1586
    1SOL    MW4 6616   3.801   2.314   2.586  0.3061  0.2477 -0.2537
    1SOL     OW 6617   3.582   2.428   2.742  0.3545 -0.1079 -0.5819
    1SOL    HW2 6618   3.604   2.411   2.834  0.3289  0.2164 -0.5158
    1SOL    HW3 6619   3.656   2.392   2.693  0.3760 -0.2665 -0.4337
    1SOL    MW4 6620   3.595   2.421   2.748  0.3538 -0.0861 -0.5538
    1SOL     OW 6621   3.573   2.687   2.649 -0.0753  0.0331  0.3949
    1SOL    HW2 6622   3.574   2.595   2.675  3.8044  0.1800  1.0581
    1SOL    HW3 6623   3.593   2.686   2.556  0.7270  0.2192  0.5605
    1SOL    MW4 6624   3.576   2.675   2.640  0.5426  0.0770  0.5043
    1SOL     OW 6625   3.826   2.829   2.730  0.1125 -0.0504 -0.5468
    1SOL    HW2 6626   3.897   2.786   2.682 -0.7154 -0.3997 -1.4789
    1SOL    HW3 6627   3.748   2.779   2.707 -0.4448  0.3579  0.4388
    1SOL    MW4 6628   3.825   2.817   2.721 -0.0703 -0.0429 -0.5398
    1SOL     OW 6629   3.831   3.127   2.691  0.2280  0.5697  0.1858
    1SOL    HW2 6630   3.758   3.167   2.737  0.1809  0.9908 -0.2472
    1SOL    HW3 6631   3.828   3.035   2.716 -0.4198  0.5963  0.2037
    1SOL    MW4 6632   3.821   3.120   2.700  0.1361  0.6287  0.1309
    1SOL     OW 6633   3.595   3.222   2.804 -0.2403 -0.0884 -0.4446
    1SOL    HW2 6634   3.596   3.316   2.784 -0.1691 -0.1173 -0.5790
    1SOL    HW3 6635   3.524   3.187   2.749 -0.6865 -0.0100  0.0785
    1SOL    MW4 6636   3.586   3.230   2.794 -0.2897 -0.0818 -0.3929
    1SOL     OW 6637   3.591   3.478   2.666  0.0372 -0.2410  0.2915
    1SOL    HW2 6638   3.669   3.526   2.694 -0.6927 -0.3840  2.5954
    1SOL    HW3 6639   3.518   3.538   2.683 -0.5955 -1.0594  0.4909
    1SOL    MW4 6640   3.592   3.492   2.672 -0.1426 -0.3681  0.6218
    1SOL     OW 6641   3.828   3.589   2.748 -0.4405  0.0876  0.1152
    1SOL    HW2 6642   3.907   3.549   2.712 -1.1637 -0.2362 -1.1330
    1SOL    HW3 6643   3.832   3.680   2.720 -1.0085 -0.1668 -0.7888
    1SOL    MW4 6644   3.839   3.596   2.740 -0.6108  0.0112 -0.1688
    1SOL     OW 6645   3.839   3.855   2.655 -0.3930  0.1339  0.1664
    1SOL    HW2 6646   3.909   3.918   2.673  0.2721 -0.5143 -0.1124
    1SOL    HW3 6647   3.761   3.896   2.692  0.3285  0.3630  1.5124
    1SOL    MW4 6648   3.838   3.869   2.663 -0.2098  0.0787  0.3076
    1SOL     OW 6649   3.628   4.006   2.727  0.6588 -0.0296  0.2277
    1SOL    HW2 6650   3.625   4.100   2.713  0.4120  0.0232  0.6453
    1SOL    HW3 6651   3.554   3.972   2.676 -1.6808  0.3904  3.1794
    1SOL    MW4 6652   3.618   4.014   2.718  0.3176  0.0324  0.6721
    1SOL     OW 6653   3.602   4.275   2.648 -0.5806  0.4910  0.3034
    1SOL    HW2 6654   3.513   4.303   2.670 -1.5088 -2.2060  0.1991
    1SOL    HW3 6655   3.605   4.278   2.552 -0.4130  1.0274  0.3270
    1SOL    MW4 6656   3.590   4.279   2.638 -0.6807  0.2060  0.2930
    1SOL     OW 6657   3.836   4.403   2.752  0.1252  0.1920  0.1033
    1SOL    HW2 6658   3.902   4.368   2.692  0.4247 -0.1212  0.6111
    1SOL    HW3 6659   3.756   4.355   2.728  0.6876 -1.3710  1.2498
    1SOL    MW4 6660   3.834   4.392   2.741  0.2389 -0.0558  0.3214
    1SOL     OW 6661   4.262   4.659   2.623 -0.2294 -0.0487 -0.2192
    1SOL    HW2 6662   4.198   4.727   2.648 -0.8883 -0.6966 -0.1185
    1SOL    HW3 6663   4.336   4.675   2.681 -1.6570 -1.3871  2.0667
    1SOL    MW4 6664   4.263   4.670   2.634 -0.5045 -0.3114  0.0958
    1SOL     OW 6665   4.035   0.152   2.714  0.2434  0.1749 -0.0944
    1SOL    HW2 6666   4.022   0.135   2.807  1.0161 -0.3635 -0.0787
    1SOL    HW3 6667   3.971   0.096   2.670  0.7129 -0.4848  0.0674
    1SOL    MW4 6668   4.025   0.142   2.720  0.4072  0.0168 -0.0713
    1SOL     OW 6669   4.048   0.413   2.613 -0.3153 -0.4301  0.4852
    1SOL    HW2 6670   4.042   0.327   2.656  0.6856 -0.3294  0.8602
    1SOL    HW3 6671   4.045   0.393   2.520  1.3419 -1.0197  0.5409
    1SOL    MW4 6672   4.047   0.399   2.607  0.0358 -0.4946  0.5419
    1SOL     OW 6673   4.269   0.506   2.754 -0.0073  0.3066  0.0222
    1SOL    HW2 6674   4.201   0.489   2.689  0.9643  0.1013 -0.9550
    1SOL    HW3 6675   4.338   0.443   2.734 -0.2678 -0.6476  2.1082
    1SOL    MW4 6676   4.269   0.496   2.743  0.0858  0.1536  0.1688
    1SOL     OW 6677   4.260   0.764   2.649  0.5869 -0.0164 -0.0408
    1SOL    HW2 6678   4.280   0.675   2.679  1.2098  0.3691  0.6816
    1SOL    HW3 6679   4.254   0.756   2.554  1.1273 -0.7385 -0.0160
    1SOL    MW4 6680   4.262   0.751   2.640  0.7401 -0.0608  0.0577
    1SOL     OW 6681   4.027   0.880   2.759  0.0099  0.0093 -0.2116
    1SOL    HW2 6682   4.114   0.857   2.724  0.1515 -0.0451  0.1719
    1SOL    HW3 6683   3.966   0.839   2.698  0.2516  0.3273 -0.6721
    1SOL    MW4 6684   4.031   0.871   2.746  0.0606  0.0440 -0.2215
    1SOL     OW 6685   4.045   1.117   2.624  0.0241 -0.5560 -0.4781
    1SOL    HW2 6686   4.116   1.165   2.667 -0.0274  0.2502 -1.2674
    1SOL    HW3 6687   4.032   1.039   2.677  1.8051 -0.9339 -0.5721
    1SOL    MW4 6688   4.052   1.113   2.636  0.2518 -0.4995 -0.5946
    1SOL     OW 6689   4.244   1.285   2.737  0.4266  0.1243  0.4989
    1SOL    HW2 6690   4.265   1.373   2.705 -1.0642  0.0020 -0.8602
    1SOL    HW3 6691   4.318   1.231   2.710  0.2794  0.5051 -0.6921
    1SOL    MW4 6692   4.257   1.290   2.730  0.2103  0.1584  0.1624
    1SOL     OW 6693   4.256   1.542   2.618 -0.2674 -0.2220  0.3047
    1SOL    HW2 6694   4.332   1.590   2.651 -0.1692 -0.3076  0.2053
    1SOL    HW3 6695   4.268   1.541   2.523  0.1231 -1.0905  0.3553
    1SOL    MW4 6696   4.268   1.548   2.610 -0.2031 -0.3479  0.2985
    1SOL     OW 6697   4.040   1.657   2.718  0.2321  0.5893 -0.1022
    1SOL    HW2 6698   4.047   1.651   2.814 -0.2638  0.7015 -0.0535
    1SOL    HW3 6699   4.121   1.619   2.685  1.2724  2.2841  0.4164
    1SOL    MW4 6700   4.052   1.651   2.727  0.3037  0.8277 -0.0274
    1SOL     OW 6701   4.004   1.930   2.630 -0.0752 -0.1310  0.2550
    1SOL    HW2 6702   4.077   1.982   2.663  0.3725 -0.2278 -0.5684
    1SOL    HW3 6703   4.017   1.843   2.668 -0.0394 -0.0140  0.5082
    1SOL    MW4 6704   4.015   1.925   2.639 -0.0114 -0.1283  0.1795
    1SOL     OW 6705   4.221   2.067   2.739 -0.2690  0.5991 -0.3350
    1SOL    HW2 6706   4.242   2.159   2.722  2.7021 -0.2702 -1.5376
    1SOL    HW3 6707   4.290   2.017   2.695 -2.0735 -2.2465 -0.0721
    1SOL    MW4 6708   4.233   2.073   2.731 -0.1154  0.1090 -0.4585
    1SOL     OW 6709   4.308   2.324   2.638 -0.0903 -0.3149 -0.2713
    1SOL    HW2 6710   4.225   2.363   2.668  0.4196  0.7956 -0.2713
    1SOL    HW3 6711   4.289   2.292   2.550 -0.7581 -0.8332  0.0578
    1SOL    MW4 6712   4.294   2.325   2.630 -0.1106 -0.2365 -0.2279
    1SOL     OW 6713   4.071   2.416   2.719 -0.4715  0.4742  0.0455
    1SOL    HW2 6714   4.072   2.422   2.814  0.1662 -0.6191  0.1145
    1SOL    HW3 6715   3.984   2.382   2.698  0.1286 -1.3454  0.3877
    1SOL    MW4 6716   4.059   2.412   2.728 -0.3080  0.0899  0.0997
    1SOL     OW 6717   4.034   2.667   2.597 -0.1388 -0.4627 -0.0670
    1SOL    HW2 6718   4.116   2.709   2.624 -1.0571  0.7939  0.8028
    1SOL    HW3 6719   4.034   2.584   2.645  0.7189 -0.5604 -0.2214
    1SOL    MW4 6720   4.045   2.662   2.607 -0.1464 -0.3097  0.0277
    1SOL     OW 6721   4.258   2.780   2.707  0.2980  0.1433  0.0458
    1SOL    HW2 6722   4.261   2.770   2.802  2.2998  0.0760  0.0043
    1SOL    HW3 6723   4.256   2.875   2.693 -0.9406  0.1350  0.1699
    1SOL    MW4 6724   4.258   2.791   2.717  0.3986  0.1333  0.0567
    1SOL     OW 6725   4.308   3.054   2.664  0.4357 -0.1536 -0.2408
    1SOL    HW2 6726   4.231   3.106   2.686 -0.3629 -0.8060 -1.4313
    1SOL    HW3 6727   4.319   3.067   2.570  1.8695  0.0419 -0.0484
    1SOL    MW4 6728   4.299   3.062   2.655  0.5198 -0.2139 -0.3726
    1SOL     OW 6729   4.084   3.206   2.722 -0.0773 -0.1199 -0.0461
    1SOL    HW2 6730   4.080   3.298   2.697  0.1294 -0.5096 -1.5696
    1SOL    HW3 6731   3.995   3.173   2.708 -0.4221  0.0866  1.5237
    1SOL    MW4 6732   4.072   3.213   2.717 -0.0958 -0.1440 -0.0398
    1SOL     OW 6733   4.071   3.475   2.660  0.4862 -0.8603 -0.2207
    1SOL    HW2 6734   4.160   3.508   2.672  0.5799 -1.1862  0.0005
    1SOL    HW3 6735   4.063   3.460   2.566  0.9764 -1.6962 -0.1349
    1SOL    MW4 6736   4.082   3.477   2.649  0.5636 -1.0138 -0.1800
    1SOL     OW 6737   4.292   3.596   2.752 -0.5191 -0.3604  0.2621
    1SOL    HW2 6738   4.259   3.584   2.841 -1.1775  1.0652  0.2086
    1SOL    HW3 6739   4.364   3.533   2.746  0.0048  0.0255  2.0508
    1SOL    MW4 6740   4.297   3.586   2.763 -0.5364 -0.1211  0.4914
    1SOL     OW 6741   4.274   3.849   2.648  0.0131 -0.1866  0.5723
    1SOL    HW2 6742   4.276   3.760   2.683  0.2313 -0.5898 -0.4522
    1SOL    HW3 6743   4.348   3.893   2.690  0.4730 -0.7616  0.3634
    1SOL    MW4 6744   4.284   3.843   2.658  0.1025 -0.3159  0.4096
    1SOL     OW 6745   4.059   4.010   2.698  0.6198  0.2043 -0.1772
    1SOL    HW2 6746   4.067   4.020   2.793  1.7111  0.6812 -0.3168
    1SOL    HW3 6747   4.135   3.958   2.672 -0.2048 -0.7701 -0.6670
    1SOL    MW4 6748   4.070   4.004   2.707  0.6547  0.1388 -0.2604
    1SOL     OW 6749   4.023   4.268   2.608  0.6664 -0.0951  0.2481
    1SOL    HW2 6750   4.034   4.178   2.639  0.2275  0.0092  0.7234
    1SOL    HW3 6751   3.990   4.259   2.519  1.0108 -0.4059  0.1530
    1SOL    MW4 6752   4.020   4.255   2.600  0.6542 -0.1225  0.2983
    1SOL     OW 6753   4.250   4.398   2.743  0.1116  0.3523 -0.4329
    1SOL    HW2 6754   4.176   4.353   2.702  1.0609 -0.7150 -1.0029
    1SOL    HW3 6755   4.250   4.486   2.705  0.1939 -0.2140 -1.7581
    1SOL    MW4 6756   4.241   4.404   2.733  0.2475  0.1369 -0.6828
    1SOL     OW 6757   0.245   4.619   3.117  0.2697  0.4672 -0.3238
    1SOL    HW2 6758   0.258   4.644   3.208 -0.2866  0.8736 -0.3561
    1SOL    HW3 6759   0.177   4.679   3.084  0.5977  0.4455 -1.0541
    1SOL    MW4 6760   0.237   4.630   3.124  0.2396  0.5183 -0.4244
    1SOL     OW 6761   0.011   0.095   3.050 -0.3538  0.0942  0.4166
    1SOL    HW2 6762  -0.073   0.053   3.068 -0.9355  1.4746  0.9835
    1SOL    HW3 6763  -0.008   0.188   3.054  0.7591  0.4264 -1.5757
    1SOL    MW4 6764  -0.002   0.101   3.053 -0.2838  0.3202  0.2284
    1SOL     OW 6765   4.480   0.366   3.111  0.0952  0.4914 -0.3540
    1SOL    HW2 6766   4.481   0.344   3.204  0.3298 -0.2323 -0.5208
    1SOL    HW3 6767   4.395   0.407   3.097 -0.9289 -1.4992 -0.2847
    1SOL    MW4 6768   4.469   0.368   3.121 -0.0090  0.1333 -0.3669
    1SOL     OW 6769   0.218   0.507   3.032 -0.0096 -0.1859  0.1335
    1SOL    HW2 6770   0.293   0.461   3.071 -0.2565  0.5214  1.4559
    1SOL    HW3 6771   0.142   0.469   3.075 -0.4135 -0.6896 -0.9956
    1SOL    MW4 6772   0.218   0.496   3.043 -0.0955 -0.1590  0.1590
    1SOL     OW 6773   0.240   0.766   3.128  0.6156  0.1811 -0.6239
    1SOL    HW2 6774   0.243   0.768   3.224  1.4967  0.5548 -0.6506
    1SOL    HW3 6775   0.219   0.675   3.106 -0.5515  0.3026 -0.0671
    1SOL    MW4 6776   0.238   0.755   3.138  0.5779  0.2464 -0.5538
    1SOL     OW 6777   4.485   0.874   3.044  0.0974  0.2628 -0.3946
    1SOL    HW2 6778   4.568   0.832   3.065 -0.8624 -0.9602  1.0982
    1SOL    HW3 6779   4.474   0.861   2.949  0.9792 -0.7141 -0.3645
    1SOL    MW4 6780   4.494   0.867   3.034  0.0877 -0.0274 -0.1934
    1SOL     OW 6781   0.012   1.166   3.099 -0.0922  0.3377  0.2092
    1SOL    HW2 6782  -0.068   1.206   3.066  0.1923  1.0825  0.4228
    1SOL    HW3 6783   0.004   1.074   3.074 -1.3646  0.2486  0.9017
    1SOL    MW4 6784   0.001   1.159   3.091 -0.2226  0.4241  0.3285
    1SOL     OW 6785   0.239   1.265   3.010 -0.5321 -0.0594 -0.5644
    1SOL    HW2 6786   0.157   1.233   3.047  0.0307 -0.1428  0.6273
    1SOL    HW3 6787   0.219   1.280   2.917 -1.7647 -0.4967 -0.3799
    1SOL    MW4 6788   0.225   1.263   3.002 -0.6205 -0.1281 -0.3829
    1SOL     OW 6789   0.244   1.537   3.062  0.1352 -0.4338 -0.2808
    1SOL    HW2 6790   0.168   1.580   3.024  0.4479  0.1467 -0.2597
    1SOL    HW3 6791   0.246   1.451   3.021 -1.2842 -0.9376  0.7091
    1SOL    MW4 6792   0.234   1.532   3.051 -0.0108 -0.4238 -0.1476
    1SOL     OW 6793   4.482   1.649   2.984  0.6130 -0.0837 -0.3732
    1SOL    HW2 6794   4.396   1.620   3.013  0.2695 -0.2303 -1.5452
    1SOL    HW3 6795   4.491   1.737   3.020  0.3688 -0.4237  0.5407
    1SOL    MW4 6796   4.472   1.657   2.993  0.5360 -0.1481 -0.4070
    1SOL     OW 6797   4.484   1.915   3.080  0.0606  0.3507  0.1168
    1SOL    HW2 6798   4.394   1.944   3.062 -0.2717 -0.6078  0.2117
    1SOL    HW3 6799   4.539   1.973   3.028 -0.7260 -0.4488 -1.6216
    1SOL    MW4 6800   4.479   1.927   3.071 -0.0873  0.1186 -0.0999
    1SOL     OW 6801   0.205   2.059   2.992  0.8599 -0.2024  0.2608
    1SOL    HW2 6802   0.217   2.148   3.025 -1.8306  0.7281 -1.0892
    1SOL    HW3 6803   0.221   2.067   2.897 -1.1594 -0.7381 -0.1503
    1SOL    MW4 6804   0.209   2.072   2.984  0.2385 -0.1500  0.0284
    1SOL     OW 6805   0.220   2.301   3.111  0.0372  0.1624 -0.2791
    1SOL    HW2 6806   0.252   2.263   3.192 -0.8725 -1.4745 -0.6664
    1SOL    HW3 6807   0.295   2.348   3.074  0.9039 -0.4730  0.6695
    1SOL    MW4 6808   0.234   2.302   3.117  0.0316 -0.1373 -0.2050
    1SOL     OW 6809   4.480   2.423   3.047 -0.0653  0.0896 -0.1066
    1SOL    HW2 6810   4.477   2.513   3.081 -0.5617 -0.0159  0.1402
    1SOL    HW3 6811   4.566   2.391   3.071  0.1332  0.5165 -0.2322
    1SOL    MW4 6812   4.491   2.431   3.055 -0.1044  0.1318 -0.0908
    1SOL     OW 6813   4.467   2.680   3.132  0.4411 -0.1282 -0.1896
    1SOL    HW2 6814   4.458   2.692   3.226  2.1392  0.2897 -0.0528
    1SOL    HW3 6815   4.538   2.739   3.107  1.2349 -1.5547 -1.4207
    1SOL    MW4 6816   4.475   2.689   3.141  0.7696 -0.2615 -0.3338
    1SOL     OW 6817   0.195   2.810   3.024 -0.1158 -0.2207  0.0052
    1SOL    HW2 6818   0.261   2.743   3.040  0.4457  0.5505  0.9503
    1SOL    HW3 6819   0.200   2.827   2.930  0.0020 -1.2205 -0.1683
    1SOL    MW4 6820   0.204   2.804   3.014 -0.0262 -0.2511  0.1068
    1SOL     OW 6821   0.254   3.065   3.150  0.1176 -0.3589 -0.0756
    1SOL    HW2 6822   0.179   3.114   3.118 -0.5284 -0.7366  0.8582
    1SOL    HW3 6823   0.242   2.977   3.116 -0.4023 -0.6797  0.9276
    1SOL    MW4 6824   0.243   3.060   3.141 -0.0362 -0.4513  0.1800
    1SOL     OW 6825   0.022   3.196   3.063  0.0282 -0.3028  0.3934
    1SOL    HW2 6826  -0.049   3.140   3.095  0.0477 -0.3596  0.3388
    1SOL    HW3 6827   0.037   3.167   2.973  0.6779 -0.8454  0.6704
    1SOL    MW4 6828   0.015   3.185   3.055  0.1163 -0.3819  0.4227
    1SOL     OW 6829   4.471   3.460   3.076  0.4132 -0.0767 -0.3750
    1SOL    HW2 6830   4.386   3.486   3.039  1.2879  1.9023 -1.0472
    1SOL    HW3 6831   4.479   3.367   3.054 -0.3493  0.3749 -2.6918
    1SOL    MW4 6832   4.461   3.451   3.069  0.4282  0.2439 -0.7691
    1SOL     OW 6833   0.225   3.587   3.023 -0.2587  0.2652 -0.0410
    1SOL    HW2 6834   0.223   3.678   3.053 -0.0793 -0.6716  2.9644
    1SOL    HW3 6835   0.136   3.555   3.039  0.4651 -0.9183  1.7395
    1SOL    MW4 6836   0.213   3.595   3.029 -0.1396 -0.0148  0.5906
    1SOL     OW 6837   0.222   3.857   3.096 -0.2777  0.0664  0.1657
    1SOL    HW2 6838   0.223   3.865   3.192 -0.2650  1.5388  0.0504
    1SOL    HW3 6839   0.286   3.921   3.066 -0.5934 -0.0925 -0.8578
    1SOL    MW4 6840   0.230   3.866   3.105 -0.3177  0.2396  0.0153
    1SOL     OW 6841   4.469   3.966   3.028 -0.1747 -0.3653  0.3225
    1SOL    HW2 6842   4.550   3.926   3.058  0.2173  0.1635 -0.0306
    1SOL    HW3 6843   4.481   3.979   2.934 -0.4002  0.3380  0.3851
    1SOL    MW4 6844   4.481   3.962   3.020 -0.1527 -0.2029  0.2844
    1SOL     OW 6845   4.476   4.257   3.109 -0.2969  0.0928 -0.4388
    1SOL    HW2 6846   4.482   4.274   3.203 -0.8091  1.2609 -0.6250
    1SOL    HW3 6847   4.466   4.162   3.103  2.8477 -0.3630  0.5655
    1SOL    MW4 6848   4.476   4.246   3.121  0.0504  0.1869 -0.3307
    1SOL     OW 6849   0.224   4.358   3.003  0.1785  0.6334  0.2565
    1SOL    HW2 6850   0.137   4.332   3.035  0.4743 -1.6291 -0.6811
    1SOL    HW3 6851   0.237   4.447   3.037 -1.6456  0.2172  2.1052
    1SOL    MW4 6852   0.214   4.366   3.012 -0.0231  0.2794  0.3767
    1SOL     OW 6853   0.695   0.002   3.105 -0.0201  0.1704 -0.2369
    1SOL    HW2 6854   0.692  -0.082   3.061  0.6653  0.3731 -0.6818
    1SOL    HW3 6855   0.623   0.053   3.066  1.6512  0.9617 -2.4082
    1SOL    MW4 6856   0.685  -0.002   3.094  0.2908  0.3014 -0.5820
    1SOL     OW 6857   0.459   0.107   3.001 -0.2725 -0.0378  0.1184
    1SOL    HW2 6858   0.438   0.188   3.047  1.7725  0.7591 -0.2933
    1SOL    HW3 6859   0.399   0.042   3.037  0.1923  0.9368  2.7193
    1SOL    MW4 6860   0.449   0.109   3.012  0.0587  0.1960  0.4072
    1SOL     OW 6861   0.422   0.348   3.113 -0.6154  0.2224 -0.0314
    1SOL    HW2 6862   0.424   0.343   3.209 -1.4045  2.4292  0.1233
    1SOL    HW3 6863   0.494   0.407   3.091 -0.3650 -0.3759 -0.8166
    1SOL    MW4 6864   0.432   0.355   3.123 -0.6865  0.4346 -0.1144
    1SOL     OW 6865   0.635   0.469   2.982  0.3976 -0.7819  0.4376
    1SOL    HW2 6866   0.713   0.418   3.004  1.0592  0.5595  1.2738
    1SOL    HW3 6867   0.654   0.557   3.015 -0.5988  0.0824 -1.2217
    1SOL    MW4 6868   0.648   0.474   2.989  0.3535 -0.4909  0.3290
    1SOL     OW 6869   0.676   0.741   3.084 -0.3317 -0.1456 -0.4210
    1SOL    HW2 6870   0.660   0.763   3.176 -0.0649  0.1436 -0.4467
    1SOL    HW3 6871   0.759   0.782   3.063  0.8208 -2.2127 -0.1014
    1SOL    MW4 6872   0.685   0.749   3.093 -0.1445 -0.3801 -0.3824
    1SOL     OW 6873   0.466   0.869   2.969 -0.1342  0.2452  0.0102
    1SOL    HW2 6874   0.390   0.828   3.009 -0.8496 -0.9353 -2.4328
    1SOL    HW3 6875   0.541   0.822   3.005 -0.8111 -1.4698 -0.7608
    1SOL    MW4 6876   0.466   0.858   2.979 -0.3179 -0.1369 -0.4139
    1SOL     OW 6877   0.464   1.131   3.102 -0.4075 -0.0373 -0.2517
    1SOL    HW2 6878   0.470   1.051   3.050 -0.8371  1.1826 -2.2755
    1SOL    HW3 6879   0.391   1.179   3.062  0.1143  1.5380  0.6432
    1SOL    MW4 6880   0.455   1.127   3.090 -0.3953  0.3314 -0.4008
    1SOL     OW 6881   0.697   1.279   3.028 -0.1672 -0.3377  0.1675
    1SOL    HW2 6882   0.772   1.231   3.063  0.2120  0.0395 -0.1234
    1SOL    HW3 6883   0.621   1.223   3.046  0.0991 -0.4087  1.0728
    1SOL    MW4 6884   0.697   1.265   3.035 -0.0820 -0.2973  0.2484
    1SOL     OW 6885   0.700   1.573   3.096  0.2139 -0.5303 -0.2565
    1SOL    HW2 6886   0.703   1.571   3.192 -1.5585 -0.6408 -0.1915
    1SOL    HW3 6887   0.709   1.481   3.070 -0.8860 -0.6818 -0.1289
    1SOL    MW4 6888   0.702   1.560   3.105 -0.1651 -0.5647 -0.2310
    1SOL     OW 6889   0.468   1.681   2.971  0.0258 -0.5327 -0.2048
    1SOL    HW2 6890   0.551   1.651   3.008  0.3735 -1.7992 -1.9803
    1SOL    HW3 6891   0.402   1.626   3.013  0.2411 -0.6583 -0.0285
    1SOL    MW4 6892   0.470   1.670   2.982  0.1001 -0.7163 -0.4156
    1SOL     OW 6893   0.423   1.937   3.090 -0.0546  0.2702 -0.0156
    1SOL    HW2 6894   0.418   1.849   3.054 -0.8772  0.5726 -0.6526
    1SOL    HW3 6895   0.344   1.981   3.058  0.7223  1.4734 -0.3187
    1SOL    MW4 6896   0.412   1.931   3.081 -0.0606  0.4687 -0.1395
    1SOL     OW 6897   0.668   2.039   2.988  0.7312  0.0975  0.2203
    1SOL    HW2 6898   0.735   1.974   3.009  0.2760 -0.2941  0.4970
    1SOL    HW3 6899   0.589   2.006   3.032  0.3570  0.5365 -0.1189
    1SOL    MW4 6900   0.666   2.026   2.996  0.6218  0.1037  0.2122
    1SOL     OW 6901   0.679   2.298   3.115 -0.3809  0.0727 -0.4304
    1SOL    HW2 6902   0.680   2.284   3.209 -0.9515 -0.3370 -0.4808
    1SOL    HW3 6903   0.686   2.210   3.077 -0.1473  0.2339 -0.7683
    1SOL    MW4 6904   0.680   2.285   3.122 -0.4254  0.0398 -0.4816
    1SOL     OW 6905   0.449   2.405   3.007 -0.3825  0.4682  0.1146
    1SOL    HW2 6906   0.534   2.375   3.039 -0.2669 -1.0674 -1.5446
    1SOL    HW3 6907   0.457   2.401   2.911 -2.1788  0.7139 -0.0523
    1SOL    MW4 6908   0.461   2.400   2.998 -0.6042  0.2980 -0.1261
    1SOL     OW 6909   0.443   2.671   3.092 -0.0768  0.0238 -0.1945
    1SOL    HW2 6910   0.518   2.722   3.060 -0.1066  1.1490  1.4459
    1SOL    HW3 6911   0.465   2.580   3.070  2.2678  0.2013  1.1366
    1SOL    MW4 6912   0.456   2.666   3.085  0.2286  0.1953  0.1974
    1SOL     OW 6913   0.654   2.829   3.014  0.3368 -0.3525 -0.0480
    1SOL    HW2 6914   0.734   2.793   3.052 -0.2367  0.1907  1.7350
    1SOL    HW3 6915   0.652   2.920   3.045 -0.2457  0.0597 -1.2566
    1SOL    MW4 6916   0.664   2.837   3.023  0.1843 -0.2265  0.0281
    1SOL     OW 6917   0.686   3.084   3.098  0.6658 -0.5399  0.5329
    1SOL    HW2 6918   0.670   3.089   3.192  1.2017  2.1486  0.5172
    1SOL    HW3 6919   0.616   3.136   3.058 -0.3299 -2.7400 -0.6606
    1SOL    MW4 6920   0.675   3.092   3.105  0.6052 -0.4756  0.3731
    1SOL     OW 6921   0.452   3.222   3.003  0.2531  0.0644 -0.0511
    1SOL    HW2 6922   0.453   3.307   3.047  0.4171 -0.9423  1.8958
    1SOL    HW3 6923   0.393   3.168   3.054  0.9037 -1.3106 -0.7173
    1SOL    MW4 6924   0.444   3.226   3.015  0.3606 -0.2499  0.1180
    1SOL     OW 6925   0.468   3.462   3.142 -0.0416 -0.8629  0.1243
    1SOL    HW2 6926   0.472   3.475   3.237  0.2197  0.5748 -0.0633
    1SOL    HW3 6927   0.384   3.501   3.117  0.6179  0.2492 -0.4257
    1SOL    MW4 6928   0.457   3.469   3.151  0.0799 -0.5264  0.0269
    1SOL     OW 6929   0.679   3.583   3.008 -0.4584 -0.1879  0.3779
    1SOL    HW2 6930   0.757   3.559   3.057  0.3869  0.7277 -0.4954
    1SOL    HW3 6931   0.608   3.533   3.049  0.1521  0.8810  2.7836
    1SOL    MW4 6932   0.680   3.573   3.020 -0.2663  0.0739  0.5803
    1SOL     OW 6933   0.665   3.841   3.104  0.1817  0.4225  0.1689
    1SOL    HW2 6934   0.674   3.842   3.199 -0.4156 -1.3135  0.2616
    1SOL    HW3 6935   0.677   3.749   3.080  0.3620  0.8498 -1.4369
    1SOL    MW4 6936   0.668   3.829   3.113  0.1267  0.2501 -0.0308
    1SOL     OW 6937   0.441   4.007   2.987  0.2485 -0.2956 -0.1106
    1SOL    HW2 6938   0.510   3.949   3.017  0.7055  0.2393 -0.1212
    1SOL    HW3 6939   0.448   4.005   2.891 -1.3763 -2.2065 -0.2258
    1SOL    MW4 6940   0.451   3.999   2.978  0.0944 -0.4771 -0.1273
    1SOL     OW 6941   0.461   4.253   3.119  0.1299 -0.4548  0.2156
    1SOL    HW2 6942   0.467   4.167   3.079  1.8124  0.5905 -1.9042
    1SOL    HW3 6943   0.383   4.293   3.079  0.0484 -0.5619  0.2703
    1SOL    MW4 6944   0.451   4.247   3.108  0.3411 -0.3314 -0.0570
    1SOL     OW 6945   0.683   4.420   3.012  0.0403  0.0911  0.0801
    1SOL    HW2 6946   0.608   4.369   3.042  1.1710 -1.1102  0.9281
    1SOL    HW3 6947   0.688   4.402   2.918  0.2875 -1.1804  0.3312
    1SOL    MW4 6948   0.674   4.411   3.004  0.2221 -0.2351  0.2253
    1SOL     OW 6949   1.114   0.008   3.112 -0.3461  0.5776  0.0816
    1SOL    HW2 6950   1.193   0.052   3.081 -0.2835 -0.8156 -1.8587
    1SOL    HW3 6951   1.043   0.054   3.068 -0.4766  0.5298  0.2419
    1SOL    MW4 6952   1.115   0.020   3.102 -0.3551  0.3872 -0.1533
    1SOL     OW 6953   0.897   0.134   2.983  0.4357  0.2683 -0.3010
    1SOL    HW2 6954   0.899   0.219   3.027  0.1771  0.4779 -0.6966
    1SOL    HW3 6955   0.833   0.083   3.032  0.9182  0.1503  0.2115
    1SOL    MW4 6956   0.889   0.138   2.995  0.4652  0.2804 -0.2854
    1SOL     OW 6957   0.881   0.378   3.093 -0.3010  0.3434 -0.2234
    1SOL    HW2 6958   0.876   0.397   3.187 -1.0011  1.6399 -0.5087
    1SOL    HW3 6959   0.965   0.413   3.066 -0.1475  0.0693 -0.1069
    1SOL    MW4 6960   0.891   0.385   3.102 -0.3732  0.4783 -0.2456
    1SOL     OW 6961   1.108   0.479   2.980 -0.1335  0.2423 -0.0140
    1SOL    HW2 6962   1.193   0.439   2.998 -1.1163 -1.8146  0.1909
    1SOL    HW3 6963   1.103   0.483   2.884  0.3957  0.8097 -0.0169
    1SOL    MW4 6964   1.118   0.474   2.970 -0.1935  0.0458  0.0126
    1SOL     OW 6965   1.132   0.742   3.093  0.6646  0.0377 -0.1197
    1SOL    HW2 6966   1.149   0.728   3.186 -0.7565  1.3323  0.3447
    1SOL    HW3 6967   1.129   0.654   3.056  0.6924 -0.5110  1.1459
    1SOL    MW4 6968   1.134   0.729   3.100  0.4808  0.1361  0.1085
    1SOL     OW 6969   0.900   0.890   3.046  0.8802 -0.2370 -0.1446
    1SOL    HW2 6970   0.906   0.980   3.080  0.0253  0.4150 -1.6591
    1SOL    HW3 6971   0.986   0.853   3.062  1.1464  0.7444  0.7933
    1SOL    MW4 6972   0.912   0.897   3.053  0.8024 -0.0214 -0.2208
    1SOL     OW 6973   0.915   1.153   3.146  0.2507  0.0544  0.1064
    1SOL    HW2 6974   0.912   1.172   3.240 -0.0036 -1.4962  0.4279
    1SOL    HW3 6975   1.000   1.186   3.118  0.2536  0.6931  0.8452
    1SOL    MW4 6976   0.926   1.160   3.155  0.2175 -0.0659  0.2463
    1SOL     OW 6977   1.156   1.257   3.030 -0.1429  0.0361  0.2097
    1SOL    HW2 6978   1.217   1.185   3.049  0.0805 -0.0254 -0.7073
    1SOL    HW3 6979   1.137   1.247   2.936 -1.6198  0.0099  0.5079
    1SOL    MW4 6980   1.161   1.246   3.020 -0.3083  0.0246  0.1280
    1SOL     OW 6981   1.171   1.514   3.110  0.5367  0.8825 -0.4010
    1SOL    HW2 6982   1.247   1.558   3.072  1.1339 -1.1298 -1.6077
    1SOL    HW3 6983   1.180   1.422   3.084 -2.0452  0.5015 -0.1511
    1SOL    MW4 6984   1.182   1.508   3.101  0.2748  0.5666 -0.5274
    1SOL     OW 6985   0.948   1.652   2.995  0.4720  0.3007 -0.1415
    1SOL    HW2 6986   1.012   1.601   3.043 -0.1444 -1.8909 -1.5463
    1SOL    HW3 6987   0.863   1.619   3.025  0.0636  0.3460 -1.2093
    1SOL    MW4 6988   0.945   1.641   3.005  0.3367  0.0175 -0.4678
    1SOL     OW 6989   0.902   1.901   3.104 -0.1957 -0.7920 -0.2048
    1SOL    HW2 6990   0.899   1.893   3.199  2.8687  1.8947  0.2026
    1SOL    HW3 6991   0.918   1.812   3.073 -2.2913 -1.8877  1.6786
    1SOL    MW4 6992   0.903   1.888   3.113 -0.0679 -0.5821  0.0973
    1SOL     OW 6993   1.119   2.047   3.004  0.5273  0.2973 -0.2972
    1SOL    HW2 6994   1.040   2.009   3.043  0.9155  0.9810  1.2118
    1SOL    HW3 6995   1.101   2.049   2.910 -0.9110 -0.3256 -0.0537
    1SOL    MW4 6996   1.106   2.042   2.997  0.3889  0.3054 -0.0660
    1SOL     OW 6997   1.105   2.323   3.081  0.0940  0.2387  0.2254
    1SOL    HW2 6998   1.019   2.354   3.051  0.3092 -0.9412 -1.7261
    1SOL    HW3 6999   1.108   2.231   3.053  2.1534  0.3883 -0.1256
    1SOL    MW4 7000   1.094   2.315   3.073  0.3941  0.1028 -0.0784
    1SOL     OW 7001   0.876   2.467   2.993 -0.4231  0.0119 -0.4022
    1SOL    HW2 7002   0.809   2.403   3.016  0.0484 -0.5072 -0.4573
    1SOL    HW3 7003   0.875   2.471   2.898 -0.3940  0.0273 -0.4020
    1SOL    MW4 7004   0.867   2.459   2.984 -0.3570 -0.0546 -0.4094
    1SOL     OW 7005   0.880   2.722   3.122  0.3164  0.2459 -0.6066
    1SOL    HW2 7006   0.867   2.710   3.217  1.0395  0.6542 -0.4562
    1SOL    HW3 7007   0.883   2.633   3.088 -0.5659  0.1018 -0.3327
    1SOL    MW4 7008   0.878   2.709   3.130  0.2955  0.2809 -0.5503
    1SOL     OW 7009   1.079   2.813   2.978  0.4496  0.4210 -0.0341
    1SOL    HW2 7010   1.106   2.897   3.015  0.4984 -0.1537  1.2344
    1SOL    HW3 7011   1.008   2.783   3.035  0.0117 -0.1200 -0.8452
    1SOL    MW4 7012   1.073   2.820   2.990  0.3983  0.2739  0.0262
    1SOL     OW 7013   1.149   3.058   3.076 -0.3608  0.3502  0.1576
    1SOL    HW2 7014   1.229   3.096   3.041 -0.7623  1.1530  0.0988
    1SOL    HW3 7015   1.080   3.118   3.048 -1.0803 -0.7539 -0.4743
    1SOL    MW4 7016   1.150   3.071   3.067 -0.5089  0.3104  0.0665
    1SOL     OW 7017   0.914   3.200   3.033 -0.0290 -0.2785  0.6270
    1SOL    HW2 7018   0.837   3.148   3.056  0.0855 -0.7173  0.0426
    1SOL    HW3 7019   0.899   3.224   2.941  0.3183  0.0125  0.6470
    1SOL    MW4 7020   0.902   3.197   3.024  0.0320 -0.2983  0.5529
    1SOL     OW 7021   0.900   3.466   3.112  0.4501  0.3648 -0.0817
    1SOL    HW2 7022   0.979   3.502   3.070  0.4102 -0.2601 -0.7112
    1SOL    HW3 7023   0.896   3.375   3.081 -0.9804  0.6306 -0.7202
    1SOL    MW4 7024   0.910   3.458   3.102  0.2561  0.3173 -0.2489
    1SOL     OW 7025   1.090   3.605   2.992  0.0490  0.4057  0.0926
    1SOL    HW2 7026   1.175   3.576   3.023 -0.1249  0.8553  1.0045
    1SOL    HW3 7027   1.077   3.690   3.033 -0.7730  0.4075 -0.1567
    1SOL    MW4 7028   1.099   3.612   3.001 -0.0823  0.4652  0.1802
    1SOL     OW 7029   1.121   3.883   3.093  0.1587  0.4561  0.0419
    1SOL    HW2 7030   1.119   3.880   3.189  0.7014  0.3230  0.0495
    1SOL    HW3 7031   1.043   3.933   3.069  0.8439  1.8231  0.6179
    1SOL    MW4 7032   1.110   3.889   3.103  0.3207  0.6189  0.1187
    1SOL     OW 7033   0.865   4.004   3.009 -0.2102  0.1441 -0.1404
    1SOL    HW2 7034   0.797   3.941   3.034  0.9462 -1.1552 -0.2002
    1SOL    HW3 7035   0.874   3.993   2.915  0.8255 -0.4726  0.0172
    1SOL    MW4 7036   0.857   3.994   3.000  0.0790 -0.1090 -0.1276
    1SOL     OW 7037   0.915   4.281   3.080 -0.2291 -0.1177 -0.0572
    1SOL    HW2 7038   0.895   4.192   3.050 -1.6371 -0.8452  2.8866
    1SOL    HW3 7039   0.834   4.330   3.064 -0.1281  0.1310  0.1848
    1SOL    MW4 7040   0.901   4.276   3.074 -0.4016 -0.1807  0.3631
    1SOL     OW 7041   1.123   4.430   2.984  0.4588  0.2027  0.6335
    1SOL    HW2 7042   1.051   4.378   3.021 -0.2547  0.3855 -0.4751
    1SOL    HW3 7043   1.110   4.518   3.020  0.6784  0.0167  1.1743
    1SOL    MW4 7044   1.112   4.435   2.994  0.3935  0.2017  0.5586
    1SOL     OW 7045   1.586   4.649   3.125  0.3843  0.0340 -0.0942
    1SOL    HW2 7046   1.582   4.633   3.220 -0.4850  1.0457  0.0421
    1SOL    HW3 7047   1.504   4.693   3.105  0.5442 -0.2317 -1.3393
    1SOL    MW4 7048   1.575   4.652   3.135  0.2908  0.1321 -0.2406
    1SOL     OW 7049   1.362   0.116   3.033  0.2475  0.0751  0.0591
    1SOL    HW2 7050   1.375   0.210   3.035  0.6451  0.0054  0.5832
    1SOL    HW3 7051   1.354   0.095   2.939 -0.7905  0.7543 -0.0199
    1SOL    MW4 7052   1.362   0.125   3.021  0.1631  0.1555  0.1180
    1SOL     OW 7053   1.354   0.382   3.089  0.2535  0.0222 -0.3516
    1SOL    HW2 7054   1.350   0.372   3.184 -1.3953  0.5423 -0.3565
    1SOL    HW3 7055   1.441   0.417   3.072  0.3822  0.3823  1.0064
    1SOL    MW4 7056   1.365   0.385   3.100  0.0529  0.1383 -0.1726
    1SOL     OW 7057   1.598   0.489   3.015 -0.3553  0.3926  0.0607
    1SOL    HW2 7058   1.597   0.581   3.041 -0.6176  0.7692 -1.2444
    1SOL    HW3 7059   1.561   0.489   2.927  2.3709 -0.5699 -1.1403
    1SOL    MW4 7060   1.593   0.501   3.007 -0.0304  0.3152 -0.2699
    1SOL     OW 7061   1.604   0.758   3.091  0.1301  0.0809 -0.3436
    1SOL    HW2 7062   1.597   0.772   3.185  0.9709  1.3937 -0.4664
    1SOL    HW3 7063   1.522   0.791   3.055 -0.4871 -1.0679 -0.0120
    1SOL    MW4 7064   1.592   0.764   3.098  0.1596  0.1026 -0.3161
    1SOL     OW 7065   1.368   0.862   3.000  0.4534  0.1367 -0.0020
    1SOL    HW2 7066   1.368   0.948   3.042  0.4113 -0.0770  0.4318
    1SOL    HW3 7067   1.293   0.817   3.038  0.5735 -0.1514 -0.1083
    1SOL    MW4 7068   1.358   0.868   3.010  0.4636  0.0705  0.0412
    1SOL     OW 7069   1.361   1.102   3.148  0.5160 -0.1453 -0.1353
    1SOL    HW2 7070   1.353   1.105   3.243 -0.0431  0.4958 -0.2027
    1SOL    HW3 7071   1.422   1.173   3.127  0.1772  0.0983 -0.3029
    1SOL    MW4 7072   1.368   1.112   3.158  0.3976 -0.0287 -0.1664
    1SOL     OW 7073   1.553   1.268   3.065 -0.1302 -0.0810 -0.0536
    1SOL    HW2 7074   1.636   1.227   3.090  1.3195  2.1008 -1.1134
    1SOL    HW3 7075   1.567   1.361   3.081 -3.1512  0.0933  1.7614
    1SOL    MW4 7076   1.566   1.275   3.070 -0.3375  0.2298  0.0458
    1SOL     OW 7077   1.622   1.530   3.109 -0.0071 -0.0324  0.1484
    1SOL    HW2 7078   1.700   1.571   3.072 -0.4557  1.1240  0.4663
    1SOL    HW3 7079   1.551   1.560   3.053 -0.5421  0.8291  1.2793
    1SOL    MW4 7080   1.623   1.539   3.096 -0.1369  0.2339  0.3395
    1SOL     OW 7081   1.381   1.654   3.006 -0.1029  0.3987  0.2603
    1SOL    HW2 7082   1.365   1.739   3.045  0.1164  0.4256  0.2963
    1SOL    HW3 7083   1.368   1.667   2.912  0.7728  0.6806  0.1733
    1SOL    MW4 7084   1.378   1.667   2.999  0.0416  0.4395  0.2537
    1SOL     OW 7085   1.346   1.912   3.089  0.3752 -0.3274  0.0655
    1SOL    HW2 7086   1.334   1.913   3.184  0.7321 -0.6860  0.1157
    1SOL    HW3 7087   1.266   1.952   3.054  0.1182 -0.4559  0.5021
    1SOL    MW4 7088   1.334   1.917   3.097  0.3884 -0.3916  0.1297
    1SOL     OW 7089   1.574   2.047   3.032  0.1195 -0.2835  0.3778
    1SOL    HW2 7090   1.492   2.000   3.043  0.2301 -0.8288 -0.9992
    1SOL    HW3 7091   1.588   2.049   2.937  1.2315  0.5952  0.5488
    1SOL    MW4 7092   1.565   2.041   3.021  0.2809 -0.2394  0.2186
    1SOL     OW 7093   1.566   2.319   3.126 -0.0993  0.3956  0.8442
    1SOL    HW2 7094   1.497   2.359   3.073  1.8765  1.3066 -1.1211
    1SOL    HW3 7095   1.567   2.227   3.099  1.5624  1.0549 -1.5316
    1SOL    MW4 7096   1.557   2.312   3.115  0.3806  0.6027  0.2713
    1SOL     OW 7097   1.345   2.467   2.979  0.0704 -0.3320 -0.2011
    1SOL    HW2 7098   1.274   2.412   3.014  0.7976 -2.1161 -1.4330
    1SOL    HW3 7099   1.319   2.485   2.889  0.1446  0.8364  0.0106
    1SOL    MW4 7100   1.332   2.462   2.972  0.1761 -0.4132 -0.3357
    1SOL     OW 7101   1.321   2.725   3.084  0.3405 -0.1118 -0.4499
    1SOL    HW2 7102   1.335   2.637   3.049  2.5292  0.0002  0.0810
    1SOL    HW3 7103   1.231   2.746   3.059 -0.2218 -2.4896 -0.5942
    1SOL    MW4 7104   1.311   2.716   3.076  0.5552 -0.4108 -0.3991
    1SOL     OW 7105   1.565   2.839   2.989  0.1373  0.2947 -0.1637
    1SOL    HW2 7106   1.638   2.793   3.032 -0.0083 -1.1521 -1.4226
    1SOL    HW3 7107   1.487   2.798   3.026  0.0050 -0.4512 -1.2605
    1SOL    MW4 7108   1.564   2.828   3.000  0.1006  0.0055 -0.4745
    1SOL     OW 7109   1.615   3.103   3.043 -0.5658  0.3028 -0.0491
    1SOL    HW2 7110   1.588   3.119   3.133  1.8324 -0.0007  0.7531
    1SOL    HW3 7111   1.608   3.008   3.032  1.3381  0.0808  0.5628
    1SOL    MW4 7112   1.611   3.092   3.053  0.0019  0.2334  0.1373
    1SOL     OW 7113   1.368   3.201   2.955  0.1474  0.2840 -0.1559
    1SOL    HW2 7114   1.456   3.176   2.982  0.4643  0.5338 -0.9633
    1SOL    HW3 7115   1.370   3.199   2.860 -0.5983  0.7164 -0.1859
    1SOL    MW4 7116   1.379   3.197   2.946  0.0910  0.3738 -0.2663
    1SOL     OW 7117   1.329   3.457   3.051  0.1540 -0.4756 -0.8564
    1SOL    HW2 7118   1.342   3.452   3.145  0.5783 -0.3161 -0.9047
    1SOL    HW3 7119   1.326   3.366   3.022  0.3907 -0.5207 -0.7387
    1SOL    MW4 7120   1.330   3.444   3.059  0.2414 -0.4606 -0.8471
    1SOL     OW 7121   1.542   3.615   3.012 -0.2155 -0.0277 -0.0703
    1SOL    HW2 7122   1.462   3.568   3.033  0.0017 -0.0515  0.7042
    1SOL    HW3 7123   1.541   3.622   2.916 -1.0255 -0.2188 -0.0791
    1SOL    MW4 7124   1.532   3.610   3.002 -0.2939 -0.0560  0.0308
    1SOL     OW 7125   1.545   3.869   3.106 -0.2720  0.5893  0.0409
    1SOL    HW2 7126   1.631   3.907   3.087 -1.0783  1.9768 -0.9074
    1SOL    HW3 7127   1.554   3.777   3.081  0.8474  0.7925 -0.3432
    1SOL    MW4 7128   1.557   3.862   3.100 -0.2307  0.7994 -0.1349
    1SOL     OW 7129   1.346   4.027   2.986  0.0194  0.3260 -0.2037
    1SOL    HW2 7130   1.428   3.981   3.005  0.0023  0.1657 -0.5216
    1SOL    HW3 7131   1.278   3.971   3.023  0.1019  0.8403  0.7558
    1SOL    MW4 7132   1.348   4.014   2.994  0.0281  0.3724 -0.1190
    1SOL     OW 7133   1.357   4.288   3.053  0.2035  0.2205  0.2702
    1SOL    HW2 7134   1.347   4.194   3.036  1.7954 -0.2001  1.5868
    1SOL    HW3 7135   1.275   4.327   3.020 -0.8663 -1.7184  0.5500
    1SOL    MW4 7136   1.344   4.281   3.046  0.2724 -0.0911  0.4811
    1SOL     OW 7137   1.615   4.392   3.010 -0.1205  0.2458  0.3091
    1SOL    HW2 7138   1.534   4.344   3.025 -1.1784  1.6091 -0.9640
    1SOL    HW3 7139   1.598   4.480   3.041  0.4455  0.8710 -1.1161
    1SOL    MW4 7140   1.602   4.397   3.016 -0.1856  0.5083 -0.0470
    1SOL     OW 7141   2.027   4.617   3.152 -0.1736 -0.0934  0.2219
    1SOL    HW2 7142   2.032   4.615   3.247 -1.0766 -0.7268  0.2538
    1SOL    HW3 7143   1.959   4.681   3.133  0.6157  0.6858 -0.0223
    1SOL    MW4 7144   2.019   4.625   3.162 -0.1884 -0.0749  0.1938
    1SOL     OW 7145   1.829   0.116   3.045 -0.0279  0.8031  0.1612
    1SOL    HW2 7146   1.751   0.064   3.064  0.4240  0.8050  2.0311
    1SOL    HW3 7147   1.829   0.125   2.949 -0.3410 -2.2410 -0.1539
    1SOL    MW4 7148   1.819   0.110   3.035 -0.0097  0.4017  0.3660
    1SOL     OW 7149   1.832   0.391   3.144 -0.1336  0.4421 -0.0313
    1SOL    HW2 7150   1.844   0.302   3.113 -0.7365  0.0827  0.7434
    1SOL    HW3 7151   1.750   0.420   3.104  0.7128  1.1171 -1.3144
    1SOL    MW4 7152   1.823   0.383   3.135 -0.1014  0.4837 -0.0985
    1SOL     OW 7153   2.059   0.489   3.045 -0.5731 -0.1281 -0.4108
    1SOL    HW2 7154   1.983   0.451   3.089 -0.5914  0.0869 -0.2550
    1SOL    HW3 7155   2.132   0.434   3.074 -0.8872 -1.3295 -1.8175
    1SOL    MW4 7156   2.059   0.476   3.055 -0.6170 -0.2583 -0.5758
    1SOL     OW 7157   2.024   0.735   3.173 -0.0084 -0.0214 -0.2392
    1SOL    HW2 7158   1.954   0.790   3.136 -0.8198 -1.1420 -0.3990
    1SOL    HW3 7159   2.014   0.651   3.129 -0.0315 -0.9094  1.4222
    1SOL    MW4 7160   2.013   0.731   3.162 -0.1185 -0.2865 -0.0412
    1SOL     OW 7161   1.826   0.917   3.042 -0.6601  0.7955  0.0794
    1SOL    HW2 7162   1.744   0.875   3.070 -0.9784  0.0969 -1.8433
    1SOL    HW3 7163   1.819   0.923   2.947  0.9544  1.9638  0.0102
    1SOL    MW4 7164   1.814   0.913   3.033 -0.4891  0.8575 -0.1833
    1SOL     OW 7165   1.800   1.168   3.153 -0.6576  0.0376 -0.2805
    1SOL    HW2 7166   1.779   1.153   3.245  2.0969 -0.4243  0.3199
    1SOL    HW3 7167   1.815   1.081   3.117 -0.6388  0.2881 -0.8880
    1SOL    MW4 7168   1.799   1.155   3.160 -0.2918  0.0099 -0.2816
    1SOL     OW 7169   2.013   1.321   3.028  0.1746  0.2020  0.2763
    1SOL    HW2 7170   2.079   1.256   3.052  0.5320  0.4826  0.0402
    1SOL    HW3 7171   1.930   1.283   3.058  0.6028  0.4894  1.8714
    1SOL    MW4 7172   2.011   1.307   3.035  0.2780  0.2770  0.4559
    1SOL     OW 7173   2.050   1.579   3.135 -0.1766 -0.3619  0.3609
    1SOL    HW2 7174   2.016   1.561   3.223 -0.5403 -0.8655  0.1160
    1SOL    HW3 7175   2.061   1.493   3.096  0.0484 -0.1375 -0.0679
    1SOL    MW4 7176   2.047   1.565   3.142 -0.1950 -0.3988  0.2720
    1SOL     OW 7177   1.838   1.647   2.975 -0.0559  0.0542  0.1651
    1SOL    HW2 7178   1.815   1.734   3.008  0.5514  0.0102  0.7087
    1SOL    HW3 7179   1.911   1.619   3.030 -0.4965 -0.9606  0.2495
    1SOL    MW4 7180   1.845   1.655   2.987 -0.0339 -0.0856  0.2480
    1SOL     OW 7181   1.788   1.896   3.103 -0.6563  0.2994 -0.4457
    1SOL    HW2 7182   1.858   1.954   3.072 -0.3215 -0.0537 -0.3468
    1SOL    HW3 7183   1.707   1.944   3.083 -0.3946  0.6411 -0.6942
    1SOL    MW4 7184   1.786   1.910   3.096 -0.5777  0.2979 -0.4654
    1SOL     OW 7185   2.000   2.042   3.006  0.0232  0.5653  0.4005
    1SOL    HW2 7186   2.077   2.002   3.045 -0.5364 -0.7001  0.2436
    1SOL    HW3 7187   1.993   2.129   3.047 -0.2369 -0.5130  2.6989
    1SOL    MW4 7188   2.009   2.048   3.016 -0.0849  0.2558  0.6828
    1SOL     OW 7189   1.984   2.311   3.073 -0.0294  0.1107 -0.3440
    1SOL    HW2 7190   2.061   2.367   3.064 -0.5272  1.0773  1.1883
    1SOL    HW3 7191   1.913   2.360   3.031  0.1246 -0.6924 -1.5836
    1SOL    MW4 7192   1.985   2.324   3.066 -0.0749  0.1323 -0.3054
    1SOL     OW 7193   1.757   2.462   2.971  0.2107 -0.0173  0.3853
    1SOL    HW2 7194   1.759   2.550   3.009  1.5715  0.7420 -1.3742
    1SOL    HW3 7195   1.681   2.420   3.011 -1.3587  2.4799  0.1184
    1SOL    MW4 7196   1.748   2.468   2.981  0.1832  0.4125  0.1180
    1SOL     OW 7197   1.773   2.708   3.107  0.2245 -0.3536 -0.1589
    1SOL    HW2 7198   1.771   2.708   3.203  1.7893 -0.2124 -0.1113
    1SOL    HW3 7199   1.860   2.742   3.085  0.3654 -1.5909 -1.6072
    1SOL    MW4 7200   1.784   2.713   3.117  0.4497 -0.4981 -0.3436
    1SOL     OW 7201   1.997   2.861   2.994  0.3786  0.1639  0.1451
    1SOL    HW2 7202   2.019   2.953   3.011 -1.9935  0.5821  1.2748
    1SOL    HW3 7203   1.999   2.853   2.899  2.8914  0.7677  0.1307
    1SOL    MW4 7204   2.000   2.872   2.984  0.3970  0.2987  0.2925
    1SOL     OW 7205   2.037   3.121   3.056 -0.0672  0.0003  0.2997
    1SOL    HW2 7206   2.010   3.107   3.147 -1.1609  0.5976  0.0663
    1SOL    HW3 7207   1.970   3.178   3.019  0.9921  0.7099 -0.5631
    1SOL    MW4 7208   2.025   3.127   3.063 -0.0720  0.1726  0.1550
    1SOL     OW 7209   1.822   3.252   2.965 -0.7278  0.4104 -0.0363
    1SOL    HW2 7210   1.750   3.196   2.993  0.3316 -0.1810  1.5520
    1SOL    HW3 7211   1.829   3.238   2.871 -0.6923 -1.8581  0.2928
    1SOL    MW4 7212   1.813   3.243   2.956 -0.5835  0.0331  0.2167
    1SOL     OW 7213   1.796   3.506   3.079  0.1740 -0.0567  0.1317
    1SOL    HW2 7214   1.799   3.417   3.044 -1.6701 -0.7186  1.5809
    1SOL    HW3 7215   1.710   3.539   3.054 -0.1211  0.4182  1.7299
    1SOL    MW4 7216   1.785   3.499   3.071 -0.1082 -0.0813  0.5338
    1SOL     OW 7217   2.030   3.606   2.985  0.2489 -0.3660 -0.1970
    1SOL    HW2 7218   2.041   3.701   2.998 -0.8759 -0.1298 -0.9563
    1SOL    HW3 7219   1.940   3.588   3.011  0.9447 -1.5195  1.5098
    1SOL    MW4 7220   2.020   3.616   2.990  0.1922 -0.4871 -0.0722
    1SOL     OW 7221   2.040   3.857   3.085 -0.4188  0.3672  0.3570
    1SOL    HW2 7222   2.039   3.842   3.180 -0.8475 -2.1096  0.0026
    1SOL    HW3 7223   1.958   3.903   3.067 -0.2275  1.0525  1.2233
    1SOL    MW4 7224   2.029   3.861   3.095 -0.4501  0.1307  0.4246
    1SOL     OW 7225   1.785   4.001   3.056  0.3098  0.1211 -0.4054
    1SOL    HW2 7226   1.774   4.090   3.089 -0.8629 -0.5388  1.0041
    1SOL    HW3 7227   1.795   4.012   2.961 -0.3483  1.7040 -0.3055
    1SOL    MW4 7228   1.785   4.014   3.048  0.0683  0.2427 -0.2062
    1SOL     OW 7229   1.787   4.256   3.161 -0.0617  0.2086  0.0147
    1SOL    HW2 7230   1.866   4.299   3.130  0.5040  1.2541  2.7557
    1SOL    HW3 7231   1.716   4.302   3.117  0.7752 -0.1430 -1.7659
    1SOL    MW4 7232   1.788   4.268   3.151  0.1233  0.3004  0.1416
    1SOL     OW 7233   2.005   4.380   3.037 -0.3908 -0.2209 -0.4653
    1SOL    HW2 7234   2.023   4.465   3.077 -1.3245 -0.2345  0.0249
    1SOL    HW3 7235   2.011   4.396   2.943 -1.9268  0.7384 -0.4327
    1SOL    MW4 7236   2.008   4.394   3.030 -0.7169 -0.0963 -0.3965
    1SOL     OW 7237   2.476   4.604   3.114 -0.1006 -0.1100 -0.2462
    1SOL    HW2 7238   2.489   4.537   3.047 -0.7133 -0.1588 -0.3131
    1SOL    HW3 7239   2.402   4.656   3.083  1.0811  1.3068 -0.7482
    1SOL    MW4 7240   2.468   4.602   3.101 -0.0255  0.0701 -0.3211
    1SOL     OW 7241   2.259   0.056   3.029 -0.3312  0.0480 -0.2067
    1SOL    HW2 7242   2.252   0.148   3.052  1.6311 -0.2137  1.5040
    1SOL    HW3 7243   2.183   0.015   3.071 -2.3450  1.1482 -2.6364
    1SOL    MW4 7244   2.248   0.063   3.038 -0.3381  0.1587 -0.3018
    1SOL     OW 7245   2.264   0.327   3.109  0.5092 -0.0298  0.4607
    1SOL    HW2 7246   2.262   0.322   3.205  0.5823  1.2151  0.5284
    1SOL    HW3 7247   2.336   0.387   3.089  0.7355 -0.5719 -0.3860
    1SOL    MW4 7248   2.273   0.334   3.119  0.5486  0.0629  0.3579
    1SOL     OW 7249   2.472   0.489   3.048 -0.4032  0.4538  0.3049
    1SOL    HW2 7250   2.556   0.453   3.076 -0.3851  0.3645  0.1326
    1SOL    HW3 7251   2.468   0.471   2.954 -0.6191  0.4519  0.3158
    1SOL    MW4 7252   2.483   0.482   3.039 -0.4296  0.4418  0.2840
    1SOL     OW 7253   2.467   0.763   3.121  0.3820 -0.4155  0.1011
    1SOL    HW2 7254   2.543   0.801   3.078 -0.0801  0.2679 -0.1184
    1SOL    HW3 7255   2.471   0.670   3.099  2.0550 -0.6738  1.4417
    1SOL    MW4 7256   2.478   0.756   3.112  0.5417 -0.3594  0.2491
    1SOL     OW 7257   2.233   0.861   3.007  0.5005 -0.4783  0.1553
    1SOL    HW2 7258   2.317   0.826   3.036  0.4649 -0.2943  0.4957
    1SOL    HW3 7259   2.168   0.809   3.055  0.4535  0.2018  0.8482
    1SOL    MW4 7260   2.235   0.850   3.017  0.4895 -0.3644  0.2918
    1SOL     OW 7261   2.190   1.118   3.082 -0.1145  0.2805 -0.0636
    1SOL    HW2 7262   2.201   1.114   3.177 -0.6244 -0.5258 -0.0387
    1SOL    HW3 7263   2.213   1.030   3.052 -0.6027  0.3428 -0.6193
    1SOL    MW4 7264   2.195   1.106   3.091 -0.2463  0.1824 -0.1338
    1SOL     OW 7265   2.429   1.264   3.053 -0.2809  0.0650  0.0675
    1SOL    HW2 7266   2.351   1.209   3.066 -1.0943  1.0679 -0.4757
    1SOL    HW3 7267   2.430   1.282   2.959  1.4726 -1.1671 -0.1730
    1SOL    MW4 7268   2.419   1.259   3.042 -0.1569  0.0349 -0.0360
    1SOL     OW 7269   2.505   1.518   3.134  0.1594  0.0093 -0.1682
    1SOL    HW2 7270   2.438   1.558   3.078 -0.4191 -0.1328  0.4135
    1SOL    HW3 7271   2.491   1.424   3.126  0.0326 -0.0099  0.2642
    1SOL    MW4 7272   2.495   1.511   3.125  0.0665 -0.0119 -0.0341
    1SOL     OW 7273   2.292   1.665   3.026  0.3049 -0.3853  0.2574
    1SOL    HW2 7274   2.215   1.630   3.071 -0.1170 -0.7554 -0.7496
    1SOL    HW3 7275   2.261   1.688   2.939  1.0584  0.6073  0.2464
    1SOL    MW4 7276   2.278   1.663   3.020  0.3488 -0.3033  0.1233
    1SOL     OW 7277   2.240   1.943   3.106  0.0286  0.2070 -0.5808
    1SOL    HW2 7278   2.317   1.981   3.063 -0.3053  0.3084 -1.0964
    1SOL    HW3 7279   2.257   1.849   3.106  0.0942  0.2176 -0.8086
    1SOL    MW4 7280   2.253   1.936   3.100 -0.0067  0.2217 -0.6788
    1SOL     OW 7281   2.449   2.067   3.005  0.0410 -0.1456  0.0108
    1SOL    HW2 7282   2.532   2.039   3.043  0.3775  1.4797  0.5375
    1SOL    HW3 7283   2.460   2.054   2.911  1.9262  2.5770 -0.2006
    1SOL    MW4 7284   2.462   2.062   2.998  0.3343  0.4282  0.0522
    1SOL     OW 7285   2.458   2.328   3.084 -0.3981  0.1829 -0.3969
    1SOL    HW2 7286   2.455   2.325   3.180 -0.5561  0.6006 -0.3881
    1SOL    HW3 7287   2.443   2.238   3.056  0.4997 -0.1008 -0.0035
    1SOL    MW4 7288   2.456   2.316   3.093 -0.3006  0.2007 -0.3438
    1SOL     OW 7289   2.214   2.436   3.007  0.5735 -0.7687 -0.4991
    1SOL    HW2 7290   2.209   2.528   3.034 -0.6641 -0.6257 -1.1497
    1SOL    HW3 7291   2.300   2.406   3.037  0.9103  0.5517 -0.1199
    1SOL    MW4 7292   2.225   2.444   3.014  0.4544 -0.5755 -0.5350
    1SOL     OW 7293   2.203   2.698   3.101 -0.0231  0.1147 -0.0582
    1SOL    HW2 7294   2.282   2.748   3.080 -0.4438  0.6835 -0.2728
    1SOL    HW3 7295   2.134   2.739   3.050 -0.5536 -0.0856  0.4925
    1SOL    MW4 7296   2.204   2.710   3.092 -0.1488  0.1631 -0.0136
    1SOL     OW 7297   2.450   2.809   3.042  0.1817  0.0615 -0.1569
    1SOL    HW2 7298   2.440   2.895   3.082 -0.3191 -0.3202  0.5534
    1SOL    HW3 7299   2.453   2.826   2.948  0.3942  0.8768 -0.0082
    1SOL    MW4 7300   2.449   2.823   3.035  0.1438  0.1187 -0.0439
    1SOL     OW 7301   2.491   3.094   3.110 -0.0772 -0.1266  0.0873
    1SOL    HW2 7302   2.583   3.114   3.093  0.3914 -1.2271  1.1987
    1SOL    HW3 7303   2.442   3.166   3.071  1.3659  1.5721  1.3466
    1SOL    MW4 7304   2.496   3.106   3.103  0.1750 -0.0477  0.4001
    1SOL     OW 7305   2.280   3.214   2.989  0.3027  0.4267  0.2773
    1SOL    HW2 7306   2.257   3.300   3.026 -0.4384  0.3222  0.0682
    1SOL    HW3 7307   2.213   3.155   3.023  1.1535 -0.1894  0.8962
    1SOL    MW4 7308   2.268   3.218   2.998  0.3171  0.3316  0.3312
    1SOL     OW 7309   2.264   3.467   3.102 -0.2546 -0.0543  0.3515
    1SOL    HW2 7310   2.338   3.522   3.077  0.7512 -1.1806  0.8167
    1SOL    HW3 7311   2.187   3.514   3.069  0.6504  1.1763 -0.0393
    1SOL    MW4 7312   2.264   3.480   3.094 -0.0029 -0.0403  0.3612
    1SOL     OW 7313   2.492   3.605   3.040 -0.7812  0.2084  0.4233
    1SOL    HW2 7314   2.556   3.559   3.095 -2.5610 -1.6529  1.0017
    1SOL    HW3 7315   2.500   3.697   3.064  0.6540 -0.1893  1.5182
    1SOL    MW4 7316   2.502   3.611   3.050 -0.8266 -0.0899  0.6440
    1SOL     OW 7317   2.511   3.863   3.108 -0.1515  0.2516 -0.1584
    1SOL    HW2 7318   2.510   3.850   3.203  0.4520 -0.8847 -0.2949
    1SOL    HW3 7319   2.598   3.898   3.090 -0.6811  1.5779 -0.1603
    1SOL    MW4 7320   2.523   3.866   3.118 -0.1416  0.2766 -0.1767
    1SOL     OW 7321   2.263   4.003   3.018  0.1626  0.2028 -0.5071
    1SOL    HW2 7322   2.335   3.960   3.063  1.0293  1.5972 -0.5500
    1SOL    HW3 7323   2.185   3.956   3.048  0.8305  0.3874  1.5808
    1SOL    MW4 7324   2.262   3.991   3.028  0.3648  0.4110 -0.2377
    1SOL     OW 7325   2.264   4.278   3.070 -0.1136  0.0833 -0.1338
    1SOL    HW2 7326   2.271   4.184   3.055 -0.1271  0.0416  0.1309
    1SOL    HW3 7327   2.174   4.300   3.047 -0.1975 -0.0204  0.0934
    1SOL    MW4 7328   2.253   4.268   3.065 -0.1264  0.0644 -0.0691
    1SOL     OW 7329   2.490   4.408   2.940 -0.2474  0.5176  0.1282
    1SOL    HW2 7330   2.420   4.353   2.976  0.7970 -0.1624  1.1454
    1SOL    HW3 7331   2.475   4.406   2.845 -0.2213 -1.5184  0.1494
    1SOL    MW4 7332   2.479   4.400   2.932 -0.1061  0.1593  0.2651
    1SOL     OW 7333   2.913   4.633   3.079  0.1206  0.5013 -0.2497
    1SOL    HW2 7334   2.992   4.678   3.050 -0.0870  0.5784 -0.6993
    1SOL    HW3 7335   2.936   4.540   3.077 -0.0238  0.4834 -1.0577
    1SOL    MW4 7336   2.926   4.627   3.075  0.0741  0.5088 -0.4158
    1SOL     OW 7337   2.667   0.102   3.035 -0.1280 -0.2661 -0.1611
    1SOL    HW2 7338   2.755   0.062   3.037 -0.0521 -0.0463  1.8984
    1SOL    HW3 7339   2.609   0.033   3.068 -0.6532 -0.1622 -0.8435
    1SOL    MW4 7340   2.671   0.087   3.040 -0.1874 -0.2234  0.0205
    1SOL     OW 7341   2.695   0.348   3.158  0.3417 -0.2937  0.2828
    1SOL    HW2 7342   2.667   0.257   3.150  0.5593 -0.4522  1.3474
    1SOL    HW3 7343   2.718   0.359   3.250  2.2640  0.2851 -0.2492
    1SOL    MW4 7344   2.694   0.337   3.169  0.6239 -0.2383  0.3533
    1SOL     OW 7345   2.891   0.473   3.000 -0.0003  0.4851 -0.2764
    1SOL    HW2 7346   2.818   0.424   3.036  1.1042 -2.3351 -1.7228
    1SOL    HW3 7347   2.876   0.474   2.905  1.0662  1.1547 -0.4607
    1SOL    MW4 7348   2.880   0.467   2.992  0.2863  0.2014 -0.4916
    1SOL     OW 7349   2.913   0.744   3.100  0.0550 -0.6397  0.1191
    1SOL    HW2 7350   2.911   0.741   3.196 -3.3828  0.9163  0.2113
    1SOL    HW3 7351   2.909   0.653   3.072 -3.2862 -1.0035  1.5542
    1SOL    MW4 7352   2.912   0.732   3.109 -0.8392 -0.4823  0.3207
    1SOL     OW 7353   2.679   0.881   3.016  0.3256  0.0935 -0.6081
    1SOL    HW2 7354   2.681   0.964   3.064  0.5474 -0.2538 -0.0091
    1SOL    HW3 7355   2.751   0.830   3.054  1.2939  0.2788 -2.1498
    1SOL    MW4 7356   2.689   0.886   3.027  0.4826  0.0721 -0.7324
    1SOL     OW 7357   2.684   1.136   3.127  0.3041 -0.2983 -0.8412
    1SOL    HW2 7358   2.762   1.170   3.084  0.6177 -0.3908 -0.3540
    1SOL    HW3 7359   2.614   1.196   3.101  0.7964  0.5604 -0.2268
    1SOL    MW4 7360   2.685   1.149   3.118  0.4106 -0.1971 -0.6959
    1SOL     OW 7361   2.925   1.257   3.020  0.4128 -0.3725 -0.2943
    1SOL    HW2 7362   2.992   1.220   3.078  0.6382  1.5994  0.7421
    1SOL    HW3 7363   2.904   1.342   3.058  0.3734  0.8696 -2.9757
    1SOL    MW4 7364   2.931   1.264   3.032  0.4373  0.0517 -0.5112
    1SOL     OW 7365   2.903   1.516   3.101  0.4633  0.3528 -0.1466
    1SOL    HW2 7366   2.907   1.521   3.196  0.3088 -0.0972 -0.1148
    1SOL    HW3 7367   2.991   1.539   3.072  0.7363 -0.3224  0.1425
    1SOL    MW4 7368   2.915   1.520   3.110  0.4790  0.2043 -0.1044
    1SOL     OW 7369   2.714   1.682   3.024 -0.6965  0.1171  0.2586
    1SOL    HW2 7370   2.789   1.624   3.038  0.2774  1.0197 -1.1231
    1SOL    HW3 7371   2.640   1.633   3.060  0.3081 -1.4263  0.3116
    1SOL    MW4 7372   2.714   1.668   3.031 -0.4356  0.0325  0.0832
    1SOL     OW 7373   2.694   1.926   3.144 -0.1898  0.6194  0.6099
    1SOL    HW2 7374   2.765   1.977   3.103 -0.6640 -0.1118 -1.1769
    1SOL    HW3 7375   2.705   1.837   3.108 -2.4664  0.6703 -0.2896
    1SOL    MW4 7376   2.705   1.921   3.134 -0.5527  0.5296  0.2553
    1SOL     OW 7377   2.923   2.046   3.004  0.6101 -0.0097 -0.2576
    1SOL    HW2 7378   2.924   2.135   3.039 -0.1213 -0.1350  0.0847
    1SOL    HW3 7379   2.905   2.058   2.910  1.8381  0.2762 -0.4660
    1SOL    MW4 7380   2.921   2.059   2.996  0.6759  0.0112 -0.2401
    1SOL     OW 7381   2.877   2.304   3.118  0.1961 -0.1547 -0.0795
    1SOL    HW2 7382   2.952   2.351   3.083  0.8460  0.6799  2.2992
    1SOL    HW3 7383   2.801   2.346   3.076  1.0003 -0.3689 -1.7652
    1SOL    MW4 7384   2.877   2.316   3.108  0.3879 -0.0727  0.0119
    1SOL     OW 7385   2.691   2.440   2.986 -0.0676  0.2848 -0.1283
    1SOL    HW2 7386   2.682   2.520   3.038  1.7027  0.9185 -0.7606
    1SOL    HW3 7387   2.615   2.387   3.011 -0.4867  1.5436  1.3806
    1SOL    MW4 7388   2.680   2.444   2.996  0.1106  0.5343 -0.0126
    1SOL     OW 7389   2.692   2.687   3.127 -0.2994 -0.1322 -0.2456
    1SOL    HW2 7390   2.678   2.705   3.220 -1.5681 -0.7262 -0.3077
    1SOL    HW3 7391   2.614   2.724   3.084 -0.0052 -0.3921 -1.0069
    1SOL    MW4 7392   2.680   2.694   3.133 -0.4284 -0.2446 -0.3548
    1SOL     OW 7393   2.908   2.826   3.017  0.5494  0.5901  0.2502
    1SOL    HW2 7394   2.986   2.773   3.035  0.1499 -0.1169 -0.0855
    1SOL    HW3 7395   2.836   2.780   3.061  0.0204  0.2971 -0.9061
    1SOL    MW4 7396   2.909   2.813   3.025  0.4270  0.4580  0.0534
    1SOL     OW 7397   2.986   3.069   3.127  0.1203 -0.2658 -0.2856
    1SOL    HW2 7398   2.907   3.121   3.112 -0.7110 -1.5656 -0.4552
    1SOL    HW3 7399   2.965   2.982   3.094  1.9003 -0.4386 -1.0401
    1SOL    MW4 7400   2.973   3.064   3.121  0.2453 -0.4601 -0.4075
    1SOL     OW 7401   2.750   3.213   3.060 -0.3764 -0.0179 -0.1065
    1SOL    HW2 7402   2.765   3.301   3.095  1.3989 -0.0161 -0.8567
    1SOL    HW3 7403   2.746   3.225   2.965 -0.8744 -0.6460 -0.1673
    1SOL    MW4 7404   2.751   3.226   3.052 -0.2081 -0.1004 -0.2136
    1SOL     OW 7405   2.724   3.482   3.169  0.3061  0.0064 -0.2017
    1SOL    HW2 7406   2.727   3.482   3.265 -0.6392  0.5678 -0.1642
    1SOL    HW3 7407   2.801   3.532   3.142  0.1351  0.5377  0.2882
    1SOL    MW4 7408   2.735   3.489   3.178  0.1590  0.1507 -0.1321
    1SOL     OW 7409   2.952   3.585   3.046  0.1348 -0.2519  0.5568
    1SOL    HW2 7410   3.031   3.534   3.065  0.4367 -0.5047 -1.3396
    1SOL    HW3 7411   2.971   3.672   3.081  2.3848  0.4736 -2.3145
    1SOL    MW4 7412   2.965   3.590   3.053  0.4714 -0.1898 -0.0722
    1SOL     OW 7413   2.979   3.863   3.106 -0.1607 -0.1800  0.0198
    1SOL    HW2 7414   2.995   3.872   3.200  0.9844 -0.2077 -0.1625
    1SOL    HW3 7415   2.893   3.901   3.092 -0.7739 -1.0682  1.2417
    1SOL    MW4 7416   2.970   3.869   3.116 -0.0906 -0.3011  0.1569
    1SOL     OW 7417   2.748   3.984   3.054  0.6768  0.2229  0.4930
    1SOL    HW2 7418   2.713   4.067   3.087 -0.2205  0.3168 -0.6581
    1SOL    HW3 7419   2.736   3.989   2.959  1.6764 -0.7467  0.3080
    1SOL    MW4 7420   2.742   3.996   3.046  0.6905  0.1073  0.3166
    1SOL     OW 7421   2.652   4.229   3.124 -0.3020 -0.2289 -0.2280
    1SOL    HW2 7422   2.621   4.239   3.214  0.2410 -0.3014 -0.0344
    1SOL    HW3 7423   2.597   4.290   3.073 -1.0557 -0.6761  0.0482
    1SOL    MW4 7424   2.640   4.239   3.129 -0.3300 -0.2971 -0.1659
    1SOL     OW 7425   2.915   4.357   3.055 -0.4082 -0.2990  0.0471
    1SOL    HW2 7426   3.001   4.336   3.091 -0.6271  0.4013  1.0049
    1SOL    HW3 7427   2.855   4.296   3.097 -0.2887 -1.2392 -1.1314
    1SOL    MW4 7428   2.918   4.346   3.065 -0.4213 -0.3309  0.0181
    1SOL     OW 7429   3.354   0.027   3.115 -0.2282 -0.1867 -0.0667
    1SOL    HW2 7430   3.424   0.078   3.075 -0.8628 -1.3472 -2.7350
    1SOL    HW3 7431   3.380  -0.065   3.103 -0.5257 -0.5988  2.0719
    1SOL    MW4 7432   3.366   0.021   3.108 -0.3512 -0.3939 -0.1364
    1SOL     OW 7433   3.122   0.126   2.997 -0.5194  0.2249  0.0062
    1SOL    HW2 7434   3.117   0.208   3.047 -2.6524 -1.5903  2.9697
    1SOL    HW3 7435   3.192   0.076   3.040 -0.5513 -0.2995 -0.5400
    1SOL    MW4 7436   3.130   0.130   3.010 -0.8047 -0.0838  0.3252
    1SOL     OW 7437   3.100   0.371   3.133 -0.6308  0.3688  0.0558
    1SOL    HW2 7438   3.182   0.412   3.103 -0.6304  0.3916  0.0889
    1SOL    HW3 7439   3.031   0.419   3.087 -0.5979 -0.0274 -0.4158
    1SOL    MW4 7440   3.102   0.382   3.123 -0.6263  0.3195 -0.0019
    1SOL     OW 7441   3.303   0.488   2.965 -0.0439  0.1157  0.0131
    1SOL    HW2 7442   3.393   0.461   2.983 -0.2622 -1.3760 -1.0751
    1SOL    HW3 7443   3.299   0.497   2.870 -1.2237 -0.4731 -0.0018
    1SOL    MW4 7444   3.314   0.486   2.955 -0.2282 -0.1588 -0.1323
    1SOL     OW 7445   3.345   0.758   3.079 -0.1549  0.8692  0.5292
    1SOL    HW2 7446   3.340   0.758   3.175  0.6449 -1.1013  0.6030
    1SOL    HW3 7447   3.353   0.665   3.056  3.2439  1.5197 -1.2377
    1SOL    MW4 7448   3.345   0.746   3.089  0.3989  0.6950  0.3057
    1SOL     OW 7449   3.125   0.918   2.995  0.6092  0.2189 -0.1877
    1SOL    HW2 7450   3.206   0.868   3.003  0.4444 -0.5362 -2.6459
    1SOL    HW3 7451   3.057   0.858   3.027  0.8219  0.2316  0.2969
    1SOL    MW4 7452   3.127   0.903   3.000  0.6156  0.1210 -0.4485
    1SOL     OW 7453   3.130   1.137   3.160  0.1456 -0.2760  0.0884
    1SOL    HW2 7454   3.204   1.186   3.124 -0.7426 -0.1742 -1.6269
    1SOL    HW3 7455   3.126   1.058   3.108  0.2579 -1.2207  1.4891
    1SOL    MW4 7456   3.139   1.133   3.149  0.0434 -0.3871  0.0470
    1SOL     OW 7457   3.364   1.240   3.029 -0.3690  0.3172 -0.1980
    1SOL    HW2 7458   3.441   1.199   3.067 -0.0232  1.2823  0.1593
    1SOL    HW3 7459   3.357   1.325   3.073 -1.0290  0.6783 -0.9665
    1SOL    MW4 7460   3.373   1.246   3.039 -0.4106  0.4921 -0.2518
    1SOL     OW 7461   3.356   1.496   3.111  0.0074  0.3805  0.3518
    1SOL    HW2 7462   3.354   1.498   3.207 -0.9659 -0.3168  0.3537
    1SOL    HW3 7463   3.442   1.530   3.088  0.8474 -0.9479  1.5214
    1SOL    MW4 7464   3.367   1.501   3.120 -0.0103  0.1132  0.5064
    1SOL     OW 7465   3.146   1.612   2.985 -0.2266 -0.6937  0.8797
    1SOL    HW2 7466   3.225   1.579   3.029 -0.1019 -0.2350  1.0034
    1SOL    HW3 7467   3.135   1.701   3.019 -0.9075 -0.8226  1.0034
    1SOL    MW4 7468   3.155   1.620   2.995 -0.3002 -0.6500  0.9124
    1SOL     OW 7469   3.132   1.862   3.088 -0.4888 -0.0867 -0.3604
    1SOL    HW2 7470   3.150   1.890   3.178 -0.7878 -0.5010 -0.1707
    1SOL    HW3 7471   3.062   1.920   3.058 -0.3452  0.0933 -0.3443
    1SOL    MW4 7472   3.125   1.873   3.096 -0.5090 -0.1177 -0.3331
    1SOL     OW 7473   3.346   2.025   3.036 -0.3912 -0.1231 -0.2049
    1SOL    HW2 7474   3.423   1.976   3.064 -0.3942  0.1008  0.1924
    1SOL    HW3 7475   3.272   1.975   3.070 -0.3799  0.4997  0.7718
    1SOL    MW4 7476   3.346   2.012   3.044 -0.3903 -0.0114 -0.0236
    1SOL     OW 7477   3.381   2.292   3.099  0.7333 -0.1500 -0.1653
    1SOL    HW2 7478   3.378   2.285   3.195  2.1361 -0.1719 -0.1022
    1SOL    HW3 7479   3.389   2.202   3.069  1.8651 -0.0483 -0.2088
    1SOL    MW4 7480   3.382   2.279   3.108  1.0674 -0.1397 -0.1626
    1SOL     OW 7481   3.136   2.409   3.034 -0.0061 -0.4943 -0.0242
    1SOL    HW2 7482   3.223   2.372   3.052  0.8120  0.3987 -1.9599
    1SOL    HW3 7483   3.144   2.501   3.058 -0.9045 -0.7419  1.2573
    1SOL    MW4 7484   3.149   2.416   3.040 -0.0165 -0.4091 -0.1104
    1SOL     OW 7485   3.135   2.673   3.108 -0.0124  0.1576  0.0333
    1SOL    HW2 7486   3.207   2.727   3.078  0.3160 -0.0111  0.5034
    1SOL    HW3 7487   3.145   2.670   3.203  0.3210 -1.1932 -0.0267
    1SOL    MW4 7488   3.146   2.679   3.117  0.0751 -0.0427  0.0877
    1SOL     OW 7489   3.361   2.829   3.027 -0.0788  0.2632  0.1564
    1SOL    HW2 7490   3.432   2.774   3.059  1.2456  0.7728 -1.8330
    1SOL    HW3 7491   3.392   2.918   3.039  0.1754  0.4636 -1.9461
    1SOL    MW4 7492   3.374   2.833   3.033  0.1297  0.3569 -0.3834
    1SOL     OW 7493   3.425   3.073   3.101 -0.2910 -0.7620 -0.0052
    1SOL    HW2 7494   3.345   3.109   3.064  0.3074 -0.2604 -0.8210
    1SOL    HW3 7495   3.406   3.064   3.195 -1.2321 -0.4758 -0.1665
    1SOL    MW4 7496   3.412   3.077   3.109 -0.3364 -0.6580 -0.1340
    1SOL     OW 7497   3.206   3.179   2.995 -0.5107  0.6643  0.0225
    1SOL    HW2 7498   3.123   3.136   3.016 -0.4793  0.6298  0.0741
    1SOL    HW3 7499   3.190   3.219   2.909 -0.5665  0.6211  0.0126
    1SOL    MW4 7500   3.193   3.179   2.986 -0.5140  0.6537  0.0281
    1SOL     OW 7501   3.184   3.406   3.145  0.0433  0.5931 -0.2300
    1SOL    HW2 7502   3.235   3.459   3.083  1.9033 -0.1771  0.6163
    1SOL    HW3 7503   3.165   3.326   3.096  2.6922 -0.6000  0.5912
    1SOL    MW4 7504   3.189   3.403   3.130  0.6382  0.3340 -0.0103
    1SOL     OW 7505   3.351   3.589   2.992 -0.3367 -0.2685 -0.0074
    1SOL    HW2 7506   3.431   3.549   3.026 -2.2679 -1.7781  3.0480
    1SOL    HW3 7507   3.346   3.674   3.035 -0.0409  0.0926 -0.6907
    1SOL    MW4 7508   3.361   3.595   3.002 -0.5524 -0.4201  0.3057
    1SOL     OW 7509   3.391   3.842   3.097 -0.5450 -0.2693 -0.5586
    1SOL    HW2 7510   3.390   3.836   3.192  0.3801 -0.6744 -0.5686
    1SOL    HW3 7511   3.325   3.907   3.076 -0.2660  0.3218  0.3973
    1SOL    MW4 7512   3.382   3.849   3.107 -0.3862 -0.2449 -0.4337
    1SOL     OW 7513   3.182   4.023   3.045 -0.7747  0.2994 -0.3741
    1SOL    HW2 7514   3.109   3.972   3.081 -0.0848 -1.0686 -0.8813
    1SOL    HW3 7515   3.173   4.012   2.950 -0.3806  0.7889 -0.4652
    1SOL    MW4 7516   3.171   4.015   3.037 -0.6318  0.1836 -0.4532
    1SOL     OW 7517   3.168   4.280   3.160  0.2347  0.0960  0.1331
    1SOL    HW2 7518   3.156   4.259   3.253  0.1475 -0.2955  0.0326
    1SOL    HW3 7519   3.198   4.198   3.120  2.0833  0.7308  0.1504
    1SOL    MW4 7520   3.171   4.267   3.167  0.4673  0.1287  0.1221
    1SOL     OW 7521   3.384   4.416   3.046  0.4538  0.7103  0.2533
    1SOL    HW2 7522   3.457   4.361   3.074  0.5747  0.9123  0.3412
    1SOL    HW3 7523   3.310   4.388   3.099  0.3184  0.0935 -0.2614
    1SOL    MW4 7524   3.384   4.405   3.057  0.4518  0.6557  0.1972
    1SOL     OW 7525   3.811   4.641   3.120 -0.1608  0.4886 -0.2247
    1SOL    HW2 7526   3.820   4.555   3.078  1.1242  1.1376 -1.3018
    1SOL    HW3 7527   3.735   4.680   3.077 -0.0633  0.3403 -0.5381
    1SOL    MW4 7528   3.802   4.635   3.109  0.0215  0.5546 -0.4082
    1SOL     OW 7529   3.594   0.110   3.012  0.9180 -0.4682  0.0316
    1SOL    HW2 7530   3.573   0.203   3.014 -0.7202 -0.8232  0.3756
    1SOL    HW3 7531   3.601   0.088   2.919 -0.3572 -0.3569 -0.0901
    1SOL    MW4 7532   3.592   0.119   3.000  0.5338 -0.5004  0.0608
    1SOL     OW 7533   3.548   0.394   3.074 -0.4593 -0.0808 -0.5619
    1SOL    HW2 7534   3.539   0.388   3.169  0.0581 -1.1289 -0.5703
    1SOL    HW3 7535   3.628   0.446   3.061 -0.9490  0.7091 -0.4330
    1SOL    MW4 7536   3.558   0.400   3.084 -0.4559 -0.1149 -0.5457
    1SOL     OW 7537   3.806   0.508   2.988 -0.2531  0.1476  0.3903
    1SOL    HW2 7538   3.868   0.455   3.039  0.1433  1.4293  1.2917
    1SOL    HW3 7539   3.797   0.588   3.040 -0.5410  1.1090 -1.1389
    1SOL    MW4 7540   3.813   0.511   3.002 -0.2389  0.4435  0.3078
    1SOL     OW 7541   3.803   0.748   3.115  0.6049  0.2029  0.0305
    1SOL    HW2 7542   3.793   0.748   3.211  0.8746 -1.4553  0.0781
    1SOL    HW3 7543   3.878   0.806   3.099  1.2941 -0.4171  0.9255
    1SOL    MW4 7544   3.812   0.756   3.126  0.7312 -0.0976  0.1547
    1SOL     OW 7545   3.577   0.871   3.007  0.0291 -0.2444 -0.3255
    1SOL    HW2 7546   3.650   0.822   3.045 -0.0043 -0.8289 -0.9970
    1SOL    HW3 7547   3.499   0.828   3.043  0.0064 -0.3543 -0.5033
    1SOL    MW4 7548   3.577   0.859   3.016  0.0217 -0.3362 -0.4373
    1SOL     OW 7549   3.600   1.116   3.132 -0.1940 -0.1863  0.1867
    1SOL    HW2 7550   3.673   1.159   3.089 -0.2958  1.3431  1.4888
    1SOL    HW3 7551   3.597   1.029   3.094 -0.2822  1.1124 -2.8624
    1SOL    MW4 7552   3.609   1.110   3.122 -0.2189  0.1868 -0.0439
    1SOL     OW 7553   3.815   1.223   2.996  0.1373  0.2973 -0.4766
    1SOL    HW2 7554   3.815   1.306   3.044  2.0352  1.0627 -1.7345
    1SOL    HW3 7555   3.809   1.247   2.904 -0.8570 -1.0491 -0.7900
    1SOL    MW4 7556   3.814   1.237   2.990  0.2563  0.2207 -0.6838
    1SOL     OW 7557   3.822   1.454   3.136 -0.4314  0.0374  0.9320
    1SOL    HW2 7558   3.820   1.474   3.230  0.7878  2.5434  0.4923
    1SOL    HW3 7559   3.744   1.497   3.101 -0.5458 -0.3561  0.7012
    1SOL    MW4 7560   3.812   1.463   3.143 -0.2854  0.3159  0.8435
    1SOL     OW 7561   3.586   1.589   3.025  0.2572 -0.1124 -0.2653
    1SOL    HW2 7562   3.583   1.680   3.054 -1.4939 -0.3281  0.2870
    1SOL    HW3 7563   3.581   1.594   2.930  0.2470  0.3630 -0.2412
    1SOL    MW4 7564   3.585   1.602   3.016  0.0248 -0.0781 -0.1891
    1SOL     OW 7565   3.555   1.868   3.111 -0.1806  0.1622  0.1639
    1SOL    HW2 7566   3.573   1.881   3.204  0.9676 -0.2466  0.0085
    1SOL    HW3 7567   3.623   1.917   3.066 -0.3699 -0.1450 -0.4655
    1SOL    MW4 7568   3.566   1.876   3.117 -0.0539  0.0676  0.0603
    1SOL     OW 7569   3.753   2.038   2.999 -0.2853  0.1254 -0.2035
    1SOL    HW2 7570   3.786   2.117   3.041  0.7619 -0.3255 -0.1516
    1SOL    HW3 7571   3.766   2.053   2.905  0.3831 -0.1822 -0.1645
    1SOL    MW4 7572   3.760   2.050   2.992 -0.0587  0.0250 -0.1915
    1SOL     OW 7573   3.831   2.284   3.086  0.5135  0.0476  0.1359
    1SOL    HW2 7574   3.840   2.287   3.181 -0.8441  0.2555  0.2635
    1SOL    HW3 7575   3.748   2.328   3.068 -0.1517 -1.6022 -1.0011
    1SOL    MW4 7576   3.821   2.290   3.096  0.2465 -0.1426  0.0029
    1SOL     OW 7577   3.608   2.417   3.014 -0.4506  0.0724 -0.2150
    1SOL    HW2 7578   3.606   2.507   3.047  0.3133 -0.6787  1.9526
    1SOL    HW3 7579   3.532   2.375   3.054 -0.3758 -0.4542 -0.6227
    1SOL    MW4 7580   3.598   2.423   3.024 -0.3400 -0.0958  0.0172
    1SOL     OW 7581   3.578   2.681   3.105 -0.0171 -0.4412 -0.1362
    1SOL    HW2 7582   3.577   2.673   3.201 -0.1575 -1.4047 -0.2113
    1SOL    HW3 7583   3.657   2.731   3.086 -1.1050  1.6169  0.6112
    1SOL    MW4 7584   3.589   2.686   3.115 -0.1793 -0.2968 -0.0472
    1SOL     OW 7585   3.815   2.813   3.023  0.2780 -0.0225 -0.0360
    1SOL    HW2 7586   3.827   2.902   3.056 -0.0687  0.0646 -0.1441
    1SOL    HW3 7587   3.823   2.821   2.928 -1.0855  0.1164 -0.1496
    1SOL    MW4 7588   3.817   2.826   3.015  0.0525  0.0076 -0.0653
    1SOL     OW 7589   3.883   3.047   3.145 -0.1054  0.0830  0.0717
    1SOL    HW2 7590   3.954   3.098   3.104 -0.4196  1.1248  0.8083
    1SOL    HW3 7591   3.804   3.097   3.125 -0.3817  0.0340  1.0386
    1SOL    MW4 7592   3.882   3.061   3.137 -0.1833  0.2139  0.2964
    1SOL     OW 7593   3.665   3.201   3.075 -0.4082  0.6673 -0.1311
    1SOL    HW2 7594   3.599   3.135   3.097 -0.8410  1.2424  0.3052
    1SOL    HW3 7595   3.657   3.211   2.980 -0.5621  0.3228 -0.1563
    1SOL    MW4 7596   3.655   3.194   3.065 -0.4857  0.6979 -0.0768
    1SOL     OW 7597   3.587   3.484   3.108 -0.7329  0.0125 -0.0072
    1SOL    HW2 7598   3.653   3.548   3.080 -0.6509  0.6358  1.5470
    1SOL    HW3 7599   3.629   3.399   3.094 -0.4087  0.3284 -1.0209
    1SOL    MW4 7600   3.601   3.481   3.103 -0.6790  0.1364  0.0641
    1SOL     OW 7601   3.820   3.611   3.035 -0.1702  0.1687 -0.3978
    1SOL    HW2 7602   3.836   3.702   3.060  0.3223 -0.0818  0.1951
    1SOL    HW3 7603   3.835   3.609   2.940  1.3905  0.3563 -0.1581
    1SOL    MW4 7604   3.824   3.622   3.026  0.1006  0.1602 -0.2878
    1SOL     OW 7605   3.830   3.888   3.071 -0.3246  0.0001 -0.0793
    1SOL    HW2 7606   3.840   3.898   3.166  1.0486  0.3646 -0.2523
    1SOL    HW3 7607   3.741   3.918   3.053 -1.2952 -1.9092  1.3426
    1SOL    MW4 7608   3.820   3.894   3.081 -0.2716 -0.2036  0.0854
    1SOL     OW 7609   3.586   3.996   3.002  0.2082 -0.5252  0.0826
    1SOL    HW2 7610   3.513   3.935   3.018 -0.3389  0.0467 -0.2373
    1SOL    HW3 7611   3.600   3.992   2.907  0.9312 -1.0156  0.2060
    1SOL    MW4 7612   3.578   3.987   2.992  0.2313 -0.5147  0.0567
    1SOL     OW 7613   3.592   4.237   3.141  0.2218 -0.5322 -0.5532
    1SOL    HW2 7614   3.650   4.298   3.097  1.5968 -1.5622 -0.1977
    1SOL    HW3 7615   3.609   4.153   3.099 -0.6159 -0.9545 -0.0698
    1SOL    MW4 7616   3.602   4.234   3.130  0.2925 -0.7238 -0.4427
    1SOL     OW 7617   3.803   4.386   3.024 -0.2992 -0.2802 -0.1619
    1SOL    HW2 7618   3.870   4.322   3.047 -0.3180 -0.7259 -1.2650
    1SOL    HW3 7619   3.800   4.383   2.928 -0.6781  0.9911 -0.1949
    1SOL    MW4 7620   3.811   4.377   3.014 -0.3519 -0.1717 -0.3119
    1SOL     OW 7621   4.257   0.014   3.109  0.5373  0.3605 -0.1654
    1SOL    HW2 7622   4.247   0.030   3.203 -0.3513 -0.7867 -0.0480
    1SOL    HW3 7623   4.267  -0.081   3.102  0.0596  0.3852 -1.2622
    1SOL    MW4 7624   4.257   0.003   3.120  0.3567  0.2127 -0.2947
    1SOL     OW 7625   4.006   0.108   2.985 -0.2880  0.5365  0.2265
    1SOL    HW2 7626   4.087   0.073   3.023 -1.1576  0.0388  1.6757
    1SOL    HW3 7627   3.936   0.059   3.029 -1.3283 -0.2026 -2.1974
    1SOL    MW4 7628   4.007   0.097   2.996 -0.5398  0.3733  0.0978
    1SOL     OW 7629   3.993   0.351   3.107 -0.0767 -0.0451  0.3971
    1SOL    HW2 7630   4.076   0.391   3.079 -0.7744 -0.1275 -1.8964
    1SOL    HW3 7631   3.989   0.269   3.058 -1.9827  0.4315 -0.2754
    1SOL    MW4 7632   4.003   0.346   3.097 -0.4206  0.0069  0.0057
    1SOL     OW 7633   4.237   0.479   3.037 -0.4329 -0.2996 -0.5645
    1SOL    HW2 7634   4.245   0.571   3.065  0.8631 -0.6584  0.3142
    1SOL    HW3 7635   4.253   0.482   2.943 -0.4382  0.3871 -0.5496
    1SOL    MW4 7636   4.240   0.492   3.028 -0.2618 -0.2563 -0.4463
    1SOL     OW 7637   4.267   0.736   3.135 -0.0342 -0.2806  0.2193
    1SOL    HW2 7638   4.192   0.781   3.098 -0.2059  0.6595  1.6640
    1SOL    HW3 7639   4.343   0.787   3.105 -0.1771  0.5259  1.1840
    1SOL    MW4 7640   4.267   0.749   3.126 -0.0758 -0.0502  0.5372
    1SOL     OW 7641   4.044   0.853   3.037 -0.2314 -0.1285  0.0686
    1SOL    HW2 7642   4.055   0.942   3.070  1.0373 -0.3619  0.3128
    1SOL    HW3 7643   4.038   0.864   2.942 -1.4478  0.3287  0.1919
    1SOL    MW4 7644   4.045   0.866   3.029 -0.2246 -0.0989  0.1171
    1SOL     OW 7645   4.061   1.109   3.122 -0.2719 -0.5462  0.2224
    1SOL    HW2 7646   4.058   1.121   3.217 -0.5000 -1.3226  0.3158
    1SOL    HW3 7647   3.990   1.165   3.088 -0.3077 -0.4108  0.5197
    1SOL    MW4 7648   4.051   1.118   3.130 -0.3066 -0.6307  0.2742
    1SOL     OW 7649   4.266   1.282   3.011  0.2092  0.5530  0.6528
    1SOL    HW2 7650   4.200   1.223   3.047 -0.7427  1.9073  1.1403
    1SOL    HW3 7651   4.258   1.273   2.916 -0.6318  0.6683  0.7146
    1SOL    MW4 7652   4.256   1.273   3.004 -0.0272  0.7468  0.7253
    1SOL     OW 7653   4.265   1.545   3.121 -0.2191  0.3413 -0.1144
    1SOL    HW2 7654   4.191   1.579   3.072  0.4570 -0.7689 -1.9926
    1SOL    HW3 7655   4.268   1.451   3.099  0.3984 -0.0902  1.6888
    1SOL    MW4 7656   4.256   1.537   3.111 -0.0482  0.1378 -0.1245
    1SOL     OW 7657   4.026   1.634   3.009 -0.0927 -0.0131 -0.1295
    1SOL    HW2 7658   4.013   1.723   3.040 -0.0275 -0.0550  0.0168
    1SOL    HW3 7659   3.957   1.583   3.050  0.0861 -0.0972  0.0691
    1SOL    MW4 7660   4.015   1.639   3.018 -0.0601 -0.0298 -0.0839
    1SOL     OW 7661   3.996   1.901   3.088  0.3060  0.3602  0.4324
    1SOL    HW2 7662   4.071   1.951   3.055 -0.0261  0.8214  0.3732
    1SOL    HW3 7663   3.920   1.944   3.049  0.0392 -0.4273  0.0744
    1SOL    MW4 7664   3.996   1.913   3.078  0.2272  0.3170  0.3772
    1SOL     OW 7665   4.252   2.033   3.007  0.0407  0.7518 -0.2187
    1SOL    HW2 7666   4.247   2.119   3.050  1.5341  1.5465 -1.5612
    1SOL    HW3 7667   4.243   2.052   2.914  1.0739 -0.4696 -0.5813
    1SOL    MW4 7668   4.250   2.047   3.001  0.3734  0.6952 -0.4437
    1SOL     OW 7669   4.253   2.284   3.121  0.0612  0.2689  0.0246
    1SOL    HW2 7670   4.180   2.344   3.110  0.9075  1.5545  1.1463
    1SOL    HW3 7671   4.330   2.336   3.099  0.7900 -0.4480  0.8405
    1SOL    MW4 7672   4.254   2.299   3.117  0.2689  0.3440  0.2799
    1SOL     OW 7673   4.064   2.438   3.000  0.6669 -0.0958  0.2868
    1SOL    HW2 7674   4.050   2.529   3.024  1.7300  0.4387 -1.0482
    1SOL    HW3 7675   3.978   2.397   3.010 -0.3370  1.5514 -1.1771
    1SOL    MW4 7676   4.051   2.445   3.004  0.6747  0.1922 -0.0825
    1SOL     OW 7677   4.038   2.700   3.127  0.3340 -0.0649  0.0381
    1SOL    HW2 7678   4.036   2.717   3.221 -1.1992 -2.9695  0.6153
    1SOL    HW3 7679   3.956   2.737   3.094  0.2670 -0.1719  0.0834
    1SOL    MW4 7680   4.027   2.707   3.135  0.1230 -0.4623  0.1202
    1SOL     OW 7681   4.261   2.778   2.983  0.3671  0.1209 -0.2771
    1SOL    HW2 7682   4.190   2.761   3.044  0.9204 -0.1958  0.2803
    1SOL    HW3 7683   4.336   2.733   3.021  0.7915  0.2020 -1.0192
    1SOL    MW4 7684   4.261   2.770   2.996  0.4959  0.0896 -0.3014
    1SOL     OW 7685   4.290   3.043   3.082  0.3501 -0.4637  0.2264
    1SOL    HW2 7686   4.222   3.099   3.045  2.0438  0.3463 -1.7681
    1SOL    HW3 7687   4.267   2.954   3.054 -0.7158 -0.4094  0.8987
    1SOL    MW4 7688   4.278   3.038   3.074  0.4330 -0.3495  0.0520
    1SOL     OW 7689   4.064   3.194   3.004 -0.5097 -0.2150  0.2799
    1SOL    HW2 7690   4.035   3.279   3.038  1.4899  0.4028  0.5015
    1SOL    HW3 7691   4.078   3.209   2.910 -1.0677 -0.5578  0.1393
    1SOL    MW4 7692   4.062   3.207   2.996 -0.3195 -0.1788  0.2906
    1SOL     OW 7693   4.021   3.427   3.120  0.0231  0.3857 -0.1524
    1SOL    HW2 7694   4.035   3.429   3.215  0.0565 -0.3743 -0.1366
    1SOL    HW3 7695   3.960   3.499   3.103  1.1154  1.4233  0.2570
    1SOL    MW4 7696   4.015   3.437   3.131  0.1717  0.4225 -0.0961
    1SOL     OW 7697   4.228   3.557   3.007  0.1002 -0.0951  0.1362
    1SOL    HW2 7698   4.241   3.647   3.037  2.6724 -0.4877  0.3730
    1SOL    HW3 7699   4.155   3.524   3.059 -1.3281  2.0790 -0.4786
    1SOL    MW4 7700   4.220   3.564   3.018  0.2503  0.1397  0.0863
    1SOL     OW 7701   4.240   3.825   3.091 -0.3404  0.3980  0.1375
    1SOL    HW2 7702   4.183   3.896   3.064  0.2020  1.0179  0.6016
    1SOL    HW3 7703   4.324   3.845   3.050 -0.1447  0.1007  0.3879
    1SOL    MW4 7704   4.244   3.837   3.082 -0.2427  0.4406  0.2317
    1SOL     OW 7705   4.074   4.024   2.977 -0.1996  0.1681  0.1045
    1SOL    HW2 7706   4.091   4.110   3.016  0.1591  0.2434 -0.2145
    1SOL    HW3 7707   3.991   3.996   3.016  0.1584  0.2383  0.9271
    1SOL    MW4 7708   4.065   4.032   2.987 -0.1054  0.1874  0.1712
    1SOL     OW 7709   4.038   4.260   3.122  0.3960  0.0973 -0.6448
    1SOL    HW2 7710   4.046   4.280   3.215 -0.6457  1.2109 -0.7840
    1SOL    HW3 7711   4.098   4.320   3.079 -0.4836  0.8723 -0.8210
    1SOL    MW4 7712   4.047   4.271   3.128  0.1426  0.3471 -0.6866
    1SOL     OW 7713   4.263   4.407   3.027 -0.7110  0.1221  0.0109
    1SOL    HW2 7714   4.324   4.342   3.061 -0.9979  0.6471  1.5667
    1SOL    HW3 7715   4.274   4.403   2.932 -0.7652 -2.2330  0.0664
    1SOL    MW4 7716   4.272   4.398   3.019 -0.7563 -0.1197  0.2236
    1SOL     OW 7717   0.266   4.650   3.386  0.1648 -0.2589 -0.1475
    1SOL    HW2 7718   0.336   4.693   3.436 -1.5336 -0.2828  2.3234
    1SOL    HW3 7719   0.271   4.558   3.411 -0.3407 -0.3735 -0.4575
    1SOL    MW4 7720   0.276   4.644   3.396 -0.1259 -0.2770  0.1373
    1SOL     OW 7721   0.004   0.080   3.491 -0.1364  0.0121 -0.3237
    1SOL    HW2 7722   0.012   0.172   3.465  1.2665 -0.1569 -0.5769
    1SOL    HW3 7723   0.087   0.041   3.462 -0.5434 -1.2274  0.1812
    1SOL    MW4 7724   0.016   0.087   3.484 -0.0050 -0.1738 -0.2906
    1SOL     OW 7725   4.483   0.357   3.419 -0.3179 -0.1482 -0.3513
    1SOL    HW2 7726   4.409   0.402   3.460 -0.2822 -0.4390  0.0249
    1SOL    HW3 7727   4.560   0.407   3.447 -0.4573  0.8099 -1.6133
    1SOL    MW4 7728   4.483   0.370   3.428 -0.3316 -0.0602 -0.4683
    1SOL     OW 7729   0.205   0.490   3.531 -0.0837  0.2434 -0.0673
    1SOL    HW2 7730   0.287   0.451   3.499  0.2456  0.0917  0.9384
    1SOL    HW3 7731   0.204   0.577   3.491  0.4573  0.1555 -0.2871
    1SOL    MW4 7732   0.216   0.497   3.521  0.0311  0.2119  0.0362
    1SOL     OW 7733   0.217   0.742   3.412  0.4296  0.4820 -0.0185
    1SOL    HW2 7734   0.286   0.800   3.443  1.3047 -0.3623 -0.3507
    1SOL    HW3 7735   0.138   0.796   3.412  0.7874  1.0340  1.7982
    1SOL    MW4 7736   0.216   0.756   3.416  0.5923  0.4435  0.1774
    1SOL     OW 7737   4.477   0.901   3.454  0.1357  0.3713  0.4634
    1SOL    HW2 7738   4.497   0.902   3.548 -1.4145 -0.2469  0.8231
    1SOL    HW3 7739   4.477   0.994   3.429  1.2114  0.5000  0.9230
    1SOL    MW4 7740   4.479   0.914   3.463  0.0730  0.3066  0.5717
    1SOL     OW 7741   0.005   1.174   3.394 -0.4717  0.4321  0.1802
    1SOL    HW2 7742   0.088   1.215   3.419 -0.2792  0.4810 -0.5292
    1SOL    HW3 7743   0.008   1.171   3.298 -0.9544 -0.2661  0.1894
    1SOL    MW4 7744   0.017   1.179   3.384 -0.5097  0.3464  0.0875
    1SOL     OW 7745   0.238   1.299   3.443  0.2409  0.4181 -0.0287
    1SOL    HW2 7746   0.233   1.307   3.538 -0.9148 -0.2810 -0.0245
    1SOL    HW3 7747   0.224   1.388   3.410 -0.7263  0.4332  0.4125
    1SOL    MW4 7748   0.236   1.311   3.451 -0.0392  0.3278  0.0303
    1SOL     OW 7749   0.211   1.546   3.345  0.5539 -0.4911  0.0413
    1SOL    HW2 7750   0.291   1.592   3.367 -0.2956  1.8805 -1.6361
    1SOL    HW3 7751   0.219   1.527   3.251 -1.5474  1.3332 -0.5623
    1SOL    MW4 7752   0.223   1.549   3.335  0.1646  0.0626 -0.2599
    1SOL     OW 7753   4.483   1.658   3.467  0.2548 -0.3218 -0.6019
    1SOL    HW2 7754   4.410   1.605   3.436 -0.1037 -0.2089  0.0468
    1SOL    HW3 7755   4.561   1.614   3.432  0.0308 -1.9607  0.9370
    1SOL    MW4 7756   4.484   1.645   3.458  0.1779 -0.5231 -0.3130
    1SOL     OW 7757   4.463   1.909   3.360  0.5829 -0.2890  0.4963
    1SOL    HW2 7758   4.460   1.818   3.387  0.4141 -0.7101 -0.9145
    1SOL    HW3 7759   4.451   1.907   3.265 -1.7327  1.3476  0.7087
    1SOL    MW4 7760   4.461   1.897   3.351  0.2551 -0.1286  0.3383
    1SOL     OW 7761   0.213   2.032   3.477  0.2158 -0.0611  0.1262
    1SOL    HW2 7762   0.133   1.992   3.442  1.2159 -0.8080 -1.3778
    1SOL    HW3 7763   0.203   2.027   3.572  0.3018 -3.8887 -0.0098
    1SOL    MW4 7764   0.201   2.026   3.485  0.3591 -0.6645 -0.0904
    1SOL     OW 7765   0.265   2.302   3.385 -0.6102 -0.0403 -0.4090
    1SOL    HW2 7766   0.187   2.349   3.417  0.2313  0.2272  1.2668
    1SOL    HW3 7767   0.265   2.219   3.432  0.6576  0.3716  0.3453
    1SOL    MW4 7768   0.254   2.297   3.395 -0.3319  0.0494 -0.0880
    1SOL     OW 7769   0.020   2.427   3.466 -0.0540  0.3419 -0.3971
    1SOL    HW2 7770  -0.002   2.454   3.555 -1.1704 -0.4023 -0.4266
    1SOL    HW3 7771  -0.062   2.389   3.433  0.8415 -0.9834 -1.1114
    1SOL    MW4 7772   0.006   2.425   3.474 -0.0832  0.0689 -0.4952
    1SOL     OW 7773   4.475   2.718   3.413  0.2783  0.0182 -0.2047
    1SOL    HW2 7774   4.557   2.763   3.432  0.4357 -0.9685  1.5673
    1SOL    HW3 7775   4.495   2.625   3.428 -0.6102 -0.4315 -1.7444
    1SOL    MW4 7776   4.488   2.711   3.418  0.1822 -0.1714 -0.1743
    1SOL     OW 7777   0.218   2.837   3.517  0.1028  0.1161  0.4824
    1SOL    HW2 7778   0.300   2.810   3.476  1.4103  0.0867  2.9940
    1SOL    HW3 7779   0.213   2.931   3.499  0.1730 -0.0691 -0.5339
    1SOL    MW4 7780   0.228   2.846   3.509  0.2846  0.0880  0.6795
    1SOL     OW 7781   0.203   3.088   3.424 -0.2157 -0.3600  0.1664
    1SOL    HW2 7782   0.116   3.129   3.428 -0.7687 -1.5766  0.7794
    1SOL    HW3 7783   0.220   3.078   3.330 -0.0354  1.3305  0.0024
    1SOL    MW4 7784   0.194   3.092   3.412 -0.2648 -0.2975  0.2258
    1SOL     OW 7785   4.451   3.228   3.501  0.0268  0.1838 -0.1490
    1SOL    HW2 7786   4.384   3.189   3.446 -0.2158  0.7650 -0.2704
    1SOL    HW3 7787   4.471   3.312   3.460  1.4666 -0.3662 -0.6112
    1SOL    MW4 7788   4.445   3.234   3.489  0.1845  0.1879 -0.2260
    1SOL     OW 7789   0.014   3.469   3.350  0.1358  0.5022  0.3333
    1SOL    HW2 7790  -0.064   3.523   3.365 -0.7130 -0.6768  0.2563
    1SOL    HW3 7791   0.008   3.443   3.258  0.4758  0.1929  0.3981
    1SOL    MW4 7792   0.003   3.473   3.340  0.0686  0.3057  0.3316
    1SOL     OW 7793   0.223   3.606   3.483 -0.0878 -0.5957 -0.4273
    1SOL    HW2 7794   0.209   3.611   3.578  1.2868 -1.0175 -0.1935
    1SOL    HW3 7795   0.141   3.570   3.448 -1.0864  0.7627  0.4524
    1SOL    MW4 7796   0.210   3.602   3.491 -0.0382 -0.4723 -0.2801
    1SOL     OW 7797   0.235   3.866   3.385 -0.0548  0.0780 -0.4775
    1SOL    HW2 7798   0.160   3.913   3.421  0.0545 -0.6924  0.8145
    1SOL    HW3 7799   0.217   3.774   3.406  1.5504 -0.0483  0.4640
    1SOL    MW4 7800   0.223   3.860   3.393  0.1714 -0.0403 -0.1829
    1SOL     OW 7801   0.023   4.022   3.467  0.0790 -0.0440  0.3145
    1SOL    HW2 7802   0.025   4.021   3.563  0.4280 -2.5197  0.2984
    1SOL    HW3 7803  -0.011   4.109   3.445 -0.6304  0.3130  2.6804
    1SOL    MW4 7804   0.019   4.033   3.477  0.0315 -0.3233  0.6244
    1SOL     OW 7805   4.470   4.294   3.396  0.4708 -0.1316  0.8420
    1SOL    HW2 7806   4.406   4.347   3.444 -0.0890 -1.4951  1.6385
    1SOL    HW3 7807   4.554   4.332   3.419  0.1259 -0.0324  2.0059
    1SOL    MW4 7808   4.472   4.306   3.405  0.3519 -0.2985  1.1005
    1SOL     OW 7809   0.244   4.380   3.476  0.5599 -0.0120  0.3541
    1SOL    HW2 7810   0.250   4.381   3.572  1.4152 -0.7558  0.3055
    1SOL    HW3 7811   0.320   4.330   3.447 -0.8407 -1.6490 -0.6177
    1SOL    MW4 7812   0.255   4.373   3.485  0.4880 -0.3262  0.2196
    1SOL     OW 7813   0.672   4.667   3.394  0.4549 -0.0158 -0.5166
    1SOL    HW2 7814   0.748   4.720   3.415 -0.7590  1.7508 -0.4814
    1SOL    HW3 7815   0.673   4.660   3.299 -0.0291  1.0712 -0.6082
    1SOL    MW4 7816   0.682   4.673   3.385  0.2309  0.3610 -0.5238
    1SOL     OW 7817   0.451   0.128   3.522  0.0761 -0.2952  0.2036
    1SOL    HW2 7818   0.471   0.124   3.616 -0.1577  1.1756  0.3305
    1SOL    HW3 7819   0.522   0.079   3.480  0.0414 -1.1785  1.1656
    1SOL    MW4 7820   0.463   0.121   3.529  0.0407 -0.2177  0.3471
    1SOL     OW 7821   0.429   0.368   3.402  0.0883 -0.1591 -0.0311
    1SOL    HW2 7822   0.507   0.423   3.416 -0.6793  0.7993  0.5898
    1SOL    HW3 7823   0.449   0.286   3.448  1.1741 -0.3466 -0.8163
    1SOL    MW4 7824   0.442   0.364   3.410  0.1302 -0.0574 -0.0529
    1SOL     OW 7825   0.684   0.505   3.485  0.1718 -0.4036  0.1912
    1SOL    HW2 7826   0.685   0.492   3.580 -0.3785 -0.6828  0.1613
    1SOL    HW3 7827   0.775   0.499   3.459  0.4179  0.5151  0.8165
    1SOL    MW4 7828   0.696   0.503   3.494  0.1317 -0.3192  0.2697
    1SOL     OW 7829   0.673   0.782   3.372  0.3370  0.4310 -1.0529
    1SOL    HW2 7830   0.603   0.832   3.415  0.9475  0.1067  0.3443
    1SOL    HW3 7831   0.653   0.691   3.393 -0.0614  0.1710 -2.5323
    1SOL    MW4 7832   0.661   0.777   3.381  0.3650  0.3539 -1.0641
    1SOL     OW 7833   0.436   0.907   3.511 -0.2031 -0.0994  0.0163
    1SOL    HW2 7834   0.425   0.906   3.606 -1.8309 -1.5203 -0.1516
    1SOL    HW3 7835   0.443   1.000   3.489  0.1795  0.2492  1.5139
    1SOL    MW4 7836   0.435   0.919   3.521 -0.3675 -0.2409  0.1917
    1SOL     OW 7837   0.458   1.155   3.384 -0.0140  0.4691 -0.5120
    1SOL    HW2 7838   0.374   1.198   3.400 -0.0202  0.7629 -1.3300
    1SOL    HW3 7839   0.452   1.124   3.294  0.4328 -0.2442 -0.2970
    1SOL    MW4 7840   0.446   1.157   3.374  0.0441  0.4137 -0.5918
    1SOL     OW 7841   0.681   1.310   3.472 -0.3212  0.3364 -0.3892
    1SOL    HW2 7842   0.601   1.263   3.447  0.2449 -1.0096  0.2826
    1SOL    HW3 7843   0.682   1.388   3.415 -1.1229 -0.5991 -1.7134
    1SOL    MW4 7844   0.670   1.314   3.461 -0.3523  0.0353 -0.4754
    1SOL     OW 7845   0.672   1.589   3.370  0.0291  0.1196  0.2858
    1SOL    HW2 7846   0.739   1.624   3.429  0.1299  1.3735 -0.5722
    1SOL    HW3 7847   0.590   1.598   3.419  0.5828 -2.4279  1.7836
    1SOL    MW4 7848   0.670   1.595   3.384  0.1155 -0.0513  0.3705
    1SOL     OW 7849   0.420   1.709   3.450  0.0139  0.0320  0.2766
    1SOL    HW2 7850   0.394   1.722   3.541 -1.4946  0.6644 -0.2212
    1SOL    HW3 7851   0.440   1.797   3.418  1.3530 -0.2766  0.2143
    1SOL    MW4 7852   0.419   1.722   3.458 -0.0085  0.0747  0.2027
    1SOL     OW 7853   0.446   1.961   3.359 -0.4551 -0.0231  0.3114
    1SOL    HW2 7854   0.363   1.987   3.398 -0.3628  1.0986 -0.2147
    1SOL    HW3 7855   0.431   1.966   3.265  0.4563  1.0077  0.2171
    1SOL    MW4 7856   0.433   1.965   3.352 -0.3227  0.2611  0.2294
    1SOL     OW 7857   0.657   2.084   3.473 -0.0901  0.1556 -0.3662
    1SOL    HW2 7858   0.657   2.076   3.569  1.3637 -1.1717 -0.4616
    1SOL    HW3 7859   0.586   2.027   3.445  0.4675 -0.6582 -0.1528
    1SOL    MW4 7860   0.647   2.076   3.482  0.1753 -0.1268 -0.3507
    1SOL     OW 7861   0.700   2.339   3.377  0.2520 -0.0694 -0.4905
    1SOL    HW2 7862   0.765   2.381   3.434 -1.5167  0.9445  0.8392
    1SOL    HW3 7863   0.694   2.249   3.409 -0.2773  0.3282  0.5551
    1SOL    MW4 7864   0.708   2.333   3.389 -0.0511  0.1168 -0.1771
    1SOL     OW 7865   0.472   2.446   3.493  0.3759  0.2911  0.1341
    1SOL    HW2 7866   0.555   2.399   3.480  0.5495  0.6519 -0.0541
    1SOL    HW3 7867   0.406   2.386   3.459  0.6335  0.3288 -0.4402
    1SOL    MW4 7868   0.474   2.432   3.486  0.4328  0.3440  0.0336
    1SOL     OW 7869   0.444   2.692   3.366  0.2496 -0.1586 -0.2580
    1SOL    HW2 7870   0.461   2.603   3.394  0.0473 -0.2327 -0.3686
    1SOL    HW3 7871   0.428   2.686   3.272  1.5075  0.1708 -0.5036
    1SOL    MW4 7872   0.444   2.680   3.358  0.3889 -0.1252 -0.3049
    1SOL     OW 7873   0.648   2.824   3.492 -0.2008 -0.3718 -0.0385
    1SOL    HW2 7874   0.722   2.785   3.445  0.4425 -0.4389  1.0309
    1SOL    HW3 7875   0.571   2.786   3.450  0.3833 -0.9372 -0.6103
    1SOL    MW4 7876   0.647   2.814   3.480 -0.0389 -0.4549  0.0274
    1SOL     OW 7877   0.652   3.079   3.383  0.0488  0.2040  0.0950
    1SOL    HW2 7878   0.584   3.121   3.436  0.5876 -0.5220  1.3882
    1SOL    HW3 7879   0.637   2.985   3.393  1.0065  0.0396  0.0853
    1SOL    MW4 7880   0.641   3.072   3.391  0.2463  0.0868  0.2642
    1SOL     OW 7881   0.435   3.210   3.519 -0.6635 -0.0884 -0.2791
    1SOL    HW2 7882   0.442   3.223   3.613 -2.3062 -0.5747 -0.0748
    1SOL    HW3 7883   0.352   3.164   3.507  0.2306 -1.3351 -1.8407
    1SOL    MW4 7884   0.425   3.206   3.530 -0.7623 -0.3171 -0.4582
    1SOL     OW 7885   0.467   3.462   3.410 -0.0535  0.0877 -0.4860
    1SOL    HW2 7886   0.461   3.374   3.447 -0.8150  0.2799 -0.1284
    1SOL    HW3 7887   0.386   3.505   3.439  0.5933  1.0898 -0.1601
    1SOL    MW4 7888   0.455   3.456   3.419 -0.0686  0.2453 -0.3958
    1SOL     OW 7889   0.713   3.576   3.495  0.2044  0.1391 -0.2369
    1SOL    HW2 7890   0.788   3.538   3.450 -0.0182 -2.0745  1.1286
    1SOL    HW3 7891   0.637   3.546   3.445  0.1275  0.3136 -0.2237
    1SOL    MW4 7892   0.713   3.567   3.483  0.1649 -0.1299 -0.0548
    1SOL     OW 7893   0.672   3.823   3.381  0.6029 -0.1135 -0.0297
    1SOL    HW2 7894   0.595   3.860   3.422  0.3096  0.0916 -0.7491
    1SOL    HW3 7895   0.684   3.738   3.424  0.1903  0.0109  0.3325
    1SOL    MW4 7896   0.663   3.816   3.392  0.5098 -0.0701 -0.0770
    1SOL     OW 7897   0.459   3.970   3.484  0.1449 -0.2469  0.6971
    1SOL    HW2 7898   0.451   4.059   3.449  0.5503 -0.4690  0.0486
    1SOL    HW3 7899   0.381   3.925   3.451  0.5882 -0.4898 -0.0065
    1SOL    MW4 7900   0.447   3.976   3.475  0.2569 -0.3083  0.5188
    1SOL     OW 7901   0.475   4.239   3.396  0.5761  0.1204  0.0809
    1SOL    HW2 7902   0.537   4.307   3.423  0.2675 -0.2146  1.6629
    1SOL    HW3 7903   0.472   4.246   3.301  0.9013  2.0358  0.1887
    1SOL    MW4 7904   0.483   4.249   3.387  0.5783  0.3295  0.3037
    1SOL     OW 7905   0.691   4.386   3.479  0.0358  0.1539  0.2935
    1SOL    HW2 7906   0.768   4.335   3.452  0.6981  0.8255  0.9146
    1SOL    HW3 7907   0.709   4.474   3.448 -2.0182 -0.3511 -2.5886
    1SOL    MW4 7908   0.704   4.391   3.471 -0.1478  0.1764 -0.0048
    1SOL     OW 7909   1.126   4.660   3.392  0.1765  0.4164 -0.6801
    1SOL    HW2 7910   1.215   4.686   3.415 -0.0516  1.8420 -1.3473
    1SOL    HW3 7911   1.125   4.657   3.297 -0.3593 -0.0446 -0.6645
    1SOL    MW4 7912   1.137   4.663   3.383  0.0756  0.5436 -0.7660
    1SOL     OW 7913   0.896   0.146   3.475  0.2817  0.2064  0.0645
    1SOL    HW2 7914   0.917   0.144   3.568 -0.8696 -0.8494  0.3159
    1SOL    HW3 7915   0.967   0.096   3.434 -0.0725 -0.7227  0.5633
    1SOL    MW4 7916   0.908   0.139   3.482  0.0831 -0.0555  0.1636
    1SOL     OW 7917   0.932   0.411   3.367 -0.2920  0.0053  0.0094
    1SOL    HW2 7918   1.014   0.446   3.401  0.4262 -0.8263 -0.8434
    1SOL    HW3 7919   0.922   0.326   3.409 -0.6348  0.0389 -0.0040
    1SOL    MW4 7920   0.942   0.405   3.377 -0.2425 -0.1000 -0.1047
    1SOL     OW 7921   1.161   0.505   3.485  0.5785 -0.2870  0.2780
    1SOL    HW2 7922   1.152   0.510   3.580 -1.1853 -0.2843  0.1197
    1SOL    HW3 7923   1.170   0.597   3.457 -1.5163 -0.0905  0.2087
    1SOL    MW4 7924   1.161   0.518   3.494  0.0694 -0.2607  0.2480
    1SOL     OW 7925   1.163   0.759   3.369  0.0265 -0.1080  0.4080
    1SOL    HW2 7926   1.237   0.800   3.413  0.0705 -0.5136  0.7126
    1SOL    HW3 7927   1.086   0.793   3.415  0.1083 -1.2236  1.3903
    1SOL    MW4 7928   1.163   0.769   3.381  0.0430 -0.3088  0.5779
    1SOL     OW 7929   0.912   0.873   3.468  0.1668  0.3335  0.1232
    1SOL    HW2 7930   0.898   0.965   3.446  0.0858  0.2253 -0.2940
    1SOL    HW3 7931   0.832   0.830   3.438 -0.0729  0.2232  0.9132
    1SOL    MW4 7932   0.900   0.880   3.461  0.1245  0.3046  0.1724
    1SOL     OW 7933   0.903   1.150   3.425 -0.0805  0.0827 -0.2092
    1SOL    HW2 7934   0.981   1.197   3.453 -0.4009 -0.0048  0.8660
    1SOL    HW3 7935   0.830   1.200   3.462 -0.4669 -0.6724  0.0584
    1SOL    MW4 7936   0.903   1.163   3.434 -0.1737 -0.0285 -0.0322
    1SOL     OW 7937   1.131   1.271   3.500 -0.2319  0.2719  0.3153
    1SOL    HW2 7938   1.126   1.279   3.596  1.5227 -0.1897  0.4666
    1SOL    HW3 7939   1.128   1.361   3.468 -1.0243  0.4226  0.7812
    1SOL    MW4 7940   1.130   1.284   3.509 -0.1049  0.2309  0.3967
    1SOL     OW 7941   1.115   1.510   3.386 -0.2062 -0.2302 -0.0691
    1SOL    HW2 7942   1.191   1.561   3.415 -0.7760  0.4585  0.2330
    1SOL    HW3 7943   1.130   1.496   3.293  0.2366 -0.0062 -0.0365
    1SOL    MW4 7944   1.127   1.515   3.378 -0.2229 -0.1098 -0.0250
    1SOL     OW 7945   0.898   1.699   3.486  0.0306  0.0003  0.0960
    1SOL    HW2 7946   0.911   1.782   3.440 -1.7823  0.3183  0.0915
    1SOL    HW3 7947   0.959   1.639   3.444 -0.3955  0.7130 -1.6056
    1SOL    MW4 7948   0.908   1.702   3.474 -0.2649  0.1363 -0.1292
    1SOL     OW 7949   0.894   1.947   3.378  0.0706  0.0410 -0.5481
    1SOL    HW2 7950   0.966   1.988   3.427  0.2148 -1.4525  0.5194
    1SOL    HW3 7951   0.818   2.001   3.398  0.5182  0.5534 -0.2050
    1SOL    MW4 7952   0.894   1.959   3.387  0.1487 -0.0883 -0.3622
    1SOL     OW 7953   1.112   2.064   3.500 -0.5933 -0.3094  0.2794
    1SOL    HW2 7954   1.180   2.013   3.456 -0.3519 -0.7219  1.1233
    1SOL    HW3 7955   1.114   2.149   3.455 -0.6892 -0.8857 -0.8190
    1SOL    MW4 7956   1.122   2.069   3.488 -0.5741 -0.4404  0.2458
    1SOL     OW 7957   1.085   2.309   3.357  0.0260 -0.2008  0.2871
    1SOL    HW2 7958   1.166   2.358   3.373 -0.4973  0.9526 -0.4837
    1SOL    HW3 7959   1.077   2.305   3.262 -0.0030 -1.7117  0.3379
    1SOL    MW4 7960   1.094   2.315   3.347 -0.0467 -0.2480  0.1919
    1SOL     OW 7961   0.913   2.475   3.496 -0.4757 -0.0626 -0.4438
    1SOL    HW2 7962   0.930   2.449   3.586 -1.9792 -0.0450 -0.1454
    1SOL    HW3 7963   0.972   2.421   3.443  0.4741 -0.0091  0.5391
    1SOL    MW4 7964   0.923   2.465   3.501 -0.5488 -0.0534 -0.2747
    1SOL     OW 7965   0.870   2.713   3.384  0.2657 -0.5170  0.0176
    1SOL    HW2 7966   0.946   2.761   3.417 -0.0902  0.5026 -0.6111
    1SOL    HW3 7967   0.875   2.627   3.426  2.8638 -1.1668 -1.4890
    1SOL    MW4 7968   0.881   2.708   3.394  0.5615 -0.4680 -0.2642
    1SOL     OW 7969   1.122   2.804   3.455  0.0955  0.3542  0.4316
    1SOL    HW2 7970   1.129   2.830   3.547 -0.8102 -2.4188  1.3288
    1SOL    HW3 7971   1.206   2.763   3.435 -0.1024  0.0053  0.3206
    1SOL    MW4 7972   1.134   2.802   3.464 -0.0502 -0.0575  0.5350
    1SOL     OW 7973   1.130   3.064   3.350 -0.3217  0.0966  0.3745
    1SOL    HW2 7974   1.098   2.976   3.370 -0.6438  0.0255 -0.4733
    1SOL    HW3 7975   1.135   3.067   3.255  0.5516  0.6939  0.4388
    1SOL    MW4 7976   1.126   3.053   3.340 -0.2491  0.1659  0.2713
    1SOL     OW 7977   0.909   3.200   3.459  0.2052  0.2044 -0.0063
    1SOL    HW2 7978   0.980   3.141   3.436 -0.3434 -0.7357  0.6604
    1SOL    HW3 7979   0.831   3.159   3.419 -0.4225 -0.3623  1.7583
    1SOL    MW4 7980   0.908   3.187   3.450  0.0499  0.0057  0.3142
    1SOL     OW 7981   0.926   3.464   3.380 -0.5514  0.0650 -0.3137
    1SOL    HW2 7982   0.928   3.374   3.410 -3.3382  0.6698  1.8073
    1SOL    HW3 7983   0.909   3.457   3.286  0.4979 -1.6328 -0.3990
    1SOL    MW4 7984   0.924   3.451   3.371 -0.7805 -0.0792 -0.0451
    1SOL     OW 7985   1.123   3.640   3.446 -0.3634  0.3779  0.2045
    1SOL    HW2 7986   1.125   3.633   3.542  0.5495  0.3195  0.1830
    1SOL    HW3 7987   1.045   3.591   3.420  0.5023 -1.3295  0.7667
    1SOL    MW4 7988   1.113   3.633   3.455 -0.1286  0.1447  0.2759
    1SOL     OW 7989   1.133   3.900   3.381 -0.3127  0.1281 -0.0170
    1SOL    HW2 7990   1.216   3.939   3.409  0.6369  0.1047 -2.6117
    1SOL    HW3 7991   1.136   3.810   3.411 -0.4597  0.7674  1.9583
    1SOL    MW4 7992   1.144   3.893   3.389 -0.2067  0.2093 -0.0987
    1SOL     OW 7993   0.897   4.010   3.452  0.1814  0.2806  0.4683
    1SOL    HW2 7994   0.975   3.957   3.435 -0.0224  0.3949 -0.8808
    1SOL    HW3 7995   0.824   3.954   3.424 -0.2003  0.3381  1.3297
    1SOL    MW4 7996   0.897   3.995   3.446  0.1041  0.3037  0.4039
    1SOL     OW 7997   0.906   4.274   3.344 -0.2042  0.1616  0.3310
    1SOL    HW2 7998   0.903   4.181   3.366 -1.9218  0.1293  0.0208
    1SOL    HW3 7999   0.889   4.277   3.250  0.0395  0.7728  0.3031
    1SOL    MW4 8000   0.903   4.262   3.334 -0.3987  0.2379  0.2863
    1SOL     OW 8001   1.128   4.416   3.479  0.5118 -0.2113  0.3940
    1SOL    HW2 8002   1.067   4.375   3.419  0.7503  1.0368 -0.7114
    1SOL    HW3 8003   1.130   4.509   3.454  0.1764  0.4590  2.6743
    1SOL    MW4 8004   1.120   4.423   3.468  0.4990  0.0415  0.5488
    1SOL     OW 8005   1.590   4.621   3.421  0.1515 -0.7008  0.4237
    1SOL    HW2 8006   1.572   4.533   3.453 -0.0258 -0.2955  1.4486
    1SOL    HW3 8007   1.511   4.671   3.441  0.2134 -0.3292 -0.2395
    1SOL    MW4 8008   1.577   4.616   3.427  0.1363 -0.5980  0.4714
    1SOL     OW 8009   1.370   0.105   3.486  0.0214 -0.3301  0.1620
    1SOL    HW2 8010   1.361   0.125   3.579 -1.8138  0.5072 -0.1577
    1SOL    HW3 8011   1.361   0.190   3.443 -2.4323 -1.0902 -0.9378
    1SOL    MW4 8012   1.367   0.119   3.493 -0.5444 -0.3199 -0.0253
    1SOL     OW 8013   1.363   0.372   3.368  0.2322 -0.3275  0.3816
    1SOL    HW2 8014   1.443   0.399   3.414  0.2554  1.0851 -0.4653
    1SOL    HW3 8015   1.293   0.418   3.413 -0.0453 -1.0630  0.7114
    1SOL    MW4 8016   1.365   0.381   3.380  0.1986 -0.2382  0.3133
    1SOL     OW 8017   1.572   0.510   3.513  0.0028 -0.2128  0.0968
    1SOL    HW2 8018   1.561   0.500   3.607  1.2622  1.0976  0.4027
    1SOL    HW3 8019   1.651   0.461   3.492  0.8757  1.1632  0.0782
    1SOL    MW4 8020   1.581   0.502   3.522  0.2842  0.1415  0.1349
    1SOL     OW 8021   1.590   0.752   3.368  0.0007  0.2141 -0.4262
    1SOL    HW2 8022   1.536   0.806   3.426  0.8986  0.2399  0.3981
    1SOL    HW3 8023   1.589   0.665   3.408  0.3114  0.1408 -0.5768
    1SOL    MW4 8024   1.583   0.748   3.381  0.1602  0.2078 -0.3374
    1SOL     OW 8025   1.393   0.868   3.493 -0.1877  0.5530  0.4183
    1SOL    HW2 8026   1.364   0.879   3.584  0.6124  1.6267  0.5571
    1SOL    HW3 8027   1.393   0.956   3.457  1.7881  0.4346  0.0866
    1SOL    MW4 8028   1.389   0.881   3.501  0.1787  0.6791  0.3929
    1SOL     OW 8029   1.351   1.117   3.423 -0.3262 -0.3577  0.7571
    1SOL    HW2 8030   1.426   1.175   3.435 -0.3410  0.1972 -1.5179
    1SOL    HW3 8031   1.276   1.169   3.452 -0.2402  0.4724 -0.4704
    1SOL    MW4 8032   1.351   1.132   3.428 -0.3170 -0.1750  0.2949
    1SOL     OW 8033   1.567   1.302   3.509 -0.2163  0.4580  0.3278
    1SOL    HW2 8034   1.559   1.314   3.604 -0.2861  0.0374  0.3747
    1SOL    HW3 8035   1.651   1.258   3.498 -0.3937  0.1431  0.2257
    1SOL    MW4 8036   1.577   1.298   3.520 -0.2489  0.3610  0.3207
    1SOL     OW 8037   1.586   1.571   3.384  0.5415  0.2480  0.0110
    1SOL    HW2 8038   1.593   1.484   3.425  1.8033 -0.1141 -0.9657
    1SOL    HW3 8039   1.593   1.554   3.290  0.2693  1.3602 -0.2177
    1SOL    MW4 8040   1.588   1.557   3.377  0.6721  0.3470 -0.1483
    1SOL     OW 8041   1.342   1.681   3.493  0.3607  0.2306 -0.4592
    1SOL    HW2 8042   1.343   1.678   3.589  0.9926  1.1585 -0.4200
    1SOL    HW3 8043   1.414   1.624   3.466 -1.1641 -1.7391 -0.4665
    1SOL    MW4 8044   1.352   1.673   3.502  0.2427  0.0932 -0.4551
    1SOL     OW 8045   1.311   1.927   3.376 -0.4146 -0.1114 -0.0312
    1SOL    HW2 8046   1.387   1.978   3.404 -0.4751  0.3007 -0.6043
    1SOL    HW3 8047   1.320   1.844   3.422  0.0838  0.1408  0.3388
    1SOL    MW4 8048   1.322   1.923   3.386 -0.3568 -0.0237 -0.0579
    1SOL     OW 8049   1.550   2.006   3.473 -0.1203 -0.1384 -0.2394
    1SOL    HW2 8050   1.631   1.970   3.438  0.1738  0.9651 -0.7076
    1SOL    HW3 8051   1.560   2.101   3.465 -1.5471  0.0009 -0.5259
    1SOL    MW4 8052   1.562   2.014   3.467 -0.2698  0.0257 -0.3390
    1SOL     OW 8053   1.555   2.275   3.398  0.4380 -0.2728  0.4559
    1SOL    HW2 8054   1.483   2.325   3.437  0.6387  0.4065 -0.0235
    1SOL    HW3 8055   1.545   2.288   3.304 -0.2411 -2.1739  0.2414
    1SOL    MW4 8056   1.544   2.283   3.391  0.3749 -0.4342  0.3641
    1SOL     OW 8057   1.324   2.418   3.454 -0.4195  0.5732 -0.2476
    1SOL    HW2 8058   1.338   2.433   3.547 -0.4828  0.1814 -0.1703
    1SOL    HW3 8059   1.331   2.504   3.413  1.5227  0.4890 -0.1282
    1SOL    MW4 8060   1.327   2.431   3.461 -0.1717  0.5107 -0.2217
    1SOL     OW 8061   1.371   2.677   3.364 -0.2865 -0.0947 -0.2522
    1SOL    HW2 8062   1.434   2.739   3.401 -0.3082 -0.7865  0.9662
    1SOL    HW3 8063   1.365   2.701   3.271  1.1676  0.4871 -0.2050
    1SOL    MW4 8064   1.379   2.688   3.357 -0.0975 -0.1092 -0.0851
    1SOL     OW 8065   1.546   2.869   3.442 -0.1857 -0.5117 -0.5070
    1SOL    HW2 8066   1.631   2.830   3.424  1.1800  1.3125  1.7196
    1SOL    HW3 8067   1.554   2.960   3.411 -0.4505  0.3633  1.8716
    1SOL    MW4 8068   1.558   2.876   3.436 -0.0404 -0.1557  0.1009
    1SOL     OW 8069   1.559   3.123   3.348  0.0653 -0.1745 -0.1071
    1SOL    HW2 8070   1.638   3.167   3.379  0.1997  0.3506 -1.1477
    1SOL    HW3 8071   1.487   3.176   3.382  0.1943  0.0197 -0.1344
    1SOL    MW4 8072   1.560   3.136   3.356  0.1001 -0.0796 -0.2484
    1SOL     OW 8073   1.316   3.247   3.448  0.3593 -0.2307  0.4800
    1SOL    HW2 8074   1.297   3.240   3.542  1.9204  0.1230  0.8328
    1SOL    HW3 8075   1.269   3.174   3.409 -0.8342  0.0014  1.4594
    1SOL    MW4 8076   1.307   3.236   3.455  0.4077 -0.1533  0.6561
    1SOL     OW 8077   1.344   3.511   3.345  0.3254  0.0270 -0.5247
    1SOL    HW2 8078   1.318   3.425   3.377 -0.3828  0.1098 -0.8871
    1SOL    HW3 8079   1.269   3.567   3.363  0.6876  0.5136 -0.5269
    1SOL    MW4 8080   1.331   3.507   3.352  0.2797  0.1018 -0.5729
    1SOL     OW 8081   1.584   3.602   3.462 -0.0638 -0.2540  0.2973
    1SOL    HW2 8082   1.562   3.585   3.553  0.6554 -0.6227  0.4070
    1SOL    HW3 8083   1.508   3.572   3.413  0.7646 -2.8874  0.5701
    1SOL    MW4 8084   1.571   3.596   3.467  0.1403 -0.6504  0.3476
    1SOL     OW 8085   1.518   3.854   3.382 -0.1942  0.4066 -0.8002
    1SOL    HW2 8086   1.540   3.766   3.414 -1.0549  0.6707  0.5888
    1SOL    HW3 8087   1.530   3.849   3.287 -1.5860 -1.6187 -0.9057
    1SOL    MW4 8088   1.522   3.842   3.374 -0.4915  0.1740 -0.6309
    1SOL     OW 8089   1.364   4.053   3.496  0.0884 -0.7320  0.2852
    1SOL    HW2 8090   1.368   4.137   3.450 -0.0662 -0.5234  0.6503
    1SOL    HW3 8091   1.428   3.998   3.452 -0.8616 -0.8965 -0.9215
    1SOL    MW4 8092   1.373   4.057   3.484 -0.0573 -0.7267  0.1738
    1SOL     OW 8093   1.353   4.294   3.333 -0.3508 -0.2058 -0.4254
    1SOL    HW2 8094   1.275   4.345   3.356  1.6422  3.1640 -0.7639
    1SOL    HW3 8095   1.345   4.279   3.239 -1.3679 -1.3084 -0.1752
    1SOL    MW4 8096   1.342   4.299   3.324 -0.2222  0.0935 -0.4370
    1SOL     OW 8097   1.560   4.375   3.509  0.7016  0.4565  0.2649
    1SOL    HW2 8098   1.639   4.339   3.468  0.6922 -1.3811  1.7983
    1SOL    HW3 8099   1.488   4.333   3.462  0.6511  0.4968  0.3063
    1SOL    MW4 8100   1.561   4.365   3.497  0.6939  0.2189  0.4728
    1SOL     OW 8101   2.024   4.609   3.439  0.1328 -0.1108  0.0403
    1SOL    HW2 8102   2.105   4.654   3.466  0.2776  0.4455 -1.2829
    1SOL    HW3 8103   1.955   4.674   3.452  0.2058  0.1626 -0.9389
    1SOL    MW4 8104   2.026   4.624   3.445  0.1616 -0.0019 -0.2632
    1SOL     OW 8105   1.803   0.122   3.484 -0.2216  0.1829  0.2460
    1SOL    HW2 8106   1.803   0.111   3.579 -3.3108  1.9047  0.4962
    1SOL    HW3 8107   1.741   0.056   3.453 -0.1237  0.4313 -0.4672
    1SOL    MW4 8108   1.795   0.112   3.493 -0.6161  0.4428  0.1848
    1SOL     OW 8109   1.807   0.392   3.432 -0.3799 -0.2241 -0.0097
    1SOL    HW2 8110   1.795   0.297   3.444  2.4880 -0.6052  0.2181
    1SOL    HW3 8111   1.820   0.403   3.338 -0.2110 -0.1380  0.0235
    1SOL    MW4 8112   1.807   0.381   3.421  0.0207 -0.2630  0.0250
    1SOL     OW 8113   2.036   0.477   3.534  0.0909 -0.0310  0.1588
    1SOL    HW2 8114   2.030   0.570   3.512  0.4846 -0.1849 -0.6179
    1SOL    HW3 8115   1.952   0.441   3.508 -0.1854  0.1621  0.7630
    1SOL    MW4 8116   2.024   0.484   3.528  0.1063 -0.0259  0.1361
    1SOL     OW 8117   2.025   0.739   3.454 -0.1639 -0.4559  0.0566
    1SOL    HW2 8118   2.101   0.794   3.475  0.3217 -1.3677  0.7075
    1SOL    HW3 8119   2.029   0.727   3.360  0.7776 -0.9112  0.1552
    1SOL    MW4 8120   2.035   0.745   3.445  0.0243 -0.6363  0.1554
    1SOL     OW 8121   1.808   0.874   3.529 -0.2844 -0.3796  0.6438
    1SOL    HW2 8122   1.883   0.819   3.506  0.9693  1.5542 -0.0351
    1SOL    HW3 8123   1.738   0.845   3.471  0.3488 -1.2975  0.3392
    1SOL    MW4 8124   1.808   0.863   3.518 -0.0354 -0.2455  0.5140
    1SOL     OW 8125   1.782   1.140   3.435 -0.6248 -0.3317  0.3441
    1SOL    HW2 8126   1.869   1.179   3.448 -0.8295  0.3367 -0.2288
    1SOL    HW3 8127   1.787   1.054   3.476  0.8389 -0.9880 -1.1450
    1SOL    MW4 8128   1.794   1.134   3.442 -0.4586 -0.3301  0.0720
    1SOL     OW 8129   2.006   1.288   3.498 -0.5400 -0.3093 -0.4401
    1SOL    HW2 8130   1.996   1.294   3.593 -2.3355 -1.0834 -0.5597
    1SOL    HW3 8131   1.989   1.377   3.467 -0.6912 -0.2192 -0.1034
    1SOL    MW4 8132   2.003   1.301   3.506 -0.7966 -0.3996 -0.4115
    1SOL     OW 8133   1.982   1.548   3.408 -0.1447 -0.2089  0.2894
    1SOL    HW2 8134   2.067   1.580   3.440 -0.3086  0.7106 -0.1649
    1SOL    HW3 8135   1.918   1.595   3.461 -0.3839 -0.1932 -0.0135
    1SOL    MW4 8136   1.985   1.559   3.419 -0.1979 -0.0855  0.1898
    1SOL     OW 8137   1.780   1.691   3.540 -0.3667  0.4222 -0.0946
    1SOL    HW2 8138   1.805   1.770   3.493 -0.3589 -0.1711 -1.1064
    1SOL    HW3 8139   1.708   1.655   3.489 -0.3764 -0.2217  0.3674
    1SOL    MW4 8140   1.774   1.697   3.527 -0.3670  0.2589 -0.1671
    1SOL     OW 8141   1.796   1.921   3.390 -0.6207  0.1371 -0.4536
    1SOL    HW2 8142   1.869   1.977   3.418  0.1813 -1.5009  0.8613
    1SOL    HW3 8143   1.804   1.917   3.295  0.6740  0.4468 -0.3721
    1SOL    MW4 8144   1.807   1.928   3.381 -0.3440 -0.0381 -0.2694
    1SOL     OW 8145   1.991   2.079   3.520  0.3571 -0.0109  0.3333
    1SOL    HW2 8146   2.065   2.030   3.483 -1.3744 -0.8812 -2.1446
    1SOL    HW3 8147   1.989   2.160   3.469 -1.7914 -1.0273 -1.2942
    1SOL    MW4 8148   2.001   2.083   3.508 -0.1547 -0.2594 -0.2084
    1SOL     OW 8149   1.975   2.302   3.367 -0.4169  0.2248  0.1859
    1SOL    HW2 8150   1.898   2.352   3.394 -0.7798 -0.3660  0.2408
    1SOL    HW3 8151   1.974   2.308   3.271  0.5824  1.8809  0.2508
    1SOL    MW4 8152   1.964   2.310   3.358 -0.3328  0.3653  0.2017
    1SOL     OW 8153   1.759   2.453   3.451 -0.0998 -0.2638  0.0850
    1SOL    HW2 8154   1.776   2.456   3.545  1.0461 -1.8797 -0.0437
    1SOL    HW3 8155   1.695   2.382   3.440  1.6536 -1.7751 -0.5854
    1SOL    MW4 8156   1.753   2.444   3.462  0.2826 -0.6764 -0.0205
    1SOL     OW 8157   1.778   2.740   3.393  0.6146 -0.2806 -0.0441
    1SOL    HW2 8158   1.867   2.767   3.417  1.3843 -1.8474 -1.0038
    1SOL    HW3 8159   1.776   2.646   3.411 -0.8211 -0.2761 -0.1401
    1SOL    MW4 8160   1.790   2.731   3.398  0.5268 -0.4866 -0.1836
    1SOL     OW 8161   2.015   2.859   3.450 -0.3473 -0.2144 -0.2835
    1SOL    HW2 8162   2.035   2.867   3.543  1.3489  0.9482 -0.7142
    1SOL    HW3 8163   2.016   2.949   3.418 -1.8471 -0.5202 -1.2686
    1SOL    MW4 8164   2.018   2.872   3.458 -0.3216 -0.1013 -0.4704
    1SOL     OW 8165   2.038   3.111   3.339 -0.5061 -0.7188  0.7347
    1SOL    HW2 8166   2.122   3.134   3.379 -0.0109 -0.1596 -0.5974
    1SOL    HW3 8167   1.978   3.180   3.367  0.1389  0.3437 -0.4677
    1SOL    MW4 8168   2.041   3.123   3.348 -0.3557 -0.5050  0.4001
    1SOL     OW 8169   1.815   3.256   3.401 -0.5265  0.4996 -0.2523
    1SOL    HW2 8170   1.809   3.244   3.495 -0.7789 -0.1774 -0.3546
    1SOL    HW3 8171   1.817   3.351   3.389  0.9891  0.5715  0.5212
    1SOL    MW4 8172   1.815   3.267   3.412 -0.3599  0.4199 -0.1638
    1SOL     OW 8173   1.819   3.508   3.344 -0.0827 -0.0476 -0.0403
    1SOL    HW2 8174   1.744   3.549   3.387  1.1516  0.9831  1.1704
    1SOL    HW3 8175   1.802   3.519   3.251 -1.0044  1.0094  0.2405
    1SOL    MW4 8176   1.807   3.515   3.337 -0.0415  0.2279  0.1566
    1SOL     OW 8177   2.049   3.594   3.473  0.1034 -0.2710 -0.3136
    1SOL    HW2 8178   2.115   3.537   3.433 -0.2857 -0.1555 -1.1274
    1SOL    HW3 8179   1.972   3.584   3.417 -0.1185  0.6769 -0.1752
    1SOL    MW4 8180   2.048   3.585   3.461  0.0229 -0.1307 -0.4027
    1SOL     OW 8181   2.063   3.882   3.376  0.2353 -0.3480 -0.0266
    1SOL    HW2 8182   1.973   3.904   3.397  0.4177 -1.5484  2.2011
    1SOL    HW3 8183   2.074   3.792   3.408  1.4441 -1.2090 -2.6955
    1SOL    MW4 8184   2.053   3.873   3.383  0.4187 -0.6201 -0.0849
    1SOL     OW 8185   1.799   3.941   3.454 -0.5218 -0.5948  0.0626
    1SOL    HW2 8186   1.790   3.947   3.549 -0.5166 -0.2704  0.0453
    1SOL    HW3 8187   1.712   3.913   3.424 -1.6285  2.6981 -0.1098
    1SOL    MW4 8188   1.786   3.938   3.463 -0.6673 -0.1175  0.0374
    1SOL     OW 8189   1.788   4.226   3.425 -0.2655  0.0660  0.4388
    1SOL    HW2 8190   1.800   4.134   3.449 -0.7156  0.2368  1.3328
    1SOL    HW3 8191   1.799   4.227   3.330 -0.4829 -0.9508  0.3915
    1SOL    MW4 8192   1.791   4.214   3.415 -0.3537 -0.0453  0.5507
    1SOL     OW 8193   2.035   4.330   3.499 -0.4945  0.5466 -0.5359
    1SOL    HW2 8194   1.947   4.294   3.490 -0.9532  1.6251 -0.4598
    1SOL    HW3 8195   2.025   4.423   3.476  0.6309  0.6595 -0.5825
    1SOL    MW4 8196   2.022   4.338   3.495 -0.4063  0.7043 -0.5322
    1SOL     OW 8197   2.485   4.662   3.381 -0.4657  0.3288  0.2213
    1SOL    HW2 8198   2.483   4.572   3.415  0.2699 -0.4004 -1.6043
    1SOL    HW3 8199   2.484   4.652   3.286 -1.3302  2.2991  0.0089
    1SOL    MW4 8200   2.485   4.649   3.373 -0.4826  0.4930 -0.0474
    1SOL     OW 8201   2.264   0.088   3.513 -0.0796 -0.5220  0.1110
    1SOL    HW2 8202   2.251   0.176   3.475 -0.0626 -0.9751 -0.9695
    1SOL    HW3 8203   2.339   0.053   3.465  0.6025 -0.7197  1.2929
    1SOL    MW4 8204   2.272   0.095   3.502  0.0126 -0.6078  0.1245
    1SOL     OW 8205   2.233   0.341   3.385 -0.1371  0.4193 -0.3499
    1SOL    HW2 8206   2.316   0.371   3.421  1.1301 -1.2589 -1.8199
    1SOL    HW3 8207   2.167   0.385   3.439  1.6692  2.2520  0.4485
    1SOL    MW4 8208   2.235   0.351   3.397  0.2685  0.4396 -0.4387
    1SOL     OW 8209   2.464   0.466   3.479 -0.1964 -0.8200 -0.1437
    1SOL    HW2 8210   2.555   0.444   3.459 -0.0685  0.1605 -0.7002
    1SOL    HW3 8211   2.452   0.554   3.443 -1.5625 -1.2006 -0.6809
    1SOL    MW4 8212   2.474   0.475   3.472 -0.3598 -0.7408 -0.2880
    1SOL     OW 8213   2.459   0.754   3.411  0.2265 -0.0108  0.0815
    1SOL    HW2 8214   2.542   0.780   3.451  0.7685 -0.0446 -1.0325
    1SOL    HW3 8215   2.470   0.771   3.318 -0.0958 -2.4058 -0.4393
    1SOL    MW4 8216   2.471   0.759   3.404  0.2556 -0.3312 -0.1342
    1SOL     OW 8217   2.263   0.889   3.543  0.1611 -0.0686 -0.0435
    1SOL    HW2 8218   2.270   0.963   3.483  1.1776 -0.9912 -1.0787
    1SOL    HW3 8219   2.335   0.831   3.519 -0.7725 -1.5248  0.5903
    1SOL    MW4 8220   2.273   0.891   3.532  0.1724 -0.3825 -0.0968
    1SOL     OW 8221   2.212   1.123   3.371 -0.0968  0.2999  0.5086
    1SOL    HW2 8222   2.298   1.165   3.379 -0.6379  1.4558  0.4933
    1SOL    HW3 8223   2.153   1.181   3.420 -1.0100 -0.0192 -0.1960
    1SOL    MW4 8224   2.216   1.136   3.378 -0.2887  0.4103  0.4134
    1SOL     OW 8225   2.457   1.269   3.455  0.3309  0.5403  0.8282
    1SOL    HW2 8226   2.433   1.253   3.546 -0.9757 -2.2757  0.0156
    1SOL    HW3 8227   2.536   1.217   3.441 -1.8735 -2.4674 -0.8037
    1SOL    MW4 8228   2.464   1.260   3.466 -0.1323 -0.2280  0.5054
    1SOL     OW 8229   2.473   1.551   3.410  0.4520  0.4023  0.2132
    1SOL    HW2 8230   2.482   1.459   3.434  0.9023  0.4222  0.1390
    1SOL    HW3 8231   2.485   1.553   3.315  1.1522  0.6141  0.2977
    1SOL    MW4 8232   2.476   1.539   3.401  0.6039  0.4328  0.2146
    1SOL     OW 8233   2.228   1.662   3.469 -0.1601  0.1424  0.0311
    1SOL    HW2 8234   2.234   1.687   3.561 -0.1419  0.2047  0.0134
    1SOL    HW3 8235   2.309   1.616   3.451  0.3158  1.0780 -0.2384
    1SOL    MW4 8236   2.239   1.659   3.479 -0.0947  0.2741 -0.0069
    1SOL     OW 8237   2.191   1.932   3.387  0.3948 -0.1721 -0.0455
    1SOL    HW2 8238   2.189   1.838   3.406 -0.8886 -0.4092 -1.2354
    1SOL    HW3 8239   2.195   1.937   3.291 -1.3284  0.9788 -0.0906
    1SOL    MW4 8240   2.191   1.920   3.377 -0.0017 -0.0515 -0.2086
    1SOL     OW 8241   2.441   2.044   3.454 -0.5173 -0.1965  0.0091
    1SOL    HW2 8242   2.356   2.010   3.427 -0.6793  0.8605 -0.7851
    1SOL    HW3 8243   2.443   2.134   3.424  1.0756 -0.3456 -0.3999
    1SOL    MW4 8244   2.430   2.051   3.447 -0.3285 -0.0768 -0.1497
    1SOL     OW 8245   2.458   2.319   3.365  0.2812 -0.0770 -0.6220
    1SOL    HW2 8246   2.387   2.368   3.407  0.3617 -0.0409 -0.5284
    1SOL    HW3 8247   2.538   2.363   3.395  0.3465 -0.1731 -0.6569
    1SOL    MW4 8248   2.459   2.331   3.375  0.3006 -0.0849 -0.6144
    1SOL     OW 8249   2.227   2.427   3.465 -0.1541  0.2670  0.1920
    1SOL    HW2 8250   2.159   2.382   3.414  1.1296 -0.3321 -1.0249
    1SOL    HW3 8251   2.227   2.516   3.431  1.4644 -0.4244 -1.6570
    1SOL    MW4 8252   2.218   2.433   3.454  0.2286  0.0970 -0.2124
    1SOL     OW 8253   2.211   2.679   3.373 -0.3538  0.2141 -0.2148
    1SOL    HW2 8254   2.145   2.744   3.397  0.7001  0.7455  1.2878
    1SOL    HW3 8255   2.220   2.688   3.278 -0.2692  2.2043 -0.0261
    1SOL    MW4 8256   2.203   2.689   3.363 -0.2038  0.5467  0.0083
    1SOL     OW 8257   2.436   2.793   3.508  0.2359  0.2768  0.3163
    1SOL    HW2 8258   2.452   2.883   3.482 -1.9704  1.0548  1.5290
    1SOL    HW3 8259   2.358   2.767   3.459  0.6872 -0.8749  0.1915
    1SOL    MW4 8260   2.427   2.801   3.499  0.0043  0.2275  0.4597
    1SOL     OW 8261   2.498   3.034   3.373 -0.1022  0.4494 -0.5147
    1SOL    HW2 8262   2.576   3.083   3.399 -0.5343  1.0827 -0.3898
    1SOL    HW3 8263   2.479   3.065   3.284 -1.7734  2.3322  0.4400
    1SOL    MW4 8264   2.506   3.045   3.365 -0.3796  0.7813 -0.3722
    1SOL     OW 8265   2.278   3.167   3.471 -0.1005  0.3262 -0.0257
    1SOL    HW2 8266   2.285   3.193   3.562  0.9265  0.9620 -0.2766
    1SOL    HW3 8267   2.359   3.120   3.453 -0.0697  0.6481 -0.7473
    1SOL    MW4 8268   2.289   3.165   3.480  0.0391  0.4530 -0.1540
    1SOL     OW 8269   2.289   3.437   3.370  0.0228  0.3863  0.2281
    1SOL    HW2 8270   2.286   3.344   3.391  0.9566  0.2666 -0.1571
    1SOL    HW3 8271   2.278   3.440   3.275 -2.6236  0.8279  0.5105
    1SOL    MW4 8272   2.287   3.425   3.360 -0.2031  0.4289  0.2148
    1SOL     OW 8273   2.485   3.585   3.509  0.1664 -0.0061  0.2129
    1SOL    HW2 8274   2.474   3.670   3.467  0.9462 -0.1946 -0.3905
    1SOL    HW3 8275   2.427   3.527   3.459 -0.3909  0.1717  0.6465
    1SOL    MW4 8276   2.476   3.588   3.497  0.1955 -0.0076  0.1907
    1SOL     OW 8277   2.460   3.852   3.389  0.0531 -0.0505 -0.0949
    1SOL    HW2 8278   2.549   3.878   3.413 -0.0896  0.5594 -0.2302
    1SOL    HW3 8279   2.403   3.911   3.437 -0.3070 -1.0055  0.6790
    1SOL    MW4 8280   2.464   3.863   3.398 -0.0134 -0.0961 -0.0105
    1SOL     OW 8281   2.260   4.032   3.496  0.5366  0.0017  0.3406
    1SOL    HW2 8282   2.261   4.118   3.454  0.2036  0.0857  0.5037
    1SOL    HW3 8283   2.184   3.988   3.459  0.7928 -0.2793  0.1477
    1SOL    MW4 8284   2.250   4.038   3.485  0.5264 -0.0238  0.3369
    1SOL     OW 8285   2.278   4.270   3.351  0.3424  0.4373 -0.2740
    1SOL    HW2 8286   2.191   4.300   3.378  0.6023  0.2531  0.7804
    1SOL    HW3 8287   2.277   4.276   3.255 -1.0649 -0.2140 -0.3105
    1SOL    MW4 8288   2.267   4.275   3.342  0.1910  0.3271 -0.1400
    1SOL     OW 8289   2.451   4.422   3.492 -0.5487 -0.2833 -0.1544
    1SOL    HW2 8290   2.451   4.435   3.587 -0.7020  0.7052 -0.2876
    1SOL    HW3 8291   2.374   4.367   3.475 -1.9808  1.6050  0.0295
    1SOL    MW4 8292   2.441   4.416   3.502 -0.7579  0.0954 -0.1476
    1SOL     OW 8293   2.897   4.600   3.370  0.1871  0.1323  0.0661
    1SOL    HW2 8294   2.831   4.664   3.397  0.3555  0.1573  0.4125
    1SOL    HW3 8295   2.903   4.610   3.275 -0.0052  0.4196  0.0847
    1SOL    MW4 8296   2.889   4.610   3.361  0.1843  0.1736  0.1144
    1SOL     OW 8297   2.716   0.108   3.475  0.4030 -0.3367  0.2515
    1SOL    HW2 8298   2.729   0.090   3.568  0.1607 -0.1650  0.3191
    1SOL    HW3 8299   2.630   0.072   3.455  0.1715  0.2120  0.2489
    1SOL    MW4 8300   2.707   0.101   3.485  0.3407 -0.2416  0.2601
    1SOL     OW 8301   2.712   0.373   3.423  0.1881  0.4971  0.2588
    1SOL    HW2 8302   2.785   0.401   3.479  0.6231 -1.8767  0.9373
    1SOL    HW3 8303   2.700   0.281   3.444 -0.2010 -0.2468 -2.9808
    1SOL    MW4 8304   2.720   0.365   3.433  0.1938  0.0857 -0.0789
    1SOL     OW 8305   2.938   0.509   3.547  0.1676  0.1006  0.1629
    1SOL    HW2 8306   2.926   0.534   3.639 -0.7957 -1.7321  0.5642
    1SOL    HW3 8307   2.922   0.589   3.498 -1.0131  0.7140  1.5133
    1SOL    MW4 8308   2.934   0.523   3.553 -0.1154 -0.0603  0.3939
    1SOL     OW 8309   2.888   0.736   3.388 -0.4358  0.0126 -0.1652
    1SOL    HW2 8310   2.963   0.780   3.428 -0.0068 -2.0238  1.3353
    1SOL    HW3 8311   2.813   0.770   3.436 -0.3348  0.7426 -0.5048
    1SOL    MW4 8312   2.888   0.747   3.399 -0.3655 -0.1597 -0.0119
    1SOL     OW 8313   2.684   0.861   3.510  0.2078  0.3530 -0.1115
    1SOL    HW2 8314   2.694   0.882   3.603  1.5363  0.6803 -0.3202
    1SOL    HW3 8315   2.694   0.945   3.465 -2.0912  0.4724 -0.4598
    1SOL    MW4 8316   2.686   0.875   3.516  0.0796  0.4119 -0.1848
    1SOL     OW 8317   2.692   1.123   3.404 -0.1751 -0.2482 -0.2118
    1SOL    HW2 8318   2.769   1.179   3.419 -0.4756  0.3532 -0.8479
    1SOL    HW3 8319   2.679   1.127   3.309 -0.9090 -0.4638 -0.1213
    1SOL    MW4 8320   2.701   1.131   3.393 -0.3116 -0.1974 -0.2840
    1SOL     OW 8321   2.894   1.290   3.465 -0.2861 -0.2701  0.3476
    1SOL    HW2 8322   2.891   1.306   3.559  2.1228  0.6729  0.3010
    1SOL    HW3 8323   2.978   1.246   3.451  0.1820  1.1655 -1.5610
    1SOL    MW4 8324   2.904   1.286   3.476  0.0935  0.0436  0.0896
    1SOL     OW 8325   2.949   1.547   3.373 -0.3426  0.0230  0.1912
    1SOL    HW2 8326   2.868   1.587   3.404 -0.9909 -0.8030 -0.3948
    1SOL    HW3 8327   2.945   1.457   3.407 -0.0656 -0.2655 -0.5389
    1SOL    MW4 8328   2.938   1.540   3.382 -0.3912 -0.1240  0.0176
    1SOL     OW 8329   2.727   1.657   3.488 -0.2372 -0.1197  0.5533
    1SOL    HW2 8330   2.722   1.749   3.464  0.9710 -0.1477  0.1422
    1SOL    HW3 8331   2.639   1.623   3.472 -0.7267  0.9893  0.8492
    1SOL    MW4 8332   2.715   1.665   3.483 -0.1421  0.0230  0.5379
    1SOL     OW 8333   2.696   1.944   3.428 -0.3093 -0.6185 -0.4143
    1SOL    HW2 8334   2.611   1.979   3.455  0.3248  1.6577 -1.2008
    1SOL    HW3 8335   2.698   1.957   3.333  0.1316 -2.4615 -0.6648
    1SOL    MW4 8336   2.685   1.951   3.419 -0.1674 -0.5612 -0.5515
    1SOL     OW 8337   2.936   2.058   3.493 -0.0369  0.5589  0.0020
    1SOL    HW2 8338   2.944   2.080   3.586 -0.0792 -0.0115  0.1442
    1SOL    HW3 8339   2.851   2.015   3.485 -1.0067  2.5345 -0.7017
    1SOL    MW4 8340   2.926   2.055   3.504 -0.1702  0.7443 -0.0718
    1SOL     OW 8341   2.921   2.337   3.384  0.0534  0.4558  0.4596
    1SOL    HW2 8342   2.923   2.246   3.412 -0.4220  0.5168  0.6912
    1SOL    HW3 8343   2.912   2.332   3.289 -1.4488  0.2664  0.6070
    1SOL    MW4 8344   2.920   2.324   3.375 -0.2074  0.4387  0.5097
    1SOL     OW 8345   2.693   2.455   3.447 -0.0898  0.2755  0.0863
    1SOL    HW2 8346   2.692   2.450   3.543  0.3293  1.4869  0.1614
    1SOL    HW3 8347   2.774   2.411   3.422 -1.3533 -2.1422  0.1386
    1SOL    MW4 8348   2.704   2.449   3.457 -0.2012  0.1166  0.1032
    1SOL     OW 8349   2.683   2.727   3.408  0.2535 -0.1953 -0.4859
    1SOL    HW2 8350   2.706   2.636   3.427 -0.5204 -0.1433  0.7455
    1SOL    HW3 8351   2.596   2.738   3.446  0.0291  0.8554 -1.2802
    1SOL    MW4 8352   2.675   2.716   3.415  0.1216 -0.0498 -0.4284
    1SOL     OW 8353   2.921   2.847   3.495  0.0994 -0.1342  0.2210
    1SOL    HW2 8354   2.915   2.850   3.591  0.4695  0.7745  0.2213
    1SOL    HW3 8355   2.835   2.818   3.466  0.0711 -0.6875  0.8383
    1SOL    MW4 8356   2.909   2.844   3.504  0.1442 -0.0875  0.3026
    1SOL     OW 8357   2.962   3.103   3.402  0.1307 -0.0709 -0.0402
    1SOL    HW2 8358   2.949   3.014   3.436  0.4778  0.1502  0.6778
    1SOL    HW3 8359   2.983   3.090   3.310 -0.6335 -0.6915 -0.1356
    1SOL    MW4 8360   2.963   3.089   3.395  0.0758 -0.1237  0.0420
    1SOL     OW 8361   2.708   3.192   3.490 -0.0690 -0.3616  0.3248
    1SOL    HW2 8362   2.705   3.206   3.585 -0.6145 -0.4068  0.3157
    1SOL    HW3 8363   2.796   3.158   3.474  0.0245 -0.3603  0.8155
    1SOL    MW4 8364   2.719   3.189   3.500 -0.1285 -0.3676  0.3886
    1SOL     OW 8365   2.735   3.454   3.435  0.9552  0.2474 -0.1125
    1SOL    HW2 8366   2.713   3.361   3.443 -0.0007  0.4543 -0.1993
    1SOL    HW3 8367   2.660   3.499   3.474  1.7111  0.9661  0.4917
    1SOL    MW4 8368   2.722   3.447   3.441  0.9289  0.3698 -0.0443
    1SOL     OW 8369   2.974   3.563   3.515 -0.1613  0.2718  0.2234
    1SOL    HW2 8370   2.967   3.655   3.491  1.7006  0.2898 -0.3232
    1SOL    HW3 8371   2.887   3.527   3.498 -0.5165  1.6241 -0.9070
    1SOL    MW4 8372   2.962   3.570   3.509  0.0374  0.4525  0.0021
    1SOL     OW 8373   2.977   3.826   3.404  0.1860 -0.0389 -0.3565
    1SOL    HW2 8374   3.044   3.876   3.452 -0.6135  0.4206  0.2925
    1SOL    HW3 8375   2.895   3.867   3.429 -0.2430  0.2680 -2.2131
    1SOL    MW4 8376   2.975   3.838   3.414  0.0241  0.0622 -0.5159
    1SOL     OW 8377   2.710   3.942   3.442  0.2791  0.0713 -0.0308
    1SOL    HW2 8378   2.717   3.956   3.536 -1.1448 -1.1340  0.2789
    1SOL    HW3 8379   2.682   4.026   3.407 -0.9177  0.0628  0.8576
    1SOL    MW4 8380   2.707   3.955   3.450 -0.0668 -0.0889  0.1273
    1SOL     OW 8381   2.629   4.221   3.395  0.5035  0.4169  0.1747
    1SOL    HW2 8382   2.709   4.266   3.423 -0.2286 -0.0852  3.2574
    1SOL    HW3 8383   2.559   4.266   3.443 -0.6439 -1.5041  0.3299
    1SOL    MW4 8384   2.630   4.233   3.405  0.2553  0.0968  0.6020
    1SOL     OW 8385   2.882   4.349   3.490 -0.1735  0.0827  0.3963
    1SOL    HW2 8386   2.878   4.365   3.584  0.0464 -0.1598  0.4469
    1SOL    HW3 8387   2.892   4.436   3.452  0.7442  0.0989  0.6598
    1SOL    MW4 8388   2.883   4.363   3.497 -0.0236  0.0525  0.4377
    1SOL     OW 8389   3.363   4.639   3.391  0.0097 -0.3704 -0.0632
    1SOL    HW2 8390   3.284   4.681   3.423 -1.2441 -3.1671  0.6925
    1SOL    HW3 8391   3.369   4.666   3.299 -0.1672  2.1922  0.6494
    1SOL    MW4 8392   3.353   4.648   3.383 -0.1793 -0.4010  0.1304
    1SOL     OW 8393   3.102   0.067   3.507 -0.0898 -0.2880  0.5551
    1SOL    HW2 8394   3.104   0.155   3.469  1.6533  0.0990  1.5129
    1SOL    HW3 8395   3.037   0.020   3.454 -1.6035  1.7660  0.5158
    1SOL    MW4 8396   3.093   0.072   3.495 -0.0594  0.0341  0.6764
    1SOL     OW 8397   3.123   0.328   3.415 -0.1477 -0.1649 -0.2761
    1SOL    HW2 8398   3.075   0.402   3.451  0.3766 -0.2086  0.5194
    1SOL    HW3 8399   3.107   0.332   3.321 -1.4516  0.0080 -0.0584
    1SOL    MW4 8400   3.114   0.338   3.407 -0.2503 -0.1478 -0.1423
    1SOL     OW 8401   3.332   0.492   3.475 -0.5823  0.4241 -0.0964
    1SOL    HW2 8402   3.336   0.504   3.570 -1.0048 -0.4706  0.0287
    1SOL    HW3 8403   3.262   0.429   3.461  1.2280 -1.4683 -0.8261
    1SOL    MW4 8404   3.324   0.486   3.486 -0.3989  0.0564 -0.1764
    1SOL     OW 8405   3.320   0.749   3.350 -0.3420  0.0745 -0.4694
    1SOL    HW2 8406   3.393   0.797   3.391 -1.5157  2.3722 -0.9939
    1SOL    HW3 8407   3.327   0.660   3.386  2.3836  0.3980 -0.1040
    1SOL    MW4 8408   3.330   0.744   3.360 -0.1373  0.4203 -0.4904
    1SOL     OW 8409   3.109   0.852   3.497 -0.4560 -0.2282 -0.1907
    1SOL    HW2 8410   3.105   0.945   3.473  0.7223  0.0487  0.6306
    1SOL    HW3 8411   3.174   0.814   3.438 -0.7698 -0.4895 -0.3727
    1SOL    MW4 8412   3.117   0.859   3.486 -0.3419 -0.2261 -0.1063
    1SOL     OW 8413   3.112   1.126   3.430 -0.4585 -0.4936 -0.5864
    1SOL    HW2 8414   3.195   1.165   3.458 -0.5744 -0.6461 -0.0267
    1SOL    HW3 8415   3.116   1.127   3.334  0.5207 -1.2015 -0.5626
    1SOL    MW4 8416   3.123   1.131   3.421 -0.3450 -0.6070 -0.5095
    1SOL     OW 8417   3.345   1.253   3.530  0.6613  0.0798 -0.0832
    1SOL    HW2 8418   3.429   1.218   3.500  0.4162  0.1886 -0.8961
    1SOL    HW3 8419   3.341   1.341   3.492  0.2101  0.1007  0.0123
    1SOL    MW4 8420   3.356   1.260   3.521  0.5693  0.0970 -0.1779
    1SOL     OW 8421   3.344   1.510   3.381 -0.2686  0.1584 -0.5732
    1SOL    HW2 8422   3.430   1.540   3.412 -0.6617  0.3146  0.3845
    1SOL    HW3 8423   3.283   1.576   3.412 -0.6833  0.3237 -1.7140
    1SOL    MW4 8424   3.347   1.523   3.389 -0.3750  0.2009 -0.5972
    1SOL     OW 8425   3.163   1.691   3.491  0.1911 -0.0824 -0.0681
    1SOL    HW2 8426   3.174   1.755   3.421  1.0253 -1.3630 -1.1465
    1SOL    HW3 8427   3.088   1.638   3.464  1.3447 -1.4288 -0.6918
    1SOL    MW4 8428   3.155   1.692   3.478  0.4535 -0.4290 -0.2923
    1SOL     OW 8429   3.154   1.925   3.365 -0.5633 -0.2147 -0.0508
    1SOL    HW2 8430   3.078   1.967   3.406 -0.6700  0.4735 -0.9425
    1SOL    HW3 8431   3.228   1.979   3.392 -0.4341 -0.6527  0.4867
    1SOL    MW4 8432   3.154   1.938   3.374 -0.5600 -0.1816 -0.0973
    1SOL     OW 8433   3.384   2.054   3.440 -0.1859  0.6286  0.2623
    1SOL    HW2 8434   3.373   2.144   3.409 -0.9538  0.2248 -0.6545
    1SOL    HW3 8435   3.385   2.062   3.535  0.9335  1.7401  0.1787
    1SOL    MW4 8436   3.383   2.067   3.448 -0.1395  0.7222  0.1304
    1SOL     OW 8437   3.366   2.319   3.372  0.3360 -0.4049 -0.5893
    1SOL    HW2 8438   3.449   2.345   3.411  1.2834  0.2584 -3.0050
    1SOL    HW3 8439   3.300   2.353   3.433  1.7569  1.1937  0.0966
    1SOL    MW4 8440   3.368   2.327   3.385  0.6483 -0.1068 -0.8175
    1SOL     OW 8441   3.134   2.445   3.515  0.2775 -0.0792 -0.1821
    1SOL    HW2 8442   3.152   2.534   3.485  0.1150 -0.2615 -0.8256
    1SOL    HW3 8443   3.052   2.421   3.470  0.1348 -0.4225  0.2617
    1SOL    MW4 8444   3.125   2.454   3.505  0.2372 -0.1488 -0.2086
    1SOL     OW 8445   3.139   2.716   3.375  0.0985 -0.3782 -0.1904
    1SOL    HW2 8446   3.221   2.754   3.405  0.1899  0.1877 -1.1413
    1SOL    HW3 8447   3.072   2.759   3.427  0.3021  0.1443 -0.3605
    1SOL    MW4 8448   3.141   2.726   3.385  0.1376 -0.2346 -0.3381
    1SOL     OW 8449   3.378   2.795   3.481 -0.4506  0.0460  0.0778
    1SOL    HW2 8450   3.401   2.814   3.572  1.2074 -1.0841 -0.0793
    1SOL    HW3 8451   3.403   2.875   3.434 -1.1337  0.5601  0.5905
    1SOL    MW4 8452   3.385   2.808   3.487 -0.3219 -0.0353  0.1247
    1SOL     OW 8453   3.406   3.040   3.366 -0.2119  0.0140 -0.4250
    1SOL    HW2 8454   3.469   3.098   3.408 -0.2006 -0.3766  0.1085
    1SOL    HW3 8455   3.321   3.072   3.394 -0.2246  0.1016 -0.5626
    1SOL    MW4 8456   3.403   3.052   3.375 -0.2122 -0.0260 -0.3726
    1SOL     OW 8457   3.191   3.195   3.519  0.3572  0.0335 -0.3424
    1SOL    HW2 8458   3.198   3.281   3.478  0.9572 -0.2756 -0.8968
    1SOL    HW3 8459   3.105   3.163   3.492  1.0550 -0.4816 -1.9912
    1SOL    MW4 8460   3.181   3.202   3.510  0.5286 -0.0753 -0.6330
    1SOL     OW 8461   3.223   3.451   3.401 -0.0542  0.3567  0.3040
    1SOL    HW2 8462   3.140   3.490   3.429 -0.2440 -1.0278  1.7394
    1SOL    HW3 8463   3.214   3.444   3.306 -1.9974 -0.6635  0.5238
    1SOL    MW4 8464   3.211   3.455   3.392 -0.3355  0.0396  0.5226
    1SOL     OW 8465   3.419   3.622   3.507  0.0505 -0.3308  0.5588
    1SOL    HW2 8466   3.396   3.708   3.473 -2.1952 -0.5617  1.4185
    1SOL    HW3 8467   3.363   3.561   3.458  1.3826 -1.2927  0.1917
    1SOL    MW4 8468   3.409   3.625   3.496 -0.0699 -0.4880  0.6239
    1SOL     OW 8469   3.388   3.861   3.389  0.4302 -0.3432  0.9272
    1SOL    HW2 8470   3.463   3.903   3.431 -0.0384  1.4076  0.0807
    1SOL    HW3 8471   3.312   3.903   3.429 -0.0325  1.9336 -2.1083
    1SOL    MW4 8472   3.388   3.872   3.400  0.3073  0.1881  0.4151
    1SOL     OW 8473   3.180   3.961   3.525  0.0699 -0.0519  0.1271
    1SOL    HW2 8474   3.180   3.967   3.620  0.2480  0.3146  0.1041
    1SOL    HW3 8475   3.166   4.050   3.495 -1.1286 -0.3388 -0.1880
    1SOL    MW4 8476   3.179   3.973   3.534 -0.0646 -0.0412  0.0827
    1SOL     OW 8477   3.129   4.238   3.425 -0.1650  0.0817 -0.0223
    1SOL    HW2 8478   3.188   4.305   3.457 -0.6575  0.0295  0.9944
    1SOL    HW3 8479   3.041   4.272   3.443 -0.4172 -0.7781  0.4076
    1SOL    MW4 8480   3.125   4.251   3.431 -0.2635 -0.0391  0.1686
    1SOL     OW 8481   3.366   4.378   3.514 -0.3757 -0.4469  0.7158
    1SOL    HW2 8482   3.352   4.410   3.603  0.0609  0.4107  0.4804
    1SOL    HW3 8483   3.368   4.457   3.460 -1.2098 -0.9980 -0.1374
    1SOL    MW4 8484   3.365   4.392   3.518 -0.4282 -0.4063  0.5722
    1SOL     OW 8485   3.811   4.628   3.403 -0.0431 -0.9644 -0.3479
    1SOL    HW2 8486   3.724   4.660   3.428 -0.5711 -2.5087 -0.0849
    1SOL    HW3 8487   3.810   4.626   3.308 -0.1527 -0.5899 -0.3544
    1SOL    MW4 8488   3.799   4.632   3.394 -0.1271 -1.1188 -0.3138
    1SOL     OW 8489   3.589   0.113   3.479 -0.1159 -0.0787 -0.3535
    1SOL    HW2 8490   3.586   0.198   3.435  1.8794 -0.8610 -2.0922
    1SOL    HW3 8491   3.508   0.070   3.454 -0.1391  0.4783 -1.2673
    1SOL    MW4 8492   3.578   0.118   3.470  0.1440 -0.1084 -0.7036
    1SOL     OW 8493   3.578   0.376   3.359 -0.0274  0.2705  0.4224
    1SOL    HW2 8494   3.655   0.427   3.383 -0.3678  0.9192  0.1682
    1SOL    HW3 8495   3.507   0.415   3.409 -0.4854  0.7474 -0.5740
    1SOL    MW4 8496   3.579   0.388   3.369 -0.1328  0.4190  0.2575
    1SOL     OW 8497   3.780   0.524   3.482  0.0204  0.3289 -0.7179
    1SOL    HW2 8498   3.761   0.526   3.575 -0.6631 -0.1559 -0.8485
    1SOL    HW3 8499   3.866   0.482   3.476  0.3701  0.9726 -0.2651
    1SOL    MW4 8500   3.789   0.519   3.493 -0.0238  0.3499 -0.6752
    1SOL     OW 8501   3.794   0.765   3.389  0.3389 -0.2373 -0.1461
    1SOL    HW2 8502   3.872   0.807   3.428 -0.2130  0.4650  0.2134
    1SOL    HW3 8503   3.794   0.677   3.425  1.0934 -0.3128 -0.3129
    1SOL    MW4 8504   3.805   0.759   3.399  0.3660 -0.1546 -0.1206
    1SOL     OW 8505   3.543   0.845   3.478 -0.0716 -0.0568  0.2117
    1SOL    HW2 8506   3.542   0.826   3.572 -0.0487  0.4437  0.3124
    1SOL    HW3 8507   3.630   0.815   3.450  0.0992  0.2238  0.4381
    1SOL    MW4 8508   3.555   0.838   3.487 -0.0458  0.0463  0.2549
    1SOL     OW 8509   3.568   1.133   3.428  0.2624  0.1143  0.5290
    1SOL    HW2 8510   3.576   1.041   3.452  1.3070  0.5987  2.0737
    1SOL    HW3 8511   3.565   1.132   3.332  1.8321 -1.4218  0.4706
    1SOL    MW4 8512   3.569   1.120   3.418  0.6073 -0.0246  0.7255
    1SOL     OW 8513   3.813   1.248   3.516 -0.1523 -0.3552  0.5925
    1SOL    HW2 8514   3.822   1.248   3.611 -1.1073  2.8236  0.7577
    1SOL    HW3 8515   3.722   1.222   3.500 -0.2540 -0.0107  0.6031
    1SOL    MW4 8516   3.802   1.245   3.526 -0.2916  0.1097  0.6158
    1SOL     OW 8517   3.800   1.507   3.404 -0.3962  0.4380  0.1019
    1SOL    HW2 8518   3.881   1.537   3.445 -1.0070  2.1135  0.1008
    1SOL    HW3 8519   3.791   1.416   3.433  1.9736 -0.0692 -0.6703
    1SOL    MW4 8520   3.810   1.499   3.413 -0.1645  0.5921  0.0002
    1SOL     OW 8521   3.572   1.618   3.507  0.0353  0.1407 -0.1633
    1SOL    HW2 8522   3.582   1.709   3.479  1.0499  0.1782  0.2950
    1SOL    HW3 8523   3.656   1.578   3.485 -0.2736 -0.5905 -0.0033
    1SOL    MW4 8524   3.584   1.625   3.500  0.1283  0.0492 -0.0815
    1SOL     OW 8525   3.587   1.881   3.373 -0.6051 -0.5327  0.1162
    1SOL    HW2 8526   3.662   1.940   3.384 -0.8818 -0.1281 -0.1449
    1SOL    HW3 8527   3.511   1.938   3.383 -0.8742 -0.7876 -0.4620
    1SOL    MW4 8528   3.587   1.897   3.376 -0.6771 -0.5130  0.0052
    1SOL     OW 8529   3.795   2.044   3.445  0.1088 -0.1836  0.3390
    1SOL    HW2 8530   3.785   2.062   3.539 -0.9700 -0.9735  0.3924
    1SOL    HW3 8531   3.877   1.996   3.439  0.2943  0.0586  0.8577
    1SOL    MW4 8532   3.804   2.040   3.457 -0.0091 -0.2558  0.4146
    1SOL     OW 8533   3.851   2.311   3.384 -0.0839 -0.2563  0.0264
    1SOL    HW2 8534   3.935   2.341   3.417 -0.0210 -0.4945  0.0823
    1SOL    HW3 8535   3.850   2.217   3.401 -0.6528 -0.1442  0.6563
    1SOL    MW4 8536   3.862   2.303   3.390 -0.1509 -0.2730  0.1166
    1SOL     OW 8537   3.607   2.398   3.495 -0.1448  0.0487  0.1174
    1SOL    HW2 8538   3.586   2.487   3.466 -0.0691 -0.3089 -1.0570
    1SOL    HW3 8539   3.696   2.382   3.462 -0.4909 -0.7723 -0.4515
    1SOL    MW4 8540   3.616   2.407   3.487 -0.1807 -0.1066 -0.1125
    1SOL     OW 8541   3.577   2.639   3.377  0.4991 -0.0384 -0.5317
    1SOL    HW2 8542   3.648   2.673   3.431  0.4272  0.4975 -0.7738
    1SOL    HW3 8543   3.498   2.680   3.412  0.3102 -0.5839 -0.3029
    1SOL    MW4 8544   3.576   2.649   3.389  0.4644 -0.0398 -0.5336
    1SOL     OW 8545   3.767   2.780   3.532  0.1394 -0.6853  0.2059
    1SOL    HW2 8546   3.776   2.781   3.628 -2.7739 -1.0818  0.5489
    1SOL    HW3 8547   3.764   2.873   3.509 -0.2341 -0.5781  0.6532
    1SOL    MW4 8548   3.768   2.793   3.542 -0.2942 -0.7236  0.3104
    1SOL     OW 8549   3.819   3.041   3.418  0.3255 -0.4587  0.9618
    1SOL    HW2 8550   3.898   3.086   3.451  0.5516 -0.1844  0.0629
    1SOL    HW3 8551   3.826   3.047   3.323  0.3643 -2.4143  0.8117
    1SOL    MW4 8552   3.831   3.048   3.410  0.3603 -0.6804  0.8235
    1SOL     OW 8553   3.600   3.191   3.495 -0.4905  0.1876  0.1951
    1SOL    HW2 8554   3.596   3.282   3.464 -0.3832  0.3165  0.5585
    1SOL    HW3 8555   3.688   3.162   3.470 -1.2957 -0.5489 -1.9436
    1SOL    MW4 8556   3.611   3.200   3.487 -0.5825  0.1073 -0.0391
    1SOL     OW 8557   3.610   3.466   3.391 -0.2965 -0.0954  0.2520
    1SOL    HW2 8558   3.544   3.522   3.432  1.0437  0.9685  1.0011
    1SOL    HW3 8559   3.590   3.470   3.297 -0.2515  1.6454  0.2872
    1SOL    MW4 8560   3.599   3.474   3.384 -0.1137  0.2747  0.3555
    1SOL     OW 8561   3.838   3.620   3.450  0.2891 -0.7237 -0.0285
    1SOL    HW2 8562   3.838   3.628   3.546  1.2411 -1.1516  0.0110
    1SOL    HW3 8563   3.762   3.567   3.431  0.1067 -0.6599  0.4980
    1SOL    MW4 8564   3.828   3.614   3.460  0.3905 -0.7720  0.0463
    1SOL     OW 8565   3.838   3.898   3.362 -0.4447 -0.2273 -0.0441
    1SOL    HW2 8566   3.776   3.952   3.411  0.3832  1.2532 -0.5883
    1SOL    HW3 8567   3.836   3.813   3.406 -1.7969  0.2322  0.8133
    1SOL    MW4 8568   3.830   3.894   3.374 -0.5138  0.0288 -0.0029
    1SOL     OW 8569   3.605   3.978   3.497 -0.0677 -0.2074 -0.6690
    1SOL    HW2 8570   3.594   3.983   3.592  2.0571 -0.4259 -0.4054
    1SOL    HW3 8571   3.611   4.070   3.468 -2.2880 -0.0758 -0.8126
    1SOL    MW4 8572   3.604   3.991   3.505 -0.0803 -0.2193 -0.6533
    1SOL     OW 8573   3.602   4.244   3.427 -0.5493  0.2469  0.7203
    1SOL    HW2 8574   3.532   4.291   3.473 -0.1687  1.4533  0.1036
    1SOL    HW3 8575   3.572   4.239   3.336  0.2929  1.0555  0.3855
    1SOL    MW4 8576   3.589   4.250   3.421 -0.3879  0.5126  0.5949
    1SOL     OW 8577   3.821   4.375   3.513 -0.0531 -0.1739 -0.1247
    1SOL    HW2 8578   3.737   4.342   3.480 -0.0476  0.8698 -1.2391
    1SOL    HW3 8579   3.825   4.465   3.481  1.7369 -0.3846 -0.5429
    1SOL    MW4 8580   3.811   4.382   3.504  0.1838 -0.0639 -0.3273
    1SOL     OW 8581   4.250   0.026   3.382 -0.2644 -0.1797 -0.2069
    1SOL    HW2 8582   4.240  -0.058   3.426 -1.0080 -0.5213 -1.0367
    1SOL    HW3 8583   4.334   0.059   3.414 -1.0330 -0.1691  1.9043
    1SOL    MW4 8584   4.260   0.020   3.392 -0.4640 -0.2234 -0.0377
    1SOL     OW 8585   4.020   0.115   3.505 -0.1236 -0.3662  0.1047
    1SOL    HW2 8586   4.095   0.091   3.450 -1.4552  1.8532 -2.8336
    1SOL    HW3 8587   3.945   0.074   3.463 -0.9988  0.2866  1.0205
    1SOL    MW4 8588   4.020   0.107   3.492 -0.4144  0.0128 -0.1621
    1SOL     OW 8589   4.009   0.387   3.413 -0.2513  0.3054 -0.1073
    1SOL    HW2 8590   4.001   0.301   3.455  1.7200 -0.4399 -1.1947
    1SOL    HW3 8591   4.011   0.368   3.319  3.9494  1.1714 -0.2771
    1SOL    MW4 8592   4.008   0.373   3.406  0.5631  0.3213 -0.2732
    1SOL     OW 8593   4.256   0.488   3.508 -0.5157 -0.3916 -0.2289
    1SOL    HW2 8594   4.264   0.577   3.472  0.0370 -1.0407 -1.7995
    1SOL    HW3 8595   4.170   0.458   3.479 -0.2002 -0.7999 -0.7662
    1SOL    MW4 8596   4.246   0.496   3.499 -0.4010 -0.5311 -0.5069
    1SOL     OW 8597   4.261   0.760   3.403 -0.5967  0.6525  0.3525
    1SOL    HW2 8598   4.331   0.821   3.422  0.0704  0.4090 -1.2563
    1SOL    HW3 8599   4.257   0.756   3.307 -0.5925 -1.8220  0.4058
    1SOL    MW4 8600   4.269   0.767   3.393 -0.5083  0.2939  0.1473
    1SOL     OW 8601   4.031   0.874   3.497  0.1754 -0.1278 -0.0398
    1SOL    HW2 8602   4.045   0.962   3.461  1.8136  0.3258  1.6508
    1SOL    HW3 8603   4.106   0.823   3.466  0.0727 -0.5053  0.3266
    1SOL    MW4 8604   4.042   0.879   3.488  0.3777 -0.1178  0.2317
    1SOL     OW 8605   4.034   1.156   3.385  0.2527  0.0967 -0.3438
    1SOL    HW2 8606   4.114   1.197   3.419  1.5811 -0.9845 -2.0356
    1SOL    HW3 8607   3.964   1.214   3.411  1.6759  1.4012  0.6609
    1SOL    MW4 8608   4.035   1.169   3.393  0.6156  0.1261 -0.4344
    1SOL     OW 8609   4.257   1.237   3.506 -0.0812 -0.2265 -0.1091
    1SOL    HW2 8610   4.243   1.329   3.483  0.8679  0.5733  2.2975
    1SOL    HW3 8611   4.346   1.218   3.475 -0.6040 -0.6055 -1.3921
    1SOL    MW4 8612   4.267   1.247   3.499 -0.0248 -0.1709  0.0391
    1SOL     OW 8613   4.262   1.498   3.393  0.6571  0.1719 -0.0357
    1SOL    HW2 8614   4.184   1.548   3.417  0.6711  0.3244 -0.3010
    1SOL    HW3 8615   4.268   1.507   3.298  0.4023 -0.7103 -0.1396
    1SOL    MW4 8616   4.253   1.506   3.383  0.6251  0.0757 -0.0844
    1SOL     OW 8617   4.029   1.620   3.507 -0.2155 -0.2041  0.3885
    1SOL    HW2 8618   4.035   1.644   3.600  0.1245  0.6329  0.1531
    1SOL    HW3 8619   4.029   1.704   3.461 -0.0510 -0.6291 -0.3842
    1SOL    MW4 8620   4.030   1.634   3.513 -0.1488 -0.1496  0.2553
    1SOL     OW 8621   4.024   1.873   3.371  0.3646 -0.1537  0.7269
    1SOL    HW2 8622   4.095   1.928   3.406  0.5387 -0.5937  1.0760
    1SOL    HW3 8623   4.009   1.907   3.283  0.3777  0.5436  0.9840
    1SOL    MW4 8624   4.031   1.885   3.364  0.3891 -0.1198  0.8070
    1SOL     OW 8625   4.237   2.039   3.450  0.1915 -0.5668 -0.2342
    1SOL    HW2 8626   4.238   2.133   3.429  0.7670 -0.3386  0.7735
    1SOL    HW3 8627   4.325   2.009   3.428 -0.3885 -1.1526 -1.7732
    1SOL    MW4 8628   4.249   2.048   3.445  0.1917 -0.6142 -0.3042
    1SOL     OW 8629   4.272   2.324   3.396 -0.2865 -0.3706 -0.1416
    1SOL    HW2 8630   4.209   2.392   3.420 -0.4151 -0.1633 -1.0398
    1SOL    HW3 8631   4.261   2.314   3.301  0.5546 -0.8163 -0.1959
    1SOL    MW4 8632   4.262   2.331   3.386 -0.1926 -0.4020 -0.2673
    1SOL     OW 8633   4.060   2.463   3.494 -0.0160 -0.0095 -0.5063
    1SOL    HW2 8634   4.051   2.465   3.589 -1.2590 -1.2018 -0.5830
    1SOL    HW3 8635   4.034   2.551   3.466 -0.7652 -0.0002  0.1841
    1SOL    MW4 8636   4.055   2.475   3.503 -0.2789 -0.1657 -0.4253
    1SOL     OW 8637   4.013   2.728   3.419 -0.0512  0.0824  0.3858
    1SOL    HW2 8638   4.087   2.770   3.464  0.0772 -0.4201  0.6510
    1SOL    HW3 8639   3.936   2.752   3.470 -0.1345  1.0169 -0.1744
    1SOL    MW4 8640   4.013   2.736   3.432 -0.0448  0.1395  0.3469
    1SOL     OW 8641   4.245   2.836   3.507  0.2939  0.4206  0.4421
    1SOL    HW2 8642   4.249   2.811   3.599  1.2852 -1.7009 -0.1655
    1SOL    HW3 8643   4.323   2.797   3.467 -1.3512 -0.7060 -1.7771
    1SOL    MW4 8644   4.256   2.828   3.514  0.2069 -0.0079  0.0694
    1SOL     OW 8645   4.261   3.099   3.374  0.1263  0.1256  0.2329
    1SOL    HW2 8646   4.274   3.008   3.402  1.3188  0.2596  0.0979
    1SOL    HW3 8647   4.256   3.094   3.278 -1.0532  0.0490  0.2879
    1SOL    MW4 8648   4.262   3.086   3.365  0.1283  0.1330  0.2222
    1SOL     OW 8649   4.031   3.222   3.468 -0.0753 -0.6681  0.2482
    1SOL    HW2 8650   4.037   3.314   3.445  0.6794 -0.4013  1.4729
    1SOL    HW3 8651   4.107   3.182   3.425 -1.6652 -1.1516 -2.1982
    1SOL    MW4 8652   4.042   3.229   3.460 -0.1855 -0.6967  0.0870
    1SOL     OW 8653   4.065   3.483   3.387  0.1437 -0.0211  0.4250
    1SOL    HW2 8654   4.132   3.517   3.446 -0.1393  0.7886  0.2812
    1SOL    HW3 8655   3.986   3.532   3.408  0.3942  1.3252 -1.6035
    1SOL    MW4 8656   4.063   3.494   3.397  0.1397  0.2635  0.1388
    1SOL     OW 8657   4.278   3.606   3.489 -0.0106  0.3478  0.0349
    1SOL    HW2 8658   4.285   3.611   3.584  1.8243  1.7221 -0.1641
    1SOL    HW3 8659   4.289   3.696   3.459 -0.5118 -0.0885 -1.4873
    1SOL    MW4 8660   4.280   3.618   3.497  0.1650  0.4711 -0.1924
    1SOL     OW 8661   4.297   3.862   3.377 -0.0622  0.3516  0.0555
    1SOL    HW2 8662   4.382   3.902   3.391  0.5103 -0.8965  0.1855
    1SOL    HW3 8663   4.282   3.869   3.283  0.8030 -0.6656 -0.1598
    1SOL    MW4 8664   4.306   3.868   3.367  0.1273  0.0529  0.0443
    1SOL     OW 8665   4.063   4.013   3.471 -0.0488  0.3524  0.1007
    1SOL    HW2 8666   4.139   3.968   3.435  0.1190  0.2955  0.5246
    1SOL    HW3 8667   3.988   3.964   3.439  0.1208 -0.0146  0.2665
    1SOL    MW4 8668   4.063   4.001   3.462 -0.0043  0.2961  0.1786
    1SOL     OW 8669   4.056   4.278   3.413 -0.7079  0.3070 -0.1488
    1SOL    HW2 8670   4.072   4.186   3.434 -0.3047  0.6962  1.3649
    1SOL    HW3 8671   3.970   4.296   3.451 -1.3730  0.2195 -1.5943
    1SOL    MW4 8672   4.047   4.268   3.421 -0.7424  0.3471 -0.1400
    1SOL     OW 8673   4.253   4.447   3.503  0.2020  0.2897 -0.0908
    1SOL    HW2 8674   4.262   4.437   3.598 -0.7963 -0.0071 -0.0218
    1SOL    HW3 8675   4.189   4.381   3.478  0.4591  0.3755 -0.9742
    1SOL    MW4 8676   4.245   4.437   3.512  0.1049  0.2623 -0.1981
    1SOL     OW 8677   0.274   4.640   3.863  0.6078 -0.3293  0.4517
    1SOL    HW2 8678   0.281   4.650   3.958  1.9628  1.1873  0.2122
    1SOL    HW3 8679   0.202   4.698   3.839  0.3204 -0.6483  0.5440
    1SOL    MW4 8680   0.265   4.649   3.873  0.7487 -0.1712  0.4323
    1SOL     OW 8681   0.053   0.111   3.756  0.2989 -0.4483 -0.4680
    1SOL    HW2 8682   0.034   0.204   3.764 -0.8482 -0.7016 -0.1909
    1SOL    HW3 8683   0.036   0.090   3.664 -0.1740 -0.5422 -0.3605
    1SOL    MW4 8684   0.048   0.120   3.745  0.0851 -0.4941 -0.4175
    1SOL     OW 8685   4.476   0.384   3.810  0.2885 -0.9653 -0.2261
    1SOL    HW2 8686   4.396   0.436   3.808 -0.4624 -1.8360  3.6037
    1SOL    HW3 8687   4.546   0.445   3.787 -1.2627  0.1439 -2.1542
    1SOL    MW4 8688   4.474   0.399   3.807 -0.0153 -0.9338  0.0246
    1SOL     OW 8689   0.217   0.524   3.810 -0.0465 -0.1905 -0.1300
    1SOL    HW2 8690   0.208   0.617   3.830 -1.0959 -0.2293 -0.4142
    1SOL    HW3 8691   0.203   0.518   3.715 -0.6214 -0.7140 -0.0174
    1SOL    MW4 8692   0.214   0.535   3.800 -0.2608 -0.2646 -0.1526
    1SOL     OW 8693   0.193   0.789   3.890 -0.2295  0.1002  0.0207
    1SOL    HW2 8694   0.172   0.797   3.983  0.3611  0.6181  0.1108
    1SOL    HW3 8695   0.118   0.828   3.845 -0.5065 -0.1305  0.2799
    1SOL    MW4 8696   0.181   0.795   3.897 -0.1881  0.1380  0.0670
    1SOL     OW 8697   4.480   0.905   3.741  0.2701 -0.3214 -0.2144
    1SOL    HW2 8698   4.394   0.868   3.761  0.0899 -0.6151 -1.4740
    1SOL    HW3 8699   4.490   0.979   3.802 -1.3697  0.4297 -0.8361
    1SOL    MW4 8700   4.470   0.910   3.752  0.0300 -0.2609 -0.4625
    1SOL     OW 8701   4.477   1.157   3.873 -0.0878 -0.1157  0.0535
    1SOL    HW2 8702   4.393   1.192   3.846 -0.5746 -0.5326  0.9901
    1SOL    HW3 8703   4.486   1.184   3.964  0.5487 -0.5201  0.1144
    1SOL    MW4 8704   4.467   1.165   3.881 -0.0682 -0.2241  0.1848
    1SOL     OW 8705   0.218   1.284   3.726 -0.4221  0.3465  0.3684
    1SOL    HW2 8706   0.197   1.362   3.776 -2.3358 -0.9769  1.7034
    1SOL    HW3 8707   0.147   1.223   3.745  1.7316 -2.2406  0.4466
    1SOL    MW4 8708   0.206   1.286   3.735 -0.3904 -0.1694  0.5546
    1SOL     OW 8709   0.170   1.505   3.899 -0.2724 -0.3088  0.0767
    1SOL    HW2 8710   0.173   1.537   3.989  1.5290  0.8350 -0.3670
    1SOL    HW3 8711   0.117   1.570   3.852  0.4837  0.1772 -0.1058
    1SOL    MW4 8712   0.163   1.518   3.904  0.0650 -0.0937 -0.0060
    1SOL     OW 8713   0.009   1.680   3.751 -0.0263  0.3183 -0.0528
    1SOL    HW2 8714  -0.002   1.773   3.769  2.2462  0.7376 -0.7057
    1SOL    HW3 8715  -0.014   1.670   3.659 -1.4655  0.0063  0.3326
    1SOL    MW4 8716   0.005   1.691   3.741  0.0834  0.3325 -0.0880
    1SOL     OW 8717   4.461   1.941   3.835 -0.1499 -0.1003  0.1327
    1SOL    HW2 8718   4.455   1.954   3.929 -0.2486  0.6995  0.0215
    1SOL    HW3 8719   4.376   1.967   3.801 -0.1784 -0.5618 -0.1606
    1SOL    MW4 8720   4.449   1.946   3.843 -0.1669 -0.0556  0.0794
    1SOL     OW 8721   0.204   2.067   3.744  0.3330 -0.2644  0.2877
    1SOL    HW2 8722   0.206   2.159   3.769  0.9301  0.1883 -1.3653
    1SOL    HW3 8723   0.120   2.035   3.776 -0.5214  1.2344 -0.4054
    1SOL    MW4 8724   0.193   2.075   3.751  0.2990 -0.0069 -0.0217
    1SOL     OW 8725   0.216   2.325   3.835 -0.0674 -0.1033  0.4176
    1SOL    HW2 8726   0.209   2.326   3.931 -2.2423 -0.6011  0.2869
    1SOL    HW3 8727   0.144   2.380   3.805  0.4798 -0.1189 -0.9561
    1SOL    MW4 8728   0.205   2.332   3.844 -0.2822 -0.1709  0.2191
    1SOL     OW 8729   0.021   2.475   3.739 -0.0113 -0.3834  0.0365
    1SOL    HW2 8730  -0.059   2.424   3.754 -0.9753  0.4907 -1.9281
    1SOL    HW3 8731  -0.000   2.562   3.772 -0.0580 -0.0243 -0.9244
    1SOL    MW4 8732   0.007   2.479   3.745 -0.1445 -0.2210 -0.3495
    1SOL     OW 8733   4.463   2.721   3.845  0.1360  0.5458  0.4744
    1SOL    HW2 8734   4.458   2.725   3.941  2.6933  1.7594  0.6042
    1SOL    HW3 8735   4.547   2.763   3.824  0.2429 -0.9293 -2.2101
    1SOL    MW4 8736   4.473   2.727   3.855  0.4878  0.5109  0.1373
    1SOL     OW 8737   0.205   2.836   3.787 -0.6448  0.0024 -0.6156
    1SOL    HW2 8738   0.296   2.812   3.805 -0.6841 -0.0864 -0.5361
    1SOL    HW3 8739   0.199   2.838   3.692 -1.3593 -3.0349 -0.6914
    1SOL    MW4 8740   0.216   2.833   3.777 -0.7442 -0.4101 -0.6151
    1SOL     OW 8741   0.195   3.095   3.866  0.4723 -0.1459 -0.4114
    1SOL    HW2 8742   0.189   3.086   3.961  1.3729 -0.6007 -0.3916
    1SOL    HW3 8743   0.200   3.005   3.833 -1.4675 -0.0543 -1.0127
    1SOL    MW4 8744   0.195   3.082   3.874  0.3352 -0.1938 -0.4880
    1SOL     OW 8745   0.004   3.270   3.778 -0.2115  0.2908  0.5009
    1SOL    HW2 8746   0.072   3.206   3.799  0.3797  1.0246  0.8301
    1SOL    HW3 8747  -0.001   3.268   3.683  0.0774  0.0367  0.4866
    1SOL    MW4 8748   0.012   3.261   3.768 -0.0954  0.3538  0.5422
    1SOL     OW 8749   4.484   3.498   3.914 -0.2892 -0.4035 -0.1471
    1SOL    HW2 8750   4.548   3.545   3.861 -0.1510  0.7737  1.0399
    1SOL    HW3 8751   4.491   3.407   3.886  2.4331 -0.4116  0.4690
    1SOL    MW4 8752   4.493   3.492   3.903  0.0877 -0.2489  0.0908
    1SOL     OW 8753   0.188   3.640   3.767  0.7758 -0.7306 -0.5522
    1SOL    HW2 8754   0.265   3.588   3.790  0.2506 -0.2255  2.5719
    1SOL    HW3 8755   0.204   3.726   3.807 -1.3489 -0.5939  0.0722
    1SOL    MW4 8756   0.200   3.645   3.775  0.4261 -0.6461 -0.0579
    1SOL     OW 8757   0.237   3.910   3.862 -0.2824 -0.2453 -0.3400
    1SOL    HW2 8758   0.325   3.947   3.858 -0.3620 -0.0730 -0.5152
    1SOL    HW3 8759   0.218   3.902   3.955  0.6402 -2.0092 -0.2790
    1SOL    MW4 8760   0.246   3.914   3.874 -0.1711 -0.4551 -0.3552
    1SOL     OW 8761   0.006   4.022   3.735  0.1538  0.7370 -0.4412
    1SOL    HW2 8762  -0.064   3.969   3.774  1.1806  0.4646  1.0983
    1SOL    HW3 8763   0.087   3.986   3.772  0.8507  3.5514  0.9159
    1SOL    MW4 8764   0.008   4.010   3.745  0.3812  1.0719 -0.0591
    1SOL     OW 8765   0.008   4.270   3.840  0.2909 -0.0740 -0.0943
    1SOL    HW2 8766   0.091   4.309   3.812 -0.4964  0.9353 -1.0417
    1SOL    HW3 8767   0.011   4.181   3.805  1.4918 -0.4566  0.9143
    1SOL    MW4 8768   0.020   4.263   3.832  0.3455  0.0086 -0.0865
    1SOL     OW 8769   0.243   4.379   3.768 -0.0049 -0.5278  0.0083
    1SOL    HW2 8770   0.322   4.332   3.796  0.4090  0.1659  0.0260
    1SOL    HW3 8771   0.251   4.465   3.809 -1.6470 -1.0335  1.4395
    1SOL    MW4 8772   0.255   4.384   3.777 -0.1670 -0.5031  0.1996
    1SOL     OW 8773   0.710   4.666   3.858  0.3508  0.3417  0.2508
    1SOL    HW2 8774   0.690   4.579   3.824  0.6393  0.0446  0.8460
    1SOL    HW3 8775   0.636   4.720   3.829  1.5825  0.5765 -2.6677
    1SOL    MW4 8776   0.698   4.662   3.849  0.5513  0.3333 -0.0558
    1SOL     OW 8777   0.476   0.135   3.792  0.1688 -0.3110  0.3251
    1SOL    HW2 8778   0.445   0.221   3.822 -0.9881  0.3648 -2.6178
    1SOL    HW3 8779   0.406   0.075   3.816 -0.9853  0.3107 -1.3372
    1SOL    MW4 8780   0.463   0.139   3.799 -0.1361 -0.1398 -0.2823
    1SOL     OW 8781   0.450   0.385   3.885 -0.3829 -0.4347  0.0859
    1SOL    HW2 8782   0.517   0.432   3.835  0.0472  1.3366  2.2524
    1SOL    HW3 8783   0.367   0.412   3.845 -0.0141  0.4731 -0.0645
    1SOL    MW4 8784   0.448   0.395   3.873 -0.2775 -0.0812  0.3519
    1SOL     OW 8785   0.656   0.528   3.756  0.1887 -0.2656  0.5944
    1SOL    HW2 8786   0.733   0.480   3.787  1.5360  0.1400 -2.0134
    1SOL    HW3 8787   0.666   0.616   3.792  0.5758 -0.4009  0.8224
    1SOL    MW4 8788   0.667   0.533   3.765  0.4175 -0.2300  0.2804
    1SOL     OW 8789   0.664   0.771   3.855  0.0393 -0.0730 -0.0863
    1SOL    HW2 8790   0.744   0.813   3.823 -0.5489  0.8565 -0.3484
    1SOL    HW3 8791   0.593   0.828   3.825 -0.6947 -0.6558  0.5199
    1SOL    MW4 8792   0.666   0.784   3.847 -0.1352 -0.0272 -0.0410
    1SOL     OW 8793   0.433   0.905   3.791  0.3504 -0.0147  0.7165
    1SOL    HW2 8794   0.418   0.996   3.814 -1.0587 -0.4448  1.5911
    1SOL    HW3 8795   0.350   0.861   3.811  0.1122 -1.0073 -2.1603
    1SOL    MW4 8796   0.420   0.911   3.797  0.1331 -0.2023  0.4523
    1SOL     OW 8797   0.437   1.185   3.845  0.2274 -0.3402  0.2309
    1SOL    HW2 8798   0.503   1.243   3.806  0.2699  0.6354  1.7019
    1SOL    HW3 8799   0.354   1.217   3.811  0.3644 -0.2803 -0.0483
    1SOL    MW4 8800   0.435   1.197   3.836  0.2511 -0.2036  0.3881
    1SOL     OW 8801   0.658   1.310   3.747 -0.2574  0.1307  0.1297
    1SOL    HW2 8802   0.732   1.255   3.774 -1.8654 -2.1749  0.0000
    1SOL    HW3 8803   0.667   1.316   3.652 -0.0053  0.2132  0.1565
    1SOL    MW4 8804   0.669   1.303   3.738 -0.4362 -0.1627  0.1161
    1SOL     OW 8805   0.629   1.566   3.837 -0.4985 -0.0871  0.2930
    1SOL    HW2 8806   0.705   1.616   3.805  0.1925 -0.1279  1.8336
    1SOL    HW3 8807   0.638   1.481   3.796  0.3952 -0.1434  0.5889
    1SOL    MW4 8808   0.640   1.562   3.827 -0.2894 -0.1000  0.5352
    1SOL     OW 8809   0.374   1.654   3.750  0.2697 -0.3805 -0.3903
    1SOL    HW2 8810   0.460   1.622   3.776  0.1058 -0.9339 -0.5146
    1SOL    HW3 8811   0.313   1.599   3.800 -0.0018  0.2005 -0.0844
    1SOL    MW4 8812   0.377   1.642   3.760  0.2123 -0.3769 -0.3662
    1SOL     OW 8813   0.431   1.918   3.822 -0.0200 -0.3401  0.5512
    1SOL    HW2 8814   0.417   1.827   3.794  1.4570  0.0550 -1.5671
    1SOL    HW3 8815   0.351   1.963   3.797 -0.3824 -0.8600  0.7567
    1SOL    MW4 8816   0.419   1.912   3.815  0.1271 -0.3567  0.2990
    1SOL     OW 8817   0.658   2.086   3.753 -0.0550 -0.0507 -0.1415
    1SOL    HW2 8818   0.647   2.170   3.798 -0.3576 -0.9835  1.5532
    1SOL    HW3 8819   0.574   2.042   3.764  0.1539 -0.6441 -0.9120
    1SOL    MW4 8820   0.646   2.092   3.761 -0.0674 -0.2522 -0.0196
    1SOL     OW 8821   0.644   2.351   3.858 -0.0347 -0.0289 -0.3234
    1SOL    HW2 8822   0.722   2.391   3.820 -0.4088  0.3784 -0.6707
    1SOL    HW3 8823   0.571   2.393   3.812 -0.4242 -1.2020 -0.7919
    1SOL    MW4 8824   0.645   2.362   3.847 -0.1355 -0.1299 -0.4311
    1SOL     OW 8825   0.434   2.494   3.768 -0.0457  0.1104  0.1502
    1SOL    HW2 8826   0.363   2.440   3.803 -0.3661  0.3038 -0.1974
    1SOL    HW3 8827   0.442   2.468   3.676 -0.0534  0.4963  0.0381
    1SOL    MW4 8828   0.426   2.484   3.760 -0.0890  0.1872  0.0894
    1SOL     OW 8829   0.465   2.755   3.857 -0.1870  0.0895  0.2732
    1SOL    HW2 8830   0.551   2.773   3.818 -0.7509 -0.5914 -1.3150
    1SOL    HW3 8831   0.446   2.665   3.832 -1.1382  0.0679  1.0698
    1SOL    MW4 8832   0.474   2.746   3.849 -0.3870 -0.0031  0.1686
    1SOL     OW 8833   0.705   2.836   3.764  0.4410  0.3217 -0.6507
    1SOL    HW2 8834   0.787   2.793   3.788  1.0193  1.2007 -1.0046
    1SOL    HW3 8835   0.695   2.818   3.671  1.6083  2.3791 -1.2268
    1SOL    MW4 8836   0.715   2.828   3.755  0.6713  0.7093 -0.7737
    1SOL     OW 8837   0.675   3.094   3.865 -0.0047 -0.3832 -0.1000
    1SOL    HW2 8838   0.680   3.097   3.961  0.5081  0.3622 -0.1446
    1SOL    HW3 8839   0.683   3.001   3.844 -0.8357 -0.6259  0.6185
    1SOL    MW4 8840   0.677   3.082   3.875 -0.0467 -0.3166 -0.0112
    1SOL     OW 8841   0.433   3.223   3.794  0.1506  0.2371  0.1914
    1SOL    HW2 8842   0.512   3.194   3.841  0.6342  1.5017  0.1870
    1SOL    HW3 8843   0.363   3.166   3.827  0.9872 -0.6150  0.5110
    1SOL    MW4 8844   0.434   3.212   3.805  0.3248  0.2916  0.2332
    1SOL     OW 8845   0.400   3.489   3.852  0.5552 -0.2960 -0.2745
    1SOL    HW2 8846   0.479   3.534   3.821 -0.1494  0.1373 -1.4516
    1SOL    HW3 8847   0.413   3.398   3.828  0.0027  0.0423 -1.8876
    1SOL    MW4 8848   0.412   3.483   3.845  0.3893 -0.1943 -0.6425
    1SOL     OW 8849   0.673   3.598   3.770  0.1424 -0.0776  0.2207
    1SOL    HW2 8850   0.682   3.688   3.799 -1.6854  0.1204  0.2174
    1SOL    HW3 8851   0.705   3.599   3.680  0.4435  0.4930  0.3318
    1SOL    MW4 8852   0.678   3.610   3.762 -0.0590  0.0238  0.2348
    1SOL     OW 8853   0.707   3.867   3.844 -0.2380  0.6275  0.0677
    1SOL    HW2 8854   0.728   3.875   3.937  0.0390 -0.2286  0.0776
    1SOL    HW3 8855   0.780   3.908   3.798  0.0426  0.2728  0.1992
    1SOL    MW4 8856   0.719   3.874   3.850 -0.1644  0.4675  0.0863
    1SOL     OW 8857   0.479   4.007   3.749 -0.3376 -0.4163  0.0957
    1SOL    HW2 8858   0.559   3.957   3.767  0.4795  0.6666 -0.4946
    1SOL    HW3 8859   0.464   3.995   3.656 -0.3295  0.1695  0.0200
    1SOL    MW4 8860   0.488   3.999   3.739 -0.2287 -0.1965  0.0076
    1SOL     OW 8861   0.462   4.254   3.886  0.2864  0.4324  0.6540
    1SOL    HW2 8862   0.526   4.310   3.842 -0.7389 -0.3409 -1.9225
    1SOL    HW3 8863   0.480   4.166   3.853 -1.8300  0.1411  0.1756
    1SOL    MW4 8864   0.473   4.250   3.876 -0.1281  0.2918  0.2511
    1SOL     OW 8865   0.651   4.426   3.748  0.0809  1.0298  0.1868
    1SOL    HW2 8866   0.719   4.368   3.782  0.8907  1.7359 -0.2225
    1SOL    HW3 8867   0.660   4.420   3.653 -0.7355  0.7735  0.1212
    1SOL    MW4 8868   0.661   4.417   3.740  0.0799  1.0886  0.1240
    1SOL     OW 8869   1.143   4.626   3.871 -0.1659 -0.2912  0.1262
    1SOL    HW2 8870   1.218   4.665   3.826 -0.0499 -0.7722 -0.0983
    1SOL    HW3 8871   1.130   4.542   3.828 -0.8562 -0.1990  0.1449
    1SOL    MW4 8872   1.151   4.620   3.860 -0.2416 -0.3428  0.0989
    1SOL     OW 8873   0.929   0.122   3.740  0.1247 -0.1326 -0.3516
    1SOL    HW2 8874   1.000   0.071   3.781 -0.8221 -1.0516  0.1555
    1SOL    HW3 8875   0.849   0.086   3.777 -0.6719  0.2182 -1.7016
    1SOL    MW4 8876   0.928   0.110   3.750 -0.1054 -0.2076 -0.4628
    1SOL     OW 8877   0.873   0.384   3.815  0.2123  0.0687 -0.3475
    1SOL    HW2 8878   0.858   0.356   3.905  0.3807 -0.6065 -0.5221
    1SOL    HW3 8879   0.895   0.303   3.768  0.3767  0.4488 -0.9385
    1SOL    MW4 8880   0.874   0.369   3.821  0.2562  0.0297 -0.4485
    1SOL     OW 8881   1.113   0.492   3.749 -0.3974  0.0552 -0.2107
    1SOL    HW2 8882   1.177   0.445   3.802 -0.2212  0.2464 -0.2519
    1SOL    HW3 8883   1.030   0.450   3.768 -0.3211  0.0696  0.1503
    1SOL    MW4 8884   1.111   0.480   3.758 -0.3641  0.0823 -0.1683
    1SOL     OW 8885   1.109   0.737   3.881 -0.2498  0.5550  0.4542
    1SOL    HW2 8886   1.101   0.714   3.973  0.4443  0.3411  0.4628
    1SOL    HW3 8887   1.108   0.652   3.835  0.2982  0.6090  0.3363
    1SOL    MW4 8888   1.108   0.723   3.887 -0.0859  0.5338  0.4399
    1SOL     OW 8889   0.891   0.898   3.755  0.0978 -0.2068  0.2154
    1SOL    HW2 8890   0.956   0.838   3.792 -0.8088 -1.2672  0.0897
    1SOL    HW3 8891   0.896   0.884   3.661 -0.1344 -0.1040  0.1878
    1SOL    MW4 8892   0.900   0.888   3.747 -0.0525 -0.3332  0.1950
    1SOL     OW 8893   0.869   1.153   3.833 -0.1331 -0.1040 -0.2962
    1SOL    HW2 8894   0.879   1.143   3.927 -0.7114 -1.3292 -0.3486
    1SOL    HW3 8895   0.864   1.063   3.800 -1.8029  0.3235 -1.2750
    1SOL    MW4 8896   0.870   1.140   3.841 -0.4297 -0.2092 -0.4323
    1SOL     OW 8897   1.120   1.256   3.777  0.3629  0.0347  0.1756
    1SOL    HW2 8898   1.100   1.345   3.803 -0.2433  0.5856 -2.0194
    1SOL    HW3 8899   1.043   1.205   3.802 -0.1967  0.5437 -0.4971
    1SOL    MW4 8900   1.108   1.261   3.783  0.2092  0.1745 -0.2027
    1SOL     OW 8901   1.104   1.545   3.837 -0.0325  0.2709 -0.1318
    1SOL    HW2 8902   1.113   1.549   3.932 -0.7683  0.0852 -0.0520
    1SOL    HW3 8903   1.168   1.609   3.804  0.9413 -0.3942  0.4384
    1SOL    MW4 8904   1.114   1.554   3.845 -0.0012  0.1585 -0.0460
    1SOL     OW 8905   0.890   1.701   3.772  0.0055 -0.6476 -0.0877
    1SOL    HW2 8906   0.965   1.646   3.796  1.4849  1.3404 -0.0246
    1SOL    HW3 8907   0.898   1.713   3.678  0.2413  0.2386  0.0424
    1SOL    MW4 8908   0.901   1.696   3.763  0.2318 -0.2685 -0.0625
    1SOL     OW 8909   0.864   1.957   3.886 -0.3363  0.0691 -0.0674
    1SOL    HW2 8910   0.874   1.866   3.858  0.5473  0.3599 -0.6994
    1SOL    HW3 8911   0.791   1.990   3.833 -1.5635 -0.6520  1.1305
    1SOL    MW4 8912   0.856   1.949   3.876 -0.3816  0.0124  0.0074
    1SOL     OW 8913   1.091   2.114   3.780 -0.3119  0.3755  0.0908
    1SOL    HW2 8914   1.020   2.055   3.806 -0.2668  0.3574  0.1738
    1SOL    HW3 8915   1.097   2.104   3.685 -0.6608  0.6480  0.0377
    1SOL    MW4 8916   1.082   2.105   3.771 -0.3519  0.4091  0.0949
    1SOL     OW 8917   1.116   2.376   3.891  0.4198  0.0839 -0.0100
    1SOL    HW2 8918   1.123   2.386   3.986 -0.9706  0.4908  0.0732
    1SOL    HW3 8919   1.118   2.282   3.876  2.5892  0.0835  0.2419
    1SOL    MW4 8920   1.117   2.365   3.901  0.5225  0.1373  0.0343
    1SOL     OW 8921   0.891   2.456   3.772 -0.3868 -0.2464  0.3245
    1SOL    HW2 8922   0.906   2.550   3.758  0.6954 -0.4554 -0.0130
    1SOL    HW3 8923   0.966   2.427   3.823 -1.0315 -0.8110  0.9555
    1SOL    MW4 8924   0.903   2.465   3.777 -0.3290 -0.3483  0.3633
    1SOL     OW 8925   0.964   2.726   3.821  0.1553  0.1642 -0.5300
    1SOL    HW2 8926   0.960   2.733   3.916  0.5736 -1.4453 -0.3713
    1SOL    HW3 8927   1.035   2.784   3.795  0.0575  0.5862  0.1432
    1SOL    MW4 8928   0.973   2.735   3.830  0.1976  0.0076 -0.4201
    1SOL     OW 8929   1.159   2.888   3.723  0.0418  0.3292  0.3530
    1SOL    HW2 8930   1.245   2.856   3.748 -0.0251  0.2404  0.4681
    1SOL    HW3 8931   1.148   2.969   3.772 -0.0852  0.1602  0.6052
    1SOL    MW4 8932   1.169   2.894   3.732  0.0162  0.2949  0.4015
    1SOL     OW 8933   1.143   3.117   3.865  0.4070  0.0303 -0.4393
    1SOL    HW2 8934   1.222   3.156   3.827 -0.4807  0.6316 -1.6733
    1SOL    HW3 8935   1.071   3.160   3.820 -0.6269 -0.7605  0.4550
    1SOL    MW4 8936   1.144   3.128   3.854  0.1533  0.0052 -0.4845
    1SOL     OW 8937   0.925   3.218   3.730  0.0149  0.2053  0.0919
    1SOL    HW2 8938   0.843   3.199   3.778 -0.5093  0.7371 -0.5906
    1SOL    HW3 8939   0.899   3.219   3.638  0.0964  3.7058  0.0297
    1SOL    MW4 8940   0.911   3.215   3.724 -0.0435  0.7370 -0.0064
    1SOL     OW 8941   0.903   3.470   3.831 -0.2574  0.3198 -0.1302
    1SOL    HW2 8942   0.910   3.393   3.775 -1.1481 -0.7473  1.2084
    1SOL    HW3 8943   0.822   3.512   3.803  0.0939  0.6600 -0.6762
    1SOL    MW4 8944   0.894   3.465   3.820 -0.3285  0.2239 -0.0255
    1SOL     OW 8945   1.111   3.610   3.719  0.2843  0.3688 -0.2912
    1SOL    HW2 8946   1.125   3.692   3.766  0.5420 -0.1449  0.5569
    1SOL    HW3 8947   1.038   3.568   3.765  0.3945 -0.0393 -0.4853
    1SOL    MW4 8948   1.104   3.615   3.732  0.3330  0.2472 -0.2053
    1SOL     OW 8949   1.133   3.860   3.819  0.1243 -0.1699  0.2707
    1SOL    HW2 8950   1.131   3.844   3.914  1.2737 -0.3541  0.2808
    1SOL    HW3 8951   1.207   3.919   3.807  0.5722 -0.8918 -0.6114
    1SOL    MW4 8952   1.143   3.866   3.830  0.3351 -0.2892  0.1559
    1SOL     OW 8953   0.909   4.014   3.735  0.2476  0.1519  0.0896
    1SOL    HW2 8954   0.995   3.974   3.749 -0.8287 -2.1289  0.3634
    1SOL    HW3 8955   0.895   4.007   3.640  0.5953  1.0927 -0.0463
    1SOL    MW4 8956   0.919   4.008   3.724  0.1515 -0.0248  0.1078
    1SOL     OW 8957   0.853   4.279   3.838 -0.3941  0.0698 -0.2861
    1SOL    HW2 8958   0.854   4.264   3.933  1.0086  0.5341 -0.2123
    1SOL    HW3 8959   0.876   4.194   3.800  0.8715  0.3333 -0.1299
    1SOL    MW4 8960   0.857   4.266   3.846 -0.0421  0.1659 -0.2561
    1SOL     OW 8961   1.113   4.382   3.765 -0.3674 -0.2997 -0.1036
    1SOL    HW2 8962   1.024   4.353   3.785 -0.6295  0.8260  0.4183
    1SOL    HW3 8963   1.113   4.395   3.670 -1.2543  1.2487  0.0819
    1SOL    MW4 8964   1.101   4.380   3.755 -0.5190  0.0534 -0.0103
    1SOL     OW 8965   1.547   4.637   3.884  0.4487  0.5138  0.2409
    1SOL    HW2 8966   1.501   4.629   3.968 -1.5212  1.4095 -0.7287
    1SOL    HW3 8967   1.566   4.546   3.859  0.1957  0.1876  1.2049
    1SOL    MW4 8968   1.543   4.624   3.892  0.1553  0.5889  0.2401
    1SOL     OW 8969   1.353   0.114   3.772  0.1775 -0.0085 -0.2003
    1SOL    HW2 8970   1.343   0.200   3.813 -1.3861 -0.1871 -0.2019
    1SOL    HW3 8971   1.430   0.076   3.815 -0.0453  0.7714  0.9010
    1SOL    MW4 8972   1.362   0.120   3.783 -0.0581  0.0709 -0.0556
    1SOL     OW 8973   1.328   0.373   3.890 -0.4492 -0.1481  0.5148
    1SOL    HW2 8974   1.354   0.338   3.975 -0.3839  0.2448  0.6593
    1SOL    HW3 8975   1.410   0.404   3.852 -0.4106 -0.7400  0.1124
    1SOL    MW4 8976   1.342   0.372   3.896 -0.4355 -0.1743  0.4809
    1SOL     OW 8977   1.555   0.459   3.775 -0.4225  0.0707 -0.2782
    1SOL    HW2 8978   1.622   0.415   3.828  0.3359 -0.9091 -2.0115
    1SOL    HW3 8979   1.549   0.547   3.811  1.7030  0.1143 -0.0113
    1SOL    MW4 8980   1.563   0.465   3.787 -0.0418 -0.0528 -0.4718
    1SOL     OW 8981   1.537   0.737   3.866  0.1988 -0.4670  0.4464
    1SOL    HW2 8982   1.619   0.774   3.833 -0.6950  0.3427 -0.8679
    1SOL    HW3 8983   1.468   0.789   3.825 -1.0353 -2.3812  0.0291
    1SOL    MW4 8984   1.539   0.749   3.856 -0.0820 -0.6127  0.2177
    1SOL     OW 8985   1.315   0.892   3.763  0.4391  0.2582 -0.0953
    1SOL    HW2 8986   1.341   0.972   3.808  1.2648  0.0619 -0.2216
    1SOL    HW3 8987   1.239   0.860   3.812  1.0985  0.2434  0.9338
    1SOL    MW4 8988   1.308   0.898   3.775  0.6350  0.2304  0.0236
    1SOL     OW 8989   1.355   1.140   3.898 -0.2716 -0.2705  0.6965
    1SOL    HW2 8990   1.432   1.192   3.873 -0.1256 -1.0860 -0.6200
    1SOL    HW3 8991   1.282   1.181   3.851 -0.2832 -0.8075  0.2519
    1SOL    MW4 8992   1.356   1.152   3.889 -0.2539 -0.4488  0.4642
    1SOL     OW 8993   1.550   1.320   3.782 -0.1137 -0.4568  0.3393
    1SOL    HW2 8994   1.630   1.270   3.801  0.4513  0.1961 -0.2889
    1SOL    HW3 8995   1.556   1.398   3.836 -0.4168 -0.4953  0.4304
    1SOL    MW4 8996   1.561   1.324   3.791 -0.0792 -0.3757  0.2687
    1SOL     OW 8997   1.525   1.539   3.937 -0.2278  0.3660 -0.2677
    1SOL    HW2 8998   1.530   1.523   4.031 -1.7264  4.2574  0.6114
    1SOL    HW3 8999   1.598   1.598   3.919 -0.4750  0.3481 -1.3735
    1SOL    MW4 9000   1.535   1.545   3.947 -0.4581  0.8770 -0.2973
    1SOL     OW 9001   1.331   1.686   3.776 -0.0610  0.3817  0.2668
    1SOL    HW2 9002   1.341   1.773   3.815 -0.5545 -0.0254  1.3255
    1SOL    HW3 9003   1.388   1.630   3.829  0.7207  0.1638 -0.7854
    1SOL    MW4 9004   1.340   1.690   3.788 -0.0230  0.2992  0.2677
    1SOL     OW 9005   1.324   1.947   3.884 -0.2171 -0.1140  0.3540
    1SOL    HW2 9006   1.315   1.957   3.978 -0.2161  0.7667  0.2678
    1SOL    HW3 9007   1.245   1.987   3.848 -0.7756 -1.5107  0.0337
    1SOL    MW4 9008   1.313   1.954   3.891 -0.2908 -0.1822  0.3004
    1SOL     OW 9009   1.539   2.080   3.764  0.4435 -0.5121  0.1699
    1SOL    HW2 9010   1.466   2.033   3.806  1.0629 -0.8810  0.8422
    1SOL    HW3 9011   1.540   2.046   3.675 -0.7173  0.0834 -0.0826
    1SOL    MW4 9012   1.529   2.069   3.758  0.3721 -0.4823  0.2253
    1SOL     OW 9013   1.548   2.363   3.863  0.2335 -0.0869 -0.3425
    1SOL    HW2 9014   1.548   2.365   3.959  1.6879 -0.7203 -0.3120
    1SOL    HW3 9015   1.539   2.270   3.841 -1.4325  0.1895 -0.8419
    1SOL    MW4 9016   1.547   2.351   3.873  0.2056 -0.1342 -0.4044
    1SOL     OW 9017   1.328   2.477   3.729 -0.4756  0.3383  0.5275
    1SOL    HW2 9018   1.400   2.438   3.777  0.1121  0.3018 -0.3698
    1SOL    HW3 9019   1.252   2.423   3.751  0.1822 -0.8716 -0.1251
    1SOL    MW4 9020   1.327   2.465   3.738 -0.3113  0.1738  0.3231
    1SOL     OW 9021   1.374   2.740   3.838  0.1202  0.5944 -0.0960
    1SOL    HW2 9022   1.342   2.726   3.927  0.6969 -0.1764 -0.0092
    1SOL    HW3 9023   1.362   2.656   3.794  1.5870  0.4187 -0.1867
    1SOL    MW4 9024   1.369   2.727   3.844  0.3897  0.4692 -0.0966
    1SOL     OW 9025   1.591   2.861   3.719  0.5437 -0.1963  0.2380
    1SOL    HW2 9026   1.520   2.807   3.754  0.0142  0.8593  0.8060
    1SOL    HW3 9027   1.574   2.863   3.624 -0.0677 -0.1064  0.3486
    1SOL    MW4 9028   1.579   2.854   3.711  0.3932 -0.0453  0.3276
    1SOL     OW 9029   1.571   3.117   3.799 -0.1711  0.0753 -0.0145
    1SOL    HW2 9030   1.598   3.115   3.891 -2.4224 -0.9670  0.6430
    1SOL    HW3 9031   1.591   3.030   3.766 -0.3086  0.1351 -0.2563
    1SOL    MW4 9032   1.577   3.105   3.806 -0.4861 -0.0541  0.0403
    1SOL     OW 9033   1.335   3.249   3.724  0.4962  0.2117 -0.1784
    1SOL    HW2 9034   1.346   3.337   3.760 -0.9827 -0.0709  1.0037
    1SOL    HW3 9035   1.413   3.202   3.753  0.0768  0.4269  1.3471
    1SOL    MW4 9036   1.347   3.255   3.733  0.2457  0.2029  0.1788
    1SOL     OW 9037   1.331   3.502   3.834 -0.2953 -0.2328  0.3110
    1SOL    HW2 9038   1.402   3.548   3.788 -0.7329 -0.5561 -0.7029
    1SOL    HW3 9039   1.251   3.535   3.794 -0.6232 -1.6594 -0.2265
    1SOL    MW4 9040   1.330   3.512   3.823 -0.3963 -0.4637  0.1061
    1SOL     OW 9041   1.542   3.634   3.739  0.4619  0.2756 -0.1877
    1SOL    HW2 9042   1.614   3.582   3.775  0.0701 -0.4689 -0.4677
    1SOL    HW3 9043   1.555   3.722   3.775  1.0559 -0.0473  0.3902
    1SOL    MW4 9044   1.553   3.639   3.748  0.4888  0.1347 -0.1483
    1SOL     OW 9045   1.580   3.887   3.834  0.1138 -0.2641  0.0366
    1SOL    HW2 9046   1.584   3.873   3.928  1.8685 -0.2759 -0.0177
    1SOL    HW3 9047   1.503   3.942   3.821 -0.6331 -0.9672  1.3779
    1SOL    MW4 9048   1.570   3.892   3.844  0.2468 -0.3581  0.2065
    1SOL     OW 9049   1.349   4.022   3.762  0.3119  0.2622  0.1208
    1SOL    HW2 9050   1.352   4.110   3.800 -0.8288  0.9024 -1.2617
    1SOL    HW3 9051   1.366   4.035   3.669 -0.8114 -0.8795 -0.2564
    1SOL    MW4 9052   1.352   4.035   3.755  0.0132  0.1960 -0.1113
    1SOL     OW 9053   1.353   4.259   3.896  0.0672 -0.0039  0.2039
    1SOL    HW2 9054   1.431   4.310   3.875 -0.4848  0.2614 -1.2892
    1SOL    HW3 9055   1.283   4.300   3.845 -0.6680 -1.3557  0.0963
    1SOL    MW4 9056   1.354   4.271   3.886 -0.1026 -0.1473 -0.0074
    1SOL     OW 9057   1.583   4.380   3.794  0.0697 -0.1155  0.2798
    1SOL    HW2 9058   1.653   4.319   3.815  0.9213  0.7222 -0.0601
    1SOL    HW3 9059   1.575   4.374   3.698 -0.1447 -0.0230  0.2923
    1SOL    MW4 9060   1.591   4.371   3.784  0.1540  0.0076  0.2363
    1SOL     OW 9061   1.994   4.632   3.893 -0.3969  0.4062  0.3460
    1SOL    HW2 9062   2.082   4.666   3.880 -0.6733  0.7142 -0.7290
    1SOL    HW3 9063   1.996   4.544   3.854  0.7742 -1.5453  4.4957
    1SOL    MW4 9064   2.006   4.625   3.886 -0.2789  0.1893  0.7520
    1SOL     OW 9065   1.786   0.079   3.751 -0.3632 -0.7623  0.0114
    1SOL    HW2 9066   1.849   0.034   3.806  0.5950 -1.2374 -1.4397
    1SOL    HW3 9067   1.702   0.035   3.768  0.3718 -2.4429 -0.6556
    1SOL    MW4 9068   1.783   0.067   3.760 -0.1398 -1.0467 -0.2682
    1SOL     OW 9069   1.809   0.344   3.883  0.4465  0.0980 -0.0214
    1SOL    HW2 9070   1.823   0.338   3.977 -1.2852  0.3090  0.2668
    1SOL    HW3 9071   1.799   0.253   3.854  1.1206  0.0249 -0.0301
    1SOL    MW4 9072   1.809   0.331   3.891  0.3068  0.1162  0.0157
    1SOL     OW 9073   2.018   0.516   3.807 -0.0107 -0.5972 -0.0194
    1SOL    HW2 9074   1.948   0.460   3.840  0.3655 -0.9835  0.1171
    1SOL    HW3 9075   2.020   0.499   3.713 -0.8196  0.2149 -0.1973
    1SOL    MW4 9076   2.009   0.506   3.799 -0.0679 -0.5410 -0.0250
    1SOL     OW 9077   2.011   0.774   3.908 -0.1208  0.0784  0.4402
    1SOL    HW2 9078   2.026   0.776   4.002  2.1847  0.9939  0.0878
    1SOL    HW3 9079   2.004   0.681   3.886  0.2826 -0.1756  1.3774
    1SOL    MW4 9080   2.012   0.762   3.918  0.2367  0.1657  0.5171
    1SOL     OW 9081   1.754   0.871   3.797  0.1825 -0.1589 -0.0677
    1SOL    HW2 9082   1.837   0.851   3.840  0.5980 -0.6006 -1.0492
    1SOL    HW3 9083   1.777   0.882   3.704 -0.5239  1.8319 -0.0422
    1SOL    MW4 9084   1.768   0.870   3.790  0.1441  0.0455 -0.1941
    1SOL     OW 9085   1.751   1.152   3.894 -0.0364 -0.5176  0.1427
    1SOL    HW2 9086   1.744   1.166   3.989 -1.0279  0.8227 -0.1159
    1SOL    HW3 9087   1.761   1.057   3.885  1.2413 -0.5655  1.6500
    1SOL    MW4 9088   1.751   1.141   3.905  0.0013 -0.3471  0.3076
    1SOL     OW 9089   1.978   1.267   3.780 -0.5520  0.1324  0.6620
    1SOL    HW2 9090   2.056   1.224   3.814  0.9541  1.1160 -1.4521
    1SOL    HW3 9091   1.905   1.220   3.820  1.0980 -1.8321  1.4198
    1SOL    MW4 9092   1.979   1.255   3.790 -0.1355  0.0029  0.4830
    1SOL     OW 9093   1.978   1.550   3.800  0.6827 -0.1582  0.2244
    1SOL    HW2 9094   1.890   1.574   3.828  0.2330  0.9229 -2.0445
    1SOL    HW3 9095   1.975   1.455   3.786 -0.2621 -0.0440 -0.3462
    1SOL    MW4 9096   1.966   1.541   3.802  0.4988 -0.0006 -0.1502
    1SOL     OW 9097   1.724   1.679   3.828 -0.4430 -0.4330 -0.2156
    1SOL    HW2 9098   1.740   1.770   3.851  1.9484 -0.6839 -0.7635
    1SOL    HW3 9099   1.740   1.675   3.734 -1.3863 -1.2672 -0.3542
    1SOL    MW4 9100   1.728   1.690   3.819 -0.2519 -0.5760 -0.3061
    1SOL     OW 9101   1.746   1.966   3.884 -0.4152 -0.7061 -0.0144
    1SOL    HW2 9102   1.680   2.006   3.827  0.3010 -1.1904 -1.1968
    1SOL    HW3 9103   1.829   1.995   3.847  0.0452 -0.5153  1.1718
    1SOL    MW4 9104   1.748   1.975   3.871 -0.2601 -0.7447 -0.0143
    1SOL     OW 9105   1.993   2.332   3.881  0.1445  0.0483  0.6932
    1SOL    HW2 9106   2.073   2.358   3.836  0.3408  0.3199  1.2004
    1SOL    HW3 9107   1.997   2.375   3.966 -0.8235  0.5407  0.5036
    1SOL    MW4 9108   2.004   2.341   3.886  0.0427  0.1493  0.7353
    1SOL     OW 9109   2.216   2.445   3.730  0.2419  0.1107 -0.3510
    1SOL    HW2 9110   2.230   2.447   3.636  2.4036  0.4074 -0.0717
    1SOL    HW3 9111   2.295   2.402   3.764 -0.0361  0.9229  1.3776
    1SOL    MW4 9112   2.229   2.439   3.722  0.4902  0.2568 -0.0858
    1SOL     OW 9113   1.776   2.488   3.749 -0.2875  0.1513 -0.1228
    1SOL    HW2 9114   1.842   2.431   3.789 -0.7999 -0.5659 -0.3064
    1SOL    HW3 9115   1.693   2.457   3.784 -0.3846  2.4165  1.7626
    1SOL    MW4 9116   1.774   2.476   3.759 -0.3679  0.3555  0.1018
    1SOL     OW 9117   3.103   2.638   4.573  0.2767  0.5756 -0.0245
    1SOL    HW2 9118   3.025   2.614   4.522  0.3376  0.2743  0.0246
    1SOL    HW3 9119   3.129   2.723   4.538 -0.3749  0.9207  0.3014
    1SOL    MW4 9120   3.096   2.646   4.562  0.1986  0.5815  0.0253
    1SOL     OW 9121   2.058   3.143   3.826 -0.2421  0.3247  0.0913
    1SOL    HW2 9122   2.134   3.178   3.781  0.8887 -1.0861  0.8592
    1SOL    HW3 9123   2.080   3.148   3.919 -1.7109  1.2897  0.4119
    1SOL    MW4 9124   2.071   3.148   3.833 -0.2868  0.2658  0.2348
    1SOL     OW 9125   2.056   2.883   3.722  0.1070 -0.3446 -0.3543
    1SOL    HW2 9126   2.058   2.972   3.757 -0.9894  0.2439 -1.7462
    1SOL    HW3 9127   1.971   2.848   3.749 -0.0036 -0.5098 -0.9138
    1SOL    MW4 9128   2.045   2.890   3.730 -0.0522 -0.2892 -0.6118
    1SOL     OW 9129   1.806   3.224   3.691  0.1779 -0.4675 -0.0969
    1SOL    HW2 9130   1.875   3.182   3.742 -0.4468 -1.3126  0.0683
    1SOL    HW3 9131   1.725   3.191   3.730 -0.3386  1.6172  0.6525
    1SOL    MW4 9132   1.804   3.214   3.703  0.0274 -0.3040  0.0241
    1SOL     OW 9133   1.763   3.467   3.830 -0.3406 -0.2346 -0.1151
    1SOL    HW2 9134   1.841   3.518   3.813  0.8096 -0.8841  2.9069
    1SOL    HW3 9135   1.781   3.381   3.791  0.7196 -0.5780  1.1179
    1SOL    MW4 9136   1.775   3.462   3.822 -0.0490 -0.3655  0.4463
    1SOL     OW 9137   1.994   3.619   3.765 -0.0007  0.4286 -0.0923
    1SOL    HW2 9138   2.067   3.574   3.808  0.3784 -0.0644 -1.2554
    1SOL    HW3 9139   2.010   3.609   3.672 -1.3073  0.7326 -0.3632
    1SOL    MW4 9140   2.006   3.612   3.759 -0.1230  0.4036 -0.2813
    1SOL     OW 9141   2.014   3.877   3.883  0.0005 -0.5716  0.0197
    1SOL    HW2 9142   2.083   3.923   3.835  0.7222 -1.6902 -0.0310
    1SOL    HW3 9143   2.019   3.787   3.852 -0.1430 -1.1110  1.5259
    1SOL    MW4 9144   2.023   3.871   3.872  0.0768 -0.7904  0.2117
    1SOL     OW 9145   1.804   4.009   3.733  0.1473 -0.2262  0.1756
    1SOL    HW2 9146   1.876   3.960   3.774 -0.1631 -1.3874 -0.6676
    1SOL    HW3 9147   1.725   3.969   3.769 -0.1073 -0.4472 -0.6218
    1SOL    MW4 9148   1.803   3.997   3.743  0.0727 -0.4086 -0.0410
    1SOL     OW 9149   1.828   4.246   3.859  0.9870 -0.1070 -0.0208
    1SOL    HW2 9150   1.899   4.298   3.823  0.3605 -0.1966 -1.4358
    1SOL    HW3 9151   1.835   4.161   3.815  2.7324 -1.6726  3.1399
    1SOL    MW4 9152   1.838   4.242   3.848  1.1345 -0.3257  0.2096
    1SOL     OW 9153   2.049   4.383   3.771  0.1348 -0.3381  0.0567
    1SOL    HW2 9154   2.129   4.347   3.809  0.1380  0.2673  0.6295
    1SOL    HW3 9155   2.061   4.371   3.676  1.8495  1.5868 -0.0273
    1SOL    MW4 9156   2.061   4.377   3.763  0.3617 -0.0043  0.1214
    1SOL     OW 9157   2.459   0.000   3.887  0.2857  0.1556 -0.4939
    1SOL    HW2 9158   2.474   0.002   3.982 -2.3882 -0.1643 -0.0325
    1SOL    HW3 9159   2.465  -0.092   3.863  0.4750  0.1836 -0.5551
    1SOL    MW4 9160   2.462  -0.012   3.896 -0.0422  0.1168 -0.4413
    1SOL     OW 9161   2.227   0.116   3.809 -0.1925 -0.0808  0.5217
    1SOL    HW2 9162   2.314   0.084   3.833 -0.2371  0.4248  1.3767
    1SOL    HW3 9163   2.224   0.106   3.714  0.4128 -1.0592  0.5879
    1SOL    MW4 9164   2.238   0.110   3.800 -0.1183 -0.1432  0.6435
    1SOL     OW 9165   2.243   0.373   3.896  0.0210 -0.2398  0.0194
    1SOL    HW2 9166   2.238   0.280   3.872 -0.0719 -0.4715  0.9342
    1SOL    HW3 9167   2.157   0.408   3.871  0.3600 -0.1962 -1.1356
    1SOL    MW4 9168   2.231   0.365   3.889  0.0532 -0.2646 -0.0124
    1SOL     OW 9169   2.461   0.470   3.757 -0.0788  0.0719 -0.0008
    1SOL    HW2 9170   2.387   0.427   3.799  0.4022 -0.4648  0.3118
    1SOL    HW3 9171   2.442   0.464   3.663 -0.6324  0.3152  0.0957
    1SOL    MW4 9172   2.449   0.464   3.750 -0.0885  0.0331  0.0532
    1SOL     OW 9173   2.493   0.758   3.832  0.2344 -0.3332  0.0133
    1SOL    HW2 9174   2.404   0.791   3.826 -0.3927 -2.0265 -0.2865
    1SOL    HW3 9175   2.488   0.667   3.802  1.3975 -1.5709  3.2406
    1SOL    MW4 9176   2.481   0.750   3.827  0.3049 -0.7199  0.3994
    1SOL     OW 9177   2.258   0.883   3.814 -0.1440 -0.0291  0.7287
    1SOL    HW2 9178   2.177   0.840   3.842 -0.2828  0.1823  0.6575
    1SOL    HW3 9179   2.252   0.884   3.718  0.2739 -0.6440  0.6970
    1SOL    MW4 9180   2.246   0.878   3.805 -0.1068 -0.0823  0.7153
    1SOL     OW 9181   2.218   1.149   3.876  0.0466  0.4976  0.0273
    1SOL    HW2 9182   2.243   1.169   3.967 -0.2145  1.2291 -0.0614
    1SOL    HW3 9183   2.232   1.055   3.868  0.5722  0.5132  0.6757
    1SOL    MW4 9184   2.223   1.140   3.887  0.0813  0.5960  0.1013
    1SOL     OW 9185   2.411   1.283   3.726  0.2196 -0.1473 -0.0160
    1SOL    HW2 9186   2.405   1.377   3.745  1.2273 -0.4869  2.0863
    1SOL    HW3 9187   2.349   1.242   3.786  1.2252 -0.9878  0.4652
    1SOL    MW4 9188   2.402   1.290   3.736  0.4854 -0.3029  0.3250
    1SOL     OW 9189   2.469   1.567   3.854  0.0370 -0.1538  0.1745
    1SOL    HW2 9190   2.548   1.603   3.814 -0.4219  0.6368 -0.0290
    1SOL    HW3 9191   2.397   1.611   3.808 -0.5185 -0.9570  0.2805
    1SOL    MW4 9192   2.470   1.578   3.843 -0.0966 -0.1556  0.1619
    1SOL     OW 9193   2.235   1.685   3.740  0.1425 -0.4577  0.3660
    1SOL    HW2 9194   2.218   1.775   3.769  0.2256  0.1722 -1.4978
    1SOL    HW3 9195   2.163   1.634   3.779 -0.4488  0.5602  0.6436
    1SOL    MW4 9196   2.223   1.690   3.749  0.0753 -0.2403  0.1566
    1SOL     OW 9197   2.227   1.939   3.846 -0.4586  0.0007  0.7397
    1SOL    HW2 9198   2.141   1.981   3.840 -0.0543  0.8443  0.6812
    1SOL    HW3 9199   2.287   2.003   3.807  0.2178 -0.4992  0.9566
    1SOL    MW4 9200   2.223   1.953   3.840 -0.3161  0.0460  0.7606
    1SOL     OW 9201   2.431   2.092   3.730  0.5744  0.0521 -0.5212
    1SOL    HW2 9202   2.419   2.061   3.640 -0.8975  1.4830 -0.8410
    1SOL    HW3 9203   2.509   2.046   3.761 -0.9706 -3.2175 -1.2925
    1SOL    MW4 9204   2.440   2.082   3.722  0.1762 -0.1905 -0.6652
    1SOL     OW 9205   2.225   2.691   3.861 -0.5521  0.0661  0.1131
    1SOL    HW2 9206   2.176   2.747   3.801 -1.8251  0.6403  1.6648
    1SOL    HW3 9207   2.237   2.609   3.813 -1.1808  0.6653 -1.0817
    1SOL    MW4 9208   2.220   2.688   3.847 -0.8028  0.2208  0.1600
    1SOL     OW 9209   0.455   1.908   4.633  0.1988 -0.0535  0.2883
    1SOL    HW2 9210   0.531   1.920   4.689  0.9924 -0.4205 -0.6901
    1SOL    HW3 9211   0.458   1.981   4.572  0.9261 -1.1795 -1.0459
    1SOL    MW4 9212   0.465   1.919   4.632  0.3995 -0.2505 -0.0167
    1SOL     OW 9213   1.991   2.061   3.797 -0.0697  0.3007 -0.3458
    1SOL    HW2 9214   2.007   2.148   3.835  1.8593 -0.3612  0.4343
    1SOL    HW3 9215   1.982   2.077   3.703 -2.2996  1.6428  0.0488
    1SOL    MW4 9216   1.992   2.075   3.790 -0.1094  0.3903 -0.1912
    1SOL     OW 9217   2.452   2.851   3.788 -0.1381  0.0800  0.1681
    1SOL    HW2 9218   2.380   2.798   3.821  1.0799 -0.4856  1.9774
    1SOL    HW3 9219   2.458   2.828   3.695 -1.1076 -1.2431  0.4248
    1SOL    MW4 9220   2.444   2.841   3.780 -0.1054 -0.1690  0.4408
    1SOL     OW 9221   2.477   3.105   3.878 -0.8325 -0.1087  0.2819
    1SOL    HW2 9222   2.465   3.117   3.972  2.2085 -0.6396  0.7739
    1SOL    HW3 9223   2.453   3.014   3.862  0.3005 -0.5032  0.8361
    1SOL    MW4 9224   2.472   3.095   3.888 -0.2816 -0.2308  0.4199
    1SOL     OW 9225   2.299   3.271   3.718 -0.1516 -0.0323 -0.2572
    1SOL    HW2 9226   2.295   3.353   3.767 -2.4531  0.1096 -0.6353
    1SOL    HW3 9227   2.359   3.216   3.769 -0.7968  0.8717  1.5354
    1SOL    MW4 9228   2.306   3.274   3.731 -0.5405  0.1054 -0.0706
    1SOL     OW 9229   2.270   3.500   3.853  0.2617 -0.3771 -0.4082
    1SOL    HW2 9230   2.271   3.487   3.947 -1.2517  1.6347 -0.0724
    1SOL    HW3 9231   2.352   3.546   3.834 -0.1555  0.6422  0.1902
    1SOL    MW4 9232   2.281   3.504   3.863  0.0067  0.0229 -0.2849
    1SOL     OW 9233   2.505   3.628   3.779  0.1954  0.1009  0.2733
    1SOL    HW2 9234   2.578   3.569   3.800 -0.1968 -1.1673 -1.7615
    1SOL    HW3 9235   2.486   3.610   3.687 -2.5043  0.6098  0.7033
    1SOL    MW4 9236   2.512   3.618   3.770 -0.2124  0.0007  0.0615
    1SOL     OW 9237   2.483   3.889   3.833  0.5239  0.0339 -0.1267
    1SOL    HW2 9238   2.563   3.924   3.794  0.4991 -0.5079 -0.6734
    1SOL    HW3 9239   2.481   3.798   3.804 -0.3090  0.0584 -0.1447
    1SOL    MW4 9240   2.493   3.882   3.824  0.4108 -0.0343 -0.2015
    1SOL     OW 9241   2.225   4.033   3.768  0.3027  0.5236 -0.7315
    1SOL    HW2 9242   2.305   3.985   3.789  1.1199  2.1881  0.0480
    1SOL    HW3 9243   2.228   4.045   3.673  0.1558 -0.8450 -0.9131
    1SOL    MW4 9244   2.236   4.028   3.758  0.3910  0.5622 -0.6530
    1SOL     OW 9245   2.275   4.272   3.911 -0.1714  0.6889 -0.2547
    1SOL    HW2 9246   2.252   4.273   4.004  1.9347 -0.3916  0.2937
    1SOL    HW3 9247   2.248   4.186   3.880 -0.1294  0.7501 -0.4632
    1SOL    MW4 9248   2.268   4.261   3.919  0.1123  0.5546 -0.2096
    1SOL     OW 9249   2.494   4.411   3.778 -0.2778  0.1122  0.1948
    1SOL    HW2 9250   2.572   4.358   3.794 -0.1957  0.1280 -0.1703
    1SOL    HW3 9251   2.426   4.371   3.833 -0.3396 -0.6507 -0.4428
    1SOL    MW4 9252   2.495   4.399   3.788 -0.2751  0.0129  0.0625
    1SOL     OW 9253   2.887   4.633   3.886 -0.4451 -0.0832 -0.0385
    1SOL    HW2 9254   2.898   4.637   3.981  0.3984 -1.5602 -0.0488
    1SOL    HW3 9255   2.965   4.675   3.851 -1.3871  1.6476 -0.0828
    1SOL    MW4 9256   2.898   4.639   3.894 -0.4580 -0.0501 -0.0455
    1SOL     OW 9257   2.691   0.114   3.752 -0.3607  0.0174 -0.1624
    1SOL    HW2 9258   2.754   0.061   3.800  0.2358 -0.0173 -0.9792
    1SOL    HW3 9259   2.606   0.077   3.775  0.0262 -1.0380 -0.4012
    1SOL    MW4 9260   2.688   0.102   3.761 -0.2310 -0.1264 -0.3018
    1SOL     OW 9261   2.699   0.388   3.880 -0.2454 -0.9022 -0.2551
    1SOL    HW2 9262   2.702   0.295   3.859 -0.9605 -1.1909  0.8656
    1SOL    HW3 9263   2.624   0.422   3.831  0.7984 -0.6454 -1.6834
    1SOL    MW4 9264   2.689   0.380   3.871 -0.2019 -0.9064 -0.2959
    1SOL     OW 9265   2.898   0.574   3.825  0.3222  0.1210  0.6393
    1SOL    HW2 9266   2.972   0.514   3.834  0.0495 -0.3638 -0.2658
    1SOL    HW3 9267   2.822   0.522   3.847  0.0420  0.0124 -0.5464
    1SOL    MW4 9268   2.898   0.560   3.829  0.2491  0.0427  0.3633
    1SOL     OW 9269   2.953   0.838   3.959  0.2419  0.1175 -0.0554
    1SOL    HW2 9270   3.032   0.868   3.915 -0.6137 -0.4235 -2.0333
    1SOL    HW3 9271   2.926   0.760   3.909 -0.8439 -0.4332  1.3452
    1SOL    MW4 9272   2.960   0.832   3.947 -0.0143 -0.0265 -0.1314
    1SOL     OW 9273   2.709   0.914   3.790  0.0253 -0.2295  0.1683
    1SOL    HW2 9274   2.776   0.875   3.845  0.9577 -0.0975 -0.8431
    1SOL    HW3 9275   2.628   0.871   3.816  0.3707  0.1534  1.9306
    1SOL    MW4 9276   2.707   0.903   3.800  0.1941 -0.1616  0.2675
    1SOL     OW 9277   2.648   1.178   3.849 -0.1119 -0.1267 -0.2243
    1SOL    HW2 9278   2.683   1.092   3.827 -2.0274 -1.2763  1.0977
    1SOL    HW3 9279   2.564   1.183   3.803 -0.7180  0.3971  0.9043
    1SOL    MW4 9280   2.642   1.167   3.840 -0.4444 -0.2093  0.0992
    1SOL     OW 9281   2.881   1.326   3.766 -0.1496  0.1801  0.5540
    1SOL    HW2 9282   2.889   1.400   3.827  0.2685  0.1628  0.5248
    1SOL    HW3 9283   2.801   1.281   3.793 -0.7372  0.9870  0.1879
    1SOL    MW4 9284   2.872   1.329   3.778 -0.1719  0.2842  0.5019
    1SOL     OW 9285   2.882   1.583   3.899  0.0656  0.0901 -0.8748
    1SOL    HW2 9286   2.859   1.608   3.988 -0.8903  0.2893 -1.1724
    1SOL    HW3 9287   2.969   1.621   3.885  0.7935 -1.0653  0.4134
    1SOL    MW4 9288   2.890   1.591   3.909  0.0355 -0.0361 -0.7443
    1SOL     OW 9289   2.682   1.692   3.764 -0.3673  0.3299  0.0775
    1SOL    HW2 9290   2.762   1.660   3.807 -0.4894 -0.6933 -0.4279
    1SOL    HW3 9291   2.697   1.674   3.671 -0.0930  2.5458 -0.3234
    1SOL    MW4 9292   2.695   1.685   3.757 -0.3471  0.4872 -0.0420
    1SOL     OW 9293   2.666   1.957   3.827 -0.3406 -0.2700 -0.1264
    1SOL    HW2 9294   2.679   1.964   3.921  0.2308 -0.2490 -0.2079
    1SOL    HW3 9295   2.690   1.867   3.805 -0.5316 -0.2932 -0.2407
    1SOL    MW4 9296   2.671   1.946   3.837 -0.2904 -0.2702 -0.1521
    1SOL     OW 9297   2.879   2.365   3.909  0.3442  0.3670 -0.3174
    1SOL    HW2 9298   2.807   2.385   3.848 -0.3393  1.0029  0.6947
    1SOL    HW3 9299   2.958   2.389   3.861 -0.1985  1.0760 -0.8708
    1SOL    MW4 9300   2.880   2.371   3.894  0.1826  0.5445 -0.2568
    1SOL     OW 9301   2.557   2.006   4.664 -0.0272  0.3933  0.3383
    1SOL    HW2 9302   2.539   2.092   4.624 -0.0102 -0.1270 -0.8067
    1SOL    HW3 9303   2.478   1.955   4.646  0.4653 -0.2280 -0.0633
    1SOL    MW4 9304   2.544   2.011   4.656  0.0401  0.2427  0.1340
    1SOL     OW 9305   2.657   2.453   3.718  0.1237 -0.5854 -0.2227
    1SOL    HW2 9306   2.668   2.540   3.755  1.7445 -1.2122  0.8381
    1SOL    HW3 9307   2.579   2.418   3.760  0.0664 -0.0396  0.1258
    1SOL    MW4 9308   2.648   2.460   3.728  0.3297 -0.5963 -0.0367
    1SOL     OW 9309   2.676   2.699   3.876 -0.2420 -0.0462  0.1304
    1SOL    HW2 9310   2.597   2.744   3.847  0.7201  0.8820 -1.0566
    1SOL    HW3 9311   2.663   2.687   3.970 -1.5923  0.4992  0.0248
    1SOL    MW4 9312   2.664   2.703   3.885 -0.2935  0.1483 -0.0401
    1SOL     OW 9313   2.899   2.851   3.771  0.2958 -0.0386 -0.1401
    1SOL    HW2 9314   2.903   2.927   3.829 -1.7467  0.0275 -0.0677
    1SOL    HW3 9315   2.830   2.796   3.808  0.2527 -0.8889 -1.4518
    1SOL    MW4 9316   2.890   2.854   3.784  0.0210 -0.1419 -0.3037
    1SOL     OW 9317   2.931   3.091   3.918  0.0380  0.2062  0.4212
    1SOL    HW2 9318   3.021   3.123   3.909  0.0889  0.6844  2.2818
    1SOL    HW3 9319   2.878   3.154   3.871  0.5305  0.8402  0.7075
    1SOL    MW4 9320   2.936   3.103   3.911  0.1094  0.3529  0.7043
    1SOL     OW 9321   2.710   3.222   3.771  0.0722 -0.2942 -0.3624
    1SOL    HW2 9322   2.713   3.309   3.810  1.4657  0.0227 -1.1475
    1SOL    HW3 9323   2.646   3.174   3.825 -0.3573  1.0539  0.3613
    1SOL    MW4 9324   2.702   3.227   3.784  0.1993 -0.0744 -0.3703
    1SOL     OW 9325   2.718   3.489   3.868 -0.1198  0.6092  0.3458
    1SOL    HW2 9326   2.725   3.483   3.963 -0.1160  2.1811  0.4600
    1SOL    HW3 9327   2.795   3.540   3.841  0.2090 -0.3412 -0.5652
    1SOL    MW4 9328   2.729   3.495   3.877 -0.0758  0.6909  0.2406
    1SOL     OW 9329   2.951   3.604   3.799 -0.3542 -0.1548  0.2218
    1SOL    HW2 9330   3.017   3.558   3.850  0.2707  1.7465  1.1901
    1SOL    HW3 9331   2.967   3.579   3.709  0.4709 -1.2045  0.6578
    1SOL    MW4 9332   2.962   3.595   3.794 -0.1626 -0.0424  0.4072
    1SOL     OW 9333   2.952   3.867   3.866 -0.1797 -0.1184  0.3209
    1SOL    HW2 9334   2.937   3.870   3.961  0.0010 -1.1903  0.3819
    1SOL    HW3 9335   2.944   3.775   3.843 -2.0202  0.3392 -0.9970
    1SOL    MW4 9336   2.949   3.855   3.876 -0.3986 -0.1993  0.1547
    1SOL     OW 9337   2.723   3.971   3.736  0.2912 -0.1999 -0.5951
    1SOL    HW2 9338   2.699   4.050   3.785 -0.7643 -0.0895 -1.2825
    1SOL    HW3 9339   2.799   3.936   3.783 -0.9339 -0.3107  1.3425
    1SOL    MW4 9340   2.730   3.977   3.748 -0.0095 -0.2000 -0.4303
    1SOL     OW 9341   2.694   4.245   3.828  0.0743 -0.2831 -0.3169
    1SOL    HW2 9342   2.782   4.272   3.801  0.3733 -0.7794  0.1363
    1SOL    HW3 9343   2.695   4.256   3.924 -0.5624  0.3090 -0.3791
    1SOL    MW4 9344   2.706   4.250   3.837  0.0298 -0.2708 -0.2654
    1SOL     OW 9345   2.933   4.376   3.767 -0.1091 -0.2672  0.7831
    1SOL    HW2 9346   3.003   4.354   3.828  2.4297  0.8141 -1.6341
    1SOL    HW3 9347   2.902   4.462   3.796  2.2227  1.0012 -0.3756
    1SOL    MW4 9348   2.938   4.385   3.779  0.5336  0.0429  0.3114
    1SOL     OW 9349   3.348   4.663   3.873  0.1694 -0.3174 -0.2285
    1SOL    HW2 9350   3.349   4.678   3.968  0.2958  0.4368 -0.3544
    1SOL    HW3 9351   3.425   4.708   3.841 -0.6197  0.5902 -0.8761
    1SOL    MW4 9352   3.358   4.671   3.882  0.0818 -0.0982 -0.3309
    1SOL     OW 9353   3.110   0.119   3.789  0.0744 -0.2897 -0.0474
    1SOL    HW2 9354   3.197   0.085   3.811  0.2211  0.0236 -0.1439
    1SOL    HW3 9355   3.101   0.106   3.695  0.1757  0.0413 -0.1033
    1SOL    MW4 9356   3.120   0.113   3.780  0.1073 -0.2047 -0.0675
    1SOL     OW 9357   3.093   0.383   3.871  0.1878 -0.4314 -0.0486
    1SOL    HW2 9358   3.109   0.362   3.963 -1.8219 -1.9584 -0.0154
    1SOL    HW3 9359   3.099   0.299   3.826 -0.3521  0.0699 -1.0788
    1SOL    MW4 9360   3.096   0.369   3.877 -0.1488 -0.5667 -0.1800
    1SOL     OW 9361   3.326   0.487   3.751  0.1339  0.1784  0.4075
    1SOL    HW2 9362   3.394   0.429   3.788 -0.3381  0.0201  1.0276
    1SOL    HW3 9363   3.247   0.463   3.798 -0.1652  1.0065  0.3149
    1SOL    MW4 9364   3.325   0.476   3.762  0.0322  0.2668  0.4773
    1SOL     OW 9365   3.310   0.728   3.901 -0.1795  0.8161  0.3690
    1SOL    HW2 9366   3.310   0.728   3.997 -2.3229 -1.3583  0.4441
    1SOL    HW3 9367   3.333   0.638   3.878 -0.7628  1.0488 -1.1424
    1SOL    MW4 9368   3.313   0.716   3.911 -0.5395  0.5599  0.1793
    1SOL     OW 9369   3.145   0.917   3.766 -0.2331  0.3919 -0.2511
    1SOL    HW2 9370   3.216   0.862   3.800 -0.5564  0.3179  0.3159
    1SOL    HW3 9371   3.128   0.883   3.678 -0.0882 -0.0839 -0.0955
    1SOL    MW4 9372   3.152   0.905   3.759 -0.2568  0.3194 -0.1559
    1SOL     OW 9373   3.082   1.175   3.886  0.2919  0.3143 -0.1963
    1SOL    HW2 9374   3.098   1.096   3.833 -0.0707 -0.4626  0.8460
    1SOL    HW3 9375   3.010   1.219   3.841  1.2345  0.6492 -1.4248
    1SOL    MW4 9376   3.075   1.170   3.873  0.3686  0.2559 -0.2208
    1SOL     OW 9377   3.315   1.301   3.798  0.0139 -0.0155  0.0160
    1SOL    HW2 9378   3.234   1.269   3.838 -0.2675  0.0705 -0.4795
    1SOL    HW3 9379   3.306   1.279   3.705  0.9387 -0.7681  0.1023
    1SOL    MW4 9380   3.303   1.294   3.791  0.0987 -0.1034 -0.0377
    1SOL     OW 9381   3.331   1.575   3.856  0.3761  0.3301  0.0562
    1SOL    HW2 9382   3.247   1.621   3.850  0.5780  0.7883  0.6899
    1SOL    HW3 9383   3.309   1.483   3.841 -0.4102  0.2990  1.3368
    1SOL    MW4 9384   3.317   1.569   3.853  0.2992  0.3864  0.3090
    1SOL     OW 9385   3.102   1.706   3.786  0.1082 -0.2493 -0.0944
    1SOL    HW2 9386   3.117   1.799   3.800 -0.1534 -0.0464 -1.1245
    1SOL    HW3 9387   3.102   1.695   3.691 -2.5015 -0.8468 -0.0841
    1SOL    MW4 9388   3.104   1.717   3.775 -0.2706 -0.3015 -0.2289
    1SOL     OW 9389   3.143   1.975   3.851 -0.1076 -0.1337  0.3955
    1SOL    HW2 9390   3.151   1.971   3.946 -0.7734  1.7269  0.5421
    1SOL    HW3 9391   3.063   2.025   3.835 -0.8195 -1.6900 -1.1442
    1SOL    MW4 9392   3.133   1.981   3.861 -0.2894 -0.0935  0.2117
    1SOL     OW 9393   3.363   2.095   3.705 -0.1066  0.3702 -0.0638
    1SOL    HW2 9394   3.282   2.056   3.739 -0.1146  0.0404 -0.4658
    1SOL    HW3 9395   3.432   2.057   3.759 -0.0621 -0.6098 -0.7996
    1SOL    MW4 9396   3.362   2.085   3.717 -0.1016  0.1974 -0.2139
    1SOL     OW 9397   3.366   2.350   3.808  0.0711 -0.1026 -0.0443
    1SOL    HW2 9398   3.280   2.391   3.807 -0.2750 -0.8307 -0.0341
    1SOL    HW3 9399   3.354   2.268   3.760  1.1118  0.5055 -1.4007
    1SOL    MW4 9400   3.353   2.345   3.801  0.1624 -0.1187 -0.2217
    1SOL     OW 9401   3.117   2.439   3.785  0.1195 -0.4601  0.2221
    1SOL    HW2 9402   3.110   2.530   3.815 -1.1411 -1.2384  2.3851
    1SOL    HW3 9403   3.124   2.446   3.690  1.0660  1.9434  0.4168
    1SOL    MW4 9404   3.117   2.452   3.777  0.0782 -0.2456  0.5333
    1SOL     OW 9405   3.134   2.707   3.863  0.0046  0.3759  0.1738
    1SOL    HW2 9406   3.158   2.706   3.956 -0.4278  0.8066  0.2959
    1SOL    HW3 9407   3.046   2.746   3.862 -0.0697  0.1878 -0.3969
    1SOL    MW4 9408   3.125   2.712   3.875 -0.0622  0.4079  0.1147
    1SOL     OW 9409   3.384   2.817   3.771 -0.3357  0.0580 -0.3163
    1SOL    HW2 9410   3.299   2.786   3.803 -0.2280  0.4556  0.3545
    1SOL    HW3 9411   3.391   2.906   3.805  0.1157  0.2139 -0.8175
    1SOL    MW4 9412   3.374   2.824   3.780 -0.2618  0.1311 -0.2940
    1SOL     OW 9413   3.400   3.064   3.896 -0.6606 -0.4777  0.0060
    1SOL    HW2 9414   3.409   3.065   3.991 -0.8537 -0.5345  0.0255
    1SOL    HW3 9415   3.481   3.103   3.863 -0.8631  0.1323  0.2171
    1SOL    MW4 9416   3.412   3.070   3.904 -0.7129 -0.4048  0.0360
    1SOL     OW 9417   3.174   3.194   3.803 -0.1350 -0.1744  0.0245
    1SOL    HW2 9418   3.251   3.155   3.846 -0.0670  1.5851  1.5430
    1SOL    HW3 9419   3.193   3.185   3.709  1.2650 -1.0328  0.3638
    1SOL    MW4 9420   3.187   3.187   3.796  0.0587 -0.0553  0.2697
    1SOL     OW 9421   3.153   3.449   3.898 -0.1402 -0.1727 -0.0037
    1SOL    HW2 9422   3.232   3.488   3.861  1.1896 -1.3706  1.4485
    1SOL    HW3 9423   3.144   3.365   3.853  0.7229 -1.0322  1.3583
    1SOL    MW4 9424   3.162   3.443   3.887  0.1490 -0.4444  0.3674
    1SOL     OW 9425   3.377   3.547   3.769  0.1354 -0.2121 -0.0647
    1SOL    HW2 9426   3.381   3.634   3.809 -1.0309 -0.0296 -0.3287
    1SOL    HW3 9427   3.373   3.563   3.675  2.0734 -0.6249 -0.2384
    1SOL    MW4 9428   3.377   3.560   3.762  0.2367 -0.2427 -0.1225
    1SOL     OW 9429   3.388   3.804   3.891 -0.3163 -0.1769 -0.2031
    1SOL    HW2 9430   3.465   3.856   3.869 -0.9311  0.6416 -0.3955
    1SOL    HW3 9431   3.313   3.860   3.871 -0.9317 -0.0400  2.2876
    1SOL    MW4 9432   3.388   3.818   3.885 -0.4787 -0.0510  0.1001
    1SOL     OW 9433   3.186   3.989   3.811 -0.1067  0.5515 -0.7495
    1SOL    HW2 9434   3.187   4.077   3.849  1.9843  0.0736  0.3646
    1SOL    HW3 9435   3.102   3.953   3.838 -0.5780  1.8768 -0.3990
    1SOL    MW4 9436   3.175   3.996   3.820  0.1068  0.6630 -0.5565
    1SOL     OW 9437   3.140   4.243   3.890  0.0784  0.3418 -0.1992
    1SOL    HW2 9438   3.140   4.264   3.983  0.8366  0.3428 -0.1947
    1SOL    HW3 9439   3.198   4.308   3.851  0.6372 -0.3349 -0.5122
    1SOL    MW4 9440   3.148   4.254   3.897  0.2525  0.2527 -0.2398
    1SOL     OW 9441   3.353   4.407   3.790 -0.2783 -0.3698 -0.3127
    1SOL    HW2 9442   3.433   4.371   3.828 -0.4991 -0.9059 -0.3527
    1SOL    HW3 9443   3.351   4.497   3.821 -0.2780 -0.6968  0.6655
    1SOL    MW4 9444   3.363   4.414   3.799 -0.3071 -0.4840 -0.1891
    1SOL     OW 9445   3.815   4.633   3.843 -0.1593  0.1803  0.2137
    1SOL    HW2 9446   3.901   4.660   3.812 -0.0376 -1.9116 -1.4553
    1SOL    HW3 9447   3.806   4.543   3.811 -2.5050 -0.0089  1.3053
    1SOL    MW4 9448   3.825   4.624   3.834 -0.4528 -0.1202  0.1376
    1SOL     OW 9449   3.578   0.115   3.778  0.6357  0.2634  0.5193
    1SOL    HW2 9450   3.634   0.040   3.798 -1.4230 -1.2348  0.9041
    1SOL    HW3 9451   3.599   0.137   3.688  1.0261 -1.0207  0.2763
    1SOL    MW4 9452   3.588   0.108   3.769  0.4158 -0.1037  0.5379
    1SOL     OW 9453   3.530   0.370   3.876 -0.3060 -0.0111  0.6631
    1SOL    HW2 9454   3.602   0.423   3.841 -0.8204  0.7742  0.7841
    1SOL    HW3 9455   3.558   0.279   3.861 -0.3169  0.2950 -1.4215
    1SOL    MW4 9456   3.543   0.365   3.869 -0.3755  0.1329  0.4041
    1SOL     OW 9457   3.745   0.514   3.780 -0.4544  0.1672  0.1503
    1SOL    HW2 9458   3.825   0.471   3.810 -0.3074 -0.0992 -0.6279
    1SOL    HW3 9459   3.753   0.604   3.812  0.6724  0.4384 -0.8812
    1SOL    MW4 9460   3.756   0.520   3.788 -0.2863  0.1678 -0.0885
    1SOL     OW 9461   3.783   0.775   3.869 -0.0328  0.0553 -0.4497
    1SOL    HW2 9462   3.855   0.819   3.824 -1.4670  2.8963 -0.0619
    1SOL    HW3 9463   3.703   0.812   3.830 -1.3763 -3.1184 -0.9787
    1SOL    MW4 9464   3.782   0.785   3.858 -0.3994  0.0114 -0.4685
    1SOL     OW 9465   3.535   0.858   3.758 -0.1076  0.1997  0.1493
    1SOL    HW2 9466   3.529   0.953   3.773 -0.7105  0.1806  0.0410
    1SOL    HW3 9467   3.475   0.820   3.821  1.0159 -0.1980  1.0015
    1SOL    MW4 9468   3.527   0.866   3.768 -0.0389  0.1447  0.2472
    1SOL     OW 9469   3.548   1.128   3.815  0.5681  0.0265  0.5281
    1SOL    HW2 9470   3.628   1.178   3.804  0.0779  0.6528 -0.3005
    1SOL    HW3 9471   3.478   1.187   3.786 -0.0888 -0.8792  0.2224
    1SOL    MW4 9472   3.549   1.142   3.810  0.4165 -0.0101  0.3784
    1SOL     OW 9473   3.774   1.285   3.790  0.0091  0.3642 -0.1908
    1SOL    HW2 9474   3.849   1.240   3.829 -1.1330 -0.8329  0.6620
    1SOL    HW3 9475   3.777   1.372   3.828  0.6099  0.1308  0.3110
    1SOL    MW4 9476   3.784   1.290   3.800 -0.0622  0.1755 -0.0122
    1SOL     OW 9477   3.774   1.549   3.870  0.4909 -0.4796  0.6928
    1SOL    HW2 9478   3.803   1.566   3.959  0.7565 -1.5557  0.8240
    1SOL    HW3 9479   3.698   1.605   3.858  0.5064 -0.2677  1.5699
    1SOL    MW4 9480   3.768   1.559   3.880  0.5281 -0.5937  0.8261
    1SOL     OW 9481   3.557   1.709   3.780  0.0883  0.0527 -0.2985
    1SOL    HW2 9482   3.480   1.661   3.811  1.0806 -1.2951  0.1294
    1SOL    HW3 9483   3.564   1.684   3.687 -0.7468  1.2263 -0.6978
    1SOL    MW4 9484   3.547   1.700   3.772  0.1090  0.0296 -0.2947
    1SOL     OW 9485   3.548   1.978   3.871  0.0669  0.0609  0.0479
    1SOL    HW2 9486   3.540   1.884   3.852  1.6039 -0.0883  0.0235
    1SOL    HW3 9487   3.586   1.981   3.959 -0.6879  0.6706  0.3534
    1SOL    MW4 9488   3.552   1.966   3.880  0.1702  0.1217  0.0851
    1SOL     OW 9489   3.772   2.059   3.716 -0.0470 -0.3634 -0.1581
    1SOL    HW2 9490   3.834   1.992   3.742 -0.6593 -0.6047  0.7042
    1SOL    HW3 9491   3.688   2.030   3.752 -0.9967 -0.8611 -2.6307
    1SOL    MW4 9492   3.769   2.047   3.724 -0.2530 -0.4611 -0.3705
    1SOL     OW 9493   3.849   2.303   3.845  0.1787 -0.4375  0.7632
    1SOL    HW2 9494   3.823   2.218   3.809 -0.5082 -0.4930  1.3725
    1SOL    HW3 9495   3.772   2.359   3.833  1.3203  0.6993 -1.4883
    1SOL    MW4 9496   3.835   2.299   3.839  0.2387 -0.2952  0.5467
    1SOL     OW 9497   3.617   2.438   3.761 -0.0734  0.2332 -0.2913
    1SOL    HW2 9498   3.527   2.406   3.771  0.5248 -1.4160 -0.0986
    1SOL    HW3 9499   3.635   2.427   3.667  0.1592 -0.0529 -0.2115
    1SOL    MW4 9500   3.607   2.432   3.750  0.0362 -0.0222 -0.2553
    1SOL     OW 9501   3.564   2.664   3.922 -0.3451 -0.0165  0.4044
    1SOL    HW2 9502   3.568   2.582   3.874  0.5856  0.7757 -0.9238
    1SOL    HW3 9503   3.507   2.720   3.869  0.2101  0.6729  0.5311
    1SOL    MW4 9504   3.557   2.661   3.908 -0.1490  0.1788  0.2458
    1SOL     OW 9505   3.800   2.804   3.820  0.3443 -0.4510  0.1181
    1SOL    HW2 9506   3.871   2.764   3.871  0.0472 -1.1458  0.0041
    1SOL    HW3 9507   3.720   2.768   3.859  0.0433  0.5753  0.4490
    1SOL    MW4 9508   3.799   2.794   3.832  0.2651 -0.4075  0.1466
    1SOL     OW 9509   3.851   3.079   3.866  0.6330 -0.1594  0.0702
    1SOL    HW2 9510   3.771   3.129   3.846 -0.6644 -1.3971  1.9881
    1SOL    HW3 9511   3.829   2.989   3.844  1.5850 -0.4763  0.3982
    1SOL    MW4 9512   3.837   3.074   3.861  0.5872 -0.3645  0.3662
    1SOL     OW 9513   3.612   3.179   3.779  0.1200 -0.1034  0.1150
    1SOL    HW2 9514   3.615   3.273   3.800  0.7423 -0.3115  0.9860
    1SOL    HW3 9515   3.614   3.176   3.683 -0.4276  0.7889  0.0709
    1SOL    MW4 9516   3.613   3.191   3.769  0.1297 -0.0131  0.2244
    1SOL     OW 9517   3.630   3.463   3.830  0.4911 -0.6756 -0.1380
    1SOL    HW2 9518   3.623   3.465   3.925  1.1864 -2.7030 -0.0182
    1SOL    HW3 9519   3.544   3.491   3.798  0.3924  0.4205  1.0818
    1SOL    MW4 9520   3.618   3.467   3.838  0.5701 -0.7982  0.0389
    1SOL     OW 9521   3.816   3.617   3.722 -0.0431  0.1785 -0.5445
    1SOL    HW2 9522   3.804   3.699   3.769  0.0083  0.1715 -0.5192
    1SOL    HW3 9523   3.751   3.558   3.760 -0.4323  0.3624 -0.9259
    1SOL    MW4 9524   3.806   3.620   3.733 -0.0875  0.2019 -0.5915
    1SOL     OW 9525   3.839   3.872   3.848  0.5479  0.4153 -0.0486
    1SOL    HW2 9526   3.845   3.886   3.942  0.3396  1.7938 -0.2327
    1SOL    HW3 9527   3.909   3.926   3.810 -0.0843  0.7609 -0.7519
    1SOL    MW4 9528   3.849   3.881   3.855  0.4370  0.6428 -0.1657
    1SOL     OW 9529   3.587   3.985   3.796 -0.3481  0.4014  0.0624
    1SOL    HW2 9530   3.580   4.075   3.826  0.9408  0.1049  1.3196
    1SOL    HW3 9531   3.675   3.957   3.823 -1.0122 -1.4743  0.4078
    1SOL    MW4 9532   3.598   3.993   3.803 -0.2654  0.1147  0.2739
    1SOL     OW 9533   3.585   4.256   3.869 -0.0646  0.1697 -0.1571
    1SOL    HW2 9534   3.580   4.233   3.961 -0.6414 -0.2771 -0.2977
    1SOL    HW3 9535   3.674   4.289   3.857 -0.1265  0.6335  0.6479
    1SOL    MW4 9536   3.596   4.258   3.879 -0.1488  0.1721 -0.0696
    1SOL     OW 9537   3.834   4.359   3.784  0.1311  0.0040  0.1569
    1SOL    HW2 9538   3.921   4.342   3.820  0.3171  1.1564  0.2556
    1SOL    HW3 9539   3.847   4.363   3.690  0.0555 -0.5770  0.1208
    1SOL    MW4 9540   3.847   4.357   3.777  0.1457  0.0801  0.1652
    1SOL     OW 9541   4.298   0.001   3.856  0.1502 -0.0693  0.4484
    1SOL    HW2 9542   4.299   0.008   3.952 -0.5330 -0.6116  0.4974
    1SOL    HW3 9543   4.385   0.031   3.829 -0.5736  2.7080  1.0547
    1SOL    MW4 9544   4.310   0.006   3.865 -0.0353  0.2255  0.5350
    1SOL     OW 9545   4.038   0.121   3.783  0.0285  0.3810 -0.1688
    1SOL    HW2 9546   4.126   0.095   3.813  0.1006 -1.5286 -1.8627
    1SOL    HW3 9547   4.047   0.128   3.688 -1.0760  2.6029 -0.1277
    1SOL    MW4 9548   4.051   0.118   3.774 -0.1078  0.4222 -0.3867
    1SOL     OW 9549   3.985   0.386   3.844 -0.0919 -0.2214 -0.1018
    1SOL    HW2 9550   3.980   0.377   3.939 -2.7872 -1.7441 -0.3322
    1SOL    HW3 9551   4.012   0.300   3.813 -0.1788 -0.0130 -0.7510
    1SOL    MW4 9552   3.988   0.374   3.853 -0.4590 -0.3948 -0.2177
    1SOL     OW 9553   4.226   0.513   3.783 -0.0965 -0.1475 -0.0749
    1SOL    HW2 9554   4.148   0.464   3.806 -1.3107  1.1082 -1.4266
    1SOL    HW3 9555   4.223   0.521   3.688  0.6628  1.5091  0.0107
    1SOL    MW4 9556   4.215   0.508   3.774 -0.1559  0.2367 -0.2422
    1SOL     OW 9557   4.273   0.773   3.866  0.0487  0.9486 -0.3239
    1SOL    HW2 9558   4.184   0.807   3.858 -0.0251  0.9684  0.6236
    1SOL    HW3 9559   4.267   0.683   3.834 -0.8612  0.0897  2.1489
    1SOL    MW4 9560   4.260   0.766   3.860 -0.0806  0.8379  0.1271
    1SOL     OW 9561   4.020   0.880   3.791  0.0431  0.0628  0.1256
    1SOL    HW2 9562   3.995   0.969   3.817 -2.4981 -0.3794 -0.6601
    1SOL    HW3 9563   4.035   0.886   3.697 -0.3428 -0.3734  0.0339
    1SOL    MW4 9564   4.019   0.893   3.782 -0.3424 -0.0531  0.0100
    1SOL     OW 9565   4.008   1.127   3.879 -0.1958  0.0550 -0.6407
    1SOL    HW2 9566   4.016   1.125   3.975 -0.6100 -1.0309 -0.6176
    1SOL    HW3 9567   4.090   1.165   3.849  0.1866 -0.1593  0.1139
    1SOL    MW4 9568   4.020   1.132   3.888 -0.1993 -0.1165 -0.5379
    1SOL     OW 9569   4.232   1.246   3.802  0.1386  0.2528 -0.4809
    1SOL    HW2 9570   4.233   1.338   3.828  0.2151  0.5265 -1.4290
    1SOL    HW3 9571   4.262   1.246   3.711  0.5079 -0.7504 -0.3733
    1SOL    MW4 9572   4.236   1.258   3.793  0.1974  0.1566 -0.5920
    1SOL     OW 9573   4.269   1.529   3.867  0.0416  0.3320 -0.0246
    1SOL    HW2 9574   4.187   1.573   3.846  0.4281  0.3482 -1.6242
    1SOL    HW3 9575   4.336   1.584   3.826  0.7670 -0.1715  0.4779
    1SOL    MW4 9576   4.267   1.542   3.859  0.1884  0.2677 -0.1695
    1SOL     OW 9577   4.028   1.672   3.779  0.4427  0.3230 -0.1267
    1SOL    HW2 9578   4.009   1.760   3.812 -1.0939  0.1762 -0.5436
    1SOL    HW3 9579   3.950   1.621   3.802  1.6178 -1.1173  0.7565
    1SOL    MW4 9580   4.015   1.677   3.786  0.3953  0.1135 -0.0653
    1SOL     OW 9581   3.983   1.931   3.837 -0.1494 -0.1462 -0.3744
    1SOL    HW2 9582   3.962   1.971   3.921 -0.3239 -1.5895  0.2664
    1SOL    HW3 9583   4.069   1.967   3.814  0.3794 -0.5578  0.9291
    1SOL    MW4 9584   3.992   1.941   3.845 -0.1028 -0.3910 -0.1175
    1SOL     OW 9585   4.234   2.051   3.730  0.1791 -0.1706 -0.1150
    1SOL    HW2 9586   4.253   2.142   3.755  0.2284 -0.2365  0.0862
    1SOL    HW3 9587   4.234   2.052   3.634  2.4929 -0.4351 -0.1453
    1SOL    MW4 9588   4.236   2.064   3.720  0.4911 -0.2143 -0.0923
    1SOL     OW 9589   4.274   2.326   3.789 -0.1705  0.0710  0.2697
    1SOL    HW2 9590   4.301   2.337   3.880  0.5766  2.5757 -0.2195
    1SOL    HW3 9591   4.191   2.372   3.782  0.5874  1.3170 -0.6925
    1SOL    MW4 9592   4.267   2.333   3.800  0.0281  0.5658  0.0782
    1SOL     OW 9593   4.041   2.485   3.778 -0.2552 -0.4202 -0.0442
    1SOL    HW2 9594   4.028   2.557   3.840 -0.8866 -0.5723  0.0038
    1SOL    HW3 9595   3.979   2.418   3.805 -1.2907 -0.0767 -1.4639
    1SOL    MW4 9596   4.031   2.486   3.789 -0.4754 -0.3948 -0.2251
    1SOL     OW 9597   4.014   2.710   3.961  0.1141  0.2688 -0.4599
    1SOL    HW2 9598   4.067   2.662   4.025  0.0743 -0.7842 -1.2102
    1SOL    HW3 9599   4.077   2.766   3.916  0.1977  0.7693  0.2663
    1SOL    MW4 9600   4.030   2.711   3.964  0.1202  0.1960 -0.4632
    1SOL     OW 9601   4.226   2.854   3.803 -0.5345  0.3831 -0.0299
    1SOL    HW2 9602   4.261   2.943   3.800 -1.0073  0.6154  1.0449
    1SOL    HW3 9603   4.303   2.797   3.807 -0.2251  0.7200 -1.1263
    1SOL    MW4 9604   4.241   2.858   3.803 -0.5555  0.4582 -0.0327
    1SOL     OW 9605   4.284   3.118   3.825  0.3366 -0.6827 -0.0011
    1SOL    HW2 9606   4.205   3.158   3.789 -0.6551 -1.6755  1.0115
    1SOL    HW3 9607   4.355   3.173   3.793 -0.8489  0.9378  0.0396
    1SOL    MW4 9608   4.283   3.131   3.816  0.0486 -0.5999  0.1380
    1SOL     OW 9609   4.044   3.244   3.743 -0.0699  0.3696 -0.3999
    1SOL    HW2 9610   3.986   3.181   3.786  0.1625  0.2195 -0.3043
    1SOL    HW3 9611   4.027   3.231   3.649 -0.5398  0.6617 -0.3562
    1SOL    MW4 9612   4.034   3.234   3.736 -0.1011  0.3884 -0.3815
    1SOL     OW 9613   4.050   3.504   3.849 -0.2411  0.0232  0.1212
    1SOL    HW2 9614   4.035   3.422   3.801  1.9085 -0.3529  0.0204
    1SOL    HW3 9615   3.983   3.564   3.816 -1.6943 -1.6151  0.0301
    1SOL    MW4 9616   4.039   3.501   3.838 -0.1488 -0.2427  0.0961
    1SOL     OW 9617   4.275   3.645   3.771  0.3107  0.4102 -0.6122
    1SOL    HW2 9618   4.189   3.610   3.794 -0.1820  2.2359  0.4126
    1SOL    HW3 9619   4.336   3.591   3.821 -0.3417  0.1837 -0.0425
    1SOL    MW4 9620   4.271   3.633   3.781  0.1597  0.6213 -0.4017
    1SOL     OW 9621   4.294   3.897   3.863 -0.3580  0.1607  0.4593
    1SOL    HW2 9622   4.219   3.942   3.823 -1.3752 -0.2867  1.8258
    1SOL    HW3 9623   4.290   3.808   3.828 -0.6574  0.0543  0.7497
    1SOL    MW4 9624   4.283   3.891   3.853 -0.5322  0.0875  0.6783
    1SOL     OW 9625   4.071   4.008   3.755  0.1596  0.0408  0.4306
    1SOL    HW2 9626   4.076   4.100   3.781  1.2446  0.3451 -0.8391
    1SOL    HW3 9627   4.074   4.009   3.660  1.7707 -1.3972  0.4401
    1SOL    MW4 9628   4.072   4.021   3.746  0.5155 -0.1087  0.2644
    1SOL     OW 9629   4.075   4.260   3.881 -0.1660 -0.4665  0.1848
    1SOL    HW2 9630   4.084   4.272   3.976 -1.3083  2.1327 -0.0062
    1SOL    HW3 9631   4.139   4.321   3.844 -0.4893 -0.6846 -0.7278
    1SOL    MW4 9632   4.085   4.270   3.889 -0.3600 -0.1521  0.0391
    1SOL     OW 9633   4.276   4.415   3.791  0.0089 -0.0628 -0.1276
    1SOL    HW2 9634   4.299   4.505   3.811  1.1966 -0.4397  0.2262
    1SOL    HW3 9635   4.355   4.364   3.811 -0.6429 -1.1802 -0.3199
    1SOL    MW4 9636   4.289   4.420   3.796  0.0796 -0.2599 -0.1061
    1SOL     OW 9637   2.728   1.150   4.598 -0.2377 -0.4119  0.0775
    1SOL    HW2 9638   2.713   1.059   4.572  0.6368 -0.7000  0.5595
    1SOL    HW3 9639   2.725   1.199   4.516 -0.2077 -0.9431 -0.2451
    1SOL    MW4 9640   2.725   1.144   4.584 -0.1183 -0.5200  0.0982
    1SOL     OW 9641   4.041   4.302   4.150  0.2165  0.0002  0.1525
    1SOL    HW2 9642   4.031   4.216   4.190 -0.1695  0.1616  0.4051
    1SOL    HW3 9643   3.958   4.346   4.167  0.0326  0.0485 -0.8747
    1SOL    MW4 9644   4.029   4.297   4.158  0.1411  0.0277  0.0505
    1SOL     OW 9645   2.047   0.275   4.531 -0.4950 -0.2099 -0.0391
    1SOL    HW2 9646   1.956   0.248   4.527 -0.7406  0.7758 -1.1520
    1SOL    HW3 9647   2.044   0.364   4.565  0.2279 -1.0221  2.2931
    1SOL    MW4 9648   2.035   0.283   4.535 -0.4320 -0.1870  0.1221
    1SOL     OW 9649   0.620   0.799   4.146 -0.2063 -0.4999  0.4684
    1SOL    HW2 9650   0.702   0.830   4.182 -0.0351 -0.4322  0.0217
    1SOL    HW3 9651   0.638   0.783   4.053 -0.9671  0.4896  0.1350
    1SOL    MW4 9652   0.633   0.801   4.139 -0.2840 -0.3604  0.3657
    1SOL     OW 9653   4.270   0.774   4.147  0.3237  0.5544  0.0911
    1SOL    HW2 9654   4.284   0.798   4.055 -0.4856  1.1426  0.1168
    1SOL    HW3 9655   4.334   0.825   4.196 -1.7558  3.1834  0.2044
    1SOL    MW4 9656   4.280   0.784   4.141 -0.0572  0.9789  0.1101
    1SOL     OW 9657   1.923   2.261   4.460 -0.3388 -0.2464  0.0465
    1SOL    HW2 9658   1.895   2.324   4.526  0.0929  1.2047 -1.1148
    1SOL    HW3 9659   2.015   2.283   4.443 -0.3798 -0.7410 -0.8665
    1SOL    MW4 9660   1.931   2.272   4.466 -0.2873 -0.1204 -0.2275
    1SOL     OW 9661   4.486   1.171   4.146 -0.2416 -0.3461 -0.3377
    1SOL    HW2 9662   4.416   1.226   4.180 -1.0533 -0.9754 -0.9756
    1SOL    HW3 9663   4.567   1.213   4.176 -0.9148 -0.3315  1.4760
    1SOL    MW4 9664   4.488   1.184   4.154 -0.4377 -0.4271 -0.1826
    1SOL     OW 9665   1.099   2.897   4.223 -0.0269 -0.0661  0.2332
    1SOL    HW2 9666   1.114   2.985   4.188 -0.2305 -0.1242  0.0047
    1SOL    HW3 9667   1.102   2.909   4.318 -1.5487  0.4550  0.2333
    1SOL    MW4 9668   1.102   2.910   4.231 -0.2546 -0.0052  0.2031
    1SOL     OW 9669   0.674   4.262   4.554  0.1496 -0.1812  0.3445
    1SOL    HW2 9670   0.580   4.281   4.558  0.1798  0.2821 -0.9633
    1SOL    HW3 9671   0.715   4.333   4.603 -0.1403 -0.0225  0.3572
    1SOL    MW4 9672   0.667   4.273   4.561  0.1153 -0.0992  0.1736
    1SOL     OW 9673   3.380   3.542   4.525  0.0076  0.0866  0.5692
    1SOL    HW2 9674   3.461   3.579   4.559 -0.1506  0.1808  0.8528
    1SOL    HW3 9675   3.391   3.448   4.531  0.6040  0.0768 -0.6095
    1SOL    MW4 9676   3.392   3.535   4.530  0.0656  0.0975  0.4516
    1SOL     OW 9677   1.403   4.070   4.657  0.2774 -0.0221 -0.4153
    1SOL    HW2 9678   1.390   4.036   4.568  0.4489  0.1170 -0.4949
    1SOL    HW3 9679   1.423   3.992   4.710 -0.8300 -0.2371 -0.2959
    1SOL    MW4 9680   1.404   4.055   4.652  0.1539 -0.0319 -0.4106
    1SOL     OW 9681   1.348   3.940   4.148 -0.1489  0.3772 -0.0459
    1SOL    HW2 9682   1.440   3.916   4.134  0.1803  0.4859  1.7831
    1SOL    HW3 9683   1.337   3.935   4.243 -2.2433 -0.3559 -0.3101
    1SOL    MW4 9684   1.359   3.936   4.159 -0.3817  0.2949  0.1602
    1SOL     OW 9685   0.221   2.306   4.114 -0.5084 -0.4046  0.6180
    1SOL    HW2 9686   0.224   2.217   4.149  1.5791 -0.7993 -0.5302
    1SOL    HW3 9687   0.297   2.351   4.152 -1.1931  0.7196  0.7045
    1SOL    MW4 9688   0.231   2.300   4.124 -0.3233 -0.3083  0.4778
    1SOL     OW 9689   1.067   4.168   4.297  0.2515  0.3036  0.1519
    1SOL    HW2 9690   1.063   4.224   4.374  3.0417 -0.0162  0.5935
    1SOL    HW3 9691   1.144   4.199   4.249 -0.4679 -0.6058 -1.6280
    1SOL    MW4 9692   1.077   4.179   4.301  0.5246  0.1416 -0.0253
    1SOL     OW 9693   4.302   4.396   4.209 -0.2467 -0.0697  1.0489
    1SOL    HW2 9694   4.297   4.487   4.182 -0.2368 -0.3371  0.1328
    1SOL    HW3 9695   4.218   4.359   4.182  0.3348 -0.6902  0.0608
    1SOL    MW4 9696   4.290   4.403   4.202 -0.1683 -0.1864  0.7973
    1SOL     OW 9697   4.187   2.019   4.420 -0.5893  0.2238 -0.0618
    1SOL    HW2 9698   4.180   2.104   4.464 -0.7055 -0.6787  1.6922
    1SOL    HW3 9699   4.098   1.986   4.416 -0.6181  0.4063 -1.2392
    1SOL    MW4 9700   4.174   2.026   4.425 -0.6089  0.1290  0.0138
    1SOL     OW 9701   0.228   2.812   4.192 -0.2408  0.0998 -0.6432
    1SOL    HW2 9702   0.208   2.905   4.182  0.0111  0.2114 -0.1409
    1SOL    HW3 9703   0.158   2.767   4.146 -0.8342  0.5192 -0.1608
    1SOL    MW4 9704   0.216   2.818   4.185 -0.2858  0.1698 -0.5136
    1SOL     OW 9705   2.089   1.508   4.669 -0.6310 -0.5757  0.1827
    1SOL    HW2 9706   2.009   1.470   4.632 -1.1336  1.8457 -1.3772
    1SOL    HW3 9707   2.058   1.563   4.741 -0.4384  0.6765 -0.6745
    1SOL    MW4 9708   2.074   1.510   4.673 -0.6719 -0.0908 -0.1359
    1SOL     OW 9709   4.228   3.114   4.117  0.2139 -0.1313 -0.2561
    1SOL    HW2 9710   4.297   3.159   4.166  0.8770 -1.2361 -0.1723
    1SOL    HW3 9711   4.258   3.115   4.026  1.0705 -1.9316 -0.0103
    1SOL    MW4 9712   4.241   3.120   4.111  0.4148 -0.5147 -0.2127
    1SOL     OW 9713   3.632   2.794   4.376  0.0185 -0.5308  0.3182
    1SOL    HW2 9714   3.557   2.807   4.318 -0.1108 -1.5018  0.2595
    1SOL    HW3 9715   3.650   2.881   4.412 -0.7222 -0.1731 -0.1696
    1SOL    MW4 9716   3.625   2.807   4.373 -0.0963 -0.6115  0.2465
    1SOL     OW 9717   1.729   1.199   4.665  0.3805 -0.0209  0.0183
    1SOL    HW2 9718   1.638   1.225   4.655  0.5074  0.9165  1.2415
    1SOL    HW3 9719   1.732   1.150   4.748  0.7751 -1.0505 -0.5888
    1SOL    MW4 9720   1.718   1.196   4.675  0.4494 -0.0330  0.0997
    1SOL     OW 9721   0.741   2.199   4.572 -0.1897  0.2753  0.0126
    1SOL    HW2 9722   0.793   2.276   4.551 -0.5471  0.4465 -0.2451
    1SOL    HW3 9723   0.805   2.134   4.600  0.0806  0.7588  0.5066
    1SOL    MW4 9724   0.757   2.200   4.573 -0.2012  0.3617  0.0443
    1SOL     OW 9725   0.207   4.379   4.221 -0.2043  0.0921 -0.0202
    1SOL    HW2 9726   0.192   4.376   4.315 -0.1345  0.6728  0.0084
    1SOL    HW3 9727   0.136   4.327   4.184  0.5022 -1.2320  0.4286
    1SOL    MW4 9728   0.196   4.371   4.228 -0.1018 -0.0057  0.0424
    1SOL     OW 9729   3.091   1.174   4.173  0.3813 -0.1398 -0.3161
    1SOL    HW2 9730   3.081   1.174   4.078 -1.9454 -1.0353 -0.1093
    1SOL    HW3 9731   3.022   1.233   4.205  0.7436 -0.3193  0.8341
    1SOL    MW4 9732   3.080   1.181   4.165  0.1221 -0.2816 -0.1373
    1SOL     OW 9733   0.684   0.557   4.625  0.4988 -0.2324  0.3800
    1SOL    HW2 9734   0.776   0.585   4.632  1.3645 -2.8471  0.0450
    1SOL    HW3 9735   0.689   0.464   4.607 -2.2965 -0.6721  1.6743
    1SOL    MW4 9736   0.697   0.549   4.624  0.2441 -0.6354  0.5069
    1SOL     OW 9737   0.472   0.107   4.309  0.2256 -0.0396 -0.3203
    1SOL    HW2 9738   0.468   0.182   4.250 -0.2364 -0.5131 -0.8846
    1SOL    HW3 9739   0.565   0.084   4.311  0.1965 -0.2482 -1.1437
    1SOL    MW4 9740   0.484   0.114   4.302  0.1608 -0.1296 -0.5035
    1SOL     OW 9741   0.423   0.343   4.154  0.4610 -0.3135  0.2560
    1SOL    HW2 9742   0.472   0.419   4.187  0.6823 -0.4869  0.3350
    1SOL    HW3 9743   0.429   0.349   4.059  0.7815 -0.4260  0.2682
    1SOL    MW4 9744   0.430   0.354   4.146  0.5325 -0.3513  0.2675
    1SOL     OW 9745   1.084   0.713   4.174 -0.3413  0.3504 -0.1281
    1SOL    HW2 9746   1.157   0.756   4.219  0.0245  1.5158 -1.8103
    1SOL    HW3 9747   1.010   0.773   4.185 -0.7638 -0.2780  0.5588
    1SOL    MW4 9748   1.083   0.727   4.181 -0.3488  0.4212 -0.2594
    1SOL     OW 9749   4.295   1.154   4.529 -0.1403 -0.1324 -0.5014
    1SOL    HW2 9750   4.269   1.171   4.438 -0.5270 -0.7179 -0.5020
    1SOL    HW3 9751   4.227   1.096   4.563 -0.4472  0.7656  0.4241
    1SOL    MW4 9752   4.282   1.149   4.521 -0.2317 -0.0911 -0.3796
    1SOL     OW 9753   2.531   2.165   4.196  0.0611 -0.1163 -0.7780
    1SOL    HW2 9754   2.458   2.141   4.254 -0.2588  0.7585 -0.7954
    1SOL    HW3 9755   2.594   2.208   4.254 -0.5734  1.4037 -1.1635
    1SOL    MW4 9756   2.529   2.168   4.211 -0.0646  0.1998 -0.8311
    1SOL     OW 9757   0.667   1.566   4.128 -0.6018 -0.0605  0.3386
    1SOL    HW2 9758   0.659   1.475   4.154 -1.1383  0.2139  1.1969
    1SOL    HW3 9759   0.666   1.565   4.033  2.3476 -1.1851  0.2761
    1SOL    MW4 9760   0.666   1.554   4.119 -0.2834 -0.1727  0.4439
    1SOL     OW 9761   0.193   0.785   4.178  0.3852  0.1526 -0.1884
    1SOL    HW2 9762   0.188   0.690   4.190 -1.2410  0.2395 -0.0115
    1SOL    HW3 9763   0.111   0.818   4.216  0.2857  1.4912 -1.5373
    1SOL    MW4 9764   0.182   0.777   4.185  0.1575  0.3406 -0.3428
    1SOL     OW 9765   0.462   2.417   4.534 -0.5161 -0.1111 -0.7266
    1SOL    HW2 9766   0.537   2.469   4.563 -0.0514 -0.2309 -1.6954
    1SOL    HW3 9767   0.492   2.326   4.539 -1.3731 -0.3144  1.1007
    1SOL    MW4 9768   0.476   2.412   4.538 -0.5678 -0.1535 -0.6137
    1SOL     OW 9769   4.056   0.973   4.544 -0.6762 -0.3467 -0.0531
    1SOL    HW2 9770   4.046   0.938   4.456 -1.4546 -0.2366 -0.0083
    1SOL    HW3 9771   4.021   0.905   4.601  0.2050 -0.5907  0.1986
    1SOL    MW4 9772   4.050   0.959   4.540 -0.6628 -0.3644 -0.0143
    1SOL     OW 9773   0.431   1.906   4.107  0.2674 -0.4975  0.3933
    1SOL    HW2 9774   0.514   1.952   4.125 -0.7943  1.4601  0.4157
    1SOL    HW3 9775   0.430   1.895   4.012  1.3311 -2.0740  0.5426
    1SOL    MW4 9776   0.442   1.910   4.097  0.2677 -0.4473  0.4153
    1SOL     OW 9777   1.738   3.315   4.497 -0.2538 -0.4006 -0.2355
    1SOL    HW2 9778   1.747   3.235   4.548  0.6934  0.2260  0.6131
    1SOL    HW3 9779   1.775   3.294   4.411 -0.6959 -1.0927 -0.2540
    1SOL    MW4 9780   1.744   3.302   4.492 -0.1873 -0.4094 -0.1259
    1SOL     OW 9781   0.691   2.313   4.153  0.1078 -0.0693 -0.3105
    1SOL    HW2 9782   0.617   2.359   4.192  0.3105 -0.2859  0.3377
    1SOL    HW3 9783   0.672   2.311   4.059 -0.7590 -0.2256 -0.1343
    1SOL    MW4 9784   0.679   2.319   4.145  0.0201 -0.1183 -0.2017
    1SOL     OW 9785   2.082   4.080   4.554 -0.5720  0.1756  0.2988
    1SOL    HW2 9786   2.175   4.057   4.546 -0.3784  0.1772  2.4033
    1SOL    HW3 9787   2.078   4.171   4.527 -0.2491 -0.3042 -1.4490
    1SOL    MW4 9788   2.094   4.089   4.549 -0.5038  0.1130  0.3457
    1SOL     OW 9789   0.632   2.855   4.191  0.2039  0.0148  0.6034
    1SOL    HW2 9790   0.717   2.823   4.160  0.0961 -0.1500  0.4765
    1SOL    HW3 9791   0.569   2.791   4.157 -0.0603  0.6299 -0.0709
    1SOL    MW4 9792   0.635   2.842   4.182  0.1548  0.0741  0.4973
    1SOL     OW 9793   1.612   2.836   4.196 -0.1937  0.2197  0.3623
    1SOL    HW2 9794   1.613   2.858   4.289 -0.2212 -0.0461  0.4248
    1SOL    HW3 9795   1.697   2.795   4.179  0.7355  2.3116 -0.2223
    1SOL    MW4 9796   1.623   2.834   4.206 -0.0749  0.4604  0.2942
    1SOL     OW 9797   0.647   3.124   4.162  0.1296  0.1805  0.4690
    1SOL    HW2 9798   0.626   3.032   4.173 -0.5461 -0.0743 -2.4696
    1SOL    HW3 9799   0.566   3.170   4.185 -0.8541 -0.2518 -1.9456
    1SOL    MW4 9800   0.633   3.118   4.166 -0.0893  0.0899 -0.2370
    1SOL     OW 9801   4.438   3.240   4.250  0.0423 -0.0066  0.0471
    1SOL    HW2 9802   4.445   3.334   4.237 -0.9031  0.1044  0.3301
    1SOL    HW3 9803   4.438   3.229   4.345  2.0864 -0.4503  0.0274
    1SOL    MW4 9804   4.439   3.251   4.260  0.1874 -0.0508  0.0820
    1SOL     OW 9805   0.821   1.711   4.879 -0.1427  0.0272  0.3239
    1SOL    HW2 9806   0.828   1.732   4.972  0.7664 -1.1304  0.5228
    1SOL    HW3 9807   0.770   1.630   4.876 -0.0410 -0.0248 -0.1804
    1SOL    MW4 9808   0.815   1.703   4.891 -0.0094 -0.1323  0.2842
    1SOL     OW 9809   3.769   4.103   4.554  0.2639  0.2079 -0.0174
    1SOL    HW2 9810   3.689   4.052   4.561  0.5437 -0.2251  0.0346
    1SOL    HW3 9811   3.836   4.040   4.525  0.7000  0.4522  0.4502
    1SOL    MW4 9812   3.768   4.088   4.551  0.3586  0.1826  0.0505
    1SOL     OW 9813   0.642   3.591   4.236 -0.3881 -0.4738  0.3275
    1SOL    HW2 9814   0.731   3.569   4.208  0.2067  1.3163  0.6862
    1SOL    HW3 9815   0.644   3.686   4.247 -2.0375 -0.5506  1.4474
    1SOL    MW4 9816   0.654   3.601   4.234 -0.5273 -0.2477  0.5231
    1SOL     OW 9817   2.457   0.223   4.564  0.1181  0.0963 -0.2161
    1SOL    HW2 9818   2.438   0.315   4.548 -0.0206  0.1766  0.4081
    1SOL    HW3 9819   2.548   0.222   4.594  0.1974  0.0035 -0.4557
    1SOL    MW4 9820   2.467   0.235   4.566  0.1106  0.0946 -0.1655
    1SOL     OW 9821   4.435   0.632   4.590  0.1531 -0.6465 -0.0532
    1SOL    HW2 9822   4.464   0.721   4.571 -1.8061 -0.1319 -0.7029
    1SOL    HW3 9823   4.514   0.578   4.579  1.3963  1.0204  0.5813
    1SOL    MW4 9824   4.450   0.636   4.586  0.0587 -0.3587 -0.0553
    1SOL     OW 9825   0.154   4.424   4.488 -0.1908  0.1985 -0.0783
    1SOL    HW2 9826   0.126   4.516   4.480 -0.8258  0.1273  1.2553
    1SOL    HW3 9827   0.084   4.382   4.537  0.3968 -0.8802 -0.1656
    1SOL    MW4 9828   0.141   4.431   4.493 -0.1971  0.0463  0.0858
    1SOL     OW 9829   1.122   4.608   4.143  0.0159  0.0777 -0.2669
    1SOL    HW2 9830   1.028   4.628   4.147 -0.2862 -1.4435  0.3948
    1SOL    HW3 9831   1.139   4.594   4.049 -0.3207  0.7481 -0.4346
    1SOL    MW4 9832   1.112   4.609   4.131 -0.0683 -0.0343 -0.2022
    1SOL     OW 9833   1.226   0.323   4.363  0.4946 -0.0841  0.0953
    1SOL    HW2 9834   1.289   0.321   4.291 -0.1413  0.4796 -0.4828
    1SOL    HW3 9835   1.194   0.233   4.370 -0.1118  0.0412 -0.9292
    1SOL    MW4 9836   1.230   0.311   4.355  0.3308  0.0068 -0.1159
    1SOL     OW 9837   1.125   4.076   4.696  0.2159 -0.2628 -0.1695
    1SOL    HW2 9838   1.220   4.082   4.701  0.3474 -1.8792 -0.5768
    1SOL    HW3 9839   1.098   4.160   4.659  1.6075 -0.4339 -1.5993
    1SOL    MW4 9840   1.134   4.088   4.692  0.4170 -0.4988 -0.4125
    1SOL     OW 9841   0.458   1.692   4.266  0.1658  0.0288  0.5225
    1SOL    HW2 9842   0.527   1.645   4.220 -0.1331  0.2732 -0.1828
    1SOL    HW3 9843   0.458   1.779   4.226  1.0681  0.8123  2.1631
    1SOL    MW4 9844   0.467   1.697   4.255  0.2454  0.1643  0.6456
    1SOL     OW 9845   0.868   0.883   4.232 -0.2281  0.1536  0.0650
    1SOL    HW2 9846   0.900   0.956   4.179  0.9767 -0.4532 -0.0655
    1SOL    HW3 9847   0.893   0.906   4.321 -1.0838  0.5474  0.2107
    1SOL    MW4 9848   0.875   0.896   4.237 -0.1820  0.1255  0.0668
    1SOL     OW 9849   1.631   0.420   4.512  0.0504 -0.4136  0.0232
    1SOL    HW2 9850   1.543   0.398   4.543  0.3497  0.3979  1.5231
    1SOL    HW3 9851   1.644   0.510   4.542  1.1032 -0.2543 -0.8764
    1SOL    MW4 9852   1.621   0.429   4.520  0.2288 -0.2856  0.1025
    1SOL     OW 9853   0.906   1.142   4.116 -0.1802 -0.1283 -0.1176
    1SOL    HW2 9854   0.829   1.185   4.153 -0.6773 -0.2966 -0.9341
    1SOL    HW3 9855   0.981   1.184   4.159 -0.6701  1.2202 -0.5655
    1SOL    MW4 9856   0.906   1.153   4.127 -0.3104  0.0273 -0.2847
    1SOL     OW 9857   4.405   1.816   4.502  0.2985  0.0803 -0.3329
    1SOL    HW2 9858   4.455   1.856   4.573 -0.4489  0.2964  0.0800
    1SOL    HW3 9859   4.347   1.887   4.471 -0.6304 -0.5200  0.0240
    1SOL    MW4 9860   4.404   1.831   4.507  0.0772  0.0296 -0.2317
    1SOL     OW 9861   3.589   3.703   4.614 -0.1742  0.0370  0.0816
    1SOL    HW2 9862   3.663   3.646   4.594 -1.2809 -1.0232 -1.1271
    1SOL    HW3 9863   3.566   3.682   4.705  0.6989  0.0280  0.3005
    1SOL    MW4 9864   3.596   3.692   4.624 -0.2053 -0.1042 -0.0486
    1SOL     OW 9865   1.170   3.726   4.490  0.4845  0.3613  0.0940
    1SOL    HW2 9866   1.112   3.802   4.492 -0.0373 -0.0574  1.4939
    1SOL    HW3 9867   1.139   3.674   4.415 -0.3557  0.6088  0.2632
    1SOL    MW4 9868   1.158   3.729   4.481  0.3048  0.3386  0.3009
    1SOL     OW 9869   0.542   1.661   4.520  0.0251  0.0004  0.1250
    1SOL    HW2 9870   0.518   1.670   4.428 -0.2582  0.3200  0.2302
    1SOL    HW3 9871   0.497   1.733   4.564  0.7611  0.2947  0.4060
    1SOL    MW4 9872   0.533   1.671   4.514  0.0849  0.0813  0.1764
    1SOL     OW 9873   0.911   1.944   4.177  0.2857  0.0597 -0.4749
    1SOL    HW2 9874   0.966   2.022   4.190 -1.2239  1.0468  0.1303
    1SOL    HW3 9875   0.880   1.953   4.087 -1.1346  0.9997  0.0871
    1SOL    MW4 9876   0.915   1.956   4.167 -0.1009  0.3140 -0.3209
    1SOL     OW 9877   2.528   2.274   4.579  0.1792 -0.3722  0.0187
    1SOL    HW2 9878   2.554   2.337   4.646  0.4144  0.8895 -1.2425
    1SOL    HW3 9879   2.446   2.309   4.544  1.5378  0.5095 -2.3401
    1SOL    MW4 9880   2.520   2.287   4.583  0.3896 -0.0894 -0.4587
    1SOL     OW 9881   0.300   4.038   4.572  0.2184 -0.1089  0.2122
    1SOL    HW2 9882   0.329   4.030   4.482 -1.7044  1.4373 -0.6052
    1SOL    HW3 9883   0.208   4.010   4.570  0.6964 -1.9347  2.0818
    1SOL    MW4 9884   0.291   4.033   4.560  0.0277 -0.1464  0.3510
    1SOL     OW 9885   0.872   2.750   4.124 -0.0204 -0.2565 -0.1484
    1SOL    HW2 9886   0.883   2.662   4.160 -0.2793  0.6802  2.2626
    1SOL    HW3 9887   0.941   2.802   4.166 -1.0997  1.1358 -0.0507
    1SOL    MW4 9888   0.883   2.745   4.134 -0.1971  0.0508  0.1831
    1SOL     OW 9889   0.943   3.638   4.666 -0.4493 -0.6991  0.6267
    1SOL    HW2 9890   0.991   3.675   4.592 -1.7738  0.9806  0.5846
    1SOL    HW3 9891   0.992   3.669   4.743 -0.7095 -0.0902  0.5462
    1SOL    MW4 9892   0.956   3.647   4.667 -0.6583 -0.3972  0.6104
    1SOL     OW 9893   1.111   3.160   4.137 -0.5079  0.4208 -0.0266
    1SOL    HW2 9894   1.118   3.161   4.041  1.5219 -1.4439  0.0656
    1SOL    HW3 9895   1.024   3.194   4.155 -1.9540 -1.7032 -2.6536
    1SOL    MW4 9896   1.101   3.165   4.127 -0.4308 -0.1051 -0.3605
    1SOL     OW 9897   3.594   0.152   4.235  0.0838 -0.5684 -0.2238
    1SOL    HW2 9898   3.670   0.114   4.192 -0.6428 -0.6062 -1.4958
    1SOL    HW3 9899   3.588   0.241   4.199 -1.1005 -0.9286 -0.9451
    1SOL    MW4 9900   3.603   0.159   4.224 -0.1683 -0.6209 -0.4864
    1SOL     OW 9901   0.189   3.641   4.278 -0.0632  0.3552  0.3071
    1SOL    HW2 9902   0.199   3.731   4.244  0.0888  0.0843 -0.3889
    1SOL    HW3 9903   0.263   3.594   4.239 -0.8596 -0.3654 -0.3548
    1SOL    MW4 9904   0.200   3.647   4.268 -0.1482  0.2244  0.1278
    1SOL     OW 9905   4.144   2.566   4.138 -0.3681 -0.1935 -0.1305
    1SOL    HW2 9906   4.209   2.497   4.127 -0.3051 -0.2460  0.5709
    1SOL    HW3 9907   4.069   2.523   4.178 -0.1096  0.2584  0.8479
    1SOL    MW4 9908   4.143   2.552   4.142 -0.3257 -0.1409  0.0911
    1SOL     OW 9909   2.066   2.901   4.184  0.0521  0.5993 -0.1599
    1SOL    HW2 9910   1.987   2.855   4.157 -0.6840  2.7246 -1.7097
    1SOL    HW3 9911   2.138   2.842   4.160 -0.9201 -0.0598 -1.4760
    1SOL    MW4 9912   2.065   2.887   4.177 -0.1733  0.7930 -0.5379
    1SOL     OW 9913   0.395   3.241   4.246 -0.3950 -0.0957 -0.2004
    1SOL    HW2 9914   0.385   3.332   4.218 -0.9567 -0.1019 -0.0223
    1SOL    HW3 9915   0.361   3.239   4.335 -0.9127 -0.6022 -0.4088
    1SOL    MW4 9916   0.389   3.253   4.254 -0.5374 -0.1633 -0.2041
    1SOL     OW 9917   0.868   4.219   4.104 -0.2500  0.1981 -0.1903
    1SOL    HW2 9918   0.808   4.268   4.161 -0.6120 -0.0467 -0.3652
    1SOL    HW3 9919   0.938   4.191   4.163 -0.6653 -0.1225  0.1551
    1SOL    MW4 9920   0.870   4.222   4.120 -0.3525  0.1235 -0.1683
    1SOL     OW 9921   0.725   3.971   4.526 -0.2221 -0.8676  0.0010
    1SOL    HW2 9922   0.697   4.062   4.523  1.3417 -0.4092 -0.6564
    1SOL    HW3 9923   0.820   3.974   4.521 -0.1859 -2.5663 -0.6889
    1SOL    MW4 9924   0.734   3.983   4.525 -0.0110 -1.0312 -0.1764
    1SOL     OW 9925   2.688   4.011   4.201  0.0596  0.2760 -0.1520
    1SOL    HW2 9926   2.690   3.980   4.292 -1.4472  1.8009  0.4293
    1SOL    HW3 9927   2.614   3.965   4.161 -1.0491  1.6913  0.2102
    1SOL    MW4 9928   2.678   4.001   4.208 -0.2856  0.6642 -0.0277
    1SOL     OW 9929   1.411   0.001   4.145 -0.3180 -0.0712 -0.2407
    1SOL    HW2 9930   1.441  -0.027   4.232 -1.0526  1.2519  0.4721
    1SOL    HW3 9931   1.317  -0.017   4.146 -0.6994  1.8387  0.0293
    1SOL    MW4 9932   1.403  -0.005   4.157 -0.4654  0.3554 -0.1106
    1SOL     OW 9933   1.407   0.299   4.144  0.2866 -0.4942  0.4807
    1SOL    HW2 9934   1.484   0.345   4.177 -0.0886 -0.1557  0.8890
    1SOL    HW3 9935   1.429   0.206   4.154  0.7262 -0.4006  0.3969
    1SOL    MW4 9936   1.420   0.293   4.150  0.2952 -0.4372  0.5236
    1SOL     OW 9937   1.551   3.534   4.492 -0.0515  0.1082  0.0530
    1SOL    HW2 9938   1.623   3.472   4.499 -0.4282 -0.2677  0.6139
    1SOL    HW3 9939   1.592   3.620   4.506  0.1099 -0.1932  1.4692
    1SOL    MW4 9940   1.566   3.537   4.495 -0.0799  0.0191  0.3142
    1SOL     OW 9941   2.106   1.953   4.650  0.2810  0.3367  0.2113
    1SOL    HW2 9942   2.029   1.962   4.594 -0.1445  1.0283  0.8968
    1SOL    HW3 9943   2.131   2.042   4.672 -0.1355  0.0477  1.9063
    1SOL    MW4 9944   2.099   1.966   4.646  0.1702  0.3897  0.5245
    1SOL     OW 9945   1.819   4.445   4.700 -0.2297 -0.3209  0.4619
    1SOL    HW2 9946   1.771   4.527   4.695 -0.4313 -0.5601 -1.7902
    1SOL    HW3 9947   1.751   4.378   4.712 -0.2367 -0.4012 -0.0466
    1SOL    MW4 9948   1.803   4.447   4.701 -0.2573 -0.3629  0.0973
    1SOL     OW 9949   0.868   3.245   4.235  0.3763  0.7068  0.2218
    1SOL    HW2 9950   0.893   3.229   4.327  0.4475 -0.1451  0.0569
    1SOL    HW3 9951   0.790   3.191   4.222  1.1090 -0.1693 -0.5844
    1SOL    MW4 9952   0.861   3.236   4.246  0.4824  0.4787  0.0939
    1SOL     OW 9953   1.342   1.091   4.186  0.1327  0.1160  0.1468
    1SOL    HW2 9954   1.413   1.138   4.230  1.0314 -0.3693 -0.7373
    1SOL    HW3 9955   1.354   1.112   4.093 -0.7308 -0.1830 -0.0378
    1SOL    MW4 9956   1.353   1.100   4.179  0.1374  0.0125  0.0062
    1SOL     OW 9957   3.228   2.892   4.505 -0.2419  0.3615  0.3327
    1SOL    HW2 9958   3.293   2.933   4.562 -0.4799  1.5108 -0.1959
    1SOL    HW3 9959   3.146   2.937   4.526 -0.4593  0.3239 -0.4174
    1SOL    MW4 9960   3.226   2.904   4.515 -0.3018  0.5081  0.1636
    1SOL     OW 9961   3.457   4.387   4.512 -0.1792  0.1313  0.0952
    1SOL    HW2 9962   3.395   4.327   4.554  0.2130  0.3314  0.9627
    1SOL    HW3 9963   3.438   4.472   4.551  0.0901  0.3428 -0.2365
    1SOL    MW4 9964   3.446   4.390   4.523 -0.0923  0.1860  0.1659
    1SOL     OW 9965   2.716   2.319   4.355  0.2491 -0.2824  0.4595
    1SOL    HW2 9966   2.671   2.271   4.424 -0.2849  0.6671  0.7853
    1SOL    HW3 9967   2.650   2.380   4.321  0.5330 -0.6709 -0.8252
    1SOL    MW4 9968   2.701   2.321   4.360  0.2160 -0.2081  0.3333
    1SOL     OW 9969   0.750   0.399   4.320  0.1807 -0.0889 -0.4688
    1SOL    HW2 9970   0.835   0.441   4.332  0.9242 -2.0337  1.3124
    1SOL    HW3 9971   0.687   0.471   4.326  1.6249  1.2382 -0.8352
    1SOL    MW4 9972   0.753   0.414   4.323  0.4693 -0.1704 -0.2818
    1SOL     OW 9973   2.111   0.562   4.542  0.1412 -0.0031  0.8669
    1SOL    HW2 9974   2.102   0.549   4.448 -0.0739  2.9094  0.4628
    1SOL    HW3 9975   2.205   0.551   4.559  0.1570 -0.6863  0.3584
    1SOL    MW4 9976   2.122   0.558   4.532  0.1149  0.2910  0.7463
    1SOL     OW 9977   1.840   2.746   3.820  0.2720 -0.1030  0.3233
    1SOL    HW2 9978   1.751   2.780   3.815  0.7277  0.7427 -3.2961
    1SOL    HW3 9979   1.831   2.655   3.792  0.3865 -0.4255  1.3011
    1SOL    MW4 9980   1.827   2.738   3.816  0.3473 -0.0339 -0.0253
    1SOL     OW 9981   3.166   3.767   4.544 -0.0144  0.6890 -0.6011
    1SOL    HW2 9982   3.244   3.711   4.543  0.5143  1.3765  0.9568
    1SOL    HW3 9983   3.194   3.847   4.500 -0.2624  0.4044 -1.2847
    1SOL    MW4 9984   3.180   3.770   4.538  0.0226  0.7422 -0.4859
    1SOL     OW 9985   1.129   2.108   4.277  0.4995 -0.5768 -0.2222
    1SOL    HW2 9986   1.194   2.045   4.246  3.3984  1.8773  0.6573
    1SOL    HW3 9987   1.140   2.108   4.372 -2.1281 -1.4462  0.1406
    1SOL    MW4 9988   1.139   2.099   4.285  0.5354 -0.3676 -0.0582
    1SOL     OW 9989   3.591   3.997   4.281 -0.0426  0.0268  0.3875
    1SOL    HW2 9990   3.666   3.965   4.230 -0.3959 -0.8301  0.3906
    1SOL    HW3 9991   3.516   3.954   4.241 -0.4893  0.5564  0.6578
    1SOL    MW4 9992   3.591   3.987   4.269 -0.1483 -0.0162  0.4239
    1SOL     OW 9993   2.846   0.708   4.621  0.3598 -0.4230  0.2875
    1SOL    HW2 9994   2.937   0.722   4.594  0.1306 -0.8977 -0.7702
    1SOL    HW3 9995   2.824   0.621   4.588 -0.6266 -0.1128  0.1057
    1SOL    MW4 9996   2.855   0.699   4.613  0.1996 -0.4448  0.1235
    1SOL     OW 9997   3.382   4.657   4.567  0.1253 -0.2357 -0.4600
    1SOL    HW2 9998   3.443   4.731   4.558 -0.4857  0.4878  1.2341
    1SOL    HW3 9999   3.297   4.693   4.542 -0.2000 -0.3349  0.5175
    1SOL    MW410000   3.379   4.671   4.562  0.0017 -0.1533 -0.1082
    1SOL     OW10001   1.732   0.088   4.254  0.3560 -0.7864 -0.2307
    1SOL    HW210002   1.806   0.031   4.233 -0.0084 -1.9884  1.6629
    1SOL    HW310003   1.655   0.042   4.218  0.2453 -0.6885 -0.1203
    1SOL    MW410004   1.731   0.074   4.246  0.2934 -0.9321  0.0334
    1SOL     OW10005   0.834   3.920   4.091  0.5158  0.1139  0.2743
    1SOL    HW210006   0.844   4.015   4.098 -0.1748  0.0777  1.9671
    1SOL    HW310007   0.922   3.886   4.105  1.0327  0.5485 -1.7460
    1SOL    MW410008   0.847   3.928   4.094  0.4929  0.1667  0.2308
    1SOL     OW10009   0.648   3.875   4.286  0.5122  0.1346  0.2140
    1SOL    HW210010   0.687   3.896   4.371  1.0099 -2.4024  0.6514
    1SOL    HW310011   0.721   3.880   4.225  0.6518 -0.3717  0.3341
    1SOL    MW410012   0.663   3.878   4.289  0.5962 -0.2668  0.2875
    1SOL     OW10013   1.602   0.453   4.250  0.1019 -0.0441 -0.1678
    1SOL    HW210014   1.624   0.446   4.343  1.8202 -1.1784 -0.6364
    1SOL    HW310015   1.561   0.539   4.242 -0.2168 -0.0009  1.6655
    1SOL    MW410016   1.600   0.464   4.261  0.2867 -0.1880  0.0119
    1SOL     OW10017   1.782   0.203   4.493 -0.1394  0.3168  0.1293
    1SOL    HW210018   1.738   0.287   4.507  1.6715  1.5979 -1.5756
    1SOL    HW310019   1.752   0.174   4.407 -1.6650 -1.4151  1.1988
    1SOL    MW410020   1.772   0.210   4.484 -0.1018  0.2574  0.0458
    1SOL     OW10021   1.961   4.650   4.177  0.0948  0.0372 -0.1762
    1SOL    HW210022   2.031   4.699   4.220  0.0800  0.1105 -0.2352
    1SOL    HW310023   1.988   4.644   4.086  0.1507 -0.1633 -0.1468
    1SOL    MW410024   1.974   4.656   4.171  0.1004  0.0205 -0.1802
    1SOL     OW10025   2.097   0.510   4.251  0.0981 -0.5593 -0.1202
    1SOL    HW210026   2.170   0.453   4.228 -0.0107 -0.3220 -1.1122
    1SOL    HW310027   2.019   0.462   4.222 -0.0321 -0.1583 -0.4389
    1SOL    MW410028   2.096   0.496   4.244  0.0668 -0.4751 -0.2933
    1SOL     OW10029   1.501   4.550   4.400  0.0261  0.3564 -0.1408
    1SOL    HW210030   1.559   4.567   4.474  0.1409 -1.9450  0.3355
    1SOL    HW310031   1.518   4.459   4.377  0.0986  1.0600 -3.1037
    1SOL    MW410032   1.511   4.540   4.407  0.0509  0.1459 -0.4692
    1SOL     OW10033   0.895   0.009   4.520 -0.0940 -0.0200 -0.1445
    1SOL    HW210034   0.830  -0.025   4.458  0.3652  0.5149 -0.9266
    1SOL    HW310035   0.861   0.096   4.544  0.3469  0.2764 -0.5852
    1SOL    MW410036   0.882   0.016   4.515  0.0248  0.0897 -0.3057
    1SOL     OW10037   3.827   0.822   4.141  0.1912  0.5682  0.1304
    1SOL    HW210038   3.745   0.862   4.170 -1.3971 -2.1540 -0.4888
    1SOL    HW310039   3.822   0.824   4.045  0.5021 -0.3462  0.0925
    1SOL    MW410040   3.816   0.828   4.132  0.0226  0.0885  0.0434
    1SOL     OW10041   3.523   0.236   4.489 -0.1563  0.2256 -0.1400
    1SOL    HW210042   3.609   0.262   4.523  0.1775 -0.4583 -0.4470
    1SOL    HW310043   3.542   0.202   4.401 -0.6450 -0.5571  0.0511
    1SOL    MW410044   3.537   0.235   4.482 -0.1764  0.0321 -0.1554
    1SOL     OW10045   0.957   0.646   4.577 -0.0001  0.0336  0.1009
    1SOL    HW210046   1.020   0.637   4.649  0.3935  1.3527 -0.0686
    1SOL    HW310047   0.994   0.593   4.506  1.1338  1.1001 -0.1309
    1SOL    MW410048   0.970   0.638   4.577  0.2014  0.3483  0.0477
    1SOL     OW10049   1.218   2.186   4.547 -0.4668  0.1228 -0.2014
    1SOL    HW210050   1.301   2.177   4.594  0.3610 -0.2005 -1.6839
    1SOL    HW310051   1.194   2.278   4.559 -0.2705  0.0418  0.8498
    1SOL    MW410052   1.226   2.197   4.555 -0.3318  0.0699 -0.2580
    1SOL     OW10053   1.542   1.253   4.302  0.3081 -0.2206  0.0210
    1SOL    HW210054   1.623   1.214   4.269 -0.9095 -1.1711 -1.9354
    1SOL    HW310055   1.541   1.341   4.264  0.8165  0.0996  0.7318
    1SOL    MW410056   1.553   1.259   4.292  0.2146 -0.3036 -0.1431
    1SOL     OW10057   1.520   1.508   4.220  0.2594  0.0134  0.5826
    1SOL    HW210058   1.453   1.576   4.233  0.4688  0.2119  0.6281
    1SOL    HW310059   1.591   1.533   4.280 -0.7165 -1.6453  2.4916
    1SOL    MW410060   1.521   1.520   4.230  0.1583 -0.1792  0.8397
    1SOL     OW10061   1.130   1.529   4.120 -0.0846  0.1968 -0.1979
    1SOL    HW210062   1.150   1.443   4.158 -0.5871 -0.0671 -0.5259
    1SOL    HW310063   1.053   1.558   4.168 -0.4268  0.0817 -0.6773
    1SOL    MW410064   1.123   1.521   4.132 -0.1961  0.1467 -0.3042
    1SOL     OW10065   0.206   2.112   4.463 -0.1814 -0.1671  0.0357
    1SOL    HW210066   0.211   2.066   4.378  1.6890 -0.3281  0.2144
    1SOL    HW310067   0.297   2.123   4.489 -0.6800  1.8715  0.9842
    1SOL    MW410068   0.219   2.107   4.455 -0.0004  0.0806  0.1841
    1SOL     OW10069   3.624   2.508   4.136  0.2190  0.1712 -0.2432
    1SOL    HW210070   3.605   2.584   4.082 -1.6189  1.4758  2.1427
    1SOL    HW310071   3.562   2.441   4.108 -0.1235  0.5419 -0.3668
    1SOL    MW410072   3.614   2.509   4.125 -0.0684  0.3920  0.0553
    1SOL     OW10073   3.655   2.303   4.614  0.1468 -0.5429 -0.8804
    1SOL    HW210074   3.738   2.327   4.656 -0.3282 -0.4613  0.0305
    1SOL    HW310075   3.614   2.387   4.593 -1.1726 -0.5017  1.6248
    1SOL    MW410076   3.660   2.318   4.617 -0.0899 -0.5264 -0.4296
    1SOL     OW10077   2.256   2.702   4.129 -0.3710  0.0412 -0.0199
    1SOL    HW210078   2.260   2.676   4.037  0.8856  0.0770  0.0156
    1SOL    HW310079   2.262   2.619   4.177 -0.4781  0.0655  0.0355
    1SOL    MW410080   2.257   2.687   4.123 -0.2196  0.0491 -0.0081
    1SOL     OW10081   1.839   1.785   4.317  0.1477 -0.2877  0.7864
    1SOL    HW210082   1.928   1.753   4.302  0.4598  0.1700  1.6135
    1SOL    HW310083   1.818   1.837   4.240  0.5941 -0.4018  0.5898
    1SOL    MW410084   1.848   1.788   4.305  0.2478 -0.2422  0.8693
    1SOL     OW10085   2.683   1.973   4.100 -0.1121 -0.5036 -0.2238
    1SOL    HW210086   2.621   2.038   4.134  1.7848  0.8030  0.8124
    1SOL    HW310087   2.687   1.906   4.168 -0.1782 -0.4458 -0.1627
    1SOL    MW410088   2.675   1.973   4.113  0.1295 -0.3235 -0.0787
    1SOL     OW10089   1.334   2.756   4.136  0.0626 -0.3780  0.2784
    1SOL    HW210090   1.262   2.811   4.169 -0.0632 -0.0975 -0.4671
    1SOL    HW310091   1.413   2.796   4.171 -0.0460  0.1368 -0.0750
    1SOL    MW410092   1.335   2.768   4.145  0.0317 -0.2730  0.1335
    1SOL     OW10093   2.023   3.592   4.225  0.0631 -0.0143 -0.0925
    1SOL    HW210094   1.950   3.558   4.173 -1.1754  1.2662  0.7674
    1SOL    HW310095   2.020   3.687   4.211  1.3142  0.0881  0.2771
    1SOL    MW410096   2.013   3.600   4.216  0.0648  0.1681  0.0691
    1SOL     OW10097   0.974   1.801   4.656  0.2484 -0.3433  0.3390
    1SOL    HW210098   0.933   1.755   4.583  0.1394  0.5477 -0.1802
    1SOL    HW310099   0.933   1.765   4.734 -1.0009  0.0152 -0.1388
    1SOL    MW410100   0.963   1.790   4.657  0.0691 -0.1785  0.2074
    1SOL     OW10101   2.041   3.871   4.167  0.3990 -0.6291 -0.2670
    1SOL    HW210102   2.028   3.878   4.072  1.0337 -1.8649 -0.4536
    1SOL    HW310103   1.971   3.925   4.204  1.3402  1.5105 -1.4713
    1SOL    MW410104   2.030   3.879   4.159  0.6070 -0.5100 -0.4506
    1SOL     OW10105   1.330   4.213   4.167 -0.3887 -0.5474 -0.6008
    1SOL    HW210106   1.328   4.247   4.077 -1.0102 -1.4604 -0.9339
    1SOL    HW310107   1.341   4.119   4.157  0.2339 -0.5798  0.3086
    1SOL    MW410108   1.331   4.205   4.154 -0.3886 -0.6719 -0.5245
    1SOL     OW10109   1.605   3.873   4.106  0.3676 -0.3749 -0.0196
    1SOL    HW210110   1.597   3.788   4.150 -0.4172  0.2504  1.0692
    1SOL    HW310111   1.677   3.917   4.150 -0.5541  0.3362  0.7871
    1SOL    MW410112   1.613   3.867   4.117  0.1425 -0.1984  0.2303
    1SOL     OW10113   2.432   2.855   4.258  0.4010  0.2489  0.2096
    1SOL    HW210114   2.418   2.941   4.219  1.4348 -0.2670 -1.3162
    1SOL    HW310115   2.371   2.797   4.212  0.1363  0.0319  0.8182
    1SOL    MW410116   2.422   2.858   4.247  0.5026  0.1521  0.0887
    1SOL     OW10117   2.511   0.008   4.151  0.0326  0.4186 -0.2032
    1SOL    HW210118   2.589   0.051   4.188  0.6037 -0.0251 -0.8747
    1SOL    HW310119   2.447   0.009   4.222  0.4656  1.2689  0.1886
    1SOL    MW410120   2.513   0.014   4.165  0.1652  0.4730 -0.2403
    1SOL     OW10121   3.928   1.902   4.389 -0.2910 -0.5505  0.6042
    1SOL    HW210122   3.969   1.850   4.320 -1.4121 -0.5380 -0.0809
    1SOL    HW310123   3.842   1.863   4.401 -1.3893  1.5136 -0.3483
    1SOL    MW410124   3.922   1.890   4.382 -0.5841 -0.2764  0.3877
    1SOL     OW10125   1.396   0.092   4.663 -0.0741  0.2429 -0.1383
    1SOL    HW210126   1.332   0.023   4.646  0.3807 -0.4447  0.9509
    1SOL    HW310127   1.348   0.173   4.645 -0.3979 -0.3555 -2.0968
    1SOL    MW410128   1.381   0.094   4.658 -0.0566  0.0732 -0.2522
    1SOL     OW10129   2.459   0.773   4.134  0.1126  0.2468  0.0286
    1SOL    HW210130   2.476   0.770   4.040  1.8618  0.9574  0.2956
    1SOL    HW310131   2.533   0.823   4.170 -0.2427 -0.4821  1.8380
    1SOL    MW410132   2.471   0.779   4.126  0.2964  0.2444  0.3018
    1SOL     OW10133   3.691   3.007   4.528 -0.2050 -0.3444  0.3252
    1SOL    HW210134   3.694   3.097   4.496 -1.4641 -0.0299  1.0277
    1SOL    HW310135   3.780   2.987   4.555  0.2412  0.4154 -0.5870
    1SOL    MW410136   3.703   3.016   4.527 -0.3123 -0.2024  0.2975
    1SOL     OW10137   2.036   0.772   4.183 -0.2612 -0.2863 -0.3169
    1SOL    HW210138   2.100   0.825   4.230  0.8051  0.2961 -2.3868
    1SOL    HW310139   2.062   0.681   4.201  0.5321 -0.0623 -0.3064
    1SOL    MW410140   2.048   0.767   4.191 -0.0160 -0.1799 -0.5884
    1SOL     OW10141   0.456   2.415   4.245  0.1723  0.0396  0.0813
    1SOL    HW210142   0.433   2.411   4.337  1.1063 -0.8173  0.2883
    1SOL    HW310143   0.471   2.508   4.228  1.6305  0.0440  1.2235
    1SOL    MW410144   0.455   2.427   4.255  0.4879 -0.0727  0.2594
    1SOL     OW10145   0.209   1.311   4.254  0.1971  0.4412  0.3563
    1SOL    HW210146   0.202   1.404   4.232  0.5546  0.7570  1.5344
    1SOL    HW310147   0.293   1.283   4.215  0.7853  0.9725  1.2266
    1SOL    MW410148   0.219   1.319   4.246  0.3219  0.5529  0.6266
    1SOL     OW10149   2.553   1.141   4.128  0.5210 -0.0395  0.0655
    1SOL    HW210150   2.593   1.055   4.140 -0.4814 -0.5927 -0.4441
    1SOL    HW310151   2.577   1.166   4.038  1.4417  0.5580  0.4708
    1SOL    MW410152   2.561   1.133   4.118  0.5100 -0.0337  0.0520
    1SOL     OW10153   3.170   2.657   4.132  0.0570  0.3609  0.2339
    1SOL    HW210154   3.083   2.690   4.152  0.0715  0.7696 -0.3638
    1SOL    HW310155   3.167   2.564   4.156 -1.1229 -0.0938 -1.5398
    1SOL    MW410156   3.158   2.649   4.137 -0.0968  0.3548 -0.0796
    1SOL     OW10157   0.450   4.259   4.166  0.6607  0.2970  0.2981
    1SOL    HW210158   0.457   4.262   4.071  0.9079  1.7573  0.3561
    1SOL    HW310159   0.373   4.313   4.186 -0.5127 -1.4914  0.8202
    1SOL    MW410160   0.440   4.266   4.156  0.5385  0.2542  0.3743
    1SOL     OW10161   0.980   2.074   4.655 -0.0565 -0.6638  0.4922
    1SOL    HW210162   0.994   1.979   4.659  1.7927 -0.2923  4.1823
    1SOL    HW310163   1.066   2.111   4.638 -0.7605  0.4190 -0.8725
    1SOL    MW410164   0.993   2.066   4.653  0.0946 -0.4723  0.7987
    1SOL     OW10165   2.735   1.571   4.588 -0.3330 -0.5623  0.4989
    1SOL    HW210166   2.741   1.667   4.584 -1.4046 -0.4821  0.5687
    1SOL    HW310167   2.825   1.541   4.580  0.0595  0.4738  0.9670
    1SOL    MW410168   2.748   1.580   4.586 -0.4227 -0.4151  0.5698
    1SOL     OW10169   2.931   1.356   4.299 -0.4541  0.1539 -0.3306
    1SOL    HW210170   2.910   1.435   4.249 -0.0776  0.6021  0.2179
    1SOL    HW310171   2.847   1.310   4.307 -0.4485 -0.1276 -1.7174
    1SOL    MW410172   2.917   1.360   4.293 -0.4036  0.1761 -0.4411
    1SOL     OW10173   2.556   2.470   4.772  0.2037  0.8922  0.1492
    1SOL    HW210174   2.591   2.551   4.735 -0.7120  1.6967  1.0133
    1SOL    HW310175   2.609   2.454   4.850  1.3142 -0.1319 -0.7806
    1SOL    MW410176   2.568   2.478   4.777  0.2294  0.8633  0.1407
    1SOL     OW10177   0.000   2.430   4.213 -0.6856  0.1900  0.4531
    1SOL    HW210178  -0.002   2.410   4.307 -0.8345  1.2022  0.6682
    1SOL    HW310179   0.083   2.393   4.183 -0.8639 -0.5781  0.8802
    1SOL    MW410180   0.011   2.422   4.222 -0.7288  0.2222  0.5379
    1SOL     OW10181   4.009   3.203   4.250  0.2812 -0.1080  0.2517
    1SOL    HW210182   4.085   3.161   4.210  1.1304  0.3150  1.3960
    1SOL    HW310183   4.007   3.290   4.212  0.9628  0.2215  0.9649
    1SOL    MW410184   4.019   3.209   4.240  0.4835 -0.0086  0.4964
    1SOL     OW10185   1.873   2.741   4.096  0.1117  0.4814  0.5058
    1SOL    HW210186   1.900   2.651   4.111  1.1528  0.6096 -0.5536
    1SOL    HW310187   1.874   2.751   4.001  0.3323  1.7108  0.6307
    1SOL    MW410188   1.877   2.730   4.085  0.2782  0.6604  0.3819
    1SOL     OW10189   0.614   2.902   4.506  0.5263 -0.2919  0.1036
    1SOL    HW210190   0.621   2.809   4.527 -0.3441 -0.4356 -0.2115
    1SOL    HW310191   0.625   2.906   4.411 -1.0954 -0.2702 -0.1026
    1SOL    MW410192   0.616   2.890   4.496  0.1976 -0.3080  0.0348
    1SOL     OW10193   4.381   3.749   4.586  0.3013 -0.2389  0.2793
    1SOL    HW210194   4.396   3.843   4.583  0.6598 -0.2892  0.3995
    1SOL    HW310195   4.468   3.711   4.571 -0.2266 -0.5714 -2.0764
    1SOL    MW410196   4.395   3.756   4.583  0.2794 -0.2894 -0.0157
    1SOL     OW10197   2.424   3.145   4.611 -0.2981  0.2405 -0.7332
    1SOL    HW210198   2.371   3.176   4.538  0.3076  1.2443 -0.7679
    1SOL    HW310199   2.393   3.057   4.629 -0.4209 -0.0297 -2.2436
    1SOL    MW410200   2.413   3.138   4.604 -0.2344  0.3371 -0.9370
    1SOL     OW10201   2.271   4.006   4.227 -0.2754  0.3948 -0.3245
    1SOL    HW210202   2.337   3.959   4.176 -0.1041  0.5300 -0.2279
    1SOL    HW310203   2.194   3.949   4.225  0.2011 -0.2997  0.5160
    1SOL    MW410204   2.270   3.992   4.220 -0.1900  0.3209 -0.2007
    1SOL     OW10205   2.483   4.384   4.224  0.0903  0.1334 -0.1773
    1SOL    HW210206   2.486   4.380   4.320 -0.2375  0.8334 -0.1282
    1SOL    HW310207   2.494   4.477   4.204  0.0145  0.0072 -0.8135
    1SOL    MW410208   2.485   4.396   4.234  0.0372  0.2089 -0.2546
    1SOL     OW10209   2.653   0.899   4.513 -0.1859  0.1772  0.1946
    1SOL    HW210210   2.579   0.895   4.574  0.3259  1.6879  0.9141
    1SOL    HW310211   2.702   0.819   4.530 -1.3940 -0.6091  0.0446
    1SOL    MW410212   2.649   0.888   4.523 -0.2778  0.2728  0.2689
    1SOL     OW10213   2.712   0.140   4.262  0.2020  0.0286 -0.1787
    1SOL    HW210214   2.716   0.231   4.230  0.1249  0.3410  0.6886
    1SOL    HW310215   2.797   0.103   4.239  0.5505  0.5738  0.2117
    1SOL    MW410216   2.724   0.147   4.255  0.2379  0.1418 -0.0129
    1SOL     OW10217   2.508   3.813   4.571  0.0858  0.0406 -0.2169
    1SOL    HW210218   2.496   3.796   4.664  1.3394  0.0659 -0.0414
    1SOL    HW310219   2.507   3.727   4.530  1.6277 -0.1306  0.0834
    1SOL    MW410220   2.506   3.799   4.577  0.4547  0.0215 -0.1545
    1SOL     OW10221   2.721   0.388   4.170 -0.0036  0.0566  0.0006
    1SOL    HW210222   2.653   0.453   4.190  0.6378  0.5796  0.5261
    1SOL    HW310223   2.708   0.367   4.078  0.6786  2.0358 -0.5762
    1SOL    MW410224   2.711   0.394   4.161  0.1712  0.3867 -0.0067
    1SOL     OW10225   0.691   4.370   4.268 -0.1922  0.1152 -0.3805
    1SOL    HW210226   0.605   4.348   4.232 -0.9223  1.7903  0.3165
    1SOL    HW310227   0.697   4.319   4.349 -0.4738 -0.0738 -0.4781
    1SOL    MW410228   0.681   4.360   4.274 -0.3256  0.3109 -0.3014
    1SOL     OW10229   2.923   0.792   4.236  0.4742 -0.3912 -0.4823
    1SOL    HW210230   2.947   0.699   4.231 -2.0555 -0.9902 -1.9594
    1SOL    HW310231   2.936   0.825   4.148  0.0626  0.3248 -0.2765
    1SOL    MW410232   2.928   0.784   4.224  0.0858 -0.3757 -0.6504
    1SOL     OW10233   2.444   2.713   4.501  0.4159  0.2000  0.2482
    1SOL    HW210234   2.441   2.756   4.416  1.1609  1.1605  0.6864
    1SOL    HW310235   2.401   2.629   4.488 -1.2315  1.1529 -0.6100
    1SOL    MW410236   2.438   2.708   4.488  0.2968  0.4523  0.1926
    1SOL     OW10237   2.489   4.317   4.487 -0.0437  0.0013 -0.1927
    1SOL    HW210238   2.419   4.362   4.536  0.7736  2.1220 -0.8938
    1SOL    HW310239   2.466   4.225   4.492 -3.5000  0.7029 -1.2621
    1SOL    MW410240   2.476   4.311   4.494 -0.3920  0.3734 -0.4263
    1SOL     OW10241   2.488   3.551   4.449  0.5854  0.3911 -0.0284
    1SOL    HW210242   2.566   3.498   4.464  1.1183  1.0762 -0.3293
    1SOL    HW310243   2.415   3.495   4.474  1.1930 -0.1469  0.5504
    1SOL    MW410244   2.489   3.537   4.454  0.7360  0.4103  0.0081
    1SOL     OW10245   3.003   1.448   4.544  0.3619  0.4641  0.0346
    1SOL    HW210246   2.989   1.380   4.610 -0.1114  0.3819 -0.1461
    1SOL    HW310247   2.988   1.403   4.461  0.6184  0.6526 -0.1143
    1SOL    MW410248   2.999   1.433   4.542  0.3333  0.4780 -0.0091
    1SOL     OW10249   0.087   3.377   4.635 -0.6209 -0.2461 -0.0722
    1SOL    HW210250   0.161   3.318   4.619  0.2305  0.2277  1.8979
    1SOL    HW310251   0.120   3.464   4.615 -1.3291 -0.2343 -1.2502
    1SOL    MW410252   0.101   3.381   4.631 -0.6020 -0.1819  0.0324
    1SOL     OW10253   3.671   3.274   4.455  0.0689 -0.1222  0.3122
    1SOL    HW210254   3.734   3.346   4.453  0.1201 -0.1917 -0.8735
    1SOL    HW310255   3.650   3.258   4.363 -1.2581 -0.4626  0.6565
    1SOL    MW410256   3.676   3.281   4.442 -0.0994 -0.1760  0.2007
    1SOL     OW10257   2.904   2.117   3.782  0.6304  0.0688 -0.3564
    1SOL    HW210258   2.831   2.057   3.796 -0.9330  1.5444 -1.8212
    1SOL    HW310259   2.880   2.196   3.831  0.6526  0.9879 -1.7782
    1SOL    MW410260   2.891   2.119   3.790  0.4268  0.3848 -0.7374
    1SOL     OW10261   0.563   4.538   4.690 -0.4290  0.0311  0.2373
    1SOL    HW210262   0.491   4.478   4.672 -0.3121 -0.1947  0.5274
    1SOL    HW310263   0.529   4.624   4.665 -0.2775 -0.2693 -1.0352
    1SOL    MW410264   0.549   4.542   4.684 -0.3936 -0.0381  0.1078
    1SOL     OW10265   2.896   0.448   4.539  0.4448 -0.4711  0.0247
    1SOL    HW210266   2.839   0.372   4.547  1.2999 -0.9021  2.5547
    1SOL    HW310267   2.984   0.415   4.557  0.8969  0.9881  0.6097
    1SOL    MW410268   2.900   0.434   4.542  0.6175 -0.3354  0.4358
    1SOL     OW10269   4.448   2.918   4.459  0.1288  0.2003 -0.2332
    1SOL    HW210270   4.441   3.012   4.478  0.4359  0.4206 -1.1965
    1SOL    HW310271   4.384   2.903   4.390  0.7548 -0.1147 -0.7412
    1SOL    MW410272   4.438   2.929   4.453  0.2522  0.1879 -0.4268
    1SOL     OW10273   2.531   1.513   4.387 -0.4281  0.2531  0.1670
    1SOL    HW210274   2.446   1.528   4.428 -0.4658  0.2768  0.0802
    1SOL    HW310275   2.595   1.539   4.453 -0.4734 -0.9814  0.6966
    1SOL    MW410276   2.528   1.519   4.401 -0.4392  0.0933  0.2255
    1SOL     OW10277   0.383   3.031   4.563  0.2207 -0.2313 -0.1989
    1SOL    HW210278   0.468   2.988   4.553  0.1841 -0.2934 -0.2406
    1SOL    HW310279   0.319   2.963   4.542  0.0912 -0.7142  1.7000
    1SOL    MW410280   0.386   3.017   4.559  0.1988 -0.3033  0.0467
    1SOL     OW10281   2.917   2.770   4.727 -0.0154  0.0352  0.0705
    1SOL    HW210282   2.962   2.706   4.673 -1.1017 -2.4313  1.9796
    1SOL    HW310283   2.824   2.750   4.716 -0.3670  1.0829  0.9459
    1SOL    MW410284   2.910   2.759   4.719 -0.2050 -0.1519  0.4377
    1SOL     OW10285   2.966   3.621   4.254 -0.1524  0.4454  0.0313
    1SOL    HW210286   2.951   3.630   4.348  2.6108  0.5228  0.4985
    1SOL    HW310287   2.964   3.711   4.221  0.3291  0.5316  0.2418
    1SOL    MW410288   2.964   3.634   4.262  0.2756  0.4668  0.1211
    1SOL     OW10289   2.709   3.171   4.252 -0.5537 -0.5550 -0.0198
    1SOL    HW210290   2.710   3.257   4.210 -2.2529 -0.3902  0.2426
    1SOL    HW310291   2.789   3.128   4.222  0.2332  1.0680 -0.2612
    1SOL    MW410292   2.720   3.176   4.243 -0.6740 -0.3192 -0.0176
    1SOL     OW10293   2.932   3.882   4.144 -0.2715  0.3240  0.4083
    1SOL    HW210294   2.859   3.939   4.170  0.0320  0.8199  0.1701
    1SOL    HW310295   3.010   3.933   4.165  0.0150 -0.3188  0.9219
    1SOL    MW410296   2.932   3.897   4.150 -0.1938  0.3047  0.4454
    1SOL     OW10297   2.707   4.272   4.091 -0.1863  0.1514  0.4671
    1SOL    HW210298   2.624   4.309   4.121 -0.5844  0.2576 -0.7135
    1SOL    HW310299   2.710   4.184   4.130 -0.8761  0.1312  0.4813
    1SOL    MW410300   2.696   4.265   4.100 -0.3297  0.1621  0.3133
    1SOL     OW10301   2.470   3.846   4.122 -0.6933  0.1276 -0.3334
    1SOL    HW210302   2.463   3.844   4.026 -1.2331 -1.2644 -0.2706
    1SOL    HW310303   2.495   3.757   4.146 -2.0159  0.0907  0.9295
    1SOL    MW410304   2.473   3.834   4.112 -0.9391 -0.0610 -0.1583
    1SOL     OW10305   2.886   4.400   4.288 -0.2931  0.2988  0.2679
    1SOL    HW210306   2.827   4.369   4.219 -0.0224  0.9883 -0.2782
    1SOL    HW310307   2.972   4.366   4.263 -0.2470  0.3129  0.4119
    1SOL    MW410308   2.890   4.392   4.275 -0.2513  0.3920  0.2151
    1SOL     OW10309   3.378   4.644   4.154  0.1757  0.2433  0.0853
    1SOL    HW210310   3.452   4.692   4.191  0.2614 -0.6028  1.0330
    1SOL    HW310311   3.301   4.684   4.194  0.2778 -0.8124  1.3830
    1SOL    MW410312   3.378   4.655   4.164  0.2005 -0.0076  0.3815
    1SOL     OW10313   1.327   1.690   4.248  0.0372 -0.1288  0.0483
    1SOL    HW210314   1.265   1.637   4.197 -0.4956 -0.9386  1.5192
    1SOL    HW310315   1.278   1.716   4.326  1.2322  0.0742  0.7469
    1SOL    MW410316   1.312   1.687   4.252  0.1246 -0.2089  0.3352
    1SOL     OW10317   2.941   0.508   4.276  0.1716 -0.0470 -0.0884
    1SOL    HW210318   2.867   0.473   4.227  0.8558 -1.0529 -0.4266
    1SOL    HW310319   2.922   0.485   4.367 -1.0844  1.7958  0.1371
    1SOL    MW410320   2.929   0.500   4.282  0.0961  0.0634 -0.1030
    1SOL     OW10321   3.346   0.551   4.279 -0.7285  0.1141  0.3774
    1SOL    HW210322   3.358   0.527   4.371  0.0292  0.4983  0.3809
    1SOL    HW310323   3.418   0.509   4.233 -0.8840  0.2397  0.0114
    1SOL    MW410324   3.357   0.543   4.285 -0.6490  0.1814  0.3295
    1SOL     OW10325   2.232   0.094   4.687  0.1245 -0.4742  0.2280
    1SOL    HW210326   2.164   0.146   4.645 -0.1929 -0.8751  0.2461
    1SOL    HW310327   2.314   0.128   4.651 -0.1301 -0.5984 -0.4833
    1SOL    MW410328   2.234   0.105   4.677  0.0491 -0.5435  0.1369
    1SOL     OW10329   4.177   4.425   4.461 -0.0553  0.2782  0.6587
    1SOL    HW210330   4.217   4.409   4.375  1.6559 -0.2655  1.5367
    1SOL    HW310331   4.203   4.515   4.483 -2.0430  1.0975 -0.1914
    1SOL    MW410332   4.186   4.435   4.452 -0.0916  0.3147  0.6618
    1SOL     OW10333   3.130   0.957   4.328 -0.3034  0.0930  0.0150
    1SOL    HW210334   3.069   0.886   4.308 -0.3631  0.5731 -1.5628
    1SOL    HW310335   3.097   1.032   4.279  0.8897  0.6706  0.0789
    1SOL    MW410336   3.118   0.957   4.319 -0.1540  0.2325 -0.1850
    1SOL     OW10337   1.654   4.656   4.604 -0.5679 -0.0115 -0.1547
    1SOL    HW210338   1.694   4.731   4.560  1.1791 -0.6219  0.3375
    1SOL    HW310339   1.571   4.689   4.637  0.2669  1.7820  0.2324
    1SOL    MW410340   1.648   4.671   4.603 -0.2273  0.1450 -0.0391
    1SOL     OW10341   2.694   3.130   4.536 -0.2412  0.2095  0.1606
    1SOL    HW210342   2.688   3.119   4.442 -0.2000 -0.6134  0.2496
    1SOL    HW310343   2.605   3.116   4.568  0.0088 -1.0280  0.3793
    1SOL    MW410344   2.682   3.126   4.528 -0.2027 -0.0627  0.2012
    1SOL     OW10345   2.430   1.647   4.148 -0.3757  0.0581 -0.4493
    1SOL    HW210346   2.475   1.595   4.214 -1.0645  0.6673  0.5170
    1SOL    HW310347   2.437   1.596   4.068  0.5773 -0.6337  0.0598
    1SOL    MW410348   2.437   1.634   4.146 -0.3407  0.0472 -0.2551
    1SOL     OW10349   2.750   0.194   4.528  0.2295 -0.2941  0.3212
    1SOL    HW210350   2.776   0.104   4.547  0.9395 -0.0479  0.5648
    1SOL    HW310351   2.734   0.195   4.434  0.7083 -0.5658  0.2306
    1SOL    MW410352   2.752   0.183   4.518  0.3865 -0.2975  0.3414
    1SOL     OW10353   2.277   2.281   4.049 -0.0341  0.4301  0.3596
    1SOL    HW210354   2.324   2.210   4.093  0.5104  0.8902  0.5240
    1SOL    HW310355   2.258   2.344   4.118 -1.0547  0.1670  0.3287
    1SOL    MW410356   2.281   2.280   4.064 -0.0966  0.4566  0.3772
    1SOL     OW10357   3.635   0.929   4.558 -0.2392  0.1502  0.2103
    1SOL    HW210358   3.645   1.024   4.562  0.5165  0.0976 -0.4382
    1SOL    HW310359   3.604   0.912   4.469  0.2033 -0.2676  0.1385
    1SOL    MW410360   3.632   0.939   4.547 -0.0811  0.0881  0.1159
    1SOL     OW10361   3.144   1.675   4.469 -0.6670  0.7399  0.4002
    1SOL    HW210362   3.096   1.597   4.494 -2.1225  1.1563 -1.0572
    1SOL    HW310363   3.095   1.747   4.508 -0.4523  1.0693  0.0653
    1SOL    MW410364   3.131   1.674   4.478 -0.8307  0.8383  0.1640
    1SOL     OW10365   3.430   2.304   4.101  0.1110 -0.4274 -0.0274
    1SOL    HW210366   3.417   2.283   4.008 -1.0205 -0.3933  0.1142
    1SOL    HW310367   3.344   2.333   4.131  0.0252 -2.1446  1.4680
    1SOL    MW410368   3.417   2.305   4.093 -0.0496 -0.6497  0.1884
    1SOL     OW10369   2.223   4.284   4.170 -0.3991 -0.0032 -0.0437
    1SOL    HW210370   2.250   4.195   4.194  1.5180  0.6218  0.2149
    1SOL    HW310371   2.301   4.338   4.187 -1.1314  1.5180 -1.4200
    1SOL    MW410372   2.237   4.279   4.175 -0.2429  0.2799 -0.1917
    1SOL     OW10373   3.378   3.054   4.183 -0.0135  0.2910 -0.2576
    1SOL    HW210374   3.301   3.099   4.217 -0.1538  0.9516 -1.4039
    1SOL    HW310375   3.366   2.963   4.209 -0.3082  0.6987  1.0829
    1SOL    MW410376   3.366   3.048   4.191 -0.0710  0.4323 -0.2317
    1SOL     OW10377   2.449   3.112   4.146  0.6216  0.0120  0.0861
    1SOL    HW210378   2.535   3.134   4.183  0.6160  0.0506  0.0766
    1SOL    HW310379   2.386   3.147   4.209  0.6140 -0.1399  0.1620
    1SOL    MW410380   2.452   3.120   4.159  0.6196 -0.0031  0.0949
    1SOL     OW10381   3.361   3.619   4.264  0.0242  0.1379 -0.3035
    1SOL    HW210382   3.281   3.574   4.236  1.5439 -1.9492 -1.4219
    1SOL    HW310383   3.365   3.603   4.359 -0.2229 -0.8155 -0.4528
    1SOL    MW410384   3.351   3.611   4.273  0.1922 -0.2635 -0.4711
    1SOL     OW10385   3.577   3.503   4.123 -0.3160  0.8866 -0.2050
    1SOL    HW210386   3.566   3.408   4.133  0.1038  0.5943 -2.2847
    1SOL    HW310387   3.501   3.540   4.167 -1.4645 -0.4970 -0.9656
    1SOL    MW410388   3.565   3.495   4.130 -0.4122  0.6657 -0.5798
    1SOL     OW10389   3.374   3.882   4.160  0.2797 -0.1761  0.7163
    1SOL    HW210390   3.363   3.801   4.210 -2.1294  0.5061  1.3567
    1SOL    HW310391   3.395   3.853   4.071 -1.7385 -1.5622  0.6464
    1SOL    MW410392   3.375   3.868   4.155 -0.3045 -0.2689  0.7911
    1SOL     OW10393   4.460   2.700   4.112  0.4491 -0.5221  0.7542
    1SOL    HW210394   4.393   2.746   4.162 -1.0379 -1.3038 -0.5072
    1SOL    HW310395   4.466   2.614   4.154 -1.0557 -1.3068 -0.6262
    1SOL    MW410396   4.452   2.695   4.124  0.0539 -0.7286  0.4053
    1SOL     OW10397   4.465   0.908   4.271 -0.5995 -0.1433 -0.4171
    1SOL    HW210398   4.479   0.912   4.366 -1.0180  1.1486 -0.4013
    1SOL    HW310399   4.475   0.998   4.242 -1.6101 -0.3627 -1.4531
    1SOL    MW410400   4.468   0.920   4.280 -0.7882 -0.0018 -0.5517
    1SOL     OW10401   3.568   4.250   4.154 -0.1722 -0.0420  0.2668
    1SOL    HW210402   3.503   4.305   4.198  1.2649  0.4053  1.8903
    1SOL    HW310403   3.577   4.173   4.211  0.0691 -0.5197 -0.4060
    1SOL    MW410404   3.561   4.247   4.167  0.0489 -0.0463  0.3924
    1SOL     OW10405   3.786   0.009   4.117  0.1148  0.3923 -0.1912
    1SOL    HW210406   3.801  -0.080   4.149  1.0887  0.4211 -0.5432
    1SOL    HW310407   3.781   0.000   4.022  1.0117  0.8050 -0.2895
    1SOL    MW410408   3.788  -0.004   4.109  0.3614  0.4505 -0.2499
    1SOL     OW10409   2.265   1.867   4.130  0.1171  0.0330  0.2593
    1SOL    HW210410   2.335   1.804   4.147 -0.8470 -0.8459  1.0622
    1SOL    HW310411   2.243   1.854   4.037  0.4218 -0.2983  0.2350
    1SOL    MW410412   2.271   1.857   4.120  0.0300 -0.1266  0.3619
    1SOL     OW10413   3.546   0.415   4.139  0.5694 -0.4970 -0.3265
    1SOL    HW210414   3.618   0.477   4.155  0.1061 -0.0168 -0.0830
    1SOL    HW310415   3.557   0.390   4.047  0.3159  0.5298 -0.6491
    1SOL    MW410416   3.557   0.420   4.129  0.4749 -0.2981 -0.3366
    1SOL     OW10417   4.014   0.401   4.126  0.2615 -0.6156  0.3561
    1SOL    HW210418   4.013   0.313   4.162 -1.3425 -0.3508  0.9813
    1SOL    HW310419   3.941   0.446   4.168  1.4340  1.2189  0.5280
    1SOL    MW410420   4.004   0.395   4.136  0.2046 -0.3386  0.4611
    1SOL     OW10421   1.466   3.830   4.787  0.0849 -0.2978 -0.8378
    1SOL    HW210422   1.401   3.760   4.779  0.7002 -0.7830 -1.6957
    1SOL    HW310423   1.492   3.828   4.879 -1.3859  0.1465 -0.4032
    1SOL    MW410424   1.461   3.820   4.798 -0.0279 -0.3033 -0.8931
    1SOL     OW10425   2.392   0.006   4.395 -0.0874 -0.2502 -1.0896
    1SOL    HW210426   2.403   0.086   4.445  1.8904 -0.2858 -1.4394
    1SOL    HW310427   2.364  -0.059   4.459 -0.6831  0.4552 -0.6263
    1SOL    MW410428   2.390   0.008   4.410  0.0951 -0.1618 -1.0743
    1SOL     OW10429   2.046   2.165   4.195 -0.1238 -0.0252 -0.0403
    1SOL    HW210430   2.063   2.217   4.273 -0.5802 -1.2066  0.8678
    1SOL    HW310431   2.102   2.203   4.128 -1.1170  2.1928  0.3538
    1SOL    MW410432   2.056   2.177   4.197 -0.3152  0.1116  0.1316
    1SOL     OW10433   0.210   2.570   4.541 -0.0395 -0.5599  0.1489
    1SOL    HW210434   0.300   2.547   4.560  0.5653  1.4425 -0.1301
    1SOL    HW310435   0.213   2.664   4.523 -2.3986 -0.1659  1.5793
    1SOL    MW410436   0.222   2.580   4.541 -0.2710 -0.2439  0.3009
    1SOL     OW10437   4.307   2.292   4.065  0.1811 -0.2208 -0.5734
    1SOL    HW210438   4.370   2.316   4.133 -2.3519  3.1230  0.7197
    1SOL    HW310439   4.274   2.207   4.092  1.0332 -0.0583  1.0423
    1SOL    MW410440   4.311   2.284   4.077 -0.0401  0.2418 -0.1893
    1SOL     OW10441   3.356   1.534   4.122 -0.4095  0.1942  0.0832
    1SOL    HW210442   3.283   1.590   4.149 -0.5752  0.1969 -0.3589
    1SOL    HW310443   3.362   1.548   4.028 -0.4434 -0.5230 -0.0289
    1SOL    MW410444   3.347   1.543   4.113 -0.4358  0.1000  0.0100
    1SOL     OW10445   3.672   2.014   4.148  0.4501  0.5714 -0.3207
    1SOL    HW210446   3.647   1.946   4.210  0.2388  0.8020 -0.1528
    1SOL    HW310447   3.707   2.085   4.202 -0.3278  1.0346 -0.4163
    1SOL    MW410448   3.673   2.014   4.163  0.3195  0.6628 -0.3109
    1SOL     OW10449   1.532   1.743   4.610 -0.6357  0.3792  0.2604
    1SOL    HW210450   1.581   1.683   4.553 -0.6249 -0.0410  0.7096
    1SOL    HW310451   1.515   1.820   4.555 -0.8621 -0.1390 -0.3951
    1SOL    MW410452   1.537   1.745   4.595 -0.6641  0.2555  0.2337
    1SOL     OW10453   0.824   4.456   4.683  0.1440 -0.2595 -0.0296
    1SOL    HW210454   0.734   4.476   4.708  0.0960 -0.3191 -0.1538
    1SOL    HW310455   0.852   4.532   4.631 -0.2976 -0.8512 -1.1569
    1SOL    MW410456   0.816   4.469   4.679  0.0794 -0.3457 -0.1950
    1SOL     OW10457   3.552   2.526   4.433 -0.0275 -0.1332  0.4872
    1SOL    HW210458   3.555   2.622   4.435 -0.1022 -0.1241  0.1318
    1SOL    HW310459   3.575   2.503   4.343 -1.0633 -0.4095  0.2802
    1SOL    MW410460   3.555   2.536   4.422 -0.1738 -0.1683  0.4134
    1SOL     OW10461   4.243   2.533   4.393 -0.3451 -0.3779 -0.2192
    1SOL    HW210462   4.233   2.566   4.303  0.2824  0.4985  0.0308
    1SOL    HW310463   4.257   2.611   4.446 -0.4226 -0.9198  0.6108
    1SOL    MW410464   4.243   2.548   4.388 -0.2728 -0.3338 -0.0768
    1SOL     OW10465   1.821   3.997   4.498  0.4339  0.2362 -0.4907
    1SOL    HW210466   1.773   4.068   4.541  0.7010  0.7593 -1.0601
    1SOL    HW310467   1.911   4.009   4.527  0.2699 -0.6229  0.4127
    1SOL    MW410468   1.826   4.008   4.508  0.4476  0.1917 -0.4468
    1SOL     OW10469   3.795   3.048   4.162 -0.1578  0.1955 -0.0626
    1SOL    HW210470   3.860   3.106   4.201 -0.8935  0.1152  1.3483
    1SOL    HW310471   3.828   3.029   4.075  0.5053  2.0706 -0.2372
    1SOL    MW410472   3.808   3.053   4.156 -0.1674  0.4325  0.1006
    1SOL     OW10473   3.787   4.400   4.209 -0.2388 -0.0338 -0.1778
    1SOL    HW210474   3.718   4.339   4.183  1.1608 -1.6695 -0.2077
    1SOL    HW310475   3.782   4.403   4.304 -0.2024 -0.3510 -0.1643
    1SOL    MW410476   3.777   4.392   4.218 -0.0494 -0.2918 -0.1802
    1SOL     OW10477   3.596   3.230   4.190  0.2879  0.5966 -0.2596
    1SOL    HW210478   3.522   3.177   4.220 -0.1329  1.3090 -0.0317
    1SOL    HW310479   3.660   3.166   4.159  0.7028 -0.1629  2.0835
    1SOL    MW410480   3.594   3.214   4.190  0.2871  0.5906  0.0796
    1SOL     OW10481   1.176   2.488   4.536 -0.0920 -0.2424 -0.2307
    1SOL    HW210482   1.243   2.495   4.603  1.0478 -0.3801 -1.3262
    1SOL    HW310483   1.222   2.506   4.454 -1.5615  0.4861 -0.9247
    1SOL    MW410484   1.191   2.492   4.534 -0.1355 -0.1643 -0.4663
    1SOL     OW10485   4.106   3.222   4.524 -0.1247 -0.2854  0.0897
    1SOL    HW210486   4.058   3.148   4.559  0.5653 -0.4903  0.6206
    1SOL    HW310487   4.080   3.227   4.432  2.1072 -3.1149 -0.7817
    1SOL    MW410488   4.096   3.213   4.516  0.2604 -0.6859  0.0448
    1SOL     OW10489   1.336   3.466   4.101  0.3785 -0.2161 -0.5507
    1SOL    HW210490   1.314   3.490   4.011 -0.8717  0.4542 -0.0739
    1SOL    HW310491   1.353   3.372   4.097  0.2311 -0.2120 -1.4568
    1SOL    MW410492   1.336   3.457   4.089  0.1941 -0.1273 -0.6070
    1SOL     OW10493   3.113   4.316   4.151  0.1893  0.0752 -0.0414
    1SOL    HW210494   3.131   4.224   4.169  1.0364  0.2301 -0.0632
    1SOL    HW310495   3.186   4.363   4.192 -0.9307  0.8351  1.1348
    1SOL    MW410496   3.125   4.310   4.159  0.1531  0.1960  0.1111
    1SOL     OW10497   0.239   1.282   4.536  0.1499 -0.3551  0.2828
    1SOL    HW210498   0.239   1.289   4.441  0.6315 -0.0592  0.3003
    1SOL    HW310499   0.157   1.322   4.564  0.5254  0.5970  0.0577
    1SOL    MW410500   0.228   1.288   4.527  0.2630 -0.1904  0.2556
    1SOL     OW10501   4.042   4.214   4.636  0.1050  0.1415 -0.3841
    1SOL    HW210502   4.039   4.300   4.678  0.1725  0.0328 -0.1547
    1SOL    HW310503   3.952   4.183   4.639  0.0666  0.2367 -0.5373
    1SOL    MW410504   4.030   4.222   4.642  0.1087  0.1397 -0.3734
    1SOL     OW10505   4.479   2.553   4.732 -0.2856 -0.0206  0.2675
    1SOL    HW210506   4.452   2.461   4.736 -0.0315 -0.0686  0.9033
    1SOL    HW310507   4.564   2.551   4.688  0.1130 -0.1721  1.0471
    1SOL    MW410508   4.486   2.541   4.727 -0.2003 -0.0470  0.4544
    1SOL     OW10509   3.131   0.117   4.533 -0.0819 -0.4811  0.1801
    1SOL    HW210510   3.135   0.198   4.585  0.8681 -2.2473  2.9338
    1SOL    HW310511   3.056   0.070   4.567 -1.1373 -0.4130 -2.0015
    1SOL    MW410512   3.122   0.122   4.544 -0.0958 -0.7051  0.2551
    1SOL     OW10513   0.732   1.023   4.603  0.4970  0.2435 -0.3071
    1SOL    HW210514   0.655   0.978   4.567  0.3723 -0.1194  0.4015
    1SOL    HW310515   0.719   1.114   4.579 -0.0747  0.1594 -0.3460
    1SOL    MW410516   0.720   1.029   4.595  0.4051  0.1845 -0.2184
    1SOL     OW10517   4.174   0.260   4.636  0.0264 -0.5795 -0.0534
    1SOL    HW210518   4.186   0.341   4.588  0.5733 -0.0602  0.9578
    1SOL    HW310519   4.182   0.285   4.728  0.5649 -1.8378  0.2481
    1SOL    MW410520   4.176   0.274   4.641  0.1693 -0.6770  0.1206
    1SOL     OW10521   4.265   0.014   4.526  0.1324  0.0778 -0.2862
    1SOL    HW210522   4.359   0.019   4.545 -0.0376  1.3656  0.2907
    1SOL    HW310523   4.233   0.103   4.542 -1.1171 -0.2579 -0.8592
    1SOL    MW410524   4.274   0.026   4.531 -0.0553  0.2036 -0.2861
    1SOL     OW10525   4.019   1.157   4.172 -0.1202 -0.1016 -0.0988
    1SOL    HW210526   3.942   1.204   4.202  0.3711 -0.0457  1.0908
    1SOL    HW310527   4.023   1.079   4.227  0.6408 -0.1320 -0.1851
    1SOL    MW410528   4.009   1.153   4.183  0.0448 -0.0981  0.0467
    1SOL     OW10529   2.972   1.209   4.698 -0.4786  0.1128 -0.1091
    1SOL    HW210530   2.962   1.178   4.788 -0.1523 -1.3938 -0.5758
    1SOL    HW310531   2.899   1.169   4.651  0.2969 -0.4241 -0.8496
    1SOL    MW410532   2.961   1.200   4.704 -0.3333 -0.1569 -0.2685
    1SOL     OW10533   1.090   1.106   4.643  0.1040  0.1381 -0.2646
    1SOL    HW210534   1.043   1.059   4.575 -0.8648  0.2007  0.3592
    1SOL    HW310535   1.109   1.192   4.604  0.7491 -0.3038 -0.9374
    1SOL    MW410536   1.086   1.111   4.629  0.0614  0.0881 -0.2708
    1SOL     OW10537   2.009   0.807   4.651  0.4110  0.1589  0.0219
    1SOL    HW210538   2.036   0.717   4.628 -0.2450  0.2925 -1.3304
    1SOL    HW310539   2.076   0.862   4.611  0.0670  0.3278 -0.3257
    1SOL    MW410540   2.022   0.802   4.642  0.2792  0.1988 -0.2027
    1SOL     OW10541   1.046   4.300   4.566  0.1246  0.0039 -0.3567
    1SOL    HW210542   1.111   4.370   4.568  1.0020 -0.7021 -2.4933
    1SOL    HW310543   0.964   4.343   4.588  0.7303  1.6336 -1.1695
    1SOL    MW410544   1.044   4.315   4.569  0.3202  0.1259 -0.7458
    1SOL     OW10545   3.776   0.566   4.211  0.3720  0.4117 -0.2910
    1SOL    HW210546   3.796   0.652   4.172  0.1509  0.6343  0.0864
    1SOL    HW310547   3.826   0.565   4.292 -0.0551  0.4019 -0.0288
    1SOL    MW410548   3.785   0.577   4.216  0.2863  0.4397 -0.2069
    1SOL     OW10549   3.939   2.086   4.046 -0.4541 -0.0120  0.2402
    1SOL    HW210550   3.850   2.055   4.058 -0.7312  0.1312 -1.3657
    1SOL    HW310551   3.930   2.172   4.005  0.4131 -0.6858 -1.4417
    1SOL    MW410552   3.926   2.093   4.042 -0.3765 -0.0820 -0.1931
    1SOL     OW10553   4.000   3.445   4.121  0.5798 -0.5674  0.1061
    1SOL    HW210554   3.998   3.456   4.025  0.3711 -1.7233 -0.0206
    1SOL    HW310555   4.064   3.511   4.150  0.5916 -0.1509 -0.8195
    1SOL    MW410556   4.008   3.455   4.112  0.5541 -0.6645 -0.0329
    1SOL     OW10557   3.892   2.417   4.189 -0.6093 -0.1621  0.1521
    1SOL    HW210558   3.814   2.457   4.152 -0.3057  0.3153  0.0194
    1SOL    HW310559   3.861   2.335   4.229 -0.9202 -0.7279 -1.2297
    1SOL    MW410560   3.878   2.411   4.190 -0.6101 -0.1738 -0.0482
    1SOL     OW10561   1.326   3.369   4.566  0.4189  0.3113  0.1022
    1SOL    HW210562   1.239   3.379   4.527  0.3205 -0.8218  0.0130
    1SOL    HW310563   1.382   3.427   4.515  0.3500 -1.3317 -1.8971
    1SOL    MW410564   1.322   3.378   4.554  0.3967 -0.0548 -0.1736
    1SOL     OW10565   3.358   0.472   4.547  0.0903 -0.3178 -0.0596
    1SOL    HW210566   3.417   0.397   4.544 -0.2983 -0.6428  0.3771
    1SOL    HW310567   3.404   0.537   4.600  1.1296  0.3733 -1.7613
    1SOL    MW410568   3.372   0.471   4.553  0.1760 -0.2695 -0.2265
    1SOL     OW10569   3.789   3.623   4.237 -0.2791  0.1347  0.5171
    1SOL    HW210570   3.712   3.589   4.189 -1.9413 -0.4942  3.5204
    1SOL    HW310571   3.862   3.570   4.204 -0.8197  1.6794 -3.4176
    1SOL    MW410572   3.788   3.611   4.226 -0.5698  0.2558  0.3943
    1SOL     OW10573   2.041   1.498   4.068 -0.2973  0.5911  0.5188
    1SOL    HW210574   2.020   1.526   3.979  0.6569  0.2502  0.1807
    1SOL    HW310575   2.045   1.579   4.119  0.6391  0.9188 -0.0684
    1SOL    MW410576   2.038   1.512   4.063 -0.0477  0.5895  0.3972
    1SOL     OW10577   4.191   3.611   4.251 -0.0407  0.3035 -0.2092
    1SOL    HW210578   4.279   3.575   4.248  0.3021  1.1739 -0.5582
    1SOL    HW310579   4.179   3.638   4.342 -0.9056 -2.1832  0.4482
    1SOL    MW410580   4.201   3.610   4.263 -0.1097  0.0904 -0.1688
    1SOL     OW10581   0.405   4.015   4.306  0.2148 -0.0849  0.0716
    1SOL    HW210582   0.418   4.085   4.244 -0.1775  1.3260  1.5444
    1SOL    HW310583   0.491   3.972   4.313  0.7245  0.9043 -0.0644
    1SOL    MW410584   0.418   4.018   4.299  0.2303  0.2317  0.2475
    1SOL     OW10585   1.135   0.063   4.388 -0.3383 -0.1945 -0.6699
    1SOL    HW210586   1.050   0.051   4.429 -0.4158  0.0155 -0.7697
    1SOL    HW310587   1.129   0.015   4.305 -0.3947 -0.0897 -0.7263
    1SOL    MW410588   1.123   0.055   4.382 -0.3558 -0.1530 -0.6900
    1SOL     OW10589   3.800   3.918   4.120  0.3210 -0.1827  0.0810
    1SOL    HW210590   3.882   3.956   4.151 -0.3532 -0.0773  1.8176
    1SOL    HW310591   3.793   3.836   4.170 -0.1530 -0.6578 -0.7661
    1SOL    MW410592   3.810   3.912   4.131  0.1693 -0.2315  0.1984
    1SOL     OW10593   2.904   4.616   4.626  0.5418 -0.2648 -0.3415
    1SOL    HW210594   2.860   4.642   4.707  1.3239  0.8548 -0.2660
    1SOL    HW310595   2.861   4.534   4.601 -0.2807 -0.1823  0.7475
    1SOL    MW410596   2.892   4.609   4.633  0.5367 -0.1063 -0.1879
    1SOL     OW10597   3.972   2.987   4.566 -0.6316 -0.2750  0.2075
    1SOL    HW210598   3.992   2.957   4.478 -0.8066 -0.0701  0.0968
    1SOL    HW310599   3.986   2.910   4.622 -2.6867 -1.0373 -0.2787
    1SOL    MW410600   3.976   2.973   4.562 -0.9255 -0.3486  0.1287
    1SOL     OW10601   1.951   1.732   4.755 -0.1868 -0.1429 -0.0355
    1SOL    HW210602   2.013   1.801   4.729  0.4977  0.0907  2.1062
    1SOL    HW310603   1.868   1.779   4.769 -0.1145  0.0051 -0.0995
    1SOL    MW410604   1.948   1.748   4.754 -0.0868 -0.0926  0.2389
    1SOL     OW10605   4.200   2.062   4.149 -0.2036  0.2615  0.0404
    1SOL    HW210606   4.112   2.069   4.112  0.0319  0.3185 -0.5185
    1SOL    HW310607   4.186   2.052   4.243 -0.8216 -0.2424 -0.1005
    1SOL    MW410608   4.187   2.062   4.156 -0.2537  0.2024 -0.0515
    1SOL     OW10609   4.017   0.145   4.224 -0.3559  0.0059  0.0474
    1SOL    HW210610   4.017   0.135   4.319 -0.2805  0.3748  0.0856
    1SOL    HW310611   3.937   0.100   4.195 -0.7204  0.4746  0.3415
    1SOL    MW410612   4.006   0.137   4.233 -0.3939  0.1164  0.0906
    1SOL     OW10613   0.665   2.615   4.514 -0.3141  0.3618  0.2256
    1SOL    HW210614   0.747   2.573   4.537 -0.7413 -0.5246  0.1451
    1SOL    HW310615   0.660   2.607   4.419 -0.5229  0.3624  0.2371
    1SOL    MW410616   0.675   2.609   4.504 -0.3980  0.2446  0.2170
    1SOL     OW10617   1.776   0.910   4.528 -0.0891  0.2124 -0.3295
    1SOL    HW210618   1.859   0.881   4.566 -0.3771  0.2624  0.3274
    1SOL    HW310619   1.753   0.989   4.576 -0.3540  0.3861 -0.7348
    1SOL    MW410620   1.784   0.917   4.539 -0.1620  0.2419 -0.2966
    1SOL     OW10621   1.786   3.034   4.581 -0.1831 -0.2177  0.0322
    1SOL    HW210622   1.806   2.971   4.650 -0.8930 -0.4245  0.0554
    1SOL    HW310623   1.867   3.041   4.531 -0.2527 -1.5468 -0.2864
    1SOL    MW410624   1.800   3.026   4.584 -0.2860 -0.4203 -0.0067
    1SOL     OW10625   0.220   1.572   4.180  0.3904  0.0853 -0.4609
    1SOL    HW210626   0.148   1.629   4.207 -0.3469 -1.0444  0.0085
    1SOL    HW310627   0.299   1.623   4.197 -0.1459  0.1428  2.0648
    1SOL    MW410628   0.221   1.586   4.186  0.2224 -0.0561 -0.0658
    1SOL     OW10629   4.001   3.944   4.502  0.0777  0.0955 -0.3430
    1SOL    HW210630   4.059   4.001   4.553 -0.0579 -0.1145  0.0443
    1SOL    HW310631   4.044   3.859   4.503  1.2451  0.6240 -2.5089
    1SOL    MW410632   4.014   3.940   4.509  0.2141  0.1376 -0.5779
    1SOL     OW10633   0.232   1.805   4.796  0.2180 -0.1620 -0.2758
    1SOL    HW210634   0.265   1.717   4.814  1.5515  0.2950 -0.3828
    1SOL    HW310635   0.307   1.850   4.756 -1.0638  0.4084 -2.0878
    1SOL    MW410636   0.246   1.799   4.793  0.2248 -0.0266 -0.5293
    1SOL     OW10637   0.673   1.287   4.505  0.1531 -0.1182 -0.2718
    1SOL    HW210638   0.754   1.324   4.539  0.0368 -1.7294  1.9069
    1SOL    HW310639   0.604   1.336   4.551 -0.1000  0.5570 -1.3610
    1SOL    MW410640   0.674   1.298   4.516  0.1044 -0.2416 -0.1283
    1SOL     OW10641   4.467   1.953   4.116 -0.1958 -0.3083 -0.4595
    1SOL    HW210642   4.473   1.879   4.176 -0.2056 -0.0580 -0.1462
    1SOL    HW310643   4.378   1.986   4.126  0.5267  1.2531  1.2259
    1SOL    MW410644   4.456   1.948   4.125 -0.1020 -0.0693 -0.1955
    1SOL     OW10645   2.272   3.380   4.525 -0.4219 -0.0354  0.7060
    1SOL    HW210646   2.183   3.415   4.520 -0.4206 -0.0414  0.6334
    1SOL    HW310647   2.283   3.355   4.617 -0.3101  0.4485  0.8225
    1SOL    MW410648   2.261   3.381   4.536 -0.4070  0.0274  0.7119
    1SOL     OW10649   3.448   0.616   4.788 -0.7203  0.2384 -0.1376
    1SOL    HW210650   3.432   0.697   4.739 -1.5631 -0.5334 -1.1376
    1SOL    HW310651   3.433   0.641   4.879 -0.0633  1.4431 -0.3457
    1SOL    MW410652   3.444   0.630   4.794 -0.7448  0.2955 -0.2971
    1SOL     OW10653   0.394   3.494   4.137 -0.3504  0.1149 -0.0952
    1SOL    HW210654   0.476   3.531   4.167 -0.8337  1.4533 -0.3801
    1SOL    HW310655   0.403   3.489   4.042 -0.3450 -0.3449 -0.0695
    1SOL    MW410656   0.406   3.498   4.128 -0.4135  0.2308 -0.1292
    1SOL     OW10657   3.014   1.952   4.494  0.2842 -0.4562 -0.1169
    1SOL    HW210658   2.987   1.976   4.405  1.3292  0.6372 -0.1604
    1SOL    HW310659   3.072   2.024   4.521 -0.8963 -0.2115  1.8592
    1SOL    MW410660   3.018   1.965   4.485  0.2663 -0.2797  0.1383
    1SOL     OW10661   0.470   0.923   4.528  0.2879 -0.1898  0.0044
    1SOL    HW210662   0.463   0.959   4.440  0.9497  0.0650  0.0522
    1SOL    HW310663   0.393   0.956   4.574 -0.6789 -1.2838 -0.8108
    1SOL    MW410664   0.459   0.932   4.522  0.2477 -0.3005 -0.0963
    1SOL     OW10665   3.372   0.839   4.636 -0.3991  0.1317  0.2481
    1SOL    HW210666   3.457   0.878   4.613 -0.6680  0.9496  0.6471
    1SOL    HW310667   3.310   0.911   4.631 -0.9548 -0.3158  0.6589
    1SOL    MW410668   3.375   0.854   4.632 -0.5081  0.1805  0.3552
    1SOL     OW10669   0.461   1.426   4.627 -0.4844 -0.2199 -0.0630
    1SOL    HW210670   0.374   1.396   4.600  0.0335 -0.9235 -0.9739
    1SOL    HW310671   0.470   1.512   4.587 -0.5975 -0.3190 -0.3005
    1SOL    MW410672   0.451   1.433   4.618 -0.4310 -0.3257 -0.2146
    1SOL     OW10673   0.217   3.897   4.137 -0.2576  0.5161  0.5447
    1SOL    HW210674   0.276   3.942   4.197 -0.9320 -0.2422  1.7936
    1SOL    HW310675   0.129   3.922   4.166 -0.6055 -0.2211  0.1548
    1SOL    MW410676   0.213   3.906   4.149 -0.3925  0.3188  0.6580
    1SOL     OW10677   2.408   0.825   4.649 -0.2913  0.5305 -0.0059
    1SOL    HW210678   2.421   0.853   4.739 -1.2712 -1.2377  0.7130
    1SOL    HW310679   2.328   0.869   4.621  0.4112  1.6597 -0.2789
    1SOL    MW410680   2.399   0.834   4.657 -0.3276  0.4461  0.0529
    1SOL     OW10681   1.392   3.918   4.419 -0.0818 -0.2353  0.0025
    1SOL    HW210682   1.328   3.854   4.450 -0.9652 -0.1048 -1.4837
    1SOL    HW310683   1.477   3.883   4.446 -0.7742 -0.3346  2.1361
    1SOL    MW410684   1.395   3.905   4.427 -0.2899 -0.2313  0.0887
    1SOL     OW10685   4.118   3.691   4.522 -0.2876 -0.6458  0.2047
    1SOL    HW210686   4.210   3.705   4.546  0.3409 -1.1552 -1.8214
    1SOL    HW310687   4.091   3.614   4.572  0.4225 -0.5594  0.7205
    1SOL    MW410688   4.126   3.683   4.532 -0.1111 -0.7017  0.0052
    1SOL     OW10689   0.735   0.238   4.557 -0.6184  0.0534 -0.0810
    1SOL    HW210690   0.644   0.210   4.566 -0.5901  0.1558  0.4890
    1SOL    HW310691   0.739   0.277   4.469 -0.7910 -1.2123 -0.6757
    1SOL    MW410692   0.724   0.239   4.546 -0.6375 -0.1001 -0.0844
    1SOL     OW10693   0.851   1.183   4.807 -0.3708  0.2380 -0.0260
    1SOL    HW210694   0.945   1.170   4.797 -0.2775  0.2058  0.8040
    1SOL    HW310695   0.811   1.111   4.759  0.0589 -0.4655  0.6527
    1SOL    MW410696   0.858   1.172   4.800 -0.3017  0.1409  0.1731
    1SOL     OW10697   4.278   1.560   4.164  0.2400 -0.1075  0.0152
    1SOL    HW210698   4.259   1.474   4.200  1.1982 -0.0800  0.5750
    1SOL    HW310699   4.291   1.544   4.070 -0.0658 -0.4879  0.0322
    1SOL    MW410700   4.277   1.547   4.156  0.3257 -0.1540  0.0911
    1SOL     OW10701   2.676   1.270   4.348 -0.4603  0.4575  0.1050
    1SOL    HW210702   2.640   1.220   4.275 -0.8004  0.4328  0.2854
    1SOL    HW310703   2.617   1.346   4.356 -0.8245  0.1121  0.7784
    1SOL    MW410704   2.663   1.274   4.339 -0.5529  0.4088  0.2179
    1SOL     OW10705   3.974   2.866   4.303  0.1881  0.5956  0.2214
    1SOL    HW210706   3.897   2.911   4.268  0.1016 -0.7281 -1.3122
    1SOL    HW310707   3.946   2.776   4.317  0.7240  0.6999  2.1206
    1SOL    MW410708   3.961   2.860   4.301  0.2475  0.4349  0.2694
    1SOL     OW10709   3.525   2.072   4.485  0.0116 -0.0154 -0.6366
    1SOL    HW210710   3.574   2.133   4.540  0.2689 -0.1788 -0.6799
    1SOL    HW310711   3.434   2.088   4.506  0.1149 -0.1995 -0.0227
    1SOL    MW410712   3.520   2.082   4.495  0.0594 -0.0610 -0.5608
    1SOL     OW10713   4.309   1.572   4.633 -0.3253 -0.6595 -0.5657
    1SOL    HW210714   4.343   1.650   4.589 -0.2620 -1.0930 -1.2912
    1SOL    HW310715   4.309   1.595   4.726  0.3901 -0.0680 -0.7102
    1SOL    MW410716   4.313   1.585   4.639 -0.2227 -0.6385 -0.6804
    1SOL     OW10717   1.979   4.381   4.269  0.0729  0.4932 -0.1870
    1SOL    HW210718   1.956   4.472   4.251  0.0560  0.6058  0.4170
    1SOL    HW310719   2.062   4.368   4.222  1.7511  1.7578  2.3329
    1SOL    MW410720   1.987   4.391   4.260  0.2921  0.6747  0.2251
    1SOL     OW10721   2.769   4.386   4.548  0.6037 -0.2559  0.8002
    1SOL    HW210722   2.818   4.378   4.466  0.9190 -0.2231  0.9830
    1SOL    HW310723   2.678   4.393   4.521  0.7012 -0.3062  0.4541
    1SOL    MW410724   2.764   4.386   4.534  0.6583 -0.2584  0.7792
    1SOL     OW10725   2.332   1.884   4.535 -0.0376  0.2873 -0.5032
    1SOL    HW210726   2.328   1.957   4.472 -1.3497  2.3723  1.8938
    1SOL    HW310727   2.256   1.898   4.591  0.8038 -1.8467  1.2040
    1SOL    MW410728   2.322   1.896   4.534 -0.0994  0.2807  0.0381
    1SOL     OW10729   1.364   0.372   4.598 -0.4075 -0.2808 -0.0572
    1SOL    HW210730   1.306   0.358   4.524 -2.2690 -0.1677  1.3448
    1SOL    HW310731   1.322   0.442   4.649  1.2298  0.1833  0.7049
    1SOL    MW410732   1.351   0.380   4.595 -0.4370 -0.2046  0.2279
    1SOL     OW10733   0.252   1.029   4.673 -0.5412  0.4961 -0.1903
    1SOL    HW210734   0.305   1.049   4.750  0.6733 -1.8895 -0.3763
    1SOL    HW310735   0.241   1.113   4.629 -0.0967  1.6457  1.8539
    1SOL    MW410736   0.257   1.043   4.678 -0.3223  0.3331  0.0548
    1SOL     OW10737   0.547   0.577   4.287 -0.1579 -0.0163 -1.1340
    1SOL    HW210738   0.503   0.624   4.358  1.4662  0.8858 -0.6896
    1SOL    HW310739   0.564   0.645   4.221  0.1780 -0.4244 -1.4728
    1SOL    MW410740   0.544   0.592   4.287  0.1007  0.0489 -1.1206
    1SOL     OW10741   0.895   2.462   4.504  0.6215 -0.2995 -0.2890
    1SOL    HW210742   0.902   2.460   4.408 -0.5375  0.3831 -0.3947
    1SOL    HW310743   0.985   2.475   4.534  0.6747  2.0825 -1.3733
    1SOL    MW410744   0.908   2.464   4.495  0.4756  0.1051 -0.4458
    1SOL     OW10745   1.122   3.609   4.243 -0.0220 -0.5142  0.0257
    1SOL    HW210746   1.198   3.557   4.214  0.8301 -0.1526  1.5364
    1SOL    HW310747   1.048   3.574   4.193  0.7995 -2.1936 -0.0429
    1SOL    MW410748   1.123   3.598   4.233  0.1987 -0.6883  0.2160
    1SOL     OW10749   3.154   3.178   4.275  0.2057 -0.1650  0.4269
    1SOL    HW210750   3.157   3.268   4.242  0.1187 -0.0235  0.7969
    1SOL    HW310751   3.144   3.188   4.370  2.2371 -0.5591  0.6991
    1SOL    MW410752   3.153   3.192   4.283  0.4623 -0.1984  0.5116
    1SOL     OW10753   3.291   2.436   4.477 -0.2803 -0.5658 -0.4284
    1SOL    HW210754   3.383   2.462   4.476 -0.6472  0.7985 -1.0621
    1SOL    HW310755   3.247   2.510   4.520 -1.0021 -1.4844  0.4180
    1SOL    MW410756   3.297   2.449   4.483 -0.4241 -0.5069 -0.4005
    1SOL     OW10757   0.667   1.315   4.219  0.8176 -0.2941 -0.2632
    1SOL    HW210758   0.663   1.300   4.313  0.2597 -0.0686 -0.2521
    1SOL    HW310759   0.589   1.274   4.184  0.0289  1.2839 -0.3992
    1SOL    MW410760   0.656   1.308   4.227  0.6399 -0.0561 -0.2799
    1SOL     OW10761   1.533   2.109   4.239  0.8850  0.0392  0.6583
    1SOL    HW210762   1.612   2.072   4.199 -0.5024 -2.9341  0.4776
    1SOL    HW310763   1.537   2.081   4.331 -1.0910 -2.3022  0.1054
    1SOL    MW410764   1.544   2.100   4.246  0.4412 -0.6618  0.5612
    1SOL     OW10765   1.369   3.118   4.428  0.3543  0.4235  0.0341
    1SOL    HW210766   1.303   3.059   4.465  0.6027  0.3303  0.3315
    1SOL    HW310767   1.372   3.192   4.489  0.7503  0.2774  0.2018
    1SOL    MW410768   1.361   3.120   4.441  0.4393  0.3920  0.0958
    1SOL     OW10769   0.664   3.714   4.619  0.2807 -0.5241 -0.1401
    1SOL    HW210770   0.674   3.807   4.600  0.1516 -0.6908 -1.0026
    1SOL    HW310771   0.753   3.686   4.643  0.1540  0.0145  1.0081
    1SOL    MW410772   0.677   3.723   4.620  0.2469 -0.4749 -0.1025
    1SOL     OW10773   4.443   3.518   4.197  0.5117 -0.2388 -0.4489
    1SOL    HW210774   4.508   3.559   4.254  0.6519 -1.1452  0.0621
    1SOL    HW310775   4.478   3.531   4.108  0.2777  1.1902 -0.3420
    1SOL    MW410776   4.457   3.525   4.193  0.4997 -0.1700 -0.3676
    1SOL     OW10777   3.253   2.142   4.500 -0.0207  0.1440  0.1136
    1SOL    HW210778   3.265   2.235   4.518  3.4279 -0.1278 -0.4076
    1SOL    HW310779   3.281   2.131   4.410  0.4664 -1.5423  0.4548
    1SOL    MW410780   3.258   2.153   4.491  0.4983 -0.1144  0.0896
    1SOL     OW10781   0.021   4.016   4.553 -0.3087 -0.4311  0.3259
    1SOL    HW210782   0.030   4.110   4.565 -0.0046 -0.5599  1.1387
    1SOL    HW310783   0.007   4.005   4.459 -0.0577  0.4043  0.1862
    1SOL    MW410784   0.021   4.027   4.542 -0.2354 -0.3376  0.4144
    1SOL     OW10785   2.729   3.396   4.483 -0.0915 -0.3467  0.1762
    1SOL    HW210786   2.712   3.304   4.504  0.8685 -0.3817  0.8654
    1SOL    HW310787   2.817   3.412   4.518 -1.1677  1.4864  2.1642
    1SOL    MW410788   2.739   3.386   4.490 -0.1068 -0.1097  0.5288
    1SOL     OW10789   0.008   0.933   4.554 -0.2161 -0.6931  0.3261
    1SOL    HW210790   0.075   0.964   4.616 -0.6194  1.0023 -0.0814
    1SOL    HW310791  -0.054   1.005   4.548 -1.0828 -1.5288 -0.7665
    1SOL    MW410792   0.009   0.947   4.562 -0.3837 -0.5797  0.1283
    1SOL     OW10793   2.252   1.340   4.366 -0.3367  0.2604  0.1681
    1SOL    HW210794   2.257   1.435   4.373 -0.2279  0.3366 -0.9855
    1SOL    HW310795   2.258   1.310   4.457 -1.4722  1.4015  0.6377
    1SOL    MW410796   2.253   1.348   4.379 -0.4723  0.4208  0.0777
    1SOL     OW10797   1.558   3.605   4.214 -0.3415  0.3303  0.4410
    1SOL    HW210798   1.496   3.556   4.161 -0.7083  0.6351  0.5882
    1SOL    HW310799   1.550   3.566   4.302  2.2781 -2.0933 -0.2920
    1SOL    MW410800   1.549   3.593   4.219 -0.0443  0.0508  0.3638
    1SOL     OW10801   3.154   4.054   4.192 -0.4058  0.4633 -0.1790
    1SOL    HW210802   3.232   4.005   4.164 -0.8084 -0.4836  0.3601
    1SOL    HW310803   3.164   4.062   4.287 -0.3573  1.4137 -0.2555
    1SOL    MW410804   3.166   4.049   4.201 -0.4528  0.4635 -0.1183
    1SOL     OW10805   0.221   2.049   4.191  0.2408 -0.1985  0.6451
    1SOL    HW210806   0.138   2.018   4.153 -0.1440 -0.3750  1.6360
    1SOL    HW310807   0.288   1.998   4.145  0.0122  1.9989 -2.2730
    1SOL    MW410808   0.218   2.038   4.180  0.1599  0.0679  0.3915
    1SOL     OW10809   1.851   1.986   4.527  0.5953 -0.6468 -0.1301
    1SOL    HW210810   1.865   2.073   4.491 -2.6903  0.2169  0.5691
    1SOL    HW310811   1.832   1.931   4.451 -0.1123 -0.1536 -0.3125
    1SOL    MW410812   1.851   1.990   4.512  0.0685 -0.4678 -0.0625
    1SOL     OW10813   3.014   3.452   4.508  0.2785 -0.2728  0.1560
    1SOL    HW210814   3.085   3.514   4.497 -0.2543  0.1972 -0.6772
    1SOL    HW310815   3.057   3.367   4.511  0.9056  0.0320 -0.0166
    1SOL    MW410816   3.029   3.449   4.507  0.2909 -0.1705  0.0238
    1SOL     OW10817   0.606   3.475   4.485  0.0304 -0.1873  0.0974
    1SOL    HW210818   0.602   3.524   4.403 -1.1329  1.4480  1.1004
    1SOL    HW310819   0.612   3.542   4.553  2.3518 -1.5564  1.2951
    1SOL    MW410820   0.606   3.490   4.483  0.1832 -0.1521  0.3877
    1SOL     OW10821   1.807   3.246   4.244 -0.2528 -0.0762  0.0437
    1SOL    HW210822   1.749   3.192   4.191  0.2041  0.6871 -1.2455
    1SOL    HW310823   1.799   3.334   4.207  0.6142  0.3269  0.7905
    1SOL    MW410824   1.798   3.251   4.232 -0.0782  0.0777 -0.0281
    1SOL     OW10825   2.942   2.309   4.179  0.0298 -0.5415  0.5122
    1SOL    HW210826   2.860   2.319   4.227 -0.2954 -2.0238  0.2921
    1SOL    HW310827   2.920   2.334   4.089 -0.4318 -1.8076  0.2562
    1SOL    MW410828   2.928   2.314   4.174 -0.0739 -0.9041  0.4497
    1SOL     OW10829   2.735   3.908   4.462 -0.0442 -0.0522 -0.2701
    1SOL    HW210830   2.653   3.892   4.510 -0.2765  1.1828 -0.2372
    1SOL    HW310831   2.796   3.842   4.495 -0.6634 -0.1922  0.5979
    1SOL    MW410832   2.732   3.897   4.473 -0.1564  0.0920 -0.1516
    1SOL     OW10833   1.244   4.514   4.543 -0.1679 -0.3683 -0.1006
    1SOL    HW210834   1.206   4.589   4.498  0.3702  1.3880  2.2698
    1SOL    HW310835   1.327   4.498   4.497  0.0704  0.9828 -0.1524
    1SOL    MW410836   1.250   4.522   4.531 -0.0654  0.0420  0.2055
    1SOL     OW10837   4.384   2.276   4.691  0.0778  0.1404  0.0648
    1SOL    HW210838   4.430   2.194   4.706  0.1075 -0.0837 -1.2340
    1SOL    HW310839   4.429   2.316   4.616 -2.0656 -0.2634 -1.4909
    1SOL    MW410840   4.396   2.271   4.683 -0.2012  0.0577 -0.3119
    1SOL     OW10841   3.484   3.018   4.701 -0.3513 -0.0327 -0.1666
    1SOL    HW210842   3.548   2.994   4.634 -0.8786 -4.5528  0.7581
    1SOL    HW310843   3.532   3.009   4.784 -1.1005  0.4453  0.3256
    1SOL    MW410844   3.499   3.014   4.703 -0.5195 -0.5662  0.0196
    1SOL     OW10845   1.479   1.988   4.491  0.5623 -0.3645  0.3023
    1SOL    HW210846   1.468   2.029   4.577  0.5251  2.0475 -0.8096
    1SOL    HW310847   1.393   1.950   4.472 -0.2432  1.4646  0.1662
    1SOL    MW410848   1.466   1.988   4.500  0.4511  0.1950  0.1378
    1SOL     OW10849   1.776   1.159   4.187 -0.1015 -0.5604  0.1868
    1SOL    HW210850   1.785   1.065   4.205  0.0488 -1.0683 -2.3884
    1SOL    HW310851   1.853   1.199   4.227  0.9447 -1.8099 -0.5486
    1SOL    MW410852   1.787   1.152   4.195  0.0563 -0.7924 -0.2494
    1SOL     OW10853   3.793   3.524   4.516  0.1990  0.3569  0.1685
    1SOL    HW210854   3.819   3.574   4.439  1.9284 -0.1381  0.3991
    1SOL    HW310855   3.873   3.519   4.569 -0.4394 -1.0529  1.0201
    1SOL    MW410856   3.807   3.530   4.513  0.3428  0.1056  0.3109
    1SOL     OW10857   0.954   0.910   4.492 -0.2820 -0.1658 -0.2858
    1SOL    HW210858   0.872   0.942   4.531  0.9049  0.8636  1.4207
    1SOL    HW310859   0.948   0.815   4.500 -0.5919 -0.0245  1.3738
    1SOL    MW410860   0.942   0.902   4.498 -0.1663 -0.0113  0.1578
    1SOL     OW10861   2.263   2.887   4.594  0.1635 -0.0193  0.2644
    1SOL    HW210862   2.206   2.830   4.646  1.1769 -1.3224 -0.0159
    1SOL    HW310863   2.322   2.827   4.549 -0.9820  1.0484 -2.7991
    1SOL    MW410864   2.263   2.872   4.595  0.1459 -0.0503 -0.1769
    1SOL     OW10865   3.455   1.496   4.539  0.1728 -0.3208 -0.3290
    1SOL    HW210866   3.376   1.550   4.536  1.5796  1.8562  0.6157
    1SOL    HW310867   3.422   1.406   4.539 -2.4203  0.5457  2.1645
    1SOL    MW410868   3.440   1.491   4.539  0.0162  0.0808  0.1245
    1SOL     OW10869   1.540   2.370   4.173 -0.0946 -0.0929  0.1939
    1SOL    HW210870   1.624   2.396   4.211 -1.5572  2.9670  1.5181
    1SOL    HW310871   1.532   2.277   4.195  1.9405  0.1000  2.0022
    1SOL    MW410872   1.550   2.362   4.181 -0.0191  0.3366  0.6070
    1SOL     OW10873   0.709   1.432   4.794  0.8291  0.3142  0.1729
    1SOL    HW210874   0.619   1.415   4.767  0.1852  0.5528  2.1256
    1SOL    HW310875   0.747   1.345   4.807  0.3012  0.2196  1.1702
    1SOL    MW410876   0.702   1.418   4.792  0.6745  0.3332  0.5622
    1SOL     OW10877   3.980   0.105   4.493 -0.2885 -0.2141 -0.3312
    1SOL    HW210878   4.042   0.144   4.554  0.1523 -1.0682 -0.2151
    1SOL    HW310879   3.959   0.020   4.531 -1.2012 -0.1073 -0.5919
    1SOL    MW410880   3.986   0.099   4.506 -0.3510 -0.3127 -0.3505
    1SOL     OW10881   2.066   3.020   4.445 -0.7790  0.0697  0.2089
    1SOL    HW210882   2.058   2.982   4.358 -0.1743  0.5378 -0.0529
    1SOL    HW310883   2.128   2.963   4.490 -1.1505 -0.2165  0.3587
    1SOL    MW410884   2.073   3.007   4.440 -0.7484  0.0937  0.1941
    1SOL     OW10885   4.242   3.870   4.146 -0.0747  0.3177  0.4349
    1SOL    HW210886   4.238   3.776   4.161 -1.2302 -0.0923 -2.1402
    1SOL    HW310887   4.262   3.879   4.053  0.2949  2.6296  0.6951
    1SOL    MW410888   4.244   3.859   4.136 -0.1774  0.5686  0.1292
    1SOL     OW10889   0.495   2.126   4.472 -0.1551 -0.5849 -0.4288
    1SOL    HW210890   0.523   2.094   4.387 -0.0815 -0.7588 -0.3393
    1SOL    HW310891   0.577   2.150   4.517 -0.3097  1.4050 -1.1564
    1SOL    MW410892   0.510   2.125   4.467 -0.1658 -0.3450 -0.5126
    1SOL     OW10893   1.613   0.697   4.621 -0.3037  0.2242 -0.3062
    1SOL    HW210894   1.655   0.779   4.594  0.6217 -0.2344 -0.3184
    1SOL    HW310895   1.622   0.695   4.716 -1.5386  0.7762 -0.1808
    1SOL    MW410896   1.620   0.707   4.630 -0.3446  0.2365 -0.2913
    1SOL     OW10897   4.255   2.866   4.250  0.4794 -0.1044 -0.0808
    1SOL    HW210898   4.250   2.950   4.205  0.8904 -0.0216  0.0241
    1SOL    HW310899   4.166   2.849   4.281  0.4335  0.3771  0.0514
    1SOL    MW410900   4.242   2.875   4.248  0.5274 -0.0300 -0.0501
    1SOL     OW10901   0.275   4.641   4.151  0.2717  0.0963 -0.4824
    1SOL    HW210902   0.341   4.674   4.212 -2.4264  2.5359  1.1827
    1SOL    HW310903   0.257   4.552   4.181  2.6185 -0.5544 -0.8600
    1SOL    MW410904   0.282   4.633   4.163  0.2254  0.3324 -0.3133
    1SOL     OW10905   3.167   1.933   4.116 -0.1324  0.2341  0.0672
    1SOL    HW210906   3.081   1.962   4.147 -1.2098 -0.2641 -2.3202
    1SOL    HW310907   3.228   1.997   4.151 -1.8202  2.1925 -0.4612
    1SOL    MW410908   3.164   1.945   4.125 -0.4971  0.4267 -0.3176
    1SOL     OW10909   0.452   1.183   4.113  0.0793 -0.1364 -0.1191
    1SOL    HW210910   0.441   1.096   4.152  1.4186  0.0716  0.7773
    1SOL    HW310911   0.442   1.170   4.019 -1.4477 -0.9574  0.1373
    1SOL    MW410912   0.449   1.170   4.106  0.0545 -0.2173  0.0334
    1SOL     OW10913   2.281   3.177   4.354 -0.3418 -0.7475 -0.0441
    1SOL    HW210914   2.202   3.132   4.382 -0.0609 -0.7953  0.6732
    1SOL    HW310915   2.275   3.263   4.396 -0.3209 -0.5253 -0.4962
    1SOL    MW410916   2.270   3.183   4.363 -0.3021 -0.7246 -0.0091
    1SOL     OW10917   0.028   0.088   4.206 -0.4691 -0.0588 -0.5411
    1SOL    HW210918   0.112   0.054   4.175  0.2540  0.5251  0.7661
    1SOL    HW310919   0.026   0.179   4.177 -0.1943  0.2271  0.3579
    1SOL    MW410920   0.039   0.095   4.198 -0.3374  0.0559 -0.2494
    1SOL     OW10921   1.013   3.956   4.487 -0.3373  0.6489  0.1872
    1SOL    HW210922   1.038   3.989   4.573  0.5241  2.0282 -0.5881
    1SOL    HW310923   1.041   4.023   4.425  1.0729 -1.3281 -1.3814
    1SOL    MW410924   1.020   3.969   4.490 -0.0376  0.5701 -0.1225
    1SOL     OW10925   0.841   3.375   4.570  0.4581  0.2066  0.4129
    1SOL    HW210926   0.885   3.433   4.632  0.1600  0.3108  0.5279
    1SOL    HW310927   0.763   3.424   4.543  1.1067  0.5809 -0.8018
    1SOL    MW410928   0.836   3.389   4.574  0.5043  0.2697  0.2680
    1SOL     OW10929   2.238   1.275   4.624  0.0728  0.1109  0.5313
    1SOL    HW210930   2.322   1.300   4.663  0.4620  3.2166 -2.0621
    1SOL    HW310931   2.177   1.343   4.652 -1.0579 -0.8785  0.5180
    1SOL    MW410932   2.241   1.287   4.633 -0.0248  0.3901  0.1869
    1SOL     OW10933   2.206   0.988   4.567  0.5242 -0.5955  0.1305
    1SOL    HW210934   2.229   0.995   4.474 -1.2258 -0.6854 -0.3274
    1SOL    HW310935   2.214   1.077   4.601  0.0722 -0.3533 -0.3886
    1SOL    MW410936   2.210   1.000   4.559  0.2334 -0.5754  0.0019
    1SOL     OW10937   1.323   0.820   4.264  0.2379  0.1566  0.2505
    1SOL    HW210938   1.404   0.786   4.225  0.0682  0.1300 -0.0780
    1SOL    HW310939   1.327   0.914   4.249  0.3741  0.1949  0.5390
    1SOL    MW410940   1.334   0.828   4.257  0.2337  0.1581  0.2451
    1SOL     OW10941   3.940   1.234   4.595  0.3495 -0.1054 -0.0204
    1SOL    HW210942   3.850   1.204   4.606 -0.7080  2.5251 -1.0020
    1SOL    HW310943   3.992   1.154   4.594 -1.8523 -1.6189  1.5189
    1SOL    MW410944   3.935   1.219   4.596 -0.0803  0.0421  0.0534
    1SOL     OW10945   2.280   1.607   4.466 -0.4398 -0.3698 -0.8339
    1SOL    HW210946   2.314   1.691   4.495  1.8099 -1.9216  1.2367
    1SOL    HW310947   2.225   1.577   4.539 -0.1673 -1.2692 -0.9886
    1SOL    MW410948   2.277   1.614   4.480 -0.1070 -0.6933 -0.5808
    1SOL     OW10949   1.393   3.163   4.158  0.3915  0.1476  0.3887
    1SOL    HW210950   1.390   3.163   4.254 -1.5768  1.8975  0.3675
    1SOL    HW310951   1.308   3.130   4.131  1.1092 -0.7938 -0.7805
    1SOL    MW410952   1.381   3.159   4.167  0.2266  0.2542  0.2313
    1SOL     OW10953   1.149   2.365   4.174 -0.6952  0.3783  0.2472
    1SOL    HW210954   1.211   2.426   4.214  0.5734  0.3144 -1.5397
    1SOL    HW310955   1.165   2.281   4.218 -0.8884  0.8042  1.1419
    1SOL    MW410956   1.159   2.362   4.185 -0.5533  0.4261  0.1302
    1SOL     OW10957   4.474   1.363   4.597 -0.6201  0.4855  0.0690
    1SOL    HW210958   4.419   1.438   4.621 -1.5156 -0.1627  0.0575
    1SOL    HW310959   4.412   1.296   4.568  0.1169 -0.5954  0.9478
    1SOL    MW410960   4.458   1.364   4.596 -0.6409  0.2575  0.1836
    1SOL     OW10961   3.939   0.528   4.472  0.1869  0.5657 -0.0225
    1SOL    HW210962   4.033   0.509   4.483 -0.1900  0.1211  2.6471
    1SOL    HW310963   3.929   0.618   4.504 -0.6474 -0.1301  1.7233
    1SOL    MW410964   3.950   0.538   4.478  0.0269  0.4152  0.5598
    1SOL     OW10965   3.189   1.057   4.592  0.3324 -0.1060  0.4937
    1SOL    HW210966   3.162   1.014   4.511  1.7540 -0.9349  0.4463
    1SOL    HW310967   3.110   1.102   4.622  0.1452  1.3628 -2.0592
    1SOL    MW410968   3.175   1.057   4.585  0.4952 -0.0218  0.1507
    1SOL     OW10969   3.352   4.166   4.622 -0.2594 -0.0539 -0.1484
    1SOL    HW210970   3.338   4.136   4.711  0.1891 -0.4698 -0.2128
    1SOL    HW310971   3.425   4.112   4.590 -1.0513 -0.5770 -1.0873
    1SOL    MW410972   3.360   4.155   4.629 -0.3047 -0.1779 -0.2809
    1SOL     OW10973   0.856   0.058   4.072 -0.3937 -0.7015 -0.0329
    1SOL    HW210974   0.839   0.152   4.076  1.3420 -0.3143 -1.2708
    1SOL    HW310975   0.804   0.027   3.998  0.3379 -0.4229 -0.6620
    1SOL    MW410976   0.847   0.066   4.063 -0.0681 -0.6137 -0.2789
    1SOL     OW10977   0.049   1.997   4.673  0.1325 -0.2337  0.1608
    1SOL    HW210978   0.109   1.951   4.732  1.5938 -0.7248 -1.6588
    1SOL    HW310979   0.106   2.032   4.604 -1.5244  0.4096 -0.9071
    1SOL    MW410980   0.064   1.995   4.672  0.1067 -0.2136 -0.2203
    1SOL     OW10981   1.991   1.315   4.273 -0.0290  0.5242 -0.7605
    1SOL    HW210982   1.993   1.372   4.196 -0.3765  0.5121 -0.7769
    1SOL    HW310983   2.078   1.326   4.312 -0.0045  0.8698 -0.9048
    1SOL    MW410984   2.003   1.324   4.268 -0.0715  0.5682 -0.7815
    1SOL     OW10985   4.265   0.003   4.135 -0.3431  0.0725 -0.0418
    1SOL    HW210986   4.191   0.035   4.187  0.6078 -1.8333  2.6347
    1SOL    HW310987   4.340   0.050   4.168 -0.1114  0.9519 -1.7588
    1SOL    MW410988   4.265   0.013   4.146 -0.1869 -0.0630  0.0849
    1SOL     OW10989   2.667   2.691   4.641 -0.5739 -0.1950 -0.1443
    1SOL    HW210990   2.584   2.693   4.594  0.4973  1.7745 -2.0454
    1SOL    HW310991   2.732   2.666   4.575  0.5849 -0.1194  0.9376
    1SOL    MW410992   2.665   2.688   4.626 -0.2799  0.0749 -0.2527
    1SOL     OW10993   2.046   4.351   4.554  0.1879  0.1769 -0.5063
    1SOL    HW210994   2.015   4.363   4.464 -0.9334  0.3732 -0.1007
    1SOL    HW310995   1.976   4.388   4.609  0.8992  0.1301  0.4416
    1SOL    MW410996   2.033   4.357   4.549  0.1340  0.1965 -0.3276
    1SOL     OW10997   2.897   4.132   4.560  0.1583 -0.4377  0.0377
    1SOL    HW210998   2.841   4.208   4.568 -0.0981 -0.6508  0.2741
    1SOL    HW310999   2.839   4.062   4.529  0.4119 -0.5082 -0.2796
    1SOL    MW411000   2.882   4.133   4.557  0.1578 -0.4754  0.0267
    1SOL     OW11001   3.722   4.378   4.492  0.1623  0.0712  0.3606
    1SOL    HW211002   3.748   4.291   4.523 -0.1801  0.3494  1.4385
    1SOL    HW311003   3.626   4.377   4.497 -0.0324 -0.5375 -2.4618
    1SOL    MW411004   3.712   4.366   4.497  0.0916  0.0277  0.1302
    1SOL     OW11005   2.767   1.849   4.545 -0.0858 -0.0482 -0.1769
    1SOL    HW211006   2.848   1.897   4.562 -0.2326 -0.2036  0.9556
    1SOL    HW311007   2.701   1.895   4.596 -0.6785 -0.0572 -0.9213
    1SOL    MW411008   2.769   1.862   4.554 -0.1833 -0.0699 -0.1254
    1SOL     OW11009   1.757   4.274   4.157 -0.0743  0.2457 -0.5342
    1SOL    HW211010   1.786   4.254   4.068  1.2991  0.7432 -0.2012
    1SOL    HW311011   1.831   4.318   4.198 -0.2062 -1.1510  1.2858
    1SOL    MW411012   1.771   4.277   4.151  0.0895  0.1268 -0.2503
    1SOL     OW11013   2.270   0.914   4.272 -0.2693  0.0157  0.0338
    1SOL    HW211014   2.270   1.004   4.242 -2.1511 -0.1764 -0.5907
    1SOL    HW311015   2.332   0.869   4.214  1.3446  1.0588  0.9127
    1SOL    MW411016   2.278   0.920   4.261 -0.3045  0.1280  0.0668
    1SOL     OW11017   1.275   3.614   4.726  0.3255 -0.2005  0.2124
    1SOL    HW211018   1.246   3.659   4.647 -0.5187  1.2411  1.3080
    1SOL    HW311019   1.268   3.521   4.706 -0.1354  0.1596 -1.2990
    1SOL    MW411020   1.270   3.607   4.713  0.1533  0.0370  0.1578
    1SOL     OW11021   3.130   0.365   4.643  0.5227  0.0561 -0.0306
    1SOL    HW211022   3.129   0.378   4.738 -0.4008  0.0334 -0.0254
    1SOL    HW311023   3.208   0.411   4.613  0.3714  0.7686  0.6448
    1SOL    MW411024   3.140   0.373   4.652  0.3808  0.1472  0.0591
    1SOL     OW11025   4.027   1.647   4.275  0.0485  0.4205  0.5592
    1SOL    HW211026   4.108   1.628   4.228  0.3937  0.7598  1.0204
    1SOL    HW311027   4.040   1.607   4.361 -1.4701 -2.2075 -0.3530
    1SOL    MW411028   4.039   1.639   4.280 -0.1063  0.1185  0.4997
    1SOL     OW11029   1.721   1.909   4.745 -0.0145  0.2228 -0.5030
    1SOL    HW211030   1.777   1.935   4.672  0.2906  0.1578 -0.2968
    1SOL    HW311031   1.647   1.864   4.705  0.0396  0.3884 -0.7841
    1SOL    MW411032   1.719   1.907   4.730  0.0329  0.2362 -0.5126
    1SOL     OW11033   0.680   1.952   4.788 -0.4357  0.0324 -0.5019
    1SOL    HW211034   0.753   2.012   4.779  0.0877 -0.3093  1.3402
    1SOL    HW311035   0.720   1.867   4.807 -1.3253  0.0341  1.4864
    1SOL    MW411036   0.695   1.948   4.789 -0.4840 -0.0124  0.0038
    1SOL     OW11037   2.923   2.740   4.222 -0.4963 -0.1889 -0.7109
    1SOL    HW211038   2.934   2.834   4.237  0.2687 -0.1702 -1.3914
    1SOL    HW311039   2.835   2.732   4.185 -0.4372  0.2948 -0.9628
    1SOL    MW411040   2.913   2.751   4.219 -0.3874 -0.1225 -0.8340
    1SOL     OW11041   1.557   0.713   4.169 -0.6176 -0.1063  0.1296
    1SOL    HW211042   1.622   0.781   4.188 -1.1353  0.3317  0.3380
    1SOL    HW311043   1.556   0.706   4.074 -1.2628  0.8660  0.0601
    1SOL    MW411044   1.565   0.721   4.159 -0.7710  0.0798  0.1478
    1SOL     OW11045   3.982   2.688   4.661  0.4197  0.4874  0.1685
    1SOL    HW211046   4.076   2.670   4.653  0.4019  0.3591  0.2449
    1SOL    HW311047   3.947   2.677   4.573  0.9299  3.1889 -0.4287
    1SOL    MW411048   3.990   2.685   4.649  0.4845  0.8268  0.0997
    1SOL     OW11049   4.030   4.024   4.236  0.2223 -0.1422  0.4716
    1SOL    HW211050   4.111   3.981   4.209 -0.1122 -0.3853 -0.1515
    1SOL    HW311051   4.018   3.997   4.327  0.4363 -0.7120  0.3309
    1SOL    MW411052   4.039   4.015   4.245  0.2060 -0.2499  0.3710
    1SOL     OW11053   3.134   4.069   4.471  0.1472  0.4732 -0.0305
    1SOL    HW211054   3.187   4.123   4.530  0.1084  1.0406 -0.5026
    1SOL    HW311055   3.045   4.079   4.503  0.2170  0.2003  0.2507
    1SOL    MW411056   3.129   4.077   4.483  0.1514  0.5116 -0.0563
    1SOL     OW11057   0.239   0.251   4.648  0.0405  0.1259 -0.2067
    1SOL    HW211058   0.227   0.267   4.742  1.8799 -0.2419  0.1173
    1SOL    HW311059   0.226   0.336   4.607 -0.9242  0.2575  0.3660
    1SOL    MW411060   0.235   0.264   4.655  0.1559  0.0948 -0.0882
    1SOL     OW11061   0.862   3.099   4.508 -0.3300  0.0603  0.1144
    1SOL    HW211062   0.847   3.189   4.535  0.5242  0.5196 -0.9064
    1SOL    HW311063   0.780   3.053   4.529 -0.3088  0.7856  1.7814
    1SOL    MW411064   0.849   3.105   4.514 -0.2145  0.2165  0.1998
    1SOL     OW11065   0.054   2.345   4.479  0.2255  0.2709 -0.1248
    1SOL    HW211066   0.116   2.274   4.465  1.4670  1.5946 -1.5964
    1SOL    HW311067   0.109   2.423   4.490 -1.1382  1.4786 -1.5612
    1SOL    MW411068   0.069   2.346   4.479  0.2093  0.6046 -0.5083
    1SOL     OW11069   1.872   1.386   4.531 -0.3298  0.5513 -0.1864
    1SOL    HW211070   1.824   1.320   4.581  2.1552 -0.9519  0.3151
    1SOL    HW311071   1.888   1.344   4.446  0.5639  0.8166 -0.1489
    1SOL    MW411072   1.868   1.372   4.526  0.1160  0.3880 -0.1149
    1SOL     OW11073   0.418   0.930   4.246  0.5191 -0.1419 -0.0678
    1SOL    HW211074   0.486   0.868   4.221  1.3544  0.8857 -0.3584
    1SOL    HW311075   0.336   0.881   4.237  1.1757 -1.1944 -0.3009
    1SOL    MW411076   0.416   0.916   4.241  0.7159 -0.1452 -0.1369
    1SOL     OW11077   2.708   1.773   4.289 -0.4684 -0.0987 -0.4024
    1SOL    HW211078   2.730   1.805   4.376  0.1182  0.7985 -0.8794
    1SOL    HW311079   2.617   1.745   4.296 -0.5596  0.3865  0.3785
    1SOL    MW411080   2.699   1.773   4.301 -0.4032  0.0837 -0.3619
    1SOL     OW11081   4.163   2.276   4.532  0.7569  0.0389 -0.1305
    1SOL    HW211082   4.230   2.279   4.601  1.5040  1.3480 -0.9059
    1SOL    HW311083   4.181   2.352   4.478 -0.1041 -0.7459 -1.5364
    1SOL    MW411084   4.175   2.286   4.534  0.7420  0.1082 -0.4187
    1SOL     OW11085   2.274   2.487   4.727 -0.3609  0.3300 -0.1395
    1SOL    HW211086   2.273   2.479   4.631  0.0875  2.1362 -0.3163
    1SOL    HW311087   2.366   2.501   4.749 -0.3728 -0.7169  0.6348
    1SOL    MW411088   2.286   2.488   4.717 -0.3033  0.4301 -0.0606
    1SOL     OW11089   1.128   1.254   4.248 -0.2664  0.0135 -0.1526
    1SOL    HW211090   1.205   1.200   4.237 -0.3147 -0.5189  1.7979
    1SOL    HW311091   1.138   1.293   4.336 -1.5108  1.0563 -0.4433
    1SOL    MW411092   1.139   1.252   4.258 -0.4370  0.0808  0.0663
    1SOL     OW11093   2.506   1.378   4.698  0.0320  0.3742  0.2653
    1SOL    HW211094   2.573   1.313   4.678  0.8150  1.6030 -1.2170
    1SOL    HW311095   2.550   1.462   4.687 -1.4984  1.1916  0.1987
    1SOL    MW411096   2.521   1.381   4.694 -0.0668  0.6442  0.0610
    1SOL     OW11097   1.809   4.007   4.237  0.2816  0.8035  0.1337
    1SOL    HW211098   1.775   4.092   4.210 -0.4119  0.7444  0.8081
    1SOL    HW311099   1.814   4.013   4.332  0.0922  0.0386  0.1945
    1SOL    MW411100   1.805   4.019   4.246  0.1652  0.6952  0.2308
    1SOL     OW11101   4.058   0.882   4.287 -0.0124 -0.2190  0.3619
    1SOL    HW211102   3.972   0.865   4.248 -0.0970 -2.3483  1.4122
    1SOL    HW311103   4.120   0.839   4.228  0.3611  1.3901 -0.4415
    1SOL    MW411104   4.055   0.874   4.274  0.0257 -0.2876  0.3948
    1SOL     OW11105   0.204   0.500   4.228  0.3541  0.0940 -0.7462
    1SOL    HW211106   0.126   0.461   4.188  0.5981  1.0822 -2.2395
    1SOL    HW311107   0.274   0.438   4.210  0.1270 -0.2760 -0.3572
    1SOL    MW411108   0.203   0.487   4.220  0.3564  0.1755 -0.8917
    1SOL     OW11109   1.119   2.983   4.509  0.5029  0.0912 -0.0963
    1SOL    HW211110   1.039   3.034   4.512  0.5508  0.2141 -0.8089
    1SOL    HW311111   1.106   2.912   4.572  0.6649  1.3062  1.3292
    1SOL    MW411112   1.107   2.980   4.517  0.5306  0.2677 -0.0019
    1SOL     OW11113   1.611   3.812   4.543  0.2569 -0.0609  0.1533
    1SOL    HW211114   1.586   3.821   4.635  1.3823 -0.2095  0.4808
    1SOL    HW311115   1.683   3.874   4.532  0.5435 -0.5045 -0.4683
    1SOL    MW411116   1.617   3.822   4.554  0.4433 -0.1388  0.1149
    1SOL     OW11117   4.465   3.989   4.271 -0.1847  0.4224 -0.5130
    1SOL    HW211118   4.392   3.943   4.230 -0.2194 -0.0915  0.1210
    1SOL    HW311119   4.470   4.073   4.224 -0.2910 -0.1073 -1.4851
    1SOL    MW411120   4.456   3.994   4.259 -0.2041  0.2844 -0.5574
    1SOL     OW11121   0.717   4.636   4.306 -0.1136 -0.5240 -0.2301
    1SOL    HW211122   0.767   4.669   4.231 -0.5899  0.8566  0.0569
    1SOL    HW311123   0.700   4.544   4.284 -0.6463 -0.0230 -2.0433
    1SOL    MW411124   0.721   4.628   4.293 -0.2468 -0.2756 -0.4315
    1SOL     OW11125   0.320   3.281   4.508  0.3957  0.1407  0.0306
    1SOL    HW211126   0.401   3.331   4.518  0.6365 -0.4429  1.0736
    1SOL    HW311127   0.344   3.192   4.535 -0.1123 -0.4627 -1.4881
    1SOL    MW411128   0.334   3.276   4.513  0.3604 -0.0160 -0.0324
    1SOL     OW11129   4.491   0.353   4.108 -0.1332 -0.3232  0.0346
    1SOL    HW211130   4.494   0.361   4.012  0.5188 -0.2421  0.0619
    1SOL    HW311131   4.408   0.395   4.132 -0.4256 -0.5749 -0.5152
    1SOL    MW411132   4.480   0.360   4.098 -0.0854 -0.3457 -0.0339
    1SOL     OW11133   1.307   1.944   4.145  0.0650 -0.3538  0.0023
    1SOL    HW211134   1.383   1.996   4.169  0.2603 -0.6968  0.1282
    1SOL    HW311135   1.326   1.856   4.178 -0.4821 -0.3900  0.2324
    1SOL    MW411136   1.319   1.939   4.153  0.0186 -0.4039  0.0496
    1SOL     OW11137   1.645   3.106   4.083  0.4730 -0.0339 -0.2141
    1SOL    HW211138   1.558   3.133   4.113  1.3884  1.3925  1.1539
    1SOL    HW311139   1.654   3.016   4.115 -0.3195 -0.0420  0.0079
    1SOL    MW411140   1.635   3.098   4.091  0.4892  0.1531 -0.0043
    1SOL     OW11141   2.490   3.564   4.182 -0.4058  0.3110 -0.1915
    1SOL    HW211142   2.404   3.533   4.157  0.1507 -0.3527 -1.3250
    1SOL    HW311143   2.500   3.538   4.274 -1.6048  0.8532  0.0922
    1SOL    MW411144   2.480   3.556   4.191 -0.4902  0.2952 -0.3037
    1SOL     OW11145   2.510   2.482   4.272 -0.3032  0.7284  0.0799
    1SOL    HW211146   2.462   2.437   4.202 -2.1355  2.9283 -0.1411
    1SOL    HW311147   2.446   2.494   4.342  1.0543  0.0759  1.4740
    1SOL    MW411148   2.495   2.477   4.272 -0.3660  0.9327  0.2341
    1SOL     OW11149   4.407   4.313   4.595  0.1783 -0.0400  0.1068
    1SOL    HW211150   4.381   4.296   4.686  0.3782  1.9774  0.5867
    1SOL    HW311151   4.328   4.348   4.554  0.1114 -0.8763 -0.4658
    1SOL    MW411152   4.394   4.316   4.602  0.1960  0.1159  0.0944
    1SOL     OW11153   0.895   2.475   4.240  0.3365 -0.3756  0.3744
    1SOL    HW211154   0.836   2.403   4.216  1.2754 -0.5753 -1.4950
    1SOL    HW311155   0.980   2.447   4.207  1.1650  0.6117  1.6494
    1SOL    MW411156   0.898   2.462   4.232  0.5697 -0.2716  0.2961
    1SOL     OW11157   1.805   2.027   4.148 -0.1384  0.2285 -0.0900
    1SOL    HW211158   1.793   2.014   4.054  1.1871 -1.0331 -0.0974
    1SOL    HW311159   1.891   2.066   4.157 -0.1255  0.0523  0.6166
    1SOL    MW411160   1.815   2.030   4.137  0.0381  0.0386  0.0019
    1SOL     OW11161   2.360   4.054   4.514 -0.0791 -0.1096  0.6647
    1SOL    HW211162   2.337   4.054   4.421 -0.5818 -1.0170  0.7766
    1SOL    HW311163   2.403   3.969   4.528  1.5538  0.7359  0.8974
    1SOL    MW411164   2.362   4.043   4.504  0.0699 -0.1178  0.7105
    1SOL     OW11165   4.087   1.460   4.487  0.6208 -0.0207 -0.7601
    1SOL    HW211166   4.157   1.490   4.544 -0.1371  0.2855  0.0309
    1SOL    HW311167   4.029   1.409   4.544  1.1441 -1.7962 -1.7950
    1SOL    MW411168   4.088   1.457   4.502  0.5898 -0.2145 -0.7930
    1SOL     OW11169   3.805   1.542   4.146  0.2346 -0.1953  0.3711
    1SOL    HW211170   3.730   1.567   4.200  0.1030  0.0570  0.0732
    1SOL    HW311171   3.881   1.580   4.190  0.1991 -0.5085  0.7123
    1SOL    MW411172   3.805   1.550   4.159  0.2127 -0.2034  0.3772
    1SOL     OW11173   4.230   1.317   4.289  0.1905  0.2923  0.0137
    1SOL    HW211174   4.165   1.257   4.251  0.4058  0.4206 -0.5723
    1SOL    HW311175   4.193   1.342   4.374 -0.0349 -0.4447  0.1365
    1SOL    MW411176   4.217   1.312   4.295  0.1893  0.2120 -0.0472
    1SOL     OW11177   2.162   0.129   4.311  0.0059  0.0895 -0.6826
    1SOL    HW211178   2.231   0.070   4.340  0.3617  0.3819 -0.9203
    1SOL    HW311179   2.125   0.165   4.391  0.2929  0.1129 -0.5593
    1SOL    MW411180   2.166   0.126   4.325  0.0906  0.1312 -0.6971
    1SOL     OW11181   0.906   1.428   4.572  0.0989  0.0327  0.2860
    1SOL    HW211182   0.884   1.511   4.530  1.3735  0.4277  0.3835
    1SOL    HW311183   0.847   1.423   4.648  0.4728  1.1604  0.6527
    1SOL    MW411184   0.895   1.438   4.576  0.3163  0.2337  0.3471
    1SOL     OW11185   1.358   0.785   4.556  0.0205 -0.3604 -0.2440
    1SOL    HW211186   1.447   0.753   4.566  0.1773  0.2021  0.1915
    1SOL    HW311187   1.350   0.806   4.462  1.4056  2.6310  0.2390
    1SOL    MW411188   1.368   0.784   4.545  0.2240  0.1085 -0.1230
    1SOL     OW11189   3.347   1.279   4.237 -0.2780  0.4147  0.2903
    1SOL    HW211190   3.358   1.366   4.198  1.8942 -1.3151 -3.2032
    1SOL    HW311191   3.259   1.251   4.211  0.5395 -0.0447 -2.0939
    1SOL    MW411192   3.337   1.287   4.229  0.1161  0.1259 -0.4854
    1SOL     OW11193   1.781   0.885   4.250  0.0275 -0.1221 -0.3450
    1SOL    HW211194   1.868   0.853   4.227  0.2887  0.0991  0.3190
    1SOL    HW311195   1.783   0.895   4.345 -0.6424  0.1196 -0.3507
    1SOL    MW411196   1.793   0.882   4.259 -0.0265 -0.0611 -0.2580
    1SOL     OW11197   1.696   1.587   4.428  0.3509 -0.2940 -0.0704
    1SOL    HW211198   1.756   1.659   4.409  0.5628 -0.3455  0.3897
    1SOL    HW311199   1.750   1.521   4.471  0.1366 -0.6877 -0.4004
    1SOL    MW411200   1.711   1.588   4.431  0.3506 -0.3526 -0.0529
    1SOL     OW11201   2.317   2.064   4.332 -0.2528  0.6060  0.4909
    1SOL    HW211202   2.268   2.013   4.268 -1.1962  0.7670  1.0916
    1SOL    HW311203   2.265   2.144   4.344  0.3084  0.9156  0.8904
    1SOL    MW411204   2.304   2.068   4.325 -0.3030  0.6680  0.6227
    1SOL     OW11205   3.357   2.087   4.248  0.2691  0.4833  0.2847
    1SOL    HW211206   3.397   2.164   4.206 -0.1394  0.1350 -0.7528
    1SOL    HW311207   3.426   2.054   4.305  1.6572 -0.3504 -1.8057
    1SOL    MW411208   3.372   2.093   4.250  0.3984  0.3273 -0.1283
    1SOL     OW11209   2.023   3.491   4.475 -0.1969 -0.1765 -0.4335
    1SOL    HW211210   2.020   3.535   4.390  1.0298 -0.4612 -0.6349
    1SOL    HW311211   1.933   3.464   4.492 -0.8419  1.7043 -0.6749
    1SOL    MW411212   2.010   3.494   4.466 -0.1202  0.0339 -0.4921
    1SOL     OW11213   1.777   2.438   4.303  0.5202  0.0310 -0.1677
    1SOL    HW211214   1.821   2.360   4.336 -0.9194 -0.2267  1.1732
    1SOL    HW311215   1.800   2.507   4.365  0.1886  0.2074 -0.2381
    1SOL    MW411216   1.786   2.437   4.315  0.2866  0.0200  0.0000
    1SOL     OW11217   3.672   1.195   4.535 -0.1235  0.3332 -0.2634
    1SOL    HW211218   3.719   1.235   4.461 -0.6402  0.7286 -0.3803
    1SOL    HW311219   3.580   1.218   4.520 -0.9301 -3.7157 -2.1883
    1SOL    MW411220   3.666   1.203   4.523 -0.2983 -0.1488 -0.5331
    1SOL     OW11221   0.380   4.316   4.606 -0.1840 -0.1807 -0.0019
    1SOL    HW211222   0.344   4.230   4.625  0.4660 -0.4634 -0.0306
    1SOL    HW311223   0.310   4.361   4.558 -0.5234 -0.6936  0.0012
    1SOL    MW411224   0.366   4.311   4.602 -0.1430 -0.2851 -0.0057
    1SOL     OW11225   2.876   2.573   4.463  0.4115 -0.2095  0.1680
    1SOL    HW211226   2.853   2.489   4.424  1.8380 -0.3224 -0.4548
    1SOL    HW311227   2.878   2.634   4.389 -0.9749  0.4665  0.6631
    1SOL    MW411228   2.873   2.570   4.448  0.4168 -0.1352  0.1507
    1SOL     OW11229   2.930   3.013   4.192  0.1034 -0.0200 -0.8211
    1SOL    HW211230   2.941   3.042   4.101  2.0939 -0.5668 -0.7722
    1SOL    HW311231   3.000   3.057   4.240 -0.9657  0.3033  0.4746
    1SOL    MW411232   2.941   3.023   4.186  0.2251 -0.0494 -0.6437
    1SOL     OW11233   1.558   2.919   4.456  0.0407 -0.3662 -0.1657
    1SOL    HW211234   1.628   2.967   4.501  1.2835 -0.8609 -1.5218
    1SOL    HW311235   1.486   2.981   4.451  0.6413  0.4074  0.6116
    1SOL    MW411236   1.558   2.933   4.461  0.2840 -0.3293 -0.2418
    1SOL     OW11237   1.015   0.499   4.336  0.0091 -0.0704  0.2986
    1SOL    HW211238   1.047   0.560   4.269 -0.0943 -0.5241 -0.1740
    1SOL    HW311239   1.085   0.434   4.344 -0.7193 -1.0038 -0.6565
    1SOL    MW411240   1.029   0.498   4.328 -0.1007 -0.2534  0.1097
    1SOL     OW11241   1.165   1.330   4.513  0.5269  0.1457 -0.1806
    1SOL    HW211242   1.085   1.383   4.510 -0.3275 -1.1553 -0.5107
    1SOL    HW311243   1.229   1.387   4.555 -0.7273  1.0152  0.6068
    1SOL    MW411244   1.163   1.345   4.518  0.2487  0.0887 -0.1202
    1SOL     OW11245   0.213   2.838   4.473 -0.4299 -0.2563 -0.3393
    1SOL    HW211246   0.233   2.817   4.382 -0.2131  0.5640 -0.4793
    1SOL    HW311247   0.125   2.875   4.471 -0.1395  0.4513 -0.3167
    1SOL    MW411248   0.204   2.840   4.461 -0.3630 -0.0548 -0.3543
    1SOL     OW11249   3.930   2.391   4.657 -0.2211  0.0148 -0.1598
    1SOL    HW211250   4.007   2.351   4.616 -1.2865 -1.3184 -0.9119
    1SOL    HW311251   3.957   2.481   4.676  1.7122 -0.6018  0.1336
    1SOL    MW411252   3.944   2.398   4.654 -0.1068 -0.2422 -0.2203
    1SOL     OW11253   3.951   4.485   4.598  0.1606  0.1613  0.2754
    1SOL    HW211254   3.867   4.452   4.565 -0.6277  1.8360  0.5224
    1SOL    HW311255   4.015   4.452   4.536 -0.5540 -1.9675  0.6324
    1SOL    MW411256   3.948   4.476   4.585 -0.0374  0.1016  0.3552
    1SOL     OW11257   3.443   3.268   4.608  0.0797 -0.2790 -0.5898
    1SOL    HW211258   3.525   3.283   4.560  0.5868 -0.8767  0.0766
    1SOL    HW311259   3.460   3.190   4.660  0.5140  1.8786  2.6588
    1SOL    MW411260   3.456   3.260   4.608  0.2041 -0.0734 -0.0730
    1SOL     OW11261   0.378   3.766   4.674 -0.0324 -0.1881 -0.0275
    1SOL    HW211262   0.380   3.859   4.652  0.9207 -0.2206 -0.0798
    1SOL    HW311263   0.467   3.735   4.659 -0.1963 -0.9790  0.5726
    1SOL    MW411264   0.390   3.774   4.669  0.0718 -0.2968  0.0453
    1SOL     OW11265   3.164   0.369   4.172 -0.2311 -0.3028  0.8788
    1SOL    HW211266   3.086   0.408   4.211 -0.5186  0.2169 -0.2144
    1SOL    HW311267   3.236   0.427   4.197 -0.1084 -0.9974  2.2287
    1SOL    MW411268   3.164   0.382   4.180 -0.2527 -0.3259  0.9122
    1SOL     OW11269   0.173   3.100   4.152 -0.0574  0.4857  0.0437
    1SOL    HW211270   0.250   3.154   4.168 -0.3531  1.4420 -1.6301
    1SOL    HW311271   0.101   3.147   4.196  0.1800 -0.0087  0.9598
    1SOL    MW411272   0.173   3.113   4.160 -0.0651  0.5467 -0.0563
    1SOL     OW11273   1.227   0.584   4.685  0.0460 -0.1967 -0.4955
    1SOL    HW211274   1.217   0.632   4.767  0.0362 -0.7723 -0.1626
    1SOL    HW311275   1.263   0.649   4.624 -0.5318  0.3907 -0.2076
    1SOL    MW411276   1.231   0.599   4.688 -0.0316 -0.1951 -0.4134
    1SOL     OW11277   2.236   3.451   4.120  0.3328  0.2264  0.0473
    1SOL    HW211278   2.206   3.364   4.144 -1.8514  0.0675 -2.9607
    1SOL    HW311279   2.172   3.510   4.159 -1.3452  0.1261 -2.3968
    1SOL    MW411280   2.224   3.447   4.128 -0.1767  0.1922 -0.6719
    1SOL     OW11281   3.867   0.769   4.613  0.1487  0.0381  0.1390
    1SOL    HW211282   3.799   0.834   4.595  0.8479  0.0187 -2.8908
    1SOL    HW311283   3.822   0.699   4.661 -1.0146  1.8926  1.7985
    1SOL    MW411284   3.852   0.768   4.617  0.0873  0.2802 -0.0420
    1SOL     OW11285   2.401   0.544   4.534 -0.3750 -0.4625 -0.1428
    1SOL    HW211286   2.412   0.635   4.561  1.2092 -0.6021 -0.2795
    1SOL    HW311287   2.437   0.540   4.446 -0.5348 -1.2028 -0.1811
    1SOL    MW411288   2.407   0.556   4.526 -0.1874 -0.5786 -0.1659
    1SOL     OW11289   4.355   3.510   4.803 -0.2012 -0.1999 -0.1548
    1SOL    HW211290   4.391   3.598   4.791  0.3271 -0.2210  1.1324
    1SOL    HW311291   4.423   3.451   4.769 -0.4731 -0.1142 -0.8413
    1SOL    MW411292   4.369   3.514   4.797 -0.1674 -0.1915 -0.0753
    1SOL     OW11293   2.320   0.328   4.183  0.2023 -0.2699 -0.4322
    1SOL    HW211294   2.293   0.316   4.092 -0.8169 -1.4464  0.0261
    1SOL    HW311295   2.276   0.259   4.231  0.3820  0.6229  1.0405
    1SOL    MW411296   2.311   0.317   4.177  0.0916 -0.3074 -0.1774
    1SOL     OW11297   3.595   0.909   4.264  0.1827  0.0632 -0.0952
    1SOL    HW211298   3.512   0.868   4.240 -1.2892  2.5286  0.6480
    1SOL    HW311299   3.595   0.993   4.219  0.4540  1.8098  3.0460
    1SOL    MW411300   3.584   0.915   4.255  0.0243  0.6189  0.4172
    1SOL     OW11301   4.387   3.189   4.526  0.4515 -0.2862 -0.1773
    1SOL    HW211302   4.294   3.201   4.544  0.6928 -0.3304  1.1905
    1SOL    HW311303   4.429   3.265   4.566  1.0165 -0.3313 -0.6725
    1SOL    MW411304   4.381   3.200   4.534  0.5579 -0.2983 -0.0620
    1SOL     OW11305   2.092   1.695   4.262  0.2620 -0.0100 -0.6453
    1SOL    HW211306   2.149   1.659   4.330  0.1889 -0.9087 -1.0519
    1SOL    HW311307   2.146   1.761   4.218  0.8738 -0.5983 -0.7874
    1SOL    MW411308   2.107   1.699   4.265  0.3331 -0.2061 -0.7172
    1SOL     OW11309   0.912   1.655   4.214  0.0108 -0.2223 -0.1321
    1SOL    HW211310   0.839   1.615   4.166 -1.1846 -0.2466  1.6598
    1SOL    HW311311   0.908   1.747   4.191  0.1126 -0.4118 -0.9213
    1SOL    MW411312   0.902   1.662   4.204 -0.1335 -0.2506  0.0000
    1SOL     OW11313   3.570   1.607   4.282  0.2357 -0.1960 -0.0534
    1SOL    HW211314   3.569   1.546   4.356  1.3477 -0.1509 -0.0001
    1SOL    HW311315   3.485   1.593   4.238 -1.4565  1.4644  2.5745
    1SOL    MW411316   3.558   1.597   4.286  0.1590  0.0291  0.3009
    1SOL     OW11317   3.357   2.798   4.265  0.0031 -0.2328 -0.4528
    1SOL    HW211318   3.291   2.750   4.216 -0.5537 -0.2473  0.3020
    1SOL    HW311319   3.317   2.814   4.351  0.2343  1.4155 -0.6240
    1SOL    MW411320   3.343   2.794   4.270 -0.0396 -0.0172 -0.3757
    1SOL     OW11321   3.872   2.627   4.378 -0.5129 -0.1112  0.0335
    1SOL    HW211322   3.874   2.546   4.327 -0.4837 -0.2244  0.2155
    1SOL    HW311323   3.782   2.658   4.369 -0.7933 -0.6897  0.7935
    1SOL    MW411324   3.861   2.620   4.370 -0.5460 -0.2022  0.1574
    1SOL     OW11325   0.474   0.139   4.579 -0.1089  0.3057  0.0322
    1SOL    HW211326   0.392   0.177   4.608 -1.1607 -2.1509  0.3804
    1SOL    HW311327   0.463   0.127   4.484 -0.5310 -0.8690  0.2199
    1SOL    MW411328   0.462   0.143   4.570 -0.3034 -0.1734  0.1025
    1SOL     OW11329   1.555   4.278   4.339 -0.1524 -0.2913 -0.1378
    1SOL    HW211330   1.629   4.294   4.280 -0.0802  1.7366  0.4676
    1SOL    HW311331   1.481   4.261   4.280  0.2769  0.0369 -0.7775
    1SOL    MW411332   1.555   4.278   4.323 -0.0862  0.0196 -0.1421
    1SOL     OW11333   2.926   2.020   4.244 -0.3012 -0.4201  0.3788
    1SOL    HW211334   2.842   2.006   4.201 -0.1585  0.5637 -0.2278
    1SOL    HW311335   2.944   2.113   4.232  0.8039 -0.5938  0.6373
    1SOL    MW411336   2.917   2.030   4.237 -0.1364 -0.3133  0.3328
    1SOL     OW11337   3.586   1.137   4.100  0.1714 -0.0282  0.1755
    1SOL    HW211338   3.581   1.126   4.005 -1.5850  1.7806  0.0328
    1SOL    HW311339   3.502   1.177   4.124  0.9717  0.3982  2.3647
    1SOL    MW411340   3.574   1.141   4.090  0.0453  0.2666  0.4458
    1SOL     OW11341   1.857   0.379   4.151  0.4571  0.2083 -0.0302
    1SOL    HW211342   1.778   0.421   4.186 -0.8898 -0.0529 -2.6361
    1SOL    HW311343   1.872   0.304   4.208 -0.9905  0.4672  0.7125
    1SOL    MW411344   1.848   0.375   4.163  0.0883  0.2080 -0.2756
    1SOL     OW11345   3.359   4.391   4.259  0.1995 -0.4538  0.1095
    1SOL    HW211346   3.387   4.400   4.350  1.1223 -1.6273 -0.0534
    1SOL    HW311347   3.379   4.475   4.219 -0.4066  0.1400  1.0425
    1SOL    MW411348   3.365   4.403   4.266  0.2413 -0.5302  0.2108
    1SOL     OW11349   2.508   0.533   4.270 -0.2657  0.0274  0.0296
    1SOL    HW211350   2.488   0.619   4.234  1.7561  0.2960 -0.5191
    1SOL    HW311351   2.448   0.473   4.225 -0.5408  0.9204 -0.8024
    1SOL    MW411352   2.497   0.536   4.259 -0.0355  0.1805 -0.1521
    1SOL     OW11353   2.667   2.694   4.141  0.0134 -0.2669  0.0021
    1SOL    HW211354   2.613   2.767   4.170  0.6837 -0.5408  1.9926
    1SOL    HW311355   2.628   2.617   4.183  0.6729 -0.7396 -0.2401
    1SOL    MW411356   2.655   2.693   4.150  0.1888 -0.3650  0.2327
    1SOL     OW11357   2.277   1.165   4.154 -0.0864 -0.1591 -0.0475
    1SOL    HW211358   2.369   1.162   4.129 -0.3902  0.1422 -1.2627
    1SOL    HW311359   2.270   1.238   4.215  0.8488 -1.4899  1.6948
    1SOL    MW411360   2.288   1.174   4.159 -0.0031 -0.2948  0.0219
    1SOL     OW11361   3.159   3.435   4.173 -0.4263  0.5454 -0.1114
    1SOL    HW211362   3.155   3.442   4.078  1.2802  1.7210 -0.1274
    1SOL    HW311363   3.094   3.497   4.205 -0.8974  0.2571 -0.5136
    1SOL    MW411364   3.150   3.444   4.165 -0.2635  0.6623 -0.1669
    1SOL     OW11365   3.538   3.965   4.540  0.5167  0.1200 -0.4127
    1SOL    HW211366   3.551   3.979   4.446  1.5022 -1.0998 -0.4543
    1SOL    HW311367   3.560   3.874   4.555 -1.7569 -0.3044  0.6398
    1SOL    MW411368   3.543   3.955   4.529  0.3467 -0.0968 -0.2794
    1SOL     OW11369   3.780   1.286   4.259  0.0092 -0.2480 -0.3446
    1SOL    HW211370   3.776   1.374   4.223 -0.9411  0.8925  2.4454
    1SOL    HW311371   3.716   1.236   4.208 -0.8975  1.1757 -0.6158
    1SOL    MW411372   3.771   1.291   4.247 -0.2358  0.0905 -0.0124
    1SOL     OW11373   3.148   1.669   4.199  0.4795  0.3677  0.1641
    1SOL    HW211374   3.151   1.666   4.295 -2.2554  0.3837  0.2913
    1SOL    HW311375   3.167   1.760   4.177  3.2240 -0.0816  0.5530
    1SOL    MW411376   3.151   1.680   4.209  0.4807  0.3104  0.2322
    1SOL     OW11377   3.788   0.301   4.557  0.5069  0.0524 -0.0887
    1SOL    HW211378   3.845   0.370   4.522  0.5066 -0.6813 -1.5567
    1SOL    HW311379   3.840   0.220   4.548 -0.2563 -0.4279 -0.1965
    1SOL    MW411380   3.803   0.299   4.551  0.4060 -0.1078 -0.2966
    1SOL     OW11381   2.889   1.607   4.176  0.5257  0.2765 -0.0036
    1SOL    HW211382   2.831   1.667   4.223 -0.7207 -0.0077 -1.1566
    1SOL    HW311383   2.977   1.642   4.193  0.1392  0.0839  2.6433
    1SOL    MW411384   2.893   1.620   4.184  0.3102  0.2136  0.1936
    1SOL     OW11385   4.267   0.493   4.188  0.1694  0.0322  0.0206
    1SOL    HW211386   4.260   0.588   4.176  1.7594 -0.0214 -1.5491
    1SOL    HW311387   4.191   0.457   4.143 -0.6752  0.5650  0.9894
    1SOL    MW411388   4.256   0.501   4.181  0.2675  0.0955 -0.0587
    1SOL     OW11389   4.222   0.490   4.484 -0.5440  0.6523  0.2473
    1SOL    HW211390   4.229   0.505   4.390  0.2415  0.4404  0.2647
    1SOL    HW311391   4.289   0.547   4.522  0.0828 -0.2769  0.5655
    1SOL    MW411392   4.232   0.500   4.476 -0.3576  0.5017  0.2923
    1SOL     OW11393   2.047   3.174   4.117  0.2355  0.1639 -0.0100
    1SOL    HW211394   2.068   3.081   4.128 -1.9287 -0.7559 -3.0309
    1SOL    HW311395   1.964   3.185   4.162  0.5035  0.6548  0.3669
    1SOL    MW411396   2.039   3.163   4.125 -0.0145  0.1073 -0.3586
    1SOL     OW11397   1.340   1.551   4.603  0.1316 -0.2553  0.2678
    1SOL    HW211398   1.397   1.474   4.602 -0.8175 -0.9567 -0.7399
    1SOL    HW311399   1.399   1.625   4.616  1.1957 -1.0300 -0.1297
    1SOL    MW411400   1.355   1.551   4.605  0.1467 -0.4500  0.0825
    1SOL     OW11401   0.828   1.663   4.472  0.0943 -0.4917 -0.5595
    1SOL    HW211402   0.732   1.664   4.476  0.1063  0.6880 -0.5312
    1SOL    HW311403   0.848   1.656   4.379 -0.0169 -1.0969 -0.5410
    1SOL    MW411404   0.818   1.662   4.460  0.0812 -0.4159 -0.5531
    1SOL     OW11405   3.130   0.702   4.541 -0.4542 -0.0564 -0.2422
    1SOL    HW211406   3.146   0.611   4.515  1.0927  0.8648 -2.7224
    1SOL    HW311407   3.215   0.733   4.572 -1.0164  0.4988  0.7537
    1SOL    MW411408   3.144   0.694   4.541 -0.3242  0.1384 -0.4377
    1SOL     OW11409   3.324   0.798   4.182 -0.2393  0.3013 -0.2929
    1SOL    HW211410   3.304   0.708   4.207 -0.2154  0.4543  0.3017
    1SOL    HW311411   3.269   0.851   4.240  0.6865  0.6864  0.2444
    1SOL    MW411412   3.314   0.793   4.193 -0.1140  0.3723 -0.1440
    1SOL     OW11413   3.712   0.524   4.740  0.1037  0.0114  0.1476
    1SOL    HW211414   3.711   0.438   4.698 -0.9865  0.9036 -1.6973
    1SOL    HW311415   3.620   0.545   4.755  0.2878  1.4976 -0.7302
    1SOL    MW411416   3.700   0.516   4.737 -0.0162  0.3253 -0.2112
    1SOL     OW11417   2.437   2.344   3.839 -0.2333 -0.5296 -0.3613
    1SOL    HW211418   2.385   2.329   3.918  0.5589  0.7404  0.4247
    1SOL    HW311419   2.451   2.257   3.802  0.4088 -1.2808  1.5823
    1SOL    MW411420   2.432   2.331   3.844 -0.0443 -0.4613 -0.0012
    1SOL     OW11421   2.298   4.493   4.585  0.6574  0.5944  0.3699
    1SOL    HW211422   2.271   4.569   4.636  1.0974  1.1495 -0.2115
    1SOL    HW311423   2.220   4.438   4.580  0.7144  0.3591  1.9503
    1SOL    MW411424   2.284   4.496   4.591  0.7229  0.6366  0.5012
    1SOL     OW11425   3.396   1.231   4.491  0.3137 -0.7830 -0.7598
    1SOL    HW211426   3.314   1.198   4.528 -0.5191  1.2859 -0.6352
    1SOL    HW311427   3.378   1.241   4.398  0.4310 -0.3595 -0.7371
    1SOL    MW411428   3.383   1.228   4.484  0.2193 -0.4542 -0.7396
    1SOL     OW11429   3.142   0.099   4.257  0.3571  0.4497 -0.1672
    1SOL    HW211430   3.145   0.191   4.232  1.8306  0.7711  1.1026
    1SOL    HW311431   3.161   0.099   4.351 -1.8573 -0.9742  0.3271
    1SOL    MW411432   3.144   0.111   4.266  0.2594  0.3043  0.0658
    1SOL     OW11433   2.751   3.431   4.139  0.3000 -0.1094  0.0486
    1SOL    HW211434   2.826   3.480   4.174 -0.2258  0.7871 -0.0816
    1SOL    HW311435   2.675   3.484   4.163 -0.1107  0.2094 -1.9439
    1SOL    MW411436   2.751   3.444   4.147  0.1764  0.0508 -0.2317
    1SOL     OW11437   1.110   3.821   4.094  0.1290 -0.4172  0.2845
    1SOL    HW211438   1.194   3.865   4.107 -0.5451  0.2200  2.8903
    1SOL    HW311439   1.110   3.751   4.160 -0.9839 -0.9905 -0.3212
    1SOL    MW411440   1.121   3.818   4.105 -0.1068 -0.4086  0.5484
    1SOL     OW11441   0.189   0.489   4.511  0.5172  0.2368 -0.2177
    1SOL    HW211442   0.248   0.558   4.541  1.3629 -0.8073  0.5442
    1SOL    HW311443   0.196   0.491   4.416  1.9263  0.0105 -0.1337
    1SOL    MW411444   0.198   0.498   4.502  0.8147  0.0692 -0.1059
    1SOL     OW11445   0.634   2.051   4.233  0.1239 -0.3602 -0.4663
    1SOL    HW211446   0.715   2.004   4.255  0.0403 -0.2838  0.0254
    1SOL    HW311447   0.664   2.134   4.195  0.3034  0.4412  1.3697
    1SOL    MW411448   0.649   2.056   4.231  0.1366 -0.2444 -0.1597
    1SOL     OW11449   0.451   2.665   4.121 -0.0035 -0.2407 -0.4478
    1SOL    HW211450   0.463   2.686   4.028 -0.7613 -0.8595 -0.6864
    1SOL    HW311451   0.376   2.719   4.148  0.3175  0.0582 -0.1538
    1SOL    MW411452   0.443   2.675   4.112 -0.0612 -0.2832 -0.4406
    1SOL     OW11453   1.339   2.527   4.284  0.0019 -0.3441  0.0923
    1SOL    HW211454   1.410   2.473   4.250  0.4180  0.2462  0.0205
    1SOL    HW311455   1.344   2.608   4.233 -0.6264 -0.2414  0.1905
    1SOL    MW411456   1.349   2.531   4.273 -0.0261 -0.2527  0.0958
    1SOL     OW11457   2.971   2.985   4.582  0.0341  0.0874 -0.0746
    1SOL    HW211458   2.959   2.916   4.647 -1.4747  0.3092 -0.1013
    1SOL    HW311459   2.884   3.022   4.569  0.6574  1.3664 -0.7679
    1SOL    MW411460   2.958   2.981   4.589 -0.0827  0.2851 -0.1698
    1SOL     OW11461   2.683   0.921   4.234 -0.2885  0.4493 -0.1076
    1SOL    HW211462   2.759   0.863   4.227 -0.7942 -0.1966 -0.3560
    1SOL    HW311463   2.670   0.931   4.328  0.2796  0.8004 -0.0639
    1SOL    MW411464   2.691   0.914   4.246 -0.2801  0.4104 -0.1345
    1SOL     OW11465   0.088   0.049   4.485 -0.5033  0.0688 -0.0264
    1SOL    HW211466   0.161   0.110   4.486 -1.4085  1.1570  0.0863
    1SOL    HW311467   0.046   0.063   4.400 -0.8952 -0.1713  0.1259
    1SOL    MW411468   0.092   0.059   4.474 -0.6744  0.1807  0.0086
    1SOL     OW11469   0.148   3.659   4.556 -0.0928 -0.1665 -0.0495
    1SOL    HW211470   0.230   3.696   4.586  0.8795 -2.3515  0.0936
    1SOL    HW311471   0.160   3.646   4.462 -0.6293  0.3576 -0.1968
    1SOL    MW411472   0.160   3.662   4.548 -0.0353 -0.3858 -0.0505
    1SOL     OW11473   3.142   3.207   4.540 -0.0523  0.0694 -0.0786
    1SOL    HW211474   3.088   3.140   4.582  0.3034 -0.5092 -0.5408
    1SOL    HW311475   3.214   3.222   4.602 -0.5204  0.5543  0.3552
    1SOL    MW411476   3.145   3.200   4.554 -0.0672  0.0572 -0.0820
    1SOL     OW11477   1.463   1.314   4.567 -0.0486 -0.5851 -0.0636
    1SOL    HW211478   1.499   1.319   4.478 -1.8065 -0.0639 -0.7692
    1SOL    HW311479   1.418   1.229   4.570  0.3293 -0.7666  0.4554
    1SOL    MW411480   1.462   1.303   4.555 -0.2307 -0.5403 -0.0877
    1SOL     OW11481   1.360   1.066   4.594 -0.1094  0.0589 -0.8011
    1SOL    HW211482   1.273   1.081   4.630  0.0927 -2.7654  1.0645
    1SOL    HW311483   1.372   0.971   4.601  2.9175  0.3451 -1.4990
    1SOL    MW411484   1.350   1.055   4.600  0.3166 -0.2759 -0.6471
    1SOL     OW11485   3.810   2.163   4.337  0.8795  0.1437 -0.6136
    1SOL    HW211486   3.775   2.184   4.424  0.9990 -0.1946 -0.4879
    1SOL    HW311487   3.864   2.086   4.350  0.0125 -0.5759 -1.1807
    1SOL    MW411488   3.812   2.156   4.350  0.7808  0.0043 -0.6719
    1SOL     OW11489   2.929   4.640   4.168 -0.3643  0.6938  0.0085
    1SOL    HW211490   3.008   4.683   4.200 -0.7102  1.3817 -0.0299
    1SOL    HW311491   2.920   4.562   4.222  0.2951  0.6564  0.0644
    1SOL    MW411492   2.938   4.636   4.180 -0.3233  0.7796  0.0105
    1SOL     OW11493   0.438   0.652   4.542 -0.2178  0.0931  0.0223
    1SOL    HW211494   0.454   0.746   4.539  0.0672  0.0501  0.0873
    1SOL    HW311495   0.513   0.617   4.590 -0.7171 -0.0787  0.6841
    1SOL    MW411496   0.450   0.659   4.548 -0.2460  0.0648  0.1183
    1SOL     OW11497   1.638   4.206   4.611  0.2254  0.2266 -0.1044
    1SOL    HW211498   1.611   4.226   4.522 -1.1966  1.6216  0.6008
    1SOL    HW311499   1.565   4.156   4.647 -0.3024  1.7362  0.9973
    1SOL    MW411500   1.625   4.202   4.604 -0.0319  0.6099  0.1335
    1SOL     OW11501   3.669   1.853   4.411  0.0838 -0.4613  0.1056
    1SOL    HW211502   3.619   1.773   4.401 -0.4392 -0.0275 -0.8024
    1SOL    HW311503   3.612   1.912   4.460  0.4258 -0.5942  0.6782
    1SOL    MW411504   3.655   1.850   4.416  0.0601 -0.4215  0.0615
    1SOL     OW11505   4.266   2.719   4.593 -0.3403 -0.2083 -0.0985
    1SOL    HW211506   4.313   2.798   4.565  0.8682 -0.4550  1.1688
    1SOL    HW311507   4.328   2.674   4.651 -2.2574 -0.3922  1.8601
    1SOL    MW411508   4.281   2.724   4.597 -0.4339 -0.2651  0.3271
    1SOL     OW11509   2.886   3.702   4.530  0.1549  0.0618 -0.1212
    1SOL    HW211510   2.886   3.612   4.563 -0.1332  0.7313  1.8066
    1SOL    HW311511   2.973   3.736   4.553  0.3509  0.2092 -1.0562
    1SOL    MW411512   2.898   3.695   4.537  0.1428  0.1693  0.0095
    1SOL     OW11513   1.082   3.423   4.444  0.1226  0.2081  0.0062
    1SOL    HW211514   0.990   3.410   4.470 -0.2703  3.5854  0.5907
    1SOL    HW311515   1.077   3.444   4.350  0.7482 -3.7128 -0.9705
    1SOL    MW411516   1.069   3.424   4.435  0.1534  0.1364 -0.0453
    1SOL     OW11517   1.798   3.497   4.107 -0.1084  0.5932 -0.2539
    1SOL    HW211518   1.786   3.469   4.016  0.0188 -1.4237  0.3309
    1SOL    HW311519   1.716   3.542   4.129  0.1846  1.8628 -1.6052
    1SOL    MW411520   1.786   3.499   4.098 -0.0529  0.4947 -0.3548
    1SOL     OW11521   1.228   1.763   4.494 -0.5695 -0.3949  0.0503
    1SOL    HW211522   1.138   1.774   4.525 -0.6419 -1.0650  0.0914
    1SOL    HW311523   1.258   1.682   4.535 -0.2420 -0.6274 -0.6325
    1SOL    MW411524   1.220   1.754   4.503 -0.5358 -0.5140 -0.0348
    1SOL     OW11525   2.180   2.237   4.662 -0.1717  0.2158 -0.3987
    1SOL    HW211526   2.198   2.245   4.568  0.2757 -1.7131 -0.4821
    1SOL    HW311527   2.197   2.325   4.697 -0.7910  1.0749 -2.1899
    1SOL    MW411528   2.184   2.250   4.654 -0.1943  0.0746 -0.6461
    1SOL     OW11529   0.888   3.498   4.119  0.0368  0.3874  0.6005
    1SOL    HW211530   0.871   3.415   4.163  0.8962  0.1105  0.4119
    1SOL    HW311531   0.857   3.484   4.030  0.3441  0.2087  0.5208
    1SOL    MW411532   0.882   3.485   4.113  0.1907  0.3273  0.5651
    1SOL     OW11533   0.005   1.722   4.261 -0.0858 -0.1019 -0.0826
    1SOL    HW211534  -0.003   1.742   4.354 -0.6823 -1.6959  0.2319
    1SOL    HW311535  -0.067   1.662   4.243 -0.2005  0.4914 -1.6668
    1SOL    MW411536  -0.005   1.717   4.271 -0.1798 -0.2341 -0.2503
    1SOL     OW11537   4.035   3.469   4.674  0.2945 -0.8880 -0.3654
    1SOL    HW211538   4.060   3.385   4.634 -0.2120 -1.0751 -0.3002
    1SOL    HW311539   4.085   3.473   4.755  1.1573 -0.6151 -0.9056
    1SOL    MW411540   4.045   3.459   4.679  0.3419 -0.8767 -0.4282
    1SOL     OW11541   3.207   2.391   4.214 -0.3300  0.3459  0.5023
    1SOL    HW211542   3.221   2.405   4.308 -0.2448 -0.9568  0.6944
    1SOL    HW311543   3.119   2.353   4.209  0.3006 -1.0865  0.2051
    1SOL    MW411544   3.197   2.388   4.226 -0.2356 -0.0150  0.4883
    1SOL     OW11545   0.002   4.214   4.110  0.0440  0.6024  0.0514
    1SOL    HW211546  -0.058   4.285   4.135 -0.9223 -0.1642 -0.0450
    1SOL    HW311547   0.002   4.216   4.014 -0.2455  0.2762  0.0400
    1SOL    MW411548  -0.006   4.224   4.101 -0.1216  0.4582  0.0367
    1SOL     OW11549   1.982   2.480   4.113 -0.4089 -0.0926 -0.2724
    1SOL    HW211550   1.911   2.456   4.172 -0.8989 -0.2758 -0.9308
    1SOL    HW311551   2.062   2.460   4.162 -0.8085 -1.2708 -0.0854
    1SOL    MW411552   1.983   2.475   4.127 -0.5263 -0.2720 -0.3347
    1SOL     OW11553   0.749   0.314   4.055 -0.0951 -0.0782 -0.3246
    1SOL    HW211554   0.742   0.346   4.145 -1.0278 -0.5949 -0.2137
    1SOL    HW311555   0.659   0.307   4.025  0.1989 -0.3711 -1.1437
    1SOL    MW411556   0.737   0.318   4.063 -0.1794 -0.1850 -0.4177
    1NA      NA11557   3.092   4.022   0.465  0.0511  0.2546 -0.8390
    1NA      NA11558   0.951   2.429   0.667 -0.1154 -0.4763  0.2670
   4.49070   4.66690  10.00000
