Gromacs Runs On Most of All Computer Systems in water
11558
    1RG35     P    1   2.217   2.396   4.429 -0.1640 -0.1328  0.0630
    1RG35   O1P    2   2.342   2.432   4.497  0.1165 -0.4179  0.0325
    1RG35   O2P    3   2.173   2.257   4.451 -0.4235 -0.5610 -0.1083
    1RG35   O5'    4   2.107   2.475   4.515  0.6744 -0.1211  0.3141
    1RG35   C5'    5   2.083   2.617   4.501  0.2507 -0.3403 -0.3053
    1RG35  H5'1    6   2.041   2.648   4.406  0.3829 -0.0235 -0.2601
    1RG35  H5'2    7   2.183   2.661   4.506 -0.3593  1.0769 -0.3981
    1RG35   C4'    8   1.987   2.671   4.604  0.2442 -0.3221 -0.1547
    1RG35   H4'    9   1.990   2.780   4.598  2.1116 -0.2632  1.2205
    1RG35   O4'   10   1.857   2.641   4.567 -0.1353  0.4620  0.1319
    1RG35   C1'   11   1.774   2.665   4.674  0.2551  0.1519  0.0254
    1RG35   H1'   12   1.712   2.752   4.653 -1.0080 -0.3467  1.5443
    1RG35    N9   13   1.672   2.562   4.687 -0.2350 -0.1437 -0.1532
    1RG35    C8   14   1.535   2.583   4.682 -0.1205 -0.2418  0.3550
    1RG35    H8   15   1.496   2.684   4.673  2.6002  0.8508  0.2422
    1RG35    N7   16   1.461   2.476   4.694 -0.2748 -0.5432  0.4640
    1RG35    C5   17   1.555   2.375   4.720 -0.2218 -0.5465 -0.0597
    1RG35    C6   18   1.537   2.233   4.750 -0.0673 -0.3589 -0.0651
    1RG35    O6   19   1.429   2.166   4.749 -0.2344  0.1366  0.0207
    1RG35    N1   20   1.654   2.170   4.780  0.0437  0.4448 -0.7770
    1RG35    H1   21   1.644   2.072   4.801 -1.9781  0.7852 -0.1143
    1RG35    C2   22   1.773   2.232   4.790  0.6080 -0.1953  0.5798
    1RG35    N2   23   1.885   2.165   4.811 -0.7599 -0.0575 -0.1528
    1RG35   H21   24   1.888   2.067   4.837 -0.5753 -0.1389 -0.4818
    1RG35   H22   25   1.974   2.209   4.795 -0.3250 -0.7749  0.2591
    1RG35    N3   26   1.791   2.354   4.753 -0.0479  0.1528  0.3290
    1RG35    C4   27   1.682   2.428   4.725 -0.4159 -0.2778  0.2323
    1RG35   C3'   28   2.004   2.626   4.748 -0.1223 -0.2269  0.0551
    1RG35   H3'   29   2.010   2.518   4.742  1.1399 -0.2301  1.0812
    1RG35   C2'   30   1.862   2.670   4.798 -0.6387  0.1679 -0.1978
    1RG35  H2'1   31   1.825   2.605   4.878  0.6220  0.7761  0.9019
    1RG35   O2'   32   1.878   2.803   4.840  0.3189 -0.0206 -1.3298
    1RG35  HO'2   33   1.956   2.802   4.896 -0.1286  1.1687 -0.6817
    1RG35   O3'   34   2.111   2.684   4.817 -0.0191  0.4431 -0.0484
    1RG35   H3T   35   2.185   2.623   4.818  0.1776  0.6836  1.7167
    1RG35   O3P   36   2.201   2.446   4.295  0.3053  0.2374  0.5669
    1SOL     OW   37   2.454   1.329   0.496 -0.3398 -0.0047  0.4122
    1SOL    HW2   38   2.453   1.235   0.480 -1.2188  0.0255  0.2663
    1SOL    HW3   39   2.506   1.365   0.424  0.5832 -0.4362  0.8444
    1SOL    MW4   40   2.461   1.321   0.485 -0.3338 -0.0576  0.4500
    1SOL     OW   41   4.248   3.590   0.727  0.5063 -0.2253 -0.0136
    1SOL    HW2   42   4.243   3.685   0.734 -1.2738 -0.3439  0.5978
    1SOL    HW3   43   4.170   3.558   0.772  1.4636 -2.0118  0.4505
    1SOL    MW4   44   4.237   3.598   0.734  0.3977 -0.4771  0.1283
    1SOL     OW   45   2.928   0.338   0.476  0.1312 -0.5791 -0.5840
    1SOL    HW2   46   2.926   0.370   0.567 -1.4726  1.4219 -1.2739
    1SOL    HW3   47   2.903   0.246   0.482 -0.9178 -0.2121  0.9190
    1SOL    MW4   48   2.925   0.330   0.489 -0.2189 -0.2666 -0.4767
    1SOL     OW   49   2.550   2.694   0.675  0.6171 -0.6232 -0.5810
    1SOL    HW2   50   2.533   2.788   0.682 -1.3017 -0.9796  0.0070
    1SOL    HW3   51   2.614   2.676   0.743  0.7074  0.2069 -0.4390
    1SOL    MW4   52   2.556   2.704   0.684  0.3760 -0.5603 -0.4846
    1SOL     OW   53   0.091   3.288   0.399 -0.5503  0.4837 -0.0148
    1SOL    HW2   54   0.017   3.346   0.380 -0.9068 -0.5324 -1.8463
    1SOL    HW3   55   0.056   3.224   0.461 -1.2507 -0.0503 -0.9463
    1SOL    MW4   56   0.076   3.287   0.404 -0.6897  0.2792 -0.3793
    1SOL     OW   57   4.442   2.454   0.723 -0.0265 -0.6472  0.1893
    1SOL    HW2   58   4.441   2.446   0.628  1.9870 -1.4828  0.2054
    1SOL    HW3   59   4.440   2.549   0.739 -0.0816 -0.4963 -0.6977
    1SOL    MW4   60   4.442   2.466   0.713  0.2313 -0.7372  0.0744
    1SOL     OW   61   1.395   0.081   0.493  0.2189  0.0298 -0.2631
    1SOL    HW2   62   1.361   0.116   0.576  0.9764 -0.1526  0.1340
    1SOL    HW3   63   1.404   0.158   0.437 -0.9205  0.0715 -0.4105
    1SOL    MW4   64   1.391   0.096   0.497  0.1684  0.0113 -0.2302
    1SOL     OW   65   4.277   0.279   0.466  0.1492  0.1296 -0.2623
    1SOL    HW2   66   4.246   0.251   0.552 -1.0056  0.2049 -0.6526
    1SOL    HW3   67   4.224   0.230   0.403  1.6243 -0.6318 -0.9536
    1SOL    MW4   68   4.266   0.269   0.469  0.1912  0.0391 -0.4050
    1SOL     OW   69   2.592   1.623   0.316 -0.1143 -0.0991  0.0270
    1SOL    HW2   70   2.504   1.650   0.340 -0.1427 -0.4824  0.3835
    1SOL    HW3   71   2.581   1.535   0.280  0.1643 -0.2945  0.4158
    1SOL    MW4   72   2.579   1.615   0.315 -0.0815 -0.1754  0.1253
    1SOL     OW   73   2.219   0.121   0.780 -0.4972  0.1276 -0.5835
    1SOL    HW2   74   2.301   0.079   0.806 -1.3195 -2.3785 -1.8494
    1SOL    HW3   75   2.221   0.121   0.685 -0.9274  2.2094 -0.6033
    1SOL    MW4   76   2.230   0.115   0.771 -0.6626  0.0716 -0.7531
    1SOL     OW   77   4.038   1.149   0.819 -0.1644 -0.0545 -0.3366
    1SOL    HW2   78   4.039   1.163   0.914  1.4923  0.4920 -0.4060
    1SOL    HW3   79   3.969   1.206   0.787  1.6518  2.5458  0.1933
    1SOL    MW4   80   4.029   1.158   0.827  0.2942  0.3607 -0.2758
    1SOL     OW   81   0.453   2.441   0.744 -0.1680  0.1511  0.3028
    1SOL    HW2   82   0.424   2.415   0.657  0.7970  1.2161 -0.3550
    1SOL    HW3   83   0.382   2.413   0.802 -0.7053 -0.8098 -0.7771
    1SOL    MW4   84   0.440   2.434   0.740 -0.1116  0.1645  0.0736
    1SOL     OW   85   4.018   0.688   0.477  0.3020  0.0330 -0.4144
    1SOL    HW2   86   4.030   0.752   0.547 -0.9445 -0.3897  0.1994
    1SOL    HW3   87   4.106   0.655   0.459  0.9037  1.5919 -0.4417
    1SOL    MW4   88   4.031   0.692   0.484  0.2170  0.1830 -0.3370
    1SOL     OW   89   4.036   1.911   0.826  0.5658  0.3775  0.2468
    1SOL    HW2   90   4.025   1.817   0.808 -0.5959  0.6970 -0.7457
    1SOL    HW3   91   4.024   1.918   0.920  0.0703 -0.3931  0.2505
    1SOL    MW4   92   4.033   1.899   0.836  0.3476  0.3181  0.1163
    1SOL     OW   93   3.910   3.332   0.493 -0.7041 -0.1362  0.2042
    1SOL    HW2   94   3.979   3.355   0.430 -1.0387 -0.1749 -0.1761
    1SOL    HW3   95   3.862   3.413   0.508 -0.6094 -0.1205  0.4341
    1SOL    MW4   96   3.913   3.346   0.487 -0.7358 -0.1392  0.1844
    1SOL     OW   97   0.179   1.319   0.420  0.6544 -0.3445  0.1338
    1SOL    HW2   98   0.213   1.318   0.510 -0.1501  0.4483  0.4522
    1SOL    HW3   99   0.198   1.407   0.388  0.4205 -0.4448 -0.2793
    1SOL    MW4  100   0.186   1.330   0.428  0.5174 -0.2532  0.1213
    1SOL     OW  101   3.320   0.350   0.438 -0.1120  0.4919  0.1092
    1SOL    HW2  102   3.282   0.264   0.457 -0.0549  0.5077  0.2881
    1SOL    HW3  103   3.245   0.403   0.409 -0.1743  0.4333  0.1623
    1SOL    MW4  104   3.305   0.346   0.436 -0.1128  0.4862  0.1398
    1SOL     OW  105   2.015   0.260   0.236 -0.0858  0.1867  0.3920
    1SOL    HW2  106   1.921   0.242   0.241 -0.1931  0.7317  0.3308
    1SOL    HW3  107   2.037   0.299   0.321  0.2665 -0.7729  0.7521
    1SOL    MW4  108   2.006   0.263   0.248 -0.0534  0.1320  0.4314
    1SOL     OW  109   2.386   1.970   0.452 -0.0966  0.8382 -0.2697
    1SOL    HW2  110   2.351   1.880   0.449 -2.4358  1.7478 -1.9459
    1SOL    HW3  111   2.475   1.962   0.419  0.0368 -0.9946  0.4462
    1SOL    MW4  112   2.393   1.957   0.447 -0.3877  0.7163 -0.3964
    1SOL     OW  113   0.247   0.744   0.867 -0.0911  0.3392  0.1704
    1SOL    HW2  114   0.249   0.746   0.963 -1.0910  2.1565  0.1783
    1SOL    HW3  115   0.322   0.797   0.840 -0.7914  1.2317 -0.0345
    1SOL    MW4  116   0.257   0.751   0.877 -0.3154  0.6968  0.1444
    1SOL     OW  117   2.542   2.332   0.335  0.0917 -0.1068  0.1938
    1SOL    HW2  118   2.635   2.349   0.352  0.3120  1.0690 -1.9601
    1SOL    HW3  119   2.543   2.263   0.268 -0.6236 -0.5230  0.6031
    1SOL    MW4  120   2.555   2.325   0.328  0.0262 -0.0069 -0.0363
    1SOL     OW  121   0.633   0.304   0.483 -0.2993 -0.1094  0.2867
    1SOL    HW2  122   0.647   0.398   0.472 -1.6690  0.1734  0.8679
    1SOL    HW3  123   0.607   0.293   0.574 -1.8161 -0.8284 -0.2117
    1SOL    MW4  124   0.631   0.315   0.493 -0.6801 -0.1670  0.2976
    1SOL     OW  125   3.795   1.275   0.731 -0.4847 -0.3636 -0.1886
    1SOL    HW2  126   3.801   1.290   0.637  1.4934 -1.1084 -0.2083
    1SOL    HW3  127   3.721   1.215   0.741 -0.6082 -0.4082 -1.2949
    1SOL    MW4  128   3.786   1.269   0.720 -0.2401 -0.4677 -0.3372
    1SOL     OW  129   0.415   4.010   0.731  0.3879 -0.4177  0.2735
    1SOL    HW2  130   0.382   4.031   0.643  0.0646 -1.4853  0.1368
    1SOL    HW3  131   0.412   4.094   0.778 -0.0764  0.0211 -0.5275
    1SOL    MW4  132   0.410   4.024   0.725  0.2840 -0.5016  0.1498
    1SOL     OW  133   0.156   4.597   0.850  0.0853 -0.1355 -0.1248
    1SOL    HW2  134   0.063   4.623   0.848  0.4007  1.0391  0.0119
    1SOL    HW3  135   0.200   4.661   0.794  0.8464 -0.5485 -0.0012
    1SOL    MW4  136   0.149   4.609   0.843  0.2273 -0.0348 -0.0904
    1SOL     OW  137   4.198   1.745   0.340 -0.0477 -0.1151  0.4384
    1SOL    HW2  138   4.222   1.838   0.341  0.5461 -0.2718  0.6331
    1SOL    HW3  139   4.229   1.711   0.423 -1.9794 -0.0662  1.1998
    1SOL    MW4  140   4.205   1.753   0.351 -0.2246 -0.1295  0.5645
    1SOL     OW  141   2.040   2.321   0.835  0.1944  0.1016  0.5648
    1SOL    HW2  142   2.037   2.303   0.929 -0.4834  0.0173  0.5309
    1SOL    HW3  143   1.955   2.359   0.815  0.8880  1.5223  0.2628
    1SOL    MW4  144   2.029   2.324   0.844  0.1962  0.2780  0.5205
    1SOL     OW  145   4.374   4.539   0.607 -0.4670 -0.0409 -0.1482
    1SOL    HW2  146   4.391   4.566   0.697 -0.3846  0.2476 -0.2501
    1SOL    HW3  147   4.461   4.516   0.573 -0.6078 -0.9644  0.1109
    1SOL    MW4  148   4.388   4.540   0.614 -0.4745 -0.1245 -0.1276
    1SOL     OW  149   0.773   3.986   0.473  0.2047 -0.0594  0.4455
    1SOL    HW2  150   0.801   3.988   0.565  0.2985 -0.6220  0.4310
    1SOL    HW3  151   0.853   4.000   0.423  0.4287 -1.4181  0.4104
    1SOL    MW4  152   0.787   3.988   0.479  0.2466 -0.3128  0.4389
    1SOL     OW  153   1.576   2.335   0.834  0.0911 -0.3982  0.4812
    1SOL    HW2  154   1.490   2.368   0.859  0.0256 -1.1681  1.3119
    1SOL    HW3  155   1.558   2.253   0.787  0.3924 -0.8260  1.1055
    1SOL    MW4  156   1.562   2.328   0.831  0.1222 -0.5562  0.6731
    1SOL     OW  157   2.121   3.060   0.850  0.6853 -0.4889  0.1265
    1SOL    HW2  158   2.095   2.979   0.807 -1.5540  0.3320 -0.1379
    1SOL    HW3  159   2.078   3.129   0.800  2.4704  0.8817  0.4108
    1SOL    MW4  160   2.112   3.059   0.838  0.6254 -0.1998  0.1292
    1SOL     OW  161   2.712   2.717   0.447  0.4076 -0.0262 -0.2333
    1SOL    HW2  162   2.724   2.633   0.403 -0.5909 -0.0018 -0.5636
    1SOL    HW3  163   2.649   2.699   0.516 -0.4380  0.6296 -0.8274
    1SOL    MW4  164   2.706   2.704   0.450  0.1643  0.0639 -0.3553
    1SOL     OW  165   0.297   0.092   0.670  0.2500 -0.2678 -0.2953
    1SOL    HW2  166   0.330   0.042   0.596  1.1541  0.4375 -0.3694
    1SOL    HW3  167   0.234   0.153   0.632  0.9678  0.3282 -0.5309
    1SOL    MW4  168   0.293   0.094   0.656  0.4641 -0.0961 -0.3361
    1SOL     OW  169   1.774   3.150   0.369  0.1039 -0.1026  0.8103
    1SOL    HW2  170   1.729   3.076   0.328  0.4443  0.0439  0.1617
    1SOL    HW3  171   1.704   3.202   0.407 -0.2715  0.0179 -0.0277
    1SOL    MW4  172   1.759   3.147   0.368  0.0993 -0.0675  0.6142
    1SOL     OW  173   2.846   4.468   0.452 -0.4753 -0.4181  0.3366
    1SOL    HW2  174   2.760   4.435   0.426 -0.8557  0.6874  0.1723
    1SOL    HW3  175   2.856   4.437   0.542 -0.2673 -2.0567 -0.2386
    1SOL    MW4  176   2.836   4.459   0.461 -0.4981 -0.4883  0.2391
    1SOL     OW  177   0.429   1.192   0.418 -0.1402  0.4519 -0.5174
    1SOL    HW2  178   0.466   1.272   0.454  0.5341  0.1459 -0.5345
    1SOL    HW3  179   0.337   1.214   0.400 -0.5395  0.5555  1.5375
    1SOL    MW4  180   0.422   1.205   0.421 -0.1039  0.4252 -0.2486
    1SOL     OW  181   3.379   0.677   0.844  0.0460  0.1612  0.3203
    1SOL    HW2  182   3.394   0.594   0.798 -3.5886  0.5935 -1.8002
    1SOL    HW3  183   3.437   0.739   0.801 -0.6691 -0.2645 -1.2906
    1SOL    MW4  184   3.389   0.674   0.833 -0.5279  0.1621 -0.1720
    1SOL     OW  185   2.023   3.243   0.682  0.5665  0.1465  0.0397
    1SOL    HW2  186   2.055   3.332   0.675 -1.4275  1.0210  1.6372
    1SOL    HW3  187   2.028   3.208   0.593  1.4309  1.8032 -0.5732
    1SOL    MW4  188   2.028   3.250   0.670  0.4172  0.4804  0.1696
    1SOL     OW  189   1.990   2.794   0.759 -0.0006 -0.7356  0.2476
    1SOL    HW2  190   1.988   2.805   0.664  0.4556 -1.9966  0.0815
    1SOL    HW3  191   2.044   2.716   0.773  0.4762 -0.1819  1.5749
    1SOL    MW4  192   1.997   2.785   0.749  0.1224 -0.8287  0.4008
    1SOL     OW  193   1.922   2.061   0.496  0.6411 -0.1177 -0.2424
    1SOL    HW2  194   1.998   2.114   0.474  0.3270  1.1134  1.5102
    1SOL    HW3  195   1.941   2.026   0.583 -0.2953 -0.7401 -0.2757
    1SOL    MW4  196   1.935   2.063   0.505  0.4761 -0.0374 -0.0156
    1SOL     OW  197   3.565   1.859   0.856 -0.3008 -0.4568 -0.5558
    1SOL    HW2  198   3.633   1.917   0.823 -0.2109 -0.1576  0.1340
    1SOL    HW3  199   3.562   1.787   0.793  2.5399 -1.8578  0.7572
    1SOL    MW4  200   3.574   1.857   0.844  0.0858 -0.6021 -0.2915
    1SOL     OW  201   0.235   2.826   0.710 -0.1470  0.1384 -0.1549
    1SOL    HW2  202   0.310   2.779   0.745 -0.8408 -0.9398 -0.0741
    1SOL    HW3  203   0.239   2.912   0.751  0.8673 -0.0136  0.0764
    1SOL    MW4  204   0.245   2.831   0.720 -0.1047 -0.0238 -0.1137
    1SOL     OW  205   1.601   4.558   0.526 -0.2701 -0.2807  0.0221
    1SOL    HW2  206   1.524   4.613   0.513 -0.1670 -0.4639 -1.4582
    1SOL    HW3  207   1.672   4.606   0.483  0.3709 -0.2733  1.0858
    1SOL    MW4  208   1.601   4.572   0.518 -0.1720 -0.3037 -0.0328
    1SOL     OW  209   4.158   3.300   0.312  0.2645  0.1393  0.1484
    1SOL    HW2  210   4.232   3.359   0.322  0.3989 -0.3309  2.2250
    1SOL    HW3  211   4.169   3.262   0.224  1.8128  0.9558 -0.0328
    1SOL    MW4  212   4.169   3.303   0.302  0.4859  0.1850  0.3984
    1SOL     OW  213   2.417   2.016   0.729  0.6193  0.3543  0.5899
    1SOL    HW2  214   2.417   2.010   0.634  0.5641  1.0552  0.5446
    1SOL    HW3  215   2.461   2.099   0.748  2.0234 -0.5050  1.2188
    1SOL    MW4  216   2.423   2.026   0.719  0.7975  0.3333  0.6670
    1SOL     OW  217   2.906   3.035   0.887  0.0087 -0.2391  0.0621
    1SOL    HW2  218   2.829   3.069   0.841  0.6248  0.3747 -0.5264
    1SOL    HW3  219   2.912   2.944   0.858 -1.5195 -0.8325  1.4799
    1SOL    MW4  220   2.896   3.028   0.877 -0.1116 -0.2363  0.1715
    1SOL     OW  221   0.865   4.281   0.857 -0.6112  0.5062  0.2411
    1SOL    HW2  222   0.861   4.209   0.794 -0.6743  0.8253 -0.1183
    1SOL    HW3  223   0.944   4.329   0.834 -0.5023  0.4775  0.5613
    1SOL    MW4  224   0.875   4.278   0.846 -0.6051  0.5445  0.2360
    1SOL     OW  225   2.978   1.185   0.433  0.0917  0.0811  0.2462
    1SOL    HW2  226   3.062   1.230   0.426  0.0312  0.1945  0.2450
    1SOL    HW3  227   2.949   1.202   0.522 -0.4746  1.0114 -0.1092
    1SOL    MW4  228   2.985   1.193   0.444  0.0088  0.2189  0.1991
    1SOL     OW  229   0.957   3.477   0.417  0.4881 -0.2866  0.4733
    1SOL    HW2  230   1.037   3.501   0.463  0.7032  1.5129 -0.7935
    1SOL    HW3  231   0.985   3.453   0.329 -0.0217 -2.8497  0.9656
    1SOL    MW4  232   0.971   3.477   0.412  0.4492 -0.3877  0.3712
    1SOL     OW  233   2.046   0.016   0.355 -0.2617 -0.4189 -0.0402
    1SOL    HW2  234   2.131   0.042   0.390 -0.0638 -1.8070  0.5357
    1SOL    HW3  235   2.033   0.072   0.278  0.3923  0.9864  0.8496
    1SOL    MW4  236   2.055   0.027   0.350 -0.1490 -0.4166  0.1532
    1SOL     OW  237   0.514   4.174   0.400 -0.5420 -0.0342  0.6799
    1SOL    HW2  238   0.532   4.265   0.424  1.4998 -0.5520  1.1865
    1SOL    HW3  239   0.588   4.125   0.436 -1.8386 -1.9565  0.7860
    1SOL    MW4  240   0.526   4.179   0.408 -0.4436 -0.3567  0.7608
    1SOL     OW  241   0.312   2.335   0.512  0.2572 -0.1339  0.4437
    1SOL    HW2  242   0.253   2.397   0.469  1.7636  0.1585 -1.2429
    1SOL    HW3  243   0.282   2.249   0.482  0.8085  0.0253 -0.5705
    1SOL    MW4  244   0.300   2.332   0.503  0.5287 -0.0744  0.0874
    1SOL     OW  245   1.286   0.815   0.492  0.1969  0.4399 -0.4931
    1SOL    HW2  246   1.264   0.723   0.477 -1.1708  0.6094  0.4032
    1SOL    HW3  247   1.303   0.821   0.586  0.6483  1.0289 -0.6070
    1SOL    MW4  248   1.286   0.804   0.503  0.0761  0.5399 -0.3899
    1SOL     OW  249   0.233   3.818   0.841  0.0646 -0.1744 -0.2696
    1SOL    HW2  250   0.220   3.847   0.931 -0.5638  1.3215 -0.8131
    1SOL    HW3  251   0.298   3.879   0.806 -0.7042  0.1188 -1.2156
    1SOL    MW4  252   0.240   3.830   0.848 -0.1197  0.0613 -0.4662
    1SOL     OW  253   2.174   0.801   0.491 -0.3384 -0.5860  0.1157
    1SOL    HW2  254   2.103   0.828   0.433  1.1068  0.4768 -1.1919
    1SOL    HW3  255   2.214   0.726   0.447  1.0413  0.4976 -0.5073
    1SOL    MW4  256   2.170   0.795   0.478  0.0341 -0.3029 -0.1391
    1SOL     OW  257   0.442   0.918   0.784 -0.0725  0.2246 -0.1273
    1SOL    HW2  258   0.515   0.864   0.812  0.3064  1.1204  0.6261
    1SOL    HW3  259   0.446   0.916   0.688  0.3913 -0.4500 -0.0957
    1SOL    MW4  260   0.452   0.911   0.775  0.0387  0.2537 -0.0237
    1SOL     OW  261   3.340   4.076   0.405  0.7747 -0.1486  0.1780
    1SOL    HW2  262   3.435   4.073   0.417  0.7327  1.7528  1.2274
    1SOL    HW3  263   3.322   4.167   0.379 -0.7346 -0.5655 -0.3018
    1SOL    MW4  264   3.351   4.088   0.403  0.5703  0.0472  0.2532
    1SOL     OW  265   1.323   1.402   0.341 -0.1385 -0.3952  0.1118
    1SOL    HW2  266   1.328   1.398   0.246 -0.7052  2.3051 -0.0509
    1SOL    HW3  267   1.398   1.349   0.370  1.4997  0.7604 -1.8572
    1SOL    MW4  268   1.334   1.394   0.332  0.0030  0.1135 -0.1695
    1SOL     OW  269   1.355   3.180   0.749 -0.0173 -0.4472  0.0707
    1SOL    HW2  270   1.343   3.207   0.658 -1.0188  1.5430  0.7791
    1SOL    HW3  271   1.272   3.141   0.774 -0.5232  1.0516  0.8048
    1SOL    MW4  272   1.343   3.178   0.740 -0.2160  0.0131  0.2611
    1SOL     OW  273   0.032   0.645   0.355 -0.1707  0.3801  0.2134
    1SOL    HW2  274   0.049   0.670   0.264  0.0009 -0.4898 -0.0005
    1SOL    HW3  275   0.058   0.553   0.359 -0.7371  0.2561  0.9983
    1SOL    MW4  276   0.038   0.636   0.343 -0.2228  0.2489  0.2887
    1SOL     OW  277   2.820   0.074   0.494 -0.7480  0.3547 -0.1637
    1SOL    HW2  278   2.787   0.059   0.583  0.8505  0.1282  0.4066
    1SOL    HW3  279   2.839  -0.013   0.460 -1.9580  0.4010 -0.9678
    1SOL    MW4  280   2.818   0.061   0.502 -0.6971  0.3309 -0.1945
    1SOL     OW  281   1.109   3.090   0.874 -0.0738 -0.0128  0.0695
    1SOL    HW2  282   1.038   3.134   0.826  0.1374  0.6885  0.3988
    1SOL    HW3  283   1.100   2.997   0.850  0.3410  0.3909 -1.7468
    1SOL    MW4  284   1.098   3.083   0.864  0.0088  0.1333 -0.1267
    1SOL     OW  285   1.751   2.085   0.189 -0.2605  0.0844 -0.6330
    1SOL    HW2  286   1.719   2.131   0.266  1.2840 -0.9385  0.6491
    1SOL    HW3  287   1.845   2.104   0.186  0.0570 -1.4529 -1.1452
    1SOL    MW4  288   1.760   2.094   0.199 -0.0149 -0.2534 -0.5314
    1SOL     OW  289   2.220   1.493   0.502 -0.1346  0.3447  0.3975
    1SOL    HW2  290   2.210   1.506   0.597 -0.4875  0.0806  0.3973
    1SOL    HW3  291   2.299   1.441   0.493  0.0816  0.6463  0.5281
    1SOL    MW4  292   2.229   1.488   0.514 -0.1526  0.3499  0.4147
    1SOL     OW  293   0.647   3.044   0.859 -0.5591  0.2199 -0.0502
    1SOL    HW2  294   0.564   3.087   0.835 -2.1390 -2.0847  1.0696
    1SOL    HW3  295   0.662   3.068   0.950  0.4913  1.3262 -0.4978
    1SOL    MW4  296   0.638   3.053   0.868 -0.6289  0.0618  0.0385
    1SOL     OW  297   0.585   3.764   0.451  0.0803 -0.1752  0.4700
    1SOL    HW2  298   0.622   3.849   0.474  0.3835  0.0642 -0.8480
    1SOL    HW3  299   0.661   3.712   0.423 -0.2026 -0.6427  0.5577
    1SOL    MW4  300   0.600   3.768   0.450  0.0830 -0.2053  0.3077
    1SOL     OW  301   0.626   2.938   0.194  0.0967 -0.0296 -0.5482
    1SOL    HW2  302   0.640   2.904   0.282 -1.2034  0.9523  0.0589
    1SOL    HW3  303   0.653   2.867   0.136 -0.8222 -1.4104  0.6700
    1SOL    MW4  304   0.631   2.924   0.198 -0.1962 -0.0820 -0.3073
    1SOL     OW  305   1.770   0.904   0.728  0.2046  0.3857  0.2473
    1SOL    HW2  306   1.785   0.994   0.757 -0.4307  0.7504 -0.5503
    1SOL    HW3  307   1.852   0.859   0.748  0.4703  1.1041  0.7957
    1SOL    MW4  308   1.783   0.910   0.734  0.1558  0.5285  0.2143
    1SOL     OW  309   0.049   3.961   0.698 -0.0390  0.1919 -0.4025
    1SOL    HW2  310  -0.032   3.931   0.739  0.0242  0.9987  0.3264
    1SOL    HW3  311   0.118   3.911   0.740 -0.1861 -0.8361 -1.3544
    1SOL    MW4  312   0.047   3.951   0.709 -0.0501  0.1626 -0.4318
    1SOL     OW  313   3.340   4.576   0.798 -0.0656 -0.6000 -0.2127
    1SOL    HW2  314   3.316   4.598   0.887 -0.0009  0.0150 -0.3418
    1SOL    HW3  315   3.421   4.624   0.782 -0.5990  0.0833 -0.9291
    1SOL    MW4  316   3.348   4.585   0.807 -0.1273 -0.4287 -0.3242
    1SOL     OW  317   4.384   2.464   0.446 -0.0106 -0.0208  0.0693
    1SOL    HW2  318   4.327   2.540   0.440  1.5101  1.1789  0.4754
    1SOL    HW3  319   4.325   2.389   0.440 -1.4742  1.1779 -0.8193
    1SOL    MW4  320   4.369   2.464   0.445 -0.0029  0.2956  0.0056
    1SOL     OW  321   0.596   2.273   0.455  0.2941 -0.2085  0.1341
    1SOL    HW2  322   0.503   2.291   0.436  0.3671 -0.4970 -0.4879
    1SOL    HW3  323   0.598   2.181   0.480  0.4236 -0.2115  0.1111
    1SOL    MW4  324   0.584   2.263   0.456  0.3209 -0.2470  0.0490
    1SOL     OW  325   2.468   4.388   0.728 -0.1263 -0.4706  0.0219
    1SOL    HW2  326   2.398   4.323   0.739  0.4389 -1.2180 -0.7110
    1SOL    HW3  327   2.486   4.388   0.634 -0.2248  0.8730  0.0004
    1SOL    MW4  328   2.461   4.379   0.717 -0.0646 -0.3924 -0.0777
    1SOL     OW  329   3.273   3.103   0.403  0.2711  0.2888  0.4257
    1SOL    HW2  330   3.305   3.015   0.423  0.9319  0.3736 -0.2538
    1SOL    HW3  331   3.337   3.139   0.341 -1.1497  0.4543 -0.9627
    1SOL    MW4  332   3.286   3.096   0.397  0.1709  0.3219  0.1529
    1SOL     OW  333   2.700   3.943   0.508  0.0567  0.0766 -0.0644
    1SOL    HW2  334   2.684   3.945   0.602  0.8891 -0.9022  0.1131
    1SOL    HW3  335   2.620   3.905   0.470 -0.4804  0.9409  0.1848
    1SOL    MW4  336   2.687   3.938   0.515  0.0956  0.0615 -0.0081
    1SOL     OW  337   4.293   1.283   0.747 -0.0479  0.2798  0.0157
    1SOL    HW2  338   4.375   1.250   0.784 -0.2018 -0.2876 -0.1564
    1SOL    HW3  339   4.227   1.221   0.776 -0.6627  1.5949  1.4646
    1SOL    MW4  340   4.295   1.271   0.756 -0.1493  0.3785  0.1841
    1SOL     OW  341   1.971   1.172   0.463 -0.2158 -0.1758  0.4360
    1SOL    HW2  342   1.919   1.212   0.392  0.1087 -0.6344 -0.0653
    1SOL    HW3  343   1.940   1.082   0.468 -0.0046 -0.2363  0.6535
    1SOL    MW4  344   1.960   1.166   0.454 -0.1451 -0.2444  0.3985
    1SOL     OW  345   1.891   2.432   0.290 -0.1418  0.3036 -0.0595
    1SOL    HW2  346   1.845   2.444   0.373  0.1681  1.5800 -0.0492
    1SOL    HW3  347   1.944   2.512   0.281 -0.2358  0.2132 -1.5169
    1SOL    MW4  348   1.892   2.444   0.299 -0.1134  0.4601 -0.2505
    1SOL     OW  349   0.869   3.122   0.315 -0.1728 -0.3667  0.2900
    1SOL    HW2  350   0.796   3.074   0.276  0.1969 -0.1532 -0.6647
    1SOL    HW3  351   0.830   3.166   0.392 -0.9235 -0.6912  0.1006
    1SOL    MW4  352   0.854   3.122   0.320 -0.2230 -0.3815  0.1391
    1SOL     OW  353   1.029   2.903   0.281 -0.3528 -0.0837 -0.5808
    1SOL    HW2  354   1.109   2.925   0.235  0.0563  0.4092  0.3444
    1SOL    HW3  355   0.991   2.987   0.306  0.8959 -0.3316  2.4161
    1SOL    MW4  356   1.034   2.917   0.279 -0.1341 -0.0513 -0.0633
    1SOL     OW  357   1.995   2.820   0.474 -0.1322  0.3950  0.3344
    1SOL    HW2  358   2.034   2.762   0.408  0.3582  0.5630  0.4737
    1SOL    HW3  359   1.901   2.810   0.462 -0.0473  0.7317 -0.6764
    1SOL    MW4  360   1.988   2.811   0.463 -0.0564  0.4616  0.2194
    1SOL     OW  361   3.714   4.335   0.456  0.2055  0.3476  0.2841
    1SOL    HW2  362   3.668   4.388   0.391  2.0086  1.6645  0.0578
    1SOL    HW3  363   3.806   4.360   0.447  0.6338 -0.3215  2.5124
    1SOL    MW4  364   3.720   4.346   0.446  0.5000  0.4330  0.5482
    1SOL     OW  365   3.339   3.065   0.858 -0.5820 -0.3483  0.1035
    1SOL    HW2  366   3.257   3.111   0.844 -0.0708  0.4683 -0.2296
    1SOL    HW3  367   3.357   3.077   0.952 -0.7883 -0.4369  0.1543
    1SOL    MW4  368   3.331   3.072   0.869 -0.5417 -0.2522  0.0662
    1SOL     OW  369   2.296   1.335   0.197 -0.9036  0.5123  0.5905
    1SOL    HW2  370   2.223   1.393   0.219 -1.6554 -0.6082  1.0541
    1SOL    HW3  371   2.274   1.252   0.238 -0.8286 -0.7229 -1.7900
    1SOL    MW4  372   2.284   1.332   0.205 -0.9928  0.2016  0.3375
    1SOL     OW  373   4.277   2.073   0.711 -0.2949  0.2225 -0.1355
    1SOL    HW2  374   4.349   2.029   0.756  0.6699  0.6566 -1.2070
    1SOL    HW3  375   4.200   2.021   0.733  0.8659 -2.2742 -1.6582
    1SOL    MW4  376   4.276   2.060   0.720 -0.0143 -0.0498 -0.4777
    1SOL     OW  377   0.392   0.235   0.354 -0.5698  0.1193  0.3435
    1SOL    HW2  378   0.383   0.144   0.384 -0.1462  0.2100  0.7525
    1SOL    HW3  379   0.478   0.262   0.384 -1.4740  1.3008  1.9630
    1SOL    MW4  380   0.402   0.226   0.362 -0.6332  0.2871  0.6112
    1SOL     OW  381   4.209   3.042   0.862  0.0949  0.4398 -0.5354
    1SOL    HW2  382   4.140   3.100   0.829  0.1702  0.2622 -1.0138
    1SOL    HW3  383   4.290   3.088   0.840  0.1066  1.1784  1.0255
    1SOL    MW4  384   4.211   3.056   0.855  0.1063  0.5138 -0.3926
    1SOL     OW  385   0.213   2.092   0.772 -0.4191 -0.0788 -0.4286
    1SOL    HW2  386   0.287   2.049   0.816 -1.1612 -1.4225 -0.4561
    1SOL    HW3  387   0.219   2.184   0.799  0.8827 -0.3031  0.0820
    1SOL    MW4  388   0.224   2.098   0.781 -0.3453 -0.2856 -0.3649
    1SOL     OW  389   4.486   4.231   0.821  0.2951  0.1347 -0.1329
    1SOL    HW2  390   4.470   4.219   0.915  0.3776  0.7350 -0.0352
    1SOL    HW3  391   4.504   4.143   0.788  1.3734  0.0581  0.6264
    1SOL    MW4  392   4.487   4.218   0.829  0.4482  0.2036 -0.0198
    1SOL     OW  393   1.555   2.528   0.181 -0.0693 -0.3517 -0.1947
    1SOL    HW2  394   1.647   2.503   0.179  0.5210  1.7774 -0.4872
    1SOL    HW3  395   1.532   2.527   0.274 -0.0726 -2.0002 -0.2093
    1SOL    MW4  396   1.564   2.525   0.193  0.0082 -0.2885 -0.2352
    1SOL     OW  397   2.866   2.002   0.699 -0.0390  0.2292 -0.0161
    1SOL    HW2  398   2.941   1.981   0.755 -0.7061 -0.0725  0.7789
    1SOL    HW3  399   2.790   1.982   0.753 -0.6957  0.0599 -0.9940
    1SOL    MW4  400   2.866   1.997   0.713 -0.2136  0.1669 -0.0402
    1SOL     OW  401   1.784   0.107   0.696  0.3140 -0.2847 -0.1791
    1SOL    HW2  402   1.709   0.087   0.752 -0.5440 -1.4409 -1.7061
    1SOL    HW3  403   1.859   0.066   0.740 -0.1119 -0.0067  0.8151
    1SOL    MW4  404   1.784   0.099   0.709  0.1446 -0.4006 -0.2494
    1SOL     OW  405   2.279   0.140   0.502 -0.0382 -0.1755 -0.7426
    1SOL    HW2  406   2.371   0.134   0.475  0.1996 -0.9897  0.2183
    1SOL    HW3  407   2.257   0.232   0.492  1.1729  0.2044 -0.0816
    1SOL    MW4  408   2.288   0.151   0.497  0.1528 -0.2328 -0.5286
    1SOL     OW  409   1.527   2.101   0.713  0.0329 -0.1675 -0.1376
    1SOL    HW2  410   1.537   2.086   0.619  0.2044 -2.9157  0.2825
    1SOL    HW3  411   1.457   2.042   0.740 -1.3208  1.9842  1.1366
    1SOL    MW4  412   1.519   2.091   0.704 -0.1233 -0.2463  0.0859
    1SOL     OW  413   1.649   0.837   0.154  0.0537 -0.2490 -0.0954
    1SOL    HW2  414   1.742   0.828   0.137  0.2757 -0.6416  1.2431
    1SOL    HW3  415   1.610   0.756   0.120  0.5458 -1.2123  1.5322
    1SOL    MW4  416   1.656   0.825   0.148  0.1479 -0.4279  0.2959
    1SOL     OW  417   1.639   3.590   0.459 -0.3434 -0.0766 -0.1544
    1SOL    HW2  418   1.620   3.680   0.434  0.9498 -0.1192 -1.3594
    1SOL    HW3  419   1.730   3.594   0.491 -0.6874 -0.7315  0.9091
    1SOL    MW4  420   1.649   3.603   0.460 -0.2182 -0.1683 -0.1731
    1SOL     OW  421   1.746   4.298   0.448  0.0821  0.1862  0.7010
    1SOL    HW2  422   1.840   4.312   0.439  0.2771 -0.7688  1.1917
    1SOL    HW3  423   1.709   4.386   0.455  1.0302  0.5417  1.3569
    1SOL    MW4  424   1.753   4.311   0.448  0.2331  0.1073  0.8523
    1SOL     OW  425   1.087   1.526   0.841  0.1106  0.0625 -0.0063
    1SOL    HW2  426   1.083   1.434   0.814 -0.0421  0.3126 -0.8365
    1SOL    HW3  427   1.172   1.557   0.809 -0.1811  0.4316 -0.4293
    1SOL    MW4  428   1.098   1.518   0.833  0.0520  0.1441 -0.1717
    1SOL     OW  429   1.335   0.153   0.753  0.5671 -0.0127 -0.0918
    1SOL    HW2  430   1.416   0.123   0.793 -0.6037  0.5348  2.8273
    1SOL    HW3  431   1.339   0.248   0.760  0.3804  0.1108 -1.4415
    1SOL    MW4  432   1.346   0.162   0.759  0.3879  0.0758  0.1153
    1SOL     OW  433   4.009   2.278   0.315  0.0930  0.0362  0.0467
    1SOL    HW2  434   4.009   2.236   0.229 -1.3532  0.9279 -0.4044
    1SOL    HW3  435   4.095   2.259   0.351  0.3791 -1.1329 -1.2127
    1SOL    MW4  436   4.020   2.270   0.308 -0.0601 -0.0002 -0.1790
    1SOL     OW  437   1.941   0.812   0.131 -0.1735  0.0237  0.5962
    1SOL    HW2  438   1.968   0.721   0.143  0.5973  0.0462 -0.8752
    1SOL    HW3  439   2.023   0.860   0.119 -0.6532  0.7190  0.0702
    1SOL    MW4  440   1.955   0.807   0.131 -0.1351  0.1184  0.3326
    1SOL     OW  441   0.878   4.040   0.733  0.0652 -0.0432 -0.1322
    1SOL    HW2  442   0.802   3.992   0.767 -0.8225  0.9137 -0.7733
    1SOL    HW3  443   0.953   3.990   0.765 -0.7902 -0.0723  1.9133
    1SOL    MW4  444   0.878   4.027   0.742 -0.1647  0.0792  0.0531
    1SOL     OW  445   3.987   2.709   0.778 -0.2834 -0.6187 -0.1487
    1SOL    HW2  446   3.976   2.615   0.769  0.1667 -0.6253 -0.6590
    1SOL    HW3  447   4.070   2.728   0.735 -0.7619  0.1226 -0.7813
    1SOL    MW4  448   3.996   2.699   0.771 -0.2871 -0.5217 -0.2995
    1SOL     OW  449   3.781   3.849   0.396 -0.3589  0.2229  0.0935
    1SOL    HW2  450   3.874   3.872   0.394 -0.4960  0.6710 -1.9760
    1SOL    HW3  451   3.737   3.931   0.420 -0.2547  0.0799  0.7924
    1SOL    MW4  452   3.787   3.863   0.399 -0.3631  0.2632 -0.0873
    1SOL     OW  453   1.208   0.547   0.490  0.4840 -0.0201 -0.0525
    1SOL    HW2  454   1.296   0.564   0.522  0.3670 -0.1436  0.3368
    1SOL    HW3  455   1.156   0.533   0.569  0.4860 -1.7616 -0.3264
    1SOL    MW4  456   1.213   0.547   0.505  0.4687 -0.2662 -0.0373
    1SOL     OW  457   2.715   0.876   0.701 -0.3709 -0.7661  0.4638
    1SOL    HW2  458   2.720   0.959   0.750 -1.4959  0.0596 -0.7772
    1SOL    HW3  459   2.783   0.821   0.740  0.5440  0.8246  1.1646
    1SOL    MW4  460   2.724   0.880   0.712 -0.3986 -0.4473  0.3926
    1SOL     OW  461   1.736   1.933   0.823  0.2301 -0.3710 -0.2641
    1SOL    HW2  462   1.673   1.979   0.767  0.4623  0.5196  0.1991
    1SOL    HW3  463   1.729   1.842   0.796 -1.7427 -0.3859  0.2182
    1SOL    MW4  464   1.727   1.927   0.812  0.0005 -0.2555 -0.1394
    1SOL     OW  465   1.797   0.511   0.510  0.4077 -0.4326  0.3199
    1SOL    HW2  466   1.780   0.605   0.496  1.9720 -0.2660 -0.5320
    1SOL    HW3  467   1.875   0.509   0.565  0.6687 -1.2409 -0.0747
    1SOL    MW4  468   1.805   0.523   0.515  0.6485 -0.5172  0.1554
    1SOL     OW  469   0.857   3.478   0.837 -0.3955 -0.2417 -0.4418
    1SOL    HW2  470   0.856   3.389   0.802  0.6180  0.0747 -1.3128
    1SOL    HW3  471   0.776   3.517   0.805 -0.2270 -0.4540 -1.1380
    1SOL    MW4  472   0.846   3.471   0.828 -0.2397 -0.2277 -0.6486
    1SOL     OW  473   2.023   1.315   0.705 -0.0129 -0.1926 -0.2327
    1SOL    HW2  474   2.003   1.285   0.617  0.8036  2.3130 -1.3334
    1SOL    HW3  475   2.099   1.263   0.731  1.9514  1.4288 -2.4481
    1SOL    MW4  476   2.030   1.304   0.697  0.3538  0.3519 -0.6702
    1SOL     OW  477   4.380   3.488   0.336 -0.1616  0.0216 -0.0561
    1SOL    HW2  478   4.320   3.554   0.370 -0.4116  0.0318 -0.5194
    1SOL    HW3  479   4.430   3.534   0.269 -0.5002 -0.3290 -0.5468
    1SOL    MW4  480   4.379   3.503   0.332 -0.2394 -0.0231 -0.1819
    1SOL     OW  481   0.450   1.700   0.815 -0.3330  0.0059 -0.0733
    1SOL    HW2  482   0.510   1.648   0.868  0.1558 -1.4473 -1.9515
    1SOL    HW3  483   0.442   1.784   0.860  0.4321 -1.0140  1.9832
    1SOL    MW4  484   0.457   1.704   0.828 -0.1676 -0.3203 -0.0498
    1SOL     OW  485   0.291   3.756   0.378  0.1968 -0.3117  0.8628
    1SOL    HW2  486   0.287   3.665   0.406  1.1963 -0.4230  0.6762
    1SOL    HW3  487   0.384   3.772   0.361 -0.0361  0.5786  0.3621
    1SOL    MW4  488   0.303   3.746   0.380  0.2980 -0.2089  0.7721
    1SOL     OW  489   1.333   2.477   0.808 -0.0598 -0.2498 -0.1070
    1SOL    HW2  490   1.329   2.449   0.717  0.8847 -0.0495 -0.2167
    1SOL    HW3  491   1.375   2.563   0.805  1.2643 -0.8427  0.6280
    1SOL    MW4  492   1.338   2.485   0.796  0.2394 -0.3016 -0.0244
    1SOL     OW  493   1.734   2.758   0.485 -0.1441 -0.3777  0.1775
    1SOL    HW2  494   1.725   2.663   0.492  0.5130 -0.3869  0.9936
    1SOL    HW3  495   1.694   2.792   0.566 -0.9802  0.0780 -0.4188
    1SOL    MW4  496   1.727   2.750   0.497 -0.1677 -0.3188  0.2065
    1SOL     OW  497   3.206   0.092   0.482  0.3680  0.2089  0.0429
    1SOL    HW2  498   3.153   0.090   0.562 -0.6319  0.7424 -0.5987
    1SOL    HW3  499   3.174   0.019   0.430 -0.4662  1.1470 -0.7924
    1SOL    MW4  500   3.195   0.082   0.486  0.1259  0.4031 -0.1520
    1SOL     OW  501   2.893   4.332   0.690  0.0127 -0.1236  0.5807
    1SOL    HW2  502   2.895   4.420   0.728 -2.3563  0.4519 -0.5478
    1SOL    HW3  503   2.814   4.292   0.726 -0.6612 -0.6193 -1.3734
    1SOL    MW4  504   2.883   4.338   0.699 -0.3886 -0.1125  0.1739
    1SOL     OW  505   0.203   1.615   0.270  0.3187  0.2578  0.0151
    1SOL    HW2  506   0.243   1.615   0.183 -0.8660  0.0314 -0.5338
    1SOL    HW3  507   0.114   1.584   0.256  0.4759 -0.8999  1.4833
    1SOL    MW4  508   0.196   1.611   0.256  0.1831  0.0750  0.1364
    1SOL     OW  509   1.573   1.190   0.708  0.3919  0.0679  0.6033
    1SOL    HW2  510   1.554   1.199   0.614 -0.5761  0.4064  0.8226
    1SOL    HW3  511   1.499   1.140   0.742  1.3180 -1.0303  0.9883
    1SOL    MW4  512   1.560   1.185   0.700  0.3864 -0.0323  0.6830
    1SOL     OW  513   1.340   3.448   0.851 -0.0851 -0.3778 -0.0425
    1SOL    HW2  514   1.401   3.500   0.800 -0.7467  1.1497  0.7122
    1SOL    HW3  515   1.356   3.358   0.822  1.8722  0.0985 -0.4898
    1SOL    MW4  516   1.350   3.443   0.840  0.0859 -0.1135 -0.0020
    1SOL     OW  517   3.794   2.293   0.855  0.2907 -0.0924 -0.3158
    1SOL    HW2  518   3.721   2.341   0.815 -0.5971 -0.3786  0.9283
    1SOL    HW3  519   3.780   2.202   0.827  0.3107 -0.1073 -0.2773
    1SOL    MW4  520   3.782   2.287   0.846  0.1762 -0.1321 -0.1466
    1SOL     OW  521   1.983   4.636   0.846  0.2782 -0.1704 -0.0039
    1SOL    HW2  522   2.064   4.686   0.838  0.0999 -0.0837 -1.2533
    1SOL    HW3  523   2.001   4.553   0.803  0.5324 -1.1696  1.9768
    1SOL    MW4  524   1.996   4.632   0.839  0.2884 -0.2904  0.0926
    1SOL     OW  525   2.150   0.382   0.494 -0.3265 -0.0461 -0.3257
    1SOL    HW2  526   2.100   0.432   0.558 -0.0950  1.4575 -1.2837
    1SOL    HW3  527   2.200   0.449   0.446  0.8086 -1.3066 -0.9119
    1SOL    MW4  528   2.150   0.398   0.496 -0.1464 -0.0140 -0.5294
    1SOL     OW  529   1.107   0.275   0.421 -0.0457 -0.4563  0.5216
    1SOL    HW2  530   1.186   0.222   0.423 -1.1821 -2.2644 -0.9867
    1SOL    HW3  531   1.137   0.362   0.395  1.3728 -1.2636 -0.6087
    1SOL    MW4  532   1.121   0.279   0.418 -0.0085 -0.8014  0.1735
    1SOL     OW  533   0.661   2.043   0.818  0.2487  0.4282  0.3598
    1SOL    HW2  534   0.622   2.036   0.731  0.6804  0.5564  0.1550
    1SOL    HW3  535   0.678   2.136   0.829  1.0682  0.3020  0.1927
    1SOL    MW4  536   0.658   2.054   0.808  0.4138  0.4284  0.3107
    1SOL     OW  537   2.176   2.176   0.437 -0.2417 -0.2325 -0.3811
    1SOL    HW2  538   2.239   2.105   0.449  0.2533  0.0283 -1.4105
    1SOL    HW3  539   2.228   2.256   0.444 -0.6791  0.0134  0.0781
    1SOL    MW4  540   2.191   2.177   0.440 -0.2341 -0.1657 -0.4563
    1SOL     OW  541   2.322   1.709   0.371 -0.3402  0.6574 -0.1019
    1SOL    HW2  542   2.270   1.645   0.421 -0.4249  0.3291 -0.6131
    1SOL    HW3  543   2.266   1.733   0.298  0.0578  0.6396 -0.4105
    1SOL    MW4  544   2.307   1.703   0.368 -0.2985  0.6117 -0.2101
    1SOL     OW  545   3.984   4.391   0.472 -0.0892 -0.0789 -0.0419
    1SOL    HW2  546   4.051   4.325   0.455  0.7228  0.6131  0.4463
    1SOL    HW3  547   4.028   4.474   0.456 -1.0746  0.3626 -0.5507
    1SOL    MW4  548   3.999   4.393   0.467 -0.1123  0.0706 -0.0446
    1SOL     OW  549   2.293   2.018   0.099 -0.0810 -0.3587 -0.6821
    1SOL    HW2  550   2.226   2.086   0.109 -0.4169 -0.8083  0.1904
    1SOL    HW3  551   2.244   1.936   0.101  0.4058 -0.6592 -0.9506
    1SOL    MW4  552   2.278   2.017   0.100 -0.0613 -0.4575 -0.6024
    1SOL     OW  553   2.745   0.488   0.342  0.1426 -0.0105 -0.0665
    1SOL    HW2  554   2.809   0.428   0.380 -0.1216 -1.1104 -1.3183
    1SOL    HW3  555   2.755   0.568   0.393  1.9280 -0.4372  0.3038
    1SOL    MW4  556   2.755   0.490   0.354  0.3433 -0.2119 -0.1829
    1SOL     OW  557   4.246   4.317   0.701 -0.1370 -0.2618  0.0985
    1SOL    HW2  558   4.316   4.287   0.760  0.0261 -0.0702  0.0016
    1SOL    HW3  559   4.282   4.395   0.659 -0.0599 -0.6942 -0.6343
    1SOL    MW4  560   4.260   4.323   0.704 -0.1054 -0.2937 -0.0109
    1SOL     OW  561   1.557   0.784   0.888  0.1645  0.2390 -0.2665
    1SOL    HW2  562   1.617   0.839   0.837  1.0223 -0.4734 -0.0337
    1SOL    HW3  563   1.470   0.806   0.854  0.5686  1.1594 -0.7191
    1SOL    MW4  564   1.554   0.794   0.877  0.3309  0.2666 -0.2956
    1SOL     OW  565   0.662   3.896   0.810 -0.0306 -0.0492  0.0418
    1SOL    HW2  566   0.590   3.944   0.768 -1.0467 -0.5982  1.1220
    1SOL    HW3  567   0.646   3.804   0.789  0.4728 -0.1595  0.1261
    1SOL    MW4  568   0.650   3.891   0.802 -0.0982 -0.1361  0.1954
    1SOL     OW  569   1.201   3.542   0.514  0.7460 -0.1988  0.4908
    1SOL    HW2  570   1.164   3.549   0.602 -0.0326 -0.3009  0.1803
    1SOL    HW3  571   1.231   3.630   0.493 -1.1032  0.3361 -0.0042
    1SOL    MW4  572   1.200   3.554   0.523  0.3992 -0.1419  0.3844
    1SOL     OW  573   0.881   1.683   0.728 -0.0335  0.3575  0.4004
    1SOL    HW2  574   0.895   1.771   0.761  0.7438  0.0669  0.8696
    1SOL    HW3  575   0.964   1.637   0.745 -0.3431 -0.3906 -0.0535
    1SOL    MW4  576   0.894   1.688   0.735  0.0281  0.2205  0.4025
    1SOL     OW  577   4.391   1.361   0.483 -0.1280 -0.3410 -0.1882
    1SOL    HW2  578   4.361   1.318   0.563 -0.3595 -0.2833 -0.2447
    1SOL    HW3  579   4.474   1.318   0.463 -0.0822 -0.3738  0.0685
    1SOL    MW4  580   4.398   1.350   0.491 -0.1521 -0.3376 -0.1617
    1SOL     OW  581   0.656   0.018   0.865  0.1173  0.3044  0.5094
    1SOL    HW2  582   0.644   0.008   0.960  1.1271 -0.6179  0.5551
    1SOL    HW3  583   0.641  -0.070   0.830  0.2292  0.5360 -0.1287
    1SOL    MW4  584   0.653   0.005   0.873  0.2652  0.2127  0.4312
    1SOL     OW  585   0.210   3.558   0.744  0.3749  0.5331  0.4921
    1SOL    HW2  586   0.198   3.648   0.776 -0.1911 -0.0656  2.0267
    1SOL    HW3  587   0.291   3.529   0.785  0.3043  0.1797  0.3817
    1SOL    MW4  588   0.219   3.566   0.754  0.2909  0.4077  0.6800
    1SOL     OW  589   0.161   3.043   0.290 -0.3235 -0.1062  0.0216
    1SOL    HW2  590   0.128   3.126   0.326 -0.3255 -0.0418 -0.1303
    1SOL    HW3  591   0.083   2.993   0.268 -0.3275  0.3977 -1.1571
    1SOL    MW4  592   0.146   3.048   0.292 -0.3243 -0.0312 -0.1540
    1SOL     OW  593   2.657   0.938   0.300 -0.1051  0.8111  0.6493
    1SOL    HW2  594   2.716   0.994   0.248  0.4044 -0.0330  0.3006
    1SOL    HW3  595   2.716   0.888   0.356 -0.2765 -1.7245 -1.3276
    1SOL    MW4  596   2.673   0.939   0.300 -0.0603  0.3653  0.3425
    1SOL     OW  597   3.767   3.570   0.474  0.3883  0.0008  0.5243
    1SOL    HW2  598   3.795   3.658   0.449 -1.0178  0.9137  2.0592
    1SOL    HW3  599   3.673   3.568   0.455  0.5080 -1.3418  0.0252
    1SOL    MW4  600   3.758   3.582   0.468  0.2184 -0.0560  0.6609
    1SOL     OW  601   2.641   1.886   0.829  0.3470  0.0280  0.7590
    1SOL    HW2  602   2.561   1.936   0.810  0.2168 -0.1917  0.7376
    1SOL    HW3  603   2.644   1.883   0.925  0.1918 -0.1867  0.7579
    1SOL    MW4  604   2.631   1.892   0.839  0.3095 -0.0292  0.7561
    1SOL     OW  605   1.339   4.298   0.872 -0.1421  1.0010  0.0233
    1SOL    HW2  606   1.265   4.331   0.822 -1.4120  0.4866  1.5278
    1SOL    HW3  607   1.415   4.346   0.837 -0.7974 -0.1347 -3.1025
    1SOL    MW4  608   1.339   4.309   0.861 -0.3961  0.7834 -0.1907
    1SOL     OW  609   1.886   3.619   0.568 -0.3114  0.0180  0.2635
    1SOL    HW2  610   1.876   3.640   0.661  0.8491  2.7970 -0.1746
    1SOL    HW3  611   1.965   3.565   0.564  0.8781  1.7037  0.6787
    1SOL    MW4  612   1.895   3.615   0.580 -0.0013  0.6070  0.2605
    1SOL     OW  613   2.910   4.570   0.837  0.4987 -0.3008 -0.0268
    1SOL    HW2  614   2.982   4.625   0.804 -0.1651  0.1315 -0.7846
    1SOL    HW3  615   2.831   4.623   0.822  0.1024 -0.4384  1.5426
    1SOL    MW4  616   2.909   4.585   0.830  0.3588 -0.2618  0.0803
    1SOL     OW  617   2.455   3.827   0.399 -0.1855  0.1899 -0.3508
    1SOL    HW2  618   2.450   3.757   0.464  1.5970 -0.3353 -0.7518
    1SOL    HW3  619   2.475   3.783   0.317  1.3586  1.1919 -0.5374
    1SOL    MW4  620   2.457   3.812   0.397  0.2532  0.2527 -0.4283
    1SOL     OW  621   2.415   3.892   0.867  0.4001  0.6023 -0.2358
    1SOL    HW2  622   2.336   3.921   0.822  1.4845  0.4990 -2.2852
    1SOL    HW3  623   2.430   3.803   0.836 -0.6437 -0.7182  2.9064
    1SOL    MW4  624   2.407   3.884   0.857  0.4053  0.4144 -0.0916
    1SOL     OW  625   2.552   2.985   0.413 -0.3931 -0.5567 -0.1496
    1SOL    HW2  626   2.587   2.900   0.386  2.8031  0.2003  1.3871
    1SOL    HW3  627   2.523   2.972   0.503  0.3157  0.0070  0.1679
    1SOL    MW4  628   2.553   2.972   0.421  0.1218 -0.3827  0.0951
    1SOL     OW  629   0.618   1.430   0.519  0.7829 -0.4975  0.1097
    1SOL    HW2  630   0.591   1.522   0.518  0.3960 -0.6134 -1.2273
    1SOL    HW3  631   0.700   1.429   0.469  1.0187 -0.8117  0.4989
    1SOL    MW4  632   0.626   1.442   0.512  0.7629 -0.5542 -0.0154
    1SOL     OW  633   3.717   1.858   0.458 -0.1591  0.7314 -0.3072
    1SOL    HW2  634   3.744   1.949   0.449  0.5780  0.3169 -2.6385
    1SOL    HW3  635   3.799   1.809   0.453 -0.6694 -0.1314 -0.2734
    1SOL    MW4  636   3.732   1.864   0.456 -0.1292  0.5629 -0.6104
    1SOL     OW  637   4.399   2.881   0.359  0.3192  0.1735 -0.1660
    1SOL    HW2  638   4.467   2.838   0.411  0.3586  1.8858  1.2545
    1SOL    HW3  639   4.321   2.827   0.372  0.1019  1.0041  2.4112
    1SOL    MW4  640   4.398   2.868   0.368  0.2956  0.5093  0.3615
    1SOL     OW  641   3.936   1.691   0.479  0.1173  0.7804 -0.0112
    1SOL    HW2  642   3.972   1.677   0.566  0.4523  0.0909 -0.2566
    1SOL    HW3  643   4.013   1.693   0.421 -0.1513  0.5188 -0.3798
    1SOL    MW4  644   3.951   1.689   0.483  0.1261  0.6549 -0.0922
    1SOL     OW  645   2.698   0.053   0.761 -0.2692  0.0509 -0.0251
    1SOL    HW2  646   2.707   0.144   0.787 -2.1928  0.6615 -1.3713
    1SOL    HW3  647   2.608   0.030   0.782 -0.2968 -1.0173 -1.2074
    1SOL    MW4  648   2.687   0.062   0.767 -0.5264 -0.0095 -0.3587
    1SOL     OW  649   3.240   1.346   0.465 -0.0742 -0.1769  0.2151
    1SOL    HW2  650   3.261   1.295   0.543 -1.0156  0.4438  0.8914
    1SOL    HW3  651   3.192   1.422   0.499 -0.8867 -0.1310 -1.0138
    1SOL    MW4  652   3.236   1.350   0.480 -0.3057 -0.0890  0.1422
    1SOL     OW  653   1.346   1.910   0.817 -0.1447 -0.2715  0.0425
    1SOL    HW2  654   1.340   1.823   0.778  0.6350 -0.0134 -0.6801
    1SOL    HW3  655   1.328   1.897   0.910 -0.2922 -1.1614 -0.1112
    1SOL    MW4  656   1.343   1.897   0.824 -0.0613 -0.3549 -0.0732
    1SOL     OW  657   0.427   1.971   0.932  0.3151  0.5120  0.4926
    1SOL    HW2  658   0.510   2.006   0.899  0.4377  0.8519  1.1570
    1SOL    HW3  659   0.437   1.971   1.027  0.1614 -0.9674  0.5110
    1SOL    MW4  660   0.439   1.976   0.940  0.3110  0.3616  0.5827
    1SOL     OW  661   4.435   4.112   0.325  0.4005  0.0655 -0.4879
    1SOL    HW2  662   4.455   4.024   0.357 -0.8917  0.0340  0.2739
    1SOL    HW3  663   4.515   4.162   0.338  0.6190 -0.5728  0.6080
    1SOL    MW4  664   4.448   4.107   0.331  0.2589 -0.0224 -0.2428
    1SOL     OW  665   0.883   3.186   0.760  0.5510 -0.4250 -0.3359
    1SOL    HW2  666   0.840   3.218   0.680  1.0994 -1.9144 -1.2476
    1SOL    HW3  667   0.812   3.144   0.809  0.4186 -0.4525 -0.5459
    1SOL    MW4  668   0.868   3.184   0.756  0.6059 -0.6251 -0.4839
    1SOL     OW  669   1.635   2.916   0.267 -0.3314  0.2790 -0.0556
    1SOL    HW2  670   1.664   2.865   0.342  1.8279  0.1333 -0.9468
    1SOL    HW3  671   1.617   2.850   0.199 -0.1494  0.5384 -0.3584
    1SOL    MW4  672   1.636   2.901   0.268 -0.0226  0.2940 -0.2131
    1SOL     OW  673   2.893   3.844   0.847 -0.2274 -0.1067  0.0311
    1SOL    HW2  674   2.811   3.893   0.838 -0.7232 -0.9773 -0.3640
    1SOL    HW3  675   2.905   3.834   0.941 -0.5656  0.0557  0.0931
    1SOL    MW4  676   2.884   3.849   0.858 -0.3371 -0.2000 -0.0129
    1SOL     OW  677   1.046   0.993   0.469 -0.1176 -0.2010  0.0995
    1SOL    HW2  678   0.972   0.935   0.488  0.1386 -0.5583  0.0010
    1SOL    HW3  679   1.120   0.934   0.452  0.1105  0.1501 -0.1345
    1SOL    MW4  680   1.046   0.977   0.469 -0.0536 -0.2019  0.0556
    1SOL     OW  681   1.471   3.630   0.671 -0.2623  0.0396  0.0044
    1SOL    HW2  682   1.531   3.604   0.602  2.2970  2.3662  1.2756
    1SOL    HW3  683   1.407   3.686   0.626 -0.6181 -1.1886 -1.0626
    1SOL    MW4  684   1.470   3.634   0.656  0.0285  0.1845  0.0313
    1SOL     OW  685   2.518   4.457   0.460  0.3157  0.0736  0.3061
    1SOL    HW2  686   2.530   4.551   0.445  0.8397  0.0189  0.4039
    1SOL    HW3  687   2.455   4.430   0.393  1.3124  0.1877 -0.6812
    1SOL    MW4  688   2.511   4.466   0.450  0.5164  0.0815  0.1888
    1SOL     OW  689   0.158   0.397   0.376  0.1648 -0.0005  0.2766
    1SOL    HW2  690   0.126   0.341   0.447  0.7841 -1.6645 -0.7384
    1SOL    HW3  691   0.228   0.347   0.335 -1.1777  0.2737 -2.4880
    1SOL    MW4  692   0.163   0.383   0.380  0.0693 -0.1839 -0.2220
    1SOL     OW  693   4.129   4.620   0.473  0.3780  0.7477 -0.1180
    1SOL    HW2  694   4.130   4.660   0.386  0.7069 -1.6096 -1.2671
    1SOL    HW3  695   4.221   4.617   0.499  0.5995 -1.2780 -1.0495
    1SOL    MW4  696   4.142   4.625   0.465  0.4501  0.1693 -0.3926
    1SOL     OW  697   2.495   2.246   0.877 -0.3475 -0.1544 -0.1701
    1SOL    HW2  698   2.582   2.284   0.892 -0.6250  0.5266 -0.2951
    1SOL    HW3  699   2.445   2.316   0.835 -1.5416  0.0977  1.6352
    1SOL    MW4  700   2.500   2.260   0.874 -0.5417 -0.0312  0.0516
    1SOL     OW  701   4.207   3.684   0.458  0.8237  0.1358  0.1628
    1SOL    HW2  702   4.216   3.645   0.545  0.4017 -2.0550 -0.7448
    1SOL    HW3  703   4.285   3.738   0.447  0.9942  0.2297  1.8019
    1SOL    MW4  704   4.219   3.686   0.468  0.7906 -0.1409  0.2593
    1SOL     OW  705   3.092   1.928   0.860  0.2725 -0.7068 -0.0664
    1SOL    HW2  706   3.096   1.924   0.955  0.7391  1.3869  0.0140
    1SOL    HW3  707   3.166   1.983   0.835  1.1591 -2.6099 -1.7647
    1SOL    MW4  708   3.102   1.935   0.869  0.4511 -0.6816 -0.2798
    1SOL     OW  709   2.799   3.505   0.516 -0.0775  0.1328 -0.0935
    1SOL    HW2  710   2.780   3.411   0.521 -1.6538  0.5147  1.9615
    1SOL    HW3  711   2.828   3.528   0.604  0.4416  1.5543 -0.6301
    1SOL    MW4  712   2.800   3.495   0.528 -0.2172  0.3710  0.1068
    1SOL     OW  713   1.010   3.359   0.167  0.1882 -0.5939 -0.1116
    1SOL    HW2  714   0.949   3.289   0.188 -0.6121  0.2414  0.3727
    1SOL    HW3  715   1.002   3.371   0.072 -1.9590  0.9300  0.2368
    1SOL    MW4  716   1.001   3.352   0.157 -0.2006 -0.2825 -0.0017
    1SOL     OW  717   3.152   2.632   0.873 -0.3083  0.1227 -0.2359
    1SOL    HW2  718   3.132   2.555   0.820 -2.0355  1.0263 -0.9401
    1SOL    HW3  719   3.203   2.688   0.814  0.0897 -0.0390 -0.0481
    1SOL    MW4  720   3.156   2.629   0.858 -0.4838  0.2205 -0.3040
    1SOL     OW  721   2.720   0.302   0.822 -0.2810 -0.3604 -0.3236
    1SOL    HW2  722   2.728   0.311   0.918  1.7290 -0.8624 -0.4129
    1SOL    HW3  723   2.788   0.360   0.788 -0.8893 -0.3128 -1.4510
    1SOL    MW4  724   2.730   0.311   0.830 -0.0961 -0.4203 -0.4842
    1SOL     OW  725   3.096   2.415   0.714  0.1896 -0.1976  0.1884
    1SOL    HW2  726   3.167   2.352   0.727  0.8189  0.8424  2.0399
    1SOL    HW3  727   3.019   2.360   0.700  0.9501 -1.3658  0.4081
    1SOL    MW4  728   3.095   2.399   0.714  0.3729 -0.2146  0.4617
    1SOL     OW  729   1.471   2.765   0.066 -0.0147  0.5148 -0.4427
    1SOL    HW2  730   1.496   2.682   0.107 -2.2125 -0.2463 -0.5763
    1SOL    HW3  731   1.432   2.740  -0.018 -2.1238  1.5144  0.1840
    1SOL    MW4  732   1.469   2.750   0.061 -0.5831  0.5460 -0.3776
    1SOL     OW  733   0.276   3.492   0.475 -0.4744  0.2838  0.4385
    1SOL    HW2  734   0.208   3.429   0.451  0.0162 -0.1438  0.1754
    1SOL    HW3  735   0.251   3.521   0.563 -1.1361  0.3186  0.2436
    1SOL    MW4  736   0.264   3.487   0.484 -0.4970  0.2320  0.3781
    1SOL     OW  737   1.754   2.698   0.875 -0.2412 -0.1696  0.1241
    1SOL    HW2  738   1.681   2.759   0.866 -0.1490 -0.0547  0.1434
    1SOL    HW3  739   1.828   2.744   0.835  0.1042  0.2203  1.1847
    1SOL    MW4  740   1.755   2.712   0.868 -0.1833 -0.1030  0.2666
    1SOL     OW  741   2.494   3.638   0.812  0.3605  0.2119 -0.4587
    1SOL    HW2  742   2.508   3.612   0.721 -0.6655  1.9323 -1.1570
    1SOL    HW3  743   2.560   3.591   0.862  0.4897 -1.2951 -2.0089
    1SOL    MW4  744   2.504   3.629   0.806  0.2422  0.2398 -0.7552
    1SOL     OW  745   2.700   3.149   0.762 -0.0058  0.1507 -0.6376
    1SOL    HW2  746   2.712   3.163   0.668  1.2509  2.3421 -0.1794
    1SOL    HW3  747   2.680   3.236   0.797  0.3017 -0.5070  1.2407
    1SOL    MW4  748   2.699   3.162   0.754  0.2003  0.3533 -0.3293
    1SOL     OW  749   2.668   4.241   0.835 -0.0956  0.1541 -0.6151
    1SOL    HW2  750   2.682   4.257   0.929 -0.6556  1.4687 -0.7384
    1SOL    HW3  751   2.593   4.296   0.812 -0.3592 -0.6480 -1.6987
    1SOL    MW4  752   2.660   4.250   0.844 -0.2043  0.2217 -0.7744
    1SOL     OW  753   0.301   4.028   0.477 -0.0688 -0.4428  0.3926
    1SOL    HW2  754   0.377   4.067   0.433 -1.7259  1.1267 -1.1735
    1SOL    HW3  755   0.292   3.941   0.438  1.0111 -0.6914  0.6935
    1SOL    MW4  756   0.310   4.022   0.466 -0.1450 -0.2685  0.2257
    1SOL     OW  757   1.565   4.436   0.777 -0.5609 -0.1606 -0.3363
    1SOL    HW2  758   1.578   4.465   0.687  0.1714  2.6730  0.6513
    1SOL    HW3  759   1.633   4.369   0.790 -0.7730 -0.7051 -1.9195
    1SOL    MW4  760   1.576   4.431   0.766 -0.4921  0.1416 -0.4148
    1SOL     OW  761   1.026   1.721   0.490  0.6501 -0.1724 -0.2614
    1SOL    HW2  762   0.997   1.809   0.464  1.6057  0.2385  0.0428
    1SOL    HW3  763   0.960   1.691   0.552  0.3049  0.3140 -0.3883
    1SOL    MW4  764   1.014   1.729   0.495  0.7308 -0.0539 -0.2380
    1SOL     OW  765   2.406   3.366   0.585 -0.2158 -0.2770 -0.5288
    1SOL    HW2  766   2.385   3.308   0.512  1.4016  0.0488 -1.2733
    1SOL    HW3  767   2.431   3.308   0.656 -0.5553 -0.5524 -0.6339
    1SOL    MW4  768   2.407   3.351   0.584 -0.0472 -0.2704 -0.6408
    1SOL     OW  769   0.768   3.298   0.519  0.0787 -0.5937 -0.0116
    1SOL    HW2  770   0.823   3.373   0.497  0.5392 -0.5689  1.1852
    1SOL    HW3  771   0.679   3.326   0.498  0.2153  0.4033  0.7167
    1SOL    MW4  772   0.764   3.311   0.513  0.1575 -0.4587  0.2424
    1SOL     OW  773   2.120   2.622   0.318  0.3302 -0.2290 -0.3903
    1SOL    HW2  774   2.184   2.560   0.355  1.6131  0.3592 -1.5547
    1SOL    HW3  775   2.168   2.665   0.247 -1.6038 -0.2854 -1.7663
    1SOL    MW4  776   2.135   2.620   0.314  0.2444 -0.1588 -0.7255
    1SOL     OW  777   3.502   3.260   0.299  0.2644  0.0618 -0.2233
    1SOL    HW2  778   3.529   3.273   0.208  1.5009  0.0696  0.1323
    1SOL    HW3  779   3.476   3.347   0.329  3.0151  0.7297  0.4070
    1SOL    MW4  780   3.502   3.273   0.291  0.7906  0.1507 -0.0932
    1SOL     OW  781   1.315   4.471   0.373  0.2661 -0.2559 -0.2347
    1SOL    HW2  782   1.228   4.456   0.409 -0.0513  0.2545 -0.7701
    1SOL    HW3  783   1.351   4.544   0.424 -0.2274  0.5408 -0.9975
    1SOL    MW4  784   1.308   4.479   0.384  0.1591 -0.0834 -0.4060
    1SOL     OW  785   1.301   2.959   0.212  0.0070  0.5192  0.4340
    1SOL    HW2  786   1.364   2.894   0.180  0.1953  0.3310  1.1831
    1SOL    HW3  787   1.340   3.043   0.190  0.0083  0.3874 -0.0749
    1SOL    MW4  788   1.314   2.961   0.205  0.0321  0.4766  0.4657
    1SOL     OW  789   4.201   0.216   0.722  0.1211  0.1760 -0.7813
    1SOL    HW2  790   4.119   0.166   0.714  0.1341 -0.3712  1.9800
    1SOL    HW3  791   4.174   0.299   0.762  0.7936  0.3121 -0.6101
    1SOL    MW4  792   4.187   0.220   0.727  0.2112  0.1218 -0.3943
    1SOL     OW  793   0.806   0.812   0.527 -0.3200 -0.1628 -0.1633
    1SOL    HW2  794   0.763   0.868   0.462 -0.8212  0.2563  0.5191
    1SOL    HW3  795   0.762   0.728   0.520 -0.5580 -0.0378 -0.1870
    1SOL    MW4  796   0.794   0.808   0.518 -0.4175 -0.0910 -0.0764
    1SOL     OW  797   2.035   0.561   0.201  0.0001 -0.5015 -0.0929
    1SOL    HW2  798   2.125   0.571   0.231  0.2630 -0.8798 -0.7468
    1SOL    HW3  799   2.024   0.466   0.191 -0.8673 -0.5527  1.1964
    1SOL    MW4  800   2.046   0.549   0.203 -0.0794 -0.5583 -0.0090
    1SOL     OW  801   0.632   0.574   0.518 -0.0326  0.1041  0.0222
    1SOL    HW2  802   0.644   0.547   0.609 -0.1339 -0.5030 -0.1376
    1SOL    HW3  803   0.537   0.572   0.504  0.0002 -0.1381 -0.1886
    1SOL    MW4  804   0.621   0.570   0.528 -0.0416 -0.0080 -0.0268
    1SOL     OW  805   2.237   0.388   0.850  0.2882 -0.0630 -0.3900
    1SOL    HW2  806   2.231   0.300   0.813  0.0339  0.5173 -1.7860
    1SOL    HW3  807   2.159   0.433   0.816  0.8604  0.9412 -0.3896
    1SOL    MW4  808   2.226   0.382   0.841  0.3300  0.1461 -0.5742
    1SOL     OW  809   3.313   4.355   0.655 -0.2988  0.0411 -0.2256
    1SOL    HW2  810   3.316   4.438   0.702  0.5317  0.0140 -0.2183
    1SOL    HW3  811   3.245   4.305   0.700  2.3515 -1.0372  2.7585
    1SOL    MW4  812   3.304   4.359   0.667  0.1602 -0.1044  0.1690
    1SOL     OW  813   3.549   4.248   0.790 -0.0236 -0.1070  0.1247
    1SOL    HW2  814   3.477   4.282   0.737  0.5038 -0.5889 -0.9119
    1SOL    HW3  815   3.561   4.158   0.758  2.7383  0.8009 -1.5363
    1SOL    MW4  816   3.541   4.240   0.779  0.4103 -0.0510 -0.2312
    1SOL     OW  817   0.788   4.580   0.398  0.4407  0.2658 -0.1132
    1SOL    HW2  818   0.742   4.595   0.316 -0.6216  0.5961  0.5311
    1SOL    HW3  819   0.818   4.667   0.424 -0.7242  0.4377  0.7088
    1SOL    MW4  820   0.786   4.593   0.391  0.1469  0.3314  0.0802
    1SOL     OW  821   2.297   2.440   0.449 -0.4497 -0.0817  0.0345
    1SOL    HW2  822   2.387   2.418   0.423 -0.6618 -1.8001  0.6966
    1SOL    HW3  823   2.302   2.452   0.544 -1.0393 -0.9366  0.1852
    1SOL    MW4  824   2.309   2.438   0.458 -0.5555 -0.4213  0.1417
    1SOL     OW  825   3.396   0.449   0.679 -0.4491  0.1639  0.4050
    1SOL    HW2  826   3.378   0.402   0.598 -1.1578 -0.9310  1.1803
    1SOL    HW3  827   3.475   0.408   0.714  0.0091  0.8123  0.1434
    1SOL    MW4  828   3.404   0.437   0.673 -0.4821  0.1050  0.4728
    1SOL     OW  829   0.723   2.494   0.553  0.2273  0.4157  0.1130
    1SOL    HW2  830   0.668   2.570   0.571  0.3588  0.5690 -0.1343
    1SOL    HW3  831   0.675   2.445   0.486 -0.6485 -0.5676  1.4366
    1SOL    MW4  832   0.709   2.498   0.547  0.1291  0.3064  0.2549
    1SOL     OW  833   0.152   4.464   0.505  0.0747  0.5068  0.4430
    1SOL    HW2  834   0.178   4.433   0.591 -0.2089  1.1357  0.7595
    1SOL    HW3  835   0.155   4.386   0.449  0.3717  0.1234  0.9911
    1SOL    MW4  836   0.156   4.450   0.509  0.0765  0.5393  0.5572
    1SOL     OW  837   0.343   0.552   0.547 -0.1985  0.3154  0.0184
    1SOL    HW2  838   0.294   0.633   0.558  0.4830  0.9881 -1.7272
    1SOL    HW3  839   0.297   0.506   0.476 -0.0193 -0.3745  0.3504
    1SOL    MW4  840   0.331   0.557   0.539 -0.0849  0.3131 -0.1681
    1SOL     OW  841   1.863   3.575   0.856 -0.0068  0.0586  0.5005
    1SOL    HW2  842   1.832   3.570   0.946 -0.3403  0.4153  0.4059
    1SOL    HW3  843   1.841   3.490   0.818 -0.1661  0.0289  0.6625
    1SOL    MW4  844   1.856   3.563   0.863 -0.0719  0.1020  0.5094
    1SOL     OW  845   4.047   0.396   0.888 -0.3274  0.0994  0.2354
    1SOL    HW2  846   4.119   0.457   0.868 -0.8500  0.6651  0.0524
    1SOL    HW3  847   3.971   0.435   0.847 -0.7248 -0.5535  0.3467
    1SOL    MW4  848   4.047   0.409   0.880 -0.4487  0.0879  0.2260
    1SOL     OW  849   2.780   1.604   0.501  0.5086  0.3468  0.1359
    1SOL    HW2  850   2.831   1.684   0.485  0.2924  0.1824 -1.4488
    1SOL    HW3  851   2.716   1.602   0.430  0.2720 -1.0422  0.3867
    1SOL    MW4  852   2.779   1.614   0.490  0.4487  0.1419 -0.0401
    1SOL     OW  853   1.320   3.243   0.201 -0.6176  0.3499 -0.1024
    1SOL    HW2  854   1.269   3.249   0.282 -0.2874 -0.3279  0.1617
    1SOL    HW3  855   1.270   3.293   0.137 -1.5614 -0.2139  0.1847
    1SOL    MW4  856   1.307   3.250   0.204 -0.6986  0.1862 -0.0297
    1SOL     OW  857   1.020   2.550   0.563  0.0424 -0.3009 -0.6423
    1SOL    HW2  858   0.969   2.571   0.484 -0.7843  1.8323  0.4158
    1SOL    HW3  859   1.075   2.627   0.577  1.3798 -1.3526 -0.0552
    1SOL    MW4  860   1.020   2.563   0.554  0.1098 -0.1583 -0.4253
    1SOL     OW  861   2.029   4.396   0.415  0.4054 -0.3259 -0.0293
    1SOL    HW2  862   2.109   4.364   0.373 -0.3325  0.4713 -2.0892
    1SOL    HW3  863   2.028   4.490   0.398 -1.2574 -0.4143 -0.5550
    1SOL    MW4  864   2.039   4.404   0.408  0.0887 -0.2322 -0.3704
    1SOL     OW  865   3.712   1.478   0.522  0.0359  0.1872 -0.2469
    1SOL    HW2  866   3.767   1.552   0.498 -0.3342  0.5982  0.1542
    1SOL    HW3  867   3.645   1.475   0.453  0.7916 -0.5625 -0.9532
    1SOL    MW4  868   3.710   1.488   0.510  0.0865  0.1426 -0.2872
    1SOL     OW  869   0.724   2.317   0.847 -0.6365 -0.0181  0.0125
    1SOL    HW2  870   0.719   2.290   0.939 -0.1753 -1.9348 -0.4984
    1SOL    HW3  871   0.635   2.347   0.827 -0.7396  0.4299  1.0766
    1SOL    MW4  872   0.712   2.317   0.856 -0.5893 -0.2120  0.0855
    1SOL     OW  873   0.053   3.657   0.177  0.1042  0.1326  0.3517
    1SOL    HW2  874   0.144   3.673   0.201 -0.1461  0.8169  0.8437
    1SOL    HW3  875   0.036   3.716   0.104 -0.5737  1.5595  1.6366
    1SOL    MW4  876   0.063   3.667   0.171 -0.0183  0.4110  0.5861
    1SOL     OW  877   3.312   2.812   0.737  0.4400 -0.0773 -0.0243
    1SOL    HW2  878   3.321   2.898   0.778  1.5501 -0.1399 -0.1141
    1SOL    HW3  879   3.391   2.765   0.763 -0.2335 -1.1319  0.1543
    1SOL    MW4  880   3.324   2.817   0.746  0.4976 -0.2248 -0.0126
    1SOL     OW  881   0.455   2.704   0.817  0.0027  0.3013  0.6200
    1SOL    HW2  882   0.544   2.727   0.790 -0.5491  0.4236 -1.1579
    1SOL    HW3  883   0.449   2.610   0.801 -0.3797  0.4045  0.1355
    1SOL    MW4  884   0.466   2.695   0.811 -0.1206  0.3314  0.3214
    1SOL     OW  885   3.112   0.525   0.366 -0.3862 -0.4479  0.1439
    1SOL    HW2  886   3.067   0.528   0.282  0.0309 -1.8143 -0.1442
    1SOL    HW3  887   3.058   0.467   0.420 -1.0588  1.0060  1.0799
    1SOL    MW4  888   3.099   0.518   0.362 -0.4196 -0.4363  0.2294
    1SOL     OW  889   2.185   3.969   0.746  0.2665 -0.4395  0.0216
    1SOL    HW2  890   2.154   3.959   0.656  2.4277 -3.3958 -0.4737
    1SOL    HW3  891   2.119   3.925   0.799 -0.0931 -0.2963 -0.3090
    1SOL    MW4  892   2.172   3.962   0.741  0.5040 -0.8106 -0.0874
    1SOL     OW  893   1.349   4.016   0.792  0.0220  0.0361 -0.0618
    1SOL    HW2  894   1.261   3.979   0.800  0.1840  0.0272  2.2725
    1SOL    HW3  895   1.340   4.107   0.821  1.0535 -0.4291  1.8537
    1SOL    MW4  896   1.336   4.023   0.797  0.1794 -0.0257  0.4989
    1SOL     OW  897   3.528   0.644   0.507  0.0804  0.0429 -0.0047
    1SOL    HW2  898   3.459   0.680   0.451 -0.2093  0.7465  0.7835
    1SOL    HW3  899   3.483   0.578   0.560  0.6708 -1.6862 -1.6435
    1SOL    MW4  900   3.513   0.640   0.507  0.1202 -0.0924 -0.1169
    1SOL     OW  901   4.488   1.946   0.808  0.1537 -0.2315 -1.0076
    1SOL    HW2  902   4.560   2.008   0.815  0.1945 -0.3400 -0.4527
    1SOL    HW3  903   4.527   1.868   0.767  0.4322 -0.4217 -0.3797
    1SOL    MW4  904   4.502   1.944   0.803  0.1965 -0.2707 -0.8516
    1SOL     OW  905   0.058   1.156   0.833  0.5150  0.2744 -0.3007
    1SOL    HW2  906   0.092   1.149   0.922  1.8085 -1.2379 -0.9014
    1SOL    HW3  907   0.041   1.065   0.806 -1.4570  0.8229 -0.9946
    1SOL    MW4  908   0.060   1.143   0.841  0.4255  0.1471 -0.4715
    1SOL     OW  909   3.009   3.090   0.482  0.2029  0.0444 -0.4143
    1SOL    HW2  910   3.102   3.098   0.460  0.5083 -0.1917  0.7854
    1SOL    HW3  911   2.996   2.997   0.499  0.1356  0.3298  1.1260
    1SOL    MW4  912   3.019   3.079   0.481  0.2344  0.0508 -0.0528
    1SOL     OW  913   2.072   2.186   0.179  0.1514  0.3931 -0.5577
    1SOL    HW2  914   2.029   2.271   0.174 -0.2157  0.1551 -1.8379
    1SOL    HW3  915   2.109   2.182   0.266 -0.2442  1.6692 -0.3259
    1SOL    MW4  916   2.071   2.197   0.190  0.0510  0.5300 -0.6960
    1SOL     OW  917   3.114   1.057   0.844 -0.5682  0.1173 -0.0782
    1SOL    HW2  918   3.192   1.108   0.819 -0.4111 -0.4557 -0.7933
    1SOL    HW3  919   3.110   1.064   0.939 -0.6421  1.6061 -0.1696
    1SOL    MW4  920   3.124   1.065   0.853 -0.5572  0.2382 -0.1846
    1SOL     OW  921   2.764   3.205   0.492 -0.1249 -0.0037 -0.3390
    1SOL    HW2  922   2.705   3.164   0.428  0.8343 -1.8584 -0.0732
    1SOL    HW3  923   2.850   3.167   0.473  0.7278  1.5827  0.2231
    1SOL    MW4  924   2.767   3.195   0.481  0.1140 -0.0391 -0.2297
    1SOL     OW  925   1.310   0.839   0.757 -0.0070 -0.0956 -0.4399
    1SOL    HW2  926   1.325   0.933   0.772  0.9282 -0.1872 -0.7740
    1SOL    HW3  927   1.229   0.820   0.804  0.0826  0.7664  0.0743
    1SOL    MW4  928   1.301   0.849   0.765  0.1281  0.0060 -0.4162
    1SOL     OW  929   3.796   0.512   0.473 -0.2173 -0.3979  0.0099
    1SOL    HW2  930   3.718   0.564   0.454 -0.1093  0.2042  1.1289
    1SOL    HW3  931   3.869   0.566   0.444 -0.2384 -1.1719 -1.4866
    1SOL    MW4  932   3.795   0.526   0.467 -0.2060 -0.4206 -0.0399
    1SOL     OW  933   3.979   2.444   0.746 -0.2404 -0.0772  0.1289
    1SOL    HW2  934   4.065   2.410   0.768 -0.0253  0.4977  0.1924
    1SOL    HW3  935   3.918   2.391   0.796  0.0908 -0.3566  0.2371
    1SOL    MW4  936   3.982   2.433   0.755 -0.1683 -0.0384  0.1516
    1SOL     OW  937   1.749   1.614   0.464 -0.0389 -0.1778  0.1111
    1SOL    HW2  938   1.800   1.687   0.430  0.7324 -0.6232  0.2888
    1SOL    HW3  939   1.752   1.625   0.559  0.3021 -0.5740  0.1519
    1SOL    MW4  940   1.756   1.625   0.472  0.1079 -0.2887  0.1400
    1SOL     OW  941   1.502   0.959   0.369  0.0141  0.3820  0.2819
    1SOL    HW2  942   1.418   0.914   0.374  1.1952 -1.8031  1.0137
    1SOL    HW3  943   1.535   0.941   0.281  0.3679  0.0362  0.4833
    1SOL    MW4  944   1.496   0.951   0.358  0.2167  0.0482  0.4050
    1SOL     OW  945   1.683   0.770   0.491 -0.1165  0.0754  0.1788
    1SOL    HW2  946   1.624   0.822   0.436  2.4432  1.9018 -0.9400
    1SOL    HW3  947   1.692   0.820   0.571 -1.0710 -0.8508  0.8806
    1SOL    MW4  948   1.676   0.783   0.494  0.0952  0.1942  0.1238
    1SOL     OW  949   4.037   0.865   0.717  0.0420 -0.0999  0.3363
    1SOL    HW2  950   4.028   0.959   0.735  0.3657 -0.0664  0.3304
    1SOL    HW3  951   4.109   0.837   0.772  0.8567 -0.0491 -0.6915
    1SOL    MW4  952   4.045   0.874   0.726  0.1922 -0.0888  0.1999
    1SOL     OW  953   0.886   1.459   0.429 -0.4310  0.1792  0.1778
    1SOL    HW2  954   0.920   1.548   0.434 -0.7021  0.2637  0.4766
    1SOL    HW3  955   0.961   1.403   0.449  0.1252  0.2848 -1.5544
    1SOL    MW4  956   0.900   1.463   0.432 -0.3934  0.2042 -0.0114
    1SOL     OW  957   0.502   3.328   0.515  0.4273 -0.8803 -0.4241
    1SOL    HW2  958   0.481   3.256   0.455 -0.6950 -1.0742  0.1722
    1SOL    HW3  959   0.431   3.391   0.502 -0.3619 -1.3691  1.3856
    1SOL    MW4  960   0.490   3.326   0.505  0.1750 -0.9701 -0.1066
    1SOL     OW  961   2.052   3.111   0.431  0.3456  0.4638 -0.0301
    1SOL    HW2  962   1.973   3.146   0.389  0.4799 -0.4639 -1.0868
    1SOL    HW3  963   2.031   3.019   0.448  0.1378  0.9344  2.3640
    1SOL    MW4  964   2.039   3.103   0.428  0.3362  0.4032  0.1463
    1SOL     OW  965   1.219   2.118   0.520 -0.0464 -0.4670 -0.2264
    1SOL    HW2  966   1.196   2.107   0.612  3.2660  2.1133  1.0240
    1SOL    HW3  967   1.309   2.085   0.514  0.4356  1.0856 -2.0900
    1SOL    MW4  968   1.228   2.113   0.531  0.4542  0.0782 -0.3074
    1SOL     OW  969   3.022   0.918   0.438 -0.3707  0.1023  0.1408
    1SOL    HW2  970   3.018   1.012   0.423  1.0625  0.3235  0.9977
    1SOL    HW3  971   3.116   0.897   0.434 -0.3926 -0.7671  2.8038
    1SOL    MW4  972   3.034   0.927   0.436 -0.1843  0.0166  0.6051
    1SOL     OW  973   1.705   1.820   0.133  0.4768  0.1617  0.0676
    1SOL    HW2  974   1.631   1.802   0.192 -1.2285  0.5670 -1.9056
    1SOL    HW3  975   1.715   1.915   0.135  0.7263  0.1372  0.0567
    1SOL    MW4  976   1.697   1.830   0.141  0.2848  0.2120 -0.1942
    1SOL     OW  977   3.917   2.741   0.334 -0.4932  0.2202 -0.0796
    1SOL    HW2  978   3.903   2.655   0.373  0.2627  0.5338  0.8964
    1SOL    HW3  979   3.832   2.784   0.339 -0.3712  0.3070  1.3492
    1SOL    MW4  980   3.904   2.735   0.339 -0.3769  0.2730  0.2377
    1SOL     OW  981   3.664   3.169   0.522 -0.2089  0.0045 -0.1278
    1SOL    HW2  982   3.747   3.216   0.509  0.0530 -0.5023 -0.3166
    1SOL    HW3  983   3.603   3.210   0.462 -0.0266  0.2150 -0.1716
    1SOL    MW4  984   3.667   3.180   0.513 -0.1502 -0.0343 -0.1585
    1SOL     OW  985   1.393   2.764   0.826  0.2872 -0.0424 -0.0898
    1SOL    HW2  986   1.403   2.765   0.921  1.8883 -0.6839 -0.2378
    1SOL    HW3  987   1.302   2.790   0.811 -0.2389 -0.8418  1.6437
    1SOL    MW4  988   1.383   2.768   0.836  0.4290 -0.2327  0.1194
    1SOL     OW  989   3.465   0.011   0.509  0.0804  0.5667  0.5695
    1SOL    HW2  990   3.371   0.023   0.514 -0.0463 -0.2430  0.2340
    1SOL    HW3  991   3.498   0.041   0.594 -0.5448  0.2801  0.9198
    1SOL    MW4  992   3.457   0.016   0.521 -0.0191  0.4225  0.5714
    1SOL     OW  993   4.010   3.469   0.834 -0.1103 -0.1626 -0.0006
    1SOL    HW2  994   4.015   3.376   0.812  0.0425 -0.5355  1.5307
    1SOL    HW3  995   4.046   3.475   0.923  0.0802  1.3918 -0.1572
    1SOL    MW4  996   4.015   3.458   0.843 -0.0653 -0.0064  0.1808
    1SOL     OW  997   0.319   0.462   0.831  0.4153 -0.0177 -0.6002
    1SOL    HW2  998   0.313   0.553   0.859 -2.1294 -0.0082 -1.1001
    1SOL    HW3  999   0.342   0.467   0.738  1.2332  0.0716 -0.4017
    1SOL    MW4 1000   0.322   0.475   0.822  0.1875 -0.0046 -0.6400
    1SOL     OW 1001   2.321   4.313   0.307 -0.1294  0.1979 -0.0286
    1SOL    HW2 1002   2.367   4.283   0.229 -0.3887 -0.7764  0.1930
    1SOL    HW3 1003   2.307   4.234   0.359 -2.1790  0.4483 -0.1567
    1SOL    MW4 1004   2.325   4.299   0.303 -0.4342  0.1020 -0.0163
    1SOL     OW 1005   0.036   0.415   0.822 -0.2478 -0.0220 -0.3447
    1SOL    HW2 1006   0.128   0.444   0.816 -0.1429 -0.4509 -0.8113
    1SOL    HW3 1007   0.026   0.386   0.912  0.0881 -0.0107 -0.3032
    1SOL    MW4 1008   0.047   0.415   0.833 -0.1897 -0.0771 -0.4007
    1SOL     OW 1009   1.889   1.824   0.337 -0.3161  0.0593  0.5774
    1SOL    HW2 1010   1.914   1.914   0.359 -0.3755  0.2329 -0.0790
    1SOL    HW3 1011   1.823   1.832   0.269 -0.2213 -0.4867  0.4128
    1SOL    MW4 1012   1.884   1.837   0.331 -0.3114  0.0100  0.4691
    1SOL     OW 1013   0.044   0.901   0.735  0.5408 -0.2711 -0.0479
    1SOL    HW2 1014   0.109   0.845   0.777  1.3210 -0.2008 -1.1582
    1SOL    HW3 1015  -0.040   0.863   0.762  1.0480 -1.3939 -0.0018
    1SOL    MW4 1016   0.041   0.889   0.744  0.7107 -0.4101 -0.1884
    1SOL     OW 1017   0.196   0.787   0.536  0.1351  0.3875 -0.3540
    1SOL    HW2 1018   0.138   0.741   0.476 -0.1390 -1.5039  1.3085
    1SOL    HW3 1019   0.139   0.852   0.579 -0.2168  0.1093 -0.3962
    1SOL    MW4 1020   0.181   0.790   0.534  0.0525  0.1012 -0.1402
    1SOL     OW 1021   0.628   1.739   0.607 -0.0958  0.1794  0.0083
    1SOL    HW2 1022   0.717   1.752   0.641  0.1267  0.2480 -0.5825
    1SOL    HW3 1023   0.580   1.698   0.678  1.3844 -3.2461 -0.8869
    1SOL    MW4 1024   0.634   1.736   0.621  0.1289 -0.2636 -0.1878
    1SOL     OW 1025   0.268   1.326   0.697  0.3841 -0.5659  0.2525
    1SOL    HW2 1026   0.347   1.278   0.724  0.1571 -0.8973  0.3250
    1SOL    HW3 1027   0.196   1.280   0.740  0.1223 -0.4301 -0.0415
    1SOL    MW4 1028   0.269   1.314   0.707  0.3196 -0.5916  0.2233
    1SOL     OW 1029   0.201   1.561   0.846 -0.0869  0.3866 -0.7878
    1SOL    HW2 1030   0.211   1.485   0.788  0.6501 -0.1812  0.0698
    1SOL    HW3 1031   0.279   1.614   0.830  0.7718 -0.4136  0.5939
    1SOL    MW4 1032   0.213   1.558   0.836  0.1236  0.2061 -0.4923
    1SOL     OW 1033   1.109   2.832   0.795 -0.5126 -0.3434 -0.1130
    1SOL    HW2 1034   1.045   2.762   0.808 -1.2068 -0.0029 -1.5899
    1SOL    HW3 1035   1.118   2.839   0.700 -0.2151  1.3424  0.0157
    1SOL    MW4 1036   1.101   2.824   0.785 -0.5651 -0.0758 -0.2909
    1SOL     OW 1037   4.201   2.669   0.444  0.6113 -0.1325  0.3582
    1SOL    HW2 1038   4.119   2.688   0.397  0.1928 -0.4857  0.9475
    1SOL    HW3 1039   4.200   2.730   0.518  0.7717 -0.2989  0.4951
    1SOL    MW4 1040   4.190   2.680   0.447  0.5774 -0.2010  0.4540
    1SOL     OW 1041   1.072   2.358   0.829 -0.1211  0.3546  0.0061
    1SOL    HW2 1042   1.081   2.269   0.795 -0.2430  0.2550  0.2365
    1SOL    HW3 1043   1.161   2.394   0.827  0.0052  0.0562  0.3921
    1SOL    MW4 1044   1.085   2.351   0.824 -0.1205  0.3021  0.0874
    1SOL     OW 1045   0.693   2.817   0.446  0.2034  0.1223 -0.0939
    1SOL    HW2 1046   0.618   2.758   0.442 -0.7823  1.3389  0.3250
    1SOL    HW3 1047   0.768   2.761   0.424 -0.8607 -1.0048 -0.9374
    1SOL    MW4 1048   0.693   2.802   0.443 -0.0671  0.1342 -0.1499
    1SOL     OW 1049   4.215   2.327   0.813 -0.4041 -0.1153 -0.1933
    1SOL    HW2 1050   4.253   2.241   0.795 -0.5412 -0.2130 -0.0209
    1SOL    HW3 1051   4.279   2.389   0.779 -0.0936 -0.2792  0.0905
    1SOL    MW4 1052   4.229   2.324   0.806 -0.3810 -0.1497 -0.1332
    1SOL     OW 1053   4.421   1.544   0.248 -0.1252 -0.3032  0.2174
    1SOL    HW2 1054   4.391   1.465   0.293 -1.1738  0.1992  0.4306
    1SOL    HW3 1055   4.348   1.605   0.258 -0.2150 -0.0406 -1.7891
    1SOL    MW4 1056   4.407   1.541   0.255 -0.2756 -0.2023 -0.0192
    1SOL     OW 1057   4.016   1.642   0.746  0.0981 -0.0054  0.1529
    1SOL    HW2 1058   3.941   1.593   0.781  1.1694 -1.0913  0.9577
    1SOL    HW3 1059   4.092   1.607   0.792  1.1541  0.8639 -0.8830
    1SOL    MW4 1060   4.016   1.631   0.757  0.3791 -0.0340  0.1224
    1SOL     OW 1061   0.203   3.068   0.845 -0.3343 -0.1395 -0.3547
    1SOL    HW2 1062   0.202   3.079   0.940 -1.6700  0.4752 -0.4370
    1SOL    HW3 1063   0.119   3.103   0.815  0.6629  1.0215 -1.9033
    1SOL    MW4 1064   0.192   3.074   0.853 -0.3789  0.0947 -0.5699
    1SOL     OW 1065   1.694   1.495   0.098 -0.2363 -0.3854 -0.0113
    1SOL    HW2 1066   1.687   1.590   0.083 -3.6571 -0.5475  0.2811
    1SOL    HW3 1067   1.744   1.463   0.023  0.0702  1.4969 -0.6515
    1SOL    MW4 1068   1.700   1.504   0.086 -0.6473 -0.1584 -0.0572
    1SOL     OW 1069   0.166   2.526   0.390 -0.0638 -0.0735 -0.1534
    1SOL    HW2 1070   0.080   2.484   0.392  0.6101 -1.4762 -0.6244
    1SOL    HW3 1071   0.147   2.618   0.410 -1.5203 -0.6083  1.0473
    1SOL    MW4 1072   0.152   2.533   0.393 -0.1671 -0.3293 -0.0571
    1SOL     OW 1073   4.440   3.170   0.777  0.0919 -0.0991  0.7629
    1SOL    HW2 1074   4.406   3.173   0.688  0.5644 -0.1206  0.5812
    1SOL    HW3 1075   4.451   3.262   0.802 -0.0346 -0.0934  0.7961
    1SOL    MW4 1076   4.437   3.183   0.769  0.1373 -0.1013  0.7433
    1SOL     OW 1077   0.435   3.447   0.889  0.4850 -0.0506  0.6553
    1SOL    HW2 1078   0.452   3.459   0.983  0.3755 -0.3094  0.7104
    1SOL    HW3 1079   0.446   3.353   0.875  0.1285 -0.0697  0.4869
    1SOL    MW4 1080   0.439   3.436   0.900  0.4236 -0.0873  0.6403
    1SOL     OW 1081   0.454   2.681   0.456 -0.2331 -0.0508 -0.1243
    1SOL    HW2 1082   0.405   2.690   0.537  0.9709 -0.7647  0.6931
    1SOL    HW3 1083   0.394   2.635   0.397 -0.5542 -0.8971  0.8475
    1SOL    MW4 1084   0.440   2.676   0.459 -0.1166 -0.2565  0.1117
    1SOL     OW 1085   0.459   1.178   0.868  0.1911 -0.2365 -0.2115
    1SOL    HW2 1086   0.461   1.086   0.841 -0.6919  0.0652 -1.3272
    1SOL    HW3 1087   0.541   1.214   0.834 -0.3213 -0.1671 -1.3806
    1SOL    MW4 1088   0.470   1.170   0.860  0.0070 -0.1875 -0.5130
    1SOL     OW 1089   0.545   0.222   0.743 -0.4206  0.1292 -0.0012
    1SOL    HW2 1090   0.455   0.190   0.736 -1.0453  1.4133  1.7817
    1SOL    HW3 1091   0.589   0.159   0.800 -0.3990 -0.0721 -0.2404
    1SOL    MW4 1092   0.539   0.209   0.750 -0.5002  0.2721  0.2025
    1SOL     OW 1093   0.448   0.399   1.076 -0.1332  0.0444 -0.0407
    1SOL    HW2 1094   0.424   0.412   0.984  0.8912 -0.9006 -0.4555
    1SOL    HW3 1095   0.377   0.439   1.125 -0.3028  1.2504 -1.2515
    1SOL    MW4 1096   0.436   0.406   1.070 -0.0204  0.0788 -0.2552
    1SOL     OW 1097   1.981   2.039   0.769  1.0535 -0.3079  0.1242
    1SOL    HW2 1098   2.002   2.132   0.771  1.5137 -0.4348  1.4377
    1SOL    HW3 1099   1.891   2.034   0.801  1.1081 -0.3455  0.2688
    1SOL    MW4 1100   1.972   2.051   0.773  1.1215 -0.3297  0.3167
    1SOL     OW 1101   3.319   1.223   0.702  0.2125 -0.2327 -0.2188
    1SOL    HW2 1102   3.397   1.173   0.727 -0.5797 -0.8997  1.0076
    1SOL    HW3 1103   3.327   1.306   0.750 -0.9401 -1.2185  1.7711
    1SOL    MW4 1104   3.331   1.227   0.712 -0.0441 -0.4508  0.2055
    1SOL     OW 1105   3.516   1.601   0.704 -0.1590  0.0341  0.1753
    1SOL    HW2 1106   3.469   1.525   0.738  1.2137 -1.5568 -1.3699
    1SOL    HW3 1107   3.577   1.565   0.639  0.2185  2.4970 -0.9108
    1SOL    MW4 1108   3.518   1.586   0.700  0.0715  0.1491 -0.1718
    1SOL     OW 1109   0.874   0.127   0.762 -0.3491  0.0421  0.0930
    1SOL    HW2 1110   0.869   0.136   0.667  1.1941 -0.1921 -0.0177
    1SOL    HW3 1111   0.793   0.080   0.786 -0.9970  0.5733 -1.0304
    1SOL    MW4 1112   0.863   0.122   0.753 -0.2310  0.0813 -0.0698
    1SOL     OW 1113   0.698   2.789   0.731  0.4240  0.4230 -0.1264
    1SOL    HW2 1114   0.692   2.870   0.782  1.4984  0.8091 -0.5937
    1SOL    HW3 1115   0.688   2.817   0.640  2.1472  0.2365 -0.4005
    1SOL    MW4 1116   0.696   2.803   0.726  0.7931  0.4494 -0.2243
    1SOL     OW 1117   1.452   0.302   0.339  0.0269 -0.4507  0.1596
    1SOL    HW2 1118   1.414   0.360   0.273 -0.2236 -0.0257  0.6667
    1SOL    HW3 1119   1.541   0.285   0.308 -0.2188 -0.5769 -0.4867
    1SOL    MW4 1120   1.458   0.307   0.326 -0.0385 -0.4112  0.1413
    1SOL     OW 1121   0.430   3.197   0.759  0.2033  0.4872  0.0392
    1SOL    HW2 1122   0.438   3.237   0.672  0.8217  0.7206  0.1982
    1SOL    HW3 1123   0.338   3.170   0.765 -0.0054  1.0871 -0.4201
    1SOL    MW4 1124   0.419   3.199   0.748  0.2573  0.5972 -0.0004
    1SOL     OW 1125   0.681   1.308   0.765  0.1652 -0.1752  0.8137
    1SOL    HW2 1126   0.659   1.325   0.674  0.6304  0.3227  0.7899
    1SOL    HW3 1127   0.708   1.393   0.800 -0.5841 -0.2458  1.5788
    1SOL    MW4 1128   0.682   1.321   0.758  0.1276 -0.1187  0.9115
    1SOL     OW 1129   2.937   1.485   0.827  0.2990  0.3615  0.0168
    1SOL    HW2 1130   2.858   1.538   0.821  0.3246  0.5316  1.0767
    1SOL    HW3 1131   3.009   1.547   0.815  0.3069  0.4244  0.3930
    1SOL    MW4 1132   2.936   1.500   0.825  0.3033  0.3922  0.2062
    1SOL     OW 1133   0.095   1.735   0.670 -0.1649 -0.1827 -0.6400
    1SOL    HW2 1134   0.020   1.684   0.640  0.6510 -0.7476 -1.7712
    1SOL    HW3 1135   0.132   1.684   0.742 -0.7186 -0.0282 -0.2482
    1SOL    MW4 1136   0.090   1.721   0.675 -0.1303 -0.2369 -0.7376
    1SOL     OW 1137   1.291   4.073   0.523  0.1621 -0.1255 -0.1499
    1SOL    HW2 1138   1.333   4.060   0.608 -0.4178  1.8877  0.4604
    1SOL    HW3 1139   1.358   4.113   0.469  0.2957 -0.7255 -0.4387
    1SOL    MW4 1140   1.306   4.076   0.527  0.1034  0.0606 -0.1075
    1SOL     OW 1141   0.869   2.225   0.582  0.4188 -0.7412  0.2324
    1SOL    HW2 1142   0.907   2.154   0.532  0.0355 -0.3779 -0.5842
    1SOL    HW3 1143   0.780   2.235   0.548 -0.0435 -0.8628  1.3719
    1SOL    MW4 1144   0.862   2.217   0.571  0.3072 -0.7091  0.2750
    1SOL     OW 1145   2.548   0.133   0.460  0.2015  0.0500  0.2871
    1SOL    HW2 1146   2.643   0.125   0.465  0.2077 -0.6007 -0.7466
    1SOL    HW3 1147   2.533   0.225   0.438  0.6298 -0.0273 -0.3450
    1SOL    MW4 1148   2.558   0.144   0.458  0.2587 -0.0460  0.0673
    1SOL     OW 1149   0.897   2.663   0.322 -0.7486 -0.2335  0.4793
    1SOL    HW2 1150   0.950   2.742   0.314 -0.0151 -0.7918 -0.0907
    1SOL    HW3 1151   0.899   2.623   0.236 -2.1820 -0.2058  0.4195
    1SOL    MW4 1152   0.904   2.668   0.310 -0.8410 -0.3035  0.3962
    1SOL     OW 1153   4.247   2.213   0.452 -0.2633  0.5034 -0.1357
    1SOL    HW2 1154   4.306   2.151   0.409  1.0149  1.4355  0.2054
    1SOL    HW3 1155   4.247   2.187   0.544  1.3161  1.7402  0.2557
    1SOL    MW4 1156   4.255   2.202   0.459  0.1140  0.7899 -0.0390
    1SOL     OW 1157   3.315   3.819   0.762 -0.2732 -0.0747 -0.6376
    1SOL    HW2 1158   3.301   3.725   0.745 -0.5695 -0.2401  0.4934
    1SOL    HW3 1159   3.299   3.829   0.856  1.1652  0.8563 -0.4790
    1SOL    MW4 1160   3.311   3.808   0.772 -0.1225  0.0262 -0.4675
    1SOL     OW 1161   3.575   2.427   0.729  0.1615 -0.4947 -0.3892
    1SOL    HW2 1162   3.563   2.513   0.769  0.8243 -0.7423  0.3540
    1SOL    HW3 1163   3.495   2.379   0.749  0.4034 -0.5447  0.4543
    1SOL    MW4 1164   3.563   2.432   0.737  0.2811 -0.5343 -0.1799
    1SOL     OW 1165   4.464   3.430   0.846 -0.0694  0.4168  0.3976
    1SOL    HW2 1166   4.548   3.463   0.813  0.2590 -1.2179 -0.4494
    1SOL    HW3 1167   4.398   3.483   0.801  0.4776  1.0657  0.3431
    1SOL    MW4 1168   4.467   3.442   0.836  0.0463  0.2866  0.2786
    1SOL     OW 1169   0.617   3.606   0.739 -0.2480 -0.1860 -0.7104
    1SOL    HW2 1170   0.536   3.571   0.777  0.1797 -0.4161  0.0118
    1SOL    HW3 1171   0.600   3.610   0.645 -1.4475  0.6867 -0.4686
    1SOL    MW4 1172   0.604   3.602   0.732 -0.3498 -0.1013 -0.5832
    1SOL     OW 1173   1.778   3.987   0.468  0.3303 -0.2057 -0.2839
    1SOL    HW2 1174   1.757   3.986   0.561  0.5871  0.7614 -0.2179
    1SOL    HW3 1175   1.774   4.079   0.443  1.2703 -0.3528 -0.9957
    1SOL    MW4 1176   1.775   3.999   0.477  0.4882 -0.0975 -0.3691
    1SOL     OW 1177   0.361   4.622   0.434  0.3643  0.0159 -0.1538
    1SOL    HW2 1178   0.434   4.561   0.444  0.3450  0.2242  1.3214
    1SOL    HW3 1179   0.285   4.574   0.466  0.1479  0.4053 -0.0791
    1SOL    MW4 1180   0.361   4.608   0.439  0.3332  0.0939  0.0508
    1SOL     OW 1181   0.423   4.239   0.870  0.0678  0.4239  0.1020
    1SOL    HW2 1182   0.410   4.261   0.962  0.1286 -0.9367  0.4453
    1SOL    HW3 1183   0.352   4.285   0.824 -1.2570 -0.5978  1.0769
    1SOL    MW4 1184   0.412   4.248   0.876 -0.0989  0.1097  0.2760
    1SOL     OW 1185   0.639   4.413   0.789  0.1520  0.2984  0.5386
    1SOL    HW2 1186   0.726   4.398   0.825  0.4048 -0.1618 -0.2447
    1SOL    HW3 1187   0.581   4.362   0.844  0.5126 -0.2535  0.4119
    1SOL    MW4 1188   0.643   4.404   0.801  0.2330  0.1645  0.4186
    1SOL     OW 1189   2.107   1.753   0.191 -0.0235  0.2591 -0.0758
    1SOL    HW2 1190   2.105   1.657   0.187  0.6784  0.1983  0.9373
    1SOL    HW3 1191   2.027   1.776   0.239  1.8138 -0.0444  3.2577
    1SOL    MW4 1192   2.096   1.743   0.197  0.3116  0.2111  0.4977
    1SOL     OW 1193   1.818   1.173   0.847 -0.1867  0.2200  0.2063
    1SOL    HW2 1194   1.740   1.204   0.801 -0.3143 -1.2850 -0.5956
    1SOL    HW3 1195   1.886   1.236   0.823 -1.1352  1.5503  0.9188
    1SOL    MW4 1196   1.816   1.185   0.838 -0.3287  0.1971  0.1945
    1SOL     OW 1197   1.739   0.325   0.316 -0.1416  0.0055 -0.2095
    1SOL    HW2 1198   1.780   0.391   0.371 -0.6295  0.9145 -0.9318
    1SOL    HW3 1199   1.741   0.245   0.369  0.7890  0.5036  0.5131
    1SOL    MW4 1200   1.744   0.323   0.330 -0.0832  0.1912 -0.2095
    1SOL     OW 1201   1.060   0.778   0.879 -0.5237  0.0007  0.5149
    1SOL    HW2 1202   1.057   0.765   0.974 -0.6714 -0.5795  0.4310
    1SOL    HW3 1203   1.082   0.692   0.844  0.1235  0.3501  0.0587
    1SOL    MW4 1204   1.062   0.765   0.887 -0.4578 -0.0297  0.4437
    1SOL     OW 1205   3.813   0.485   0.749 -0.4401 -0.8079 -0.0923
    1SOL    HW2 1206   3.802   0.473   0.655 -0.5400  0.6023 -0.2671
    1SOL    HW3 1207   3.815   0.580   0.761 -2.6412 -0.9261  1.5659
    1SOL    MW4 1208   3.812   0.496   0.738 -0.7434 -0.6374  0.1035
    1SOL     OW 1209   2.204   0.932   0.146  0.3080  0.4991 -0.1491
    1SOL    HW2 1210   2.198   1.008   0.203  0.3020 -0.6078  1.3750
    1SOL    HW3 1211   2.296   0.906   0.151 -0.0007 -0.5008  0.5850
    1SOL    MW4 1212   2.215   0.938   0.154  0.2663  0.2211  0.1489
    1SOL     OW 1213   1.108   1.301   0.488 -0.1365  0.1708  0.5467
    1SOL    HW2 1214   1.194   1.314   0.449 -0.2779  0.0797  0.1968
    1SOL    HW3 1215   1.083   1.212   0.460 -1.6600  1.3192 -1.9373
    1SOL    MW4 1216   1.116   1.291   0.479 -0.3562  0.3103  0.1728
    1SOL     OW 1217   0.619   0.741   0.904 -0.3329  0.7519  0.0217
    1SOL    HW2 1218   0.695   0.787   0.867 -0.5262 -0.3066 -1.7335
    1SOL    HW3 1219   0.626   0.652   0.872 -1.4855  0.2387  1.1302
    1SOL    MW4 1220   0.630   0.736   0.895 -0.5104  0.5445 -0.0636
    1SOL     OW 1221   0.680   1.564   0.899 -0.1308 -0.5298  0.0452
    1SOL    HW2 1222   0.757   1.609   0.863 -1.1269  1.0613 -0.1470
    1SOL    HW3 1223   0.695   1.564   0.994 -0.0006 -0.0239  0.0254
    1SOL    MW4 1224   0.693   1.570   0.907 -0.2450 -0.2531  0.0172
    1SOL     OW 1225   3.779   2.016   0.766  0.0009  0.5466  0.2383
    1SOL    HW2 1226   3.777   2.038   0.673 -0.0710  0.1438  0.1442
    1SOL    HW3 1227   3.867   1.980   0.781  0.3568  1.5247  0.5374
    1SOL    MW4 1228   3.791   2.014   0.756  0.0384  0.6225  0.2653
    1SOL     OW 1229   1.259   2.389   0.560  0.2476  0.0485 -0.2134
    1SOL    HW2 1230   1.234   2.298   0.541  0.5566 -0.1444  0.2935
    1SOL    HW3 1231   1.177   2.437   0.559 -0.4660 -0.9745  3.7552
    1SOL    MW4 1232   1.245   2.383   0.557  0.1942 -0.1118  0.3772
    1SOL     OW 1233   2.930   0.460   0.721  0.1143  0.0909  0.7204
    1SOL    HW2 1234   2.934   0.546   0.762  0.3348 -0.1410  1.1876
    1SOL    HW3 1235   3.016   0.421   0.738 -0.0191 -0.2597  0.5984
    1SOL    MW4 1236   2.942   0.466   0.728  0.1259  0.0141  0.7660
    1SOL     OW 1237   3.263   3.760   0.451 -0.2619 -0.3016 -0.4307
    1SOL    HW2 1238   3.301   3.715   0.527  0.1294 -1.3704 -1.2487
    1SOL    HW3 1239   3.339   3.780   0.395 -0.5057  0.8112 -0.3869
    1SOL    MW4 1240   3.278   3.757   0.453 -0.2422 -0.2959 -0.5328
    1SOL     OW 1241   0.231   4.356   0.742  0.2880 -0.0004  0.2362
    1SOL    HW2 1242   0.207   4.439   0.783 -2.5044 -0.7730  0.3166
    1SOL    HW3 1243   0.158   4.297   0.764  0.2685 -1.3569 -3.0864
    1SOL    MW4 1244   0.218   4.359   0.750 -0.0830 -0.2809 -0.1916
    1SOL     OW 1245   1.300   1.649   0.483  0.0009 -0.5561  0.1435
    1SOL    HW2 1246   1.313   1.564   0.442 -0.8008 -1.2042  1.2069
    1SOL    HW3 1247   1.210   1.673   0.463  0.4225  0.3655 -0.7124
    1SOL    MW4 1248   1.290   1.641   0.475 -0.0492 -0.5199  0.1709
    1SOL     OW 1249   0.856   0.149   0.495 -0.0553  0.1098 -0.1247
    1SOL    HW2 1250   0.931   0.198   0.461  0.3483  0.9091  1.8613
    1SOL    HW3 1251   0.780   0.202   0.473 -0.0590 -0.6649 -2.0755
    1SOL    MW4 1252   0.856   0.162   0.488 -0.0026  0.1131 -0.1201
    1SOL     OW 1253   0.293   2.052   0.515 -0.2949  0.0483 -0.1072
    1SOL    HW2 1254   0.254   2.061   0.602 -1.3974  0.8878 -0.6797
    1SOL    HW3 1255   0.243   1.981   0.474 -1.3307  1.2053 -0.8847
    1SOL    MW4 1256   0.281   2.043   0.521 -0.5770  0.3116 -0.2853
    1SOL     OW 1257   1.426   2.874   0.477 -0.1564  0.0707 -0.4086
    1SOL    HW2 1258   1.416   2.922   0.395  0.3547 -0.2071 -0.6345
    1SOL    HW3 1259   1.467   2.936   0.536 -2.4270  0.9723  0.2930
    1SOL    MW4 1260   1.430   2.888   0.474 -0.3886  0.1531 -0.3458
    1SOL     OW 1261   2.487   1.063   0.495 -0.2825  0.0118  0.1428
    1SOL    HW2 1262   2.478   0.980   0.542  1.3382 -0.0780  0.3165
    1SOL    HW3 1263   2.549   1.045   0.425 -0.4152  0.9230 -0.2223
    1SOL    MW4 1264   2.494   1.050   0.492 -0.0863  0.1203  0.1176
    1SOL     OW 1265   2.934   4.125   0.469  0.4864  0.2292  0.2734
    1SOL    HW2 1266   2.855   4.071   0.466  0.7972 -0.2208  0.0853
    1SOL    HW3 1267   2.907   4.205   0.515 -0.1148  0.1434  0.0791
    1SOL    MW4 1268   2.920   4.129   0.475  0.4480  0.1583  0.2230
    1SOL     OW 1269   3.352   3.561   0.663 -0.1795  0.0060  0.0475
    1SOL    HW2 1270   3.423   3.547   0.726  0.0602  1.2506  0.0839
    1SOL    HW3 1271   3.282   3.503   0.691  0.7539 -1.0833  0.1377
    1SOL    MW4 1272   3.352   3.552   0.675 -0.0248  0.0265  0.0642
    1SOL     OW 1273   4.335   1.635   0.572 -0.2215 -0.1271  0.1363
    1SOL    HW2 1274   4.300   1.622   0.660 -1.9928 -0.6016 -0.6197
    1SOL    HW3 1275   4.339   1.547   0.535  0.5759  0.0643 -0.2411
    1SOL    MW4 1276   4.331   1.621   0.579 -0.3500 -0.1643 -0.0132
    1SOL     OW 1277   1.104   4.403   0.768 -0.1451 -0.2119  0.0260
    1SOL    HW2 1278   1.078   4.416   0.676 -1.9026  0.2731  0.5732
    1SOL    HW3 1279   1.125   4.491   0.799  1.2020 -0.4691 -0.1024
    1SOL    MW4 1280   1.103   4.416   0.760 -0.1992 -0.1822  0.0812
    1SOL     OW 1281   1.818   2.442   0.761 -0.0876 -0.2247 -0.2105
    1SOL    HW2 1282   1.819   2.524   0.810  0.8736 -1.9299  2.7224
    1SOL    HW3 1283   1.735   2.401   0.784 -0.0684 -0.6031 -0.7889
    1SOL    MW4 1284   1.807   2.447   0.770  0.0417 -0.4997  0.1001
    1SOL     OW 1285   1.563   0.034   0.852  0.0917 -0.2785  0.0145
    1SOL    HW2 1286   1.579   0.042   0.946  0.9928 -2.3119  0.0546
    1SOL    HW3 1287   1.553  -0.060   0.837 -1.6442  0.1569 -1.6775
    1SOL    MW4 1288   1.564   0.023   0.863 -0.0184 -0.4894 -0.2034
    1SOL     OW 1289   1.110   4.665   0.856 -0.2182  0.1312 -0.1211
    1SOL    HW2 1290   1.175   4.733   0.838  0.8183 -0.6870  0.4817
    1SOL    HW3 1291   1.029   4.699   0.820  0.8047  0.6360 -1.9953
    1SOL    MW4 1292   1.108   4.678   0.849  0.0534  0.0896 -0.2890
    1SOL     OW 1293   1.344   0.408   0.855  0.1601  0.0613  0.1936
    1SOL    HW2 1294   1.348   0.380   0.947 -0.1686  0.4510  0.3327
    1SOL    HW3 1295   1.429   0.448   0.838 -0.0466  0.6735  0.5622
    1SOL    MW4 1296   1.356   0.409   0.865  0.0896  0.1934  0.2606
    1SOL     OW 1297   1.601   0.509   0.794  0.3672  0.1311  0.4062
    1SOL    HW2 1298   1.579   0.519   0.701 -0.0977  0.0349  0.5016
    1SOL    HW3 1299   1.594   0.597   0.829  0.3102  0.1303  0.3974
    1SOL    MW4 1300   1.597   0.522   0.786  0.2985  0.1183  0.4175
    1SOL     OW 1301   3.095   1.596   0.503  0.2061  0.7129 -0.4384
    1SOL    HW2 1302   3.001   1.583   0.502  0.4254 -0.9786 -0.8029
    1SOL    HW3 1303   3.113   1.651   0.427 -0.3105 -0.2655 -1.2700
    1SOL    MW4 1304   3.085   1.601   0.493  0.1669  0.3606 -0.5962
    1SOL     OW 1305   0.823   0.871   0.793  0.3123 -0.3531  0.0703
    1SOL    HW2 1306   0.814   0.842   0.702  0.0230  0.3434 -0.1282
    1SOL    HW3 1307   0.904   0.830   0.823 -0.2796 -1.6800 -0.0773
    1SOL    MW4 1308   0.833   0.862   0.785  0.1960 -0.4362  0.0246
    1SOL     OW 1309   1.329   1.112   0.829 -0.5529 -0.0516 -0.3346
    1SOL    HW2 1310   1.321   1.105   0.924 -1.4237  0.1114 -0.3852
    1SOL    HW3 1311   1.261   1.176   0.804 -1.4889 -1.3648 -1.2367
    1SOL    MW4 1312   1.319   1.120   0.838 -0.7912 -0.2033 -0.4602
    1SOL     OW 1313   3.349   2.005   0.749 -0.3308  0.0221  0.2998
    1SOL    HW2 1314   3.369   1.980   0.659 -0.5330  0.5219  0.1105
    1SOL    HW3 1315   3.395   1.941   0.803  1.1265  0.6848 -0.1331
    1SOL    MW4 1316   3.357   1.993   0.744 -0.1652  0.1754  0.2177
    1SOL     OW 1317   0.423   3.095   0.363 -0.5201 -0.0071  0.1327
    1SOL    HW2 1318   0.336   3.089   0.323  0.6240  1.8001 -2.8081
    1SOL    HW3 1319   0.481   3.048   0.302  0.5601 -1.4209  2.1821
    1SOL    MW4 1320   0.419   3.088   0.350 -0.2267  0.0448  0.0151
    1SOL     OW 1321   3.484   1.465   0.363 -0.4355  0.6554  0.0454
    1SOL    HW2 1322   3.404   1.417   0.386 -0.4244  1.3323  1.5861
    1SOL    HW3 1323   3.467   1.499   0.275 -1.0498 -0.8628 -0.4369
    1SOL    MW4 1324   3.471   1.464   0.355 -0.5152  0.5445  0.1850
    1SOL     OW 1325   1.801   1.361   0.324 -0.3531  0.0846 -0.3454
    1SOL    HW2 1326   1.807   1.441   0.377  0.0182 -0.4558  0.4324
    1SOL    HW3 1327   1.760   1.390   0.242  0.7933  1.2790 -0.5077
    1SOL    MW4 1328   1.796   1.376   0.320 -0.1528  0.1709 -0.2642
    1SOL     OW 1329   3.442   1.838   0.557  0.0366  0.2171 -0.0153
    1SOL    HW2 1330   3.527   1.855   0.517 -0.1152  2.0233  0.3518
    1SOL    HW3 1331   3.443   1.745   0.578  1.7651  0.1356 -0.3852
    1SOL    MW4 1332   3.454   1.828   0.555  0.2449  0.4447 -0.0157
    1SOL     OW 1333   3.621   4.068   0.452 -0.0908 -0.0776  0.1737
    1SOL    HW2 1334   3.622   4.053   0.547  1.4283 -1.0330  0.0268
    1SOL    HW3 1335   3.654   4.157   0.442  0.3784 -0.2078  0.5233
    1SOL    MW4 1336   3.626   4.078   0.463  0.1719 -0.2208  0.2004
    1SOL     OW 1337   1.105   3.592   0.786  0.0511 -0.0059  0.0842
    1SOL    HW2 1338   1.167   3.532   0.827  0.9031  1.7305  1.4231
    1SOL    HW3 1339   1.019   3.555   0.805  0.5597 -0.8651  0.7796
    1SOL    MW4 1340   1.102   3.579   0.794  0.2306  0.1099  0.3526
    1SOL     OW 1341   0.906   2.631   0.832 -0.4592 -0.1715 -0.4411
    1SOL    HW2 1342   0.921   2.619   0.925 -1.5252 -0.3459 -0.2890
    1SOL    HW3 1343   0.832   2.691   0.826  0.1471  0.5284 -1.1857
    1SOL    MW4 1344   0.898   2.637   0.843 -0.5198 -0.1020 -0.5193
    1SOL     OW 1345   1.602   2.871   0.701 -0.2993  0.4576  0.0043
    1SOL    HW2 1346   1.622   2.955   0.743  0.5791  0.1887  0.1352
    1SOL    HW3 1347   1.526   2.838   0.748 -0.3578  0.9614  0.2644
    1SOL    MW4 1348   1.595   2.878   0.713 -0.1912  0.4885  0.0559
    1SOL     OW 1349   3.106   4.543   0.343  0.1456 -0.4240 -0.0571
    1SOL    HW2 1350   3.029   4.499   0.379  0.2410 -1.4141 -1.0418
    1SOL    HW3 1351   3.177   4.480   0.355  0.5032 -0.1013 -0.4746
    1SOL    MW4 1352   3.105   4.529   0.349  0.2053 -0.5121 -0.2421
    1SOL     OW 1353   4.203   4.159   0.463  0.4010 -0.0512  0.1391
    1SOL    HW2 1354   4.287   4.146   0.419  0.1938  0.1698 -0.3296
    1SOL    HW3 1355   4.225   4.204   0.544  0.7437 -0.0617  0.0520
    1SOL    MW4 1356   4.217   4.163   0.468  0.4191 -0.0234  0.0658
    1SOL     OW 1357   1.108   3.905   0.838 -0.1481 -0.0527 -0.3589
    1SOL    HW2 1358   1.110   3.810   0.823  0.0190  0.1399 -1.6237
    1SOL    HW3 1359   1.121   3.915   0.932 -0.0610 -1.2842 -0.2336
    1SOL    MW4 1360   1.110   3.893   0.848 -0.1146 -0.1895 -0.5093
    1SOL     OW 1361   4.023   4.237   0.833  0.0966  0.6952  0.0687
    1SOL    HW2 1362   3.945   4.289   0.813 -1.1822 -1.1806  0.0309
    1SOL    HW3 1363   4.095   4.286   0.794 -1.1104  2.2223 -0.3179
    1SOL    MW4 1364   4.022   4.250   0.825 -0.2313  0.6485  0.0128
    1SOL     OW 1365   2.374   3.198   0.856 -0.1422  0.4103 -0.1937
    1SOL    HW2 1366   2.285   3.162   0.856  0.2170 -0.4799 -0.4648
    1SOL    HW3 1367   2.419   3.151   0.926  0.1270  0.8385 -0.0768
    1SOL    MW4 1368   2.368   3.187   0.866 -0.0591  0.3493 -0.2140
    1SOL     OW 1369   2.218   1.639   0.763  0.0415  0.4742  0.4928
    1SOL    HW2 1370   2.297   1.595   0.795 -0.3755 -0.2805  0.4972
    1SOL    HW3 1371   2.222   1.727   0.802  1.6758  1.0009 -0.7754
    1SOL    MW4 1372   2.229   1.645   0.772  0.2024  0.4442  0.3261
    1SOL     OW 1373   2.010   4.383   0.708  0.7526  0.0816 -0.1727
    1SOL    HW2 1374   2.010   4.374   0.613 -0.8077  1.1104 -0.2818
    1SOL    HW3 1375   1.925   4.348   0.736  1.1227 -0.0467  0.8318
    1SOL    MW4 1376   1.999   4.377   0.699  0.5956  0.2003 -0.0546
    1SOL     OW 1377   2.281   4.083   0.464 -0.5479 -0.1265 -0.3341
    1SOL    HW2 1378   2.197   4.040   0.450 -0.8492  0.2368  0.3374
    1SOL    HW3 1379   2.344   4.011   0.473 -0.9222 -0.4143  0.0039
    1SOL    MW4 1380   2.279   4.068   0.463 -0.6373 -0.1163 -0.2010
    1SOL     OW 1381   2.445   4.651   0.827 -0.1385 -0.4096 -0.4214
    1SOL    HW2 1382   2.432   4.641   0.921  0.1940  1.3941 -0.1616
    1SOL    HW3 1383   2.441   4.562   0.792 -0.7807 -1.0406  1.2267
    1SOL    MW4 1384   2.443   4.638   0.835 -0.1793 -0.2551 -0.1697
    1SOL     OW 1385   2.135   3.484   0.645 -0.0932  0.1069  0.6477
    1SOL    HW2 1386   2.133   3.505   0.739 -0.7986 -1.2916  0.9672
    1SOL    HW3 1387   2.226   3.464   0.627 -0.0631 -0.2690  1.1950
    1SOL    MW4 1388   2.147   3.484   0.655 -0.1826 -0.1273  0.7620
    1SOL     OW 1389   1.812   0.348   0.851 -0.3711 -0.8820 -0.7060
    1SOL    HW2 1390   1.731   0.396   0.833  0.1598 -0.0963 -1.0357
    1SOL    HW3 1391   1.806   0.269   0.798 -0.9833 -0.8860 -0.6283
    1SOL    MW4 1392   1.801   0.344   0.842 -0.3818 -0.7788 -0.7393
    1SOL     OW 1393   3.539   4.488   0.291 -0.4257  0.4492 -0.3595
    1SOL    HW2 1394   3.567   4.545   0.219 -2.7100  1.0177 -0.8343
    1SOL    HW3 1395   3.528   4.547   0.365 -0.6992  0.2779 -0.2644
    1SOL    MW4 1396   3.541   4.503   0.291 -0.7632  0.5016 -0.4096
    1SOL     OW 1397   3.318   4.349   0.373  0.5465 -0.5227  0.0231
    1SOL    HW2 1398   3.388   4.397   0.328  0.6531  0.2026  0.9494
    1SOL    HW3 1399   3.341   4.353   0.466 -0.4199 -0.7804  0.2823
    1SOL    MW4 1400   3.330   4.356   0.379  0.4334 -0.4606  0.1795
    1SOL     OW 1401   1.608   3.105   0.847 -0.2069  0.3044  0.0690
    1SOL    HW2 1402   1.586   3.097   0.940 -0.0136 -0.7508  0.0322
    1SOL    HW3 1403   1.524   3.117   0.803 -0.4264 -0.5883  0.2425
    1SOL    MW4 1404   1.594   3.106   0.853 -0.2104  0.0474  0.0870
    1SOL     OW 1405   3.510   3.753   0.293  0.4167  0.0964  0.2978
    1SOL    HW2 1406   3.600   3.786   0.293  0.5043 -0.1176 -0.8539
    1SOL    HW3 1407   3.465   3.807   0.228 -0.0485 -0.4320  0.1822
    1SOL    MW4 1408   3.516   3.765   0.285  0.3672 -0.0014  0.1306
    1SOL     OW 1409   1.574   3.869   0.306 -0.1103  0.1443  0.0185
    1SOL    HW2 1410   1.651   3.907   0.351  0.2085 -0.7022  0.1911
    1SOL    HW3 1411   1.582   3.901   0.216  0.0716  0.6184  0.1951
    1SOL    MW4 1412   1.585   3.878   0.300 -0.0443  0.0954  0.0646
    1SOL     OW 1413   2.438   1.506   0.840 -0.1286 -0.2177 -0.5994
    1SOL    HW2 1414   2.445   1.412   0.823  0.6799 -0.3381  0.4123
    1SOL    HW3 1415   2.517   1.543   0.801  0.5175 -0.1992  0.6992
    1SOL    MW4 1416   2.449   1.498   0.832  0.0634 -0.2311 -0.2946
    1SOL     OW 1417   4.016   3.987   0.712  0.6599  0.0127 -0.0884
    1SOL    HW2 1418   4.006   3.997   0.618 -0.3167  0.5728  0.0704
    1SOL    HW3 1419   4.025   4.077   0.745  1.2245 -0.1933  0.3298
    1SOL    MW4 1420   4.016   4.000   0.704  0.6061  0.0596 -0.0123
    1SOL     OW 1421   1.472   2.556   0.466 -0.4809 -0.0132  0.0252
    1SOL    HW2 1422   1.393   2.502   0.474 -0.9290  0.8901  2.0030
    1SOL    HW3 1423   1.442   2.644   0.485  0.9911  0.3680  0.5908
    1SOL    MW4 1424   1.458   2.560   0.469 -0.3457  0.1559  0.3607
    1SOL     OW 1425   4.383   1.979   0.409  0.1249  0.1701  0.2559
    1SOL    HW2 1426   4.369   1.971   0.504  0.3378  1.3211  0.3924
    1SOL    HW3 1427   4.458   1.922   0.391 -0.9903 -1.4077  0.4874
    1SOL    MW4 1428   4.391   1.970   0.419  0.0057  0.1137  0.3044
    1SOL     OW 1429   1.484   2.012   0.451  0.0026  0.1164 -0.1804
    1SOL    HW2 1430   1.556   2.071   0.430  0.2385 -0.4901 -1.0788
    1SOL    HW3 1431   1.496   1.937   0.394 -1.7889  0.3298 -0.8796
    1SOL    MW4 1432   1.495   2.010   0.441 -0.2025  0.0646 -0.3912
    1SOL     OW 1433   3.557   1.104   0.769 -0.1395  0.7710 -0.2748
    1SOL    HW2 1434   3.564   1.013   0.740  2.4577  1.3519 -1.6887
    1SOL    HW3 1435   3.584   1.102   0.861  1.2260  0.2881 -0.6743
    1SOL    MW4 1436   3.562   1.092   0.777  0.3834  0.7842 -0.5140
    1SOL     OW 1437   1.017   4.128   0.503  0.6956  0.0090  0.0694
    1SOL    HW2 1438   0.989   4.126   0.594  0.7034  0.9877  0.1054
    1SOL    HW3 1439   1.112   4.118   0.506  0.6814 -0.0900  0.1657
    1SOL    MW4 1440   1.025   4.126   0.515  0.6948  0.1249  0.0869
    1SOL     OW 1441   1.129   2.076   0.768  0.4815  0.0378 -0.2997
    1SOL    HW2 1442   1.051   2.026   0.793  0.3090  0.4056 -0.0909
    1SOL    HW3 1443   1.202   2.027   0.806  0.2803  0.1701  0.2731
    1SOL    MW4 1444   1.128   2.063   0.776  0.4323  0.1035 -0.1966
    1SOL     OW 1445   3.586   0.206   0.360  0.0432 -0.4209 -0.4887
    1SOL    HW2 1446   3.543   0.142   0.418 -0.2762  0.1789 -0.0555
    1SOL    HW3 1447   3.525   0.279   0.357  1.2307  0.6269  0.4762
    1SOL    MW4 1448   3.572   0.207   0.367  0.1578 -0.2035 -0.3043
    1SOL     OW 1449   2.962   2.811   0.511  0.4042 -0.2592  0.2716
    1SOL    HW2 1450   2.876   2.778   0.484  1.4078 -0.6492 -2.6697
    1SOL    HW3 1451   3.022   2.740   0.489  1.6337  0.5143  1.1034
    1SOL    MW4 1452   2.958   2.797   0.505  0.6988 -0.2086 -0.0067
    1SOL     OW 1453   1.758   3.330   0.755  0.2254  0.0043  0.4945
    1SOL    HW2 1454   1.706   3.262   0.798  0.3763 -0.6579 -0.3468
    1SOL    HW3 1455   1.830   3.282   0.715 -0.9568  0.3500 -2.1404
    1SOL    MW4 1456   1.761   3.314   0.756  0.0894 -0.0377  0.0358
    1SOL     OW 1457   0.171   2.807   0.453  0.1947 -0.1023  0.0568
    1SOL    HW2 1458   0.214   2.875   0.402  0.0164 -0.3596 -0.4384
    1SOL    HW3 1459   0.197   2.825   0.543  1.2472 -0.1833 -0.2194
    1SOL    MW4 1460   0.180   2.818   0.458  0.3101 -0.1471 -0.0450
    1SOL     OW 1461   2.074   1.467   0.281 -0.2957  0.0201  0.1971
    1SOL    HW2 1462   2.110   1.464   0.370 -2.1972 -0.3805  0.9666
    1SOL    HW3 1463   1.995   1.415   0.285  0.3249 -1.1762 -2.1036
    1SOL    MW4 1464   2.069   1.460   0.293 -0.4647 -0.1905 -0.0049
    1SOL     OW 1465   0.873   0.385   0.830 -0.1093 -0.0483  0.0560
    1SOL    HW2 1466   0.865   0.299   0.790 -1.5178  0.5095 -0.9423
    1SOL    HW3 1467   0.887   0.368   0.923  2.0836 -1.3668 -0.4932
    1SOL    MW4 1468   0.874   0.372   0.837 -0.0058 -0.1487 -0.1482
    1SOL     OW 1469   4.446   3.853   0.454 -0.0642  0.4947 -0.4400
    1SOL    HW2 1470   4.467   3.902   0.534  0.7216  0.3707 -0.5680
    1SOL    HW3 1471   4.530   3.819   0.424 -0.5284 -0.4387 -0.6842
    1SOL    MW4 1472   4.460   3.855   0.461 -0.0215  0.3555 -0.4891
    1SOL     OW 1473   1.793   0.064   0.418  0.1346 -0.0866  0.0341
    1SOL    HW2 1474   1.801   0.088   0.510 -0.1537  1.2576 -0.2832
    1SOL    HW3 1475   1.878   0.024   0.396  1.3548  2.3846  0.0903
    1SOL    MW4 1476   1.805   0.062   0.427  0.2576  0.4168 -0.0004
    1SOL     OW 1477   0.144   1.837   0.415 -0.0175 -0.0146  0.1271
    1SOL    HW2 1478   0.159   1.768   0.352  0.4024  1.1038 -1.0157
    1SOL    HW3 1479   0.137   1.792   0.499 -1.8729 -1.6411 -0.8517
    1SOL    MW4 1480   0.145   1.822   0.418 -0.2069 -0.0817 -0.1528
    1SOL     OW 1481   2.242   0.381   1.132  0.3920 -0.0430 -0.8098
    1SOL    HW2 1482   2.226   0.388   1.038 -0.4636 -1.6247 -0.7892
    1SOL    HW3 1483   2.177   0.439   1.172  2.4154  2.6390 -1.2857
    1SOL    MW4 1484   2.231   0.390   1.125  0.5460  0.1022 -0.8699
    1SOL     OW 1485   4.271   0.509   0.774 -0.0834  0.3774 -0.0171
    1SOL    HW2 1486   4.271   0.523   0.680  1.6656  2.6178  0.2565
    1SOL    HW3 1487   4.361   0.484   0.795 -0.9309 -2.0789  0.8209
    1SOL    MW4 1488   4.283   0.508   0.765  0.0353  0.3489  0.1296
    1SOL     OW 1489   2.289   0.604   0.348 -0.0850  0.1138 -0.7238
    1SOL    HW2 1490   2.365   0.553   0.375  0.3813  1.2083  0.0729
    1SOL    HW3 1491   2.324   0.669   0.287 -0.5079  0.1575 -0.9228
    1SOL    MW4 1492   2.304   0.606   0.344 -0.0794  0.2639 -0.6449
    1SOL     OW 1493   2.787   1.163   0.204  0.0007  0.0910 -0.0851
    1SOL    HW2 1494   2.857   1.155   0.140 -0.8241 -1.3877 -0.8211
    1SOL    HW3 1495   2.832   1.168   0.288  0.9623 -2.9002 -0.3662
    1SOL    MW4 1496   2.802   1.162   0.207  0.0188 -0.4988 -0.2193
    1SOL     OW 1497   2.467   1.243   0.775  0.1719  0.0223 -0.6229
    1SOL    HW2 1498   2.483   1.269   0.685  1.3766 -0.1199 -0.4583
    1SOL    HW3 1499   2.377   1.209   0.775 -0.1746  0.9082 -1.5554
    1SOL    MW4 1500   2.457   1.242   0.763  0.2849  0.1203 -0.7242
    1SOL     OW 1501   2.212   1.135   0.820 -0.4170 -0.2000 -0.1166
    1SOL    HW2 1502   2.233   1.046   0.792 -1.0219 -0.4653  0.2495
    1SOL    HW3 1503   2.219   1.133   0.915  2.3709  0.8995 -0.2577
    1SOL    MW4 1504   2.215   1.123   0.829 -0.1287 -0.0899 -0.0868
    1SOL     OW 1505   1.550   1.461   0.817 -0.1003 -0.1326  0.1390
    1SOL    HW2 1506   1.529   1.468   0.910  0.0180  0.0657  0.1506
    1SOL    HW3 1507   1.548   1.367   0.799  3.7617 -0.5142  1.2238
    1SOL    MW4 1508   1.547   1.449   0.827  0.4249 -0.1568  0.2837
    1SOL     OW 1509   3.157   0.801   0.752 -0.0403  0.1467 -0.3041
    1SOL    HW2 1510   3.236   0.768   0.795  0.1571  0.7180 -0.2180
    1SOL    HW3 1511   3.147   0.890   0.786 -1.7371 -0.5357  1.0702
    1SOL    MW4 1512   3.166   0.808   0.762 -0.2382  0.1320 -0.1115
    1SOL     OW 1513   1.485   0.510   0.528 -0.4566  0.1664 -0.1482
    1SOL    HW2 1514   1.486   0.426   0.481  0.7609 -0.1355  0.4050
    1SOL    HW3 1515   1.559   0.558   0.492 -0.2403  0.4085  0.6134
    1SOL    MW4 1516   1.494   0.505   0.517 -0.2674  0.1585  0.0253
    1SOL     OW 1517   2.195   1.893   0.864 -0.6049  0.1993  0.1632
    1SOL    HW2 1518   2.117   1.940   0.834  0.2295  2.2830  1.1057
    1SOL    HW3 1519   2.268   1.937   0.820  0.1801 -0.4642  0.7749
    1SOL    MW4 1520   2.195   1.905   0.854 -0.3912  0.3866  0.3682
    1SOL     OW 1521   2.039   3.945   0.469 -0.3832 -0.1268  0.0472
    1SOL    HW2 1522   2.059   3.858   0.436  0.0954 -0.1792  0.4650
    1SOL    HW3 1523   1.943   3.950   0.468 -0.4054 -0.6232 -0.0620
    1SOL    MW4 1524   2.029   3.935   0.465 -0.3228 -0.1993  0.0879
    1SOL     OW 1525   3.353   2.842   0.462 -0.2830 -0.0648 -0.0003
    1SOL    HW2 1526   3.331   2.835   0.555 -1.2335 -0.0097 -0.2115
    1SOL    HW3 1527   3.329   2.757   0.425 -0.6955  0.2004 -0.3480
    1SOL    MW4 1528   3.347   2.830   0.470 -0.4630 -0.0224 -0.0740
    1SOL     OW 1529   2.387   2.458   0.733 -0.2538 -0.2571  0.0053
    1SOL    HW2 1530   2.312   2.495   0.781  0.0457  0.2778  0.0640
    1SOL    HW3 1531   2.437   2.535   0.705 -0.4334 -0.5661 -1.1731
    1SOL    MW4 1532   2.384   2.473   0.736 -0.2382 -0.2272 -0.1425
    1SOL     OW 1533   2.143   2.573   0.831  0.2811 -0.0404 -0.5859
    1SOL    HW2 1534   2.161   2.595   0.922  0.2181  0.2876 -0.6515
    1SOL    HW3 1535   2.109   2.484   0.834  0.5858 -0.1460 -0.3223
    1SOL    MW4 1536   2.141   2.564   0.843  0.3128 -0.0110 -0.5597
    1SOL     OW 1537   1.474   4.237   0.394  0.3439 -0.3421  0.1903
    1SOL    HW2 1538   1.561   4.274   0.408  0.7098 -0.8235 -0.7761
    1SOL    HW3 1539   1.419   4.312   0.371  0.4386 -0.0020  1.0520
    1SOL    MW4 1540   1.478   4.252   0.393  0.4046 -0.3610  0.1764
    1SOL     OW 1541   1.774   4.254   0.833 -0.3939  0.2197 -0.3040
    1SOL    HW2 1542   1.804   4.241   0.923 -0.5112  2.2905  0.0503
    1SOL    HW3 1543   1.770   4.166   0.796  1.7725 -0.4780  1.0423
    1SOL    MW4 1544   1.777   4.241   0.840 -0.1234  0.4010 -0.0797
    1SOL     OW 1545   2.537   3.600   0.546 -0.7858 -0.1478 -0.1510
    1SOL    HW2 1546   2.629   3.576   0.544 -0.6402 -0.0049  2.7846
    1SOL    HW3 1547   2.490   3.517   0.554 -0.7769 -0.0730  0.7114
    1SOL    MW4 1548   2.543   3.586   0.546 -0.7653 -0.1190  0.3501
    1SOL     OW 1549   2.829   2.426   0.407  0.2015  0.0060 -0.1988
    1SOL    HW2 1550   2.919   2.436   0.376 -0.0051  1.3579 -0.4177
    1SOL    HW3 1551   2.836   2.378   0.489  1.0845 -0.2423 -0.4208
    1SOL    MW4 1552   2.841   2.421   0.414  0.2909  0.1516 -0.2570
    1SOL     OW 1553   1.348   3.793   0.473  0.0569  0.5349  0.1836
    1SOL    HW2 1554   1.298   3.874   0.489 -1.2912  0.0036 -1.2375
    1SOL    HW3 1555   1.405   3.814   0.399  1.1128  0.7628  1.0425
    1SOL    MW4 1556   1.349   3.807   0.465  0.0185  0.4950  0.1094
    1SOL     OW 1557   1.756   3.980   0.754  0.1714 -0.2535 -0.2448
    1SOL    HW2 1558   1.832   3.945   0.799  1.4537  2.3561 -0.2813
    1SOL    HW3 1559   1.681   3.935   0.794  1.6154 -1.7887  0.7859
    1SOL    MW4 1560   1.756   3.970   0.765  0.5312 -0.1118 -0.1136
    1SOL     OW 1561   3.094   3.977   0.699  0.1622 -0.2443 -0.4819
    1SOL    HW2 1562   3.033   3.932   0.758  0.3984 -1.0839 -0.8900
    1SOL    HW3 1563   3.179   3.937   0.717  0.3830  0.0860 -0.7979
    1SOL    MW4 1564   3.097   3.966   0.709  0.2224 -0.3116 -0.5774
    1SOL     OW 1565   2.564   2.112   0.151 -0.2210  0.4304  0.2822
    1SOL    HW2 1566   2.471   2.093   0.165 -0.2721 -0.2597 -0.9585
    1SOL    HW3 1567   2.573   2.121   0.057  1.0264  0.2416  0.3771
    1SOL    MW4 1568   2.553   2.111   0.141 -0.0634  0.3142  0.1310
    1SOL     OW 1569   2.215   1.133   0.364 -0.5186 -0.1634  0.3453
    1SOL    HW2 1570   2.133   1.148   0.410 -0.6975 -0.3615  0.0960
    1SOL    HW3 1571   2.275   1.101   0.431 -0.6645 -0.0841  0.5147
    1SOL    MW4 1572   2.212   1.131   0.379 -0.5615 -0.1791  0.3347
    1SOL     OW 1573   2.895   0.712   0.839 -0.0339 -0.4505  0.5842
    1SOL    HW2 1574   2.887   0.732   0.932  0.4543  1.2290  0.2835
    1SOL    HW3 1575   2.984   0.741   0.816  0.4155 -2.2781 -0.0641
    1SOL    MW4 1576   2.906   0.719   0.848  0.0896 -0.4700  0.4590
    1SOL     OW 1577   2.950   3.820   0.438  0.4173 -0.4644 -0.0085
    1SOL    HW2 1578   2.956   3.730   0.471  0.2012  0.1307  1.6931
    1SOL    HW3 1579   2.862   3.848   0.461  0.4508  0.1621 -0.6220
    1SOL    MW4 1580   2.939   3.812   0.445  0.3929 -0.3033  0.1351
    1SOL     OW 1581   2.494   0.732   0.814 -0.5588  0.1949 -0.1130
    1SOL    HW2 1582   2.573   0.766   0.772 -0.2541  0.9070  1.0415
    1SOL    HW3 1583   2.492   0.640   0.789  0.2154  0.3555 -0.7896
    1SOL    MW4 1584   2.504   0.724   0.805 -0.4165  0.3101 -0.0500
    1SOL     OW 1585   1.908   0.897   0.386 -0.1647 -0.0871 -0.9845
    1SOL    HW2 1586   1.833   0.845   0.415 -0.9375 -0.0592 -2.8360
    1SOL    HW3 1587   1.921   0.871   0.295  0.7752  1.4213 -1.3042
    1SOL    MW4 1588   1.900   0.887   0.378 -0.1427  0.1156 -1.2709
    1SOL     OW 1589   3.272   0.757   0.473 -0.1928 -0.0600  0.2644
    1SOL    HW2 1590   3.232   0.762   0.559  1.4640 -0.4487  1.0687
    1SOL    HW3 1591   3.231   0.681   0.432 -1.4125  0.4726  0.4709
    1SOL    MW4 1592   3.261   0.748   0.479 -0.1349 -0.0410  0.3978
    1SOL     OW 1593   1.164   2.806   0.526 -0.2904  0.0921 -0.3765
    1SOL    HW2 1594   1.121   2.843   0.449  0.4948  0.8574 -0.4629
    1SOL    HW3 1595   1.253   2.842   0.523  0.3031 -1.3212 -0.1093
    1SOL    MW4 1596   1.170   2.816   0.516 -0.1085  0.0064 -0.3527
    1SOL     OW 1597   3.127   2.541   0.442 -0.0531 -0.0310  0.0564
    1SOL    HW2 1598   3.140   2.506   0.530  0.5660  0.9972  0.3777
    1SOL    HW3 1599   3.215   2.548   0.406 -0.2850 -0.2099 -0.5614
    1SOL    MW4 1600   3.140   2.537   0.449 -0.0021  0.0811  0.0173
    1SOL     OW 1601   2.694   1.609   0.760  0.0529  0.0844  0.1453
    1SOL    HW2 1602   2.708   1.599   0.666 -0.2271  1.0124  0.0118
    1SOL    HW3 1603   2.676   1.702   0.773 -1.3299 -0.2857  0.9407
    1SOL    MW4 1604   2.694   1.620   0.749 -0.1667  0.1578  0.2327
    1SOL     OW 1605   3.132   1.660   0.778 -0.2502 -0.2676  0.3236
    1SOL    HW2 1606   3.128   1.670   0.683 -4.0123 -1.7547  0.2562
    1SOL    HW3 1607   3.138   1.750   0.811 -0.1250  0.3303 -1.2613
    1SOL    MW4 1608   3.132   1.674   0.770 -0.7298 -0.3848  0.1056
    1SOL     OW 1609   0.063   0.248   0.599 -0.1102  0.3036 -0.3395
    1SOL    HW2 1610  -0.018   0.238   0.549  0.2589 -0.1613 -0.8445
    1SOL    HW3 1611   0.038   0.300   0.675 -1.0162 -0.3431 -0.1868
    1SOL    MW4 1612   0.049   0.253   0.603 -0.1810  0.1570 -0.3860
    1SOL     OW 1613   1.710   2.462   0.501  0.5240  0.0377  0.3444
    1SOL    HW2 1614   1.733   2.458   0.593 -0.9050 -0.4228  0.6864
    1SOL    HW3 1615   1.620   2.496   0.500  0.9360  1.1279 -0.9223
    1SOL    MW4 1616   1.701   2.466   0.513  0.3898  0.1209  0.2224
    1SOL     OW 1617   2.709   1.121   0.856  0.3258  0.4208 -0.2659
    1SOL    HW2 1618   2.787   1.158   0.815  1.0026  0.0249  0.6411
    1SOL    HW3 1619   2.636   1.167   0.816  1.0402  0.9283 -0.9878
    1SOL    MW4 1620   2.710   1.132   0.846  0.5095  0.4355 -0.2415
    1SOL     OW 1621   2.871   2.272   0.649 -0.1103 -0.3849  0.4177
    1SOL    HW2 1622   2.835   2.294   0.735  0.4836  0.2704  0.4978
    1SOL    HW3 1623   2.845   2.181   0.636 -0.2636 -0.4710  1.2606
    1SOL    MW4 1624   2.863   2.263   0.659 -0.0520 -0.3097  0.5395
    1SOL     OW 1625   2.763   2.330   0.903 -0.2116 -0.2143 -0.2045
    1SOL    HW2 1626   2.812   2.318   0.984  1.0874  0.1887 -0.9095
    1SOL    HW3 1627   2.755   2.425   0.893 -1.5061 -0.2746  0.1015
    1SOL    MW4 1628   2.768   2.341   0.912 -0.2110 -0.1693 -0.2571
    1SOL     OW 1629   2.733   2.618   0.886  0.9704 -0.3585  0.0682
    1SOL    HW2 1630   2.806   2.676   0.863 -0.5668  1.3137 -0.7395
    1SOL    HW3 1631   2.721   2.630   0.980 -0.3398  1.8827 -0.3478
    1SOL    MW4 1632   2.741   2.627   0.895  0.5946  0.1576 -0.0933
    1SOL     OW 1633   1.110   1.270   0.765  0.2139  0.1304 -0.0648
    1SOL    HW2 1634   1.026   1.235   0.794 -0.0793 -0.2309 -1.2989
    1SOL    HW3 1635   1.097   1.286   0.671  1.5810 -0.0854 -0.2907
    1SOL    MW4 1636   1.097   1.268   0.756  0.3556  0.0542 -0.2575
    1SOL     OW 1637   1.541   1.243   0.418 -0.0066  0.1481  0.2628
    1SOL    HW2 1638   1.625   1.266   0.379 -1.6503  2.3059 -2.1468
    1SOL    HW3 1639   1.527   1.151   0.394  1.2103  0.0540 -0.1138
    1SOL    MW4 1640   1.550   1.234   0.410 -0.0629  0.4205 -0.1048
    1SOL     OW 1641   2.497   2.975   0.688 -0.4665  0.0828  0.3279
    1SOL    HW2 1642   2.569   3.003   0.744  0.3333 -0.7992 -0.2405
    1SOL    HW3 1643   2.421   3.023   0.721  0.1761  0.2784  1.5632
    1SOL    MW4 1644   2.496   2.985   0.700 -0.2763 -0.0079  0.4159
    1SOL     OW 1645   2.666   3.438   0.888  0.1143  0.4130  0.3940
    1SOL    HW2 1646   2.744   3.475   0.845  0.6725 -3.0533 -1.7733
    1SOL    HW3 1647   2.697   3.412   0.974  0.6414  1.5435  0.5630
    1SOL    MW4 1648   2.680   3.440   0.893  0.2573  0.1049  0.1304
    1SOL     OW 1649   2.891   3.563   0.786 -0.1749  0.6208 -0.2839
    1SOL    HW2 1650   2.978   3.524   0.778 -0.4952 -0.3726  1.1048
    1SOL    HW3 1651   2.908   3.654   0.810  0.4946  0.7426 -1.1653
    1SOL    MW4 1652   2.905   3.570   0.788 -0.1287  0.5057 -0.2169
    1SOL     OW 1653   2.348   3.163   0.425 -0.3789  0.1383 -0.0119
    1SOL    HW2 1654   2.406   3.093   0.394  0.8751  0.9188  0.5736
    1SOL    HW3 1655   2.261   3.122   0.428  0.2153 -1.1728 -0.4122
    1SOL    MW4 1656   2.344   3.148   0.421 -0.1352  0.0679  0.0125
    1SOL     OW 1657   0.578   4.440   0.517  0.1411 -0.1646 -0.1391
    1SOL    HW2 1658   0.595   4.414   0.607  1.1431 -0.0269 -0.2766
    1SOL    HW3 1659   0.660   4.480   0.488 -0.5503  0.8448 -0.7421
    1SOL    MW4 1660   0.591   4.442   0.525  0.1820 -0.0129 -0.2368
    1SOL     OW 1661   2.667   3.971   0.763 -0.1989  0.3444 -0.6828
    1SOL    HW2 1662   2.666   4.063   0.790 -0.2799  0.0287  0.4522
    1SOL    HW3 1663   2.582   3.937   0.791 -0.3739  0.0445 -1.5550
    1SOL    MW4 1664   2.656   3.979   0.771 -0.2329  0.2632 -0.6481
    1SOL     OW 1665   2.933   1.231   0.714 -0.1844  0.0617  0.0720
    1SOL    HW2 1666   2.933   1.321   0.745 -0.3436  0.3437 -0.7358
    1SOL    HW3 1667   3.012   1.193   0.751  0.5126  0.8754 -0.5459
    1SOL    MW4 1668   2.943   1.238   0.723 -0.1135  0.2064 -0.1161
    1SOL     OW 1669   2.033   0.509   0.715 -0.0455 -0.3082  0.0341
    1SOL    HW2 1670   1.953   0.472   0.751  1.3596 -0.3861  3.2609
    1SOL    HW3 1671   2.038   0.597   0.752  1.0411 -0.0831 -0.6232
    1SOL    MW4 1672   2.023   0.516   0.724  0.2835 -0.2887  0.3731
    1SOL     OW 1673   2.489   0.420   0.445  0.3754 -0.1958 -0.0713
    1SOL    HW2 1674   2.579   0.436   0.418  0.5378  0.9208  1.0720
    1SOL    HW3 1675   2.489   0.437   0.540 -0.4760 -2.5986  0.3922
    1SOL    MW4 1676   2.501   0.424   0.454  0.2847 -0.3656  0.1407
    1SOL     OW 1677   0.970   2.005   0.443 -0.0231  0.0819  0.3416
    1SOL    HW2 1678   0.988   2.039   0.355 -1.5801  0.5314  0.1930
    1SOL    HW3 1679   1.053   2.016   0.490  0.6605  0.3362 -0.9078
    1SOL    MW4 1680   0.983   2.011   0.438 -0.1383  0.1750  0.1571
    1SOL     OW 1681   3.175   0.325   0.792  0.0326 -0.1334  0.2723
    1SOL    HW2 1682   3.171   0.326   0.888 -0.7797 -1.3328  0.2518
    1SOL    HW3 1683   3.259   0.367   0.771  0.4181 -0.2785  1.5154
    1SOL    MW4 1684   3.186   0.331   0.802 -0.0236 -0.3109  0.4336
    1SOL     OW 1685   2.628   1.912   0.345 -0.1063  0.1255 -0.1165
    1SOL    HW2 1686   2.632   1.968   0.267  0.8218 -1.9573 -1.6180
    1SOL    HW3 1687   2.613   1.824   0.310 -0.2271 -0.7630  2.1118
    1SOL    MW4 1688   2.627   1.908   0.330  0.0000 -0.2666 -0.0206
    1SOL     OW 1689   2.505   0.456   0.746 -0.0927  0.2777  0.0464
    1SOL    HW2 1690   2.432   0.424   0.799 -1.1326 -0.0077 -1.5118
    1SOL    HW3 1691   2.577   0.396   0.766 -0.6582 -0.2115  0.6342
    1SOL    MW4 1692   2.505   0.444   0.756 -0.3045  0.1755 -0.0817
    1SOL     OW 1693   3.786   4.381   0.726  0.1876 -0.5314 -0.3609
    1SOL    HW2 1694   3.705   4.338   0.753  0.8867 -1.4166  0.3507
    1SOL    HW3 1695   3.781   4.383   0.631 -1.0635  0.2006 -0.3024
    1SOL    MW4 1696   3.774   4.376   0.717  0.1149 -0.5512 -0.2592
    1SOL     OW 1697   3.325   1.467   0.837 -0.2335  0.0085 -0.1161
    1SOL    HW2 1698   3.267   1.536   0.804  0.3575  1.0621  0.9977
    1SOL    HW3 1699   3.335   1.487   0.930  1.6297 -0.3718 -0.2198
    1SOL    MW4 1700   3.319   1.479   0.845  0.0904  0.0973  0.0171
    1SOL     OW 1701   2.266   0.874   0.740 -0.2701 -0.2163 -0.0296
    1SOL    HW2 1702   2.256   0.857   0.646  2.3776  1.5345 -0.6866
    1SOL    HW3 1703   2.344   0.825   0.765  0.9219  1.8839  0.4944
    1SOL    MW4 1704   2.275   0.865   0.731  0.2365  0.2918 -0.0471
    1SOL     OW 1705   3.557   0.826   0.717  0.0529  0.0265 -0.1087
    1SOL    HW2 1706   3.554   0.775   0.636 -0.0393 -2.3890  1.3541
    1SOL    HW3 1707   3.643   0.807   0.754 -0.8985 -1.0173  1.6482
    1SOL    MW4 1708   3.568   0.817   0.711 -0.0849 -0.4299  0.3161
    1SOL     OW 1709   3.379   2.559   0.359  0.3223 -0.2002 -0.1407
    1SOL    HW2 1710   3.462   2.523   0.391  0.2999  0.6079  0.8469
    1SOL    HW3 1711   3.364   2.514   0.276  0.3119 -2.4601  1.0312
    1SOL    MW4 1712   3.388   2.548   0.352  0.3183 -0.3920  0.1442
    1SOL     OW 1713   1.546   3.828   0.878  0.2803 -0.2172 -0.0312
    1SOL    HW2 1714   1.482   3.886   0.837  0.6725 -1.2641 -2.1719
    1SOL    HW3 1715   1.544   3.748   0.825  0.1069 -2.0012  2.5651
    1SOL    MW4 1716   1.538   3.825   0.866  0.3092 -0.5906  0.0289
    1SOL     OW 1717   3.865   0.249   0.398  0.0353  0.9024 -0.8459
    1SOL    HW2 1718   3.851   0.340   0.427 -1.8571  0.1069  0.8925
    1SOL    HW3 1719   3.781   0.221   0.364  0.2119 -0.6554 -0.0553
    1SOL    MW4 1720   3.852   0.257   0.398 -0.1910  0.5919 -0.5122
    1SOL     OW 1721   3.639   2.904   0.466 -0.0743  0.2709  0.0473
    1SOL    HW2 1722   3.656   2.998   0.464  0.0348  0.2188 -1.3268
    1SOL    HW3 1723   3.544   2.896   0.455  0.2536  0.1050 -3.1217
    1SOL    MW4 1724   3.629   2.915   0.465 -0.0167  0.2420 -0.5521
    1SOL     OW 1725   2.943   2.770   0.780 -0.2419  0.4741  0.0899
    1SOL    HW2 1726   3.011   2.721   0.826 -0.8786 -1.4104 -0.9215
    1SOL    HW3 1727   2.972   2.773   0.689 -0.8105  0.9036 -0.0843
    1SOL    MW4 1728   2.956   2.764   0.774 -0.4008  0.2820 -0.0665
    1SOL     OW 1729   1.720   1.649   0.727  0.1230 -0.2361  0.6469
    1SOL    HW2 1730   1.655   1.583   0.752  0.6794 -0.6887  0.9046
    1SOL    HW3 1731   1.798   1.626   0.777  0.3289  0.6134  0.7323
    1SOL    MW4 1732   1.722   1.638   0.737  0.2236 -0.1837  0.6921
    1SOL     OW 1733   1.288   3.266   0.490  0.1189  0.5279  0.0499
    1SOL    HW2 1734   1.378   3.276   0.461  0.4307  1.9125  1.4235
    1SOL    HW3 1735   1.254   3.355   0.495 -0.5240  0.2085  1.9895
    1SOL    MW4 1736   1.295   3.279   0.487  0.0752  0.6685  0.4871
    1SOL     OW 1737   3.103   3.158   0.739  0.5223  0.0606  0.0517
    1SOL    HW2 1738   3.026   3.130   0.789  2.3559 -1.6613  2.0608
    1SOL    HW3 1739   3.081   3.141   0.648 -1.6742  0.0969  0.5563
    1SOL    MW4 1740   3.090   3.152   0.734  0.4742 -0.1619  0.3834
    1SOL     OW 1741   3.140   3.445   0.807 -0.4171  0.2065 -0.0641
    1SOL    HW2 1742   3.125   3.357   0.773  1.0443  0.1045 -0.4796
    1SOL    HW3 1743   3.146   3.433   0.902  0.5182 -0.2566 -0.1781
    1SOL    MW4 1744   3.139   3.432   0.815 -0.1011  0.1318 -0.1340
    1SOL     OW 1745   3.490   3.512   0.424 -0.2685 -0.1826  0.1875
    1SOL    HW2 1746   3.497   3.604   0.399  0.2499 -0.0561  0.7796
    1SOL    HW3 1747   3.449   3.514   0.511  1.4733 -0.3906  1.0424
    1SOL    MW4 1748   3.486   3.524   0.432  0.0296 -0.1934  0.3784
    1SOL     OW 1749   3.553   3.962   0.711 -0.1989  0.6948 -0.1161
    1SOL    HW2 1750   3.478   3.904   0.724  0.1905  0.1789 -0.1518
    1SOL    HW3 1751   3.625   3.918   0.756  0.3840  0.5488 -1.1944
    1SOL    MW4 1752   3.553   3.949   0.719 -0.0706  0.6077 -0.2632
    1SOL     OW 1753   4.272   0.561   0.480 -0.0161 -0.7492  0.0910
    1SOL    HW2 1754   4.356   0.592   0.448  0.6630 -0.5506  2.0266
    1SOL    HW3 1755   4.272   0.468   0.459  1.6824 -1.2409  2.1088
    1SOL    MW4 1756   4.283   0.553   0.473  0.2971 -0.7879  0.6126
    1SOL     OW 1757   3.130   4.245   0.816 -0.1895  0.3578  0.0736
    1SOL    HW2 1758   3.047   4.280   0.782  0.7747  0.5251 -2.1928
    1SOL    HW3 1759   3.128   4.152   0.791 -0.1315  0.1277  0.9126
    1SOL    MW4 1760   3.119   4.237   0.809 -0.0551  0.3490 -0.1147
    1SOL     OW 1761   2.795   0.757   0.467  0.3070  0.1646  0.4429
    1SOL    HW2 1762   2.763   0.794   0.549  0.5999 -0.1563  0.7064
    1SOL    HW3 1763   2.879   0.800   0.453  0.0332  0.5705  0.0636
    1SOL    MW4 1764   2.802   0.767   0.476  0.3095  0.1758  0.4276
    1SOL     OW 1765   1.964   1.558   0.839  0.1822 -0.2701 -0.1993
    1SOL    HW2 1766   1.974   1.473   0.797  1.0028 -0.2093 -0.1531
    1SOL    HW3 1767   2.043   1.606   0.814 -0.3332  0.5224 -0.3277
    1SOL    MW4 1768   1.976   1.553   0.830  0.2224 -0.1575 -0.2101
    1SOL     OW 1769   3.097   0.061   0.745 -0.5722 -0.4976  0.5725
    1SOL    HW2 1770   3.116   0.151   0.771 -0.3949 -0.2196 -0.4948
    1SOL    HW3 1771   3.178   0.013   0.763  0.2534  0.1145 -1.3570
    1SOL    MW4 1772   3.110   0.066   0.751 -0.4399 -0.3802  0.1771
    1SOL     OW 1773   3.596   0.333   0.824  0.4194 -0.3751 -0.3313
    1SOL    HW2 1774   3.668   0.387   0.791  0.4868 -0.6319 -0.6134
    1SOL    HW3 1775   3.622   0.311   0.913  0.7616 -0.5768 -0.4746
    1SOL    MW4 1776   3.609   0.337   0.831  0.4737 -0.4356 -0.3874
    1SOL     OW 1777   0.624   0.494   0.784 -0.2303 -0.0362 -1.0573
    1SOL    HW2 1778   0.572   0.415   0.795  1.0415 -0.8840 -1.0659
    1SOL    HW3 1779   0.714   0.467   0.801  0.4496  1.0167 -2.7690
    1SOL    MW4 1780   0.629   0.480   0.788  0.0272 -0.0091 -1.2842
    1SOL     OW 1781   3.802   0.747   0.816 -0.1318  0.3028  0.3061
    1SOL    HW2 1782   3.797   0.759   0.911  0.9958  0.6048  0.3335
    1SOL    HW3 1783   3.881   0.795   0.790 -0.6703  0.5726 -0.8429
    1SOL    MW4 1784   3.812   0.755   0.825 -0.0539  0.3783  0.1582
    1SOL     OW 1785   1.530   1.753   0.332 -0.4133 -0.3754  0.1640
    1SOL    HW2 1786   1.443   1.736   0.368 -0.1973 -0.8574  0.4677
    1SOL    HW3 1787   1.586   1.689   0.376 -0.2555 -1.4136 -1.5121
    1SOL    MW4 1788   1.526   1.742   0.343 -0.3641 -0.5759 -0.0171
    1SOL     OW 1789   3.785   1.519   0.851 -0.3006  0.1890  0.5624
    1SOL    HW2 1790   3.779   1.429   0.819  2.1326  0.1180  0.2070
    1SOL    HW3 1791   3.714   1.565   0.807 -0.4625 -1.1814 -0.6277
    1SOL    MW4 1792   3.775   1.513   0.841 -0.0010 -0.0012  0.3583
    1SOL     OW 1793   2.870   1.867   0.447 -0.1981  0.4450 -0.3808
    1SOL    HW2 1794   2.781   1.893   0.422  0.1779  0.5814 -1.6023
    1SOL    HW3 1795   2.890   1.919   0.524 -0.7734  1.2044 -0.7435
    1SOL    MW4 1796   2.861   1.877   0.454 -0.2244  0.5631 -0.5898
    1SOL     OW 1797   4.225   2.830   0.681  0.1108  0.2539  0.3238
    1SOL    HW2 1798   4.313   2.807   0.710  1.0739  1.8628 -1.2490
    1SOL    HW3 1799   4.199   2.903   0.737 -0.1847 -0.1255  0.6895
    1SOL    MW4 1800   4.233   2.836   0.692  0.1988  0.4163  0.1646
    1SOL     OW 1801   1.112   0.532   0.763  0.4519 -0.1782 -0.3087
    1SOL    HW2 1802   1.182   0.481   0.804 -0.2073 -1.3566 -0.6155
    1SOL    HW3 1803   1.033   0.482   0.782 -0.5959  2.2275  1.8212
    1SOL    MW4 1804   1.111   0.518   0.771  0.2267 -0.0162 -0.0682
    1SOL     OW 1805   3.915   2.489   0.470  0.0508 -0.2661 -0.0365
    1SOL    HW2 1806   3.949   2.467   0.557 -0.5981  0.0898  0.3131
    1SOL    HW3 1807   3.945   2.418   0.414 -0.2578 -0.9610  0.6580
    1SOL    MW4 1808   3.923   2.476   0.474 -0.0756 -0.3109  0.1012
    1SOL     OW 1809   3.342   2.286   0.791  0.2054  0.5193 -0.1295
    1SOL    HW2 1810   3.329   2.292   0.886 -1.2901 -0.1030 -0.2854
    1SOL    HW3 1811   3.349   2.193   0.773 -0.1895  0.6016 -0.7242
    1SOL    MW4 1812   3.341   2.275   0.801 -0.0439  0.4478 -0.2286
    1SOL     OW 1813   3.797   2.342   1.119 -0.1136 -0.0854  0.2701
    1SOL    HW2 1814   3.883   2.378   1.137  1.0961 -2.2786 -0.8840
    1SOL    HW3 1815   3.793   2.334   1.024 -0.5214 -2.4681  0.4558
    1SOL    MW4 1816   3.808   2.345   1.109 -0.0081 -0.6893  0.1423
    1SOL     OW 1817   1.675   2.188   0.444 -0.4124 -0.2309 -0.4950
    1SOL    HW2 1818   1.685   2.281   0.465 -1.0789 -0.5470  1.3522
    1SOL    HW3 1819   1.751   2.146   0.484 -1.0714 -0.7067  0.2747
    1SOL    MW4 1820   1.686   2.195   0.452 -0.5873 -0.3352 -0.1497
    1SOL     OW 1821   3.530   2.686   0.834  0.1227  0.3680  0.2568
    1SOL    HW2 1822   3.549   2.692   0.928  3.0334  0.8366 -0.3128
    1SOL    HW3 1823   3.604   2.729   0.792 -0.4732 -1.0247 -2.3222
    1SOL    MW4 1824   3.543   2.693   0.841  0.4280  0.2460 -0.1586
    1SOL     OW 1825   1.573   3.315   0.510  0.3696 -0.2050 -0.2048
    1SOL    HW2 1826   1.579   3.400   0.466  1.2820  0.2069  0.6931
    1SOL    HW3 1827   1.628   3.324   0.588  1.3942 -2.0023 -0.6930
    1SOL    MW4 1828   1.581   3.328   0.515  0.6253 -0.3881 -0.1507
    1SOL     OW 1829   3.790   3.076   0.896 -0.1204 -0.1591  0.1550
    1SOL    HW2 1830   3.718   3.135   0.874  0.5983  0.4333 -0.6121
    1SOL    HW3 1831   3.766   2.993   0.855 -0.2909  0.0858 -0.2444
    1SOL    MW4 1832   3.777   3.073   0.888 -0.0482 -0.0484  0.0011
    1SOL     OW 1833   3.660   2.397   0.449  0.1712 -0.0576 -0.0878
    1SOL    HW2 1834   3.627   2.412   0.537  0.7889 -0.9859  0.3079
    1SOL    HW3 1835   3.748   2.436   0.449  0.3671 -0.5051 -0.1498
    1SOL    MW4 1836   3.668   2.404   0.460  0.2787 -0.2391 -0.0437
    1SOL     OW 1837   3.590   3.233   0.795  0.2152  0.2937  0.3387
    1SOL    HW2 1838   3.600   3.232   0.700 -0.4844  0.3739  0.2668
    1SOL    HW3 1839   3.518   3.174   0.813 -1.0817  1.9131  0.6390
    1SOL    MW4 1840   3.582   3.225   0.785 -0.0482  0.5181  0.3688
    1SOL     OW 1841   4.052   3.906   0.444 -0.7726  0.5452  0.1795
    1SOL    HW2 1842   4.110   3.830   0.437 -0.7338  0.5366  0.5675
    1SOL    HW3 1843   4.108   3.981   0.425 -1.2288  0.3579 -2.1229
    1SOL    MW4 1844   4.067   3.906   0.440 -0.8283  0.5193 -0.0731
    1SOL     OW 1845   3.795   3.599   0.753 -0.2141  0.4200 -0.0044
    1SOL    HW2 1846   3.873   3.550   0.778 -0.6861 -0.9034 -1.0523
    1SOL    HW3 1847   3.797   3.599   0.657  0.1728  3.1049 -0.0338
    1SOL    MW4 1848   3.806   3.592   0.743 -0.2253  0.5996 -0.1465
    1SOL     OW 1849   0.567   2.009   0.562 -0.1421  0.4325  0.1929
    1SOL    HW2 1850   0.474   2.017   0.543 -0.1661 -0.5012 -0.1319
    1SOL    HW3 1851   0.592   1.923   0.526  0.6414  0.2758  1.0656
    1SOL    MW4 1852   0.558   1.998   0.554 -0.0418  0.2886  0.2651
    1SOL     OW 1853   2.288   3.461   0.886 -0.1381 -0.0064 -0.0078
    1SOL    HW2 1854   2.306   3.367   0.885 -1.3712 -0.2654  0.7000
    1SOL    HW3 1855   2.374   3.502   0.876  0.2804 -1.2091 -1.6584
    1SOL    MW4 1856   2.302   3.454   0.885 -0.2453 -0.1993 -0.1322
    1SOL     OW 1857   1.036   4.409   0.484 -0.1114 -0.4627  0.2917
    1SOL    HW2 1858   1.015   4.318   0.463  1.0255 -0.2442 -1.9757
    1SOL    HW3 1859   0.957   4.457   0.462  0.4007 -0.4995 -1.7425
    1SOL    MW4 1860   1.023   4.403   0.478  0.1061 -0.4382 -0.2759
    1SOL     OW 1861   4.365   0.013   0.840  0.3675 -0.0995  0.5341
    1SOL    HW2 1862   4.316  -0.008   0.919  0.0285  0.8107  0.5792
    1SOL    HW3 1863   4.319   0.090   0.804  0.9073 -0.1127 -0.1908
    1SOL    MW4 1864   4.352   0.020   0.845  0.3943  0.0188  0.4444
    1SOL     OW 1865   3.553   0.072   0.755  0.4067 -0.0081 -0.0118
    1SOL    HW2 1866   3.564   0.165   0.772  0.2352  0.3979 -2.0939
    1SOL    HW3 1867   3.641   0.035   0.762  0.6151  0.4704 -0.1488
    1SOL    MW4 1868   3.566   0.079   0.758  0.4113  0.1086 -0.3045
    1SOL     OW 1869   4.105   0.175   0.264  0.1813  0.2480  0.1141
    1SOL    HW2 1870   4.019   0.189   0.304  0.4297  0.4621  0.5802
    1SOL    HW3 1871   4.117   0.249   0.204 -0.4101 -0.3438 -0.7438
    1SOL    MW4 1872   4.096   0.186   0.261  0.1359  0.1981  0.0624
    1SOL     OW 1873   4.463   2.738   0.803 -0.1244  0.1749  0.1117
    1SOL    HW2 1874   4.467   2.729   0.898 -0.3919 -1.9649 -0.0569
    1SOL    HW3 1875   4.549   2.774   0.779  0.4710 -0.5939  1.0433
    1SOL    MW4 1876   4.475   2.741   0.812 -0.0811 -0.2091  0.2124
    1SOL     OW 1877   4.277   0.787   0.841  0.3015  0.5640  0.1392
    1SOL    HW2 1878   4.273   0.793   0.936 -1.0665  0.2243  0.1090
    1SOL    HW3 1879   4.269   0.693   0.822 -0.7632  0.7529 -0.3699
    1SOL    MW4 1880   4.276   0.775   0.851 -0.0196  0.5441  0.0681
    1SOL     OW 1881   4.373   3.108   0.507  0.2028 -0.1625 -0.2101
    1SOL    HW2 1882   4.391   3.020   0.474  0.0673  0.1388 -1.0860
    1SOL    HW3 1883   4.289   3.132   0.469  0.3055  0.4050 -0.0866
    1SOL    MW4 1884   4.365   3.099   0.498  0.1984 -0.0479 -0.3094
    1SOL     OW 1885   1.330   1.642   0.762 -0.1774  0.1263  0.0605
    1SOL    HW2 1886   1.385   1.572   0.797  0.9690  0.6586 -0.6775
    1SOL    HW3 1887   1.334   1.631   0.667 -0.0528  1.1396 -0.0584
    1SOL    MW4 1888   1.338   1.631   0.754 -0.0097  0.3302 -0.0526
    1SOL     OW 1889   2.227   4.237   0.796  0.5170 -0.0297 -0.1728
    1SOL    HW2 1890   2.147   4.281   0.768  0.9531  0.3207 -0.9046
    1SOL    HW3 1891   2.213   4.145   0.772  0.2816  0.0063 -0.1765
    1SOL    MW4 1892   2.215   4.230   0.789  0.5434  0.0215 -0.2698
    1SOL     OW 1893   4.240   1.541   0.828 -0.0744 -0.1215  0.4607
    1SOL    HW2 1894   4.256   1.448   0.810 -0.6469 -0.0194 -0.6211
    1SOL    HW3 1895   4.271   1.553   0.918  1.2058 -1.0688  0.1740
    1SOL    MW4 1896   4.246   1.530   0.838  0.0191 -0.2331  0.2801
    1SOL     OW 1897   0.887   1.134   0.850  0.8072 -0.1381  0.0497
    1SOL    HW2 1898   0.823   1.196   0.814 -0.1035 -0.1972  1.5087
    1SOL    HW3 1899   0.861   1.049   0.813  1.0770  0.0989 -0.6883
    1SOL    MW4 1900   0.875   1.131   0.840  0.7226 -0.1148  0.1448
    1SOL     OW 1901   0.185   4.246   0.338 -0.5314 -0.1929 -0.6075
    1SOL    HW2 1902   0.232   4.196   0.405 -0.6204  0.4841 -0.0354
    1SOL    HW3 1903   0.248   4.254   0.266  0.4352  1.1375  0.3470
    1SOL    MW4 1904   0.200   4.240   0.338 -0.4156  0.0715 -0.4061
    1SOL     OW 1905   4.006   3.192   0.742  0.2399  0.3529 -0.1678
    1SOL    HW2 1906   3.933   3.149   0.786  0.2008  0.5843 -0.0072
    1SOL    HW3 1907   3.966   3.235   0.666  0.6884 -2.2305 -1.9325
    1SOL    MW4 1908   3.991   3.192   0.738  0.2940  0.0424 -0.3794
    1SOL     OW 1909   0.228   2.341   1.154  0.3164 -0.5272  0.1400
    1SOL    HW2 1910   0.150   2.391   1.179 -0.1413  0.3451 -2.7647
    1SOL    HW3 1911   0.300   2.388   1.195 -0.3033  1.4268 -0.9212
    1SOL    MW4 1912   0.227   2.354   1.163  0.1742 -0.1545 -0.3831
    1SOL     OW 1913   1.964   3.841   0.865  0.1524  0.2507  0.2424
    1SOL    HW2 1914   1.962   3.862   0.958 -1.1131  0.6802  0.1223
    1SOL    HW3 1915   1.942   3.748   0.860 -0.8996  0.4935  0.2955
    1SOL    MW4 1916   1.961   3.831   0.876 -0.1533  0.3393  0.2335
    1SOL     OW 1917   3.742   2.843   0.738  0.1234 -0.1224 -0.2694
    1SOL    HW2 1918   3.830   2.807   0.741  0.3861  0.4432 -1.0917
    1SOL    HW3 1919   3.723   2.852   0.645 -0.0346  1.6218 -0.0861
    1SOL    MW4 1920   3.751   2.839   0.726  0.1371  0.1824 -0.3537
    1SOL     OW 1921   0.910   1.927   0.841 -0.1125 -0.6718 -0.2477
    1SOL    HW2 1922   0.825   1.967   0.819 -0.5240 -1.1888  0.3725
    1SOL    HW3 1923   0.901   1.902   0.932  1.1853  0.4264  0.1876
    1SOL    MW4 1924   0.897   1.929   0.850  0.0044 -0.5952 -0.1085
    1SOL     OW 1925   2.444   0.810   0.180 -0.3006  0.1266 -0.0919
    1SOL    HW2 1926   2.518   0.857   0.219  0.2037 -0.0820 -0.7816
    1SOL    HW3 1927   2.481   0.765   0.104 -0.7736 -1.4492  0.5912
    1SOL    MW4 1928   2.459   0.811   0.175 -0.2966 -0.1089 -0.0928
    1SOL     OW 1929   3.828   2.117   0.497  0.0379 -0.1382  0.5803
    1SOL    HW2 1930   3.899   2.154   0.446  0.5922  0.4108  1.7256
    1SOL    HW3 1931   3.756   2.179   0.489 -0.7280 -1.2261 -1.4817
    1SOL    MW4 1932   3.827   2.130   0.490  0.0100 -0.2093  0.4593
    1SOL     OW 1933   3.549   3.514   0.864  0.0739  0.2843  0.1424
    1SOL    HW2 1934   3.633   3.549   0.836 -0.1952  0.7379 -0.0989
    1SOL    HW3 1935   3.561   3.419   0.863  0.2617  0.3110 -0.9155
    1SOL    MW4 1936   3.561   3.506   0.860  0.0632  0.3474 -0.0290
    1SOL     OW 1937   4.264   3.860   0.785  0.4542  0.1153 -0.8179
    1SOL    HW2 1938   4.186   3.904   0.750 -0.1837  0.3457  0.8453
    1SOL    HW3 1939   4.255   3.866   0.880  2.3244 -0.1919 -0.5941
    1SOL    MW4 1940   4.253   3.866   0.793  0.6166  0.1051 -0.5689
    1SOL     OW 1941   0.459   0.925   0.497 -0.5903 -0.3799 -0.2998
    1SOL    HW2 1942   0.459   1.013   0.460 -1.0777 -0.5997 -0.8442
    1SOL    HW3 1943   0.369   0.894   0.485 -0.5781 -0.7293  0.4315
    1SOL    MW4 1944   0.447   0.933   0.491 -0.6530 -0.4551 -0.2751
    1SOL     OW 1945   3.788   3.862   0.837 -0.2137  0.1471 -0.2434
    1SOL    HW2 1946   3.873   3.890   0.803  1.0639 -0.4911  2.2997
    1SOL    HW3 1947   3.780   3.771   0.811 -0.1415  0.2125 -0.4993
    1SOL    MW4 1948   3.798   3.854   0.829 -0.0355  0.0718  0.0584
    1SOL     OW 1949   3.928   0.107   0.620 -0.2629  0.1531 -0.0126
    1SOL    HW2 1950   3.997   0.051   0.584  1.3327  0.9871  1.6922
    1SOL    HW3 1951   3.903   0.164   0.547 -0.0887 -1.0212 -1.0129
    1SOL    MW4 1952   3.934   0.107   0.605 -0.0293  0.1081  0.0804
    1SOL     OW 1953   3.818   4.633   0.817 -0.0489  0.2083 -0.0968
    1SOL    HW2 1954   3.818   4.542   0.790  0.9883 -0.4479  2.0271
    1SOL    HW3 1955   3.864   4.679   0.746 -1.7616 -0.6901 -1.8093
    1SOL    MW4 1956   3.824   4.627   0.804 -0.1380  0.0029 -0.0426
    1SOL     OW 1957   0.210   4.631   1.128  0.1163 -0.2394 -0.3936
    1SOL    HW2 1958   0.285   4.685   1.153  0.2411 -0.8305  0.5204
    1SOL    HW3 1959   0.206   4.637   1.033  0.6663  0.6698 -0.3616
    1SOL    MW4 1960   0.219   4.639   1.119  0.2053 -0.1969 -0.2688
    1SOL     OW 1961   4.474   0.112   1.189  0.4217 -0.1446 -0.8246
    1SOL    HW2 1962   4.396   0.081   1.141  0.8963 -0.6046 -1.3127
    1SOL    HW3 1963   4.542   0.049   1.165  0.2417 -1.4325  1.8615
    1SOL    MW4 1964   4.473   0.099   1.179  0.4606 -0.3752 -0.5344
    1SOL     OW 1965   0.016   0.368   1.096 -0.1935 -0.1975 -0.2854
    1SOL    HW2 1966  -0.063   0.397   1.143 -0.0793 -0.4465  0.0572
    1SOL    HW3 1967   0.027   0.277   1.121  1.1097  0.2668  0.9292
    1SOL    MW4 1968   0.007   0.360   1.106 -0.0062 -0.1691 -0.0799
    1SOL     OW 1969   0.222   0.483   1.213 -0.3659  0.0442  0.6146
    1SOL    HW2 1970   0.220   0.574   1.182 -2.1070  0.0717  0.7711
    1SOL    HW3 1971   0.143   0.443   1.175  0.6400 -1.5349  0.1522
    1SOL    MW4 1972   0.211   0.490   1.204 -0.4629 -0.1605  0.5741
    1SOL     OW 1973   0.239   0.745   1.139  0.1335  0.0119 -0.2582
    1SOL    HW2 1974   0.307   0.792   1.188  0.6185  0.5921 -1.4395
    1SOL    HW3 1975   0.157   0.778   1.174  0.4699  1.4767 -0.7881
    1SOL    MW4 1976   0.237   0.755   1.150  0.2419  0.2816 -0.4839
    1SOL     OW 1977   0.012   0.857   1.218 -0.0693  0.0963 -0.4862
    1SOL    HW2 1978   0.012   0.858   1.314  0.9269  0.4254 -0.4788
    1SOL    HW3 1979   0.028   0.948   1.194 -0.9387  0.1274 -0.9819
    1SOL    MW4 1980   0.014   0.869   1.228 -0.0525  0.1438 -0.5506
    1SOL     OW 1981   0.047   1.115   1.136  0.0961 -0.7769 -0.0354
    1SOL    HW2 1982  -0.034   1.163   1.151  0.5094  0.0326 -0.3067
    1SOL    HW3 1983   0.116   1.179   1.155  0.6571 -1.1791 -0.6706
    1SOL    MW4 1984   0.046   1.130   1.140  0.2246 -0.7232 -0.1551
    1SOL     OW 1985   0.227   1.297   1.222  0.3953  0.1138 -0.3772
    1SOL    HW2 1986   0.240   1.314   1.315 -1.3559  0.6657 -0.2138
    1SOL    HW3 1987   0.297   1.236   1.198  0.9597  0.1059  1.2476
    1SOL    MW4 1988   0.238   1.291   1.231  0.2387  0.1856 -0.1413
    1SOL     OW 1989   0.223   1.563   1.129 -0.5117 -0.2803  0.3579
    1SOL    HW2 1990   0.240   1.472   1.154  1.6098 -0.1050 -0.3788
    1SOL    HW3 1991   0.218   1.562   1.034 -2.1101  0.1171  0.4279
    1SOL    MW4 1992   0.225   1.551   1.120 -0.4427 -0.2048  0.2700
    1SOL     OW 1993   0.002   1.692   1.250 -0.3173 -0.0114  0.1810
    1SOL    HW2 1994   0.000   1.766   1.189 -2.0605  0.6616  1.0441
    1SOL    HW3 1995   0.076   1.639   1.219 -0.0111  1.2688 -1.3908
    1SOL    MW4 1996   0.012   1.695   1.238 -0.5069  0.2463  0.0875
    1SOL     OW 1997   0.004   1.901   1.070  0.5842 -0.6637 -0.6009
    1SOL    HW2 1998  -0.081   1.937   1.093  1.7395  2.2005 -0.6809
    1SOL    HW3 1999   0.006   1.905   0.974  1.5362  1.0875 -0.5284
    1SOL    MW4 2000  -0.007   1.906   1.060  0.8621 -0.0547 -0.6020
    1SOL     OW 2001   0.200   2.071   1.218  0.3024 -0.1131  0.0727
    1SOL    HW2 2002   0.209   2.157   1.178 -0.6716 -0.2570 -0.4588
    1SOL    HW3 2003   0.150   2.020   1.155 -0.9853 -0.4378  1.3265
    1SOL    MW4 2004   0.195   2.076   1.205  0.0040 -0.1750  0.1680
    1SOL     OW 2005   0.220   2.362   0.869  0.3593 -0.3264  0.0660
    1SOL    HW2 2006   0.135   2.400   0.850 -0.4957 -2.6655 -1.0095
    1SOL    HW3 2007   0.229   2.368   0.964 -1.1140 -0.2732  0.2087
    1SOL    MW4 2008   0.210   2.368   0.879  0.0521 -0.6278 -0.0571
    1SOL     OW 2009   4.489   2.486   1.203  0.5052 -0.2570  0.2388
    1SOL    HW2 2010   4.473   2.475   1.296 -1.8600  0.0561 -0.0969
    1SOL    HW3 2011   4.418   2.438   1.161  1.0458  0.3394 -1.3953
    1SOL    MW4 2012   4.478   2.478   1.210  0.2646 -0.1369 -0.0211
    1SOL     OW 2013   0.008   2.727   1.084  0.0206 -0.2743  0.2943
    1SOL    HW2 2014  -0.083   2.746   1.108 -0.2106 -2.5891  1.3695
    1SOL    HW3 2015   0.026   2.642   1.124  1.6280 -1.3753 -2.6185
    1SOL    MW4 2016  -0.002   2.718   1.092  0.2022 -0.7248  0.0517
    1SOL     OW 2017   0.252   2.841   1.204  0.0064  0.0482  0.6671
    1SOL    HW2 2018   0.230   2.854   1.297  1.2819 -0.8413  1.1040
    1SOL    HW3 2019   0.174   2.800   1.167 -0.7000  0.8503  1.2277
    1SOL    MW4 2020   0.239   2.837   1.212  0.0815  0.0365  0.7987
    1SOL     OW 2021   0.228   3.116   1.114  0.1662  0.6380  0.2886
    1SOL    HW2 2022   0.314   3.153   1.137  1.7034 -1.7001 -1.4397
    1SOL    HW3 2023   0.231   3.026   1.148 -0.6786 -0.2088 -1.8275
    1SOL    MW4 2024   0.240   3.109   1.122  0.2576  0.2179 -0.2185
    1SOL     OW 2025   4.473   3.243   1.204  0.1758 -0.0671  0.1873
    1SOL    HW2 2026   4.410   3.174   1.185  0.3520 -0.8976  2.4948
    1SOL    HW3 2027   4.556   3.209   1.170  0.1317 -0.7154  0.7166
    1SOL    MW4 2028   4.476   3.229   1.197  0.1931 -0.2623  0.5616
    1SOL     OW 2029   4.478   3.511   1.114 -0.7199 -0.6025 -0.4121
    1SOL    HW2 2030   4.470   3.422   1.148 -1.2793 -0.8707 -1.2449
    1SOL    HW3 2031   4.488   3.500   1.019 -0.3826  0.2021 -0.4743
    1SOL    MW4 2032   4.479   3.498   1.106 -0.7492 -0.5314 -0.5302
    1SOL     OW 2033   0.233   3.627   1.217 -0.6157  0.1532 -0.5517
    1SOL    HW2 2034   0.228   3.641   1.312 -0.3059 -1.1046 -0.3387
    1SOL    HW3 2035   0.151   3.582   1.195 -0.2559 -0.4398 -0.7073
    1SOL    MW4 2036   0.222   3.623   1.227 -0.5274 -0.0911 -0.5442
    1SOL     OW 2037   0.234   3.883   1.133 -0.1673  0.2240  0.8711
    1SOL    HW2 2038   0.148   3.918   1.154 -0.5493  0.4938 -1.0076
    1SOL    HW3 2039   0.228   3.790   1.156 -0.8845  0.2972  1.0008
    1SOL    MW4 2040   0.222   3.875   1.139 -0.3123  0.2689  0.6404
    1SOL     OW 2041   4.467   4.000   1.188  0.3013  0.1296 -0.1684
    1SOL    HW2 2042   4.444   3.984   1.280 -0.4051  1.2566 -0.1333
    1SOL    HW3 2043   4.405   3.948   1.138  1.2289 -1.1529 -0.0045
    1SOL    MW4 2044   4.456   3.991   1.194  0.3304  0.1087 -0.1422
    1SOL     OW 2045   4.450   4.259   1.101 -0.0739  0.3754 -0.0368
    1SOL    HW2 2046   4.530   4.310   1.114 -0.1930  0.2080  1.5228
    1SOL    HW3 2047   4.470   4.173   1.137 -0.4650 -0.1253 -1.0151
    1SOL    MW4 2048   4.463   4.254   1.108 -0.1411  0.2875  0.0398
    1SOL     OW 2049   0.200   4.381   1.210  0.2544 -0.0404 -0.5112
    1SOL    HW2 2050   0.197   4.388   1.305  1.0742 -1.1609 -0.3899
    1SOL    HW3 2051   0.206   4.472   1.179  0.7380  0.2942  0.5414
    1SOL    MW4 2052   0.201   4.394   1.218  0.4264 -0.1440 -0.3563
    1SOL     OW 2053   0.637   0.005   1.136 -0.0609 -0.1872 -0.3863
    1SOL    HW2 2054   0.711   0.051   1.177 -0.6508  0.8917 -0.5007
    1SOL    HW3 2055   0.634  -0.080   1.179  0.8318  0.0118  0.0901
    1SOL    MW4 2056   0.647   0.000   1.147 -0.0209 -0.0185 -0.3387
    1SOL     OW 2057   0.405   0.144   1.192  0.1239 -0.3871 -0.1527
    1SOL    HW2 2058   0.421   0.230   1.152  1.2016 -0.6159 -0.2315
    1SOL    HW3 2059   0.488   0.097   1.181 -0.4517 -1.4278 -0.0867
    1SOL    MW4 2060   0.418   0.150   1.185  0.1901 -0.5546 -0.1544
    1SOL     OW 2061   2.577   1.360   0.241  0.2359  0.7010 -0.4660
    1SOL    HW2 2062   2.493   1.338   0.200  0.2989  0.1633 -0.3148
    1SOL    HW3 2063   2.638   1.293   0.209  0.0172 -0.4541  1.4325
    1SOL    MW4 2064   2.574   1.348   0.231  0.2153  0.4777 -0.1956
    1SOL     OW 2065   0.669   0.502   1.228 -0.4346 -0.3971  0.0306
    1SOL    HW2 2066   0.658   0.597   1.220  2.4893 -0.1407 -1.7008
    1SOL    HW3 2067   0.602   0.466   1.170 -2.1517  0.5747  1.3899
    1SOL    MW4 2068   0.659   0.510   1.219 -0.2754 -0.2350 -0.0186
    1SOL     OW 2069   0.678   0.785   1.173 -0.1929 -0.5705 -0.0994
    1SOL    HW2 2070   0.604   0.839   1.200  0.9722  1.3172 -0.6295
    1SOL    HW3 2071   0.661   0.767   1.080  0.4202  0.5761 -0.4456
    1SOL    MW4 2072   0.666   0.790   1.164  0.0417 -0.1702 -0.2149
    1SOL     OW 2073   0.437   0.887   1.243 -0.4428  0.2548 -0.2801
    1SOL    HW2 2074   0.434   0.902   1.338 -1.1910  2.5096 -0.6438
    1SOL    HW3 2075   0.435   0.975   1.205  0.1926 -0.6236 -2.3920
    1SOL    MW4 2076   0.437   0.901   1.251 -0.4577  0.4364 -0.6068
    1SOL     OW 2077   0.439   1.142   1.144  0.2303  0.2307 -0.4085
    1SOL    HW2 2078   0.516   1.179   1.187  0.5300  0.1585 -0.8772
    1SOL    HW3 2079   0.459   1.147   1.051 -0.2452  0.0151 -0.5237
    1SOL    MW4 2080   0.452   1.147   1.138  0.2071  0.1928 -0.4857
    1SOL     OW 2081   0.665   1.261   1.234  0.0365  0.0981  0.3225
    1SOL    HW2 2082   0.739   1.215   1.194 -0.4791 -1.0722  0.6977
    1SOL    HW3 2083   0.683   1.354   1.218  1.2944 -0.2078 -0.0857
    1SOL    MW4 2084   0.677   1.267   1.227  0.1343 -0.0968  0.3182
    1SOL     OW 2085   0.697   1.527   1.189 -0.1002  0.1777  0.1500
    1SOL    HW2 2086   0.765   1.580   1.231 -0.4688  0.3772  0.4910
    1SOL    HW3 2087   0.617   1.580   1.195  0.2918  1.2338 -2.8506
    1SOL    MW4 2088   0.696   1.541   1.195 -0.0971  0.3432 -0.2010
    1SOL     OW 2089   0.475   1.674   1.225 -0.0346  0.0952 -0.0364
    1SOL    HW2 2090   0.453   1.684   1.318 -0.6236  0.4032 -0.2053
    1SOL    HW3 2091   0.395   1.639   1.185  0.5016 -0.8530 -0.2780
    1SOL    MW4 2092   0.461   1.671   1.232 -0.0415  0.0107 -0.0906
    1SOL     OW 2093   0.453   1.968   1.203  0.0713  0.4137  0.0516
    1SOL    HW2 2094   0.453   1.876   1.227  0.2744  0.3969 -0.0104
    1SOL    HW3 2095   0.362   1.996   1.213 -0.2045 -0.0739 -0.9698
    1SOL    MW4 2096   0.441   1.960   1.207  0.0617  0.3470 -0.0913
    1SOL     OW 2097   0.700   2.051   1.260 -0.0617  0.4017  0.3225
    1SOL    HW2 2098   0.706   2.077   1.352 -1.6737  1.2496  0.1891
    1SOL    HW3 2099   0.609   2.023   1.249  0.1220  0.3308 -1.0327
    1SOL    MW4 2100   0.689   2.050   1.271 -0.2502  0.5043  0.1261
    1SOL     OW 2101   0.655   2.279   1.125 -0.0582  0.4863  0.3917
    1SOL    HW2 2102   0.573   2.315   1.158 -0.9330 -0.7206 -0.4305
    1SOL    HW3 2103   0.675   2.206   1.183  0.9827  1.4105  1.2113
    1SOL    MW4 2104   0.647   2.274   1.137 -0.0362  0.4489  0.3912
    1SOL     OW 2105   0.460   2.459   1.249 -0.0491 -0.8512  0.5723
    1SOL    HW2 2106   0.452   2.462   1.344 -0.0871 -0.6220  0.5628
    1SOL    HW3 2107   0.479   2.550   1.224 -0.5354 -0.8193  0.3188
    1SOL    MW4 2108   0.462   2.472   1.258 -0.1183 -0.8166  0.5376
    1SOL     OW 2109   0.492   2.744   1.109  0.1817  0.0503 -0.7261
    1SOL    HW2 2110   0.410   2.785   1.138 -0.1613 -0.9361 -0.2753
    1SOL    HW3 2111   0.480   2.733   1.014 -0.4628 -0.6569 -0.5663
    1SOL    MW4 2112   0.479   2.748   1.100  0.0514 -0.1729 -0.6454
    1SOL     OW 2113   0.713   2.861   1.239 -0.0841  0.1592  0.2132
    1SOL    HW2 2114   0.687   2.854   1.331 -1.0370 -0.3706 -0.0829
    1SOL    HW3 2115   0.636   2.832   1.190  0.7876 -0.6251 -0.7231
    1SOL    MW4 2116   0.699   2.856   1.244 -0.0949 -0.0143  0.0505
    1SOL     OW 2117   0.716   3.114   1.116 -0.6482  0.4266 -0.0056
    1SOL    HW2 2118   0.787   3.167   1.152 -0.2271 -0.3070  0.2456
    1SOL    HW3 2119   0.722   3.030   1.161 -1.2277  0.1083 -0.4970
    1SOL    MW4 2120   0.726   3.110   1.126 -0.6691  0.2878 -0.0372
    1SOL     OW 2121   0.492   3.216   1.215 -0.0741  0.3926 -0.3974
    1SOL    HW2 2122   0.503   3.309   1.198  1.3294 -0.1197 -2.5130
    1SOL    HW3 2123   0.566   3.175   1.169  0.3282 -1.6137  1.9506
    1SOL    MW4 2124   0.503   3.223   1.207  0.1642  0.0603 -0.3667
    1SOL     OW 2125   0.465   3.493   1.148 -0.2892  0.0270 -0.7147
    1SOL    HW2 2126   0.534   3.549   1.184 -0.7428 -0.0452  0.3106
    1SOL    HW3 2127   0.383   3.537   1.174 -0.6400 -0.9362 -0.1561
    1SOL    MW4 2128   0.463   3.506   1.156 -0.3954 -0.1094 -0.5058
    1SOL     OW 2129   0.673   3.646   1.219 -0.3446  0.0780  0.1636
    1SOL    HW2 2130   0.654   3.672   1.309  0.0589 -0.2389  0.3387
    1SOL    HW3 2131   0.690   3.729   1.174 -2.1100  0.3673  0.0043
    1SOL    MW4 2132   0.672   3.661   1.225 -0.5243  0.0744  0.1656
    1SOL     OW 2133   0.689   3.901   1.100  0.2240  0.1339  0.1398
    1SOL    HW2 2134   0.615   3.948   1.138  0.6618  0.7755  0.1934
    1SOL    HW3 2135   0.667   3.893   1.007 -0.1392 -0.1180  0.2424
    1SOL    MW4 2136   0.676   3.906   1.093  0.2338  0.1853  0.1606
    1SOL     OW 2137   0.469   4.010   1.236  0.2714  0.1921  0.1403
    1SOL    HW2 2138   0.459   4.100   1.203  0.0966  1.1941  2.8136
    1SOL    HW3 2139   0.388   3.966   1.210 -0.2457  1.2058  0.0109
    1SOL    MW4 2140   0.457   4.016   1.228  0.1801  0.4578  0.4760
    1SOL     OW 2141   0.437   4.270   1.139 -0.0068 -0.3524  0.6909
    1SOL    HW2 2142   0.502   4.333   1.170 -0.8379  0.4076  0.9071
    1SOL    HW3 2143   0.355   4.298   1.181 -0.7698 -0.4274 -0.7285
    1SOL    MW4 2144   0.434   4.282   1.149 -0.2171 -0.2627  0.5323
    1SOL     OW 2145   0.637   4.414   1.239 -0.2386 -0.3605  0.2309
    1SOL    HW2 2146   0.623   4.398   1.332 -1.1707  1.7834  0.4988
    1SOL    HW3 2147   0.720   4.371   1.219 -1.3542 -3.1696  1.4033
    1SOL    MW4 2148   0.646   4.406   1.248 -0.5087 -0.4478  0.4210
    1SOL     OW 2149   1.079   4.633   1.134 -0.0840 -0.3642 -0.0259
    1SOL    HW2 2150   1.080   4.540   1.155 -2.0460 -0.3294  0.3220
    1SOL    HW3 2151   1.077   4.636   1.038  1.5325 -0.6361 -0.0833
    1SOL    MW4 2152   1.079   4.621   1.124 -0.1297 -0.3958  0.0124
    1SOL     OW 2153   0.858   0.111   1.230  0.1043 -0.0005  0.2218
    1SOL    HW2 2154   0.893   0.109   1.319 -1.2908 -0.5049  0.7741
    1SOL    HW3 2155   0.927   0.071   1.177  1.1816  0.8158  0.9784
    1SOL    MW4 2156   0.871   0.105   1.235  0.0624  0.0407  0.3946
    1SOL     OW 2157   0.881   0.374   1.117  0.3255 -0.5944 -0.5217
    1SOL    HW2 2158   0.870   0.290   1.161 -1.3235 -0.1935 -0.1398
    1SOL    HW3 2159   0.811   0.429   1.153  1.2217  0.8557 -0.9592
    1SOL    MW4 2160   0.870   0.371   1.128  0.2263 -0.3501 -0.5289
    1SOL     OW 2161   1.107   0.512   1.198 -0.0371  0.0692 -0.3251
    1SOL    HW2 2162   1.095   0.487   1.289  0.1935 -1.4259 -0.6911
    1SOL    HW3 2163   1.033   0.474   1.152 -0.6379  1.5771 -0.6441
    1SOL    MW4 2164   1.096   0.504   1.204 -0.0858  0.0709 -0.4154
    1SOL     OW 2165   1.112   0.785   1.168  0.0081  0.2357 -0.1523
    1SOL    HW2 2166   1.037   0.821   1.215  0.3408  0.7828 -0.0327
    1SOL    HW3 2167   1.116   0.694   1.195  0.8303  0.8022  1.7170
    1SOL    MW4 2168   1.102   0.778   1.178  0.1605  0.3827  0.1101
    1SOL     OW 2169   0.887   0.929   1.249 -0.1212 -0.4279  0.0847
    1SOL    HW2 2170   0.892   1.005   1.191 -0.3692 -0.9445 -0.6163
    1SOL    HW3 2171   0.810   0.881   1.219 -0.4929 -0.4755  1.1155
    1SOL    MW4 2172   0.877   0.933   1.237 -0.2030 -0.5023  0.1281
    1SOL     OW 2173   0.897   1.166   1.123 -0.2295 -0.3330  0.0656
    1SOL    HW2 2174   0.976   1.214   1.145 -0.2532 -0.7178  1.0015
    1SOL    HW3 2175   0.896   1.163   1.027 -0.1918  1.4605  0.0038
    1SOL    MW4 2176   0.907   1.172   1.113 -0.2276 -0.1472  0.1808
    1SOL     OW 2177   1.134   1.264   1.210 -0.1415  0.0817 -0.1475
    1SOL    HW2 2178   1.140   1.269   1.306  0.4143 -0.2844 -0.1661
    1SOL    HW3 2179   1.193   1.193   1.186  0.0843  0.4913 -0.8042
    1SOL    MW4 2180   1.142   1.255   1.220 -0.0385  0.0875 -0.2366
    1SOL     OW 2181   1.073   1.535   1.136  0.0586  0.2178  0.0269
    1SOL    HW2 2182   1.092   1.444   1.159  3.5660  0.9433  0.2184
    1SOL    HW3 2183   1.089   1.541   1.042 -2.7700  0.0658 -0.5163
    1SOL    MW4 2184   1.077   1.524   1.127  0.1482  0.2934 -0.0194
    1SOL     OW 2185   0.917   1.681   1.293  0.1857 -0.3006  0.8265
    1SOL    HW2 2186   0.885   1.754   1.241 -1.0741 -1.0659  0.5136
    1SOL    HW3 2187   0.985   1.641   1.240  1.9974  1.5837  1.6713
    1SOL    MW4 2188   0.922   1.685   1.279  0.2585 -0.1531  0.8965
    1SOL     OW 2189   0.888   1.898   1.132  0.0658 -0.6394 -0.2352
    1SOL    HW2 2190   0.971   1.936   1.162  0.0245 -1.0607  0.4358
    1SOL    HW3 2191   0.822   1.961   1.159  0.0083 -1.1129  0.7712
    1SOL    MW4 2192   0.891   1.911   1.140  0.0528 -0.7575 -0.0139
    1SOL     OW 2193   1.115   2.062   1.218  0.1358 -0.2699 -0.2808
    1SOL    HW2 2194   1.129   2.068   1.313  0.8988 -0.2748 -0.3953
    1SOL    HW3 2195   1.112   2.153   1.189  0.9557 -0.2796 -0.4067
    1SOL    MW4 2196   1.116   2.075   1.227  0.3448 -0.2718 -0.3124
    1SOL     OW 2197   1.090   2.337   1.116  0.1506  0.4630  0.1945
    1SOL    HW2 2198   1.180   2.362   1.139  0.6381 -0.6264 -0.5082
    1SOL    HW3 2199   1.089   2.336   1.020 -0.7938  1.0983  0.1902
    1SOL    MW4 2200   1.102   2.340   1.107  0.0904  0.4032  0.1012
    1SOL     OW 2201   0.856   2.441   1.248 -0.3796 -0.1007 -0.1802
    1SOL    HW2 2202   0.941   2.409   1.217  0.3611  2.1640 -0.5717
    1SOL    HW3 2203   0.792   2.385   1.204  0.8735 -1.3888 -0.4142
    1SOL    MW4 2204   0.859   2.429   1.238 -0.1165  0.0281 -0.2627
    1SOL     OW 2205   0.874   2.677   1.113 -0.2942 -0.3997 -0.1476
    1SOL    HW2 2206   0.859   2.602   1.171 -2.0070 -0.5989 -0.8143
    1SOL    HW3 2207   0.834   2.751   1.159 -0.9604 -0.4110 -0.7010
    1SOL    MW4 2208   0.867   2.677   1.127 -0.6081 -0.4275 -0.3085
    1SOL     OW 2209   1.134   2.792   1.219  0.4716  0.0724 -0.1372
    1SOL    HW2 2210   1.111   2.822   1.307  1.3892  0.9942 -0.1971
    1SOL    HW3 2211   1.054   2.753   1.185  0.1812 -0.5612  1.2144
    1SOL    MW4 2212   1.120   2.791   1.226  0.5544  0.1104  0.0333
    1SOL     OW 2213   1.131   3.062   1.145 -0.1173 -0.3305  0.1919
    1SOL    HW2 2214   1.150   2.968   1.150  0.7952 -0.1265  0.7713
    1SOL    HW3 2215   1.125   3.080   1.052 -1.2410 -1.1495  0.1054
    1SOL    MW4 2216   1.133   3.052   1.134 -0.1453 -0.4117  0.2569
    1SOL     OW 2217   0.952   3.255   1.233  0.1966  0.2568  0.2810
    1SOL    HW2 2218   0.975   3.337   1.190 -1.3192  0.6060  0.0892
    1SOL    HW3 2219   1.021   3.194   1.208 -0.1949  0.6976 -1.9391
    1SOL    MW4 2220   0.964   3.258   1.224 -0.0550  0.3610 -0.0372
    1SOL     OW 2221   0.935   3.542   1.137 -0.0556 -0.0697  0.3459
    1SOL    HW2 2222   0.863   3.578   1.189 -0.4755  1.4403 -1.2406
    1SOL    HW3 2223   0.898   3.532   1.049  1.5494  0.2898 -0.3867
    1SOL    MW4 2224   0.920   3.545   1.132  0.1007  0.1771  0.0401
    1SOL     OW 2225   1.167   3.680   1.187  0.2341 -0.1920  0.1105
    1SOL    HW2 2226   1.245   3.628   1.166 -0.1142 -1.4550  1.8341
    1SOL    HW3 2227   1.094   3.629   1.152  0.1213  0.7856 -1.1235
    1SOL    MW4 2228   1.168   3.667   1.180  0.1732 -0.2296  0.1750
    1SOL     OW 2229   1.127   3.940   1.113  0.0462  0.0319 -0.0509
    1SOL    HW2 2230   1.052   3.978   1.159  0.8282  0.9397  0.5020
    1SOL    HW3 2231   1.128   3.848   1.139  0.3963  0.5069  1.6667
    1SOL    MW4 2232   1.117   3.933   1.122  0.1957  0.2143  0.2487
    1SOL     OW 2233   0.898   4.030   1.237  0.2100 -0.1753 -0.1473
    1SOL    HW2 2234   0.895   3.993   1.325  0.0686  1.8059  0.6981
    1SOL    HW3 2235   0.827   3.985   1.190 -0.6688 -0.1885  1.1625
    1SOL    MW4 2236   0.888   4.019   1.243  0.0754  0.0844  0.1371
    1SOL     OW 2237   0.889   4.292   1.134 -0.2370  0.1670  0.5390
    1SOL    HW2 2238   0.896   4.209   1.180  1.3356  0.1672  0.3084
    1SOL    HW3 2239   0.885   4.268   1.041 -0.4745  0.3231  0.5071
    1SOL    MW4 2240   0.889   4.278   1.128 -0.0609  0.1874  0.5043
    1SOL     OW 2241   1.111   4.386   1.255  0.0740 -0.1718  0.8423
    1SOL    HW2 2242   1.100   4.365   1.348  0.8618 -0.6885  0.8285
    1SOL    HW3 2243   1.034   4.347   1.213 -0.3585  0.1820  1.2928
    1SOL    MW4 2244   1.099   4.378   1.262  0.1209 -0.1936  0.8999
    1SOL     OW 2245   1.566   0.039   1.137  0.1539 -0.3646 -0.4223
    1SOL    HW2 2246   1.628   0.084   1.195 -0.3961  1.1041 -0.9593
    1SOL    HW3 2247   1.579  -0.054   1.156  0.9672  0.0350  1.0528
    1SOL    MW4 2248   1.576   0.033   1.147  0.1887 -0.1181 -0.2986
    1SOL     OW 2249   1.298   0.118   1.241  0.0346  0.0021  0.4205
    1SOL    HW2 2250   1.383   0.082   1.218 -0.4600 -0.1415 -1.2499
    1SOL    HW3 2251   1.235   0.051   1.214 -0.6576  0.4258  0.9373
    1SOL    MW4 2252   1.301   0.104   1.235 -0.1220  0.0390  0.2683
    1SOL     OW 2253   1.323   0.358   1.121 -0.0742 -0.0332  0.7011
    1SOL    HW2 2254   1.311   0.269   1.156  0.1213 -0.4329 -0.2249
    1SOL    HW3 2255   1.252   0.409   1.159  0.0721 -0.4769  1.5983
    1SOL    MW4 2256   1.312   0.353   1.131 -0.0292 -0.1445  0.6973
    1SOL     OW 2257   1.570   0.476   1.218 -0.0468 -0.0873  0.4240
    1SOL    HW2 2258   1.568   0.570   1.202 -1.3311 -0.0002  1.0377
    1SOL    HW3 2259   1.491   0.443   1.175  0.0917 -0.8024  0.7119
    1SOL    MW4 2260   1.559   0.484   1.210 -0.1980 -0.1701  0.5428
    1SOL     OW 2261   1.539   0.747   1.149 -0.4905  0.0434 -0.4492
    1SOL    HW2 2262   1.618   0.783   1.189 -0.5524  0.5544 -0.7837
    1SOL    HW3 2263   1.542   0.778   1.059 -1.9436  1.4825 -0.0221
    1SOL    MW4 2264   1.550   0.756   1.143 -0.6905  0.3006 -0.4370
    1SOL     OW 2265   1.342   0.882   1.291 -0.1337 -0.2128  0.1860
    1SOL    HW2 2266   1.403   0.834   1.235 -0.8837 -0.5396 -0.3548
    1SOL    HW3 2267   1.255   0.853   1.263 -0.6125  1.5679 -0.2490
    1SOL    MW4 2268   1.338   0.872   1.280 -0.2958 -0.0210  0.0572
    1SOL     OW 2269   1.321   1.084   1.108  0.4154 -0.1564  0.0550
    1SOL    HW2 2270   1.319   1.012   1.171 -0.6529 -0.9675 -0.8993
    1SOL    HW3 2271   1.398   1.135   1.133 -0.5600  0.0971  2.6422
    1SOL    MW4 2272   1.331   1.081   1.119  0.1459 -0.2298  0.2705
    1SOL     OW 2273   1.535   1.249   1.204  0.0967 -0.2016 -0.7073
    1SOL    HW2 2274   1.620   1.213   1.179  0.4385  0.2988 -0.2756
    1SOL    HW3 2275   1.529   1.232   1.298 -0.2064 -0.0862 -0.7058
    1SOL    MW4 2276   1.546   1.242   1.213  0.1019 -0.1204 -0.6502
    1SOL     OW 2277   1.474   1.494   1.078  0.2682  0.0057 -0.0680
    1SOL    HW2 2278   1.547   1.545   1.113 -0.9382  1.1028  0.8435
    1SOL    HW3 2279   1.489   1.405   1.112  1.1017  0.2507  0.2193
    1SOL    MW4 2280   1.486   1.489   1.087  0.2190  0.1827  0.0901
    1SOL     OW 2281   1.328   1.672   1.218  0.0429  0.1270 -0.5020
    1SOL    HW2 2282   1.379   1.601   1.179  0.4968  0.2890 -0.2187
    1SOL    HW3 2283   1.238   1.640   1.219  0.6916 -1.8430  2.6553
    1SOL    MW4 2284   1.323   1.658   1.213  0.1886 -0.1116 -0.0480
    1SOL     OW 2285   1.331   1.922   1.104  0.6956 -0.1581  0.1985
    1SOL    HW2 2286   1.337   1.838   1.149 -1.3682 -0.5858 -0.2697
    1SOL    HW3 2287   1.249   1.960   1.136 -0.0131  0.2275 -1.9929
    1SOL    MW4 2288   1.321   1.916   1.114  0.3300 -0.1636 -0.1526
    1SOL     OW 2289   1.529   2.048   1.236  0.0785 -0.5125 -0.0982
    1SOL    HW2 2290   1.530   2.139   1.204  0.6987 -0.0571  1.1948
    1SOL    HW3 2291   1.452   2.009   1.193  0.3577  0.3389 -1.4182
    1SOL    MW4 2292   1.519   2.055   1.226  0.1972 -0.3402 -0.1018
    1SOL     OW 2293   1.571   2.309   1.121 -0.1583 -0.1320  0.0256
    1SOL    HW2 2294   1.487   2.354   1.119  0.8069  1.7566  0.2550
    1SOL    HW3 2295   1.588   2.286   1.030 -0.6031  0.1107 -0.1193
    1SOL    MW4 2296   1.562   2.312   1.109 -0.0896  0.1495  0.0367
    1SOL     OW 2297   1.333   2.448   1.194 -0.1547  0.1443  0.4555
    1SOL    HW2 2298   1.333   2.461   1.288 -1.0061  1.9271  0.2357
    1SOL    HW3 2299   1.340   2.537   1.158 -1.3007 -0.4079 -1.1631
    1SOL    MW4 2300   1.334   2.462   1.201 -0.4182  0.3061  0.2131
    1SOL     OW 2301   1.382   2.698   1.106 -0.3689  0.2116 -0.0166
    1SOL    HW2 2302   1.450   2.751   1.146 -0.4733 -1.2788  2.2495
    1SOL    HW3 2303   1.300   2.737   1.136 -0.5680  1.6417 -2.2588
    1SOL    MW4 2304   1.380   2.710   1.115 -0.4090  0.2036 -0.0135
    1SOL     OW 2305   1.587   2.850   1.195 -0.6896 -0.2728  0.2785
    1SOL    HW2 2306   1.669   2.810   1.167 -0.5189 -0.6592  1.3027
    1SOL    HW3 2307   1.597   2.943   1.175 -0.9633 -0.6644 -1.8462
    1SOL    MW4 2308   1.599   2.857   1.188 -0.7033 -0.3753  0.1333
    1SOL     OW 2309   1.593   3.109   1.135 -0.0284 -0.3116  0.1510
    1SOL    HW2 2310   1.673   3.157   1.157 -0.3464 -0.2263  1.1431
    1SOL    HW3 2311   1.523   3.156   1.180 -0.5491 -0.8060 -0.1266
    1SOL    MW4 2312   1.594   3.121   1.144 -0.1391 -0.3657  0.2452
    1SOL     OW 2313   1.365   3.225   1.247  0.3408  0.0364 -0.4566
    1SOL    HW2 2314   1.376   3.223   1.342  0.0397  0.0882 -0.4223
    1SOL    HW3 2315   1.275   3.196   1.232  0.0468  1.0663 -0.6694
    1SOL    MW4 2316   1.355   3.221   1.257  0.2624  0.1793 -0.4803
    1SOL     OW 2317   1.341   3.468   1.123 -0.0258  0.4224  0.6652
    1SOL    HW2 2318   1.344   3.382   1.166  0.8381  0.8114  1.4246
    1SOL    HW3 2319   1.337   3.448   1.030  2.0719 -0.4734  0.7293
    1SOL    MW4 2320   1.341   3.454   1.116  0.3649  0.3555  0.7739
    1SOL     OW 2321   1.550   3.614   1.261 -0.3496 -0.4014 -0.0049
    1SOL    HW2 2322   1.551   3.698   1.215  0.9240 -1.0143 -1.1371
    1SOL    HW3 2323   1.486   3.562   1.213 -0.9237 -0.1838  0.5180
    1SOL    MW4 2324   1.542   3.619   1.248 -0.2573 -0.4537 -0.0854
    1SOL     OW 2325   1.557   3.877   1.149  0.2105  0.0488 -0.0786
    1SOL    HW2 2326   1.485   3.934   1.175  0.7303  1.0505 -0.7997
    1SOL    HW3 2327   1.547   3.868   1.054  0.6555 -0.3471 -0.0889
    1SOL    MW4 2328   1.546   3.883   1.140  0.3378  0.1285 -0.1751
    1SOL     OW 2329   1.351   4.046   1.228 -0.1287  0.4809 -0.0557
    1SOL    HW2 2330   1.362   4.136   1.198 -1.8994  1.1074  1.0790
    1SOL    HW3 2331   1.272   4.015   1.184 -1.4257  0.6379  2.0951
    1SOL    MW4 2332   1.342   4.054   1.218 -0.5335  0.5846  0.3777
    1SOL     OW 2333   1.337   4.300   1.140 -0.0675  0.3858  0.3754
    1SOL    HW2 2334   1.259   4.341   1.176 -1.1067 -0.4182 -0.9422
    1SOL    HW3 2335   1.339   4.327   1.048  0.6929 -0.3575  0.1659
    1SOL    MW4 2336   1.327   4.309   1.132 -0.1043  0.1817  0.1739
    1SOL     OW 2337   1.585   4.431   1.202  0.2524  0.3447  0.0771
    1SOL    HW2 2338   1.590   4.417   1.296  0.3486 -0.2157 -0.0153
    1SOL    HW3 2339   1.500   4.395   1.176 -0.0156  0.9962  0.0387
    1SOL    MW4 2340   1.574   4.425   1.211  0.2297  0.3572  0.0598
    1SOL     OW 2341   1.983   0.010   1.126 -0.1346  0.3125 -0.4728
    1SOL    HW2 2342   1.989  -0.082   1.152  0.4927  0.5867  0.3695
    1SOL    HW3 2343   1.978   0.008   1.030  1.1152 -0.5434 -0.5252
    1SOL    MW4 2344   1.983  -0.002   1.117  0.1132  0.2356 -0.3685
    1SOL     OW 2345   1.784   0.148   1.269  0.0000 -0.1574 -0.1942
    1SOL    HW2 2346   1.787   0.234   1.227  1.3813  0.1576  0.5420
    1SOL    HW3 2347   1.844   0.094   1.218 -1.1533 -0.8012 -0.8885
    1SOL    MW4 2348   1.792   0.152   1.257  0.0300 -0.2007 -0.1888
    1SOL     OW 2349   1.807   0.390   1.136  0.3960  0.9382 -0.5221
    1SOL    HW2 2350   1.723   0.431   1.161  0.6793  1.4679 -0.4288
    1SOL    HW3 2351   1.804   0.386   1.040  0.2117  0.8428 -0.5132
    1SOL    MW4 2352   1.795   0.395   1.126  0.4089  0.9955 -0.5087
    1SOL     OW 2353   2.008   0.774   1.101 -0.4428 -0.0675 -0.5008
    1SOL    HW2 2354   2.085   0.823   1.131 -1.9933  1.4136  1.1510
    1SOL    HW3 2355   2.021   0.686   1.137  0.4194  0.2039 -0.1310
    1SOL    MW4 2356   2.020   0.769   1.110 -0.5338  0.1637 -0.2340
    1SOL     OW 2357   2.015   0.780   0.810 -0.2316 -0.5332 -0.1954
    1SOL    HW2 2358   2.101   0.806   0.778  0.3406 -1.5376  0.5109
    1SOL    HW3 2359   2.018   0.796   0.904 -0.8072 -0.5757 -0.1666
    1SOL    MW4 2360   2.026   0.785   0.818 -0.2320 -0.6713 -0.0984
    1SOL     OW 2361   1.770   0.881   1.225  0.1199  0.0297 -0.0261
    1SOL    HW2 2362   1.765   0.885   1.321  1.0576 -0.4394  0.0557
    1SOL    HW3 2363   1.854   0.836   1.208  0.1135  0.4077 -1.0680
    1SOL    MW4 2364   1.781   0.875   1.236  0.2427  0.0177 -0.1526
    1SOL     OW 2365   1.806   1.149   1.144 -0.2986  0.6102  0.2748
    1SOL    HW2 2366   1.804   1.056   1.166  2.5076  0.4524  0.0743
    1SOL    HW3 2367   1.810   1.151   1.048 -0.9555  0.9718  0.2485
    1SOL    MW4 2368   1.806   1.137   1.134 -0.0150  0.6371  0.2449
    1SOL     OW 2369   2.048   1.270   1.226  0.0447  0.1661 -0.5574
    1SOL    HW2 2370   2.109   1.208   1.185  1.8035  1.0536  0.6287
    1SOL    HW3 2371   1.962   1.240   1.199  0.9336 -1.9156 -1.2245
    1SOL    MW4 2372   2.045   1.258   1.217  0.3939  0.0085 -0.4889
    1SOL     OW 2373   1.992   1.532   1.129 -0.5892 -0.1072  0.4675
    1SOL    HW2 2374   1.999   1.442   1.159 -1.6397 -0.6389 -0.8128
    1SOL    HW3 2375   1.997   1.526   1.033 -1.1660  1.1330  0.3486
    1SOL    MW4 2376   1.993   1.519   1.120 -0.8039 -0.0136  0.2829
    1SOL     OW 2377   1.724   1.631   1.170 -0.4808  0.1657  0.1573
    1SOL    HW2 2378   1.723   1.722   1.140 -0.6687  0.2863  0.5319
    1SOL    HW3 2379   1.811   1.599   1.146 -0.4847  0.3855 -0.1512
    1SOL    MW4 2380   1.735   1.639   1.163 -0.5062  0.2105  0.1661
    1SOL     OW 2381   1.745   1.902   1.106  0.0937 -0.0837 -0.1962
    1SOL    HW2 2382   1.687   1.964   1.150  0.3461 -0.3423  0.5143
    1SOL    HW3 2383   1.732   1.918   1.013  0.9691  1.7951 -0.0148
    1SOL    MW4 2384   1.735   1.912   1.100  0.2425  0.1302 -0.0786
    1SOL     OW 2385   1.979   2.034   1.188 -0.9958  0.2612  0.0635
    1SOL    HW2 2386   1.970   2.027   1.283 -1.2029  1.1106  0.1148
    1SOL    HW3 2387   1.906   1.983   1.153 -0.2010 -1.0886  0.3345
    1SOL    MW4 2388   1.968   2.026   1.196 -0.9181  0.1953  0.1061
    1SOL     OW 2389   1.987   2.296   1.101  0.1806  0.1671 -0.0968
    1SOL    HW2 2390   2.062   2.325   1.154  0.5638  0.4906 -0.8018
    1SOL    HW3 2391   1.968   2.208   1.133 -0.2589  0.7616  1.2836
    1SOL    MW4 2392   1.995   2.288   1.112  0.1732  0.2882 -0.0077
    1SOL     OW 2393   1.794   2.450   1.232 -0.6055 -0.1044 -0.0390
    1SOL    HW2 2394   1.867   2.403   1.191 -1.7153 -2.2520  0.3552
    1SOL    HW3 2395   1.716   2.406   1.199 -1.6515  0.6929  1.3211
    1SOL    MW4 2396   1.794   2.438   1.222 -0.8898 -0.2823  0.1924
    1SOL     OW 2397   1.820   2.720   1.141 -0.4285 -0.0614  0.2300
    1SOL    HW2 2398   1.799   2.634   1.176  1.7967 -0.7723 -0.0805
    1SOL    HW3 2399   1.803   2.713   1.047  1.3703 -0.7098 -0.0587
    1SOL    MW4 2400   1.815   2.708   1.133  0.1024 -0.2408  0.1512
    1SOL     OW 2401   2.059   2.840   1.233  0.2912 -0.3110 -0.2844
    1SOL    HW2 2402   2.056   2.929   1.198  0.3221 -0.4994 -0.7623
    1SOL    HW3 2403   1.984   2.795   1.193 -0.1605 -0.2950  0.5189
    1SOL    MW4 2404   2.048   2.846   1.223  0.2358 -0.3335 -0.2414
    1SOL     OW 2405   2.031   3.090   1.111 -0.3353 -0.2200  0.1374
    1SOL    HW2 2406   1.956   3.147   1.126  0.4762  1.0401 -0.5485
    1SOL    HW3 2407   2.044   3.091   1.017  2.2100  1.7799  0.4513
    1SOL    MW4 2408   2.023   3.097   1.101  0.1073  0.2103  0.0882
    1SOL     OW 2409   1.808   3.243   1.202 -0.2229 -0.1558 -0.4640
    1SOL    HW2 2410   1.811   3.242   1.298 -1.2615 -1.8807 -0.4266
    1SOL    HW3 2411   1.789   3.334   1.179  0.4584  0.3561  0.9430
    1SOL    MW4 2412   1.806   3.255   1.212 -0.2701 -0.3161 -0.2735
    1SOL     OW 2413   1.787   3.505   1.127  0.2186  0.1108 -0.1049
    1SOL    HW2 2414   1.861   3.536   1.179  0.4243  0.9437 -0.8960
    1SOL    HW3 2415   1.709   3.533   1.176  0.4157 -0.8190  0.7582
    1SOL    MW4 2416   1.786   3.512   1.140  0.2719  0.0982 -0.0952
    1SOL     OW 2417   2.006   3.652   1.232  0.3756  0.4181  0.0432
    1SOL    HW2 2418   2.021   3.651   1.326  0.2340  0.0072  0.0626
    1SOL    HW3 2419   2.084   3.611   1.194  0.2159  0.1401  0.0137
    1SOL    MW4 2420   2.018   3.647   1.239  0.3355  0.3271  0.0420
    1SOL     OW 2421   1.969   3.910   1.132  0.1751 -0.1779  0.5381
    1SOL    HW2 2422   1.900   3.953   1.182 -0.2205 -0.7302  0.4654
    1SOL    HW3 2423   1.976   3.823   1.171  0.7550 -0.1616  0.4750
    1SOL    MW4 2424   1.961   3.904   1.144  0.1993 -0.2484  0.5202
    1SOL     OW 2425   1.749   4.043   1.252  0.2468  0.1156  0.3724
    1SOL    HW2 2426   1.747   4.001   1.338 -0.4572 -0.1541  0.2280
    1SOL    HW3 2427   1.676   4.004   1.205  1.1625 -0.4031 -0.6624
    1SOL    MW4 2428   1.739   4.032   1.257  0.2747  0.0119  0.2170
    1SOL     OW 2429   1.797   4.285   1.123 -0.0533  0.1650 -0.1742
    1SOL    HW2 2430   1.781   4.196   1.156 -0.1870 -0.1121 -0.9873
    1SOL    HW3 2431   1.719   4.333   1.148  0.7847  0.5144  1.8566
    1SOL    MW4 2432   1.785   4.279   1.131  0.0397  0.1750 -0.0136
    1SOL     OW 2433   2.037   4.410   1.191  0.3599  0.4048 -0.1292
    1SOL    HW2 2434   2.038   4.408   1.287  0.1913 -1.4247 -0.1530
    1SOL    HW3 2435   1.958   4.362   1.167  1.1793 -0.4281 -1.2064
    1SOL    MW4 2436   2.027   4.404   1.201  0.4458  0.0534 -0.2744
    1SOL     OW 2437   2.430   4.652   1.112 -0.4154 -0.0388  0.1354
    1SOL    HW2 2438   2.519   4.680   1.134  0.2281 -0.7546 -1.4853
    1SOL    HW3 2439   2.373   4.704   1.169  1.1027 -0.4772  2.0762
    1SOL    MW4 2440   2.434   4.662   1.122 -0.1304 -0.1912  0.1776
    1SOL     OW 2441   2.223   0.132   1.228 -0.5263 -0.4378 -0.0653
    1SOL    HW2 2442   2.238   0.216   1.185 -1.3246  0.4965  1.4464
    1SOL    HW3 2443   2.149   0.094   1.182 -0.4911 -0.0723 -0.4220
    1SOL    MW4 2444   2.215   0.138   1.217 -0.6268 -0.2663  0.0870
    1SOL     OW 2445   2.024   0.517   1.229  0.1814  0.0032 -0.1518
    1SOL    HW2 2446   2.021   0.502   1.324  1.5261 -0.8162 -0.2231
    1SOL    HW3 2447   1.942   0.480   1.197  0.2051 -0.6905  0.5601
    1SOL    MW4 2448   2.013   0.510   1.238  0.3619 -0.1965 -0.0674
    1SOL     OW 2449   2.486   0.467   1.220 -0.2074 -0.0593 -0.0567
    1SOL    HW2 2450   2.471   0.466   1.314 -0.9082  0.4252 -0.1568
    1SOL    HW3 2451   2.405   0.432   1.183  0.3914 -1.0545 -0.4424
    1SOL    MW4 2452   2.473   0.462   1.227 -0.2210 -0.1267 -0.1208
    1SOL     OW 2453   2.490   0.702   1.105 -0.2975 -0.1662 -0.0179
    1SOL    HW2 2454   2.495   0.612   1.136 -1.9891 -0.2170  0.1523
    1SOL    HW3 2455   2.510   0.696   1.012 -1.0532 -0.8137 -0.1457
    1SOL    MW4 2456   2.494   0.689   1.097 -0.6206 -0.2583 -0.0122
    1SOL     OW 2457   2.267   0.858   1.205  0.7134 -0.3699  0.0225
    1SOL    HW2 2458   2.264   0.850   1.301  2.6020  0.4983  0.1706
    1SOL    HW3 2459   2.333   0.794   1.178  0.6860 -0.1147 -0.6523
    1SOL    MW4 2460   2.275   0.848   1.214  0.9592 -0.2217 -0.0471
    1SOL     OW 2461   2.223   1.099   1.102 -0.4903 -0.3953  0.0690
    1SOL    HW2 2462   2.299   1.155   1.115 -0.1177 -0.3020 -2.3249
    1SOL    HW3 2463   2.249   1.014   1.139  0.3116 -0.0375  0.3349
    1SOL    MW4 2464   2.236   1.095   1.109 -0.3357 -0.3357 -0.2117
    1SOL     OW 2465   2.468   1.233   1.189  0.5395 -0.5660 -0.3893
    1SOL    HW2 2466   2.552   1.194   1.165  0.0060 -0.8241 -1.9048
    1SOL    HW3 2467   2.466   1.317   1.144 -0.4252 -1.0000 -1.1890
    1SOL    MW4 2468   2.479   1.239   1.180  0.3417 -0.6574 -0.6949
    1SOL     OW 2469   2.473   1.522   1.118 -0.9039  0.6567  0.6071
    1SOL    HW2 2470   2.395   1.567   1.149 -1.1481  0.7974 -0.2124
    1SOL    HW3 2471   2.466   1.523   1.023  0.3592  1.1494  0.5014
    1SOL    MW4 2472   2.462   1.528   1.110 -0.7696  0.7403  0.4851
    1SOL     OW 2473   2.240   1.621   1.238 -0.4137  0.2004 -0.0829
    1SOL    HW2 2474   2.233   1.713   1.212  1.2092 -0.0275 -1.3886
    1SOL    HW3 2475   2.163   1.579   1.198  0.1302  0.5397 -1.5091
    1SOL    MW4 2476   2.229   1.628   1.229 -0.1278  0.2149 -0.4435
    1SOL     OW 2477   2.217   1.894   1.144 -0.2933  0.2452 -0.4463
    1SOL    HW2 2478   2.144   1.953   1.160  0.1088  1.1256 -1.7982
    1SOL    HW3 2479   2.214   1.877   1.050  0.1734 -1.1282 -0.2222
    1SOL    MW4 2480   2.207   1.899   1.134 -0.1788  0.1801 -0.5952
    1SOL     OW 2481   2.451   2.012   1.231 -0.4311 -0.3282 -0.2493
    1SOL    HW2 2482   2.518   1.957   1.191 -0.0322 -0.1780  0.2005
    1SOL    HW3 2483   2.369   1.964   1.218 -0.3195 -0.2437 -1.2968
    1SOL    MW4 2484   2.449   1.998   1.224 -0.3636 -0.2971 -0.3281
    1SOL     OW 2485   2.449   2.267   1.155 -0.4112  0.0909  0.2653
    1SOL    HW2 2486   2.444   2.180   1.194  0.3665 -0.2772 -0.4269
    1SOL    HW3 2487   2.456   2.251   1.061 -1.2310  0.9311  0.0509
    1SOL    MW4 2488   2.449   2.254   1.148 -0.4163  0.1531  0.1458
    1SOL     OW 2489   2.226   2.431   1.234  0.0585 -0.3282  0.2716
    1SOL    HW2 2490   2.233   2.443   1.328  0.3596 -1.2881  0.3780
    1SOL    HW3 2491   2.295   2.369   1.212  0.0299 -0.0666 -0.5934
    1SOL    MW4 2492   2.236   2.424   1.243  0.0944 -0.4201  0.1714
    1SOL     OW 2493   2.241   2.664   1.087 -0.0053 -0.2424  0.4463
    1SOL    HW2 2494   2.233   2.582   1.136 -3.6234 -2.2143 -3.1088
    1SOL    HW3 2495   2.177   2.722   1.128 -0.7011 -0.7916  0.1654
    1SOL    MW4 2496   2.231   2.661   1.099 -0.5744 -0.5751 -0.0598
    1SOL     OW 2497   2.456   2.819   1.181 -0.4661  0.1901 -0.0051
    1SOL    HW2 2498   2.431   2.810   1.273  0.4110  1.7395  0.3939
    1SOL    HW3 2499   2.393   2.764   1.134 -0.4944 -1.1568  1.5740
    1SOL    MW4 2500   2.444   2.811   1.187 -0.3543  0.2172  0.2559
    1SOL     OW 2501   2.469   3.099   1.105 -0.0784  0.0366  0.0355
    1SOL    HW2 2502   2.398   3.150   1.145 -0.8034 -0.3317 -0.7718
    1SOL    HW3 2503   2.450   3.008   1.131 -0.1690 -0.1180 -0.5625
    1SOL    MW4 2504   2.457   3.094   1.114 -0.1857 -0.0324 -0.1498
    1SOL     OW 2505   2.249   3.251   1.200 -0.5047 -0.1071  0.2729
    1SOL    HW2 2506   2.226   3.339   1.173  0.5117  0.2864  0.6511
    1SOL    HW3 2507   2.169   3.200   1.189 -1.1729  0.9269  0.3396
    1SOL    MW4 2508   2.236   3.256   1.195 -0.4590  0.0813  0.3315
    1SOL     OW 2509   2.210   3.507   1.146 -0.0482  0.1763 -0.3620
    1SOL    HW2 2510   2.292   3.547   1.175 -1.0662  2.7233 -0.9123
    1SOL    HW3 2511   2.228   3.477   1.057  0.2341  0.8596 -0.5388
    1SOL    MW4 2512   2.223   3.508   1.138 -0.1452  0.6027 -0.4580
    1SOL     OW 2513   2.465   3.607   1.222  0.3278 -0.0303  0.1554
    1SOL    HW2 2514   2.492   3.610   1.314  0.4352  0.0614  0.1211
    1SOL    HW3 2515   2.433   3.695   1.203 -0.9338 -0.4202  0.4750
    1SOL    MW4 2516   2.465   3.619   1.232  0.1757 -0.0694  0.1930
    1SOL     OW 2517   2.397   3.872   1.153 -0.2864 -0.7204 -0.0125
    1SOL    HW2 2518   2.338   3.932   1.199 -1.1691 -1.4401 -0.1934
    1SOL    HW3 2519   2.392   3.898   1.061 -1.6060 -1.8257 -0.2713
    1SOL    MW4 2520   2.389   3.883   1.147 -0.5770 -0.9611 -0.0705
    1SOL     OW 2521   2.192   4.046   1.247 -0.4528 -0.0017 -0.1847
    1SOL    HW2 2522   2.217   4.129   1.206  0.1537 -0.6474 -1.1284
    1SOL    HW3 2523   2.111   4.021   1.201 -1.4195  0.7674  1.0681
    1SOL    MW4 2524   2.184   4.053   1.235 -0.5002  0.0148 -0.1440
    1SOL     OW 2525   2.258   4.279   1.082  0.3187  0.1722  0.0057
    1SOL    HW2 2526   2.179   4.328   1.105  0.1427  0.8988 -2.0130
    1SOL    HW3 2527   2.244   4.253   0.991  1.7517 -1.0105  0.1085
    1SOL    MW4 2528   2.246   4.282   1.073  0.4845  0.1121 -0.2470
    1SOL     OW 2529   2.464   4.389   1.216  0.0226  0.0329 -0.4811
    1SOL    HW2 2530   2.396   4.341   1.169  1.0869  0.2375 -2.3000
    1SOL    HW3 2531   2.462   4.477   1.178 -1.2243  1.1780  2.1134
    1SOL    MW4 2532   2.455   4.394   1.205 -0.0014  0.2108 -0.3787
    1SOL     OW 2533   2.886   4.582   1.126 -0.0869  0.0219  0.3550
    1SOL    HW2 2534   2.896   4.496   1.168  0.2345  0.2590  0.7709
    1SOL    HW3 2535   2.922   4.569   1.038 -1.8576 -0.7965 -0.2627
    1SOL    MW4 2536   2.892   4.569   1.120 -0.2782 -0.0548  0.3283
    1SOL     OW 2537   2.678   0.076   1.204  0.1619  0.2500 -0.2185
    1SOL    HW2 2538   2.686   0.087   1.298  1.3033 -0.0826 -0.2725
    1SOL    HW3 2539   2.740   0.007   1.182  1.7317  2.0392 -1.5598
    1SOL    MW4 2540   2.687   0.069   1.213  0.5193  0.4422 -0.4027
    1SOL     OW 2541   2.721   0.332   1.110  0.1178  0.1305  0.0788
    1SOL    HW2 2542   2.714   0.242   1.140  2.1965  0.2900  1.1143
    1SOL    HW3 2543   2.641   0.374   1.143  0.0797 -0.8478  1.2790
    1SOL    MW4 2544   2.709   0.326   1.118  0.3870  0.0225  0.3737
    1SOL     OW 2545   2.939   0.481   1.193  0.8151 -0.0860 -0.2587
    1SOL    HW2 2546   2.921   0.572   1.168  2.7721  0.2019 -0.6639
    1SOL    HW3 2547   2.859   0.434   1.167  0.4469  1.2262 -1.6293
    1SOL    MW4 2548   2.926   0.487   1.186  1.0247  0.1251 -0.4929
    1SOL     OW 2549   2.881   0.743   1.120  0.4217 -0.1590  0.3118
    1SOL    HW2 2550   2.965   0.783   1.140 -0.3661  1.2092  1.0082
    1SOL    HW3 2551   2.818   0.793   1.172 -0.8285 -1.1139 -0.2478
    1SOL    MW4 2552   2.884   0.755   1.130  0.1531 -0.1044  0.3297
    1SOL     OW 2553   2.691   0.853   1.263  0.1443  0.1112 -0.0842
    1SOL    HW2 2554   2.694   0.936   1.216 -0.7468  0.5598  0.6341
    1SOL    HW3 2555   2.617   0.806   1.225 -1.5791  1.1297  1.8969
    1SOL    MW4 2556   2.681   0.857   1.252 -0.2003  0.3047  0.2718
    1SOL     OW 2557   2.696   1.095   1.138  0.2031 -0.0994  0.2795
    1SOL    HW2 2558   2.696   1.083   1.043 -0.8693  1.3207  0.0787
    1SOL    HW3 2559   2.775   1.146   1.156  0.3615 -0.2971  0.1407
    1SOL    MW4 2560   2.706   1.100   1.128  0.0825  0.0620  0.2347
    1SOL     OW 2561   2.925   1.231   1.216  0.6261 -0.0793 -0.2471
    1SOL    HW2 2562   2.917   1.235   1.311  1.1797  0.7326 -0.2292
    1SOL    HW3 2563   2.919   1.323   1.188 -0.8434 -0.4174 -1.0990
    1SOL    MW4 2564   2.923   1.244   1.225  0.5052 -0.0169 -0.3572
    1SOL     OW 2565   2.892   1.487   1.126  0.0449  0.2470  0.6586
    1SOL    HW2 2566   2.970   1.538   1.148  1.7802 -2.2286  0.3901
    1SOL    HW3 2567   2.896   1.476   1.031 -0.4263 -0.2031  0.6906
    1SOL    MW4 2568   2.903   1.492   1.117  0.2117 -0.1391  0.6273
    1SOL     OW 2569   2.688   1.632   1.260 -0.0196 -0.0549 -0.2615
    1SOL    HW2 2570   2.766   1.588   1.225 -0.2192 -0.1688 -0.5624
    1SOL    HW3 2571   2.615   1.582   1.225 -0.2135 -0.6380  0.9312
    1SOL    MW4 2572   2.689   1.619   1.251 -0.0718 -0.1469 -0.1439
    1SOL     OW 2573   2.661   1.857   1.107 -0.5387 -0.2132  0.0231
    1SOL    HW2 2574   2.736   1.910   1.134  0.8490 -1.3749 -1.3957
    1SOL    HW3 2575   2.676   1.771   1.147 -0.8742 -0.5788 -0.6197
    1SOL    MW4 2576   2.673   1.853   1.116 -0.4001 -0.4146 -0.2489
    1SOL     OW 2577   2.857   2.015   1.213 -0.1378 -0.0364 -0.0495
    1SOL    HW2 2578   2.876   2.005   1.306 -1.5575 -0.1874  0.2274
    1SOL    HW3 2579   2.872   2.108   1.195  2.3532 -0.4376 -0.1896
    1SOL    MW4 2580   2.862   2.026   1.223  0.0033 -0.1092 -0.0317
    1SOL     OW 2581   2.899   2.284   1.158 -0.1265  0.2882  0.1112
    1SOL    HW2 2582   2.974   2.333   1.192 -0.4804  2.2020 -1.7674
    1SOL    HW3 2583   2.823   2.323   1.202 -0.1993 -0.2834  0.4975
    1SOL    MW4 2584   2.899   2.296   1.168 -0.1826  0.4654 -0.0856
    1SOL     OW 2585   2.671   2.403   1.258  0.2203 -0.0257 -0.3122
    1SOL    HW2 2586   2.678   2.406   1.354 -1.5519 -0.4403 -0.1560
    1SOL    HW3 2587   2.599   2.342   1.241  0.8035 -0.2926 -1.9279
    1SOL    MW4 2588   2.662   2.395   1.269  0.0637 -0.1159 -0.5047
    1SOL     OW 2589   2.693   2.658   1.147 -0.2000 -0.0185  0.1738
    1SOL    HW2 2590   2.665   2.574   1.184  1.6436 -0.6869  0.1010
    1SOL    HW3 2591   2.620   2.717   1.164 -0.5443 -1.0356  2.3917
    1SOL    MW4 2592   2.680   2.655   1.154 -0.0021 -0.2410  0.4570
    1SOL     OW 2593   2.938   2.776   1.212 -0.2855 -0.0815  0.1827
    1SOL    HW2 2594   2.923   2.783   1.306  1.1193 -2.2635  0.6013
    1SOL    HW3 2595   2.858   2.734   1.179  0.1218 -1.3235  0.7406
    1SOL    MW4 2596   2.925   2.772   1.220 -0.0463 -0.5331  0.3115
    1SOL     OW 2597   2.925   3.041   1.175 -0.3018 -0.0298  0.3510
    1SOL    HW2 2598   2.937   2.946   1.185  1.2278  0.1609  0.4405
    1SOL    HW3 2599   2.909   3.053   1.081 -1.8516 -0.5112  0.5469
    1SOL    MW4 2600   2.925   3.030   1.164 -0.3045 -0.0682  0.3886
    1SOL     OW 2601   2.694   3.157   1.252  0.0643  0.4961 -0.3137
    1SOL    HW2 2602   2.766   3.098   1.233 -2.7359 -3.6885  1.1567
    1SOL    HW3 2603   2.625   3.131   1.191 -1.2396  2.2724  0.3550
    1SOL    MW4 2604   2.694   3.146   1.241 -0.4773  0.1783 -0.0314
    1SOL     OW 2605   2.703   3.417   1.148 -0.3238 -0.1316 -0.2614
    1SOL    HW2 2606   2.718   3.340   1.203  0.8346  0.1821 -0.1394
    1SOL    HW3 2607   2.621   3.453   1.181 -1.5347 -1.9929 -1.1147
    1SOL    MW4 2608   2.694   3.411   1.160 -0.3309 -0.3359 -0.3579
    1SOL     OW 2609   2.943   3.565   1.202  0.4821 -0.2401  0.2238
    1SOL    HW2 2610   3.010   3.545   1.136  1.3009 -1.4933  1.4214
    1SOL    HW3 2611   2.871   3.505   1.181  0.3064  0.1036 -0.1737
    1SOL    MW4 2612   2.943   3.554   1.190  0.5670 -0.3600  0.3295
    1SOL     OW 2613   2.883   3.823   1.124  0.0878 -0.1507 -0.2158
    1SOL    HW2 2614   2.965   3.870   1.139  0.3604 -0.9014  0.6455
    1SOL    HW3 2615   2.895   3.738   1.165 -1.3585 -0.0315  0.4831
    1SOL    MW4 2616   2.895   3.818   1.131 -0.0670 -0.2341 -0.0099
    1SOL     OW 2617   2.658   3.994   1.222 -0.0161 -0.0245  0.0566
    1SOL    HW2 2618   2.718   3.936   1.175 -0.0973 -1.9438  2.2370
    1SOL    HW3 2619   2.572   3.957   1.207 -0.3633  1.0725 -0.7019
    1SOL    MW4 2620   2.655   3.982   1.214 -0.0727 -0.1330  0.2441
    1SOL     OW 2621   2.692   4.251   1.116  0.2849  0.5044 -0.8176
    1SOL    HW2 2622   2.685   4.159   1.143  0.4859  0.7353  0.0596
    1SOL    HW3 2623   2.616   4.293   1.158  1.3281  1.1240  0.4954
    1SOL    MW4 2624   2.681   4.244   1.125  0.4492  0.6166 -0.5286
    1SOL     OW 2625   2.932   4.329   1.236  0.0151  0.1214  0.3151
    1SOL    HW2 2626   3.001   4.274   1.199 -0.3495  0.3647 -0.7598
    1SOL    HW3 2627   2.852   4.299   1.191 -0.6070 -0.2895  1.6818
    1SOL    MW4 2628   2.931   4.318   1.225 -0.1152  0.0992  0.3536
    1SOL     OW 2629   3.303   4.643   1.063 -0.1423 -0.1705  0.0745
    1SOL    HW2 2630   3.382   4.691   1.089 -0.3881  1.3411 -1.8420
    1SOL    HW3 2631   3.235   4.673   1.123  0.0275  0.9178 -0.2637
    1SOL    MW4 2632   3.305   4.653   1.074 -0.1523  0.1721 -0.2229
    1SOL     OW 2633   3.111   0.088   1.228  0.2039 -0.2894 -0.2663
    1SOL    HW2 2634   3.122   0.110   1.320 -0.4616 -1.7499  0.1786
    1SOL    HW3 2635   3.035   0.030   1.226 -1.0431  1.3240 -1.9907
    1SOL    MW4 2636   3.102   0.083   1.240 -0.0482 -0.2692 -0.4351
    1SOL     OW 2637   3.126   0.308   1.066  0.3820 -0.4067 -0.1795
    1SOL    HW2 2638   3.112   0.226   1.114 -1.0289 -0.4716 -0.6590
    1SOL    HW3 2639   3.061   0.368   1.103  1.2094  0.4160 -0.0382
    1SOL    MW4 2640   3.115   0.305   1.077  0.3052 -0.3067 -0.2241
    1SOL     OW 2641   3.353   0.436   1.191  0.0755 -0.0760 -0.0476
    1SOL    HW2 2642   3.345   0.527   1.164  1.0236 -0.5084 -1.9028
    1SOL    HW3 2643   3.269   0.396   1.166  0.1947 -0.0208 -0.5484
    1SOL    MW4 2644   3.341   0.442   1.184  0.2165 -0.1258 -0.3583
    1SOL     OW 2645   3.375   0.710   1.118  0.0028  0.2838 -0.0027
    1SOL    HW2 2646   3.369   0.696   1.024  1.0551  0.1785 -0.0603
    1SOL    HW3 2647   3.293   0.753   1.141 -0.1059  0.6402 -1.0301
    1SOL    MW4 2648   3.363   0.714   1.109  0.1273  0.3169 -0.1459
    1SOL     OW 2649   3.138   0.840   1.178 -0.4855  0.5143  0.3843
    1SOL    HW2 2650   3.130   0.833   1.273  0.8925  0.3321  0.4902
    1SOL    HW3 2651   3.143   0.934   1.161 -1.5232  0.5792  0.4226
    1SOL    MW4 2652   3.138   0.852   1.188 -0.4404  0.4988  0.4033
    1SOL     OW 2653   3.154   1.111   1.106  0.1718  0.0721  0.0720
    1SOL    HW2 2654   3.226   1.175   1.109  0.2809 -0.0825  0.9125
    1SOL    HW3 2655   3.084   1.152   1.156 -0.0613 -0.0971 -0.1171
    1SOL    MW4 2656   3.154   1.125   1.113  0.1552  0.0296  0.1581
    1SOL     OW 2657   3.401   1.262   1.175 -0.0846  0.3330 -0.1194
    1SOL    HW2 2658   3.391   1.252   1.269  2.6202  2.3673  0.4668
    1SOL    HW3 2659   3.385   1.355   1.159  1.5219  0.4238 -1.3371
    1SOL    MW4 2660   3.398   1.273   1.185  0.4840  0.6133 -0.2029
    1SOL     OW 2661   3.347   1.529   1.099 -0.4869 -0.0674 -0.0484
    1SOL    HW2 2662   3.420   1.586   1.122 -1.2135  0.6360  0.5414
    1SOL    HW3 2663   3.269   1.576   1.129 -1.1764 -0.8686 -0.5452
    1SOL    MW4 2664   3.346   1.543   1.106 -0.6738 -0.0802 -0.0361
    1SOL     OW 2665   3.107   1.638   1.228  0.1554  0.4747 -0.1675
    1SOL    HW2 2666   3.139   1.638   1.318  1.1764 -0.4259 -0.5222
    1SOL    HW3 2667   3.095   1.731   1.207  0.7773  0.7340  0.5977
    1SOL    MW4 2668   3.110   1.650   1.237  0.3719  0.3902 -0.1134
    1SOL     OW 2669   3.101   1.901   1.144  0.4177 -0.1212 -0.4943
    1SOL    HW2 2670   3.180   1.947   1.172  0.0901 -0.6530  1.3762
    1SOL    HW3 2671   3.029   1.959   1.168  0.0519 -1.2128  1.0920
    1SOL    MW4 2672   3.102   1.915   1.150  0.3257 -0.3353 -0.0384
    1SOL     OW 2673   3.322   2.066   1.208  0.2345 -0.5126 -0.6809
    1SOL    HW2 2674   3.403   2.021   1.185  1.4656  1.1748  0.2005
    1SOL    HW3 2675   3.322   2.146   1.155 -1.0258 -0.6630 -0.9309
    1SOL    MW4 2676   3.332   2.071   1.198  0.2303 -0.3097 -0.5978
    1SOL     OW 2677   3.329   2.306   1.069  0.0159  0.2098  0.0041
    1SOL    HW2 2678   3.399   2.354   1.113  0.5282  0.5798 -1.2078
    1SOL    HW3 2679   3.251   2.326   1.121  0.5610  0.8475  0.5914
    1SOL    MW4 2680   3.328   2.315   1.082  0.1554  0.3426 -0.0782
    1SOL     OW 2681   3.139   2.409   1.251 -0.0427  0.0353 -0.4038
    1SOL    HW2 2682   3.172   2.416   1.340 -0.9605  0.1687 -0.0698
    1SOL    HW3 2683   3.146   2.497   1.215  1.3681 -0.2455 -0.8432
    1SOL    MW4 2684   3.144   2.421   1.258  0.0226  0.0157 -0.4178
    1SOL     OW 2685   3.173   2.664   1.142  0.2601 -0.1523  0.0431
    1SOL    HW2 2686   3.095   2.711   1.171  0.7702  0.3452  0.6514
    1SOL    HW3 2687   3.163   2.656   1.047 -0.9737 -0.9419  0.2331
    1SOL    MW4 2688   3.161   2.669   1.134  0.1647 -0.1910  0.1484
    1SOL     OW 2689   3.359   2.840   1.227  0.1824  0.5236 -0.0792
    1SOL    HW2 2690   3.357   2.922   1.178  0.4769  0.7246  0.2426
    1SOL    HW3 2691   3.286   2.790   1.193  0.8620  0.3458 -1.2830
    1SOL    MW4 2692   3.349   2.844   1.216  0.3109  0.5269 -0.1956
    1SOL     OW 2693   3.365   3.083   1.126  0.2750 -0.2343  0.1904
    1SOL    HW2 2694   3.434   3.134   1.169  0.6203  0.0453 -0.6882
    1SOL    HW3 2695   3.285   3.107   1.172  0.6233  0.1442  0.6076
    1SOL    MW4 2696   3.364   3.093   1.138  0.3664 -0.1473  0.1295
    1SOL     OW 2697   3.147   3.207   1.239 -0.3542 -0.3374 -0.0429
    1SOL    HW2 2698   3.154   3.199   1.334 -1.0463  0.5857  0.0911
    1SOL    HW3 2699   3.071   3.153   1.216  0.2311 -1.1305 -0.1697
    1SOL    MW4 2700   3.138   3.198   1.248 -0.3681 -0.3202 -0.0418
    1SOL     OW 2701   3.183   3.461   1.085 -0.0777 -0.0080 -1.0000
    1SOL    HW2 2702   3.262   3.506   1.113 -0.3004  0.4165 -1.0486
    1SOL    HW3 2703   3.182   3.380   1.136  1.5171 -1.0468 -2.5689
    1SOL    MW4 2704   3.193   3.456   1.096  0.1035 -0.0892 -1.2136
    1SOL     OW 2705   3.388   3.622   1.202  0.2915  0.3788 -0.0133
    1SOL    HW2 2706   3.364   3.608   1.294 -0.3815  0.2499 -0.2093
    1SOL    HW3 2707   3.464   3.566   1.189 -0.0618 -0.1699  0.2616
    1SOL    MW4 2708   3.395   3.613   1.212  0.1559  0.2897 -0.0030
    1SOL     OW 2709   3.344   3.841   1.052  0.1215  0.4063  0.4129
    1SOL    HW2 2710   3.355   3.765   1.108  0.4670  1.1577  1.3743
    1SOL    HW3 2711   3.265   3.884   1.085 -1.1795 -0.5648 -1.3379
    1SOL    MW4 2712   3.335   3.837   1.064 -0.0045  0.3774  0.3089
    1SOL     OW 2713   3.119   3.957   1.177  0.5830 -0.0270  0.3631
    1SOL    HW2 2714   3.108   3.963   1.272 -1.6120  0.5955  0.0943
    1SOL    HW3 2715   3.159   4.041   1.153  1.6791 -0.4155  0.7892
    1SOL    MW4 2716   3.123   3.969   1.186  0.4377  0.0036  0.3839
    1SOL     OW 2717   3.166   4.220   1.100 -0.3566 -0.1419  0.6131
    1SOL    HW2 2718   3.217   4.298   1.122 -1.6346  0.6672  0.7091
    1SOL    HW3 2719   3.143   4.231   1.008 -2.0434  0.4596  1.0929
    1SOL    MW4 2720   3.170   4.232   1.091 -0.7479  0.0439  0.6890
    1SOL     OW 2721   3.380   4.404   1.205 -0.1870  0.1083  0.1228
    1SOL    HW2 2722   3.448   4.351   1.164 -0.7606 -0.9340  0.4936
    1SOL    HW3 2723   3.376   4.483   1.152  0.6835 -0.2158 -0.4404
    1SOL    MW4 2724   3.388   4.407   1.193 -0.1481 -0.0725  0.0973
    1SOL     OW 2725   3.768   4.627   1.098 -0.5698  0.1456  0.0654
    1SOL    HW2 2726   3.789   4.541   1.134 -1.7393 -0.3819 -0.4996
    1SOL    HW3 2727   3.782   4.618   1.004 -1.9082  0.2004 -0.1432
    1SOL    MW4 2728   3.772   4.615   1.091 -0.9007  0.0830 -0.0367
    1SOL     OW 2729   3.536   0.082   1.212 -0.2307 -0.1477  0.4370
    1SOL    HW2 2730   3.559   0.173   1.192  0.2169 -0.3824 -0.1591
    1SOL    HW3 2731   3.611   0.032   1.179 -1.3065 -0.8869 -0.9489
    1SOL    MW4 2732   3.549   0.088   1.205 -0.3135 -0.2762  0.1755
    1SOL     OW 2733   3.592   0.319   1.096  0.1307  0.3831 -0.2601
    1SOL    HW2 2734   3.658   0.381   1.126  0.7022 -1.0967  1.6149
    1SOL    HW3 2735   3.508   0.361   1.114  0.5185  0.9084  0.3178
    1SOL    MW4 2736   3.589   0.333   1.102  0.2573  0.2572  0.0635
    1SOL     OW 2737   3.786   0.512   1.159  0.1463 -0.2795  0.3372
    1SOL    HW2 2738   3.856   0.447   1.157 -0.4469 -0.9049 -0.5413
    1SOL    HW3 2739   3.831   0.596   1.154  0.7848 -0.7136 -1.5783
    1SOL    MW4 2740   3.801   0.514   1.158  0.1521 -0.4193 -0.0315
    1SOL     OW 2741   3.838   0.779   1.086 -0.0754 -0.2877 -0.2579
    1SOL    HW2 2742   3.909   0.835   1.118 -0.9579  1.1712 -0.7664
    1SOL    HW3 2743   3.758   0.817   1.124 -0.7211 -0.9886 -0.8914
    1SOL    MW4 2744   3.837   0.792   1.095 -0.2770 -0.1877 -0.4085
    1SOL     OW 2745   3.603   0.867   1.213  0.0461 -0.3216  0.1320
    1SOL    HW2 2746   3.570   0.943   1.164  0.9079 -1.1225 -1.7378
    1SOL    HW3 2747   3.538   0.798   1.198  0.1648 -0.4883  0.3798
    1SOL    MW4 2748   3.590   0.868   1.205  0.1752 -0.4492 -0.0819
    1SOL     OW 2749   3.626   1.126   1.043  0.3000  0.0230  0.0842
    1SOL    HW2 2750   3.703   1.175   1.070 -0.1067  1.2730 -0.9598
    1SOL    HW3 2751   3.552   1.172   1.084  0.0743 -0.9658  0.8077
    1SOL    MW4 2752   3.626   1.138   1.052  0.2167  0.0573  0.0420
    1SOL     OW 2753   3.813   1.271   1.206 -0.3264  0.2489 -0.1815
    1SOL    HW2 2754   3.795   1.259   1.299  2.2314 -0.1364  0.2915
    1SOL    HW3 2755   3.812   1.366   1.193  0.2494  0.3326  0.4217
    1SOL    MW4 2756   3.810   1.282   1.216  0.0870  0.2091 -0.0395
    1SOL     OW 2757   3.836   1.541   1.130 -0.4298  0.4449  0.1456
    1SOL    HW2 2758   3.912   1.598   1.135  0.7640 -1.0870 -0.2778
    1SOL    HW3 2759   3.814   1.537   1.037 -0.4940  0.1756  0.1721
    1SOL    MW4 2760   3.843   1.548   1.118 -0.2809  0.2072  0.0932
    1SOL     OW 2761   3.592   1.656   1.215  0.0494  0.2140 -0.2847
    1SOL    HW2 2762   3.594   1.747   1.184 -1.1784  0.4429  0.2772
    1SOL    HW3 2763   3.678   1.621   1.192  0.6778  1.6364 -0.1706
    1SOL    MW4 2764   3.603   1.663   1.208 -0.0298  0.4320 -0.1955
    1SOL     OW 2765   3.570   1.928   1.128  0.0693 -0.1681 -0.2656
    1SOL    HW2 2766   3.650   1.975   1.151 -0.1130  0.5468 -1.0880
    1SOL    HW3 2767   3.576   1.914   1.034 -0.0806 -1.4216 -0.0937
    1SOL    MW4 2768   3.582   1.932   1.119  0.0255 -0.2393 -0.3514
    1SOL     OW 2769   4.023   1.967   1.096  0.4325  0.3628  0.2789
    1SOL    HW2 2770   3.941   2.005   1.131  0.3183 -0.1580  0.5787
    1SOL    HW3 2771   4.028   1.881   1.136  1.6200  0.7639  1.0155
    1SOL    MW4 2772   4.013   1.961   1.106  0.5746  0.3470  0.4156
    1SOL     OW 2773   3.793   2.075   1.184 -0.0458 -0.5468  0.0063
    1SOL    HW2 2774   3.791   2.166   1.156  0.3353 -0.8819 -1.1344
    1SOL    HW3 2775   3.815   2.079   1.277 -1.1137  0.5678  0.2154
    1SOL    MW4 2776   3.796   2.087   1.193 -0.1364 -0.4439 -0.1166
    1SOL     OW 2777   3.548   2.434   1.179  0.1904  0.3877 -0.5123
    1SOL    HW2 2778   3.554   2.444   1.274 -0.9759  1.9752 -0.5790
    1SOL    HW3 2779   3.637   2.412   1.152  0.7301  0.7816  0.8579
    1SOL    MW4 2780   3.561   2.433   1.188  0.1078  0.6492 -0.3405
    1SOL     OW 2781   3.587   2.707   1.114  0.4512 -0.2298  0.2412
    1SOL    HW2 2782   3.569   2.614   1.130 -0.6591 -0.0408  0.1324
    1SOL    HW3 2783   3.525   2.753   1.170  1.4025  0.4562  0.7403
    1SOL    MW4 2784   3.576   2.700   1.123  0.4306 -0.1147  0.2927
    1SOL     OW 2785   3.835   2.791   1.224 -0.0882  0.0526 -0.1482
    1SOL    HW2 2786   3.841   2.779   1.319 -0.1427  0.8217 -0.0395
    1SOL    HW3 2787   3.757   2.743   1.198  0.1082 -0.4282  0.1503
    1SOL    MW4 2788   3.826   2.783   1.233 -0.0694  0.0908 -0.0945
    1SOL     OW 2789   3.782   3.066   1.177  0.2042  0.5323  0.1767
    1SOL    HW2 2790   3.788   2.973   1.198 -2.4642  0.5370  1.2484
    1SOL    HW3 2791   3.775   3.069   1.082 -1.6863 -0.5505  0.2511
    1SOL    MW4 2792   3.782   3.054   1.167 -0.3972  0.3901  0.3279
    1SOL     OW 2793   3.554   3.229   1.246  0.3649  0.1881  0.1650
    1SOL    HW2 2794   3.572   3.319   1.217 -0.2813  0.6535  1.1692
    1SOL    HW3 2795   3.630   3.179   1.217  0.4093  0.9234 -1.0101
    1SOL    MW4 2796   3.567   3.234   1.238  0.2854  0.3467  0.1425
    1SOL     OW 2797   3.615   3.471   1.154  0.8031  0.0033  0.5183
    1SOL    HW2 2798   3.685   3.522   1.196 -0.1557  0.7486  1.2267
    1SOL    HW3 2799   3.611   3.505   1.065  0.6638  0.6529  0.7712
    1SOL    MW4 2800   3.624   3.482   1.148  0.6583  0.1876  0.6452
    1SOL     OW 2801   3.819   3.652   1.205  0.1013  0.5214 -0.4830
    1SOL    HW2 2802   3.834   3.666   1.298  2.2317 -0.6693 -0.6198
    1SOL    HW3 2803   3.816   3.740   1.168 -1.9437  1.0468  0.8612
    1SOL    MW4 2804   3.821   3.666   1.212  0.1125  0.4337 -0.3237
    1SOL     OW 2805   3.791   3.905   1.095 -0.0621 -0.0984 -0.3553
    1SOL    HW2 2806   3.710   3.950   1.118 -0.1063  0.0884 -0.8583
    1SOL    HW3 2807   3.784   3.891   1.000  1.1988  1.3890 -0.7043
    1SOL    MW4 2808   3.780   3.909   1.085  0.0987  0.1225 -0.4677
    1SOL     OW 2809   3.541   4.009   1.152 -0.0167 -0.1081 -0.3037
    1SOL    HW2 2810   3.542   3.973   1.240  0.9725 -0.0496 -0.2877
    1SOL    HW3 2811   3.489   3.946   1.101  1.4002 -1.3931 -0.1984
    1SOL    MW4 2812   3.534   3.996   1.157  0.3009 -0.2701 -0.2878
    1SOL     OW 2813   3.570   4.271   1.075  0.3993 -0.3858  0.3676
    1SOL    HW2 2814   3.562   4.184   1.112 -1.7946  0.3060  1.6069
    1SOL    HW3 2815   3.572   4.257   0.981  0.5804 -1.7919  0.5686
    1SOL    MW4 2816   3.569   4.258   1.068  0.1335 -0.4802  0.5574
    1SOL     OW 2817   3.812   4.354   1.174 -0.0677  0.0328  0.1388
    1SOL    HW2 2818   3.808   4.369   1.268  0.0743 -0.4497  0.2241
    1SOL    HW3 2819   3.724   4.324   1.151 -0.1732  0.3881  0.0750
    1SOL    MW4 2820   3.800   4.352   1.183 -0.0629  0.0162  0.1416
    1SOL     OW 2821   4.234   4.638   1.092 -0.0407 -0.2480 -0.2508
    1SOL    HW2 2822   4.235   4.560   1.148  0.1412 -0.3550 -0.4043
    1SOL    HW3 2823   4.154   4.685   1.118  0.1455 -0.2008  0.2315
    1SOL    MW4 2824   4.223   4.634   1.103  0.0076 -0.2561 -0.2074
    1SOL     OW 2825   4.003   0.081   1.205 -0.1199 -0.3625  0.3537
    1SOL    HW2 2826   4.001   0.066   1.300 -0.5807 -0.0530  0.3947
    1SOL    HW3 2827   3.938   0.021   1.170 -0.2681 -0.1612  0.2809
    1SOL    MW4 2828   3.994   0.071   1.213 -0.1998 -0.2951  0.3495
    1SOL     OW 2829   4.010   0.358   1.145  0.3885  0.1077  0.2612
    1SOL    HW2 2830   3.994   0.266   1.162  0.1103  0.1371  0.1745
    1SOL    HW3 2831   4.021   0.363   1.050 -0.0058  0.2203  0.2189
    1SOL    MW4 2832   4.009   0.347   1.135  0.2999  0.1265  0.2441
    1SOL     OW 2833   4.269   0.488   1.217 -0.0475  0.5502 -0.1089
    1SOL    HW2 2834   4.266   0.510   1.310  0.7275  0.0981  0.0276
    1SOL    HW3 2835   4.187   0.442   1.201  0.2318 -0.2123  0.5768
    1SOL    MW4 2836   4.258   0.485   1.227  0.0916  0.3899 -0.0005
    1SOL     OW 2837   4.258   0.756   1.129 -0.5730  0.3546 -0.0575
    1SOL    HW2 2838   4.255   0.666   1.162 -1.7764  0.1410 -0.7077
    1SOL    HW3 2839   4.336   0.794   1.170 -0.2109 -0.8924  0.4457
    1SOL    MW4 2840   4.268   0.749   1.139 -0.6843  0.1619 -0.0769
    1SOL     OW 2841   4.053   0.919   1.203 -0.0240 -0.0766 -0.1341
    1SOL    HW2 2842   4.049   0.897   1.296 -0.0883  0.4186 -0.0190
    1SOL    HW3 2843   4.117   0.858   1.167  0.7364  0.3780  0.4257
    1SOL    MW4 2844   4.061   0.908   1.210  0.0682  0.0487 -0.0449
    1SOL     OW 2845   4.057   1.172   1.092  0.3363 -0.1171  0.5500
    1SOL    HW2 2846   4.049   1.083   1.124 -1.9149  0.0342  0.4675
    1SOL    HW3 2847   3.991   1.222   1.141 -1.1556  0.6966 -2.1678
    1SOL    MW4 2848   4.047   1.167   1.103 -0.1574  0.0103  0.1805
    1SOL     OW 2849   4.303   1.274   1.191 -0.0785 -0.1981 -0.1996
    1SOL    HW2 2850   4.291   1.289   1.285  1.5871 -2.1040  0.3702
    1SOL    HW3 2851   4.219   1.238   1.162 -0.5984  0.3782  0.5530
    1SOL    MW4 2852   4.290   1.271   1.199  0.0725 -0.3736 -0.0250
    1SOL     OW 2853   4.286   1.549   1.120  0.0200 -0.1127 -0.1015
    1SOL    HW2 2854   4.295   1.456   1.141  0.6811 -0.3713 -1.5018
    1SOL    HW3 2855   4.364   1.590   1.160  0.6627 -0.4358 -0.9957
    1SOL    MW4 2856   4.298   1.542   1.128  0.1922 -0.1895 -0.4042
    1SOL     OW 2857   4.066   1.716   1.189 -0.5289 -0.6338 -0.6374
    1SOL    HW2 2858   4.085   1.714   1.283  0.4697 -1.7180 -0.8443
    1SOL    HW3 2859   4.137   1.665   1.150 -1.3800 -0.8673 -1.8954
    1SOL    MW4 2860   4.077   1.709   1.196 -0.5093 -0.8076 -0.8307
    1SOL     OW 2861   3.090   1.782   0.298 -0.2676  0.5202 -0.4718
    1SOL    HW2 2862   3.055   1.789   0.210 -1.2400 -1.8887 -0.3133
    1SOL    HW3 2863   3.027   1.828   0.353 -0.8843  0.0046 -0.7447
    1SOL    MW4 2864   3.077   1.789   0.294 -0.4771  0.1343 -0.4869
    1SOL     OW 2865   4.286   2.039   1.196  0.2310  0.0734  0.0295
    1SOL    HW2 2866   4.289   2.131   1.168  0.0931 -0.1662 -0.7918
    1SOL    HW3 2867   4.202   2.007   1.163 -0.0983 -0.1204  1.0488
    1SOL    MW4 2868   4.275   2.047   1.188  0.1693  0.0162  0.0556
    1SOL     OW 2869   4.270   2.329   1.102 -0.5264  0.5042 -0.0394
    1SOL    HW2 2870   4.192   2.360   1.148 -0.8553 -0.5621  0.1405
    1SOL    HW3 2871   4.250   2.340   1.009 -1.9404 -2.1430 -0.1041
    1SOL    MW4 2872   4.257   2.335   1.096 -0.7563  0.0143 -0.0243
    1SOL     OW 2873   4.038   2.429   1.173 -0.3311  0.1613 -0.0994
    1SOL    HW2 2874   4.050   2.459   1.263  1.5193 -1.0833  0.0857
    1SOL    HW3 2875   4.047   2.508   1.120  0.6524  0.5624  0.6533
    1SOL    MW4 2876   4.041   2.443   1.178  0.0434  0.0501  0.0243
    1SOL     OW 2877   4.027   2.687   1.057  0.2806 -0.2442  0.2950
    1SOL    HW2 2878   3.959   2.730   1.110 -0.5875 -1.5978  0.3006
    1SOL    HW3 2879   4.007   2.714   0.967  0.9872  1.0147  0.4942
    1SOL    MW4 2880   4.015   2.697   1.052  0.2594 -0.2568  0.3220
    1SOL     OW 2881   4.244   2.786   1.188  0.0652  0.3008  0.0754
    1SOL    HW2 2882   4.239   2.877   1.160 -0.6679  0.5414  0.9488
    1SOL    HW3 2883   4.166   2.744   1.151  1.1153 -0.3003 -1.4657
    1SOL    MW4 2884   4.233   2.792   1.180  0.1068  0.2532 -0.0128
    1SOL     OW 2885   4.284   3.055   1.144 -0.0631  0.1536 -0.1723
    1SOL    HW2 2886   4.202   3.102   1.159 -0.2567 -0.3930  0.5583
    1SOL    HW3 2887   4.284   3.036   1.050  0.3544  2.1904 -0.6052
    1SOL    MW4 2888   4.273   3.058   1.134 -0.0339  0.3502 -0.1329
    1SOL     OW 2889   4.041   3.182   1.198  0.4660 -0.0506  0.6854
    1SOL    HW2 2890   4.050   3.219   1.286  0.0796  1.0401  0.2846
    1SOL    HW3 2891   3.955   3.140   1.198  0.5160 -0.1517  0.8670
    1SOL    MW4 2892   4.030   3.181   1.210  0.4215  0.0799  0.6566
    1SOL     OW 2893   4.042   3.453   1.106  0.1841 -0.2432 -0.1989
    1SOL    HW2 2894   4.027   3.364   1.139 -1.1662 -0.3112 -0.9558
    1SOL    HW3 2895   3.970   3.505   1.144  0.5386  0.3679 -0.3595
    1SOL    MW4 2896   4.030   3.448   1.116  0.0525 -0.1717 -0.3201
    1SOL     OW 2897   4.248   3.609   1.227  0.1089  0.2513 -0.2447
    1SOL    HW2 2898   4.179   3.549   1.199 -0.7207  0.3604  1.4881
    1SOL    HW3 2899   4.327   3.577   1.184 -0.8880 -0.2983 -1.6808
    1SOL    MW4 2900   4.249   3.597   1.218 -0.1316  0.1929 -0.2055
    1SOL     OW 2901   4.268   3.856   1.062  0.3202 -0.6709  0.3704
    1SOL    HW2 2902   4.187   3.896   1.095 -0.1846 -1.2167 -0.1969
    1SOL    HW3 2903   4.268   3.768   1.099  1.9492  0.1667  2.4545
    1SOL    MW4 2904   4.257   3.850   1.071  0.4692 -0.6325  0.5704
    1SOL     OW 2905   4.058   3.996   1.157 -0.3591 -0.0206 -0.0497
    1SOL    HW2 2906   4.062   4.086   1.124  1.0710 -0.3516 -0.8193
    1SOL    HW3 2907   3.974   3.962   1.123 -1.2830  1.2571  0.9190
    1SOL    MW4 2908   4.047   4.003   1.148 -0.2918  0.1040 -0.0235
    1SOL     OW 2909   4.048   4.263   1.093  0.1311 -0.0934 -0.0021
    1SOL    HW2 2910   3.963   4.283   1.134  0.1349 -2.1478  1.0877
    1SOL    HW3 2911   4.030   4.267   0.999 -1.3196 -1.0330  0.2145
    1SOL    MW4 2912   4.034   4.266   1.086 -0.0596 -0.4883  0.1702
    1SOL     OW 2913   4.254   4.396   1.223 -0.2274 -0.3286 -0.1204
    1SOL    HW2 2914   4.177   4.363   1.178 -0.9139 -0.4083  1.0878
    1SOL    HW3 2915   4.327   4.346   1.186 -0.8076 -0.6267 -0.8857
    1SOL    MW4 2916   4.254   4.385   1.212 -0.3948 -0.3781 -0.0620
    1SOL     OW 2917   0.237   4.654   1.554  0.1288 -0.2143 -0.5079
    1SOL    HW2 2918   0.311   4.707   1.523  0.4207 -1.2793 -1.7087
    1SOL    HW3 2919   0.159   4.699   1.520  0.2680  0.4756  0.0854
    1SOL    MW4 2920   0.236   4.667   1.545  0.1857 -0.2642 -0.5881
    1SOL     OW 2921   4.476   0.133   1.472 -0.6962  0.1666  0.0864
    1SOL    HW2 2922   4.399   0.095   1.515 -0.3406 -1.2764 -0.5322
    1SOL    HW3 2923   4.456   0.130   1.379 -0.1480  0.3667 -0.0411
    1SOL    MW4 2924   4.463   0.128   1.465 -0.5770  0.0026 -0.0120
    1SOL     OW 2925   0.001   0.380   1.588 -0.4837  0.5065 -0.4812
    1SOL    HW2 2926   0.009   0.368   1.683 -0.9663  0.5278 -0.4366
    1SOL    HW3 2927   0.008   0.291   1.553 -0.9335  0.4251 -0.3757
    1SOL    MW4 2928   0.003   0.366   1.596 -0.6067  0.4986 -0.4615
    1SOL     OW 2929   0.250   0.488   1.486  0.1885 -0.3343  0.3754
    1SOL    HW2 2930   0.159   0.477   1.513  0.0257  1.3858  0.6193
    1SOL    HW3 2931   0.249   0.472   1.391 -0.2791 -0.8036  0.4600
    1SOL    MW4 2932   0.238   0.485   1.477  0.1054 -0.1693  0.4188
    1SOL     OW 2933   0.226   0.750   1.605 -0.1376 -0.1525  0.3339
    1SOL    HW2 2934   0.240   0.671   1.552 -1.8427  1.1663 -2.2036
    1SOL    HW3 2935   0.295   0.810   1.577 -0.8012  0.4032 -0.1361
    1SOL    MW4 2936   0.237   0.747   1.594 -0.4501  0.0948 -0.0628
    1SOL     OW 2937   4.474   0.893   1.485 -0.0573 -0.4525 -0.0200
    1SOL    HW2 2938   4.478   0.984   1.513 -0.3874 -0.8755  1.4400
    1SOL    HW3 2939   4.558   0.856   1.513 -1.0496 -1.2921  1.9498
    1SOL    MW4 2940   4.485   0.900   1.493 -0.2317 -0.6191  0.4326
    1SOL     OW 2941   4.491   1.152   1.563  0.2237  0.2452  0.0731
    1SOL    HW2 2942   4.486   1.150   1.658  0.4782  0.2598  0.0852
    1SOL    HW3 2943   4.562   1.213   1.543  0.1037  0.3217 -0.1274
    1SOL    MW4 2944   4.500   1.160   1.573  0.2414  0.2571  0.0483
    1SOL     OW 2945   0.228   1.332   1.525  0.1512 -0.6371 -0.3739
    1SOL    HW2 2946   0.311   1.295   1.554 -0.1317 -0.1558  1.0525
    1SOL    HW3 2947   0.228   1.422   1.558 -1.4457 -0.9962  0.6464
    1SOL    MW4 2948   0.239   1.339   1.533 -0.0968 -0.6210 -0.0513
    1SOL     OW 2949   0.208   1.603   1.618  0.5145 -0.0976  0.1370
    1SOL    HW2 2950   0.220   1.583   1.711  0.2669  1.1729  0.4609
    1SOL    HW3 2951   0.120   1.639   1.612  1.4162  2.2155 -0.1297
    1SOL    MW4 2952   0.198   1.605   1.629  0.6008  0.3753  0.1445
    1SOL     OW 2953   4.430   1.729   1.520 -0.0466  0.0083 -0.5758
    1SOL    HW2 2954   4.450   1.821   1.534  0.7819 -0.3139  0.3811
    1SOL    HW3 2955   4.450   1.714   1.428  0.7036  0.5601 -0.5082
    1SOL    MW4 2956   4.435   1.739   1.510  0.1621  0.0384 -0.4406
    1SOL     OW 2957   0.010   1.979   1.591  0.2093  0.2975 -0.2117
    1SOL    HW2 2958  -0.006   1.972   1.685  0.2012  0.3427 -0.2100
    1SOL    HW3 2959  -0.066   2.026   1.557  0.5891  0.9756 -0.1315
    1SOL    MW4 2960  -0.002   1.984   1.599  0.2584  0.3929 -0.2007
    1SOL     OW 2961   0.264   2.073   1.496  0.1462 -0.1496  0.8398
    1SOL    HW2 2962   0.192   2.043   1.552 -0.0620  0.4666  0.9178
    1SOL    HW3 2963   0.228   2.072   1.408 -0.3788  1.3407  1.0149
    1SOL    MW4 2964   0.249   2.069   1.492  0.0495  0.1285  0.8732
    1SOL     OW 2965   0.240   2.327   1.604 -0.3563 -0.0172 -0.2701
    1SOL    HW2 2966   0.231   2.323   1.699  0.6217  0.3355 -0.1545
    1SOL    HW3 2967   0.252   2.235   1.577 -0.7830 -0.1316 -0.0720
    1SOL    MW4 2968   0.240   2.314   1.613 -0.2836  0.0141 -0.2286
    1SOL     OW 2969   0.008   2.436   1.474 -0.2577 -0.4048  0.8960
    1SOL    HW2 2970  -0.066   2.400   1.523 -0.2775  0.3963  1.4601
    1SOL    HW3 2971   0.083   2.385   1.503 -0.4609 -0.7118  0.8854
    1SOL    MW4 2972   0.008   2.424   1.484 -0.2871 -0.3395  0.9691
    1SOL     OW 2973   4.490   2.690   1.612 -0.3996  0.7507 -0.2078
    1SOL    HW2 2974   4.429   2.744   1.562 -0.3315  1.1487  0.1376
    1SOL    HW3 2975   4.484   2.603   1.572 -2.7047  0.2738  1.0896
    1SOL    MW4 2976   4.481   2.686   1.600 -0.6948  0.7403  0.0089
    1SOL     OW 2977   0.201   2.837   1.494 -0.4812 -0.0300  0.4036
    1SOL    HW2 2978   0.277   2.812   1.547 -1.0514  0.7885  1.6284
    1SOL    HW3 2979   0.129   2.785   1.530 -0.7244 -0.0306 -0.0778
    1SOL    MW4 2980   0.202   2.827   1.506 -0.5885  0.0777  0.5015
    1SOL     OW 2981   0.220   3.115   1.569  0.4656  0.3112  0.1958
    1SOL    HW2 2982   0.143   3.155   1.530  1.4290  0.7792 -1.2564
    1SOL    HW3 2983   0.221   3.025   1.536  0.6269  0.3491  0.0975
    1SOL    MW4 2984   0.210   3.108   1.560  0.6140  0.3781 -0.0088
    1SOL     OW 2985   4.480   3.250   1.481  0.0580  0.3174  0.6372
    1SOL    HW2 2986   4.467   3.340   1.511 -0.1120  0.3669  0.4132
    1SOL    HW3 2987   4.468   3.255   1.386 -0.4609 -0.0333  0.6817
    1SOL    MW4 2988   4.477   3.263   1.473 -0.0329  0.2775  0.6133
    1SOL     OW 2989   4.485   3.509   1.576  0.4055 -0.0949  0.1815
    1SOL    HW2 2990   4.482   3.490   1.670 -1.9632 -1.3434 -0.1086
    1SOL    HW3 2991   4.405   3.559   1.559  1.5375  1.4070 -0.9509
    1SOL    MW4 2992   4.474   3.513   1.586  0.2422 -0.0613 -0.0062
    1SOL     OW 2993   0.236   3.633   1.477 -0.0329 -0.1227  0.0880
    1SOL    HW2 2994   0.241   3.722   1.511 -0.9671  0.2906 -0.8328
    1SOL    HW3 2995   0.155   3.598   1.513  0.1033 -0.4485  0.0811
    1SOL    MW4 2996   0.226   3.640   1.487 -0.1382 -0.1113 -0.0345
    1SOL     OW 2997   0.198   3.889   1.579 -0.4268 -0.1014  0.1312
    1SOL    HW2 2998   0.201   3.895   1.674 -0.2326 -1.7163  0.2306
    1SOL    HW3 2999   0.273   3.941   1.549 -0.7402  0.7699  0.8223
    1SOL    MW4 3000   0.208   3.897   1.588 -0.4425 -0.1998  0.2356
    1SOL     OW 3001   4.485   4.000   1.468  0.4014  0.0760  0.2042
    1SOL    HW2 3002   4.482   4.085   1.511  2.0709  0.3946 -0.2851
    1SOL    HW3 3003   4.556   3.953   1.512 -1.2482 -1.5413  1.2758
    1SOL    MW4 3004   4.494   4.005   1.480  0.4039 -0.0949  0.2810
    1SOL     OW 3005   4.477   4.248   1.628 -0.2944  0.0586  0.2189
    1SOL    HW2 3006   4.473   4.260   1.722 -1.9147 -1.1498  0.3294
    1SOL    HW3 3007   4.403   4.299   1.594 -0.2331 -0.1936 -0.3047
    1SOL    MW4 3008   4.466   4.256   1.636 -0.5002 -0.1340  0.1644
    1SOL     OW 3009   0.213   4.392   1.503 -0.4367  0.3198 -0.2076
    1SOL    HW2 3010   0.132   4.358   1.542 -1.0052  2.1383  0.2332
    1SOL    HW3 3011   0.216   4.484   1.529  2.5189 -0.0593  0.9940
    1SOL    MW4 3012   0.202   4.399   1.511 -0.1217  0.5093  0.0091
    1SOL     OW 3013   0.664   4.618   1.591  0.1313  0.3185  0.5683
    1SOL    HW2 3014   0.748   4.654   1.560  1.0743 -0.9273  1.6457
    1SOL    HW3 3015   0.599   4.680   1.559  1.4816  1.4300 -0.0934
    1SOL    MW4 3016   0.666   4.631   1.583  0.4339  0.3004  0.6232
    1SOL     OW 3017   0.456   0.119   1.468  0.9062 -0.0070 -0.2181
    1SOL    HW2 3018   0.471   0.208   1.500 -1.6669 -0.0840  1.3809
    1SOL    HW3 3019   0.450   0.127   1.373 -0.0801  1.6496 -0.0170
    1SOL    MW4 3020   0.457   0.131   1.460  0.4366  0.2014  0.0194
    1SOL     OW 3021   0.469   0.359   1.598  0.2691  0.7455 -0.0836
    1SOL    HW2 3022   0.534   0.423   1.570  0.6607 -0.5114 -2.1959
    1SOL    HW3 3023   0.386   0.394   1.566  0.2744  0.9996  0.1839
    1SOL    MW4 3024   0.467   0.372   1.590  0.3215  0.6132 -0.3271
    1SOL     OW 3025   0.688   0.492   1.505  0.2199 -0.2812 -0.3695
    1SOL    HW2 3026   0.689   0.585   1.528  0.0084 -0.4037  0.1604
    1SOL    HW3 3027   0.683   0.490   1.410  0.0377  0.2562 -0.3718
    1SOL    MW4 3028   0.687   0.504   1.496  0.1680 -0.2264 -0.2999
    1SOL     OW 3029   0.669   0.748   1.572  0.5700 -0.4997 -0.0857
    1SOL    HW2 3030   0.671   0.746   1.667  1.3871  0.7443 -0.0581
    1SOL    HW3 3031   0.738   0.810   1.548 -1.2160  1.0605 -1.3854
    1SOL    MW4 3032   0.679   0.756   1.581  0.4421 -0.1297 -0.2534
    1SOL     OW 3033   0.443   0.924   1.509  0.3523  0.2375 -0.0301
    1SOL    HW2 3034   0.442   1.006   1.559 -1.6314  0.7788 -0.9127
    1SOL    HW3 3035   0.529   0.885   1.528  1.2792  2.4686  0.4614
    1SOL    MW4 3036   0.454   0.929   1.518  0.2129  0.6033 -0.0815
    1SOL     OW 3037   0.439   1.192   1.626 -0.3731  0.1971  0.1408
    1SOL    HW2 3038   0.525   1.225   1.598 -0.1187  0.7690  1.5558
    1SOL    HW3 3039   0.447   1.181   1.721 -0.9873 -2.3917 -0.0601
    1SOL    MW4 3040   0.452   1.195   1.635 -0.4205 -0.0690  0.3010
    1SOL     OW 3041   0.678   1.309   1.505 -0.4384 -0.5241  0.0793
    1SOL    HW2 3042   0.655   1.401   1.520  1.7439  0.1028 -0.2469
    1SOL    HW3 3043   0.678   1.299   1.410 -0.4378 -0.8095  0.1082
    1SOL    MW4 3044   0.675   1.320   1.495 -0.1503 -0.4789  0.0401
    1SOL     OW 3045   0.633   1.559   1.600  0.3651  0.5207  0.1347
    1SOL    HW2 3046   0.717   1.603   1.593 -0.8561  2.5198 -2.4445
    1SOL    HW3 3047   0.573   1.613   1.550 -2.6649 -0.4370  2.5760
    1SOL    MW4 3048   0.636   1.572   1.593 -0.1957  0.6582  0.1165
    1SOL     OW 3049   0.421   1.716   1.494 -0.2975  0.0896 -0.1104
    1SOL    HW2 3050   0.433   1.799   1.540  0.2340 -0.0301 -0.0252
    1SOL    HW3 3051   0.343   1.677   1.533 -0.7778  0.7349 -0.4232
    1SOL    MW4 3052   0.412   1.722   1.505 -0.2908  0.1589 -0.1403
    1SOL     OW 3053   0.481   1.961   1.618 -0.0961 -0.2056  0.2120
    1SOL    HW2 3054   0.469   1.950   1.713 -0.1684  0.2953  0.2647
    1SOL    HW3 3055   0.405   2.011   1.590  0.6424  0.9104  0.1404
    1SOL    MW4 3056   0.469   1.966   1.627 -0.0082  0.0079  0.2097
    1SOL     OW 3057   0.712   2.067   1.533  0.3741  0.3645  0.1958
    1SOL    HW2 3058   0.789   2.019   1.564  0.7833  1.0652  0.2772
    1SOL    HW3 3059   0.638   2.022   1.574  0.7041 -0.5655 -0.2095
    1SOL    MW4 3060   0.713   2.054   1.543  0.4717  0.3340  0.1532
    1SOL     OW 3061   0.721   2.324   1.624 -0.1367  0.0210 -0.6327
    1SOL    HW2 3062   0.634   2.352   1.594 -0.5191 -0.5196 -0.0197
    1SOL    HW3 3063   0.719   2.229   1.619  0.5179  0.0165 -0.8724
    1SOL    MW4 3064   0.709   2.315   1.619 -0.1008 -0.0508 -0.5834
    1SOL     OW 3065   0.465   2.450   1.537  0.0486 -0.4797 -0.1521
    1SOL    HW2 3066   0.461   2.538   1.575 -0.0773 -0.4440 -0.2501
    1SOL    HW3 3067   0.382   2.409   1.562 -0.1987 -0.3216 -0.7263
    1SOL    MW4 3068   0.453   2.456   1.545 -0.0007 -0.4544 -0.2408
    1SOL     OW 3069   0.439   2.719   1.614 -0.8643  0.3601  0.2213
    1SOL    HW2 3070   0.437   2.729   1.710  0.4659 -0.4329  0.3437
    1SOL    HW3 3071   0.510   2.776   1.585 -1.9280  1.3713 -0.4016
    1SOL    MW4 3072   0.448   2.728   1.623 -0.8291  0.3891  0.1554
    1SOL     OW 3073   0.672   2.856   1.524  0.0511  0.0116 -0.6937
    1SOL    HW2 3074   0.677   2.947   1.552  0.0986 -0.4674  0.9477
    1SOL    HW3 3075   0.752   2.816   1.559 -1.1704 -1.2079  0.7715
    1SOL    MW4 3076   0.683   2.863   1.533 -0.1038 -0.2124 -0.2837
    1SOL     OW 3077   0.694   3.102   1.618  0.7606  0.1684 -0.0085
    1SOL    HW2 3078   0.771   3.139   1.576  0.2672 -0.8222 -1.8305
    1SOL    HW3 3079   0.621   3.154   1.584  0.4501 -0.0770  0.2820
    1SOL    MW4 3080   0.694   3.114   1.608  0.6546  0.0055 -0.2108
    1SOL     OW 3081   0.477   3.224   1.508 -0.4969 -0.2283  0.2645
    1SOL    HW2 3082   0.390   3.200   1.540 -1.0803  0.2637 -0.9180
    1SOL    HW3 3083   0.478   3.197   1.417  0.2717  0.5810  0.0173
    1SOL    MW4 3084   0.466   3.217   1.500 -0.4724 -0.0565  0.0758
    1SOL     OW 3085   0.437   3.488   1.620  0.1276 -0.2554  0.2360
    1SOL    HW2 3086   0.466   3.408   1.578  1.7869 -0.1919  1.1945
    1SOL    HW3 3087   0.367   3.522   1.564  0.6999 -1.3850 -1.1701
    1SOL    MW4 3088   0.432   3.482   1.607  0.4220 -0.3963  0.1769
    1SOL     OW 3089   0.635   3.649   1.508  0.2586 -0.0465  0.0946
    1SOL    HW2 3090   0.708   3.604   1.551 -0.1510 -0.5824  0.2383
    1SOL    HW3 3091   0.558   3.596   1.530 -0.5494  1.8253  1.9547
    1SOL    MW4 3092   0.635   3.636   1.517  0.0979  0.1297  0.3591
    1SOL     OW 3093   0.663   3.899   1.612  0.0152 -0.5207  0.4880
    1SOL    HW2 3094   0.746   3.928   1.575 -1.5476  0.3274 -2.4724
    1SOL    HW3 3095   0.649   3.812   1.574 -0.6589 -0.4808  0.6365
    1SOL    MW4 3096   0.672   3.891   1.603 -0.2799 -0.4039  0.1171
    1SOL     OW 3097   0.434   4.028   1.513 -0.2916  0.3825 -0.1615
    1SOL    HW2 3098   0.509   3.990   1.559  0.0591  0.2119 -0.8658
    1SOL    HW3 3099   0.453   4.014   1.420 -0.7617  1.1642 -0.3825
    1SOL    MW4 3100   0.446   4.021   1.507 -0.3074  0.4630 -0.2836
    1SOL     OW 3101   0.429   4.272   1.636  0.5517  0.3670  0.0762
    1SOL    HW2 3102   0.440   4.188   1.592  0.7883 -0.4628  1.7141
    1SOL    HW3 3103   0.354   4.312   1.591 -0.0943 -1.0703 -0.1586
    1SOL    MW4 3104   0.420   4.266   1.624  0.4977  0.0677  0.2614
    1SOL     OW 3105   0.640   4.367   1.507 -0.2867  0.2059 -0.2644
    1SOL    HW2 3106   0.564   4.331   1.555  0.3346  0.1372  0.6869
    1SOL    HW3 3107   0.650   4.456   1.542 -0.5435  0.5728 -1.1193
    1SOL    MW4 3108   0.631   4.374   1.518 -0.2387  0.2456 -0.2515
    1SOL     OW 3109   1.126   4.637   1.609 -0.2616 -0.8470 -0.0041
    1SOL    HW2 3110   1.119   4.636   1.705 -1.7326  1.1477 -0.0725
    1SOL    HW3 3111   1.214   4.671   1.592 -1.0408  1.5423  0.6302
    1SOL    MW4 3112   1.137   4.641   1.619 -0.5584 -0.2685  0.0705
    1SOL     OW 3113   0.902   0.087   1.511  0.3240  0.1442 -0.3356
    1SOL    HW2 3114   0.901   0.177   1.544  1.6669  0.0804 -0.0768
    1SOL    HW3 3115   0.980   0.048   1.551 -2.4502 -2.4410  2.9004
    1SOL    MW4 3116   0.913   0.094   1.521  0.1352 -0.2053  0.1254
    1SOL     OW 3117   0.894   0.352   1.592  0.2765  0.0906  0.2839
    1SOL    HW2 3118   0.903   0.362   1.686 -0.0757 -0.4632  0.3803
    1SOL    HW3 3119   0.814   0.399   1.570  0.9250  1.1298  0.0973
    1SOL    MW4 3120   0.885   0.359   1.601  0.3156  0.1546  0.2719
    1SOL     OW 3121   1.095   0.484   1.469 -0.2224  0.2717 -0.3307
    1SOL    HW2 3122   1.093   0.575   1.500  0.0538  0.6962 -1.5036
    1SOL    HW3 3123   1.019   0.443   1.509 -0.4849  1.0898  0.0277
    1SOL    MW4 3124   1.085   0.491   1.478 -0.2205  0.4356 -0.4382
    1SOL     OW 3125   1.078   0.739   1.563 -0.2316 -0.3312  0.5460
    1SOL    HW2 3126   1.056   0.712   1.652 -2.7934  0.3397  0.1428
    1SOL    HW3 3127   1.166   0.776   1.571 -0.5100 -0.0880  2.8361
    1SOL    MW4 3128   1.087   0.741   1.576 -0.6064 -0.2106  0.7950
    1SOL     OW 3129   0.872   0.921   1.528  0.0941  0.1802 -0.1620
    1SOL    HW2 3130   0.941   0.858   1.549  0.2434  0.0713 -0.9841
    1SOL    HW3 3131   0.874   0.929   1.433 -1.9195 -0.8205 -0.3093
    1SOL    MW4 3132   0.881   0.914   1.518 -0.1519  0.0338 -0.2900
    1SOL     OW 3133   0.925   1.188   1.597  0.2679  0.6562 -0.4299
    1SOL    HW2 3134   0.912   1.095   1.579 -0.2347  0.6312  0.0192
    1SOL    HW3 3135   0.844   1.230   1.565  0.7385  1.0129 -1.1638
    1SOL    MW4 3136   0.912   1.181   1.591  0.2637  0.6999 -0.4675
    1SOL     OW 3137   1.144   1.288   1.492  0.2396 -0.4816 -0.5398
    1SOL    HW2 3138   1.218   1.245   1.534  0.5623 -1.1249 -1.7595
    1SOL    HW3 3139   1.068   1.235   1.518  0.4465 -0.9080 -0.7863
    1SOL    MW4 3140   1.143   1.275   1.501  0.3095 -0.6227 -0.7333
    1SOL     OW 3141   1.141   1.524   1.639 -0.1514 -0.3603  0.1320
    1SOL    HW2 3142   1.195   1.579   1.582 -0.8792 -0.3414 -0.5646
    1SOL    HW3 3143   1.139   1.439   1.595  0.3251 -0.7215  0.7995
    1SOL    MW4 3144   1.148   1.520   1.626 -0.1845 -0.4054  0.1281
    1SOL     OW 3145   0.904   1.657   1.556  0.0603  0.1505 -0.3532
    1SOL    HW2 3146   0.980   1.602   1.574 -0.7490 -1.1781 -0.8493
    1SOL    HW3 3147   0.913   1.681   1.464  0.3634  0.7840 -0.1618
    1SOL    MW4 3148   0.915   1.653   1.546 -0.0065  0.0588 -0.3934
    1SOL     OW 3149   0.919   1.917   1.658 -0.2758 -0.4382  0.0072
    1SOL    HW2 3150   0.996   1.941   1.607  0.1126 -0.3400  0.6313
    1SOL    HW3 3151   0.906   1.824   1.639  1.2400 -0.9665  1.5043
    1SOL    MW4 3152   0.927   1.908   1.649 -0.0246 -0.4948  0.2871
    1SOL     OW 3153   1.111   2.046   1.507 -0.3454 -0.0770  0.7150
    1SOL    HW2 3154   1.197   2.011   1.530 -0.3126 -0.8123 -0.4435
    1SOL    HW3 3155   1.108   2.132   1.547 -0.0346 -1.0196  2.8255
    1SOL    MW4 3156   1.122   2.052   1.515 -0.3002 -0.2985  0.8405
    1SOL     OW 3157   1.104   2.318   1.601  0.3040 -0.2782  0.7655
    1SOL    HW2 3158   1.177   2.359   1.555  0.5363 -1.2914  0.2266
    1SOL    HW3 3159   1.028   2.371   1.576  0.4112 -0.8718 -0.8687
    1SOL    MW4 3160   1.103   2.331   1.592  0.3487 -0.4902  0.4787
    1SOL     OW 3161   0.908   2.484   1.524  0.1240  0.0877 -0.4598
    1SOL    HW2 3162   0.891   2.479   1.430  0.4632 -0.2234 -0.5055
    1SOL    HW3 3163   0.842   2.427   1.564 -0.4356  0.7334 -0.4596
    1SOL    MW4 3164   0.897   2.476   1.517  0.0949  0.1316 -0.4659
    1SOL     OW 3165   0.921   2.738   1.635  0.5410  0.5310  0.7028
    1SOL    HW2 3166   0.921   2.727   1.730  1.7000  0.2030  0.6708
    1SOL    HW3 3167   0.921   2.649   1.600 -0.1861  0.6502  0.3946
    1SOL    MW4 3168   0.921   2.725   1.643  0.5980  0.5033  0.6578
    1SOL     OW 3169   1.113   2.877   1.496 -0.0136  0.5532  0.1342
    1SOL    HW2 3170   1.118   2.956   1.549  1.1840  0.1777  0.5860
    1SOL    HW3 3171   1.042   2.826   1.535 -1.0361  1.5461 -0.3771
    1SOL    MW4 3172   1.104   2.880   1.508  0.0094  0.6347  0.1264
    1SOL     OW 3173   1.123   3.111   1.631  0.4453 -0.2649  0.0530
    1SOL    HW2 3174   1.121   3.125   1.726  0.3255 -0.8639  0.1408
    1SOL    HW3 3175   1.201   3.158   1.602 -0.3493  1.1886  0.2302
    1SOL    MW4 3176   1.133   3.119   1.640  0.3246 -0.1523  0.0880
    1SOL     OW 3177   0.916   3.243   1.513 -0.2755 -0.3575  0.7510
    1SOL    HW2 3178   0.985   3.189   1.550  1.6012  2.2944  1.3005
    1SOL    HW3 3179   0.937   3.249   1.420 -0.3026 -0.3449  0.7458
    1SOL    MW4 3180   0.928   3.237   1.506 -0.0315 -0.0060  0.8228
    1SOL     OW 3181   0.856   3.522   1.642 -0.3157  0.1858 -0.2770
    1SOL    HW2 3182   0.937   3.559   1.608 -1.3975  1.0029 -2.0393
    1SOL    HW3 3183   0.856   3.432   1.609  1.1320 -0.6872  1.9703
    1SOL    MW4 3184   0.867   3.515   1.633 -0.2674  0.1783 -0.2129
    1SOL     OW 3185   1.091   3.640   1.472 -0.9669 -0.1268 -0.1722
    1SOL    HW2 3186   1.170   3.599   1.507 -1.2212 -0.4341  0.0383
    1SOL    HW3 3187   1.112   3.658   1.380 -0.5347  0.0905 -0.0328
    1SOL    MW4 3188   1.104   3.637   1.464 -0.9435 -0.1388 -0.1261
    1SOL     OW 3189   1.127   3.868   1.628 -0.0486  0.0816  0.2868
    1SOL    HW2 3190   1.204   3.907   1.587  1.0056 -0.7918  1.4061
    1SOL    HW3 3191   1.111   3.787   1.579  0.2543 -0.1579  0.5806
    1SOL    MW4 3192   1.135   3.862   1.616  0.1307 -0.0651  0.4733
    1SOL     OW 3193   0.914   3.984   1.517  0.0133  0.0573  0.0158
    1SOL    HW2 3194   0.904   4.074   1.549  0.5253  0.4349 -0.8701
    1SOL    HW3 3195   0.999   3.956   1.552 -0.8091 -0.6277  1.5465
    1SOL    MW4 3196   0.924   3.992   1.526 -0.0276  0.0167  0.1007
    1SOL     OW 3197   0.883   4.266   1.612 -0.0749 -0.2999  0.1518
    1SOL    HW2 3198   0.881   4.291   1.705 -0.9080  1.0325 -0.2117
    1SOL    HW3 3199   0.806   4.309   1.575  0.5087 -0.4709 -1.2555
    1SOL    MW4 3200   0.873   4.275   1.620 -0.1078 -0.1469 -0.0819
    1SOL     OW 3201   1.117   4.372   1.525 -0.4855 -0.0692  0.1151
    1SOL    HW2 3202   1.045   4.334   1.576  1.2387 -1.8172  1.2936
    1SOL    HW3 3203   1.107   4.467   1.536 -3.4237 -0.2049 -0.8984
    1SOL    MW4 3204   1.106   4.380   1.533 -0.6456 -0.3181  0.1370
    1SOL     OW 3205   1.521   4.598   1.592 -0.6349  0.1422  0.1887
    1SOL    HW2 3206   1.523   4.611   1.687  0.4866  0.0117  0.1867
    1SOL    HW3 3207   1.455   4.660   1.560 -2.5950 -1.3108  1.2919
    1SOL    MW4 3208   1.513   4.608   1.600 -0.7454 -0.0668  0.3340
    1SOL     OW 3209   1.344   0.118   1.517 -0.0539 -0.3747 -0.1624
    1SOL    HW2 3210   1.343   0.201   1.564  0.8681 -0.3355 -0.2069
    1SOL    HW3 3211   1.321   0.141   1.427  0.4208 -0.1349 -0.2239
    1SOL    MW4 3212   1.341   0.132   1.512  0.1304 -0.3379 -0.1762
    1SOL     OW 3213   1.320   0.369   1.606  0.0599 -0.0120  0.3697
    1SOL    HW2 3214   1.396   0.415   1.570  0.0983  1.5770  2.3610
    1SOL    HW3 3215   1.245   0.406   1.560  0.1463  1.6716  1.5101
    1SOL    MW4 3216   1.320   0.380   1.595  0.0763  0.4198  0.7828
    1SOL     OW 3217   1.526   0.500   1.491  0.4344  0.2922 -0.2299
    1SOL    HW2 3218   1.594   0.441   1.524  1.3415  1.2664 -0.3155
    1SOL    HW3 3219   1.532   0.493   1.396  0.3901  0.3354 -0.2357
    1SOL    MW4 3220   1.536   0.492   1.483  0.5481  0.4265 -0.2420
    1SOL     OW 3221   1.579   0.772   1.627  0.1165  0.7243  0.3378
    1SOL    HW2 3222   1.568   0.766   1.722 -0.1535  1.1959  0.3353
    1SOL    HW3 3223   1.574   0.681   1.597 -0.5466  0.6457  0.6909
    1SOL    MW4 3224   1.577   0.759   1.636 -0.0066  0.7762  0.3842
    1SOL     OW 3225   1.329   0.884   1.576  0.0752  0.0583 -0.2078
    1SOL    HW2 3226   1.411   0.845   1.607  1.0804  0.9675 -1.6264
    1SOL    HW3 3227   1.342   0.895   1.481 -2.1204 -0.7994 -0.6384
    1SOL    MW4 3228   1.342   0.881   1.567 -0.0819  0.0651 -0.4517
    1SOL     OW 3229   1.340   1.153   1.627 -0.0456  0.1450  0.0923
    1SOL    HW2 3230   1.326   1.173   1.719 -2.2168  1.9420 -0.5919
    1SOL    HW3 3231   1.319   1.060   1.619  0.0729  0.0051  1.3745
    1SOL    MW4 3232   1.335   1.143   1.638 -0.3165  0.3637  0.1713
    1SOL     OW 3233   1.545   1.247   1.480  0.0999  0.5114  1.0237
    1SOL    HW2 3234   1.475   1.207   1.532  0.1840  1.9939  2.3230
    1SOL    HW3 3235   1.623   1.197   1.502 -0.3243 -0.4470  0.4073
    1SOL    MW4 3236   1.546   1.236   1.489  0.0552  0.5807  1.1138
    1SOL     OW 3237   1.567   1.512   1.561 -0.2622 -0.2071 -0.1858
    1SOL    HW2 3238   1.556   1.507   1.656  0.2222  1.1584 -0.0370
    1SOL    HW3 3239   1.560   1.422   1.530 -1.6303 -0.5207  1.0153
    1SOL    MW4 3240   1.565   1.500   1.569 -0.3790 -0.0683 -0.0077
    1SOL     OW 3241   1.342   1.663   1.511  0.2610  0.0358 -0.3049
    1SOL    HW2 3242   1.417   1.614   1.544  1.5147  1.8971 -0.3215
    1SOL    HW3 3243   1.360   1.677   1.418 -0.9934 -1.0677 -0.7400
    1SOL    MW4 3244   1.354   1.658   1.503  0.2608  0.1358 -0.3645
    1SOL     OW 3245   1.348   1.944   1.576 -0.1414  0.1181 -0.4411
    1SOL    HW2 3246   1.321   1.947   1.668 -1.4971 -0.6925 -0.8065
    1SOL    HW3 3247   1.346   1.851   1.553  1.5444  0.1712 -0.9121
    1SOL    MW4 3248   1.344   1.932   1.585 -0.0979  0.0181 -0.5515
    1SOL     OW 3249   1.586   2.058   1.516 -0.0695  0.7238  0.2534
    1SOL    HW2 3250   1.504   2.017   1.544  0.3899 -0.8434 -0.6207
    1SOL    HW3 3251   1.574   2.075   1.423  0.5604  0.5687  0.1381
    1SOL    MW4 3252   1.574   2.055   1.507  0.0741  0.4966  0.1230
    1SOL     OW 3253   1.543   2.305   1.622  0.3856  0.1183  0.3930
    1SOL    HW2 3254   1.623   2.340   1.583 -0.5662  1.2884 -0.5364
    1SOL    HW3 3255   1.539   2.215   1.591 -0.3135  0.9980 -2.2036
    1SOL    MW4 3256   1.553   2.298   1.613  0.1680  0.3889 -0.0721
    1SOL     OW 3257   1.348   2.450   1.479  0.3307  0.3740  0.2652
    1SOL    HW2 3258   1.343   2.538   1.518  0.7389  0.5285 -0.0222
    1SOL    HW3 3259   1.420   2.408   1.525  0.3463  0.3077  0.1800
    1SOL    MW4 3260   1.357   2.456   1.490  0.3866  0.3858  0.2160
    1SOL     OW 3261   1.325   2.708   1.586 -0.3850 -0.2675 -0.0703
    1SOL    HW2 3262   1.401   2.754   1.550  0.0448 -0.5436  0.4816
    1SOL    HW3 3263   1.252   2.768   1.570  0.0419  0.2633 -0.0609
    1SOL    MW4 3264   1.326   2.722   1.579 -0.2718 -0.2339  0.0038
    1SOL     OW 3265   1.553   2.839   1.497  0.3252 -0.0341 -0.1112
    1SOL    HW2 3266   1.628   2.795   1.538  0.0114 -0.9034 -0.4541
    1SOL    HW3 3267   1.577   2.846   1.404  0.5537  0.9079  0.0143
    1SOL    MW4 3268   1.566   2.834   1.490  0.3139 -0.0243 -0.1398
    1SOL     OW 3269   1.591   3.110   1.609  0.2981 -0.4734 -0.4876
    1SOL    HW2 3270   1.669   3.140   1.563 -0.6817  0.3784 -1.6127
    1SOL    HW3 3271   1.581   3.019   1.582 -0.2157 -0.0073 -1.8943
    1SOL    MW4 3272   1.600   3.102   1.599  0.1010 -0.2992 -0.8217
    1SOL     OW 3273   1.350   3.227   1.519 -0.0235 -0.3707  0.2324
    1SOL    HW2 3274   1.351   3.320   1.542  1.1751 -0.0182 -1.1881
    1SOL    HW3 3275   1.424   3.190   1.566 -0.8419 -0.7361  1.2552
    1SOL    MW4 3276   1.360   3.234   1.528  0.0265 -0.3724  0.1799
    1SOL     OW 3277   1.320   3.521   1.568  0.6823 -0.5615  0.5426
    1SOL    HW2 3278   1.326   3.516   1.663  0.5689 -1.1297  0.5211
    1SOL    HW3 3279   1.411   3.524   1.538  0.7055  0.5791  0.7158
    1SOL    MW4 3280   1.333   3.521   1.576  0.6703 -0.4859  0.5627
    1SOL     OW 3281   1.581   3.572   1.524 -0.2309 -0.1899 -0.5656
    1SOL    HW2 3282   1.600   3.659   1.558  0.6384  0.3228 -2.3016
    1SOL    HW3 3283   1.571   3.585   1.430 -2.7464 -1.5382 -0.5199
    1SOL    MW4 3284   1.582   3.585   1.516 -0.4482 -0.3002 -0.7886
    1SOL     OW 3285   1.563   3.845   1.647 -0.1504 -0.2416  0.1024
    1SOL    HW2 3286   1.552   3.849   1.742  0.1811 -0.0122  0.1335
    1SOL    HW3 3287   1.479   3.874   1.612 -0.2632 -0.2931  0.3256
    1SOL    MW4 3288   1.550   3.849   1.655 -0.1216 -0.2184  0.1359
    1SOL     OW 3289   1.348   3.974   1.518  0.1650  0.0931  0.3931
    1SOL    HW2 3290   1.340   4.062   1.554 -1.4759  0.0503  0.1962
    1SOL    HW3 3291   1.348   3.987   1.423 -1.5982 -0.2084  0.3387
    1SOL    MW4 3292   1.347   3.987   1.511 -0.2841  0.0479  0.3599
    1SOL     OW 3293   1.348   4.233   1.589  0.1478  0.2462  0.3161
    1SOL    HW2 3294   1.416   4.276   1.537 -0.6034 -0.0265 -0.9035
    1SOL    HW3 3295   1.266   4.275   1.562 -0.4946 -1.3223 -0.2678
    1SOL    MW4 3296   1.346   4.244   1.579 -0.0361  0.0038  0.0781
    1SOL     OW 3297   1.567   4.346   1.463 -0.2586 -0.1090 -0.2811
    1SOL    HW2 3298   1.646   4.306   1.499 -0.5455 -1.3866 -1.0422
    1SOL    HW3 3299   1.563   4.432   1.504  1.6759  0.0684 -0.4298
    1SOL    MW4 3300   1.577   4.352   1.473 -0.0411 -0.2546 -0.4013
    1SOL     OW 3301   2.009   4.607   1.577  0.0342  0.2770  0.6103
    1SOL    HW2 3302   2.012   4.595   1.672 -1.8140  1.1051  0.7976
    1SOL    HW3 3303   1.929   4.658   1.562  0.7730  0.9024 -1.3142
    1SOL    MW4 3304   1.999   4.612   1.588 -0.1123  0.4687  0.3811
    1SOL     OW 3305   1.768   0.095   1.537 -0.0050 -0.5238 -0.1566
    1SOL    HW2 3306   1.693   0.038   1.550  0.0220 -0.0626  2.3018
    1SOL    HW3 3307   1.774   0.107   1.442 -3.0317 -0.5322 -0.3822
    1SOL    MW4 3308   1.759   0.089   1.526 -0.4008 -0.4641  0.1379
    1SOL     OW 3309   1.746   0.368   1.595 -0.5963  0.2700  0.1005
    1SOL    HW2 3310   1.830   0.402   1.566  0.5626  0.5186  3.4653
    1SOL    HW3 3311   1.752   0.273   1.583 -0.2331  0.3827 -0.6038
    1SOL    MW4 3312   1.758   0.360   1.590 -0.3953  0.3177  0.4516
    1SOL     OW 3313   1.976   0.477   1.500  0.7237 -0.1819 -0.6799
    1SOL    HW2 3314   2.054   0.437   1.537  1.7330  0.5739 -1.9473
    1SOL    HW3 3315   1.969   0.562   1.544  0.2837 -0.4983 -0.1417
    1SOL    MW4 3316   1.985   0.483   1.510  0.7987 -0.1239 -0.7762
    1SOL     OW 3317   2.003   0.726   1.626 -0.0100  0.2455  0.1792
    1SOL    HW2 3318   1.993   0.753   1.717  0.4828  1.1496 -0.0288
    1SOL    HW3 3319   1.954   0.791   1.576  0.0902  0.0043 -0.2354
    1SOL    MW4 3320   1.995   0.738   1.632  0.0683  0.3329  0.0970
    1SOL     OW 3321   1.803   0.876   1.485 -0.0474  0.5947 -0.2448
    1SOL    HW2 3322   1.806   0.970   1.505 -1.2953  0.8673 -1.3319
    1SOL    HW3 3323   1.729   0.844   1.536  1.2371 -0.0843  1.2376
    1SOL    MW4 3324   1.794   0.884   1.495 -0.0424  0.5411 -0.1926
    1SOL     OW 3325   1.777   1.148   1.542 -0.4658 -0.1534  0.0587
    1SOL    HW2 3326   1.862   1.186   1.520 -0.7171  0.4896  0.1913
    1SOL    HW3 3327   1.775   1.146   1.637 -0.6679 -0.0119  0.0585
    1SOL    MW4 3328   1.788   1.153   1.551 -0.5256 -0.0498  0.0762
    1SOL     OW 3329   2.032   1.252   1.495 -0.8242 -0.1428  0.0233
    1SOL    HW2 3330   2.027   1.344   1.520  1.9293 -0.1082  0.6767
    1SOL    HW3 3331   2.052   1.253   1.401  3.3843  0.1198  0.7992
    1SOL    MW4 3332   2.034   1.264   1.486  0.0944 -0.1036  0.2118
    1SOL     OW 3333   1.991   1.512   1.566  0.3987  0.0057  0.1721
    1SOL    HW2 3334   2.081   1.536   1.541  0.8453 -0.4157  1.3356
    1SOL    HW3 3335   1.936   1.576   1.521  1.2946  0.3689 -0.4250
    1SOL    MW4 3336   1.996   1.524   1.557  0.5758 -0.0020  0.2469
    1SOL     OW 3337   1.790   1.655   1.447  0.3571 -0.2366 -0.3026
    1SOL    HW2 3338   1.727   1.603   1.497 -1.0265  2.0862  0.4227
    1SOL    HW3 3339   1.768   1.638   1.356  0.6432 -1.7554 -0.1160
    1SOL    MW4 3340   1.779   1.646   1.442  0.2123 -0.1304 -0.1824
    1SOL     OW 3341   1.819   1.904   1.578 -0.3305  0.0231 -0.6329
    1SOL    HW2 3342   1.813   1.816   1.540  0.5363 -0.0623 -0.5872
    1SOL    HW3 3343   1.742   1.950   1.544 -0.5966 -0.6360 -0.9514
    1SOL    MW4 3344   1.808   1.898   1.569 -0.2512 -0.0750 -0.6689
    1SOL     OW 3345   2.029   2.040   1.476 -0.0186  0.4245  0.0125
    1SOL    HW2 3346   2.112   1.997   1.498 -0.2217 -0.5202 -0.9656
    1SOL    HW3 3347   1.962   1.984   1.516 -0.1790  1.2023  0.8270
    1SOL    MW4 3348   2.031   2.027   1.484 -0.0665  0.4027 -0.0089
    1SOL     OW 3349   2.017   2.300   1.597 -0.3084  0.1324 -0.1504
    1SOL    HW2 3350   2.025   2.277   1.689 -0.8367  0.9053  0.0899
    1SOL    HW3 3351   2.033   2.217   1.550  0.2682 -0.1899  0.6135
    1SOL    MW4 3352   2.020   2.286   1.603 -0.3021  0.1919 -0.0180
    1SOL     OW 3353   1.771   2.447   1.516 -0.2631  0.1650  0.3141
    1SOL    HW2 3354   1.841   2.396   1.556 -0.6738  0.0371  0.8799
    1SOL    HW3 3355   1.790   2.445   1.422  1.9316  2.3059  0.6691
    1SOL    MW4 3356   1.783   2.440   1.509 -0.0277  0.4303  0.4357
    1SOL     OW 3357   1.786   2.708   1.609  0.0500  0.0389 -0.1001
    1SOL    HW2 3358   1.861   2.745   1.562 -0.5193  1.3634 -0.0183
    1SOL    HW3 3359   1.783   2.617   1.582  1.2511  0.1564 -0.6700
    1SOL    MW4 3360   1.795   2.701   1.599  0.1333  0.2294 -0.1645
    1SOL     OW 3361   2.015   2.839   1.501 -0.0799 -0.1284  0.4180
    1SOL    HW2 3362   2.012   2.934   1.511  1.5870 -0.1163  0.8311
    1SOL    HW3 3363   2.013   2.825   1.406  0.1263  0.3251  0.3468
    1SOL    MW4 3364   2.014   2.849   1.490  0.1671 -0.0670  0.4631
    1SOL     OW 3365   2.019   3.103   1.552 -0.1985 -0.3157 -0.1760
    1SOL    HW2 3366   2.020   3.104   1.647 -0.1975 -2.8780 -0.1026
    1SOL    HW3 3367   2.101   3.146   1.526  0.3074 -0.5517  1.0043
    1SOL    MW4 3368   2.030   3.109   1.561 -0.1318 -0.6850 -0.0106
    1SOL     OW 3369   1.795   3.230   1.476 -0.5887  0.6309 -0.2714
    1SOL    HW2 3370   1.815   3.319   1.506 -0.0671  0.8311 -1.2024
    1SOL    HW3 3371   1.875   3.180   1.494 -0.6339  0.5133 -0.4006
    1SOL    MW4 3372   1.808   3.235   1.483 -0.5260  0.6418 -0.4112
    1SOL     OW 3373   1.822   3.486   1.601  0.7019 -0.1324  0.5907
    1SOL    HW2 3374   1.821   3.487   1.697  0.2179  1.7733  0.5781
    1SOL    HW3 3375   1.734   3.512   1.575  1.3711  1.2449 -0.3682
    1SOL    MW4 3376   1.810   3.490   1.610  0.7263  0.3009  0.4625
    1SOL     OW 3377   2.042   3.637   1.509 -0.0880  0.3056 -0.2830
    1SOL    HW2 3378   2.123   3.598   1.542  0.3856  1.1558 -0.4184
    1SOL    HW3 3379   1.973   3.579   1.540  0.4997  0.0950  0.6636
    1SOL    MW4 3380   2.043   3.624   1.518  0.0520  0.3898 -0.1758
    1SOL     OW 3381   2.017   3.876   1.643  0.1954  0.4318 -0.2871
    1SOL    HW2 3382   2.089   3.930   1.611  0.1779  0.8890  0.4394
    1SOL    HW3 3383   2.038   3.787   1.613  0.0005  0.9007 -1.8563
    1SOL    MW4 3384   2.029   3.871   1.635  0.1671  0.5541 -0.3982
    1SOL     OW 3385   1.781   3.969   1.520 -0.0085 -0.2939 -0.4126
    1SOL    HW2 3386   1.854   3.921   1.558  0.4302 -0.0700 -0.9578
    1SOL    HW3 3387   1.704   3.940   1.569  0.6551  0.5786  1.1564
    1SOL    MW4 3388   1.781   3.959   1.531  0.1370 -0.1493 -0.2775
    1SOL     OW 3389   1.798   4.246   1.600 -0.3877  0.0602  0.5958
    1SOL    HW2 3390   1.866   4.294   1.553 -1.4292  1.2837  0.3155
    1SOL    HW3 3391   1.804   4.157   1.567 -0.3356  0.6474 -1.0266
    1SOL    MW4 3392   1.808   4.241   1.590 -0.5183  0.2985  0.3448
    1SOL     OW 3393   1.998   4.369   1.464 -0.1127  0.3937  0.3735
    1SOL    HW2 3394   2.064   4.326   1.519 -1.1456 -0.9964  0.5587
    1SOL    HW3 3395   1.999   4.460   1.491 -0.0659 -0.1262  2.1431
    1SOL    MW4 3396   2.007   4.375   1.475 -0.2427  0.1416  0.6313
    1SOL     OW 3397   2.463   0.013   1.576  0.4747 -0.2461  0.0738
    1SOL    HW2 3398   2.453   0.015   1.672 -1.6584 -1.4519 -0.0992
    1SOL    HW3 3399   2.376   0.032   1.543  0.9058 -1.1904 -1.6365
    1SOL    MW4 3400   2.450   0.016   1.585  0.2499 -0.5298 -0.1746
    1SOL     OW 3401   2.217   0.103   1.508 -0.5001  0.1387 -0.1075
    1SOL    HW2 3402   2.139   0.055   1.535 -0.4604  0.2130  0.1367
    1SOL    HW3 3403   2.210   0.108   1.412 -1.0709  0.6256 -0.0410
    1SOL    MW4 3404   2.206   0.097   1.499 -0.5701  0.2127 -0.0665
    1SOL     OW 3405   2.204   0.364   1.586 -0.2596  0.7605  0.0377
    1SOL    HW2 3406   2.198   0.362   1.681 -0.2204  0.4704  0.0360
    1SOL    HW3 3407   2.210   0.272   1.561  1.0733  0.8888 -0.1545
    1SOL    MW4 3408   2.204   0.352   1.595 -0.0789  0.7391  0.0120
    1SOL     OW 3409   2.448   0.458   1.478 -0.1910  0.1066 -0.0432
    1SOL    HW2 3410   2.524   0.428   1.528  0.1539 -1.1650 -1.3222
    1SOL    HW3 3411   2.373   0.419   1.524 -0.0734  1.2223  1.1173
    1SOL    MW4 3412   2.448   0.449   1.491 -0.1302  0.0860 -0.0589
    1SOL     OW 3413   2.440   0.708   1.595  0.5919 -0.2112  0.3402
    1SOL    HW2 3414   2.369   0.752   1.547  0.0886 -0.6875  0.6409
    1SOL    HW3 3415   2.441   0.620   1.558  0.1270 -0.6153  1.2945
    1SOL    MW4 3416   2.430   0.702   1.584  0.4642 -0.3273  0.5058
    1SOL     OW 3417   2.235   0.845   1.492  0.6324  0.2770 -0.3863
    1SOL    HW2 3418   2.238   0.937   1.521  0.2748  0.1263  0.1456
    1SOL    HW3 3419   2.179   0.802   1.557  0.7194 -0.2975 -0.6929
    1SOL    MW4 3420   2.228   0.852   1.504  0.5968  0.1813 -0.3568
    1SOL     OW 3421   2.246   1.111   1.577 -0.5535  0.1305 -0.0189
    1SOL    HW2 3422   2.237   1.113   1.672 -1.1136 -1.4455 -0.0304
    1SOL    HW3 3423   2.161   1.142   1.545 -0.2064  1.1138 -0.0200
    1SOL    MW4 3424   2.233   1.116   1.585 -0.5815  0.0522 -0.0206
    1SOL     OW 3425   2.480   1.287   1.459 -0.2263  0.0766 -0.5516
    1SOL    HW2 3426   2.403   1.239   1.489  0.2418 -0.0998  0.4099
    1SOL    HW3 3427   2.483   1.272   1.365 -2.4737  1.7327 -0.9225
    1SOL    MW4 3428   2.470   1.278   1.451 -0.4611  0.2718 -0.4735
    1SOL     OW 3429   2.496   1.514   1.605  0.4948  0.4362  0.0721
    1SOL    HW2 3430   2.574   1.555   1.568  0.4288 -0.1335 -0.7071
    1SOL    HW3 3431   2.490   1.430   1.561  0.0732  0.0008  0.9504
    1SOL    MW4 3432   2.506   1.509   1.595  0.4306  0.3036  0.0852
    1SOL     OW 3433   2.261   1.603   1.504  0.0067  0.0717 -0.2631
    1SOL    HW2 3434   2.351   1.569   1.512 -0.2639 -0.7331 -0.5416
    1SOL    HW3 3435   2.243   1.600   1.410 -1.4130 -2.7556  0.0373
    1SOL    MW4 3436   2.271   1.598   1.493 -0.2165 -0.4075 -0.2602
    1SOL     OW 3437   2.233   1.864   1.561  0.2624  0.0928 -0.0181
    1SOL    HW2 3438   2.246   1.880   1.654 -0.1289  0.3554 -0.0082
    1SOL    HW3 3439   2.250   1.771   1.550  0.0987  0.0192  0.3533
    1SOL    MW4 3440   2.237   1.854   1.572  0.1895  0.1177  0.0322
    1SOL     OW 3441   2.486   2.002   1.500  0.0330  0.4685  0.5322
    1SOL    HW2 3442   2.408   1.963   1.538 -0.0588 -0.3832 -0.5143
    1SOL    HW3 3443   2.470   2.000   1.405  1.0010  0.9631  0.3505
    1SOL    MW4 3444   2.474   1.997   1.492  0.1488  0.4214  0.3701
    1SOL     OW 3445   2.447   2.283   1.629 -0.1363 -0.0560  0.2139
    1SOL    HW2 3446   2.473   2.267   1.720 -0.3149 -1.9673 -0.0486
    1SOL    HW3 3447   2.471   2.202   1.583  0.3103  1.0399 -1.5181
    1SOL    MW4 3448   2.454   2.270   1.635 -0.1011 -0.1638 -0.0492
    1SOL     OW 3449   2.231   2.433   1.508 -0.1073  0.5183 -0.3844
    1SOL    HW2 3450   2.308   2.404   1.556  0.9936 -0.9046 -2.9298
    1SOL    HW3 3451   2.158   2.386   1.548  0.9248 -1.4109 -0.7331
    1SOL    MW4 3452   2.231   2.423   1.519  0.1743  0.0761 -0.7663
    1SOL     OW 3453   2.244   2.713   1.595  0.4863 -0.3162  0.2400
    1SOL    HW2 3454   2.234   2.625   1.560 -1.6678  0.1639 -0.4400
    1SOL    HW3 3455   2.167   2.760   1.564  0.6261  1.2785  2.2137
    1SOL    MW4 3456   2.233   2.708   1.586  0.2205 -0.0427  0.4107
    1SOL     OW 3457   2.426   2.851   1.467 -0.4247  0.0623 -0.5865
    1SOL    HW2 3458   2.422   2.939   1.504  0.7859  0.1562 -0.6733
    1SOL    HW3 3459   2.366   2.800   1.522 -1.6136  1.0691 -0.9227
    1SOL    MW4 3460   2.417   2.856   1.480 -0.4220  0.2074 -0.6424
    1SOL     OW 3461   2.445   3.118   1.598 -0.2854 -0.0293  0.1540
    1SOL    HW2 3462   2.521   3.174   1.582  0.1841 -0.5289  0.6347
    1SOL    HW3 3463   2.371   3.167   1.562  0.4761 -0.2219 -1.7177
    1SOL    MW4 3464   2.445   3.132   1.591 -0.1228 -0.1209 -0.0296
    1SOL     OW 3465   2.238   3.247   1.472  0.3319  0.0477 -0.5204
    1SOL    HW2 3466   2.223   3.336   1.503 -1.4696 -0.2986 -0.3069
    1SOL    HW3 3467   2.266   3.258   1.381  2.0600  0.8980  0.0930
    1SOL    MW4 3468   2.239   3.260   1.464  0.3221  0.1142 -0.4113
    1SOL     OW 3469   2.259   3.506   1.597  0.1924  0.4977 -0.0704
    1SOL    HW2 3470   2.262   3.529   1.690 -0.3454  0.0242  0.0684
    1SOL    HW3 3471   2.333   3.553   1.558  1.0659 -0.1408  0.7844
    1SOL    MW4 3472   2.269   3.515   1.604  0.2367  0.3510  0.0608
    1SOL     OW 3473   2.515   3.627   1.505 -0.0020  0.2533  0.2759
    1SOL    HW2 3474   2.597   3.597   1.543 -0.1640 -0.8321 -0.2068
    1SOL    HW3 3475   2.498   3.711   1.547  0.8855  0.0537  1.0443
    1SOL    MW4 3476   2.523   3.634   1.515  0.0935  0.0839  0.3136
    1SOL     OW 3477   2.456   3.875   1.600  0.2983  0.1725  0.3436
    1SOL    HW2 3478   2.474   3.865   1.693  0.3784  2.9924  0.6764
    1SOL    HW3 3479   2.539   3.905   1.563 -0.2311  0.8150 -0.3257
    1SOL    MW4 3480   2.469   3.877   1.607  0.2391  0.6292  0.2992
    1SOL     OW 3481   2.228   4.031   1.547  0.3260 -0.3237  0.2491
    1SOL    HW2 3482   2.306   3.982   1.571  0.7996  1.0341  1.5907
    1SOL    HW3 3483   2.221   4.021   1.452  0.4065 -2.9415  0.4783
    1SOL    MW4 3484   2.237   4.023   1.538  0.3991 -0.4902  0.4565
    1SOL     OW 3485   2.218   4.291   1.618 -0.2694  0.9732  0.0306
    1SOL    HW2 3486   2.299   4.336   1.595 -0.5339  1.6859  0.4528
    1SOL    HW3 3487   2.229   4.202   1.585  1.2431  0.6668  1.3129
    1SOL    MW4 3488   2.230   4.285   1.610 -0.1047  1.0276  0.2556
    1SOL     OW 3489   2.450   4.410   1.505 -0.3572  0.0679  0.1921
    1SOL    HW2 3490   2.444   4.502   1.531 -0.9303 -0.0919  0.6463
    1SOL    HW3 3491   2.464   4.413   1.411  2.5311  0.6811  0.5889
    1SOL    MW4 3492   2.451   4.423   1.496 -0.0517  0.1278  0.3045
    1SOL     OW 3493   2.878   4.637   1.566 -0.1692 -0.1879 -0.0770
    1SOL    HW2 3494   2.898   4.660   1.657  0.3543  0.1330 -0.2692
    1SOL    HW3 3495   2.799   4.687   1.545  0.0294  0.1681  0.0252
    1SOL    MW4 3496   2.870   4.647   1.575 -0.0741 -0.0982 -0.0889
    1SOL     OW 3497   2.677   0.143   1.477 -0.0946 -0.1163 -0.3067
    1SOL    HW2 3498   2.681   0.234   1.508  0.5180  0.2589 -1.4555
    1SOL    HW3 3499   2.602   0.106   1.523  0.2327  0.6963  0.9010
    1SOL    MW4 3500   2.668   0.150   1.487  0.0293  0.0404 -0.2989
    1SOL     OW 3501   2.683   0.376   1.612  0.2364 -0.3952  0.0153
    1SOL    HW2 3502   2.696   0.388   1.707  0.4587 -0.7497  0.0315
    1SOL    HW3 3503   2.751   0.429   1.572 -0.0713  0.0297  0.0443
    1SOL    MW4 3504   2.694   0.384   1.620  0.2251 -0.3859  0.0213
    1SOL     OW 3505   2.895   0.496   1.467  0.0126  0.5411  0.1432
    1SOL    HW2 3506   2.901   0.586   1.501 -2.1606  1.2542 -1.2257
    1SOL    HW3 3507   2.905   0.506   1.372  1.2901 -0.8587  0.1235
    1SOL    MW4 3508   2.897   0.509   1.459 -0.1059  0.4505 -0.0399
    1SOL     OW 3509   2.927   0.753   1.550  0.2961 -0.7619  0.4764
    1SOL    HW2 3510   2.943   0.741   1.644 -0.2471  0.9882  0.8040
    1SOL    HW3 3511   2.858   0.818   1.546 -0.5482 -1.7252 -1.1316
    1SOL    MW4 3512   2.920   0.760   1.562  0.1132 -0.6581  0.3074
    1SOL     OW 3513   2.657   0.896   1.537 -0.4484  0.0281  0.1921
    1SOL    HW2 3514   2.588   0.837   1.567  0.3433 -1.0780 -0.1260
    1SOL    HW3 3515   2.649   0.895   1.441 -2.0239  2.3872  0.2714
    1SOL    MW4 3516   2.647   0.888   1.528 -0.5517  0.1934  0.1607
    1SOL     OW 3517   2.680   1.174   1.583 -0.1799 -0.0336 -0.0581
    1SOL    HW2 3518   2.662   1.082   1.566  0.7159 -0.0301 -1.0461
    1SOL    HW3 3519   2.613   1.222   1.534 -1.9405 -0.1828  2.1118
    1SOL    MW4 3520   2.668   1.168   1.575 -0.2940 -0.0528  0.0980
    1SOL     OW 3521   2.914   1.258   1.494 -0.1190  0.3005  0.1836
    1SOL    HW2 3522   2.987   1.203   1.522 -0.2872  0.4512  0.9158
    1SOL    HW3 3523   2.837   1.215   1.529 -0.3724  0.2496 -0.4251
    1SOL    MW4 3524   2.914   1.245   1.502 -0.1745  0.3135  0.1999
    1SOL     OW 3525   2.953   1.485   1.636 -0.3522 -0.1989 -0.0730
    1SOL    HW2 3526   2.880   1.540   1.606  0.9172  0.6948 -1.5355
    1SOL    HW3 3527   2.939   1.401   1.593 -0.7352 -0.1529 -0.0406
    1SOL    MW4 3528   2.941   1.481   1.627 -0.2351 -0.0750 -0.2618
    1SOL     OW 3529   2.751   1.631   1.529 -0.2849  0.7512  0.0927
    1SOL    HW2 3530   2.753   1.726   1.540  0.6258  0.7262  0.2446
    1SOL    HW3 3531   2.740   1.618   1.435 -2.5228  0.9927  0.3100
    1SOL    MW4 3532   2.750   1.642   1.518 -0.4601  0.7797  0.1414
    1SOL     OW 3533   2.719   1.899   1.600  0.7962  0.2906  0.2581
    1SOL    HW2 3534   2.716   1.891   1.695  1.2318 -1.3894  0.1564
    1SOL    HW3 3535   2.633   1.934   1.576  0.7014  0.7718  1.2719
    1SOL    MW4 3536   2.707   1.903   1.609  0.8409  0.1323  0.3785
    1SOL     OW 3537   2.937   2.011   1.485  0.3023 -0.4411 -0.3183
    1SOL    HW2 3538   2.941   2.104   1.507  1.3883 -0.2386 -1.3316
    1SOL    HW3 3539   2.869   1.976   1.543 -0.4151  1.0551 -0.2262
    1SOL    MW4 3540   2.928   2.019   1.496  0.3510 -0.2170 -0.4400
    1SOL     OW 3541   2.919   2.260   1.583  0.1474 -0.2221 -0.4266
    1SOL    HW2 3542   2.929   2.267   1.678  0.6504  0.7918 -0.5512
    1SOL    HW3 3543   2.837   2.306   1.565  1.0443  1.2822 -0.7040
    1SOL    MW4 3544   2.909   2.267   1.593  0.3324  0.1101 -0.4796
    1SOL     OW 3545   2.683   2.408   1.553 -0.4229  0.1388  0.0912
    1SOL    HW2 3546   2.676   2.503   1.553  1.8306  0.3552  2.0989
    1SOL    HW3 3547   2.601   2.378   1.592 -1.8532  1.1504 -2.0583
    1SOL    MW4 3548   2.671   2.417   1.558 -0.3140  0.3004  0.0725
    1SOL     OW 3549   2.654   2.686   1.523  0.2308  0.2736 -0.1417
    1SOL    HW2 3550   2.734   2.732   1.497 -0.2715  0.6786 -0.9750
    1SOL    HW3 3551   2.583   2.746   1.500 -0.3907 -0.6408 -0.6285
    1SOL    MW4 3552   2.656   2.700   1.517  0.0825  0.2065 -0.3159
    1SOL     OW 3553   2.882   2.822   1.476 -0.3445 -0.2223 -0.2734
    1SOL    HW2 3554   2.962   2.785   1.513 -0.6329 -2.1130 -1.4841
    1SOL    HW3 3555   2.886   2.915   1.500  0.7758 -0.8506  2.1404
    1SOL    MW4 3556   2.893   2.830   1.484 -0.2348 -0.5543 -0.1146
    1SOL     OW 3557   2.893   3.069   1.599  0.5634 -0.1462  0.0809
    1SOL    HW2 3558   2.894   3.087   1.693  1.5236  1.0808 -0.1488
    1SOL    HW3 3559   2.969   3.116   1.565  1.8124 -2.8213 -0.9148
    1SOL    MW4 3560   2.903   3.078   1.607  0.8547 -0.3374 -0.0808
    1SOL     OW 3561   2.688   3.231   1.517  0.2980 -0.2562  0.0018
    1SOL    HW2 3562   2.762   3.178   1.549  0.9585  0.8579  0.3339
    1SOL    HW3 3563   2.674   3.201   1.428  0.1281 -1.5883  0.4642
    1SOL    MW4 3564   2.696   3.220   1.510  0.3629 -0.2849  0.1066
    1SOL     OW 3565   2.738   3.500   1.610  0.1723  0.3086 -0.1504
    1SOL    HW2 3566   2.725   3.489   1.704 -0.7603 -0.2193 -0.3347
    1SOL    HW3 3567   2.708   3.418   1.571 -0.4075  0.8969 -0.9908
    1SOL    MW4 3568   2.732   3.488   1.617 -0.0272  0.3166 -0.2856
    1SOL     OW 3569   2.958   3.604   1.493 -0.5449  0.2197  0.3192
    1SOL    HW2 3570   2.879   3.565   1.530 -0.1136 -0.6107  0.3764
    1SOL    HW3 3571   2.955   3.582   1.400 -0.1348 -0.2358  0.4110
    1SOL    MW4 3572   2.947   3.596   1.486 -0.4339  0.0503  0.3388
    1SOL     OW 3573   2.927   3.867   1.615 -0.1222  0.3044  0.1940
    1SOL    HW2 3574   2.840   3.885   1.579 -0.4518 -0.8814  0.3924
    1SOL    HW3 3575   2.954   3.785   1.575  1.2054  1.0178 -0.3844
    1SOL    MW4 3576   2.919   3.859   1.605  0.0095  0.2420  0.1438
    1SOL     OW 3577   2.688   3.975   1.514 -0.1563  0.1586  0.1926
    1SOL    HW2 3578   2.686   4.064   1.549  0.3956  0.1737  0.1886
    1SOL    HW3 3579   2.692   3.987   1.419 -0.0709  0.1253  0.1927
    1SOL    MW4 3580   2.688   3.989   1.506 -0.0725  0.1559  0.1922
    1SOL     OW 3581   2.701   4.263   1.613  0.4170  0.0897 -0.5460
    1SOL    HW2 3582   2.776   4.316   1.586  0.0871  0.0634 -1.5047
    1SOL    HW3 3583   2.627   4.300   1.565 -0.2739  0.3988  0.7291
    1SOL    MW4 3584   2.701   4.275   1.603  0.2823  0.1268 -0.5043
    1SOL     OW 3585   2.924   4.366   1.518  0.5184 -0.1541 -0.0791
    1SOL    HW2 3586   2.917   4.461   1.524 -0.6946 -0.2570  0.3392
    1SOL    HW3 3587   2.921   4.347   1.424  1.2732  0.2485 -0.1879
    1SOL    MW4 3588   2.922   4.376   1.506  0.4578 -0.1149 -0.0383
    1SOL     OW 3589   3.361   4.613   1.585  0.4434 -0.1777 -0.1797
    1SOL    HW2 3590   3.441   4.651   1.551  0.8022 -0.3314  0.4846
    1SOL    HW3 3591   3.367   4.520   1.564 -0.6814  0.1990 -2.2845
    1SOL    MW4 3592   3.372   4.606   1.578  0.3421 -0.1488 -0.3699
    1SOL     OW 3593   3.126   0.092   1.502  0.0154  0.1423 -0.4643
    1SOL    HW2 3594   3.189   0.033   1.543  0.1015 -0.0690 -0.9011
    1SOL    HW3 3595   3.044   0.042   1.502 -0.2386  0.5341  0.3917
    1SOL    MW4 3596   3.123   0.078   1.508 -0.0067  0.1661 -0.4091
    1SOL     OW 3597   3.113   0.369   1.581 -0.1157  0.2823 -0.5213
    1SOL    HW2 3598   3.103   0.277   1.556  0.2878  0.1069 -0.0541
    1SOL    HW3 3599   3.042   0.415   1.536 -1.8946 -0.6307  1.2662
    1SOL    MW4 3600   3.102   0.363   1.572 -0.2971  0.1387 -0.2239
    1SOL     OW 3601   3.355   0.469   1.464 -0.3324  0.5659 -0.4911
    1SOL    HW2 3602   3.284   0.424   1.511 -0.2345  1.0588  0.1412
    1SOL    HW3 3603   3.340   0.448   1.372 -1.0582  0.3268 -0.3224
    1SOL    MW4 3604   3.343   0.460   1.458 -0.4153  0.5994 -0.3853
    1SOL     OW 3605   3.363   0.726   1.571 -0.0106 -0.4622  0.3127
    1SOL    HW2 3606   3.347   0.713   1.664  0.0980 -0.8277  0.2784
    1SOL    HW3 3607   3.350   0.640   1.532 -1.5295 -0.0142 -0.2125
    1SOL    MW4 3608   3.359   0.713   1.578 -0.1967 -0.4513  0.2389
    1SOL     OW 3609   3.144   0.859   1.453 -0.4424 -0.0142 -0.1747
    1SOL    HW2 3610   3.218   0.813   1.493 -0.3455  0.3793  0.1151
    1SOL    HW3 3611   3.067   0.815   1.487 -0.3550  0.1757  0.2807
    1SOL    MW4 3612   3.144   0.847   1.463 -0.4184  0.0627 -0.0764
    1SOL     OW 3613   3.137   1.098   1.567  0.6540 -0.0662 -0.1928
    1SOL    HW2 3614   3.133   1.082   1.662  1.7070  0.2110 -0.0994
    1SOL    HW3 3615   3.142   1.010   1.529 -1.1998 -0.2380 -0.0717
    1SOL    MW4 3616   3.137   1.084   1.575  0.5486 -0.0522 -0.1645
    1SOL     OW 3617   3.350   1.224   1.458 -0.0834  0.3275  0.2392
    1SOL    HW2 3618   3.421   1.191   1.512  0.3549 -0.6468 -0.9277
    1SOL    HW3 3619   3.272   1.181   1.492  0.0981  0.2022  0.4972
    1SOL    MW4 3620   3.349   1.214   1.469 -0.0017  0.1824  0.1191
    1SOL     OW 3621   3.392   1.527   1.572  0.0938 -0.0787  0.1533
    1SOL    HW2 3622   3.386   1.510   1.667  0.9582 -0.9733  0.0494
    1SOL    HW3 3623   3.383   1.440   1.532 -0.3102  0.3072 -0.5898
    1SOL    MW4 3624   3.390   1.513   1.580  0.1547 -0.1458  0.0415
    1SOL     OW 3625   3.165   1.656   1.495 -0.2942  0.3143 -0.1175
    1SOL    HW2 3626   3.240   1.602   1.518 -0.0685 -0.6289 -2.9399
    1SOL    HW3 3627   3.089   1.605   1.523  0.0486  0.6416  1.4451
    1SOL    MW4 3628   3.165   1.642   1.502 -0.2191  0.2331 -0.2837
    1SOL     OW 3629   3.184   1.920   1.576  0.0777  0.2054 -0.5466
    1SOL    HW2 3630   3.182   1.827   1.553 -0.0230 -0.1553  0.8478
    1SOL    HW3 3631   3.100   1.955   1.546  0.1417 -0.1362 -1.1251
    1SOL    MW4 3632   3.173   1.912   1.569  0.0730  0.1127 -0.4388
    1SOL     OW 3633   3.391   2.065   1.476  0.1047  0.1186  0.0834
    1SOL    HW2 3634   3.317   2.014   1.509  0.0471 -1.2761 -2.1389
    1SOL    HW3 3635   3.370   2.082   1.384  1.4836  1.6896  0.0333
    1SOL    MW4 3636   3.378   2.060   1.469  0.2794  0.1416 -0.2164
    1SOL     OW 3637   3.384   2.295   1.631 -0.1147 -0.6210  0.0459
    1SOL    HW2 3638   3.453   2.346   1.590  0.7454 -0.3197  1.8335
    1SOL    HW3 3639   3.391   2.208   1.590  0.3610 -0.1708 -0.8356
    1SOL    MW4 3640   3.394   2.290   1.620  0.0618 -0.5219  0.1656
    1SOL     OW 3641   3.155   2.419   1.543 -0.2393 -0.0311 -0.2956
    1SOL    HW2 3642   3.230   2.363   1.561 -0.9130 -0.6316  0.6934
    1SOL    HW3 3643   3.079   2.366   1.568 -0.9144  1.0631  0.0218
    1SOL    MW4 3644   3.155   2.404   1.549 -0.4175  0.0343 -0.1231
    1SOL     OW 3645   3.107   2.698   1.538 -0.1418  0.3862 -0.2123
    1SOL    HW2 3646   3.190   2.745   1.539 -0.0068  0.1302  0.4866
    1SOL    HW3 3647   3.132   2.606   1.525 -0.2595  0.1879  0.9517
    1SOL    MW4 3648   3.121   2.692   1.536 -0.1395  0.3262  0.0336
    1SOL     OW 3649   3.343   2.851   1.512  0.2178 -0.2023  0.0770
    1SOL    HW2 3650   3.349   2.944   1.537 -0.3358 -0.8245  2.7500
    1SOL    HW3 3651   3.353   2.851   1.417  1.5378  2.4763  0.1552
    1SOL    MW4 3652   3.345   2.863   1.503  0.3190  0.0691  0.4400
    1SOL     OW 3653   3.372   3.108   1.588 -0.1109 -0.0749 -0.0685
    1SOL    HW2 3654   3.350   3.104   1.681  0.7626  0.1380  0.1556
    1SOL    HW3 3655   3.449   3.165   1.584 -0.0858 -0.1590 -0.9121
    1SOL    MW4 3656   3.380   3.115   1.600  0.0076 -0.0579 -0.1502
    1SOL     OW 3657   3.114   3.208   1.518 -0.2422 -0.1421 -0.1745
    1SOL    HW2 3658   3.133   3.299   1.538  0.5262 -0.4700  0.6127
    1SOL    HW3 3659   3.196   3.162   1.533 -0.5628 -0.9313 -0.7852
    1SOL    MW4 3660   3.127   3.214   1.523 -0.1831 -0.2897 -0.1512
    1SOL     OW 3661   3.161   3.470   1.591  0.2879 -0.0256 -0.4821
    1SOL    HW2 3662   3.156   3.459   1.686 -3.5808 -1.1854 -0.7624
    1SOL    HW3 3663   3.094   3.535   1.570  1.3588  0.5210 -2.4210
    1SOL    MW4 3664   3.152   3.477   1.601 -0.0811 -0.1066 -0.7750
    1SOL     OW 3665   3.355   3.631   1.479 -0.4722  0.0227 -0.2003
    1SOL    HW2 3666   3.437   3.600   1.515  0.1589  0.3079 -1.3722
    1SOL    HW3 3667   3.288   3.577   1.520  0.3334 -0.4898  0.4372
    1SOL    MW4 3668   3.357   3.620   1.489 -0.2830 -0.0074 -0.2708
    1SOL     OW 3669   3.354   3.891   1.566 -0.3489  0.0790 -0.0952
    1SOL    HW2 3670   3.269   3.918   1.533 -1.0534 -2.1104 -0.1662
    1SOL    HW3 3671   3.357   3.797   1.551  1.6448 -0.0557  0.9001
    1SOL    MW4 3672   3.343   3.882   1.560 -0.1788 -0.2277  0.0267
    1SOL     OW 3673   3.116   3.998   1.476 -0.1319 -0.1065  0.0485
    1SOL    HW2 3674   3.142   4.080   1.518 -0.7648  0.3270 -0.3868
    1SOL    HW3 3675   3.055   3.958   1.538  0.2345 -0.2855  0.2945
    1SOL    MW4 3676   3.111   4.003   1.490 -0.1671 -0.0730  0.0235
    1SOL     OW 3677   3.190   4.240   1.584 -0.2683  0.1099  0.7494
    1SOL    HW2 3678   3.192   4.233   1.679  1.5327  1.0432  0.8032
    1SOL    HW3 3679   3.115   4.296   1.566 -0.4206  0.2007  1.6249
    1SOL    MW4 3680   3.180   4.246   1.594 -0.0510  0.2446  0.8721
    1SOL     OW 3681   3.411   4.357   1.486  0.5068 -0.0714 -0.0628
    1SOL    HW2 3682   3.330   4.315   1.515  0.5811 -0.0524  0.1783
    1SOL    HW3 3683   3.400   4.369   1.392  0.6396 -0.9650 -0.1950
    1SOL    MW4 3684   3.399   4.353   1.478  0.5341 -0.1864 -0.0484
    1SOL     OW 3685   3.833   4.611   1.600 -0.1890  0.1565  0.3116
    1SOL    HW2 3686   3.844   4.625   1.694  0.6609 -0.2547  0.2823
    1SOL    HW3 3687   3.897   4.670   1.559  0.5606 -0.8038  0.0602
    1SOL    MW4 3688   3.843   4.620   1.607  0.0224 -0.0238  0.2744
    1SOL     OW 3689   3.600   0.043   1.488  0.2536  0.8401 -0.6786
    1SOL    HW2 3690   3.683  -0.002   1.507 -0.2188  0.1367 -0.2703
    1SOL    HW3 3691   3.587   0.031   1.394  0.5310  0.7945 -0.7111
    1SOL    MW4 3692   3.609   0.035   1.478  0.2277  0.7413 -0.6289
    1SOL     OW 3693   3.610   0.311   1.555 -0.1057 -0.6825  0.0615
    1SOL    HW2 3694   3.611   0.218   1.532 -1.0590 -0.1623 -2.2128
    1SOL    HW3 3695   3.536   0.348   1.507  0.2788  1.2603  0.8904
    1SOL    MW4 3696   3.601   0.304   1.546 -0.1810 -0.3575 -0.1292
    1SOL     OW 3697   3.806   0.471   1.448 -0.4793  0.4311 -0.3242
    1SOL    HW2 3698   3.739   0.408   1.474  0.0273  0.4377  1.0103
    1SOL    HW3 3699   3.790   0.485   1.354 -2.0997  0.1526 -0.1035
    1SOL    MW4 3700   3.795   0.464   1.439 -0.6261  0.3953 -0.1191
    1SOL     OW 3701   3.818   0.693   1.595  0.0923  0.2982  0.2726
    1SOL    HW2 3702   3.742   0.744   1.567 -0.0824 -0.8497 -1.4909
    1SOL    HW3 3703   3.807   0.608   1.551  2.2630  0.0285  0.1858
    1SOL    MW4 3704   3.806   0.688   1.585  0.3555  0.1112  0.0284
    1SOL     OW 3705   3.613   0.841   1.487 -0.0093  0.0164 -0.2633
    1SOL    HW2 3706   3.530   0.796   1.502 -1.0228  1.5301 -1.1644
    1SOL    HW3 3707   3.620   0.847   1.391  0.7104  0.6447 -0.1780
    1SOL    MW4 3708   3.603   0.836   1.476 -0.0482  0.2990 -0.3709
    1SOL     OW 3709   3.585   1.112   1.594 -0.1379 -0.8368 -0.2170
    1SOL    HW2 3710   3.653   1.165   1.553 -0.4987 -0.4463 -0.3083
    1SOL    HW3 3711   3.602   1.023   1.562  1.4385 -1.0526  1.2072
    1SOL    MW4 3712   3.596   1.107   1.584  0.0226 -0.8137 -0.0412
    1SOL     OW 3713   3.814   1.226   1.493  0.1249  0.4945  0.0786
    1SOL    HW2 3714   3.897   1.181   1.508  0.0925 -0.0398 -1.3130
    1SOL    HW3 3715   3.833   1.318   1.512  0.8141  0.2500  0.5787
    1SOL    MW4 3716   3.827   1.232   1.498  0.2115  0.3917 -0.0390
    1SOL     OW 3717   3.831   1.501   1.556 -0.1521  0.3281 -0.0899
    1SOL    HW2 3718   3.825   1.508   1.651 -1.6786 -1.5060 -0.0150
    1SOL    HW3 3719   3.765   1.563   1.524 -0.7663 -0.2202  0.0983
    1SOL    MW4 3720   3.821   1.510   1.564 -0.4346  0.0137 -0.0553
    1SOL     OW 3721   3.620   1.667   1.493 -0.0207  0.1086 -0.6164
    1SOL    HW2 3722   3.547   1.614   1.525  0.8940 -0.7637  0.0459
    1SOL    HW3 3723   3.618   1.655   1.398 -0.1246 -0.7330 -0.5150
    1SOL    MW4 3724   3.610   1.658   1.484  0.0863 -0.1175 -0.5156
    1SOL     OW 3725   3.626   1.935   1.565 -0.3160  0.0268  0.3071
    1SOL    HW2 3726   3.626   1.843   1.541 -0.5606 -0.3074  1.5986
    1SOL    HW3 3727   3.547   1.971   1.525 -0.5594 -0.4612  0.3525
    1SOL    MW4 3728   3.616   1.928   1.557 -0.3803 -0.0817  0.4834
    1SOL     OW 3729   3.827   2.083   1.464  0.4092  0.9106  0.2149
    1SOL    HW2 3730   3.828   2.173   1.497 -0.3647  0.3689  1.7524
    1SOL    HW3 3731   3.759   2.039   1.515 -1.4247  0.2319 -2.6720
    1SOL    MW4 3732   3.818   2.089   1.475  0.0651  0.7496  0.0368
    1SOL     OW 3733   3.813   2.353   1.547 -0.1145  0.3443  0.5689
    1SOL    HW2 3734   3.821   2.365   1.642 -0.8480  0.9235  0.5663
    1SOL    HW3 3735   3.892   2.393   1.511 -0.5323  1.4468  0.8460
    1SOL    MW4 3736   3.824   2.360   1.555 -0.2663  0.5662  0.6050
    1SOL     OW 3737   3.573   2.454   1.455 -0.4047  0.1005 -0.7822
    1SOL    HW2 3738   3.579   2.534   1.507 -0.2335 -0.4741  0.0912
    1SOL    HW3 3739   3.644   2.399   1.487 -0.4026 -0.3201 -1.5146
    1SOL    MW4 3740   3.583   2.457   1.466 -0.3819 -0.0308 -0.7635
    1SOL     OW 3741   3.578   2.708   1.593 -0.1332  0.3813  0.5941
    1SOL    HW2 3742   3.568   2.700   1.688  0.1651 -1.4175  0.5014
    1SOL    HW3 3743   3.496   2.746   1.563  0.2406  2.0934  1.6975
    1SOL    MW4 3744   3.566   2.712   1.601 -0.0443  0.3695  0.7274
    1SOL     OW 3745   3.816   2.828   1.501 -0.1363 -0.1002  0.3260
    1SOL    HW2 3746   3.895   2.799   1.547  0.5624  1.1439 -0.0836
    1SOL    HW3 3747   3.745   2.782   1.546  0.9007 -2.2990 -0.1597
    1SOL    MW4 3748   3.817   2.818   1.513  0.0927 -0.2263  0.2078
    1SOL     OW 3749   3.826   3.102   1.588 -0.4180  0.3375  0.2250
    1SOL    HW2 3750   3.895   3.150   1.542  0.7663 -0.7763  0.8147
    1SOL    HW3 3751   3.833   3.012   1.556 -1.9877  0.3352 -0.1452
    1SOL    MW4 3752   3.836   3.097   1.578 -0.4687  0.1900  0.2538
    1SOL     OW 3753   3.594   3.241   1.515  0.2021 -0.2398  0.2909
    1SOL    HW2 3754   3.674   3.195   1.537 -0.0573 -1.0071 -0.3310
    1SOL    HW3 3755   3.590   3.238   1.419  0.7460  2.0517  0.1663
    1SOL    MW4 3756   3.604   3.234   1.505  0.2396 -0.0386  0.1924
    1SOL     OW 3757   3.590   3.526   1.581 -0.4270  0.0928  0.2524
    1SOL    HW2 3758   3.670   3.574   1.561 -0.7469  0.6319  0.2499
    1SOL    HW3 3759   3.612   3.434   1.564 -0.4686  0.4597 -1.8942
    1SOL    MW4 3760   3.603   3.520   1.576 -0.4747  0.2124 -0.0312
    1SOL     OW 3761   3.828   3.639   1.491  0.1173  0.5063  0.2453
    1SOL    HW2 3762   3.896   3.589   1.534  0.7665  0.9204 -0.2919
    1SOL    HW3 3763   3.829   3.724   1.535  0.6192  0.8480 -0.4111
    1SOL    MW4 3764   3.837   3.644   1.502  0.2689  0.6061  0.0879
    1SOL     OW 3765   3.811   3.904   1.564  0.2379  0.0005 -0.5805
    1SOL    HW2 3766   3.881   3.957   1.525  0.4142  0.2004 -0.0037
    1SOL    HW3 3767   3.730   3.942   1.529  0.4706 -1.4681 -2.7988
    1SOL    MW4 3768   3.810   3.916   1.554  0.2918 -0.1667 -0.7969
    1SOL     OW 3769   3.591   3.972   1.430  0.2366  0.2936  0.2505
    1SOL    HW2 3770   3.602   4.060   1.465 -1.3296  0.9168 -0.7518
    1SOL    HW3 3771   3.510   3.940   1.470 -0.1378 -0.0138 -0.7434
    1SOL    MW4 3772   3.582   3.979   1.440 -0.0196  0.3352 -0.0128
    1SOL     OW 3773   3.623   4.216   1.599  0.0553  0.0438 -0.2442
    1SOL    HW2 3774   3.621   4.224   1.695  1.6325  0.4026 -0.2395
    1SOL    HW3 3775   3.540   4.254   1.571  0.3086  1.4433  0.8726
    1SOL    MW4 3776   3.612   4.222   1.608  0.2968  0.2756 -0.0962
    1SOL     OW 3777   3.809   4.369   1.450 -0.7258  0.6555  0.2672
    1SOL    HW2 3778   3.767   4.304   1.505 -1.1164  0.9812  0.3527
    1SOL    HW3 3779   3.802   4.451   1.498  0.4680  0.6196  0.5199
    1SOL    MW4 3780   3.803   4.371   1.463 -0.6196  0.6938  0.3117
    1SOL     OW 3781   4.255   0.011   1.572 -0.2191  0.2018  0.3297
    1SOL    HW2 3782   4.248   0.025   1.666  0.4117 -0.0050  0.4084
    1SOL    HW3 3783   4.251  -0.084   1.561  0.2859  0.1929  0.1968
    1SOL    MW4 3784   4.254   0.000   1.583 -0.0691  0.1736  0.3225
    1SOL     OW 3785   4.007   0.098   1.483 -0.0896 -0.6212 -0.5093
    1SOL    HW2 3786   4.004   0.191   1.507 -1.6411 -0.7014 -0.3509
    1SOL    HW3 3787   4.099   0.074   1.492  0.1344  0.6080  0.5783
    1SOL    MW4 3788   4.018   0.107   1.487 -0.2651 -0.4696 -0.3449
    1SOL     OW 3789   4.039   0.376   1.556 -0.5228  0.0491  0.2809
    1SOL    HW2 3790   4.031   0.400   1.648 -0.9984  0.0716  0.2344
    1SOL    HW3 3791   3.984   0.440   1.510  1.7898  1.7261 -0.2736
    1SOL    MW4 3792   4.030   0.388   1.562 -0.2809  0.2733  0.2017
    1SOL     OW 3793   4.272   0.520   1.499 -0.1118 -0.2283  0.2205
    1SOL    HW2 3794   4.200   0.463   1.525  0.6613 -0.8330  1.0460
    1SOL    HW3 3795   4.351   0.473   1.526  0.6669 -0.2896 -2.0631
    1SOL    MW4 3796   4.273   0.506   1.506  0.0930 -0.3162  0.0281
    1SOL     OW 3797   4.256   0.779   1.619 -0.3122 -0.1796 -0.7062
    1SOL    HW2 3798   4.262   0.688   1.590 -0.7846 -0.1854 -0.7933
    1SOL    HW3 3799   4.317   0.826   1.562 -0.5671 -0.3379 -1.1117
    1SOL    MW4 3800   4.264   0.773   1.607 -0.4077 -0.2013 -0.7710
    1SOL     OW 3801   4.039   0.858   1.468 -0.3841  0.5671 -0.1280
    1SOL    HW2 3802   4.111   0.836   1.527 -0.6042  1.5061  0.4988
    1SOL    HW3 3803   3.964   0.811   1.504 -0.1570 -0.2089 -0.6377
    1SOL    MW4 3804   4.039   0.849   1.480 -0.3829  0.5886 -0.1127
    1SOL     OW 3805   4.056   1.131   1.570  0.0125  0.5020 -0.5610
    1SOL    HW2 3806   4.059   1.110   1.663 -1.9767  1.3963 -0.2772
    1SOL    HW3 3807   4.066   1.046   1.526  1.9566  0.2022  0.4331
    1SOL    MW4 3808   4.058   1.117   1.576  0.0072  0.5804 -0.3922
    1SOL     OW 3809   4.268   1.312   1.474 -0.1300  0.0864 -0.0084
    1SOL    HW2 3810   4.191   1.266   1.507  0.0214  0.4529  0.8753
    1SOL    HW3 3811   4.342   1.258   1.503  0.1053  1.4349  1.9703
    1SOL    MW4 3812   4.268   1.299   1.482 -0.0792  0.3127  0.3693
    1SOL     OW 3813   4.265   1.539   1.616 -0.2150  0.4060  0.1237
    1SOL    HW2 3814   4.261   1.463   1.558 -1.5841  2.2660 -2.3012
    1SOL    HW3 3815   4.330   1.596   1.576 -1.7201  2.0428 -0.0310
    1SOL    MW4 3816   4.273   1.536   1.603 -0.5951  0.8674 -0.2165
    1SOL     OW 3817   4.052   1.659   1.456  0.2707  0.2844  0.5295
    1SOL    HW2 3818   4.134   1.626   1.494 -0.0250  0.2844  1.1741
    1SOL    HW3 3819   3.985   1.598   1.486  0.0337  0.2675 -0.0275
    1SOL    MW4 3820   4.054   1.647   1.465  0.1998  0.2823  0.5411
    1SOL     OW 3821   4.078   1.940   1.551 -0.0541  0.2312  0.1566
    1SOL    HW2 3822   4.079   1.850   1.517 -1.4310  0.5685 -0.8087
    1SOL    HW3 3823   3.992   1.974   1.527  1.5911  2.8831 -2.3765
    1SOL    MW4 3824   4.067   1.932   1.543 -0.0191  0.6256 -0.3051
    1SOL     OW 3825   4.282   2.097   1.471 -0.5230  0.3899 -0.1426
    1SOL    HW2 3826   4.214   2.029   1.479 -0.0679 -0.1255 -0.5745
    1SOL    HW3 3827   4.305   2.096   1.378  0.5738  0.0696  0.1190
    1SOL    MW4 3828   4.276   2.088   1.460 -0.3185  0.2799 -0.1650
    1SOL     OW 3829   4.243   2.360   1.570 -0.2361 -0.1535 -0.1632
    1SOL    HW2 3830   4.251   2.353   1.665  0.7053  0.0735 -0.2214
    1SOL    HW3 3831   4.254   2.270   1.538  0.7420 -0.0493 -0.1403
    1SOL    MW4 3832   4.246   2.347   1.578  0.0176 -0.1099 -0.1678
    1SOL     OW 3833   4.025   2.495   1.460 -0.1105  0.0107  0.1474
    1SOL    HW2 3834   4.034   2.579   1.505  0.5244 -0.2190  0.4423
    1SOL    HW3 3835   4.095   2.440   1.496 -0.8111 -0.7968  0.3026
    1SOL    MW4 3836   4.035   2.499   1.471 -0.1183 -0.1264  0.2067
    1SOL     OW 3837   4.047   2.725   1.614  0.1888 -0.3873 -0.1437
    1SOL    HW2 3838   4.065   2.717   1.707 -1.4928 -1.5972  0.1019
    1SOL    HW3 3839   4.128   2.762   1.577  0.6460  0.6772  1.8529
    1SOL    MW4 3840   4.060   2.729   1.621  0.0272 -0.4063  0.1521
    1SOL     OW 3841   4.275   2.819   1.471  0.1542  0.2149  0.4037
    1SOL    HW2 3842   4.261   2.911   1.492 -0.5657  0.4446 -1.0069
    1SOL    HW3 3843   4.270   2.815   1.376  2.5418 -0.9231  0.2967
    1SOL    MW4 3844   4.272   2.830   1.461  0.3738  0.0951  0.2035
    1SOL     OW 3845   4.261   3.077   1.580 -0.5327  0.0741  0.1390
    1SOL    HW2 3846   4.269   3.087   1.674 -1.9965  0.4769  0.2343
    1SOL    HW3 3847   4.332   3.130   1.544 -0.2319  0.2572  0.9863
    1SOL    MW4 3848   4.272   3.085   1.587 -0.6857  0.1516  0.2633
    1SOL     OW 3849   4.043   3.219   1.477 -0.0455 -0.2216  0.4843
    1SOL    HW2 3850   4.033   3.308   1.512  1.1251  0.5309 -1.0475
    1SOL    HW3 3851   4.118   3.184   1.525  0.8401  0.4018 -0.4171
    1SOL    MW4 3852   4.052   3.226   1.488  0.2255 -0.0403  0.1634
    1SOL     OW 3853   4.027   3.479   1.609 -0.0611 -0.1840 -0.2229
    1SOL    HW2 3854   4.050   3.457   1.699  0.6591  0.5169 -0.2290
    1SOL    HW3 3855   4.109   3.510   1.570 -0.5852  0.4497 -0.8331
    1SOL    MW4 3856   4.041   3.480   1.616 -0.0353 -0.0081 -0.3042
    1SOL     OW 3857   4.241   3.632   1.500 -0.1670 -0.2048 -0.1476
    1SOL    HW2 3858   4.237   3.718   1.542  1.1626 -0.5418  0.6907
    1SOL    HW3 3859   4.239   3.650   1.406  0.4852  0.7518  0.0257
    1SOL    MW4 3860   4.240   3.646   1.493  0.0949 -0.1230 -0.0142
    1SOL     OW 3861   4.236   3.891   1.601  0.0409  0.1703  0.4351
    1SOL    HW2 3862   4.158   3.944   1.581 -0.9000 -1.3435 -0.0243
    1SOL    HW3 3863   4.307   3.932   1.552 -0.7393  0.8153 -0.1686
    1SOL    MW4 3864   4.235   3.903   1.592 -0.1860  0.0558  0.2949
    1SOL     OW 3865   4.036   4.029   1.457  0.1465  0.2017 -0.0635
    1SOL    HW2 3866   4.043   4.118   1.491 -0.5933 -0.0987  0.8894
    1SOL    HW3 3867   4.047   4.039   1.362 -0.1989  1.3423  0.0050
    1SOL    MW4 3868   4.038   4.042   1.449  0.0033  0.3123  0.0713
    1SOL     OW 3869   4.058   4.278   1.576  0.0112 -0.0943  0.2547
    1SOL    HW2 3870   4.053   4.259   1.670 -0.5338 -1.3424 -0.0210
    1SOL    HW3 3871   3.978   4.327   1.557 -0.3701 -0.7327  0.2319
    1SOL    MW4 3872   4.047   4.282   1.586 -0.1116 -0.3433  0.2153
    1SOL     OW 3873   4.283   4.407   1.501 -0.0946  0.5214  0.6760
    1SOL    HW2 3874   4.208   4.349   1.516  0.3367  0.0553  1.0572
    1SOL    HW3 3875   4.289   4.415   1.406 -0.4641  0.3474  0.6380
    1SOL    MW4 3876   4.274   4.401   1.490 -0.0858  0.4373  0.7213
    1SOL     OW 3877   0.210   4.653   1.846  0.6153  0.0125  0.1334
    1SOL    HW2 3878   0.290   4.695   1.877  0.3611  0.5384  0.0714
    1SOL    HW3 3879   0.215   4.660   1.750  0.7650 -0.4463  0.1079
    1SOL    MW4 3880   0.221   4.659   1.837  0.6015  0.0215  0.1220
    1SOL     OW 3881   0.002   0.126   1.963 -0.6542  0.1206 -0.2905
    1SOL    HW2 3882  -0.001   0.215   1.928 -0.9571  0.1038 -0.3083
    1SOL    HW3 3883   0.089   0.094   1.941 -0.6948  0.2615 -0.6608
    1SOL    MW4 3884   0.013   0.133   1.956 -0.6995  0.1370 -0.3418
    1SOL     OW 3885   0.015   0.385   1.880 -0.0708 -0.1078 -0.1103
    1SOL    HW2 3886  -0.049   0.444   1.920  0.9684  1.6346 -0.9339
    1SOL    HW3 3887   0.097   0.404   1.925  0.3945 -0.5064 -0.7757
    1SOL    MW4 3888   0.017   0.396   1.891  0.1277  0.0695 -0.3068
    1SOL     OW 3889   0.270   0.475   1.989  0.3348  0.0039  0.4316
    1SOL    HW2 3890   0.351   0.439   1.953  0.0533 -1.0874  0.8593
    1SOL    HW3 3891   0.255   0.556   1.940  0.6098 -0.8347 -1.0508
    1SOL    MW4 3892   0.278   0.481   1.978  0.3339 -0.2507  0.2925
    1SOL     OW 3893   0.222   0.709   1.857  0.2920 -0.7487  0.1593
    1SOL    HW2 3894   0.290   0.769   1.888  0.0582  0.3045 -1.3033
    1SOL    HW3 3895   0.218   0.724   1.763 -1.5578 -1.2044  0.1408
    1SOL    MW4 3896   0.230   0.719   1.849  0.0171 -0.6699 -0.0360
    1SOL     OW 3897   0.036   0.883   1.967  0.4462 -0.5259  0.2209
    1SOL    HW2 3898  -0.048   0.837   1.959  1.4400 -2.6140  1.5355
    1SOL    HW3 3899   0.101   0.821   1.935  1.6753  0.4114  0.8726
    1SOL    MW4 3900   0.033   0.869   1.962  0.7396 -0.6777  0.4803
    1SOL     OW 3901   4.483   1.137   1.843  0.2778 -0.0260 -0.0826
    1SOL    HW2 3902   4.405   1.150   1.896 -0.3044 -0.6726 -0.7716
    1SOL    HW3 3903   4.511   1.047   1.863  0.0006 -0.3068 -0.9198
    1SOL    MW4 3904   4.477   1.127   1.853  0.1645 -0.1483 -0.2842
    1SOL     OW 3905   0.205   1.268   1.969  0.3608  0.0114  0.3713
    1SOL    HW2 3906   0.188   1.356   1.934  1.2105  0.0909  0.1245
    1SOL    HW3 3907   0.127   1.218   1.948 -0.6434  1.0335  1.6039
    1SOL    MW4 3908   0.193   1.273   1.961  0.3404  0.1566  0.5013
    1SOL     OW 3909   0.177   1.532   1.887  0.6815 -0.8345  0.3110
    1SOL    HW2 3910   0.254   1.582   1.916  0.9761 -0.3548 -1.2245
    1SOL    HW3 3911   0.103   1.576   1.929  1.0536  0.1478 -0.0335
    1SOL    MW4 3912   0.178   1.544   1.896  0.7695 -0.6415  0.0629
    1SOL     OW 3913   4.447   1.716   1.976  0.0879 -0.0771 -0.1327
    1SOL    HW2 3914   4.438   1.718   2.071 -0.0270  0.6351 -0.1627
    1SOL    HW3 3915   4.382   1.652   1.947 -1.1345  1.0524  0.1096
    1SOL    MW4 3916   4.438   1.708   1.985 -0.0882  0.1658 -0.1047
    1SOL     OW 3917   4.478   1.967   1.875 -0.1800 -0.3105 -0.0308
    1SOL    HW2 3918   4.399   2.003   1.914  0.1870 -0.9605  1.3883
    1SOL    HW3 3919   4.469   1.872   1.887  0.9578 -0.3644  0.4548
    1SOL    MW4 3920   4.467   1.959   1.882  0.0181 -0.4035  0.2204
    1SOL     OW 3921   0.239   2.039   2.022 -0.3294 -0.1802  0.5279
    1SOL    HW2 3922   0.249   2.131   2.000  0.3238 -0.6853 -1.3966
    1SOL    HW3 3923   0.153   2.015   1.987 -0.6941 -0.1913  1.4275
    1SOL    MW4 3924   0.229   2.048   2.014 -0.2913 -0.2484  0.3929
    1SOL     OW 3925   0.245   2.308   1.898  0.0463 -0.2052  0.2108
    1SOL    HW2 3926   0.324   2.360   1.913  0.4124 -0.6748 -0.0922
    1SOL    HW3 3927   0.176   2.356   1.943  0.8313 -0.7400  2.0263
    1SOL    MW4 3928   0.246   2.321   1.906  0.1982 -0.3376  0.4103
    1SOL     OW 3929   0.020   2.435   1.966  0.0613 -0.3327 -0.0907
    1SOL    HW2 3930   0.026   2.460   2.058 -1.2558  2.0268 -0.6121
    1SOL    HW3 3931   0.039   2.515   1.918 -2.9874 -0.5719 -1.8469
    1SOL    MW4 3932   0.023   2.449   1.972 -0.5147 -0.0529 -0.3911
    1SOL     OW 3933   0.037   2.692   1.873  0.0237 -0.2429 -0.2746
    1SOL    HW2 3934  -0.049   2.721   1.903  0.3069  1.7456 -1.3206
    1SOL    HW3 3935   0.034   2.703   1.778  0.8152 -1.8978 -0.5147
    1SOL    MW4 3936   0.025   2.697   1.864  0.1655 -0.1988 -0.4443
    1SOL     OW 3937   0.220   2.859   1.992 -0.3281  0.6080  0.1030
    1SOL    HW2 3938   0.224   2.933   1.932 -0.6842  0.8459  0.3744
    1SOL    HW3 3939   0.158   2.799   1.952 -0.9749  1.0068  0.5024
    1SOL    MW4 3940   0.213   2.861   1.979 -0.4604  0.6921  0.1913
    1SOL     OW 3941   0.223   3.104   1.857 -0.3358  0.8810 -0.0429
    1SOL    HW2 3942   0.312   3.119   1.891  0.5775 -2.8026 -0.5786
    1SOL    HW3 3943   0.231   3.115   1.762 -0.5207  0.8463 -0.0632
    1SOL    MW4 3944   0.236   3.107   1.849 -0.2397  0.3905 -0.1165
    1SOL     OW 3945   0.005   3.243   1.953 -0.1801 -0.4113 -0.5096
    1SOL    HW2 3946  -0.070   3.193   1.921 -1.1832  2.5250 -3.0434
    1SOL    HW3 3947   0.081   3.202   1.913 -0.7123 -1.6963 -0.2091
    1SOL    MW4 3948   0.005   3.231   1.943 -0.3826 -0.1934 -0.8043
    1SOL     OW 3949   0.011   3.492   1.846 -0.1755  0.0028 -0.1605
    1SOL    HW2 3950   0.096   3.527   1.875 -0.6344  1.7303 -0.8545
    1SOL    HW3 3951   0.010   3.403   1.880  3.1043 -1.0236 -2.3887
    1SOL    MW4 3952   0.022   3.485   1.854  0.1965  0.0951 -0.5460
    1SOL     OW 3953   0.225   3.627   1.989  0.1102  0.5125  0.1771
    1SOL    HW2 3954   0.224   3.617   2.084 -0.9931  0.3804  0.1635
    1SOL    HW3 3955   0.298   3.573   1.959 -0.2849 -0.4002  0.8502
    1SOL    MW4 3956   0.234   3.619   1.998 -0.0875  0.3748  0.2640
    1SOL     OW 3957   0.188   3.880   1.856  0.4804 -0.0710  0.3181
    1SOL    HW2 3958   0.258   3.934   1.889 -0.6245  1.6300 -0.0625
    1SOL    HW3 3959   0.203   3.793   1.894  1.7086  0.7471  1.6942
    1SOL    MW4 3960   0.199   3.875   1.865  0.4967  0.2613  0.4494
    1SOL     OW 3961   4.455   3.970   1.993 -0.2730 -0.0136  0.0027
    1SOL    HW2 3962   4.448   4.064   1.974  1.2162  0.0789 -0.1483
    1SOL    HW3 3963   4.528   3.940   1.939 -0.6323 -1.2318  0.1764
    1SOL    MW4 3964   4.464   3.979   1.983 -0.1240 -0.1621  0.0058
    1SOL     OW 3965   4.453   4.256   1.923 -0.0250  0.6638 -0.5937
    1SOL    HW2 3966   4.374   4.309   1.936  0.0986  0.9213 -0.8800
    1SOL    HW3 3967   4.525   4.312   1.950  0.1744  0.9596 -1.6907
    1SOL    MW4 3968   4.452   4.270   1.928  0.0176  0.7367 -0.7762
    1SOL     OW 3969   0.183   4.406   1.984 -0.0977 -0.1000  0.0291
    1SOL    HW2 3970   0.181   4.421   2.079  1.7654  1.6229 -0.1775
    1SOL    HW3 3971   0.197   4.492   1.946  2.4863 -1.2101 -1.6603
    1SOL    MW4 3972   0.184   4.419   1.992  0.4890 -0.0200 -0.2210
    1SOL     OW 3973   0.682   4.648   1.888 -0.1800 -0.0964  0.4024
    1SOL    HW2 3974   0.672   4.563   1.931 -2.0948 -0.6956 -1.1667
    1SOL    HW3 3975   0.656   4.632   1.797  3.2692  1.2658 -0.9021
    1SOL    MW4 3976   0.677   4.635   1.882  0.0225  0.0043  0.0232
    1SOL     OW 3977   0.451   0.107   1.980  0.0982  0.9790  0.6596
    1SOL    HW2 3978   0.454   0.198   1.950  0.2207  1.1094  1.0622
    1SOL    HW3 3979   0.535   0.070   1.953 -0.7829  0.3753 -1.3889
    1SOL    MW4 3980   0.462   0.114   1.972 -0.0019  0.9165  0.4425
    1SOL     OW 3981   0.501   0.356   1.877  0.1147  0.3127 -0.3179
    1SOL    HW2 3982   0.574   0.414   1.898 -0.5436  0.9411  0.2835
    1SOL    HW3 3983   0.499   0.354   1.781  0.1678  1.2676 -0.3483
    1SOL    MW4 3984   0.510   0.364   1.867  0.0348  0.5216 -0.2426
    1SOL     OW 3985   0.687   0.524   1.973 -0.3593  0.2456  0.1750
    1SOL    HW2 3986   0.682   0.526   2.068  0.1130  0.3182  0.2002
    1SOL    HW3 3987   0.764   0.472   1.953 -0.7141 -0.1487 -0.1779
    1SOL    MW4 3988   0.696   0.518   1.983 -0.3438  0.2031  0.1317
    1SOL     OW 3989   0.661   0.775   1.842 -0.0371 -0.4458 -1.0271
    1SOL    HW2 3990   0.728   0.829   1.884 -0.8565  0.9041 -1.4208
    1SOL    HW3 3991   0.677   0.687   1.875  2.1437 -0.2065 -1.3931
    1SOL    MW4 3992   0.672   0.770   1.852  0.1425 -0.2362 -1.1272
    1SOL     OW 3993   0.428   0.839   1.973  0.3643  0.0631  0.6449
    1SOL    HW2 3994   0.461   0.858   2.061 -0.1283 -0.8631  1.0349
    1SOL    HW3 3995   0.506   0.813   1.923  0.4300 -0.8193  1.2009
    1SOL    MW4 3996   0.443   0.838   1.978  0.3079 -0.1755  0.7697
    1SOL     OW 3997   0.446   1.119   1.900 -0.0415  0.4279 -0.2727
    1SOL    HW2 3998   0.361   1.143   1.938  0.2125  0.1181  0.4976
    1SOL    HW3 3999   0.456   1.026   1.920 -0.0698  0.1748 -1.4281
    1SOL    MW4 4000   0.436   1.110   1.908 -0.0117  0.3536 -0.3234
    1SOL     OW 4001   0.690   1.272   1.957  0.2315 -0.1007 -0.3986
    1SOL    HW2 4002   0.684   1.266   2.052  0.7806  0.8919 -0.2962
    1SOL    HW3 4003   0.609   1.233   1.925 -0.0503 -0.2425  0.4796
    1SOL    MW4 4004   0.679   1.266   1.965  0.2668  0.0117 -0.2692
    1SOL     OW 4005   0.631   1.538   1.876 -0.0743 -0.2134 -0.6542
    1SOL    HW2 4006   0.652   1.450   1.908 -0.1993  0.1335  0.4061
    1SOL    HW3 4007   0.620   1.527   1.782 -0.8436 -1.4790 -0.4246
    1SOL    MW4 4008   0.633   1.525   1.868 -0.1923 -0.3345 -0.4840
    1SOL     OW 4009   0.398   1.672   1.944  0.2209 -0.1561  0.4039
    1SOL    HW2 4010   0.401   1.692   2.038  0.1400 -2.6328  0.9742
    1SOL    HW3 4011   0.482   1.629   1.926 -0.8503 -2.1812  0.0002
    1SOL    MW4 4012   0.409   1.669   1.954  0.0689 -0.7501  0.4259
    1SOL     OW 4013   0.454   1.939   1.880  0.2189  0.1774  0.6209
    1SOL    HW2 4014   0.419   1.850   1.872  0.1763  0.1626  0.9583
    1SOL    HW3 4015   0.388   1.986   1.931  0.6349  0.1796  1.1662
    1SOL    MW4 4016   0.440   1.933   1.886  0.2681  0.1756  0.7374
    1SOL     OW 4017   0.654   2.109   1.974  0.3839 -0.0396 -0.2906
    1SOL    HW2 4018   0.669   2.092   2.067  1.1886 -1.6830 -0.6913
    1SOL    HW3 4019   0.585   2.048   1.949  0.4002  0.1626 -0.8431
    1SOL    MW4 4020   0.647   2.098   1.983  0.4923 -0.2296 -0.4164
    1SOL     OW 4021   0.698   2.365   1.894 -0.3566  0.1165  0.2721
    1SOL    HW2 4022   0.699   2.273   1.923  1.0758  0.5513  1.7254
    1SOL    HW3 4023   0.709   2.360   1.799 -1.7917 -1.2569  0.1530
    1SOL    MW4 4024   0.700   2.352   1.886 -0.3570 -0.0074  0.4481
    1SOL     OW 4025   0.459   2.467   1.971  0.3250 -0.4376  0.1412
    1SOL    HW2 4026   0.463   2.468   2.067 -0.8016 -0.3540  0.2012
    1SOL    HW3 4027   0.543   2.431   1.944  0.9720  0.2967  1.1398
    1SOL    MW4 4028   0.471   2.462   1.980  0.2617 -0.3295  0.2809
    1SOL     OW 4029   0.441   2.728   1.890 -0.1062 -0.3716 -0.3598
    1SOL    HW2 4030   0.452   2.636   1.916 -0.5129 -0.1695  0.5377
    1SOL    HW3 4031   0.358   2.754   1.930  0.2069  0.5041 -0.2856
    1SOL    MW4 4032   0.432   2.719   1.899 -0.1185 -0.2296 -0.2315
    1SOL     OW 4033   0.665   2.834   1.999  0.5269 -0.0407 -0.3401
    1SOL    HW2 4034   0.654   2.842   2.094 -1.4660 -0.7727 -0.4747
    1SOL    HW3 4035   0.582   2.796   1.969  1.6926 -1.1718 -2.2002
    1SOL    MW4 4036   0.653   2.830   2.008  0.4177 -0.2863 -0.6032
    1SOL     OW 4037   0.694   3.093   1.900 -0.0309  0.6882 -0.0191
    1SOL    HW2 4038   0.676   3.011   1.946  1.0382  0.0724 -0.6946
    1SOL    HW3 4039   0.700   3.069   1.808  1.5195  1.2995 -0.1015
    1SOL    MW4 4040   0.693   3.079   1.894  0.3148  0.6878 -0.1191
    1SOL     OW 4041   0.470   3.210   1.970 -0.5277 -0.0019  0.2636
    1SOL    HW2 4042   0.479   3.302   1.945  1.1521 -0.3154 -0.3403
    1SOL    HW3 4043   0.549   3.167   1.935 -1.8611 -1.9049 -0.4994
    1SOL    MW4 4044   0.482   3.216   1.962 -0.4820 -0.2944  0.0833
    1SOL     OW 4045   0.456   3.488   1.902 -0.1898 -0.1205  0.4019
    1SOL    HW2 4046   0.540   3.524   1.930  0.9381 -1.9493 -0.5490
    1SOL    HW3 4047   0.450   3.509   1.809 -0.2171 -1.0277  0.1877
    1SOL    MW4 4048   0.466   3.495   1.894 -0.0446 -0.4814  0.2482
    1SOL     OW 4049   0.674   3.610   2.001 -0.2249  0.0221  0.2738
    1SOL    HW2 4050   0.748   3.555   1.976  1.1941  1.5022  1.2137
    1SOL    HW3 4051   0.692   3.695   1.962 -0.4916  0.9168  2.0387
    1SOL    MW4 4052   0.686   3.614   1.993 -0.0729  0.3355  0.6307
    1SOL     OW 4053   0.681   3.897   1.885 -0.3138 -0.1432  0.3154
    1SOL    HW2 4054   0.755   3.947   1.920  0.1716  0.0175 -0.9243
    1SOL    HW3 4055   0.694   3.898   1.790 -0.6888 -2.0087  0.2205
    1SOL    MW4 4056   0.692   3.903   1.877 -0.2992 -0.3681  0.1394
    1SOL     OW 4057   0.429   4.009   1.983 -0.1691 -0.0756 -0.3800
    1SOL    HW2 4058   0.429   4.101   1.957  0.4061  0.0214 -0.0513
    1SOL    HW3 4059   0.507   3.972   1.942 -0.1326 -0.2987 -0.1146
    1SOL    MW4 4060   0.439   4.017   1.974 -0.0884 -0.0925 -0.3015
    1SOL     OW 4061   0.415   4.284   1.914  0.1622 -0.2120  0.1435
    1SOL    HW2 4062   0.337   4.336   1.932 -0.1914 -1.0341  1.0316
    1SOL    HW3 4063   0.425   4.288   1.819  0.4002  1.8261  0.2418
    1SOL    MW4 4064   0.406   4.291   1.904  0.1470 -0.0515  0.2736
    1SOL     OW 4065   0.653   4.399   2.001  0.0867 -0.1794 -0.0701
    1SOL    HW2 4066   0.723   4.352   1.955  0.8809  1.3015 -0.4091
    1SOL    HW3 4067   0.572   4.359   1.968  0.7579 -1.7253  0.1306
    1SOL    MW4 4068   0.651   4.387   1.990  0.2801 -0.1874 -0.0885
    1SOL     OW 4069   1.130   4.657   1.878  0.3322  0.1660  0.2400
    1SOL    HW2 4070   1.198   4.704   1.926  0.0572  0.4113  0.3889
    1SOL    HW3 4071   1.136   4.566   1.909  2.1295 -0.3200 -1.4285
    1SOL    MW4 4072   1.140   4.651   1.888  0.5330  0.1340  0.0395
    1SOL     OW 4073   0.910   0.121   1.989 -0.7572 -0.4660  0.6820
    1SOL    HW2 4074   0.981   0.079   1.940 -1.0982  0.5002 -0.6847
    1SOL    HW3 4075   0.830   0.087   1.948 -1.0356  1.0997 -0.1098
    1SOL    MW4 4076   0.909   0.111   1.977 -0.8389 -0.1319  0.3973
    1SOL     OW 4077   0.890   0.369   1.878 -0.2656  0.0326  0.1217
    1SOL    HW2 4078   0.956   0.421   1.924 -0.2739 -0.9805  1.2836
    1SOL    HW3 4079   0.892   0.284   1.920 -1.6480 -0.3134 -0.4722
    1SOL    MW4 4080   0.899   0.365   1.889 -0.4490 -0.1467  0.1966
    1SOL     OW 4081   1.109   0.531   2.008  0.1961 -0.6635  0.1844
    1SOL    HW2 4082   1.178   0.482   1.962 -0.9120 -2.1143  0.0320
    1SOL    HW3 4083   1.102   0.613   1.960  2.2337 -0.2281  0.5631
    1SOL    MW4 4084   1.117   0.535   1.995  0.3188 -0.7975  0.2143
    1SOL     OW 4085   1.090   0.759   1.852  0.2085  0.1366 -0.0302
    1SOL    HW2 4086   1.169   0.800   1.887  1.1276 -0.9431 -0.8121
    1SOL    HW3 4087   1.018   0.811   1.888  1.2934  1.5806  0.0985
    1SOL    MW4 4088   1.091   0.771   1.861  0.4728  0.1846 -0.1165
    1SOL     OW 4089   0.879   0.886   1.956 -0.2622 -0.1700 -0.0962
    1SOL    HW2 4090   0.853   0.874   2.047  0.9690 -0.2202  0.2532
    1SOL    HW3 4091   0.884   0.981   1.945 -0.7136 -0.1574 -0.2004
    1SOL    MW4 4092   0.876   0.897   1.966 -0.1594 -0.1749 -0.0638
    1SOL     OW 4093   0.919   1.159   1.883 -0.3553  0.0498 -0.3307
    1SOL    HW2 4094   0.842   1.213   1.900 -1.1225 -1.3370  0.7018
    1SOL    HW3 4095   0.928   1.160   1.788  0.0098  2.4666 -0.3119
    1SOL    MW4 4096   0.910   1.166   1.873 -0.4084  0.1856 -0.1919
    1SOL     OW 4097   1.144   1.321   2.010 -0.1779 -0.3396  0.4940
    1SOL    HW2 4098   1.139   1.411   1.977  0.1477 -0.2199  0.7765
    1SOL    HW3 4099   1.070   1.277   1.968  2.1871 -1.0774 -3.1481
    1SOL    MW4 4100   1.133   1.327   2.000  0.1770 -0.4213  0.0505
    1SOL     OW 4101   1.141   1.573   1.922 -0.5072 -0.2321  0.2505
    1SOL    HW2 4102   1.060   1.608   1.959 -0.1884  1.0843 -0.2586
    1SOL    HW3 4103   1.120   1.556   1.830  0.4057  2.2751 -0.4672
    1SOL    MW4 4104   1.128   1.575   1.915 -0.3449  0.2724  0.0887
    1SOL     OW 4105   0.888   1.679   1.986 -0.5893 -0.1397  0.5870
    1SOL    HW2 4106   0.868   1.770   1.962 -1.7377 -0.1673  1.4343
    1SOL    HW3 4107   0.809   1.630   1.964 -0.1992 -0.8412  0.7334
    1SOL    MW4 4108   0.875   1.685   1.980 -0.6893 -0.2358  0.7181
    1SOL     OW 4109   0.872   1.949   1.927 -0.1007 -0.1654  0.2477
    1SOL    HW2 4110   0.806   2.016   1.943 -0.8407 -0.7430 -0.3862
    1SOL    HW3 4111   0.891   1.955   1.834  2.1550  1.2816  0.7559
    1SOL    MW4 4112   0.866   1.959   1.917  0.0992 -0.0507  0.2311
    1SOL     OW 4113   1.109   2.059   2.017  0.1207  0.2531  0.0627
    1SOL    HW2 4114   1.107   2.147   1.978 -1.0465  1.2974  2.3506
    1SOL    HW3 4115   1.021   2.024   2.000  0.5460 -0.4288 -0.7354
    1SOL    MW4 4116   1.097   2.066   2.010  0.0230  0.3006  0.2592
    1SOL     OW 4117   1.130   2.314   1.887 -0.5895 -0.2391 -0.4067
    1SOL    HW2 4118   1.208   2.366   1.905 -0.4724 -0.4773 -0.2080
    1SOL    HW3 4119   1.120   2.318   1.792  0.1495 -0.8895 -0.5231
    1SOL    MW4 4120   1.139   2.321   1.877 -0.4766 -0.3564 -0.3958
    1SOL     OW 4121   0.940   2.482   2.029 -0.5090  0.2758 -0.4425
    1SOL    HW2 4122   1.005   2.428   1.984 -1.3493 -2.0595  1.1219
    1SOL    HW3 4123   0.856   2.456   1.991 -1.2026 -1.5245  2.2099
    1SOL    MW4 4124   0.938   2.472   2.018 -0.7114 -0.2697  0.1137
    1SOL     OW 4125   0.903   2.732   1.899 -0.1953  0.1574  0.2030
    1SOL    HW2 4126   0.928   2.652   1.944 -0.8460 -0.0047  0.2792
    1SOL    HW3 4127   0.822   2.759   1.941  1.1035  2.0192  1.6319
    1SOL    MW4 4128   0.896   2.725   1.910 -0.1098  0.3815  0.4016
    1SOL     OW 4129   1.127   2.853   1.977 -0.1007 -0.3895 -0.2809
    1SOL    HW2 4130   1.112   2.841   2.071  0.3017 -2.0729 -0.4079
    1SOL    HW3 4131   1.048   2.819   1.936 -1.0364  1.9794 -0.5095
    1SOL    MW4 4132   1.115   2.847   1.984 -0.1711 -0.2992 -0.3278
    1SOL     OW 4133   1.156   3.118   1.905  0.3001 -0.4496  0.1630
    1SOL    HW2 4134   1.075   3.150   1.946 -0.0794 -2.2761  0.9175
    1SOL    HW3 4135   1.155   3.024   1.921  1.9144 -0.6943 -1.0252
    1SOL    MW4 4136   1.145   3.110   1.913  0.4629 -0.7229  0.1059
    1SOL     OW 4137   0.928   3.221   1.990  0.3336  0.0392  0.3809
    1SOL    HW2 4138   0.923   3.252   2.081 -0.9882  1.6087 -0.2122
    1SOL    HW3 4139   0.846   3.171   1.978  0.2040  0.3817 -0.1483
    1SOL    MW4 4140   0.916   3.218   2.001  0.1420  0.2916  0.2327
    1SOL     OW 4141   0.908   3.494   1.910 -0.1127  0.0679  0.2931
    1SOL    HW2 4142   0.915   3.399   1.917 -1.0604  0.0883  1.7454
    1SOL    HW3 4143   0.884   3.510   1.819 -2.2863 -1.2563  0.5856
    1SOL    MW4 4144   0.906   3.484   1.899 -0.5245 -0.1042  0.5233
    1SOL     OW 4145   1.149   3.627   1.981 -0.0482 -0.1813 -0.1721
    1SOL    HW2 4146   1.152   3.634   2.076 -1.4753  1.0891 -0.2157
    1SOL    HW3 4147   1.068   3.579   1.963  0.1178 -0.2444 -0.7688
    1SOL    MW4 4148   1.139   3.621   1.991 -0.2145 -0.0219 -0.2565
    1SOL     OW 4149   1.129   3.902   1.889 -0.0740  0.4561  0.5276
    1SOL    HW2 4150   1.137   3.815   1.927  1.0306  0.4087  0.2108
    1SOL    HW3 4151   1.120   3.887   1.795  1.2295  0.7103  0.3493
    1SOL    MW4 4152   1.129   3.889   1.881  0.2438  0.4835  0.4623
    1SOL     OW 4153   0.876   4.056   2.020 -0.1411  0.0793 -0.0775
    1SOL    HW2 4154   0.882   4.084   2.111 -2.1337  0.5174 -0.0575
    1SOL    HW3 4155   0.960   4.013   2.002  0.5106  0.5519  1.7595
    1SOL    MW4 4156   0.888   4.054   2.030 -0.3180  0.1998  0.1676
    1SOL     OW 4157   0.893   4.295   1.886 -0.5552  0.0581  0.0507
    1SOL    HW2 4158   0.976   4.332   1.918 -1.2622  1.5371  0.1784
    1SOL    HW3 4159   0.893   4.205   1.920  0.9279  0.0814  0.1672
    1SOL    MW4 4160   0.904   4.288   1.895 -0.4528  0.2565  0.0830
    1SOL     OW 4161   1.128   4.406   1.970  0.2142  0.0648  0.0453
    1SOL    HW2 4162   1.137   4.395   2.065  0.6781  0.8376  0.0949
    1SOL    HW3 4163   1.204   4.361   1.933  0.6880  0.7981  0.1103
    1SOL    MW4 4164   1.139   4.399   1.978  0.3378  0.2632  0.0604
    1SOL     OW 4165   1.547   4.650   1.857 -0.2252 -0.1569 -0.2005
    1SOL    HW2 4166   1.630   4.693   1.879 -0.7894  0.3655  1.0058
    1SOL    HW3 4167   1.554   4.563   1.896 -0.2671 -0.0805 -0.0178
    1SOL    MW4 4168   1.559   4.644   1.865 -0.3052 -0.0782 -0.0173
    1SOL     OW 4169   1.357   0.133   1.988  0.1434  0.4030  0.0530
    1SOL    HW2 4170   1.371   0.123   2.082 -0.1538 -0.6856 -0.0045
    1SOL    HW3 4171   1.432   0.089   1.947  0.2953  0.9105 -0.2188
    1SOL    MW4 4172   1.369   0.126   1.995  0.1242  0.3263  0.0094
    1SOL     OW 4173   1.290   0.373   1.879 -0.2790 -0.0871 -0.6541
    1SOL    HW2 4174   1.323   0.285   1.901 -1.0020 -0.0537  0.6562
    1SOL    HW3 4175   1.282   0.372   1.784 -1.5231 -1.9050 -0.5605
    1SOL    MW4 4176   1.294   0.361   1.869 -0.5385 -0.3226 -0.4689
    1SOL     OW 4177   1.509   0.506   1.999  0.5745  0.1148 -0.0694
    1SOL    HW2 4178   1.570   0.458   1.943 -0.2943 -1.6609  0.4384
    1SOL    HW3 4179   1.426   0.503   1.952  0.0929 -0.4575  0.7966
    1SOL    MW4 4180   1.506   0.499   1.986  0.3963 -0.1950  0.1117
    1SOL     OW 4181   1.537   0.765   1.912 -0.0774  0.1511  0.5543
    1SOL    HW2 4182   1.616   0.814   1.934  0.3660  0.4762 -1.7162
    1SOL    HW3 4183   1.553   0.677   1.945  1.4867  0.0552 -0.4398
    1SOL    MW4 4184   1.549   0.760   1.919  0.1874  0.1814  0.1237
    1SOL     OW 4185   1.307   0.901   1.957 -0.5247  0.3648 -0.4591
    1SOL    HW2 4186   1.312   0.903   2.053  0.6186  1.3160 -0.5286
    1SOL    HW3 4187   1.384   0.851   1.930 -1.1848 -0.4443 -0.8666
    1SOL    MW4 4188   1.317   0.895   1.966 -0.4610  0.3835 -0.5220
    1SOL     OW 4189   1.337   1.180   1.889 -0.5256 -0.3293  0.3833
    1SOL    HW2 4190   1.336   1.090   1.920  2.4136 -0.1549  1.1484
    1SOL    HW3 4191   1.275   1.226   1.945 -1.1029 -1.6053  0.8052
    1SOL    MW4 4192   1.329   1.174   1.900 -0.2140 -0.4746  0.5399
    1SOL     OW 4193   1.571   1.283   1.982  0.4089  0.1636 -0.2861
    1SOL    HW2 4194   1.578   1.366   1.934 -0.4614  0.2968 -0.2018
    1SOL    HW3 4195   1.484   1.251   1.960  1.2743 -1.4410 -1.4466
    1SOL    MW4 4196   1.560   1.290   1.972  0.4082 -0.0305 -0.4281
    1SOL     OW 4197   1.558   1.538   1.846 -0.0623  0.4122 -0.2256
    1SOL    HW2 4198   1.634   1.571   1.894 -0.2008  1.5560 -0.7828
    1SOL    HW3 4199   1.487   1.597   1.871 -0.4389  0.1922 -0.7886
    1SOL    MW4 4200   1.559   1.550   1.856 -0.1304  0.5341 -0.3736
    1SOL     OW 4201   1.375   1.704   1.954  0.1503 -0.5435 -0.2245
    1SOL    HW2 4202   1.375   1.689   2.048 -0.9767 -0.8507 -0.2582
    1SOL    HW3 4203   1.295   1.662   1.923  0.8734 -1.0739 -1.4233
    1SOL    MW4 4204   1.364   1.697   1.962  0.0970 -0.6540 -0.3871
    1SOL     OW 4205   1.293   1.951   1.864 -0.1389  0.5875 -0.2905
    1SOL    HW2 4206   1.302   1.862   1.898  1.4955  1.0313  0.4830
    1SOL    HW3 4207   1.240   1.997   1.929  0.1779  0.5491 -0.0068
    1SOL    MW4 4208   1.287   1.945   1.877  0.1186  0.6409 -0.1510
    1SOL     OW 4209   1.567   2.025   1.936 -0.3299  0.3325 -0.2940
    1SOL    HW2 4210   1.560   2.121   1.939 -0.2070  0.3659 -1.0870
    1SOL    HW3 4211   1.484   1.997   1.898 -1.0237  0.0225  1.3869
    1SOL    MW4 4212   1.555   2.034   1.932 -0.4053  0.2961 -0.1767
    1SOL     OW 4213   1.592   2.309   1.905  0.7104 -0.5130 -0.1010
    1SOL    HW2 4214   1.680   2.344   1.918 -0.6635  2.8907  0.4001
    1SOL    HW3 4215   1.574   2.323   1.812  0.1648  0.0611  0.0909
    1SOL    MW4 4216   1.601   2.315   1.894  0.4572  0.0119 -0.0095
    1SOL     OW 4217   1.341   2.453   1.965 -0.1533 -0.3279  0.0949
    1SOL    HW2 4218   1.349   2.547   1.950  0.4942 -0.5989 -1.3424
    1SOL    HW3 4219   1.432   2.421   1.968 -0.3880 -1.3849 -2.7571
    1SOL    MW4 4220   1.354   2.461   1.964 -0.0989 -0.5031 -0.4712
    1SOL     OW 4221   1.362   2.724   1.890  0.3784  0.0916 -0.1053
    1SOL    HW2 4222   1.282   2.768   1.919  0.3306  0.5438 -0.9156
    1SOL    HW3 4223   1.354   2.720   1.794  0.8279 -0.8175 -0.1137
    1SOL    MW4 4224   1.351   2.729   1.881  0.4313  0.0315 -0.2133
    1SOL     OW 4225   1.592   2.835   2.007  0.8167 -0.3431  0.3606
    1SOL    HW2 4226   1.663   2.783   1.968 -0.5323 -0.8982 -1.4310
    1SOL    HW3 4227   1.513   2.803   1.964 -0.3212  1.5714  0.9679
    1SOL    MW4 4228   1.591   2.824   1.996  0.4886 -0.1640  0.2042
    1SOL     OW 4229   1.590   3.118   1.889  0.6512 -0.4230 -0.2247
    1SOL    HW2 4230   1.589   3.029   1.926 -0.1652 -0.6337 -0.7339
    1SOL    HW3 4231   1.597   3.105   1.795  1.5809  0.0857 -0.2291
    1SOL    MW4 4232   1.591   3.104   1.881  0.6661 -0.3836 -0.2925
    1SOL     OW 4233   1.398   3.250   2.010  0.1777 -0.0318  0.1050
    1SOL    HW2 4234   1.471   3.210   1.963 -0.3841 -1.4520  0.4176
    1SOL    HW3 4235   1.321   3.202   1.979 -0.4682  0.5572  0.7813
    1SOL    MW4 4236   1.397   3.238   1.999  0.0184 -0.1416  0.2353
    1SOL     OW 4237   1.344   3.488   1.860 -0.1176 -0.0231 -0.0458
    1SOL    HW2 4238   1.360   3.406   1.906  0.2245  0.9525  1.6184
    1SOL    HW3 4239   1.276   3.531   1.910 -0.0698  0.8578 -0.7226
    1SOL    MW4 4240   1.337   3.483   1.872 -0.0662  0.2217  0.0845
    1SOL     OW 4241   1.575   3.591   2.000 -0.1851 -0.4131  0.1998
    1SOL    HW2 4242   1.558   3.584   2.094 -0.7183 -1.6395  0.0341
    1SOL    HW3 4243   1.501   3.546   1.959  0.6939 -1.0306 -0.7565
    1SOL    MW4 4244   1.563   3.584   2.007 -0.1394 -0.6564  0.0517
    1SOL     OW 4245   1.554   3.871   1.910  0.1373 -0.8035  0.1157
    1SOL    HW2 4246   1.633   3.912   1.945  0.7852 -1.6297 -0.3732
    1SOL    HW3 4247   1.563   3.779   1.931 -0.7176 -0.8991  0.0869
    1SOL    MW4 4248   1.566   3.865   1.917  0.1100 -0.9251  0.0474
    1SOL     OW 4249   1.341   4.024   1.996 -0.0511 -0.2495  0.0386
    1SOL    HW2 4250   1.414   3.974   1.961 -0.6850 -1.6499  0.6803
    1SOL    HW3 4251   1.263   3.978   1.966 -0.6567  0.5811  0.3124
    1SOL    MW4 4252   1.341   4.011   1.988 -0.2147 -0.3252  0.1594
    1SOL     OW 4253   1.345   4.263   1.873 -0.1340  0.1676 -0.3268
    1SOL    HW2 4254   1.347   4.179   1.919 -0.1892  0.1363 -0.3822
    1SOL    HW3 4255   1.344   4.239   1.780  0.3126  0.2353 -0.3491
    1SOL    MW4 4256   1.345   4.249   1.866 -0.0823  0.1726 -0.3370
    1SOL     OW 4257   1.565   4.402   1.976 -0.3304  0.2041 -0.2439
    1SOL    HW2 4258   1.559   4.394   2.071  1.6182 -0.4908 -0.1460
    1SOL    HW3 4259   1.484   4.365   1.943 -0.5504 -0.5434  1.1099
    1SOL    MW4 4260   1.553   4.396   1.984 -0.1022  0.0138 -0.0522
    1SOL     OW 4261   1.990   4.645   1.858 -0.4135  0.5469 -0.2117
    1SOL    HW2 4262   2.067   4.679   1.904 -0.4281  0.7496 -0.3377
    1SOL    HW3 4263   1.977   4.558   1.895  0.0682  0.3869 -0.4161
    1SOL    MW4 4264   1.998   4.638   1.869 -0.3520  0.5522 -0.2555
    1SOL     OW 4265   1.770   0.119   1.943 -0.8173 -0.0589 -0.1959
    1SOL    HW2 4266   1.796   0.109   2.034 -1.1586  0.0357 -0.0862
    1SOL    HW3 4267   1.839   0.075   1.893  0.3675  1.5710 -0.0037
    1SOL    MW4 4268   1.782   0.112   1.948 -0.7060  0.1686 -0.1560
    1SOL     OW 4269   1.738   0.381   1.865 -0.0706  0.0873 -0.1291
    1SOL    HW2 4270   1.748   0.289   1.890 -0.0410  0.5921  1.7893
    1SOL    HW3 4271   1.739   0.380   1.769 -1.1901 -2.0344 -0.1411
    1SOL    MW4 4272   1.740   0.368   1.856 -0.2145 -0.1260  0.1224
    1SOL     OW 4273   1.974   0.501   1.981 -0.5144  0.0601  0.0558
    1SOL    HW2 4274   1.981   0.587   1.940 -1.2114  0.0294 -0.1360
    1SOL    HW3 4275   1.892   0.465   1.948 -0.3581 -0.5696  0.3422
    1SOL    MW4 4276   1.964   0.508   1.972 -0.5857 -0.0270  0.0683
    1SOL     OW 4277   2.002   0.780   1.896  0.5416  0.4080  0.1748
    1SOL    HW2 4278   2.079   0.830   1.925  1.4175 -0.1499 -1.1341
    1SOL    HW3 4279   1.929   0.840   1.911  1.2720  1.1288  1.0001
    1SOL    MW4 4280   2.003   0.795   1.902  0.7536  0.4295  0.1111
    1SOL     OW 4281   1.772   0.903   1.974 -0.0358  0.4623  0.2022
    1SOL    HW2 4282   1.772   0.989   1.932 -0.0341  0.6935  0.6773
    1SOL    HW3 4283   1.792   0.920   2.066  0.5132 -0.1010  0.1909
    1SOL    MW4 4284   1.775   0.916   1.981  0.0368  0.4184  0.2636
    1SOL     OW 4285   1.749   1.128   1.815  0.0557 -0.2646  0.5679
    1SOL    HW2 4286   1.671   1.170   1.851  1.0522  2.8669 -0.7192
    1SOL    HW3 4287   1.822   1.170   1.860  1.1125 -0.2642 -1.0853
    1SOL    MW4 4288   1.748   1.139   1.825  0.3266  0.1485  0.1800
    1SOL     OW 4289   1.988   1.247   1.925  0.0226  0.3165  0.3470
    1SOL    HW2 4290   2.070   1.211   1.890 -0.7536 -1.8218  0.6558
    1SOL    HW3 4291   2.007   1.265   2.018  0.7519  1.8391 -0.0755
    1SOL    MW4 4292   2.002   1.245   1.933  0.0162  0.2351  0.3320
    1SOL     OW 4293   2.016   1.516   1.862 -0.4566  0.0144 -0.1578
    1SOL    HW2 4294   2.014   1.423   1.883  3.1510  0.0175  0.4252
    1SOL    HW3 4295   2.001   1.520   1.768 -0.7159 -1.1394 -0.1655
    1SOL    MW4 4296   2.013   1.504   1.852 -0.0148 -0.1373 -0.0820
    1SOL     OW 4297   1.783   1.627   1.988  0.1602 -0.1561  0.1453
    1SOL    HW2 4298   1.792   1.717   1.956  0.5147  0.3073  1.5136
    1SOL    HW3 4299   1.864   1.584   1.959  1.2126  0.6889  1.7549
    1SOL    MW4 4300   1.795   1.633   1.980  0.3459  0.0165  0.5382
    1SOL     OW 4301   1.816   1.882   1.864 -0.2235  0.3705 -0.2596
    1SOL    HW2 4302   1.736   1.934   1.873  0.5201  1.8336 -1.7953
    1SOL    HW3 4303   1.830   1.877   1.769  0.7643 -1.0112 -0.0486
    1SOL    MW4 4304   1.807   1.888   1.853  0.0050  0.3815 -0.4345
    1SOL     OW 4305   2.041   2.007   1.970 -0.1781  0.2216  0.2996
    1SOL    HW2 4306   2.108   1.980   1.908 -0.7657  1.7718 -1.0604
    1SOL    HW3 4307   1.960   1.967   1.938 -0.3919  0.6139  0.3331
    1SOL    MW4 4308   2.039   1.998   1.958 -0.2840  0.4780  0.1246
    1SOL     OW 4309   2.050   2.276   1.881  0.2326 -0.0241 -0.4123
    1SOL    HW2 4310   2.135   2.314   1.906  0.0847  0.0297  0.0116
    1SOL    HW3 4311   2.056   2.184   1.907  1.0111 -0.5940 -2.4525
    1SOL    MW4 4312   2.062   2.269   1.888  0.3157 -0.0925 -0.6255
    1SOL     OW 4313   1.839   2.436   1.955 -0.2502 -0.1645  0.1212
    1SOL    HW2 4314   1.850   2.451   2.049 -1.6889  0.4293  0.2086
    1SOL    HW3 4315   1.905   2.370   1.934  0.1070 -0.2907  1.5432
    1SOL    MW4 4316   1.849   2.429   1.965 -0.3928 -0.1030  0.3203
    1SOL     OW 4317   1.789   2.690   1.883  0.2895 -0.2792 -0.2615
    1SOL    HW2 4318   1.794   2.597   1.907 -0.9478 -0.3939 -0.4183
    1SOL    HW3 4319   1.796   2.689   1.787 -0.3551 -0.2604 -0.3085
    1SOL    MW4 4320   1.791   2.677   1.873  0.0412 -0.2918 -0.2884
    1SOL     OW 4321   2.021   2.840   1.970 -0.2616  0.1832 -0.0133
    1SOL    HW2 4322   2.011   2.835   2.065 -0.6893  1.7837  0.0428
    1SOL    HW3 4323   1.943   2.796   1.936 -0.1456 -0.3251  0.3741
    1SOL    MW4 4324   2.009   2.833   1.978 -0.3028  0.3271  0.0452
    1SOL     OW 4325   2.047   3.096   1.841 -0.3982 -0.2322 -0.2143
    1SOL    HW2 4326   1.981   3.149   1.886 -1.9689 -0.2156 -2.4525
    1SOL    HW3 4327   2.037   3.008   1.878 -0.5198  0.1440  0.6583
    1SOL    MW4 4328   2.037   3.091   1.852 -0.6216 -0.1802 -0.3945
    1SOL     OW 4329   1.829   3.216   1.966 -0.1243  0.3092  0.3882
    1SOL    HW2 4330   1.826   3.205   2.061  0.0603 -2.1138  0.1387
    1SOL    HW3 4331   1.743   3.186   1.935  0.8562 -1.6985 -0.4539
    1SOL    MW4 4332   1.817   3.210   1.974  0.0294 -0.2754  0.2443
    1SOL     OW 4333   1.796   3.484   1.876 -0.3585  0.5835 -0.0789
    1SOL    HW2 4334   1.804   3.396   1.912  0.9407  0.6296 -0.2573
    1SOL    HW3 4335   1.714   3.517   1.913 -0.0424 -0.1074  1.2568
    1SOL    MW4 4336   1.786   3.477   1.886 -0.1453  0.4988  0.0738
    1SOL     OW 4337   2.003   3.655   1.948  0.0219 -0.2040  0.3571
    1SOL    HW2 4338   1.988   3.747   1.927 -0.7409 -0.1248  1.1848
    1SOL    HW3 4339   1.921   3.612   1.924 -0.2243 -0.3897  1.5130
    1SOL    MW4 4340   1.990   3.661   1.942 -0.1112 -0.2182  0.6188
    1SOL     OW 4341   2.009   3.922   1.906  0.2602  0.2917 -0.4289
    1SOL    HW2 4342   2.091   3.963   1.931 -0.0319  0.7038 -0.1424
    1SOL    HW3 4343   2.013   3.915   1.810  1.0568 -0.6204 -0.3364
    1SOL    MW4 4344   2.020   3.926   1.896  0.3264  0.2255 -0.3788
    1SOL     OW 4345   1.768   4.001   1.993 -0.0098 -0.1307  0.3099
    1SOL    HW2 4346   1.769   4.084   1.945  0.8900 -0.1294  0.3228
    1SOL    HW3 4347   1.850   3.959   1.970  0.3746 -0.1934  1.7339
    1SOL    MW4 4348   1.779   4.007   1.984  0.1596 -0.1383  0.4995
    1SOL     OW 4349   1.768   4.227   1.870  0.0071 -0.3735  0.4402
    1SOL    HW2 4350   1.683   4.263   1.895  0.0185  0.2580 -0.4003
    1SOL    HW3 4351   1.771   4.238   1.774  1.5700  0.8307  0.6053
    1SOL    MW4 4352   1.757   4.233   1.860  0.2148 -0.1307  0.3511
    1SOL     OW 4353   2.003   4.375   1.967  0.0118 -0.4614 -0.3266
    1SOL    HW2 4354   2.079   4.326   1.934  0.0217 -0.8052  0.2000
    1SOL    HW3 4355   1.927   4.327   1.934  0.0097  0.5823 -1.8950
    1SOL    MW4 4356   2.003   4.362   1.958  0.0129 -0.3691 -0.4640
    1SOL     OW 4357   2.436   0.022   1.863 -0.0430 -0.2317  0.0470
    1SOL    HW2 4358   2.522   0.060   1.884  0.1917 -0.1849 -0.9815
    1SOL    HW3 4359   2.435  -0.062   1.910  0.6456 -0.3189 -0.0848
    1SOL    MW4 4360   2.447   0.016   1.872  0.0789 -0.2371 -0.1060
    1SOL     OW 4361   2.201   0.118   1.968  0.3239 -0.1319 -0.4233
    1SOL    HW2 4362   2.216   0.108   2.062 -1.4769 -0.4099 -0.1488
    1SOL    HW3 4363   2.276   0.075   1.927  2.0140  1.4901  0.8772
    1SOL    MW4 4364   2.213   0.111   1.975  0.3095  0.0454 -0.2154
    1SOL     OW 4365   2.192   0.365   1.865 -0.4214 -0.5149 -0.0557
    1SOL    HW2 4366   2.192   0.275   1.898  0.0907 -0.4924  0.0008
    1SOL    HW3 4367   2.109   0.402   1.896  0.1865 -0.4018  1.4572
    1SOL    MW4 4368   2.181   0.358   1.873 -0.2732 -0.4970  0.1513
    1SOL     OW 4369   2.427   0.422   2.005  0.3663 -0.5613  0.3891
    1SOL    HW2 4370   2.499   0.395   1.948 -1.3380 -1.2599 -1.5131
    1SOL    HW3 4371   2.348   0.402   1.955 -1.1250  2.0792  1.5466
    1SOL    MW4 4372   2.426   0.416   1.991 -0.0551 -0.3051  0.2908
    1SOL     OW 4373   2.426   0.690   1.884 -0.7370  0.0841 -0.1441
    1SOL    HW2 4374   2.433   0.599   1.914  0.5349  0.4228  0.6335
    1SOL    HW3 4375   2.437   0.684   1.789 -1.1651 -0.6253 -0.1565
    1SOL    MW4 4376   2.429   0.677   1.875 -0.6256  0.0352 -0.0432
    1SOL     OW 4377   2.247   0.885   1.991  0.7001  0.0166  0.3396
    1SOL    HW2 4378   2.253   0.888   2.087  0.2300  0.6822  0.3533
    1SOL    HW3 4379   2.316   0.825   1.964 -0.7794 -2.1522  1.2558
    1SOL    MW4 4380   2.257   0.877   2.000  0.4430 -0.1817  0.4624
    1SOL     OW 4381   2.216   1.129   1.860  0.7715  0.3009  0.4586
    1SOL    HW2 4382   2.283   1.193   1.884  0.7153 -0.0417  1.5325
    1SOL    HW3 4383   2.237   1.051   1.912 -0.9748  0.4764  1.4683
    1SOL    MW4 4384   2.228   1.127   1.870  0.5336  0.2789  0.7335
    1SOL     OW 4385   2.418   1.267   1.953  0.0693 -0.5675 -0.1356
    1SOL    HW2 4386   2.433   1.239   2.044 -3.0922  0.5272  0.7949
    1SOL    HW3 4387   2.463   1.352   1.947  0.3230 -0.6583  0.4101
    1SOL    MW4 4388   2.426   1.275   1.964 -0.3142 -0.4351  0.0591
    1SOL     OW 4389   2.501   1.520   1.886 -0.4050  0.0169  0.2048
    1SOL    HW2 4390   2.416   1.562   1.900 -0.2352  0.0549  1.1168
    1SOL    HW3 4391   2.517   1.530   1.792 -0.7383  1.2856  0.2755
    1SOL    MW4 4392   2.492   1.527   1.875 -0.4265  0.1892  0.3345
    1SOL     OW 4393   2.248   1.671   1.917 -0.3734  0.5263  0.0248
    1SOL    HW2 4394   2.246   1.673   2.012  0.3568  0.0962  0.0540
    1SOL    HW3 4395   2.172   1.617   1.893 -1.0393  1.3277  0.3287
    1SOL    MW4 4396   2.237   1.664   1.926 -0.3648  0.5752  0.0689
    1SOL     OW 4397   2.281   1.926   1.816 -0.1209  0.3269  0.0324
    1SOL    HW2 4398   2.360   1.964   1.855  0.3324  0.8780 -1.3986
    1SOL    HW3 4399   2.278   1.837   1.851  0.8080  0.4837  0.5544
    1SOL    MW4 4400   2.291   1.920   1.826  0.0618  0.4202 -0.0874
    1SOL     OW 4401   2.506   2.014   1.935 -0.0110  0.2099  0.2400
    1SOL    HW2 4402   2.598   1.994   1.917  0.2147 -0.2371  1.8244
    1SOL    HW3 4403   2.500   2.109   1.925  0.8644  0.3684  1.1740
    1SOL    MW4 4404   2.517   2.024   1.931  0.1342  0.1719  0.5723
    1SOL     OW 4405   2.514   2.288   1.901  0.2504 -0.1603 -0.0146
    1SOL    HW2 4406   2.586   2.345   1.926  0.2715 -0.6275  1.0422
    1SOL    HW3 4407   2.436   2.343   1.909  0.4678  0.3268 -1.0985
    1SOL    MW4 4408   2.513   2.303   1.905  0.2818 -0.1578 -0.0182
    1SOL     OW 4409   2.276   2.409   1.944 -0.2725  0.0534  0.1420
    1SOL    HW2 4410   2.272   2.409   2.040 -0.2659  1.2635  0.1613
    1SOL    HW3 4411   2.258   2.500   1.920  1.4653  0.1431 -0.9140
    1SOL    MW4 4412   2.273   2.421   1.954 -0.0422  0.2248  0.0052
    1SOL     OW 4413   2.240   2.693   1.884 -0.0178 -0.0889 -0.5739
    1SOL    HW2 4414   2.162   2.741   1.910  0.5089  0.3555  0.1992
    1SOL    HW3 4415   2.237   2.692   1.788 -0.7341  0.3046 -0.5573
    1SOL    MW4 4416   2.230   2.699   1.875 -0.0429  0.0217 -0.4698
    1SOL     OW 4417   2.473   2.804   1.969  0.1926  0.2903 -0.3474
    1SOL    HW2 4418   2.468   2.893   1.935 -0.3622  0.4858  0.2396
    1SOL    HW3 4419   2.388   2.765   1.947  0.5398 -0.1896 -0.8618
    1SOL    MW4 4420   2.461   2.811   1.962  0.1652  0.2527 -0.3377
    1SOL     OW 4421   2.453   3.081   1.869  0.3905  0.0481  0.2574
    1SOL    HW2 4422   2.374   3.132   1.888 -0.4724 -0.5292 -1.6531
    1SOL    HW3 4423   2.460   3.082   1.773  1.9928 -0.9709  0.3397
    1SOL    MW4 4424   2.443   3.088   1.859  0.4878 -0.1626  0.0161
    1SOL     OW 4425   2.247   3.238   1.970  0.0148 -0.2419 -0.0518
    1SOL    HW2 4426   2.237   3.221   2.064 -1.3644  0.9503  0.0318
    1SOL    HW3 4427   2.177   3.187   1.929  0.2235 -0.2585 -0.3869
    1SOL    MW4 4428   2.236   3.229   1.977 -0.1397 -0.0868 -0.0850
    1SOL     OW 4429   2.233   3.515   1.872 -0.3080  0.2684  0.6477
    1SOL    HW2 4430   2.227   3.425   1.906 -1.4119  0.3176  0.6090
    1SOL    HW3 4431   2.152   3.556   1.900  0.2069  1.2712  0.6836
    1SOL    MW4 4432   2.222   3.509   1.880 -0.3858  0.4072  0.6473
    1SOL     OW 4433   2.477   3.604   1.990  0.0515  0.2098  0.0773
    1SOL    HW2 4434   2.478   3.586   2.084 -0.5575  0.8557  0.2152
    1SOL    HW3 4435   2.392   3.574   1.961 -0.2958  1.2435 -0.0080
    1SOL    MW4 4436   2.466   3.598   1.999 -0.0749  0.4315  0.0842
    1SOL     OW 4437   2.468   3.857   1.869  0.2184 -0.6345 -0.0863
    1SOL    HW2 4438   2.393   3.904   1.906  0.3034 -0.7234  0.2048
    1SOL    HW3 4439   2.474   3.777   1.921  1.0803 -0.1966  0.5106
    1SOL    MW4 4440   2.459   3.852   1.881  0.3433 -0.5882  0.0309
    1SOL     OW 4441   2.258   4.022   1.970 -0.3110 -0.2000  0.2975
    1SOL    HW2 4442   2.267   4.030   2.065 -2.4505 -0.5989  0.5771
    1SOL    HW3 4443   2.263   4.112   1.938 -2.7588  0.2842  1.1485
    1SOL    MW4 4444   2.260   4.035   1.978 -0.9162 -0.1884  0.4469
    1SOL     OW 4445   2.243   4.283   1.883 -0.0690  0.2667  0.2513
    1SOL    HW2 4446   2.322   4.330   1.911 -1.7259  2.4513  1.4256
    1SOL    HW3 4447   2.240   4.294   1.788  0.9621  0.2512  0.2108
    1SOL    MW4 4448   2.253   4.290   1.874 -0.1516  0.5527  0.4007
    1SOL     OW 4449   2.451   4.429   1.980 -0.4000  0.4031 -0.0261
    1SOL    HW2 4450   2.444   4.401   2.071  1.2093  1.3923  0.4193
    1SOL    HW3 4451   2.528   4.384   1.946 -1.0704 -0.0717 -0.9419
    1SOL    MW4 4452   2.460   4.420   1.987 -0.2761  0.4706 -0.0881
    1SOL     OW 4453   2.924   0.006   1.862 -0.3359 -0.1057  0.0061
    1SOL    HW2 4454   2.996   0.052   1.905 -1.1718 -0.0098  1.3267
    1SOL    HW3 4455   2.925  -0.082   1.898 -0.8294 -0.1305 -0.0285
    1SOL    MW4 4456   2.933   0.001   1.872 -0.5114 -0.0963  0.1757
    1SOL     OW 4457   2.690   0.125   1.934 -0.2704  0.0193  0.0920
    1SOL    HW2 4458   2.699   0.112   2.028 -0.3555  1.0631  0.2529
    1SOL    HW3 4459   2.769   0.085   1.896  0.0863  0.1811  0.6615
    1SOL    MW4 4460   2.702   0.118   1.941 -0.2346  0.1784  0.1885
    1SOL     OW 4461   2.671   0.392   1.875  0.0981  0.3222  0.2886
    1SOL    HW2 4462   2.750   0.427   1.915  1.5713 -0.4672 -1.8724
    1SOL    HW3 4463   2.671   0.299   1.898  0.0354  0.2231 -0.1114
    1SOL    MW4 4464   2.681   0.384   1.884  0.2842  0.2050 -0.0492
    1SOL     OW 4465   2.918   0.485   1.992  0.5503 -0.4834  0.0735
    1SOL    HW2 4466   2.992   0.452   1.942  0.3028 -1.4408  0.3348
    1SOL    HW3 4467   2.914   0.578   1.971  0.8092 -0.7651 -1.2425
    1SOL    MW4 4468   2.927   0.493   1.982  0.5519 -0.6469 -0.0658
    1SOL     OW 4469   2.911   0.725   1.852 -0.1075 -0.0642 -0.2166
    1SOL    HW2 4470   2.979   0.784   1.884  0.4949 -0.2132 -1.1981
    1SOL    HW3 4471   2.829   0.770   1.873  0.3194  0.5705  0.1111
    1SOL    MW4 4472   2.909   0.739   1.859  0.0281 -0.0001 -0.3028
    1SOL     OW 4473   2.652   0.828   1.980 -0.0757  0.5447 -0.0972
    1SOL    HW2 4474   2.647   0.917   1.946 -0.6058  0.1727 -1.0049
    1SOL    HW3 4475   2.576   0.784   1.944 -0.1537 -0.1186  0.8508
    1SOL    MW4 4476   2.641   0.834   1.971 -0.1562  0.4081 -0.0919
    1SOL     OW 4477   2.640   1.111   1.854  0.7738  0.7982  0.1986
    1SOL    HW2 4478   2.556   1.149   1.879  1.4420  2.0849  0.5513
    1SOL    HW3 4479   2.657   1.146   1.766 -0.1963 -1.4101 -0.9149
    1SOL    MW4 4480   2.631   1.120   1.846  0.7339  0.6766  0.0981
    1SOL     OW 4481   2.880   1.218   1.955  0.2851 -0.4045 -0.0438
    1SOL    HW2 4482   2.880   1.312   1.937  1.5791 -0.4090 -0.1341
    1SOL    HW3 4483   2.793   1.188   1.931 -0.3765  0.9068  0.6897
    1SOL    MW4 4484   2.869   1.226   1.950  0.3686 -0.2319  0.0410
    1SOL     OW 4485   2.935   1.479   1.909  0.1581  0.2083 -0.4279
    1SOL    HW2 4486   3.001   1.539   1.944  0.4098 -0.0047 -0.5305
    1SOL    HW3 4487   2.953   1.476   1.815  0.6622 -0.6384 -0.3160
    1SOL    MW4 4488   2.946   1.486   1.901  0.2577  0.0684 -0.4268
    1SOL     OW 4489   2.719   1.651   1.986 -0.2008 -0.1917 -0.1353
    1SOL    HW2 4490   2.790   1.593   1.956 -0.0531  0.0462 -0.2489
    1SOL    HW3 4491   2.640   1.599   1.975 -0.1240 -0.1916 -0.7223
    1SOL    MW4 4492   2.718   1.636   1.981 -0.1709 -0.1603 -0.2277
    1SOL     OW 4493   2.746   1.905   1.887 -0.6084  0.2453  0.0867
    1SOL    HW2 4494   2.828   1.944   1.920 -0.1197 -0.0895 -0.7152
    1SOL    HW3 4495   2.746   1.816   1.922 -0.5628  0.1990 -0.0323
    1SOL    MW4 4496   2.757   1.899   1.896 -0.5381  0.1950 -0.0348
    1SOL     OW 4497   2.960   2.052   1.980  0.2939  0.1524  0.0382
    1SOL    HW2 4498   2.961   2.038   2.075  0.6559 -1.5340 -0.1969
    1SOL    HW3 4499   3.040   2.011   1.948 -0.2371 -0.0278 -1.1015
    1SOL    MW4 4500   2.970   2.045   1.988  0.2720 -0.0939 -0.1431
    1SOL     OW 4501   2.938   2.299   1.875 -0.1126  0.0960  0.2093
    1SOL    HW2 4502   3.011   2.343   1.918 -0.3027  0.0245  0.6124
    1SOL    HW3 4503   2.929   2.216   1.922  2.2148 -1.7899 -2.5170
    1SOL    MW4 4504   2.946   2.294   1.887  0.1693 -0.1621 -0.0973
    1SOL     OW 4505   2.728   2.449   1.978 -0.2136 -0.2721 -0.1190
    1SOL    HW2 4506   2.724   2.537   1.940 -1.2203  0.0998  0.8316
    1SOL    HW3 4507   2.800   2.406   1.932  1.0445  1.4326  0.2230
    1SOL    MW4 4508   2.737   2.455   1.967 -0.1805  0.0019  0.0515
    1SOL     OW 4509   2.706   2.711   1.808 -0.3927 -0.3064  0.1863
    1SOL    HW2 4510   2.620   2.719   1.849 -0.7603 -1.7050 -0.2794
    1SOL    HW3 4511   2.688   2.700   1.715  0.3164 -0.0299  0.0088
    1SOL    MW4 4512   2.692   2.711   1.801 -0.3476 -0.4544  0.1016
    1SOL     OW 4513   2.897   2.842   1.938 -0.1923  0.4007  0.5188
    1SOL    HW2 4514   2.899   2.932   1.907 -0.7808  0.3159  0.2289
    1SOL    HW3 4515   2.830   2.799   1.884  0.2961 -0.2807  0.4530
    1SOL    MW4 4516   2.888   2.848   1.927 -0.2055  0.2997  0.4718
    1SOL     OW 4517   2.907   3.104   1.877  0.3050 -0.3589 -0.0507
    1SOL    HW2 4518   2.982   3.149   1.915  0.7873  0.2191 -1.6441
    1SOL    HW3 4519   2.831   3.154   1.909  0.6317 -0.4423  0.8776
    1SOL    MW4 4520   2.907   3.116   1.886  0.4120 -0.2937 -0.1385
    1SOL     OW 4521   2.686   3.246   1.969 -0.0778 -0.1341  0.0587
    1SOL    HW2 4522   2.684   3.333   1.930  1.2400 -1.4102 -3.0092
    1SOL    HW3 4523   2.606   3.203   1.939  0.1718 -0.6050  0.0556
    1SOL    MW4 4524   2.675   3.252   1.960  0.1292 -0.3645 -0.3467
    1SOL     OW 4525   2.711   3.506   1.877  0.4937  0.3283  0.4668
    1SOL    HW2 4526   2.779   3.554   1.925 -0.3626  2.2978 -0.2333
    1SOL    HW3 4527   2.629   3.543   1.910 -0.1539  0.2919 -1.0780
    1SOL    MW4 4528   2.709   3.517   1.888  0.2952  0.5834  0.1706
    1SOL     OW 4529   2.922   3.652   1.975 -0.0622 -0.0211  0.0196
    1SOL    HW2 4530   2.910   3.625   2.066 -1.0788 -0.6681 -0.3061
    1SOL    HW3 4531   2.995   3.599   1.944  0.8834  0.8457  0.7150
    1SOL    MW4 4532   2.930   3.641   1.983 -0.0713  0.0079  0.0682
    1SOL     OW 4533   2.869   3.912   1.893  0.6760 -0.1131  0.2899
    1SOL    HW2 4534   2.880   3.820   1.919 -0.7644 -0.4246 -0.0985
    1SOL    HW3 4535   2.860   3.908   1.798  0.2770  0.3917  0.3066
    1SOL    MW4 4536   2.869   3.899   1.884  0.4334 -0.0875  0.2409
    1SOL     OW 4537   2.645   4.054   1.982  0.1269 -0.6684 -0.3196
    1SOL    HW2 4538   2.733   4.019   1.970  0.0492 -0.0432 -2.8948
    1SOL    HW3 4539   2.587   3.989   1.942 -0.5652 -0.8444  0.9271
    1SOL    MW4 4540   2.649   4.041   1.975  0.0253 -0.6094 -0.4950
    1SOL     OW 4541   2.687   4.307   1.888 -0.2102 -0.4230 -0.0838
    1SOL    HW2 4542   2.674   4.221   1.926  1.4191 -0.0553  1.3234
    1SOL    HW3 4543   2.691   4.291   1.793 -1.0387 -1.7245  0.0916
    1SOL    MW4 4544   2.686   4.294   1.880 -0.1047 -0.5460  0.1251
    1SOL     OW 4545   2.946   4.379   1.941  0.3192  0.0141 -0.0514
    1SOL    HW2 4546   2.956   4.382   2.036  1.4654 -1.0179 -0.1211
    1SOL    HW3 4547   2.854   4.358   1.927  0.0984  0.3797  0.8266
    1SOL    MW4 4548   2.935   4.376   1.952  0.4413 -0.0744  0.0553
    1SOL     OW 4549   3.349   4.605   1.880  0.1740 -0.2819  0.2982
    1SOL    HW2 4550   3.347   4.518   1.920  0.3765 -0.4501 -0.0575
    1SOL    HW3 4551   3.350   4.588   1.786  1.9632  0.0743  0.2304
    1SOL    MW4 4552   3.349   4.591   1.873  0.4368 -0.2570  0.2422
    1SOL     OW 4553   3.161   0.117   1.975 -0.0301 -0.1788 -0.2494
    1SOL    HW2 4554   3.161   0.111   2.071  0.7152  4.2648  0.1068
    1SOL    HW3 4555   3.219   0.046   1.947  1.8084  0.0538  2.7410
    1SOL    MW4 4556   3.168   0.107   1.984  0.3107  0.4382  0.1920
    1SOL     OW 4557   3.128   0.374   1.868  0.1898  0.1790 -0.4606
    1SOL    HW2 4558   3.142   0.282   1.887  3.6832  0.5156 -1.1051
    1SOL    HW3 4559   3.143   0.382   1.773 -0.0728  1.4061 -0.4162
    1SOL    MW4 4560   3.132   0.363   1.858  0.6161  0.3853 -0.5398
    1SOL     OW 4561   3.366   0.482   1.992 -0.0685 -0.2783 -0.3861
    1SOL    HW2 4562   3.441   0.455   1.940  0.6030 -0.4207  0.6464
    1SOL    HW3 4563   3.291   0.437   1.951  0.4717 -0.5465 -1.0904
    1SOL    MW4 4564   3.366   0.473   1.980  0.0913 -0.3325 -0.3426
    1SOL     OW 4565   3.364   0.749   1.878 -0.1351  0.0936  0.0151
    1SOL    HW2 4566   3.273   0.776   1.892 -0.4684 -0.9387 -0.0830
    1SOL    HW3 4567   3.370   0.664   1.920  0.7572  0.0993 -0.0976
    1SOL    MW4 4568   3.353   0.741   1.885 -0.0610 -0.0418 -0.0125
    1SOL     OW 4569   3.116   0.855   1.959  0.1301 -0.0969 -0.3053
    1SOL    HW2 4570   3.130   0.862   2.054  0.7991 -0.3570 -0.3792
    1SOL    HW3 4571   3.136   0.943   1.926  1.0358 -0.3070 -0.3366
    1SOL    MW4 4572   3.121   0.868   1.967  0.3378 -0.1589 -0.3191
    1SOL     OW 4573   3.131   1.112   1.861 -0.2740 -0.2459  0.2692
    1SOL    HW2 4574   3.213   1.150   1.892 -1.3198  1.0470  1.5294
    1SOL    HW3 4575   3.063   1.162   1.906 -1.7477 -1.5920 -0.4096
    1SOL    MW4 4576   3.133   1.123   1.871 -0.6065 -0.2530  0.3459
    1SOL     OW 4577   3.362   1.227   1.936  0.2235 -0.5502 -0.1498
    1SOL    HW2 4578   3.342   1.254   2.026 -0.5846 -0.7452 -0.2599
    1SOL    HW3 4579   3.363   1.308   1.886  1.3990 -0.3683  0.1625
    1SOL    MW4 4580   3.359   1.241   1.941  0.2720 -0.5518 -0.1230
    1SOL     OW 4581   3.365   1.508   1.848  0.0851 -0.0825 -0.4214
    1SOL    HW2 4582   3.446   1.535   1.892  1.0538 -0.0675 -2.1731
    1SOL    HW3 4583   3.297   1.562   1.889  1.3489  1.8384 -0.7773
    1SOL    MW4 4584   3.367   1.519   1.859  0.3793  0.1729 -0.6994
    1SOL     OW 4585   3.161   1.626   1.968 -0.3803 -0.3773 -0.1542
    1SOL    HW2 4586   3.175   1.643   2.062 -1.0765 -0.3302 -0.0611
    1SOL    HW3 4587   3.166   1.712   1.927 -1.7735 -0.1918  0.0524
    1SOL    MW4 4588   3.164   1.639   1.975 -0.6561 -0.3467 -0.1146
    1SOL     OW 4589   3.166   1.891   1.874 -0.0724 -0.1002 -0.0966
    1SOL    HW2 4590   3.237   1.942   1.914 -0.7672  0.1138  0.8868
    1SOL    HW3 4591   3.190   1.885   1.782 -0.2323  2.4518 -0.3462
    1SOL    MW4 4592   3.179   1.897   1.867 -0.1853  0.2645  0.0002
    1SOL     OW 4593   3.384   2.028   1.974  0.3742  0.0182  0.2268
    1SOL    HW2 4594   3.456   1.979   1.935  0.3835 -0.0102  0.2803
    1SOL    HW3 4595   3.393   2.116   1.937  0.5159  0.0497  0.3377
    1SOL    MW4 4596   3.395   2.033   1.964  0.3941  0.0186  0.2484
    1SOL     OW 4597   3.375   2.301   1.908 -0.0269  0.0096 -0.5125
    1SOL    HW2 4598   3.283   2.328   1.911  0.1247  0.5470 -0.7389
    1SOL    HW3 4599   3.401   2.313   1.817  0.5791  0.8912 -0.2207
    1SOL    MW4 4600   3.366   2.306   1.897  0.0730  0.1967 -0.5040
    1SOL     OW 4601   3.145   2.455   1.971  0.1357  0.1388  0.4517
    1SOL    HW2 4602   3.108   2.461   2.059 -1.2799 -1.8159  0.0276
    1SOL    HW3 4603   3.118   2.536   1.927 -0.5829  0.3593  1.2976
    1SOL    MW4 4604   3.136   2.466   1.977 -0.1457 -0.0901  0.5074
    1SOL     OW 4605   3.111   2.710   1.832  0.1914  0.1611  0.4216
    1SOL    HW2 4606   3.039   2.761   1.869 -0.3564 -0.6511  0.4987
    1SOL    HW3 4607   3.097   2.716   1.737  0.1483  0.1797  0.4291
    1SOL    MW4 4608   3.099   2.718   1.824  0.1132  0.0567  0.4328
    1SOL     OW 4609   3.350   2.822   1.939  0.0097 -0.2251  0.0589
    1SOL    HW2 4610   3.332   2.815   2.033 -1.4884  1.6512 -0.0581
    1SOL    HW3 4611   3.275   2.780   1.897  0.1911 -0.1723 -0.3161
    1SOL    MW4 4612   3.338   2.815   1.946 -0.1640  0.0293 -0.0061
    1SOL     OW 4613   3.331   3.095   1.876 -0.1103 -0.0016 -0.5468
    1SOL    HW2 4614   3.415   3.125   1.912 -2.1151  3.5329  1.4011
    1SOL    HW3 4615   3.324   3.004   1.907  2.4051  0.0279  0.2874
    1SOL    MW4 4616   3.341   3.087   1.885 -0.0429  0.4687 -0.1796
    1SOL     OW 4617   3.128   3.257   1.965  0.3953 -0.1029  0.4555
    1SOL    HW2 4618   3.138   3.247   2.060  0.0616  0.1403  0.5186
    1SOL    HW3 4619   3.199   3.205   1.928  0.0834 -0.7894  0.8232
    1SOL    MW4 4620   3.139   3.249   1.973  0.3099 -0.1616  0.5124
    1SOL     OW 4621   3.110   3.503   1.858 -0.1412  0.0016 -0.3879
    1SOL    HW2 4622   3.112   3.414   1.893 -0.7328  0.0492 -0.2297
    1SOL    HW3 4623   3.198   3.538   1.875  0.0498 -0.5005 -0.3303
    1SOL    MW4 4624   3.122   3.496   1.865 -0.1941 -0.0582 -0.3594
    1SOL     OW 4625   3.350   3.614   1.966  0.0834  0.0999 -0.2951
    1SOL    HW2 4626   3.423   3.564   1.928 -0.1031 -0.2399 -0.2089
    1SOL    HW3 4627   3.354   3.699   1.922  1.1474  0.4447  0.4417
    1SOL    MW4 4628   3.361   3.619   1.955  0.1993  0.1006 -0.1866
    1SOL     OW 4629   3.364   3.858   1.830  0.0611 -0.1644 -0.6420
    1SOL    HW2 4630   3.285   3.900   1.865 -0.0505 -0.1574 -0.9001
    1SOL    HW3 4631   3.351   3.859   1.736  0.1804 -0.5428 -0.6619
    1SOL    MW4 4632   3.351   3.864   1.823  0.0620 -0.2134 -0.6788
    1SOL     OW 4633   3.133   3.971   1.955 -0.0574  0.3410 -0.1500
    1SOL    HW2 4634   3.141   3.970   2.051  0.2411  1.6810 -0.1622
    1SOL    HW3 4635   3.042   3.946   1.939 -1.0013  3.1860  0.5937
    1SOL    MW4 4636   3.122   3.967   1.966 -0.1428  0.8936 -0.0535
    1SOL     OW 4637   3.172   4.223   1.869  0.0216 -0.1883  0.1180
    1SOL    HW2 4638   3.151   4.134   1.896 -0.3547 -0.1337  0.0097
    1SOL    HW3 4639   3.089   4.271   1.878  0.2703  0.2012  0.3911
    1SOL    MW4 4640   3.158   4.218   1.874  0.0048 -0.1307  0.1398
    1SOL     OW 4641   3.364   4.355   1.992  0.1112 -0.3286 -0.4223
    1SOL    HW2 4642   3.449   4.326   1.959 -0.0694 -2.0703  0.6263
    1SOL    HW3 4643   3.301   4.305   1.942 -0.3288  1.0602 -1.2921
    1SOL    MW4 4644   3.367   4.345   1.981  0.0296 -0.3753 -0.3988
    1SOL     OW 4645   3.808   0.012   1.872  0.4597  0.2018  0.2773
    1SOL    HW2 4646   3.771  -0.075   1.881  1.3443 -0.2536 -0.4000
    1SOL    HW3 4647   3.739   0.071   1.904 -0.6648 -0.6529 -0.5231
    1SOL    MW4 4648   3.794   0.008   1.877  0.4280  0.0286  0.0824
    1SOL     OW 4649   3.569   0.125   1.973 -0.0191  0.1503  0.0923
    1SOL    HW2 4650   3.566   0.116   2.069  0.5312 -0.5072  0.0519
    1SOL    HW3 4651   3.495   0.073   1.942 -0.4199  0.6678  0.1809
    1SOL    MW4 4652   3.559   0.117   1.982  0.0007  0.1319  0.0986
    1SOL     OW 4653   3.573   0.380   1.839 -0.0780 -0.2452 -0.2270
    1SOL    HW2 4654   3.573   0.294   1.883 -1.4424 -0.3661 -0.4381
    1SOL    HW3 4655   3.567   0.359   1.746  0.3585  0.0638 -0.3247
    1SOL    MW4 4656   3.572   0.366   1.832 -0.2005 -0.2204 -0.2679
    1SOL     OW 4657   3.786   0.507   1.980  0.8560  0.3106  0.4214
    1SOL    HW2 4658   3.784   0.594   1.938  0.3254  0.7029  1.2390
    1SOL    HW3 4659   3.722   0.456   1.931 -0.2770  0.9790  1.1830
    1SOL    MW4 4660   3.777   0.512   1.968  0.6366  0.4504  0.6298
    1SOL     OW 4661   3.835   0.741   1.872 -0.1660  0.0536 -0.1893
    1SOL    HW2 4662   3.761   0.800   1.886 -0.2390  0.2841 -1.4948
    1SOL    HW3 4663   3.827   0.713   1.781  0.7064 -0.8187 -0.0070
    1SOL    MW4 4664   3.824   0.745   1.862 -0.0606 -0.0311 -0.3375
    1SOL     OW 4665   3.612   0.897   1.917 -0.3495 -0.8379 -0.2508
    1SOL    HW2 4666   3.616   0.985   1.881  0.9357 -1.4624 -1.6917
    1SOL    HW3 4667   3.523   0.868   1.899 -0.5840 -0.0665 -0.3340
    1SOL    MW4 4668   3.601   0.905   1.910 -0.2108 -0.8185 -0.4520
    1SOL     OW 4669   3.633   1.155   1.854 -0.4723  0.1159  0.0677
    1SOL    HW2 4670   3.553   1.189   1.894 -0.4994 -0.4854  0.5213
    1SOL    HW3 4671   3.613   1.152   1.760 -1.6104 -1.6915  0.3410
    1SOL    MW4 4672   3.620   1.159   1.847 -0.6263 -0.2019  0.1638
    1SOL     OW 4673   3.860   1.267   1.970  0.2436 -0.2759 -0.0830
    1SOL    HW2 4674   3.836   1.256   2.063 -0.6028 -0.8712 -0.3634
    1SOL    HW3 4675   3.788   1.225   1.922 -0.9488  2.8316 -1.1084
    1SOL    MW4 4676   3.847   1.260   1.976 -0.0253  0.0557 -0.2553
    1SOL     OW 4677   3.830   1.499   1.847 -0.0676 -0.3071  0.1198
    1SOL    HW2 4678   3.905   1.557   1.860 -0.6619  0.3413  0.6776
    1SOL    HW3 4679   3.852   1.419   1.894  0.5587 -0.3704 -0.2757
    1SOL    MW4 4680   3.843   1.496   1.855 -0.0634 -0.2300  0.1411
    1SOL     OW 4681   3.607   1.625   1.939 -0.1796  0.0453  0.1179
    1SOL    HW2 4682   3.607   1.717   1.912 -0.0923  0.6572  2.1694
    1SOL    HW3 4683   3.688   1.589   1.901 -0.3056  0.7516 -0.8367
    1SOL    MW4 4684   3.618   1.632   1.930 -0.1848  0.2192  0.2625
    1SOL     OW 4685   3.594   1.917   1.858  0.0838 -0.3679  0.2119
    1SOL    HW2 4686   3.671   1.966   1.887 -0.3173 -0.9478  2.3379
    1SOL    HW3 4687   3.592   1.930   1.763  0.4039  3.1051  0.6168
    1SOL    MW4 4688   3.604   1.926   1.849  0.0732  0.0137  0.5459
    1SOL     OW 4689   3.837   2.055   1.937  0.2076  0.1307  0.5729
    1SOL    HW2 4690   3.905   2.000   1.896 -1.5800 -1.4521 -0.3395
    1SOL    HW3 4691   3.824   2.126   1.875 -0.2173 -0.5251 -0.0999
    1SOL    MW4 4692   3.844   2.057   1.923 -0.0842 -0.1645  0.3638
    1SOL     OW 4693   3.780   2.332   1.840  0.1675 -0.1174 -0.0427
    1SOL    HW2 4694   3.855   2.355   1.895  0.1513 -1.1991  0.4466
    1SOL    HW3 4695   3.704   2.345   1.896 -0.0657  1.4290 -0.6838
    1SOL    MW4 4696   3.780   2.337   1.855  0.1345 -0.0563 -0.0627
    1SOL     OW 4697   3.587   2.431   2.015  0.5883 -0.1541  0.2123
    1SOL    HW2 4698   3.594   2.514   1.969  0.4129 -0.1794  0.1414
    1SOL    HW3 4699   3.501   2.397   1.992 -0.5286  1.0015  2.4891
    1SOL    MW4 4700   3.576   2.437   2.006  0.4179 -0.0048  0.5033
    1SOL     OW 4701   3.578   2.692   1.864  0.3173 -0.2146 -0.3268
    1SOL    HW2 4702   3.651   2.742   1.901 -0.6267 -1.2698  3.1548
    1SOL    HW3 4703   3.501   2.747   1.880 -0.0094 -0.3482 -1.4438
    1SOL    MW4 4704   3.578   2.706   1.871  0.1500 -0.3715 -0.0148
    1SOL     OW 4705   3.784   2.823   1.955 -0.1512  0.0911 -0.3549
    1SOL    HW2 4706   3.787   2.839   2.049  0.0945  0.7601 -0.4775
    1SOL    HW3 4707   3.782   2.910   1.916 -0.3404 -0.1882 -0.9671
    1SOL    MW4 4708   3.784   2.836   1.962 -0.1438  0.1423 -0.4519
    1SOL     OW 4709   3.804   3.096   1.873  0.2077  0.2106 -0.1066
    1SOL    HW2 4710   3.721   3.133   1.904 -0.1036 -0.2388 -0.4108
    1SOL    HW3 4711   3.796   3.093   1.778 -0.0819 -1.3821 -0.0449
    1SOL    MW4 4712   3.792   3.101   1.865  0.1285 -0.0589 -0.1384
    1SOL     OW 4713   3.567   3.221   1.937 -0.3642  0.4281 -0.2887
    1SOL    HW2 4714   3.576   3.222   2.032  0.3026  1.7671 -0.3547
    1SOL    HW3 4715   3.572   3.313   1.911  1.0554 -0.0307 -1.7626
    1SOL    MW4 4716   3.569   3.233   1.946 -0.0887  0.5441 -0.4919
    1SOL     OW 4717   3.570   3.495   1.854  0.3260 -0.3912 -0.5725
    1SOL    HW2 4718   3.647   3.537   1.893  0.0106 -0.8904  0.6269
    1SOL    HW3 4719   3.572   3.521   1.762  0.7929  1.2569 -0.1133
    1SOL    MW4 4720   3.580   3.504   1.847  0.3459 -0.2396 -0.3536
    1SOL     OW 4721   3.799   3.599   1.951  0.0640  0.3070  0.5579
    1SOL    HW2 4722   3.879   3.571   1.908 -0.4773 -0.2006 -0.1254
    1SOL    HW3 4723   3.793   3.693   1.933 -0.5127 -0.0249 -1.0597
    1SOL    MW4 4724   3.808   3.607   1.943 -0.0834  0.1962  0.2543
    1SOL     OW 4725   3.811   3.843   1.854 -0.2850 -0.4443 -0.0128
    1SOL    HW2 4726   3.727   3.879   1.884  0.6826  1.5182  0.4369
    1SOL    HW3 4727   3.813   3.861   1.760 -0.5006 -0.7766 -0.0822
    1SOL    MW4 4728   3.800   3.850   1.846 -0.1855 -0.2291  0.0376
    1SOL     OW 4729   3.593   3.982   1.938 -0.2100 -0.3268  0.1270
    1SOL    HW2 4730   3.600   3.977   2.034  0.6928 -0.7884  0.0347
    1SOL    HW3 4731   3.503   3.957   1.920 -0.7321  0.8878  0.9434
    1SOL    MW4 4732   3.582   3.978   1.949 -0.1600 -0.2277  0.2226
    1SOL     OW 4733   3.569   4.250   1.870  0.0559  0.0291 -0.1952
    1SOL    HW2 4734   3.648   4.294   1.903  0.3025  0.1741 -0.9842
    1SOL    HW3 4735   3.579   4.159   1.897  1.3193 -0.3199 -1.7727
    1SOL    MW4 4736   3.581   4.244   1.878  0.2553  0.0014 -0.5075
    1SOL     OW 4737   3.791   4.412   1.944  0.2726  0.3008 -0.3019
    1SOL    HW2 4738   3.792   4.411   2.039  1.2085  0.8523 -0.3017
    1SOL    HW3 4739   3.871   4.367   1.918 -0.9498 -1.6545 -0.8646
    1SOL    MW4 4740   3.801   4.406   1.953  0.2348  0.1159 -0.3761
    1SOL     OW 4741   4.257   0.032   1.853  0.1178 -0.2727 -0.3750
    1SOL    HW2 4742   4.189   0.060   1.913  0.6199 -1.2485  0.6839
    1SOL    HW3 4743   4.338   0.068   1.889  0.2798  0.1399 -1.1316
    1SOL    MW4 4744   4.259   0.040   1.866  0.2050 -0.3470 -0.3351
    1SOL     OW 4745   4.038   0.152   1.975 -0.3862 -0.2375  0.0125
    1SOL    HW2 4746   4.012   0.164   2.066  0.6932 -1.0920  0.4447
    1SOL    HW3 4747   3.972   0.094   1.938 -0.5983 -0.2266  0.3727
    1SOL    MW4 4748   4.026   0.146   1.982 -0.2728 -0.3488  0.1171
    1SOL     OW 4749   4.027   0.401   1.844 -0.4614 -0.3440  0.5054
    1SOL    HW2 4750   4.035   0.308   1.866 -1.1310 -0.5244 -0.0080
    1SOL    HW3 4751   3.944   0.428   1.882 -0.4264 -0.0358  0.3658
    1SOL    MW4 4752   4.017   0.392   1.852 -0.5455 -0.3271  0.4190
    1SOL     OW 4753   4.260   0.507   1.973 -0.3837  0.1037 -0.0626
    1SOL    HW2 4754   4.260   0.494   2.068 -0.2333  0.5371 -0.0034
    1SOL    HW3 4755   4.175   0.472   1.944 -0.5220  0.1748  0.2562
    1SOL    MW4 4756   4.249   0.500   1.982 -0.3819  0.1702 -0.0129
    1SOL     OW 4757   4.282   0.764   1.898 -0.1514 -0.0300 -0.0786
    1SOL    HW2 4758   4.286   0.672   1.925  0.7661 -0.1397 -0.5432
    1SOL    HW3 4759   4.275   0.760   1.802  0.3275  0.3849 -0.1318
    1SOL    MW4 4760   4.282   0.751   1.889  0.0334  0.0103 -0.1471
    1SOL     OW 4761   4.048   0.889   1.984 -0.3198 -0.2676 -0.0335
    1SOL    HW2 4762   4.118   0.841   1.940 -0.5054  0.2252 -0.8695
    1SOL    HW3 4763   3.968   0.840   1.965 -0.2833 -0.5249  0.4649
    1SOL    MW4 4764   4.047   0.876   1.976 -0.3390 -0.2366 -0.0780
    1SOL     OW 4765   4.070   1.147   1.835 -0.1369  0.3317  0.1378
    1SOL    HW2 4766   4.060   1.063   1.879 -0.8528 -0.1742 -0.9560
    1SOL    HW3 4767   4.007   1.205   1.879 -2.9324 -0.9339 -2.0327
    1SOL    MW4 4768   4.060   1.143   1.846 -0.6003  0.0981 -0.2929
    1SOL     OW 4769   4.259   1.265   1.987 -0.0231 -0.0713 -0.7145
    1SOL    HW2 4770   4.224   1.282   2.075 -0.2103 -2.2471 -0.3506
    1SOL    HW3 4771   4.189   1.218   1.942  0.7378 -0.5002 -1.4637
    1SOL    MW4 4772   4.245   1.261   1.993  0.0525 -0.4148 -0.7653
    1SOL     OW 4773   4.263   1.524   1.894 -0.3199 -0.1386  0.0612
    1SOL    HW2 4774   4.270   1.433   1.923  1.1160 -0.0395  0.0429
    1SOL    HW3 4775   4.288   1.521   1.801  2.8964  0.7330  0.8406
    1SOL    MW4 4776   4.267   1.512   1.885  0.2937 -0.0106  0.1616
    1SOL     OW 4777   4.015   1.666   1.946  0.4439  0.4451 -0.0059
    1SOL    HW2 4778   3.992   1.670   2.039 -1.0984  0.2245 -0.3714
    1SOL    HW3 4779   4.102   1.626   1.945  0.0311 -0.5223  1.2838
    1SOL    MW4 4780   4.023   1.661   1.958  0.1855  0.2884  0.1160
    1SOL     OW 4781   4.059   1.922   1.829  0.1890 -0.1585 -0.0286
    1SOL    HW2 4782   4.042   1.836   1.867 -2.5327  0.1320 -0.4405
    1SOL    HW3 4783   4.053   1.909   1.735  0.7212  0.3028 -0.1308
    1SOL    MW4 4784   4.056   1.909   1.822 -0.1001 -0.0594 -0.0966
    1SOL     OW 4785   4.250   2.085   1.963 -0.0555  0.8107  0.3689
    1SOL    HW2 4786   4.264   2.065   2.055  3.2332 -0.7071 -0.3725
    1SOL    HW3 4787   4.176   2.030   1.938 -0.2709  0.3988  1.8636
    1SOL    MW4 4788   4.242   2.075   1.972  0.3495  0.5562  0.4681
    1SOL     OW 4789   4.262   2.337   1.850 -0.4895 -0.4342 -0.2307
    1SOL    HW2 4790   4.251   2.256   1.899 -0.9224 -1.0972 -1.3934
    1SOL    HW3 4791   4.334   2.382   1.893 -1.5485 -0.4827  1.6834
    1SOL    MW4 4792   4.270   2.332   1.862 -0.6862 -0.5283 -0.1317
    1SOL     OW 4793   4.006   2.408   1.974  0.3645  0.0842  0.2392
    1SOL    HW2 4794   4.015   2.385   2.067 -0.1619 -0.4535  0.1651
    1SOL    HW3 4795   4.088   2.380   1.934  0.4334 -0.0508  0.4756
    1SOL    MW4 4796   4.018   2.401   1.981  0.3042 -0.0048  0.2607
    1SOL     OW 4797   4.021   2.669   1.889  0.0029 -0.0895 -0.5196
    1SOL    HW2 4798   4.003   2.580   1.918  0.0203 -0.4481 -1.6045
    1SOL    HW3 4799   3.943   2.719   1.916  0.1593 -0.3479  0.4202
    1SOL    MW4 4800   4.008   2.664   1.897  0.0257 -0.1709 -0.5387
    1SOL     OW 4801   4.263   2.777   1.964 -0.0979 -0.1170 -0.1136
    1SOL    HW2 4802   4.255   2.811   2.053 -0.0054  1.5678 -0.7162
    1SOL    HW3 4803   4.179   2.735   1.947 -0.5437  0.5512  0.3848
    1SOL    MW4 4804   4.251   2.776   1.973 -0.1440  0.1936 -0.1273
    1SOL     OW 4805   4.294   3.064   1.856  0.1878  0.2346 -0.2113
    1SOL    HW2 4806   4.214   3.106   1.886  1.4621  2.4915  0.0916
    1SOL    HW3 4807   4.293   2.978   1.898 -1.4848  0.6735  0.6976
    1SOL    MW4 4808   4.283   3.058   1.865  0.1349  0.5901 -0.0513
    1SOL     OW 4809   4.064   3.196   1.965  0.3139  0.2855 -0.3347
    1SOL    HW2 4810   4.056   3.184   2.059 -0.3308  0.1074 -0.4073
    1SOL    HW3 4811   3.979   3.171   1.930  0.4998  0.4855 -0.9522
    1SOL    MW4 4812   4.052   3.191   1.973  0.2527  0.2880 -0.4258
    1SOL     OW 4813   4.042   3.465   1.899 -0.0101  0.3892  0.5174
    1SOL    HW2 4814   4.126   3.504   1.922 -0.0961  0.4390  0.7494
    1SOL    HW3 4815   4.041   3.381   1.944 -0.3478  0.6620  1.0251
    1SOL    MW4 4816   4.053   3.459   1.908 -0.0663  0.4320  0.6150
    1SOL     OW 4817   4.267   3.605   1.975  0.1786  0.4076  0.2758
    1SOL    HW2 4818   4.244   3.690   1.938 -1.5036 -0.9860 -2.0589
    1SOL    HW3 4819   4.349   3.582   1.932 -0.5490 -0.1405 -0.8567
    1SOL    MW4 4820   4.275   3.613   1.964 -0.1388  0.1516 -0.1817
    1SOL     OW 4821   4.218   3.869   1.885  0.0972  0.2672  0.0463
    1SOL    HW2 4822   4.300   3.901   1.923  1.3366 -1.4163 -1.1322
    1SOL    HW3 4823   4.228   3.886   1.791 -0.8036 -0.1820 -0.1279
    1SOL    MW4 4824   4.230   3.876   1.877  0.1421 -0.0138 -0.1322
    1SOL     OW 4825   3.999   4.031   1.950 -0.3507  0.1609  0.4286
    1SOL    HW2 4826   4.080   3.984   1.933 -0.1631  1.0024 -1.0345
    1SOL    HW3 4827   3.930   3.974   1.917 -0.4451 -0.9238  2.4100
    1SOL    MW4 4828   4.000   4.018   1.943 -0.3381  0.1287  0.4970
    1SOL     OW 4829   4.005   4.292   1.849 -0.0057 -0.1048  0.2692
    1SOL    HW2 4830   4.076   4.343   1.887  0.6079 -0.8446  0.1331
    1SOL    HW3 4831   4.019   4.203   1.882 -0.4430 -0.4015 -0.3378
    1SOL    MW4 4832   4.016   4.287   1.858  0.0176 -0.2418  0.1711
    1SOL     OW 4833   4.221   4.425   1.951  0.6895  0.1153 -0.1158
    1SOL    HW2 4834   4.210   4.415   2.046  1.4903 -2.6375 -0.2857
    1SOL    HW3 4835   4.236   4.519   1.940 -0.3466  0.6376  2.3723
    1SOL    MW4 4836   4.222   4.436   1.962  0.6585 -0.1793  0.1901
    1SOL     OW 4837   0.203   0.035   2.348  0.0498  0.5491 -0.1460
    1SOL    HW2 4838   0.182   0.049   2.440 -0.6445  0.7971 -0.3337
    1SOL    HW3 4839   0.291   0.072   2.337  0.1948  0.3840  0.4476
    1SOL    MW4 4840   0.212   0.042   2.359 -0.0227  0.5598 -0.0925
    1SOL     OW 4841   4.465   0.150   2.259  0.1993 -0.4634  0.2712
    1SOL    HW2 4842   4.549   0.110   2.281  0.4406 -0.1801 -0.1257
    1SOL    HW3 4843   4.465   0.153   2.163  0.1090  0.3275  0.2941
    1SOL    MW4 4844   4.476   0.145   2.249  0.2198 -0.3217  0.2220
    1SOL     OW 4845   0.034   0.396   2.374  0.4923 -0.4146  0.4612
    1SOL    HW2 4846   0.108   0.439   2.332  0.1968  0.5966  0.9502
    1SOL    HW3 4847   0.027   0.311   2.331 -0.7492  1.1549 -2.6246
    1SOL    MW4 4848   0.043   0.390   2.363  0.2895 -0.0741  0.1187
    1SOL     OW 4849   0.219   0.558   2.249  0.2581 -0.4464  0.1775
    1SOL    HW2 4850   0.291   0.513   2.293  0.1565 -1.1052 -0.3211
    1SOL    HW3 4851   0.234   0.542   2.156  0.2994  0.6792 -0.0096
    1SOL    MW4 4852   0.231   0.550   2.243  0.2501 -0.3847  0.0870
    1SOL     OW 4853   0.197   0.811   2.357 -0.2970 -0.5229  0.4862
    1SOL    HW2 4854   0.211   0.811   2.452  1.7100  1.2135  0.2163
    1SOL    HW3 4855   0.199   0.718   2.333  2.8280 -0.8137  1.6637
    1SOL    MW4 4856   0.199   0.798   2.366  0.3801 -0.3322  0.6061
    1SOL     OW 4857   4.479   0.949   2.239 -0.1880 -0.4295 -0.4883
    1SOL    HW2 4858   4.559   0.918   2.281  0.8442  1.7379 -0.8112
    1SOL    HW3 4859   4.485   0.916   2.150 -0.5107 -1.7483 -0.0325
    1SOL    MW4 4860   4.490   0.941   2.233 -0.0944 -0.3175 -0.4706
    1SOL     OW 4861   4.446   1.217   2.332 -0.6213 -0.2607  0.4329
    1SOL    HW2 4862   4.449   1.205   2.427 -2.1333  0.3186  0.5632
    1SOL    HW3 4863   4.445   1.128   2.296 -1.1914 -0.4826  0.9988
    1SOL    MW4 4864   4.446   1.204   2.340 -0.8960 -0.2135  0.5248
    1SOL     OW 4865   0.217   1.313   2.247  0.2753  0.0743 -0.3910
    1SOL    HW2 4866   0.141   1.292   2.301  0.6596 -0.8271 -0.1860
    1SOL    HW3 4867   0.191   1.288   2.158  0.1648  0.2068 -0.3961
    1SOL    MW4 4868   0.204   1.307   2.242  0.3114 -0.0273 -0.3648
    1SOL     OW 4869   0.197   1.579   2.320 -0.1386  0.1482 -0.5573
    1SOL    HW2 4870   0.193   1.584   2.416 -0.2511 -0.7935 -0.5086
    1SOL    HW3 4871   0.207   1.485   2.302  0.0409  0.3433 -1.4608
    1SOL    MW4 4872   0.198   1.567   2.331 -0.1297  0.0497 -0.6700
    1SOL     OW 4873   4.455   1.705   2.254 -0.0574 -0.3759  0.4764
    1SOL    HW2 4874   4.457   1.782   2.310  0.0850 -0.2229  0.2602
    1SOL    HW3 4875   4.535   1.657   2.276  0.9781  0.6499 -0.9580
    1SOL    MW4 4876   4.466   1.709   2.264  0.0978 -0.2203  0.2587
    1SOL     OW 4877   0.007   1.949   2.375 -0.4105 -0.9334  0.0431
    1SOL    HW2 4878  -0.057   2.012   2.341 -1.4171 -0.6675  2.2871
    1SOL    HW3 4879   0.092   1.990   2.359 -0.9418 -0.0664 -0.6244
    1SOL    MW4 4880   0.010   1.963   2.368 -0.6132 -0.7839  0.2513
    1SOL     OW 4881   0.238   2.065   2.294 -0.3076  0.2133 -0.3009
    1SOL    HW2 4882   0.325   2.035   2.322 -0.0026  1.3511  0.0169
    1SOL    HW3 4883   0.237   2.050   2.200 -0.0312 -0.4418 -0.2052
    1SOL    MW4 4884   0.250   2.059   2.285 -0.2309  0.2773 -0.2463
    1SOL     OW 4885   0.220   2.330   2.374 -0.0938  0.4179 -0.1179
    1SOL    HW2 4886   0.223   2.340   2.469  0.6234  0.8840 -0.1913
    1SOL    HW3 4887   0.202   2.236   2.360 -1.0427  0.4980  0.4794
    1SOL    MW4 4888   0.218   2.319   2.384 -0.1244  0.4900 -0.0489
    1SOL     OW 4889   0.016   2.468   2.249 -0.5377  0.2066  0.2763
    1SOL    HW2 4890   0.013   2.554   2.291  0.9242  0.4156 -0.0330
    1SOL    HW3 4891   0.091   2.424   2.289  0.4043  0.1220 -1.5359
    1SOL    MW4 4892   0.025   2.474   2.260 -0.2205  0.2232 -0.0038
    1SOL     OW 4893   4.463   2.718   2.361  0.3119 -0.1176  0.1377
    1SOL    HW2 4894   4.460   2.738   2.455 -0.9562 -1.1703  0.3307
    1SOL    HW3 4895   4.542   2.762   2.330  0.2278  1.0420  1.5093
    1SOL    MW4 4896   4.473   2.726   2.370  0.1330 -0.1032  0.3440
    1SOL     OW 4897   0.207   2.866   2.276 -0.3917  0.2908 -0.0526
    1SOL    HW2 4898   0.286   2.820   2.305  0.8947  2.0743 -0.6119
    1SOL    HW3 4899   0.213   2.867   2.181 -1.2790  0.1345 -0.1150
    1SOL    MW4 4900   0.218   2.860   2.267 -0.3391  0.5052 -0.1347
    1SOL     OW 4901   0.222   3.135   2.337 -0.3683  0.2444  0.1448
    1SOL    HW2 4902   0.138   3.136   2.290  0.1978  1.0602 -0.8833
    1SOL    HW3 4903   0.252   3.045   2.329 -0.3933  0.3168 -0.8781
    1SOL    MW4 4904   0.215   3.123   2.330 -0.2969  0.3614 -0.1259
    1SOL     OW 4905   4.460   3.202   2.230 -0.1694 -0.2024 -0.0060
    1SOL    HW2 4906   4.498   3.277   2.275 -1.1954  0.7981 -0.8001
    1SOL    HW3 4907   4.480   3.217   2.137 -0.9018 -0.5865 -0.2320
    1SOL    MW4 4908   4.468   3.214   2.224 -0.4014 -0.1209 -0.1402
    1SOL     OW 4909   0.023   3.450   2.356  0.1587  0.4492  0.6139
    1SOL    HW2 4910   0.028   3.478   2.447 -3.0509  1.3432  0.5556
    1SOL    HW3 4911  -0.052   3.497   2.319 -0.4090 -2.0848 -1.6796
    1SOL    MW4 4912   0.014   3.460   2.363 -0.3397  0.2327  0.3035
    1SOL     OW 4913   0.251   3.591   2.261 -0.5821  0.1392  0.0914
    1SOL    HW2 4914   0.329   3.554   2.303  0.3395  1.9320  0.0256
    1SOL    HW3 4915   0.178   3.537   2.293  0.5002 -0.5744  1.3920
    1SOL    MW4 4916   0.252   3.579   2.271 -0.3177  0.2818  0.2544
    1SOL     OW 4917   0.230   3.858   2.360 -0.2034 -0.3732  0.5485
    1SOL    HW2 4918   0.153   3.896   2.319 -0.9142 -1.5126  0.8236
    1SOL    HW3 4919   0.229   3.766   2.334  0.0098 -0.8302  2.0894
    1SOL    MW4 4920   0.220   3.851   2.351 -0.2690 -0.5839  0.7880
    1SOL     OW 4921   0.012   3.986   2.262  0.0716 -0.2661  0.1085
    1SOL    HW2 4922   0.015   4.080   2.278  2.0712 -0.2614 -0.1619
    1SOL    HW3 4923   0.004   3.978   2.167  0.0257 -0.3814  0.1211
    1SOL    MW4 4924   0.011   3.997   2.251  0.3294 -0.2806  0.0744
    1SOL     OW 4925   4.480   4.266   2.340 -0.1125  0.1795  0.4757
    1SOL    HW2 4926   4.479   4.262   2.436 -0.6949 -0.8046  0.4356
    1SOL    HW3 4927   4.551   4.326   2.319  0.5263 -0.2050  1.5130
    1SOL    MW4 4928   4.489   4.273   2.350 -0.1049 -0.0014  0.6073
    1SOL     OW 4929   0.191   4.431   2.279 -0.3227  0.5699 -0.5693
    1SOL    HW2 4930   0.270   4.387   2.309 -1.0046  0.5481  1.2379
    1SOL    HW3 4931   0.195   4.518   2.318 -1.0152  0.6969 -0.7649
    1SOL    MW4 4932   0.202   4.437   2.288 -0.5041  0.5836 -0.3564
    1SOL     OW 4933   0.648   4.663   2.358 -0.1147 -0.1786  0.0778
    1SOL    HW2 4934   0.664   4.654   2.452 -1.8944  3.2402  0.7878
    1SOL    HW3 4935   0.728   4.703   2.324  0.1149 -0.4342  0.3115
    1SOL    MW4 4936   0.661   4.667   2.366 -0.3192  0.2387  0.2022
    1SOL     OW 4937   0.432   0.151   2.261 -0.1822  0.1025 -0.4145
    1SOL    HW2 4938   0.510   0.101   2.282 -1.5707 -2.1896 -0.5276
    1SOL    HW3 4939   0.415   0.131   2.169  0.0905  2.0152 -0.9098
    1SOL    MW4 4940   0.440   0.142   2.251 -0.3294  0.0524 -0.4947
    1SOL     OW 4941   0.421   0.407   2.371  0.1414 -0.2641  0.2882
    1SOL    HW2 4942   0.441   0.408   2.465  0.3663 -1.6932  0.2634
    1SOL    HW3 4943   0.418   0.314   2.348 -1.1910  0.0472 -0.8592
    1SOL    MW4 4944   0.423   0.395   2.381 -0.0047 -0.4115  0.1335
    1SOL     OW 4945   0.644   0.527   2.252  0.4470  0.0507  0.9250
    1SOL    HW2 4946   0.636   0.605   2.307  0.4601 -0.2485  1.3536
    1SOL    HW3 4947   0.577   0.467   2.285  0.9450 -0.4187  1.0988
    1SOL    MW4 4948   0.634   0.529   2.263  0.5144 -0.0507  1.0047
    1SOL     OW 4949   0.659   0.759   2.390 -0.2717  0.2383  0.6940
    1SOL    HW2 4950   0.678   0.779   2.481 -0.7005  0.6789  0.6870
    1SOL    HW3 4951   0.607   0.833   2.359  0.7682  0.6102 -0.2147
    1SOL    MW4 4952   0.655   0.771   2.398 -0.1911  0.3455  0.5732
    1SOL     OW 4953   0.481   0.937   2.246 -0.2082 -0.3150 -0.3369
    1SOL    HW2 4954   0.486   1.020   2.294 -0.1894 -0.7859  0.4945
    1SOL    HW3 4955   0.396   0.900   2.272 -0.2995 -0.4721 -0.8529
    1SOL    MW4 4956   0.470   0.943   2.256 -0.2178 -0.3979 -0.2949
    1SOL     OW 4957   0.444   1.179   2.378  0.2084 -0.3666 -0.1701
    1SOL    HW2 4958   0.430   1.184   2.472  0.4933 -1.0881 -0.0874
    1SOL    HW3 4959   0.371   1.228   2.340  0.6663  0.8338  0.4487
    1SOL    MW4 4960   0.433   1.186   2.385  0.3065 -0.3034 -0.0775
    1SOL     OW 4961   0.663   1.272   2.242 -0.7650 -0.7035  0.2277
    1SOL    HW2 4962   0.680   1.365   2.256  1.7207 -1.0009 -0.5007
    1SOL    HW3 4963   0.597   1.250   2.308 -0.9282  1.4198  0.8303
    1SOL    MW4 4964   0.657   1.281   2.253 -0.4586 -0.4627  0.2110
    1SOL     OW 4965   0.684   1.536   2.319 -0.2835 -0.4399  0.3294
    1SOL    HW2 4966   0.677   1.531   2.414  0.7425  1.3802  0.5090
    1SOL    HW3 4967   0.765   1.584   2.303 -1.6441  1.3274 -1.4377
    1SOL    MW4 4968   0.694   1.542   2.329 -0.3276  0.0334  0.1199
    1SOL     OW 4969   0.442   1.692   2.220 -0.5359  0.1731  0.8685
    1SOL    HW2 4970   0.512   1.628   2.232 -0.6406 -0.1432 -0.1535
    1SOL    HW3 4971   0.364   1.649   2.255 -0.4939 -0.0350  0.7084
    1SOL    MW4 4972   0.441   1.678   2.226 -0.5442  0.1038  0.7124
    1SOL     OW 4973   0.486   1.948   2.360  0.6462  0.0416  0.2811
    1SOL    HW2 4974   0.556   2.000   2.320  0.7298 -0.5292 -0.3234
    1SOL    HW3 4975   0.487   1.865   2.312 -0.8619  0.2716 -0.1658
    1SOL    MW4 4976   0.495   1.944   2.348  0.4582 -0.0033  0.1421
    1SOL     OW 4977   0.712   2.080   2.246  0.1938 -0.0580  0.3559
    1SOL    HW2 4978   0.792   2.044   2.284 -0.3166 -0.4103  1.1111
    1SOL    HW3 4979   0.705   2.167   2.284  0.5862  0.2495 -0.2567
    1SOL    MW4 4980   0.722   2.087   2.256  0.1783 -0.0637  0.3750
    1SOL     OW 4981   0.671   2.347   2.358 -0.0231  0.3011  0.5135
    1SOL    HW2 4982   0.676   2.328   2.452  0.8562  0.1806  0.4416
    1SOL    HW3 4983   0.753   2.393   2.338  0.4912 -1.0461 -0.5165
    1SOL    MW4 4984   0.682   2.351   2.368  0.1608  0.1073  0.3681
    1SOL     OW 4985   0.440   2.451   2.259  0.2415  0.2312  0.0502
    1SOL    HW2 4986   0.518   2.407   2.294 -0.0987  0.5567  1.2413
    1SOL    HW3 4987   0.367   2.398   2.289 -0.0081  0.0931 -0.8176
    1SOL    MW4 4988   0.441   2.438   2.268  0.1637  0.2561  0.0930
    1SOL     OW 4989   0.417   2.716   2.352 -0.2343  0.2322  0.5640
    1SOL    HW2 4990   0.422   2.714   2.448  0.0887 -1.3881  0.5253
    1SOL    HW3 4991   0.419   2.624   2.326  0.7954  0.6978 -1.0597
    1SOL    MW4 4992   0.418   2.704   2.362 -0.0558  0.0801  0.3445
    1SOL     OW 4993   0.660   2.838   2.290  0.3787  0.4085  0.7056
    1SOL    HW2 4994   0.733   2.786   2.322  0.1833 -1.0873 -1.2355
    1SOL    HW3 4995   0.582   2.786   2.309 -0.1481  1.6537  2.0809
    1SOL    MW4 4996   0.659   2.825   2.297  0.2834  0.3755  0.6309
    1SOL     OW 4997   0.686   3.119   2.375 -0.2269 -0.6404 -0.1572
    1SOL    HW2 4998   0.618   3.170   2.332 -1.1164 -0.4859  1.3648
    1SOL    HW3 4999   0.665   3.028   2.354 -1.1211 -0.6143  0.5764
    1SOL    MW4 5000   0.674   3.114   2.367 -0.4622 -0.6168  0.1404
    1SOL     OW 5001   0.469   3.240   2.258 -0.1065 -0.1564  0.3434
    1SOL    HW2 5002   0.378   3.215   2.276 -0.8779  0.9632 -1.7973
    1SOL    HW3 5003   0.476   3.235   2.163  2.0595 -0.1118  0.4827
    1SOL    MW4 5004   0.458   3.236   2.248  0.0775 -0.0031  0.0794
    1SOL     OW 5005   0.468   3.488   2.399 -0.8266 -0.1678  0.0567
    1SOL    HW2 5006   0.537   3.534   2.351  0.4038  0.3190  2.2332
    1SOL    HW3 5007   0.473   3.397   2.367  0.0183  0.1268 -0.6664
    1SOL    MW4 5008   0.478   3.482   2.389 -0.5528 -0.0648  0.2484
    1SOL     OW 5009   0.658   3.626   2.270  0.1189 -0.0540 -0.2261
    1SOL    HW2 5010   0.662   3.715   2.305 -1.0623 -0.2022  0.3123
    1SOL    HW3 5011   0.656   3.638   2.175  1.7998  0.4106 -0.2177
    1SOL    MW4 5012   0.658   3.639   2.262  0.1847 -0.0122 -0.1543
    1SOL     OW 5013   0.659   3.883   2.362 -0.1192  0.3082  0.2270
    1SOL    HW2 5014   0.659   3.881   2.458  0.6160 -2.5956  0.2091
    1SOL    HW3 5015   0.576   3.923   2.339 -1.1867 -0.7803  2.0781
    1SOL    MW4 5016   0.648   3.888   2.372 -0.1630 -0.2186  0.4687
    1SOL     OW 5017   0.435   4.016   2.280 -0.2071  0.0108 -0.2664
    1SOL    HW2 5018   0.353   3.974   2.303  0.7896 -2.4220 -0.9738
    1SOL    HW3 5019   0.438   4.012   2.184  0.4850  0.5913 -0.2756
    1SOL    MW4 5020   0.425   4.010   2.270  0.0157 -0.2341 -0.3607
    1SOL     OW 5021   0.430   4.288   2.348 -0.0857  0.4371 -0.3738
    1SOL    HW2 5022   0.510   4.332   2.318 -0.6543  0.7480 -1.4540
    1SOL    HW3 5023   0.439   4.199   2.315  0.5805  0.0094  0.9273
    1SOL    MW4 5024   0.442   4.282   2.339 -0.0728  0.4215 -0.3445
    1SOL     OW 5025   0.683   4.394   2.276 -0.4616 -0.3827 -0.2320
    1SOL    HW2 5026   0.681   4.487   2.299 -0.5864 -0.6303  0.7590
    1SOL    HW3 5027   0.673   4.393   2.181  2.7022  0.7886 -0.6347
    1SOL    MW4 5028   0.682   4.406   2.267 -0.0606 -0.2608 -0.1543
    1SOL     OW 5029   1.114   4.657   2.384  0.6189 -0.4034 -0.1022
    1SOL    HW2 5030   1.094   4.649   2.478 -0.8870 -1.6657 -0.5144
    1SOL    HW3 5031   1.037   4.699   2.347  0.9524 -0.4679 -0.8630
    1SOL    MW4 5032   1.101   4.661   2.392  0.4643 -0.5784 -0.2570
    1SOL     OW 5033   0.873   0.117   2.279 -0.0516 -0.0233 -0.1118
    1SOL    HW2 5034   0.863   0.210   2.300 -0.8610 -0.1328  0.0142
    1SOL    HW3 5035   0.888   0.116   2.184  0.6302  0.2794 -0.0057
    1SOL    MW4 5036   0.874   0.129   2.269 -0.0684  0.0022 -0.0808
    1SOL     OW 5037   0.860   0.381   2.345 -0.1093  0.3050 -0.4251
    1SOL    HW2 5038   0.942   0.419   2.315  0.1949 -0.5489 -0.7069
    1SOL    HW3 5039   0.791   0.437   2.309  0.3373  0.7550 -0.5701
    1SOL    MW4 5040   0.861   0.393   2.336 -0.0102  0.2517 -0.4814
    1SOL     OW 5041   1.099   0.489   2.281 -0.0864  0.4617 -0.0090
    1SOL    HW2 5042   1.179   0.438   2.297  1.0093  2.2125  0.1548
    1SOL    HW3 5043   1.087   0.485   2.186 -0.1406 -0.2816  0.0244
    1SOL    MW4 5044   1.108   0.482   2.270  0.0510  0.5946  0.0169
    1SOL     OW 5045   1.083   0.747   2.364 -0.0221  0.1961 -0.0363
    1SOL    HW2 5046   1.005   0.783   2.321 -0.0924 -0.0660 -0.1282
    1SOL    HW3 5047   1.094   0.660   2.325  1.8103  1.2149 -1.9077
    1SOL    MW4 5048   1.074   0.740   2.353  0.2104  0.2959 -0.2954
    1SOL     OW 5049   0.870   0.864   2.226  0.0450  0.4217 -0.3334
    1SOL    HW2 5050   0.871   0.948   2.271 -0.6154  0.0438  0.3924
    1SOL    HW3 5051   0.799   0.815   2.267  0.8619 -0.7495 -0.2620
    1SOL    MW4 5052   0.861   0.869   2.237  0.0656  0.2174 -0.2284
    1SOL     OW 5053   0.861   1.106   2.348  0.0184 -0.3616  0.3062
    1SOL    HW2 5054   0.939   1.155   2.326  0.5247 -1.3461 -0.1395
    1SOL    HW3 5055   0.789   1.159   2.313  0.4576  0.6584  0.9255
    1SOL    MW4 5056   0.861   1.119   2.340  0.1432 -0.3570  0.3290
    1SOL     OW 5057   1.073   1.264   2.263  0.3586  0.3286  0.1939
    1SOL    HW2 5058   1.158   1.239   2.299  0.9126  0.7130 -0.8444
    1SOL    HW3 5059   1.090   1.283   2.171 -0.8463  0.4370 -0.0127
    1SOL    MW4 5060   1.086   1.263   2.256  0.2728  0.3935  0.0296
    1SOL     OW 5061   1.139   1.530   2.357 -0.1661  0.1968 -0.3278
    1SOL    HW2 5062   1.063   1.580   2.331 -0.2212  0.1884 -0.1844
    1SOL    HW3 5063   1.113   1.438   2.345 -1.1543  0.0654  2.2934
    1SOL    MW4 5064   1.126   1.524   2.352 -0.3037  0.1785  0.0372
    1SOL     OW 5065   0.915   1.672   2.265 -0.1916  0.5162 -0.0580
    1SOL    HW2 5066   0.906   1.764   2.289  1.0221  0.8619 -0.8701
    1SOL    HW3 5067   0.918   1.672   2.170  0.2726 -0.3103 -0.0506
    1SOL    MW4 5068   0.914   1.684   2.256  0.0298  0.4528 -0.1638
    1SOL     OW 5069   0.931   1.946   2.377  0.5286  0.0407  0.4410
    1SOL    HW2 5070   0.925   1.934   2.472  0.8692  0.0082  0.4562
    1SOL    HW3 5071   1.017   1.984   2.362  0.4693  0.0632  0.1444
    1SOL    MW4 5072   0.941   1.950   2.387  0.5658  0.0395  0.4039
    1SOL     OW 5073   1.157   2.082   2.287  0.1013  0.3689  0.0039
    1SOL    HW2 5074   1.234   2.026   2.290 -1.1944 -1.4059  0.5534
    1SOL    HW3 5075   1.132   2.085   2.195 -0.7132 -1.2216  0.1564
    1SOL    MW4 5076   1.164   2.075   2.275 -0.1770 -0.0753  0.0963
    1SOL     OW 5077   1.141   2.320   2.402 -0.1064  0.0893  0.1805
    1SOL    HW2 5078   1.218   2.364   2.366 -0.2533  0.9067  0.8610
    1SOL    HW3 5079   1.145   2.231   2.365 -0.2438  0.8761 -1.8329
    1SOL    MW4 5080   1.152   2.314   2.392 -0.1438  0.3009  0.0045
    1SOL     OW 5081   0.918   2.451   2.300 -0.4897 -0.0052  0.6266
    1SOL    HW2 5082   1.005   2.433   2.335 -0.2008 -0.4729 -0.3433
    1SOL    HW3 5083   0.929   2.453   2.205 -1.1410  1.9489  0.5575
    1SOL    MW4 5084   0.931   2.449   2.292 -0.5375  0.1905  0.4895
    1SOL     OW 5085   0.893   2.715   2.393 -0.1417 -0.1721  0.3369
    1SOL    HW2 5086   0.879   2.698   2.486 -1.0184 -1.7902 -0.0776
    1SOL    HW3 5087   0.915   2.630   2.356  0.3787  0.4891 -0.9152
    1SOL    MW4 5088   0.894   2.702   2.401 -0.1887 -0.2985  0.1168
    1SOL     OW 5089   1.112   2.832   2.269  0.2172  0.3192 -0.2910
    1SOL    HW2 5090   1.190   2.786   2.301  0.2827  1.2899  0.9531
    1SOL    HW3 5091   1.041   2.801   2.325 -0.1413  0.0584 -0.8904
    1SOL    MW4 5092   1.113   2.822   2.280  0.1786  0.4129 -0.2062
    1SOL     OW 5093   1.147   3.092   2.360 -0.2773  0.0167  0.2562
    1SOL    HW2 5094   1.076   3.139   2.315  0.1245  0.6544  0.2791
    1SOL    HW3 5095   1.145   3.004   2.324 -1.1406  0.0091  0.3150
    1SOL    MW4 5096   1.137   3.087   2.350 -0.3383  0.0999  0.2673
    1SOL     OW 5097   0.911   3.228   2.271 -0.0850 -0.2078 -0.4363
    1SOL    HW2 5098   0.914   3.315   2.311  0.7459 -0.5687  0.3085
    1SOL    HW3 5099   0.834   3.186   2.310 -0.5415  0.2264 -0.8680
    1SOL    MW4 5100   0.901   3.234   2.282 -0.0356 -0.1984 -0.3951
    1SOL     OW 5101   0.883   3.482   2.366 -0.2808  0.0347 -0.3194
    1SOL    HW2 5102   0.886   3.479   2.462 -0.5714 -2.4311 -0.3526
    1SOL    HW3 5103   0.798   3.522   2.346 -0.7623 -0.5904  0.4546
    1SOL    MW4 5104   0.872   3.487   2.376 -0.3827 -0.3731 -0.2215
    1SOL     OW 5105   1.111   3.606   2.253  0.0823 -0.5412 -0.4302
    1SOL    HW2 5106   1.171   3.549   2.301  0.0791  1.1351  1.6488
    1SOL    HW3 5107   1.024   3.571   2.274  0.1427 -0.5998 -0.2749
    1SOL    MW4 5108   1.107   3.593   2.262  0.0898 -0.3281 -0.1354
    1SOL     OW 5109   1.119   3.870   2.350 -0.2581 -0.1168 -0.3026
    1SOL    HW2 5110   1.188   3.921   2.308 -0.1277  0.3085  0.4203
    1SOL    HW3 5111   1.128   3.782   2.313  1.3454 -0.3368  0.5722
    1SOL    MW4 5112   1.129   3.865   2.339 -0.0292 -0.0899 -0.0918
    1SOL     OW 5113   0.907   4.034   2.304 -0.1979 -0.1027  0.1602
    1SOL    HW2 5114   0.976   3.970   2.321 -1.0166 -1.0706 -0.0952
    1SOL    HW3 5115   0.826   3.988   2.325 -0.8963  0.3836 -1.3779
    1SOL    MW4 5116   0.905   4.019   2.309 -0.3980 -0.1655 -0.0765
    1SOL     OW 5117   0.897   4.294   2.383  0.2605  0.4133  0.4698
    1SOL    HW2 5118   0.897   4.205   2.347  0.6147  0.5305  0.1720
    1SOL    HW3 5119   0.824   4.338   2.339  0.7631  0.5899 -0.1999
    1SOL    MW4 5120   0.887   4.288   2.372  0.3736  0.4520  0.3421
    1SOL     OW 5121   1.117   4.398   2.245  0.1004  0.0648  0.0053
    1SOL    HW2 5122   1.045   4.354   2.289  0.1467 -0.7940 -0.7407
    1SOL    HW3 5123   1.124   4.483   2.288 -0.3559 -0.4420  1.1057
    1SOL    MW4 5124   1.109   4.403   2.256  0.0464 -0.1159  0.0522
    1SOL     OW 5125   1.616   4.640   2.352  0.0995 -0.2678  0.3261
    1SOL    HW2 5126   1.695   4.680   2.314  0.9130 -2.4733 -0.4067
    1SOL    HW3 5127   1.544   4.692   2.318  1.0879  0.1088 -1.2449
    1SOL    MW4 5128   1.617   4.652   2.342  0.3372 -0.5093  0.0219
    1SOL     OW 5129   1.374   0.097   2.282 -0.4253  0.4183 -0.0374
    1SOL    HW2 5130   1.377   0.185   2.319 -1.3384  0.5902 -0.3604
    1SOL    HW3 5131   1.298   0.056   2.324 -0.7702  0.2238 -0.8425
    1SOL    MW4 5132   1.365   0.103   2.292 -0.5913  0.4153 -0.1862
    1SOL     OW 5133   1.354   0.357   2.367  0.8542  0.0985 -0.0401
    1SOL    HW2 5134   1.329   0.355   2.459  1.1530  1.9265  0.1020
    1SOL    HW3 5135   1.420   0.426   2.362  1.0124 -0.1490 -1.5862
    1SOL    MW4 5136   1.359   0.366   2.379  0.9145  0.3070 -0.2258
    1SOL     OW 5137   1.552   0.532   2.275  0.1159 -0.3461 -0.5126
    1SOL    HW2 5138   1.621   0.473   2.305 -1.8152 -1.7772  1.3060
    1SOL    HW3 5139   1.542   0.511   2.182  0.2378 -2.1332 -0.1460
    1SOL    MW4 5140   1.560   0.521   2.267 -0.1229 -0.7707 -0.2246
    1SOL     OW 5141   1.568   0.811   2.312  0.0707  0.3827 -0.4714
    1SOL    HW2 5142   1.648   0.851   2.277  0.3014  0.6904  0.3821
    1SOL    HW3 5143   1.576   0.718   2.288  0.2277  0.5841 -1.2107
    1SOL    MW4 5144   1.580   0.804   2.305  0.1218  0.4498 -0.4566
    1SOL     OW 5145   1.315   0.930   2.263  0.6177  0.0959 -0.1477
    1SOL    HW2 5146   1.399   0.884   2.268  0.4872  0.0434  2.4717
    1SOL    HW3 5147   1.254   0.873   2.310 -0.2240  1.5106  0.5108
    1SOL    MW4 5148   1.318   0.916   2.270  0.4895  0.2757  0.2847
    1SOL     OW 5149   1.304   1.179   2.365  0.0046 -0.2976 -0.6192
    1SOL    HW2 5150   1.303   1.179   2.461  0.1339 -0.5361 -0.6177
    1SOL    HW3 5151   1.288   1.088   2.340 -1.3336 -0.0189 -0.8457
    1SOL    MW4 5152   1.302   1.167   2.374 -0.1549 -0.2923 -0.6487
    1SOL     OW 5153   1.586   1.261   2.261  0.2758  0.0506  0.5849
    1SOL    HW2 5154   1.504   1.246   2.308  0.4690  2.4128  1.7997
    1SOL    HW3 5155   1.562   1.261   2.169 -1.0622  0.4747  0.9250
    1SOL    MW4 5156   1.572   1.259   2.255  0.1247  0.4181  0.7899
    1SOL     OW 5157   1.596   1.524   2.341 -0.0923 -0.0417  0.3871
    1SOL    HW2 5158   1.681   1.562   2.317 -0.2235 -0.6766 -1.1333
    1SOL    HW3 5159   1.597   1.437   2.301 -0.6057 -0.8762  2.1647
    1SOL    MW4 5160   1.608   1.518   2.333 -0.1774 -0.2356  0.4210
    1SOL     OW 5161   1.353   1.641   2.242 -0.1349 -0.6443 -0.1064
    1SOL    HW2 5162   1.430   1.594   2.272 -1.1522 -1.8053  0.7138
    1SOL    HW3 5163   1.280   1.601   2.289 -0.8407  3.0048  2.1444
    1SOL    MW4 5164   1.353   1.630   2.252 -0.3623 -0.3159  0.2990
    1SOL     OW 5165   1.360   1.904   2.356  0.3752 -0.1615  0.6798
    1SOL    HW2 5166   1.426   1.941   2.298  0.8766  0.2885  1.5386
    1SOL    HW3 5167   1.356   1.811   2.332 -0.1544  0.2095 -0.7702
    1SOL    MW4 5168   1.368   1.896   2.345  0.3713 -0.0530  0.6018
    1SOL     OW 5169   1.553   2.053   2.217  0.0432  0.1967  0.1013
    1SOL    HW2 5170   1.640   2.023   2.241 -0.2133 -0.1462  0.6095
    1SOL    HW3 5171   1.550   2.045   2.122 -0.1839 -1.8043  0.2668
    1SOL    MW4 5172   1.564   2.048   2.208 -0.0206 -0.1128  0.1900
    1SOL     OW 5173   1.563   2.302   2.328  0.1265  0.2906 -0.3098
    1SOL    HW2 5174   1.554   2.296   2.423 -1.0982  0.9583 -0.3704
    1SOL    HW3 5175   1.546   2.213   2.297 -0.1712  0.2242  0.0400
    1SOL    MW4 5176   1.560   2.289   2.337 -0.0744  0.3698 -0.2718
    1SOL     OW 5177   1.343   2.449   2.259  0.0264  0.2877  0.1024
    1SOL    HW2 5178   1.419   2.393   2.276  0.5321  0.6709 -0.8435
    1SOL    HW3 5179   1.332   2.446   2.164  0.8065  2.7427 -0.1084
    1SOL    MW4 5180   1.352   2.441   2.248  0.1960  0.6621 -0.0501
    1SOL     OW 5181   1.346   2.703   2.355 -0.1701 -0.1699 -0.5824
    1SOL    HW2 5182   1.426   2.750   2.331 -0.6707  0.2766 -1.3667
    1SOL    HW3 5183   1.360   2.614   2.324  0.4148 -0.3308  0.1275
    1SOL    MW4 5184   1.359   2.698   2.348 -0.1591 -0.1321 -0.5922
    1SOL     OW 5185   1.575   2.821   2.271  0.1872  0.2050 -0.2126
    1SOL    HW2 5186   1.579   2.914   2.294 -0.7736  0.3070 -0.4321
    1SOL    HW3 5187   1.583   2.820   2.175  1.3255 -0.0252 -0.1308
    1SOL    MW4 5188   1.577   2.833   2.261  0.2106  0.1884 -0.2308
    1SOL     OW 5189   1.572   3.089   2.351 -0.3806 -0.3354 -0.1317
    1SOL    HW2 5190   1.569   3.085   2.446 -0.9664 -1.9227 -0.2063
    1SOL    HW3 5191   1.510   3.158   2.327 -0.1173  0.1687  0.6357
    1SOL    MW4 5192   1.564   3.097   2.360 -0.4233 -0.4785 -0.0408
    1SOL     OW 5193   1.354   3.241   2.286 -0.2878  0.3257 -0.1665
    1SOL    HW2 5194   1.286   3.177   2.310 -0.0688  0.0979 -0.1440
    1SOL    HW3 5195   1.361   3.234   2.191 -0.1893  0.2405 -0.1531
    1SOL    MW4 5196   1.346   3.231   2.277 -0.2458  0.2842 -0.1621
    1SOL     OW 5197   1.310   3.477   2.407 -0.4773  0.0050 -0.3297
    1SOL    HW2 5198   1.319   3.479   2.502 -1.1795 -2.4477 -0.1592
    1SOL    HW3 5199   1.340   3.389   2.382  0.8471  1.0346 -2.5153
    1SOL    MW4 5200   1.315   3.465   2.416 -0.3953 -0.1826 -0.5958
    1SOL     OW 5201   1.543   3.593   2.278  0.0589 -0.2798 -0.2702
    1SOL    HW2 5202   1.546   3.683   2.311 -1.4220 -0.3609  0.1309
    1SOL    HW3 5203   1.464   3.556   2.317  0.1232 -1.4464 -1.2268
    1SOL    MW4 5204   1.533   3.600   2.288 -0.1279 -0.4444 -0.3433
    1SOL     OW 5205   1.554   3.844   2.390  0.3372 -0.4605  0.2277
    1SOL    HW2 5206   1.564   3.859   2.484  0.3079 -2.0968  0.4991
    1SOL    HW3 5207   1.633   3.883   2.351  0.7953 -0.5952  1.0171
    1SOL    MW4 5208   1.566   3.851   2.397  0.3937 -0.6940  0.3674
    1SOL     OW 5209   1.352   4.028   2.290 -0.4729  0.5502  0.1528
    1SOL    HW2 5210   1.409   3.963   2.331 -1.5024 -1.6280 -1.6965
    1SOL    HW3 5211   1.364   4.013   2.196 -0.7413  3.0812 -0.3014
    1SOL    MW4 5212   1.361   4.017   2.283 -0.6442  0.5970 -0.1514
    1SOL     OW 5213   1.352   4.293   2.349 -0.3781  0.0552 -0.2350
    1SOL    HW2 5214   1.359   4.199   2.334  1.3222  0.1615 -0.1278
    1SOL    HW3 5215   1.268   4.317   2.309 -0.8567 -1.5034 -0.2138
    1SOL    MW4 5216   1.342   4.284   2.342 -0.2168 -0.1369 -0.2182
    1SOL     OW 5217   1.591   4.391   2.237  0.0797  0.5647 -0.3844
    1SOL    HW2 5218   1.512   4.351   2.273  0.9122  0.2448  1.1152
    1SOL    HW3 5219   1.594   4.479   2.275  1.0207  0.1871  0.4292
    1SOL    MW4 5220   1.581   4.397   2.247  0.3138  0.4725 -0.0792
    1SOL     OW 5221   2.017   4.660   2.384 -0.2282 -0.1704  0.1264
    1SOL    HW2 5222   2.100   4.693   2.349 -1.0123  0.9084 -0.7511
    1SOL    HW3 5223   2.006   4.574   2.343  0.2018 -0.0946 -0.1560
    1SOL    MW4 5224   2.026   4.653   2.374 -0.2749 -0.0176 -0.0265
    1SOL     OW 5225   1.821   0.120   2.228 -0.1070 -0.7432 -0.2843
    1SOL    HW2 5226   1.806   0.206   2.266 -0.9832 -1.0245  0.0143
    1SOL    HW3 5227   1.892   0.083   2.281  0.5823 -0.0307 -0.7045
    1SOL    MW4 5228   1.829   0.126   2.240 -0.1316 -0.6863 -0.3004
    1SOL     OW 5229   1.770   0.372   2.331  0.0976 -0.3838 -0.0361
    1SOL    HW2 5230   1.796   0.371   2.423  1.0416  1.1401 -0.2694
    1SOL    HW3 5231   1.847   0.406   2.285 -0.2262 -1.5094 -1.4368
    1SOL    MW4 5232   1.784   0.377   2.337  0.1794 -0.3313 -0.2518
    1SOL     OW 5233   2.030   0.466   2.253  0.1741  0.2735  0.4120
    1SOL    HW2 5234   2.029   0.558   2.278 -1.0193  0.3252  0.1966
    1SOL    HW3 5235   2.024   0.466   2.158  1.0072 -0.0085  0.3572
    1SOL    MW4 5236   2.029   0.478   2.244  0.1264  0.2431  0.3765
    1SOL     OW 5237   2.001   0.738   2.301  0.2872  0.1009  0.0212
    1SOL    HW2 5238   2.089   0.775   2.292 -0.1298  1.5846  1.6176
    1SOL    HW3 5239   1.996   0.710   2.393 -0.6788 -0.5768 -0.2286
    1SOL    MW4 5240   2.012   0.740   2.312  0.1049  0.2071  0.1988
    1SOL     OW 5241   1.804   0.936   2.244  0.0056  0.2973  0.0563
    1SOL    HW2 5242   1.814   1.014   2.298  0.3311  0.2082  0.1279
    1SOL    HW3 5243   1.881   0.882   2.265  0.2324  0.3444 -0.6298
    1SOL    MW4 5244   1.816   0.939   2.253  0.0786  0.2917 -0.0246
    1SOL     OW 5245   1.815   1.165   2.382 -0.1145 -0.0434  0.3875
    1SOL    HW2 5246   1.878   1.208   2.325 -0.5923 -2.0310 -1.7162
    1SOL    HW3 5247   1.729   1.193   2.348 -0.4233 -2.2577 -0.7588
    1SOL    MW4 5248   1.812   1.174   2.370 -0.2183 -0.5976 -0.0410
    1SOL     OW 5249   2.033   1.263   2.217 -0.6556  0.1078 -0.2341
    1SOL    HW2 5250   2.044   1.349   2.257 -0.7790  0.6600 -1.3734
    1SOL    HW3 5251   2.102   1.209   2.258  0.9327  1.3551 -1.2174
    1SOL    MW4 5252   2.043   1.267   2.228 -0.4623  0.3452 -0.5143
    1SOL     OW 5253   2.061   1.516   2.341  0.7709  0.5466 -0.0135
    1SOL    HW2 5254   2.045   1.507   2.435  0.1860 -0.0449 -0.1669
    1SOL    HW3 5255   1.981   1.556   2.307 -0.2358 -1.9833 -0.7069
    1SOL    MW4 5256   2.049   1.520   2.349  0.5608  0.1347 -0.1254
    1SOL     OW 5257   1.831   1.644   2.260  0.9180 -0.0767  0.2025
    1SOL    HW2 5258   1.821   1.737   2.281 -0.0596 -0.0003 -0.5271
    1SOL    HW3 5259   1.819   1.640   2.165 -0.6868 -1.1460  0.4322
    1SOL    MW4 5260   1.828   1.656   2.250  0.5773 -0.2078  0.1366
    1SOL     OW 5261   1.796   1.920   2.340  0.4616  0.2163 -0.6145
    1SOL    HW2 5262   1.785   1.922   2.435  0.2517 -0.4400 -0.6208
    1SOL    HW3 5263   1.877   1.968   2.324 -0.1292  1.3510 -0.2060
    1SOL    MW4 5264   1.806   1.926   2.351  0.3561  0.2794 -0.5615
    1SOL     OW 5265   2.029   2.040   2.247 -0.2909 -0.2986 -0.2812
    1SOL    HW2 5266   2.105   1.984   2.262  0.7157  1.3201  0.7258
    1SOL    HW3 5267   2.020   2.043   2.152  0.3570 -1.2156 -0.3796
    1SOL    MW4 5268   2.038   2.033   2.236 -0.0727 -0.2060 -0.1614
    1SOL     OW 5269   2.010   2.309   2.340 -0.2359  0.4096 -0.1952
    1SOL    HW2 5270   2.099   2.340   2.321  0.0994 -0.5216 -0.1728
    1SOL    HW3 5271   2.015   2.214   2.329 -1.2017  0.3413 -0.0754
    1SOL    MW4 5272   2.023   2.300   2.336 -0.3190  0.2778 -0.1764
    1SOL     OW 5273   1.808   2.456   2.221  0.1488  0.2087 -0.1012
    1SOL    HW2 5274   1.886   2.412   2.253  0.1004  0.7120  0.7191
    1SOL    HW3 5275   1.735   2.400   2.248  0.2050 -0.0858 -0.5644
    1SOL    MW4 5276   1.809   2.443   2.229  0.1498  0.2363 -0.0539
    1SOL     OW 5277   1.799   2.698   2.374 -0.0920  0.2711 -0.1730
    1SOL    HW2 5278   1.804   2.610   2.337 -0.1831  0.3252 -0.3183
    1SOL    HW3 5279   1.718   2.734   2.338 -0.0625  0.4085 -0.1020
    1SOL    MW4 5280   1.789   2.691   2.364 -0.1001  0.2964 -0.1826
    1SOL     OW 5281   2.014   2.811   2.256  0.2058 -0.4486 -0.0553
    1SOL    HW2 5282   2.090   2.764   2.290 -0.7736 -1.1755  1.1571
    1SOL    HW3 5283   1.939   2.764   2.290 -0.8080  0.2745 -1.2305
    1SOL    MW4 5284   2.015   2.799   2.265 -0.0572 -0.4492 -0.0503
    1SOL     OW 5285   2.014   3.064   2.381  0.1215 -0.2215 -0.2786
    1SOL    HW2 5286   2.088   3.099   2.332 -0.6444 -0.0278 -1.3044
    1SOL    HW3 5287   1.996   2.979   2.341  0.1771 -0.5412  0.3683
    1SOL    MW4 5288   2.021   3.057   2.369  0.0279 -0.2379 -0.3288
    1SOL     OW 5289   1.816   3.216   2.255  0.3247 -0.6468 -0.8818
    1SOL    HW2 5290   1.887   3.167   2.297 -0.2947 -1.3555 -0.6568
    1SOL    HW3 5291   1.736   3.178   2.290 -0.1718  0.8883 -0.3007
    1SOL    MW4 5292   1.815   3.204   2.265  0.1775 -0.5376 -0.7756
    1SOL     OW 5293   1.816   3.486   2.328  0.7229 -0.3493 -0.0201
    1SOL    HW2 5294   1.833   3.397   2.295  0.5386 -0.5267  0.3586
    1SOL    HW3 5295   1.732   3.510   2.289  0.4374 -0.6135  0.4225
    1SOL    MW4 5296   1.807   3.477   2.318  0.6609 -0.4077  0.0882
    1SOL     OW 5297   2.029   3.637   2.224 -0.0963 -0.7115 -0.3009
    1SOL    HW2 5298   1.946   3.597   2.248  0.1765 -0.9116  0.3344
    1SOL    HW3 5299   2.030   3.637   2.128 -0.5338 -1.3146 -0.3040
    1SOL    MW4 5300   2.018   3.632   2.215 -0.1183 -0.8175 -0.2174
    1SOL     OW 5301   2.048   3.892   2.331 -0.4503  0.3995 -0.1136
    1SOL    HW2 5302   2.030   3.872   2.423 -0.6886  0.5933 -0.1181
    1SOL    HW3 5303   2.057   3.807   2.289  2.9928  0.2590  0.7415
    1SOL    MW4 5304   2.047   3.878   2.338 -0.0274  0.4067 -0.0014
    1SOL     OW 5305   1.787   4.000   2.276  0.5330 -0.1641  0.1470
    1SOL    HW2 5306   1.872   3.964   2.301  0.9587  0.6994 -0.0269
    1SOL    HW3 5307   1.790   4.004   2.180  1.0264  1.5618  0.2058
    1SOL    MW4 5308   1.799   3.996   2.266  0.6543  0.1776  0.1316
    1SOL     OW 5309   1.800   4.269   2.368  0.1923  0.4803 -0.0050
    1SOL    HW2 5310   1.797   4.175   2.355 -0.9691  0.5072  0.0575
    1SOL    HW3 5311   1.726   4.303   2.318  0.3382  1.3155  0.3382
    1SOL    MW4 5312   1.790   4.261   2.360  0.0583  0.5941  0.0482
    1SOL     OW 5313   2.025   4.402   2.261 -0.0302  0.7401 -0.0834
    1SOL    HW2 5314   1.955   4.350   2.299  0.0231  0.8697  0.1917
    1SOL    HW3 5315   2.021   4.382   2.167  0.0945  0.1216  0.0415
    1SOL    MW4 5316   2.015   4.392   2.254 -0.0067  0.6752 -0.0303
    1SOL     OW 5317   2.490   4.601   2.341 -0.2061  0.3244  0.1042
    1SOL    HW2 5318   2.564   4.649   2.303  0.0650  0.9808  1.4200
    1SOL    HW3 5319   2.486   4.519   2.291  0.7604  0.7251 -0.6540
    1SOL    MW4 5320   2.499   4.597   2.329 -0.0427  0.4640  0.1776
    1SOL     OW 5321   2.251   0.074   2.241  0.4797 -0.0537 -0.2024
    1SOL    HW2 5322   2.248   0.162   2.277 -1.7744 -0.3448  0.4188
    1SOL    HW3 5323   2.339   0.041   2.262  1.4104  2.0959 -0.6527
    1SOL    MW4 5324   2.262   0.081   2.248  0.3052  0.1915 -0.1798
    1SOL     OW 5325   2.241   0.318   2.357 -0.0038  0.2893  0.1252
    1SOL    HW2 5326   2.169   0.371   2.321 -0.0681  1.0061  1.2934
    1SOL    HW3 5327   2.320   0.366   2.334  0.0157  0.2679  0.1481
    1SOL    MW4 5328   2.242   0.331   2.349 -0.0095  0.3810  0.2823
    1SOL     OW 5329   2.465   0.451   2.285 -0.0307 -0.5056 -0.1404
    1SOL    HW2 5330   2.553   0.422   2.309  0.4673  1.0018 -0.0744
    1SOL    HW3 5331   2.464   0.448   2.189  0.4687  0.5196 -0.1837
    1SOL    MW4 5332   2.477   0.447   2.275  0.1011 -0.1715 -0.1373
    1SOL     OW 5333   2.452   0.730   2.374  0.1344 -0.1176 -0.0609
    1SOL    HW2 5334   2.535   0.765   2.340  0.1988  0.2349  0.4445
    1SOL    HW3 5335   2.447   0.641   2.339  0.2524  0.1989 -0.8880
    1SOL    MW4 5336   2.463   0.723   2.365  0.1583 -0.0294 -0.1032
    1SOL     OW 5337   2.237   0.871   2.258  0.0169  0.5405  0.1949
    1SOL    HW2 5338   2.239   0.962   2.288  0.4308  0.6075 -0.0378
    1SOL    HW3 5339   2.321   0.835   2.286  0.3469  0.5619 -0.7628
    1SOL    MW4 5340   2.248   0.878   2.266  0.1147  0.5522  0.0381
    1SOL     OW 5341   2.255   1.122   2.353  0.0770  0.2278  0.0063
    1SOL    HW2 5342   2.338   1.153   2.318  0.2995  0.0137  0.3347
    1SOL    HW3 5343   2.266   1.126   2.448  0.6097 -2.1182  0.0817
    1SOL    MW4 5344   2.268   1.126   2.361  0.1767 -0.1099  0.0598
    1SOL     OW 5345   2.497   1.205   2.207 -0.2730 -0.1828  0.3918
    1SOL    HW2 5346   2.564   1.157   2.255  1.1140  1.2795 -0.0606
    1SOL    HW3 5347   2.499   1.293   2.245  0.0138  0.6528 -1.5232
    1SOL    MW4 5348   2.506   1.210   2.218 -0.0525  0.1204  0.0792
    1SOL     OW 5349   2.473   1.472   2.310  0.0694  0.0425  0.1063
    1SOL    HW2 5350   2.439   1.506   2.393  1.3235 -1.0382  1.0776
    1SOL    HW3 5351   2.550   1.525   2.291  0.7167 -0.7487  0.4702
    1SOL    MW4 5352   2.479   1.483   2.318  0.3202 -0.2046  0.2823
    1SOL     OW 5353   2.269   1.650   2.201 -0.2678 -0.1688  0.6803
    1SOL    HW2 5354   2.343   1.593   2.224  0.7245  0.3266 -1.1598
    1SOL    HW3 5355   2.192   1.603   2.233  0.6510 -1.9053  0.4229
    1SOL    MW4 5356   2.269   1.636   2.208 -0.0155 -0.3326  0.4034
    1SOL     OW 5357   2.281   1.921   2.288  0.3504  0.1408 -0.2102
    1SOL    HW2 5358   2.359   1.965   2.254 -0.4221  0.6855 -1.3085
    1SOL    HW3 5359   2.286   1.832   2.255  1.1789 -0.2122  0.8271
    1SOL    MW4 5360   2.292   1.915   2.279  0.3579  0.1662 -0.2184
    1SOL     OW 5361   2.503   2.054   2.215 -0.1998  0.0031 -0.0871
    1SOL    HW2 5362   2.565   1.991   2.252 -1.8896 -1.2122  0.7158
    1SOL    HW3 5363   2.517   2.048   2.120  0.7479 -0.4238  0.0713
    1SOL    MW4 5364   2.513   2.045   2.207 -0.2975 -0.2136  0.0398
    1SOL     OW 5365   2.441   2.295   2.358  0.2134 -0.4704 -0.1303
    1SOL    HW2 5366   2.501   2.361   2.325 -0.8145  0.4077 -0.2896
    1SOL    HW3 5367   2.472   2.213   2.320  0.1764  0.2575 -1.7632
    1SOL    MW4 5368   2.453   2.293   2.349  0.0730 -0.2584 -0.3667
    1SOL     OW 5369   2.239   2.432   2.237  0.0728  0.2534 -0.0885
    1SOL    HW2 5370   2.227   2.517   2.279 -1.4289 -0.7617  1.5983
    1SOL    HW3 5371   2.316   2.395   2.280 -1.1551 -0.5637  1.4537
    1SOL    MW4 5372   2.248   2.438   2.248 -0.2875  0.0117  0.3374
    1SOL     OW 5373   2.228   2.667   2.374 -0.1741  0.1297 -0.0067
    1SOL    HW2 5374   2.218   2.672   2.470 -0.9269 -0.4972 -0.0518
    1SOL    HW3 5375   2.299   2.728   2.355 -0.2384  0.5133  0.9221
    1SOL    MW4 5376   2.236   2.676   2.384 -0.2818  0.0975  0.1099
    1SOL     OW 5377   2.442   2.802   2.275  0.2614 -0.0234 -0.2459
    1SOL    HW2 5378   2.527   2.770   2.303  1.3754  1.9271 -1.3123
    1SOL    HW3 5379   2.451   2.815   2.180 -0.7765  1.5761 -0.1415
    1SOL    MW4 5380   2.454   2.799   2.266  0.2713  0.4451 -0.3729
    1SOL     OW 5381   2.434   3.078   2.336 -0.2848 -0.3291  0.0175
    1SOL    HW2 5382   2.524   3.107   2.320 -0.5277  1.1358  1.2102
    1SOL    HW3 5383   2.431   2.990   2.299  1.6058 -0.3474 -0.1687
    1SOL    MW4 5384   2.446   3.070   2.329 -0.0677 -0.1385  0.1502
    1SOL     OW 5385   2.209   3.187   2.227 -0.4046  0.6019 -0.0866
    1SOL    HW2 5386   2.195   3.274   2.265 -0.6069  0.9643 -0.9588
    1SOL    HW3 5387   2.285   3.152   2.273 -0.4121  1.1791  0.3754
    1SOL    MW4 5388   2.217   3.194   2.238 -0.4323  0.7262 -0.1409
    1SOL     OW 5389   2.203   3.444   2.324  0.3981  0.3791 -0.0318
    1SOL    HW2 5390   2.187   3.452   2.418  0.0716 -0.0698 -0.0484
    1SOL    HW3 5391   2.152   3.515   2.285  2.5674  2.1926  0.3283
    1SOL    MW4 5392   2.194   3.455   2.331  0.6409  0.5593  0.0136
    1SOL     OW 5393   2.461   3.550   2.266  0.2159 -0.2026 -0.1993
    1SOL    HW2 5394   2.439   3.638   2.296  0.1118  0.0668 -1.0534
    1SOL    HW3 5395   2.380   3.500   2.277 -0.0976  0.1364 -0.9135
    1SOL    MW4 5396   2.447   3.555   2.271  0.1609 -0.1225 -0.4065
    1SOL     OW 5397   2.452   3.815   2.340  0.3009 -0.5352 -0.2505
    1SOL    HW2 5398   2.479   3.831   2.430  0.0670  0.2518 -0.3116
    1SOL    HW3 5399   2.388   3.885   2.321  1.0212 -0.1420 -1.3118
    1SOL    MW4 5400   2.447   3.827   2.349  0.3650 -0.3796 -0.3984
    1SOL     OW 5401   2.276   4.016   2.253 -0.1827  0.0662  0.2025
    1SOL    HW2 5402   2.276   4.104   2.291 -0.1691 -0.3487  1.1619
    1SOL    HW3 5403   2.192   3.979   2.277 -0.9468  0.4571 -1.7362
    1SOL    MW4 5404   2.265   4.023   2.261 -0.2818  0.0625  0.0730
    1SOL     OW 5405   2.255   4.274   2.364 -0.1955 -0.4257 -0.5414
    1SOL    HW2 5406   2.228   4.277   2.456  0.6233 -1.9453 -0.2472
    1SOL    HW3 5407   2.192   4.331   2.319 -0.6114  0.3195  0.9454
    1SOL    MW4 5408   2.243   4.282   2.370 -0.1423 -0.5279 -0.3061
    1SOL     OW 5409   2.490   4.347   2.242 -0.0464  0.0560  0.1826
    1SOL    HW2 5410   2.574   4.307   2.264 -0.1630 -1.1435 -1.4469
    1SOL    HW3 5411   2.427   4.304   2.300  0.1469 -0.6460 -0.1212
    1SOL    MW4 5412   2.493   4.336   2.253 -0.0362 -0.1955 -0.0725
    1SOL     OW 5413   2.903   4.626   2.299  0.0238 -0.1386  0.0113
    1SOL    HW2 5414   2.986   4.672   2.286 -0.2501  0.0682 -1.0466
    1SOL    HW3 5415   2.922   4.536   2.275  0.1300 -0.2486  0.4955
    1SOL    MW4 5416   2.916   4.620   2.295  0.0017 -0.1254 -0.0644
    1SOL     OW 5417   2.677   0.085   2.205 -0.0760  0.6729  0.3140
    1SOL    HW2 5418   2.688   0.161   2.262 -1.0615  1.5254 -0.6136
    1SOL    HW3 5419   2.747   0.025   2.231  0.4527  1.7185  1.3334
    1SOL    MW4 5420   2.688   0.087   2.216 -0.1366  0.9233  0.3259
    1SOL     OW 5421   2.703   0.312   2.351 -0.0742  0.3285 -0.6542
    1SOL    HW2 5422   2.690   0.324   2.445 -2.1855  3.5107 -1.2791
    1SOL    HW3 5423   2.785   0.357   2.332  0.3446 -0.3033 -0.3400
    1SOL    MW4 5424   2.712   0.319   2.360 -0.2978  0.6650 -0.6955
    1SOL     OW 5425   2.919   0.487   2.270 -0.0390 -0.5421  0.3467
    1SOL    HW2 5426   2.914   0.577   2.304  2.1047 -0.2832 -0.0031
    1SOL    HW3 5427   2.913   0.497   2.175  0.0562 -0.7890  0.3144
    1SOL    MW4 5428   2.917   0.500   2.262  0.2563 -0.5406  0.2961
    1SOL     OW 5429   2.915   0.740   2.373 -0.0792 -0.3336 -0.0879
    1SOL    HW2 5430   2.905   0.754   2.468  2.2607  0.3227  0.0818
    1SOL    HW3 5431   2.835   0.779   2.336 -0.0693  1.2838  1.4686
    1SOL    MW4 5432   2.903   0.747   2.381  0.2308 -0.0336  0.1400
    1SOL     OW 5433   2.695   0.855   2.251  0.0982 -0.4977 -0.2157
    1SOL    HW2 5434   2.697   0.946   2.281 -1.5162 -0.6071  0.2747
    1SOL    HW3 5435   2.692   0.861   2.156 -0.2735 -0.0360 -0.1749
    1SOL    MW4 5436   2.695   0.868   2.243 -0.1636 -0.4512 -0.1457
    1SOL     OW 5437   2.712   1.117   2.356 -0.1565 -0.3194  0.2629
    1SOL    HW2 5438   2.702   1.142   2.448  0.8359 -0.1800  0.3362
    1SOL    HW3 5439   2.784   1.172   2.324 -0.2604 -0.6259 -0.4949
    1SOL    MW4 5440   2.720   1.128   2.364 -0.0396 -0.3413  0.1729
    1SOL     OW 5441   2.896   1.301   2.245  0.0954 -0.0294  0.0083
    1SOL    HW2 5442   2.970   1.254   2.283 -0.1446 -0.0614  0.4398
    1SOL    HW3 5443   2.911   1.298   2.151  0.8318  0.2693  0.1125
    1SOL    MW4 5444   2.908   1.294   2.238  0.1609  0.0058  0.0789
    1SOL     OW 5445   2.921   1.563   2.356  0.2845  0.2343 -0.1120
    1SOL    HW2 5446   2.924   1.550   2.451 -0.6005 -0.9782 -0.2414
    1SOL    HW3 5447   2.899   1.477   2.320 -0.7428  0.9857 -1.3258
    1SOL    MW4 5448   2.918   1.550   2.364  0.0322  0.1736 -0.2894
    1SOL     OW 5449   2.688   1.669   2.256 -0.2526  0.3582 -0.0102
    1SOL    HW2 5450   2.772   1.635   2.287 -0.4735 -0.1068  0.0791
    1SOL    HW3 5451   2.692   1.658   2.161 -0.3670 -0.0194  0.0279
    1SOL    MW4 5452   2.700   1.663   2.247 -0.2966  0.2471  0.0067
    1SOL     OW 5453   2.734   1.944   2.354  0.3381  0.1129 -0.0446
    1SOL    HW2 5454   2.734   1.936   2.449  0.4285 -0.5368 -0.0981
    1SOL    HW3 5455   2.718   1.855   2.322 -0.0024  0.3779 -0.6322
    1SOL    MW4 5456   2.732   1.931   2.362  0.3052  0.0620 -0.1295
    1SOL     OW 5457   2.950   2.076   2.253  0.3668  0.0059  0.4209
    1SOL    HW2 5458   3.024   2.045   2.306  0.8979 -1.0344 -0.8840
    1SOL    HW3 5459   2.876   2.022   2.280  1.1596 -2.0815 -1.4506
    1SOL    MW4 5460   2.950   2.065   2.264  0.5414 -0.4067  0.0017
    1SOL     OW 5461   2.878   2.323   2.333 -0.2582  0.1842 -0.1066
    1SOL    HW2 5462   2.894   2.318   2.428  1.7636  0.5495 -0.4034
    1SOL    HW3 5463   2.904   2.238   2.299  0.5951  0.6225 -0.5525
    1SOL    MW4 5464   2.883   2.311   2.341  0.1211  0.2904 -0.2048
    1SOL     OW 5465   2.646   2.476   2.242 -0.0881  0.0771  0.3352
    1SOL    HW2 5466   2.710   2.414   2.275 -0.6440 -0.6314  0.1004
    1SOL    HW3 5467   2.655   2.473   2.147 -1.9442 -1.6615  0.1736
    1SOL    MW4 5468   2.655   2.467   2.234 -0.4065 -0.2456  0.2828
    1SOL     OW 5469   2.693   2.728   2.338  0.2155  0.5819 -0.0296
    1SOL    HW2 5470   2.765   2.768   2.289 -1.2782  1.4516 -1.5733
    1SOL    HW3 5471   2.684   2.640   2.300  0.3722  0.5231  0.0685
    1SOL    MW4 5472   2.702   2.722   2.327  0.0393  0.6888 -0.2203
    1SOL     OW 5473   2.926   2.828   2.218  0.0358  0.3698  0.2052
    1SOL    HW2 5474   2.929   2.918   2.251 -1.1295  0.5603 -0.1870
    1SOL    HW3 5475   2.928   2.837   2.123  2.1013 -0.1306  0.1576
    1SOL    MW4 5476   2.927   2.841   2.210  0.1545  0.3288  0.1473
    1SOL     OW 5477   2.934   3.083   2.352 -0.1049 -0.2693  0.2893
    1SOL    HW2 5478   2.921   3.091   2.446 -0.9822  0.7355  0.0904
    1SOL    HW3 5479   2.854   3.119   2.313  0.1628 -0.8538 -0.8342
    1SOL    MW4 5480   2.921   3.089   2.359 -0.1853 -0.2139  0.1147
    1SOL     OW 5481   2.685   3.191   2.247 -0.3992  0.0851 -0.5804
    1SOL    HW2 5482   2.696   3.280   2.279  0.9704  0.3265 -1.6535
    1SOL    HW3 5483   2.677   3.200   2.152  0.6602 -0.9945 -0.7834
    1SOL    MW4 5484   2.686   3.204   2.239 -0.0787 -0.0257 -0.7484
    1SOL     OW 5485   2.707   3.446   2.363  0.1905  0.0401  0.0519
    1SOL    HW2 5486   2.777   3.499   2.324  0.2113 -0.2372 -0.2973
    1SOL    HW3 5487   2.626   3.482   2.326  0.0779  0.9519  1.1615
    1SOL    MW4 5488   2.706   3.458   2.353  0.1783  0.1240  0.1521
    1SOL     OW 5489   2.915   3.616   2.256  0.4783 -0.3001  0.1466
    1SOL    HW2 5490   2.993   3.572   2.292  0.8986 -0.3520 -0.8127
    1SOL    HW3 5491   2.923   3.707   2.285  1.6050  0.0031 -1.0565
    1SOL    MW4 5492   2.927   3.622   2.265  0.6826 -0.2668 -0.1388
    1SOL     OW 5493   2.904   3.879   2.335  0.1070 -0.1156  0.6642
    1SOL    HW2 5494   2.913   3.890   2.430  0.8176  2.6348  0.3033
    1SOL    HW3 5495   2.817   3.914   2.315  0.3666  0.2543  0.1668
    1SOL    MW4 5496   2.894   3.885   2.345  0.2348  0.2961  0.5512
    1SOL     OW 5497   2.647   3.988   2.260 -0.2446  0.1389 -0.1727
    1SOL    HW2 5498   2.591   3.920   2.296  1.0191  0.0350  1.6337
    1SOL    HW3 5499   2.621   3.994   2.167 -1.7712 -1.3373  0.1424
    1SOL    MW4 5500   2.636   3.980   2.252 -0.2792 -0.0696  0.1070
    1SOL     OW 5501   2.728   4.252   2.328  0.4928  0.4528 -0.2916
    1SOL    HW2 5502   2.723   4.256   2.424  0.9926  1.1862 -0.2897
    1SOL    HW3 5503   2.695   4.165   2.306 -2.6874  1.4371  0.3338
    1SOL    MW4 5504   2.723   4.241   2.338  0.1392  0.6795 -0.2089
    1SOL     OW 5505   2.948   4.353   2.224  0.2586  0.0462 -0.0536
    1SOL    HW2 5506   3.018   4.309   2.272 -0.7428 -1.1084  0.3682
    1SOL    HW3 5507   2.868   4.311   2.255 -0.7185  2.1430  0.3279
    1SOL    MW4 5508   2.947   4.342   2.234 -0.0026  0.1702  0.0527
    1SOL     OW 5509   3.374   4.646   2.316 -0.2864  0.7560 -0.1736
    1SOL    HW2 5510   3.363   4.664   2.410  1.1910 -1.6104  0.4990
    1SOL    HW3 5511   3.448   4.701   2.290 -1.0700  1.8512 -0.0746
    1SOL    MW4 5512   3.382   4.655   2.325 -0.1950  0.5883 -0.0718
    1SOL     OW 5513   3.145   0.102   2.241 -0.3808 -0.5117  0.6170
    1SOL    HW2 5514   3.140   0.195   2.262  0.3258 -0.2796 -0.1910
    1SOL    HW3 5515   3.226   0.072   2.283  0.4758 -0.2840 -0.8363
    1SOL    MW4 5516   3.155   0.110   2.249 -0.1745 -0.4511  0.3188
    1SOL     OW 5517   3.147   0.360   2.347 -0.2420 -0.2309  0.0129
    1SOL    HW2 5518   3.224   0.404   2.310 -0.3837  0.1764  0.2100
    1SOL    HW3 5519   3.073   0.414   2.320 -0.3178  0.2670  1.2051
    1SOL    MW4 5520   3.148   0.373   2.338 -0.2706 -0.1114  0.1960
    1SOL     OW 5521   3.396   0.497   2.286  0.4954 -0.0640  0.1166
    1SOL    HW2 5522   3.478   0.454   2.309 -0.2817 -1.1836  0.8444
    1SOL    HW3 5523   3.396   0.498   2.190  1.4932  0.2223  0.1109
    1SOL    MW4 5524   3.407   0.491   2.276  0.5245 -0.1740  0.2120
    1SOL     OW 5525   3.352   0.763   2.337 -0.1475 -0.0033 -0.2052
    1SOL    HW2 5526   3.417   0.814   2.288  1.3470 -0.8333  0.8762
    1SOL    HW3 5527   3.376   0.672   2.321 -1.7724 -0.3530 -0.7462
    1SOL    MW4 5528   3.364   0.758   2.328 -0.1647 -0.1590 -0.1340
    1SOL     OW 5529   3.110   0.873   2.249 -0.1254 -0.0968 -1.0031
    1SOL    HW2 5530   3.192   0.837   2.284 -0.3675 -0.0107 -0.3344
    1SOL    HW3 5531   3.041   0.821   2.291 -0.4633  0.8784 -0.3422
    1SOL    MW4 5532   3.112   0.861   2.259 -0.2019  0.0432 -0.8276
    1SOL     OW 5533   3.119   1.161   2.321  0.1331 -0.1831  0.5795
    1SOL    HW2 5534   3.196   1.199   2.279 -1.1914  0.4156 -1.4117
    1SOL    HW3 5535   3.117   1.070   2.290 -0.2372 -0.0433  0.1716
    1SOL    MW4 5536   3.129   1.154   2.311 -0.0906 -0.0855  0.2632
    1SOL     OW 5537   3.336   1.272   2.200  0.5755  0.1082  0.3089
    1SOL    HW2 5538   3.392   1.209   2.245  1.3770  1.1226  0.7482
    1SOL    HW3 5539   3.360   1.357   2.237 -1.7874  0.4856  1.0686
    1SOL    MW4 5540   3.346   1.275   2.211  0.3691  0.2918  0.4673
    1SOL     OW 5541   3.390   1.527   2.324  0.2739  0.2400 -0.2393
    1SOL    HW2 5542   3.400   1.529   2.420 -0.0743  0.0199 -0.1965
    1SOL    HW3 5543   3.309   1.575   2.308  0.7141  0.9066 -0.4832
    1SOL    MW4 5544   3.381   1.533   2.335  0.2863  0.2989 -0.2658
    1SOL     OW 5545   3.145   1.684   2.236 -0.0643 -0.4473  0.3476
    1SOL    HW2 5546   3.149   1.773   2.272  1.0867 -0.3684  0.0448
    1SOL    HW3 5547   3.078   1.640   2.289  0.8409 -0.0046  1.8929
    1SOL    MW4 5548   3.137   1.690   2.248  0.2069 -0.3785  0.5114
    1SOL     OW 5549   3.150   1.923   2.346 -0.1305 -0.5078  0.3561
    1SOL    HW2 5550   3.167   1.938   2.439  0.2134  1.5658 -0.0056
    1SOL    HW3 5551   3.218   1.974   2.301 -0.8881 -0.6960 -1.0286
    1SOL    MW4 5552   3.161   1.932   2.352 -0.1853 -0.2590  0.1259
    1SOL     OW 5553   3.374   2.075   2.248 -0.2150  0.4097 -0.2256
    1SOL    HW2 5554   3.441   2.018   2.287 -0.4412  0.3177  0.0313
    1SOL    HW3 5555   3.380   2.057   2.154 -0.9745 -0.8007 -0.0589
    1SOL    MW4 5556   3.384   2.065   2.241 -0.3452  0.2379 -0.1698
    1SOL     OW 5557   3.331   2.333   2.335 -0.0349 -0.7587  0.0667
    1SOL    HW2 5558   3.258   2.375   2.290  0.5423 -0.9612 -1.0883
    1SOL    HW3 5559   3.349   2.254   2.284  0.6291 -0.9972  0.6551
    1SOL    MW4 5560   3.324   2.328   2.322  0.1292 -0.8168 -0.0079
    1SOL     OW 5561   3.098   2.454   2.232  0.2024 -0.4412  0.8447
    1SOL    HW2 5562   3.107   2.542   2.269  0.0412 -0.2835  0.5204
    1SOL    HW3 5563   3.015   2.421   2.268  0.2073 -0.4166  0.8788
    1SOL    MW4 5564   3.088   2.461   2.241  0.1819 -0.4170  0.8063
    1SOL     OW 5565   3.131   2.698   2.361 -0.1798 -0.0992 -0.0482
    1SOL    HW2 5566   3.122   2.685   2.455 -1.2454 -0.2473 -0.1646
    1SOL    HW3 5567   3.051   2.743   2.335 -0.4090 -1.0775 -1.0637
    1SOL    MW4 5568   3.119   2.702   2.370 -0.3507 -0.2477 -0.1974
    1SOL     OW 5569   3.375   2.813   2.239 -0.1284 -0.5497 -0.0998
    1SOL    HW2 5570   3.378   2.902   2.274 -1.2822 -0.3882 -0.3693
    1SOL    HW3 5571   3.301   2.772   2.285 -1.6962 -0.3211 -2.3197
    1SOL    MW4 5572   3.365   2.819   2.250 -0.4876 -0.4983 -0.4284
    1SOL     OW 5573   3.367   3.077   2.318 -0.3704 -0.1870  0.2341
    1SOL    HW2 5574   3.444   3.133   2.309  0.1712 -0.5505  2.3020
    1SOL    HW3 5575   3.295   3.129   2.283  0.6672  0.4923 -0.9392
    1SOL    MW4 5576   3.368   3.091   2.312 -0.1621 -0.1452  0.3519
    1SOL     OW 5577   3.159   3.224   2.233 -0.1635 -0.0245 -0.4279
    1SOL    HW2 5578   3.144   3.307   2.278  0.3477  0.7271 -1.6362
    1SOL    HW3 5579   3.090   3.166   2.267 -2.3685  1.7586 -1.7293
    1SOL    MW4 5580   3.148   3.227   2.244 -0.3870  0.3097 -0.7591
    1SOL     OW 5581   3.147   3.469   2.377  0.3316  0.7557  0.5159
    1SOL    HW2 5582   3.171   3.469   2.469  2.4130  0.0990 -0.0030
    1SOL    HW3 5583   3.214   3.522   2.334  0.1236 -0.0050 -0.7783
    1SOL    MW4 5584   3.159   3.476   2.383  0.5789  0.5684  0.2768
    1SOL     OW 5585   3.348   3.585   2.239 -0.1546 -0.1243 -0.3863
    1SOL    HW2 5586   3.434   3.545   2.252 -0.2874 -0.8018 -1.5558
    1SOL    HW3 5587   3.344   3.603   2.145 -1.2143  0.0974 -0.2987
    1SOL    MW4 5588   3.359   3.582   2.228 -0.3119 -0.1845 -0.5291
    1SOL     OW 5589   3.369   3.835   2.348  0.0318 -0.2415 -0.4302
    1SOL    HW2 5590   3.449   3.872   2.311  0.2412 -1.3420 -1.1090
    1SOL    HW3 5591   3.371   3.743   2.322 -0.7314 -0.6174  0.7889
    1SOL    MW4 5592   3.379   3.827   2.340 -0.0412 -0.4363 -0.3588
    1SOL     OW 5593   3.136   3.986   2.243 -0.2329 -0.2620  0.1220
    1SOL    HW2 5594   3.200   3.932   2.291 -0.4402  0.7591  1.5751
    1SOL    HW3 5595   3.051   3.948   2.266 -0.2977 -0.1182  0.1189
    1SOL    MW4 5596   3.133   3.974   2.252 -0.2685 -0.1082  0.3133
    1SOL     OW 5597   3.151   4.229   2.371 -0.6600 -0.1430 -0.2137
    1SOL    HW2 5598   3.228   4.279   2.344  0.0410 -1.0280  0.1448
    1SOL    HW3 5599   3.153   4.150   2.316 -1.4939 -0.0238 -0.4292
    1SOL    MW4 5600   3.162   4.225   2.360 -0.6776 -0.2441 -0.1945
    1SOL     OW 5601   3.345   4.371   2.262  0.5070 -1.1443 -0.1304
    1SOL    HW2 5602   3.361   4.463   2.282 -0.8024 -1.1069  0.7460
    1SOL    HW3 5603   3.339   4.368   2.166  0.1354 -0.2587 -0.1369
    1SOL    MW4 5604   3.347   4.383   2.252  0.2851 -1.0228 -0.0155
    1SOL     OW 5605   3.799   4.628   2.335  0.2425 -0.2909  0.5440
    1SOL    HW2 5606   3.808   4.629   2.430  0.8424 -1.7266  0.5103
    1SOL    HW3 5607   3.867   4.688   2.304 -0.3161  0.6025  1.0443
    1SOL    MW4 5608   3.809   4.636   2.344  0.2482 -0.3629  0.6053
    1SOL     OW 5609   3.589   0.126   2.250 -0.1990 -0.2356  0.2197
    1SOL    HW2 5610   3.601   0.214   2.287 -1.5292 -0.4088  1.0796
    1SOL    HW3 5611   3.666   0.077   2.280  1.3857  1.0646 -1.6050
    1SOL    MW4 5612   3.601   0.132   2.259 -0.1655 -0.0869  0.0923
    1SOL     OW 5613   3.634   0.385   2.359 -0.0730  0.5093  0.3253
    1SOL    HW2 5614   3.626   0.411   2.450 -1.6517  0.1096  0.3199
    1SOL    HW3 5615   3.715   0.426   2.329 -0.8904  2.7936  1.1624
    1SOL    MW4 5616   3.644   0.394   2.367 -0.3893  0.7580  0.4351
    1SOL     OW 5617   3.854   0.526   2.245 -0.0495 -0.1008  0.4614
    1SOL    HW2 5618   3.848   0.619   2.265  1.5715 -0.1005  1.0137
    1SOL    HW3 5619   3.844   0.521   2.150 -2.6034  0.3829  0.6588
    1SOL    MW4 5620   3.852   0.537   2.235 -0.1726 -0.0370  0.5600
    1SOL     OW 5621   3.823   0.794   2.321  0.1408 -0.7119  0.1698
    1SOL    HW2 5622   3.829   0.795   2.417  1.4226 -0.6267  0.0959
    1SOL    HW3 5623   3.906   0.831   2.292 -0.6622  0.2329 -0.9710
    1SOL    MW4 5624   3.834   0.799   2.330  0.2036 -0.5760  0.0095
    1SOL     OW 5625   3.574   0.894   2.203  0.3835 -0.0799  0.6464
    1SOL    HW2 5626   3.652   0.866   2.251 -0.1774 -2.7539  0.1096
    1SOL    HW3 5627   3.603   0.899   2.112  0.6851  1.9753  0.8451
    1SOL    MW4 5628   3.588   0.891   2.197  0.3490 -0.1615  0.6015
    1SOL     OW 5629   3.543   1.142   2.323 -0.2900  0.0200  0.0870
    1SOL    HW2 5630   3.548   1.128   2.418 -1.2651  0.6173  0.2335
    1SOL    HW3 5631   3.552   1.054   2.286 -1.3242 -0.4024  0.7954
    1SOL    MW4 5632   3.545   1.128   2.331 -0.5548  0.0430  0.1996
    1SOL     OW 5633   3.780   1.254   2.239 -0.3611  0.4222 -0.4232
    1SOL    HW2 5634   3.790   1.338   2.283  0.1246  0.5178 -0.7137
    1SOL    HW3 5635   3.689   1.228   2.257  0.2668 -0.2923  1.9600
    1SOL    MW4 5636   3.769   1.262   2.247 -0.2141  0.3406 -0.1473
    1SOL     OW 5637   3.794   1.519   2.347  0.5763  0.2838 -0.3678
    1SOL    HW2 5638   3.792   1.545   2.439 -1.6294 -2.1302  0.3472
    1SOL    HW3 5639   3.728   1.573   2.305  0.5146  0.3115 -0.2341
    1SOL    MW4 5640   3.785   1.529   2.353  0.2775 -0.0311 -0.2556
    1SOL     OW 5641   3.598   1.665   2.210  0.8300  0.0804  0.3649
    1SOL    HW2 5642   3.526   1.617   2.252 -0.3767  2.5677  1.1915
    1SOL    HW3 5643   3.591   1.641   2.117 -0.1198 -0.8389  0.6604
    1SOL    MW4 5644   3.588   1.655   2.203  0.5455  0.2872  0.5131
    1SOL     OW 5645   3.602   1.929   2.325  0.0045 -0.6160  0.4648
    1SOL    HW2 5646   3.681   1.969   2.290  1.2982 -0.2819  3.5519
    1SOL    HW3 5647   3.603   1.839   2.292  1.8276 -0.6835  0.6729
    1SOL    MW4 5648   3.613   1.922   2.316  0.4158 -0.5808  0.8993
    1SOL     OW 5649   3.822   2.049   2.223  0.1284  0.3024  0.5037
    1SOL    HW2 5650   3.907   2.008   2.235 -0.3567 -0.9508 -0.2939
    1SOL    HW3 5651   3.810   2.054   2.128 -0.1155  1.6783  0.5959
    1SOL    MW4 5652   3.832   2.045   2.212  0.0324  0.3190  0.4106
    1SOL     OW 5653   3.816   2.285   2.371  0.6401  0.1976 -0.0608
    1SOL    HW2 5654   3.735   2.323   2.339 -0.5726  0.7585  3.3850
    1SOL    HW3 5655   3.819   2.197   2.335 -0.1014  1.1217 -2.4182
    1SOL    MW4 5656   3.806   2.279   2.362  0.3822  0.3936  0.0827
    1SOL     OW 5657   3.589   2.423   2.281  0.1176 -0.0088 -0.1361
    1SOL    HW2 5658   3.504   2.388   2.309  0.0552  0.2608  0.0164
    1SOL    HW3 5659   3.581   2.433   2.186  0.2760 -0.7842 -0.2327
    1SOL    MW4 5660   3.577   2.420   2.272  0.1302 -0.0753 -0.1287
    1SOL     OW 5661   3.641   2.688   2.337 -0.1155 -0.1968  0.2925
    1SOL    HW2 5662   3.641   2.594   2.319  0.2687 -0.4364  1.5084
    1SOL    HW3 5663   3.554   2.718   2.310 -0.4427 -1.0086  0.4265
    1SOL    MW4 5664   3.629   2.680   2.331 -0.1080 -0.3352  0.4706
    1SOL     OW 5665   3.817   2.857   2.232  0.0539 -0.1380 -0.2620
    1SOL    HW2 5666   3.821   2.946   2.265 -0.0773 -0.5404  0.8554
    1SOL    HW3 5667   3.749   2.815   2.285 -2.8403  0.2258 -3.4988
    1SOL    MW4 5668   3.808   2.863   2.243 -0.3452 -0.1433 -0.5414
    1SOL     OW 5669   3.824   3.103   2.369  0.1237 -0.0235  0.5095
    1SOL    HW2 5670   3.833   3.116   2.463 -0.3085  0.2017  0.5168
    1SOL    HW3 5671   3.904   3.140   2.332 -0.3931  1.2761  0.6557
    1SOL    MW4 5672   3.836   3.109   2.377 -0.0014  0.1776  0.5298
    1SOL     OW 5673   3.611   3.226   2.211  0.6493 -0.1213  0.0142
    1SOL    HW2 5674   3.604   3.311   2.254 -1.2154 -0.4493  0.3813
    1SOL    HW3 5675   3.669   3.176   2.268  0.8223  0.5147  0.4095
    1SOL    MW4 5676   3.618   3.231   2.225  0.4261 -0.0806  0.1147
    1SOL     OW 5677   3.595   3.488   2.314 -0.4173 -0.2267 -0.3235
    1SOL    HW2 5678   3.595   3.509   2.407 -1.4978  0.0710 -0.3852
    1SOL    HW3 5679   3.685   3.506   2.285 -0.0798 -0.3388  0.6608
    1SOL    MW4 5680   3.607   3.493   2.322 -0.5155 -0.2022 -0.2017
    1SOL     OW 5681   3.829   3.578   2.222 -0.7801 -0.1801 -0.4557
    1SOL    HW2 5682   3.845   3.666   2.256  1.7834  0.0752 -2.1945
    1SOL    HW3 5683   3.821   3.590   2.127 -0.6132 -1.7967 -0.6852
    1SOL    MW4 5684   3.830   3.591   2.214 -0.4196 -0.3600 -0.7157
    1SOL     OW 5685   3.819   3.845   2.327 -0.1954 -0.2147  0.2336
    1SOL    HW2 5686   3.830   3.843   2.422 -0.1152 -0.7707  0.2094
    1SOL    HW3 5687   3.887   3.906   2.296  1.0114 -1.4905  0.3490
    1SOL    MW4 5688   3.830   3.853   2.335 -0.0255 -0.4563  0.2456
    1SOL     OW 5689   3.598   3.972   2.210  0.9253  0.3080  0.0944
    1SOL    HW2 5690   3.596   4.057   2.255  1.4636  1.2383 -1.6021
    1SOL    HW3 5691   3.673   3.927   2.250  0.3132  0.3930  1.3822
    1SOL    MW4 5692   3.608   3.977   2.221  0.9158  0.4420  0.0408
    1SOL     OW 5693   3.584   4.222   2.363 -0.2247 -0.2083  0.6890
    1SOL    HW2 5694   3.646   4.282   2.322 -1.4157  1.2092  0.9476
    1SOL    HW3 5695   3.498   4.250   2.332 -0.8929 -0.9941  1.7762
    1SOL    MW4 5696   3.581   4.234   2.354 -0.4697 -0.1249  0.8669
    1SOL     OW 5697   3.784   4.379   2.217 -0.2711  0.1069  0.3619
    1SOL    HW2 5698   3.865   4.347   2.257  0.2293 -0.5848 -1.1268
    1SOL    HW3 5699   3.777   4.470   2.245  0.6511 -0.0398  1.0907
    1SOL    MW4 5700   3.794   4.386   2.226 -0.0834 -0.0038  0.2613
    1SOL     OW 5701   4.254   4.633   2.339  0.0883  0.1812  0.1236
    1SOL    HW2 5702   4.246   4.655   2.432  0.3047  2.6583 -0.4277
    1SOL    HW3 5703   4.333   4.679   2.310  1.0846 -2.0920 -0.8813
    1SOL    MW4 5704   4.263   4.642   2.348  0.2480  0.2089 -0.0818
    1SOL     OW 5705   4.007   0.128   2.257 -0.0634  0.0409  0.4457
    1SOL    HW2 5706   4.027   0.219   2.280 -0.5685  0.2174  0.1884
    1SOL    HW3 5707   4.092   0.083   2.261  0.4348  0.8385 -0.8887
    1SOL    MW4 5708   4.021   0.134   2.261 -0.0639  0.1694  0.2356
    1SOL     OW 5709   4.072   0.388   2.335 -0.1726 -0.5206 -0.1571
    1SOL    HW2 5710   4.147   0.436   2.299 -1.3590  1.4771 -0.0650
    1SOL    HW3 5711   3.997   0.443   2.314 -1.3904 -1.4964  1.5255
    1SOL    MW4 5712   4.072   0.402   2.327 -0.4897 -0.3858  0.0768
    1SOL     OW 5713   4.300   0.518   2.242 -0.4854 -0.0167  0.1084
    1SOL    HW2 5714   4.277   0.604   2.278 -1.0289  0.3841 -1.1692
    1SOL    HW3 5715   4.390   0.503   2.272 -1.2838 -0.2070  2.5603
    1SOL    MW4 5716   4.309   0.527   2.251 -0.6623  0.0110  0.2632
    1SOL     OW 5717   4.285   0.780   2.382 -0.0012  0.0171 -0.3501
    1SOL    HW2 5718   4.205   0.812   2.341 -0.5415 -0.6771  0.1463
    1SOL    HW3 5719   4.356   0.822   2.333 -0.6462 -0.3257 -1.5851
    1SOL    MW4 5720   4.284   0.790   2.370 -0.1578 -0.1197 -0.4475
    1SOL     OW 5721   4.069   0.888   2.255  0.6096  0.5053  0.3244
    1SOL    HW2 5722   4.047   0.975   2.288 -0.7416  0.2313  0.1883
    1SOL    HW3 5723   4.070   0.898   2.160 -0.7309  0.1212  0.2555
    1SOL    MW4 5724   4.066   0.901   2.247  0.2546  0.4185  0.2975
    1SOL     OW 5725   4.010   1.148   2.361 -0.0378 -0.0520 -0.7012
    1SOL    HW2 5726   4.008   1.154   2.457 -0.7313 -0.7567 -0.6627
    1SOL    HW3 5727   3.924   1.181   2.334 -0.3456 -1.0731 -0.9961
    1SOL    MW4 5728   3.998   1.153   2.370 -0.1698 -0.2797 -0.7353
    1SOL     OW 5729   4.201   1.326   2.257 -0.5709 -0.3704 -0.1367
    1SOL    HW2 5730   4.138   1.267   2.299  0.4082 -1.3822 -0.0581
    1SOL    HW3 5731   4.286   1.300   2.293 -0.1246  1.1538 -0.0337
    1SOL    MW4 5732   4.204   1.315   2.267 -0.3829 -0.3027 -0.1130
    1SOL     OW 5733   4.236   1.576   2.384 -0.2166  0.2084  0.0501
    1SOL    HW2 5734   4.230   1.489   2.345  0.5932 -0.3328  1.0955
    1SOL    HW3 5735   4.313   1.615   2.342  0.7291 -0.4207  1.1478
    1SOL    MW4 5736   4.246   1.570   2.373  0.0153  0.0541  0.3328
    1SOL     OW 5737   4.019   1.665   2.233 -0.3061 -0.8649 -0.1214
    1SOL    HW2 5738   4.102   1.631   2.266  0.9171  0.3869 -1.8492
    1SOL    HW3 5739   3.953   1.610   2.275  1.1865  0.1522  3.7929
    1SOL    MW4 5740   4.021   1.653   2.243  0.0525 -0.5654  0.1674
    1SOL     OW 5741   4.053   1.918   2.329  0.0876  0.4526 -0.0707
    1SOL    HW2 5742   4.034   1.931   2.422  2.1094  1.2601  0.2604
    1SOL    HW3 5743   4.059   1.823   2.318  0.4763  0.3746  0.7753
    1SOL    MW4 5744   4.051   1.907   2.339  0.4053  0.5487  0.0849
    1SOL     OW 5745   4.280   2.056   2.241 -0.2440  0.4348  0.5471
    1SOL    HW2 5746   4.288   2.147   2.270  0.0645  0.5228  0.1768
    1SOL    HW3 5747   4.197   2.026   2.279  0.0998  0.5865  1.4402
    1SOL    MW4 5748   4.270   2.064   2.250 -0.1578  0.4663  0.6158
    1SOL     OW 5749   4.282   2.316   2.322 -0.2263 -0.0928  0.1839
    1SOL    HW2 5750   4.198   2.354   2.296 -0.2126 -0.7828 -0.9195
    1SOL    HW3 5751   4.347   2.379   2.293 -0.3897  0.7731  1.6611
    1SOL    MW4 5752   4.279   2.329   2.315 -0.2456 -0.0696  0.2332
    1SOL     OW 5753   4.033   2.399   2.253 -0.7603 -0.1181  0.0725
    1SOL    HW2 5754   4.021   2.494   2.255 -3.0084 -0.3183 -1.6620
    1SOL    HW3 5755   3.954   2.364   2.293 -0.2850 -1.2793  0.0123
    1SOL    MW4 5756   4.021   2.407   2.259 -0.9942 -0.2980 -0.1643
    1SOL     OW 5757   4.022   2.671   2.284  0.0226  0.0640 -0.0615
    1SOL    HW2 5758   4.026   2.681   2.379 -0.2447  3.6656 -0.3574
    1SOL    HW3 5759   3.950   2.728   2.258 -1.7827 -3.0507 -2.2030
    1SOL    MW4 5760   4.013   2.680   2.293 -0.2513  0.1283 -0.3831
    1SOL     OW 5761   4.251   2.848   2.241 -0.2655 -0.3141 -0.0391
    1SOL    HW2 5762   4.173   2.799   2.267  0.5701 -2.2621 -1.1205
    1SOL    HW3 5763   4.324   2.796   2.275  0.6292  0.5730 -0.5691
    1SOL    MW4 5764   4.250   2.835   2.249 -0.0367 -0.4539 -0.2518
    1SOL     OW 5765   4.271   3.087   2.377 -0.2480  0.3241  0.1723
    1SOL    HW2 5766   4.265   2.997   2.346 -1.4844  0.2808  0.4931
    1SOL    HW3 5767   4.341   3.126   2.325 -0.2588 -0.5984 -0.5433
    1SOL    MW4 5768   4.279   3.080   2.366 -0.4125  0.1967  0.1202
    1SOL     OW 5769   4.054   3.193   2.247  0.0437 -0.3985 -0.1201
    1SOL    HW2 5770   4.061   3.286   2.265 -0.5298 -0.5107  0.6887
    1SOL    HW3 5771   4.138   3.156   2.275  0.5928 -0.0086 -1.2182
    1SOL    MW4 5772   4.066   3.200   2.253  0.0405 -0.3619 -0.1583
    1SOL     OW 5773   4.070   3.452   2.350  0.2138  0.2213  0.5846
    1SOL    HW2 5774   4.138   3.504   2.308  1.0340 -1.6213 -0.4245
    1SOL    HW3 5775   3.989   3.478   2.306  0.7183  0.1292 -0.4021
    1SOL    MW4 5776   4.068   3.462   2.339  0.3886 -0.0341  0.3214
    1SOL     OW 5777   4.279   3.612   2.247 -0.3475 -0.2930  0.1036
    1SOL    HW2 5778   4.279   3.703   2.275  0.5957 -0.3564  0.3315
    1SOL    HW3 5779   4.279   3.617   2.151 -0.2153 -0.0523  0.1164
    1SOL    MW4 5780   4.279   3.625   2.238 -0.2050 -0.2697  0.1354
    1SOL     OW 5781   4.253   3.862   2.320 -0.0995  0.1786 -0.0165
    1SOL    HW2 5782   4.255   3.852   2.415 -0.1298 -1.9460 -0.2154
    1SOL    HW3 5783   4.334   3.909   2.299 -0.5287  1.4734  1.1108
    1SOL    MW4 5784   4.264   3.867   2.330 -0.1597  0.0689  0.1059
    1SOL     OW 5785   4.023   4.022   2.226  0.3959 -0.0781  0.1494
    1SOL    HW2 5786   4.104   3.973   2.239  0.1295 -0.5838 -0.0704
    1SOL    HW3 5787   4.010   4.022   2.131 -0.8040 -1.5566  0.2902
    1SOL    MW4 5788   4.032   4.016   2.215  0.2027 -0.3400  0.1388
    1SOL     OW 5789   4.006   4.282   2.330 -0.0176 -0.2821  0.3736
    1SOL    HW2 5790   4.089   4.312   2.295  0.0910 -1.1458 -0.1297
    1SOL    HW3 5791   4.001   4.189   2.305 -0.2887 -0.7133  1.9554
    1SOL    MW4 5792   4.016   4.274   2.322 -0.0391 -0.4525  0.5159
    1SOL     OW 5793   4.250   4.368   2.236  0.1074 -0.1083  0.0376
    1SOL    HW2 5794   4.255   4.452   2.283 -0.2633  0.2642 -0.5810
    1SOL    HW3 5795   4.323   4.317   2.271 -0.5320 -0.0714  1.4717
    1SOL    MW4 5796   4.260   4.372   2.247 -0.0262 -0.0539  0.1452
    1SOL     OW 5797   0.213   0.037   2.633  0.1327 -0.0145  0.0279
    1SOL    HW2 5798   0.229  -0.051   2.668 -0.3234 -0.1193 -0.0264
    1SOL    HW3 5799   0.132   0.065   2.674  0.5527  0.5961  0.4483
    1SOL    MW4 5800   0.205   0.029   2.643  0.1279  0.0522  0.0761
    1SOL     OW 5801   4.466   0.138   2.745 -0.0481  0.0618  0.0301
    1SOL    HW2 5802   4.474   0.139   2.840 -1.3732  1.3915  0.1463
    1SOL    HW3 5803   4.488   0.228   2.719 -0.3252 -0.1248 -0.8590
    1SOL    MW4 5804   4.470   0.150   2.754 -0.2594  0.2126 -0.0720
    1SOL     OW 5805   0.049   0.377   2.646 -0.2572  0.3989 -0.0603
    1SOL    HW2 5806   0.125   0.429   2.672 -0.1690 -0.1706  0.8456
    1SOL    HW3 5807   0.045   0.386   2.551  0.8966  0.4997 -0.1029
    1SOL    MW4 5808   0.059   0.385   2.637 -0.0933  0.3371  0.0534
    1SOL     OW 5809   0.257   0.559   2.751  0.2058 -0.3106  0.3489
    1SOL    HW2 5810   0.264   0.556   2.846  0.4114 -1.8695  0.2968
    1SOL    HW3 5811   0.340   0.523   2.719  0.3694  0.7324 -0.4240
    1SOL    MW4 5812   0.269   0.553   2.759  0.2545 -0.3787  0.2401
    1SOL     OW 5813   0.241   0.821   2.632  0.7990 -0.4937  0.1117
    1SOL    HW2 5814   0.317   0.865   2.669  0.4562 -0.0890  0.3245
    1SOL    HW3 5815   0.229   0.743   2.687 -0.3097  0.6173  1.4561
    1SOL    MW4 5816   0.250   0.816   2.644  0.6075 -0.2937  0.3173
    1SOL     OW 5817   4.469   0.934   2.764  0.0044 -0.2084 -0.0113
    1SOL    HW2 5818   4.409   0.867   2.732 -0.7202  0.7052 -0.5840
    1SOL    HW3 5819   4.555   0.907   2.733  0.1512 -2.4292  2.2330
    1SOL    MW4 5820   4.472   0.922   2.756 -0.0725 -0.3808  0.2093
    1SOL     OW 5821   4.454   1.180   2.626 -0.4754 -0.3482 -0.1121
    1SOL    HW2 5822   4.528   1.226   2.667 -1.2797  1.4255 -0.6102
    1SOL    HW3 5823   4.453   1.094   2.669  1.1315  0.0310  0.7460
    1SOL    MW4 5824   4.464   1.174   2.637 -0.3691 -0.0641 -0.0646
    1SOL     OW 5825   0.181   1.337   2.734  0.0335  0.5950 -0.3659
    1SOL    HW2 5826   0.265   1.293   2.728  0.2352  0.9701 -0.2856
    1SOL    HW3 5827   0.193   1.420   2.687  0.0745  1.1949  0.6907
    1SOL    MW4 5828   0.193   1.342   2.727  0.0655  0.7236 -0.2158
    1SOL     OW 5829   0.214   1.579   2.605 -0.3430  0.0712  0.2502
    1SOL    HW2 5830   0.295   1.616   2.639 -0.6428  0.8679  0.1051
    1SOL    HW3 5831   0.147   1.609   2.667 -0.8152  1.0762 -0.7324
    1SOL    MW4 5832   0.216   1.588   2.618 -0.4449  0.3090  0.1013
    1SOL     OW 5833   4.486   1.689   2.739  0.1484  0.1464 -0.2406
    1SOL    HW2 5834   4.459   1.686   2.831 -1.1968  0.9992 -0.5945
    1SOL    HW3 5835   4.481   1.782   2.716  0.0737 -0.1199 -1.3006
    1SOL    MW4 5836   4.482   1.701   2.748 -0.0391  0.2239 -0.4275
    1SOL     OW 5837   4.488   1.940   2.647  0.6809 -0.0917 -0.3557
    1SOL    HW2 5838   4.573   1.982   2.662 -0.2556  1.6296  0.3044
    1SOL    HW3 5839   4.484   1.927   2.552  1.5536  0.0989 -0.4233
    1SOL    MW4 5840   4.499   1.944   2.637  0.6723  0.1605 -0.2773
    1SOL     OW 5841   0.229   2.069   2.725 -0.0025 -0.2435  0.1664
    1SOL    HW2 5842   0.314   2.036   2.697  0.1968  0.5667 -0.2081
    1SOL    HW3 5843   0.234   2.163   2.709 -0.6841 -0.0798  0.8865
    1SOL    MW4 5844   0.241   2.077   2.719 -0.0662 -0.1147  0.2120
    1SOL     OW 5845   0.231   2.346   2.658  0.0727  0.3100  0.2489
    1SOL    HW2 5846   0.306   2.393   2.693 -0.2307  0.4752  0.6810
    1SOL    HW3 5847   0.155   2.399   2.684 -0.0903  0.9016 -1.4013
    1SOL    MW4 5848   0.231   2.359   2.666  0.0112  0.4101  0.0882
    1SOL     OW 5849   4.465   2.508   2.714 -0.4536 -0.0286  0.1305
    1SOL    HW2 5850   4.470   2.477   2.805  1.6904  0.0063  0.0666
    1SOL    HW3 5851   4.381   2.475   2.682 -1.3051  0.0726  2.1667
    1SOL    MW4 5852   4.455   2.499   2.722 -0.2832 -0.0107  0.3910
    1SOL     OW 5853   4.442   2.763   2.616  0.1468  0.1601  0.4912
    1SOL    HW2 5854   4.362   2.800   2.655 -1.5103 -2.1035 -0.6222
    1SOL    HW3 5855   4.455   2.680   2.662  1.5183  0.2202  0.2258
    1SOL    MW4 5856   4.433   2.757   2.627  0.1087 -0.1307  0.3090
    1SOL     OW 5857   0.207   2.851   2.746 -0.0296 -0.7753 -0.2009
    1SOL    HW2 5858   0.216   2.937   2.705 -1.8025  0.1758  1.3200
    1SOL    HW3 5859   0.123   2.818   2.714  0.2983 -1.6157 -0.1995
    1SOL    MW4 5860   0.197   2.858   2.736 -0.2202 -0.7603  0.0000
    1SOL     OW 5861   0.251   3.106   2.627 -0.4261  0.0546 -0.1561
    1SOL    HW2 5862   0.328   3.160   2.646  0.0973 -0.4254 -0.8547
    1SOL    HW3 5863   0.236   3.120   2.533  1.1111 -2.7608 -0.8731
    1SOL    MW4 5864   0.259   3.115   2.617 -0.1543 -0.3803 -0.3428
    1SOL     OW 5865   0.035   3.238   2.722  0.5946 -0.0674 -0.2951
    1SOL    HW2 5866  -0.038   3.181   2.698 -1.1858  2.6292 -1.6113
    1SOL    HW3 5867   0.112   3.197   2.683 -0.5294 -1.9013 -0.6311
    1SOL    MW4 5868   0.035   3.225   2.714  0.2112  0.0467 -0.5133
    1SOL     OW 5869   0.023   3.499   2.630  0.3325 -0.0689 -0.3186
    1SOL    HW2 5870   0.086   3.558   2.670 -0.3586 -0.1771  0.9364
    1SOL    HW3 5871   0.040   3.414   2.671  0.2705 -0.3954 -0.9642
    1SOL    MW4 5872   0.034   3.496   2.640  0.2327 -0.1264 -0.2382
    1SOL     OW 5873   0.199   3.655   2.769 -0.0753 -0.0195 -0.1751
    1SOL    HW2 5874   0.195   3.662   2.864 -0.0476 -0.6412 -0.1265
    1SOL    HW3 5875   0.282   3.610   2.752 -0.1344 -0.0076 -0.4884
    1SOL    MW4 5876   0.209   3.650   2.779 -0.0794 -0.0999 -0.2103
    1SOL     OW 5877   0.215   3.896   2.630  0.2684 -0.2726 -0.0091
    1SOL    HW2 5878   0.209   3.811   2.674 -1.5546  0.1453  0.5959
    1SOL    HW3 5879   0.219   3.874   2.536  0.3719 -1.0342  0.1677
    1SOL    MW4 5880   0.215   3.882   2.623  0.0415 -0.3181  0.0937
    1SOL     OW 5881   4.473   4.008   2.679  0.3395  0.1589  0.2426
    1SOL    HW2 5882   4.484   4.099   2.652 -0.7162  0.4382  0.7421
    1SOL    HW3 5883   4.559   3.968   2.663  0.1391  0.6262 -2.3099
    1SOL    MW4 5884   4.486   4.015   2.673  0.1736  0.2575 -0.0281
    1SOL     OW 5885   0.001   4.288   2.626 -0.0794  0.1766 -0.1176
    1SOL    HW2 5886  -0.070   4.328   2.677  0.1550  0.6311 -0.1453
    1SOL    HW3 5887   0.079   4.337   2.652  0.3168 -0.6728  0.3063
    1SOL    MW4 5888   0.002   4.300   2.636  0.0038  0.1245 -0.0653
    1SOL     OW 5889   0.236   4.434   2.724 -0.5914  0.5654 -0.1519
    1SOL    HW2 5890   0.242   4.424   2.819  0.3473  0.2801 -0.2424
    1SOL    HW3 5891   0.306   4.380   2.690 -1.5840 -0.1744 -1.0567
    1SOL    MW4 5892   0.246   4.425   2.732 -0.5985  0.4306 -0.2832
    1SOL     OW 5893   0.692   4.658   2.629  0.1625  0.1615 -0.2768
    1SOL    HW2 5894   0.773   4.697   2.663  0.4811  0.7001 -1.6074
    1SOL    HW3 5895   0.623   4.712   2.667  0.4319 -0.2949  0.8618
    1SOL    MW4 5896   0.694   4.671   2.638  0.2401  0.1731 -0.3021
    1SOL     OW 5897   0.467   0.143   2.701 -0.3174  0.0145  0.2706
    1SOL    HW2 5898   0.464   0.141   2.797  1.3549 -1.9353  0.3238
    1SOL    HW3 5899   0.375   0.134   2.675 -0.8426  1.0286  1.6729
    1SOL    MW4 5900   0.454   0.141   2.711 -0.1661 -0.1090  0.4628
    1SOL     OW 5901   0.480   0.418   2.642 -0.1211 -0.1056  0.1132
    1SOL    HW2 5902   0.556   0.461   2.681  1.0385 -1.0397 -1.0754
    1SOL    HW3 5903   0.487   0.327   2.670  0.9277 -0.8677 -2.5231
    1SOL    MW4 5904   0.491   0.412   2.651  0.1703 -0.3293 -0.3917
    1SOL     OW 5905   0.676   0.577   2.760  0.2017 -0.2114 -0.4224
    1SOL    HW2 5906   0.654   0.565   2.853  0.6706  1.4114 -0.0912
    1SOL    HW3 5907   0.755   0.525   2.748  0.6566  0.2968  0.3168
    1SOL    MW4 5908   0.683   0.568   2.771  0.3235  0.0698 -0.2811
    1SOL     OW 5909   0.682   0.832   2.659 -0.3120 -0.1064  0.0027
    1SOL    HW2 5910   0.761   0.863   2.704  0.2339 -1.0328 -0.3058
    1SOL    HW3 5911   0.666   0.745   2.696 -0.7836 -0.2155 -0.4481
    1SOL    MW4 5912   0.690   0.824   2.670 -0.3022 -0.2429 -0.0975
    1SOL     OW 5913   0.453   0.947   2.753 -0.1312 -0.3345  0.4633
    1SOL    HW2 5914   0.461   0.922   2.845 -1.4286 -1.2096  0.3575
    1SOL    HW3 5915   0.536   0.921   2.713 -0.6130 -2.5253  0.8179
    1SOL    MW4 5916   0.465   0.940   2.760 -0.3660 -0.7390  0.4964
    1SOL     OW 5917   0.402   1.203   2.652  0.4386 -0.3181  0.1498
    1SOL    HW2 5918   0.483   1.233   2.692  1.0104  1.5437 -2.3327
    1SOL    HW3 5919   0.397   1.110   2.675  2.7139 -0.2009  1.1921
    1SOL    MW4 5920   0.412   1.194   2.660  0.8142 -0.0569 -0.0401
    1SOL     OW 5921   0.646   1.277   2.729 -0.2225  0.6245  0.0794
    1SOL    HW2 5922   0.646   1.284   2.824  0.0484  0.3708  0.0990
    1SOL    HW3 5923   0.734   1.244   2.707 -0.6932 -0.4984 -0.1653
    1SOL    MW4 5924   0.658   1.273   2.738 -0.2489  0.4430  0.0496
    1SOL     OW 5925   0.674   1.536   2.596  0.9381  0.0430 -0.1232
    1SOL    HW2 5926   0.596   1.579   2.633 -0.3444 -1.2552 -1.2695
    1SOL    HW3 5927   0.672   1.448   2.632  2.2075  0.1772  0.2851
    1SOL    MW4 5928   0.663   1.530   2.606  0.9364 -0.1105 -0.2203
    1SOL     OW 5929   0.441   1.663   2.724 -0.3585 -0.2851 -0.1653
    1SOL    HW2 5930   0.428   1.652   2.818 -0.9742  0.1594 -0.1941
    1SOL    HW3 5931   0.442   1.758   2.711 -1.1451 -0.3422 -0.7108
    1SOL    MW4 5932   0.439   1.674   2.735 -0.5435 -0.2340 -0.2410
    1SOL     OW 5933   0.455   1.939   2.645  0.1947 -0.6682  0.3381
    1SOL    HW2 5934   0.536   1.975   2.682  1.7678 -3.8887  0.1701
    1SOL    HW3 5935   0.464   1.953   2.551 -0.2724  0.5836  0.4755
    1SOL    MW4 5936   0.467   1.946   2.638  0.3406 -0.9279  0.3340
    1SOL     OW 5937   0.684   2.069   2.740  0.1739 -0.0791 -0.0213
    1SOL    HW2 5938   0.674   2.059   2.835 -1.7762  0.6282 -0.1330
    1SOL    HW3 5939   0.761   2.015   2.719  1.7106  1.1256  2.1854
    1SOL    MW4 5940   0.693   2.061   2.750  0.1194  0.1733  0.2551
    1SOL     OW 5941   0.681   2.311   2.628  0.0536  0.0392 -0.1286
    1SOL    HW2 5942   0.748   2.354   2.681 -0.1872  0.5747 -0.2586
    1SOL    HW3 5943   0.681   2.220   2.659  0.5121  0.1462  0.1937
    1SOL    MW4 5944   0.690   2.305   2.639  0.0823  0.1237 -0.1030
    1SOL     OW 5945   0.439   2.463   2.773  0.1831  0.2326 -0.1018
    1SOL    HW2 5946   0.441   2.545   2.724 -0.3982 -0.0608 -0.6220
    1SOL    HW3 5947   0.501   2.406   2.727 -0.9956 -0.3281 -1.0111
    1SOL    MW4 5948   0.447   2.466   2.761 -0.0491  0.1202 -0.2904
    1SOL     OW 5949   0.430   2.715   2.625 -0.3626  0.0427 -0.4951
    1SOL    HW2 5950   0.505   2.767   2.654  0.4929 -1.0507 -0.6894
    1SOL    HW3 5951   0.353   2.763   2.655  0.4232  1.2439 -0.4092
    1SOL    MW4 5952   0.430   2.728   2.633 -0.1460  0.0570 -0.5095
    1SOL     OW 5953   0.627   2.856   2.751 -0.0724  0.3966  0.3711
    1SOL    HW2 5954   0.632   2.845   2.846 -1.9248  0.5274  0.4998
    1SOL    HW3 5955   0.642   2.950   2.737 -0.1399  0.4341  0.5553
    1SOL    MW4 5956   0.630   2.867   2.762 -0.3257  0.4189  0.4125
    1SOL     OW 5957   0.708   3.094   2.652 -0.2441  0.0022  0.0104
    1SOL    HW2 5958   0.788   3.133   2.687 -0.9893  0.3559  1.3662
    1SOL    HW3 5959   0.713   3.109   2.558  1.8899 -1.1154 -0.0932
    1SOL    MW4 5960   0.719   3.101   2.644 -0.0609 -0.0989  0.1757
    1SOL     OW 5961   0.481   3.241   2.718  0.2030 -0.0626  0.0951
    1SOL    HW2 5962   0.475   3.227   2.812  1.0285  0.6361  0.2641
    1SOL    HW3 5963   0.573   3.223   2.697  0.1314  0.2369 -0.4917
    1SOL    MW4 5964   0.493   3.237   2.727  0.3025  0.0691  0.0398
    1SOL     OW 5965   0.428   3.518   2.671 -0.2307 -0.0902 -0.2880
    1SOL    HW2 5966   0.425   3.429   2.706 -0.1970  0.0685  0.1217
    1SOL    HW3 5967   0.445   3.506   2.577  0.2410 -0.4970 -0.1540
    1SOL    MW4 5968   0.430   3.504   2.663 -0.1640 -0.1228 -0.2160
    1SOL     OW 5969   0.669   3.621   2.756  0.1047 -0.0872 -0.1219
    1SOL    HW2 5970   0.648   3.618   2.849  1.0502  0.0985  0.0957
    1SOL    HW3 5971   0.590   3.589   2.713 -0.5622  0.4145  0.7131
    1SOL    MW4 5972   0.656   3.617   2.762  0.1415  0.0033  0.0172
    1SOL     OW 5973   0.659   3.880   2.648  0.2379  0.6220 -0.1410
    1SOL    HW2 5974   0.585   3.929   2.683  1.6264  1.7002  1.3588
    1SOL    HW3 5975   0.655   3.795   2.693  1.0049  1.3699  1.3574
    1SOL    MW4 5976   0.649   3.875   2.658  0.5223  0.8631  0.2544
    1SOL     OW 5977   0.442   4.035   2.732  0.0494 -0.5942 -0.4088
    1SOL    HW2 5978   0.445   4.126   2.703 -0.0128  0.5083  2.8653
    1SOL    HW3 5979   0.370   3.997   2.682 -1.5390  1.8053 -0.0211
    1SOL    MW4 5980   0.433   4.042   2.721 -0.1684 -0.1321  0.0744
    1SOL     OW 5981   0.452   4.291   2.622  0.1772  0.3270 -0.1966
    1SOL    HW2 5982   0.535   4.328   2.652  1.4359 -0.9420 -1.9988
    1SOL    HW3 5983   0.456   4.298   2.527 -1.2608 -0.8258 -0.3497
    1SOL    MW4 5984   0.464   4.296   2.614  0.1536  0.0072 -0.4547
    1SOL     OW 5985   0.665   4.410   2.746  0.2852  0.3204 -0.5092
    1SOL    HW2 5986   0.743   4.362   2.719  1.4862  1.9247 -0.0283
    1SOL    HW3 5987   0.675   4.496   2.706 -1.4708  0.3991 -0.8058
    1SOL    MW4 5988   0.677   4.415   2.737  0.2120  0.5426 -0.4849
    1SOL     OW 5989   1.136   4.623   2.658  0.0664  0.3142 -0.1715
    1SOL    HW2 5990   1.222   4.664   2.650  0.5528 -0.8351 -0.9536
    1SOL    HW3 5991   1.154   4.534   2.686 -0.8450 -0.0945 -0.8629
    1SOL    MW4 5992   1.150   4.617   2.661  0.0103  0.1087 -0.3660
    1SOL     OW 5993   0.917   0.099   2.748  0.1139  0.1497  0.2339
    1SOL    HW2 5994   0.911   0.112   2.843  1.2220  2.1435  0.0440
    1SOL    HW3 5995   1.000   0.054   2.735  0.6632  1.1804  0.1033
    1SOL    MW4 5996   0.927   0.095   2.759  0.3325  0.5487  0.1917
    1SOL     OW 5997   0.889   0.365   2.633  0.0427 -0.1299 -0.2071
    1SOL    HW2 5998   0.907   0.276   2.663 -0.8859 -0.5859 -0.9644
    1SOL    HW3 5999   0.865   0.355   2.541 -1.0085  0.7846 -0.0521
    1SOL    MW4 6000   0.888   0.352   2.625 -0.2185 -0.0693 -0.2868
    1SOL     OW 6001   1.086   0.522   2.745 -0.3071  0.0005 -0.3006
    1SOL    HW2 6002   1.073   0.611   2.711 -0.5076 -0.3298 -1.1063
    1SOL    HW3 6003   1.015   0.471   2.706  0.2016 -0.6575 -0.3729
    1SOL    MW4 6004   1.075   0.527   2.735 -0.2664 -0.1299 -0.4165
    1SOL     OW 6005   1.072   0.777   2.641 -0.3317 -0.2575 -0.1004
    1SOL    HW2 6006   1.162   0.805   2.660  0.0250 -0.7528 -1.0213
    1SOL    HW3 6007   1.067   0.778   2.545 -1.1471 -0.7512 -0.0604
    1SOL    MW4 6008   1.083   0.781   2.631 -0.3921 -0.3881 -0.2165
    1SOL     OW 6009   0.910   0.946   2.769 -0.1042  0.5733 -0.1871
    1SOL    HW2 6010   0.911   0.929   2.863 -0.2678 -1.5769 -0.5592
    1SOL    HW3 6011   0.976   0.886   2.733 -0.6664  0.7486 -1.5473
    1SOL    MW4 6012   0.919   0.936   2.777 -0.2000  0.3127 -0.4156
    1SOL     OW 6013   0.889   1.185   2.627  0.0652  0.2802 -0.3320
    1SOL    HW2 6014   0.904   1.100   2.669  1.4867  0.4314 -0.4919
    1SOL    HW3 6015   0.881   1.165   2.534  0.5252  0.3248 -0.3840
    1SOL    MW4 6016   0.890   1.171   2.621  0.3135  0.3059 -0.3598
    1SOL     OW 6017   1.097   1.309   2.779  0.0875 -0.1368 -0.0030
    1SOL    HW2 6018   1.106   1.393   2.733 -0.7956  0.5738  1.1017
    1SOL    HW3 6019   1.020   1.268   2.738  0.0532 -0.0562 -0.0193
    1SOL    MW4 6020   1.088   1.315   2.767 -0.0336 -0.0324  0.1404
    1SOL     OW 6021   1.142   1.561   2.633 -0.5938 -0.4207 -0.0500
    1SOL    HW2 6022   1.053   1.590   2.653 -0.5994 -0.5935  0.1815
    1SOL    HW3 6023   1.148   1.564   2.538  0.0319  2.2046  0.0538
    1SOL    MW4 6024   1.131   1.565   2.623 -0.5121 -0.0972 -0.0055
    1SOL     OW 6025   0.893   1.659   2.695  0.0457 -0.0737 -0.1412
    1SOL    HW2 6026   0.884   1.658   2.790 -0.1689  0.6913 -0.1462
    1SOL    HW3 6027   0.820   1.605   2.663 -0.2042  0.1114  0.1107
    1SOL    MW4 6028   0.882   1.652   2.703 -0.0156  0.0516 -0.1085
    1SOL     OW 6029   0.893   1.929   2.653  0.4084 -0.2619  0.9720
    1SOL    HW2 6030   0.974   1.958   2.694  0.0958  0.0814  1.3500
    1SOL    HW3 6031   0.888   1.835   2.673 -0.1113  0.0497  2.3438
    1SOL    MW4 6032   0.903   1.920   2.661  0.2986 -0.1754  1.2028
    1SOL     OW 6033   1.126   2.051   2.757 -0.3885  0.0365 -0.1477
    1SOL    HW2 6034   1.193   2.007   2.703  0.4944  0.0294  0.9354
    1SOL    HW3 6035   1.133   2.143   2.733 -1.2970 -0.2070 -1.4162
    1SOL    MW4 6036   1.136   2.057   2.747 -0.3920  0.0033 -0.1719
    1SOL     OW 6037   1.132   2.305   2.675 -0.2217 -0.1118  0.6047
    1SOL    HW2 6038   1.215   2.349   2.695 -0.7207  1.0279  0.2416
    1SOL    HW3 6039   1.125   2.310   2.579 -1.2928  0.9313  0.7175
    1SOL    MW4 6040   1.142   2.312   2.665 -0.4288  0.1762  0.5717
    1SOL     OW 6041   0.890   2.424   2.772 -0.4792 -0.2865 -0.2552
    1SOL    HW2 6042   0.897   2.505   2.722  0.4160  0.5587  1.1825
    1SOL    HW3 6043   0.961   2.369   2.740  1.2081  0.9469  1.2751
    1SOL    MW4 6044   0.900   2.427   2.761 -0.1383 -0.0124  0.1364
    1SOL     OW 6045   0.853   2.689   2.671 -0.0555  0.1057 -0.1822
    1SOL    HW2 6046   0.931   2.738   2.698  0.1267 -0.1543 -0.2331
    1SOL    HW3 6047   0.780   2.746   2.695  0.1433  0.2844  0.0090
    1SOL    MW4 6048   0.854   2.703   2.678 -0.0052  0.0949 -0.1636
    1SOL     OW 6049   1.083   2.832   2.740  0.0000  0.0000  0.1968
    1SOL    HW2 6050   1.106   2.825   2.832  0.0000  0.0000  0.2003
    1SOL    HW3 6051   1.159   2.795   2.694  0.0000  0.0000  0.2094
    1SOL    MW4 6052   1.096   2.826   2.746  0.0000  0.0000  0.1988
    1SOL     OW 6053   1.148   3.096   2.659  0.0000  0.0000 -0.3596
    1SOL    HW2 6054   1.122   3.007   2.682  0.0000  0.0000 -0.3624
    1SOL    HW3 6055   1.136   3.101   2.564  0.0000  0.0000 -0.3596
    1SOL    MW4 6056   1.143   3.085   2.649  0.0000  0.0000 -0.3600
    1SOL     OW 6057   0.919   3.208   2.773  0.0000  0.0000  0.4895
    1SOL    HW2 6058   0.903   3.287   2.721  0.0000  0.0000  0.4957
    1SOL    HW3 6059   1.006   3.179   2.745  0.0000  0.0000  0.4798
    1SOL    MW4 6060   0.928   3.215   2.762  0.0000  0.0000  0.4892
    1SOL     OW 6061   0.887   3.462   2.660  0.0000  0.0000  0.2224
    1SOL    HW2 6062   0.961   3.508   2.700  0.0000  0.0000  0.2264
    1SOL    HW3 6063   0.810   3.511   2.690  0.0000  0.0000  0.2110
    1SOL    MW4 6064   0.887   3.475   2.669  0.0000  0.0000  0.2215
    1SOL     OW 6065   1.102   3.599   2.772  0.0000  0.0000 -0.0548
    1SOL    HW2 6066   1.101   3.626   2.864  0.0000  0.0000 -0.0533
    1SOL    HW3 6067   1.100   3.681   2.723  0.0000  0.0000 -0.0502
    1SOL    MW4 6068   1.102   3.613   2.778  0.0000  0.0000 -0.0539
    1SOL     OW 6069   1.098   3.851   2.623  0.0000  0.0000 -0.4320
    1SOL    HW2 6070   1.178   3.889   2.661  0.0000  0.0000 -0.4336
    1SOL    HW3 6071   1.110   3.859   2.529  0.0000  0.0000 -0.4322
    1SOL    MW4 6072   1.110   3.857   2.616  0.0000  0.0000 -0.4323
    1SOL     OW 6073   0.893   4.008   2.755  0.0000  0.0000  0.3969
    1SOL    HW2 6074   0.957   3.963   2.700  0.0000  0.0000  0.4154
    1SOL    HW3 6075   0.809   3.969   2.728  0.0000  0.0000  0.3493
    1SOL    MW4 6076   0.890   3.997   2.744  0.0000  0.0000  0.3932
    1SOL     OW 6077   0.888   4.266   2.669  0.0000  0.0000  0.1738
    1SOL    HW2 6078   0.892   4.173   2.694  0.0000  0.0000  0.1725
    1SOL    HW3 6079   0.884   4.265   2.574  0.0000  0.0000  0.1738
    1SOL    MW4 6080   0.888   4.254   2.660  0.0000  0.0000  0.1736
    1SOL     OW 6081   1.144   4.351   2.763  0.0000  0.0000 -0.1559
    1SOL    HW2 6082   1.137   4.378   2.855  0.0000  0.0000 -0.1562
    1SOL    HW3 6083   1.055   4.327   2.738  0.0000  0.0000 -0.1519
    1SOL    MW4 6084   1.131   4.351   2.772  0.0000  0.0000 -0.1554
    1SOL     OW 6085   1.580   0.001   2.635  0.0436  0.0875 -0.4066
    1SOL    HW2 6086   1.575  -0.088   2.670  0.8336  0.7908  1.5795
    1SOL    HW3 6087   1.596  -0.011   2.541  1.7482 -1.8807  0.0919
    1SOL    MW4 6088   1.581  -0.012   2.627  0.3728 -0.0792 -0.0784
    1SOL     OW 6089   1.350   0.132   2.712 -0.2995  0.2977 -0.5679
    1SOL    HW2 6090   1.348   0.224   2.688  0.2588  0.1263 -1.2728
    1SOL    HW3 6091   1.427   0.096   2.667  1.4296  0.2030  2.3022
    1SOL    MW4 6092   1.360   0.139   2.703  0.0023  0.2626 -0.2820
    1SOL     OW 6093   1.311   0.398   2.637 -0.0497 -0.0266  0.0702
    1SOL    HW2 6094   1.385   0.456   2.653 -0.1974 -0.1561  1.2531
    1SOL    HW3 6095   1.235   0.446   2.670 -0.1834 -0.8424  0.9884
    1SOL    MW4 6096   1.310   0.412   2.644 -0.0869 -0.1513  0.3476
    1SOL     OW 6097   1.559   0.497   2.683 -0.3972 -0.2532 -0.1586
    1SOL    HW2 6098   1.639   0.449   2.658 -0.5852 -1.5237  1.5466
    1SOL    HW3 6099   1.579   0.588   2.663  1.4755 -0.5615  0.1450
    1SOL    MW4 6100   1.572   0.502   2.677 -0.1748 -0.4615  0.1066
    1SOL     OW 6101   1.557   0.773   2.603  0.5026  0.0671 -0.0443
    1SOL    HW2 6102   1.472   0.811   2.627  0.5315 -0.7070  1.3613
    1SOL    HW3 6103   1.570   0.800   2.512 -1.6230 -0.4764 -0.5510
    1SOL    MW4 6104   1.547   0.782   2.594  0.2258 -0.1067  0.0739
    1SOL     OW 6105   1.324   0.902   2.710  0.5733 -0.1637  0.5022
    1SOL    HW2 6106   1.342   0.897   2.804  1.9688 -1.9336  0.1588
    1SOL    HW3 6107   1.312   0.996   2.693 -0.0361  0.1352  2.5022
    1SOL    MW4 6108   1.325   0.914   2.720  0.6770 -0.3578  0.7207
    1SOL     OW 6109   1.299   1.185   2.645  0.3112  0.3082  0.0909
    1SOL    HW2 6110   1.384   1.218   2.676  0.8576 -0.1585 -0.8876
    1SOL    HW3 6111   1.235   1.228   2.701  1.2745 -0.4659  1.8306
    1SOL    MW4 6112   1.302   1.195   2.656  0.5105  0.1445  0.1915
    1SOL     OW 6113   1.573   1.274   2.726  0.3332  0.2741  0.4343
    1SOL    HW2 6114   1.577   1.274   2.822  1.9494  0.5876  0.3868
    1SOL    HW3 6115   1.656   1.234   2.699  0.3988  1.2369 -0.8475
    1SOL    MW4 6116   1.584   1.268   2.735  0.5552  0.4426  0.2592
    1SOL     OW 6117   1.526   1.528   2.607 -0.4629  0.1308  0.0879
    1SOL    HW2 6118   1.547   1.439   2.635  2.2728  0.6224 -0.2676
    1SOL    HW3 6119   1.561   1.533   2.518 -0.4856  1.6207  0.1633
    1SOL    MW4 6120   1.533   1.517   2.599 -0.1050  0.3922  0.0508
    1SOL     OW 6121   1.352   1.688   2.756 -0.2278  0.0567 -0.3776
    1SOL    HW2 6122   1.424   1.636   2.721 -0.2461 -0.3237  0.1553
    1SOL    HW3 6123   1.274   1.653   2.712 -0.1638  0.0682 -0.5006
    1SOL    MW4 6124   1.351   1.677   2.745 -0.2217  0.0079 -0.3238
    1SOL     OW 6125   1.341   1.942   2.632 -0.0905 -0.2887  0.0411
    1SOL    HW2 6126   1.368   1.856   2.666  1.0217 -0.7003 -1.7743
    1SOL    HW3 6127   1.340   1.930   2.537 -1.8655  1.1702 -0.1467
    1SOL    MW4 6128   1.345   1.929   2.624 -0.1779 -0.1504 -0.2234
    1SOL     OW 6129   1.588   2.063   2.729 -0.0649 -0.1938  0.5296
    1SOL    HW2 6130   1.665   2.012   2.705  0.3957  0.2704  1.0081
    1SOL    HW3 6131   1.515   2.018   2.686  0.5167 -0.4190 -0.2245
    1SOL    MW4 6132   1.588   2.050   2.720  0.0726 -0.1621  0.4930
    1SOL     OW 6133   1.541   2.321   2.613 -0.6486 -0.2941  0.2537
    1SOL    HW2 6134   1.611   2.375   2.649 -0.9662 -0.1061  0.5947
    1SOL    HW3 6135   1.553   2.235   2.653  0.0520 -0.5691 -0.5388
    1SOL    MW4 6136   1.552   2.316   2.623 -0.5980 -0.3057  0.1941
    1SOL     OW 6137   1.346   2.443   2.752  0.4687 -0.0209  0.3792
    1SOL    HW2 6138   1.328   2.525   2.706 -1.7307 -1.8311 -2.0916
    1SOL    HW3 6139   1.418   2.403   2.704  1.5438  0.4085  1.5863
    1SOL    MW4 6140   1.353   2.449   2.740  0.3203 -0.2029  0.2124
    1SOL     OW 6141   1.308   2.705   2.643 -0.0320  0.1987  0.6323
    1SOL    HW2 6142   1.392   2.742   2.671  1.6425 -1.9051 -1.4043
    1SOL    HW3 6143   1.315   2.698   2.548 -2.5044 -0.0499  0.4506
    1SOL    MW4 6144   1.320   2.709   2.634 -0.1373 -0.1118  0.3393
    1SOL     OW 6145   1.524   2.837   2.751 -0.4867 -1.0990  0.4290
    1SOL    HW2 6146   1.552   2.846   2.842 -1.2795  1.9510  0.4171
    1SOL    HW3 6147   1.598   2.796   2.707  1.7936  1.6715  1.5120
    1SOL    MW4 6148   1.537   2.833   2.757 -0.2906 -0.3312  0.5703
    1SOL     OW 6149   1.562   3.085   2.635  0.1285  0.4060  0.0954
    1SOL    HW2 6150   1.632   3.131   2.680 -1.5114  0.2406  2.9222
    1SOL    HW3 6151   1.558   2.999   2.677 -2.0831  0.6061  0.3753
    1SOL    MW4 6152   1.570   3.080   2.646 -0.3797  0.4106  0.5050
    1SOL     OW 6153   1.362   3.223   2.760  0.0021  0.0263  0.3055
    1SOL    HW2 6154   1.426   3.187   2.699 -0.5712 -0.9587  0.2590
    1SOL    HW3 6155   1.281   3.177   2.738  0.2213 -1.8485  3.1168
    1SOL    MW4 6156   1.360   3.212   2.749 -0.0446 -0.3510  0.6702
    1SOL     OW 6157   1.338   3.485   2.672 -0.4105  0.3080  0.0576
    1SOL    HW2 6158   1.346   3.392   2.693 -0.4112  0.5252  1.0509
    1SOL    HW3 6159   1.258   3.512   2.716 -1.4986  0.3331 -1.8937
    1SOL    MW4 6160   1.328   3.476   2.680 -0.5541  0.3397 -0.0689
    1SOL     OW 6161   1.574   3.604   2.743 -0.0578  0.3094 -0.6078
    1SOL    HW2 6162   1.645   3.561   2.695 -0.5225 -1.3204  0.1303
    1SOL    HW3 6163   1.494   3.565   2.708 -0.4715  0.2752  0.3669
    1SOL    MW4 6164   1.573   3.593   2.732 -0.1736  0.0899 -0.3819
    1SOL     OW 6165   1.577   3.863   2.667 -0.2642  0.3551  0.6888
    1SOL    HW2 6166   1.492   3.901   2.690 -0.4544  0.5213 -0.2632
    1SOL    HW3 6167   1.567   3.770   2.687 -1.7928 -0.2208 -2.3613
    1SOL    MW4 6168   1.564   3.855   2.673 -0.4909  0.3011  0.1609
    1SOL     OW 6169   1.324   3.992   2.711  0.2616 -0.2510 -0.2823
    1SOL    HW2 6170   1.327   4.008   2.805 -0.8429 -0.4561 -0.2132
    1SOL    HW3 6171   1.339   4.078   2.671  0.7810 -0.1744  0.0737
    1SOL    MW4 6172   1.326   4.005   2.718  0.1844 -0.2685 -0.2263
    1SOL     OW 6173   1.360   4.260   2.628 -0.2813  0.0775  0.3159
    1SOL    HW2 6174   1.288   4.297   2.678 -0.4611 -0.3713  0.3928
    1SOL    HW3 6175   1.348   4.293   2.539 -0.0396  0.7634  0.5354
    1SOL    MW4 6176   1.349   4.269   2.623 -0.2731  0.1082  0.3550
    1SOL     OW 6177   1.542   4.403   2.739  0.7498 -0.2090 -0.0599
    1SOL    HW2 6178   1.544   4.388   2.834 -0.3200 -0.7482 -0.1151
    1SOL    HW3 6179   1.488   4.332   2.705  0.8717  0.1665 -1.0469
    1SOL    MW4 6180   1.535   4.392   2.747  0.6248 -0.2313 -0.1974
    1SOL     OW 6181   2.005   4.623   2.680 -0.4275  0.1569  0.1338
    1SOL    HW2 6182   2.072   4.688   2.699 -0.0340 -0.2542  0.1758
    1SOL    HW3 6183   1.996   4.624   2.585 -0.3621  0.2137  0.1291
    1SOL    MW4 6184   2.012   4.631   2.670 -0.3672  0.1106  0.1392
    1SOL     OW 6185   1.796   0.128   2.745  0.5551 -0.2219  0.4250
    1SOL    HW2 6186   1.870   0.078   2.711  0.1692 -0.0434 -0.7032
    1SOL    HW3 6187   1.719   0.082   2.712  0.1899  0.8193 -0.2388
    1SOL    MW4 6188   1.796   0.116   2.736  0.4561 -0.0610  0.1888
    1SOL     OW 6189   1.810   0.372   2.609  0.7160  0.0989  0.1025
    1SOL    HW2 6190   1.876   0.421   2.658 -0.0625  0.9165  0.3518
    1SOL    HW3 6191   1.805   0.287   2.653  0.7250  0.4778  0.8427
    1SOL    MW4 6192   1.818   0.367   2.621  0.6144  0.2567  0.2327
    1SOL     OW 6193   2.029   0.473   2.739  0.6426  0.4684 -0.7295
    1SOL    HW2 6194   2.109   0.427   2.714  0.2433  0.2670 -1.6630
    1SOL    HW3 6195   2.040   0.491   2.833  0.4769 -2.2099 -0.1413
    1SOL    MW4 6196   2.041   0.469   2.748  0.5682  0.0884 -0.7753
    1SOL     OW 6197   2.028   0.696   2.591  0.0002 -0.2050 -0.2370
    1SOL    HW2 6198   2.047   0.612   2.633  1.5037  1.2239  2.0553
    1SOL    HW3 6199   1.949   0.727   2.634 -0.6373 -0.4851 -1.1852
    1SOL    MW4 6200   2.020   0.689   2.602  0.1144 -0.0533 -0.0596
    1SOL     OW 6201   1.802   0.832   2.716 -0.1093 -0.1878 -0.1885
    1SOL    HW2 6202   1.806   0.925   2.694  0.3132  0.1882  1.4068
    1SOL    HW3 6203   1.712   0.806   2.695 -0.0137  0.3900 -1.3319
    1SOL    MW4 6204   1.790   0.841   2.710 -0.0409 -0.0620 -0.1290
    1SOL     OW 6205   1.805   1.110   2.667 -0.1094 -0.2620  0.2378
    1SOL    HW2 6206   1.888   1.153   2.689 -0.0842 -1.0991  1.7974
    1SOL    HW3 6207   1.803   1.111   2.571  1.2433  0.6227  0.2021
    1SOL    MW4 6208   1.816   1.116   2.657  0.0722 -0.2558  0.4389
    1SOL     OW 6209   2.059   1.302   2.722  0.0240 -0.0948  0.4144
    1SOL    HW2 6210   2.065   1.305   2.817 -1.1583  0.0321  0.4900
    1SOL    HW3 6211   2.129   1.242   2.696  0.6116  0.1824  1.3281
    1SOL    MW4 6212   2.069   1.294   2.731 -0.0546 -0.0415  0.5450
    1SOL     OW 6213   2.012   1.553   2.621  0.2830  0.0609 -0.1162
    1SOL    HW2 6214   1.926   1.581   2.651 -0.4666 -0.4733 -1.6958
    1SOL    HW3 6215   2.024   1.466   2.659  0.8212  0.7958  1.4074
    1SOL    MW4 6216   2.002   1.545   2.630  0.2551  0.0874 -0.1235
    1SOL     OW 6217   1.772   1.669   2.691 -0.3233  0.1583  0.3811
    1SOL    HW2 6218   1.763   1.663   2.786 -0.3999 -0.8376  0.3179
    1SOL    HW3 6219   1.702   1.613   2.657 -0.7789  1.1175 -0.2740
    1SOL    MW4 6220   1.762   1.661   2.699 -0.3934  0.1535  0.2863
    1SOL     OW 6221   1.804   1.926   2.623 -0.3838 -0.5030  0.2768
    1SOL    HW2 6222   1.891   1.954   2.653  0.5067 -1.5790 -1.2229
    1SOL    HW3 6223   1.802   1.832   2.640 -1.0142 -0.5958 -0.2942
    1SOL    MW4 6224   1.815   1.917   2.629 -0.3494 -0.6571  0.0038
    1SOL     OW 6225   2.051   2.018   2.692  0.2705  0.2867  0.0220
    1SOL    HW2 6226   2.053   2.034   2.786  0.0964  1.9893 -0.2480
    1SOL    HW3 6227   2.021   2.101   2.654 -0.1752 -0.5417 -1.4927
    1SOL    MW4 6228   2.047   2.031   2.699  0.1886  0.4020 -0.2134
    1SOL     OW 6229   1.953   2.300   2.621  0.1490 -0.1360  0.0444
    1SOL    HW2 6230   2.025   2.347   2.664  0.2739  0.3199 -0.6611
    1SOL    HW3 6231   1.961   2.324   2.529  0.6915 -2.1722 -0.4562
    1SOL    MW4 6232   1.964   2.309   2.615  0.2371 -0.3445 -0.1147
    1SOL     OW 6233   1.730   2.458   2.732  0.0776  0.1712 -0.1766
    1SOL    HW2 6234   1.749   2.464   2.826 -1.1511 -0.3451  0.1186
    1SOL    HW3 6235   1.807   2.416   2.695  0.4299  0.0571  0.6649
    1SOL    MW4 6236   1.742   2.453   2.740 -0.0379  0.0880 -0.0265
    1SOL     OW 6237   1.762   2.722   2.653 -0.1489 -0.0622 -0.0416
    1SOL    HW2 6238   1.748   2.629   2.670 -0.1206 -0.0361  0.1252
    1SOL    HW3 6239   1.775   2.727   2.558 -0.7545 -0.1497 -0.1320
    1SOL    MW4 6240   1.762   2.710   2.642 -0.2251 -0.0701 -0.0315
    1SOL     OW 6241   1.999   2.836   2.746 -0.2075  0.1756 -0.2196
    1SOL    HW2 6242   2.072   2.785   2.711  0.2394 -0.9717  2.2719
    1SOL    HW3 6243   1.922   2.780   2.734  0.0822 -0.5880  1.3526
    1SOL    MW4 6244   1.998   2.822   2.740 -0.1103 -0.0763  0.3166
    1SOL     OW 6245   2.027   3.092   2.656 -0.5408 -0.0086  0.2513
    1SOL    HW2 6246   2.011   3.006   2.695 -3.3741  0.6863  0.8009
    1SOL    HW3 6247   2.033   3.076   2.562  1.0253 -1.0414  0.5124
    1SOL    MW4 6248   2.025   3.079   2.649 -0.7081 -0.0534  0.3581
    1SOL     OW 6249   1.793   3.219   2.736 -0.6013  0.0656 -0.0291
    1SOL    HW2 6250   1.791   3.309   2.703  0.6127 -0.2735 -1.0720
    1SOL    HW3 6251   1.873   3.182   2.698 -0.3909 -1.0451  1.4667
    1SOL    MW4 6252   1.803   3.226   2.727 -0.4135 -0.1252  0.0305
    1SOL     OW 6253   1.785   3.470   2.617 -0.3261  0.1519 -0.0537
    1SOL    HW2 6254   1.857   3.524   2.650  0.5732 -1.9796  1.5352
    1SOL    HW3 6255   1.794   3.473   2.522  1.7945  0.0121  0.1308
    1SOL    MW4 6256   1.795   3.478   2.609  0.0724 -0.1481  0.1800
    1SOL     OW 6257   2.004   3.589   2.735  0.0995 -0.3837  0.0428
    1SOL    HW2 6258   2.019   3.572   2.828 -0.0471  0.1250  0.1651
    1SOL    HW3 6259   2.064   3.530   2.689 -0.4116 -1.2210  0.4437
    1SOL    MW4 6260   2.014   3.579   2.741  0.0129 -0.4270  0.1116
    1SOL     OW 6261   2.021   3.841   2.623 -0.3066 -0.6630 -0.1200
    1SOL    HW2 6262   1.977   3.909   2.674 -0.5543 -0.0207 -1.1725
    1SOL    HW3 6263   1.995   3.759   2.665 -2.2709 -0.2767 -0.5331
    1SOL    MW4 6264   2.011   3.839   2.636 -0.5984 -0.5276 -0.3135
    1SOL     OW 6265   1.835   3.996   2.748 -0.2668 -0.1015 -0.2517
    1SOL    HW2 6266   1.828   4.086   2.715  0.2001 -0.2637 -0.7957
    1SOL    HW3 6267   1.756   3.953   2.717  0.4282 -0.4012 -1.6268
    1SOL    MW4 6268   1.823   4.003   2.740 -0.1136 -0.1621 -0.5047
    1SOL     OW 6269   1.781   4.274   2.662  0.4702  0.0639  0.4143
    1SOL    HW2 6270   1.700   4.305   2.702  0.4976 -0.1638  0.6500
    1SOL    HW3 6271   1.766   4.278   2.568  0.2628  0.2284  0.4568
    1SOL    MW4 6272   1.768   4.279   2.655  0.4466  0.0558  0.4513
    1SOL     OW 6273   2.013   4.347   2.790 -0.4006  0.2035  0.3473
    1SOL    HW2 6274   1.929   4.310   2.766  0.4825 -0.9025 -1.1231
    1SOL    HW3 6275   2.007   4.439   2.764 -0.9638 -0.0042 -0.2699
    1SOL    MW4 6276   2.001   4.355   2.783 -0.3586  0.0305  0.0720
    1SOL     OW 6277   2.446   4.641   2.603  0.2824  0.5731  0.3132
    1SOL    HW2 6278   2.526   4.676   2.642  0.0672  1.5965 -0.1350
    1SOL    HW3 6279   2.466   4.635   2.509  0.8536 -2.0197  0.5641
    1SOL    MW4 6280   2.459   4.645   2.595  0.3293  0.3667  0.2873
    1SOL     OW 6281   2.242   0.091   2.731 -0.0796 -0.2385 -0.1348
    1SOL    HW2 6282   2.320   0.052   2.691  0.2651  0.3609 -0.0408
    1SOL    HW3 6283   2.267   0.105   2.822  0.6130  2.4201 -0.7119
    1SOL    MW4 6284   2.256   0.087   2.738  0.0572  0.1914 -0.1988
    1SOL     OW 6285   2.234   0.339   2.617  0.5881  0.3951 -0.0755
    1SOL    HW2 6286   2.222   0.320   2.524  0.4662 -0.9169  0.2045
    1SOL    HW3 6287   2.231   0.253   2.660  0.7642  0.9811  1.1247
    1SOL    MW4 6288   2.232   0.325   2.610  0.5953  0.2993  0.1199
    1SOL     OW 6289   2.461   0.455   2.715  0.0548 -0.0177 -0.0437
    1SOL    HW2 6290   2.440   0.544   2.684  0.1309  0.1557  0.3924
    1SOL    HW3 6291   2.392   0.400   2.677 -1.0278  0.5034  1.1222
    1SOL    MW4 6292   2.449   0.460   2.706 -0.0782  0.0739  0.1678
    1SOL     OW 6293   2.460   0.731   2.641 -0.2627  0.0393 -0.0587
    1SOL    HW2 6294   2.387   0.774   2.686 -1.9499 -2.2211 -0.4848
    1SOL    HW3 6295   2.440   0.741   2.548 -0.8431 -1.8248 -0.1653
    1SOL    MW4 6296   2.447   0.738   2.635 -0.5622 -0.5049 -0.1287
    1SOL     OW 6297   2.255   0.863   2.739  0.5078 -0.1231  0.6399
    1SOL    HW2 6298   2.242   0.869   2.834 -1.4209 -0.3891  0.4254
    1SOL    HW3 6299   2.174   0.821   2.707  0.7342  0.8192 -1.2245
    1SOL    MW4 6300   2.242   0.858   2.747  0.2828 -0.0340  0.3657
    1SOL     OW 6301   2.264   1.125   2.635 -0.5010 -0.1334  0.3150
    1SOL    HW2 6302   2.271   1.039   2.675 -0.4027 -0.3612 -0.1850
    1SOL    HW3 6303   2.341   1.172   2.667  0.4603 -0.8529 -0.8880
    1SOL    MW4 6304   2.275   1.120   2.644 -0.3612 -0.2584  0.0906
    1SOL     OW 6305   2.467   1.273   2.730  0.1806 -0.1069  0.1870
    1SOL    HW2 6306   2.448   1.348   2.674  0.2711  0.5999  1.0830
    1SOL    HW3 6307   2.544   1.232   2.691 -0.4194 -0.2687 -0.8310
    1SOL    MW4 6308   2.474   1.277   2.718  0.1135 -0.0349  0.1707
    1SOL     OW 6309   2.436   1.522   2.595  0.0405  0.6628 -0.0861
    1SOL    HW2 6310   2.362   1.567   2.637 -0.2214 -0.7135  0.9715
    1SOL    HW3 6311   2.513   1.554   2.642 -0.1724 -0.2067  0.8722
    1SOL    MW4 6312   2.436   1.532   2.607 -0.0219  0.3664  0.1798
    1SOL     OW 6313   2.247   1.677   2.701  0.2077  0.1165  0.4424
    1SOL    HW2 6314   2.260   1.760   2.655  0.6728  0.7252  1.6553
    1SOL    HW3 6315   2.159   1.650   2.676  0.4068  0.4888 -0.7098
    1SOL    MW4 6316   2.237   1.684   2.692  0.2952  0.2460  0.4506
    1SOL     OW 6317   2.289   1.920   2.576 -0.6341  0.0112 -0.1658
    1SOL    HW2 6318   2.215   1.967   2.613 -0.6637 -0.0187 -0.1872
    1SOL    HW3 6319   2.272   1.919   2.482 -0.1345  0.8113 -0.2647
    1SOL    MW4 6320   2.277   1.926   2.569 -0.5722  0.1127 -0.1817
    1SOL     OW 6321   2.493   2.034   2.722  0.0615  0.3880  0.5358
    1SOL    HW2 6322   2.486   2.127   2.697  1.3280  0.0669 -1.1575
    1SOL    HW3 6323   2.431   1.989   2.665  0.8780 -0.0192 -0.0468
    1SOL    MW4 6324   2.484   2.041   2.711  0.3362  0.2918  0.2356
    1SOL     OW 6325   2.433   2.301   2.642 -0.3297  0.1375  0.0396
    1SOL    HW2 6326   2.514   2.344   2.667  0.9466 -1.8091 -0.6189
    1SOL    HW3 6327   2.443   2.283   2.548 -0.7448 -1.6896  0.3168
    1SOL    MW4 6328   2.445   2.304   2.633 -0.2162 -0.3603 -0.0107
    1SOL     OW 6329   2.190   2.411   2.756  0.0465  0.2023  0.2550
    1SOL    HW2 6330   2.206   2.418   2.850  1.6489  0.3029 -0.0148
    1SOL    HW3 6331   2.270   2.372   2.721 -0.7807 -0.4173 -0.9876
    1SOL    MW4 6332   2.202   2.406   2.764  0.1485  0.1338  0.0551
    1SOL     OW 6333   2.203   2.667   2.657  0.0773  0.0593  0.4365
    1SOL    HW2 6334   2.290   2.700   2.678  0.4464 -0.4824 -0.2108
    1SOL    HW3 6335   2.200   2.580   2.697  0.1649 -0.2826 -0.2798
    1SOL    MW4 6336   2.214   2.660   2.665  0.1378 -0.0572  0.2565
    1SOL     OW 6337   2.440   2.806   2.764 -0.2810 -0.1913 -0.0854
    1SOL    HW2 6338   2.514   2.758   2.726 -0.2670 -0.4696  0.2934
    1SOL    HW3 6339   2.438   2.889   2.716 -0.8186 -0.9049 -1.3316
    1SOL    MW4 6340   2.449   2.810   2.752 -0.3502 -0.3221 -0.1996
    1SOL     OW 6341   2.458   3.084   2.636 -0.1787  0.1744  0.3957
    1SOL    HW2 6342   2.385   3.141   2.662 -0.3074  0.1741  0.0321
    1SOL    HW3 6343   2.452   3.079   2.541  0.1105 -0.0771  0.3912
    1SOL    MW4 6344   2.447   3.091   2.627 -0.1574  0.1411  0.3474
    1SOL     OW 6345   2.260   3.230   2.746 -0.2991  0.1850 -0.5495
    1SOL    HW2 6346   2.260   3.231   2.842  0.3038 -1.3692 -0.5206
    1SOL    HW3 6347   2.179   3.184   2.722 -1.0091  1.5371 -0.8257
    1SOL    MW4 6348   2.249   3.224   2.756 -0.3133  0.1583 -0.5822
    1SOL     OW 6349   2.203   3.460   2.600  0.2805 -0.0064  0.2748
    1SOL    HW2 6350   2.268   3.521   2.635  0.7600  0.0629 -0.7021
    1SOL    HW3 6351   2.222   3.377   2.643  0.7569  0.1121  0.2915
    1SOL    MW4 6352   2.214   3.457   2.610  0.4063  0.0186  0.1481
    1SOL     OW 6353   2.429   3.598   2.700 -0.3905  0.3630  0.1477
    1SOL    HW2 6354   2.445   3.612   2.793  0.0281  1.0202 -0.0237
    1SOL    HW3 6355   2.447   3.682   2.659 -0.2249 -0.0185 -0.5778
    1SOL    MW4 6356   2.433   3.611   2.707 -0.3135  0.3994  0.0291
    1SOL     OW 6357   2.493   3.846   2.607 -0.4330  0.1923 -0.3879
    1SOL    HW2 6358   2.564   3.884   2.659 -0.4409  0.3598 -0.5001
    1SOL    HW3 6359   2.416   3.897   2.631 -0.7636 -0.7824  0.6489
    1SOL    MW4 6360   2.493   3.858   2.617 -0.4776  0.0856 -0.2658
    1SOL     OW 6361   2.259   3.982   2.678 -0.0801  0.5304  0.4691
    1SOL    HW2 6362   2.266   3.982   2.774  0.5035 -1.2174  0.4435
    1SOL    HW3 6363   2.181   3.930   2.660  0.7054 -0.4951 -0.0385
    1SOL    MW4 6364   2.250   3.975   2.689  0.1004  0.1643  0.3986
    1SOL     OW 6365   2.242   4.247   2.639  0.4286 -0.0659 -0.2550
    1SOL    HW2 6366   2.245   4.156   2.667  1.5584  0.6525  2.0925
    1SOL    HW3 6367   2.182   4.289   2.701  2.1545  1.3487  0.5234
    1SOL    MW4 6368   2.234   4.241   2.651  0.8054  0.2160  0.1574
    1SOL     OW 6369   2.486   4.368   2.684  0.1309  0.4104  0.1417
    1SOL    HW2 6370   2.410   4.314   2.661  0.3651  0.2908 -0.3750
    1SOL    HW3 6371   2.468   4.453   2.643 -0.0516  0.6046  0.6181
    1SOL    MW4 6372   2.474   4.372   2.675  0.1378  0.4201  0.1361
    1SOL     OW 6373   2.896   4.646   2.615 -0.1428 -0.0001  0.2512
    1SOL    HW2 6374   2.971   4.701   2.636  0.7233 -0.8324 -0.6142
    1SOL    HW3 6375   2.895   4.641   2.519  0.4746 -2.3613  0.3239
    1SOL    MW4 6376   2.906   4.653   2.605  0.0532 -0.4220  0.1466
    1SOL     OW 6377   2.663   0.097   2.733  0.2220 -0.3435 -0.0200
    1SOL    HW2 6378   2.658   0.091   2.829  1.6759  0.4193  0.1224
    1SOL    HW3 6379   2.747   0.056   2.711 -0.2229 -0.7512 -0.9975
    1SOL    MW4 6380   2.673   0.091   2.743  0.3552 -0.2966 -0.1299
    1SOL     OW 6381   2.685   0.350   2.619 -0.0629  0.0012 -0.2496
    1SOL    HW2 6382   2.690   0.262   2.655  0.0542  0.1310  0.0574
    1SOL    HW3 6383   2.603   0.385   2.655  0.1503  0.1989  0.0449
    1SOL    MW4 6384   2.675   0.343   2.629 -0.0193  0.0444 -0.1702
    1SOL     OW 6385   2.908   0.514   2.709 -1.1281  0.4835  0.1604
    1SOL    HW2 6386   2.906   0.609   2.702 -1.8160  0.4444 -0.2721
    1SOL    HW3 6387   2.823   0.486   2.676 -1.2644 -0.2295  1.0721
    1SOL    MW4 6388   2.896   0.523   2.704 -1.2369  0.3843  0.2236
    1SOL     OW 6389   2.900   0.777   2.650 -0.0057  0.0064  0.2231
    1SOL    HW2 6390   2.977   0.822   2.686 -0.3155  0.8400 -0.1445
    1SOL    HW3 6391   2.826   0.819   2.692 -0.4578  1.9853 -2.3936
    1SOL    MW4 6392   2.901   0.789   2.660 -0.1061  0.3774 -0.1707
    1SOL     OW 6393   2.674   0.914   2.733  0.8341 -0.7663 -0.2692
    1SOL    HW2 6394   2.676   0.915   2.828 -0.1011 -0.7409 -0.2509
    1SOL    HW3 6395   2.603   0.854   2.710  2.1050 -2.0409 -0.9599
    1SOL    MW4 6396   2.665   0.907   2.742  0.8783 -0.9311 -0.3579
    1SOL     OW 6397   2.695   1.157   2.621  0.0194  0.5434 -0.3869
    1SOL    HW2 6398   2.775   1.197   2.655 -0.8175  0.7367  1.3993
    1SOL    HW3 6399   2.688   1.074   2.669 -0.5397  0.2591 -0.9633
    1SOL    MW4 6400   2.705   1.151   2.632 -0.1650  0.5313 -0.2275
    1SOL     OW 6401   2.899   1.281   2.723 -0.4826 -0.0493 -0.0565
    1SOL    HW2 6402   2.909   1.280   2.818  0.1022 -0.0460 -0.1198
    1SOL    HW3 6403   2.983   1.252   2.689  0.4282  3.1409 -0.6656
    1SOL    MW4 6404   2.911   1.277   2.731 -0.2851  0.3722 -0.1452
    1SOL     OW 6405   2.930   1.538   2.626 -0.4189 -0.3232  0.0575
    1SOL    HW2 6406   2.845   1.580   2.640 -0.7892 -1.2621  0.6362
    1SOL    HW3 6407   2.915   1.446   2.645  1.1022 -0.2531  1.7365
    1SOL    MW4 6408   2.917   1.532   2.631 -0.2673 -0.4377  0.3552
    1SOL     OW 6409   2.688   1.652   2.726  0.0363  0.4682  0.0395
    1SOL    HW2 6410   2.699   1.649   2.821  0.2211 -0.7993 -0.0085
    1SOL    HW3 6411   2.712   1.741   2.701  0.5648  0.6266  1.1143
    1SOL    MW4 6412   2.693   1.663   2.735  0.1304  0.3219  0.1750
    1SOL     OW 6413   2.729   1.920   2.648 -0.0389 -0.0531 -0.1962
    1SOL    HW2 6414   2.796   1.979   2.684 -1.3993  1.1438  0.4301
    1SOL    HW3 6415   2.647   1.951   2.686 -0.8889 -1.9019 -0.4529
    1SOL    MW4 6416   2.727   1.932   2.658 -0.3304 -0.1390 -0.1476
    1SOL     OW 6417   2.947   2.059   2.731  0.3369  0.0320 -0.3240
    1SOL    HW2 6418   3.028   2.021   2.696 -0.3883 -0.9808 -0.9283
    1SOL    HW3 6419   2.935   2.140   2.680  0.3998 -0.3656 -0.9747
    1SOL    MW4 6420   2.956   2.065   2.720  0.2496 -0.1545 -0.4895
    1SOL     OW 6421   2.900   2.318   2.617 -0.5439  0.1162 -0.2423
    1SOL    HW2 6422   2.980   2.345   2.663  0.1000 -3.6291  1.0409
    1SOL    HW3 6423   2.829   2.345   2.676  0.0502 -0.8320  0.9304
    1SOL    MW4 6424   2.902   2.325   2.631 -0.3805 -0.5031  0.0818
    1SOL     OW 6425   2.661   2.428   2.736 -0.1803 -0.2202  0.4732
    1SOL    HW2 6426   2.675   2.434   2.830  1.2044  0.1302  0.2602
    1SOL    HW3 6427   2.692   2.513   2.702 -1.2231 -0.1123 -0.2262
    1SOL    MW4 6428   2.667   2.440   2.744 -0.1354 -0.1597  0.3531
    1SOL     OW 6429   2.677   2.675   2.621  0.0306  0.2057  0.5423
    1SOL    HW2 6430   2.746   2.726   2.663  0.3401  0.0824  0.1782
    1SOL    HW3 6431   2.691   2.686   2.527  1.3968 -2.2543  0.4117
    1SOL    MW4 6432   2.688   2.683   2.614  0.2515 -0.1352  0.4771
    1SOL     OW 6433   2.893   2.819   2.711 -0.3790  0.1524  0.0627
    1SOL    HW2 6434   2.974   2.780   2.677 -0.4373 -0.4691  0.6200
    1SOL    HW3 6435   2.894   2.798   2.805 -0.9772  0.5100  0.1503
    1SOL    MW4 6436   2.904   2.811   2.719 -0.4656  0.1175  0.1476
    1SOL     OW 6437   2.899   3.080   2.638 -0.1633 -0.2980 -0.0340
    1SOL    HW2 6438   2.822   3.126   2.673 -0.5265 -0.9595  0.0361
    1SOL    HW3 6439   2.890   2.990   2.669  0.4033 -0.4867 -0.4089
    1SOL    MW4 6440   2.887   3.074   2.647 -0.1366 -0.4103 -0.0741
    1SOL     OW 6441   2.682   3.222   2.721 -0.1959 -0.2183 -0.0668
    1SOL    HW2 6442   2.679   3.312   2.691 -1.6757  0.0390  0.7868
    1SOL    HW3 6443   2.598   3.185   2.693  0.4354 -1.3664 -0.4940
    1SOL    MW4 6444   2.670   3.229   2.713 -0.3076 -0.3357 -0.0107
    1SOL     OW 6445   2.694   3.472   2.624  0.1470  0.3614  0.1991
    1SOL    HW2 6446   2.614   3.524   2.630  1.0343  1.8249 -0.3492
    1SOL    HW3 6447   2.701   3.450   2.531  0.2945  0.0941  0.2732
    1SOL    MW4 6448   2.684   3.476   2.612  0.2835  0.5193  0.1366
    1SOL     OW 6449   2.945   3.620   2.695  0.1585  0.0715  0.1560
    1SOL    HW2 6450   2.943   3.609   2.790 -0.4987  0.6772  0.2118
    1SOL    HW3 6451   2.861   3.586   2.666  0.1519  0.3701 -0.1636
    1SOL    MW4 6452   2.934   3.614   2.704  0.0710  0.1910  0.1211
    1SOL     OW 6453   2.950   3.889   2.624  0.1052 -0.2010 -0.0735
    1SOL    HW2 6454   3.017   3.930   2.679  1.5216 -0.2235 -1.7411
    1SOL    HW3 6455   2.955   3.796   2.646 -0.1890 -0.0507  0.6466
    1SOL    MW4 6456   2.960   3.882   2.635  0.2532 -0.1843 -0.1986
    1SOL     OW 6457   2.714   3.996   2.717 -0.0832 -0.1144  0.0907
    1SOL    HW2 6458   2.720   4.075   2.663 -0.9431 -0.6434 -0.7813
    1SOL    HW3 6459   2.795   3.949   2.698  0.0873  0.1929  0.0458
    1SOL    MW4 6460   2.726   4.000   2.708 -0.1738 -0.1435 -0.0303
    1SOL     OW 6461   2.719   4.237   2.593 -0.1090  0.5696  0.2070
    1SOL    HW2 6462   2.798   4.287   2.615 -0.3410  1.4859 -1.0143
    1SOL    HW3 6463   2.646   4.295   2.619 -0.3794  0.5240 -0.4513
    1SOL    MW4 6464   2.719   4.251   2.600 -0.1750  0.6847 -0.0412
    1SOL     OW 6465   2.947   4.395   2.735 -0.0655  0.0188  0.1721
    1SOL    HW2 6466   2.939   4.393   2.830  0.0695  0.3517  0.1934
    1SOL    HW3 6467   2.910   4.480   2.710  0.0610  0.0076 -0.0548
    1SOL    MW4 6468   2.941   4.406   2.744 -0.0310  0.0615  0.1450
    1SOL     OW 6469   3.342   0.014   2.603  0.0858  0.0294 -0.3107
    1SOL    HW2 6470   3.352  -0.069   2.650  0.1819  0.0503 -0.2925
    1SOL    HW3 6471   3.255   0.045   2.627  0.4014  0.3735  0.4028
    1SOL    MW4 6472   3.332   0.007   2.613  0.1402  0.0775 -0.2141
    1SOL     OW 6473   3.116   0.124   2.687 -0.0961  0.1892  0.2084
    1SOL    HW2 6474   3.115   0.111   2.782 -1.7527  1.8621  0.4416
    1SOL    HW3 6475   3.117   0.219   2.676 -1.0036  0.0157 -1.4548
    1SOL    MW4 6476   3.116   0.135   2.698 -0.4344  0.3870  0.0196
    1SOL     OW 6477   3.147   0.389   2.617  0.4925 -0.4097  0.2985
    1SOL    HW2 6478   3.068   0.441   2.631  0.2442 -0.5390 -0.5955
    1SOL    HW3 6479   3.144   0.366   2.524  1.0580 -1.2694  0.4914
    1SOL    MW4 6480   3.136   0.393   2.607  0.5345 -0.5402  0.2060
    1SOL     OW 6481   3.369   0.533   2.708 -0.0980 -0.3019 -0.0506
    1SOL    HW2 6482   3.358   0.626   2.685 -0.2381 -0.3757 -0.2902
    1SOL    HW3 6483   3.302   0.488   2.656  1.2689 -0.7533 -1.4840
    1SOL    MW4 6484   3.359   0.540   2.698  0.0637 -0.3712 -0.2713
    1SOL     OW 6485   3.359   0.781   2.623  0.4351  0.0041 -0.1629
    1SOL    HW2 6486   3.448   0.809   2.643  0.6938 -0.7184 -0.2793
    1SOL    HW3 6487   3.361   0.759   2.530 -0.7466  3.3113 -1.0431
    1SOL    MW4 6488   3.371   0.781   2.613  0.3133  0.3451 -0.2942
    1SOL     OW 6489   3.139   0.932   2.698  0.0748  0.1441  0.1985
    1SOL    HW2 6490   3.145   0.903   2.789  1.7369 -0.4461 -0.0758
    1SOL    HW3 6491   3.213   0.889   2.654  0.0272  1.3942 -1.1606
    1SOL    MW4 6492   3.150   0.923   2.704  0.2880  0.2313 -0.0172
    1SOL     OW 6493   3.131   1.180   2.592 -0.1875  0.1600  0.4088
    1SOL    HW2 6494   3.129   1.092   2.628 -1.6287  0.2884  0.6529
    1SOL    HW3 6495   3.145   1.167   2.498  0.9348 -0.2655  0.6251
    1SOL    MW4 6496   3.133   1.167   2.584 -0.2298  0.1208  0.4697
    1SOL     OW 6497   3.359   1.307   2.713 -0.2796  0.1070 -0.4613
    1SOL    HW2 6498   3.348   1.288   2.806 -0.6210  0.6241 -0.3946
    1SOL    HW3 6499   3.279   1.274   2.672 -0.0618 -0.2602 -0.5944
    1SOL    MW4 6500   3.347   1.300   2.720 -0.2956  0.1268 -0.4702
    1SOL     OW 6501   3.395   1.548   2.605  0.1212  0.1882 -0.3097
    1SOL    HW2 6502   3.315   1.581   2.648 -0.6213  0.2075 -1.6731
    1SOL    HW3 6503   3.403   1.457   2.636  0.1902  0.5319  0.6911
    1SOL    MW4 6504   3.385   1.540   2.615  0.0322  0.2360 -0.3574
    1SOL     OW 6505   3.163   1.655   2.710 -0.3342  0.1516  0.5939
    1SOL    HW2 6506   3.084   1.607   2.684 -0.3819  0.0833  0.8537
    1SOL    HW3 6507   3.168   1.641   2.805  0.5895 -0.7594  0.4210
    1SOL    MW4 6508   3.153   1.647   2.719 -0.2189  0.0224  0.6056
    1SOL     OW 6509   3.163   1.929   2.614 -0.6835 -0.2774 -0.0157
    1SOL    HW2 6510   3.244   1.968   2.646 -1.4684  0.3833  1.1986
    1SOL    HW3 6511   3.161   1.841   2.651 -0.1870 -0.5514 -0.6264
    1SOL    MW4 6512   3.173   1.923   2.623 -0.7215 -0.2265  0.0639
    1SOL     OW 6513   3.380   2.062   2.734 -0.6638  0.0317 -0.0495
    1SOL    HW2 6514   3.387   2.072   2.828 -1.4329 -1.2500  0.1566
    1SOL    HW3 6515   3.384   2.151   2.699  0.2430  0.4673  1.1397
    1SOL    MW4 6516   3.382   2.075   2.742 -0.6456 -0.0796  0.1347
    1SOL     OW 6517   3.375   2.318   2.626  0.1079  0.0027 -0.2088
    1SOL    HW2 6518   3.432   2.393   2.639 -0.5343  0.4702 -0.0847
    1SOL    HW3 6519   3.348   2.323   2.535 -0.1367  0.0649 -0.1341
    1SOL    MW4 6520   3.379   2.328   2.616 -0.0093  0.0725 -0.1826
    1SOL     OW 6521   3.140   2.424   2.719 -0.3168 -0.2950  0.0287
    1SOL    HW2 6522   3.228   2.395   2.695 -0.0286 -1.0317  1.9413
    1SOL    HW3 6523   3.144   2.439   2.813 -2.4183 -0.9976  0.2539
    1SOL    MW4 6524   3.152   2.422   2.728 -0.5565 -0.4847  0.3107
    1SOL     OW 6525   3.118   2.679   2.633  0.5645 -0.2262  0.0253
    1SOL    HW2 6526   3.194   2.736   2.646  0.8442 -0.7052  0.4787
    1SOL    HW3 6527   3.144   2.595   2.668 -1.1970  0.3470  2.8349
    1SOL    MW4 6528   3.131   2.676   2.639  0.3691 -0.2139  0.4556
    1SOL     OW 6529   3.336   2.829   2.725  0.6194 -0.2683 -0.2069
    1SOL    HW2 6530   3.350   2.816   2.819  0.7296  1.9086  0.0997
    1SOL    HW3 6531   3.417   2.799   2.685  0.4399 -1.5441  0.3541
    1SOL    MW4 6532   3.348   2.823   2.732  0.6104 -0.1497 -0.0925
    1SOL     OW 6533   3.371   3.094   2.612  0.4683  0.1296  0.2909
    1SOL    HW2 6534   3.356   3.008   2.652 -1.8764  1.1118  1.6550
    1SOL    HW3 6535   3.374   3.077   2.518 -2.4212 -1.1864  0.3823
    1SOL    MW4 6536   3.369   3.080   2.605 -0.2222  0.0854  0.4830
    1SOL     OW 6537   3.139   3.204   2.701  0.0673  0.5305 -0.3897
    1SOL    HW2 6538   3.217   3.164   2.662  0.2768  0.7774 -0.2307
    1SOL    HW3 6539   3.065   3.160   2.660  0.2916 -0.8960  0.6827
    1SOL    MW4 6540   3.140   3.193   2.691  0.1245  0.3748 -0.2275
    1SOL     OW 6541   3.181   3.492   2.661  0.4520  0.4098  0.1712
    1SOL    HW2 6542   3.176   3.399   2.683  1.3934  0.3851  0.2987
    1SOL    HW3 6543   3.091   3.523   2.669 -0.2988 -1.0109 -2.1973
    1SOL    MW4 6544   3.169   3.484   2.665  0.4773  0.2189 -0.1247
    1SOL     OW 6545   3.400   3.623   2.748 -0.1055 -0.9203 -0.3643
    1SOL    HW2 6546   3.402   3.612   2.843 -0.2665 -1.3466 -0.4078
    1SOL    HW3 6547   3.317   3.583   2.721 -0.4962  0.0176 -0.5829
    1SOL    MW4 6548   3.389   3.616   2.757 -0.1783 -0.8528 -0.3989
    1SOL     OW 6549   3.369   3.887   2.636 -0.0119  0.0458 -0.5754
    1SOL    HW2 6550   3.362   3.803   2.682 -0.0791  0.0115 -0.6472
    1SOL    HW3 6551   3.373   3.864   2.543  1.3764  0.0590 -0.5230
    1SOL    MW4 6552   3.368   3.873   2.630  0.1626  0.0429 -0.5782
    1SOL     OW 6553   3.151   4.024   2.761 -0.0088  0.4260 -0.2863
    1SOL    HW2 6554   3.172   4.112   2.728 -0.2025  0.3122 -0.7086
    1SOL    HW3 6555   3.203   3.965   2.706  0.3858  0.2926  0.2174
    1SOL    MW4 6556   3.161   4.028   2.749  0.0176  0.3939 -0.2756
    1SOL     OW 6557   3.194   4.278   2.643  0.1487  0.2128 -0.2149
    1SOL    HW2 6558   3.113   4.323   2.665  0.1537  0.1488 -0.0674
    1SOL    HW3 6559   3.180   4.245   2.554  0.9503  2.3621 -1.1889
    1SOL    MW4 6560   3.182   4.279   2.634  0.2551  0.4873 -0.3240
    1SOL     OW 6561   3.405   4.424   2.736 -0.1181 -0.7097 -0.4293
    1SOL    HW2 6562   3.392   4.410   2.830 -1.2475 -1.2796 -0.6735
    1SOL    HW3 6563   3.339   4.370   2.694 -1.2051  1.3826 -1.5073
    1SOL    MW4 6564   3.395   4.415   2.743 -0.4106 -0.5093 -0.6037
    1SOL     OW 6565   3.778   4.664   2.622  0.1797 -0.2336 -0.1754
    1SOL    HW2 6566   3.798   4.587   2.675  0.2008 -0.3491 -0.3478
    1SOL    HW3 6567   3.699   4.700   2.661  0.3931 -0.1163  0.1484
    1SOL    MW4 6568   3.770   4.658   2.634  0.2108 -0.2332 -0.1552
    1SOL     OW 6569   3.535   0.163   2.731 -0.4729  0.3074 -0.3092
    1SOL    HW2 6570   3.555   0.242   2.680 -3.8532  2.0621  0.8914
    1SOL    HW3 6571   3.460   0.124   2.687 -1.0283 -0.2641  1.1062
    1SOL    MW4 6572   3.528   0.169   2.719 -0.9921  0.4635  0.0360
    1SOL     OW 6573   3.596   0.423   2.628 -0.5408 -0.6278  0.1308
    1SOL    HW2 6574   3.669   0.463   2.676 -0.9764 -0.9407  1.0853
    1SOL    HW3 6575   3.518   0.467   2.661 -0.9799 -1.8733  0.8163
    1SOL    MW4 6576   3.596   0.434   2.639 -0.6561 -0.8334  0.3469
    1SOL     OW 6577   3.846   0.521   2.729 -0.4493  0.5370 -0.6472
    1SOL    HW2 6578   3.856   0.506   2.823 -0.0796  3.7002 -0.1007
    1SOL    HW3 6579   3.921   0.476   2.689 -0.2776 -0.3358  0.6426
    1SOL    MW4 6580   3.858   0.513   2.736 -0.3779  0.8392 -0.4051
    1SOL     OW 6581   3.838   0.770   2.593  0.4363  0.0293  0.4687
    1SOL    HW2 6582   3.771   0.816   2.642  0.4056  1.1379 -0.5943
    1SOL    HW3 6583   3.834   0.680   2.625 -2.3201 -0.1993 -0.3760
    1SOL    MW4 6584   3.829   0.764   2.603  0.0684  0.1454  0.2172
    1SOL     OW 6585   3.593   0.876   2.706  0.1461 -0.4916 -0.3888
    1SOL    HW2 6586   3.600   0.858   2.800 -1.0769  0.6614 -0.0663
    1SOL    HW3 6587   3.575   0.970   2.700 -3.4227 -1.1393 -1.5683
    1SOL    MW4 6588   3.591   0.886   2.718 -0.4861 -0.4249 -0.5019
    1SOL     OW 6589   3.550   1.147   2.606  0.1754 -0.5621 -0.4518
    1SOL    HW2 6590   3.628   1.195   2.632  0.2126 -0.4914 -0.6881
    1SOL    HW3 6591   3.477   1.199   2.638  0.2236 -0.5498 -0.3624
    1SOL    MW4 6592   3.551   1.160   2.613  0.1864 -0.5511 -0.4714
    1SOL     OW 6593   3.770   1.284   2.689  0.1064 -0.1252  0.1796
    1SOL    HW2 6594   3.848   1.233   2.668 -0.3537 -0.4292 -0.8232
    1SOL    HW3 6595   3.793   1.374   2.667 -0.2198 -0.3781 -1.2618
    1SOL    MW4 6596   3.784   1.289   2.683  0.0029 -0.1987 -0.1431
    1SOL     OW 6597   3.812   1.581   2.621  0.0751  0.0416  0.5882
    1SOL    HW2 6598   3.884   1.626   2.664 -0.1804  0.1959  0.8542
    1SOL    HW3 6599   3.733   1.624   2.654 -0.0855  0.9587 -0.9420
    1SOL    MW4 6600   3.811   1.592   2.631  0.0203  0.1829  0.4213
    1SOL     OW 6601   3.586   1.695   2.717 -0.3211 -0.1411 -0.1757
    1SOL    HW2 6602   3.583   1.780   2.673 -0.3630  1.1526  2.1953
    1SOL    HW3 6603   3.530   1.638   2.664 -1.8764  1.8465 -0.7536
    1SOL    MW4 6604   3.578   1.699   2.704 -0.5317  0.2919  0.0610
    1SOL     OW 6605   3.610   1.961   2.611  0.5409  0.1778 -0.1308
    1SOL    HW2 6606   3.527   1.996   2.641 -0.7455 -2.8335  0.0096
    1SOL    HW3 6607   3.599   1.950   2.516  0.0866 -1.8880  0.1360
    1SOL    MW4 6608   3.598   1.964   2.602  0.3111 -0.4921 -0.0772
    1SOL     OW 6609   3.836   2.083   2.712  0.3367 -0.0944  0.4572
    1SOL    HW2 6610   3.906   2.053   2.653  0.4559  0.1361  0.4799
    1SOL    HW3 6611   3.757   2.043   2.677  0.3085  0.5958 -0.2680
    1SOL    MW4 6612   3.835   2.074   2.699  0.3486  0.0272  0.3648
    1SOL     OW 6613   3.783   2.334   2.633 -0.2678 -0.0892 -0.0298
    1SOL    HW2 6614   3.802   2.251   2.677  1.6769 -0.4023 -1.3987
    1SOL    HW3 6615   3.788   2.313   2.540  0.2666  1.5748 -0.3828
    1SOL    MW4 6616   3.786   2.320   2.627  0.0594  0.0892 -0.2573
    1SOL     OW 6617   3.576   2.491   2.705  0.1125 -0.3703  0.0061
    1SOL    HW2 6618   3.586   2.492   2.800  0.7954 -0.5454 -0.0630
    1SOL    HW3 6619   3.640   2.428   2.674 -1.0730 -1.3680 -0.4731
    1SOL    MW4 6620   3.586   2.483   2.714  0.0463 -0.5252 -0.0663
    1SOL     OW 6621   3.570   2.746   2.610 -0.3490  0.1056  0.2443
    1SOL    HW2 6622   3.579   2.660   2.651 -1.5612 -0.2196 -0.1396
    1SOL    HW3 6623   3.597   2.732   2.519 -0.2620  0.1915  0.2574
    1SOL    MW4 6624   3.574   2.733   2.603 -0.4976  0.0739  0.1955
    1SOL     OW 6625   3.806   2.825   2.731 -0.4898 -0.2651 -0.2040
    1SOL    HW2 6626   3.872   2.790   2.671 -0.7976  0.2457 -0.8373
    1SOL    HW3 6627   3.722   2.796   2.694 -0.7728  1.3813 -0.9095
    1SOL    MW4 6628   3.803   2.816   2.718 -0.5674  0.0191 -0.3808
    1SOL     OW 6629   3.832   3.110   2.657 -0.2896 -0.0343  0.1329
    1SOL    HW2 6630   3.749   3.151   2.680 -0.6804  0.3596 -1.8914
    1SOL    HW3 6631   3.815   3.016   2.665 -0.9594  0.0419 -0.3233
    1SOL    MW4 6632   3.819   3.103   2.661 -0.4296  0.0279 -0.1945
    1SOL     OW 6633   3.591   3.235   2.712  0.0490 -0.1107 -0.6386
    1SOL    HW2 6634   3.586   3.320   2.668 -0.4131  0.2943  0.1829
    1SOL    HW3 6635   3.512   3.189   2.685 -1.0555  0.7608  1.0162
    1SOL    MW4 6636   3.580   3.240   2.703 -0.1574  0.0577 -0.3116
    1SOL     OW 6637   3.594   3.487   2.591 -0.2088  0.3649  0.3621
    1SOL    HW2 6638   3.679   3.511   2.629 -0.4223  0.3666  0.8391
    1SOL    HW3 6639   3.530   3.540   2.639 -0.3301  1.7135 -1.2035
    1SOL    MW4 6640   3.597   3.498   2.602 -0.2530  0.5431  0.2186
    1SOL     OW 6641   3.817   3.595   2.727 -0.6471 -0.0225 -0.5404
    1SOL    HW2 6642   3.905   3.559   2.719 -0.7246 -0.1412 -0.8526
    1SOL    HW3 6643   3.821   3.677   2.678 -0.1022  1.0528  1.2629
    1SOL    MW4 6644   3.829   3.601   2.719 -0.5851  0.1037 -0.3436
    1SOL     OW 6645   3.824   3.835   2.605 -0.2207 -0.7092 -0.0629
    1SOL    HW2 6646   3.893   3.894   2.636 -0.3227 -1.3614  1.4391
    1SOL    HW3 6647   3.742   3.879   2.629 -0.3089 -0.9257  0.0328
    1SOL    MW4 6648   3.822   3.849   2.612 -0.2460 -0.8237  0.1481
    1SOL     OW 6649   3.619   3.985   2.728 -0.2032  0.1032  0.3289
    1SOL    HW2 6650   3.630   4.070   2.684 -1.1762  0.2488  0.3538
    1SOL    HW3 6651   3.530   3.958   2.705  0.0644 -0.8580  0.4174
    1SOL    MW4 6652   3.609   3.993   2.719 -0.2961 -0.0045  0.3438
    1SOL     OW 6653   3.624   4.247   2.624 -0.0014  0.1744 -0.2070
    1SOL    HW2 6654   3.560   4.306   2.664  0.7372  1.4934 -0.9599
    1SOL    HW3 6655   3.597   4.239   2.533 -0.6116 -1.3768  0.0852
    1SOL    MW4 6656   3.612   4.253   2.617  0.0155  0.1435 -0.2677
    1SOL     OW 6657   3.843   4.415   2.710 -0.1269  0.2819 -0.0074
    1SOL    HW2 6658   3.928   4.376   2.687 -0.3677 -0.3618  0.1720
    1SOL    HW3 6659   3.778   4.352   2.678 -0.5601  1.0582 -0.6774
    1SOL    MW4 6660   3.846   4.401   2.703 -0.2158  0.2995 -0.0720
    1SOL     OW 6661   4.256   4.662   2.615  0.3404  0.3573  0.2485
    1SOL    HW2 6662   4.177   4.704   2.650 -0.7539  0.4879 -2.2715
    1SOL    HW3 6663   4.329   4.714   2.650 -0.7711  1.4651  0.9616
    1SOL    MW4 6664   4.255   4.674   2.624  0.0491  0.5202  0.0100
    1SOL     OW 6665   4.030   0.092   2.708 -0.6637  0.3429  0.5255
    1SOL    HW2 6666   4.030   0.098   2.804  0.6249  1.1893  0.4753
    1SOL    HW3 6667   3.944   0.055   2.687 -1.1573  0.6270  1.9802
    1SOL    MW4 6668   4.018   0.088   2.718 -0.5593  0.4920  0.7110
    1SOL     OW 6669   4.059   0.377   2.617 -0.0294 -0.5616 -0.1355
    1SOL    HW2 6670   4.065   0.285   2.642  2.0998 -0.6916 -0.9389
    1SOL    HW3 6671   4.052   0.375   2.521 -3.1666  0.0452  0.0563
    1SOL    MW4 6672   4.059   0.364   2.607 -0.1626 -0.4987 -0.2162
    1SOL     OW 6673   4.270   0.487   2.749 -0.1488 -0.3628 -0.1925
    1SOL    HW2 6674   4.188   0.462   2.706 -0.0384  0.4028 -0.8624
    1SOL    HW3 6675   4.338   0.455   2.690  0.0143  0.0007 -0.1997
    1SOL    MW4 6676   4.268   0.480   2.735 -0.1125 -0.2139 -0.2818
    1SOL     OW 6677   4.305   0.759   2.648  0.5337 -0.3045  0.1354
    1SOL    HW2 6678   4.295   0.667   2.673  1.9395 -0.9276 -1.5737
    1SOL    HW3 6679   4.296   0.760   2.553 -0.8429  1.5279  0.2517
    1SOL    MW4 6680   4.302   0.747   2.639  0.5379 -0.1449 -0.0749
    1SOL     OW 6681   4.047   0.853   2.744 -0.1803 -0.6577 -0.2771
    1SOL    HW2 6682   4.120   0.824   2.689  0.6989  1.1595 -0.1337
    1SOL    HW3 6683   3.969   0.817   2.702  0.6380 -0.9816 -1.5642
    1SOL    MW4 6684   4.047   0.845   2.731  0.0439 -0.4607 -0.4282
    1SOL     OW 6685   3.984   1.119   2.653 -0.1410  0.2589  0.3938
    1SOL    HW2 6686   4.065   1.165   2.673  1.7175 -1.8625 -1.8689
    1SOL    HW3 6687   3.999   1.029   2.684 -1.5906 -0.1636 -0.0811
    1SOL    MW4 6688   3.997   1.113   2.660 -0.0870 -0.0768  0.0324
    1SOL     OW 6689   4.202   1.297   2.685  0.1320 -0.1992  0.1486
    1SOL    HW2 6690   4.215   1.389   2.662 -0.9197 -0.2455 -0.6358
    1SOL    HW3 6691   4.283   1.254   2.656  0.2161  0.3147 -0.3922
    1SOL    MW4 6692   4.215   1.303   2.678  0.0043 -0.1376 -0.0262
    1SOL     OW 6693   4.255   1.572   2.666 -0.0458  0.0503 -0.5626
    1SOL    HW2 6694   4.336   1.610   2.700 -0.9628  0.9019  0.7487
    1SOL    HW3 6695   4.256   1.592   2.573  0.8329  0.8486 -0.3887
    1SOL    MW4 6696   4.266   1.579   2.658 -0.0505  0.2681 -0.3664
    1SOL     OW 6697   4.027   1.714   2.742  0.5286  0.1320  0.2440
    1SOL    HW2 6698   4.036   1.708   2.837 -1.9796 -0.0612  0.5147
    1SOL    HW3 6699   4.100   1.663   2.708  2.2182  1.2768  2.0297
    1SOL    MW4 6700   4.038   1.707   2.750  0.4206  0.2576  0.5152
    1SOL     OW 6701   4.048   1.942   2.605 -0.5643 -0.5225 -0.5794
    1SOL    HW2 6702   4.115   2.002   2.640 -0.0755 -0.1835 -2.0781
    1SOL    HW3 6703   4.062   1.861   2.654 -0.7479  0.3433  0.9525
    1SOL    MW4 6704   4.059   1.940   2.616 -0.5240 -0.3636 -0.5751
    1SOL     OW 6705   4.234   2.094   2.698  0.0112 -0.1805 -0.0796
    1SOL    HW2 6706   4.247   2.181   2.660  0.1169 -0.3725 -0.4839
    1SOL    HW3 6707   4.321   2.054   2.696 -0.2974 -0.8184 -1.1827
    1SOL    MW4 6708   4.248   2.101   2.693 -0.0157 -0.2899 -0.2782
    1SOL     OW 6709   4.254   2.344   2.600 -0.2119 -0.2004 -0.3574
    1SOL    HW2 6710   4.174   2.394   2.617  0.6614  0.8324  0.8547
    1SOL    HW3 6711   4.257   2.334   2.505 -0.6688  1.6224 -0.5831
    1SOL    MW4 6712   4.244   2.349   2.590 -0.1569  0.1762 -0.2272
    1SOL     OW 6713   4.021   2.465   2.677  0.6471  0.3471 -0.0874
    1SOL    HW2 6714   4.033   2.467   2.772  0.9221 -1.7222 -0.0627
    1SOL    HW3 6715   3.936   2.423   2.664  0.6851  0.4691 -0.7563
    1SOL    MW4 6716   4.011   2.460   2.688  0.6890  0.0904 -0.1721
    1SOL     OW 6717   4.026   2.720   2.571  0.5042  0.2948  0.0548
    1SOL    HW2 6718   4.094   2.778   2.605  0.2376  1.4747 -1.3787
    1SOL    HW3 6719   4.035   2.640   2.623  1.8737  1.0513  1.0246
    1SOL    MW4 6720   4.037   2.717   2.582  0.6499  0.5503 -0.0067
    1SOL     OW 6721   4.210   2.855   2.732  0.1637  0.3116  0.6277
    1SOL    HW2 6722   4.235   2.834   2.823 -0.6280  0.4882  0.8835
    1SOL    HW3 6723   4.246   2.942   2.717  0.3784  0.2438  0.7425
    1SOL    MW4 6724   4.218   2.863   2.742  0.0877  0.3262  0.6764
    1SOL     OW 6725   4.291   3.115   2.670  0.4118 -0.0729  0.2954
    1SOL    HW2 6726   4.210   3.150   2.708  0.5914 -0.3672  0.9540
    1SOL    HW3 6727   4.274   3.114   2.575 -0.3585 -0.1426  0.4283
    1SOL    MW4 6728   4.278   3.119   2.662  0.3338 -0.1209  0.3998
    1SOL     OW 6729   4.076   3.229   2.774  0.0115 -0.5843  0.3400
    1SOL    HW2 6730   4.071   3.303   2.713  0.3548 -1.2014 -0.4307
    1SOL    HW3 6731   4.001   3.174   2.751  0.4524 -1.0952  0.1033
    1SOL    MW4 6732   4.065   3.232   2.763  0.1149 -0.7331  0.2069
    1SOL     OW 6733   4.037   3.463   2.639 -0.4379  0.0783  0.3525
    1SOL    HW2 6734   4.115   3.511   2.663  0.1436 -0.5495 -0.2591
    1SOL    HW3 6735   4.035   3.466   2.543 -1.1526  0.0873  0.3621
    1SOL    MW4 6736   4.047   3.470   2.629 -0.4559 -0.0033  0.2730
    1SOL     OW 6737   4.248   3.623   2.714  0.6043 -0.6333  0.1669
    1SOL    HW2 6738   4.257   3.632   2.809  0.3196 -0.4196  0.1754
    1SOL    HW3 6739   4.326   3.576   2.686  0.7070 -0.6599  0.5030
    1SOL    MW4 6740   4.259   3.618   2.723  0.5808 -0.6087  0.2122
    1SOL     OW 6741   4.260   3.869   2.592 -0.3398  0.3275 -0.5197
    1SOL    HW2 6742   4.254   3.781   2.629 -0.7126 -1.2615 -4.0840
    1SOL    HW3 6743   4.332   3.911   2.640  1.0091 -2.5314  0.0756
    1SOL    MW4 6744   4.269   3.863   2.603 -0.2108 -0.2592 -0.9115
    1SOL     OW 6745   4.021   4.012   2.651  0.4760 -0.1334 -0.1360
    1SOL    HW2 6746   4.011   4.027   2.745 -1.3773  0.0195 -0.3218
    1SOL    HW3 6747   4.100   3.959   2.643  0.0110 -1.1434  1.6081
    1SOL    MW4 6748   4.030   4.007   2.662  0.1702 -0.2460  0.0696
    1SOL     OW 6749   4.067   4.273   2.613 -0.1623  0.0641 -0.0817
    1SOL    HW2 6750   4.066   4.179   2.632 -1.1517  0.2464  0.7656
    1SOL    HW3 6751   4.043   4.279   2.521  2.6451 -0.6830 -0.9321
    1SOL    MW4 6752   4.064   4.261   2.603  0.0782 -0.0110 -0.0823
    1SOL     OW 6753   4.277   4.409   2.738  0.2469  0.6017  0.1892
    1SOL    HW2 6754   4.203   4.364   2.698  0.7004  0.1154 -0.1029
    1SOL    HW3 6755   4.274   4.497   2.700 -0.7686  0.9051  0.9318
    1SOL    MW4 6756   4.267   4.415   2.728  0.1726  0.5779  0.2491
    1SOL     OW 6757   0.224   4.655   3.148  0.1796 -0.1446 -0.0830
    1SOL    HW2 6758   0.216   4.659   3.243 -0.6010 -2.0501 -0.0453
    1SOL    HW3 6759   0.141   4.690   3.115 -0.4304 -1.5239 -0.0217
    1SOL    MW4 6760   0.212   4.660   3.156 -0.0039 -0.5780 -0.0699
    1SOL     OW 6761   0.015   0.098   3.019  0.3326 -0.1531 -0.0075
    1SOL    HW2 6762  -0.065   0.046   3.031  0.3892  0.0296  1.2471
    1SOL    HW3 6763  -0.003   0.181   3.063  0.9486  0.1654 -0.3430
    1SOL    MW4 6764   0.002   0.102   3.026  0.4215 -0.0870  0.1137
    1SOL     OW 6765   0.015   0.353   3.135 -0.5440  0.0476 -0.1608
    1SOL    HW2 6766  -0.010   0.357   3.227  0.0803  0.3135 -0.0061
    1SOL    HW3 6767  -0.061   0.389   3.089  0.0476  2.0733  0.4003
    1SOL    MW4 6768   0.001   0.358   3.141 -0.3834  0.3499 -0.0665
    1SOL     OW 6769   0.235   0.483   3.025  0.1780 -0.0789 -0.2324
    1SOL    HW2 6770   0.311   0.452   3.074  0.3123  1.3456  0.4957
    1SOL    HW3 6771   0.160   0.453   3.075  0.3096  0.9646  0.6168
    1SOL    MW4 6772   0.235   0.475   3.038  0.2131  0.2468 -0.0241
    1SOL     OW 6773   0.235   0.745   3.096 -0.0103 -0.0952  0.4381
    1SOL    HW2 6774   0.232   0.747   3.192 -0.0550  1.1065  0.4153
    1SOL    HW3 6775   0.215   0.654   3.074  1.7058 -0.7915  1.6189
    1SOL    MW4 6776   0.232   0.733   3.106  0.2102 -0.0286  0.5908
    1SOL     OW 6777   4.479   0.866   3.039 -0.1175 -0.7029 -0.2871
    1SOL    HW2 6778   4.563   0.823   3.051  0.5441  0.8094  0.7132
    1SOL    HW3 6779   4.475   0.886   2.946  2.0399  1.9527  0.1233
    1SOL    MW4 6780   4.489   0.863   3.028  0.2542 -0.1530 -0.1009
    1SOL     OW 6781   4.477   1.157   3.111 -0.3662  0.0396  0.3751
    1SOL    HW2 6782   4.412   1.200   3.055  1.4191  0.6056 -1.3100
    1SOL    HW3 6783   4.475   1.066   3.084  1.5799  0.5865 -1.7485
    1SOL    MW4 6784   4.468   1.151   3.100  0.1264  0.1863 -0.1276
    1SOL     OW 6785   0.216   1.286   3.005 -0.2788 -0.1827  0.0598
    1SOL    HW2 6786   0.140   1.234   3.029 -1.0084  0.0953 -1.5607
    1SOL    HW3 6787   0.200   1.312   2.914  1.0431  1.1271  0.1698
    1SOL    MW4 6788   0.204   1.283   2.996 -0.2007  0.0268 -0.1397
    1SOL     OW 6789   0.211   1.539   3.130  0.1109  0.0062 -0.0095
    1SOL    HW2 6790   0.121   1.563   3.109  0.4069  0.7748 -0.4168
    1SOL    HW3 6791   0.223   1.454   3.087 -0.5533 -0.2963  0.4003
    1SOL    MW4 6792   0.201   1.531   3.121  0.0623  0.0676 -0.0091
    1SOL     OW 6793   4.460   1.647   3.032  0.0444  0.1780  0.0698
    1SOL    HW2 6794   4.382   1.598   3.060  0.1835 -0.2247 -0.2466
    1SOL    HW3 6795   4.448   1.734   3.070  0.1562 -0.3160  1.2944
    1SOL    MW4 6796   4.448   1.652   3.041  0.0777  0.0596  0.1895
    1SOL     OW 6797   4.464   1.933   3.129 -0.1232  0.7039  0.1800
    1SOL    HW2 6798   4.392   1.983   3.091 -0.4269  0.5206  0.5142
    1SOL    HW3 6799   4.543   1.970   3.089 -0.3852  1.0770  0.0107
    1SOL    MW4 6800   4.465   1.945   3.119 -0.1979  0.7288  0.2019
    1SOL     OW 6801   0.199   2.056   3.018  0.8228 -0.2577  0.0784
    1SOL    HW2 6802   0.187   2.143   3.057 -3.1686 -0.8507  0.3495
    1SOL    HW3 6803   0.215   2.073   2.925 -1.5305  0.7628 -0.1694
    1SOL    MW4 6804   0.200   2.070   3.011 -0.0143 -0.2012  0.0813
    1SOL     OW 6805   0.203   2.312   3.117 -0.2073  0.1115  0.0116
    1SOL    HW2 6806   0.197   2.330   3.210  0.4546  1.1590 -0.1285
    1SOL    HW3 6807   0.286   2.353   3.090  0.3778 -1.5101 -0.7347
    1SOL    MW4 6808   0.213   2.320   3.125 -0.0428  0.0355 -0.1051
    1SOL     OW 6809   4.478   2.454   3.019 -0.0237  0.0512 -0.1278
    1SOL    HW2 6810   4.482   2.539   3.062  0.0965 -0.2557  0.4751
    1SOL    HW3 6811   4.553   2.406   3.055 -0.5061 -0.5579  0.0658
    1SOL    MW4 6812   4.489   2.459   3.030 -0.0715 -0.0696 -0.0226
    1SOL     OW 6813   0.017   2.700   3.154 -0.2491 -0.0794  0.0361
    1SOL    HW2 6814   0.013   2.703   3.250 -0.1107 -1.5984  0.1083
    1SOL    HW3 6815   0.086   2.762   3.131  1.3012 -1.3612  1.0771
    1SOL    MW4 6816   0.026   2.709   3.164 -0.0262 -0.4489  0.1831
    1SOL     OW 6817   0.209   2.860   3.018  0.1672 -0.4034 -0.0398
    1SOL    HW2 6818   0.287   2.818   3.055  0.8961  0.6228 -0.3862
    1SOL    HW3 6819   0.214   2.841   2.925  0.3673  0.2349 -0.1613
    1SOL    MW4 6820   0.220   2.852   3.011  0.2898 -0.1838 -0.1018
    1SOL     OW 6821   0.218   3.126   3.138  0.2486  0.1602 -0.3007
    1SOL    HW2 6822   0.151   3.184   3.103 -0.6247  0.1720  1.2981
    1SOL    HW3 6823   0.210   3.046   3.086  0.9398  1.1681 -1.9948
    1SOL    MW4 6824   0.208   3.123   3.127  0.2246  0.2947 -0.3133
    1SOL     OW 6825   4.480   3.260   3.027  0.3399  0.0760 -0.3019
    1SOL    HW2 6826   4.414   3.197   3.055  0.0079  0.5282 -0.0414
    1SOL    HW3 6827   4.483   3.252   2.932  1.6640 -1.6598 -0.1202
    1SOL    MW4 6828   4.471   3.251   3.018  0.4706 -0.0932 -0.2437
    1SOL     OW 6829   4.447   3.509   3.100  0.1503  0.1914  0.1691
    1SOL    HW2 6830   4.391   3.573   3.056  0.0967  0.1814  0.2224
    1SOL    HW3 6831   4.447   3.433   3.042 -0.2314  0.0350  0.3745
    1SOL    MW4 6832   4.440   3.508   3.086  0.0930  0.1698  0.2034
    1SOL     OW 6833   0.192   3.656   3.040  0.5204 -0.2473  0.0712
    1SOL    HW2 6834   0.151   3.740   3.060 -0.1876 -0.7050  0.5521
    1SOL    HW3 6835   0.130   3.590   3.072  1.3558 -0.9487  0.2724
    1SOL    MW4 6836   0.179   3.658   3.047  0.5372 -0.4005  0.1609
    1SOL     OW 6837   0.138   3.909   3.116  0.2912  0.1514  0.1409
    1SOL    HW2 6838   0.167   3.907   3.207 -0.9130 -0.0854  0.5304
    1SOL    HW3 6839   0.214   3.940   3.067  0.3032  2.3584  1.4821
    1SOL    MW4 6840   0.152   3.913   3.122  0.1339  0.4113  0.3691
    1SOL     OW 6841   4.415   4.052   2.959 -0.3767  0.0197  0.0747
    1SOL    HW2 6842   4.487   3.995   2.987  0.6331  1.6743  0.9100
    1SOL    HW3 6843   4.410   4.040   2.864  1.0934  0.0028 -0.0098
    1SOL    MW4 6844   4.424   4.043   2.950 -0.0496  0.2356  0.1736
    1SOL     OW 6845   0.006   4.276   3.066 -0.1644  0.5062  0.7017
    1SOL    HW2 6846   0.004   4.268   3.161 -0.6241  1.4897  0.7861
    1SOL    HW3 6847  -0.003   4.187   3.033 -0.8620  0.2605  1.5720
    1SOL    MW4 6848   0.005   4.263   3.074 -0.3171  0.6042  0.8280
    1SOL     OW 6849   0.265   4.405   2.991  0.3999 -0.7691 -0.0816
    1SOL    HW2 6850   0.184   4.359   3.014 -0.8783  0.0351 -2.8490
    1SOL    HW3 6851   0.268   4.479   3.052 -1.3996 -0.3138 -0.5215
    1SOL    MW4 6852   0.255   4.408   3.002 -0.0062 -0.6032 -0.5050
    1SOL     OW 6853   0.664   0.034   3.102  0.2569  0.5592  0.0459
    1SOL    HW2 6854   0.680  -0.055   3.069 -0.6893  0.8716 -1.2650
    1SOL    HW3 6855   0.592   0.067   3.049 -0.3790  1.5744  1.5237
    1SOL    MW4 6856   0.657   0.026   3.091  0.0481  0.7343  0.0679
    1SOL     OW 6857   0.432   0.129   2.985  0.1139 -0.0424 -0.2726
    1SOL    HW2 6858   0.434   0.214   3.028  0.0968 -0.3558  0.3536
    1SOL    HW3 6859   0.368   0.079   3.034  0.7146 -0.6814 -0.1305
    1SOL    MW4 6860   0.424   0.134   2.997  0.1909 -0.1681 -0.1714
    1SOL     OW 6861   0.461   0.374   3.141 -0.0722 -0.3603  0.4749
    1SOL    HW2 6862   0.453   0.389   3.235 -0.4072 -0.5155  0.4709
    1SOL    HW3 6863   0.525   0.439   3.111 -0.4469  0.1066  0.6989
    1SOL    MW4 6864   0.468   0.385   3.149 -0.1659 -0.3192  0.5038
    1SOL     OW 6865   0.652   0.540   3.037 -0.1269 -0.1534 -0.1802
    1SOL    HW2 6866   0.731   0.489   3.050 -0.6127 -1.0439 -0.6932
    1SOL    HW3 6867   0.669   0.622   3.082  1.2672 -0.1518 -0.6932
    1SOL    MW4 6868   0.664   0.544   3.045 -0.0071 -0.2707 -0.3154
    1SOL     OW 6869   0.693   0.794   3.138 -0.0786 -0.2048 -0.1342
    1SOL    HW2 6870   0.710   0.807   3.232 -0.4524 -1.7244  0.1656
    1SOL    HW3 6871   0.766   0.838   3.094  0.9764 -0.8565  0.9225
    1SOL    MW4 6872   0.705   0.801   3.145  0.0113 -0.4913  0.0448
    1SOL     OW 6873   0.458   0.893   3.015  0.0493 -0.1633  0.2221
    1SOL    HW2 6874   0.387   0.837   3.046  0.6807 -0.9893  0.1915
    1SOL    HW3 6875   0.536   0.859   3.058  0.3449  1.0945  0.6931
    1SOL    MW4 6876   0.459   0.881   3.025  0.1716 -0.1063  0.2801
    1SOL     OW 6877   0.432   1.156   3.123 -0.1194 -0.1340 -0.2490
    1SOL    HW2 6878   0.433   1.070   3.081  1.6173  0.6250 -1.8746
    1SOL    HW3 6879   0.353   1.198   3.088 -0.0057 -0.4214 -0.8668
    1SOL    MW4 6880   0.422   1.151   3.113  0.1247 -0.0718 -0.5450
    1SOL     OW 6881   0.625   1.300   3.009  0.4629 -0.1781 -0.1641
    1SOL    HW2 6882   0.705   1.253   3.035 -0.4393  0.0670  3.2218
    1SOL    HW3 6883   0.554   1.249   3.047 -0.7447  1.8645  0.3584
    1SOL    MW4 6884   0.626   1.287   3.017  0.1846  0.1236  0.3517
    1SOL     OW 6885   0.662   1.572   3.093  0.0487 -0.0979 -0.5293
    1SOL    HW2 6886   0.675   1.558   3.187  1.0640  1.6244 -0.4086
    1SOL    HW3 6887   0.647   1.484   3.058  0.2658 -0.8164  1.1499
    1SOL    MW4 6888   0.662   1.558   3.101  0.2114  0.0345 -0.2918
    1SOL     OW 6889   0.414   1.665   3.013 -0.2457 -0.1435  0.1036
    1SOL    HW2 6890   0.495   1.640   3.057 -0.1600 -0.9683 -0.5132
    1SOL    HW3 6891   0.348   1.604   3.046 -0.3214 -0.3425 -0.4044
    1SOL    MW4 6892   0.416   1.654   3.023 -0.2444 -0.2786 -0.0451
    1SOL     OW 6893   0.423   1.926   3.121  0.2064 -0.1771 -0.1497
    1SOL    HW2 6894   0.416   1.836   3.089  0.7630 -0.0515 -0.6200
    1SOL    HW3 6895   0.342   1.968   3.092  0.5394 -0.1633 -1.0785
    1SOL    MW4 6896   0.411   1.920   3.113  0.3238 -0.1585 -0.3343
    1SOL     OW 6897   0.652   2.046   3.016 -0.2378  0.1396 -0.3697
    1SOL    HW2 6898   0.729   2.011   3.060 -0.6336 -1.5802 -0.9852
    1SOL    HW3 6899   0.579   1.995   3.051 -0.8800  0.5286 -1.1023
    1SOL    MW4 6900   0.652   2.035   3.026 -0.3747 -0.0362 -0.5472
    1SOL     OW 6901   0.690   2.323   3.121  0.7061  0.0057 -0.2074
    1SOL    HW2 6902   0.666   2.307   3.212 -4.1790  0.1334 -1.2976
    1SOL    HW3 6903   0.695   2.236   3.081  0.5699  0.0430 -0.3069
    1SOL    MW4 6904   0.687   2.310   3.127  0.0436  0.0274 -0.3643
    1SOL     OW 6905   0.430   2.467   3.062 -0.4626 -0.3150 -0.1463
    1SOL    HW2 6906   0.502   2.414   3.096 -0.8081 -0.5526  0.2185
    1SOL    HW3 6907   0.451   2.480   2.970  0.5517  0.4494  0.1844
    1SOL    MW4 6908   0.442   2.462   3.055 -0.3743 -0.2456 -0.0548
    1SOL     OW 6909   0.410   2.731   3.155  0.0863 -0.0668 -0.2869
    1SOL    HW2 6910   0.494   2.766   3.124  0.6844 -1.7193 -0.6363
    1SOL    HW3 6911   0.414   2.638   3.131 -1.3822 -0.3901  0.7015
    1SOL    MW4 6912   0.422   2.723   3.148 -0.0286 -0.3271 -0.2024
    1SOL     OW 6913   0.642   2.835   3.031  0.1135  0.1671 -0.3087
    1SOL    HW2 6914   0.715   2.798   3.079 -1.0895 -0.6937  0.9065
    1SOL    HW3 6915   0.645   2.929   3.050  0.6172  0.0620  0.1203
    1SOL    MW4 6916   0.652   2.842   3.040  0.0212  0.0398 -0.0916
    1SOL     OW 6917   0.666   3.110   3.100 -0.1130 -0.1135  0.6513
    1SOL    HW2 6918   0.653   3.088   3.192 -1.0602 -1.1973  0.2699
    1SOL    HW3 6919   0.583   3.149   3.072  0.2305  0.3760  0.3019
    1SOL    MW4 6920   0.653   3.112   3.108 -0.1927 -0.1917  0.5548
    1SOL     OW 6921   0.433   3.217   3.001  0.2354 -0.0362 -0.2003
    1SOL    HW2 6922   0.431   3.309   3.029 -2.0553 -0.1148 -0.0683
    1SOL    HW3 6923   0.371   3.173   3.059 -1.1352 -1.0424 -2.3844
    1SOL    MW4 6924   0.425   3.224   3.012 -0.2476 -0.1793 -0.4709
    1SOL     OW 6925   0.407   3.489   3.108 -0.2794 -0.1936  0.0111
    1SOL    HW2 6926   0.427   3.496   3.201  0.5231 -0.9211 -0.0979
    1SOL    HW3 6927   0.330   3.545   3.095 -0.2600  0.0790  1.0631
    1SOL    MW4 6928   0.399   3.497   3.118 -0.1709 -0.2537  0.1357
    1SOL     OW 6929   0.639   3.617   3.041  0.4579  0.7309  0.0125
    1SOL    HW2 6930   0.709   3.580   3.095 -0.5500 -1.8623 -0.3892
    1SOL    HW3 6931   0.562   3.565   3.062 -0.7036  1.7214 -1.6339
    1SOL    MW4 6932   0.638   3.606   3.051  0.1717  0.5198 -0.2577
    1SOL     OW 6933   0.641   3.893   3.103 -0.9708  0.5231  0.2893
    1SOL    HW2 6934   0.647   3.889   3.198  0.1405  0.7389  0.2257
    1SOL    HW3 6935   0.655   3.803   3.074 -1.1007  0.4950  0.3108
    1SOL    MW4 6936   0.643   3.881   3.112 -0.8414  0.5479  0.2837
    1SOL     OW 6937   0.372   4.004   3.018  0.2336 -0.2010 -0.4960
    1SOL    HW2 6938   0.447   3.979   3.071  0.3625  0.3031 -0.4419
    1SOL    HW3 6939   0.402   3.993   2.928  0.4078  0.0900 -0.4760
    1SOL    MW4 6940   0.386   3.999   3.013  0.2736 -0.0966 -0.4864
    1SOL     OW 6941   0.472   4.269   3.112 -0.0195 -0.1884 -0.1083
    1SOL    HW2 6942   0.453   4.179   3.086 -0.1193  0.1681 -1.3386
    1SOL    HW3 6943   0.423   4.323   3.049  0.1556  0.7216  0.5211
    1SOL    MW4 6944   0.463   4.264   3.100 -0.0096 -0.0210 -0.1876
    1SOL     OW 6945   0.689   4.422   3.031 -0.6782  0.3791 -0.2757
    1SOL    HW2 6946   0.616   4.375   3.072 -0.2088  0.4350  0.6280
    1SOL    HW3 6947   0.671   4.415   2.937 -1.6315  0.0372 -0.0815
    1SOL    MW4 6948   0.677   4.415   3.024 -0.7420  0.3414 -0.1307
    1SOL     OW 6949   1.117   0.009   3.131 -0.0015 -0.1839 -0.4686
    1SOL    HW2 6950   1.191   0.033   3.076  0.9615 -0.3617  0.7424
    1SOL    HW3 6951   1.047   0.069   3.105  1.0793  1.1169 -0.4264
    1SOL    MW4 6952   1.117   0.020   3.120  0.2681 -0.0358 -0.3030
    1SOL     OW 6953   0.907   0.157   3.016 -0.3984  0.4050  0.0283
    1SOL    HW2 6954   0.905   0.251   3.035 -2.1263  0.7254 -1.6319
    1SOL    HW3 6955   0.820   0.126   3.039  0.4579 -1.0163  1.4876
    1SOL    MW4 6956   0.895   0.165   3.022 -0.5134  0.2597  0.0019
    1SOL     OW 6957   0.903   0.420   3.099 -0.0589 -0.1572  0.4393
    1SOL    HW2 6958   0.886   0.436   3.191 -0.9555  1.5627  0.0007
    1SOL    HW3 6959   0.992   0.454   3.085  0.4663 -1.3456  0.8858
    1SOL    MW4 6960   0.913   0.427   3.109 -0.1079 -0.0871  0.4401
    1SOL     OW 6961   1.157   0.511   3.022  0.6446 -0.2199 -0.1873
    1SOL    HW2 6962   1.234   0.456   3.038  2.1069  1.9186  0.4184
    1SOL    HW3 6963   1.144   0.508   2.927  0.1605 -2.2908 -0.0671
    1SOL    MW4 6964   1.165   0.503   3.012  0.7737 -0.2109 -0.0913
    1SOL     OW 6965   1.147   0.778   3.142 -0.5413  0.0232 -0.2454
    1SOL    HW2 6966   1.135   0.771   3.237  2.2812  1.0142  0.2414
    1SOL    HW3 6967   1.156   0.688   3.112  1.2963 -0.2130  0.8791
    1SOL    MW4 6968   1.147   0.765   3.151  0.0734  0.1227 -0.0329
    1SOL     OW 6969   0.927   0.922   3.038  0.3816 -0.1137  0.6411
    1SOL    HW2 6970   0.918   1.000   3.093  0.5226 -0.1496  0.7128
    1SOL    HW3 6971   1.003   0.876   3.072  1.3527  0.6172 -0.5075
    1SOL    MW4 6972   0.936   0.926   3.049  0.5285 -0.0219  0.4990
    1SOL     OW 6973   0.844   1.184   3.144  0.4986  0.7127  0.1160
    1SOL    HW2 6974   0.847   1.169   3.239  1.0874 -0.4475 -0.0757
    1SOL    HW3 6975   0.935   1.201   3.120  0.3677  0.8819 -0.2605
    1SOL    MW4 6976   0.857   1.184   3.154  0.5590  0.5821  0.0410
    1SOL     OW 6977   1.112   1.262   3.050 -0.4631 -0.2944  0.3326
    1SOL    HW2 6978   1.194   1.215   3.067  0.4844  1.0068 -0.5437
    1SOL    HW3 6979   1.105   1.265   2.955 -2.3228 -1.7060  0.3942
    1SOL    MW4 6980   1.122   1.257   3.040 -0.5835 -0.3089  0.2251
    1SOL     OW 6981   1.118   1.542   3.124 -0.0139 -0.4983 -0.2170
    1SOL    HW2 6982   1.210   1.566   3.111  0.4722 -1.8422  0.6610
    1SOL    HW3 6983   1.114   1.449   3.101 -1.1711 -0.4307 -0.3132
    1SOL    MW4 6984   1.130   1.533   3.119 -0.1023 -0.6666 -0.1140
    1SOL     OW 6985   0.904   1.679   2.995  0.0641 -0.1010  0.1701
    1SOL    HW2 6986   0.977   1.626   3.026  0.8046  0.5104 -0.4876
    1SOL    HW3 6987   0.826   1.638   3.032  0.7437 -0.7779  0.8535
    1SOL    MW4 6988   0.903   1.667   3.004  0.2514 -0.1097  0.1736
    1SOL     OW 6989   0.888   1.940   3.130 -0.1614  0.1235  0.8540
    1SOL    HW2 6990   0.898   1.922   3.223  1.7086  0.8285  0.8070
    1SOL    HW3 6991   0.880   1.854   3.090  0.6187 -0.2627  1.5073
    1SOL    MW4 6992   0.889   1.926   3.137  0.1882  0.1655  0.9339
    1SOL     OW 6993   1.128   2.046   3.040 -0.0563  0.1861 -0.4662
    1SOL    HW2 6994   1.052   2.003   3.078 -0.4337  0.5843 -0.7733
    1SOL    HW3 6995   1.114   2.040   2.945  0.7024 -0.4833 -0.5524
    1SOL    MW4 6996   1.116   2.039   3.032 -0.0060  0.1500 -0.5183
    1SOL     OW 6997   1.119   2.303   3.152 -0.0940 -0.1494 -0.0518
    1SOL    HW2 6998   1.040   2.344   3.115  0.6952  0.5476 -1.0030
    1SOL    HW3 6999   1.119   2.214   3.118 -1.2680 -0.6316  1.1763
    1SOL    MW4 7000   1.109   2.297   3.143 -0.1448 -0.1211 -0.0157
    1SOL     OW 7001   0.916   2.457   3.055  0.0245  0.4545 -0.4526
    1SOL    HW2 7002   0.842   2.406   3.088  0.5163 -1.1087 -1.7231
    1SOL    HW3 7003   0.916   2.442   2.961  2.1662  0.1333 -0.4344
    1SOL    MW4 7004   0.907   2.449   3.047  0.3720  0.2058 -0.6177
    1SOL     OW 7005   0.877   2.717   3.161  0.0134 -0.1935 -0.2858
    1SOL    HW2 7006   0.874   2.706   3.256 -0.0434  0.2301 -0.2371
    1SOL    HW3 7007   0.890   2.628   3.127 -0.9769 -0.4739  0.0667
    1SOL    MW4 7008   0.878   2.704   3.169 -0.1248 -0.1745 -0.2327
    1SOL     OW 7009   1.098   2.857   3.031 -0.5189  0.3700 -0.4438
    1SOL    HW2 7010   1.117   2.945   3.063 -1.0732  0.5707 -0.6596
    1SOL    HW3 7011   1.024   2.827   3.085  0.3662 -0.3826  0.3622
    1SOL    MW4 7012   1.091   2.865   3.042 -0.4753  0.2973 -0.3657
    1SOL     OW 7013   1.160   3.129   3.104 -0.6111 -0.1662  0.1031
    1SOL    HW2 7014   1.236   3.186   3.087  0.0616 -1.3670 -0.9544
    1SOL    HW3 7015   1.085   3.179   3.073 -0.2073  0.8376  0.7212
    1SOL    MW4 7016   1.160   3.143   3.098 -0.4693 -0.1922  0.0453
    1SOL     OW 7017   0.910   3.234   3.051 -0.0198  0.7549 -0.5943
    1SOL    HW2 7018   0.829   3.187   3.070 -0.2341  1.4804  0.3181
    1SOL    HW3 7019   0.912   3.241   2.956 -0.3618 -0.4323 -0.7024
    1SOL    MW4 7020   0.900   3.228   3.041 -0.0932  0.6940 -0.4883
    1SOL     OW 7021   0.868   3.492   3.123  0.0342 -0.0793  0.5928
    1SOL    HW2 7022   0.943   3.545   3.095  0.0827 -0.7064 -0.4826
    1SOL    HW3 7023   0.893   3.402   3.102 -1.2361 -0.2429 -0.2580
    1SOL    MW4 7024   0.881   3.487   3.116 -0.1270 -0.1836  0.3388
    1SOL     OW 7025   1.061   3.658   3.050  0.0126  0.4720 -0.2103
    1SOL    HW2 7026   1.144   3.624   3.085 -0.7464 -0.0895  1.0870
    1SOL    HW3 7027   1.059   3.749   3.080 -0.8226 -0.1201  1.6178
    1SOL    MW4 7028   1.072   3.666   3.059 -0.1976  0.3197  0.2019
    1SOL     OW 7029   1.122   3.912   3.144  0.3324  0.2287 -0.6620
    1SOL    HW2 7030   1.160   3.928   3.231  0.1748  0.2857 -0.6029
    1SOL    HW3 7031   1.038   3.958   3.146 -0.6074 -1.4585 -0.1218
    1SOL    MW4 7032   1.116   3.920   3.156  0.1875  0.0141 -0.5827
    1SOL     OW 7033   0.869   4.041   3.025 -0.1347 -0.4971  0.1286
    1SOL    HW2 7034   0.796   3.982   3.045  0.9013 -1.4893  0.9752
    1SOL    HW3 7035   0.888   4.025   2.933 -1.2434  0.0635 -0.2124
    1SOL    MW4 7036   0.862   4.031   3.015 -0.1443 -0.5546  0.1955
    1SOL     OW 7037   0.902   4.276   3.163 -0.1834  0.0108  0.1478
    1SOL    HW2 7038   0.898   4.189   3.123 -2.0385 -0.5595  1.5131
    1SOL    HW3 7039   0.830   4.324   3.123  1.0907  1.1117 -0.9153
    1SOL    MW4 7040   0.892   4.270   3.152 -0.2600  0.0806  0.1879
    1SOL     OW 7041   1.125   4.403   3.059  0.4341 -0.1092  0.3361
    1SOL    HW2 7042   1.054   4.353   3.100  0.9771 -1.0336  0.1797
    1SOL    HW3 7043   1.111   4.493   3.087  0.3345 -0.5985  1.9122
    1SOL    MW4 7044   1.114   4.408   3.068  0.4926 -0.2956  0.5236
    1SOL     OW 7045   1.597   4.617   3.112 -0.1271 -0.0868 -0.4121
    1SOL    HW2 7046   1.579   4.589   3.201  0.1953  0.5744 -0.1281
    1SOL    HW3 7047   1.516   4.658   3.082  0.4140  1.6343  0.3650
    1SOL    MW4 7048   1.584   4.619   3.120 -0.0131  0.2275 -0.2720
    1SOL     OW 7049   1.339   0.067   3.007 -0.1455 -0.1870 -0.2044
    1SOL    HW2 7050   1.345   0.159   3.034 -0.1581 -0.4865  0.8637
    1SOL    HW3 7051   1.339   0.070   2.912  0.8373  0.8579 -0.1860
    1SOL    MW4 7052   1.340   0.080   2.998 -0.0174 -0.0886 -0.0608
    1SOL     OW 7053   1.374   0.353   3.072 -0.8249 -0.6997 -0.1220
    1SOL    HW2 7054   1.379   0.364   3.167 -0.6508  1.3270 -0.3271
    1SOL    HW3 7055   1.457   0.389   3.040 -0.9198 -1.2936 -1.0505
    1SOL    MW4 7056   1.386   0.359   3.080 -0.8144 -0.5107 -0.2718
    1SOL     OW 7057   1.580   0.501   2.969 -0.2342  0.3721 -0.3453
    1SOL    HW2 7058   1.582   0.595   2.986  0.1358  0.3393 -0.1954
    1SOL    HW3 7059   1.580   0.494   2.873 -0.2172  0.5256 -0.3569
    1SOL    MW4 7060   1.581   0.512   2.958 -0.1832  0.3880 -0.3271
    1SOL     OW 7061   1.609   0.773   3.078 -0.2174  0.1941  0.2892
    1SOL    HW2 7062   1.609   0.766   3.173  0.1875  0.7911  0.3399
    1SOL    HW3 7063   1.525   0.815   3.057 -0.3199  0.0341  0.3795
    1SOL    MW4 7064   1.598   0.778   3.088 -0.1774  0.2518  0.3078
    1SOL     OW 7065   1.358   0.863   2.999 -0.2701  0.0918 -0.3457
    1SOL    HW2 7066   1.371   0.951   3.035 -0.2394 -0.2921  0.5838
    1SOL    HW3 7067   1.287   0.826   3.050  0.5947 -0.9185  0.1448
    1SOL    MW4 7068   1.351   0.870   3.010 -0.1519 -0.0921 -0.1581
    1SOL     OW 7069   1.355   1.118   3.085  0.0728 -0.2453  0.0140
    1SOL    HW2 7070   1.345   1.113   3.180 -1.4734  1.4322 -0.0276
    1SOL    HW3 7071   1.440   1.160   3.072 -0.5554  1.3034  0.7215
    1SOL    MW4 7072   1.365   1.123   3.096 -0.2141  0.1804  0.1016
    1SOL     OW 7073   1.585   1.279   3.018  0.0170 -0.1750  0.2650
    1SOL    HW2 7074   1.670   1.248   3.049  0.5221 -0.0205 -0.9630
    1SOL    HW3 7075   1.581   1.370   3.046  1.1969  0.4607 -1.5728
    1SOL    MW4 7076   1.595   1.287   3.026  0.2393 -0.0709 -0.1392
    1SOL     OW 7077   1.609   1.535   3.118  0.1935 -0.3082  0.5385
    1SOL    HW2 7078   1.673   1.592   3.076 -0.2331  0.2813  0.6788
    1SOL    HW3 7079   1.524   1.575   3.097 -0.1077 -0.9114  0.6072
    1SOL    MW4 7080   1.606   1.548   3.109  0.0975 -0.3099  0.5660
    1SOL     OW 7081   1.370   1.661   3.044 -0.1240 -0.0030  0.6558
    1SOL    HW2 7082   1.369   1.754   3.066 -0.5017  0.0446  0.4438
    1SOL    HW3 7083   1.355   1.658   2.949 -1.1024 -0.3232  0.8189
    1SOL    MW4 7084   1.368   1.673   3.034 -0.3029 -0.0391  0.6492
    1SOL     OW 7085   1.375   1.929   3.108  0.0227 -0.0722  0.1960
    1SOL    HW2 7086   1.376   1.917   3.203 -0.0139  0.6538  0.2930
    1SOL    HW3 7087   1.288   1.964   3.090  0.8027  1.9275  0.1754
    1SOL    MW4 7088   1.363   1.932   3.118  0.1208  0.2873  0.2062
    1SOL     OW 7089   1.599   2.049   3.000  0.1997  0.4162  0.5147
    1SOL    HW2 7090   1.516   2.006   3.020  0.2334  0.0137 -0.1745
    1SOL    HW3 7091   1.599   2.057   2.904 -0.1644  2.6751  0.6721
    1SOL    MW4 7092   1.588   2.044   2.990  0.1562  0.6614  0.4447
    1SOL     OW 7093   1.580   2.299   3.126 -0.1849 -0.2272  0.0643
    1SOL    HW2 7094   1.502   2.340   3.090  0.1862 -0.3760 -0.9244
    1SOL    HW3 7095   1.584   2.213   3.084  0.3984 -0.2985  0.2529
    1SOL    MW4 7096   1.570   2.293   3.116 -0.0591 -0.2563 -0.0412
    1SOL     OW 7097   1.353   2.436   3.032 -0.1943  0.1859 -0.1763
    1SOL    HW2 7098   1.264   2.407   3.052  0.2093 -1.4182 -0.6869
    1SOL    HW3 7099   1.356   2.438   2.936  0.0750  1.0402 -0.1552
    1SOL    MW4 7100   1.341   2.433   3.022 -0.1055  0.0870 -0.2408
    1SOL     OW 7101   1.358   2.718   3.110 -0.0606  0.1476  0.0022
    1SOL    HW2 7102   1.363   2.634   3.065  0.6693  0.4571 -0.4955
    1SOL    HW3 7103   1.273   2.754   3.083 -0.5256 -0.5694  0.4800
    1SOL    MW4 7104   1.347   2.712   3.100 -0.0255  0.0937 -0.0007
    1SOL     OW 7105   1.590   2.838   3.016 -0.3609  0.2353 -0.0448
    1SOL    HW2 7106   1.659   2.785   3.055 -1.0307  0.8248  2.0133
    1SOL    HW3 7107   1.509   2.796   3.044 -0.8714 -0.6112 -2.6616
    1SOL    MW4 7108   1.588   2.826   3.024 -0.5167  0.2012 -0.1185
    1SOL     OW 7109   1.566   3.103   3.096 -0.1554 -0.2694  0.1397
    1SOL    HW2 7110   1.582   3.093   3.190  1.6852 -1.9910 -0.3294
    1SOL    HW3 7111   1.584   3.016   3.059 -0.2492  0.5522 -1.9065
    1SOL    MW4 7112   1.570   3.090   3.103  0.0751 -0.3879 -0.1924
    1SOL     OW 7113   1.372   3.298   3.033 -0.0315  0.1509  0.5119
    1SOL    HW2 7114   1.444   3.240   3.057 -1.3359 -1.5394  0.4009
    1SOL    HW3 7115   1.368   3.295   2.938  1.3070  2.1723  0.3716
    1SOL    MW4 7116   1.381   3.290   3.024 -0.0269  0.1943  0.4785
    1SOL     OW 7117   1.320   3.560   3.129 -0.0155  0.6238 -0.0408
    1SOL    HW2 7118   1.324   3.552   3.224 -0.1267  0.1033 -0.0794
    1SOL    HW3 7119   1.341   3.472   3.096  1.6327  1.1800 -0.5332
    1SOL    MW4 7120   1.324   3.547   3.137  0.1873  0.6285 -0.1106
    1SOL     OW 7121   1.566   3.605   3.028 -0.4194 -0.3767 -0.3174
    1SOL    HW2 7122   1.482   3.579   3.064 -0.5720  0.2933 -0.1762
    1SOL    HW3 7123   1.556   3.597   2.934  0.2733 -3.0183 -0.1919
    1SOL    MW4 7124   1.554   3.601   3.021 -0.3481 -0.6371 -0.2823
    1SOL     OW 7125   1.551   3.875   3.139 -0.1241 -0.4241 -0.0665
    1SOL    HW2 7126   1.635   3.907   3.105  0.5236  0.5728  2.3312
    1SOL    HW3 7127   1.545   3.785   3.108  0.9461  0.0899 -1.8467
    1SOL    MW4 7128   1.561   3.868   3.130  0.1024 -0.2246  0.0148
    1SOL     OW 7129   1.356   4.030   2.988  0.0457  0.1426  0.4713
    1SOL    HW2 7130   1.426   3.992   3.041  0.4157 -1.3432 -1.0396
    1SOL    HW3 7131   1.278   3.981   3.012  0.3321 -0.9454 -0.7663
    1SOL    MW4 7132   1.355   4.019   2.998  0.1322 -0.1969  0.1085
    1SOL     OW 7133   1.327   4.261   3.166 -0.0477 -0.0560 -0.0613
    1SOL    HW2 7134   1.337   4.176   3.122 -0.2073  0.3368 -0.8758
    1SOL    HW3 7135   1.249   4.299   3.126 -0.8815 -0.1973  1.4286
    1SOL    MW4 7136   1.318   4.255   3.155 -0.1787 -0.0229  0.0279
    1SOL     OW 7137   1.564   4.364   3.008 -0.4194  0.1894  0.0381
    1SOL    HW2 7138   1.498   4.331   3.069 -0.8629 -0.6150 -0.8520
    1SOL    HW3 7139   1.582   4.453   3.037 -2.4051  0.6744 -0.0975
    1SOL    MW4 7140   1.557   4.371   3.020 -0.7401  0.1478 -0.0973
    1SOL     OW 7141   2.032   4.636   3.109  0.3029 -0.4017 -0.1432
    1SOL    HW2 7142   2.029   4.650   3.204  0.6451 -0.0619 -0.1781
    1SOL    HW3 7143   1.952   4.676   3.076 -0.3444 -1.4540  0.1100
    1SOL    MW4 7144   2.021   4.643   3.117  0.2627 -0.4954 -0.1147
    1SOL     OW 7145   1.811   0.098   3.017  0.3180 -0.3568 -0.2568
    1SOL    HW2 7146   1.735   0.045   3.040 -1.0557  1.7271  0.0878
    1SOL    HW3 7147   1.804   0.111   2.923 -0.7553  1.3435  0.0474
    1SOL    MW4 7148   1.800   0.093   3.008 -0.0049  0.1424 -0.1712
    1SOL     OW 7149   1.826   0.384   3.084  0.1077 -0.1776  0.7785
    1SOL    HW2 7150   1.811   0.295   3.053 -1.8732  0.5619 -0.5699
    1SOL    HW3 7151   1.757   0.435   3.040  0.8711  1.8998  1.9615
    1SOL    MW4 7152   1.815   0.379   3.074 -0.0530  0.1941  0.7565
    1SOL     OW 7153   2.057   0.525   3.015  0.3836 -0.4363  0.1688
    1SOL    HW2 7154   1.989   0.459   3.026  0.5912 -0.8811 -1.0903
    1SOL    HW3 7155   2.136   0.484   3.049  0.3258 -0.4849  0.2443
    1SOL    MW4 7156   2.059   0.511   3.021  0.4032 -0.5015  0.0124
    1SOL     OW 7157   2.026   0.757   3.163  0.4987  0.0549  0.1545
    1SOL    HW2 7158   1.961   0.801   3.109  0.5152 -0.2199 -0.0890
    1SOL    HW3 7159   2.041   0.673   3.120  0.6975 -0.0615  0.4459
    1SOL    MW4 7160   2.019   0.752   3.151  0.5269  0.0033  0.1609
    1SOL     OW 7161   1.833   0.892   2.999 -0.3795  0.2373 -0.0154
    1SOL    HW2 7162   1.750   0.858   3.032 -0.9734  0.9136 -0.7886
    1SOL    HW3 7163   1.831   0.872   2.905  0.5454 -0.1657  0.0456
    1SOL    MW4 7164   1.822   0.884   2.991 -0.3357  0.2733 -0.1092
    1SOL     OW 7165   1.855   1.154   3.090 -1.0140  0.0889 -0.1379
    1SOL    HW2 7166   1.832   1.136   3.181  0.7525 -0.2596  0.2466
    1SOL    HW3 7167   1.855   1.068   3.048 -0.2173  0.0699 -0.0947
    1SOL    MW4 7168   1.852   1.140   3.096 -0.6758  0.0405 -0.0815
    1SOL     OW 7169   2.079   1.282   3.012 -0.1701  0.2443 -0.2669
    1SOL    HW2 7170   2.153   1.230   3.043 -0.7186 -0.2447  0.2163
    1SOL    HW3 7171   2.001   1.235   3.043 -0.6768  3.1650  3.2814
    1SOL    MW4 7172   2.078   1.269   3.020 -0.3095  0.5649  0.2649
    1SOL     OW 7173   2.005   1.544   3.070 -0.0287 -0.1163  0.2581
    1SOL    HW2 7174   2.003   1.551   3.165 -3.4205 -0.7477  0.2922
    1SOL    HW3 7175   2.016   1.450   3.053 -0.9528 -0.1927  0.0528
    1SOL    MW4 7176   2.006   1.533   3.080 -0.5982 -0.2097  0.2358
    1SOL     OW 7177   1.790   1.668   2.961 -0.0591  0.0171 -0.1461
    1SOL    HW2 7178   1.794   1.753   3.004  2.1235 -0.3677  0.4996
    1SOL    HW3 7179   1.856   1.615   3.006 -1.3608 -2.0158 -0.5411
    1SOL    MW4 7180   1.799   1.672   2.973  0.0571 -0.3018 -0.1132
    1SOL     OW 7181   1.810   1.912   3.099  0.5182  0.2480 -0.0331
    1SOL    HW2 7182   1.880   1.953   3.049  0.7027 -0.2298 -0.1727
    1SOL    HW3 7183   1.729   1.947   3.061  0.6727  0.4466 -0.1778
    1SOL    MW4 7184   1.809   1.922   3.087  0.5629  0.2112 -0.0706
    1SOL     OW 7185   2.017   2.036   2.975  0.9159  0.1747 -0.6875
    1SOL    HW2 7186   2.082   1.992   3.030  1.2273  0.6898 -0.6439
    1SOL    HW3 7187   2.000   2.119   3.019  0.3847  0.1353 -0.8128
    1SOL    MW4 7188   2.023   2.041   2.988  0.8869  0.2379 -0.6983
    1SOL     OW 7189   2.009   2.299   3.091 -0.1365  0.2125 -0.2912
    1SOL    HW2 7190   2.085   2.342   3.052  0.0219  1.4941  1.4059
    1SOL    HW3 7191   1.935   2.356   3.069 -0.1631  0.5170  0.5608
    1SOL    MW4 7192   2.010   2.312   3.083 -0.1192  0.4218  0.0453
    1SOL     OW 7193   1.774   2.461   3.010  0.2712 -0.0028 -0.1633
    1SOL    HW2 7194   1.783   2.539   3.064 -0.0836 -0.5004  0.6131
    1SOL    HW3 7195   1.714   2.404   3.058  1.6088 -1.3665 -0.0478
    1SOL    MW4 7196   1.767   2.464   3.023  0.4010 -0.2484 -0.0460
    1SOL     OW 7197   1.803   2.699   3.138 -0.1015  0.1986  0.4389
    1SOL    HW2 7198   1.797   2.698   3.233  0.0523  0.0805  0.4465
    1SOL    HW3 7199   1.877   2.756   3.119 -0.5598  0.7817  0.3695
    1SOL    MW4 7200   1.812   2.706   3.148 -0.1416  0.2599  0.4306
    1SOL     OW 7201   2.016   2.833   3.017  0.1330  0.1218  0.2811
    1SOL    HW2 7202   2.046   2.921   3.041  0.3772  0.1818 -0.2394
    1SOL    HW3 7203   2.005   2.837   2.923 -0.2292 -0.2976  0.3091
    1SOL    MW4 7204   2.019   2.845   3.008  0.1175  0.0741  0.2162
    1SOL     OW 7205   2.052   3.096   3.124  0.0181  0.3714  0.2169
    1SOL    HW2 7206   2.028   3.074   3.214 -0.4878  1.1452  0.2736
    1SOL    HW3 7207   1.971   3.129   3.085  0.5201  1.1531 -0.1717
    1SOL    MW4 7208   2.038   3.097   3.131  0.0174  0.5767  0.1729
    1SOL     OW 7209   1.804   3.228   3.010  0.4901 -0.4267  0.1263
    1SOL    HW2 7210   1.716   3.194   3.028  0.7731 -0.9386  0.5659
    1SOL    HW3 7211   1.811   3.227   2.915  0.2704 -1.0323  0.1142
    1SOL    MW4 7212   1.793   3.223   3.000  0.4984 -0.5741  0.1826
    1SOL     OW 7213   1.807   3.494   3.114 -0.2492  0.0333 -0.0696
    1SOL    HW2 7214   1.799   3.406   3.077  1.5280  0.7269 -2.1951
    1SOL    HW3 7215   1.728   3.539   3.084 -0.2702 -0.3039 -0.5331
    1SOL    MW4 7216   1.795   3.488   3.105 -0.0175  0.0803 -0.4110
    1SOL     OW 7217   2.046   3.603   3.008  0.4340  0.1829  0.5866
    1SOL    HW2 7218   2.058   3.694   3.034  0.5012 -0.0102  1.2333
    1SOL    HW3 7219   1.972   3.572   3.061 -1.5508  0.7334 -1.7679
    1SOL    MW4 7220   2.038   3.611   3.018  0.1807  0.2301  0.3614
    1SOL     OW 7221   2.044   3.873   3.105 -0.1663  0.0851 -0.2981
    1SOL    HW2 7222   2.042   3.887   3.199  0.0263 -0.6711 -0.1846
    1SOL    HW3 7223   1.953   3.885   3.077 -0.2876 -0.0760  0.0298
    1SOL    MW4 7224   2.032   3.877   3.113 -0.1569 -0.0362 -0.2396
    1SOL     OW 7225   1.783   3.970   3.024 -0.0391 -0.2058 -0.0058
    1SOL    HW2 7226   1.793   4.061   3.053 -1.4704  0.2367 -0.8500
    1SOL    HW3 7227   1.797   3.974   2.929  0.6323 -0.9980  0.0571
    1SOL    MW4 7228   1.786   3.983   3.015 -0.1395 -0.2520 -0.1087
    1SOL     OW 7229   1.787   4.231   3.107  0.4361  0.0496  0.4913
    1SOL    HW2 7230   1.867   4.279   3.086  0.6996 -0.3031  0.6590
    1SOL    HW3 7231   1.719   4.270   3.052  1.1407 -0.9672 -1.1358
    1SOL    MW4 7232   1.789   4.242   3.097  0.5637 -0.1316  0.2990
    1SOL     OW 7233   2.020   4.364   3.065 -0.0303  0.2526  0.2352
    1SOL    HW2 7234   2.031   4.457   3.087 -0.1326  0.4007 -0.3173
    1SOL    HW3 7235   2.012   4.363   2.969  1.6226 -0.4874  0.0868
    1SOL    MW4 7236   2.020   4.376   3.055  0.1743  0.1745  0.1428
    1SOL     OW 7237   2.464   4.625   3.124 -0.0022 -0.1020 -0.2610
    1SOL    HW2 7238   2.458   4.546   3.070  1.7879  0.3187 -1.1185
    1SOL    HW3 7239   2.397   4.683   3.089 -1.0308 -1.0764  0.0877
    1SOL    MW4 7240   2.455   4.622   3.112  0.0987 -0.1755 -0.3281
    1SOL     OW 7241   2.276   0.117   3.008  0.0234 -0.3300  0.1547
    1SOL    HW2 7242   2.270   0.205   3.045  0.3637 -0.5262  0.6733
    1SOL    HW3 7243   2.195   0.074   3.037 -0.5447  0.0672 -0.7906
    1SOL    MW4 7244   2.264   0.123   3.017 -0.0069 -0.3035  0.0985
    1SOL     OW 7245   2.260   0.379   3.092  0.3443 -0.4471 -0.2358
    1SOL    HW2 7246   2.273   0.378   3.187 -0.9466  0.2410 -0.0361
    1SOL    HW3 7247   2.328   0.437   3.059 -0.8273  1.4405  0.5610
    1SOL    MW4 7248   2.270   0.386   3.100  0.0196 -0.1073 -0.1044
    1SOL     OW 7249   2.479   0.535   2.979  0.3764 -0.5589 -0.7887
    1SOL    HW2 7250   2.551   0.487   3.021 -0.2284  0.3409  1.3480
    1SOL    HW3 7251   2.487   0.513   2.886  1.4046 -3.0972 -0.1504
    1SOL    MW4 7252   2.490   0.526   2.973  0.4320 -0.7751 -0.4227
    1SOL     OW 7253   2.463   0.765   3.111 -0.0611  0.1526 -0.0777
    1SOL    HW2 7254   2.544   0.808   3.084 -1.5406  2.2727 -1.3425
    1SOL    HW3 7255   2.466   0.680   3.068  0.9614  0.6911 -1.1222
    1SOL    MW4 7256   2.474   0.760   3.101 -0.1216  0.5033 -0.3824
    1SOL     OW 7257   2.244   0.873   3.004  0.1089  0.3323  0.0475
    1SOL    HW2 7258   2.313   0.814   3.036  0.6020  0.6070 -0.5091
    1SOL    HW3 7259   2.163   0.831   3.032  0.3772 -1.4830 -1.7449
    1SOL    MW4 7260   2.243   0.860   3.012  0.2093  0.1290 -0.2625
    1SOL     OW 7261   2.289   1.117   3.137 -0.2450  0.3419 -0.3025
    1SOL    HW2 7262   2.277   1.106   3.231 -0.1281 -0.2252 -0.3500
    1SOL    HW3 7263   2.274   1.030   3.100  0.1195  0.4663 -0.7660
    1SOL    MW4 7264   2.286   1.104   3.144 -0.1814  0.2835 -0.3698
    1SOL     OW 7265   2.476   1.291   3.021 -0.5289  0.1018 -0.0633
    1SOL    HW2 7266   2.408   1.236   3.059  1.1015 -1.7571  0.1926
    1SOL    HW3 7267   2.465   1.281   2.926  0.3221 -1.3550 -0.0083
    1SOL    MW4 7268   2.466   1.283   3.013 -0.2015 -0.3357 -0.0224
    1SOL     OW 7269   2.432   1.548   3.135  0.3529  0.1366 -0.2514
    1SOL    HW2 7270   2.388   1.603   3.071 -1.1831 -1.2158 -0.3890
    1SOL    HW3 7271   2.431   1.460   3.096  0.6787 -0.4258  0.9782
    1SOL    MW4 7272   2.426   1.544   3.122  0.1931 -0.1159 -0.1075
    1SOL     OW 7273   2.242   1.672   2.982  0.2407  0.1021  0.4106
    1SOL    HW2 7274   2.159   1.634   3.011  0.7383 -0.1762  1.5392
    1SOL    HW3 7275   2.232   1.683   2.888 -1.4504  1.0066  0.6721
    1SOL    MW4 7276   2.230   1.668   2.974  0.0832  0.1847  0.5939
    1SOL     OW 7277   2.216   1.918   3.104  0.3635  0.3891 -0.3702
    1SOL    HW2 7278   2.283   1.972   3.062  0.2688  0.0082 -1.0077
    1SOL    HW3 7279   2.236   1.829   3.076  0.7981  0.0244  1.0434
    1SOL    MW4 7280   2.228   1.913   3.095  0.4082  0.2908 -0.2677
    1SOL     OW 7281   2.448   2.050   3.017  0.3394 -0.1548  0.1686
    1SOL    HW2 7282   2.528   2.018   3.059  0.1297 -0.7767  0.1003
    1SOL    HW3 7283   2.467   2.042   2.923  0.2045 -0.2854  0.1531
    1SOL    MW4 7284   2.461   2.045   3.010  0.2940 -0.2542  0.1574
    1SOL     OW 7285   2.499   2.309   3.121 -0.0308  0.3028  0.4467
    1SOL    HW2 7286   2.479   2.294   3.214 -1.9918  0.0196  0.0037
    1SOL    HW3 7287   2.465   2.231   3.077  0.6378  0.5727 -0.5464
    1SOL    MW4 7288   2.492   2.296   3.127 -0.2015  0.3011  0.2573
    1SOL     OW 7289   2.254   2.434   3.030  0.2982 -0.0888  0.1275
    1SOL    HW2 7290   2.243   2.510   3.086  0.5887 -0.7901  1.1516
    1SOL    HW3 7291   2.334   2.392   3.062  1.9874  0.9410 -2.4985
    1SOL    MW4 7292   2.263   2.438   3.041  0.5593 -0.0453 -0.0839
    1SOL     OW 7293   2.222   2.687   3.131 -0.1125 -0.2339 -0.3527
    1SOL    HW2 7294   2.303   2.735   3.115 -0.0805  0.2232  1.1141
    1SOL    HW3 7295   2.156   2.733   3.078  0.5005 -0.3711 -1.2400
    1SOL    MW4 7296   2.224   2.699   3.122 -0.0274 -0.1919 -0.2763
    1SOL     OW 7297   2.457   2.817   3.053 -0.5950  0.2921  0.4947
    1SOL    HW2 7298   2.474   2.910   3.057 -2.2015  0.6478 -0.2716
    1SOL    HW3 7299   2.462   2.796   2.959 -0.1645 -0.4033  0.6689
    1SOL    MW4 7300   2.460   2.826   3.041 -0.7503  0.2475  0.4168
    1SOL     OW 7301   2.494   3.099   3.108 -0.2897 -0.0897  0.0766
    1SOL    HW2 7302   2.565   3.148   3.067 -0.3244 -0.7520 -0.7855
    1SOL    HW3 7303   2.415   3.146   3.083 -0.1593  0.7053  1.1182
    1SOL    MW4 7304   2.493   3.112   3.100 -0.2770 -0.0722  0.1004
    1SOL     OW 7305   2.255   3.213   3.012 -0.0833  0.1085 -0.0640
    1SOL    HW2 7306   2.243   3.296   3.058  1.4987 -0.0105  0.6212
    1SOL    HW3 7307   2.179   3.160   3.036 -1.5327  1.6176 -1.1605
    1SOL    MW4 7308   2.244   3.217   3.021 -0.0656  0.2918 -0.1185
    1SOL     OW 7309   2.263   3.480   3.119 -0.2676 -0.3422  0.0471
    1SOL    HW2 7310   2.341   3.513   3.075  0.1995 -0.0196  1.0995
    1SOL    HW3 7311   2.190   3.519   3.070  0.2091 -0.9225 -1.1470
    1SOL    MW4 7312   2.263   3.490   3.107 -0.1431 -0.3765  0.0286
    1SOL     OW 7313   2.487   3.610   2.964  0.2194  0.2715 -0.3470
    1SOL    HW2 7314   2.571   3.569   2.985 -0.9946 -1.5944  1.1015
    1SOL    HW3 7315   2.484   3.688   3.020  0.0797 -0.8389  1.2442
    1SOL    MW4 7316   2.498   3.615   2.974  0.0408 -0.1216  0.0539
    1SOL     OW 7317   2.465   3.861   3.104 -0.0506  0.3184 -0.3720
    1SOL    HW2 7318   2.482   3.867   3.198  0.3872  1.6251 -0.5288
    1SOL    HW3 7319   2.545   3.894   3.063  0.1493 -1.1469 -1.2280
    1SOL    MW4 7320   2.478   3.866   3.111  0.0334  0.2973 -0.5057
    1SOL     OW 7321   2.263   3.981   2.965 -0.0236 -0.3630  0.0393
    1SOL    HW2 7322   2.325   3.919   3.004  0.5855  1.1174  1.4994
    1SOL    HW3 7323   2.178   3.958   3.004  0.7355  1.7402  3.1554
    1SOL    MW4 7324   2.260   3.970   2.976  0.1569  0.1099  0.6430
    1SOL     OW 7325   2.256   4.234   3.090 -0.3127 -0.0576 -0.1515
    1SOL    HW2 7326   2.258   4.153   3.039  1.3301  0.9526 -1.7723
    1SOL    HW3 7327   2.173   4.275   3.066 -0.2336 -0.3098 -0.8847
    1SOL    MW4 7328   2.246   4.229   3.080 -0.0854  0.0424 -0.4621
    1SOL     OW 7329   2.465   4.371   2.965 -0.0083 -0.5878  0.0316
    1SOL    HW2 7330   2.394   4.315   2.997 -0.9927 -0.1372 -1.3390
    1SOL    HW3 7331   2.464   4.359   2.870  0.7871  0.5723 -0.1269
    1SOL    MW4 7332   2.455   4.362   2.957 -0.0334 -0.3753 -0.1705
    1SOL     OW 7333   2.920   4.654   3.079  0.0118  0.1291 -0.5165
    1SOL    HW2 7334   2.999   4.702   3.051  0.3444  0.1377  0.4280
    1SOL    HW3 7335   2.938   4.563   3.054  1.7201 -0.4494  2.5584
    1SOL    MW4 7336   2.933   4.649   3.072  0.2811  0.0539  0.0138
    1SOL     OW 7337   2.686   0.107   3.024  0.4549  0.0572 -0.0330
    1SOL    HW2 7338   2.765   0.060   3.048  0.5874 -0.7229 -1.9248
    1SOL    HW3 7339   2.615   0.057   3.063  0.7186 -0.7535 -0.5906
    1SOL    MW4 7340   2.687   0.094   3.032  0.5074 -0.1527 -0.3562
    1SOL     OW 7341   2.690   0.361   3.108 -0.3627 -0.0748  0.0107
    1SOL    HW2 7342   2.704   0.273   3.075 -0.6427  0.0959 -0.5666
    1SOL    HW3 7343   2.682   0.350   3.203  0.4655 -0.5622  0.0335
    1SOL    MW4 7344   2.691   0.348   3.116 -0.2906 -0.1166 -0.0627
    1SOL     OW 7345   2.913   0.494   3.006 -0.2292  0.0097 -0.2800
    1SOL    HW2 7346   2.838   0.438   3.027 -0.5173  0.0271 -1.2260
    1SOL    HW3 7347   2.909   0.503   2.911  0.1929  1.1169 -0.1938
    1SOL    MW4 7348   2.902   0.488   2.996 -0.2117  0.1580 -0.3934
    1SOL     OW 7349   2.897   0.766   3.069 -0.1892 -0.1019 -0.2691
    1SOL    HW2 7350   2.913   0.766   3.164  1.8695  0.1394 -0.5785
    1SOL    HW3 7351   2.891   0.673   3.046 -0.4311 -0.1679  0.0634
    1SOL    MW4 7352   2.899   0.754   3.079  0.0503 -0.0788 -0.2663
    1SOL     OW 7353   2.688   0.924   3.008 -0.3625  0.0046 -0.5818
    1SOL    HW2 7354   2.685   1.007   3.057 -1.0722  0.1644 -0.8849
    1SOL    HW3 7355   2.771   0.883   3.035 -0.9419 -0.1210  1.0831
    1SOL    MW4 7356   2.699   0.930   3.018 -0.5329  0.0091 -0.4022
    1SOL     OW 7357   2.694   1.166   3.138 -0.2884 -0.5005 -0.2365
    1SOL    HW2 7358   2.770   1.199   3.091 -0.4914  2.2158  1.2659
    1SOL    HW3 7359   2.619   1.205   3.093 -0.5859  0.1488  0.8077
    1SOL    MW4 7360   2.694   1.175   3.126 -0.3543 -0.0564  0.0992
    1SOL     OW 7361   2.899   1.278   3.009 -0.0415 -0.4342  0.0385
    1SOL    HW2 7362   2.982   1.249   3.046 -1.8200 -0.7729  3.9639
    1SOL    HW3 7363   2.900   1.373   3.020 -0.8148 -0.5929  1.4594
    1SOL    MW4 7364   2.910   1.287   3.015 -0.3784 -0.4998  0.7439
    1SOL     OW 7365   2.906   1.545   3.073 -0.4827  0.7230 -0.2155
    1SOL    HW2 7366   2.929   1.531   3.165 -0.2896 -2.5491 -0.6741
    1SOL    HW3 7367   2.984   1.583   3.033  0.4360 -0.4905  0.4117
    1SOL    MW4 7368   2.919   1.548   3.080 -0.3359  0.1312 -0.1936
    1SOL     OW 7369   2.662   1.667   3.000 -0.1153 -0.1856 -0.3451
    1SOL    HW2 7370   2.735   1.616   3.034  0.0764  0.8551  0.8574
    1SOL    HW3 7371   2.584   1.624   3.035 -0.0427 -0.7309 -0.8454
    1SOL    MW4 7372   2.661   1.655   3.009 -0.0801 -0.1203 -0.2525
    1SOL     OW 7373   2.706   1.940   3.086 -0.3905  0.0934  0.0394
    1SOL    HW2 7374   2.790   1.974   3.053  1.0889 -2.7099  0.7666
    1SOL    HW3 7375   2.707   1.847   3.062 -2.5329 -0.3633  1.6000
    1SOL    MW4 7376   2.717   1.932   3.078 -0.4783 -0.3369  0.3409
    1SOL     OW 7377   2.960   2.031   3.011 -0.0407  0.7028  0.0221
    1SOL    HW2 7378   2.934   2.115   3.050  1.5341  0.6576  1.2226
    1SOL    HW3 7379   2.964   2.049   2.917 -1.1465  1.5752  0.1326
    1SOL    MW4 7380   2.957   2.045   3.004  0.0210  0.8118  0.1948
    1SOL     OW 7381   2.949   2.293   3.106 -0.0036  0.3757  0.2562
    1SOL    HW2 7382   3.020   2.344   3.068  0.6095  1.2312  2.4852
    1SOL    HW3 7383   2.869   2.332   3.069  0.5535  1.3155  0.0324
    1SOL    MW4 7384   2.948   2.305   3.096  0.1509  0.6127  0.5209
    1SOL     OW 7385   2.710   2.428   3.001  0.1089  0.4777  0.1131
    1SOL    HW2 7386   2.716   2.513   3.045  0.1573  0.2591  0.5323
    1SOL    HW3 7387   2.634   2.386   3.042  1.1320 -0.3870  1.1561
    1SOL    MW4 7388   2.701   2.434   3.012  0.2501  0.3347  0.3061
    1SOL     OW 7389   2.681   2.661   3.120  0.2179  0.7572 -0.9862
    1SOL    HW2 7390   2.690   2.681   3.213  2.2242  0.0640 -1.0132
    1SOL    HW3 7391   2.601   2.706   3.093 -0.8178  0.3023  1.2518
    1SOL    MW4 7392   2.672   2.670   3.128  0.3462  0.6056 -0.6943
    1SOL     OW 7393   2.888   2.768   2.982 -0.4283 -0.9755  0.3189
    1SOL    HW2 7394   2.967   2.730   3.022 -0.9267 -1.6640  0.6683
    1SOL    HW3 7395   2.817   2.741   3.040 -0.8902 -0.1172  0.1626
    1SOL    MW4 7396   2.889   2.759   2.995 -0.5548 -0.9530  0.3443
    1SOL     OW 7397   2.919   3.033   3.070  0.2942 -0.6097 -0.3817
    1SOL    HW2 7398   2.845   3.085   3.037  0.6367  0.6211  0.7745
    1SOL    HW3 7399   2.903   2.945   3.036 -0.9741 -0.0414 -1.2925
    1SOL    MW4 7400   2.907   3.028   3.061  0.1719 -0.3724 -0.3493
    1SOL     OW 7401   2.713   3.205   2.993 -0.0602 -0.4896 -0.4370
    1SOL    HW2 7402   2.713   3.298   3.017 -0.7886 -0.8013  0.8427
    1SOL    HW3 7403   2.704   3.204   2.898  1.0864  0.7731 -0.5720
    1SOL    MW4 7404   2.712   3.217   2.984 -0.0052 -0.3641 -0.2861
    1SOL     OW 7405   2.715   3.465   3.043 -1.0831  0.0480  0.1443
    1SOL    HW2 7406   2.715   3.478   3.138  0.8584  0.9811  0.0371
    1SOL    HW3 7407   2.794   3.510   3.012 -1.4800 -0.5749 -1.8737
    1SOL    MW4 7408   2.725   3.473   3.051 -0.8793  0.0887 -0.1361
    1SOL     OW 7409   2.947   3.604   2.967  0.0467  0.3942 -0.1693
    1SOL    HW2 7410   3.011   3.552   3.015  0.1504  0.4020 -0.2962
    1SOL    HW3 7411   2.945   3.688   3.012 -1.7287 -0.4358  1.3729
    1SOL    MW4 7412   2.955   3.608   2.979 -0.1736  0.2856  0.0172
    1SOL     OW 7413   2.929   3.851   3.118  0.2274  0.0373 -0.0529
    1SOL    HW2 7414   2.949   3.863   3.211 -0.2698 -0.2467  0.0904
    1SOL    HW3 7415   2.846   3.896   3.105  0.4569  0.3542 -0.4329
    1SOL    MW4 7416   2.921   3.858   3.128  0.1922  0.0415 -0.0844
    1SOL     OW 7417   2.697   3.971   2.997 -0.1526  0.2679  0.1153
    1SOL    HW2 7418   2.715   4.061   3.022  0.4149  0.5667 -1.3336
    1SOL    HW3 7419   2.696   3.972   2.901 -1.5135 -0.9947  0.0995
    1SOL    MW4 7420   2.699   3.983   2.988 -0.2570  0.1407 -0.0782
    1SOL     OW 7421   2.697   4.244   3.048 -0.3628  0.1594 -0.0455
    1SOL    HW2 7422   2.700   4.249   3.143 -1.8619 -0.2015  0.0389
    1SOL    HW3 7423   2.610   4.277   3.025 -0.5680 -1.0946 -1.1747
    1SOL    MW4 7424   2.686   4.249   3.057 -0.5879 -0.0539 -0.1833
    1SOL     OW 7425   2.926   4.392   3.028  0.1259 -0.0366  0.3152
    1SOL    HW2 7426   2.997   4.336   3.062 -0.4414 -0.1683  1.2867
    1SOL    HW3 7427   2.846   4.343   3.046 -0.1733 -0.1769 -1.3675
    1SOL    MW4 7428   2.925   4.378   3.035  0.0114 -0.0725  0.2215
    1SOL     OW 7429   3.334   4.660   3.129 -0.0086 -0.8253 -0.6383
    1SOL    HW2 7430   3.409   4.716   3.106 -0.3378 -0.7627 -1.6001
    1SOL    HW3 7431   3.347   4.581   3.077 -0.7083 -0.7383 -0.9494
    1SOL    MW4 7432   3.346   4.657   3.119 -0.1445 -0.8049 -0.8063
    1SOL     OW 7433   3.138   0.106   2.971 -0.3972  0.3423 -0.1214
    1SOL    HW2 7434   3.139   0.194   3.008  0.7130  0.6624 -0.8936
    1SOL    HW3 7435   3.216   0.064   3.007  0.1307  0.3171 -1.2666
    1SOL    MW4 7436   3.148   0.112   2.981 -0.1812  0.3812 -0.3743
    1SOL     OW 7437   3.141   0.361   3.096  0.1380  0.3350  0.2619
    1SOL    HW2 7438   3.210   0.411   3.053 -1.0007 -0.9869 -3.2275
    1SOL    HW3 7439   3.060   0.401   3.067 -0.7368 -2.1885 -0.9494
    1SOL    MW4 7440   3.140   0.373   3.087 -0.1278 -0.1723 -0.3583
    1SOL     OW 7441   3.345   0.498   2.986 -0.0534 -0.1907 -0.1289
    1SOL    HW2 7442   3.434   0.470   3.008  1.0477  3.1012 -0.1464
    1SOL    HW3 7443   3.349   0.518   2.893 -0.6662  0.4809 -0.0125
    1SOL    MW4 7444   3.358   0.497   2.977  0.0110  0.3322 -0.1156
    1SOL     OW 7445   3.347   0.757   3.082 -0.7036  0.2223 -0.2203
    1SOL    HW2 7446   3.376   0.763   3.173  0.0033 -1.4166 -0.3169
    1SOL    HW3 7447   3.343   0.663   3.064 -1.3089  0.5139 -1.7389
    1SOL    MW4 7448   3.350   0.745   3.091 -0.6902  0.0445 -0.4337
    1SOL     OW 7449   3.137   0.873   2.964 -0.1056  0.0351 -0.0431
    1SOL    HW2 7450   3.209   0.825   3.005  0.1515  0.9934  0.6592
    1SOL    HW3 7451   3.059   0.822   2.985  0.1054  0.1725  1.0883
    1SOL    MW4 7452   3.136   0.860   2.972 -0.0436  0.1797  0.1988
    1SOL     OW 7453   3.125   1.136   3.089  0.0933  0.0056  0.3998
    1SOL    HW2 7454   3.195   1.180   3.041 -0.0781 -0.6377 -0.4431
    1SOL    HW3 7455   3.123   1.048   3.053  0.6061 -0.7874  2.2771
    1SOL    MW4 7456   3.134   1.130   3.078  0.1383 -0.1838  0.5364
    1SOL     OW 7457   3.353   1.248   2.977  0.1440  0.0871  0.2992
    1SOL    HW2 7458   3.435   1.204   3.000  0.6963  0.6111 -0.6441
    1SOL    HW3 7459   3.363   1.337   3.010  0.6565  0.6440 -1.3097
    1SOL    MW4 7460   3.365   1.254   2.984  0.2844  0.2298 -0.0374
    1SOL     OW 7461   3.380   1.493   3.091  0.0800  0.3044  0.4366
    1SOL    HW2 7462   3.379   1.504   3.186  0.7855 -1.0076  0.5990
    1SOL    HW3 7463   3.442   1.559   3.060  2.2053 -1.2853  1.1700
    1SOL    MW4 7464   3.388   1.503   3.100  0.4537 -0.0786  0.5548
    1SOL     OW 7465   3.158   1.609   2.972  0.8535  0.3040  0.3229
    1SOL    HW2 7466   3.232   1.564   3.014  1.3133  0.3375 -0.4392
    1SOL    HW3 7467   3.162   1.699   3.007  1.7798  0.5782 -0.4729
    1SOL    MW4 7468   3.169   1.615   2.982  1.0364  0.3446  0.1173
    1SOL     OW 7469   3.169   1.871   3.057 -0.0389 -0.4384  0.0442
    1SOL    HW2 7470   3.154   1.889   3.149  1.9598  0.4889  0.2286
    1SOL    HW3 7471   3.093   1.907   3.012  0.4015  1.8575  1.0784
    1SOL    MW4 7472   3.157   1.878   3.063  0.2828 -0.0131  0.2050
    1SOL     OW 7473   3.372   2.072   3.013  0.4957 -0.1952 -0.4613
    1SOL    HW2 7474   3.448   2.018   3.034 -0.0691 -1.4268 -1.4604
    1SOL    HW3 7475   3.297   2.019   3.041 -0.0400  0.4839 -0.5956
    1SOL    MW4 7476   3.372   2.058   3.019  0.3502 -0.2680 -0.6108
    1SOL     OW 7477   3.329   2.313   3.157 -0.0858  0.4010  0.7390
    1SOL    HW2 7478   3.312   2.320   3.251  1.9492 -1.7427  1.3078
    1SOL    HW3 7479   3.352   2.221   3.143  0.6349  0.9088 -1.6842
    1SOL    MW4 7480   3.330   2.302   3.168  0.2780  0.1853  0.4945
    1SOL     OW 7481   3.157   2.448   3.002  0.3007  0.0413  0.2561
    1SOL    HW2 7482   3.226   2.402   3.051  0.3766 -0.3931 -0.2446
    1SOL    HW3 7483   3.142   2.529   3.051 -1.1947 -1.3816  2.2520
    1SOL    MW4 7484   3.164   2.452   3.015  0.1135 -0.2038  0.4532
    1SOL     OW 7485   3.116   2.697   3.107  0.0839 -0.2103  0.4324
    1SOL    HW2 7486   3.199   2.734   3.077 -0.4482  2.1943  1.8016
    1SOL    HW3 7487   3.120   2.700   3.202 -1.0315 -1.3346  0.5332
    1SOL    MW4 7488   3.127   2.703   3.115 -0.1335 -0.0412  0.6263
    1SOL     OW 7489   3.343   2.801   2.993  0.3156  0.5397 -0.4412
    1SOL    HW2 7490   3.426   2.756   3.012 -0.1431  0.6150  1.8666
    1SOL    HW3 7491   3.352   2.887   3.035 -0.8834  0.5861 -0.2623
    1SOL    MW4 7492   3.355   2.806   3.001  0.0968  0.5558 -0.1130
    1SOL     OW 7493   3.369   3.053   3.091  0.1993  0.0818 -0.1624
    1SOL    HW2 7494   3.294   3.103   3.060 -0.3202  0.0406  1.0257
    1SOL    HW3 7495   3.368   3.063   3.186  0.7580 -1.2279 -0.0015
    1SOL    MW4 7496   3.359   3.061   3.099  0.2043 -0.0966  0.0157
    1SOL     OW 7497   3.128   3.172   2.993  0.2196 -0.2076  0.3732
    1SOL    HW2 7498   3.051   3.122   3.019 -0.3563  0.2404 -0.4652
    1SOL    HW3 7499   3.127   3.170   2.897  0.9374  0.2714  0.3502
    1SOL    MW4 7500   3.118   3.165   2.984  0.2384 -0.0851  0.2599
    1SOL     OW 7501   3.118   3.443   3.101 -0.0204 -0.0576  0.1572
    1SOL    HW2 7502   3.196   3.473   3.055 -0.4863  1.2762  0.2037
    1SOL    HW3 7503   3.110   3.350   3.079  1.8098 -0.3119  0.4904
    1SOL    MW4 7504   3.127   3.435   3.092  0.1597  0.0846  0.2069
    1SOL     OW 7505   3.330   3.587   3.014 -0.2987  0.4605  0.5787
    1SOL    HW2 7506   3.416   3.550   3.034 -0.6091 -1.0841 -0.8625
    1SOL    HW3 7507   3.332   3.673   3.056  1.2307 -0.2997  2.1889
    1SOL    MW4 7508   3.342   3.593   3.022 -0.1378  0.1564  0.6008
    1SOL     OW 7509   3.393   3.845   3.080 -0.0009  0.0219  0.0338
    1SOL    HW2 7510   3.397   3.844   3.176  0.5972  0.3812  0.0123
    1SOL    HW3 7511   3.314   3.896   3.061  0.4427  0.8495  0.3318
    1SOL    MW4 7512   3.383   3.852   3.090  0.1364  0.1783  0.0701
    1SOL     OW 7513   3.159   3.984   3.042 -0.0313  0.1810 -0.5921
    1SOL    HW2 7514   3.073   3.943   3.049 -1.0515  2.1855 -1.0897
    1SOL    HW3 7515   3.171   3.997   2.948 -0.5889  2.7660 -0.3359
    1SOL    MW4 7516   3.149   3.981   3.030 -0.2394  0.7865 -0.6242
    1SOL     OW 7517   3.146   4.251   3.117  0.1843  0.3789  0.0567
    1SOL    HW2 7518   3.142   4.260   3.212 -1.3763 -0.9764  0.1418
    1SOL    HW3 7519   3.142   4.156   3.102  1.2096  0.5398 -1.3289
    1SOL    MW4 7520   3.145   4.239   3.127  0.1132  0.2213 -0.1147
    1SOL     OW 7521   3.369   4.394   3.019 -0.6569  0.0087 -0.0415
    1SOL    HW2 7522   3.446   4.349   3.052  0.0958  1.6595  0.5206
    1SOL    HW3 7523   3.295   4.345   3.054  0.0411 -3.1970 -2.7188
    1SOL    MW4 7524   3.370   4.382   3.028 -0.4654 -0.1965 -0.3207
    1SOL     OW 7525   3.804   0.012   3.079 -0.2197 -0.3735 -0.1347
    1SOL    HW2 7526   3.798  -0.081   3.056 -0.8922 -0.7787  1.6457
    1SOL    HW3 7527   3.719   0.048   3.056 -0.0396 -0.2347 -0.5991
    1SOL    MW4 7528   3.792   0.004   3.073 -0.2847 -0.4086  0.0389
    1SOL     OW 7529   3.545   0.144   3.018  0.3256  0.0715 -0.1127
    1SOL    HW2 7530   3.575   0.222   3.064  2.6923 -0.3956 -0.7836
    1SOL    HW3 7531   3.556   0.165   2.925 -0.4788 -0.5066 -0.3480
    1SOL    MW4 7532   3.550   0.157   3.012  0.5317 -0.0664 -0.2322
    1SOL     OW 7533   3.597   0.394   3.094 -0.2693 -0.8040  0.1366
    1SOL    HW2 7534   3.598   0.395   3.189 -1.1423  1.3095  0.1577
    1SOL    HW3 7535   3.685   0.421   3.068 -0.4942  0.1947  0.3759
    1SOL    MW4 7536   3.609   0.398   3.103 -0.4141 -0.3934  0.1709
    1SOL     OW 7537   3.845   0.486   3.010 -0.0220  0.1043 -0.4059
    1SOL    HW2 7538   3.930   0.453   3.038 -0.7469 -0.2562  1.4944
    1SOL    HW3 7539   3.834   0.567   3.060 -1.3654 -0.5552  0.3881
    1SOL    MW4 7540   3.855   0.493   3.021 -0.2952 -0.0302 -0.0501
    1SOL     OW 7541   3.786   0.757   3.114  0.0658 -0.1926 -0.5602
    1SOL    HW2 7542   3.793   0.737   3.208 -1.0914  2.3962  0.1286
    1SOL    HW3 7543   3.858   0.817   3.097 -0.9241  0.9253 -0.8596
    1SOL    MW4 7544   3.797   0.762   3.124 -0.2174  0.2964 -0.5090
    1SOL     OW 7545   3.569   0.883   2.974 -0.3619 -0.1627 -0.2878
    1SOL    HW2 7546   3.628   0.833   3.030  0.2629  0.8223 -0.0546
    1SOL    HW3 7547   3.481   0.862   3.007 -0.0448 -0.2389  0.5265
    1SOL    MW4 7548   3.565   0.874   2.986 -0.2375 -0.0428 -0.1493
    1SOL     OW 7549   3.599   1.141   3.074  0.5005  0.0744 -0.3486
    1SOL    HW2 7550   3.669   1.195   3.038 -0.4338 -0.2787 -2.8231
    1SOL    HW3 7551   3.607   1.058   3.028 -0.6328 -0.4585  0.3967
    1SOL    MW4 7552   3.609   1.137   3.063  0.2279 -0.0424 -0.5767
    1SOL     OW 7553   3.826   1.280   2.973  0.7538  0.3828 -0.6083
    1SOL    HW2 7554   3.822   1.366   3.015 -0.6833 -0.4114  0.9089
    1SOL    HW3 7555   3.807   1.298   2.881 -0.1314  1.6081 -0.2014
    1SOL    MW4 7556   3.823   1.294   2.966  0.4473  0.4396 -0.3543
    1SOL     OW 7557   3.773   1.534   3.100 -0.1254 -0.2817 -0.0681
    1SOL    HW2 7558   3.782   1.559   3.192 -0.2479 -2.0500  0.4463
    1SOL    HW3 7559   3.693   1.578   3.071 -1.7490 -2.0630  1.5369
    1SOL    MW4 7560   3.763   1.543   3.109 -0.3557 -0.7499  0.2117
    1SOL     OW 7561   3.575   1.684   2.978 -0.0436 -0.2709 -0.8340
    1SOL    HW2 7562   3.572   1.775   3.008  0.0734 -0.7604  0.7294
    1SOL    HW3 7563   3.596   1.690   2.885 -0.3373  1.3125 -0.8160
    1SOL    MW4 7564   3.577   1.697   2.970 -0.0670 -0.1265 -0.6254
    1SOL     OW 7565   3.594   1.931   3.084  0.1979 -0.1329 -0.3946
    1SOL    HW2 7566   3.591   1.944   3.179 -0.4695  0.8449 -0.5363
    1SOL    HW3 7567   3.679   1.964   3.058 -0.0823  0.6904 -0.2799
    1SOL    MW4 7568   3.604   1.937   3.093  0.0727  0.1048 -0.3979
    1SOL     OW 7569   3.850   2.048   2.993 -0.2259 -0.0834  0.2685
    1SOL    HW2 7570   3.839   2.141   3.014  0.2179 -0.0625  0.4238
    1SOL    HW3 7571   3.843   2.044   2.897  1.2844  0.3430  0.1240
    1SOL    MW4 7572   3.848   2.060   2.983  0.0317 -0.0241  0.2699
    1SOL     OW 7573   3.782   2.312   3.049  0.0384 -0.4062 -0.2584
    1SOL    HW2 7574   3.794   2.321   3.144  0.4195 -0.3604 -0.3130
    1SOL    HW3 7575   3.701   2.360   3.031  0.4575  0.3680 -0.0939
    1SOL    MW4 7576   3.773   2.319   3.059  0.1440 -0.2980 -0.2439
    1SOL     OW 7577   3.552   2.455   3.003  0.4696 -0.0595  0.5413
    1SOL    HW2 7578   3.569   2.535   3.054  0.8044 -0.8041  1.6270
    1SOL    HW3 7579   3.488   2.407   3.055  1.6055 -1.3298  0.7963
    1SOL    MW4 7580   3.546   2.459   3.017  0.6635 -0.3252  0.7184
    1SOL     OW 7581   3.584   2.723   3.098  0.1268 -0.1240 -0.2314
    1SOL    HW2 7582   3.583   2.719   3.193  0.0383  1.7147 -0.1414
    1SOL    HW3 7583   3.677   2.734   3.075  0.1874 -0.8936 -0.3939
    1SOL    MW4 7584   3.596   2.724   3.107  0.1233  0.0172 -0.2410
    1SOL     OW 7585   3.823   2.797   2.995  0.1109 -0.0342  0.1680
    1SOL    HW2 7586   3.841   2.884   3.031  1.3846 -0.3801  0.3849
    1SOL    HW3 7587   3.819   2.811   2.901  1.3727  0.0969  0.1167
    1SOL    MW4 7588   3.825   2.811   2.987  0.4454 -0.0625  0.1898
    1SOL     OW 7589   3.845   3.049   3.114  0.2547 -0.4503 -0.3551
    1SOL    HW2 7590   3.918   3.109   3.104  0.1003 -0.1967  0.0273
    1SOL    HW3 7591   3.768   3.099   3.086  0.2937 -0.8992 -1.3104
    1SOL    MW4 7592   3.844   3.063   3.109  0.2391 -0.4756 -0.4308
    1SOL     OW 7593   3.621   3.203   2.999  0.0343 -0.5351  0.1820
    1SOL    HW2 7594   3.544   3.152   3.022  0.1648 -0.1826  1.4054
    1SOL    HW3 7595   3.615   3.213   2.904 -1.5690 -0.2942  0.2879
    1SOL    MW4 7596   3.610   3.198   2.989 -0.1602 -0.4566  0.3574
    1SOL     OW 7597   3.574   3.479   3.055  0.1758  0.3975  0.3870
    1SOL    HW2 7598   3.650   3.525   3.019  0.5275 -0.4271  0.0741
    1SOL    HW3 7599   3.593   3.387   3.040 -0.6575  0.1668  0.7723
    1SOL    MW4 7600   3.587   3.473   3.048  0.1123  0.2582  0.3965
    1SOL     OW 7601   3.820   3.605   2.999 -0.6525  0.0311  0.0041
    1SOL    HW2 7602   3.819   3.696   3.030 -1.2033  0.2336 -0.6045
    1SOL    HW3 7603   3.821   3.612   2.903  0.4572 -0.5961 -0.0365
    1SOL    MW4 7604   3.820   3.618   2.990 -0.5791 -0.0250 -0.0815
    1SOL     OW 7605   3.854   3.897   3.093  0.2359 -0.1905  0.1173
    1SOL    HW2 7606   3.829   3.900   3.185 -0.5732  0.6702 -0.1150
    1SOL    HW3 7607   3.775   3.924   3.046  0.4313 -1.3041 -0.8725
    1SOL    MW4 7608   3.840   3.901   3.099  0.1547 -0.2239 -0.0439
    1SOL     OW 7609   3.622   3.998   2.995 -0.2622 -0.1114 -0.1495
    1SOL    HW2 7610   3.549   3.938   3.014 -0.3384 -0.3907 -1.2820
    1SOL    HW3 7611   3.626   4.001   2.899  0.1662  1.1896 -0.0936
    1SOL    MW4 7612   3.613   3.990   2.985 -0.2155  0.0236 -0.2916
    1SOL     OW 7613   3.613   4.266   3.088 -0.3254  0.1559 -0.1720
    1SOL    HW2 7614   3.689   4.317   3.060  0.1552 -0.8150 -0.6352
    1SOL    HW3 7615   3.624   4.181   3.047 -1.7507  0.0551 -0.3902
    1SOL    MW4 7616   3.624   4.262   3.079 -0.4499  0.0148 -0.2618
    1SOL     OW 7617   3.821   4.406   2.994  0.1989 -0.3539 -0.1552
    1SOL    HW2 7618   3.896   4.358   3.028  0.8790  1.2276  0.6027
    1SOL    HW3 7619   3.827   4.394   2.899  0.9729 -0.8694 -0.0482
    1SOL    MW4 7620   3.832   4.398   2.986  0.3905 -0.2131 -0.0412
    1SOL     OW 7621   4.283   4.647   3.080  0.4205 -0.1310  0.7076
    1SOL    HW2 7622   4.275   4.673   3.172 -0.2441 -0.6142  0.7842
    1SOL    HW3 7623   4.247   4.559   3.076 -1.5097  0.6594 -0.3921
    1SOL    MW4 7624   4.277   4.639   3.092  0.0782 -0.0906  0.5727
    1SOL     OW 7625   4.051   0.112   2.983  0.4723  0.2579  0.4684
    1SOL    HW2 7626   4.126   0.073   3.028  1.1572  0.4314 -0.5264
    1SOL    HW3 7627   3.975   0.069   3.022  1.1584 -1.0466  0.3759
    1SOL    MW4 7628   4.051   0.101   2.994  0.6533  0.1087  0.3247
    1SOL     OW 7629   4.051   0.352   3.132  0.1877 -0.2528 -0.2083
    1SOL    HW2 7630   4.130   0.392   3.094 -0.2430  0.7775 -0.0324
    1SOL    HW3 7631   4.063   0.258   3.119  1.9802 -0.1911  0.8152
    1SOL    MW4 7632   4.063   0.345   3.125  0.3672 -0.1087 -0.0498
    1SOL     OW 7633   4.283   0.467   3.029  0.5239 -0.2838  0.0736
    1SOL    HW2 7634   4.271   0.555   3.065 -0.2037 -0.9333  1.4857
    1SOL    HW3 7635   4.280   0.479   2.934 -0.6349  1.0854  0.2562
    1SOL    MW4 7636   4.281   0.480   3.021  0.2747 -0.1889  0.2837
    1SOL     OW 7637   4.254   0.730   3.126 -0.3353 -0.4548 -0.6044
    1SOL    HW2 7638   4.179   0.783   3.099 -0.1760 -0.5550 -1.2458
    1SOL    HW3 7639   4.330   0.779   3.096 -0.0832  0.4069  1.3885
    1SOL    MW4 7640   4.254   0.743   3.119 -0.2809 -0.3543 -0.4258
    1SOL     OW 7641   4.013   0.888   3.043 -0.0601  0.3284  0.1298
    1SOL    HW2 7642   4.041   0.978   3.060 -0.3309  0.0118  2.4102
    1SOL    HW3 7643   4.030   0.874   2.949 -1.0008  3.0863 -0.4775
    1SOL    MW4 7644   4.019   0.898   3.032 -0.2198  0.6505  0.3507
    1SOL     OW 7645   4.055   1.170   3.101 -0.4677  0.1253 -0.1750
    1SOL    HW2 7646   4.051   1.175   3.196  0.3148 -2.3484  0.0284
    1SOL    HW3 7647   3.967   1.195   3.071 -0.4738  1.7092  1.1338
    1SOL    MW4 7648   4.043   1.174   3.109 -0.3653  0.0080  0.0243
    1SOL     OW 7649   4.266   1.271   2.957 -0.1149 -0.1709 -0.3503
    1SOL    HW2 7650   4.189   1.238   3.003  0.0080  1.6667  1.2634
    1SOL    HW3 7651   4.238   1.278   2.866 -1.7416  0.0808  0.1400
    1SOL    MW4 7652   4.252   1.268   2.951 -0.3133  0.1048 -0.0727
    1SOL     OW 7653   4.223   1.503   3.127  0.0538 -0.2710 -0.2419
    1SOL    HW2 7654   4.146   1.550   3.096  0.0241  0.3507  0.7527
    1SOL    HW3 7655   4.237   1.434   3.062 -0.6358  0.3430 -1.0543
    1SOL    MW4 7656   4.215   1.500   3.114 -0.0410 -0.1081 -0.2177
    1SOL     OW 7657   4.019   1.685   3.040 -0.1134 -0.4380  0.3789
    1SOL    HW2 7658   4.007   1.770   3.083 -1.6307  0.1773 -1.2011
    1SOL    HW3 7659   3.934   1.642   3.048 -0.3857 -0.3585 -1.8795
    1SOL    MW4 7660   4.007   1.691   3.047 -0.3495 -0.3463 -0.1278
    1SOL     OW 7661   4.079   1.955   3.136  0.6153  0.3295  0.4065
    1SOL    HW2 7662   4.158   1.991   3.096  1.4994 -1.4442  0.5026
    1SOL    HW3 7663   4.007   1.996   3.089  1.5815  2.1404  0.4686
    1SOL    MW4 7664   4.080   1.965   3.125  0.8593  0.3343  0.4277
    1SOL     OW 7665   4.258   2.068   2.977 -0.1263  0.2218  0.3006
    1SOL    HW2 7666   4.254   2.154   3.017 -1.2765  0.3542 -0.0685
    1SOL    HW3 7667   4.225   2.081   2.888 -2.3767 -0.9612  0.9035
    1SOL    MW4 7668   4.253   2.081   2.971 -0.5751  0.0834  0.3316
    1SOL     OW 7669   4.259   2.306   3.112  0.7138  0.1475  0.1606
    1SOL    HW2 7670   4.185   2.353   3.072  0.3016 -0.5484  0.0871
    1SOL    HW3 7671   4.337   2.352   3.080  0.2991  1.2978  0.7646
    1SOL    MW4 7672   4.259   2.319   3.102  0.6046  0.2074  0.2303
    1SOL     OW 7673   4.021   2.451   2.977  0.3479  0.0153 -0.2782
    1SOL    HW2 7674   4.040   2.519   3.041  0.2642  1.1333 -1.4119
    1SOL    HW3 7675   3.935   2.417   3.002 -0.0914  1.0811 -0.3292
    1SOL    MW4 7676   4.012   2.455   2.988  0.2789  0.3035 -0.4349
    1SOL     OW 7677   4.055   2.685   3.100  0.0162  0.1822 -0.1662
    1SOL    HW2 7678   4.048   2.702   3.194  0.7236  1.6611 -0.3754
    1SOL    HW3 7679   3.972   2.717   3.064  0.0935  0.3934 -0.1569
    1SOL    MW4 7680   4.043   2.691   3.108  0.1197  0.4053 -0.1926
    1SOL     OW 7681   4.285   2.820   3.011  0.2840 -0.0014  0.3405
    1SOL    HW2 7682   4.210   2.771   3.044  0.1140  0.9533  1.4119
    1SOL    HW3 7683   4.361   2.776   3.048  0.2824 -1.1561 -0.9930
    1SOL    MW4 7684   4.285   2.808   3.020  0.2613 -0.0279  0.3057
    1SOL     OW 7685   4.294   3.088   3.115  0.3832  0.4079 -0.0263
    1SOL    HW2 7686   4.216   3.139   3.095  1.1592  0.8299 -2.1188
    1SOL    HW3 7687   4.291   3.014   3.055  2.0203  0.9006 -0.7594
    1SOL    MW4 7688   4.283   3.085   3.105  0.7014  0.5288 -0.3991
    1SOL     OW 7689   4.059   3.224   3.056  0.1677 -0.2087  0.3315
    1SOL    HW2 7690   4.058   3.314   3.088  0.7154 -0.1256  0.1315
    1SOL    HW3 7691   4.058   3.232   2.961 -2.3519 -0.4771  0.3126
    1SOL    MW4 7692   4.059   3.237   3.048 -0.0925 -0.2334  0.3023
    1SOL     OW 7693   4.048   3.489   3.121  0.3007  0.4377 -0.2282
    1SOL    HW2 7694   4.049   3.485   3.216  0.2949  3.5194 -0.0533
    1SOL    HW3 7695   3.961   3.523   3.099  1.2095  2.2243 -1.1776
    1SOL    MW4 7696   4.036   3.493   3.131  0.4191  1.0800 -0.3304
    1SOL     OW 7697   4.242   3.656   2.991 -0.3351  0.1295 -0.1488
    1SOL    HW2 7698   4.204   3.744   2.995 -2.0377 -0.5371 -1.1667
    1SOL    HW3 7699   4.173   3.599   3.025  0.7835 -0.8152  0.5535
    1SOL    MW4 7700   4.228   3.660   2.996 -0.4129 -0.0830 -0.1907
    1SOL     OW 7701   4.197   3.926   3.095 -0.5174 -0.0905  0.2477
    1SOL    HW2 7702   4.112   3.951   3.058 -0.6304  0.4130  0.8571
    1SOL    HW3 7703   4.260   3.979   3.046 -0.6904  0.7823  0.9627
    1SOL    MW4 7704   4.194   3.936   3.083 -0.5555  0.0913  0.4222
    1SOL     OW 7705   4.013   4.048   2.936 -0.2036  0.6606 -0.2806
    1SOL    HW2 7706   4.022   4.115   3.004  0.0050 -1.0391  1.4162
    1SOL    HW3 7707   3.942   3.992   2.967  1.4504 -1.4797 -0.2642
    1SOL    MW4 7708   4.005   4.050   2.949  0.0415  0.1540 -0.0546
    1SOL     OW 7709   4.020   4.255   3.119  0.4570  0.1333 -0.1040
    1SOL    HW2 7710   4.038   4.256   3.213  0.4438 -0.3878 -0.0945
    1SOL    HW3 7711   4.098   4.295   3.080  1.1191 -0.9933  0.0256
    1SOL    MW4 7712   4.033   4.260   3.126  0.5426 -0.0839 -0.0858
    1SOL     OW 7713   4.250   4.363   3.017  0.1387 -0.3072 -0.4228
    1SOL    HW2 7714   4.338   4.335   3.042  0.9191  2.3038 -0.0933
    1SOL    HW3 7715   4.258   4.390   2.926 -0.4576 -0.5814 -0.5595
    1SOL    MW4 7716   4.263   4.363   3.009  0.1631  0.0005 -0.3977
    1SOL     OW 7717   0.214   0.004   3.417  0.1751  0.0677 -0.1747
    1SOL    HW2 7718   0.295   0.050   3.438  0.3169 -0.6650  0.8681
    1SOL    HW3 7719   0.229  -0.086   3.443 -1.4198  0.1825  1.2128
    1SOL    MW4 7720   0.227  -0.002   3.423 -0.0166 -0.0138  0.1459
    1SOL     OW 7721   4.479   0.132   3.506  0.4516  0.3390 -0.6076
    1SOL    HW2 7722   4.479   0.216   3.461 -2.1474  0.1883 -0.9560
    1SOL    HW3 7723   4.536   0.077   3.452  2.5179  1.9560 -0.1393
    1SOL    MW4 7724   4.487   0.136   3.493  0.3815  0.5325 -0.5918
    1SOL     OW 7725   4.455   0.384   3.399  0.1626 -0.2337 -0.0486
    1SOL    HW2 7726   4.392   0.435   3.451  0.6659 -0.2446  0.5732
    1SOL    HW3 7727   4.540   0.406   3.437  0.7991  1.6471 -2.4017
    1SOL    MW4 7728   4.458   0.394   3.411  0.3130  0.0130 -0.2770
    1SOL     OW 7729   0.199   0.527   3.510  0.1672 -0.4999  0.1383
    1SOL    HW2 7730   0.276   0.476   3.484  0.3418 -0.0523 -0.2182
    1SOL    HW3 7731   0.211   0.611   3.467 -0.6956 -0.5488 -0.1919
    1SOL    MW4 7732   0.211   0.531   3.501  0.0764 -0.4473  0.0477
    1SOL     OW 7733   0.207   0.785   3.360  0.3877 -0.0116 -0.3237
    1SOL    HW2 7734   0.288   0.822   3.395  0.3834  0.8240 -1.1843
    1SOL    HW3 7735   0.138   0.819   3.418  0.3683  1.4560 -1.1867
    1SOL    MW4 7736   0.208   0.795   3.372  0.3846  0.2924 -0.5515
    1SOL     OW 7737   4.481   0.907   3.498  0.0468 -0.3615  0.0150
    1SOL    HW2 7738   4.490   0.914   3.593  1.1215  0.0720 -0.1082
    1SOL    HW3 7739   4.473   0.997   3.468  0.3384 -0.4623 -0.3682
    1SOL    MW4 7740   4.481   0.920   3.506  0.2270 -0.3176 -0.0520
    1SOL     OW 7741   0.003   1.164   3.404  0.4880 -0.0865  0.1378
    1SOL    HW2 7742   0.081   1.209   3.434  0.7856 -1.0907  0.9071
    1SOL    HW3 7743   0.003   1.176   3.309  0.6598  1.3403  0.3027
    1SOL    MW4 7744   0.013   1.171   3.395  0.5493 -0.0309  0.2611
    1SOL     OW 7745   0.229   1.300   3.520 -0.2332 -0.2141  0.3518
    1SOL    HW2 7746   0.230   1.309   3.615 -1.2324 -0.9278  0.4320
    1SOL    HW3 7747   0.234   1.391   3.488  1.2552 -0.0267  1.0544
    1SOL    MW4 7748   0.230   1.313   3.528 -0.1686 -0.2837  0.4549
    1SOL     OW 7749   0.227   1.550   3.398 -0.0153  0.2319  0.2881
    1SOL    HW2 7750   0.297   1.611   3.421  0.0592 -0.0756  0.8766
    1SOL    HW3 7751   0.235   1.540   3.303  0.1693  0.8968  0.2316
    1SOL    MW4 7752   0.238   1.556   3.388  0.0189  0.2791  0.3583
    1SOL     OW 7753   4.488   1.697   3.451  0.1455 -0.3575 -0.1811
    1SOL    HW2 7754   4.410   1.645   3.433  0.1641 -0.8862  1.2118
    1SOL    HW3 7755   4.561   1.635   3.443  0.1639 -0.5714  1.5425
    1SOL    MW4 7756   4.488   1.682   3.447  0.1507 -0.4555  0.2303
    1SOL     OW 7757   4.471   1.960   3.394 -0.0411 -0.4291  0.3976
    1SOL    HW2 7758   4.468   1.869   3.424  0.4635 -1.2452 -1.9804
    1SOL    HW3 7759   4.476   1.955   3.299  0.2963  2.0939  0.2340
    1SOL    MW4 7760   4.472   1.947   3.386  0.0701 -0.2040  0.0622
    1SOL     OW 7761   0.206   2.091   3.493 -0.1528  0.0056  0.2419
    1SOL    HW2 7762   0.126   2.048   3.463  0.7148 -1.2386 -0.3040
    1SOL    HW3 7763   0.197   2.093   3.589 -1.0646  0.3320  0.1530
    1SOL    MW4 7764   0.194   2.086   3.502 -0.1586 -0.1159  0.1581
    1SOL     OW 7765   0.235   2.344   3.399 -0.4028  0.2408 -0.1623
    1SOL    HW2 7766   0.163   2.390   3.441 -0.2940 -0.5006  0.8654
    1SOL    HW3 7767   0.226   2.253   3.428  0.1433 -0.1332 -1.1254
    1SOL    MW4 7768   0.225   2.338   3.408 -0.3164  0.0935 -0.1540
    1SOL     OW 7769   4.480   2.471   3.514 -0.0847  0.2033 -0.6807
    1SOL    HW2 7770   4.468   2.472   3.609  0.1490 -0.0605 -0.6480
    1SOL    HW3 7771   4.406   2.422   3.480 -0.4725  0.7837 -0.6778
    1SOL    MW4 7772   4.469   2.465   3.522 -0.1049  0.2451 -0.6762
    1SOL     OW 7773   0.003   2.735   3.432  0.4078 -0.3066 -0.0147
    1SOL    HW2 7774   0.073   2.784   3.475 -0.2143  0.5007  0.0902
    1SOL    HW3 7775   0.004   2.649   3.475  1.0340 -0.1447  0.2979
    1SOL    MW4 7776   0.012   2.730   3.444  0.4083 -0.1791  0.0405
    1SOL     OW 7777   0.206   2.892   3.532 -0.3102  0.1916 -0.0342
    1SOL    HW2 7778   0.283   2.854   3.490 -0.5436 -0.3234  0.0075
    1SOL    HW3 7779   0.196   2.977   3.489 -0.3726 -0.2076 -0.8272
    1SOL    MW4 7780   0.214   2.898   3.520 -0.3492  0.0710 -0.1333
    1SOL     OW 7781   0.210   3.152   3.412  0.1379 -0.1910 -0.5739
    1SOL    HW2 7782   0.123   3.177   3.441  0.0872  0.5966 -1.3786
    1SOL    HW3 7783   0.201   3.139   3.317 -0.1222 -4.4094 -0.0885
    1SOL    MW4 7784   0.198   3.154   3.403  0.0969 -0.6437 -0.6161
    1SOL     OW 7785   4.446   3.231   3.497 -0.1572  0.3884 -0.3027
    1SOL    HW2 7786   4.375   3.192   3.445  0.3874 -0.0934 -0.6953
    1SOL    HW3 7787   4.457   3.319   3.460 -0.6978  0.5406 -0.0983
    1SOL    MW4 7788   4.438   3.237   3.485 -0.1564  0.3450 -0.3276
    1SOL     OW 7789   4.462   3.472   3.368  0.2445 -0.5920 -0.0344
    1SOL    HW2 7790   4.392   3.529   3.402  0.5808 -0.7230  0.8889
    1SOL    HW3 7791   4.455   3.480   3.273  0.3589  1.0848  0.0786
    1SOL    MW4 7792   4.451   3.481   3.360  0.3042 -0.3881  0.1020
    1SOL     OW 7793   0.203   3.590   3.458  0.5135  0.5870 -0.0962
    1SOL    HW2 7794   0.204   3.579   3.553  0.3192  0.2041 -0.1361
    1SOL    HW3 7795   0.119   3.552   3.431  0.0634  1.6795 -0.3002
    1SOL    MW4 7796   0.192   3.584   3.467  0.4285  0.6804 -0.1285
    1SOL     OW 7797   0.217   3.875   3.372  0.1237 -0.0457  0.1708
    1SOL    HW2 7798   0.132   3.906   3.403  0.6871  0.7107  0.9731
    1SOL    HW3 7799   0.216   3.781   3.388 -0.0218  0.1705  1.4594
    1SOL    MW4 7800   0.206   3.867   3.378  0.1788  0.0827  0.4468
    1SOL     OW 7801   4.463   3.995   3.457  0.3963 -0.0120  0.2156
    1SOL    HW2 7802   4.470   4.010   3.552  0.8543  1.0320  0.0268
    1SOL    HW3 7803   4.469   4.083   3.419  0.2925 -0.4376 -0.7913
    1SOL    MW4 7804   4.465   4.009   3.465  0.4430  0.0696  0.0579
    1SOL     OW 7805   0.024   4.270   3.353 -0.3676  0.3305  0.1180
    1SOL    HW2 7806  -0.053   4.316   3.385 -1.2672 -0.6493 -0.5710
    1SOL    HW3 7807   0.098   4.313   3.396 -1.2654  1.5532  0.4678
    1SOL    MW4 7808   0.023   4.282   3.363 -0.6048  0.3624  0.0734
    1SOL     OW 7809   0.219   4.420   3.498  0.0734 -0.2181  0.0058
    1SOL    HW2 7810   0.244   4.410   3.590  1.0428  0.4808 -0.1792
    1SOL    HW3 7811   0.278   4.360   3.451 -0.7497 -0.9407 -0.1182
    1SOL    MW4 7812   0.230   4.410   3.504  0.0927 -0.2203 -0.0348
    1SOL     OW 7813   0.662   0.018   3.393  0.3884  0.5076  0.1491
    1SOL    HW2 7814   0.734   0.076   3.418 -0.6626  2.1681 -0.5653
    1SOL    HW3 7815   0.662   0.021   3.297  0.9860 -1.5347  0.0578
    1SOL    MW4 7816   0.671   0.026   3.383  0.3286  0.4572  0.0427
    1SOL     OW 7817   0.439   0.131   3.495  0.0704 -0.4315 -0.8216
    1SOL    HW2 7818   0.447   0.119   3.590  0.9788  4.0066 -0.2295
    1SOL    HW3 7819   0.518   0.090   3.460  0.3413 -1.0420  0.4534
    1SOL    MW4 7820   0.450   0.124   3.503  0.2260  0.0735 -0.5753
    1SOL     OW 7821   0.421   0.396   3.422  0.4724 -0.3269 -0.3397
    1SOL    HW2 7822   0.498   0.441   3.457  0.5494  0.4296 -1.4406
    1SOL    HW3 7823   0.430   0.306   3.452  1.6700 -0.1831 -0.2454
    1SOL    MW4 7824   0.433   0.390   3.430  0.6406 -0.2081 -0.4723
    1SOL     OW 7825   0.657   0.524   3.531  0.1175 -0.5307 -0.4248
    1SOL    HW2 7826   0.664   0.506   3.625  1.4284 -0.1088 -0.4436
    1SOL    HW3 7827   0.741   0.496   3.494 -0.1376 -0.0692 -1.3760
    1SOL    MW4 7828   0.669   0.518   3.538  0.2568 -0.4142 -0.5529
    1SOL     OW 7829   0.680   0.799   3.425 -0.1474 -0.0132 -0.1304
    1SOL    HW2 7830   0.589   0.827   3.441 -0.2809 -0.2155 -0.5351
    1SOL    HW3 7831   0.677   0.704   3.434  0.0160 -0.0226 -0.1881
    1SOL    MW4 7832   0.667   0.790   3.428 -0.1435 -0.0412 -0.1912
    1SOL     OW 7833   0.423   0.889   3.489  0.3862  0.3086 -0.1091
    1SOL    HW2 7834   0.432   0.886   3.585  2.5400  0.2025 -0.2804
    1SOL    HW3 7835   0.451   0.977   3.466  0.0043  0.2853 -0.6431
    1SOL    MW4 7836   0.428   0.900   3.499  0.6200  0.2916 -0.2022
    1SOL     OW 7837   0.461   1.153   3.414  0.1547 -0.1269 -0.2000
    1SOL    HW2 7838   0.376   1.179   3.451  0.1947  0.2472 -0.3619
    1SOL    HW3 7839   0.449   1.162   3.319  0.2018 -0.6137 -0.2544
    1SOL    MW4 7840   0.448   1.158   3.406  0.1662 -0.1417 -0.2286
    1SOL     OW 7841   0.672   1.303   3.504  0.2977  0.0346 -0.0267
    1SOL    HW2 7842   0.596   1.254   3.472  1.5610 -1.4645 -0.8088
    1SOL    HW3 7843   0.669   1.386   3.456 -0.8058 -0.0314 -0.0887
    1SOL    MW4 7844   0.661   1.308   3.493  0.3188 -0.1719 -0.1380
    1SOL     OW 7845   0.659   1.548   3.375  0.1148  0.5574 -0.0018
    1SOL    HW2 7846   0.743   1.570   3.416 -0.4346  0.9489  0.9519
    1SOL    HW3 7847   0.595   1.602   3.423 -0.7893 -0.3980 -0.1124
    1SOL    MW4 7848   0.662   1.558   3.387 -0.0769  0.4830  0.1092
    1SOL     OW 7849   0.451   1.705   3.497 -0.3333 -0.0581  0.1794
    1SOL    HW2 7850   0.482   1.719   3.586 -1.4375 -0.3564  0.6182
    1SOL    HW3 7851   0.447   1.793   3.459  1.2111 -0.0319  0.0471
    1SOL    MW4 7852   0.455   1.718   3.504 -0.2752 -0.0939  0.2198
    1SOL     OW 7853   0.451   1.961   3.412  0.7750  0.0300  0.9216
    1SOL    HW2 7854   0.372   1.996   3.455  0.6538  0.1424  0.6062
    1SOL    HW3 7855   0.429   1.960   3.319  0.7037 -1.0758  0.9430
    1SOL    MW4 7856   0.437   1.965   3.405  0.7496 -0.1012  0.8831
    1SOL     OW 7857   0.690   2.052   3.512  0.1662  0.1247 -0.3734
    1SOL    HW2 7858   0.678   2.038   3.606  0.5935 -0.0609 -0.3447
    1SOL    HW3 7859   0.611   2.015   3.472  0.0931 -0.0158 -0.1031
    1SOL    MW4 7860   0.678   2.045   3.519  0.2130  0.0815 -0.3338
    1SOL     OW 7861   0.662   2.308   3.389  0.3040 -0.0451  0.3431
    1SOL    HW2 7862   0.743   2.345   3.425 -0.7972  1.4274  1.3307
    1SOL    HW3 7863   0.661   2.218   3.423  1.7845 -0.2620 -0.1190
    1SOL    MW4 7864   0.673   2.301   3.398  0.3541  0.1204  0.4125
    1SOL     OW 7865   0.448   2.471   3.514 -0.3926  0.1842  0.0476
    1SOL    HW2 7866   0.530   2.426   3.495  0.1978  1.3530 -0.2275
    1SOL    HW3 7867   0.381   2.421   3.467  0.2948 -0.1907 -0.5323
    1SOL    MW4 7868   0.450   2.458   3.505 -0.2240  0.2890 -0.0653
    1SOL     OW 7869   0.385   2.723   3.426 -0.1448 -0.0686  0.1320
    1SOL    HW2 7870   0.400   2.634   3.458  1.4384  0.4028  0.7708
    1SOL    HW3 7871   0.390   2.716   3.331  0.3430 -0.6043  0.1928
    1SOL    MW4 7872   0.387   2.710   3.418  0.1285 -0.0772  0.2244
    1SOL     OW 7873   0.637   2.799   3.517 -0.0270 -0.0485 -0.0268
    1SOL    HW2 7874   0.714   2.745   3.501 -0.6912 -1.3830  1.1614
    1SOL    HW3 7875   0.564   2.749   3.482 -0.4480  0.9103 -0.5490
    1SOL    MW4 7876   0.638   2.785   3.511 -0.1701 -0.0982  0.0613
    1SOL     OW 7877   0.626   3.044   3.374 -0.0500 -0.5841  0.5487
    1SOL    HW2 7878   0.557   3.097   3.413 -0.7846 -1.2605  0.1869
    1SOL    HW3 7879   0.617   2.958   3.416 -0.4259 -1.1251 -0.6204
    1SOL    MW4 7880   0.616   3.040   3.384 -0.1965 -0.7448  0.3467
    1SOL     OW 7881   0.453   3.250   3.489 -0.3489  0.4449 -0.7141
    1SOL    HW2 7882   0.452   3.245   3.584 -0.1402  0.2588 -0.7191
    1SOL    HW3 7883   0.371   3.210   3.461  0.3177 -1.0035 -0.6688
    1SOL    MW4 7884   0.442   3.244   3.498 -0.2334  0.2294 -0.7083
    1SOL     OW 7885   0.454   3.501   3.381  0.4020  0.0139  0.3209
    1SOL    HW2 7886   0.474   3.415   3.417  1.0790 -0.2097 -0.5553
    1SOL    HW3 7887   0.363   3.517   3.404  0.3189 -0.8701  0.6149
    1SOL    MW4 7888   0.445   3.492   3.389  0.4804 -0.1323  0.2439
    1SOL     OW 7889   0.667   3.640   3.510 -0.2119 -0.5380  0.4675
    1SOL    HW2 7890   0.741   3.585   3.485 -0.3804 -0.6613  0.2354
    1SOL    HW3 7891   0.592   3.600   3.467 -0.5936 -1.0633  1.6108
    1SOL    MW4 7892   0.667   3.628   3.501 -0.2844 -0.6235  0.5877
    1SOL     OW 7893   0.657   3.896   3.403  0.1460 -0.9241 -0.3587
    1SOL    HW2 7894   0.576   3.929   3.441 -0.2652  0.2263 -2.1580
    1SOL    HW3 7895   0.659   3.803   3.428 -1.7548 -0.9797 -0.3177
    1SOL    MW4 7896   0.646   3.888   3.411 -0.1590 -0.7796 -0.5906
    1SOL     OW 7897   0.418   4.005   3.509  0.0566 -0.3398 -0.0944
    1SOL    HW2 7898   0.435   4.089   3.467 -2.0779  1.5057  2.5389
    1SOL    HW3 7899   0.346   3.967   3.459 -0.5017  0.4936  0.0580
    1SOL    MW4 7900   0.411   4.011   3.497 -0.2987  0.0138  0.2732
    1SOL     OW 7901   0.431   4.285   3.382 -0.0997 -0.5029 -0.2903
    1SOL    HW2 7902   0.497   4.344   3.416  1.3714 -1.9571 -0.5639
    1SOL    HW3 7903   0.448   4.281   3.288 -0.1338 -1.4126 -0.2644
    1SOL    MW4 7904   0.442   4.292   3.374  0.0899 -0.8149 -0.3228
    1SOL     OW 7905   0.652   4.413   3.512  0.1989 -0.3296 -0.0559
    1SOL    HW2 7906   0.731   4.363   3.493 -1.0090 -1.4120 -2.5298
    1SOL    HW3 7907   0.662   4.494   3.461 -0.7192 -0.9349 -1.2348
    1SOL    MW4 7908   0.664   4.417   3.503 -0.0816 -0.5522 -0.5376
    1SOL     OW 7909   1.076   4.643   3.408 -0.1779 -0.0017  0.2889
    1SOL    HW2 7910   1.162   4.679   3.429 -0.2795  0.2516  0.2614
    1SOL    HW3 7911   1.079   4.629   3.313 -0.6348  1.2232  0.0835
    1SOL    MW4 7912   1.088   4.646   3.398 -0.2514  0.1933  0.2584
    1SOL     OW 7913   0.898   0.166   3.499  0.1853 -0.0672 -0.1339
    1SOL    HW2 7914   0.898   0.165   3.595 -0.5022  0.9456 -0.1202
    1SOL    HW3 7915   0.965   0.102   3.475  2.3506  1.7027  1.0384
    1SOL    MW4 7916   0.907   0.157   3.508  0.3803  0.2999  0.0226
    1SOL     OW 7917   0.908   0.434   3.417 -0.6349  0.1071 -0.4542
    1SOL    HW2 7918   0.995   0.460   3.448 -0.2300 -0.6617 -0.9458
    1SOL    HW3 7919   0.904   0.340   3.430 -2.0876  0.3584  1.2613
    1SOL    MW4 7920   0.919   0.425   3.423 -0.7731  0.0388 -0.2925
    1SOL     OW 7921   1.174   0.494   3.472 -0.3174 -0.1059  0.0828
    1SOL    HW2 7922   1.174   0.482   3.567 -1.1271  1.0541  0.2448
    1SOL    HW3 7923   1.153   0.587   3.460  0.4282 -0.1023 -1.2157
    1SOL    MW4 7924   1.171   0.505   3.483 -0.3258  0.0476 -0.0672
    1SOL     OW 7925   1.140   0.760   3.418  0.2951  0.2837 -0.1853
    1SOL    HW2 7926   1.218   0.794   3.461  0.5628 -0.4523 -0.0825
    1SOL    HW3 7927   1.067   0.798   3.467  0.5834  0.8532 -0.1894
    1SOL    MW4 7928   1.141   0.770   3.430  0.3685  0.2617 -0.1726
    1SOL     OW 7929   0.911   0.904   3.515 -0.1864 -0.4291  0.0516
    1SOL    HW2 7930   0.902   0.985   3.466  1.3536 -1.3374 -1.7779
    1SOL    HW3 7931   0.829   0.856   3.499 -0.4544  0.0793 -0.0946
    1SOL    MW4 7932   0.899   0.908   3.507 -0.0186 -0.4819 -0.2093
    1SOL     OW 7933   0.887   1.145   3.413  0.7098  0.0201  0.2511
    1SOL    HW2 7934   0.974   1.184   3.418  1.0500 -0.7458  0.2923
    1SOL    HW3 7935   0.830   1.208   3.458  1.1217  0.8492 -0.3633
    1SOL    MW4 7936   0.891   1.159   3.419  0.8090  0.0285  0.1755
    1SOL     OW 7937   1.131   1.256   3.468  0.1362 -0.6348 -0.2075
    1SOL    HW2 7938   1.140   1.253   3.563  2.9486 -1.0070 -0.4486
    1SOL    HW3 7939   1.120   1.349   3.447 -0.3287 -0.5396  0.4626
    1SOL    MW4 7940   1.130   1.268   3.478  0.4461 -0.6714 -0.1507
    1SOL     OW 7941   1.118   1.524   3.397  0.0947  0.1626  0.5675
    1SOL    HW2 7942   1.208   1.556   3.406  0.2727 -0.0425 -0.4956
    1SOL    HW3 7943   1.102   1.522   3.303 -0.5043 -1.2600  0.6938
    1SOL    MW4 7944   1.128   1.528   3.386  0.0392 -0.0522  0.4439
    1SOL     OW 7945   0.884   1.636   3.511 -0.1006  0.6396 -0.5211
    1SOL    HW2 7946   0.885   1.730   3.494 -0.3692  1.0111  1.3472
    1SOL    HW3 7947   0.965   1.603   3.472  1.0546  2.0134  0.6605
    1SOL    MW4 7948   0.894   1.644   3.504  0.0164  0.8699 -0.1185
    1SOL     OW 7949   0.902   1.903   3.415  0.6383 -0.0798 -0.1376
    1SOL    HW2 7950   0.975   1.944   3.461  0.7515 -0.5979  0.1497
    1SOL    HW3 7951   0.825   1.954   3.440  0.5569 -0.9180  1.3629
    1SOL    MW4 7952   0.902   1.915   3.424  0.6425 -0.2587  0.0982
    1SOL     OW 7953   1.134   2.014   3.524  0.4598  0.1063 -0.2465
    1SOL    HW2 7954   1.211   1.968   3.491  0.5162  0.9577 -1.3200
    1SOL    HW3 7955   1.144   2.104   3.491  0.2722  0.8532  1.6845
    1SOL    MW4 7956   1.146   2.020   3.515  0.4423  0.3176 -0.1333
    1SOL     OW 7957   1.154   2.270   3.421 -0.0598 -0.1469  0.5226
    1SOL    HW2 7958   1.226   2.331   3.437 -0.5091  0.5125  0.0149
    1SOL    HW3 7959   1.134   2.279   3.328 -0.4251 -0.7414  0.5415
    1SOL    MW4 7960   1.161   2.279   3.411 -0.1673 -0.1383  0.4582
    1SOL     OW 7961   0.922   2.408   3.509  0.7249  0.0617 -0.6444
    1SOL    HW2 7962   0.919   2.385   3.602 -0.4440 -0.0026 -0.6861
    1SOL    HW3 7963   1.008   2.379   3.479  1.4327  0.8534  0.6092
    1SOL    MW4 7964   0.933   2.401   3.517  0.6641  0.1578 -0.4842
    1SOL     OW 7965   0.884   2.703   3.456 -0.3162  0.0866 -0.0706
    1SOL    HW2 7966   0.966   2.753   3.465 -0.6917  0.7493 -0.3088
    1SOL    HW3 7967   0.898   2.625   3.509  0.1404  0.6277  0.6226
    1SOL    MW4 7968   0.897   2.700   3.464 -0.3055  0.2456 -0.0105
    1SOL     OW 7969   1.149   2.815   3.483 -0.1172 -0.4307 -0.0206
    1SOL    HW2 7970   1.142   2.807   3.578 -0.5440 -0.4425 -0.0537
    1SOL    HW3 7971   1.229   2.767   3.461 -0.7866 -1.6669  0.1708
    1SOL    MW4 7972   1.159   2.808   3.492 -0.2617 -0.5958  0.0005
    1SOL     OW 7973   1.105   3.087   3.375  0.0656 -0.2485 -0.4535
    1SOL    HW2 7974   1.138   3.003   3.405  0.1710 -0.5087 -1.2838
    1SOL    HW3 7975   1.112   3.083   3.280 -1.0661  0.2230 -0.5675
    1SOL    MW4 7976   1.110   3.076   3.366 -0.0699 -0.2205 -0.5779
    1SOL     OW 7977   0.867   3.203   3.443 -0.0095  0.0835  0.1092
    1SOL    HW2 7978   0.944   3.155   3.409 -0.1003 -1.0425  1.4614
    1SOL    HW3 7979   0.794   3.143   3.428 -0.3611  0.4380  0.4132
    1SOL    MW4 7980   0.868   3.188   3.436 -0.0679 -0.0181  0.3276
    1SOL     OW 7981   0.867   3.473   3.403 -0.3867 -0.2773  0.5600
    1SOL    HW2 7982   0.863   3.380   3.424 -0.7354 -0.2087  0.8093
    1SOL    HW3 7983   0.874   3.476   3.307  1.2530 -0.5922  0.6507
    1SOL    MW4 7984   0.867   3.462   3.393 -0.2164 -0.3099  0.6049
    1SOL     OW 7985   1.086   3.614   3.483  0.2209  0.3820  0.1966
    1SOL    HW2 7986   1.079   3.612   3.579  0.6286 -0.8297  0.2072
    1SOL    HW3 7987   1.003   3.577   3.453 -0.4715  2.0019  0.0443
    1SOL    MW4 7988   1.074   3.609   3.492  0.1835  0.4358  0.1776
    1SOL     OW 7989   1.123   3.899   3.429  0.4153 -0.1171  0.0194
    1SOL    HW2 7990   1.179   3.921   3.503 -0.1336 -0.9922  0.7080
    1SOL    HW3 7991   1.112   3.804   3.434  0.5348 -0.2077 -1.3031
    1SOL    MW4 7992   1.129   3.889   3.440  0.3587 -0.2444 -0.0644
    1SOL     OW 7993   0.888   4.006   3.536 -0.2940 -0.0859 -0.4141
    1SOL    HW2 7994   0.962   3.973   3.485 -0.0756  0.4902 -0.4698
    1SOL    HW3 7995   0.811   3.971   3.491 -0.0590 -0.5760 -0.4324
    1SOL    MW4 7996   0.887   3.997   3.523 -0.2342 -0.0744 -0.4241
    1SOL     OW 7997   0.877   4.263   3.461  0.0968 -0.0923 -0.0228
    1SOL    HW2 7998   0.885   4.171   3.485 -0.6418 -0.2778 -0.4783
    1SOL    HW3 7999   0.879   4.263   3.365  0.9355  0.4479 -0.0129
    1SOL    MW4 8000   0.879   4.251   3.451  0.1101 -0.0458 -0.0818
    1SOL     OW 8001   1.114   4.390   3.550 -0.4973 -0.3446  0.0640
    1SOL    HW2 8002   1.029   4.353   3.526  0.1283  0.2144 -3.2229
    1SOL    HW3 8003   1.114   4.477   3.511  1.0003  0.2707  1.3811
    1SOL    MW4 8004   1.102   4.397   3.542 -0.2171 -0.1898 -0.1960
    1SOL     OW 8005   1.550   4.622   3.394  0.4223  0.8872 -0.2191
    1SOL    HW2 8006   1.567   4.547   3.450 -0.8124  0.7734  0.0140
    1SOL    HW3 8007   1.465   4.656   3.423  0.1652  1.3401 -1.4410
    1SOL    MW4 8008   1.541   4.617   3.405  0.2254  0.9313 -0.3495
    1SOL     OW 8009   1.319   0.109   3.465  0.1967  0.1379  0.6427
    1SOL    HW2 8010   1.332   0.115   3.560  1.8121 -0.5011  0.4729
    1SOL    HW3 8011   1.351   0.193   3.431  0.1357  0.1505  0.6169
    1SOL    MW4 8012   1.325   0.121   3.473  0.4017  0.0553  0.6170
    1SOL     OW 8013   1.382   0.374   3.367 -0.2958  0.0095  0.3136
    1SOL    HW2 8014   1.456   0.430   3.392  0.0695 -0.4712  0.3184
    1SOL    HW3 8015   1.304   0.421   3.397  0.0468  0.2128  0.8885
    1SOL    MW4 8016   1.381   0.387   3.374 -0.2023 -0.0271  0.3901
    1SOL     OW 8017   1.603   0.502   3.478 -0.0361  0.7269 -0.5970
    1SOL    HW2 8018   1.615   0.499   3.573 -0.1928  1.2424 -0.5577
    1SOL    HW3 8019   1.681   0.459   3.443 -0.3347 -0.1284 -0.2188
    1SOL    MW4 8020   1.615   0.496   3.486 -0.0961  0.6821 -0.5419
    1SOL     OW 8021   1.599   0.768   3.378  0.2300  0.5690  0.3403
    1SOL    HW2 8022   1.521   0.805   3.419 -1.2463 -0.0310 -1.8146
    1SOL    HW3 8023   1.591   0.674   3.393 -0.1671  0.3755 -1.0034
    1SOL    MW4 8024   1.588   0.761   3.385 -0.0170  0.4644 -0.1214
    1SOL     OW 8025   1.370   0.875   3.493 -0.3046  0.1851 -0.0625
    1SOL    HW2 8026   1.359   0.882   3.588  0.3000 -2.5901  0.2597
    1SOL    HW3 8027   1.350   0.963   3.460  0.5423  1.4723  2.7086
    1SOL    MW4 8028   1.366   0.887   3.501 -0.1131 -0.0112  0.3457
    1SOL     OW 8029   1.354   1.135   3.364  0.2712 -0.0326 -0.0973
    1SOL    HW2 8030   1.438   1.158   3.403  0.1708 -0.5505  0.4212
    1SOL    HW3 8031   1.291   1.195   3.405  0.0273 -1.1373  1.1739
    1SOL    MW4 8032   1.356   1.146   3.374  0.2258 -0.2466  0.1388
    1SOL     OW 8033   1.597   1.236   3.461  0.4084 -0.2302 -0.1815
    1SOL    HW2 8034   1.598   1.272   3.550  0.6134 -0.5537 -0.0535
    1SOL    HW3 8035   1.682   1.194   3.451 -0.6655 -2.6488  0.4846
    1SOL    MW4 8036   1.608   1.235   3.472  0.2940 -0.5920 -0.0765
    1SOL     OW 8037   1.603   1.513   3.391 -0.7132  0.1076  0.1392
    1SOL    HW2 8038   1.608   1.417   3.395  0.6208  0.1957  0.8665
    1SOL    HW3 8039   1.621   1.533   3.299 -1.8761 -0.3832 -0.2004
    1SOL    MW4 8040   1.606   1.503   3.379 -0.6907  0.0546  0.1903
    1SOL     OW 8041   1.376   1.646   3.468 -0.2853  0.2872 -0.4996
    1SOL    HW2 8042   1.376   1.650   3.564 -0.6463  0.4012 -0.5025
    1SOL    HW3 8043   1.452   1.593   3.446 -0.7146 -0.4872 -0.1145
    1SOL    MW4 8044   1.386   1.640   3.478 -0.3895  0.2002 -0.4489
    1SOL     OW 8045   1.367   1.915   3.392  0.4518 -0.0191  0.3828
    1SOL    HW2 8046   1.423   1.967   3.449  1.6651 -1.8524  0.9288
    1SOL    HW3 8047   1.380   1.825   3.421 -0.5686 -0.7773 -1.3883
    1SOL    MW4 8048   1.376   1.910   3.403  0.4773 -0.3610  0.2213
    1SOL     OW 8049   1.570   2.058   3.527  0.2413 -0.2353  0.2552
    1SOL    HW2 8050   1.651   2.018   3.496  0.0561  0.0332 -0.6035
    1SOL    HW3 8051   1.566   2.142   3.481 -1.2730 -0.9043 -0.8703
    1SOL    MW4 8052   1.580   2.064   3.517  0.0170 -0.2882 -0.0067
    1SOL     OW 8053   1.579   2.310   3.410 -0.0924  0.1827  0.1625
    1SOL    HW2 8054   1.496   2.354   3.427 -0.7568 -1.3395  0.9524
    1SOL    HW3 8055   1.577   2.291   3.316 -2.0576 -2.6402  0.7265
    1SOL    MW4 8056   1.568   2.313   3.400 -0.4394 -0.3908  0.3412
    1SOL     OW 8057   1.349   2.433   3.502  0.4471  0.2635 -0.2831
    1SOL    HW2 8058   1.358   2.445   3.597  2.6438 -1.0950 -0.2658
    1SOL    HW3 8059   1.352   2.521   3.466 -0.2038  0.7814  0.8910
    1SOL    MW4 8060   1.350   2.446   3.510  0.6510  0.1528 -0.1259
    1SOL     OW 8061   1.358   2.674   3.384 -0.4146 -0.5415 -0.0416
    1SOL    HW2 8062   1.436   2.723   3.409  0.0718 -0.5326 -1.5618
    1SOL    HW3 8063   1.354   2.680   3.289 -3.9041  1.9793  0.1629
    1SOL    MW4 8064   1.368   2.681   3.375 -0.8107 -0.2077 -0.2151
    1SOL     OW 8065   1.558   2.833   3.515  0.1506 -0.0839 -0.5773
    1SOL    HW2 8066   1.648   2.810   3.492  0.9884  2.2482  0.1923
    1SOL    HW3 8067   1.544   2.919   3.474 -1.5261 -0.1682 -0.2288
    1SOL    MW4 8068   1.568   2.841   3.507  0.0399  0.2129 -0.4299
    1SOL     OW 8069   1.556   3.094   3.373  0.1697  0.4350  0.5090
    1SOL    HW2 8070   1.635   3.125   3.416 -1.0176  0.9082  2.4012
    1SOL    HW3 8071   1.492   3.163   3.388 -0.8510 -0.3110 -0.3069
    1SOL    MW4 8072   1.558   3.107   3.380 -0.1215  0.3991  0.6511
    1SOL     OW 8073   1.318   3.274   3.459  0.3261 -0.7837  0.1765
    1SOL    HW2 8074   1.323   3.250   3.552 -1.5404  0.6608  0.6950
    1SOL    HW3 8075   1.252   3.215   3.423  1.7747 -2.0244 -0.4875
    1SOL    MW4 8076   1.310   3.263   3.466  0.2708 -0.7570  0.1576
    1SOL     OW 8077   1.337   3.544   3.403  0.0792 -0.2977 -0.0178
    1SOL    HW2 8078   1.350   3.453   3.432 -0.5388 -0.5114 -0.3933
    1SOL    HW3 8079   1.249   3.566   3.433  0.5280  0.4411  0.7459
    1SOL    MW4 8080   1.327   3.535   3.411  0.0569 -0.2284  0.0336
    1SOL     OW 8081   1.588   3.632   3.524  0.4607 -0.1769  0.7662
    1SOL    HW2 8082   1.594   3.647   3.619  0.9184  1.3038  0.5173
    1SOL    HW3 8083   1.499   3.597   3.511  0.5602 -0.8320  1.7913
    1SOL    MW4 8084   1.577   3.630   3.535  0.5342 -0.0679  0.8686
    1SOL     OW 8085   1.591   3.887   3.427  0.0455  0.1641  0.1088
    1SOL    HW2 8086   1.590   3.794   3.450 -1.7770 -0.0836 -0.8591
    1SOL    HW3 8087   1.565   3.890   3.335  1.2153  1.5553 -0.1896
    1SOL    MW4 8088   1.587   3.875   3.418 -0.0408  0.3150 -0.0582
    1SOL     OW 8089   1.366   3.990   3.570 -0.3696 -0.3537 -0.0976
    1SOL    HW2 8090   1.362   4.076   3.528 -0.6514  0.4132  1.4836
    1SOL    HW3 8091   1.444   3.949   3.533  0.6101  1.1733  0.2624
    1SOL    MW4 8092   1.375   3.996   3.559 -0.2775 -0.0513  0.1585
    1SOL     OW 8093   1.336   4.240   3.442 -0.0811 -0.1791  0.3117
    1SOL    HW2 8094   1.260   4.286   3.477 -0.4119  0.1217 -0.8080
    1SOL    HW3 8095   1.334   4.258   3.348  0.6900 -1.1644  0.1051
    1SOL    MW4 8096   1.326   4.249   3.434 -0.0230 -0.2699  0.1369
    1SOL     OW 8097   1.541   4.377   3.522  0.4045  0.0152 -0.1325
    1SOL    HW2 8098   1.618   4.342   3.476 -0.2262  1.0867 -2.0165
    1SOL    HW3 8099   1.469   4.319   3.496  0.1267  0.3673 -0.1422
    1SOL    MW4 8100   1.542   4.364   3.512  0.2847  0.2027 -0.3822
    1SOL     OW 8101   2.014   4.652   3.380 -0.2570  0.0743 -0.1947
    1SOL    HW2 8102   2.080   4.687   3.441  0.3984  2.7845 -2.3768
    1SOL    HW3 8103   1.930   4.672   3.422  0.2046 -2.1846  1.9537
    1SOL    MW4 8104   2.012   4.660   3.394 -0.1094  0.1338 -0.1988
    1SOL     OW 8105   1.784   0.078   3.468  0.1129  0.6768  0.3707
    1SOL    HW2 8106   1.788   0.071   3.564  0.7826 -0.7460  0.2443
    1SOL    HW3 8107   1.697   0.048   3.445  0.4417 -0.3394  0.4273
    1SOL    MW4 8108   1.773   0.073   3.478  0.2445  0.3550  0.3614
    1SOL     OW 8109   1.824   0.350   3.365 -0.2043 -0.0506 -0.0110
    1SOL    HW2 8110   1.824   0.258   3.391  0.7990  0.1603  0.7890
    1SOL    HW3 8111   1.831   0.348   3.270  0.5250 -0.8045  0.0450
    1SOL    MW4 8112   1.825   0.337   3.356  0.0243 -0.1222  0.1018
    1SOL     OW 8113   2.050   0.447   3.489  0.1724  0.3956  0.1825
    1SOL    HW2 8114   2.053   0.542   3.477  1.2238  0.1274 -1.8086
    1SOL    HW3 8115   1.968   0.420   3.449  0.7702  0.2529 -0.9737
    1SOL    MW4 8116   2.040   0.456   3.482  0.3898  0.3414 -0.2327
    1SOL     OW 8117   2.056   0.734   3.431 -0.0060 -0.0407  0.0563
    1SOL    HW2 8118   2.127   0.793   3.457 -1.6609  1.3244  1.5925
    1SOL    HW3 8119   2.054   0.740   3.335  1.3198  0.6496  0.0646
    1SOL    MW4 8120   2.065   0.743   3.422 -0.0496  0.2305  0.2601
    1SOL     OW 8121   1.825   0.893   3.490 -0.8212  0.1381  0.1682
    1SOL    HW2 8122   1.903   0.840   3.475 -0.6559 -0.0419  1.6528
    1SOL    HW3 8123   1.753   0.840   3.456 -0.5990 -0.8421  1.2007
    1SOL    MW4 8124   1.826   0.879   3.483 -0.7701 -0.0151  0.5002
    1SOL     OW 8125   1.838   1.132   3.369 -0.4264 -0.0759  0.2972
    1SOL    HW2 8126   1.917   1.167   3.411 -1.4058  1.0980  1.1889
    1SOL    HW3 8127   1.837   1.039   3.394  1.1935 -0.3489 -0.5507
    1SOL    MW4 8128   1.848   1.124   3.378 -0.3419  0.0430  0.3028
    1SOL     OW 8129   2.045   1.280   3.478  0.2249  0.1238 -0.0941
    1SOL    HW2 8130   2.034   1.287   3.573  0.2895  0.3627 -0.1048
    1SOL    HW3 8131   2.032   1.369   3.446 -1.2612 -0.1977 -0.4515
    1SOL    MW4 8132   2.042   1.293   3.486  0.0374  0.1130 -0.1423
    1SOL     OW 8133   2.022   1.534   3.351 -0.0601 -0.3142 -0.6221
    1SOL    HW2 8134   2.101   1.573   3.388  0.2192 -2.1610  0.7703
    1SOL    HW3 8135   1.951   1.591   3.381  0.6941  1.3570 -1.8849
    1SOL    MW4 8136   2.023   1.547   3.360  0.0763 -0.3374 -0.6053
    1SOL     OW 8137   1.807   1.654   3.502  0.0939 -0.1841 -0.2108
    1SOL    HW2 8138   1.784   1.741   3.470 -0.0740  0.1547  0.8213
    1SOL    HW3 8139   1.737   1.597   3.470 -0.2358  0.2093 -0.1905
    1SOL    MW4 8140   1.794   1.658   3.494  0.0283 -0.0875 -0.0718
    1SOL     OW 8141   1.779   1.930   3.407 -0.2565 -0.2925 -0.4827
    1SOL    HW2 8142   1.867   1.968   3.413 -0.5937  0.6898 -1.5351
    1SOL    HW3 8143   1.757   1.936   3.314 -0.3834 -2.9669 -0.6357
    1SOL    MW4 8144   1.788   1.936   3.395 -0.3178 -0.5158 -0.6418
    1SOL     OW 8145   2.031   2.080   3.480  0.1844  0.1720 -0.3883
    1SOL    HW2 8146   2.108   2.028   3.459  0.6568  0.9340 -0.5884
    1SOL    HW3 8147   2.043   2.161   3.430 -1.3978 -0.2287 -1.4660
    1SOL    MW4 8148   2.042   2.084   3.470  0.0379  0.2193 -0.5569
    1SOL     OW 8149   2.068   2.327   3.355  0.0584  0.5729 -0.0062
    1SOL    HW2 8150   1.995   2.378   3.391 -0.4489 -0.4954  0.4961
    1SOL    HW3 8151   2.050   2.322   3.261 -1.5223 -1.2513  0.3601
    1SOL    MW4 8152   2.056   2.333   3.348 -0.2172  0.1915  0.1082
    1SOL     OW 8153   1.801   2.451   3.467  0.0505 -0.2681  0.0357
    1SOL    HW2 8154   1.791   2.461   3.562 -0.5178 -1.2059  0.0743
    1SOL    HW3 8155   1.727   2.397   3.440 -0.0501  0.3880 -1.0180
    1SOL    MW4 8156   1.790   2.445   3.476 -0.0378 -0.3054 -0.0982
    1SOL     OW 8157   1.814   2.724   3.427 -0.0130 -0.1539 -0.0267
    1SOL    HW2 8158   1.874   2.765   3.489  0.5473  0.1902 -0.7942
    1SOL    HW3 8159   1.820   2.630   3.445 -0.7937  0.0359  1.2840
    1SOL    MW4 8160   1.822   2.717   3.438 -0.0420 -0.0834  0.0446
    1SOL     OW 8161   2.043   2.810   3.564  0.1796  0.0947  0.5467
    1SOL    HW2 8162   2.046   2.821   3.659  0.9843  1.8825  0.3315
    1SOL    HW3 8163   2.040   2.899   3.530 -1.7886 -0.5591 -1.0694
    1SOL    MW4 8164   2.043   2.823   3.572  0.0262  0.2444  0.3054
    1SOL     OW 8165   2.012   3.060   3.403  0.0793 -0.2847  0.1391
    1SOL    HW2 8166   2.071   3.134   3.417  0.0921 -0.1943 -0.3769
    1SOL    HW3 8167   1.926   3.093   3.429 -0.0849  0.2337 -1.0119
    1SOL    MW4 8168   2.009   3.074   3.408  0.0594 -0.2043 -0.0806
    1SOL     OW 8169   1.790   3.190   3.508 -0.0490  0.3221  0.2091
    1SOL    HW2 8170   1.803   3.201   3.602 -1.4959  1.5130  0.2829
    1SOL    HW3 8171   1.793   3.279   3.473  1.6273 -0.2087 -1.0334
    1SOL    MW4 8172   1.792   3.203   3.516 -0.0187  0.4091  0.0548
    1SOL     OW 8173   1.778   3.454   3.408  0.4774 -0.0978  0.0999
    1SOL    HW2 8174   1.705   3.506   3.443 -0.2056 -0.6705 -0.4688
    1SOL    HW3 8175   1.778   3.474   3.314  1.3043  0.2064  0.1626
    1SOL    MW4 8176   1.768   3.464   3.400  0.4964 -0.1333  0.0329
    1SOL     OW 8177   2.004   3.619   3.490  0.3843  0.5184  0.2982
    1SOL    HW2 8178   2.086   3.584   3.456 -1.0422 -1.0914 -1.5956
    1SOL    HW3 8179   1.936   3.563   3.452 -1.6672  2.4313  1.0088
    1SOL    MW4 8180   2.006   3.607   3.481 -0.0744  0.5584  0.1421
    1SOL     OW 8181   1.999   3.889   3.394  0.3902 -0.5908 -0.1603
    1SOL    HW2 8182   1.937   3.948   3.437 -0.6163 -0.5093 -1.6597
    1SOL    HW3 8183   1.984   3.804   3.435 -1.8572 -0.9184 -1.5656
    1SOL    MW4 8184   1.989   3.886   3.405 -0.0390 -0.6235 -0.5434
    1SOL     OW 8185   1.793   4.036   3.523 -0.4808 -0.3752  0.3890
    1SOL    HW2 8186   1.779   4.046   3.617 -2.0112 -0.5818  0.2079
    1SOL    HW3 8187   1.718   3.984   3.494 -0.2842  0.1277 -1.0276
    1SOL    MW4 8188   1.781   4.030   3.532 -0.6570 -0.3362  0.1783
    1SOL     OW 8189   1.765   4.276   3.399 -0.0462  0.1028  0.4579
    1SOL    HW2 8190   1.785   4.195   3.445 -1.2971 -0.3912  0.1603
    1SOL    HW3 8191   1.771   4.253   3.306 -0.1600  0.4154  0.3719
    1SOL    MW4 8192   1.768   4.262   3.393 -0.2264  0.0787  0.4075
    1SOL     OW 8193   2.019   4.388   3.473  0.0101 -0.4733 -0.3082
    1SOL    HW2 8194   1.933   4.350   3.453  0.5648 -2.2614  0.5874
    1SOL    HW3 8195   2.022   4.469   3.422 -2.0058 -0.6467 -0.7369
    1SOL    MW4 8196   2.008   4.393   3.464 -0.1831 -0.7324 -0.2468
    1SOL     OW 8197   2.478   4.629   3.410 -0.5805  0.0779 -0.4821
    1SOL    HW2 8198   2.473   4.537   3.435 -0.1491  0.1446 -0.1429
    1SOL    HW3 8199   2.492   4.628   3.315  0.0891 -0.2141 -0.3789
    1SOL    MW4 8200   2.479   4.617   3.401 -0.4349  0.0482 -0.4237
    1SOL     OW 8201   2.252   0.131   3.519 -0.5139 -0.7178  0.1565
    1SOL    HW2 8202   2.267   0.219   3.483 -2.2323 -0.2529  0.5211
    1SOL    HW3 8203   2.324   0.078   3.485 -0.7096  0.3089 -1.9026
    1SOL    MW4 8204   2.263   0.136   3.510 -0.7663 -0.5210 -0.0670
    1SOL     OW 8205   2.292   0.366   3.378 -0.9071 -0.6902 -0.1582
    1SOL    HW2 8206   2.361   0.398   3.437 -1.1309 -2.5502  1.1683
    1SOL    HW3 8207   2.211   0.397   3.417 -0.9288 -0.0924 -0.6809
    1SOL    MW4 8208   2.290   0.374   3.391 -0.9394 -0.8568 -0.0522
    1SOL     OW 8209   2.475   0.483   3.528  0.0290 -0.4490 -0.1988
    1SOL    HW2 8210   2.545   0.444   3.476  1.5616  0.8019  0.8621
    1SOL    HW3 8211   2.466   0.572   3.494 -0.3014 -0.2603  0.3658
    1SOL    MW4 8212   2.483   0.490   3.517  0.1879 -0.2591  0.0157
    1SOL     OW 8213   2.462   0.755   3.380 -0.1728  0.0713 -0.1680
    1SOL    HW2 8214   2.535   0.801   3.421  0.2941 -0.1479 -0.7440
    1SOL    HW3 8215   2.469   0.778   3.287  0.7708 -2.1096 -0.6591
    1SOL    MW4 8216   2.473   0.764   3.373  0.0134 -0.2453 -0.3085
    1SOL     OW 8217   2.256   0.883   3.532  0.2554  0.3659  0.0787
    1SOL    HW2 8218   2.235   0.970   3.498 -0.7718  0.0204 -0.2050
    1SOL    HW3 8219   2.322   0.848   3.472 -0.2763  0.4454 -0.5558
    1SOL    MW4 8220   2.262   0.890   3.520  0.0498  0.3307 -0.0424
    1SOL     OW 8221   2.251   1.123   3.411  0.1291 -0.0790  0.3486
    1SOL    HW2 8222   2.321   1.181   3.438 -0.3929  0.8505 -0.2865
    1SOL    HW3 8223   2.171   1.174   3.421 -0.1799 -0.0410 -1.9210
    1SOL    MW4 8224   2.249   1.137   3.416  0.0196  0.0488 -0.0346
    1SOL     OW 8225   2.453   1.272   3.511  0.2069  0.3302 -0.2130
    1SOL    HW2 8226   2.463   1.280   3.605  0.0740 -0.6235 -0.1100
    1SOL    HW3 8227   2.538   1.241   3.480  0.0165 -0.0934 -0.3123
    1SOL    MW4 8228   2.465   1.269   3.519  0.1645  0.1485 -0.2127
    1SOL     OW 8229   2.468   1.531   3.412  0.0158 -0.4299  0.0665
    1SOL    HW2 8230   2.450   1.440   3.434  0.2227 -0.3309  0.6412
    1SOL    HW3 8231   2.446   1.538   3.319 -0.1444 -1.0265  0.0602
    1SOL    MW4 8232   2.463   1.520   3.402  0.0222 -0.4956  0.1416
    1SOL     OW 8233   2.241   1.678   3.500  0.1429 -0.5045  0.1338
    1SOL    HW2 8234   2.244   1.668   3.595 -0.6828 -1.8855  0.0300
    1SOL    HW3 8235   2.325   1.642   3.470  0.3752 -0.1297  0.3344
    1SOL    MW4 8236   2.253   1.672   3.509  0.0648 -0.6372  0.1464
    1SOL     OW 8237   2.233   1.931   3.378  0.0752  0.0515  0.0072
    1SOL    HW2 8238   2.226   1.841   3.412  0.4015 -0.1973 -0.5736
    1SOL    HW3 8239   2.230   1.921   3.283  2.7273  0.3967 -0.1554
    1SOL    MW4 8240   2.232   1.918   3.370  0.4678  0.0644 -0.0906
    1SOL     OW 8241   2.501   2.019   3.488  0.3998  0.7198 -0.2338
    1SOL    HW2 8242   2.416   1.987   3.458 -0.1184  0.9309  0.9733
    1SOL    HW3 8243   2.498   2.113   3.474  0.0592  0.8532  0.6730
    1SOL    MW4 8244   2.489   2.027   3.482  0.2863  0.7653  0.0451
    1SOL     OW 8245   2.496   2.286   3.395  0.0962  0.0840  0.1829
    1SOL    HW2 8246   2.418   2.342   3.402  1.0099  1.6010 -1.3817
    1SOL    HW3 8247   2.566   2.338   3.433  1.4069  0.9841 -3.2916
    1SOL    MW4 8248   2.495   2.301   3.401  0.3898  0.4032 -0.4818
    1SOL     OW 8249   2.283   2.436   3.477  0.6011  0.1018  0.0581
    1SOL    HW2 8250   2.205   2.386   3.451  1.1426 -0.0778 -1.2878
    1SOL    HW3 8251   2.263   2.526   3.452  0.3774  0.2377  0.7376
    1SOL    MW4 8252   2.270   2.441   3.470  0.6430  0.0958 -0.0298
    1SOL     OW 8253   2.253   2.700   3.430 -0.1462 -0.1068 -0.5313
    1SOL    HW2 8254   2.172   2.735   3.466  1.2041  1.9650  0.5540
    1SOL    HW3 8255   2.244   2.709   3.335 -0.7063  1.2054 -0.3586
    1SOL    MW4 8256   2.241   2.705   3.422 -0.0420  0.3395 -0.3650
    1SOL     OW 8257   2.475   2.857   3.506 -0.5153 -0.5509  0.2633
    1SOL    HW2 8258   2.448   2.943   3.475  0.7815 -0.2914 -0.1657
    1SOL    HW3 8259   2.414   2.796   3.464 -1.0854  0.0945  0.1372
    1SOL    MW4 8260   2.463   2.860   3.496 -0.4196 -0.4315  0.1900
    1SOL     OW 8261   2.441   3.128   3.422 -0.0298 -0.1075 -0.2799
    1SOL    HW2 8262   2.520   3.177   3.445  0.4727 -0.7131 -0.6971
    1SOL    HW3 8263   2.450   3.110   3.328 -0.9166  0.2713 -0.4463
    1SOL    MW4 8264   2.452   3.132   3.413 -0.0806 -0.1373 -0.3569
    1SOL     OW 8265   2.214   3.259   3.502 -0.2416 -0.1542  0.0291
    1SOL    HW2 8266   2.216   3.252   3.598  1.0872  2.7715  0.2663
    1SOL    HW3 8267   2.288   3.206   3.473  0.0927 -0.0634  0.6939
    1SOL    MW4 8268   2.224   3.251   3.511 -0.0222  0.2439  0.1483
    1SOL     OW 8269   2.247   3.519   3.401  0.0660 -0.5718  0.1191
    1SOL    HW2 8270   2.244   3.426   3.423  2.0509 -1.0400 -1.3521
    1SOL    HW3 8271   2.258   3.520   3.306  0.7019  1.1376  0.1956
    1SOL    MW4 8272   2.248   3.507   3.391  0.4120 -0.4082 -0.0648
    1SOL     OW 8273   2.493   3.616   3.467 -0.2458 -0.0971 -0.4209
    1SOL    HW2 8274   2.483   3.707   3.438 -0.4976  0.2409  0.6788
    1SOL    HW3 8275   2.412   3.573   3.441 -0.5912  0.2730  0.0304
    1SOL    MW4 8276   2.481   3.623   3.460 -0.3245 -0.0036 -0.2165
    1SOL     OW 8277   2.448   3.868   3.377  0.2806  0.2681 -0.5477
    1SOL    HW2 8278   2.518   3.932   3.387  0.7131 -0.0082 -1.7754
    1SOL    HW3 8279   2.369   3.914   3.405  0.8084  0.8831 -0.0799
    1SOL    MW4 8280   2.447   3.882   3.382  0.4072  0.3128 -0.6480
    1SOL     OW 8281   2.234   3.996   3.471  0.1894 -0.1187  0.0422
    1SOL    HW2 8282   2.240   4.079   3.424 -1.9209  0.5043  0.8478
    1SOL    HW3 8283   2.156   3.954   3.435 -0.2354 -0.5858  1.5073
    1SOL    MW4 8284   2.225   4.001   3.460 -0.1452 -0.0982  0.3417
    1SOL     OW 8285   2.236   4.244   3.354  0.0715 -0.0165  0.3313
    1SOL    HW2 8286   2.155   4.294   3.367 -0.1084  0.1916 -1.4230
    1SOL    HW3 8287   2.243   4.235   3.259  1.0530 -1.7812  0.5570
    1SOL    MW4 8288   2.226   4.249   3.343  0.1774 -0.2217  0.1297
    1SOL     OW 8289   2.461   4.356   3.453 -0.1267 -0.0123  0.0201
    1SOL    HW2 8290   2.464   4.348   3.548 -0.4877 -1.2971 -0.0657
    1SOL    HW3 8291   2.374   4.326   3.428 -0.0323  0.3008 -0.7210
    1SOL    MW4 8292   2.450   4.351   3.462 -0.1619 -0.1411 -0.0889
    1SOL     OW 8293   2.958   4.642   3.345  1.2745  0.0009  0.0077
    1SOL    HW2 8294   2.875   4.670   3.383  1.5117 -0.6760  1.0594
    1SOL    HW3 8295   2.946   4.652   3.250  0.6546  1.6519  0.2463
    1SOL    MW4 8296   2.946   4.647   3.337  1.2238  0.1297  0.1779
    1SOL     OW 8297   2.724   0.068   3.484  0.0296  0.4573  0.3447
    1SOL    HW2 8298   2.734   0.065   3.579  1.0390 -0.4006  0.2247
    1SOL    HW3 8299   2.634   0.038   3.468  0.0444  0.0527  1.0031
    1SOL    MW4 8300   2.714   0.063   3.494  0.1647  0.2907  0.4158
    1SOL     OW 8301   2.678   0.357   3.390 -0.3624 -0.2119  0.7622
    1SOL    HW2 8302   2.759   0.399   3.421 -0.7772 -0.6708  2.5492
    1SOL    HW3 8303   2.685   0.266   3.421 -1.1036 -0.5157  0.0496
    1SOL    MW4 8304   2.690   0.350   3.399 -0.5150 -0.3126  0.9041
    1SOL     OW 8305   2.900   0.483   3.490  0.6540 -0.0733  0.1504
    1SOL    HW2 8306   2.913   0.505   3.582 -1.4722  1.1943  0.1918
    1SOL    HW3 8307   2.905   0.567   3.444  0.0372 -0.4731 -0.6655
    1SOL    MW4 8308   2.902   0.497   3.496  0.2921  0.0412  0.0482
    1SOL     OW 8309   2.917   0.742   3.345  0.5228  0.1767 -0.1643
    1SOL    HW2 8310   2.995   0.795   3.360  0.5344  0.3769 -0.8837
    1SOL    HW3 8311   2.847   0.788   3.392  0.6962  0.3852 -0.1094
    1SOL    MW4 8312   2.918   0.755   3.353  0.5472  0.2306 -0.2520
    1SOL     OW 8313   2.707   0.890   3.461 -0.0396  0.2861 -0.1103
    1SOL    HW2 8314   2.715   0.870   3.554  0.9424 -0.2559 -0.3071
    1SOL    HW3 8315   2.719   0.985   3.455 -1.0891  0.4611  0.4186
    1SOL    MW4 8316   2.709   0.900   3.473 -0.0484  0.2377 -0.0663
    1SOL     OW 8317   2.700   1.166   3.415 -0.1005  0.4633 -0.1126
    1SOL    HW2 8318   2.782   1.214   3.423  1.1710 -1.7989  0.7684
    1SOL    HW3 8319   2.686   1.159   3.320  1.4166 -0.2634 -0.2962
    1SOL    MW4 8320   2.709   1.171   3.403  0.2673  0.0689 -0.0207
    1SOL     OW 8321   2.949   1.294   3.477 -0.0607  0.6509  0.5501
    1SOL    HW2 8322   2.943   1.279   3.571  0.4775  1.2652  0.6841
    1SOL    HW3 8323   3.012   1.228   3.446  0.0108  0.6663  0.6659
    1SOL    MW4 8324   2.956   1.283   3.485  0.0193  0.7340  0.5829
    1SOL     OW 8325   2.927   1.542   3.374  0.4821  0.1787 -0.0398
    1SOL    HW2 8326   2.864   1.590   3.428 -1.4712 -1.3698 -0.8935
    1SOL    HW3 8327   2.925   1.453   3.408  1.2118 -0.1972 -0.9467
    1SOL    MW4 8328   2.918   1.536   3.386  0.3207 -0.0752 -0.2720
    1SOL     OW 8329   2.693   1.672   3.508 -0.2281 -0.3396  0.2050
    1SOL    HW2 8330   2.701   1.751   3.455  0.8832 -0.5975 -0.0418
    1SOL    HW3 8331   2.619   1.625   3.471 -0.1483  0.0205 -0.4166
    1SOL    MW4 8332   2.684   1.676   3.496 -0.0710 -0.3262  0.0904
    1SOL     OW 8333   2.704   1.897   3.363 -0.4155  0.2685 -0.5071
    1SOL    HW2 8334   2.623   1.939   3.393 -0.3983 -0.1321  0.0934
    1SOL    HW3 8335   2.709   1.919   3.270 -1.6210 -0.3337 -0.7298
    1SOL    MW4 8336   2.694   1.905   3.354 -0.5720  0.1363 -0.4573
    1SOL     OW 8337   2.939   2.009   3.471 -0.5767 -0.0327  0.3535
    1SOL    HW2 8338   2.930   2.024   3.566 -2.0138  0.7883  0.1010
    1SOL    HW3 8339   2.854   1.976   3.444 -0.3075  0.1583 -0.7475
    1SOL    MW4 8340   2.927   2.006   3.480 -0.7308  0.1009  0.1750
    1SOL     OW 8341   2.918   2.267   3.395  0.0872 -0.0511 -0.3187
    1SOL    HW2 8342   2.932   2.176   3.420 -0.4599  0.0392  0.3257
    1SOL    HW3 8343   2.954   2.273   3.306 -0.2807 -1.0034 -0.5413
    1SOL    MW4 8344   2.924   2.256   3.387 -0.0334 -0.1647 -0.2630
    1SOL     OW 8345   2.705   2.434   3.501 -0.1322 -0.7766 -0.1259
    1SOL    HW2 8346   2.706   2.432   3.597 -0.0635  0.4859 -0.1013
    1SOL    HW3 8347   2.765   2.363   3.476 -0.2570 -1.2056  0.7622
    1SOL    MW4 8348   2.713   2.424   3.510 -0.1395 -0.6666 -0.0055
    1SOL     OW 8349   2.694   2.719   3.431 -0.1134  0.4245 -0.0740
    1SOL    HW2 8350   2.695   2.635   3.477  1.4410  0.3280 -0.2732
    1SOL    HW3 8351   2.624   2.768   3.474 -0.5953 -0.7262  0.4849
    1SOL    MW4 8352   2.685   2.715   3.443  0.0279  0.2596 -0.0265
    1SOL     OW 8353   2.948   2.832   3.478  0.0440 -0.3181 -0.7286
    1SOL    HW2 8354   2.970   2.825   3.571  1.6351  0.3275 -1.0380
    1SOL    HW3 8355   2.858   2.800   3.472 -0.7380  1.3525  1.3217
    1SOL    MW4 8356   2.939   2.827   3.489  0.1507 -0.0124 -0.4990
    1SOL     OW 8357   2.904   3.075   3.347 -0.5878  0.0130  0.4412
    1SOL    HW2 8358   2.911   2.990   3.390 -0.6636  0.4324  1.2972
    1SOL    HW3 8359   2.905   3.055   3.254  0.7667 -0.8120  0.6186
    1SOL    MW4 8360   2.905   3.061   3.341 -0.4194 -0.0405  0.5777
    1SOL     OW 8361   2.693   3.231   3.461  0.0129 -0.6577  0.2512
    1SOL    HW2 8362   2.707   3.229   3.556 -0.3927 -0.9683  0.3047
    1SOL    HW3 8363   2.758   3.169   3.427  0.1063 -0.6043  0.3301
    1SOL    MW4 8364   2.703   3.222   3.469 -0.0281 -0.6917  0.2687
    1SOL     OW 8365   2.694   3.473   3.312 -0.1635 -0.1080 -0.2509
    1SOL    HW2 8366   2.703   3.384   3.347  2.0314  0.3545  0.4451
    1SOL    HW3 8367   2.632   3.516   3.370 -0.1189 -0.7460  0.2781
    1SOL    MW4 8368   2.687   3.467   3.324  0.1321 -0.1311 -0.0892
    1SOL     OW 8369   2.894   3.606   3.461 -0.6615  0.3126 -0.4237
    1SOL    HW2 8370   2.902   3.698   3.434  0.0967  0.2398 -0.4670
    1SOL    HW3 8371   2.829   3.569   3.402 -1.9384  1.1499  0.4371
    1SOL    MW4 8372   2.887   3.613   3.450 -0.7300  0.4137 -0.3159
    1SOL     OW 8373   2.910   3.869   3.387  0.1377  0.0496 -0.5314
    1SOL    HW2 8374   2.994   3.901   3.418 -0.0824 -0.1806  0.3229
    1SOL    HW3 8375   2.846   3.934   3.417 -0.1216 -0.3789 -0.1326
    1SOL    MW4 8376   2.913   3.882   3.395  0.0741 -0.0374 -0.3657
    1SOL     OW 8377   2.682   4.032   3.432 -0.7082 -0.4428 -0.2083
    1SOL    HW2 8378   2.656   4.026   3.524 -0.6505 -2.4345 -0.2821
    1SOL    HW3 8379   2.679   4.125   3.411  1.1906  0.2645  2.3774
    1SOL    MW4 8380   2.678   4.043   3.442 -0.4499 -0.6118  0.1230
    1SOL     OW 8381   2.703   4.279   3.320 -0.9163  0.1006 -0.2612
    1SOL    HW2 8382   2.784   4.299   3.369 -0.9671 -1.1524  0.3835
    1SOL    HW3 8383   2.633   4.317   3.373 -1.0577 -2.1105  1.2132
    1SOL    MW4 8384   2.705   4.286   3.334 -0.9415 -0.3562  0.0184
    1SOL     OW 8385   2.936   4.389   3.444 -0.4398  0.1914 -0.1011
    1SOL    HW2 8386   2.930   4.413   3.537  1.8796 -0.1689  0.1738
    1SOL    HW3 8387   2.941   4.472   3.398  0.1870  0.3394  0.2381
    1SOL    MW4 8388   2.936   4.403   3.450 -0.0513  0.1636 -0.0200
    1SOL     OW 8389   3.363   4.659   3.396  0.0740 -0.1188 -0.0591
    1SOL    HW2 8390   3.282   4.692   3.434  0.8863  0.2114  1.4004
    1SOL    HW3 8391   3.344   4.652   3.302 -1.0244  1.7622 -0.0062
    1SOL    MW4 8392   3.350   4.662   3.389  0.0362  0.1731  0.1404
    1SOL     OW 8393   3.147   0.127   3.510 -0.0615  0.5217 -0.0760
    1SOL    HW2 8394   3.148   0.210   3.464  0.8341 -0.0557 -1.1007
    1SOL    HW3 8395   3.085   0.073   3.462 -0.3954  0.4850  0.3925
    1SOL    MW4 8396   3.139   0.131   3.498  0.0126  0.4406 -0.1493
    1SOL     OW 8397   3.139   0.380   3.387  0.2016  0.2920  0.2812
    1SOL    HW2 8398   3.056   0.421   3.413  0.2139  0.0371  0.7334
    1SOL    HW3 8399   3.147   0.399   3.294  0.2443  1.3820  0.4946
    1SOL    MW4 8400   3.129   0.388   3.378  0.2091  0.4022  0.3693
    1SOL     OW 8401   3.356   0.523   3.466 -0.2904  0.4350  0.3126
    1SOL    HW2 8402   3.350   0.527   3.561 -1.3817  0.4710  0.2576
    1SOL    HW3 8403   3.278   0.472   3.440  1.0642 -1.3039 -0.4213
    1SOL    MW4 8404   3.345   0.517   3.475 -0.2556  0.2104  0.2084
    1SOL     OW 8405   3.391   0.783   3.355  0.1611  0.1520 -0.1806
    1SOL    HW2 8406   3.473   0.818   3.390  0.7264 -0.5955 -0.7445
    1SOL    HW3 8407   3.381   0.698   3.397 -1.2318  0.9961  1.2161
    1SOL    MW4 8408   3.401   0.777   3.365  0.0517  0.1648 -0.0706
    1SOL     OW 8409   3.140   0.871   3.433  0.1573  0.3002  0.2303
    1SOL    HW2 8410   3.144   0.965   3.417  0.2452  0.2373 -0.1250
    1SOL    HW3 8411   3.224   0.837   3.400  0.4191  0.1924  1.0027
    1SOL    MW4 8412   3.152   0.879   3.426  0.2034  0.2777  0.2854
    1SOL     OW 8413   3.145   1.145   3.355  0.1179 -0.1492 -0.6727
    1SOL    HW2 8414   3.227   1.183   3.387  0.2748 -1.2580  0.2799
    1SOL    HW3 8415   3.151   1.151   3.260  0.0020  2.4688 -0.5470
    1SOL    MW4 8416   3.157   1.151   3.346  0.1235  0.0498 -0.5302
    1SOL     OW 8417   3.381   1.269   3.435 -0.2681  0.2824 -0.5610
    1SOL    HW2 8418   3.465   1.232   3.407 -0.8871  0.3694 -2.6623
    1SOL    HW3 8419   3.387   1.362   3.411 -0.3839  0.6274  0.7099
    1SOL    MW4 8420   3.393   1.276   3.428 -0.3650  0.3395 -0.6707
    1SOL     OW 8421   3.377   1.534   3.365  0.1041 -0.3120  0.0920
    1SOL    HW2 8422   3.448   1.591   3.393  0.2467  0.0224 -0.9252
    1SOL    HW3 8423   3.298   1.575   3.400 -0.0232  1.7612 -2.4954
    1SOL    MW4 8424   3.376   1.547   3.373  0.1061  0.0055 -0.3836
    1SOL     OW 8425   3.157   1.638   3.473  0.3719 -0.7464 -0.3390
    1SOL    HW2 8426   3.170   1.725   3.434  0.8532 -0.2305  0.9234
    1SOL    HW3 8427   3.079   1.604   3.430  0.0758  0.3870 -0.7372
    1SOL    MW4 8428   3.149   1.645   3.462  0.3963 -0.5288 -0.2251
    1SOL     OW 8429   3.162   1.893   3.335 -0.1989 -0.2758 -0.3010
    1SOL    HW2 8430   3.089   1.928   3.386 -0.3520  1.0099 -1.3731
    1SOL    HW3 8431   3.239   1.936   3.371 -0.3467  0.9157 -1.3715
    1SOL    MW4 8432   3.162   1.903   3.346 -0.2384  0.0510 -0.5836
    1SOL     OW 8433   3.348   2.061   3.480 -0.2700 -0.0631 -0.4254
    1SOL    HW2 8434   3.337   2.154   3.459 -0.8924 -0.0487 -0.0518
    1SOL    HW3 8435   3.336   2.056   3.575  1.1277 -0.3304 -0.2616
    1SOL    MW4 8436   3.345   2.073   3.489 -0.1674 -0.0963 -0.3548
    1SOL     OW 8437   3.309   2.330   3.441 -0.3036  0.3921 -0.2843
    1SOL    HW2 8438   3.394   2.368   3.464 -0.2710 -0.4018  0.9946
    1SOL    HW3 8439   3.245   2.382   3.489 -0.1931 -1.6292  2.1864
    1SOL    MW4 8440   3.312   2.342   3.451 -0.2847  0.0205  0.2105
    1SOL     OW 8441   3.094   2.470   3.528  0.2093  0.2928  0.0579
    1SOL    HW2 8442   3.115   2.537   3.463  0.1956  0.7433  0.5161
    1SOL    HW3 8443   3.040   2.407   3.480  0.7848  0.2525 -0.5555
    1SOL    MW4 8444   3.090   2.470   3.513  0.2832  0.3471  0.0374
    1SOL     OW 8445   3.147   2.672   3.375  0.1724 -0.1277  0.2983
    1SOL    HW2 8446   3.220   2.706   3.426  1.1261 -0.4720 -0.7977
    1SOL    HW3 8447   3.072   2.726   3.399  0.7924  0.2271  1.4361
    1SOL    MW4 8448   3.147   2.683   3.385  0.3798 -0.1264  0.3035
    1SOL     OW 8449   3.358   2.809   3.498  0.3717  0.1004  0.1042
    1SOL    HW2 8450   3.387   2.820   3.589 -0.5254  1.2045  0.2663
    1SOL    HW3 8451   3.348   2.899   3.465 -1.4041 -0.2669 -0.4126
    1SOL    MW4 8452   3.361   2.823   3.506  0.0191  0.1976  0.0577
    1SOL     OW 8453   3.329   3.058   3.381 -0.3913 -0.2868  0.2500
    1SOL    HW2 8454   3.385   3.116   3.432  0.4329 -0.6636 -0.2217
    1SOL    HW3 8455   3.241   3.094   3.391  0.2191  1.4860 -0.6516
    1SOL    MW4 8456   3.325   3.070   3.389 -0.2019 -0.1025  0.0687
    1SOL     OW 8457   3.133   3.219   3.463 -0.3385 -0.1075 -0.0395
    1SOL    HW2 8458   3.148   3.308   3.431 -0.3685  0.8384  2.4273
    1SOL    HW3 8459   3.046   3.197   3.432  0.6542 -0.3272 -2.8674
    1SOL    MW4 8460   3.124   3.228   3.455 -0.2115 -0.0114 -0.0870
    1SOL     OW 8461   3.144   3.489   3.378  0.5133  0.0414 -0.1934
    1SOL    HW2 8462   3.061   3.519   3.413 -0.1898 -1.7768 -0.2423
    1SOL    HW3 8463   3.133   3.493   3.283  1.0371  1.2435 -0.2162
    1SOL    MW4 8464   3.132   3.493   3.370  0.4895 -0.0398 -0.2027
    1SOL     OW 8465   3.389   3.589   3.468 -0.1597  0.2383  0.4414
    1SOL    HW2 8466   3.404   3.681   3.445 -0.3248  0.5402  1.5295
    1SOL    HW3 8467   3.299   3.572   3.440  0.0913  0.2062 -0.3767
    1SOL    MW4 8468   3.379   3.599   3.461 -0.1485  0.2737  0.4773
    1SOL     OW 8469   3.399   3.852   3.382  0.1134 -0.2465 -0.1568
    1SOL    HW2 8470   3.464   3.917   3.409 -0.0760 -0.0263 -0.2324
    1SOL    HW3 8471   3.315   3.889   3.410  0.1337 -1.1384  1.1208
    1SOL    MW4 8472   3.397   3.866   3.389  0.0916 -0.3352  0.0017
    1SOL     OW 8473   3.139   3.962   3.495 -0.4827  0.5360 -0.4348
    1SOL    HW2 8474   3.155   3.967   3.589  0.7065 -2.2380 -0.4545
    1SOL    HW3 8475   3.155   4.051   3.464 -2.0418  1.7766  2.1348
    1SOL    MW4 8476   3.143   3.975   3.503 -0.5317  0.3338 -0.0985
    1SOL     OW 8477   3.160   4.227   3.396  0.3316 -0.1868  0.1617
    1SOL    HW2 8478   3.249   4.261   3.409  0.7259 -0.4368 -1.7464
    1SOL    HW3 8479   3.104   4.293   3.436  1.3637  0.0198  1.3119
    1SOL    MW4 8480   3.164   4.240   3.403  0.5198 -0.1917  0.0618
    1SOL     OW 8481   3.393   4.383   3.455  0.2434 -0.2368  0.4954
    1SOL    HW2 8482   3.387   4.383   3.551 -0.6577 -0.9497  0.4418
    1SOL    HW3 8483   3.375   4.474   3.431 -0.8551 -0.3211  0.9345
    1SOL    MW4 8484   3.390   4.395   3.465 -0.0203 -0.3414  0.5462
    1SOL     OW 8485   3.855   4.663   3.362  0.0213  0.0987  0.1423
    1SOL    HW2 8486   3.776   4.688   3.411 -0.2261 -1.3645  0.4919
    1SOL    HW3 8487   3.833   4.682   3.271 -1.1465 -1.3284  0.1174
    1SOL    MW4 8488   3.842   4.669   3.356 -0.1652 -0.2823  0.1853
    1SOL     OW 8489   3.618   0.127   3.480 -0.1995  0.6987 -0.4160
    1SOL    HW2 8490   3.595   0.212   3.442 -3.0355  1.9140  3.6603
    1SOL    HW3 8491   3.546   0.069   3.454  0.1718  0.3179 -0.6142
    1SOL    MW4 8492   3.605   0.130   3.471 -0.5250  0.8088  0.0956
    1SOL     OW 8493   3.585   0.392   3.375  0.8316  0.2780 -0.3097
    1SOL    HW2 8494   3.664   0.428   3.415  0.1374  2.6067 -0.9842
    1SOL    HW3 8495   3.514   0.445   3.410 -0.4381 -1.7711  0.2495
    1SOL    MW4 8496   3.586   0.404   3.385  0.5727  0.3149 -0.3247
    1SOL     OW 8497   3.830   0.477   3.511 -0.2034 -0.6897  0.2481
    1SOL    HW2 8498   3.813   0.472   3.605  1.7040 -1.4121  0.5849
    1SOL    HW3 8499   3.913   0.430   3.499  0.3853  0.7350 -1.5592
    1SOL    MW4 8500   3.839   0.470   3.522  0.1261 -0.5970  0.0539
    1SOL     OW 8501   3.874   0.754   3.392  0.8546 -0.1062  0.2465
    1SOL    HW2 8502   3.943   0.799   3.441  1.8568  0.7366 -1.8809
    1SOL    HW3 8503   3.864   0.670   3.437  1.3143  0.8802  2.2375
    1SOL    MW4 8504   3.882   0.749   3.404  1.0476  0.1352  0.2284
    1SOL     OW 8505   3.631   0.884   3.478  0.4499 -0.2501 -0.2027
    1SOL    HW2 8506   3.640   0.885   3.573  0.6209 -0.4787 -0.2178
    1SOL    HW3 8507   3.709   0.840   3.446  1.3936  1.6532 -0.5732
    1SOL    MW4 8508   3.642   0.878   3.486  0.5970 -0.0291 -0.2537
    1SOL     OW 8509   3.630   1.138   3.351  0.2306 -0.0707  0.2922
    1SOL    HW2 8510   3.634   1.046   3.375  0.9920  0.3065  1.6532
    1SOL    HW3 8511   3.607   1.138   3.258  0.2242 -1.6231  0.2885
    1SOL    MW4 8512   3.627   1.126   3.342  0.3304 -0.2258  0.4714
    1SOL     OW 8513   3.838   1.291   3.449 -0.1557 -0.5767  0.2079
    1SOL    HW2 8514   3.813   1.279   3.541 -0.6638  0.0499  0.1519
    1SOL    HW3 8515   3.763   1.258   3.399  0.3900 -1.5364  0.0035
    1SOL    MW4 8516   3.825   1.285   3.455 -0.1509 -0.6208  0.1736
    1SOL     OW 8517   3.775   1.576   3.381  0.1985  0.0284 -0.1797
    1SOL    HW2 8518   3.855   1.623   3.406  0.8588 -0.2938 -1.6255
    1SOL    HW3 8519   3.793   1.485   3.404 -0.1475  0.1094  0.4178
    1SOL    MW4 8520   3.788   1.570   3.387  0.2398 -0.0035 -0.2916
    1SOL     OW 8521   3.564   1.705   3.459 -0.1401  0.3690  0.2806
    1SOL    HW2 8522   3.570   1.794   3.425  0.2823  0.7371  1.3051
    1SOL    HW3 8523   3.639   1.659   3.422  0.3702  0.7936  0.7867
    1SOL    MW4 8524   3.575   1.710   3.450 -0.0169  0.4736  0.4826
    1SOL     OW 8525   3.582   1.957   3.359 -0.0983  0.1441 -0.1871
    1SOL    HW2 8526   3.656   1.994   3.407 -0.9539 -2.0135  3.0156
    1SOL    HW3 8527   3.505   1.991   3.406 -1.0671  0.4017 -1.9478
    1SOL    MW4 8528   3.582   1.966   3.372 -0.3388 -0.1066  0.0031
    1SOL     OW 8529   3.806   2.087   3.466 -0.2569  0.4309 -0.1653
    1SOL    HW2 8530   3.808   2.085   3.562 -1.0351  0.1449 -0.1521
    1SOL    HW3 8531   3.890   2.050   3.440  0.9581  2.6878  0.4097
    1SOL    MW4 8532   3.817   2.082   3.475 -0.1991  0.6909 -0.0877
    1SOL     OW 8533   3.798   2.333   3.323  0.4084 -0.5167 -0.2400
    1SOL    HW2 8534   3.872   2.379   3.364  1.7418 -1.5616 -1.4335
    1SOL    HW3 8535   3.802   2.244   3.360 -2.0782  0.2281  1.9642
    1SOL    MW4 8536   3.808   2.327   3.333  0.2561 -0.5562 -0.1066
    1SOL     OW 8537   3.569   2.422   3.460  0.3134  0.1394 -0.1419
    1SOL    HW2 8538   3.567   2.513   3.428  1.7074  0.2124 -0.0295
    1SOL    HW3 8539   3.639   2.380   3.411 -1.1676 -1.2515 -1.1222
    1SOL    MW4 8540   3.578   2.429   3.449  0.3023 -0.0346 -0.2563
    1SOL     OW 8541   3.575   2.684   3.369  0.4308 -0.3414  0.2353
    1SOL    HW2 8542   3.652   2.729   3.403  0.5214 -0.6025  0.3748
    1SOL    HW3 8543   3.501   2.724   3.415  0.4650  0.0176 -0.0114
    1SOL    MW4 8544   3.575   2.695   3.379  0.4473 -0.3281  0.2213
    1SOL     OW 8545   3.795   2.808   3.453 -0.0357 -0.3066 -0.2688
    1SOL    HW2 8546   3.783   2.793   3.546 -0.0916 -1.4938 -0.4516
    1SOL    HW3 8547   3.777   2.901   3.440  1.3285  0.1737  1.1093
    1SOL    MW4 8548   3.791   2.818   3.463  0.1369 -0.4001 -0.1113
    1SOL     OW 8549   3.756   3.081   3.377 -0.1189 -0.2870  0.3860
    1SOL    HW2 8550   3.835   3.121   3.414 -0.0162 -0.9083  0.8481
    1SOL    HW3 8551   3.780   3.062   3.286 -0.4288  1.4043 -0.0771
    1SOL    MW4 8552   3.770   3.084   3.370 -0.1462 -0.1459  0.3858
    1SOL     OW 8553   3.535   3.217   3.469  0.3487  0.2098 -0.2632
    1SOL    HW2 8554   3.563   3.305   3.444  0.2326  0.7358  1.4498
    1SOL    HW3 8555   3.599   3.159   3.428  0.4786  1.0841 -1.3283
    1SOL    MW4 8556   3.547   3.221   3.460  0.3507  0.3946 -0.1779
    1SOL     OW 8557   3.604   3.471   3.355  0.0431  0.1105 -0.1173
    1SOL    HW2 8558   3.520   3.511   3.378 -0.2709 -0.6346  0.0423
    1SOL    HW3 8559   3.597   3.453   3.262 -0.8213 -1.9241  0.3078
    1SOL    MW4 8560   3.592   3.474   3.346 -0.1123 -0.2563 -0.0403
    1SOL     OW 8561   3.830   3.634   3.455  0.0719  0.1588 -0.1036
    1SOL    HW2 8562   3.818   3.630   3.550  0.4384 -1.3472 -0.0971
    1SOL    HW3 8563   3.755   3.586   3.419  0.4911 -0.1990 -0.5134
    1SOL    MW4 8564   3.819   3.627   3.463  0.1752 -0.0873 -0.1569
    1SOL     OW 8565   3.818   3.901   3.363 -0.0058  0.1111  0.1500
    1SOL    HW2 8566   3.732   3.927   3.397  0.2440  0.9746  0.1131
    1SOL    HW3 8567   3.835   3.816   3.404 -0.8337 -0.0185  0.2335
    1SOL    MW4 8568   3.809   3.893   3.373 -0.0820  0.2079  0.1559
    1SOL     OW 8569   3.596   4.005   3.476 -0.2819  0.2672  0.4997
    1SOL    HW2 8570   3.550   4.017   3.560 -2.5730  0.9705 -0.7948
    1SOL    HW3 8571   3.622   4.093   3.450  0.3090  0.0661  0.3991
    1SOL    MW4 8572   3.593   4.018   3.484 -0.5064  0.3333  0.3154
    1SOL     OW 8573   3.628   4.257   3.360 -0.3505  0.3610 -0.3259
    1SOL    HW2 8574   3.548   4.300   3.391 -0.4647  0.7070 -1.0832
    1SOL    HW3 8575   3.616   4.251   3.265 -0.0994 -0.8716 -0.2853
    1SOL    MW4 8576   3.616   4.262   3.352 -0.3324  0.2441 -0.4203
    1SOL     OW 8577   3.818   4.414   3.470 -0.0638 -0.0282 -0.5397
    1SOL    HW2 8578   3.753   4.366   3.418 -0.3942  1.7926 -1.8580
    1SOL    HW3 8579   3.836   4.493   3.418  1.2230  0.7629  1.0898
    1SOL    MW4 8580   3.812   4.418   3.456  0.0625  0.3166 -0.4985
    1SOL     OW 8581   4.245   0.011   3.365  0.4518  0.4256 -0.4631
    1SOL    HW2 8582   4.262  -0.081   3.386 -0.5470  0.8878  2.5256
    1SOL    HW3 8583   4.314   0.059   3.411 -0.2570  1.3011 -0.3175
    1SOL    MW4 8584   4.256   0.005   3.374  0.2265  0.6022 -0.0496
    1SOL     OW 8585   4.039   0.074   3.535  0.4315 -0.4879 -0.7307
    1SOL    HW2 8586   4.116   0.045   3.486  0.9401  1.2744 -1.0162
    1SOL    HW3 8587   3.965   0.042   3.484  0.9654 -0.4108 -1.5653
    1SOL    MW4 8588   4.039   0.066   3.522  0.5693 -0.2452 -0.8786
    1SOL     OW 8589   4.058   0.343   3.445 -0.7290 -0.4458 -0.4096
    1SOL    HW2 8590   4.044   0.249   3.454  1.2433 -0.8163 -1.0086
    1SOL    HW3 8591   4.049   0.360   3.352 -0.8347 -0.0842 -0.3335
    1SOL    MW4 8592   4.055   0.333   3.434 -0.4830 -0.4469 -0.4787
    1SOL     OW 8593   4.256   0.499   3.544 -0.2610  0.1104  0.0233
    1SOL    HW2 8594   4.248   0.578   3.491  0.1128 -0.3106 -0.6797
    1SOL    HW3 8595   4.182   0.444   3.516 -0.7009  0.3402  0.7342
    1SOL    MW4 8596   4.245   0.502   3.533 -0.2689  0.0852  0.0246
    1SOL     OW 8597   4.293   0.741   3.407 -0.3330 -0.0276 -0.6135
    1SOL    HW2 8598   4.368   0.798   3.428  0.0006 -0.6095 -0.2286
    1SOL    HW3 8599   4.283   0.750   3.312  0.6644 -0.4861 -0.7650
    1SOL    MW4 8600   4.302   0.750   3.397 -0.1574 -0.1649 -0.5827
    1SOL     OW 8601   4.093   0.891   3.528  0.5156 -0.4049 -0.0943
    1SOL    HW2 8602   4.070   0.970   3.480  0.2632  0.2302  1.0466
    1SOL    HW3 8603   4.157   0.846   3.472  0.0683  0.2061 -1.0989
    1SOL    MW4 8604   4.099   0.895   3.515  0.4234 -0.2405 -0.0763
    1SOL     OW 8605   4.052   1.121   3.396  0.6355 -0.0626  0.1686
    1SOL    HW2 8606   4.130   1.154   3.440  1.0700 -1.4540  0.4686
    1SOL    HW3 8607   3.983   1.184   3.418  1.3174  0.3480  1.1428
    1SOL    MW4 8608   4.053   1.134   3.404  0.7830 -0.1919  0.3366
    1SOL     OW 8609   4.264   1.260   3.504 -0.2087  0.1980  0.1234
    1SOL    HW2 8610   4.255   1.353   3.479  0.1198  0.8795  2.4754
    1SOL    HW3 8611   4.347   1.233   3.464 -0.4868  0.7885 -0.8920
    1SOL    MW4 8612   4.274   1.269   3.495 -0.2022  0.3660  0.2999
    1SOL     OW 8613   4.257   1.523   3.430  0.2999  0.2196 -0.2179
    1SOL    HW2 8614   4.176   1.564   3.459 -0.9524 -3.0592  1.1937
    1SOL    HW3 8615   4.242   1.504   3.337 -0.4593 -0.1484 -0.0232
    1SOL    MW4 8616   4.244   1.526   3.421  0.0343 -0.2615 -0.0060
    1SOL     OW 8617   4.019   1.675   3.480 -0.0895  0.2292 -0.1725
    1SOL    HW2 8618   4.050   1.666   3.570  0.6715  0.4851 -0.4080
    1SOL    HW3 8619   4.031   1.767   3.460 -1.9113  0.5504  0.0503
    1SOL    MW4 8620   4.024   1.686   3.490 -0.2294  0.3052 -0.1743
    1SOL     OW 8621   4.051   1.939   3.405 -0.1030  0.1579  0.2408
    1SOL    HW2 8622   4.123   1.977   3.455  0.7997 -0.2122 -0.7449
    1SOL    HW3 8623   4.077   1.951   3.313 -0.7762 -0.9586 -0.1110
    1SOL    MW4 8624   4.064   1.945   3.399 -0.0725 -0.0383  0.0644
    1SOL     OW 8625   4.253   2.092   3.514  0.0175 -0.5012 -0.0817
    1SOL    HW2 8626   4.250   2.175   3.467  1.1002 -0.4586 -0.0842
    1SOL    HW3 8627   4.341   2.057   3.497 -0.8105 -2.2202 -1.0596
    1SOL    MW4 8628   4.264   2.098   3.506  0.0510 -0.7224 -0.2110
    1SOL     OW 8629   4.248   2.352   3.405  0.1911 -0.0774 -0.1264
    1SOL    HW2 8630   4.175   2.413   3.420 -0.0494 -0.2926 -0.4177
    1SOL    HW3 8631   4.254   2.345   3.310  1.4950  1.0174 -0.1366
    1SOL    MW4 8632   4.239   2.359   3.394  0.3314  0.0386 -0.1662
    1SOL     OW 8633   3.999   2.458   3.460  0.0700 -0.1374 -0.0900
    1SOL    HW2 8634   4.009   2.458   3.555 -0.5029  0.4626 -0.0305
    1SOL    HW3 8635   4.008   2.550   3.434  0.2018 -0.2929 -0.6197
    1SOL    MW4 8636   4.002   2.470   3.469  0.0114 -0.0784 -0.1521
    1SOL     OW 8637   4.059   2.709   3.374  0.0255  0.1808  0.3661
    1SOL    HW2 8638   4.120   2.749   3.435 -0.8640  1.2540  0.5671
    1SOL    HW3 8639   3.974   2.747   3.397 -0.6456 -0.9370 -0.2072
    1SOL    MW4 8640   4.056   2.719   3.385 -0.1802  0.1750  0.3169
    1SOL     OW 8641   4.246   2.842   3.521  0.1481  0.1437  0.2913
    1SOL    HW2 8642   4.253   2.845   3.617  1.4143  0.7785  0.1973
    1SOL    HW3 8643   4.332   2.810   3.493 -0.0188  0.5221 -0.6546
    1SOL    MW4 8644   4.258   2.838   3.530  0.2933  0.2775  0.1543
    1SOL     OW 8645   4.210   3.073   3.388  0.2338 -0.0459 -0.5875
    1SOL    HW2 8646   4.248   3.000   3.437 -0.1365  0.3465  0.2870
    1SOL    HW3 8647   4.243   3.061   3.299  1.1486 -0.6071 -0.1882
    1SOL    MW4 8648   4.220   3.062   3.383  0.3061 -0.0684 -0.4196
    1SOL     OW 8649   3.996   3.195   3.458  0.7156  0.2346 -0.2101
    1SOL    HW2 8650   4.004   3.284   3.423  1.9135  0.2066 -0.0256
    1SOL    HW3 8651   4.073   3.149   3.424 -0.5936 -1.1204 -1.3994
    1SOL    MW4 8652   4.007   3.201   3.449  0.7010  0.0525 -0.3426
    1SOL     OW 8653   4.027   3.460   3.387 -0.1007 -0.0448  0.4512
    1SOL    HW2 8654   4.101   3.502   3.429  0.2706 -0.9533  0.7330
    1SOL    HW3 8655   3.951   3.511   3.413  0.0192 -1.0511  2.9110
    1SOL    MW4 8656   4.026   3.472   3.396 -0.0362 -0.2975  0.8130
    1SOL     OW 8657   4.236   3.606   3.485 -0.1112 -0.2897 -0.0588
    1SOL    HW2 8658   4.222   3.629   3.577 -1.4580 -1.7778  0.1168
    1SOL    HW3 8659   4.223   3.688   3.438  0.6607  0.5018  1.0780
    1SOL    MW4 8660   4.233   3.620   3.491 -0.1874 -0.3815  0.1142
    1SOL     OW 8661   4.230   3.860   3.370 -0.1822  0.0704  0.2506
    1SOL    HW2 8662   4.314   3.904   3.386  0.3486 -1.0597  0.6651
    1SOL    HW3 8663   4.209   3.880   3.279  0.3940  0.5945  0.2273
    1SOL    MW4 8664   4.239   3.869   3.360 -0.0358 -0.0093  0.3023
    1SOL     OW 8665   4.022   4.011   3.501 -0.1365 -0.4483 -0.3382
    1SOL    HW2 8666   4.089   3.947   3.477  0.3413 -0.5864  1.3089
    1SOL    HW3 8667   3.943   3.981   3.455  0.4814 -1.2908 -0.8659
    1SOL    MW4 8668   4.020   3.998   3.491  0.0081 -0.5779 -0.1905
    1SOL     OW 8669   4.043   4.280   3.413 -0.1302  0.2552 -0.2403
    1SOL    HW2 8670   4.037   4.191   3.449  1.0953  0.8117  1.3800
    1SOL    HW3 8671   3.959   4.321   3.434 -0.1566 -0.0569  0.2738
    1SOL    MW4 8672   4.031   4.273   3.420  0.0277  0.2880  0.0412
    1SOL     OW 8673   4.292   4.411   3.423 -0.3426 -0.1177 -0.0448
    1SOL    HW2 8674   4.294   4.412   3.519 -1.9944  0.0985  0.0168
    1SOL    HW3 8675   4.209   4.369   3.401  0.3043 -0.7264 -1.3985
    1SOL    MW4 8676   4.281   4.406   3.433 -0.4749 -0.1693 -0.2153
    1SOL     OW 8677   0.233   4.639   3.906 -0.2039 -0.0587 -0.0886
    1SOL    HW2 8678   0.247   4.635   4.000  0.7668  0.4751 -0.2052
    1SOL    HW3 8679   0.159   4.700   3.896 -0.9150 -0.8439  0.3775
    1SOL    MW4 8680   0.225   4.647   3.917 -0.1696 -0.0920 -0.0427
    1SOL     OW 8681   0.030   0.126   3.797  0.0920  0.3618  0.0032
    1SOL    HW2 8682   0.009   0.218   3.815  0.1432  0.2517  0.6565
    1SOL    HW3 8683   0.019   0.117   3.703 -0.9909  0.7677  0.0778
    1SOL    MW4 8684   0.025   0.137   3.787 -0.0441  0.4008  0.0992
    1SOL     OW 8685   4.471   0.392   3.892  0.4123  0.2774  0.0729
    1SOL    HW2 8686   4.397   0.440   3.855 -0.1000 -0.1469  0.5444
    1SOL    HW3 8687   4.548   0.428   3.847 -0.1903 -0.0989 -1.2860
    1SOL    MW4 8688   4.471   0.403   3.881  0.2656  0.1717 -0.0443
    1SOL     OW 8689   0.240   0.487   3.793  0.6518 -0.0409 -0.2663
    1SOL    HW2 8690   0.237   0.579   3.818  0.0354  0.0609 -0.7059
    1SOL    HW3 8691   0.218   0.487   3.700 -0.2334 -0.7095 -0.0652
    1SOL    MW4 8692   0.237   0.499   3.784  0.4537 -0.1157 -0.2975
    1SOL     OW 8693   0.230   0.766   3.898  0.4257  0.1882 -0.3732
    1SOL    HW2 8694   0.231   0.785   3.992 -0.0708 -0.2879 -0.2772
    1SOL    HW3 8695   0.152   0.811   3.865 -0.3619 -1.0738 -0.2664
    1SOL    MW4 8696   0.220   0.775   3.906  0.2563 -0.0412 -0.3462
    1SOL     OW 8697   0.028   0.915   3.776 -0.1226 -0.3656 -0.1669
    1SOL    HW2 8698  -0.055   0.887   3.814  0.0730 -1.9273 -0.8664
    1SOL    HW3 8699   0.049   0.996   3.822 -1.1717 -0.8716  1.2309
    1SOL    MW4 8700   0.020   0.922   3.787 -0.2352 -0.6384 -0.0746
    1SOL     OW 8701   0.048   1.160   3.873  0.3311  0.1992  0.3252
    1SOL    HW2 8702  -0.040   1.186   3.848 -0.3174 -1.3444  0.9594
    1SOL    HW3 8703   0.045   1.152   3.969  1.4131  1.0483  0.4470
    1SOL    MW4 8704   0.036   1.163   3.883  0.3883  0.1075  0.4249
    1SOL     OW 8705   0.218   1.363   3.799  0.1494  0.3202  0.4049
    1SOL    HW2 8706   0.193   1.451   3.829  0.8363  0.3106  1.0261
    1SOL    HW3 8707   0.153   1.305   3.838  0.4538  0.4156  1.0531
    1SOL    MW4 8708   0.206   1.367   3.808  0.2802  0.3314  0.5722
    1SOL     OW 8709   0.232   1.635   3.868  0.0636  0.0281  0.4214
    1SOL    HW2 8710   0.228   1.635   3.964  0.2275 -0.7334  0.4275
    1SOL    HW3 8711   0.144   1.662   3.841 -0.6754 -1.9185  0.7701
    1SOL    MW4 8712   0.220   1.639   3.877 -0.0123 -0.3293  0.4680
    1SOL     OW 8713   4.454   1.661   3.722  0.0543  0.1575 -0.0346
    1SOL    HW2 8714   4.463   1.750   3.757  2.7730  0.3775 -1.1706
    1SOL    HW3 8715   4.458   1.671   3.627 -0.3280 -1.1257 -0.2036
    1SOL    MW4 8716   4.456   1.674   3.714  0.3624  0.0172 -0.2067
    1SOL     OW 8717   0.002   1.919   3.852  0.3583 -0.3403  0.1712
    1SOL    HW2 8718   0.040   1.930   3.939 -0.4449 -0.4617  0.5479
    1SOL    HW3 8719  -0.068   1.984   3.848 -0.8923 -1.6402  0.3745
    1SOL    MW4 8720  -0.002   1.929   3.863  0.0873 -0.5279  0.2482
    1SOL     OW 8721   0.210   2.099   3.773  0.3002 -0.3303  0.0216
    1SOL    HW2 8722   0.195   2.181   3.819  0.6825  0.2016 -0.7779
    1SOL    HW3 8723   0.137   2.043   3.799  0.9352 -0.3179  1.8670
    1SOL    MW4 8724   0.198   2.103   3.782  0.4344 -0.2584  0.1595
    1SOL     OW 8725   0.200   2.327   3.911  0.5092  0.0881  0.5021
    1SOL    HW2 8726   0.203   2.335   4.006  1.9743  2.3726  0.3297
    1SOL    HW3 8727   0.120   2.373   3.885  0.8013  0.6464  0.5685
    1SOL    MW4 8728   0.190   2.334   3.920  0.7410  0.4635  0.4883
    1SOL     OW 8729   4.484   2.481   3.792 -0.4447  0.1587  0.2838
    1SOL    HW2 8730   4.397   2.454   3.820 -0.3993 -0.8633 -0.5432
    1SOL    HW3 8731   4.490   2.572   3.819 -1.2280 -0.1688  1.6323
    1SOL    MW4 8732   4.473   2.489   3.799 -0.5426 -0.0196  0.3524
    1SOL     OW 8733   0.002   2.757   3.913 -0.2437  0.1660  0.4850
    1SOL    HW2 8734  -0.002   2.739   4.007 -1.8020  0.8541  0.5733
    1SOL    HW3 8735   0.089   2.792   3.898  0.4672 -1.1429  1.4503
    1SOL    MW4 8736   0.013   2.759   3.923 -0.3552  0.0842  0.6242
    1SOL     OW 8737   0.242   2.885   3.812  0.5304 -0.6057 -0.4710
    1SOL    HW2 8738   0.321   2.837   3.837  0.4755 -0.7283 -0.5314
    1SOL    HW3 8739   0.240   2.878   3.716  0.7444 -0.1351 -0.5154
    1SOL    MW4 8740   0.252   2.878   3.802  0.5514 -0.5596 -0.4847
    1SOL     OW 8741   0.208   3.160   3.855  0.0548  0.4153 -0.0472
    1SOL    HW2 8742   0.210   3.149   3.950 -0.0715  0.4655 -0.0384
    1SOL    HW3 8743   0.229   3.073   3.820  1.9142  0.8240  0.0398
    1SOL    MW4 8744   0.211   3.147   3.863  0.2835  0.4761 -0.0343
    1SOL     OW 8745   4.430   3.232   3.778 -0.1692  0.1277 -0.5408
    1SOL    HW2 8746   4.522   3.225   3.801 -0.2550  1.2299  0.1690
    1SOL    HW3 8747   4.429   3.236   3.683  0.3381 -2.3706 -0.6848
    1SOL    MW4 8748   4.442   3.232   3.769 -0.1135 -0.0567 -0.4666
    1SOL     OW 8749   4.433   3.513   3.849  0.0328  0.0217 -0.1238
    1SOL    HW2 8750   4.518   3.546   3.818  0.2252  0.6926  1.0812
    1SOL    HW3 8751   4.430   3.422   3.819  0.7499  0.2780 -1.0104
    1SOL    MW4 8752   4.444   3.506   3.841  0.1521  0.1442 -0.0818
    1SOL     OW 8753   0.188   3.583   3.742  0.1619  0.0079  0.4375
    1SOL    HW2 8754   0.267   3.564   3.793  1.1355  0.6732 -0.8005
    1SOL    HW3 8755   0.175   3.677   3.753  0.0038  0.0367 -0.0087
    1SOL    MW4 8756   0.197   3.593   3.750  0.2695  0.0997  0.2153
    1SOL     OW 8757   0.187   3.862   3.835 -0.1717 -0.4424  0.0773
    1SOL    HW2 8758   0.259   3.918   3.806 -1.5124  2.0528  1.4351
    1SOL    HW3 8759   0.176   3.883   3.927 -2.7088 -0.7065 -0.1416
    1SOL    MW4 8760   0.195   3.872   3.843 -0.6834 -0.1481  0.2277
    1SOL     OW 8761   4.468   4.017   3.734  0.0545 -0.2062  0.3252
    1SOL    HW2 8762   4.384   3.992   3.774 -0.3153  0.1324 -0.2250
    1SOL    HW3 8763   4.532   3.958   3.772 -0.3742 -0.1987  1.0643
    1SOL    MW4 8764   4.465   4.006   3.744 -0.0509 -0.1602  0.3502
    1SOL     OW 8765   0.000   4.275   3.842 -0.1266 -0.0012 -0.3125
    1SOL    HW2 8766   0.088   4.313   3.835 -0.6137  1.2722  0.4032
    1SOL    HW3 8767   0.012   4.183   3.818  1.5087  0.0234  0.3428
    1SOL    MW4 8768   0.013   4.268   3.838  0.0249  0.1693 -0.1318
    1SOL     OW 8769   0.261   4.403   3.775 -0.2057 -0.1705  0.1142
    1SOL    HW2 8770   0.338   4.358   3.810  1.1524  1.9329 -0.0887
    1SOL    HW3 8771   0.255   4.484   3.825 -1.2091  0.5438 -1.1343
    1SOL    MW4 8772   0.270   4.407   3.786 -0.1589  0.2012 -0.0775
    1SOL     OW 8773   0.675   0.020   3.925 -0.1916 -0.0118 -0.2156
    1SOL    HW2 8774   0.684  -0.065   3.881 -0.0141 -0.6095  0.9505
    1SOL    HW3 8775   0.593   0.056   3.892 -0.2324 -0.6051 -0.7669
    1SOL    MW4 8776   0.665   0.014   3.914 -0.1736 -0.1690 -0.1347
    1SOL     OW 8777   0.429   0.150   3.780  0.3541 -0.2863  0.3904
    1SOL    HW2 8778   0.443   0.229   3.832 -0.1115  0.2446 -0.2877
    1SOL    HW3 8779   0.372   0.095   3.835 -0.2753  0.3434  0.3734
    1SOL    MW4 8780   0.423   0.153   3.794  0.2096 -0.1332  0.2987
    1SOL     OW 8781   0.451   0.392   3.938  0.0158 -0.5077  0.0784
    1SOL    HW2 8782   0.526   0.431   3.894  1.2079  0.0115  2.5087
    1SOL    HW3 8783   0.375   0.425   3.890  1.2088  1.4492 -0.5059
    1SOL    MW4 8784   0.451   0.401   3.926  0.3305 -0.1810  0.3221
    1SOL     OW 8785   0.667   0.522   3.808  0.1026  0.0066  0.1284
    1SOL    HW2 8786   0.751   0.489   3.838  0.7381  0.6898 -0.8839
    1SOL    HW3 8787   0.673   0.617   3.819 -0.2695  0.1167 -0.6227
    1SOL    MW4 8788   0.679   0.530   3.814  0.1374  0.1113 -0.1040
    1SOL     OW 8789   0.699   0.803   3.851 -0.5573  0.8155  0.3379
    1SOL    HW2 8790   0.769   0.865   3.832 -0.8539  1.5872  1.7305
    1SOL    HW3 8791   0.621   0.842   3.814 -0.4985  0.6035 -0.0135
    1SOL    MW4 8792   0.698   0.816   3.844 -0.5887  0.8893  0.4754
    1SOL     OW 8793   0.434   0.907   3.768  0.4174 -0.0592  0.0069
    1SOL    HW2 8794   0.417   0.996   3.799 -1.1033 -0.2793 -0.1615
    1SOL    HW3 8795   0.373   0.852   3.818  0.7736 -0.9010 -0.4769
    1SOL    MW4 8796   0.424   0.911   3.779  0.2638 -0.1993 -0.0794
    1SOL     OW 8797   0.415   1.168   3.861  0.0412  0.3839  0.2352
    1SOL    HW2 8798   0.496   1.194   3.818  1.0064  0.6259  2.1340
    1SOL    HW3 8799   0.350   1.231   3.832  0.6437  0.4851 -0.9107
    1SOL    MW4 8800   0.417   1.179   3.852  0.2480  0.4292  0.3345
    1SOL     OW 8801   0.648   1.271   3.785 -0.2594 -0.0885  0.2062
    1SOL    HW2 8802   0.738   1.250   3.812 -0.8117  0.0156  2.2368
    1SOL    HW3 8803   0.655   1.295   3.693  1.8691  0.3671  0.4633
    1SOL    MW4 8804   0.661   1.271   3.777 -0.0514 -0.0145  0.5078
    1SOL     OW 8805   0.686   1.522   3.897 -0.1784  0.0686 -0.2254
    1SOL    HW2 8806   0.771   1.549   3.863 -0.1724 -0.0808 -0.3307
    1SOL    HW3 8807   0.667   1.440   3.852  0.4013 -0.7852  1.0394
    1SOL    MW4 8808   0.695   1.515   3.887 -0.1011 -0.0638 -0.0722
    1SOL     OW 8809   0.487   1.718   3.814 -0.1503 -0.1157 -0.4656
    1SOL    HW2 8810   0.556   1.662   3.849 -1.2114 -1.0511  0.1639
    1SOL    HW3 8811   0.406   1.675   3.840 -0.9724  0.6477 -1.7148
    1SOL    MW4 8812   0.486   1.705   3.822 -0.3987 -0.1383 -0.5474
    1SOL     OW 8813   0.417   1.972   3.911 -0.6054 -0.1061  0.3515
    1SOL    HW2 8814   0.429   1.883   3.879 -0.2957  0.1448 -0.2558
    1SOL    HW3 8815   0.349   2.009   3.855  0.5757  0.6236 -0.6273
    1SOL    MW4 8816   0.410   1.965   3.899 -0.4087  0.0232  0.1421
    1SOL     OW 8817   0.670   2.060   3.807 -0.0248 -0.2975  0.3196
    1SOL    HW2 8818   0.675   2.151   3.835  0.4094 -0.6948  1.6122
    1SOL    HW3 8819   0.585   2.029   3.840 -0.1109 -0.3914  0.0093
    1SOL    MW4 8820   0.660   2.068   3.815  0.0212 -0.3624  0.4492
    1SOL     OW 8821   0.679   2.318   3.880  0.4225  0.4622 -0.0068
    1SOL    HW2 8822   0.762   2.355   3.850 -0.7083  2.1966 -1.0917
    1SOL    HW3 8823   0.613   2.367   3.832 -1.2519 -0.5281  1.2531
    1SOL    MW4 8824   0.681   2.330   3.870  0.0523  0.5605  0.0165
    1SOL     OW 8825   0.436   2.448   3.811 -0.1306  0.3362 -0.1337
    1SOL    HW2 8826   0.357   2.400   3.834  0.3569 -0.9189 -1.0333
    1SOL    HW3 8827   0.441   2.442   3.716 -0.3720  2.6731 -0.3232
    1SOL    MW4 8828   0.426   2.441   3.802 -0.0981  0.4790 -0.2773
    1SOL     OW 8829   0.448   2.706   3.888  0.1358 -0.0020  0.3730
    1SOL    HW2 8830   0.536   2.730   3.859  0.5637 -0.0367  1.5843
    1SOL    HW3 8831   0.433   2.619   3.851  1.1321 -0.5456  1.2057
    1SOL    MW4 8832   0.458   2.698   3.879  0.3237 -0.0784  0.6428
    1SOL     OW 8833   0.686   2.808   3.773 -0.0228  0.2095 -0.2402
    1SOL    HW2 8834   0.769   2.759   3.779 -0.4451 -0.4220  0.5371
    1SOL    HW3 8835   0.670   2.817   3.679  1.7250  1.7088 -0.4214
    1SOL    MW4 8836   0.695   2.803   3.761  0.1521  0.3240 -0.1614
    1SOL     OW 8837   0.634   3.062   3.845 -0.1489  0.2687  0.4439
    1SOL    HW2 8838   0.631   3.065   3.941 -0.9233 -0.8413  0.4567
    1SOL    HW3 8839   0.668   2.975   3.825 -1.4116 -0.0548 -0.3089
    1SOL    MW4 8840   0.638   3.051   3.855 -0.4176  0.0796  0.3462
    1SOL     OW 8841   0.454   3.256   3.764  0.1767 -0.4499 -0.1679
    1SOL    HW2 8842   0.509   3.185   3.795  0.1143  0.1814  1.4277
    1SOL    HW3 8843   0.366   3.234   3.795  0.1964  0.4337  0.5149
    1SOL    MW4 8844   0.450   3.244   3.772  0.1711 -0.2499  0.1326
    1SOL     OW 8845   0.436   3.525   3.874 -0.0392  0.1462  0.5259
    1SOL    HW2 8846   0.519   3.566   3.850  0.5982 -0.4603  1.6333
    1SOL    HW3 8847   0.444   3.435   3.841 -0.5262  0.2728  0.0594
    1SOL    MW4 8848   0.448   3.518   3.866 -0.0193  0.0830  0.6106
    1SOL     OW 8849   0.694   3.635   3.782  0.0468  0.0561  0.5959
    1SOL    HW2 8850   0.682   3.721   3.821 -1.3760 -0.1105  0.5538
    1SOL    HW3 8851   0.675   3.648   3.689 -2.4233 -0.7572  0.9682
    1SOL    MW4 8852   0.690   3.648   3.775 -0.4668 -0.0734  0.6392
    1SOL     OW 8853   0.663   3.882   3.905  0.4779 -0.1393  0.0681
    1SOL    HW2 8854   0.665   3.882   4.001 -0.0372  2.1613  0.0980
    1SOL    HW3 8855   0.744   3.927   3.880  0.4341 -0.4179 -0.5855
    1SOL    MW4 8856   0.674   3.888   3.914  0.4041  0.1273 -0.0143
    1SOL     OW 8857   0.433   4.040   3.787  0.1342  0.4010 -0.1544
    1SOL    HW2 8858   0.510   3.986   3.802  1.6636  2.3183 -0.9076
    1SOL    HW3 8859   0.431   4.054   3.693 -0.6822  1.0272 -0.0532
    1SOL    MW4 8860   0.443   4.035   3.777  0.2283  0.7372 -0.2403
    1SOL     OW 8861   0.483   4.285   3.930 -0.0043  0.0134 -0.1126
    1SOL    HW2 8862   0.544   4.327   3.869  0.4495  0.0147  0.3390
    1SOL    HW3 8863   0.465   4.199   3.890  0.9815 -0.3395  0.1900
    1SOL    MW4 8864   0.489   4.279   3.916  0.1856 -0.0329 -0.0129
    1SOL     OW 8865   0.689   4.445   3.784  0.2884  0.5588  0.1276
    1SOL    HW2 8866   0.766   4.395   3.811 -0.2282 -0.4967 -0.3215
    1SOL    HW3 8867   0.685   4.432   3.689 -0.7041  0.2232  0.2149
    1SOL    MW4 8868   0.699   4.437   3.775  0.0893  0.3753  0.0801
    1SOL     OW 8869   1.132   0.026   3.870  0.5131  0.4239  0.2552
    1SOL    HW2 8870   1.215   0.069   3.849  1.3257 -0.8508  0.7930
    1SOL    HW3 8871   1.155  -0.067   3.878 -1.2084 -0.1154 -0.8701
    1SOL    MW4 8872   1.146   0.019   3.869  0.3932  0.1846  0.1776
    1SOL     OW 8873   0.897   0.134   3.773 -0.1718  0.3032 -0.4610
    1SOL    HW2 8874   0.982   0.100   3.803 -0.2439  0.1033 -0.4813
    1SOL    HW3 8875   0.834   0.100   3.837 -0.1487  1.0422 -0.0363
    1SOL    MW4 8876   0.900   0.125   3.786 -0.1783  0.3743 -0.4077
    1SOL     OW 8877   0.905   0.381   3.880  0.2085 -0.1984 -0.2867
    1SOL    HW2 8878   0.897   0.359   3.973  0.0723 -0.3214 -0.3268
    1SOL    HW3 8879   0.901   0.297   3.835 -0.8351 -0.0630 -0.4708
    1SOL    MW4 8880   0.903   0.367   3.886  0.0529 -0.1968 -0.3161
    1SOL     OW 8881   1.148   0.527   3.793  0.1329 -0.3823  0.1805
    1SOL    HW2 8882   1.227   0.474   3.805  0.4490  0.0318 -0.0464
    1SOL    HW3 8883   1.077   0.474   3.830  0.7146 -0.1992  1.6017
    1SOL    MW4 8884   1.149   0.513   3.800  0.2513 -0.3034  0.3381
    1SOL     OW 8885   1.105   0.785   3.899 -0.0365  0.0425  0.7802
    1SOL    HW2 8886   1.119   0.765   3.991  0.9233  0.7822  0.7969
    1SOL    HW3 8887   1.109   0.699   3.855  0.3691 -0.2093  1.3133
    1SOL    MW4 8888   1.107   0.771   3.905  0.1436  0.1069  0.8531
    1SOL     OW 8889   0.924   0.954   3.780 -0.3341 -0.0960  0.0505
    1SOL    HW2 8890   0.983   0.889   3.818  1.7257  0.5151 -1.9975
    1SOL    HW3 8891   0.922   0.933   3.687 -3.3962 -0.0924  0.0637
    1SOL    MW4 8892   0.932   0.942   3.773 -0.4664 -0.0149 -0.2177
    1SOL     OW 8893   0.897   1.213   3.875 -0.1313 -0.3930 -0.1855
    1SOL    HW2 8894   0.931   1.211   3.964  0.6504 -1.2888 -0.4865
    1SOL    HW3 8895   0.906   1.122   3.844  0.5193  0.1015 -1.5033
    1SOL    MW4 8896   0.902   1.200   3.882  0.0578 -0.4461 -0.3991
    1SOL     OW 8897   1.160   1.275   3.754 -0.3841  0.1253 -0.1324
    1SOL    HW2 8898   1.167   1.367   3.778  1.5637 -0.2254  0.7445
    1SOL    HW3 8899   1.077   1.246   3.792 -0.0402  1.0126  1.3341
    1SOL    MW4 8900   1.150   1.283   3.762 -0.0819  0.1961  0.1767
    1SOL     OW 8901   1.155   1.535   3.855 -0.0819  0.0097 -0.2295
    1SOL    HW2 8902   1.147   1.545   3.950 -0.3920  2.2083 -0.4616
    1SOL    HW3 8903   1.224   1.597   3.830  0.9276 -1.5091 -1.2887
    1SOL    MW4 8904   1.163   1.545   3.865  0.0105  0.0993 -0.3998
    1SOL     OW 8905   0.919   1.658   3.790  0.5104 -0.0978 -0.2661
    1SOL    HW2 8906   1.006   1.626   3.815  1.3347  1.4021 -1.1145
    1SOL    HW3 8907   0.908   1.630   3.699 -0.2376 -0.9785  0.0931
    1SOL    MW4 8908   0.929   1.650   3.781  0.5205 -0.0161 -0.3309
    1SOL     OW 8909   0.892   1.899   3.914 -0.1963 -0.1774  0.3488
    1SOL    HW2 8910   0.884   1.821   3.859 -0.7002 -0.8714  1.3675
    1SOL    HW3 8911   0.821   1.957   3.884 -0.0204 -0.2512 -0.2022
    1SOL    MW4 8912   0.881   1.896   3.903 -0.2396 -0.2787  0.4106
    1SOL     OW 8913   1.110   2.043   3.816  0.6359 -0.3387 -0.2858
    1SOL    HW2 8914   1.053   1.976   3.855  0.6762  0.0120  0.3836
    1SOL    HW3 8915   1.099   2.032   3.722 -0.3800 -0.4158 -0.1621
    1SOL    MW4 8916   1.101   2.032   3.809  0.5072 -0.3026 -0.1812
    1SOL     OW 8917   1.156   2.309   3.912 -0.0186  0.1729  0.0391
    1SOL    HW2 8918   1.143   2.301   4.007  0.7673 -0.7405  0.0812
    1SOL    HW3 8919   1.133   2.222   3.878  2.1435 -0.2903 -0.3069
    1SOL    MW4 8920   1.151   2.296   3.920  0.3703 -0.0088 -0.0010
    1SOL     OW 8921   0.921   2.390   3.783  1.0193 -0.8579 -0.1254
    1SOL    HW2 8922   0.920   2.484   3.801 -1.3585 -1.0261  0.7557
    1SOL    HW3 8923   1.003   2.359   3.823  0.3789  0.3620  2.2283
    1SOL    MW4 8924   0.932   2.398   3.791  0.6211 -0.7193  0.3014
    1SOL     OW 8925   0.921   2.656   3.828  0.4710 -0.0170 -0.1182
    1SOL    HW2 8926   0.922   2.680   3.920  1.9997 -1.2466  0.2158
    1SOL    HW3 8927   1.007   2.681   3.795  0.6724 -1.3997 -0.7037
    1SOL    MW4 8928   0.933   2.662   3.835  0.6992 -0.3614 -0.1514
    1SOL     OW 8929   1.133   2.838   3.755 -0.2739 -0.2682  0.4889
    1SOL    HW2 8930   1.214   2.806   3.794 -0.1058 -0.0408  0.3279
    1SOL    HW3 8931   1.126   2.928   3.787 -0.9780 -0.6043  1.3074
    1SOL    MW4 8932   1.143   2.845   3.765 -0.3445 -0.2823  0.5758
    1SOL     OW 8933   1.120   3.109   3.832  0.4810  0.1813 -0.0225
    1SOL    HW2 8934   1.191   3.168   3.806  0.0379  0.5116 -0.4898
    1SOL    HW3 8935   1.043   3.141   3.784 -0.0569  0.0142  0.7203
    1SOL    MW4 8936   1.119   3.121   3.822  0.3514  0.2027  0.0141
    1SOL     OW 8937   0.868   3.224   3.749 -0.1986  0.6069 -0.3980
    1SOL    HW2 8938   0.800   3.164   3.779  0.5474 -0.0550 -0.0235
    1SOL    HW3 8939   0.874   3.208   3.655 -0.8026  0.9198 -0.4952
    1SOL    MW4 8940   0.859   3.214   3.741 -0.1799  0.5610 -0.3612
    1SOL     OW 8941   0.887   3.459   3.876 -0.4358  0.3277  0.6380
    1SOL    HW2 8942   0.870   3.376   3.831 -1.4183  0.3685  0.9350
    1SOL    HW3 8943   0.824   3.520   3.839 -1.2951  0.3473  2.0969
    1SOL    MW4 8944   0.877   3.456   3.865 -0.6788  0.3357  0.8695
    1SOL     OW 8945   1.109   3.633   3.757 -0.0504 -0.1207 -0.0216
    1SOL    HW2 8946   1.105   3.713   3.809 -0.0655  0.0291 -0.2505
    1SOL    HW3 8947   1.049   3.573   3.800  1.4782 -0.7219  1.3516
    1SOL    MW4 8948   1.101   3.636   3.769  0.1493 -0.1802  0.1295
    1SOL     OW 8949   1.106   3.888   3.902 -0.0929  0.0180 -0.4338
    1SOL    HW2 8950   1.124   3.863   3.992  0.4781 -0.8673 -0.7949
    1SOL    HW3 8951   1.178   3.946   3.878  0.1209 -0.2953 -0.5476
    1SOL    MW4 8952   1.118   3.893   3.910  0.0106 -0.1400 -0.4964
    1SOL     OW 8953   0.872   4.010   3.810  0.1303  0.5188  0.7510
    1SOL    HW2 8954   0.954   3.966   3.831 -1.2647 -2.0699  1.0155
    1SOL    HW3 8955   0.874   4.018   3.714  0.8120  0.7074  0.7771
    1SOL    MW4 8956   0.883   4.005   3.800  0.0361  0.2022  0.7894
    1SOL     OW 8957   0.879   4.281   3.874  0.3320  0.3441  0.3886
    1SOL    HW2 8958   0.860   4.262   3.965 -0.5884  0.7508  0.2898
    1SOL    HW3 8959   0.872   4.196   3.830  0.0126  0.2706  0.5738
    1SOL    MW4 8960   0.875   4.267   3.880  0.1684  0.3881  0.4001
    1SOL     OW 8961   1.126   4.411   3.821 -0.0240 -0.2202  0.0995
    1SOL    HW2 8962   1.038   4.393   3.855  0.0324 -1.3493 -0.3068
    1SOL    HW3 8963   1.119   4.394   3.727  0.8049 -1.0595  0.1776
    1SOL    MW4 8964   1.113   4.406   3.813  0.0930 -0.4802  0.0563
    1SOL     OW 8965   1.546   0.004   3.913 -0.2651 -0.4964 -0.3751
    1SOL    HW2 8966   1.528  -0.009   4.006 -1.2458 -2.1177 -0.7704
    1SOL    HW3 8967   1.556  -0.085   3.878  2.2541  0.1522 -1.4057
    1SOL    MW4 8968   1.545  -0.010   3.921 -0.0621 -0.6247 -0.5636
    1SOL     OW 8969   1.354   0.135   3.761 -0.1461 -0.0300 -0.0598
    1SOL    HW2 8970   1.361   0.223   3.797 -1.4710 -0.3268  0.9434
    1SOL    HW3 8971   1.424   0.086   3.803  0.4307  0.4695 -0.4277
    1SOL    MW4 8972   1.364   0.140   3.771 -0.2449 -0.0033  0.0238
    1SOL     OW 8973   1.396   0.388   3.848 -0.2680 -0.1358  0.0522
    1SOL    HW2 8974   1.385   0.387   3.943 -1.0241  1.0596 -0.0150
    1SOL    HW3 8975   1.480   0.431   3.834  1.3397 -3.0555  0.2798
    1SOL    MW4 8976   1.406   0.394   3.859 -0.1557 -0.3633  0.0734
    1SOL     OW 8977   1.619   0.522   3.780  0.0571  0.2801  0.0727
    1SOL    HW2 8978   1.675   0.456   3.822 -0.7686  0.3162  1.2548
    1SOL    HW3 8979   1.628   0.600   3.835 -0.7006  0.4696 -0.0637
    1SOL    MW4 8980   1.628   0.524   3.793 -0.1518  0.3098  0.2105
    1SOL     OW 8981   1.577   0.777   3.886  0.1999  0.9260 -0.4500
    1SOL    HW2 8982   1.654   0.809   3.838 -0.7909  1.9107 -1.4564
    1SOL    HW3 8983   1.504   0.824   3.845 -1.1607 -1.5423 -0.9251
    1SOL    MW4 8984   1.578   0.788   3.874 -0.1103  0.7303 -0.6454
    1SOL     OW 8985   1.326   0.915   3.771  0.2064 -0.0790 -0.2007
    1SOL    HW2 8986   1.346   1.000   3.809  1.2767  0.3804 -1.7715
    1SOL    HW3 8987   1.248   0.885   3.819 -0.5998  2.0709 -0.1370
    1SOL    MW4 8988   1.318   0.922   3.783  0.2413  0.2653 -0.3996
    1SOL     OW 8989   1.381   1.155   3.894 -0.0363  0.1138 -0.3789
    1SOL    HW2 8990   1.456   1.203   3.859  0.5302  0.3786  1.1226
    1SOL    HW3 8991   1.305   1.202   3.862  0.4783  0.6725 -0.7944
    1SOL    MW4 8992   1.381   1.168   3.885  0.1062  0.2224 -0.2356
    1SOL     OW 8993   1.615   1.292   3.742  0.1128  0.0084  0.0277
    1SOL    HW2 8994   1.695   1.257   3.780  0.3435  1.3386  0.7864
    1SOL    HW3 8995   1.603   1.377   3.784 -2.1601 -0.5389  0.5486
    1SOL    MW4 8996   1.624   1.299   3.752 -0.1566  0.1117  0.1965
    1SOL     OW 8997   1.592   1.548   3.844 -0.6770 -0.2945 -0.1577
    1SOL    HW2 8998   1.599   1.546   3.939  1.7267  1.5759 -0.2286
    1SOL    HW3 8999   1.678   1.579   3.815 -1.7166  0.1590 -2.8791
    1SOL    MW4 9000   1.605   1.552   3.853 -0.4971  0.0120 -0.5260
    1SOL     OW 9001   1.377   1.691   3.747  0.1063  0.3818  0.4281
    1SOL    HW2 9002   1.386   1.779   3.782  0.2092  0.2695  0.6874
    1SOL    HW3 9003   1.446   1.641   3.789 -1.0586 -0.2447  1.6339
    1SOL    MW4 9004   1.387   1.696   3.757 -0.0339  0.2842  0.6213
    1SOL     OW 9005   1.378   1.959   3.872  0.0843  0.1793 -0.3774
    1SOL    HW2 9006   1.371   1.929   3.962  0.8659 -0.6283 -0.5730
    1SOL    HW3 9007   1.292   1.995   3.851  0.0522  0.8170  0.8418
    1SOL    MW4 9008   1.366   1.960   3.881  0.1832  0.1569 -0.2425
    1SOL     OW 9009   1.594   2.105   3.808 -0.2703 -0.4112  0.2341
    1SOL    HW2 9010   1.511   2.063   3.830 -1.0850  1.0582  0.0347
    1SOL    HW3 9011   1.601   2.097   3.712 -0.1082 -0.6617  0.2662
    1SOL    MW4 9012   1.584   2.098   3.798 -0.3564 -0.2503  0.2122
    1SOL     OW 9013   1.612   2.350   3.931  0.2817  0.3129 -0.1172
    1SOL    HW2 9014   1.614   2.347   4.026  1.6905 -1.1725 -0.1800
    1SOL    HW3 9015   1.614   2.259   3.903  1.5278  0.7696 -1.5879
    1SOL    MW4 9016   1.612   2.338   3.940  0.6319  0.1771 -0.3197
    1SOL     OW 9017   1.382   2.446   3.803 -0.3045  1.0848  0.2408
    1SOL    HW2 9018   1.469   2.419   3.831  0.3339  2.6090 -0.1669
    1SOL    HW3 9019   1.323   2.380   3.838  1.0650 -0.2433  0.1011
    1SOL    MW4 9020   1.386   2.434   3.811 -0.0396  1.1106  0.1686
    1SOL     OW 9021   1.327   2.698   3.887  0.3418  0.0935  0.1530
    1SOL    HW2 9022   1.325   2.701   3.983  0.4473  2.1832  0.1238
    1SOL    HW3 9023   1.363   2.612   3.866  1.6524  0.1563  2.0087
    1SOL    MW4 9024   1.332   2.687   3.897  0.5287  0.3774  0.3939
    1SOL     OW 9025   1.532   2.863   3.821 -0.1497  0.3878 -0.1856
    1SOL    HW2 9026   1.466   2.806   3.861 -0.7131  0.9926 -0.2380
    1SOL    HW3 9027   1.521   2.851   3.727  0.1766  0.0828 -0.1841
    1SOL    MW4 9028   1.522   2.854   3.814 -0.1811  0.4275 -0.1926
    1SOL     OW 9029   1.544   3.141   3.878  0.1570  0.4360 -0.2403
    1SOL    HW2 9030   1.544   3.131   3.973  0.8054  0.4660 -0.2340
    1SOL    HW3 9031   1.546   3.052   3.844  1.3956  0.4390 -0.2103
    1SOL    MW4 9032   1.544   3.128   3.886  0.4059  0.4404 -0.2356
    1SOL     OW 9033   1.330   3.253   3.747 -0.4498 -0.2467  0.2862
    1SOL    HW2 9034   1.319   3.341   3.782 -1.1276 -0.4506  0.6144
    1SOL    HW3 9035   1.408   3.219   3.791 -0.1776  0.1912  0.1446
    1SOL    MW4 9036   1.339   3.260   3.757 -0.5033 -0.2158  0.3107
    1SOL     OW 9037   1.351   3.496   3.882 -0.0189 -0.2417 -0.7889
    1SOL    HW2 9038   1.432   3.538   3.853 -0.4215  0.6085 -0.7181
    1SOL    HW3 9039   1.282   3.557   3.855 -0.5490 -0.4431  0.0970
    1SOL    MW4 9040   1.352   3.510   3.875 -0.1420 -0.1559 -0.6630
    1SOL     OW 9041   1.577   3.646   3.800  0.1416  0.0746  0.3840
    1SOL    HW2 9042   1.660   3.606   3.829 -0.4089 -0.2711  1.5283
    1SOL    HW3 9043   1.570   3.727   3.851 -0.0241  0.3132 -0.0161
    1SOL    MW4 9044   1.587   3.651   3.811  0.0471  0.0601  0.4823
    1SOL     OW 9045   1.550   3.895   3.908 -0.1247  0.2872  0.0365
    1SOL    HW2 9046   1.551   3.884   4.003 -0.4331 -0.5781 -0.0582
    1SOL    HW3 9047   1.469   3.943   3.890 -0.9616 -1.1178  0.0437
    1SOL    MW4 9048   1.540   3.900   3.918 -0.2759 -0.0124  0.0248
    1SOL     OW 9049   1.328   4.039   3.845 -0.1760 -0.4168 -0.1666
    1SOL    HW2 9050   1.350   4.127   3.876  1.2220 -1.3222  1.5024
    1SOL    HW3 9051   1.355   4.039   3.753  0.3807  0.7021 -0.0102
    1SOL    MW4 9052   1.335   4.051   3.837  0.0818 -0.3881  0.0744
    1SOL     OW 9053   1.346   4.291   3.932  0.9572  0.1370  0.0177
    1SOL    HW2 9054   1.418   4.334   3.886 -0.3644  3.1808  0.6600
    1SOL    HW3 9055   1.267   4.328   3.893 -0.2384 -1.4368  0.8892
    1SOL    MW4 9056   1.345   4.301   3.921  0.6251  0.3304  0.2174
    1SOL     OW 9057   1.578   4.399   3.814  0.3642 -0.0342  0.0272
    1SOL    HW2 9058   1.649   4.355   3.861  0.1969 -1.5233 -1.1013
    1SOL    HW3 9059   1.592   4.377   3.722 -0.6681  0.9433 -0.3733
    1SOL    MW4 9060   1.589   4.391   3.808  0.2060 -0.1016 -0.1743
    1SOL     OW 9061   2.002   4.645   3.849 -0.2991 -0.4192 -0.0171
    1SOL    HW2 9062   2.085   4.692   3.845 -1.0910  0.9548 -0.7397
    1SOL    HW3 9063   2.024   4.554   3.828  1.0459 -0.1053  0.0258
    1SOL    MW4 9064   2.016   4.639   3.846 -0.2260 -0.1969 -0.1068
    1SOL     OW 9065   1.770   0.089   3.743  0.3109 -0.0623  0.0385
    1SOL    HW2 9066   1.849   0.046   3.776 -0.4546 -0.6770  1.1194
    1SOL    HW3 9067   1.701   0.063   3.805 -0.9110 -0.2395 -1.3587
    1SOL    MW4 9068   1.771   0.080   3.755  0.0486 -0.1668 -0.0031
    1SOL     OW 9069   1.771   0.326   3.869  0.2121 -0.2919  0.0089
    1SOL    HW2 9070   1.763   0.309   3.963  0.3287  0.0828  0.0891
    1SOL    HW3 9071   1.760   0.240   3.828 -0.2126 -0.3996  0.3413
    1SOL    MW4 9072   1.768   0.312   3.876  0.1714 -0.2567  0.0634
    1SOL     OW 9073   2.013   0.466   3.785 -0.0734 -0.4811  0.0807
    1SOL    HW2 9074   1.933   0.419   3.807  0.7821 -1.9747  0.0665
    1SOL    HW3 9075   2.033   0.439   3.695  0.1660  0.2850 -0.1009
    1SOL    MW4 9076   2.005   0.456   3.776  0.0710 -0.5771  0.0548
    1SOL     OW 9077   2.019   0.733   3.857  0.2688  0.1048  0.8398
    1SOL    HW2 9078   2.017   0.741   3.952  3.6140 -1.0708  1.0955
    1SOL    HW3 9079   2.024   0.638   3.841 -0.4642  0.2742 -0.5189
    1SOL    MW4 9080   2.020   0.721   3.867  0.6132 -0.0280  0.6943
    1SOL     OW 9081   1.818   0.894   3.765  0.3213  0.3096  0.0506
    1SOL    HW2 9082   1.887   0.831   3.783  1.9499  1.9174 -0.4747
    1SOL    HW3 9083   1.812   0.897   3.670 -2.3450 -1.7807  0.0909
    1SOL    MW4 9084   1.826   0.886   3.755  0.1843  0.2459 -0.0134
    1SOL     OW 9085   1.819   1.163   3.834  0.4334  0.0754  0.4549
    1SOL    HW2 9086   1.798   1.160   3.927  1.5316 -0.0338  0.7038
    1SOL    HW3 9087   1.828   1.071   3.808 -0.0068  0.1011  0.2153
    1SOL    MW4 9088   1.818   1.151   3.843  0.5201  0.0643  0.4561
    1SOL     OW 9089   2.053   1.277   3.760  0.0483 -0.1155  0.0858
    1SOL    HW2 9090   2.124   1.229   3.802  0.2893 -0.6951 -0.9622
    1SOL    HW3 9091   1.974   1.233   3.789  0.1008  0.5649  1.3002
    1SOL    MW4 9092   2.052   1.265   3.769  0.0873 -0.1023  0.1075
    1SOL     OW 9093   2.070   1.527   3.897  0.2241 -0.1754 -0.0636
    1SOL    HW2 9094   1.990   1.569   3.866 -0.0168 -1.1710 -0.8510
    1SOL    HW3 9095   2.074   1.445   3.847  1.8531 -0.0304 -0.1933
    1SOL    MW4 9096   2.060   1.521   3.886  0.4075 -0.2875 -0.1845
    1SOL     OW 9097   1.845   1.660   3.785 -0.2089 -0.1943 -0.2429
    1SOL    HW2 9098   1.840   1.751   3.813  1.2373  0.0979 -0.9191
    1SOL    HW3 9099   1.825   1.662   3.691  0.1752 -0.5330 -0.3336
    1SOL    MW4 9100   1.841   1.672   3.776  0.0327 -0.2004 -0.3440
    1SOL     OW 9101   1.818   1.949   3.862  0.3464 -0.1269  0.1937
    1SOL    HW2 9102   1.737   1.988   3.829  0.5428  1.0630  1.1033
    1SOL    HW3 9103   1.888   2.001   3.824  0.6040  0.6080  1.6195
    1SOL    MW4 9104   1.816   1.961   3.853  0.4061  0.1270  0.5019
    1SOL     OW 9105   2.018   2.371   3.890 -0.3452  0.0412 -0.0504
    1SOL    HW2 9106   2.100   2.390   3.845  0.0668 -0.9434  0.2654
    1SOL    HW3 9107   2.039   2.377   3.983  0.0086 -2.6436  0.0958
    1SOL    MW4 9108   2.031   2.374   3.896 -0.2441 -0.4432  0.0105
    1SOL     OW 9109   2.251   2.416   3.748 -0.2118  0.3879 -0.3068
    1SOL    HW2 9110   2.259   2.406   3.653  0.1480  0.3265 -0.2729
    1SOL    HW3 9111   2.332   2.378   3.782  1.0717  3.1134 -0.1637
    1SOL    MW4 9112   2.263   2.410   3.740  0.0050  0.7393 -0.2832
    1SOL     OW 9113   1.799   2.457   3.753  0.1800  0.2379  0.5591
    1SOL    HW2 9114   1.877   2.425   3.798  0.5099  1.0146  0.5442
    1SOL    HW3 9115   1.726   2.421   3.803  0.5313 -1.6165 -0.2202
    1SOL    MW4 9116   1.800   2.448   3.765  0.2698  0.0958  0.4544
    1SOL     OW 9117   3.141   2.768   4.678  0.3443  0.2882 -0.4763
    1SOL    HW2 9118   3.217   2.739   4.727 -0.7768  0.4459  1.3858
    1SOL    HW3 9119   3.108   2.689   4.635  0.2093 -0.2315  0.5738
    1SOL    MW4 9120   3.147   2.754   4.679  0.1788  0.2408 -0.0925
    1SOL     OW 9121   2.008   3.085   3.904  0.0531 -0.1892 -0.0396
    1SOL    HW2 9122   2.074   3.148   3.877  0.4908 -0.2893  0.7835
    1SOL    HW3 9123   1.998   3.099   3.998 -0.9402 -0.3237 -0.1171
    1SOL    MW4 9124   2.015   3.095   3.913 -0.0200 -0.2205  0.0587
    1SOL     OW 9125   2.054   2.814   3.843 -0.3568 -0.2008 -0.1923
    1SOL    HW2 9126   2.057   2.907   3.864  0.0579 -0.3078  0.2373
    1SOL    HW3 9127   1.961   2.792   3.842 -0.7010  1.0679 -4.1275
    1SOL    MW4 9128   2.042   2.823   3.845 -0.3474 -0.0477 -0.6547
    1SOL     OW 9129   1.792   3.214   3.775  0.2562  0.1589  0.3412
    1SOL    HW2 9130   1.860   3.161   3.818  1.3977  1.9307  0.8045
    1SOL    HW3 9131   1.711   3.187   3.817  0.7895 -1.2935  0.4878
    1SOL    MW4 9132   1.790   3.204   3.786  0.4772  0.2012  0.4218
    1SOL     OW 9133   1.808   3.461   3.886 -0.0638 -0.0406  0.0687
    1SOL    HW2 9134   1.889   3.505   3.860 -0.8137  1.0426 -0.4431
    1SOL    HW3 9135   1.810   3.378   3.838  0.0451  0.6036 -1.0539
    1SOL    MW4 9136   1.819   3.456   3.876 -0.1485  0.1874 -0.1469
    1SOL     OW 9137   2.021   3.599   3.771  0.0512 -0.0508  0.5839
    1SOL    HW2 9138   2.113   3.573   3.774  0.2249  0.7062  2.1626
    1SOL    HW3 9139   2.006   3.624   3.679  1.2543 -0.7154  0.2036
    1SOL    MW4 9140   2.031   3.599   3.759  0.2329 -0.0386  0.7422
    1SOL     OW 9141   1.995   3.868   3.870 -0.0863 -0.0435 -0.1971
    1SOL    HW2 9142   2.067   3.920   3.833  0.1258  0.6338  1.1130
    1SOL    HW3 9143   2.009   3.780   3.837  1.0046  0.2143 -0.4480
    1SOL    MW4 9144   2.007   3.863   3.861  0.0856  0.0799 -0.0575
    1SOL     OW 9145   1.775   4.039   3.800  0.0932 -0.1859  0.0276
    1SOL    HW2 9146   1.851   3.997   3.839  0.3006 -0.2339 -0.4260
    1SOL    HW3 9147   1.701   3.988   3.832  0.2520 -0.1776  0.4193
    1SOL    MW4 9148   1.775   4.027   3.809  0.1414 -0.1907  0.0196
    1SOL     OW 9149   1.806   4.284   3.925  0.3067  0.2287  0.2958
    1SOL    HW2 9150   1.877   4.322   3.873  0.7254 -0.9489  0.0073
    1SOL    HW3 9151   1.784   4.203   3.880 -0.6079  0.1432  0.8988
    1SOL    MW4 9152   1.813   4.278   3.912  0.2414  0.0625  0.3374
    1SOL     OW 9153   2.035   4.374   3.772  0.2079  0.0610  0.0970
    1SOL    HW2 9154   2.105   4.316   3.802 -0.8973 -1.8299 -0.9184
    1SOL    HW3 9155   2.032   4.362   3.677 -1.0459  0.6387  0.0495
    1SOL    MW4 9156   2.044   4.365   3.764 -0.1032 -0.1125 -0.0432
    1SOL     OW 9157   2.487   4.649   3.861  0.0544 -0.1739 -0.3697
    1SOL    HW2 9158   2.512   4.622   3.949 -2.4305  1.1267  0.7804
    1SOL    HW3 9159   2.481   4.567   3.811 -0.0626 -1.0696  1.0848
    1SOL    MW4 9160   2.489   4.635   3.866 -0.2890 -0.1206 -0.0260
    1SOL     OW 9161   2.250   0.108   3.801  0.0907 -0.3699  0.2302
    1SOL    HW2 9162   2.318   0.051   3.836  1.4446  1.3349  0.4385
    1SOL    HW3 9163   2.260   0.102   3.706 -0.4228 -1.2295  0.2214
    1SOL    MW4 9164   2.260   0.100   3.793  0.2015 -0.2584  0.2563
    1SOL     OW 9165   2.274   0.365   3.881 -0.4650 -0.0791  0.5730
    1SOL    HW2 9166   2.290   0.277   3.848  2.1337  0.2658  0.7993
    1SOL    HW3 9167   2.181   0.381   3.865 -0.6825 -2.3893 -0.5692
    1SOL    MW4 9168   2.264   0.356   3.875 -0.1507 -0.3384  0.4523
    1SOL     OW 9169   2.506   0.502   3.798  0.1262  0.2525 -0.3425
    1SOL    HW2 9170   2.427   0.457   3.828  0.5159 -1.5575 -1.8599
    1SOL    HW3 9171   2.499   0.501   3.702  1.3994  1.1535 -0.4577
    1SOL    MW4 9172   2.495   0.496   3.789  0.3459  0.1326 -0.5579
    1SOL     OW 9173   2.539   0.778   3.872  0.1279 -0.0828 -0.3115
    1SOL    HW2 9174   2.454   0.805   3.837  0.3682  1.0898 -0.0054
    1SOL    HW3 9175   2.545   0.684   3.851 -1.7152 -0.4458  0.6387
    1SOL    MW4 9176   2.529   0.769   3.865 -0.0834  0.0240 -0.1457
    1SOL     OW 9177   2.272   0.841   3.794 -0.0907 -0.1989 -0.2695
    1SOL    HW2 9178   2.188   0.798   3.810 -0.1141 -0.4735 -1.1399
    1SOL    HW3 9179   2.263   0.879   3.707  0.4753  0.2951 -0.1137
    1SOL    MW4 9180   2.259   0.841   3.785 -0.0193 -0.1700 -0.3641
    1SOL     OW 9181   2.252   1.113   3.889 -0.0872 -0.2636 -0.6436
    1SOL    HW2 9182   2.276   1.126   3.981  2.4565 -0.4839 -1.2387
    1SOL    HW3 9183   2.253   1.018   3.876 -0.2370 -0.2266 -0.9450
    1SOL    MW4 9184   2.255   1.102   3.899  0.2286 -0.2878 -0.7620
    1SOL     OW 9185   2.468   1.263   3.773  0.4654  0.1470  0.6318
    1SOL    HW2 9186   2.472   1.350   3.812  0.3509  0.1484  0.6391
    1SOL    HW3 9187   2.389   1.223   3.810  0.3225  0.1715  0.3549
    1SOL    MW4 9188   2.458   1.269   3.783  0.4315  0.1503  0.5963
    1SOL     OW 9189   2.464   1.513   3.872  0.3441 -0.2456 -1.0845
    1SOL    HW2 9190   2.541   1.565   3.847 -0.3249  0.8222 -0.9381
    1SOL    HW3 9191   2.389   1.563   3.840 -0.2751 -1.6730 -1.9201
    1SOL    MW4 9192   2.464   1.526   3.865  0.1740 -0.2930 -1.1754
    1SOL     OW 9193   2.258   1.672   3.771 -0.9232 -0.2707 -0.0932
    1SOL    HW2 9194   2.257   1.762   3.805  0.4565 -0.5456  0.7189
    1SOL    HW3 9195   2.191   1.626   3.823 -0.5341 -0.0875  0.5792
    1SOL    MW4 9196   2.249   1.678   3.783 -0.6897 -0.2828  0.1025
    1SOL     OW 9197   2.244   1.936   3.846  0.1055 -0.1115 -0.1870
    1SOL    HW2 9198   2.179   2.004   3.828 -0.2404 -0.3350  0.2275
    1SOL    HW3 9199   2.327   1.974   3.815 -0.0003  0.7208  0.5247
    1SOL    MW4 9200   2.247   1.950   3.840  0.0458 -0.0310 -0.0386
    1SOL     OW 9201   2.480   2.050   3.763 -0.1436 -0.2843 -0.1148
    1SOL    HW2 9202   2.472   2.030   3.670  1.6322 -0.3204 -0.2724
    1SOL    HW3 9203   2.553   1.996   3.793 -1.0252 -0.6590  1.4224
    1SOL    MW4 9204   2.489   2.040   3.755 -0.0257 -0.3386  0.0672
    1SOL     OW 9205   2.268   2.639   3.918  0.2718 -0.3489 -0.1553
    1SOL    HW2 9206   2.183   2.674   3.892 -0.7032 -1.8623  0.9455
    1SOL    HW3 9207   2.278   2.559   3.867  0.1916 -1.1475  1.0472
    1SOL    MW4 9208   2.258   2.633   3.908  0.1326 -0.6540  0.1485
    1SOL     OW 9209   1.186   2.201   4.670  0.3560  0.5067 -0.0412
    1SOL    HW2 9210   1.272   2.191   4.712  0.3112  2.5514  0.5970
    1SOL    HW3 9211   1.195   2.279   4.615 -1.0694  0.6851 -0.0431
    1SOL    MW4 9212   1.199   2.210   4.668  0.1620  0.8001  0.0429
    1SOL     OW 9213   2.040   2.097   3.756 -0.1357 -0.1367 -0.1410
    1SOL    HW2 9214   2.020   2.188   3.778 -2.0995 -0.3433 -0.9560
    1SOL    HW3 9215   2.022   2.091   3.662 -0.2751 -1.4236 -0.0404
    1SOL    MW4 9216   2.035   2.108   3.747 -0.4129 -0.3338 -0.2353
    1SOL     OW 9217   2.473   2.832   3.796 -0.3323  0.0954  0.0026
    1SOL    HW2 9218   2.403   2.786   3.842  0.4755  0.0758  1.2663
    1SOL    HW3 9219   2.446   2.833   3.704 -1.7569 -0.3039  0.4027
    1SOL    MW4 9220   2.460   2.826   3.790 -0.4137  0.0403  0.2220
    1SOL     OW 9221   2.456   3.101   3.863 -0.3295  0.5419 -0.3255
    1SOL    HW2 9222   2.443   3.118   3.957  0.9233  1.1959 -0.2574
    1SOL    HW3 9223   2.484   3.010   3.859  2.2382  1.2654  0.2063
    1SOL    MW4 9224   2.458   3.091   3.875  0.1745  0.7236 -0.2463
    1SOL     OW 9225   2.231   3.231   3.781 -0.2852  0.0094 -0.3148
    1SOL    HW2 9226   2.234   3.324   3.806 -1.6045  0.0338 -0.2386
    1SOL    HW3 9227   2.317   3.197   3.808 -1.4273  0.1396  3.8826
    1SOL    MW4 9228   2.243   3.239   3.788 -0.6099  0.0298  0.2489
    1SOL     OW 9229   2.252   3.493   3.835  0.1510  0.0116  0.2653
    1SOL    HW2 9230   2.258   3.505   3.930  0.6044 -1.2963  0.4112
    1SOL    HW3 9231   2.321   3.548   3.799  0.5384 -0.1576  0.7497
    1SOL    MW4 9232   2.262   3.502   3.843  0.2620 -0.1836  0.3486
    1SOL     OW 9233   2.463   3.638   3.748 -0.3773  0.1455 -0.6112
    1SOL    HW2 9234   2.535   3.581   3.778  1.2997  1.4591 -2.0345
    1SOL    HW3 9235   2.463   3.627   3.653 -1.2031  1.1768 -0.7325
    1SOL    MW4 9236   2.473   3.629   3.739 -0.2651  0.4551 -0.8152
    1SOL     OW 9237   2.479   3.905   3.850  0.0040  0.4478 -0.4056
    1SOL    HW2 9238   2.553   3.950   3.810 -0.2681  0.7037 -0.6236
    1SOL    HW3 9239   2.488   3.814   3.822 -0.2317  0.6437 -1.1157
    1SOL    MW4 9240   2.490   3.899   3.841 -0.0629  0.5076 -0.5281
    1SOL     OW 9241   2.222   3.987   3.754 -0.1317 -0.4096  0.5662
    1SOL    HW2 9242   2.307   3.952   3.780  0.4447  0.9567  0.5417
    1SOL    HW3 9243   2.232   4.007   3.661  0.0383  1.2370  0.9281
    1SOL    MW4 9244   2.235   3.985   3.745 -0.0334 -0.0122  0.6108
    1SOL     OW 9245   2.271   4.230   3.859  0.4958 -0.5596  0.4387
    1SOL    HW2 9246   2.276   4.244   3.954  0.1970  0.7067  0.2770
    1SOL    HW3 9247   2.262   4.135   3.850  0.0775 -0.6613  1.7016
    1SOL    MW4 9248   2.270   4.220   3.871  0.4010 -0.4058  0.5841
    1SOL     OW 9249   2.464   4.396   3.728  0.7997  0.0504  0.8005
    1SOL    HW2 9250   2.550   4.372   3.763  1.1006  0.9408  0.6864
    1SOL    HW3 9251   2.403   4.339   3.774  1.4844 -0.8367  0.6265
    1SOL    MW4 9252   2.467   4.385   3.739  0.9296  0.0510  0.7625
    1SOL     OW 9253   2.927   4.645   3.878 -0.0406  0.1077  0.2525
    1SOL    HW2 9254   2.914   4.651   3.973 -0.9204  2.7442 -0.0148
    1SOL    HW3 9255   3.010   4.690   3.863 -0.9709  1.6285 -0.4565
    1SOL    MW4 9256   2.937   4.651   3.889 -0.2794  0.6561  0.1235
    1SOL     OW 9257   2.707   0.097   3.751 -0.1465 -0.3796 -0.4240
    1SOL    HW2 9258   2.772   0.048   3.801  0.9568  0.9476 -0.5344
    1SOL    HW3 9259   2.623   0.059   3.776  0.6687 -2.1751 -0.3504
    1SOL    MW4 9260   2.704   0.085   3.761  0.1068 -0.4414 -0.4289
    1SOL     OW 9261   2.722   0.364   3.911  0.0101  0.0262 -0.0800
    1SOL    HW2 9262   2.719   0.275   3.875 -0.7351  0.1637 -0.3605
    1SOL    HW3 9263   2.644   0.407   3.876 -0.1528  0.4964  0.8407
    1SOL    MW4 9264   2.711   0.358   3.901 -0.1097  0.1064  0.0045
    1SOL     OW 9265   2.951   0.524   3.774  0.1243 -0.1894 -0.4121
    1SOL    HW2 9266   3.025   0.475   3.810 -0.6402  1.0952  3.1392
    1SOL    HW3 9267   2.874   0.474   3.802 -0.4749 -0.3317 -2.2272
    1SOL    MW4 9268   2.950   0.511   3.782 -0.0553 -0.0387 -0.1831
    1SOL     OW 9269   2.964   0.766   3.887  0.3411  0.1609 -0.0264
    1SOL    HW2 9270   3.026   0.792   3.818 -0.2837 -0.0313 -0.6594
    1SOL    HW3 9271   2.961   0.670   3.881 -0.5696  0.2126 -0.4811
    1SOL    MW4 9272   2.972   0.756   3.877  0.1383  0.1423 -0.1700
    1SOL     OW 9273   2.753   0.889   3.744  0.3410  0.0195  0.3750
    1SOL    HW2 9274   2.828   0.866   3.799 -0.4361 -1.0518  1.0146
    1SOL    HW3 9275   2.678   0.850   3.789 -0.6727  1.5033  0.0108
    1SOL    MW4 9276   2.753   0.881   3.757  0.1047  0.0739  0.4113
    1SOL     OW 9277   2.695   1.126   3.861  0.1841  0.1798 -0.0118
    1SOL    HW2 9278   2.705   1.049   3.805  0.6432 -0.0726  0.4132
    1SOL    HW3 9279   2.616   1.169   3.829  1.4768  1.0914 -2.0778
    1SOL    MW4 9280   2.686   1.122   3.850  0.4153  0.2667 -0.2284
    1SOL     OW 9281   2.937   1.247   3.739 -0.3253  0.2183 -0.0222
    1SOL    HW2 9282   2.916   1.334   3.772 -0.8864 -0.0022  0.2099
    1SOL    HW3 9283   2.860   1.194   3.760 -1.4461  0.4817 -3.2207
    1SOL    MW4 9284   2.924   1.251   3.746 -0.5476  0.2240 -0.4134
    1SOL     OW 9285   2.932   1.498   3.852  0.0628  0.1752  0.1605
    1SOL    HW2 9286   2.909   1.510   3.944 -0.3840  2.5528 -0.2425
    1SOL    HW3 9287   3.015   1.545   3.840  0.5298 -0.7773 -0.4853
    1SOL    MW4 9288   2.940   1.506   3.862  0.0656  0.3632  0.0219
    1SOL     OW 9289   2.685   1.651   3.790 -0.0209 -0.4037 -0.0738
    1SOL    HW2 9290   2.769   1.607   3.802  0.3028  0.6240  1.5328
    1SOL    HW3 9291   2.681   1.669   3.696  1.1433 -1.2579 -0.3028
    1SOL    MW4 9292   2.695   1.648   3.779  0.1755 -0.3808  0.1080
    1SOL     OW 9293   2.718   1.915   3.875 -0.5771  0.4421 -0.5930
    1SOL    HW2 9294   2.719   1.916   3.970  0.5674  1.4290 -0.5988
    1SOL    HW3 9295   2.692   1.826   3.851 -0.1564 -0.0090  0.6286
    1SOL    MW4 9296   2.714   1.904   3.884 -0.3705  0.5127 -0.4325
    1SOL     OW 9297   2.962   2.318   3.865 -0.3419 -0.0185 -0.3190
    1SOL    HW2 9298   2.875   2.353   3.844 -0.3183 -0.2600 -0.8267
    1SOL    HW3 9299   3.023   2.388   3.841 -0.5491  1.1748  2.4491
    1SOL    MW4 9300   2.959   2.332   3.859 -0.3660  0.1070 -0.0210
    1SOL     OW 9301   2.857   1.917   4.608 -0.4239  0.0292  0.1169
    1SOL    HW2 9302   2.774   1.902   4.654 -0.1085 -0.8901  0.3904
    1SOL    HW3 9303   2.901   1.984   4.660 -0.1559 -0.8590  1.0656
    1SOL    MW4 9304   2.852   1.924   4.621 -0.3471 -0.2092  0.2780
    1SOL     OW 9305   2.712   2.416   3.789  0.0553 -0.5634  0.0241
    1SOL    HW2 9306   2.698   2.505   3.821  0.9156 -0.5873  0.4878
    1SOL    HW3 9307   2.632   2.369   3.812 -0.1378 -0.0662  0.3661
    1SOL    MW4 9308   2.700   2.421   3.797  0.1433 -0.5009  0.1307
    1SOL     OW 9309   2.711   2.707   3.841  0.1175  0.0981 -0.2601
    1SOL    HW2 9310   2.627   2.744   3.816 -0.2580 -1.7603 -1.9596
    1SOL    HW3 9311   2.717   2.721   3.935 -2.2217  0.0316 -0.0713
    1SOL    MW4 9312   2.701   2.713   3.850 -0.2406 -0.1557 -0.4590
    1SOL     OW 9313   2.957   2.820   3.765 -0.0568 -0.3160 -0.1959
    1SOL    HW2 9314   2.950   2.902   3.815 -0.4088 -0.1423 -0.5223
    1SOL    HW3 9315   2.872   2.777   3.779 -0.7393  0.4386 -1.8477
    1SOL    MW4 9316   2.945   2.825   3.773 -0.1934 -0.1936 -0.4570
    1SOL     OW 9317   2.919   3.080   3.843  0.2672 -0.0167  0.2276
    1SOL    HW2 9318   3.003   3.116   3.814  0.3767 -0.9233 -0.6045
    1SOL    HW3 9319   2.853   3.138   3.803  0.4373 -0.8142 -1.2569
    1SOL    MW4 9320   2.921   3.093   3.834  0.3045 -0.2415 -0.0784
    1SOL     OW 9321   2.700   3.226   3.742  0.4156  0.0855 -0.4322
    1SOL    HW2 9322   2.695   3.318   3.770 -1.6744  0.2777 -1.3516
    1SOL    HW3 9323   2.625   3.184   3.784  1.1366 -1.1322 -0.3443
    1SOL    MW4 9324   2.690   3.233   3.751  0.2351 -0.0501 -0.5422
    1SOL     OW 9325   2.672   3.484   3.826  0.1813 -0.2724 -0.1001
    1SOL    HW2 9326   2.681   3.482   3.922 -1.6330  1.6595  0.1463
    1SOL    HW3 9327   2.751   3.529   3.796  0.0943  0.3875  0.6186
    1SOL    MW4 9328   2.684   3.490   3.835 -0.0696  0.0694  0.0269
    1SOL     OW 9329   2.898   3.612   3.730 -0.2782 -0.8361  0.0145
    1SOL    HW2 9330   2.980   3.567   3.746  0.8841  0.6523 -1.5433
    1SOL    HW3 9331   2.892   3.618   3.634 -2.8728 -2.1275  0.0486
    1SOL    MW4 9332   2.908   3.607   3.719 -0.4673 -0.8097 -0.1864
    1SOL     OW 9333   2.901   3.888   3.826  0.3149  0.3578  0.1871
    1SOL    HW2 9334   2.891   3.878   3.920 -0.3937 -0.9161 -0.0293
    1SOL    HW3 9335   2.902   3.799   3.791  0.4744  0.8173 -1.0214
    1SOL    MW4 9336   2.900   3.875   3.834  0.2425  0.2503 -0.0007
    1SOL     OW 9337   2.683   4.045   3.730 -0.0261 -0.4367  0.4640
    1SOL    HW2 9338   2.689   4.131   3.773 -0.1878 -0.2676  0.1442
    1SOL    HW3 9339   2.765   4.001   3.754  0.7425  0.3756 -0.6127
    1SOL    MW4 9340   2.695   4.051   3.739  0.0541 -0.3066  0.2799
    1SOL     OW 9341   2.699   4.294   3.838  0.1501  0.2452 -0.3902
    1SOL    HW2 9342   2.777   4.337   3.805  1.3765 -0.3796  1.6554
    1SOL    HW3 9343   2.714   4.283   3.932 -2.2449 -0.1704 -0.0117
    1SOL    MW4 9344   2.711   4.298   3.846 -0.0041  0.1078 -0.0703
    1SOL     OW 9345   2.934   4.398   3.725  0.0330  0.6526 -0.1897
    1SOL    HW2 9346   2.996   4.339   3.767 -0.0695  0.4206 -0.3650
    1SOL    HW3 9347   2.939   4.479   3.777  0.6364  0.7103 -0.3326
    1SOL    MW4 9348   2.943   4.401   3.738  0.0989  0.6299 -0.2317
    1SOL     OW 9349   3.343   4.649   3.891  0.1670  0.5177  0.0837
    1SOL    HW2 9350   3.323   4.672   3.982  0.2733  0.9089  0.0095
    1SOL    HW3 9351   3.433   4.678   3.879  1.4819 -2.9917  1.0089
    1SOL    MW4 9352   3.352   4.656   3.902  0.3543  0.1068  0.1960
    1SOL     OW 9353   3.138   0.119   3.792 -0.1326  0.0965  0.3845
    1SOL    HW2 9354   3.216   0.070   3.818  0.6094  1.7286  1.2913
    1SOL    HW3 9355   3.141   0.119   3.697  0.5354 -0.5269  0.3969
    1SOL    MW4 9356   3.149   0.112   3.783  0.0534  0.2296  0.5057
    1SOL     OW 9357   3.190   0.380   3.853 -0.2040 -0.7296 -0.4184
    1SOL    HW2 9358   3.198   0.382   3.949 -0.0750  0.1030 -0.4402
    1SOL    HW3 9359   3.171   0.289   3.833  1.0820 -1.1877  0.3051
    1SOL    MW4 9360   3.189   0.368   3.863 -0.0174 -0.6801 -0.3257
    1SOL     OW 9361   3.388   0.520   3.739  0.5165  0.0105  0.5412
    1SOL    HW2 9362   3.463   0.469   3.769  1.0928  0.4618 -0.1165
    1SOL    HW3 9363   3.313   0.480   3.781  1.1324 -0.4508  1.1989
    1SOL    MW4 9364   3.388   0.508   3.748  0.6738  0.0092  0.5412
    1SOL     OW 9365   3.400   0.787   3.821  0.4243  0.3735 -0.2496
    1SOL    HW2 9366   3.365   0.802   3.909  0.6662 -0.1067 -0.0637
    1SOL    HW3 9367   3.395   0.692   3.810  2.1129  0.2480 -0.0308
    1SOL    MW4 9368   3.395   0.776   3.831  0.6788  0.2936 -0.1962
    1SOL     OW 9369   3.161   0.876   3.723  0.6072  0.1165 -0.1783
    1SOL    HW2 9370   3.248   0.845   3.750  0.3880  0.4122  0.8812
    1SOL    HW3 9371   3.153   0.848   3.632  1.2658 -1.1172  0.1271
    1SOL    MW4 9372   3.171   0.868   3.715  0.6652 -0.0073  0.0017
    1SOL     OW 9373   3.174   1.137   3.833  0.4631 -0.3923  0.0819
    1SOL    HW2 9374   3.164   1.054   3.786  0.1994 -0.4366  0.2188
    1SOL    HW3 9375   3.096   1.187   3.811  0.7859 -0.0437 -0.2736
    1SOL    MW4 9376   3.163   1.133   3.824  0.4711 -0.3521  0.0529
    1SOL     OW 9377   3.399   1.227   3.712  0.3437 -0.0886  0.3616
    1SOL    HW2 9378   3.314   1.196   3.744 -0.5833 -0.0762 -1.9692
    1SOL    HW3 9379   3.383   1.248   3.620  2.5077  1.4092  0.3043
    1SOL    MW4 9380   3.386   1.225   3.704  0.5069  0.1106  0.0465
    1SOL     OW 9381   3.374   1.490   3.819  0.1299 -0.6064  0.1242
    1SOL    HW2 9382   3.296   1.544   3.810  0.3225 -0.3073  0.2331
    1SOL    HW3 9383   3.359   1.416   3.761  0.2177 -0.0260 -0.6498
    1SOL    MW4 9384   3.362   1.487   3.810  0.1669 -0.4904  0.0365
    1SOL     OW 9385   3.162   1.650   3.765  0.3421  0.2280 -0.4056
    1SOL    HW2 9386   3.154   1.739   3.798 -1.4455 -0.1160  0.1654
    1SOL    HW3 9387   3.159   1.659   3.670  0.8562  0.8369 -0.3613
    1SOL    MW4 9388   3.161   1.663   3.757  0.1738  0.2630 -0.3245
    1SOL     OW 9389   3.135   1.907   3.884 -0.0576  0.3459 -0.2120
    1SOL    HW2 9390   3.102   1.870   3.966  0.6129  0.1306 -0.0318
    1SOL    HW3 9391   3.058   1.945   3.842 -0.1725  1.7242  1.1857
    1SOL    MW4 9392   3.121   1.907   3.889  0.0155  0.4992 -0.0033
    1SOL     OW 9393   3.341   2.048   3.761 -0.1383 -0.1584 -0.0838
    1SOL    HW2 9394   3.270   2.018   3.819 -0.0324  1.1166  0.7333
    1SOL    HW3 9395   3.421   2.015   3.803 -0.0324  1.0965  0.7359
    1SOL    MW4 9396   3.342   2.040   3.774 -0.1101  0.1755  0.1318
    1SOL     OW 9397   3.396   2.325   3.888  0.0412 -0.1907  0.1641
    1SOL    HW2 9398   3.313   2.368   3.866  0.2536  0.2896  0.3121
    1SOL    HW3 9399   3.383   2.234   3.860 -0.0420  0.1919 -1.0903
    1SOL    MW4 9400   3.383   2.319   3.881  0.0584 -0.0768  0.0181
    1SOL     OW 9401   3.172   2.469   3.802 -0.1164 -0.1179  0.1691
    1SOL    HW2 9402   3.198   2.560   3.816  1.8609 -0.7415  0.6645
    1SOL    HW3 9403   3.144   2.466   3.711 -2.7641  1.5722  0.8688
    1SOL    MW4 9404   3.172   2.481   3.792 -0.2048  0.0229  0.3266
    1SOL     OW 9405   3.205   2.734   3.880  0.0145  0.3914  0.2208
    1SOL    HW2 9406   3.194   2.689   3.964 -0.0232 -0.3069 -0.1538
    1SOL    HW3 9407   3.122   2.780   3.866  0.1146  0.7196  0.6850
    1SOL    MW4 9408   3.192   2.734   3.889  0.0229  0.3426  0.2325
    1SOL     OW 9409   3.417   2.818   3.770  0.4410 -0.2319  0.2012
    1SOL    HW2 9410   3.339   2.786   3.815  0.3031  0.7149  0.6479
    1SOL    HW3 9411   3.411   2.914   3.777  0.6566 -0.0838 -1.4155
    1SOL    MW4 9412   3.406   2.827   3.777  0.4513 -0.0875  0.0470
    1SOL     OW 9413   3.391   3.085   3.845  0.5180  0.3545  0.3122
    1SOL    HW2 9414   3.367   3.092   3.937 -0.8447  2.7273 -0.1915
    1SOL    HW3 9415   3.460   3.151   3.833  0.2678  0.4757 -0.4989
    1SOL    MW4 9416   3.397   3.094   3.855  0.3049  0.6833  0.1385
    1SOL     OW 9417   3.159   3.185   3.767 -0.2067 -0.6297 -0.1526
    1SOL    HW2 9418   3.243   3.147   3.793  1.7530  3.0745 -0.7493
    1SOL    HW3 9419   3.162   3.189   3.672 -0.6282  0.4957 -0.1261
    1SOL    MW4 9420   3.170   3.181   3.758 -0.0036  0.0076 -0.2279
    1SOL     OW 9421   3.134   3.484   3.815 -0.3027 -0.0268 -0.0755
    1SOL    HW2 9422   3.225   3.507   3.797 -0.1639  1.0725  1.8604
    1SOL    HW3 9423   3.131   3.389   3.804  0.6854  0.1099 -1.7127
    1SOL    MW4 9424   3.146   3.474   3.811 -0.1538  0.1364 -0.0360
    1SOL     OW 9425   3.382   3.600   3.738 -0.2416  0.0511 -0.2605
    1SOL    HW2 9426   3.360   3.688   3.769  2.0812  0.4220  0.5113
    1SOL    HW3 9427   3.372   3.605   3.643 -1.0160  0.8954 -0.1407
    1SOL    MW4 9428   3.378   3.613   3.730 -0.0374  0.2112 -0.1428
    1SOL     OW 9429   3.354   3.836   3.861  0.0641 -0.1607 -0.5807
    1SOL    HW2 9430   3.419   3.901   3.834  0.4880 -1.2750 -2.2743
    1SOL    HW3 9431   3.270   3.873   3.833  0.3409 -0.5071 -1.9025
    1SOL    MW4 9432   3.351   3.850   3.854  0.1564 -0.3536 -0.9785
    1SOL     OW 9433   3.144   3.982   3.768  0.2862  0.1789 -0.0224
    1SOL    HW2 9434   3.136   4.074   3.796 -0.7711  0.3757 -0.9210
    1SOL    HW3 9435   3.060   3.943   3.792  0.5915 -0.4473  0.0069
    1SOL    MW4 9436   3.132   3.989   3.775  0.1872  0.1223 -0.1371
    1SOL     OW 9437   3.134   4.267   3.865  0.0346  0.2257 -0.0911
    1SOL    HW2 9438   3.146   4.274   3.960 -0.2936  0.5514 -0.0718
    1SOL    HW3 9439   3.208   4.315   3.829  1.2548 -1.5661 -0.0278
    1SOL    MW4 9440   3.145   4.274   3.873  0.1521  0.0319 -0.0801
    1SOL     OW 9441   3.355   4.392   3.750  0.0214  0.0652  0.0702
    1SOL    HW2 9442   3.427   4.346   3.793 -2.0141 -1.0813  2.4002
    1SOL    HW3 9443   3.353   4.479   3.792  0.9047  0.6053 -0.9877
    1SOL    MW4 9444   3.364   4.398   3.761 -0.1307 -0.0153  0.2382
    1SOL     OW 9445   3.802   4.643   3.899  0.0213  0.3851 -0.1822
    1SOL    HW2 9446   3.888   4.683   3.890 -0.3794  1.0511 -1.2160
    1SOL    HW3 9447   3.808   4.560   3.851  0.0680  0.4739 -0.3294
    1SOL    MW4 9448   3.814   4.637   3.892 -0.0253  0.4847 -0.3378
    1SOL     OW 9449   3.587   0.107   3.790  0.6136 -0.0511 -0.1273
    1SOL    HW2 9450   3.654   0.055   3.834 -1.1920 -1.6961  0.7775
    1SOL    HW3 9451   3.616   0.113   3.699  1.3122 -1.9191 -0.0533
    1SOL    MW4 9452   3.599   0.101   3.784  0.4678 -0.5146  0.0021
    1SOL     OW 9453   3.570   0.366   3.886 -0.0913 -0.2582  0.3248
    1SOL    HW2 9454   3.654   0.404   3.864 -0.9909  1.2221 -0.6301
    1SOL    HW3 9455   3.568   0.282   3.841  0.5968  0.0075 -0.1935
    1SOL    MW4 9456   3.581   0.360   3.877 -0.1192 -0.0278  0.1304
    1SOL     OW 9457   3.793   0.480   3.776 -0.1286  0.0490 -0.2460
    1SOL    HW2 9458   3.873   0.439   3.808 -0.0262 -0.4749 -1.1758
    1SOL    HW3 9459   3.800   0.571   3.804  1.1123  0.1666 -0.9108
    1SOL    MW4 9460   3.804   0.487   3.784  0.0489 -0.0046 -0.4561
    1SOL     OW 9461   3.821   0.748   3.868  0.3219 -0.1263 -0.1347
    1SOL    HW2 9462   3.893   0.804   3.838 -0.3484  1.0766  0.4335
    1SOL    HW3 9463   3.742   0.802   3.856 -0.2838 -0.7534  0.9322
    1SOL    MW4 9464   3.820   0.763   3.863  0.1535 -0.0504  0.0808
    1SOL     OW 9465   3.640   0.917   3.757 -0.2792 -0.4267 -0.5017
    1SOL    HW2 9466   3.639   1.004   3.795  0.6845 -0.8120  0.4492
    1SOL    HW3 9467   3.551   0.884   3.769 -0.2958 -0.0838  0.3408
    1SOL    MW4 9468   3.628   0.924   3.764 -0.1543 -0.4324 -0.2651
    1SOL     OW 9469   3.637   1.177   3.834 -0.4537  0.2556 -0.1432
    1SOL    HW2 9470   3.701   1.235   3.795  0.3741  0.3882  1.3786
    1SOL    HW3 9471   3.553   1.204   3.796  0.0452  1.8123 -0.1398
    1SOL    MW4 9472   3.634   1.188   3.824 -0.2787  0.4785  0.0579
    1SOL     OW 9473   3.840   1.334   3.735 -0.2881  0.1404  0.2163
    1SOL    HW2 9474   3.915   1.281   3.763 -0.2864  0.2467  0.4177
    1SOL    HW3 9475   3.849   1.415   3.785  0.3601  0.8101 -0.9595
    1SOL    MW4 9476   3.851   1.337   3.746 -0.2024  0.2427  0.0877
    1SOL     OW 9477   3.813   1.587   3.873 -0.1576 -0.3629 -0.1949
    1SOL    HW2 9478   3.802   1.583   3.968  0.3329 -1.5556 -0.1708
    1SOL    HW3 9479   3.734   1.630   3.841 -1.1342 -1.5039  0.6150
    1SOL    MW4 9480   3.801   1.592   3.881 -0.2220 -0.6708 -0.0849
    1SOL     OW 9481   3.582   1.676   3.751 -0.0935 -0.2134  0.1519
    1SOL    HW2 9482   3.516   1.613   3.781  0.7248 -1.0476  0.2248
    1SOL    HW3 9483   3.571   1.678   3.656  0.3106 -0.9648  0.0851
    1SOL    MW4 9484   3.572   1.668   3.742  0.0677 -0.4226  0.1528
    1SOL     OW 9485   3.583   1.925   3.842  0.6689 -0.1859 -0.5820
    1SOL    HW2 9486   3.570   1.844   3.793 -1.5720  0.7438 -1.6102
    1SOL    HW3 9487   3.565   1.901   3.933  0.4483 -0.9195 -0.8144
    1SOL    MW4 9488   3.579   1.911   3.848  0.3440 -0.1601 -0.7484
    1SOL     OW 9489   3.789   2.076   3.747  0.4596  0.3155  0.0383
    1SOL    HW2 9490   3.861   2.028   3.789 -0.4382 -1.4697 -0.4101
    1SOL    HW3 9491   3.710   2.033   3.779 -0.2591 -0.6408 -2.9099
    1SOL    MW4 9492   3.788   2.064   3.757  0.2463 -0.0463 -0.4101
    1SOL     OW 9493   3.799   2.337   3.875  0.1377 -0.0749  0.5829
    1SOL    HW2 9494   3.800   2.251   3.834  1.7908  0.7207 -1.1258
    1SOL    HW3 9495   3.740   2.389   3.820 -0.9977 -0.1480  1.7133
    1SOL    MW4 9496   3.792   2.333   3.862  0.2058  0.0203  0.5069
    1SOL     OW 9497   3.590   2.467   3.742  0.3280 -0.0902 -0.4497
    1SOL    HW2 9498   3.523   2.408   3.775 -0.4709  0.0273 -1.8144
    1SOL    HW3 9499   3.592   2.451   3.647 -0.9492  3.1016 -1.0859
    1SOL    MW4 9500   3.582   2.458   3.734  0.0541  0.3467 -0.7138
    1SOL     OW 9501   3.594   2.673   3.921 -0.0972  0.1806 -0.2609
    1SOL    HW2 9502   3.579   2.597   3.864 -0.7982 -0.0234  0.1955
    1SOL    HW3 9503   3.533   2.740   3.889 -0.6878 -0.0267  0.4213
    1SOL    MW4 9504   3.584   2.672   3.909 -0.2677  0.1261 -0.1106
    1SOL     OW 9505   3.758   2.794   3.735 -0.2454  0.6419 -0.1170
    1SOL    HW2 9506   3.848   2.781   3.765 -0.0735  0.4341 -0.7169
    1SOL    HW3 9507   3.704   2.749   3.801  0.0112  1.8042  0.9017
    1SOL    MW4 9508   3.763   2.786   3.748 -0.1888  0.7677 -0.0618
    1SOL     OW 9509   3.784   3.071   3.818  0.0374  0.4177  0.1644
    1SOL    HW2 9510   3.712   3.132   3.804 -0.8051 -0.2033  1.7198
    1SOL    HW3 9511   3.750   2.986   3.792  0.5810  0.2947 -0.1580
    1SOL    MW4 9512   3.770   3.068   3.813 -0.0021  0.3197  0.3271
    1SOL     OW 9513   3.607   3.246   3.748  0.0916 -0.0512 -0.0227
    1SOL    HW2 9514   3.615   3.337   3.778 -1.7987  0.2847 -0.4317
    1SOL    HW3 9515   3.593   3.254   3.653 -2.2171 -0.6245  0.2384
    1SOL    MW4 9516   3.606   3.259   3.739 -0.4625 -0.0827 -0.0422
    1SOL     OW 9517   3.614   3.500   3.860 -0.0110  0.3610  0.5466
    1SOL    HW2 9518   3.597   3.503   3.954  1.8329  2.5573  0.8665
    1SOL    HW3 9519   3.544   3.553   3.821 -0.1440  0.3646  0.7916
    1SOL    MW4 9520   3.602   3.508   3.867  0.2146  0.6514  0.6211
    1SOL     OW 9521   3.799   3.641   3.725 -0.2060 -0.4060  0.3981
    1SOL    HW2 9522   3.819   3.725   3.765  0.2631 -0.4822  0.3344
    1SOL    HW3 9523   3.727   3.605   3.777  0.3974 -0.5036  1.1712
    1SOL    MW4 9524   3.792   3.647   3.737 -0.0641 -0.4289  0.4919
    1SOL     OW 9525   3.783   3.905   3.861  0.5446 -0.1997  0.1577
    1SOL    HW2 9526   3.787   3.894   3.956  0.0803  0.9080  0.3140
    1SOL    HW3 9527   3.858   3.962   3.840  1.8957 -2.1595 -0.4123
    1SOL    MW4 9528   3.793   3.911   3.870  0.6616 -0.3123  0.1028
    1SOL     OW 9529   3.538   4.019   3.758  0.4404  0.0301 -0.0767
    1SOL    HW2 9530   3.554   4.105   3.797 -0.1191  0.2740 -0.3806
    1SOL    HW3 9531   3.616   3.968   3.779  0.8384  0.6625 -0.0282
    1SOL    MW4 9532   3.550   4.024   3.766  0.4189  0.1454 -0.1101
    1SOL     OW 9533   3.578   4.285   3.887 -0.2175 -0.5241 -0.4481
    1SOL    HW2 9534   3.587   4.285   3.982 -0.0693 -0.4825 -0.4608
    1SOL    HW3 9535   3.664   4.314   3.855 -0.8777  1.4155 -0.5396
    1SOL    MW4 9536   3.591   4.289   3.895 -0.2851 -0.2627 -0.4621
    1SOL     OW 9537   3.804   4.400   3.748  0.0718 -0.3956 -0.0323
    1SOL    HW2 9538   3.893   4.370   3.770  0.1427 -0.1112  0.0613
    1SOL    HW3 9539   3.808   4.418   3.654  0.3113  0.3122  0.1094
    1SOL    MW4 9540   3.816   4.398   3.738  0.1130 -0.2646 -0.0014
    1SOL     OW 9541   4.289   4.617   3.854 -0.1482 -0.2522  0.2051
    1SOL    HW2 9542   4.309   4.584   3.942  0.6142 -1.6514 -0.4834
    1SOL    HW3 9543   4.350   4.689   3.841  0.4157 -0.6875  0.4422
    1SOL    MW4 9544   4.299   4.622   3.864  0.0262 -0.4945  0.1454
    1SOL     OW 9545   4.047   0.097   3.828 -0.2701  0.0961  0.2123
    1SOL    HW2 9546   4.132   0.054   3.841  1.0547  2.6275  0.0697
    1SOL    HW3 9547   4.028   0.083   3.735  0.1263 -0.2235  0.1728
    1SOL    MW4 9548   4.056   0.089   3.817 -0.0424  0.3879  0.1884
    1SOL     OW 9549   4.007   0.366   3.887 -0.2304  0.1020  0.2038
    1SOL    HW2 9550   4.039   0.373   3.977  0.4022 -0.4247  0.0233
    1SOL    HW3 9551   4.020   0.274   3.864  1.3101  0.6166 -1.0551
    1SOL    MW4 9552   4.013   0.355   3.896  0.0558  0.1004  0.0138
    1SOL     OW 9553   4.236   0.521   3.816 -0.1681  0.1043  0.0234
    1SOL    HW2 9554   4.163   0.468   3.850 -0.2531  0.3544  0.2323
    1SOL    HW3 9555   4.234   0.506   3.721 -0.2382 -0.2101  0.0750
    1SOL    MW4 9556   4.226   0.512   3.808 -0.1884  0.0958  0.0579
    1SOL     OW 9557   4.284   0.793   3.902  0.2010  0.0131 -0.1807
    1SOL    HW2 9558   4.202   0.834   3.877 -1.3919 -2.3510  0.9647
    1SOL    HW3 9559   4.287   0.711   3.852  2.6033  0.7591 -1.3375
    1SOL    MW4 9560   4.274   0.787   3.892  0.3076 -0.2004 -0.1822
    1SOL     OW 9561   4.042   0.911   3.798 -0.0818  0.1027  0.4128
    1SOL    HW2 9562   4.029   1.004   3.815 -2.5779 -0.0417 -0.5092
    1SOL    HW3 9563   4.071   0.908   3.706 -1.6665 -0.1261 -0.0901
    1SOL    MW4 9564   4.044   0.923   3.788 -0.6199  0.0535  0.2244
    1SOL     OW 9565   4.027   1.178   3.877  0.2159 -0.0936  0.1967
    1SOL    HW2 9566   4.030   1.173   3.973 -0.9763 -0.4469  0.2195
    1SOL    HW3 9567   4.119   1.190   3.851  0.6061 -0.5096  1.3470
    1SOL    MW4 9568   4.040   1.179   3.886  0.1097 -0.1951  0.3517
    1SOL     OW 9569   4.285   1.252   3.802 -0.8164  0.3985  0.1377
    1SOL    HW2 9570   4.265   1.343   3.826 -0.7028  0.5901 -0.4858
    1SOL    HW3 9571   4.280   1.251   3.707 -0.2792 -0.1325  0.1157
    1SOL    MW4 9572   4.281   1.264   3.793 -0.7300  0.3537  0.0525
    1SOL     OW 9573   4.251   1.521   3.866  0.1023 -0.1245 -0.5273
    1SOL    HW2 9574   4.184   1.580   3.830  0.2618  0.5498  0.2629
    1SOL    HW3 9575   4.332   1.546   3.821  0.2272  0.4693  0.0075
    1SOL    MW4 9576   4.253   1.532   3.855  0.1392  0.0430 -0.3524
    1SOL     OW 9577   4.055   1.706   3.782  0.1038  0.1790 -0.4741
    1SOL    HW2 9578   4.046   1.796   3.814  0.7556  0.3538 -0.7656
    1SOL    HW3 9579   3.991   1.656   3.832 -0.6483  0.9037 -0.7051
    1SOL    MW4 9580   4.046   1.711   3.793  0.0906  0.2978 -0.5429
    1SOL     OW 9581   4.027   1.980   3.873  0.0281 -0.0695 -0.1353
    1SOL    HW2 9582   4.012   1.973   3.967 -0.1090  0.8414 -0.0848
    1SOL    HW3 9583   4.118   2.008   3.864 -0.0062  0.0026 -0.2703
    1SOL    MW4 9584   4.037   1.983   3.884  0.0052  0.0602 -0.1464
    1SOL     OW 9585   4.282   2.081   3.809  0.1130  0.3626 -0.0758
    1SOL    HW2 9586   4.268   2.167   3.847  2.4350  0.7496 -0.0383
    1SOL    HW3 9587   4.256   2.091   3.717 -1.0293  0.6857  0.2738
    1SOL    MW4 9588   4.276   2.093   3.802  0.2689  0.4561 -0.0250
    1SOL     OW 9589   4.244   2.370   3.882  0.1492  0.0474  0.5067
    1SOL    HW2 9590   4.236   2.398   3.973  0.7549  1.1691  0.2211
    1SOL    HW3 9591   4.162   2.398   3.842 -1.1088 -2.4290  1.1854
    1SOL    MW4 9592   4.232   2.377   3.889  0.0634 -0.1314  0.5584
    1SOL     OW 9593   4.025   2.472   3.752  0.4129 -0.0695 -0.3918
    1SOL    HW2 9594   4.028   2.558   3.794 -0.7531 -0.0071 -0.4217
    1SOL    HW3 9595   3.944   2.433   3.783  1.0106 -1.2292 -0.2700
    1SOL    MW4 9596   4.015   2.478   3.761  0.3381 -0.2141 -0.3798
    1SOL     OW 9597   4.005   2.718   3.859  0.4379 -0.0088 -0.2055
    1SOL    HW2 9598   3.990   2.686   3.948  0.1422 -0.3640 -0.3841
    1SOL    HW3 9599   4.087   2.768   3.865  0.1074  0.4744  0.3938
    1SOL    MW4 9600   4.014   2.720   3.871  0.3557  0.0081 -0.1502
    1SOL     OW 9601   4.270   2.842   3.802 -0.2088  0.2852 -0.2703
    1SOL    HW2 9602   4.245   2.924   3.845 -0.4491 -0.4428  0.9967
    1SOL    HW3 9603   4.351   2.815   3.845  0.4532  0.4022 -1.4180
    1SOL    MW4 9604   4.277   2.849   3.814 -0.1535  0.2046 -0.2544
    1SOL     OW 9605   4.216   3.095   3.905 -0.3683 -0.1592 -0.3342
    1SOL    HW2 9606   4.141   3.141   3.868 -1.0411 -0.4745  0.6346
    1SOL    HW3 9607   4.291   3.130   3.856 -0.9199  1.6315  0.0685
    1SOL    MW4 9608   4.216   3.106   3.893 -0.5298  0.0355 -0.1533
    1SOL     OW 9609   4.006   3.227   3.772 -0.3538 -0.3847 -0.2327
    1SOL    HW2 9610   3.926   3.177   3.790 -0.4319  0.0573  0.6952
    1SOL    HW3 9611   4.017   3.221   3.677 -1.3809 -0.6174 -0.3485
    1SOL    MW4 9612   3.997   3.220   3.762 -0.4995 -0.3569 -0.1256
    1SOL     OW 9613   3.999   3.506   3.848 -0.5801 -0.2133 -0.2024
    1SOL    HW2 9614   3.993   3.415   3.819 -1.2287 -0.6775  1.3351
    1SOL    HW3 9615   3.924   3.549   3.807 -0.0315 -0.2783 -1.2717
    1SOL    MW4 9616   3.988   3.499   3.839 -0.5934 -0.2835 -0.1404
    1SOL     OW 9617   4.206   3.650   3.762 -0.5946  0.2452 -0.1798
    1SOL    HW2 9618   4.138   3.593   3.798 -0.6377  0.4677  0.0956
    1SOL    HW3 9619   4.288   3.614   3.795 -0.6256  0.3722  0.0383
    1SOL    MW4 9620   4.208   3.638   3.771 -0.6046  0.2913 -0.1149
    1SOL     OW 9621   4.218   3.926   3.827 -0.3363  0.3253  0.2334
    1SOL    HW2 9622   4.135   3.970   3.814 -0.5459 -0.2357 -0.3674
    1SOL    HW3 9623   4.206   3.839   3.788  1.1111  0.8834 -1.5701
    1SOL    MW4 9624   4.206   3.920   3.820 -0.1726  0.3250 -0.0837
    1SOL     OW 9625   3.997   4.052   3.774  0.1268 -0.0784 -0.0009
    1SOL    HW2 9626   4.006   4.146   3.790  1.8580 -0.2657  0.1327
    1SOL    HW3 9627   4.003   4.043   3.678 -0.1974 -0.0533 -0.0265
    1SOL    MW4 9628   3.999   4.063   3.763  0.3126 -0.1001  0.0134
    1SOL     OW 9629   4.059   4.312   3.813 -0.2437  0.0876  0.4114
    1SOL    HW2 9630   4.065   4.322   3.908  1.8639 -0.7502  0.3872
    1SOL    HW3 9631   4.139   4.354   3.779 -1.4737  1.3047 -1.0834
    1SOL    MW4 9632   4.070   4.319   3.821 -0.1283  0.1373  0.2110
    1SOL     OW 9633   4.289   4.399   3.699 -0.0881  0.5532 -0.0474
    1SOL    HW2 9634   4.298   4.483   3.744  1.0102  0.7737 -0.6630
    1SOL    HW3 9635   4.360   4.345   3.736  0.9041  0.7802 -1.5971
    1SOL    MW4 9636   4.300   4.403   3.710  0.1874  0.6123 -0.3331
    1SOL     OW 9637   3.178   1.341   4.590 -0.2570 -0.5132 -0.0131
    1SOL    HW2 9638   3.096   1.303   4.558 -0.0262 -0.3829 -0.7678
    1SOL    HW3 9639   3.182   1.428   4.548 -0.6414  0.2367  1.4754
    1SOL    MW4 9640   3.168   1.348   4.580 -0.2770 -0.3971  0.0839
    1SOL     OW 9641   4.017   4.279   4.090  0.8843  0.0401 -0.0704
    1SOL    HW2 9642   4.010   4.194   4.134  0.7272 -0.4490 -1.0210
    1SOL    HW3 9643   3.955   4.336   4.137  1.1084 -0.3249  0.6709
    1SOL    MW4 9644   4.008   4.275   4.102  0.8926 -0.0730 -0.0978
    1SOL     OW 9645   2.061   0.189   4.484 -0.1662  0.3170  0.0091
    1SOL    HW2 9646   1.974   0.166   4.518 -0.0312  1.0786  0.8802
    1SOL    HW3 9647   2.067   0.284   4.496  1.2227  0.1199  1.0138
    1SOL    MW4 9648   2.050   0.198   4.490  0.0350  0.3915  0.2565
    1SOL     OW 9649   0.670   0.845   4.128  0.0494  0.6810 -0.0002
    1SOL    HW2 9650   0.754   0.885   4.151  0.1996  0.5046 -0.2406
    1SOL    HW3 9651   0.680   0.821   4.036  0.3760 -0.9674  0.4590
    1SOL    MW4 9652   0.683   0.847   4.119  0.1124  0.4403  0.0291
    1SOL     OW 9653   4.298   0.726   4.174 -0.5310  0.1186  0.1897
    1SOL    HW2 9654   4.298   0.749   4.081 -0.4042  1.1367  0.4382
    1SOL    HW3 9655   4.363   0.784   4.213 -2.0777  1.1543  1.2689
    1SOL    MW4 9656   4.307   0.736   4.166 -0.7181  0.3895  0.3653
    1SOL     OW 9657   1.917   2.170   4.506  0.0508 -0.0593  0.3073
    1SOL    HW2 9658   1.894   2.183   4.598 -1.6532  0.4344 -0.1590
    1SOL    HW3 9659   1.994   2.225   4.492 -0.2464  0.5965  1.2217
    1SOL    MW4 9660   1.924   2.179   4.516 -0.2133  0.0923  0.3667
    1SOL     OW 9661   0.015   1.145   4.166  0.1385 -0.5592  0.3104
    1SOL    HW2 9662  -0.061   1.200   4.184  0.6634  0.7047 -1.2212
    1SOL    HW3 9663   0.090   1.198   4.192  0.7809  0.4360 -3.2933
    1SOL    MW4 9664   0.015   1.159   4.172  0.2928 -0.2612 -0.3667
    1SOL     OW 9665   1.122   2.855   4.227 -0.1311  0.0220  0.0474
    1SOL    HW2 9666   1.103   2.940   4.187 -0.0085  0.1321  0.2276
    1SOL    HW3 9667   1.080   2.859   4.313  0.2741  0.0726  0.2433
    1SOL    MW4 9668   1.114   2.867   4.233 -0.0614  0.0432  0.0973
    1SOL     OW 9669   0.685   4.137   4.580  0.2367 -0.6364  0.0830
    1SOL    HW2 9670   0.672   4.195   4.504 -1.5395 -0.5482  0.4300
    1SOL    HW3 9671   0.607   4.151   4.634  1.1514 -1.2333  1.5808
    1SOL    MW4 9672   0.673   4.147   4.577  0.1230 -0.7043  0.3266
    1SOL     OW 9673   3.359   3.633   4.561  0.2956 -0.0100 -0.4949
    1SOL    HW2 9674   3.280   3.676   4.595  1.4980  0.8888  1.2355
    1SOL    HW3 9675   3.349   3.541   4.586  0.2038  0.2634  0.5086
    1SOL    MW4 9676   3.347   3.627   4.569  0.4425  0.1445 -0.1345
    1SOL     OW 9677   0.127   3.397   4.616 -0.2460 -0.1906 -0.5643
    1SOL    HW2 9678   0.139   3.466   4.682 -1.5614 -0.0814 -0.4247
    1SOL    HW3 9679   0.114   3.445   4.534 -0.0861 -0.2995 -0.6540
    1SOL    MW4 9680   0.127   3.413   4.614 -0.3984 -0.1905 -0.5579
    1SOL     OW 9681   1.340   3.941   4.277  0.6154  0.1079 -0.1698
    1SOL    HW2 9682   1.422   3.897   4.251  0.3406 -0.2911 -0.3675
    1SOL    HW3 9683   1.352   4.031   4.249  0.8666 -0.0170 -0.4806
    1SOL    MW4 9684   1.353   3.947   4.270  0.6124  0.0389 -0.2370
    1SOL     OW 9685   0.207   2.354   4.183 -0.3376 -0.1457 -0.1429
    1SOL    HW2 9686   0.226   2.266   4.215  0.1194  0.0472  0.1290
    1SOL    HW3 9687   0.286   2.404   4.203 -0.5179  0.2776 -0.4760
    1SOL    MW4 9688   0.220   2.349   4.190 -0.3011 -0.0644 -0.1507
    1SOL     OW 9689   1.423   4.201   4.171  0.0418  0.2543 -0.2137
    1SOL    HW2 9690   1.403   4.237   4.085 -1.0629 -0.5992 -0.3224
    1SOL    HW3 9691   1.365   4.249   4.231 -0.7631 -0.6893 -0.2368
    1SOL    MW4 9692   1.413   4.212   4.168 -0.2102  0.0176 -0.2313
    1SOL     OW 9693   4.242   4.332   4.231  0.1115 -0.0709 -0.4336
    1SOL    HW2 9694   4.269   4.422   4.212  0.2994 -0.0017  0.1520
    1SOL    HW3 9695   4.163   4.319   4.178 -0.5995  0.8399  0.3787
    1SOL    MW4 9696   4.235   4.342   4.221  0.0420  0.0587 -0.2489
    1SOL     OW 9697   0.035   1.619   4.488  0.4467 -0.1223  0.6359
    1SOL    HW2 9698   0.097   1.550   4.466  0.8838  0.4162  0.1329
    1SOL    HW3 9699   0.080   1.671   4.555  0.1264 -0.3219  1.0033
    1SOL    MW4 9700   0.049   1.617   4.494  0.4621 -0.0776  0.6180
    1SOL     OW 9701   0.214   2.842   4.190 -0.2472  0.3146 -0.0910
    1SOL    HW2 9702   0.209   2.937   4.179  0.4633  0.5075  1.0897
    1SOL    HW3 9703   0.124   2.811   4.184 -0.5997  1.2002  0.5888
    1SOL    MW4 9704   0.202   2.850   4.188 -0.2000  0.4566  0.1545
    1SOL     OW 9705   1.618   1.854   4.746 -0.0833 -0.2740 -0.1905
    1SOL    HW2 9706   1.714   1.853   4.746 -0.0871 -0.9880  1.0712
    1SOL    HW3 9707   1.593   1.774   4.792 -1.2952  0.8914  1.2118
    1SOL    MW4 9708   1.627   1.843   4.752 -0.2438 -0.2145  0.1612
    1SOL     OW 9709   4.236   3.090   4.187 -0.0740  0.5309  0.0111
    1SOL    HW2 9710   4.299   3.153   4.221  0.8534 -0.7444  0.6909
    1SOL    HW3 9711   4.248   3.093   4.092  0.7274  0.6002  0.1089
    1SOL    MW4 9712   4.246   3.099   4.179  0.1540  0.3719  0.1140
    1SOL     OW 9713   3.319   2.473   4.536 -0.2313  0.0703  0.2801
    1SOL    HW2 9714   3.337   2.523   4.456 -0.1738  0.8948  0.8052
    1SOL    HW3 9715   3.354   2.526   4.607 -1.0694 -0.2351  0.9417
    1SOL    MW4 9716   3.326   2.487   4.535 -0.3343  0.1388  0.4363
    1SOL     OW 9717   2.100   1.116   4.801  0.7018 -0.0553 -0.5739
    1SOL    HW2 9718   2.158   1.181   4.761  1.1365  0.0138  0.1625
    1SOL    HW3 9719   2.134   1.105   4.890  0.7170 -1.4081 -0.7456
    1SOL    MW4 9720   2.112   1.123   4.808  0.7615 -0.2247 -0.4988
    1SOL     OW 9721   1.200   1.943   4.560 -0.7078  0.3453  0.3119
    1SOL    HW2 9722   1.191   2.022   4.613 -0.2325  0.7745 -0.2338
    1SOL    HW3 9723   1.165   1.873   4.614 -1.4444  0.9868  0.6672
    1SOL    MW4 9724   1.194   1.944   4.574 -0.7422  0.4866  0.2871
    1SOL     OW 9725   0.181   4.390   4.220  0.1862 -0.2364  0.4015
    1SOL    HW2 9726   0.176   4.388   4.315 -0.1549  1.9991  0.4741
    1SOL    HW3 9727   0.103   4.343   4.190 -0.1718 -0.1734  1.2376
    1SOL    MW4 9728   0.170   4.384   4.228  0.0940  0.0672  0.5217
    1SOL     OW 9729   3.148   1.061   4.095  0.0526  0.4460  0.4579
    1SOL    HW2 9730   3.127   1.080   4.003 -1.6444 -0.5653  0.6183
    1SOL    HW3 9731   3.088   1.116   4.145  0.1516  0.0961  0.9595
    1SOL    MW4 9732   3.137   1.071   4.089 -0.1583  0.2662  0.5455
    1SOL     OW 9733   0.905   0.914   4.521  0.3376 -0.7828  0.2164
    1SOL    HW2 9734   0.830   0.956   4.562 -1.2211 -1.8446 -1.4627
    1SOL    HW3 9735   0.978   0.972   4.539 -1.2611  1.2878  0.2064
    1SOL    MW4 9736   0.905   0.927   4.528 -0.0790 -0.6496 -0.0067
    1SOL     OW 9737   0.548   0.011   4.204 -0.4437 -0.2029 -0.1049
    1SOL    HW2 9738   0.579   0.094   4.240 -0.5089 -0.1229 -0.2338
    1SOL    HW3 9739   0.587   0.007   4.117  0.1413 -0.6406  0.1747
    1SOL    MW4 9740   0.557   0.021   4.198 -0.3750 -0.2500 -0.0849
    1SOL     OW 9741   0.473   0.401   4.247 -0.0436 -0.3022 -0.1921
    1SOL    HW2 9742   0.532   0.473   4.268  0.1857 -0.6850  0.5125
    1SOL    HW3 9743   0.485   0.385   4.154  0.1052  0.3872 -0.2929
    1SOL    MW4 9744   0.482   0.409   4.238  0.0063 -0.2617 -0.1125
    1SOL     OW 9745   0.934   0.930   4.237 -0.7118 -0.1216  0.3083
    1SOL    HW2 9746   0.942   1.020   4.205  2.0995  0.0127  1.2272
    1SOL    HW3 9747   0.925   0.939   4.332  0.3745 -0.7879  0.4935
    1SOL    MW4 9748   0.934   0.943   4.246 -0.1975 -0.1917  0.4539
    1SOL     OW 9749   4.314   0.768   4.613  0.1827  0.1277 -0.0315
    1SOL    HW2 9750   4.239   0.821   4.585  0.1602 -0.1483 -0.4959
    1SOL    HW3 9751   4.281   0.714   4.684  0.3070  1.0231  0.7118
    1SOL    MW4 9752   4.300   0.768   4.619  0.1960  0.2095  0.0057
    1SOL     OW 9753   2.886   1.996   4.354  0.2444 -0.2826 -0.8681
    1SOL    HW2 9754   2.868   1.957   4.439 -0.7408  2.1207  0.0547
    1SOL    HW3 9755   2.811   1.972   4.300  0.6116 -1.3436 -0.9315
    1SOL    MW4 9756   2.874   1.987   4.358  0.1628 -0.1055 -0.7544
    1SOL     OW 9757   0.666   1.546   4.171  0.2371 -0.0859  0.1344
    1SOL    HW2 9758   0.677   1.457   4.204  1.5057  0.3926  1.0521
    1SOL    HW3 9759   0.670   1.538   4.076 -0.5844 -1.1214  0.1844
    1SOL    MW4 9760   0.668   1.534   4.163  0.2961 -0.1595  0.2613
    1SOL     OW 9761   0.232   0.803   4.194  0.5549  0.3343 -0.3410
    1SOL    HW2 9762   0.224   0.710   4.214 -0.1266  0.4979  0.1866
    1SOL    HW3 9763   0.155   0.843   4.235  1.0942  1.1945 -0.1479
    1SOL    MW4 9764   0.220   0.796   4.202  0.5362  0.4694 -0.2456
    1SOL     OW 9765   0.551   2.413   4.526  0.2921  0.0381 -0.1746
    1SOL    HW2 9766   0.600   2.331   4.526  0.9989  0.4262  2.1105
    1SOL    HW3 9767   0.613   2.479   4.557 -0.2063  1.5245 -2.1458
    1SOL    MW4 9768   0.565   2.411   4.530  0.3195  0.2851 -0.1330
    1SOL     OW 9769   4.047   1.169   4.592 -0.4199 -0.1518  0.0935
    1SOL    HW2 9770   4.128   1.202   4.552 -0.6234  0.1698 -0.0536
    1SOL    HW3 9771   3.982   1.236   4.574 -0.4426  0.1593  1.2491
    1SOL    MW4 9772   4.049   1.182   4.585 -0.4492 -0.0681  0.2265
    1SOL     OW 9773   0.447   1.938   4.178  0.1593 -0.5933  0.2984
    1SOL    HW2 9774   0.525   1.975   4.219 -0.7948  1.5939  0.1826
    1SOL    HW3 9775   0.462   1.947   4.084 -0.3640  0.0763  0.2826
    1SOL    MW4 9776   0.459   1.944   4.171 -0.0357 -0.2164  0.2813
    1SOL     OW 9777   1.839   3.281   4.563 -0.6993  0.0466 -0.3925
    1SOL    HW2 9778   1.848   3.197   4.607 -0.3597  0.6148  0.6287
    1SOL    HW3 9779   1.812   3.258   4.474 -0.8759 -1.1256 -0.0473
    1SOL    MW4 9780   1.837   3.267   4.557 -0.6778 -0.0329 -0.2122
    1SOL     OW 9781   0.692   2.332   4.160  0.0095  0.0220 -0.2890
    1SOL    HW2 9782   0.612   2.377   4.188 -0.2287 -0.6268  0.0880
    1SOL    HW3 9783   0.694   2.345   4.065 -0.4867  0.1369 -0.2873
    1SOL    MW4 9784   0.682   2.340   4.151 -0.0874 -0.0486 -0.2394
    1SOL     OW 9785   1.982   3.944   4.666  0.3269 -0.0733 -0.1348
    1SOL    HW2 9786   1.991   3.853   4.697 -0.6438 -0.2607 -0.3791
    1SOL    HW3 9787   2.072   3.975   4.657  0.6568 -0.3624  1.8504
    1SOL    MW4 9788   1.995   3.936   4.669  0.2425 -0.1361  0.0949
    1SOL     OW 9789   0.655   2.868   4.207  0.2854 -0.0332  0.0237
    1SOL    HW2 9790   0.728   2.818   4.171  0.0064 -1.7854  1.7803
    1SOL    HW3 9791   0.582   2.805   4.210 -0.9310  1.3211 -0.4942
    1SOL    MW4 9792   0.655   2.853   4.202  0.0880 -0.0858  0.1869
    1SOL     OW 9793   1.596   2.828   4.252 -0.7505  0.0914 -0.4047
    1SOL    HW2 9794   1.605   2.837   4.346 -0.7670 -1.4388 -0.2443
    1SOL    HW3 9795   1.674   2.780   4.224 -1.1193 -0.1417 -1.0581
    1SOL    MW4 9796   1.607   2.823   4.260 -0.8013 -0.1411 -0.4697
    1SOL     OW 9797   0.635   3.129   4.117  0.3480  0.0777  0.2424
    1SOL    HW2 9798   0.618   3.041   4.152  0.4302 -0.2563 -0.5614
    1SOL    HW3 9799   0.566   3.184   4.157 -0.0074 -0.4413  0.3539
    1SOL    MW4 9800   0.623   3.125   4.127  0.3119 -0.0350  0.1507
    1SOL     OW 9801   4.483   3.242   4.270  0.2850 -0.0044  0.0493
    1SOL    HW2 9802   4.474   3.337   4.268  1.3965  0.1697  2.0699
    1SOL    HW3 9803   4.458   3.217   4.359 -0.2986 -1.6384 -0.5560
    1SOL    MW4 9804   4.478   3.251   4.281  0.3548 -0.1967  0.2360
    1SOL     OW 9805   0.450   1.422   4.583  0.3649 -0.7270 -0.2841
    1SOL    HW2 9806   0.358   1.413   4.558 -0.2648  1.2148  1.2173
    1SOL    HW3 9807   0.465   1.516   4.587  2.3691 -1.0270 -0.2832
    1SOL    MW4 9808   0.440   1.433   4.581  0.5462 -0.5105 -0.0858
    1SOL     OW 9809   3.616   3.758   4.617  0.2739 -0.3367  0.0572
    1SOL    HW2 9810   3.678   3.696   4.579 -1.7629 -2.1475 -0.4289
    1SOL    HW3 9811   3.531   3.715   4.609 -1.2263  2.5524 -0.3381
    1SOL    MW4 9812   3.613   3.745   4.611 -0.1929 -0.1945 -0.0587
    1SOL     OW 9813   0.717   3.586   4.269 -0.0697 -0.3608  0.0798
    1SOL    HW2 9814   0.788   3.542   4.223 -0.1364  0.0127 -0.3916
    1SOL    HW3 9815   0.722   3.677   4.240 -0.0903 -0.1093  0.8499
    1SOL    MW4 9816   0.727   3.592   4.259 -0.0812 -0.2782  0.1192
    1SOL     OW 9817   3.587   0.387   4.639  0.0376  0.0245 -0.4245
    1SOL    HW2 9818   3.625   0.305   4.609 -2.1814 -0.8964 -0.8306
    1SOL    HW3 9819   3.560   0.370   4.729 -2.3621 -0.4069 -1.1927
    1SOL    MW4 9820   3.588   0.374   4.647 -0.5717 -0.1539 -0.5794
    1SOL     OW 9821   4.401   0.473   4.543 -0.3916 -0.4653 -0.1231
    1SOL    HW2 9822   4.365   0.486   4.455  0.4638 -0.4052 -0.4677
    1SOL    HW3 9823   4.410   0.562   4.577  0.8248 -0.3946 -0.6062
    1SOL    MW4 9824   4.397   0.487   4.536 -0.1183 -0.4481 -0.2322
    1SOL     OW 9825   0.169   4.424   4.506  0.2308 -0.4044  0.0033
    1SOL    HW2 9826   0.159   4.333   4.533 -2.1903  0.2398  1.4310
    1SOL    HW3 9827   0.230   4.462   4.570 -0.4306 -0.5033  0.6970
    1SOL    MW4 9828   0.176   4.417   4.518 -0.1759 -0.3324  0.2832
    1SOL     OW 9829   1.064   0.067   4.138  0.2609 -0.2973  0.2777
    1SOL    HW2 9830   1.035  -0.023   4.154 -0.2543 -0.2195 -0.2194
    1SOL    HW3 9831   1.082   0.071   4.044  1.6231 -0.2667  0.5333
    1SOL    MW4 9832   1.063   0.056   4.128  0.3725 -0.2831  0.2456
    1SOL     OW 9833   0.659   0.235   4.329 -0.2554  0.0915  0.5942
    1SOL    HW2 9834   0.589   0.294   4.303 -0.0401  1.6356  3.3409
    1SOL    HW3 9835   0.737   0.271   4.287 -0.2501  1.3281  1.6614
    1SOL    MW4 9836   0.660   0.248   4.320 -0.2263  0.4584  1.0977
    1SOL     OW 9837   1.129   4.191   4.568  0.1121  0.2715 -0.2830
    1SOL    HW2 9838   1.051   4.136   4.563 -0.2601  0.9508 -2.1832
    1SOL    HW3 9839   1.100   4.269   4.616  0.3345 -0.6430  1.3627
    1SOL    MW4 9840   1.115   4.194   4.574  0.0924  0.2403 -0.3166
    1SOL     OW 9841   0.472   1.685   4.284 -0.1867  0.5710  0.2079
    1SOL    HW2 9842   0.544   1.637   4.244 -1.1039 -1.1571  0.5735
    1SOL    HW3 9843   0.462   1.764   4.229  0.0553 -0.6216 -1.6002
    1SOL    MW4 9844   0.480   1.689   4.271 -0.2759  0.1857  0.0172
    1SOL     OW 9845   1.146   0.754   4.170 -0.0246 -0.0273 -0.0779
    1SOL    HW2 9846   1.229   0.780   4.209  0.4891 -0.1377 -1.0828
    1SOL    HW3 9847   1.085   0.824   4.194 -0.0592 -0.7704  2.0552
    1SOL    MW4 9848   1.149   0.767   4.178  0.0386 -0.1398  0.0710
    1SOL     OW 9849   1.594   0.241   4.633 -0.1320  0.6504 -0.0856
    1SOL    HW2 9850   1.598   0.203   4.721 -0.0012  2.3272  0.6450
    1SOL    HW3 9851   1.667   0.200   4.586  0.4100  0.4939  0.8795
    1SOL    MW4 9852   1.604   0.230   4.638 -0.0433  0.8510  0.1383
    1SOL     OW 9853   0.916   1.191   4.165 -0.0096  0.4044  0.0584
    1SOL    HW2 9854   0.826   1.215   4.187 -0.1704 -0.9720  1.0046
    1SOL    HW3 9855   0.970   1.249   4.218 -0.3805 -0.1493  1.0749
    1SOL    MW4 9856   0.911   1.202   4.175 -0.0798  0.1498  0.3176
    1SOL     OW 9857   4.293   1.530   4.593 -0.2330  0.0356  0.0504
    1SOL    HW2 9858   4.212   1.573   4.565 -0.8184 -1.7084 -1.0167
    1SOL    HW3 9859   4.363   1.586   4.559 -0.9626  0.9358 -0.0125
    1SOL    MW4 9860   4.291   1.543   4.585 -0.4067 -0.0758 -0.0987
    1SOL     OW 9861   4.023   3.771   4.623  0.3074  0.1851  0.3573
    1SOL    HW2 9862   3.961   3.817   4.681 -0.8226 -0.9855  0.1139
    1SOL    HW3 9863   3.968   3.713   4.571  1.2509  1.6069 -2.3296
    1SOL    MW4 9864   4.007   3.770   4.624  0.2832  0.2184 -0.0291
    1SOL     OW 9865   1.137   3.633   4.568  0.2400 -0.0703 -0.2660
    1SOL    HW2 9866   1.142   3.603   4.477 -1.5133  2.7080 -1.3417
    1SOL    HW3 9867   1.210   3.695   4.577  0.0120  0.1567  0.0244
    1SOL    MW4 9868   1.147   3.637   4.557 -0.0215  0.3262 -0.3700
    1SOL     OW 9869   0.669   2.159   4.552  0.1714  0.1965 -0.0017
    1SOL    HW2 9870   0.753   2.198   4.577  0.3445 -0.4140  0.3831
    1SOL    HW3 9871   0.678   2.140   4.459 -0.4910  2.5282 -0.5725
    1SOL    MW4 9872   0.681   2.162   4.543  0.1069  0.4234 -0.0262
    1SOL     OW 9873   0.880   1.918   4.195 -0.6471 -0.6926  0.1736
    1SOL    HW2 9874   0.962   1.954   4.227  0.8579 -2.9669 -1.0004
    1SOL    HW3 9875   0.886   1.925   4.100 -2.3106  0.1262  0.1011
    1SOL    MW4 9876   0.892   1.923   4.187 -0.6679 -0.8845  0.0095
    1SOL     OW 9877   2.540   2.310   4.635  0.4798  0.3862  0.3036
    1SOL    HW2 9878   2.601   2.280   4.567 -0.0992  0.3360 -0.2037
    1SOL    HW3 9879   2.463   2.340   4.586 -0.4685 -0.8593  0.9903
    1SOL    MW4 9880   2.537   2.310   4.620  0.2785  0.2151  0.3276
    1SOL     OW 9881   0.176   4.136   4.537  0.0213 -0.4536 -0.2535
    1SOL    HW2 9882   0.237   4.097   4.475  0.0210  0.4022 -0.7910
    1SOL    HW3 9883   0.104   4.073   4.543  0.0215 -0.5345 -1.1190
    1SOL    MW4 9884   0.174   4.122   4.530  0.0213 -0.3519 -0.4382
    1SOL     OW 9885   0.908   2.708   4.105  0.1614  0.3094 -0.0117
    1SOL    HW2 9886   0.904   2.627   4.156 -0.5422 -0.4422 -1.2570
    1SOL    HW3 9887   0.980   2.757   4.145 -0.5570 -0.1280  1.8961
    1SOL    MW4 9888   0.917   2.704   4.117 -0.0263  0.1523  0.0758
    1SOL     OW 9889   0.673   3.639   4.553  0.3538 -0.1112 -0.1422
    1SOL    HW2 9890   0.757   3.673   4.585  0.1924  0.3761 -0.2377
    1SOL    HW3 9891   0.691   3.612   4.463  1.0244 -2.2683  0.6106
    1SOL    MW4 9892   0.687   3.640   4.545  0.4209 -0.3312 -0.0558
    1SOL     OW 9893   1.081   3.090   4.118  0.3030  0.1654 -0.1051
    1SOL    HW2 9894   1.066   3.100   4.024 -2.4335 -0.1522  0.2716
    1SOL    HW3 9895   0.998   3.113   4.159  1.0371 -1.0308  2.1704
    1SOL    MW4 9896   1.068   3.094   4.111  0.0389 -0.0341  0.2451
    1SOL     OW 9897   3.554   0.155   4.265 -0.3451  0.4213 -0.7224
    1SOL    HW2 9898   3.633   0.113   4.229  0.2510  1.2114 -0.3495
    1SOL    HW3 9899   3.551   0.240   4.223 -1.1231  0.3118 -0.8877
    1SOL    MW4 9900   3.564   0.161   4.255 -0.3691  0.5111 -0.6952
    1SOL     OW 9901   0.198   3.622   4.187 -0.1749 -0.0433 -0.6610
    1SOL    HW2 9902   0.204   3.714   4.160  0.3445 -0.2948 -1.4272
    1SOL    HW3 9903   0.288   3.590   4.185 -0.2345 -0.3169  0.5387
    1SOL    MW4 9904   0.211   3.630   4.183 -0.1143 -0.1128 -0.6037
    1SOL     OW 9905   4.048   2.693   4.373  0.0786  0.1187 -0.1020
    1SOL    HW2 9906   4.047   2.658   4.284 -1.9921  0.8177 -0.3905
    1SOL    HW3 9907   3.957   2.688   4.401  0.4889  1.1814  1.4738
    1SOL    MW4 9908   4.036   2.688   4.365 -0.1407  0.3512  0.0682
    1SOL     OW 9909   2.040   2.855   4.257 -0.0914  0.3484 -0.4300
    1SOL    HW2 9910   1.964   2.813   4.219 -0.1921  0.7528 -0.6826
    1SOL    HW3 9911   2.114   2.800   4.231 -0.5737 -1.5943  2.1401
    1SOL    MW4 9912   2.040   2.842   4.248 -0.1686  0.1454 -0.1245
    1SOL     OW 9913   0.418   3.262   4.261 -0.0965  0.0772  0.1753
    1SOL    HW2 9914   0.421   3.354   4.234 -0.3068  0.1044  0.2476
    1SOL    HW3 9915   0.420   3.265   4.357  1.9830 -0.0616  0.1649
    1SOL    MW4 9916   0.419   3.274   4.270  0.1501  0.0625  0.1836
    1SOL     OW 9917   0.858   4.265   4.154 -0.1748 -0.2631 -0.3443
    1SOL    HW2 9918   0.885   4.178   4.183 -1.5565 -0.3163  0.8656
    1SOL    HW3 9919   0.911   4.325   4.207  0.6795 -0.3608 -1.0807
    1SOL    MW4 9920   0.869   4.262   4.165 -0.2443 -0.2832 -0.2818
    1SOL     OW 9921   0.981   4.415   4.700  0.0903  0.1491  0.2955
    1SOL    HW2 9922   0.893   4.379   4.689 -0.5856  1.8542  0.0256
    1SOL    HW3 9923   0.988   4.483   4.633  1.4820  0.2786  0.5599
    1SOL    MW4 9924   0.970   4.419   4.690  0.1848  0.3915  0.2947
    1SOL     OW 9925   2.639   3.953   4.258  0.1712 -0.0280 -0.0772
    1SOL    HW2 9926   2.618   3.916   4.344  0.0137 -0.5966 -0.3603
    1SOL    HW3 9927   2.557   3.948   4.210  0.2593  0.3002 -0.2590
    1SOL    MW4 9928   2.625   3.947   4.263  0.1621 -0.0596 -0.1392
    1SOL     OW 9929   1.533   4.608   4.182 -0.3175 -0.5089  0.6866
    1SOL    HW2 9930   1.546   4.526   4.231  0.7900 -0.3480  0.6609
    1SOL    HW3 9931   1.456   4.648   4.224 -1.8069 -2.2710 -0.2629
    1SOL    MW4 9932   1.524   4.602   4.194 -0.3679 -0.7205  0.5579
    1SOL     OW 9933   1.327   0.126   4.261 -0.0804  0.2294 -0.2656
    1SOL    HW2 9934   1.319   0.128   4.356 -1.1143 -0.0368 -0.3415
    1SOL    HW3 9935   1.246   0.085   4.231  0.3903  0.0075 -1.2424
    1SOL    MW4 9936   1.316   0.121   4.269 -0.1547  0.1650 -0.4044
    1SOL     OW 9937   1.759   3.532   4.673 -0.0527  0.2230  0.1390
    1SOL    HW2 9938   1.842   3.579   4.663 -0.1931  0.1089 -1.9261
    1SOL    HW3 9939   1.779   3.442   4.647 -0.0397 -0.6495  3.0223
    1SOL    MW4 9940   1.772   3.527   4.668 -0.0694  0.0932  0.2470
    1SOL     OW 9941   2.430   2.059   4.707 -0.5775  0.1525 -0.7930
    1SOL    HW2 9942   2.351   2.101   4.741  0.3029  0.5311  0.8193
    1SOL    HW3 9943   2.476   2.128   4.660 -0.2980  0.4014 -0.1567
    1SOL    MW4 9944   2.426   2.074   4.706 -0.4244  0.2353 -0.4964
    1SOL     OW 9945   1.254   4.325   4.366  0.1431  0.1315 -0.4977
    1SOL    HW2 9946   1.322   4.373   4.412  1.4945 -1.3566 -0.9029
    1SOL    HW3 9947   1.214   4.270   4.434  0.4364 -0.1849 -0.5783
    1SOL    MW4 9948   1.258   4.324   4.381  0.3600 -0.1059 -0.5617
    1SOL     OW 9949   0.865   3.192   4.259 -0.5121 -0.2941 -0.1074
    1SOL    HW2 9950   0.839   3.211   4.349 -0.4190  0.5012 -0.2404
    1SOL    HW3 9951   0.783   3.183   4.211 -0.5562  0.9116 -0.2651
    1SOL    MW4 9952   0.851   3.193   4.265 -0.5057 -0.0303 -0.1464
    1SOL     OW 9953   1.342   1.138   4.173  0.0882  0.2153  0.2402
    1SOL    HW2 9954   1.420   1.169   4.220 -0.9815  2.4244  0.6101
    1SOL    HW3 9955   1.361   1.157   4.081  0.1785  0.3274  0.2814
    1SOL    MW4 9956   1.355   1.145   4.167 -0.0411  0.5215  0.2947
    1SOL     OW 9957   3.336   2.918   4.320  0.4535 -0.3231  0.4072
    1SOL    HW2 9958   3.406   2.957   4.374  1.0272 -0.9261  0.1110
    1SOL    HW3 9959   3.259   2.921   4.376  0.2051  2.2553 -0.0020
    1SOL    MW4 9960   3.335   2.924   4.335  0.4964 -0.0622  0.3147
    1SOL     OW 9961   3.447   4.450   4.553  0.5578 -0.4636  0.1984
    1SOL    HW2 9962   3.537   4.420   4.566  0.0644 -1.2972  1.7579
    1SOL    HW3 9963   3.451   4.545   4.565  1.4855 -0.2974 -1.2479
    1SOL    MW4 9964   3.460   4.459   4.556  0.6151 -0.5512  0.2136
    1SOL     OW 9965   2.920   2.260   4.306 -0.4200  0.3574  0.0152
    1SOL    HW2 9966   2.926   2.165   4.314  0.5752  0.3390 -0.8304
    1SOL    HW3 9967   2.981   2.295   4.371  1.0339  0.3623 -1.3243
    1SOL    MW4 9968   2.928   2.252   4.315 -0.0968  0.3557 -0.2732
    1SOL     OW 9969   1.047   0.214   4.577  0.1206 -0.4801  0.1550
    1SOL    HW2 9970   0.954   0.228   4.599  0.0790  0.3908 -0.5536
    1SOL    HW3 9971   1.086   0.300   4.584  0.3040 -0.3624 -2.2297
    1SOL    MW4 9972   1.040   0.227   4.581  0.1392 -0.3496 -0.2532
    1SOL     OW 9973   2.075   0.468   4.447  0.1299 -0.3123 -0.1323
    1SOL    HW2 9974   1.992   0.506   4.474  0.2461  0.4371 -0.8021
    1SOL    HW3 9975   2.073   0.471   4.352  0.8321 -0.4910 -0.1546
    1SOL    MW4 9976   2.064   0.473   4.438  0.2377 -0.2370 -0.2236
    1SOL     OW 9977   1.801   2.720   3.865  0.0521  0.5163 -0.1920
    1SOL    HW2 9978   1.713   2.759   3.857  0.1436  1.2881  2.1282
    1SOL    HW3 9979   1.793   2.635   3.823 -1.7439  0.7062 -0.3009
    1SOL    MW4 9980   1.788   2.714   3.859 -0.1729  0.6433  0.0999
    1SOL     OW 9981   3.142   3.804   4.645  0.1224  0.1842  0.5365
    1SOL    HW2 9982   3.141   3.896   4.619 -2.2289 -0.1945 -0.8885
    1SOL    HW3 9983   3.138   3.806   4.741 -0.4094  1.5638  0.4988
    1SOL    MW4 9984   3.141   3.816   4.655 -0.2577  0.3164  0.3433
    1SOL     OW 9985   1.116   2.024   4.297 -0.2449 -0.2698 -0.2428
    1SOL    HW2 9986   1.192   1.982   4.256 -0.1042  0.4369 -0.7179
    1SOL    HW3 9987   1.132   2.014   4.391  1.0642  0.9492 -0.3192
    1SOL    MW4 9988   1.128   2.017   4.304 -0.0535 -0.0157 -0.3157
    1SOL     OW 9989   3.556   4.028   4.240  0.0671  0.0894  0.2754
    1SOL    HW2 9990   3.631   3.973   4.217  0.7992  1.1675  0.0582
    1SOL    HW3 9991   3.480   3.977   4.211  0.7502 -0.6340 -0.2902
    1SOL    MW4 9992   3.556   4.014   4.233  0.2537  0.1364  0.1721
    1SOL     OW 9993   3.058   0.928   4.589 -0.1514 -0.2620 -0.3947
    1SOL    HW2 9994   3.112   0.923   4.668 -1.1194  0.1031  0.2991
    1SOL    HW3 9995   2.978   0.879   4.611 -0.6452  0.2772 -0.9570
    1SOL    MW4 9996   3.054   0.921   4.603 -0.3440 -0.1427 -0.3772
    1SOL     OW 9997   3.486   0.082   4.545  0.2798 -0.2549  0.3999
    1SOL    HW2 9998   3.394   0.106   4.542  0.4982  0.8389  1.8035
    1SOL    HW3 9999   3.513   0.079   4.454 -0.4783  2.0920  0.0828
    1SOL    MW410000   3.478   0.085   4.533  0.2086  0.1991  0.5431
    1SOL     OW10001   1.781   0.062   4.226  0.3222  0.1432 -0.1359
    1SOL    HW210002   1.852   0.010   4.187 -0.1350 -0.2284 -0.4786
    1SOL    HW310003   1.701   0.015   4.202 -0.0431  0.5747  0.2298
    1SOL    MW410004   1.780   0.049   4.218  0.2137  0.1511 -0.1330
    1SOL     OW10005   0.681   3.860   4.193  0.1159 -0.1946  0.1550
    1SOL    HW210006   0.761   3.909   4.210  0.2309 -0.5127  0.5388
    1SOL    HW310007   0.616   3.895   4.254  0.2917 -0.7462  0.6654
    1SOL    MW410008   0.683   3.871   4.203  0.1543 -0.3092  0.2737
    1SOL     OW10009   0.569   3.922   4.461 -0.0132  0.5960 -0.4122
    1SOL    HW210010   0.590   3.848   4.518  0.2359 -0.5363 -1.9296
    1SOL    HW310011   0.601   3.999   4.508  0.0414 -0.2926  1.0283
    1SOL    MW410012   0.576   3.922   4.475  0.0269  0.3293 -0.4230
    1SOL     OW10013   1.574   0.468   4.284 -0.0002 -0.3879  0.2815
    1SOL    HW210014   1.510   0.428   4.224 -1.4323  0.2914  1.3386
    1SOL    HW310015   1.589   0.555   4.248 -1.9109  0.5400  1.6222
    1SOL    MW410016   1.567   0.474   4.271 -0.4412 -0.1758  0.5980
    1SOL     OW10017   1.741   4.254   4.910 -0.8569  0.0207  0.3268
    1SOL    HW210018   1.775   4.169   4.939  0.2698  1.1998  2.6270
    1SOL    HW310019   1.799   4.279   4.838  0.0190 -0.2971  0.9096
    1SOL    MW410020   1.753   4.246   4.905 -0.5927  0.1345  0.7071
    1SOL     OW10021   1.994   4.602   4.124  0.0611  0.3378 -0.0489
    1SOL    HW210022   2.045   4.665   4.174  1.3162  0.4264 -1.4079
    1SOL    HW310023   2.004   4.630   4.033  0.4889 -1.7166 -0.6644
    1SOL    MW410024   2.002   4.614   4.118  0.2832  0.0782 -0.3095
    1SOL     OW10025   2.004   0.469   4.122 -0.0671 -0.1616 -0.0542
    1SOL    HW210026   2.090   0.427   4.113  0.3818  0.5773  0.7080
    1SOL    HW310027   1.941   0.397   4.116  0.6439 -0.7947  0.0791
    1SOL    MW410028   2.007   0.454   4.120  0.0858 -0.1476  0.0639
    1SOL     OW10029   1.806   0.089   4.516  1.0223  0.1853  0.2710
    1SOL    HW210030   1.765   0.014   4.558  0.4404 -0.1258 -0.8473
    1SOL    HW310031   1.814   0.064   4.424  0.6676  1.5558 -0.1403
    1SOL    MW410032   1.802   0.076   4.509  0.8986  0.3251  0.0696
    1SOL     OW10033   1.101   0.490   4.456  0.5554 -0.2697  0.5708
    1SOL    HW210034   1.167   0.545   4.499  1.5059 -0.1614 -1.0073
    1SOL    HW310035   1.020   0.540   4.466  0.9781  0.3209  1.1870
    1SOL    MW410036   1.099   0.504   4.463  0.7366 -0.1775  0.4435
    1SOL     OW10037   3.839   0.758   4.139  0.0847 -0.7361  0.5886
    1SOL    HW210038   3.777   0.828   4.163  0.7469 -0.1189  0.5332
    1SOL    HW310039   3.821   0.740   4.047  0.7492  0.2603  0.2478
    1SOL    MW410040   3.829   0.765   4.130  0.2599 -0.5233  0.5360
    1SOL     OW10041   3.729   4.394   4.502 -0.3702 -0.4954  0.1424
    1SOL    HW210042   3.767   4.307   4.513 -1.4592 -0.9399  0.4552
    1SOL    HW310043   3.795   4.454   4.538 -0.0179 -1.2539  0.7722
    1SOL    MW410044   3.743   4.390   4.508 -0.4675 -0.6542  0.2670
    1SOL     OW10045   1.375   0.901   4.560  0.2166  0.5294 -0.2738
    1SOL    HW210046   1.454   0.952   4.577 -0.0309  1.6069 -2.1414
    1SOL    HW310047   1.383   0.875   4.468 -0.3963 -1.5282  0.2338
    1SOL    MW410048   1.386   0.905   4.550  0.1031  0.4001 -0.4535
    1SOL     OW10049   1.624   1.454   4.367 -0.2145  0.1829 -0.4751
    1SOL    HW210050   1.582   1.532   4.402  2.3200  1.2530  0.2693
    1SOL    HW310051   1.640   1.475   4.275  0.9290  0.7392 -0.1485
    1SOL    MW410052   1.620   1.467   4.359  0.2707  0.3976 -0.3338
    1SOL     OW10053   1.570   1.198   4.325  0.1385 -0.5170 -0.1919
    1SOL    HW210054   1.622   1.190   4.245  0.0862  0.8291 -0.3701
    1SOL    HW310055   1.570   1.292   4.345 -1.4622 -0.6081  0.3150
    1SOL    MW410056   1.577   1.209   4.317 -0.0796 -0.3514 -0.1488
    1SOL     OW10057   1.614   1.569   4.114  0.1395  0.3574  0.1555
    1SOL    HW210058   1.525   1.595   4.137  0.1294  1.1544 -0.7404
    1SOL    HW310059   1.670   1.629   4.163  0.2563 -1.7270  2.6444
    1SOL    MW410060   1.609   1.581   4.123  0.1537  0.1875  0.3657
    1SOL     OW10061   1.124   1.562   4.132 -0.2000  0.5223 -0.3490
    1SOL    HW210062   1.135   1.486   4.189  0.9542  1.6516  0.9604
    1SOL    HW310063   1.036   1.595   4.152 -0.7908 -0.5722 -1.0818
    1SOL    MW410064   1.113   1.556   4.142 -0.1256  0.5270 -0.2728
    1SOL     OW10065   0.334   2.410   4.700  0.1699 -0.2344 -0.2227
    1SOL    HW210066   0.352   2.319   4.722  0.3413 -0.2296 -0.3446
    1SOL    HW310067   0.383   2.426   4.620  0.1021 -0.0482 -0.2281
    1SOL    MW410068   0.343   2.400   4.693  0.1835 -0.2093 -0.2389
    1SOL     OW10069   3.591   2.620   4.192 -0.1545 -0.2558 -0.6785
    1SOL    HW210070   3.588   2.646   4.100  0.3102 -0.0282 -0.6266
    1SOL    HW310071   3.501   2.632   4.223 -0.0619  0.7366 -0.7990
    1SOL    MW410072   3.579   2.625   4.184 -0.0811 -0.0949 -0.6881
    1SOL     OW10073   3.561   1.553   4.575 -0.1768 -0.0684 -0.5532
    1SOL    HW210074   3.482   1.547   4.629 -0.3057 -0.8585 -0.8217
    1SOL    HW310075   3.611   1.626   4.613 -0.7462  0.0399 -0.0057
    1SOL    MW410076   3.557   1.562   4.587 -0.2687 -0.1584 -0.5164
    1SOL     OW10077   2.264   2.688   4.188 -0.1303  0.2446 -0.5721
    1SOL    HW210078   2.278   2.662   4.097  3.1495 -1.3480  0.3107
    1SOL    HW310079   2.233   2.608   4.231  1.5420  0.0761  0.3561
    1SOL    MW410080   2.262   2.674   4.181  0.5229  0.0122 -0.3328
    1SOL     OW10081   2.134   1.550   4.594 -0.0264  0.2780 -0.4624
    1SOL    HW210082   2.041   1.537   4.574 -0.2404 -0.1732  0.7794
    1SOL    HW310083   2.162   1.620   4.534 -1.5653  1.5323  0.2660
    1SOL    MW410084   2.125   1.558   4.583 -0.2580  0.3840 -0.2022
    1SOL     OW10085   2.706   1.870   4.166 -0.1947 -0.3621  0.0927
    1SOL    HW210086   2.631   1.889   4.221  0.3699  0.2363  0.6671
    1SOL    HW310087   2.730   1.780   4.189  0.3743  0.0747  1.2317
    1SOL    MW410088   2.700   1.861   4.177 -0.0451 -0.2254  0.3185
    1SOL     OW10089   1.365   2.726   4.169  0.0068  0.4732 -0.3138
    1SOL    HW210090   1.296   2.781   4.206 -0.2995 -0.5729  0.7077
    1SOL    HW310091   1.446   2.764   4.203 -0.0567  1.5510 -1.3154
    1SOL    MW410092   1.367   2.738   4.178 -0.0420  0.4773 -0.3114
    1SOL     OW10093   2.056   3.626   4.316 -0.0530  0.1009  0.2612
    1SOL    HW210094   1.983   3.577   4.277 -0.2506  0.1680  0.5413
    1SOL    HW310095   2.040   3.717   4.290 -0.5798  0.2547  1.0794
    1SOL    MW410096   2.044   3.631   4.308 -0.1485  0.1302  0.4063
    1SOL     OW10097   0.842   1.680   4.565 -0.0403  0.0190 -0.1132
    1SOL    HW210098   0.837   1.667   4.470 -1.0601  1.1857 -0.2326
    1SOL    HW310099   0.760   1.725   4.587 -0.3133 -1.2357  1.4910
    1SOL    MW410100   0.830   1.684   4.556 -0.2109  0.0073  0.0830
    1SOL     OW10101   1.999   3.862   4.154  0.0381  0.2460  0.2862
    1SOL    HW210102   2.000   3.856   4.059 -2.2277 -1.8275  0.3451
    1SOL    HW310103   1.924   3.919   4.174 -0.9753 -1.2615  0.8719
    1SOL    MW410104   1.989   3.869   4.144 -0.3945 -0.2265  0.3719
    1SOL     OW10105   1.598   4.360   4.330  0.0339  0.3983  0.1757
    1SOL    HW210106   1.545   4.313   4.266 -0.3765  2.6651 -1.1946
    1SOL    HW310107   1.688   4.332   4.313 -0.4062 -1.4776  0.7952
    1SOL    MW410108   1.603   4.350   4.319 -0.0783  0.4497  0.0763
    1SOL     OW10109   1.574   3.839   4.184  0.0291 -0.2769  0.1338
    1SOL    HW210110   1.591   3.747   4.206 -0.2296 -0.4684 -0.4505
    1SOL    HW310111   1.653   3.885   4.214  0.3993 -0.7674 -0.0707
    1SOL    MW410112   1.587   3.833   4.191  0.0439 -0.3669  0.0300
    1SOL     OW10113   2.475   2.866   4.238  0.1578  0.3712 -0.0213
    1SOL    HW210114   2.453   2.953   4.204 -0.4071 -0.1731 -1.0889
    1SOL    HW310115   2.403   2.811   4.210 -0.0830 -0.2002  1.7082
    1SOL    MW410116   2.463   2.870   4.230  0.0517  0.2241  0.0663
    1SOL     OW10117   2.580   4.571   4.113  0.3486 -0.0300  0.5022
    1SOL    HW210118   2.674   4.576   4.130  0.3726 -1.2112  0.7926
    1SOL    HW310119   2.539   4.606   4.193  0.5410  0.7581  0.2578
    1SOL    MW410120   2.587   4.576   4.126  0.3774 -0.0820  0.5083
    1SOL     OW10121   4.104   2.174   4.274 -0.1349  0.4604 -0.3463
    1SOL    HW210122   4.071   2.107   4.213 -0.5059  0.6542 -0.3608
    1SOL    HW310123   4.046   2.167   4.350 -0.3932  1.0025 -0.4927
    1SOL    MW410124   4.092   2.164   4.276 -0.2179  0.5577 -0.3676
    1SOL     OW10125   1.559   0.024   4.852 -0.4413  0.5901  0.7611
    1SOL    HW210126   1.552   0.017   4.947 -1.0966  2.4378  0.8732
    1SOL    HW310127   1.472   0.002   4.819  0.1768 -1.5436  0.4591
    1SOL    MW410128   1.547   0.020   4.860 -0.4461  0.5524  0.7367
    1SOL     OW10129   2.457   0.858   4.129  0.2649 -0.1818  0.4000
    1SOL    HW210130   2.480   0.824   4.043 -0.8923 -0.7346  0.3058
    1SOL    HW310131   2.540   0.861   4.176  0.4165 -3.3258  0.4724
    1SOL    MW410132   2.471   0.854   4.124  0.1323 -0.6696  0.3972
    1SOL     OW10133   3.596   2.760   4.627 -0.0833  0.3613  0.2519
    1SOL    HW210134   3.671   2.712   4.592 -0.9069 -0.8826  0.1961
    1SOL    HW310135   3.598   2.844   4.580  0.7408 -0.0110 -0.3861
    1SOL    MW410136   3.606   2.765   4.616 -0.0832  0.1481  0.1602
    1SOL     OW10137   2.041   0.755   4.135  0.2202 -0.1347  0.1184
    1SOL    HW210138   2.119   0.772   4.188  0.5132  0.4987 -0.5053
    1SOL    HW310139   2.027   0.661   4.143  1.3329 -0.3372 -0.1348
    1SOL    MW410140   2.050   0.745   4.143  0.4055 -0.0778  0.0024
    1SOL     OW10141   0.482   2.444   4.262 -0.2665 -0.2662 -0.2723
    1SOL    HW210142   0.502   2.452   4.355 -0.1762 -0.7522 -0.2460
    1SOL    HW310143   0.471   2.534   4.231 -1.0608 -0.1277  0.3794
    1SOL    MW410144   0.483   2.457   4.270 -0.3594 -0.3119 -0.1836
    1SOL     OW10145   0.223   1.342   4.200  0.3784  0.0129 -0.2035
    1SOL    HW210146   0.252   1.425   4.162 -0.5523  0.7296  0.6247
    1SOL    HW310147   0.288   1.278   4.170  1.7772  1.2418  0.1025
    1SOL    MW410148   0.236   1.345   4.191  0.4402  0.2695 -0.0544
    1SOL     OW10149   2.702   1.156   4.147 -0.0668 -0.3074 -0.2192
    1SOL    HW210150   2.706   1.065   4.177  1.4055 -0.1757  0.0638
    1SOL    HW310151   2.691   1.151   4.053 -0.4716 -0.7714 -0.1483
    1SOL    MW410152   2.701   1.143   4.139  0.0741 -0.3513 -0.1726
    1SOL     OW10153   3.132   2.578   4.104 -0.0931 -0.2203  0.3706
    1SOL    HW210154   3.055   2.602   4.155  0.0472 -2.1215  1.5106
    1SOL    HW310155   3.120   2.486   4.084  1.1202 -0.1281 -0.8347
    1SOL    MW410156   3.120   2.569   4.108  0.0856 -0.4592  0.3619
    1SOL     OW10157   0.430   4.278   4.211 -0.2526  0.1382  0.1590
    1SOL    HW210158   0.465   4.303   4.125 -1.5301 -0.3354 -0.5168
    1SOL    HW310159   0.341   4.313   4.212 -0.3873 -0.2139  1.1271
    1SOL    MW410160   0.423   4.286   4.199 -0.4389  0.0291  0.1979
    1SOL     OW10161   1.495   1.928   4.503  0.2157  0.2455 -0.3400
    1SOL    HW210162   1.403   1.949   4.522  0.4687  1.2140 -0.1323
    1SOL    HW310163   1.532   1.905   4.588  0.5009  1.2390 -0.1786
    1SOL    MW410164   1.487   1.928   4.517  0.2867  0.5043 -0.2913
    1SOL     OW10165   2.973   1.660   4.655  0.7987  0.1760 -0.3104
    1SOL    HW210166   2.952   1.751   4.634 -0.2067 -0.4861 -2.3200
    1SOL    HW310167   3.041   1.636   4.592  1.5597 -0.2756  0.6632
    1SOL    MW410168   2.979   1.669   4.644  0.7665  0.0291 -0.4473
    1SOL     OW10169   3.140   1.609   4.177  0.0619 -0.0617  0.0680
    1SOL    HW210170   3.140   1.702   4.151  0.8197 -0.3397 -0.9764
    1SOL    HW310171   3.054   1.577   4.150  0.2564  0.0439 -0.7037
    1SOL    MW410172   3.128   1.617   4.170  0.1872 -0.0845 -0.1717
    1SOL     OW10173   3.085   2.314   4.534  0.4483  0.0149 -0.2082
    1SOL    HW210174   3.055   2.403   4.551  0.9142 -0.0258  0.8304
    1SOL    HW310175   3.180   2.321   4.527  0.5300 -0.4649  0.3462
    1SOL    MW410176   3.093   2.327   4.535  0.5205 -0.0539  0.0029
    1SOL     OW10177   4.481   2.500   4.321  0.2123  0.1292 -0.2601
    1SOL    HW210178   4.517   2.497   4.410 -1.2810 -0.5834  0.3270
    1SOL    HW310179   4.526   2.429   4.275  1.3007  0.7702 -0.1993
    1SOL    MW410180   4.492   2.490   4.327  0.1588  0.1199 -0.1750
    1SOL     OW10181   3.972   3.222   4.201  0.0088  0.3130 -0.2656
    1SOL    HW210182   4.058   3.181   4.193  0.2533  0.6566  0.5515
    1SOL    HW310183   3.988   3.315   4.186  0.5510  1.0538  4.2307
    1SOL    MW410184   3.985   3.229   4.197  0.1123  0.4561  0.4358
    1SOL     OW10185   1.803   2.694   4.140  0.1811 -0.0735 -0.1139
    1SOL    HW210186   1.815   2.604   4.170 -1.5944  0.1210  1.2554
    1SOL    HW310187   1.805   2.688   4.045  1.6618 -1.3224 -0.0378
    1SOL    MW410188   1.805   2.681   4.132  0.1422 -0.2127  0.0763
    1SOL     OW10189   0.444   2.982   4.635  0.0345  0.3827 -0.7978
    1SOL    HW210190   0.528   2.958   4.596  0.9726 -0.4536  1.6460
    1SOL    HW310191   0.382   2.919   4.598  0.7741 -0.0286 -1.3655
    1SOL    MW410192   0.447   2.970   4.625  0.2559  0.2182 -0.5503
    1SOL     OW10193   4.285   3.716   4.504 -0.4656 -0.2172 -0.5293
    1SOL    HW210194   4.304   3.810   4.504  0.1142 -0.3309  0.0281
    1SOL    HW310195   4.202   3.708   4.551 -0.0044 -0.0795  0.3196
    1SOL    MW410196   4.277   3.727   4.510 -0.3285 -0.2143 -0.3433
    1SOL     OW10197   2.610   2.945   4.502 -0.6518 -0.2209  0.3089
    1SOL    HW210198   2.538   2.925   4.443 -1.2116 -0.1546  0.9605
    1SOL    HW310199   2.598   2.886   4.576  0.3091 -0.6205  0.1527
    1SOL    MW410200   2.599   2.935   4.504 -0.5991 -0.2649  0.3738
    1SOL     OW10201   2.207   3.990   4.283  0.0845  0.0781 -0.0444
    1SOL    HW210202   2.280   3.952   4.234  0.4696 -1.4644  1.7086
    1SOL    HW310203   2.128   3.956   4.240  0.4042  0.3495 -0.8465
    1SOL    MW410204   2.206   3.981   4.271  0.1774 -0.0896  0.0806
    1SOL     OW10205   2.507   4.330   4.197  0.2032 -0.0577  0.0034
    1SOL    HW210206   2.537   4.326   4.288 -1.0110  0.9782  0.4525
    1SOL    HW310207   2.528   4.419   4.169 -0.6684  0.0474 -0.3030
    1SOL    MW410208   2.514   4.341   4.206 -0.0722  0.0930  0.0219
    1SOL     OW10209   2.644   0.858   4.514 -0.3413  0.3741  0.1088
    1SOL    HW210210   2.708   0.808   4.564 -1.1493  0.4925  1.2961
    1SOL    HW310211   2.572   0.797   4.499  0.1722  0.1491 -1.4852
    1SOL    MW410212   2.643   0.844   4.519 -0.3803  0.3601  0.0553
    1SOL     OW10213   2.833   0.145   4.319  0.0620 -0.0838 -0.0368
    1SOL    HW210214   2.775   0.207   4.275  0.0779  1.0822  1.5402
    1SOL    HW310215   2.921   0.182   4.308  0.1923 -0.3854 -0.0145
    1SOL    MW410216   2.837   0.158   4.312  0.0813  0.0302  0.1740
    1SOL     OW10217   2.471   3.575   4.496 -0.1755  0.6313 -0.0175
    1SOL    HW210218   2.513   3.489   4.491  0.0875  0.8211 -1.2985
    1SOL    HW310219   2.382   3.557   4.526  0.0453 -0.0318  0.2576
    1SOL    MW410220   2.465   3.561   4.499 -0.1116  0.5689 -0.1502
    1SOL     OW10221   2.732   0.378   4.197  0.1230 -0.1532  0.5692
    1SOL    HW210222   2.646   0.385   4.238 -0.5454 -0.5799 -0.7019
    1SOL    HW310223   2.713   0.382   4.103  1.4999 -0.1931  0.2861
    1SOL    MW410224   2.718   0.380   4.190  0.2165 -0.2148  0.3638
    1SOL     OW10225   0.662   4.311   4.353  0.0275 -0.3725  0.2339
    1SOL    HW210226   0.576   4.316   4.312  0.5989  1.2844 -0.8361
    1SOL    HW310227   0.722   4.293   4.281  0.7483  0.0173  0.7234
    1SOL    MW410228   0.659   4.310   4.338  0.1980 -0.1020  0.1574
    1SOL     OW10229   2.950   0.799   4.157  0.0903  0.0590  0.7035
    1SOL    HW210230   2.955   0.707   4.181  1.2754  0.0219  0.3348
    1SOL    HW310231   2.954   0.800   4.061  0.5433  0.5035  0.7195
    1SOL    MW410232   2.952   0.787   4.147  0.3066  0.1127  0.6566
    1SOL     OW10233   2.460   2.687   4.487  0.2106 -0.0504  0.2850
    1SOL    HW210234   2.473   2.707   4.394  1.3501 -0.3910  0.3580
    1SOL    HW310235   2.412   2.604   4.486  0.2217 -0.0556 -0.0020
    1SOL    MW410236   2.455   2.678   4.475  0.3624 -0.0961  0.2570
    1SOL     OW10237   2.571   4.300   4.462  0.2460 -0.5979 -0.0533
    1SOL    HW210238   2.490   4.332   4.502  2.0356  0.8870  2.5882
    1SOL    HW310239   2.584   4.213   4.501 -0.6412 -1.3402 -1.3710
    1SOL    MW410240   2.562   4.293   4.473  0.3650 -0.5002  0.1211
    1SOL     OW10241   2.203   3.535   4.534 -0.1535  0.1846  0.4204
    1SOL    HW210242   2.158   3.569   4.457  0.7583 -0.2123 -0.3084
    1SOL    HW310243   2.189   3.440   4.530 -0.0114  0.1513  0.6708
    1SOL    MW410244   2.196   3.527   4.523 -0.0148  0.1278  0.3572
    1SOL     OW10245   2.948   1.247   4.226 -0.1141  0.0320 -0.6466
    1SOL    HW210246   2.861   1.221   4.192  0.6257 -0.1613 -2.4675
    1SOL    HW310247   2.950   1.212   4.315 -1.8137 -0.1930 -0.6735
    1SOL    MW410248   2.936   1.239   4.233 -0.2408 -0.0232 -0.8912
    1SOL     OW10249   0.041   3.547   4.409  0.4053 -0.4894 -0.0110
    1SOL    HW210250   0.078   3.592   4.334 -0.2381 -1.3363 -0.8468
    1SOL    HW310251  -0.027   3.606   4.442  0.4412 -0.2809 -0.3122
    1SOL    MW410252   0.037   3.560   4.404  0.3251 -0.5736 -0.1607
    1SOL     OW10253   3.645   3.275   4.456 -0.4062  0.6379  0.3104
    1SOL    HW210254   3.735   3.308   4.462 -0.1975  0.2067 -0.3231
    1SOL    HW310255   3.636   3.249   4.364 -0.9192 -0.0618  0.5583
    1SOL    MW410256   3.656   3.276   4.444 -0.4463  0.4890  0.2599
    1SOL     OW10257   2.928   2.045   3.756  0.2768 -1.0025 -0.1754
    1SOL    HW210258   2.853   2.010   3.803  2.4024 -2.6850  2.0399
    1SOL    HW310259   2.928   2.139   3.775 -1.4785 -0.9181 -0.5592
    1SOL    MW410260   2.918   2.053   3.765  0.3259 -1.2133  0.0663
    1SOL     OW10261   0.355   4.514   4.702  0.0871  0.9011 -0.4207
    1SOL    HW210262   0.309   4.545   4.780  0.4118  1.3035 -0.3915
    1SOL    HW310263   0.413   4.586   4.677 -0.4702  1.0219 -1.3971
    1SOL    MW410264   0.356   4.528   4.709  0.0564  0.9699 -0.5455
    1SOL     OW10265   2.842   0.730   4.659 -0.0226  0.0297  0.1996
    1SOL    HW210266   2.838   0.701   4.750 -0.3560  0.4326  0.3145
    1SOL    HW310267   2.898   0.666   4.616  1.1863  0.5464  0.9615
    1SOL    MW410268   2.849   0.718   4.666  0.0927  0.1511  0.3152
    1SOL     OW10269   4.459   2.908   4.548  0.0702 -0.0517  0.0772
    1SOL    HW210270   4.438   2.837   4.609  0.3313 -0.2297 -0.0399
    1SOL    HW310271   4.391   2.903   4.481  1.0684 -1.3051 -0.8774
    1SOL    MW410272   4.447   2.898   4.547  0.2365 -0.2403 -0.0644
    1SOL     OW10273   2.717   1.567   4.581 -0.3267 -0.0735  0.0880
    1SOL    HW210274   2.808   1.574   4.610 -0.1053  0.2593 -0.6603
    1SOL    HW310275   2.676   1.648   4.611 -0.3100 -0.1155  0.2208
    1SOL    MW410276   2.724   1.579   4.589 -0.2952 -0.0352  0.0067
    1SOL     OW10277   0.385   3.266   4.553 -0.2466  0.6067  0.0002
    1SOL    HW210278   0.294   3.287   4.574 -0.1238  0.5132  0.6341
    1SOL    HW310279   0.398   3.178   4.587  0.0458  0.5710 -0.2029
    1SOL    MW410280   0.375   3.257   4.560 -0.1918  0.5896  0.0567
    1SOL     OW10281   2.277   2.868   4.635 -0.5227 -0.0176 -0.2152
    1SOL    HW210282   2.243   2.820   4.711 -0.1179  1.2062  0.7505
    1SOL    HW310283   2.335   2.805   4.592  0.1990 -0.3398  1.1726
    1SOL    MW410284   2.280   2.853   4.639 -0.3743  0.1016  0.0954
    1SOL     OW10285   2.915   3.658   4.224 -0.3416  0.4459 -0.4617
    1SOL    HW210286   2.906   3.673   4.318  2.8467 -0.2760  0.0148
    1SOL    HW310287   2.896   3.743   4.184 -0.6212  1.0325  0.8981
    1SOL    MW410288   2.911   3.671   4.231  0.0422  0.4277 -0.2193
    1SOL     OW10289   2.642   3.278   4.213 -0.5470 -0.2179  0.1228
    1SOL    HW210290   2.674   3.357   4.171  0.1340 -0.1122  0.8203
    1SOL    HW310291   2.710   3.212   4.195  0.0837 -0.0018  1.5870
    1SOL    MW410292   2.655   3.279   4.205 -0.3738 -0.1752  0.4077
    1SOL     OW10293   2.868   3.900   4.105  0.0762 -0.2730  0.1207
    1SOL    HW210294   2.794   3.921   4.161  0.5752 -1.2195  1.1535
    1SOL    HW310295   2.944   3.936   4.151  0.4875 -1.0539  0.0665
    1SOL    MW410296   2.869   3.908   4.118  0.1962 -0.5012  0.2499
    1SOL     OW10297   2.749   4.203   4.159 -0.1809  0.3064  0.0282
    1SOL    HW210298   2.666   4.251   4.167 -0.1175  0.3651  0.3889
    1SOL    HW310299   2.730   4.116   4.193  0.0612  0.5101  0.6963
    1SOL    MW410300   2.735   4.198   4.165 -0.1402  0.3414  0.1636
    1SOL     OW10301   2.408   3.896   4.130 -0.0158 -0.2271 -0.3154
    1SOL    HW210302   2.429   3.901   4.036 -0.8714  0.2415 -0.4804
    1SOL    HW310303   2.431   3.807   4.154 -1.1143 -0.7943 -1.2953
    1SOL    MW410304   2.414   3.885   4.121 -0.2732 -0.2401 -0.4668
    1SOL     OW10305   2.945   4.382   4.271 -0.4036  0.0964 -0.1332
    1SOL    HW210306   2.878   4.318   4.246  0.5668 -0.3269 -1.7444
    1SOL    HW310307   3.022   4.356   4.221  0.7351  1.0529  1.1024
    1SOL    MW410308   2.946   4.370   4.261 -0.1254  0.1669 -0.1826
    1SOL     OW10309   3.343   0.025   4.168  0.6481 -0.2250 -0.2216
    1SOL    HW210310   3.421   0.068   4.202  1.4866 -0.0941 -2.2147
    1SOL    HW310311   3.270   0.072   4.208  1.5721 -1.0190  2.4630
    1SOL    MW410312   3.343   0.037   4.178  0.8807 -0.3125 -0.1302
    1SOL     OW10313   1.367   1.651   4.176  0.1082 -0.6252 -0.1547
    1SOL    HW210314   1.275   1.637   4.155  0.2592 -1.1279 -0.4813
    1SOL    HW310315   1.370   1.648   4.271 -0.3313  0.1479 -0.1051
    1SOL    MW410316   1.355   1.649   4.186  0.0701 -0.5895 -0.1917
    1SOL     OW10317   2.943   0.540   4.236 -0.5450  0.1940  0.0033
    1SOL    HW210318   2.867   0.487   4.216 -0.0405 -0.2487 -0.7856
    1SOL    HW310319   2.952   0.535   4.331 -1.3277  0.0191  0.0673
    1SOL    MW410320   2.934   0.533   4.246 -0.5817  0.1125 -0.0925
    1SOL     OW10321   3.354   0.541   4.229 -0.0214 -0.2733  0.5003
    1SOL    HW210322   3.368   0.570   4.319 -1.0511  0.0063  0.5809
    1SOL    HW310323   3.437   0.502   4.203  0.4877  0.2298  1.3503
    1SOL    MW410324   3.367   0.539   4.238 -0.0899 -0.1700  0.6232
    1SOL     OW10325   2.293   0.078   4.662 -0.4051  0.0780  0.0253
    1SOL    HW210326   2.214   0.129   4.645 -0.6329  0.4457  2.0412
    1SOL    HW310327   2.363   0.126   4.619 -0.7437  1.6352  1.2038
    1SOL    MW410328   2.292   0.091   4.654 -0.4799  0.3319  0.4468
    1SOL     OW10329   4.125   4.422   4.715 -0.9794 -0.4143 -0.3811
    1SOL    HW210330   4.175   4.504   4.708 -0.1677 -0.9350 -0.6442
    1SOL    HW310331   4.108   4.413   4.809 -0.9716 -0.0008 -0.3382
    1SOL    MW410332   4.129   4.432   4.727 -0.8717 -0.4282 -0.4101
    1SOL     OW10333   3.127   0.784   4.371  0.0593 -0.4730  0.2748
    1SOL    HW210334   3.065   0.810   4.303  1.6809  0.3764 -0.9362
    1SOL    HW310335   3.115   0.849   4.440 -0.3666 -0.2665  0.0092
    1SOL    MW410336   3.117   0.796   4.371  0.2172 -0.3336  0.0796
    1SOL     OW10337   1.817   4.316   4.647 -0.1336 -0.2384  0.6317
    1SOL    HW210338   1.779   4.402   4.665  1.7361  0.9727 -1.0352
    1SOL    HW310339   1.747   4.268   4.603  0.0593  1.8855 -2.2038
    1SOL    MW410340   1.803   4.321   4.643  0.1385  0.2012  0.0372
    1SOL     OW10341   2.871   2.930   4.384  0.3402 -0.1304  0.2359
    1SOL    HW210342   2.790   2.920   4.435  0.8151  0.2356  1.0793
    1SOL    HW310343   2.845   2.980   4.307 -0.0997  0.5814  0.8392
    1SOL    MW410344   2.857   2.935   4.381  0.3450  0.0122  0.4268
    1SOL     OW10345   2.471   1.530   4.149 -0.4764 -0.3271  0.3379
    1SOL    HW210346   2.403   1.596   4.157 -0.6485 -0.5155  0.4461
    1SOL    HW310347   2.496   1.532   4.057  0.4569  0.8116  0.5997
    1SOL    MW410348   2.466   1.539   4.138 -0.3760 -0.2017  0.3867
    1SOL     OW10349   2.496   0.225   4.519 -0.0323  0.4750 -0.4071
    1SOL    HW210350   2.576   0.240   4.570 -0.5417  0.0664  0.5135
    1SOL    HW310351   2.490   0.301   4.461 -0.4100  1.8515  1.3872
    1SOL    MW410352   2.506   0.237   4.518 -0.1495  0.6027 -0.0486
    1SOL     OW10353   2.346   2.288   4.135  0.1537 -0.1496  0.0218
    1SOL    HW210354   2.304   2.202   4.141 -0.4940  0.1378 -0.3092
    1SOL    HW310355   2.288   2.347   4.184  0.3543  0.1780 -0.1300
    1SOL    MW410356   2.333   2.285   4.142  0.0949 -0.0687 -0.0420
    1SOL     OW10357   3.571   0.842   4.495 -0.0038 -0.0829  0.0278
    1SOL    HW210358   3.534   0.923   4.530  0.5279  0.4839 -0.7072
    1SOL    HW310359   3.586   0.861   4.403 -0.4950 -1.2416 -0.2917
    1SOL    MW410360   3.568   0.855   4.488  0.0014 -0.1611 -0.1111
    1SOL     OW10361   3.250   1.982   4.900  0.5321  0.1408 -0.2328
    1SOL    HW210362   3.340   2.014   4.890  0.6310 -0.1093 -0.1573
    1SOL    HW310363   3.254   1.892   4.869  0.2025  0.2794 -0.6826
    1SOL    MW410364   3.262   1.974   4.894  0.5016  0.1261 -0.2823
    1SOL     OW10365   3.509   2.357   4.160 -0.3396  0.2517  0.2296
    1SOL    HW210366   3.499   2.452   4.161 -0.1587  0.2865 -0.8732
    1SOL    HW310367   3.476   2.330   4.075 -1.2899 -0.7917  0.9125
    1SOL    MW410368   3.504   2.366   4.149 -0.4411  0.1187  0.1745
    1SOL     OW10369   2.261   4.232   4.130 -0.4963 -0.4237  0.1052
    1SOL    HW210370   2.254   4.165   4.198  1.2803 -1.7980 -1.0085
    1SOL    HW310371   2.338   4.284   4.154 -1.0939  0.3991  0.2581
    1SOL    MW410372   2.270   4.230   4.142 -0.3409 -0.4964 -0.0219
    1SOL     OW10373   3.338   3.133   4.128 -0.1965  0.0315 -0.2476
    1SOL    HW210374   3.253   3.175   4.137 -0.2750 -0.1665 -0.0498
    1SOL    HW310375   3.333   3.057   4.187  0.4883  0.6167  0.5756
    1SOL    MW410376   3.326   3.128   4.137 -0.1166  0.0827 -0.1130
    1SOL     OW10377   2.424   3.125   4.127  0.0262  0.1659  0.1362
    1SOL    HW210378   2.506   3.173   4.138  1.1431 -2.1443  2.2705
    1SOL    HW310379   2.359   3.176   4.176  1.2678 -0.6159  2.6683
    1SOL    MW410380   2.426   3.138   4.135  0.3376 -0.2422  0.7520
    1SOL     OW10381   3.378   3.597   4.261  0.2723  0.0252 -0.2366
    1SOL    HW210382   3.296   3.574   4.216  0.0404 -0.1640  0.2692
    1SOL    HW310383   3.350   3.615   4.351  0.6640  0.8452 -0.2791
    1SOL    MW410384   3.363   3.596   4.267  0.2935  0.1082 -0.1755
    1SOL     OW10385   3.585   3.496   4.136  0.0250  0.5447 -0.2687
    1SOL    HW210386   3.596   3.402   4.155 -0.4137  0.5770  0.1475
    1SOL    HW310387   3.511   3.523   4.190  1.0151  1.4545  0.6427
    1SOL    MW410388   3.577   3.487   4.145  0.0980  0.6688 -0.0935
    1SOL     OW10389   3.335   3.869   4.160 -0.2831 -0.0634  0.1899
    1SOL    HW210390   3.370   3.787   4.196 -1.3502 -0.7151 -0.2238
    1SOL    HW310391   3.330   3.853   4.066 -1.4904  0.0786  0.2153
    1SOL    MW410392   3.339   3.856   4.152 -0.5829 -0.1304  0.1388
    1SOL     OW10393   4.435   2.729   4.184  0.4870 -0.1019 -0.0829
    1SOL    HW210394   4.381   2.780   4.243 -0.5081 -0.5487 -0.5969
    1SOL    HW310395   4.449   2.646   4.230 -0.3063 -0.4587 -0.4758
    1SOL    MW410396   4.430   2.725   4.198  0.2513 -0.2081 -0.2027
    1SOL     OW10397   4.476   0.902   4.298 -0.1634 -0.7079  0.1640
    1SOL    HW210398   4.481   0.919   4.392 -1.3759 -0.2076  0.1500
    1SOL    HW310399   4.470   0.990   4.258 -0.0839 -0.9314 -0.3489
    1SOL    MW410400   4.476   0.916   4.305 -0.3130 -0.6713  0.0944
    1SOL     OW10401   3.566   4.286   4.145 -0.1782 -0.5108 -0.3911
    1SOL    HW210402   3.493   4.328   4.190 -1.4104 -1.6458 -1.2803
    1SOL    HW310403   3.567   4.197   4.179 -0.8057 -1.2300 -2.2213
    1SOL    MW410404   3.557   4.280   4.155 -0.4237 -0.7558 -0.7496
    1SOL     OW10405   3.774   0.015   4.181 -0.4469 -0.4261 -0.1494
    1SOL    HW210406   3.770  -0.078   4.202 -0.2359 -0.2994  0.4683
    1SOL    HW310407   3.767   0.019   4.085  0.1234 -1.1097 -0.2203
    1SOL    MW410408   3.773   0.003   4.171 -0.3438 -0.4996 -0.0772
    1SOL     OW10409   2.556   1.979   4.405 -0.0169  0.3978 -0.2984
    1SOL    HW210410   2.461   1.990   4.397  0.0346  0.5034 -0.7913
    1SOL    HW310411   2.590   2.069   4.408  0.1971  0.3783 -1.7501
    1SOL    MW410412   2.548   1.992   4.404  0.0184  0.4091 -0.5546
    1SOL     OW10413   3.575   0.404   4.157  0.0699  0.1860  0.0029
    1SOL    HW210414   3.664   0.429   4.182  0.1278 -1.0287  1.0596
    1SOL    HW310415   3.576   0.404   4.062  1.2587 -0.0237  0.0090
    1SOL    MW410416   3.587   0.408   4.148  0.2344 -0.0020  0.1435
    1SOL     OW10417   4.053   0.359   4.180  0.6678  0.0275  0.0170
    1SOL    HW210418   4.041   0.264   4.184  0.5196  0.0393 -0.1563
    1SOL    HW310419   3.971   0.395   4.214  0.5101  0.0997 -0.4426
    1SOL    MW410420   4.040   0.351   4.185  0.6275  0.0386 -0.0668
    1SOL     OW10421   1.371   4.082   4.677  0.1531  0.0342 -0.1089
    1SOL    HW210422   1.287   4.119   4.649 -0.3616  0.0439  1.3742
    1SOL    HW310423   1.366   3.990   4.653  0.5911  0.4891 -1.9570
    1SOL    MW410424   1.359   4.075   4.670  0.1429  0.0958 -0.1569
    1SOL     OW10425   2.425   0.005   4.351 -0.2318 -0.6416  0.1162
    1SOL    HW210426   2.459   0.079   4.402  2.6109 -1.3812 -0.6302
    1SOL    HW310427   2.424  -0.068   4.412  0.3584 -0.8224 -0.0867
    1SOL    MW410428   2.429   0.005   4.366  0.2213 -0.7631 -0.0091
    1SOL     OW10429   2.057   2.150   4.217 -0.1863  0.0346 -0.2821
    1SOL    HW210430   2.009   2.233   4.219 -0.0642  0.1073 -0.3933
    1SOL    HW310431   2.107   2.150   4.299  0.6985  0.5923 -0.8136
    1SOL    MW410432   2.057   2.161   4.228 -0.0532  0.1178 -0.3672
    1SOL     OW10433   4.387   2.679   4.680 -0.3084 -0.6885  0.0955
    1SOL    HW210434   4.368   2.644   4.767  2.2218 -2.6964 -0.0950
    1SOL    HW310435   4.326   2.633   4.622 -1.0456 -0.3819  0.6282
    1SOL    MW410436   4.376   2.668   4.684 -0.0715 -0.9129  0.1402
    1SOL     OW10437   4.219   2.411   4.151  0.3841  0.2826  0.1435
    1SOL    HW210438   4.300   2.408   4.202  0.2060 -0.7562  0.3673
    1SOL    HW310439   4.171   2.333   4.177 -0.7012  0.8973  0.0094
    1SOL    MW410440   4.224   2.400   4.161  0.2170  0.2270  0.1550
    1SOL     OW10441   3.381   1.463   4.131  0.3970  0.5660  0.0449
    1SOL    HW210442   3.303   1.514   4.155 -0.5054 -0.4032 -0.7371
    1SOL    HW310443   3.389   1.476   4.036  1.3624  0.8897  0.1696
    1SOL    MW410444   3.372   1.472   4.121  0.4058  0.4808 -0.0410
    1SOL     OW10445   3.503   1.862   4.096  0.1095  0.4388 -0.3613
    1SOL    HW210446   3.498   1.777   4.140 -2.1938  0.1540 -1.1104
    1SOL    HW310447   3.436   1.915   4.138  0.9490  1.6200 -0.4932
    1SOL    MW410448   3.494   1.858   4.107 -0.0837  0.5572 -0.4778
    1SOL     OW10449   1.888   1.465   4.482 -0.1367 -0.5549  0.1211
    1SOL    HW210450   1.804   1.509   4.467  0.3130  0.8145  1.4889
    1SOL    HW310451   1.902   1.413   4.403 -2.3731 -0.9761 -0.0325
    1SOL    MW410452   1.879   1.464   4.470 -0.3724 -0.4297  0.2823
    1SOL     OW10453   1.032   4.465   4.271 -0.8418  0.4108  0.1115
    1SOL    HW210454   1.123   4.436   4.281 -1.0214  0.0572  0.6860
    1SOL    HW310455   1.011   4.509   4.353 -0.9952  1.0427 -0.2573
    1SOL    MW410456   1.041   4.467   4.283 -0.8858  0.4478  0.1383
    1SOL     OW10457   3.610   2.189   4.349  0.0193  0.4063 -0.3498
    1SOL    HW210458   3.561   2.222   4.425  1.1338 -0.6135  0.8537
    1SOL    HW310459   3.569   2.230   4.274 -0.8205  1.8116  0.8515
    1SOL    MW410460   3.598   2.199   4.349  0.0556  0.4568 -0.0319
    1SOL     OW10461   3.723   1.942   4.253 -0.2433  0.3496 -0.0488
    1SOL    HW210462   3.650   1.903   4.205  1.1228 -0.6443 -1.3954
    1SOL    HW310463   3.689   2.025   4.285 -1.2386  1.0894 -2.8149
    1SOL    MW410464   3.709   1.948   4.251 -0.1943  0.3161 -0.5918
    1SOL     OW10465   1.738   3.931   4.541  0.2378 -0.1477  0.4055
    1SOL    HW210466   1.693   4.015   4.553 -0.2926 -0.5149  0.9826
    1SOL    HW310467   1.825   3.946   4.579 -0.3381 -0.2941  1.8102
    1SOL    MW410468   1.744   3.944   4.547  0.0918 -0.2153  0.6676
    1SOL     OW10469   3.792   3.051   4.097  1.1134  0.2725 -0.1352
    1SOL    HW210470   3.863   3.108   4.125  1.2770 -0.3247  0.6675
    1SOL    HW310471   3.801   3.047   4.001  2.2319  0.0967 -0.0290
    1SOL    MW410472   3.803   3.058   4.088  1.2825  0.1705 -0.0153
    1SOL     OW10473   3.816   4.406   4.233 -0.3607 -0.0738 -0.0360
    1SOL    HW210474   3.745   4.353   4.199  0.7074 -1.4107 -0.2157
    1SOL    HW310475   3.803   4.406   4.328 -0.3468 -0.6654 -0.0360
    1SOL    MW410476   3.805   4.399   4.241 -0.2182 -0.3285 -0.0596
    1SOL     OW10477   3.586   3.224   4.179 -0.0415 -0.2935 -0.0332
    1SOL    HW210478   3.497   3.197   4.160  0.5298 -1.7472 -0.6523
    1SOL    HW310479   3.641   3.149   4.156  1.3303  0.5019  0.5223
    1SOL    MW410480   3.582   3.211   4.174  0.2148 -0.3803 -0.0415
    1SOL     OW10481   1.215   2.426   4.523  0.2561  0.1866  0.1522
    1SOL    HW210482   1.287   2.442   4.584  0.8334  0.5277 -0.6115
    1SOL    HW310483   1.257   2.421   4.437 -0.5482 -0.3345 -0.2137
    1SOL    MW410484   1.230   2.428   4.520  0.2261  0.1628  0.0024
    1SOL     OW10485   4.247   2.523   4.486 -0.1690  0.1754 -0.2374
    1SOL    HW210486   4.315   2.508   4.420  1.1252  1.6298  0.7353
    1SOL    HW310487   4.192   2.592   4.448 -0.0745  0.2332 -0.2706
    1SOL    MW410488   4.248   2.530   4.472  0.0138  0.3750 -0.1130
    1SOL     OW10489   1.381   3.476   4.163  0.1491 -0.3938 -0.0770
    1SOL    HW210490   1.391   3.486   4.069 -1.0445  0.7750 -0.0897
    1SOL    HW310491   1.357   3.384   4.175  0.4890 -0.5945 -0.8838
    1SOL    MW410492   1.379   3.465   4.153  0.0365 -0.2661 -0.1855
    1SOL     OW10493   3.171   4.262   4.141 -0.1121  0.1905 -0.2253
    1SOL    HW210494   3.152   4.177   4.181  0.2365 -0.5712 -1.6656
    1SOL    HW310495   3.232   4.303   4.202 -3.2332  1.0492  2.4778
    1SOL    MW410496   3.176   4.256   4.154 -0.4778  0.2031 -0.0591
    1SOL     OW10497   0.044   1.178   4.609  0.2705  0.1968  0.4040
    1SOL    HW210498   0.046   1.084   4.591 -0.7315  0.3692 -0.6979
    1SOL    HW310499   0.087   1.187   4.694  0.9862 -1.1781  0.2124
    1SOL    MW410500   0.050   1.167   4.618  0.2327  0.0383  0.2337
    1SOL     OW10501   4.230   4.225   4.503 -0.0060  0.0818 -0.6942
    1SOL    HW210502   4.240   4.275   4.422 -0.7489  2.5555  0.6799
    1SOL    HW310503   4.197   4.289   4.566 -1.9442 -2.4052  0.9013
    1SOL    MW410504   4.227   4.240   4.501 -0.3600  0.0801 -0.3028
    1SOL     OW10505   0.220   2.033   4.554  0.3714 -0.1867 -0.1980
    1SOL    HW210506   0.231   2.030   4.459 -0.2515  0.1214 -0.2849
    1SOL    HW310507   0.301   2.073   4.586  0.1493  0.6702 -0.6873
    1SOL    MW410508   0.232   2.038   4.546  0.2599 -0.0331 -0.2742
    1SOL     OW10509   3.183   0.102   4.562  0.2467 -0.1287 -0.1517
    1SOL    HW210510   3.180   0.175   4.623  0.5512  0.5623 -0.9415
    1SOL    HW310511   3.099   0.057   4.574  0.6852 -0.5540  1.4148
    1SOL    MW410512   3.171   0.106   4.571  0.3452 -0.0936 -0.0496
    1SOL     OW10513   0.616   0.960   4.564 -0.0609  0.2239  0.3180
    1SOL    HW210514   0.580   0.978   4.478 -0.7612  1.7302  0.8958
    1SOL    HW310515   0.592   0.870   4.583  0.3392 -0.1932 -1.1756
    1SOL    MW410516   0.608   0.951   4.555 -0.1006  0.3676  0.1969
    1SOL     OW10517   0.129   0.284   4.603 -0.0140 -0.2381 -0.7420
    1SOL    HW210518   0.057   0.340   4.574  0.3293  0.4503 -0.2918
    1SOL    HW310519   0.092   0.196   4.605 -0.5597 -0.0350 -1.4707
    1SOL    MW410520   0.114   0.280   4.599 -0.0407 -0.1205 -0.7787
    1SOL     OW10521   4.257   0.019   4.676  0.2130  0.6253  0.5593
    1SOL    HW210522   4.339  -0.008   4.636 -0.1123  0.0083  0.3005
    1SOL    HW310523   4.268   0.112   4.694  0.0813  1.0777 -1.6336
    1SOL    MW410524   4.269   0.028   4.673  0.1531  0.6036  0.2356
    1SOL     OW10525   4.086   1.163   4.142  0.7686  0.7775  0.5440
    1SOL    HW210526   3.999   1.197   4.165  0.2741  0.0131 -0.1781
    1SOL    HW310527   4.083   1.071   4.167  0.4350  0.0743 -1.9255
    1SOL    MW410528   4.074   1.155   4.148  0.6595  0.5838  0.1230
    1SOL     OW10529   2.980   1.171   4.483  0.0555  0.0551  0.4208
    1SOL    HW210530   3.020   1.087   4.504  0.0409 -0.2166 -0.6446
    1SOL    HW310531   2.895   1.169   4.526 -0.2964 -0.8170 -0.3244
    1SOL    MW410532   2.974   1.160   4.491  0.0069 -0.0958  0.1812
    1SOL     OW10533   1.173   1.050   4.470  0.2861 -0.0708 -0.1843
    1SOL    HW210534   1.183   1.019   4.380  0.7262  1.0618 -0.5404
    1SOL    HW310535   1.235   0.997   4.521 -1.2953 -2.0063 -0.2083
    1SOL    MW410536   1.182   1.039   4.465  0.1354 -0.1768 -0.2341
    1SOL     OW10537   2.177   0.730   4.419 -0.8935 -0.5953  0.0571
    1SOL    HW210538   2.140   0.653   4.462 -1.6972 -0.8726 -1.1145
    1SOL    HW310539   2.146   0.804   4.473 -1.9194 -0.9362 -0.0465
    1SOL    MW410540   2.168   0.730   4.432 -1.1349 -0.6769 -0.1111
    1SOL     OW10541   0.966   4.620   4.494 -0.0491  0.4078  0.4817
    1SOL    HW210542   0.978   4.709   4.528  0.8982  1.4083 -2.3287
    1SOL    HW310543   0.877   4.619   4.459  0.6062  0.9184 -1.2672
    1SOL    MW410544   0.956   4.632   4.494  0.1623  0.6080 -0.1202
    1SOL     OW10545   3.817   0.512   4.249 -0.1977 -0.1254  0.0927
    1SOL    HW210546   3.835   0.598   4.212 -0.6132 -0.1570 -0.1769
    1SOL    HW310547   3.811   0.528   4.343  0.5293  0.0059  0.1237
    1SOL    MW410548   3.819   0.525   4.257 -0.1569 -0.1123  0.0610
    1SOL     OW10549   3.816   2.409   4.139  0.4952  0.2557 -0.2082
    1SOL    HW210550   3.811   2.370   4.051  0.7221 -0.5214  0.1241
    1SOL    HW310551   3.726   2.435   4.159  0.0794 -1.4686  0.1934
    1SOL    MW410552   3.804   2.407   4.130  0.4702 -0.0741 -0.1116
    1SOL     OW10553   3.991   3.501   4.133  0.3105 -0.0546  0.4970
    1SOL    HW210554   4.007   3.507   4.039  2.4008 -0.3281  0.7941
    1SOL    HW310555   4.072   3.535   4.172  0.0925 -1.4446  2.1905
    1SOL    MW410556   4.004   3.506   4.126  0.5574 -0.2744  0.7596
    1SOL     OW10557   4.011   2.603   4.110 -0.1085 -0.2129 -0.1499
    1SOL    HW210558   3.943   2.537   4.121 -0.2528  0.1448  1.1936
    1SOL    HW310559   4.093   2.554   4.119 -0.1918 -0.5342 -1.1222
    1SOL    MW410560   4.013   2.588   4.113 -0.1383 -0.2079 -0.1011
    1SOL     OW10561   1.268   3.286   4.507 -0.2803  0.3022 -0.3026
    1SOL    HW210562   1.257   3.369   4.553 -0.7875 -0.2191  0.5481
    1SOL    HW310563   1.197   3.231   4.540 -0.6520 -0.0966 -1.7238
    1SOL    MW410564   1.257   3.290   4.518 -0.3963  0.1807 -0.3777
    1SOL     OW10565   3.237   0.804   4.817 -0.0465  0.3196  0.3650
    1SOL    HW210566   3.232   0.852   4.899  0.4703  0.3901  0.3553
    1SOL    HW310567   3.309   0.845   4.769  0.2559 -0.3248  0.2648
    1SOL    MW410568   3.246   0.816   4.821  0.0615  0.2438  0.3505
    1SOL     OW10569   3.778   3.646   4.240 -0.1188  0.0289 -0.4155
    1SOL    HW210570   3.706   3.596   4.200  0.2450 -0.9129  0.0924
    1SOL    HW310571   3.857   3.605   4.206  0.1941 -0.4377  0.8425
    1SOL    MW410572   3.779   3.634   4.230 -0.0296 -0.1566 -0.1826
    1SOL     OW10573   2.046   1.582   4.185  0.3184  0.4304  0.3447
    1SOL    HW210574   2.037   1.556   4.093 -0.2164 -0.1866  0.5664
    1SOL    HW310575   2.131   1.626   4.189 -0.2024  1.5955 -0.7085
    1SOL    MW410576   2.056   1.585   4.173  0.1791  0.5027  0.2346
    1SOL     OW10577   4.222   3.625   4.242  0.7650  0.3455 -0.0560
    1SOL    HW210578   4.300   3.591   4.197 -0.4631 -0.5985 -1.5585
    1SOL    HW310579   4.251   3.643   4.331  2.7909  0.3477 -0.6929
    1SOL    MW410580   4.236   3.623   4.248  0.8702  0.2215 -0.3381
    1SOL     OW10581   0.351   4.014   4.319 -0.0691 -0.4354  0.1294
    1SOL    HW210582   0.383   4.097   4.285 -1.1017 -0.3621 -0.7118
    1SOL    HW310583   0.419   3.984   4.379 -0.2053  1.5717  1.3090
    1SOL    MW410584   0.364   4.021   4.322 -0.2233 -0.1607  0.1750
    1SOL     OW10585   1.848   0.586   4.553  0.2850  0.2908 -0.1694
    1SOL    HW210586   1.851   0.679   4.533  0.5318  1.1155  3.4784
    1SOL    HW310587   1.755   0.566   4.565  0.4016  0.5715  1.2352
    1SOL    MW410588   1.836   0.596   4.552  0.3328  0.4366  0.4978
    1SOL     OW10589   3.793   3.899   4.141  0.7928  0.3125  0.4298
    1SOL    HW210590   3.873   3.946   4.163  0.0466  2.0932 -0.6464
    1SOL    HW310591   3.798   3.819   4.194  2.2619  1.3802  1.9611
    1SOL    MW410592   3.805   3.894   4.151  0.8881  0.6886  0.4902
    1SOL     OW10593   2.885   0.030   4.586  0.0785  0.0118  0.6394
    1SOL    HW210594   2.854   0.068   4.503  0.6069 -0.3426  0.2759
    1SOL    HW310595   2.861  -0.063   4.580  3.1822 -0.7976 -0.6578
    1SOL    MW410596   2.878   0.023   4.574  0.5579 -0.1418  0.4196
    1SOL     OW10597   3.789   2.633   4.434 -0.0665 -0.0854 -0.0507
    1SOL    HW210598   3.730   2.663   4.364  0.9926  1.2624 -0.3821
    1SOL    HW310599   3.780   2.538   4.433  0.8717 -0.1926 -2.8951
    1SOL    MW410600   3.780   2.625   4.424  0.1969  0.0784 -0.4697
    1SOL     OW10601   2.140   1.790   4.471  0.3261 -0.3139  0.0466
    1SOL    HW210602   2.190   1.870   4.488  0.0596 -0.3729  1.1067
    1SOL    HW310603   2.049   1.818   4.473  0.2283 -0.6678  0.5372
    1SOL    MW410604   2.135   1.805   4.473  0.2785 -0.3684  0.2513
    1SOL     OW10605   4.403   2.177   4.257 -0.1848 -0.4424  0.2674
    1SOL    HW210606   4.440   2.179   4.345  0.7699  0.3946 -0.1414
    1SOL    HW310607   4.309   2.163   4.270  0.2306 -2.2454  1.3322
    1SOL    MW410608   4.396   2.176   4.270 -0.0043 -0.5698  0.3538
    1SOL     OW10609   4.046   0.068   4.224 -0.3557 -0.5045  0.1384
    1SOL    HW210610   4.041   0.087   4.318  0.2371 -0.5526  0.1781
    1SOL    HW310611   3.956   0.047   4.199 -0.8503  1.2803  0.3288
    1SOL    MW410612   4.033   0.068   4.233 -0.3428 -0.2754  0.1688
    1SOL     OW10613   0.683   2.893   4.480  0.0010  0.4507 -0.1342
    1SOL    HW210614   0.674   2.802   4.509  0.2792  0.7438  0.8857
    1SOL    HW310615   0.663   2.890   4.386 -0.8487 -0.5167  0.0697
    1SOL    MW410616   0.679   2.880   4.471 -0.0744  0.3617  0.0267
    1SOL     OW10617   1.858   0.868   4.489  0.3343  0.1080  0.1517
    1SOL    HW210618   1.939   0.912   4.517  0.9867 -1.2764  0.4773
    1SOL    HW310619   1.788   0.920   4.529  1.1078  0.5491  0.9649
    1SOL    MW410620   1.860   0.881   4.498  0.5224 -0.0165  0.3018
    1SOL     OW10621   1.846   3.015   4.637 -0.5128 -0.3821 -0.0123
    1SOL    HW210622   1.872   2.969   4.716 -0.9664  0.4776  0.6506
    1SOL    HW310623   1.919   3.002   4.576 -0.1255 -0.9754  0.5763
    1SOL    MW410624   1.859   3.007   4.639 -0.5215 -0.3469  0.1531
    1SOL     OW10625   0.233   1.614   4.146  0.1288  0.4535  0.1762
    1SOL    HW210626   0.155   1.657   4.181  0.4836  1.1387  0.1333
    1SOL    HW310627   0.303   1.639   4.206 -0.0108 -1.6100  1.2395
    1SOL    MW410628   0.232   1.623   4.159  0.1572  0.2717  0.3109
    1SOL     OW10629   4.048   3.995   4.461 -0.1602 -0.3452 -0.2264
    1SOL    HW210630   4.042   3.928   4.529 -1.7856  0.0055 -0.0047
    1SOL    HW310631   4.105   4.062   4.498  0.6146 -1.0917 -0.0361
    1SOL    MW410632   4.055   3.995   4.475 -0.2728 -0.3972 -0.1721
    1SOL     OW10633   0.464   0.479   4.737 -0.4732 -0.1120 -0.1376
    1SOL    HW210634   0.385   0.488   4.791  0.4878 -1.4269  1.5769
    1SOL    HW310635   0.437   0.423   4.664 -1.2904 -0.0499  0.1147
    1SOL    MW410636   0.450   0.473   4.735 -0.4542 -0.2773  0.1216
    1SOL     OW10637   0.499   0.703   4.562  0.2805 -0.0208 -0.2313
    1SOL    HW210638   0.502   0.626   4.620  2.3656  0.1413 -0.0998
    1SOL    HW310639   0.540   0.674   4.481 -2.7038 -0.2657 -1.7390
    1SOL    MW410640   0.505   0.689   4.559  0.1618 -0.0318 -0.4125
    1SOL     OW10641   0.035   1.978   4.118  0.5848  0.3093  0.2155
    1SOL    HW210642  -0.005   1.899   4.154 -0.6532  0.0253 -1.7058
    1SOL    HW310643  -0.010   2.050   4.162 -0.1613 -0.0414  0.0344
    1SOL    MW410644   0.023   1.977   4.129  0.3230  0.2257 -0.0615
    1SOL     OW10645   2.282   4.132   4.500 -0.2373  0.1331  0.2472
    1SOL    HW210646   2.212   4.195   4.514 -0.3000  0.6638 -2.1979
    1SOL    HW310647   2.244   4.066   4.441  1.1931  0.2525 -0.8457
    1SOL    MW410648   2.268   4.131   4.494 -0.0565  0.2184 -0.2193
    1SOL     OW10649   3.579   1.184   4.788 -0.3514  0.0129 -0.5942
    1SOL    HW210650   3.597   1.244   4.715  2.5285  0.1707  0.2109
    1SOL    HW310651   3.655   1.126   4.791 -0.4952 -0.0713  2.2256
    1SOL    MW410652   3.591   1.184   4.779  0.0098  0.0226 -0.1163
    1SOL     OW10653   0.448   3.510   4.154 -0.2225  0.3530 -0.3266
    1SOL    HW210654   0.541   3.519   4.176 -0.4160  0.7546  0.3561
    1SOL    HW310655   0.445   3.518   4.059  0.3717  1.0023 -0.2968
    1SOL    MW410656   0.460   3.512   4.145 -0.1696  0.4916 -0.2327
    1SOL     OW10657   3.361   1.461   4.758  0.2056  0.4236 -0.0121
    1SOL    HW210658   3.424   1.392   4.782  1.0183  0.6807 -1.3817
    1SOL    HW310659   3.294   1.415   4.708  0.9798  0.6938 -1.3106
    1SOL    MW410660   3.361   1.446   4.755  0.4148  0.4933 -0.3638
    1SOL     OW10661   4.486   0.626   5.003  0.5176 -0.1216  0.2866
    1SOL    HW210662   4.544   0.590   4.936  0.6749 -2.3047  1.5525
    1SOL    HW310663   4.515   0.717   5.014  0.9831  0.0274 -2.0231
    1SOL    MW410664   4.497   0.633   4.996  0.5999 -0.3899  0.1488
    1SOL     OW10665   3.430   0.586   4.493  0.5535  0.1234  0.5070
    1SOL    HW210666   3.483   0.522   4.541 -0.8026 -0.4623  1.2776
    1SOL    HW310667   3.484   0.664   4.489  3.1549 -1.7317 -2.4157
    1SOL    MW410668   3.444   0.588   4.499  0.7179 -0.1987  0.2232
    1SOL     OW10669   0.451   1.710   4.568  0.8035  0.2475 -0.0997
    1SOL    HW210670   0.360   1.721   4.595  0.4278 -2.4163 -0.1066
    1SOL    HW310671   0.447   1.701   4.473  0.9610 -0.6968 -0.0245
    1SOL    MW410672   0.438   1.710   4.559  0.7747 -0.2288 -0.0906
    1SOL     OW10673   0.194   3.878   4.123  0.2167 -0.1673 -0.3589
    1SOL    HW210674   0.246   3.935   4.180  1.3567 -0.2773 -1.2565
    1SOL    HW310675   0.103   3.893   4.149  0.6864  0.2209  1.0670
    1SOL    MW410676   0.189   3.888   4.134  0.4291 -0.1307 -0.2894
    1SOL     OW10677   2.151   1.163   4.382  0.0639  0.0864 -0.2011
    1SOL    HW210678   2.201   1.139   4.304  0.2235 -0.5361  0.0882
    1SOL    HW310679   2.208   1.223   4.430  0.2323 -0.0420 -0.2401
    1SOL    MW410680   2.165   1.168   4.378  0.1073 -0.0126 -0.1683
    1SOL     OW10681   1.329   4.542   4.820 -0.7379  0.2575 -0.3315
    1SOL    HW210682   1.381   4.470   4.855 -1.1917  0.1948  0.2429
    1SOL    HW310683   1.242   4.528   4.859 -1.1537  0.4004 -1.2102
    1SOL    MW410684   1.324   4.530   4.830 -0.8526  0.2680 -0.3715
    1SOL     OW10685   3.828   3.915   4.759  0.4499 -0.1020  0.0948
    1SOL    HW210686   3.745   3.874   4.736 -0.0854  0.7707  0.4602
    1SOL    HW310687   3.813   4.009   4.747  1.0738  0.1415  1.1168
    1SOL    MW410688   3.815   3.922   4.754  0.4616  0.0453  0.2780
    1SOL     OW10689   0.739   0.217   4.603  0.5846 -0.1723 -0.0812
    1SOL    HW210690   0.713   0.225   4.512 -0.3222 -1.5904  0.0339
    1SOL    HW310691   0.675   0.157   4.641 -0.0525  1.7005  1.9166
    1SOL    MW410692   0.727   0.210   4.596  0.3809 -0.1123  0.1974
    1SOL     OW10693   0.190   1.387   4.486 -0.4546  0.1316  0.1721
    1SOL    HW210694   0.202   1.374   4.392  0.2237  0.2651  0.2313
    1SOL    HW310695   0.136   1.313   4.515 -1.4933  0.6217 -0.4908
    1SOL    MW410696   0.185   1.376   4.478 -0.5022  0.2137  0.0925
    1SOL     OW10697   4.259   1.569   4.141 -0.1436  0.0116 -0.4336
    1SOL    HW210698   4.265   1.489   4.193  2.1458  0.4405  0.0118
    1SOL    HW310699   4.270   1.539   4.050 -0.7405 -0.3520 -0.3853
    1SOL    MW410700   4.261   1.554   4.136  0.0792  0.0201 -0.3686
    1SOL     OW10701   2.893   1.516   4.122 -0.2935 -0.1964  0.5100
    1SOL    HW210702   2.916   1.428   4.153 -2.4322 -0.7460  0.6606
    1SOL    HW310703   2.839   1.552   4.192  0.1406  1.0507  0.2126
    1SOL    MW410704   2.889   1.509   4.135 -0.5183 -0.1044  0.4902
    1SOL     OW10705   3.677   2.858   4.288 -0.5368  0.0115 -0.2081
    1SOL    HW210706   3.720   2.907   4.218 -0.8527  0.3612 -0.1562
    1SOL    HW310707   3.638   2.783   4.244 -0.1493 -0.1367 -0.3048
    1SOL    MW410708   3.677   2.855   4.273 -0.5274  0.0379 -0.2136
    1SOL     OW10709   3.815   2.175   4.788 -0.0666  0.0596  0.4962
    1SOL    HW210710   3.863   2.168   4.706  0.4732 -1.2803  0.9132
    1SOL    HW310711   3.827   2.265   4.816 -1.6700  1.0146 -1.7409
    1SOL    MW410712   3.823   2.186   4.781 -0.2069  0.0091  0.2565
    1SOL     OW10713   4.302   1.274   4.519 -0.3836  0.1825 -0.1910
    1SOL    HW210714   4.309   1.364   4.550 -0.7260  0.1086  0.1109
    1SOL    HW310715   4.383   1.232   4.549 -0.4434  0.2659  0.0904
    1SOL    MW410716   4.314   1.280   4.527 -0.4368  0.1837 -0.1135
    1SOL     OW10717   2.067   4.366   4.266  0.1214 -0.4527 -0.3727
    1SOL    HW210718   2.042   4.448   4.222 -0.0339  0.8293  2.0363
    1SOL    HW310719   2.113   4.316   4.198 -0.0895  1.4719 -1.9890
    1SOL    MW410720   2.070   4.370   4.251  0.0734 -0.0300 -0.2680
    1SOL     OW10721   2.823   4.427   4.517 -0.2092 -0.2098  0.5874
    1SOL    HW210722   2.872   4.407   4.437 -0.6072  0.6273  0.1212
    1SOL    HW310723   2.737   4.387   4.503 -0.5320  0.5801  0.2622
    1SOL    MW410724   2.818   4.419   4.505 -0.3045  0.0048  0.4830
    1SOL     OW10725   2.593   1.836   4.630  0.1702 -0.1837  0.3157
    1SOL    HW210726   2.544   1.882   4.698 -1.2280 -0.8356 -0.2360
    1SOL    HW310727   2.584   1.891   4.552  0.5007 -0.1954  0.2691
    1SOL    MW410728   2.585   1.849   4.628  0.0296 -0.2713  0.2375
    1SOL     OW10729   1.079   0.484   4.195 -0.3924 -0.2888  0.0144
    1SOL    HW210730   1.100   0.475   4.288 -0.7793 -0.6263  0.0677
    1SOL    HW310731   1.085   0.578   4.178  0.3506 -0.2949  0.2235
    1SOL    MW410732   1.083   0.495   4.205 -0.3455 -0.3342  0.0486
    1SOL     OW10733   0.183   0.497   4.786  0.0240 -0.3796 -0.4502
    1SOL    HW210734   0.182   0.565   4.719 -0.1004  0.2382  0.1801
    1SOL    HW310735   0.179   0.415   4.736  3.8195 -0.0742 -1.3777
    1SOL    MW410736   0.182   0.495   4.770  0.5083 -0.2578 -0.4892
    1SOL     OW10737   0.640   0.643   4.323  0.0671 -0.0339  0.1743
    1SOL    HW210738   0.722   0.627   4.370  0.2551  0.0290 -0.1323
    1SOL    HW310739   0.662   0.710   4.258  0.1804 -1.2014 -1.0176
    1SOL    MW410740   0.654   0.649   4.321  0.1069 -0.1796 -0.0234
    1SOL     OW10741   0.985   2.592   4.511 -0.0473  0.3009  0.1674
    1SOL    HW210742   1.064   2.541   4.527  0.3652  1.1580  0.9210
    1SOL    HW310743   0.961   2.571   4.421  1.5946  0.7705 -0.4048
    1SOL    MW410744   0.993   2.582   4.501  0.2238  0.4759  0.1917
    1SOL     OW10745   1.135   3.546   4.312 -0.1053  0.2106 -0.0952
    1SOL    HW210746   1.210   3.519   4.259  0.1839  0.0349  0.3898
    1SOL    HW310747   1.058   3.516   4.264  0.0285  2.4552 -1.7560
    1SOL    MW410748   1.135   3.539   4.299 -0.0496  0.4835 -0.2503
    1SOL     OW10749   3.090   3.255   4.208 -0.0401 -0.6910 -0.2463
    1SOL    HW210750   3.099   3.343   4.173  0.1900 -0.5825  0.0834
    1SOL    HW310751   3.108   3.264   4.301  0.6220 -1.1888 -0.3236
    1SOL    MW410752   3.094   3.267   4.215  0.0772 -0.7424 -0.2131
    1SOL     OW10753   3.543   2.071   4.787  0.3297 -0.2899  0.1573
    1SOL    HW210754   3.633   2.090   4.814  0.2927  0.2559 -0.0912
    1SOL    HW310755   3.529   2.126   4.710  0.2351 -1.4162 -0.6405
    1SOL    MW410756   3.553   2.081   4.781  0.3126 -0.3664  0.0196
    1SOL     OW10757   0.668   1.305   4.274 -0.5460 -0.0952  0.3140
    1SOL    HW210758   0.666   1.290   4.368 -1.2079 -0.4632  0.2456
    1SOL    HW310759   0.585   1.268   4.242 -0.8242  0.9964 -0.2613
    1SOL    MW410760   0.657   1.298   4.282 -0.6701  0.0002  0.2289
    1SOL     OW10761   1.571   2.057   4.273  0.7870 -0.1947 -0.1858
    1SOL    HW210762   1.646   2.038   4.216  0.4316 -1.9644 -0.0938
    1SOL    HW310763   1.585   2.002   4.350 -0.0367  0.2936  0.3108
    1SOL    MW410764   1.583   2.047   4.276  0.6312 -0.3636 -0.1078
    1SOL     OW10765   1.401   3.051   4.629  0.3844  0.2903  0.4200
    1SOL    HW210766   1.373   3.134   4.591 -0.4784 -1.4539 -3.0016
    1SOL    HW310767   1.323   3.018   4.674 -0.7640 -0.8084 -2.2654
    1SOL    MW410768   1.387   3.057   4.630  0.1191 -0.0851 -0.3858
    1SOL     OW10769   0.908   4.007   4.521  0.6043 -0.2336  0.4844
    1SOL    HW210770   0.905   3.922   4.566 -0.0479 -0.5612 -0.1617
    1SOL    HW310771   0.826   4.050   4.546  0.0541 -0.5773 -0.6719
    1SOL    MW410772   0.897   4.001   4.530  0.4457 -0.3223  0.2465
    1SOL     OW10773   4.441   3.509   4.124  0.0333  0.4672  0.1551
    1SOL    HW210774   4.532   3.536   4.139  0.4607 -1.3324  0.8833
    1SOL    HW310775   4.436   3.494   4.029  0.4313  0.7613  0.0849
    1SOL    MW410776   4.453   3.511   4.113  0.1421  0.2685  0.2418
    1SOL     OW10777   3.361   1.787   4.527  0.0877 -0.0665 -0.3840
    1SOL    HW210778   3.453   1.807   4.542 -0.2675  1.5222 -0.3029
    1SOL    HW310779   3.324   1.775   4.614 -0.0204  0.3825 -0.3672
    1SOL    MW410780   3.368   1.788   4.540  0.0269  0.2023 -0.3715
    1SOL     OW10781   3.805   4.131   4.503 -0.2504 -0.5029  0.2044
    1SOL    HW210782   3.867   4.068   4.466 -0.3740 -0.7743  0.4539
    1SOL    HW310783   3.722   4.084   4.508 -0.0885 -0.6901  1.4135
    1SOL    MW410784   3.802   4.117   4.499 -0.2453 -0.5631  0.3967
    1SOL     OW10785   2.630   3.323   4.482  0.0342 -0.2188  0.1274
    1SOL    HW210786   2.633   3.327   4.387 -0.0708 -1.6823  0.0420
    1SOL    HW310787   2.643   3.230   4.502  0.5760  0.1481  1.5569
    1SOL    MW410788   2.632   3.311   4.472  0.0920 -0.3636  0.3042
    1SOL     OW10789   0.058   0.901   4.571 -0.2874 -0.6295  0.0252
    1SOL    HW210790   0.119   0.829   4.555  0.6716  0.2774 -0.5206
    1SOL    HW310791  -0.026   0.859   4.586  0.3103 -1.8723 -0.0424
    1SOL    MW410792   0.055   0.886   4.571 -0.0820 -0.6738 -0.0558
    1SOL     OW10793   2.522   1.350   4.548 -0.2953  0.2435  0.8439
    1SOL    HW210794   2.519   1.329   4.454 -0.5910 -0.2375  0.9584
    1SOL    HW310795   2.585   1.422   4.554  0.8457 -0.6849  0.4459
    1SOL    MW410796   2.530   1.357   4.536 -0.1838  0.0575  0.8063
    1SOL     OW10797   1.613   3.585   4.264  0.3509 -0.3795 -0.1129
    1SOL    HW210798   1.531   3.541   4.242  1.0812 -1.8573  0.1139
    1SOL    HW310799   1.605   3.605   4.357 -0.5720  1.2866 -0.5122
    1SOL    MW410800   1.601   3.582   4.273  0.3256 -0.3548 -0.1359
    1SOL     OW10801   3.099   4.005   4.260 -0.5715  0.2738  0.2502
    1SOL    HW210802   3.180   3.959   4.240 -1.0913 -0.2988 -0.5535
    1SOL    HW310803   3.099   4.014   4.356 -0.4990 -1.4555  0.4290
    1SOL    MW410804   3.109   4.000   4.270 -0.6304 -0.0300  0.1674
    1SOL     OW10805   0.251   2.079   4.279  0.0557 -0.0750 -0.0128
    1SOL    HW210806   0.179   2.038   4.230  0.8036 -1.1600 -0.2290
    1SOL    HW310807   0.329   2.036   4.246  0.5568 -1.0470  2.3699
    1SOL    MW410808   0.252   2.068   4.268  0.2205 -0.3464  0.2732
    1SOL     OW10809   1.576   1.554   4.770  0.5365 -0.1468  0.3540
    1SOL    HW210810   1.620   1.470   4.758  0.0621 -0.3815  0.2514
    1SOL    HW310811   1.493   1.544   4.724  1.0076  0.8057 -0.7430
    1SOL    MW410812   1.571   1.541   4.762  0.5361 -0.0521  0.1965
    1SOL     OW10813   2.879   3.421   4.584 -0.5502  0.1003 -0.2206
    1SOL    HW210814   2.795   3.381   4.564 -0.4111 -0.9978  1.2569
    1SOL    HW310815   2.944   3.359   4.549 -0.3227 -1.3886  2.7084
    1SOL    MW410816   2.877   3.408   4.577 -0.5019 -0.2410  0.3614
    1SOL     OW10817   0.927   3.783   4.662 -0.5657  0.2670  0.0189
    1SOL    HW210818   0.996   3.721   4.637 -1.3268 -0.9712  0.9145
    1SOL    HW310819   0.949   3.810   4.751 -0.9864  0.1867  0.1538
    1SOL    MW410820   0.939   3.778   4.671 -0.7217  0.0927  0.1550
    1SOL     OW10821   1.784   3.204   4.297  0.1718 -0.1236  0.4908
    1SOL    HW210822   1.703   3.170   4.259  1.0548 -1.0949 -0.5609
    1SOL    HW310823   1.802   3.285   4.249  1.6818 -1.7333 -1.7285
    1SOL    MW410824   1.776   3.210   4.286  0.4877 -0.4642  0.0591
    1SOL     OW10825   3.101   2.270   4.095  0.1577  0.0377 -0.1320
    1SOL    HW210826   3.035   2.259   4.163  0.8307 -2.4095  0.1684
    1SOL    HW310827   3.050   2.284   4.015 -0.6966 -0.0337  0.3951
    1SOL    MW410828   3.085   2.270   4.093  0.1338 -0.2949 -0.0229
    1SOL     OW10829   2.643   3.793   4.504  0.1633 -0.3731 -0.1597
    1SOL    HW210830   2.588   3.723   4.541 -0.7365 -0.3200 -1.3635
    1SOL    HW310831   2.732   3.764   4.520 -0.2088 -1.3805  0.1373
    1SOL    MW410832   2.647   3.780   4.511 -0.0045 -0.4992 -0.2794
    1SOL     OW10833   1.339   0.124   4.545  0.3523 -0.2330 -0.0757
    1SOL    HW210834   1.416   0.161   4.589 -1.2691  1.4151  1.4401
    1SOL    HW310835   1.265   0.167   4.587 -1.3639 -0.8211 -2.4548
    1SOL    MW410836   1.340   0.134   4.556 -0.0880 -0.0931 -0.1898
    1SOL     OW10837   0.181   1.773   4.667 -0.7847  0.3564  0.1187
    1SOL    HW210838   0.173   1.866   4.644 -1.8189  0.5166  1.0570
    1SOL    HW310839   0.140   1.766   4.753  1.5140 -0.5411  1.1552
    1SOL    MW410840   0.174   1.784   4.675 -0.6179  0.2592  0.3796
    1SOL     OW10841   3.542   3.015   4.477 -0.1215 -0.1321 -0.2706
    1SOL    HW210842   3.578   3.103   4.491  0.1870 -0.3056  0.0265
    1SOL    HW310843   3.597   2.977   4.408  0.3188 -0.4231  0.2322
    1SOL    MW410844   3.554   3.022   4.470 -0.0226 -0.1936 -0.1650
    1SOL     OW10845   1.818   1.998   4.131 -0.3147 -0.1754 -0.3292
    1SOL    HW210846   1.823   2.003   4.036 -0.6820 -0.1302 -0.3489
    1SOL    HW310847   1.888   2.055   4.162 -1.8234  1.9022 -0.5788
    1SOL    MW410848   1.828   2.006   4.122 -0.5624  0.1044 -0.3648
    1SOL     OW10849   1.783   1.143   4.108  0.0362 -0.4556 -0.1868
    1SOL    HW210850   1.794   1.051   4.133  1.0696 -0.2063  0.3131
    1SOL    HW310851   1.854   1.189   4.154  0.4951  0.3636 -1.6867
    1SOL    MW410852   1.794   1.137   4.118  0.2331 -0.3146 -0.3185
    1SOL     OW10853   3.793   3.586   4.507  0.1598  0.3853  0.2818
    1SOL    HW210854   3.766   3.605   4.417 -1.5939 -0.3555  0.6213
    1SOL    HW310855   3.831   3.498   4.503 -0.0413  0.2973  0.2804
    1SOL    MW410856   3.794   3.577   4.495 -0.0980  0.2761  0.3262
    1SOL     OW10857   0.871   0.632   4.483 -0.5953  0.5195  0.0016
    1SOL    HW210858   0.828   0.592   4.559  1.3998  0.5335  1.1828
    1SOL    HW310859   0.882   0.724   4.507  0.9503  0.3116  0.1243
    1SOL    MW410860   0.867   0.639   4.496 -0.1281  0.4939  0.1736
    1SOL     OW10861   3.385   2.641   4.742  0.2231 -0.1180 -0.2152
    1SOL    HW210862   3.466   2.687   4.721  0.1016 -0.1345 -0.7150
    1SOL    HW310863   3.383   2.639   4.838  0.2299  0.8974 -0.1908
    1SOL    MW410864   3.396   2.646   4.752  0.2079  0.0141 -0.2780
    1SOL     OW10865   3.215   1.730   4.775 -0.1949  0.0559 -0.0739
    1SOL    HW210866   3.124   1.707   4.754 -0.1463  1.4326 -1.9023
    1SOL    HW310867   3.257   1.647   4.793 -1.4271 -0.7514 -0.8475
    1SOL    MW410868   3.209   1.716   4.775 -0.3510  0.1312 -0.4172
    1SOL     OW10869   1.617   2.323   4.210  0.2885  0.0111  0.5316
    1SOL    HW210870   1.654   2.373   4.283 -0.8318  0.9526  0.4860
    1SOL    HW310871   1.597   2.237   4.247 -1.9911  1.0532  1.8750
    1SOL    MW410872   1.619   2.319   4.225 -0.1601  0.2725  0.7033
    1SOL     OW10873   1.445   1.662   4.438  0.2570  0.5018  0.3110
    1SOL    HW210874   1.462   1.754   4.460  0.4111  0.2065  1.4390
    1SOL    HW310875   1.386   1.632   4.507 -0.0467 -0.1583 -0.2405
    1SOL    MW410876   1.440   1.670   4.450  0.2372  0.3757  0.3872
    1SOL     OW10877   4.056   0.087   4.497  0.0255  0.3140  0.0723
    1SOL    HW210878   4.132   0.059   4.549 -0.4576 -0.1712  0.5343
    1SOL    HW310879   4.021   0.162   4.544  0.0444  0.3480  0.0318
    1SOL    MW410880   4.061   0.093   4.510 -0.0362  0.2545  0.1283
    1SOL     OW10881   2.083   2.996   4.482 -0.1366 -0.0843  0.7470
    1SOL    HW210882   2.065   2.946   4.402 -0.7139 -0.5799  1.1818
    1SOL    HW310883   2.150   2.945   4.528 -1.7513 -1.2285  1.8834
    1SOL    MW410884   2.090   2.983   4.477 -0.4258 -0.3006  0.9542
    1SOL     OW10885   4.243   3.866   4.084  0.2103 -0.0250  0.3545
    1SOL    HW210886   4.226   3.771   4.085 -1.5859  0.2703  1.2385
    1SOL    HW310887   4.241   3.890   3.992  2.0424 -1.0540  0.0167
    1SOL    MW410888   4.240   3.856   4.072  0.2151 -0.1218  0.4263
    1SOL     OW10889   0.717   2.633   4.596  0.3323 -0.2041  0.4132
    1SOL    HW210890   0.807   2.608   4.578  0.4520  0.8360 -0.4891
    1SOL    HW310891   0.720   2.675   4.682  0.6507 -0.4525  0.5237
    1SOL    MW410892   0.729   2.635   4.605  0.3901 -0.0997  0.3090
    1SOL     OW10893   1.627   1.048   4.567  0.1592 -0.0299  0.3524
    1SOL    HW210894   1.616   1.089   4.480  1.2969 -0.7869 -0.1638
    1SOL    HW310895   1.670   1.115   4.619  0.6997 -0.0475 -0.0675
    1SOL    MW410896   1.631   1.062   4.562  0.3805 -0.1322  0.2289
    1SOL     OW10897   4.254   2.883   4.358  0.8984 -0.0822  0.1498
    1SOL    HW210898   4.228   2.951   4.297  1.1850  2.1684  2.4545
    1SOL    HW310899   4.175   2.832   4.372 -0.3315  2.0466  1.2116
    1SOL    MW410900   4.240   2.885   4.352  0.7739  0.4957  0.5937
    1SOL     OW10901   0.272   4.651   4.188  0.0881 -0.6140  0.2190
    1SOL    HW210902   0.364   4.664   4.211  0.0229  0.1999  0.0385
    1SOL    HW310903   0.255   4.559   4.206  0.5061 -0.3881  1.7898
    1SOL    MW410904   0.282   4.641   4.193  0.1347 -0.4768  0.4029
    1SOL     OW10905   3.453   2.230   4.577 -0.5739  0.0570 -0.6929
    1SOL    HW210906   3.409   2.313   4.563 -2.8948 -0.9273  0.5123
    1SOL    HW310907   3.393   2.164   4.543 -1.2249 -1.4869  3.1619
    1SOL    MW410908   3.440   2.232   4.571 -0.9658 -0.2766 -0.0257
    1SOL     OW10909   0.439   1.186   4.143  0.2898 -0.2489  0.0371
    1SOL    HW210910   0.446   1.099   4.184  2.1727 -0.4181 -0.6134
    1SOL    HW310911   0.433   1.167   4.049 -1.9600  0.2322  0.0472
    1SOL    MW410912   0.439   1.172   4.136  0.2414 -0.2078 -0.0472
    1SOL     OW10913   2.228   3.272   4.249  0.5134 -0.2414 -0.4007
    1SOL    HW210914   2.158   3.211   4.228  0.3905 -0.5648  0.8836
    1SOL    HW310915   2.231   3.273   4.345  1.2890  0.8781 -0.4234
    1SOL    MW410916   2.219   3.264   4.259  0.5996 -0.1364 -0.2346
    1SOL     OW10917   0.008   0.082   4.229 -0.3805  0.2594  0.2299
    1SOL    HW210918   0.099   0.062   4.210 -0.1304 -0.1084  1.7403
    1SOL    HW310919  -0.003   0.173   4.201  1.1186  1.0941  2.2689
    1SOL    MW410920   0.018   0.092   4.223 -0.1497  0.3210  0.6986
    1SOL     OW10921   1.339   3.814   4.554 -0.0830  0.2495 -0.0303
    1SOL    HW210922   1.424   3.773   4.545  0.2877  0.5308  1.8615
    1SOL    HW310923   1.315   3.842   4.466  0.7333 -1.8625 -0.9457
    1SOL    MW410924   1.347   3.812   4.541  0.0736  0.0081  0.0982
    1SOL     OW10925   1.470   4.320   4.909  0.2977  0.0073 -0.0079
    1SOL    HW210926   1.435   4.243   4.864 -0.3698 -0.3957  1.1888
    1SOL    HW310927   1.565   4.307   4.907  0.2173 -0.5324 -0.3704
    1SOL    MW410928   1.478   4.308   4.903  0.1990 -0.1173  0.1016
    1SOL     OW10929   2.252   1.293   4.613 -0.1345  0.1253  0.1252
    1SOL    HW210930   2.344   1.317   4.606 -0.0923  0.0078  0.2722
    1SOL    HW310931   2.206   1.376   4.616 -0.0997  0.1862 -0.8020
    1SOL    MW410932   2.258   1.307   4.612 -0.1245  0.1179  0.0224
    1SOL     OW10933   2.731   1.114   4.580  0.7380 -0.5543 -0.2395
    1SOL    HW210934   2.659   1.177   4.577  1.7959  0.7291  1.2068
    1SOL    HW310935   2.688   1.029   4.567 -1.3437 -0.0176  2.7871
    1SOL    MW410936   2.716   1.111   4.578  0.6032 -0.3141  0.3505
    1SOL     OW10937   1.373   0.871   4.264 -0.1439  0.4932 -0.0487
    1SOL    HW210938   1.451   0.824   4.233 -0.4679 -0.6851  0.8707
    1SOL    HW310939   1.373   0.953   4.215  0.7078 -0.2601 -1.3445
    1SOL    MW410940   1.383   0.876   4.254 -0.0745  0.2383 -0.0982
    1SOL     OW10941   4.081   0.899   4.532 -0.0669 -0.0519  0.1381
    1SOL    HW210942   4.081   0.991   4.559 -0.3977  0.7467 -2.4701
    1SOL    HW310943   4.086   0.902   4.437 -2.2843 -2.7090 -0.1232
    1SOL    MW410944   4.082   0.912   4.523 -0.4039 -0.2971 -0.2403
    1SOL     OW10945   3.232   0.524   4.692 -0.3485  0.4936 -0.0936
    1SOL    HW210946   3.292   0.548   4.622 -0.2265  1.6015  0.3802
    1SOL    HW310947   3.221   0.605   4.743  0.5083 -0.5823  1.8556
    1SOL    MW410948   3.238   0.538   4.690 -0.2191  0.4978  0.2260
    1SOL     OW10949   1.307   3.215   4.233  0.4012 -0.0676  0.1369
    1SOL    HW210950   1.269   3.228   4.320  0.7756 -0.8158  0.4219
    1SOL    HW310951   1.248   3.155   4.190 -0.1781  0.8799 -0.3971
    1SOL    MW410952   1.294   3.209   4.239  0.3743 -0.0412  0.1040
    1SOL     OW10953   1.137   2.298   4.189  0.4261  0.4573 -0.5298
    1SOL    HW210954   1.214   2.343   4.223 -0.5121  0.9299  1.0012
    1SOL    HW310955   1.132   2.217   4.241  0.5702 -0.1542 -1.4508
    1SOL    MW410956   1.147   2.293   4.201  0.3214  0.4392 -0.4492
    1SOL     OW10957   4.258   0.582   4.826  0.4101 -0.3618 -0.0057
    1SOL    HW210958   4.325   0.587   4.894  0.1546 -0.8418  0.2810
    1SOL    HW310959   4.237   0.488   4.820 -1.0171 -0.0957  0.6633
    1SOL    MW410960   4.264   0.570   4.834  0.1884 -0.3900  0.1202
    1SOL     OW10961   3.944   0.271   4.672  0.2287 -0.3515  0.3770
    1SOL    HW210962   3.913   0.353   4.633  0.2785 -1.2450 -1.6283
    1SOL    HW310963   3.864   0.221   4.689  0.3024 -0.8692 -0.7147
    1SOL    MW410964   3.929   0.275   4.669  0.2449 -0.5378 -0.0315
    1SOL     OW10965   3.639   1.296   4.515 -0.5100 -0.0459 -0.4126
    1SOL    HW210966   3.551   1.261   4.501 -0.7346  0.6564 -0.7644
    1SOL    HW310967   3.626   1.389   4.532 -0.1240 -0.5443  2.8914
    1SOL    MW410968   3.626   1.304   4.515 -0.4888 -0.0192 -0.0224
    1SOL     OW10969   3.358   4.171   4.589  0.0445  0.0719  0.5438
    1SOL    HW210970   3.393   4.259   4.602  1.4510 -0.4189  0.1709
    1SOL    HW310971   3.433   4.119   4.559 -0.9474 -1.0634 -0.0365
    1SOL    MW410972   3.373   4.176   4.586  0.0994 -0.1431  0.4182
    1SOL     OW10973   1.412   4.499   4.547 -0.1402  0.2002  0.4346
    1SOL    HW210974   1.393   4.592   4.532  0.0496  0.4559  1.7007
    1SOL    HW310975   1.371   4.480   4.632 -0.3617 -0.9300  0.0758
    1SOL    MW410976   1.404   4.509   4.556 -0.1444  0.0849  0.5541
    1SOL     OW10977   0.442   2.122   4.703  0.2597 -0.0235  0.6751
    1SOL    HW210978   0.494   2.085   4.775 -0.2641  0.6159  1.3969
    1SOL    HW310979   0.505   2.133   4.632  0.7309 -0.9226  0.9400
    1SOL    MW410980   0.457   2.119   4.703  0.2528 -0.0577  0.8054
    1SOL     OW10981   1.957   1.314   4.242  0.3616  0.0801 -0.4609
    1SOL    HW210982   2.017   1.251   4.282  1.3266  0.9822 -0.4798
    1SOL    HW310983   2.011   1.391   4.223 -0.8623  1.0350 -0.1535
    1SOL    MW410984   1.972   1.316   4.245  0.3273  0.3252 -0.4230
    1SOL     OW10985   4.287   4.590   4.141  0.2887  0.2752 -0.1824
    1SOL    HW210986   4.209   4.622   4.186 -0.3995 -0.6727 -0.6999
    1SOL    HW310987   4.356   4.650   4.169 -0.4428  0.6191  0.9450
    1SOL    MW410988   4.286   4.602   4.151  0.1016  0.1955 -0.1016
    1SOL     OW10989   2.677   2.560   4.598  0.4719 -0.0540  0.2033
    1SOL    HW210990   2.625   2.612   4.538  2.0100 -0.4129 -1.4667
    1SOL    HW310991   2.624   2.482   4.615 -0.2615  0.3721 -0.1215
    1SOL    MW410992   2.663   2.557   4.593  0.5782 -0.0451 -0.0596
    1SOL     OW10993   2.103   4.339   4.543 -0.1483  0.1971 -0.1426
    1SOL    HW210994   2.085   4.368   4.454 -2.0260  1.3784  0.5789
    1SOL    HW310995   2.017   4.336   4.585  0.6977 -0.4315  1.5915
    1SOL    MW410996   2.089   4.343   4.537 -0.2844  0.2699  0.1817
    1SOL     OW10997   2.885   4.182   4.667  0.1500  0.3444 -0.7606
    1SOL    HW210998   2.872   4.264   4.620 -1.1793  0.6416  0.1154
    1SOL    HW310999   2.802   4.134   4.658  0.3994 -0.2526 -0.0122
    1SOL    MW411000   2.873   4.186   4.660  0.0076  0.3047 -0.5465
    1SOL     OW11001   3.901   4.567   4.642  0.0522  0.4199  0.2767
    1SOL    HW211002   3.971   4.510   4.673  0.0975  0.5990  0.5036
    1SOL    HW311003   3.945   4.639   4.598  0.0735  1.3561  1.8052
    1SOL    MW411004   3.916   4.569   4.640  0.0610  0.5670  0.5083
    1SOL     OW11005   3.046   2.095   4.713 -0.1196  0.4365 -0.2608
    1SOL    HW211006   3.117   2.068   4.772 -0.0497  1.8727  0.3197
    1SOL    HW311007   3.061   2.188   4.698 -1.6028  0.6465 -0.5155
    1SOL    MW411008   3.058   2.103   4.719 -0.3059  0.6537 -0.2179
    1SOL     OW11009   1.819   4.266   4.198 -0.3592  0.2724 -0.5153
    1SOL    HW211010   1.823   4.290   4.105  0.1523  0.9467 -0.3193
    1SOL    HW311011   1.905   4.288   4.232 -1.0288  1.4005  0.4497
    1SOL    MW411012   1.831   4.272   4.190 -0.3802  0.5097 -0.3624
    1SOL     OW11013   2.313   1.110   4.157 -0.2905 -0.0667  0.2210
    1SOL    HW211014   2.356   1.025   4.160  1.4417  0.7828 -0.0823
    1SOL    HW311015   2.378   1.171   4.191 -1.2764  1.2420 -0.1925
    1SOL    MW411016   2.327   1.107   4.162 -0.1922  0.2179  0.1264
    1SOL     OW11017   0.930   3.949   4.250 -0.0090 -0.4053  0.1261
    1SOL    HW211018   0.938   3.954   4.345 -1.0686 -0.7969  0.2429
    1SOL    HW311019   1.008   3.902   4.221  0.7735  0.5211  0.7150
    1SOL    MW411020   0.941   3.943   4.259 -0.0455 -0.3350  0.2189
    1SOL     OW11021   2.737   0.249   4.660  0.2752 -0.2367  0.1590
    1SOL    HW211022   2.789   0.171   4.641 -0.5793 -0.8628  0.3774
    1SOL    HW311023   2.713   0.241   4.752 -0.5701 -0.1732 -0.0499
    1SOL    MW411024   2.741   0.237   4.669  0.0510 -0.3109  0.1597
    1SOL     OW11025   4.023   1.694   4.237 -0.6050 -0.0926  0.0075
    1SOL    HW211026   4.106   1.657   4.207 -0.2059  0.1450  0.8248
    1SOL    HW311027   4.028   1.692   4.332 -0.3736  2.5620  0.0819
    1SOL    MW411028   4.034   1.689   4.246 -0.5221  0.2891  0.1245
    1SOL     OW11029   1.914   1.870   4.767 -0.3971  0.3442 -0.1406
    1SOL    HW211030   1.962   1.787   4.767 -0.2226  0.4483 -0.4271
    1SOL    HW311031   1.920   1.902   4.678  0.4513  1.2085  0.2219
    1SOL    MW411032   1.921   1.863   4.755 -0.2623  0.4717 -0.1307
    1SOL     OW11033   0.917   2.287   4.636  0.2620  0.0527 -0.0336
    1SOL    HW211034   0.992   2.240   4.671  0.6813  0.6024 -0.1960
    1SOL    HW311035   0.954   2.354   4.579 -0.3949 -0.5683 -1.2193
    1SOL    MW411036   0.932   2.289   4.633  0.2307  0.0436 -0.2117
    1SOL     OW11037   2.913   2.660   4.268  0.1365  0.1706  0.2992
    1SOL    HW211038   2.911   2.750   4.299 -0.2223  0.2797 -0.0347
    1SOL    HW311039   2.827   2.647   4.227  0.7817  0.1880 -1.0810
    1SOL    MW411040   2.901   2.670   4.267  0.1743  0.1872  0.0730
    1SOL     OW11041   1.576   0.720   4.165 -0.1199 -0.5595 -0.1550
    1SOL    HW211042   1.655   0.759   4.202 -0.5180  1.7968 -1.7403
    1SOL    HW311043   1.580   0.739   4.072 -1.4884 -2.3435 -0.6187
    1SOL    MW411044   1.587   0.727   4.158 -0.3530 -0.4840 -0.4253
    1SOL     OW11045   3.959   2.131   4.516 -0.0537 -0.5828  0.1095
    1SOL    HW211046   4.049   2.153   4.540 -0.3735 -0.1748  0.9695
    1SOL    HW311047   3.919   2.216   4.494 -0.2209 -0.7634 -0.2777
    1SOL    MW411048   3.965   2.145   4.516 -0.1180 -0.5529  0.1721
    1SOL     OW11049   4.030   4.026   4.198 -0.1879 -0.5175 -0.0142
    1SOL    HW211050   4.095   3.976   4.147  0.7704  0.5423  0.1332
    1SOL    HW311051   4.055   4.011   4.289  1.0922  1.4564  0.0022
    1SOL    MW411052   4.042   4.017   4.203  0.1068 -0.1178  0.0067
    1SOL     OW11053   3.107   4.042   4.537 -0.0272 -0.1041  0.0849
    1SOL    HW211054   3.179   4.102   4.560  0.2595 -1.1085  1.9172
    1SOL    HW311055   3.033   4.073   4.590 -0.6878  0.3308 -1.0716
    1SOL    MW411056   3.107   4.054   4.547 -0.0768 -0.1793  0.1740
    1SOL     OW11057   0.393   0.305   4.516 -0.3797 -0.0792 -0.0761
    1SOL    HW211058   0.302   0.279   4.532 -0.1011 -1.3509 -0.4882
    1SOL    HW311059   0.396   0.327   4.423 -0.2187 -0.2759 -0.1198
    1SOL    MW411060   0.382   0.305   4.506 -0.3217 -0.2729 -0.1364
    1SOL     OW11061   0.801   3.174   4.541 -0.1721 -0.4903 -0.5800
    1SOL    HW211062   0.743   3.099   4.529 -0.5878 -0.3233  0.3698
    1SOL    HW311063   0.748   3.238   4.589  0.0717  0.5354 -1.6303
    1SOL    MW411064   0.786   3.173   4.545 -0.1947 -0.3331 -0.5937
    1SOL     OW11065   0.005   2.198   4.517 -0.2872 -0.3728  0.3859
    1SOL    HW211066   0.024   2.280   4.562  0.5804 -0.1191 -0.4243
    1SOL    HW311067   0.079   2.142   4.537 -0.4567 -0.6591  0.2172
    1SOL    MW411068   0.017   2.201   4.525 -0.1950 -0.3772  0.2565
    1SOL     OW11069   2.107   0.962   4.556 -0.3392 -0.1760  0.3323
    1SOL    HW211070   2.124   1.040   4.503 -0.4049 -1.0321 -1.0013
    1SOL    HW311071   2.096   0.994   4.645  0.6433  1.2219 -0.0351
    1SOL    MW411072   2.108   0.976   4.560 -0.2182 -0.1045  0.1078
    1SOL     OW11073   0.462   0.943   4.293 -0.2035 -0.2126  0.0561
    1SOL    HW211074   0.535   0.911   4.240  0.4985  2.8127 -0.8990
    1SOL    HW311075   0.387   0.893   4.262  0.8529 -1.0364 -1.2507
    1SOL    MW411076   0.462   0.932   4.282  0.0285  0.0779 -0.2422
    1SOL     OW11077   2.268   1.736   4.234 -0.1553 -0.2455  0.1351
    1SOL    HW211078   2.249   1.738   4.327  0.5867  0.1220  0.2797
    1SOL    HW311079   2.284   1.828   4.210 -1.3710 -0.1954 -0.5699
    1SOL    MW411080   2.267   1.749   4.243 -0.2179 -0.1905  0.0615
    1SOL     OW11081   3.623   1.822   4.646  0.3371 -0.3952 -0.2280
    1SOL    HW211082   3.700   1.847   4.595  0.5586  0.6112  0.5716
    1SOL    HW311083   3.599   1.902   4.693 -0.0256 -1.2390  1.0381
    1SOL    MW411084   3.630   1.836   4.646  0.3185 -0.3737  0.0443
    1SOL     OW11085   2.325   2.505   4.755  0.1702 -0.1762  0.4223
    1SOL    HW211086   2.315   2.467   4.668  1.0592  0.4680  0.0468
    1SOL    HW311087   2.419   2.502   4.773  0.0236 -0.0536  1.2498
    1SOL    MW411088   2.336   2.499   4.746  0.2680 -0.0749  0.4826
    1SOL     OW11089   1.140   1.322   4.270  0.2186  0.4797 -0.2757
    1SOL    HW211090   1.206   1.260   4.240 -0.9080 -1.2786  0.8098
    1SOL    HW311091   1.164   1.340   4.361 -1.4206 -1.0643  0.4949
    1SOL    MW411092   1.152   1.316   4.278 -0.1463  0.0440 -0.0305
    1SOL     OW11093   3.416   0.991   4.676 -0.1981  0.7243  0.1224
    1SOL    HW211094   3.369   1.043   4.611 -0.3127  1.2464  0.6201
    1SOL    HW311095   3.469   1.055   4.724 -2.1812  0.7431  2.3396
    1SOL    MW411096   3.417   1.006   4.674 -0.4749  0.7957  0.4811
    1SOL     OW11097   1.787   3.991   4.271  0.0033  0.2397  0.2323
    1SOL    HW211098   1.780   4.087   4.274  2.1587  0.3873  1.5044
    1SOL    HW311099   1.769   3.963   4.361 -0.6549 -0.5661 -0.1406
    1SOL    MW411100   1.783   4.000   4.284  0.2009  0.1523  0.3505
    1SOL     OW11101   4.084   0.901   4.234  0.6468  0.0865 -0.1819
    1SOL    HW211102   4.000   0.868   4.202  0.3221  0.4405  0.2957
    1SOL    HW311103   4.149   0.842   4.197  0.1453 -0.5095 -0.1144
    1SOL    MW411104   4.082   0.889   4.225  0.5379  0.0545 -0.1106
    1SOL     OW11105   0.227   0.539   4.282 -0.2040  0.0319 -0.0154
    1SOL    HW211106   0.154   0.493   4.240  0.5273  0.8117 -2.2094
    1SOL    HW311107   0.305   0.491   4.255  0.3957  1.3611 -0.6814
    1SOL    MW411108   0.227   0.527   4.273 -0.0284  0.3102 -0.3929
    1SOL     OW11109   0.974   2.854   4.463  0.1673  0.4791 -0.4768
    1SOL    HW211110   0.986   2.761   4.483  1.6308  0.6600 -0.4668
    1SOL    HW311111   0.879   2.866   4.461 -0.0466 -0.4787  1.9664
    1SOL    MW411112   0.963   2.843   4.465  0.3322  0.3767 -0.1526
    1SOL     OW11113   2.015   3.641   4.711 -0.4710  0.4105  0.1644
    1SOL    HW211114   2.026   3.589   4.791 -0.2491 -0.6816 -0.5596
    1SOL    HW311115   2.083   3.609   4.652  0.4338  2.3499  0.1027
    1SOL    MW411116   2.025   3.630   4.714 -0.3226  0.5224  0.0606
    1SOL     OW11117   4.450   3.981   4.243  0.0634 -0.1116 -0.5274
    1SOL    HW211118   4.381   3.929   4.202 -0.5453 -0.2759  0.7025
    1SOL    HW311119   4.447   4.065   4.197 -2.0252  0.4416  0.5979
    1SOL    MW411120   4.441   3.985   4.231 -0.2923 -0.0601 -0.2170
    1SOL     OW11121   0.695   4.572   4.420  0.2907  0.3550 -0.6193
    1SOL    HW211122   0.686   4.477   4.412 -1.4916  0.4844 -0.5163
    1SOL    HW311123   0.642   4.607   4.348 -0.2162  1.2856  0.2008
    1SOL    MW411124   0.687   4.564   4.409 -0.0113  0.4945 -0.4978
    1SOL     OW11125   1.065   3.113   4.591  0.0694 -0.4667  0.2344
    1SOL    HW211126   1.050   3.024   4.558  0.2267 -0.9669  1.4764
    1SOL    HW311127   0.978   3.154   4.589  0.2816 -0.0850 -1.9154
    1SOL    MW411128   1.051   3.106   4.586  0.1180 -0.4821  0.1149
    1SOL     OW11129   0.023   0.360   4.165 -0.5118 -0.5006 -0.5807
    1SOL    HW211130   0.006   0.376   4.073 -0.8014  0.9018 -0.2947
    1SOL    HW311131  -0.052   0.398   4.211  0.6442  0.7314  0.3472
    1SOL    MW411132   0.011   0.367   4.159 -0.3975 -0.1530 -0.4210
    1SOL     OW11133   1.349   1.927   4.155  0.1802 -0.8848  0.1330
    1SOL    HW211134   1.419   1.975   4.199  0.5681 -1.0412 -0.3056
    1SOL    HW311135   1.371   1.835   4.168  0.1721 -0.9333 -0.1855
    1SOL    MW411136   1.361   1.921   4.163  0.2303 -0.9120  0.0334
    1SOL     OW11137   1.561   3.090   4.146 -0.1172  0.4910 -0.2612
    1SOL    HW211138   1.490   3.122   4.202 -0.3897 -0.1335 -0.2499
    1SOL    HW311139   1.574   3.000   4.173  0.7449  0.6347 -0.2058
    1SOL    MW411140   1.553   3.083   4.157 -0.0395  0.4277 -0.2527
    1SOL     OW11141   2.478   3.645   4.197  0.1673 -0.4107 -0.3556
    1SOL    HW211142   2.393   3.607   4.176  0.3765 -1.7369  1.1101
    1SOL    HW311143   2.476   3.658   4.291  1.8011 -1.0071 -0.2264
    1SOL    MW411144   2.467   3.641   4.206  0.4106 -0.6645 -0.1454
    1SOL     OW11145   2.513   2.452   4.259 -0.0394 -0.4764  0.0832
    1SOL    HW211146   2.449   2.469   4.327  0.3296  0.8670  0.1037
    1SOL    HW311147   2.464   2.403   4.192 -0.9438  0.0518  0.3451
    1SOL    MW411148   2.498   2.447   4.259 -0.1097 -0.2294  0.1206
    1SOL     OW11149   4.396   4.003   4.510  0.5574  0.3005  0.0341
    1SOL    HW211150   4.413   4.018   4.417 -1.9868  0.0486 -0.5103
    1SOL    HW311151   4.352   4.083   4.539 -0.2230 -0.3363  0.6073
    1SOL    MW411152   4.393   4.016   4.502  0.1187  0.1831  0.0377
    1SOL     OW11153   0.891   2.483   4.261  0.2077  0.3392  0.3437
    1SOL    HW211154   0.811   2.439   4.231  0.3819  0.3600 -0.1488
    1SOL    HW311155   0.960   2.418   4.248  0.6331  1.1076 -1.3355
    1SOL    MW411156   0.890   2.468   4.255  0.2869  0.4430  0.0572
    1SOL     OW11157   2.280   1.999   4.108  0.1250 -0.3691  0.3272
    1SOL    HW211158   2.192   2.015   4.142  0.1145  1.6365 -0.5460
    1SOL    HW311159   2.266   1.978   4.015  0.5747  0.2602  0.1148
    1SOL    MW411160   2.266   1.998   4.100  0.1829 -0.0215  0.1836
    1SOL     OW11161   2.623   4.049   4.613 -0.3596 -0.3275 -0.0353
    1SOL    HW211162   2.534   4.030   4.643  0.0514 -2.3318 -0.0020
    1SOL    HW311163   2.654   3.966   4.577  1.5761  0.2965  0.1365
    1SOL    MW411164   2.615   4.035   4.612 -0.0501 -0.5093 -0.0081
    1SOL     OW11165   4.029   1.637   4.505 -0.1324 -0.0701  0.1057
    1SOL    HW211166   3.963   1.701   4.531  0.0506  0.6573 -1.1717
    1SOL    HW311167   3.984   1.552   4.511 -0.5681  0.2366  1.1947
    1SOL    MW411168   4.014   1.634   4.509 -0.1655  0.0664  0.0815
    1SOL     OW11169   3.800   1.570   4.147  0.2396 -0.4332  0.1993
    1SOL    HW211170   3.717   1.596   4.187  0.3308  1.2024 -0.6245
    1SOL    HW311171   3.867   1.620   4.192  0.6974 -1.0608  0.2371
    1SOL    MW411172   3.798   1.580   4.158  0.3121 -0.3002  0.0954
    1SOL     OW11173   4.296   1.304   4.249  0.1964 -0.3632 -0.0465
    1SOL    HW211174   4.225   1.244   4.227  0.8480 -0.5282 -1.7727
    1SOL    HW311175   4.307   1.295   4.344  0.2056 -2.8728 -0.2476
    1SOL    MW411176   4.288   1.295   4.259  0.2837 -0.7161 -0.3004
    1SOL     OW11177   2.187   0.096   4.276  0.0454 -0.1751 -0.2005
    1SOL    HW211178   2.268   0.060   4.313 -0.0530 -0.8830 -0.6719
    1SOL    HW311179   2.141   0.132   4.352  0.7372  0.1127  0.0901
    1SOL    MW411180   2.191   0.096   4.291  0.1237 -0.2305 -0.2246
    1SOL     OW11181   0.669   1.257   4.551 -0.7095  0.5249 -0.0784
    1SOL    HW211182   0.637   1.172   4.583 -0.3082  0.2407 -0.4282
    1SOL    HW311183   0.596   1.317   4.567 -1.1060  0.0545 -0.0939
    1SOL    MW411184   0.655   1.253   4.557 -0.7088  0.4255 -0.1268
    1SOL     OW11185   1.302   0.626   4.609 -0.2149 -0.0958 -0.2676
    1SOL    HW211186   1.322   0.719   4.605 -1.4491  0.1949  0.2195
    1SOL    HW311187   1.383   0.583   4.582 -0.2382  1.1647 -2.5027
    1SOL    MW411188   1.315   0.632   4.605 -0.3809  0.1089 -0.4978
    1SOL     OW11189   3.382   1.186   4.176 -0.5655 -0.0188  0.1654
    1SOL    HW211190   3.378   1.276   4.144 -1.4373 -0.3280 -0.6113
    1SOL    HW311191   3.310   1.141   4.131  0.1623 -1.2146  0.1693
    1SOL    MW411192   3.372   1.192   4.165 -0.5846 -0.2173  0.0639
    1SOL     OW11193   1.799   0.890   4.205 -0.2296  0.8234 -0.1912
    1SOL    HW211194   1.880   0.853   4.171 -0.1045  1.9342 -1.1653
    1SOL    HW311195   1.812   0.894   4.299 -0.1730 -1.3663 -0.0859
    1SOL    MW411196   1.811   0.886   4.213 -0.2055  0.6811 -0.3057
    1SOL     OW11197   1.776   1.736   4.246  0.1280  0.6388 -0.8406
    1SOL    HW211198   1.849   1.681   4.218  2.2806  2.2836  1.2891
    1SOL    HW311199   1.794   1.822   4.207 -0.3830  1.1943  0.1338
    1SOL    MW411200   1.788   1.740   4.237  0.3445  0.9290 -0.4311
    1SOL     OW11201   2.290   2.021   4.472  0.1467 -0.1351  0.0138
    1SOL    HW211202   2.335   2.008   4.555 -1.4013  0.1180  0.9015
    1SOL    HW311203   2.253   2.109   4.477  0.8108  0.2362 -1.3205
    1SOL    MW411204   2.291   2.031   4.484  0.0298 -0.0527 -0.0453
    1SOL     OW11205   2.655   2.240   4.396  0.1110  0.1151 -0.4505
    1SOL    HW211206   2.605   2.317   4.370  1.1647  0.8189 -0.4491
    1SOL    HW311207   2.746   2.262   4.372  0.7065 -0.3220  1.3164
    1SOL    MW411208   2.661   2.253   4.389  0.3288  0.1504 -0.2174
    1SOL     OW11209   2.113   3.274   4.513 -0.4468  0.0007  0.4307
    1SOL    HW211210   2.019   3.276   4.529 -0.8583 -0.6889 -1.8000
    1SOL    HW311211   2.134   3.180   4.504  0.2936  0.2025 -0.0105
    1SOL    MW411212   2.104   3.262   4.514 -0.4036 -0.0637  0.0787
    1SOL     OW11213   1.772   2.396   4.441 -0.4181  0.1731  0.3453
    1SOL    HW211214   1.822   2.316   4.458 -0.5230 -0.0828 -0.5619
    1SOL    HW311215   1.811   2.462   4.499 -0.1432 -0.4575  0.8771
    1SOL    MW411216   1.783   2.394   4.451 -0.3958  0.0560  0.2956
    1SOL     OW11217   3.898   1.389   4.479 -0.1147  0.4210 -0.0412
    1SOL    HW211218   3.898   1.376   4.384 -1.9922  0.5079 -0.0828
    1SOL    HW311219   3.814   1.353   4.507  0.6415 -0.0362  1.6589
    1SOL    MW411220   3.887   1.382   4.470 -0.2627  0.3723  0.1779
    1SOL     OW11221   0.440   4.215   4.652  0.3169 -0.0891  0.0803
    1SOL    HW211222   0.426   4.309   4.653 -0.7694 -0.2486  0.4181
    1SOL    HW311223   0.352   4.177   4.649  0.6579 -1.1395  2.3147
    1SOL    MW411224   0.426   4.222   4.651  0.2185 -0.2484  0.4196
    1SOL     OW11225   2.976   2.584   4.556 -0.0536  0.6525 -0.0900
    1SOL    HW211226   2.958   2.606   4.465  0.1188  1.9356  0.1810
    1SOL    HW311227   2.890   2.584   4.598  0.0834  2.4049  0.2426
    1SOL    MW411228   2.962   2.587   4.550 -0.0131  1.0533 -0.0105
    1SOL     OW11229   2.852   3.121   4.127  0.3898 -0.5059 -0.0617
    1SOL    HW211230   2.858   3.108   4.032  0.6297 -2.1161  0.1497
    1SOL    HW311231   2.938   3.154   4.153  0.4385 -0.4000 -0.3609
    1SOL    MW411232   2.864   3.124   4.118  0.4282 -0.7045 -0.0734
    1SOL     OW11233   1.612   2.913   4.510 -0.2445 -0.3988  0.0502
    1SOL    HW211234   1.685   2.948   4.562  0.8628  0.3318 -1.9212
    1SOL    HW311235   1.534   2.953   4.549  0.8089  2.4960 -0.6821
    1SOL    MW411236   1.611   2.923   4.522  0.0405  0.0794 -0.3066
    1SOL     OW11237   1.371   0.370   4.131 -0.8176 -0.2595 -0.2856
    1SOL    HW211238   1.288   0.409   4.156 -1.0714 -0.1813 -1.2342
    1SOL    HW311239   1.362   0.277   4.155 -0.2417  0.2165  1.8963
    1SOL    MW411240   1.359   0.363   4.138 -0.7751 -0.1864 -0.1230
    1SOL     OW11241   1.199   1.330   4.549 -0.0467  0.7350  0.4992
    1SOL    HW211242   1.109   1.341   4.580  0.3054  0.3054  1.6978
    1SOL    HW311243   1.208   1.235   4.535  0.6503  0.5894  1.7849
    1SOL    MW411244   1.188   1.319   4.551  0.0918  0.6590  0.8264
    1SOL     OW11245   0.248   2.846   4.489  0.2768  0.4619 -0.0497
    1SOL    HW211246   0.251   2.846   4.393  1.4425 -1.5002 -0.0406
    1SOL    HW311247   0.161   2.881   4.510 -0.6100 -0.5485 -1.8611
    1SOL    MW411248   0.237   2.851   4.479  0.3136  0.0694 -0.2880
    1SOL     OW11249   3.283   2.051   4.212 -0.0539 -0.1315  0.3475
    1SOL    HW211250   3.259   2.060   4.304 -1.7589 -1.5708  0.0718
    1SOL    HW311251   3.247   2.129   4.169  0.0957  0.1739  0.7806
    1SOL    MW411252   3.275   2.063   4.218 -0.2592 -0.2813  0.3681
    1SOL     OW11253   3.706   0.110   4.702  0.0684 -0.4578  0.1624
    1SOL    HW211254   3.623   0.082   4.663  0.0543  0.6030 -0.5781
    1SOL    HW311255   3.764   0.034   4.691 -0.5789 -0.9336  0.0048
    1SOL    MW411256   3.703   0.096   4.695 -0.0188 -0.3806  0.0439
    1SOL     OW11257   3.395   3.354   4.561  0.4115  0.0128  0.4460
    1SOL    HW211258   3.395   3.285   4.628  1.3721 -0.0358  0.4039
    1SOL    HW311259   3.483   3.350   4.522 -0.4265 -0.6006 -1.4754
    1SOL    MW411260   3.407   3.344   4.564  0.4277 -0.0746  0.1874
    1SOL     OW11261   0.639   3.378   4.628 -0.4201 -0.0966 -0.5336
    1SOL    HW211262   0.547   3.357   4.610 -0.3261 -0.2843 -0.7885
    1SOL    HW311263   0.649   3.469   4.599 -0.4656 -0.1499 -0.7147
    1SOL    MW411264   0.628   3.387   4.622 -0.4138 -0.1283 -0.5913
    1SOL     OW11265   3.158   0.392   4.124 -0.0023 -0.1456 -0.1800
    1SOL    HW211266   3.080   0.443   4.146  0.0566 -0.0756 -0.1319
    1SOL    HW311267   3.230   0.439   4.167 -0.0822 -0.8467  0.7480
    1SOL    MW411268   3.157   0.405   4.133 -0.0050 -0.2289 -0.0510
    1SOL     OW11269   0.216   3.126   4.127  0.3764 -0.1710 -0.0576
    1SOL    HW211270   0.291   3.172   4.166 -0.5822 -0.4252  2.1663
    1SOL    HW311271   0.140   3.162   4.173 -0.5786 -2.2735  0.0306
    1SOL    MW411272   0.216   3.137   4.138  0.1239 -0.4816  0.2470
    1SOL     OW11273   1.836   1.242   4.657 -0.3492 -0.5414  0.1772
    1SOL    HW211274   1.912   1.207   4.703 -0.3092 -1.7701 -0.7628
    1SOL    HW311275   1.873   1.302   4.592  0.0891 -3.0975 -2.0468
    1SOL    MW411276   1.851   1.245   4.654 -0.2862 -1.0407 -0.2398
    1SOL     OW11277   2.236   3.518   4.130  0.2723  0.5806  0.3595
    1SOL    HW211278   2.231   3.429   4.165  0.8507 -0.2075 -1.4581
    1SOL    HW311279   2.167   3.566   4.175 -1.0966 -1.2229  0.2442
    1SOL    MW411280   2.226   3.512   4.140  0.1683  0.2389  0.1044
    1SOL     OW11281   3.816   0.507   4.538 -0.2629  0.1575  0.0917
    1SOL    HW211282   3.823   0.595   4.574 -2.0709  0.4762 -0.2999
    1SOL    HW311283   3.739   0.469   4.579 -0.7209 -0.4910 -1.3145
    1SOL    MW411284   3.807   0.513   4.548 -0.5617  0.1140 -0.1454
    1SOL     OW11285   2.439   0.696   4.375  0.0453  0.4918  1.0213
    1SOL    HW211286   2.350   0.706   4.409  0.1255 -1.4653  1.8556
    1SOL    HW311287   2.436   0.737   4.288 -1.3257  1.5632  1.5492
    1SOL    MW411288   2.427   0.703   4.368 -0.1252  0.3749  1.2012
    1SOL     OW11289   4.162   3.303   4.600 -0.6412  0.1661 -0.0533
    1SOL    HW211290   4.234   3.255   4.560  0.0439  2.0278 -1.1135
    1SOL    HW311291   4.202   3.351   4.672 -1.3831 -1.0859  1.2091
    1SOL    MW411292   4.177   3.303   4.604 -0.6485  0.2465 -0.0267
    1SOL     OW11293   2.250   0.348   4.166 -0.3349  0.5726 -0.1961
    1SOL    HW211294   2.291   0.329   4.081  1.3039 -0.0922  0.7107
    1SOL    HW311295   2.229   0.263   4.202  2.3096  0.6150  1.6281
    1SOL    MW411296   2.253   0.335   4.159  0.2303  0.4905  0.1640
    1SOL     OW11297   3.600   0.891   4.199 -0.2794  0.1012 -0.3348
    1SOL    HW211298   3.520   0.867   4.152 -0.3182  0.2652 -0.3521
    1SOL    HW311299   3.617   0.982   4.174  0.1252 -0.0528 -0.6341
    1SOL    MW411300   3.592   0.900   4.189 -0.2310  0.1025 -0.3767
    1SOL     OW11301   0.060   2.472   4.582  0.1961  0.2186  0.0528
    1SOL    HW211302   0.145   2.471   4.626  1.3771 -0.2053 -2.1519
    1SOL    HW311303   0.012   2.543   4.623  1.3226 -0.0191  1.8473
    1SOL    MW411304   0.065   2.481   4.593  0.5005  0.1311 -0.0010
    1SOL     OW11305   1.892   1.895   4.478 -0.1290 -0.0425 -0.0352
    1SOL    HW211306   1.874   1.988   4.462 -0.0331 -0.1215 -0.5856
    1SOL    HW311307   1.835   1.848   4.417  0.2174 -0.3381 -0.1335
    1SOL    MW411308   1.882   1.901   4.468 -0.0707 -0.0920 -0.1206
    1SOL     OW11309   0.889   1.660   4.290 -0.5318  0.0938 -0.5607
    1SOL    HW211310   0.809   1.625   4.252 -0.6192  1.2609 -1.4927
    1SOL    HW311311   0.880   1.755   4.281 -0.6601  0.4397  2.6309
    1SOL    MW411312   0.877   1.668   4.284 -0.5602  0.2935 -0.2627
    1SOL     OW11313   3.545   1.640   4.267  0.1717 -0.0684  0.5584
    1SOL    HW211314   3.554   1.620   4.360  0.5321 -0.5974  0.4065
    1SOL    HW311315   3.492   1.569   4.232  1.0183 -0.4956  0.1288
    1SOL    MW411316   3.539   1.628   4.275  0.3309 -0.1945  0.4816
    1SOL     OW11317   3.338   2.661   4.287  0.4990  0.6027  0.1683
    1SOL    HW211318   3.249   2.645   4.257  1.1053  0.1814 -1.4740
    1SOL    HW311319   3.339   2.753   4.315 -0.5726  0.4525  0.7182
    1SOL    MW411320   3.326   2.671   4.287  0.4375  0.5269  0.0243
    1SOL     OW11321   3.835   2.343   4.415  0.0871 -0.0889  0.4355
    1SOL    HW211322   3.868   2.363   4.328  1.3719 -2.7848  0.2697
    1SOL    HW311323   3.751   2.300   4.400 -0.9415  1.7827  0.6609
    1SOL    MW411324   3.828   2.340   4.402  0.1209 -0.1974  0.4435
    1SOL     OW11325   0.511   0.061   4.610 -0.0151 -0.4381 -0.1633
    1SOL    HW211326   0.553   0.042   4.526  1.0503 -1.9332  0.6694
    1SOL    HW311327   0.463   0.142   4.596  0.9226 -0.1725 -1.9417
    1SOL    MW411328   0.510   0.069   4.597  0.2493 -0.6003 -0.2875
    1SOL     OW11329   1.677   4.544   4.651 -0.1690  0.3033  0.1356
    1SOL    HW211330   1.595   4.508   4.617 -0.1846 -1.3336  1.8468
    1SOL    HW311331   1.650   4.599   4.725  0.2392  0.0913  0.4405
    1SOL    MW411332   1.662   4.546   4.656 -0.1172  0.0591  0.4015
    1SOL     OW11333   3.065   1.874   4.180 -0.0714 -0.1910  0.0428
    1SOL    HW211334   2.998   1.886   4.247  0.7717 -1.0696  1.0871
    1SOL    HW311335   3.130   1.942   4.199 -0.8777  0.9588 -1.2564
    1SOL    MW411336   3.065   1.884   4.192 -0.0663 -0.1551  0.0095
    1SOL     OW11337   3.646   1.158   4.123 -0.4508 -0.1663  0.3904
    1SOL    HW211338   3.657   1.157   4.028 -1.9444 -2.3458  0.2043
    1SOL    HW311339   3.552   1.170   4.136  0.0623  2.8699  1.6771
    1SOL    MW411340   3.635   1.159   4.112 -0.5803 -0.0534  0.5355
    1SOL     OW11341   1.763   0.333   4.150 -0.5063  0.1023  0.2351
    1SOL    HW211342   1.690   0.376   4.194 -1.7046 -1.2952 -0.3430
    1SOL    HW311343   1.767   0.246   4.190  1.1147  0.3124  0.5480
    1SOL    MW411344   1.754   0.327   4.161 -0.4506 -0.0543  0.2003
    1SOL     OW11345   3.353   4.395   4.294  0.3635 -0.0087  0.3208
    1SOL    HW211346   3.377   4.395   4.387  1.5913 -0.7109  0.0178
    1SOL    HW311347   3.331   4.486   4.275  1.4445  0.4011  0.9614
    1SOL    MW411348   3.353   4.407   4.304  0.6680 -0.0472  0.3657
    1SOL     OW11349   2.479   0.425   4.316  0.4177 -0.1095  0.0201
    1SOL    HW211350   2.471   0.519   4.326 -0.0746  0.1154 -2.1085
    1SOL    HW311351   2.404   0.400   4.262  1.5532 -1.4258 -1.0098
    1SOL    MW411352   2.468   0.434   4.310  0.5028 -0.2535 -0.3963
    1SOL     OW11353   2.663   2.664   4.130 -0.2680  0.0496  0.3809
    1SOL    HW211354   2.615   2.739   4.165  1.1519  0.0308  2.4903
    1SOL    HW311355   2.615   2.587   4.160 -0.1963  0.0595  0.5175
    1SOL    MW411356   2.651   2.664   4.138 -0.0713  0.0482  0.6771
    1SOL     OW11357   2.487   1.275   4.279 -0.1907  0.5037  0.2101
    1SOL    HW211358   2.568   1.249   4.237  0.2148  0.8063  0.7959
    1SOL    HW311359   2.464   1.358   4.238 -0.6774 -0.0095 -0.5779
    1SOL    MW411360   2.495   1.283   4.268 -0.2012  0.4759  0.1831
    1SOL     OW11361   3.152   3.513   4.113 -0.3521  0.0228 -0.2017
    1SOL    HW211362   3.150   3.510   4.017 -0.2523 -0.7326 -0.1880
    1SOL    HW311363   3.073   3.561   4.137 -0.2163  0.4785 -0.6738
    1SOL    MW411364   3.141   3.519   4.104 -0.3209 -0.0167 -0.2618
    1SOL     OW11365   3.560   4.011   4.516  0.5076 -0.4081 -0.7231
    1SOL    HW211366   3.561   4.019   4.421 -2.0809 -1.9582 -0.9126
    1SOL    HW311367   3.571   3.917   4.532  0.5760 -0.1970  0.5199
    1SOL    MW411368   3.562   4.000   4.506  0.1750 -0.5844 -0.5841
    1SOL     OW11369   3.861   1.299   4.213 -0.2169 -0.0466  0.3902
    1SOL    HW211370   3.854   1.387   4.176 -0.1026  0.0700  0.6442
    1SOL    HW311371   3.777   1.257   4.192 -0.2550  0.1088  0.2314
    1SOL    MW411372   3.849   1.305   4.205 -0.2069 -0.0107  0.4029
    1SOL     OW11373   3.170   1.591   4.458  0.5380 -0.2029  0.0620
    1SOL    HW211374   3.256   1.632   4.470  0.9076 -0.6142 -1.1282
    1SOL    HW311375   3.148   1.608   4.366 -0.1151 -1.1276  0.0429
    1SOL    MW411376   3.179   1.599   4.448  0.5007 -0.3792 -0.0973
    1SOL     OW11377   3.812   1.013   4.763 -0.5371  0.5381  0.2004
    1SOL    HW211378   3.895   1.055   4.741  0.7830 -0.3616  3.2709
    1SOL    HW311379   3.818   0.926   4.724 -0.9489  1.1752 -1.3441
    1SOL    MW411380   3.823   1.007   4.755 -0.4175  0.5034  0.4015
    1SOL     OW11381   2.718   1.621   4.311 -0.0486 -0.2308 -0.2009
    1SOL    HW211382   2.641   1.570   4.287 -0.7608  0.8690 -0.2909
    1SOL    HW311383   2.720   1.618   4.407 -1.9062  2.1641 -0.0426
    1SOL    MW411384   2.708   1.614   4.321 -0.3877  0.2303 -0.1917
    1SOL     OW11385   4.293   0.483   4.281 -0.4245 -0.3131  0.4225
    1SOL    HW211386   4.286   0.571   4.245 -0.5779  0.0148  1.2545
    1SOL    HW311387   4.214   0.438   4.251 -0.7945  0.1102  0.7542
    1SOL    MW411388   4.281   0.489   4.272 -0.4940 -0.2140  0.5760
    1SOL     OW11389   4.240   0.308   4.707 -0.3022  0.7351  0.5033
    1SOL    HW211390   4.151   0.342   4.711 -0.7966 -0.2915 -1.2635
    1SOL    HW311391   4.281   0.354   4.633 -0.8174 -2.0074 -1.5728
    1SOL    MW411392   4.234   0.318   4.698 -0.4349  0.2379 -0.0033
    1SOL     OW11393   2.010   3.120   4.190  0.2246 -0.1374 -0.6755
    1SOL    HW211394   2.023   3.027   4.208  0.0623 -0.2574 -1.1866
    1SOL    HW311395   1.933   3.144   4.242  0.1286 -0.3419 -0.7212
    1SOL    MW411396   2.002   3.111   4.199  0.1905 -0.1805 -0.7491
    1SOL     OW11397   0.930   1.385   4.568 -0.0022  0.7088 -0.2148
    1SOL    HW211398   0.900   1.470   4.599 -0.7864  0.5158 -0.4320
    1SOL    HW311399   0.850   1.332   4.563  0.1948  0.5582 -2.0208
    1SOL    MW411400   0.915   1.389   4.572 -0.0796  0.6634 -0.4811
    1SOL     OW11401   0.657   1.854   4.696 -0.0315 -0.1426 -0.2335
    1SOL    HW211402   0.587   1.793   4.672 -0.7110  0.5245  0.0163
    1SOL    HW311403   0.640   1.932   4.643 -1.8148  1.5356  2.6418
    1SOL    MW411404   0.645   1.857   4.686 -0.3565  0.1668  0.1788
    1SOL     OW11405   3.037   0.584   4.521  0.1286  0.0899 -0.3111
    1SOL    HW211406   3.105   0.559   4.583  0.1135  0.3765 -0.1741
    1SOL    HW311407   3.077   0.653   4.468  0.1423 -0.1577 -0.6195
    1SOL    MW411408   3.051   0.590   4.523  0.1283  0.0950 -0.3343
    1SOL     OW11409   3.338   0.819   4.106 -0.0971  0.4547 -0.3457
    1SOL    HW211410   3.329   0.747   4.169  1.4080 -0.2603 -0.9251
    1SOL    HW311411   3.263   0.876   4.124 -3.2964 -2.9187 -2.0446
    1SOL    MW411412   3.327   0.817   4.116 -0.3207 -0.0847 -0.6461
    1SOL     OW11413   3.842   0.781   4.609 -0.2931 -0.3197  0.2332
    1SOL    HW211414   3.920   0.809   4.562 -0.6193 -0.8602 -0.6522
    1SOL    HW311415   3.770   0.830   4.569 -0.4907 -0.3377  0.5667
    1SOL    MW411416   3.843   0.791   4.598 -0.3622 -0.3935  0.1602
    1SOL     OW11417   2.474   2.306   3.867  0.0050 -0.4687 -0.1115
    1SOL    HW211418   2.468   2.291   3.961 -1.6890  1.9793  0.2092
    1SOL    HW311419   2.465   2.219   3.828 -0.2631 -1.3913  1.9417
    1SOL    MW411420   2.472   2.292   3.874 -0.2537 -0.2673  0.2017
    1SOL     OW11421   2.367   4.475   4.548  0.2050  0.0384  0.2630
    1SOL    HW211422   2.341   4.553   4.599 -0.2545 -0.0809  0.2138
    1SOL    HW311423   2.288   4.422   4.545  0.5515 -0.4821  0.3832
    1SOL    MW411424   2.353   4.478   4.554  0.1900 -0.0458  0.2718
    1SOL     OW11425   3.396   1.198   4.472  0.5246  0.3563 -0.4755
    1SOL    HW211426   3.311   1.238   4.491  0.8612  0.9113 -0.1121
    1SOL    HW311427   3.395   1.182   4.378 -0.1581 -0.0527 -0.4024
    1SOL    MW411428   3.384   1.201   4.462  0.4790  0.3756 -0.4182
    1SOL     OW11429   3.113   0.170   4.282  0.0310  0.1309  0.3509
    1SOL    HW211430   3.143   0.254   4.246 -0.0760 -0.0442 -0.1407
    1SOL    HW311431   3.144   0.171   4.373 -0.1145  0.7781  0.3965
    1SOL    MW411432   3.121   0.182   4.290 -0.0024  0.1932  0.2923
    1SOL     OW11433   2.694   3.516   4.105 -0.3100 -0.0035 -0.4179
    1SOL    HW211434   2.766   3.552   4.157 -0.2825  2.3745 -1.9912
    1SOL    HW311435   2.619   3.571   4.127 -0.6586  0.0656 -1.7247
    1SOL    MW411436   2.694   3.528   4.115 -0.3521  0.3195 -0.7982
    1SOL     OW11437   1.140   3.797   4.151  0.0947  0.2817  0.0471
    1SOL    HW211438   1.205   3.856   4.190 -0.0104  1.2011 -1.1113
    1SOL    HW311439   1.140   3.720   4.207  1.9607  0.3959  0.2432
    1SOL    MW411440   1.149   3.795   4.164  0.3272  0.4184 -0.0796
    1SOL     OW11441   0.201   0.664   4.546 -0.0444 -0.4450 -0.1726
    1SOL    HW211442   0.294   0.686   4.536 -0.7838  2.4779 -1.0567
    1SOL    HW311443   0.175   0.632   4.459 -0.3209  0.5669 -0.4646
    1SOL    MW411444   0.210   0.663   4.533 -0.1784  0.0741 -0.3276
    1SOL     OW11445   0.664   2.078   4.284 -0.1500  0.0343 -0.3658
    1SOL    HW211446   0.748   2.034   4.265  0.2050  0.0348  1.1252
    1SOL    HW311447   0.661   2.151   4.223  1.8126  1.1149  0.7884
    1SOL    MW411448   0.675   2.082   4.274  0.1557  0.1771 -0.0172
    1SOL     OW11449   0.448   2.700   4.159  0.5498 -0.1130 -0.3760
    1SOL    HW211450   0.457   2.705   4.064  0.8433 -0.4588 -0.3669
    1SOL    HW311451   0.365   2.744   4.178  0.4551 -0.1146 -0.7975
    1SOL    MW411452   0.438   2.707   4.149  0.5760 -0.1590 -0.4306
    1SOL     OW11453   1.355   2.461   4.261 -0.3946 -0.0678  0.2362
    1SOL    HW211454   1.430   2.421   4.217 -0.1957  0.6261 -0.0529
    1SOL    HW311455   1.362   2.554   4.241 -1.0316  0.0716  0.6585
    1SOL    MW411456   1.366   2.468   4.253 -0.4524  0.0420  0.2532
    1SOL     OW11457   3.128   2.954   4.481 -0.4979 -0.1363  0.7060
    1SOL    HW211458   3.139   2.900   4.559 -1.5952 -0.7796  0.4109
    1SOL    HW311459   3.037   2.941   4.454 -0.3971  0.8151 -0.1366
    1SOL    MW411460   3.118   2.945   4.488 -0.6292 -0.0956  0.5560
    1SOL     OW11461   2.702   0.892   4.246  0.1078 -0.1218 -0.8860
    1SOL    HW211462   2.788   0.853   4.228  0.2961  0.0805 -0.4266
    1SOL    HW311463   2.689   0.878   4.340  0.8479  2.2429 -0.4072
    1SOL    MW411464   2.712   0.885   4.256  0.2303  0.2170 -0.7625
    1SOL     OW11465   0.015   4.665   4.526  0.1298  0.0472 -0.0970
    1SOL    HW211466   0.076   4.592   4.532  2.8931  2.1796 -1.3625
    1SOL    HW311467   0.009   4.683   4.432 -0.8676  1.1975  0.1760
    1SOL    MW411468   0.022   4.658   4.514  0.3628  0.4803 -0.2279
    1SOL     OW11469   4.412   3.196   4.537 -0.3022 -0.1982  0.1554
    1SOL    HW211470   4.444   3.109   4.561 -0.8215 -0.2042  0.8426
    1SOL    HW311471   4.471   3.256   4.584  0.9627 -0.1368 -1.4500
    1SOL    MW411472   4.424   3.192   4.547 -0.2041 -0.1910  0.0343
    1SOL     OW11473   3.130   3.249   4.480 -0.2517  0.0192 -0.2503
    1SOL    HW211474   3.135   3.156   4.500  1.4314  0.4736  1.5487
    1SOL    HW311475   3.216   3.284   4.503 -0.9534  2.0869 -0.5861
    1SOL    MW411476   3.142   3.242   4.485 -0.1221  0.3519 -0.0572
    1SOL     OW11477   1.300   1.565   4.646  0.4596 -0.7898 -0.2851
    1SOL    HW211478   1.214   1.602   4.661  0.7893 -0.1562  0.0604
    1SOL    HW311479   1.283   1.481   4.604 -0.3147 -0.5739 -0.4077
    1SOL    MW411480   1.287   1.559   4.642  0.4010 -0.6776 -0.2551
    1SOL     OW11481   1.559   0.529   4.548 -0.2526 -0.3763 -0.2562
    1SOL    HW211482   1.581   0.449   4.596  1.5468 -0.5455 -1.3139
    1SOL    HW311483   1.569   0.505   4.456  0.1203  1.0303 -0.5882
    1SOL    MW411484   1.563   0.516   4.542  0.0339 -0.2130 -0.4396
    1SOL     OW11485   3.980   1.954   4.143 -0.0712 -0.1371 -0.4207
    1SOL    HW211486   3.888   1.957   4.168  0.4194  0.7603  1.3657
    1SOL    HW311487   4.008   1.864   4.161  0.2661  0.4839  2.3435
    1SOL    MW411488   3.972   1.942   4.149  0.0381  0.0633  0.1793
    1SOL     OW11489   2.852   4.598   4.145  0.0594  0.0945 -0.0233
    1SOL    HW211490   2.855   4.671   4.207  1.3404 -0.2436  0.3240
    1SOL    HW311491   2.893   4.525   4.192 -0.0297 -0.4846 -0.8448
    1SOL    MW411492   2.858   4.598   4.160  0.2167 -0.0267 -0.0858
    1SOL     OW11493   0.752   0.462   4.704 -0.0120 -0.0761 -0.0577
    1SOL    HW211494   0.662   0.480   4.731  0.0065 -0.1056  0.0211
    1SOL    HW311495   0.752   0.371   4.676  0.1045 -0.2097  0.3865
    1SOL    MW411496   0.740   0.453   4.704  0.0058 -0.0976  0.0119
    1SOL     OW11497   1.601   4.178   4.541  0.3976  0.2522 -0.6722
    1SOL    HW211498   1.579   4.243   4.475  0.9069  1.7279  0.5895
    1SOL    HW311499   1.518   4.153   4.581  0.2570  0.4649 -0.8383
    1SOL    MW411500   1.587   4.183   4.538  0.4463  0.4754 -0.5274
    1SOL     OW11501   3.874   1.864   4.494 -0.3988 -0.4787 -0.0266
    1SOL    HW211502   3.834   1.878   4.408 -0.8493 -1.4760  0.0146
    1SOL    HW311503   3.911   1.950   4.518 -0.5898 -0.1102 -1.0449
    1SOL    MW411504   3.873   1.877   4.486 -0.4835 -0.5616 -0.1559
    1SOL     OW11505   4.219   2.238   4.587 -0.0025  0.1657 -0.1878
    1SOL    HW211506   4.232   2.328   4.558 -1.1218 -0.0163 -1.2855
    1SOL    HW311507   4.306   2.198   4.579  0.0706  0.5996 -1.6257
    1SOL    MW411508   4.232   2.245   4.582 -0.1402  0.1988 -0.5231
    1SOL     OW11509   2.904   3.684   4.501  0.4403  0.4569  0.0801
    1SOL    HW211510   2.906   3.593   4.533  0.7226  0.4694  0.0949
    1SOL    HW311511   2.987   3.722   4.530 -0.2340  1.1041  1.1851
    1SOL    MW411512   2.915   3.677   4.509  0.3886  0.5438  0.2279
    1SOL     OW11513   1.585   3.686   4.521  0.1385  0.0801  0.0865
    1SOL    HW211514   1.637   3.766   4.525 -0.9722  0.8570 -0.6976
    1SOL    HW311515   1.626   3.628   4.585  1.7380  0.8042 -0.2563
    1SOL    MW411516   1.598   3.689   4.530  0.2030  0.2780 -0.0620
    1SOL     OW11517   1.843   3.476   4.183 -0.1124  0.7667 -0.4955
    1SOL    HW211518   1.835   3.457   4.089 -2.2744 -1.3045  0.0463
    1SOL    HW311519   1.766   3.529   4.204  0.5853  1.5790  0.0303
    1SOL    MW411520   1.832   3.480   4.173 -0.3055  0.6008 -0.3548
    1SOL     OW11521   1.083   1.743   4.695  0.0104 -0.2614  0.6825
    1SOL    HW211522   1.002   1.726   4.648  0.0401  0.9816  0.1792
    1SOL    HW311523   1.057   1.744   4.788 -0.3370 -1.0107  0.6006
    1SOL    MW411524   1.069   1.741   4.701 -0.0315 -0.1962  0.6056
    1SOL     OW11525   2.219   2.238   4.759  0.3946 -0.3065 -0.0602
    1SOL    HW211526   2.217   2.241   4.663  3.9391 -0.6325 -0.2012
    1SOL    HW311527   2.251   2.325   4.784 -0.2297 -0.3345  0.8363
    1SOL    MW411528   2.223   2.250   4.749  0.7801 -0.3533  0.0391
    1SOL     OW11529   0.916   3.440   4.158 -0.0127  0.6149  0.2853
    1SOL    HW211530   0.886   3.352   4.182  0.1831  0.3525 -0.4217
    1SOL    HW311531   0.916   3.440   4.062  0.5053  1.2079  0.2818
    1SOL    MW411532   0.912   3.428   4.148  0.0814  0.6585  0.1917
    1SOL     OW11533   4.470   1.726   4.233 -0.5540  0.4824 -0.0485
    1SOL    HW211534   4.475   1.688   4.321 -0.2365 -0.7880 -0.6082
    1SOL    HW311535   4.394   1.683   4.193 -0.0284  0.2352 -0.7822
    1SOL    MW411536   4.461   1.715   4.239 -0.4427  0.2823 -0.2193
    1SOL     OW11537   3.919   3.326   4.460 -0.1664  0.2184 -0.0005
    1SOL    HW211538   3.936   3.303   4.368  1.2949 -0.6417  0.4677
    1SOL    HW311539   4.000   3.304   4.506 -1.0635  0.1465  1.5943
    1SOL    MW411540   3.931   3.320   4.454 -0.0920  0.0954  0.2718
    1SOL     OW11541   3.252   2.036   4.486 -0.3148 -0.2950 -0.1275
    1SOL    HW211542   3.293   1.951   4.500 -1.2605 -1.0434 -1.7003
    1SOL    HW311543   3.177   2.037   4.546  0.8310  0.2547  1.3109
    1SOL    MW411544   3.247   2.025   4.495 -0.2882 -0.3211 -0.1450
    1SOL     OW11545   4.466   4.227   4.119 -0.1952 -0.0104  0.2512
    1SOL    HW211546   4.396   4.282   4.153  0.2101 -0.1225  1.2956
    1SOL    HW311547   4.473   4.250   4.026 -1.8377 -0.2556  0.0594
    1SOL    MW411548   4.458   4.237   4.111 -0.3581 -0.0572  0.3643
    1SOL     OW11549   1.944   2.422   4.217 -0.6491  0.2696  0.0100
    1SOL    HW211550   1.886   2.408   4.292 -1.5008  0.8556 -0.5287
    1SOL    HW311551   2.029   2.442   4.256 -1.5077  2.4436  0.8458
    1SOL    MW411552   1.947   2.423   4.232 -0.8749  0.6337  0.0491
    1SOL     OW11553   0.884   0.279   4.169 -0.0964 -0.5470 -0.4493
    1SOL    HW211554   0.949   0.209   4.166  0.0570 -0.4788  0.8217
    1SOL    HW311555   0.935   0.359   4.173 -0.2662 -0.4443 -0.3543
    1SOL    MW411556   0.899   0.280   4.169 -0.0985 -0.5244 -0.2694
    1NA      NA11557   3.122   3.969   0.467 -0.3557  0.5789  0.1794
    1NA      NA11558   0.881   2.434   0.707  0.2994 -0.2537  0.1665
   4.49070   4.66690  10.00000
