Gromacs Runs On Most of All Computer Systems in water
11558
    1RG35     P    1   2.107   2.698   4.515 -0.1787 -0.0237  0.1715
    1RG35   O1P    2   2.196   2.781   4.603 -0.4687  0.2029  0.2180
    1RG35   O2P    3   2.176   2.619   4.415 -0.0851  0.3952  0.3572
    1RG35   O5'    4   2.051   2.588   4.606 -0.3961  0.0872 -0.3879
    1RG35   C5'    5   1.997   2.615   4.733 -0.0776 -0.0032  0.6300
    1RG35  H5'1    6   1.896   2.575   4.734  0.0505 -0.3540 -0.1962
    1RG35  H5'2    7   1.998   2.718   4.769  0.5649 -0.4095  1.7951
    1RG35   C4'    8   2.072   2.528   4.829  0.1983  0.0281 -0.3864
    1RG35   H4'    9   2.063   2.573   4.927 -0.3019 -0.2491 -0.3038
    1RG35   O4'   10   2.034   2.396   4.849 -0.1815 -0.6705  0.1872
    1RG35   C1'   11   2.135   2.329   4.923  0.3063  0.5698 -0.3441
    1RG35   H1'   12   2.116   2.327   5.030 -1.3568  1.8965 -0.5799
    1RG35    N9   13   2.146   2.197   4.856  0.5357  0.5824 -0.7101
    1RG35    C8   14   2.055   2.138   4.767 -0.0033 -0.5684 -0.3420
    1RG35    H8   15   1.967   2.190   4.729 -0.2995 -0.1425  0.8910
    1RG35    N7   16   2.088   2.018   4.736  0.1781  0.3359 -0.3227
    1RG35    C5   17   2.212   1.995   4.795 -0.1343 -0.1125  0.3715
    1RG35    C6   18   2.302   1.885   4.784 -0.3217  0.2498 -0.2364
    1RG35    O6   19   2.284   1.782   4.721 -0.0611  0.0778 -0.3139
    1RG35    N1   20   2.424   1.903   4.857 -0.2598  0.6952  0.3226
    1RG35    H1   21   2.505   1.845   4.838 -0.6031  0.2497  0.2139
    1RG35    C2   22   2.448   2.016   4.929 -0.5888  0.7300  0.4721
    1RG35    N2   23   2.572   2.038   4.962  0.0280  0.1629 -0.6651
    1RG35   H21   24   2.642   1.967   4.945  0.8115  0.5464  0.8276
    1RG35   H22   25   2.591   2.131   4.997 -0.8167  0.8851 -2.0711
    1RG35    N3   26   2.365   2.118   4.939  0.1027 -0.1292  0.2553
    1RG35    C4   27   2.248   2.106   4.870  0.5461  0.5627  0.3553
    1RG35   C3'   28   2.223   2.522   4.809  0.2605  0.3380  0.0920
    1RG35   H3'   29   2.252   2.483   4.711  1.5089 -1.1277  1.0409
    1RG35   C2'   30   2.263   2.415   4.906 -0.3879  0.0800 -0.0322
    1RG35  H2'1   31   2.344   2.357   4.863 -1.1753 -1.7348  0.9098
    1RG35   O2'   32   2.295   2.472   5.033  0.2021 -0.7226  0.2973
    1RG35  HO'2   33   2.331   2.557   5.007 -0.0215 -0.5598  0.5201
    1RG35   O3'   34   2.284   2.651   4.829 -0.5131  0.5113 -0.0222
    1RG35   H3T   35   2.253   2.700   4.753  0.6959 -1.0306 -1.5569
    1RG35   O3P   36   1.989   2.768   4.465  0.3076 -0.0309  0.1093
    1SOL     OW   37   0.486   0.083   0.451  0.2155 -0.2323 -0.1184
    1SOL    HW2   38   0.533   0.139   0.390  0.8471 -0.9800 -0.3200
    1SOL    HW3   39   0.408   0.134   0.475  0.1503  0.2094 -1.2521
    1SOL    MW4   40   0.482   0.097   0.446  0.2902 -0.2727 -0.2946
    1SOL     OW   41   3.978   0.086   0.536  0.3400 -0.2747 -0.1617
    1SOL    HW2   42   4.048   0.029   0.502  0.2642 -0.9221  0.7662
    1SOL    HW3   43   3.998   0.172   0.499  3.3638  0.2488  2.4167
    1SOL    MW4   44   3.990   0.090   0.527  0.7288 -0.2910  0.3009
    1SOL     OW   45   3.778   0.301   0.201 -0.3256 -0.2913  0.6456
    1SOL    HW2   46   3.735   0.283   0.117  1.1395 -1.1540  0.0683
    1SOL    HW3   47   3.777   0.217   0.247 -0.3771 -0.0158  1.1545
    1SOL    MW4   48   3.772   0.287   0.196 -0.1392 -0.3688  0.6366
    1SOL     OW   49   0.125   1.767   0.471 -0.3647 -0.1426  0.0671
    1SOL    HW2   50   0.094   1.755   0.561  0.0480  1.8251  0.4956
    1SOL    HW3   51   0.200   1.708   0.463  0.6523  0.9146  1.5653
    1SOL    MW4   52   0.130   1.758   0.482 -0.1761  0.2564  0.3213
    1SOL     OW   53   1.231   0.963   0.387  0.1208 -0.3330  0.6809
    1SOL    HW2   54   1.166   0.905   0.424 -0.3827  0.2399  0.7012
    1SOL    HW3   55   1.214   0.963   0.293  0.8517 -1.1118  0.5402
    1SOL    MW4   56   1.220   0.956   0.380  0.1507 -0.3601  0.6651
    1SOL     OW   57   0.166   0.481   0.490  0.3638 -0.5045 -0.4154
    1SOL    HW2   58   0.190   0.498   0.581  2.5452  0.5113 -1.1477
    1SOL    HW3   59   0.195   0.391   0.474  0.8628 -0.3505 -0.3832
    1SOL    MW4   60   0.173   0.471   0.500  0.7175 -0.3501 -0.5077
    1SOL     OW   61   0.430   0.862   0.471 -0.4529  0.6537 -0.0101
    1SOL    HW2   62   0.438   0.849   0.565  0.0319  0.2201 -0.1082
    1SOL    HW3   63   0.421   0.773   0.435  0.8667  0.7046 -0.5033
    1SOL    MW4   64   0.430   0.848   0.479 -0.2148  0.6031 -0.0881
    1SOL     OW   65   0.791   0.729   0.325 -0.3254 -0.3160 -0.2856
    1SOL    HW2   66   0.862   0.769   0.374  0.9953 -0.4526 -2.0449
    1SOL    HW3   67   0.731   0.802   0.306 -0.1648 -0.0183  0.3242
    1SOL    MW4   68   0.792   0.744   0.329 -0.1299 -0.2948 -0.4373
    1SOL     OW   69   0.611   0.966   0.299 -0.1303  0.4289  0.4512
    1SOL    HW2   70   0.557   0.961   0.220  1.6581  1.9750 -0.9099
    1SOL    HW3   71   0.553   0.936   0.369 -1.9481 -0.3699 -1.3375
    1SOL    MW4   72   0.596   0.962   0.298 -0.1342  0.5275  0.0356
    1SOL     OW   73   4.341   1.710   0.392 -0.2030 -0.4341  0.2599
    1SOL    HW2   74   4.436   1.701   0.392 -0.2158 -0.6373 -0.4721
    1SOL    HW3   75   4.323   1.783   0.332 -0.4806 -0.0302  0.8277
    1SOL    MW4   76   4.351   1.718   0.384 -0.2418 -0.4076  0.2382
    1SOL     OW   77   4.090   1.771   0.514 -0.1941 -0.2271  0.3783
    1SOL    HW2   78   4.177   1.749   0.481 -0.7794  2.0475 -2.9128
    1SOL    HW3   79   4.090   1.867   0.520 -2.4187 -0.1966  0.4451
    1SOL    MW4   80   4.102   1.781   0.511 -0.5651  0.0771 -0.0471
    1SOL     OW   81   0.201   2.030   0.466  0.3914  0.1776  0.3406
    1SOL    HW2   82   0.166   1.945   0.441 -0.7946  0.9026 -0.5054
    1SOL    HW3   83   0.296   2.019   0.461  0.2631 -1.2382  0.7537
    1SOL    MW4   84   0.209   2.018   0.462  0.2180  0.0865  0.2835
    1SOL     OW   85   0.208   2.469   0.408  0.2103 -0.0944 -0.0546
    1SOL    HW2   86   0.237   2.415   0.481 -0.6659  0.1969  0.5165
    1SOL    HW3   87   0.164   2.408   0.348 -0.5688 -0.0618  0.4755
    1SOL    MW4   88   0.206   2.454   0.409 -0.0081 -0.0517  0.0907
    1SOL     OW   89   4.313   2.817   0.531 -0.3771 -0.1092 -0.3060
    1SOL    HW2   90   4.225   2.842   0.504 -0.7245 -0.2776  0.6326
    1SOL    HW3   91   4.371   2.880   0.489 -1.0440  0.7398  0.0345
    1SOL    MW4   92   4.309   2.829   0.522 -0.5112 -0.0196 -0.1372
    1SOL     OW   93   4.074   3.328   0.474 -0.3800  0.4395  0.3501
    1SOL    HW2   94   4.056   3.309   0.566  2.3720  1.9804  1.2553
    1SOL    HW3   95   4.114   3.247   0.441 -1.4222 -0.1372  0.4795
    1SOL    MW4   96   4.077   3.315   0.482 -0.1545  0.5665  0.4866
    1SOL     OW   97   0.445   2.934   0.410 -0.3371  0.2586 -0.4068
    1SOL    HW2   98   0.540   2.926   0.419 -0.4936 -0.2818  0.8083
    1SOL    HW3   99   0.428   3.028   0.413  0.2744  0.4244 -1.8621
    1SOL    MW4  100   0.455   2.945   0.411 -0.2770  0.2093 -0.4385
    1SOL     OW  101   0.745   3.446   0.516  0.2325 -0.0270 -0.1383
    1SOL    HW2  102   0.817   3.497   0.480  0.5727 -0.1711  0.3479
    1SOL    HW3  103   0.723   3.489   0.598 -0.7744  0.5055 -0.6795
    1SOL    MW4  104   0.751   3.458   0.522  0.1445  0.0241 -0.1456
    1SOL     OW  105   1.032   3.859   0.344 -0.3103  0.5070  0.3294
    1SOL    HW2  106   1.065   3.915   0.274 -1.0764  0.0910 -0.3814
    1SOL    HW3  107   0.961   3.910   0.384 -1.5987 -0.2747 -0.8882
    1SOL    MW4  108   1.027   3.873   0.340 -0.5814  0.3493  0.0750
    1SOL     OW  109   3.805   3.425   0.473 -0.3401 -0.0983  0.2690
    1SOL    HW2  110   3.804   3.481   0.551 -0.2701 -0.3062  0.4184
    1SOL    HW3  111   3.894   3.390   0.470  0.1946  1.3052 -0.9001
    1SOL    MW4  112   3.817   3.428   0.483 -0.2604  0.0596  0.1344
    1SOL     OW  113   0.372   3.875   0.358 -0.5362 -0.1736  0.0405
    1SOL    HW2  114   0.289   3.913   0.385 -0.7176 -0.4325 -0.1492
    1SOL    HW3  115   0.436   3.945   0.370 -0.7479 -0.0353  0.3720
    1SOL    MW4  116   0.369   3.889   0.363 -0.5881 -0.1898  0.0592
    1SOL     OW  117   0.383   4.504   0.495  0.4550  0.6068 -0.4345
    1SOL    HW2  118   0.427   4.584   0.466  0.3254  0.0677 -2.1693
    1SOL    HW3  119   0.440   4.433   0.467 -0.2886  0.0107 -0.4746
    1SOL    MW4  120   0.396   4.505   0.487  0.3397  0.4568 -0.6687
    1SOL     OW  121   0.580   4.309   0.442 -0.0281  0.0634 -0.4791
    1SOL    HW2  122   0.618   4.344   0.523 -0.3508 -2.2625  0.7405
    1SOL    HW3  123   0.641   4.334   0.374  2.4985 -1.5370  1.1135
    1SOL    MW4  124   0.593   4.317   0.444  0.2627 -0.4539 -0.1080
    1SOL     OW  125   4.326   4.158   0.363 -0.3583 -1.0026 -0.1054
    1SOL    HW2  126   4.406   4.128   0.406  0.1171 -1.6248 -1.4037
    1SOL    HW3  127   4.283   4.214   0.428  0.4989 -1.6761  1.0634
    1SOL    MW4  128   4.331   4.161   0.377 -0.1826 -1.1740 -0.1225
    1SOL     OW  129   0.530   3.422   0.350 -0.0486  0.6587 -0.2327
    1SOL    HW2  130   0.465   3.484   0.382 -0.0806  0.1899  0.6319
    1SOL    HW3  131   0.604   3.433   0.409  0.4820  0.8558 -0.9281
    1SOL    MW4  132   0.531   3.432   0.362  0.0172  0.6227 -0.2104
    1SOL     OW  133   0.884   0.063   0.222  0.4101  0.5940 -0.3520
    1SOL    HW2  134   0.910   0.056   0.314 -0.6125  0.5348 -0.0675
    1SOL    HW3  135   0.963   0.094   0.177  0.3322  2.7074  0.8841
    1SOL    MW4  136   0.898   0.066   0.228  0.2649  0.8650 -0.1514
    1SOL     OW  137   0.215   0.197   0.475 -0.0691 -0.0253 -0.0009
    1SOL    HW2  138   0.172   0.163   0.554  0.3904  0.0230  0.2668
    1SOL    HW3  139   0.158   0.169   0.403 -0.0712 -0.7353  0.2816
    1SOL    MW4  140   0.201   0.189   0.476 -0.0087 -0.1126  0.0716
    1SOL     OW  141   4.371   0.600   0.477  0.2799  0.7310 -0.7272
    1SOL    HW2  142   4.464   0.584   0.461  0.4671  0.8512  0.1868
    1SOL    HW3  143   4.356   0.690   0.447  0.5946  0.9073 -0.3731
    1SOL    MW4  144   4.381   0.610   0.471  0.3457  0.7702 -0.5598
    1SOL     OW  145   1.144   4.420   0.467 -0.5689 -0.0977  0.0811
    1SOL    HW2  146   1.096   4.352   0.419 -1.2503 -1.3064  2.4292
    1SOL    HW3  147   1.134   4.397   0.559  1.9432  1.3729  0.7810
    1SOL    MW4  148   1.136   4.408   0.473 -0.3272 -0.0629  0.4833
    1SOL     OW  149   1.025   0.802   0.487  0.0524  0.1496 -0.5015
    1SOL    HW2  150   1.020   0.707   0.481 -1.2999  0.1794 -0.0331
    1SOL    HW3  151   1.009   0.821   0.579 -0.9797  0.9082 -0.8312
    1SOL    MW4  152   1.022   0.792   0.498 -0.2623  0.2537 -0.4832
    1SOL     OW  153   0.566   0.476   0.210 -0.0110  0.3263  0.0166
    1SOL    HW2  154   0.610   0.394   0.230 -0.0484  0.6832  1.6806
    1SOL    HW3  155   0.636   0.542   0.211 -0.2596  0.5924  0.6722
    1SOL    MW4  156   0.581   0.474   0.213 -0.0488  0.4085  0.3226
    1SOL     OW  157   0.196   1.023   0.386 -0.1143 -0.2434  0.4478
    1SOL    HW2  158   0.119   0.977   0.417  0.0206 -0.6601  0.1693
    1SOL    HW3  159   0.270   0.972   0.420  0.0367  0.0041  0.4954
    1SOL    MW4  160   0.196   1.010   0.395 -0.0765 -0.2657  0.4174
    1SOL     OW  161   0.519   1.643   0.540 -0.4125  0.0994  0.6980
    1SOL    HW2  162   0.599   1.590   0.538 -0.1554  0.4608  1.1551
    1SOL    HW3  163   0.452   1.588   0.500  0.1235 -0.1149  0.0867
    1SOL    MW4  164   0.521   1.629   0.534 -0.3079  0.1187  0.6777
    1SOL     OW  165   0.302   1.537   0.405 -0.5789  0.2704 -0.0195
    1SOL    HW2  166   0.252   1.457   0.421 -1.2035  0.7580  0.4646
    1SOL    HW3  167   0.325   1.532   0.312  1.1659 -1.4839  0.4676
    1SOL    MW4  168   0.299   1.526   0.395 -0.4311  0.1032  0.1087
    1SOL     OW  169   0.678   2.490   0.194 -0.4441 -0.5214  0.3078
    1SOL    HW2  170   0.731   2.413   0.176  0.0292 -0.2363  0.4794
    1SOL    HW3  171   0.740   2.555   0.228 -0.5936  0.4103 -1.1742
    1SOL    MW4  172   0.693   2.488   0.196 -0.4014 -0.3610  0.1349
    1SOL     OW  173   0.373   2.702   0.244 -0.0208 -0.2603  0.2938
    1SOL    HW2  174   0.297   2.741   0.286 -0.9408 -0.5826 -1.0219
    1SOL    HW3  175   0.443   2.767   0.254 -0.7709  0.5136  0.5558
    1SOL    MW4  176   0.372   2.716   0.251 -0.2412 -0.2010  0.1547
    1SOL     OW  177   4.198   2.436   0.305  0.1647 -0.3329 -0.0109
    1SOL    HW2  178   4.128   2.466   0.362  0.3894 -0.2861  0.2404
    1SOL    HW3  179   4.271   2.494   0.324  0.1498 -0.1393 -0.5524
    1SOL    MW4  180   4.198   2.447   0.315  0.1922 -0.3011 -0.0491
    1SOL     OW  181   0.400   2.280   0.237  0.0817  0.1980 -0.4853
    1SOL    HW2  182   0.307   2.257   0.240 -0.2582  1.4874 -0.4762
    1SOL    HW3  183   0.445   2.202   0.269 -0.9677 -0.5944 -0.8934
    1SOL    MW4  184   0.394   2.267   0.242 -0.1017  0.2632 -0.5379
    1SOL     OW  185   0.598   2.496   0.476 -0.6823 -0.0525 -0.3182
    1SOL    HW2  186   0.635   2.408   0.482 -0.4301  0.1272  0.9743
    1SOL    HW3  187   0.674   2.553   0.460 -0.5385  0.1895  1.1977
    1SOL    MW4  188   0.613   2.492   0.474 -0.6301  0.0031  0.0523
    1SOL     OW  189   4.476   3.023   0.399 -0.1326  0.0242 -0.1753
    1SOL    HW2  190   4.387   3.046   0.376  0.1494  0.1539 -1.1687
    1SOL    HW3  191   4.523   3.106   0.406  0.0820 -0.0762 -0.3847
    1SOL    MW4  192   4.471   3.037   0.397 -0.0668  0.0281 -0.3340
    1SOL     OW  193   0.189   2.834   0.413 -0.0851  0.3911 -0.4750
    1SOL    HW2  194   0.120   2.900   0.405 -0.3058  0.2833  0.4990
    1SOL    HW3  195   0.270   2.885   0.423 -0.2497  0.5114  0.2319
    1SOL    MW4  196   0.191   2.849   0.413 -0.1359  0.3927 -0.2532
    1SOL     OW  197   1.153   0.134   0.120 -0.5282  0.2535 -0.1428
    1SOL    HW2  198   1.207   0.066   0.159  0.2346  1.2824  0.6452
    1SOL    HW3  199   1.182   0.138   0.029 -0.2800 -0.1909 -0.0864
    1SOL    MW4  200   1.164   0.126   0.113 -0.3947  0.3306 -0.0314
    1SOL     OW  201   0.121   3.265   0.464  0.5200  0.1563 -0.1534
    1SOL    HW2  202   0.113   3.360   0.451  0.6265  0.1485 -0.2746
    1SOL    HW3  203   0.214   3.247   0.452  0.6180  0.1478  0.5928
    1SOL    MW4  204   0.132   3.276   0.461  0.5470  0.1543 -0.0710
    1SOL     OW  205   0.372   3.611   0.429 -0.1068 -0.1502 -0.3828
    1SOL    HW2  206   0.383   3.699   0.393 -1.7255  0.6544  1.0121
    1SOL    HW3  207   0.386   3.622   0.523  0.6235 -1.5625 -0.3228
    1SOL    MW4  208   0.375   3.624   0.436 -0.2240 -0.2306 -0.1909
    1SOL     OW  209   1.195   3.549   0.469  0.3912  0.2288  0.3194
    1SOL    HW2  210   1.119   3.537   0.413  0.1774 -0.4223  0.7407
    1SOL    HW3  211   1.233   3.462   0.477  1.2615  0.5805 -0.0012
    1SOL    MW4  212   1.190   3.536   0.463  0.4778  0.1895  0.3327
    1SOL     OW  213   0.576   4.042   0.456  0.2401 -0.0836  0.2638
    1SOL    HW2  214   0.529   4.014   0.535  1.7104 -0.3031  1.0771
    1SOL    HW3  215   0.569   4.137   0.456  1.1538 -0.0026  1.2653
    1SOL    MW4  216   0.569   4.051   0.467  0.5546 -0.1016  0.5032
    1SOL     OW  217   0.928   3.567   0.360 -0.3336  0.2217  0.1886
    1SOL    HW2  218   0.924   3.569   0.265 -1.8813  1.2653  0.2474
    1SOL    HW3  219   0.943   3.658   0.385  0.0675 -0.0458  0.9403
    1SOL    MW4  220   0.929   3.579   0.351 -0.4849  0.3242  0.2955
    1SOL     OW  221   0.777   4.441   0.285  0.2659  0.2478  0.1316
    1SOL    HW2  222   0.862   4.398   0.273 -0.0220  0.2295 -2.0262
    1SOL    HW3  223   0.782   4.520   0.233 -1.5113 -0.4225 -1.1148
    1SOL    MW4  224   0.789   4.445   0.277 -0.0066  0.1569 -0.3175
    1SOL     OW  225   0.681   0.239   0.317 -0.0589 -0.1080  0.1588
    1SOL    HW2  226   0.732   0.167   0.280 -0.3494 -0.0365 -0.3891
    1SOL    HW3  227   0.725   0.261   0.399  0.8074 -0.0212 -0.3273
    1SOL    MW4  228   0.693   0.233   0.323  0.0170 -0.0871  0.0223
    1SOL     OW  229   0.675   0.590   0.524 -0.0667  0.6233  0.0940
    1SOL    HW2  230   0.724   0.641   0.459  0.7400 -0.1489  0.0918
    1SOL    HW3  231   0.588   0.580   0.486  0.2639  0.5790 -0.6573
    1SOL    MW4  232   0.670   0.595   0.511  0.0833  0.5156 -0.0055
    1SOL     OW  233   0.421   0.591   0.406 -0.0575  0.3396 -0.1660
    1SOL    HW2  234   0.340   0.547   0.434  0.8659  0.0122  2.1131
    1SOL    HW3  235   0.448   0.543   0.328 -1.9553  0.3195 -0.8295
    1SOL    MW4  236   0.414   0.579   0.400 -0.1860  0.2937  0.0471
    1SOL     OW  237   1.468   0.395   0.224 -0.0243  0.9001  0.1926
    1SOL    HW2  238   1.528   0.324   0.200  0.1008  1.2457 -0.5629
    1SOL    HW3  239   1.514   0.443   0.293  0.1206  0.5607  0.3329
    1SOL    MW4  240   1.482   0.392   0.230  0.0113  0.9009  0.1115
    1SOL     OW  241   1.865   0.646   0.421  0.0723 -0.2470 -0.0476
    1SOL    HW2  242   1.846   0.740   0.423 -0.4421 -0.3296 -1.0576
    1SOL    HW3  243   1.780   0.604   0.408  0.1983 -0.8956  1.1722
    1SOL    MW4  244   1.851   0.653   0.420  0.0211 -0.3434 -0.0199
    1SOL     OW  245   1.504   1.021   0.463  0.4033 -0.0103  0.6034
    1SOL    HW2  246   1.419   1.016   0.420  0.9996  0.5251 -0.6894
    1SOL    HW3  247   1.488   0.991   0.552 -1.2578  0.7148  0.5658
    1SOL    MW4  248   1.491   1.016   0.469  0.2626  0.1560  0.4279
    1SOL     OW  249   0.803   1.485   0.508  0.3961 -0.7680  0.1809
    1SOL    HW2  250   0.815   1.421   0.439  1.8619 -1.0882  0.7078
    1SOL    HW3  251   0.855   1.561   0.480  0.4029 -0.6220  0.5774
    1SOL    MW4  252   0.811   1.487   0.496  0.5904 -0.7908  0.3028
    1SOL     OW  253   0.869   1.323   0.290  0.0074 -0.1044  0.1192
    1SOL    HW2  254   0.820   1.268   0.229 -1.6605  0.6472  0.7354
    1SOL    HW3  255   0.942   1.269   0.319 -0.4709 -1.2683 -0.8191
    1SOL    MW4  256   0.872   1.309   0.286 -0.2758 -0.1588  0.0767
    1SOL     OW  257   1.801   1.382   0.472  0.1714  0.6632  0.2475
    1SOL    HW2  258   1.842   1.467   0.453  0.1569  0.8623  1.0573
    1SOL    HW3  259   1.874   1.320   0.475  0.2157  0.7015 -0.0655
    1SOL    MW4  260   1.816   1.385   0.470  0.1752  0.6944  0.3130
    1SOL     OW  261   1.122   1.227   0.419 -0.1254 -0.2592 -0.0216
    1SOL    HW2  262   1.153   1.136   0.420  0.7098 -0.0173 -1.4806
    1SOL    HW3  263   1.192   1.276   0.376 -1.6766  0.6397 -1.6113
    1SOL    MW4  264   1.135   1.221   0.413 -0.2198 -0.1088 -0.4238
    1SOL     OW  265   0.962   1.733   0.486 -0.9117 -0.0192 -0.1359
    1SOL    HW2  266   1.050   1.700   0.470 -1.4401 -0.4554 -2.2512
    1SOL    HW3  267   0.947   1.715   0.579  0.4104 -1.9047 -0.2484
    1SOL    MW4  268   0.972   1.726   0.496 -0.8070 -0.3254 -0.4298
    1SOL     OW  269   0.490   2.068   0.423  0.1335  0.3903  0.3157
    1SOL    HW2  270   0.543   1.990   0.433 -0.1444  0.3674  1.7644
    1SOL    HW3  271   0.532   2.134   0.479 -1.0919  0.4962  1.1469
    1SOL    MW4  272   0.502   2.067   0.431 -0.0648  0.4015  0.6165
    1SOL     OW  273   1.051   1.993   0.406  0.1474  0.0938 -0.2135
    1SOL    HW2  274   1.011   1.906   0.409 -0.5781  0.3987 -0.8072
    1SOL    HW3  275   1.073   2.013   0.497 -1.5001  0.1168  0.1975
    1SOL    MW4  276   1.048   1.984   0.418 -0.1657  0.1370 -0.2376
    1SOL     OW  277   0.687   2.236   0.529  0.1132 -0.0452  0.3340
    1SOL    HW2  278   0.769   2.230   0.480 -0.8586 -3.0987 -1.0633
    1SOL    HW3  279   0.707   2.196   0.614 -0.0558 -1.2984 -0.2080
    1SOL    MW4  280   0.701   2.230   0.534 -0.0373 -0.6130  0.0782
    1SOL     OW  281   0.676   1.860   0.492 -0.3955 -0.0300 -0.1438
    1SOL    HW2  282   0.752   1.822   0.448  0.2900  0.9441  0.1761
    1SOL    HW3  283   0.615   1.788   0.501  1.0788 -1.1716  0.8827
    1SOL    MW4  284   0.678   1.846   0.487 -0.1106 -0.0520  0.0339
    1SOL     OW  285   1.084   2.614   0.348  0.1655  0.5653  0.1759
    1SOL    HW2  286   1.068   2.567   0.266 -1.2952  0.0181  0.7546
    1SOL    HW3  287   1.110   2.545   0.410 -0.4508  0.7247  0.6182
    1SOL    MW4  288   1.086   2.599   0.345 -0.1086  0.5143  0.3107
    1SOL     OW  289   0.999   2.428   0.150 -0.3781  0.1418 -0.1941
    1SOL    HW2  290   0.986   2.356   0.212 -0.6235 -0.6307 -1.1438
    1SOL    HW3  291   1.039   2.388   0.074  0.3066  1.1665 -0.3929
    1SOL    MW4  292   1.003   2.414   0.148 -0.3202  0.1752 -0.3457
    1SOL     OW  293   0.797   2.652   0.386  0.1623 -0.4452 -0.0626
    1SOL    HW2  294   0.774   2.744   0.402  0.1786 -0.4912  0.2436
    1SOL    HW3  295   0.893   2.651   0.393  0.1763 -0.4519 -0.2524
    1SOL    MW4  296   0.807   2.664   0.389  0.1664 -0.4520 -0.0472
    1SOL     OW  297   0.796   3.153   0.379 -0.0417  0.1222 -0.0658
    1SOL    HW2  298   0.763   3.158   0.289  1.7942  1.0683 -0.7021
    1SOL    HW3  299   0.758   3.229   0.423  0.6767  0.7899 -0.5930
    1SOL    MW4  300   0.787   3.163   0.373  0.2953  0.3350 -0.2193
    1SOL     OW  301   1.436   3.714   0.403 -0.3025 -0.1370  0.0144
    1SOL    HW2  302   1.497   3.662   0.455 -0.2941 -0.8033 -0.6503
    1SOL    HW3  303   1.360   3.657   0.389 -0.0369 -0.2111 -1.2415
    1SOL    MW4  304   1.434   3.700   0.408 -0.2664 -0.2346 -0.2390
    1SOL     OW  305   1.144   4.036   0.136  0.2878  0.4793 -0.3409
    1SOL    HW2  306   1.230   4.067   0.164  0.5775  0.2629 -0.9985
    1SOL    HW3  307   1.147   4.039   0.041 -0.2545 -0.0172 -0.3739
    1SOL    MW4  308   1.156   4.041   0.127  0.2546  0.3853 -0.4320
    1SOL     OW  309   0.865   4.037   0.463 -0.2339  0.1511  0.6185
    1SOL    HW2  310   0.887   4.032   0.556 -0.1787 -1.0295  0.5499
    1SOL    HW3  311   0.769   4.038   0.462 -0.2383 -0.2617  0.6666
    1SOL    MW4  312   0.855   4.036   0.475 -0.2272 -0.0591  0.6158
    1SOL     OW  313   1.374   4.380   0.286  0.1546 -0.0528 -0.6146
    1SOL    HW2  314   1.405   4.468   0.261  1.0284  0.2296  1.2974
    1SOL    HW3  315   1.296   4.397   0.339 -0.2297 -0.4730 -1.0563
    1SOL    MW4  316   1.368   4.394   0.290  0.2193 -0.0715 -0.4206
    1SOL     OW  317   1.033   0.517   0.435  0.7374 -0.2525  0.1449
    1SOL    HW2  318   0.965   0.451   0.450 -0.3181  0.6015 -0.8316
    1SOL    HW3  319   1.092   0.476   0.371  1.2636 -1.0692  1.1381
    1SOL    MW4  320   1.032   0.503   0.429  0.6675 -0.2476  0.1471
    1SOL     OW  321   1.000   0.035   0.479 -0.2737 -0.4121 -0.5184
    1SOL    HW2  322   1.040  -0.049   0.503  0.0674  0.3086  1.4647
    1SOL    HW3  323   0.957   0.065   0.559 -0.6145  1.1919 -1.2920
    1SOL    MW4  324   0.999   0.028   0.493 -0.2736 -0.1054 -0.3588
    1SOL     OW  325   1.190   0.384   0.256 -0.1962 -0.0848  0.1089
    1SOL    HW2  326   1.168   0.297   0.221 -0.5877  0.1182 -0.1485
    1SOL    HW3  327   1.283   0.395   0.235 -0.6771  0.4869 -1.8410
    1SOL    MW4  328   1.199   0.374   0.248 -0.3115  0.0174 -0.1823
    1SOL     OW  329   1.641   0.496   0.429 -0.0808 -0.5289  0.8602
    1SOL    HW2  330   1.700   0.421   0.414 -0.5471 -0.4088 -1.8285
    1SOL    HW3  331   1.612   0.485   0.520  2.9707 -1.3674  1.8075
    1SOL    MW4  332   1.645   0.484   0.439  0.2604 -0.6236  0.6304
    1SOL     OW  333   1.246   0.176   0.463 -0.0464 -0.5307 -0.5136
    1SOL    HW2  334   1.166   0.123   0.458 -0.7630  0.3406  1.1615
    1SOL    HW3  335   1.225   0.255   0.414 -0.4130 -0.0931  0.3250
    1SOL    MW4  336   1.232   0.179   0.456 -0.1894 -0.3580 -0.1819
    1SOL     OW  337   2.034   0.454   0.296 -0.3799 -0.0443  0.0099
    1SOL    HW2  338   2.095   0.486   0.230 -1.5410  0.1090 -1.0178
    1SOL    HW3  339   1.980   0.530   0.319 -0.5596 -0.3088  0.4834
    1SOL    MW4  340   2.035   0.468   0.290 -0.5567 -0.0589 -0.0633
    1SOL     OW  341   2.221   0.612   0.145 -0.0816 -0.4701 -0.1632
    1SOL    HW2  342   2.239   0.652   0.060  0.2212  1.4020  0.7650
    1SOL    HW3  343   2.241   0.680   0.209 -1.3857 -1.4853  1.3656
    1SOL    MW4  344   2.226   0.626   0.142 -0.2139 -0.3570  0.1609
    1SOL     OW  345   1.767   0.912   0.437  0.7090 -0.5172 -0.3606
    1SOL    HW2  346   1.781   0.910   0.531  2.1376 -1.4128 -0.5771
    1SOL    HW3  347   1.673   0.924   0.427  0.2248 -2.7020  1.1883
    1SOL    MW4  348   1.757   0.913   0.448  0.8336 -0.9237 -0.1848
    1SOL     OW  349   1.529   1.287   0.514 -0.1358  0.6514  0.2735
    1SOL    HW2  350   1.531   1.200   0.475 -0.3764  0.8105 -0.0962
    1SOL    HW3  351   1.616   1.323   0.496 -1.2380  1.8954 -2.8170
    1SOL    MW4  352   1.541   1.281   0.507 -0.3130  0.8366 -0.1830
    1SOL     OW  353   1.325   1.405   0.342  0.1962 -0.7248 -0.7559
    1SOL    HW2  354   1.396   1.380   0.402  0.0761 -0.1567 -0.3803
    1SOL    HW3  355   1.371   1.436   0.264  0.3522 -1.9181 -1.1539
    1SOL    MW4  356   1.341   1.406   0.340  0.2010 -0.8073 -0.7589
    1SOL     OW  357   1.234   1.634   0.468 -0.7743  0.0050  0.4468
    1SOL    HW2  358   1.281   1.640   0.551 -1.0386 -0.9230  0.6738
    1SOL    HW3  359   1.261   1.550   0.431  0.1076  0.8508 -0.8915
    1SOL    MW4  360   1.243   1.624   0.474 -0.6927 -0.0058  0.3001
    1SOL     OW  361   1.090   2.409   0.533  0.0406  0.6355 -0.1547
    1SOL    HW2  362   1.030   2.434   0.604 -0.3169 -2.1042  0.5364
    1SOL    HW3  363   1.173   2.391   0.576  0.5143  1.3831 -0.7459
    1SOL    MW4  364   1.093   2.410   0.548  0.0559  0.3726 -0.1416
    1SOL     OW  365   1.566   2.643   0.256  0.3869 -0.1159 -0.7128
    1SOL    HW2  366   1.538   2.639   0.165  0.9520  0.6912 -0.9323
    1SOL    HW3  367   1.522   2.720   0.291  0.5004 -0.1831 -0.4224
    1SOL    MW4  368   1.557   2.653   0.249  0.4764 -0.0184 -0.7035
    1SOL     OW  369   1.994   2.031   0.376 -0.0009 -0.4524 -0.5969
    1SOL    HW2  370   1.971   2.049   0.468  0.0666 -0.5426 -0.5626
    1SOL    HW3  371   2.071   1.974   0.382  1.3728  1.3426 -0.6993
    1SOL    MW4  372   2.001   2.026   0.389  0.1893 -0.2277 -0.6059
    1SOL     OW  373   1.571   2.072   0.473  0.1295 -0.1634 -0.7466
    1SOL    HW2  374   1.561   2.165   0.453 -1.0386 -0.3963 -1.2596
    1SOL    HW3  375   1.503   2.028   0.422 -0.4875 -1.1255  0.8576
    1SOL    MW4  376   1.561   2.079   0.464 -0.1060 -0.3211 -0.6026
    1SOL     OW  377   0.933   2.242   0.371  0.8691  0.5528  0.2098
    1SOL    HW2  378   0.979   2.159   0.358  1.5525  1.1402 -1.2943
    1SOL    HW3  379   0.990   2.292   0.429  0.6264  0.0931  0.8396
    1SOL    MW4  380   0.947   2.237   0.377  0.9273  0.5696  0.0945
    1SOL     OW  381   0.717   2.899   0.425  0.0171  0.5204 -0.1719
    1SOL    HW2  382   0.701   2.881   0.518  1.4753  0.4338  0.0759
    1SOL    HW3  383   0.753   2.988   0.423  1.0787  0.0930 -0.5307
    1SOL    MW4  384   0.720   2.908   0.437  0.3496  0.4528 -0.1865
    1SOL     OW  385   2.031   2.287   0.293 -0.4369  0.0344  0.5605
    1SOL    HW2  386   2.110   2.312   0.340  1.5489 -1.0326 -2.0897
    1SOL    HW3  387   2.018   2.195   0.312 -1.0425  0.2018  0.9757
    1SOL    MW4  388   2.040   2.278   0.302 -0.2546 -0.0842  0.2657
    1SOL     OW  389   1.748   4.090   0.471 -0.1185  0.5216 -0.5452
    1SOL    HW2  390   1.707   4.175   0.454 -1.1008  0.0876 -0.3727
    1SOL    HW3  391   1.707   4.031   0.408  0.8318  0.2439 -0.9108
    1SOL    MW4  392   1.737   4.094   0.460 -0.1227  0.4282 -0.5707
    1SOL     OW  393   1.287   3.957   0.455 -0.5615 -0.3784 -0.0621
    1SOL    HW2  394   1.348   3.883   0.457 -0.6403 -0.4085  1.6431
    1SOL    HW3  395   1.202   3.917   0.435 -0.3712 -0.5797 -0.4774
    1SOL    MW4  396   1.284   3.942   0.452 -0.5467 -0.4089  0.1081
    1SOL     OW  397   1.831   2.686   0.346 -0.4627  0.1632 -0.1259
    1SOL    HW2  398   1.743   2.675   0.312 -0.6327  1.2949 -0.0856
    1SOL    HW3  399   1.888   2.654   0.277 -0.9043 -0.6179 -0.1316
    1SOL    MW4  400   1.827   2.680   0.333 -0.5432  0.2096 -0.1213
    1SOL     OW  401   1.635   3.915   0.294 -0.8377 -0.5302 -0.1818
    1SOL    HW2  402   1.592   3.838   0.331  0.7191 -1.7736 -0.8993
    1SOL    HW3  403   1.563   3.969   0.261 -2.0724 -0.7672  1.9885
    1SOL    MW4  404   1.620   3.912   0.295 -0.7952 -0.7255  0.0099
    1SOL     OW  405   1.059   3.084   0.487 -0.0607  0.2238 -0.3973
    1SOL    HW2  406   0.984   3.089   0.427  0.4098  0.9066 -0.9320
    1SOL    HW3  407   1.028   3.124   0.567 -0.6301 -0.5101 -0.2430
    1SOL    MW4  408   1.045   3.090   0.489 -0.0737  0.2172 -0.4475
    1SOL     OW  409   1.274   3.269   0.524 -0.5331 -0.1147  0.4324
    1SOL    HW2  410   1.210   3.209   0.485 -0.6020  0.4050 -0.2568
    1SOL    HW3  411   1.358   3.225   0.510 -0.7115 -0.6992  1.1550
    1SOL    MW4  412   1.277   3.255   0.517 -0.5659 -0.1230  0.4368
    1SOL     OW  413   1.018   4.211   0.316  0.6175 -0.3166  0.0722
    1SOL    HW2  414   1.049   4.159   0.242 -0.9581  0.4159 -1.1473
    1SOL    HW3  415   0.957   4.153   0.362 -0.1616 -0.0145 -0.5538
    1SOL    MW4  416   1.014   4.196   0.312  0.3067 -0.1802 -0.1713
    1SOL     OW  417   2.330   4.500   0.469 -0.5070  0.4971  0.2811
    1SOL    HW2  418   2.293   4.421   0.431  2.0645 -0.7235  0.2171
    1SOL    HW3  419   2.375   4.471   0.548  0.3781  1.9104  0.3172
    1SOL    MW4  420   2.331   4.486   0.474 -0.0510  0.5226  0.2774
    1SOL     OW  421   1.973   4.421   0.465 -0.2805  0.0975 -0.3478
    1SOL    HW2  422   1.911   4.348   0.476  0.8877 -0.8098  0.3356
    1SOL    HW3  423   2.053   4.380   0.432  0.5562  0.9891  0.5172
    1SOL    MW4  424   1.975   4.406   0.462 -0.0160  0.0954 -0.1435
    1SOL     OW  425   1.919   0.026   0.490  0.1809 -0.6159 -0.1922
    1SOL    HW2  426   1.876   0.033   0.575  0.7755 -1.1154  0.1542
    1SOL    HW3  427   1.941  -0.067   0.481 -0.6238 -0.7077 -1.2676
    1SOL    MW4  428   1.916   0.015   0.500  0.1529 -0.6939 -0.2884
    1SOL     OW  429   1.621   0.176   0.185 -0.2062 -0.1532  0.3643
    1SOL    HW2  430   1.679   0.175   0.109 -0.2708  1.3985  0.2905
    1SOL    HW3  431   1.678   0.199   0.258 -0.0418 -2.1632  0.8886
    1SOL    MW4  432   1.636   0.179   0.185 -0.1930 -0.2136  0.4237
    1SOL     OW  433   2.203   0.386   0.507 -0.1095  0.3064 -0.0798
    1SOL    HW2  434   2.209   0.291   0.505 -0.9145  0.2493  0.1445
    1SOL    HW3  435   2.150   0.408   0.430 -0.4568  0.5325  0.2246
    1SOL    MW4  436   2.197   0.376   0.497 -0.2613  0.3287 -0.0101
    1SOL     OW  437   2.335   1.383   0.474  0.4022 -0.3756  0.0669
    1SOL    HW2  438   2.277   1.325   0.426  2.2851 -1.2407 -1.2272
    1SOL    HW3  439   2.308   1.471   0.448 -0.9456 -0.7249  0.2493
    1SOL    MW4  440   2.324   1.387   0.464  0.4728 -0.5357 -0.0798
    1SOL     OW  441   2.211   0.990   0.436 -0.1725 -0.2845 -0.1787
    1SOL    HW2  442   2.281   1.053   0.417 -0.2997  0.3047  1.2323
    1SOL    HW3  443   2.251   0.904   0.423  0.7169  0.0557  0.2659
    1SOL    MW4  444   2.226   0.987   0.432 -0.0720 -0.1618  0.0661
    1SOL     OW  445   1.972   1.156   0.473  0.0212  0.7927 -0.1310
    1SOL    HW2  446   1.894   1.102   0.459 -0.4273  1.3746  0.0982
    1SOL    HW3  447   2.045   1.099   0.449 -0.4462  0.0871  0.0995
    1SOL    MW4  448   1.971   1.141   0.468 -0.0998  0.7764 -0.0703
    1SOL     OW  449   2.607   1.383   0.367  0.5552 -0.0544  0.5569
    1SOL    HW2  450   2.625   1.475   0.389  0.3802 -0.2939  1.7383
    1SOL    HW3  451   2.521   1.365   0.405 -0.4530 -0.0740 -1.6315
    1SOL    MW4  452   2.598   1.393   0.375  0.3991 -0.0886  0.4240
    1SOL     OW  453   2.196   1.613   0.441  0.4431  0.1114 -0.2130
    1SOL    HW2  454   2.232   1.694   0.405  1.1206  0.1592  0.5609
    1SOL    HW3  455   2.103   1.630   0.450  0.4816  0.5769 -0.6558
    1SOL    MW4  456   2.189   1.626   0.437  0.5376  0.1792 -0.1693
    1SOL     OW  457   1.754   1.872   0.363  0.4990  0.1248 -0.2122
    1SOL    HW2  458   1.822   1.930   0.329  1.0425 -0.5928 -0.3793
    1SOL    HW3  459   1.681   1.929   0.384  1.1352  0.9019 -0.1029
    1SOL    MW4  460   1.754   1.887   0.361  0.6546  0.1328 -0.2198
    1SOL     OW  461   2.284   2.322   0.413  0.0605 -0.2647  0.0623
    1SOL    HW2  462   2.356   2.379   0.383  0.6099 -0.6370  0.6594
    1SOL    HW3  463   2.265   2.353   0.502  0.1979 -0.8586  0.2996
    1SOL    MW4  464   2.291   2.334   0.421  0.1512 -0.3922  0.1724
    1SOL     OW  465   1.797   3.122   0.474  0.2274  0.4913 -0.3318
    1SOL    HW2  466   1.852   3.044   0.471 -0.5202 -0.0588  0.1639
    1SOL    HW3  467   1.840   3.184   0.415  0.7164 -0.3643 -0.8859
    1SOL    MW4  468   1.810   3.120   0.466  0.1932  0.3057 -0.3395
    1SOL     OW  469   1.431   2.829   0.452 -0.6103 -0.2833  0.0751
    1SOL    HW2  470   1.343   2.834   0.490 -0.1577 -0.5879  1.2068
    1SOL    HW3  471   1.487   2.800   0.525  0.2783 -0.9781 -0.8625
    1SOL    MW4  472   1.427   2.826   0.467 -0.4333 -0.4153  0.1007
    1SOL     OW  473   1.169   2.827   0.524  0.0562  0.3407  0.2174
    1SOL    HW2  474   1.144   2.918   0.506 -1.9919  0.0022  1.2451
    1SOL    HW3  475   1.138   2.778   0.448  0.1557  0.3369  0.1792
    1SOL    MW4  476   1.161   2.832   0.512 -0.2009  0.2959  0.3480
    1SOL     OW  477   1.326   1.913   0.370  0.3636  0.0432 -0.0608
    1SOL    HW2  478   1.236   1.947   0.371  0.3450  0.1357 -2.1443
    1SOL    HW3  479   1.315   1.818   0.375  0.2609  0.1308  1.8360
    1SOL    MW4  480   1.312   1.905   0.371  0.3475  0.0670 -0.0854
    1SOL     OW  481   3.437   2.264   0.460 -0.2716 -0.0333 -0.1839
    1SOL    HW2  482   3.491   2.186   0.476 -0.8923 -0.2424  0.9560
    1SOL    HW3  483   3.377   2.267   0.534 -0.6216  1.2317 -0.5063
    1SOL    MW4  484   3.437   2.254   0.472 -0.3998  0.1061 -0.0760
    1SOL     OW  485   2.019   2.561   0.166  0.4193 -0.1718  0.1123
    1SOL    HW2  486   2.036   2.470   0.189  0.5457  0.3545  2.2664
    1SOL    HW3  487   2.106   2.600   0.158  0.3715 -0.2997 -1.1224
    1SOL    MW4  488   2.033   2.554   0.168  0.4294 -0.1194  0.2336
    1SOL     OW  489   1.553   2.405   0.424 -0.4825 -0.1711 -0.1073
    1SOL    HW2  490   1.544   2.486   0.373 -0.9288 -0.6480 -0.7960
    1SOL    HW3  491   1.646   2.400   0.444 -0.6072  1.0875  0.8926
    1SOL    MW4  492   1.564   2.415   0.420 -0.5579 -0.0682 -0.0662
    1SOL     OW  493   1.492   3.115   0.467  0.4953 -0.5128  0.0469
    1SOL    HW2  494   1.482   3.020   0.463  0.5494 -0.4472 -2.6581
    1SOL    HW3  495   1.586   3.130   0.458  0.5222 -0.2052  0.7884
    1SOL    MW4  496   1.503   3.104   0.465  0.5060 -0.4635 -0.2122
    1SOL     OW  497   2.265   3.324   0.479  0.3596 -0.1408 -0.1134
    1SOL    HW2  498   2.340   3.269   0.456  0.2616 -0.3381  0.0280
    1SOL    HW3  499   2.238   3.292   0.565  0.3476  0.1813  0.0035
    1SOL    MW4  500   2.271   3.312   0.487  0.3450 -0.1247 -0.0793
    1SOL     OW  501   1.924   3.577   0.485 -0.0177 -0.6246  0.0402
    1SOL    HW2  502   1.961   3.509   0.428  0.8624  0.4463 -0.6771
    1SOL    HW3  503   1.942   3.546   0.574  3.1216  0.1072 -0.2737
    1SOL    MW4  504   1.931   3.564   0.489  0.5126 -0.3867 -0.0959
    1SOL     OW  505   1.396   4.104   0.255 -0.0500 -0.9320 -0.0752
    1SOL    HW2  506   1.349   4.061   0.326 -0.4464  0.0723  0.2711
    1SOL    HW3  507   1.396   4.197   0.278  0.5554 -0.7021 -0.9637
    1SOL    MW4  508   1.390   4.110   0.267 -0.0225 -0.7696 -0.1467
    1SOL     OW  509   1.622   4.343   0.479 -0.0260  0.3144  0.2564
    1SOL    HW2  510   1.603   4.335   0.572 -0.8053  0.8375  0.1447
    1SOL    HW3  511   1.537   4.358   0.438 -0.2870 -4.0166 -1.0411
    1SOL    MW4  512   1.609   4.344   0.486 -0.1632 -0.1884  0.0705
    1SOL     OW  513   1.393   0.000   0.291  0.3476 -0.1118  0.0288
    1SOL    HW2  514   1.361   0.061   0.357  0.4984  0.1160 -0.1063
    1SOL    HW3  515   1.473   0.042   0.257  0.7523 -0.6366  0.3200
    1SOL    MW4  516   1.400   0.014   0.295  0.4209 -0.1510  0.0494
    1SOL     OW  517   2.728   0.506   0.338  0.2862 -0.1607 -0.3458
    1SOL    HW2  518   2.817   0.521   0.369  0.6935 -0.6644 -1.2623
    1SOL    HW3  519   2.696   0.432   0.389  0.4944 -0.1620 -0.2188
    1SOL    MW4  520   2.736   0.498   0.348  0.3674 -0.2273 -0.4500
    1SOL     OW  521   2.196   0.094   0.531 -0.3047 -0.1038 -0.2028
    1SOL    HW2  522   2.238   0.012   0.506 -1.6323 -0.2627 -2.0056
    1SOL    HW3  523   2.102   0.077   0.519 -0.5595  1.8618 -1.2038
    1SOL    MW4  524   2.189   0.081   0.526 -0.5136  0.1346 -0.5727
    1SOL     OW  525   2.617   0.932   0.645 -0.1285  0.3502 -0.4788
    1SOL    HW2  526   2.686   0.932   0.580 -0.7102 -0.5294 -1.1074
    1SOL    HW3  527   2.616   0.842   0.679 -0.0046  0.7312  0.5571
    1SOL    MW4  528   2.626   0.920   0.641 -0.1891  0.2844 -0.4251
    1SOL     OW  529   2.360   0.756   0.382  0.5972 -0.4030 -0.0316
    1SOL    HW2  530   2.388   0.697   0.453 -0.4639  0.3381  1.0179
    1SOL    HW3  531   2.442   0.791   0.347  1.1062 -0.0972  1.4258
    1SOL    MW4  532   2.375   0.753   0.387  0.5243 -0.2649  0.2992
    1SOL     OW  533   2.961   0.790   0.325  0.0791  0.3933 -0.0939
    1SOL    HW2  534   2.927   0.876   0.350  0.2159  1.0345 -2.0423
    1SOL    HW3  535   3.042   0.808   0.278  1.4016 -0.9562  1.5791
    1SOL    MW4  536   2.967   0.803   0.322  0.2718  0.2998 -0.1302
    1SOL     OW  537   2.853   0.977   0.495  0.3436  0.3566  0.0165
    1SOL    HW2  538   2.934   0.967   0.545 -0.4793  1.4330  1.6030
    1SOL    HW3  539   2.845   1.071   0.481 -0.3787  0.2128 -0.5664
    1SOL    MW4  540   2.863   0.988   0.500  0.1400  0.4796  0.1489
    1SOL     OW  541   2.825   1.249   0.484  0.2575  0.4270 -0.4670
    1SOL    HW2  542   2.748   1.288   0.443 -0.3189 -0.8804 -0.6468
    1SOL    HW3  543   2.826   1.285   0.573 -0.4868  0.5639 -0.5090
    1SOL    MW4  544   2.815   1.259   0.491  0.0832  0.2726 -0.4962
    1SOL     OW  545   2.784   1.886   0.367  0.2521 -0.7616  0.0814
    1SOL    HW2  546   2.747   1.799   0.383  0.4450 -0.8911 -0.1722
    1SOL    HW3  547   2.877   1.870   0.348  0.3914 -0.4610  0.4792
    1SOL    MW4  548   2.792   1.872   0.367  0.2959 -0.7390  0.1004
    1SOL     OW  549   2.968   0.557   0.469  0.2975 -0.0528 -0.0636
    1SOL    HW2  550   2.963   0.643   0.427  2.2193 -0.0516 -0.3341
    1SOL    HW3  551   3.060   0.532   0.463 -0.2776 -2.2682 -0.2291
    1SOL    MW4  552   2.979   0.565   0.463  0.4749 -0.3449 -0.1211
    1SOL     OW  553   2.244   1.875   0.344 -0.5618 -0.1439  0.0803
    1SOL    HW2  554   2.311   1.926   0.390 -1.0855  0.1772  0.4819
    1SOL    HW3  555   2.282   1.859   0.257  0.0750 -0.0406  0.3340
    1SOL    MW4  556   2.258   1.879   0.339 -0.5467 -0.0879  0.1667
    1SOL     OW  557   1.896   1.648   0.474 -0.0094  0.4716 -0.6488
    1SOL    HW2  558   1.861   1.640   0.563  1.4968 -0.8420 -0.1660
    1SOL    HW3  559   1.856   1.729   0.440 -0.3124  1.1840  1.3467
    1SOL    MW4  560   1.886   1.658   0.481  0.1494  0.3922 -0.3218
    1SOL     OW  561   2.412   2.077   0.482  0.0673 -0.2189 -0.0323
    1SOL    HW2  562   2.365   2.150   0.444 -0.3318 -0.9687 -0.9918
    1SOL    HW3  563   2.504   2.094   0.462 -0.0273  0.0262 -0.2462
    1SOL    MW4  564   2.418   2.089   0.474  0.0021 -0.2854 -0.1871
    1SOL     OW  565   2.690   2.130   0.471  0.0567  0.2706  0.0554
    1SOL    HW2  566   2.725   2.055   0.423  0.7338  0.6458 -0.0285
    1SOL    HW3  567   2.730   2.124   0.558  1.0390  1.2204 -0.3317
    1SOL    MW4  568   2.700   2.119   0.476  0.2759  0.4454 -0.0067
    1SOL     OW  569   2.482   2.800   0.447 -0.0969 -0.4255  0.3309
    1SOL    HW2  570   2.400   2.838   0.413 -0.2563 -0.7288  0.3758
    1SOL    HW3  571   2.476   2.813   0.541 -0.6406 -1.5136  0.4542
    1SOL    MW4  572   2.470   2.807   0.455 -0.1898 -0.6092  0.3530
    1SOL     OW  573   1.849   2.416   0.466  0.0718  0.2377 -0.2782
    1SOL    HW2  574   1.895   2.360   0.405  0.3366  1.1492 -0.9218
    1SOL    HW3  575   1.863   2.505   0.433 -0.8898  0.6349  0.3530
    1SOL    MW4  576   1.857   2.421   0.454 -0.0201  0.4103 -0.2798
    1SOL     OW  577   1.990   2.889   0.482 -0.4954  0.2309 -0.2420
    1SOL    HW2  578   1.997   2.855   0.571  1.7051 -0.8523 -0.7946
    1SOL    HW3  579   1.932   2.828   0.437 -0.1393 -0.2515 -0.0422
    1SOL    MW4  580   1.983   2.877   0.488 -0.1581  0.0243 -0.2886
    1SOL     OW  581   2.341   3.599   0.479 -0.5689  0.6094 -0.1426
    1SOL    HW2  582   2.375   3.602   0.569  0.5104 -0.0568 -0.5199
    1SOL    HW3  583   2.289   3.519   0.476 -1.5930  1.2521  0.2252
    1SOL    MW4  584   2.339   3.589   0.491 -0.5620  0.6063 -0.1439
    1SOL     OW  585   2.095   3.773   0.390  0.1082 -0.1484  0.3377
    1SOL    HW2  586   2.022   3.724   0.429  0.2925  0.0531  0.9305
    1SOL    HW3  587   2.173   3.727   0.419  0.2234 -0.2526 -0.1456
    1SOL    MW4  588   2.096   3.761   0.399  0.1478 -0.1357  0.3521
    1SOL     OW  589   1.628   3.543   0.527  0.4593  0.2353 -0.2865
    1SOL    HW2  590   1.718   3.576   0.524  0.0473  1.2735 -1.6914
    1SOL    HW3  591   1.623   3.481   0.454  0.0229  0.2132 -0.2377
    1SOL    MW4  592   1.639   3.539   0.517  0.3473  0.3695 -0.4654
    1SOL     OW  593   2.010   3.322   0.358  0.1854 -0.4936 -0.1901
    1SOL    HW2  594   2.022   3.296   0.267 -0.2770 -0.2780 -0.3129
    1SOL    HW3  595   2.096   3.308   0.399  0.2822 -0.9862 -0.5583
    1SOL    MW4  596   2.023   3.317   0.352  0.1371 -0.5302 -0.2549
    1SOL     OW  597   2.197   4.263   0.373 -0.5419 -0.0590 -0.2527
    1SOL    HW2  598   2.164   4.182   0.413 -1.1573  0.1819 -0.2606
    1SOL    HW3  599   2.228   4.235   0.286 -1.6172 -0.1302 -0.6230
    1SOL    MW4  600   2.197   4.248   0.367 -0.7651 -0.0367 -0.3026
    1SOL     OW  601   2.042   4.048   0.459  0.2119  0.3038  0.1419
    1SOL    HW2  602   1.948   4.068   0.461  0.1473  0.0351 -0.0832
    1SOL    HW3  603   2.047   3.963   0.415  0.3723 -0.8977  2.4059
    1SOL    MW4  604   2.030   4.040   0.453  0.2246  0.1097  0.4109
    1SOL     OW  605   2.585   4.666   0.359  0.1242 -0.0606  0.4756
    1SOL    HW2  606   2.504   4.640   0.404 -1.2348  0.0575 -1.8089
    1SOL    HW3  607   2.565   4.751   0.320  1.1329 -0.2926 -0.6026
    1SOL    MW4  608   2.572   4.674   0.360  0.0780 -0.0758  0.0319
    1SOL     OW  609   2.603   3.655   0.399 -0.0810 -0.1319 -0.1802
    1SOL    HW2  610   2.514   3.630   0.423 -0.0344  1.0172  1.2267
    1SOL    HW3  611   2.595   3.689   0.310 -1.0453 -0.0453 -0.0625
    1SOL    MW4  612   2.590   3.656   0.390 -0.2017  0.0310  0.0210
    1SOL     OW  613   2.640   4.246   0.549 -0.2489  0.1934 -0.2191
    1SOL    HW2  614   2.563   4.288   0.588 -0.8920 -0.3579 -0.8680
    1SOL    HW3  615   2.643   4.159   0.589  0.1510  0.2919 -0.0422
    1SOL    MW4  616   2.630   4.240   0.559 -0.2809  0.1335 -0.2814
    1SOL     OW  617   2.457   0.543   0.532 -0.2704  0.1607  0.2685
    1SOL    HW2  618   2.381   0.485   0.537  0.5291 -0.7758  2.0294
    1SOL    HW3  619   2.503   0.516   0.452 -0.6706 -0.6513  0.3089
    1SOL    MW4  620   2.453   0.532   0.522 -0.2174 -0.0700  0.5062
    1SOL     OW  621   1.801   0.269   0.381  0.1185  0.1003  0.5644
    1SOL    HW2  622   1.887   0.307   0.363 -0.9228  1.9198 -0.6644
    1SOL    HW3  623   1.821   0.188   0.429  2.5756 -0.3728 -1.1640
    1SOL    MW4  624   1.815   0.263   0.385  0.3054  0.2779  0.1742
    1SOL     OW  625   3.242   0.467   0.465 -0.3618  0.1201  0.3306
    1SOL    HW2  626   3.256   0.391   0.408 -0.0036 -0.0053  0.5835
    1SOL    HW3  627   3.300   0.534   0.429  1.6346 -0.7020  1.9545
    1SOL    MW4  628   3.252   0.466   0.452 -0.0513 -0.0049  0.5782
    1SOL     OW  629   2.492   1.090   0.453 -0.1024 -0.0208  0.2153
    1SOL    HW2  630   2.574   1.114   0.411  0.0914  0.3801  0.8213
    1SOL    HW3  631   2.518   1.032   0.524 -0.4083 -0.4876 -0.0527
    1SOL    MW4  632   2.506   1.086   0.457 -0.1173 -0.0294  0.2599
    1SOL     OW  633   3.284   1.070   0.481 -0.3799 -0.1997 -0.1232
    1SOL    HW2  634   3.230   1.123   0.422  0.5014  2.0339  1.0264
    1SOL    HW3  635   3.222   1.029   0.540 -1.1534 -1.2190 -1.6197
    1SOL    MW4  636   3.269   1.072   0.481 -0.3657 -0.0395 -0.1689
    1SOL     OW  637   3.023   1.613   0.503  0.3788  0.0331 -0.4602
    1SOL    HW2  638   3.083   1.543   0.481  0.6132  0.6086 -1.7619
    1SOL    HW3  639   3.051   1.687   0.448 -1.4001  0.3551 -0.9790
    1SOL    MW4  640   3.035   1.614   0.493  0.1750  0.1515 -0.7004
    1SOL     OW  641   3.082   1.234   0.342 -0.2381  1.0805 -0.4048
    1SOL    HW2  642   3.055   1.226   0.251 -0.8198  0.0348 -0.1502
    1SOL    HW3  643   3.000   1.242   0.391  0.0862  2.2423 -0.0133
    1SOL    MW4  644   3.068   1.234   0.336 -0.2720  1.0958 -0.3195
    1SOL     OW  645   3.059   1.884   0.380 -0.1388 -0.5442 -0.4908
    1SOL    HW2  646   3.107   1.943   0.321  0.2708 -0.1502  0.2156
    1SOL    HW3  647   3.058   1.931   0.464  0.9437 -1.9034  0.3141
    1SOL    MW4  648   3.065   1.898   0.383  0.0582 -0.6716 -0.2914
    1SOL     OW  649   2.629   0.287   0.465 -0.6839 -0.1535  0.2094
    1SOL    HW2  650   2.611   0.270   0.558 -0.9796 -0.2863  0.1287
    1SOL    HW3  651   2.704   0.231   0.445  0.2400  0.8804  0.7102
    1SOL    MW4  652   2.636   0.277   0.474 -0.6008 -0.0346  0.2648
    1SOL     OW  653   3.064   2.060   0.606  0.5161 -0.0871  0.3439
    1SOL    HW2  654   2.972   2.046   0.626  0.3686 -2.2773 -1.5855
    1SOL    HW3  655   3.110   2.032   0.685 -0.3773 -1.0886  0.5253
    1SOL    MW4  656   3.058   2.055   0.619  0.3788 -0.5081  0.1132
    1SOL     OW  657   2.701   2.410   0.440 -0.3441  0.2913  0.3128
    1SOL    HW2  658   2.714   2.315   0.436  0.1097  0.2493  2.3033
    1SOL    HW3  659   2.786   2.446   0.413 -0.1585  0.1201  0.6643
    1SOL    MW4  660   2.714   2.402   0.436 -0.2596  0.2632  0.6218
    1SOL     OW  661   2.694   1.629   0.455 -0.4651  0.4905  0.1477
    1SOL    HW2  662   2.673   1.657   0.544 -1.1292 -1.4251  0.6178
    1SOL    HW3  663   2.783   1.595   0.460 -0.3878  0.6769  0.0227
    1SOL    MW4  664   2.703   1.628   0.467 -0.5426  0.2623  0.1932
    1SOL     OW  665   2.458   2.527   0.355  0.0041  0.1456  0.1918
    1SOL    HW2  666   2.476   2.617   0.381  1.8955  0.2837 -1.4615
    1SOL    HW3  667   2.540   2.480   0.374  0.1708 -0.5146 -2.0296
    1SOL    MW4  668   2.471   2.532   0.361  0.2761  0.0768 -0.3194
    1SOL     OW  669   2.902   3.040   0.449  0.3266  0.2930  0.4750
    1SOL    HW2  670   2.984   3.090   0.448  0.6434 -0.1942  1.3684
    1SOL    HW3  671   2.834   3.107   0.444  0.7596  0.7676  0.7897
    1SOL    MW4  672   2.904   3.056   0.448  0.4253  0.2911  0.6344
    1SOL     OW  673   3.154   3.205   0.473  0.5265 -0.0260  0.3101
    1SOL    HW2  674   3.237   3.158   0.480 -0.5516 -1.9900  0.2056
    1SOL    HW3  675   3.130   3.224   0.564  1.5015  1.3063  0.2978
    1SOL    MW4  676   3.162   3.201   0.486  0.5126 -0.1092  0.2947
    1SOL     OW  677   3.400   3.062   0.457  0.1627  0.3252  0.4376
    1SOL    HW2  678   3.407   2.991   0.393 -2.3652  1.6005 -1.3925
    1SOL    HW3  679   3.490   3.092   0.469  1.0292 -1.7911 -0.3509
    1SOL    MW4  680   3.413   3.056   0.450 -0.0565  0.2143  0.0921
    1SOL     OW  681   2.706   3.234   0.423 -0.1660  0.0967  0.7742
    1SOL    HW2  682   2.711   3.249   0.517  0.2205  0.4770  0.6956
    1SOL    HW3  683   2.613   3.217   0.406  0.0182 -1.7062  1.4663
    1SOL    MW4  684   2.694   3.234   0.433 -0.0906 -0.0911  0.8552
    1SOL     OW  685   2.234   2.931   0.339  0.1703  0.2345 -0.4123
    1SOL    HW2  686   2.234   2.851   0.286 -0.7702 -0.6065  0.8161
    1SOL    HW3  687   2.154   2.925   0.391  0.4701  1.6241  0.2436
    1SOL    MW4  688   2.223   2.920   0.338  0.0861  0.3066 -0.1637
    1SOL     OW  689   3.828   4.140   0.199 -0.1938  0.1981  0.0303
    1SOL    HW2  690   3.878   4.166   0.121 -1.9644  1.2912 -0.7973
    1SOL    HW3  691   3.871   4.062   0.231  1.5985  0.7065 -1.0734
    1SOL    MW4  692   3.840   4.133   0.193 -0.1910  0.4096 -0.2245
    1SOL     OW  693   2.755   3.882   0.490 -0.1762 -0.2861  0.1071
    1SOL    HW2  694   2.836   3.836   0.514 -0.1823  0.2274  1.1501
    1SOL    HW3  695   2.695   3.813   0.464 -0.1124 -0.8642  1.4408
    1SOL    MW4  696   2.758   3.867   0.490 -0.1683 -0.2949  0.4207
    1SOL     OW  697   2.812   3.478   0.363  0.1483  0.1072 -0.0515
    1SOL    HW2  698   2.740   3.536   0.388 -0.1018 -0.3480  0.2988
    1SOL    HW3  699   2.777   3.390   0.378  0.3164 -0.1469 -1.1426
    1SOL    MW4  700   2.798   3.474   0.369  0.1376  0.0138 -0.1493
    1SOL     OW  701   3.635   3.989   0.497  0.3761 -0.5084 -0.4709
    1SOL    HW2  702   3.603   4.051   0.432 -0.2678  0.0195  0.3507
    1SOL    HW3  703   3.606   3.903   0.465 -0.3843 -0.1999 -0.6162
    1SOL    MW4  704   3.627   3.986   0.484  0.1907 -0.3984 -0.3817
    1SOL     OW  705   3.046   4.445   0.381  0.1916 -0.0905  0.2969
    1SOL    HW2  706   3.116   4.397   0.339  0.0026  1.3971 -1.8159
    1SOL    HW3  707   3.090   4.516   0.428  0.1281  0.9992 -1.2441
    1SOL    MW4  708   3.061   4.448   0.382  0.1585  0.2494 -0.1851
    1SOL     OW  709   3.392   4.417   0.555 -0.3519  0.3939 -0.0919
    1SOL    HW2  710   3.466   4.453   0.506  0.3126 -0.5742  0.1775
    1SOL    HW3  711   3.368   4.337   0.507 -0.1741 -0.1628  0.7283
    1SOL    MW4  712   3.399   4.411   0.542 -0.2410  0.1926  0.0519
    1SOL     OW  713   3.208   4.629   0.532  0.1873  0.1801  0.2678
    1SOL    HW2  714   3.275   4.561   0.541 -0.8465 -0.8819 -0.0335
    1SOL    HW3  715   3.210   4.676   0.616  2.8399  1.6080 -0.5273
    1SOL    MW4  716   3.217   4.627   0.544  0.4005  0.2279  0.1232
    1SOL     OW  717   2.938   4.118   0.427 -0.1901  0.3001 -0.4206
    1SOL    HW2  718   3.026   4.084   0.408 -0.4998 -0.0394 -1.3247
    1SOL    HW3  719   2.882   4.040   0.428 -0.2572  0.3641  1.5640
    1SOL    MW4  720   2.942   4.103   0.424 -0.2398  0.2637 -0.2781
    1SOL     OW  721   2.634   0.768   0.275 -0.1973  0.4289  0.2389
    1SOL    HW2  722   2.669   0.679   0.278 -0.3712  0.3999  1.8558
    1SOL    HW3  723   2.711   0.825   0.278 -0.0770  0.3410 -0.9952
    1SOL    MW4  724   2.648   0.764   0.275 -0.2043  0.4134  0.2894
    1SOL     OW  725   3.437   0.656   0.398 -0.3945  0.4029  0.1985
    1SOL    HW2  726   3.510   0.595   0.390 -0.6380  0.3921 -2.3680
    1SOL    HW3  727   3.478   0.738   0.427  0.4478  0.0473  0.0386
    1SOL    MW4  728   3.452   0.659   0.401 -0.3154  0.3545 -0.1612
    1SOL     OW  729   2.881   0.143   0.482 -0.8889 -0.1494 -0.1011
    1SOL    HW2  730   2.860   0.052   0.505  0.0495 -0.7019 -1.3552
    1SOL    HW3  731   2.972   0.155   0.511 -1.1970  0.5710  0.5736
    1SOL    MW4  732   2.890   0.132   0.489 -0.8054 -0.1273 -0.1775
    1SOL     OW  733   3.623   0.435   0.395  0.2150  0.0034  0.2590
    1SOL    HW2  734   3.686   0.482   0.449  1.4884 -0.5865 -0.6815
    1SOL    HW3  735   3.676   0.397   0.324 -0.9672 -1.7552  0.2850
    1SOL    MW4  736   3.638   0.436   0.393  0.2270 -0.3065  0.1383
    1SOL     OW  737   3.233   0.847   0.289  0.4755 -0.0039 -0.3494
    1SOL    HW2  738   3.245   0.887   0.375  1.2754 -1.6469  0.3180
    1SOL    HW3  739   3.288   0.769   0.291 -0.5291 -0.7658 -1.8769
    1SOL    MW4  740   3.242   0.842   0.301  0.4487 -0.3213 -0.4629
    1SOL     OW  741   3.671   1.791   0.501 -0.6795  0.2486 -0.2135
    1SOL    HW2  742   3.714   1.736   0.566 -0.2354  2.1069  1.1039
    1SOL    HW3  743   3.602   1.735   0.464 -0.5086 -1.0343  1.3672
    1SOL    MW4  744   3.668   1.776   0.504 -0.5982  0.3245  0.1688
    1SOL     OW  745   3.000   2.262   0.425 -0.5353 -0.3594 -0.1465
    1SOL    HW2  746   3.007   2.336   0.485  0.9963 -0.9493  0.4278
    1SOL    HW3  747   3.020   2.185   0.479  1.1093 -0.8685 -1.4486
    1SOL    MW4  748   3.004   2.261   0.440 -0.1161 -0.5045 -0.2426
    1SOL     OW  749   3.526   0.917   0.498 -0.0218  0.7180 -0.5497
    1SOL    HW2  750   3.455   0.980   0.503 -0.1262  0.5055  0.6664
    1SOL    HW3  751   3.533   0.881   0.586  0.3148 -0.6605 -1.1242
    1SOL    MW4  752   3.518   0.920   0.510  0.0091  0.5081 -0.4651
    1SOL     OW  753   3.609   2.054   0.580 -0.5487  0.1779 -0.1270
    1SOL    HW2  754   3.622   1.968   0.541  0.7048 -0.3171  1.3357
    1SOL    HW3  755   3.552   2.038   0.655 -0.9128  0.7401 -0.2815
    1SOL    MW4  756   3.603   2.041   0.585 -0.4313  0.1867  0.0457
    1SOL     OW  757   3.221   2.323   0.652  0.2821  0.5424  0.1224
    1SOL    HW2  758   3.167   2.244   0.658 -1.7790  2.0001  1.7711
    1SOL    HW3  759   3.279   2.318   0.727  1.0217 -0.0001 -0.4776
    1SOL    MW4  760   3.221   2.312   0.663  0.1080  0.6630  0.2608
    1SOL     OW  761   3.358   2.638   0.583  0.0814 -0.2752  0.3219
    1SOL    HW2  762   3.437   2.589   0.559  1.6166  1.8457  0.8168
    1SOL    HW3  763   3.307   2.644   0.503  1.6401  0.4503 -0.6329
    1SOL    MW4  764   3.362   2.632   0.570  0.4900  0.1004  0.2612
    1SOL     OW  765   2.439   3.109   0.424  0.0733 -0.5083  0.2053
    1SOL    HW2  766   2.470   3.049   0.492 -0.9763  0.0642  1.2011
    1SOL    HW3  767   2.369   3.061   0.380  1.0876 -1.0745 -0.8187
    1SOL    MW4  768   2.434   3.095   0.428  0.0687 -0.5081  0.2016
    1SOL     OW  769   3.190   2.622   0.374 -0.5139 -0.1687  0.0458
    1SOL    HW2  770   3.097   2.624   0.397 -0.6756 -0.5012 -0.5669
    1SOL    HW3  771   3.201   2.541   0.324 -0.1573  0.4765 -0.9400
    1SOL    MW4  772   3.179   2.612   0.370 -0.4880 -0.1276 -0.1651
    1SOL     OW  773   2.916   2.803   0.773  0.2740  0.1818  0.0493
    1SOL    HW2  774   2.929   2.798   0.678  0.7916  1.3109  0.0604
    1SOL    HW3  775   3.001   2.779   0.809  0.4913  1.1681  0.2054
    1SOL    MW4  776   2.929   2.799   0.765  0.3710  0.4609  0.0714
    1SOL     OW  777   3.286   0.185   0.356  0.4949 -0.0833  0.4957
    1SOL    HW2  778   3.262   0.112   0.413 -0.9390 -0.3239 -0.3623
    1SOL    HW3  779   3.222   0.180   0.284  0.5026  1.8894  0.3288
    1SOL    MW4  780   3.274   0.174   0.354  0.3066  0.1452  0.3605
    1SOL     OW  781   3.196   4.013   0.421  0.5746 -0.2987 -0.2853
    1SOL    HW2  782   3.200   3.921   0.394  2.2729 -0.3610  0.1056
    1SOL    HW3  783   3.189   4.009   0.516  0.0014 -0.0216 -0.3133
    1SOL    MW4  784   3.196   4.000   0.430  0.7229 -0.2704 -0.2374
    1SOL     OW  785   3.539   3.738   0.419 -0.0044  0.0730 -0.4236
    1SOL    HW2  786   3.555   3.645   0.403  0.2958 -0.0097  0.3078
    1SOL    HW3  787   3.444   3.746   0.423 -0.0912  0.1342 -2.3779
    1SOL    MW4  788   3.529   3.727   0.418  0.0241  0.0701 -0.5850
    1SOL     OW  789   3.644   3.176   0.446 -0.5817 -0.4788  0.0604
    1SOL    HW2  790   3.688   3.261   0.439 -0.2321 -0.6800 -0.1623
    1SOL    HW3  791   3.715   3.112   0.440 -0.9079 -0.8024 -0.3052
    1SOL    MW4  792   3.659   3.179   0.444 -0.5786 -0.5481 -0.0172
    1SOL     OW  793   3.126   3.454   0.343 -0.4539  0.6464  0.1966
    1SOL    HW2  794   3.033   3.445   0.323 -0.6896  1.5094  0.8779
    1SOL    HW3  795   3.150   3.371   0.385 -0.6704  0.0329 -0.8783
    1SOL    MW4  796   3.117   3.441   0.346 -0.5138  0.6795  0.1447
    1SOL     OW  797   3.280   4.267   0.330  0.5111  0.6658 -0.1156
    1SOL    HW2  798   3.268   4.176   0.356 -0.4320  0.6766 -0.4919
    1SOL    HW3  799   3.367   4.270   0.290  0.1401 -0.2870 -1.0190
    1SOL    MW4  800   3.290   4.255   0.328  0.3376  0.5412 -0.2844
    1SOL     OW  801   2.319   2.678   0.174 -0.6481 -0.4164  0.1825
    1SOL    HW2  802   2.346   2.609   0.235 -0.7826 -0.6929 -0.0658
    1SOL    HW3  803   2.379   2.670   0.100 -0.4495 -0.0462  0.3047
    1SOL    MW4  804   2.330   2.668   0.172 -0.6397 -0.4041  0.1659
    1SOL     OW  805   4.199   4.585   0.371  0.3267  0.1536  0.2920
    1SOL    HW2  806   4.224   4.558   0.282 -0.5474  1.3104 -0.3229
    1SOL    HW3  807   4.185   4.503   0.418 -0.8188 -0.4810 -1.1155
    1SOL    MW4  808   4.201   4.570   0.365  0.0601  0.2222  0.0252
    1SOL     OW  809   3.736   0.083   0.384  0.8609 -0.5092  0.2367
    1SOL    HW2  810   3.672   0.129   0.439  1.3596 -1.0139  1.2577
    1SOL    HW3  811   3.809   0.065   0.443  1.3297 -1.2376 -0.5574
    1SOL    MW4  812   3.737   0.087   0.399  0.9885 -0.6719  0.2666
    1SOL     OW  813   3.512   0.213   0.490  0.2623 -0.0334 -0.0486
    1SOL    HW2  814   3.435   0.209   0.434  0.6422 -0.3048 -0.5541
    1SOL    HW3  815   3.546   0.302   0.479  0.1141  0.0362  0.0526
    1SOL    MW4  816   3.507   0.224   0.481  0.2928 -0.0601 -0.1020
    1SOL     OW  817   3.840   0.578   0.490 -0.0562 -0.2414  0.4383
    1SOL    HW2  818   3.826   0.570   0.584  0.3317 -0.9654  0.4399
    1SOL    HW3  819   3.899   0.506   0.468  0.1536  0.1465 -0.2975
    1SOL    MW4  820   3.846   0.567   0.499  0.0226 -0.2857  0.3414
    1SOL     OW  821   3.971   0.326   0.402 -0.0624 -0.7355  0.2474
    1SOL    HW2  822   4.062   0.346   0.384  0.0714  0.1129  1.7761
    1SOL    HW3  823   3.928   0.332   0.316  0.7106  2.2104  0.0060
    1SOL    MW4  824   3.977   0.329   0.388  0.0570 -0.2349  0.4172
    1SOL     OW  825   4.204   0.838   0.347 -0.1194  0.1116 -0.1032
    1SOL    HW2  826   4.121   0.847   0.393 -0.9559  1.0853 -1.7554
    1SOL    HW3  827   4.199   0.901   0.275  2.9532  1.7531  1.0413
    1SOL    MW4  828   4.192   0.847   0.344  0.1760  0.4566 -0.1702
    1SOL     OW  829   3.774   1.060   0.487  0.0026  0.3019 -0.2372
    1SOL    HW2  830   3.760   1.150   0.458 -0.1982  0.2949 -0.1635
    1SOL    HW3  831   3.688   1.020   0.482 -0.1707  0.4887  1.0243
    1SOL    MW4  832   3.761   1.067   0.482 -0.0465  0.3258 -0.0611
    1SOL     OW  833   3.874   1.587   0.477  0.2062  0.0743  0.0665
    1SOL    HW2  834   3.956   1.637   0.484  0.9402 -0.5360 -3.1817
    1SOL    HW3  835   3.817   1.642   0.423 -0.9807 -0.1941  1.0315
    1SOL    MW4  836   3.878   1.601   0.471  0.1462 -0.0416 -0.2348
    1SOL     OW  837   3.750   1.348   0.448 -0.3119  0.1380  0.4123
    1SOL    HW2  838   3.808   1.420   0.473  0.8115 -0.5696 -0.1062
    1SOL    HW3  839   3.662   1.387   0.446  0.4569  1.8778 -1.3425
    1SOL    MW4  840   3.746   1.363   0.451 -0.0625  0.2742  0.1124
    1SOL     OW  841   3.229   1.426   0.498  0.0246  0.0355  0.0523
    1SOL    HW2  842   3.237   1.377   0.579  1.7747  1.4289  0.7661
    1SOL    HW3  843   3.200   1.362   0.433  0.7614 -1.5659  1.2880
    1SOL    MW4  844   3.226   1.411   0.500  0.3526  0.0081  0.3095
    1SOL     OW  845   3.533   1.548   0.470 -0.3082 -0.9686  0.3843
    1SOL    HW2  846   3.448   1.509   0.447 -0.2158 -1.2760  0.5574
    1SOL    HW3  847   3.529   1.560   0.565 -0.5023 -0.1507  0.2717
    1SOL    MW4  848   3.522   1.544   0.479 -0.3216 -0.9013  0.3923
    1SOL     OW  849   3.613   2.514   0.518 -0.0319 -0.0087  0.1062
    1SOL    HW2  850   3.565   2.441   0.482  0.3905 -0.5857  0.7019
    1SOL    HW3  851   3.630   2.490   0.609  1.4483  0.1462 -0.1179
    1SOL    MW4  852   3.609   2.501   0.526  0.2193 -0.0644  0.1553
    1SOL     OW  853   3.998   2.568   0.478  0.5644 -0.3854 -0.1869
    1SOL    HW2  854   3.903   2.561   0.468  0.6807 -0.4939 -1.3093
    1SOL    HW3  855   4.015   2.538   0.567 -0.7287  2.4167  1.0340
    1SOL    MW4  856   3.988   2.563   0.488  0.4089 -0.0298 -0.1739
    1SOL     OW  857   2.917   2.594   0.445 -0.4260 -0.1200  0.3059
    1SOL    HW2  858   2.851   2.658   0.469 -0.3866  0.0202  0.0502
    1SOL    HW3  859   2.943   2.553   0.527 -0.6889 -0.0374  0.4292
    1SOL    MW4  860   2.912   2.597   0.459 -0.4554 -0.0908  0.2884
    1SOL     OW  861   2.973   3.690   0.505  0.2072  0.2081  0.0655
    1SOL    HW2  862   3.053   3.708   0.456 -0.4085  1.5436 -0.4615
    1SOL    HW3  863   2.935   3.614   0.460  0.6216  0.2298 -0.3345
    1SOL    MW4  864   2.979   3.682   0.493  0.1807  0.3872 -0.0569
    1SOL     OW  865   3.351   2.828   0.287 -0.3663 -0.0399  0.5918
    1SOL    HW2  866   3.290   2.757   0.306 -1.1405  0.6963  0.8969
    1SOL    HW3  867   3.297   2.896   0.246  0.2948  0.5158  0.6317
    1SOL    MW4  868   3.336   2.828   0.284 -0.3815  0.1307  0.6373
    1SOL     OW  869   4.074   2.869   0.425 -0.1052  0.1991  0.0128
    1SOL    HW2  870   3.992   2.916   0.435 -0.1347 -0.1538  1.4857
    1SOL    HW3  871   4.049   2.777   0.415  0.1449 -0.0184  1.3444
    1SOL    MW4  872   4.060   2.863   0.425 -0.0763  0.1237  0.3828
    1SOL     OW  873   3.638   2.768   0.412  0.1995  0.2367 -0.4142
    1SOL    HW2  874   3.647   2.681   0.449  0.5641 -0.1861 -1.4655
    1SOL    HW3  875   3.561   2.761   0.355  0.8389  0.3020 -1.3017
    1SOL    MW4  876   3.629   2.756   0.409  0.3319  0.1895 -0.6700
    1SOL     OW  877   4.006   3.930   0.292  0.1242  0.5145  0.9469
    1SOL    HW2  878   3.987   3.849   0.340 -0.1666  0.1486  0.2309
    1SOL    HW3  879   4.080   3.907   0.236 -0.1278  0.6677  0.5507
    1SOL    MW4  880   4.014   3.916   0.291  0.0525  0.4864  0.8001
    1SOL     OW  881   3.219   2.377   0.276 -0.1906 -0.2678  0.0354
    1SOL    HW2  882   3.145   2.329   0.313  1.5449 -2.0692  1.2587
    1SOL    HW3  883   3.296   2.335   0.314  1.4487  2.1612 -0.4945
    1SOL    MW4  884   3.219   2.365   0.286  0.2549 -0.1848  0.1269
    1SOL     OW  885   3.253   3.690   0.432 -0.5931  0.4144 -0.2245
    1SOL    HW2  886   3.229   3.606   0.393  1.6034 -0.5896  0.5644
    1SOL    HW3  887   3.271   3.670   0.523 -0.1297  1.7742 -0.0096
    1SOL    MW4  888   3.252   3.676   0.439 -0.2425  0.4611 -0.0920
    1SOL     OW  889   4.230   3.573   0.515 -0.3471  0.2638  0.1744
    1SOL    HW2  890   4.142   3.609   0.500 -0.4479  0.0601  0.2612
    1SOL    HW3  891   4.221   3.480   0.494  0.4736  0.6991 -2.2709
    1SOL    MW4  892   4.217   3.565   0.510 -0.2518  0.2944 -0.1368
    1SOL     OW  893   3.563   4.197   0.307 -0.3969  0.6488 -0.2337
    1SOL    HW2  894   3.643   4.173   0.261 -0.1178 -1.2267  1.1181
    1SOL    HW3  895   3.577   4.287   0.335  1.1244  0.4516 -0.2898
    1SOL    MW4  896   3.575   4.205   0.305 -0.1593  0.3753 -0.0628
    1SOL     OW  897   3.876   4.376   0.522 -0.3749 -0.0220  0.1554
    1SOL    HW2  898   3.880   4.281   0.523 -1.0004 -0.0518  0.4433
    1SOL    HW3  899   3.848   4.400   0.610 -0.0739  0.4362  0.1287
    1SOL    MW4  900   3.873   4.367   0.534 -0.4177  0.0348  0.1899
    1SOL     OW  901   4.420   0.128   0.439  0.0795  0.2288 -0.1764
    1SOL    HW2  902   4.356   0.057   0.427 -0.3687  0.5822  0.1237
    1SOL    HW3  903   4.439   0.127   0.533 -1.9716  2.2650  0.3048
    1SOL    MW4  904   4.414   0.118   0.450 -0.2503  0.5441 -0.0734
    1SOL     OW  905   3.945   0.838   0.466 -0.2665  0.1687 -0.1909
    1SOL    HW2  906   3.881   0.909   0.458 -0.7687 -0.5966 -3.6762
    1SOL    HW3  907   3.896   0.759   0.445  1.2596 -0.7243 -0.4289
    1SOL    MW4  908   3.930   0.837   0.462 -0.1314 -0.0501 -0.6821
    1SOL     OW  909   4.241   1.428   0.323  0.7284 -0.6249 -0.2322
    1SOL    HW2  910   4.272   1.517   0.336  0.9085 -0.8190  0.7328
    1SOL    HW3  911   4.146   1.436   0.315  0.5942 -0.4807  1.2889
    1SOL    MW4  912   4.232   1.441   0.324  0.7343 -0.6315  0.0958
    1SOL     OW  913   4.242   0.364   0.408  0.0237  0.3035  0.3209
    1SOL    HW2  914   4.315   0.302   0.398 -0.8989 -0.6221 -0.8607
    1SOL    HW3  915   4.284   0.449   0.418  1.3053 -0.4091  1.2292
    1SOL    MW4  916   4.257   0.367   0.408  0.0706  0.0874  0.2849
    1SOL     OW  917   4.432   0.941   0.492 -0.2410  0.3498 -0.1260
    1SOL    HW2  918   4.402   1.031   0.500 -1.0158  0.0761  0.1005
    1SOL    HW3  919   4.365   0.897   0.439 -0.5362 -0.3878  0.8384
    1SOL    MW4  920   4.419   0.947   0.486 -0.3819  0.2165  0.0311
    1SOL     OW  921   3.637   4.468   0.398  0.3661  0.0204  0.0452
    1SOL    HW2  922   3.715   4.444   0.448 -1.5193 -0.1468  3.0733
    1SOL    HW3  923   3.662   4.546   0.349  2.5047 -0.2287  0.6948
    1SOL    MW4  924   3.650   4.475   0.398  0.3996 -0.0348  0.5304
    1SOL     OW  925   4.372   1.238   0.482 -0.2113 -0.0327 -0.5042
    1SOL    HW2  926   4.338   1.254   0.570  0.4622  0.6467 -0.3644
    1SOL    HW3  927   4.333   1.308   0.429 -1.0287 -0.7473 -0.8563
    1SOL    MW4  928   4.362   1.250   0.487 -0.2303 -0.0373 -0.5322
    1SOL     OW  929   0.160   1.301   0.456  0.3398 -0.2094 -0.1966
    1SOL    HW2  930   0.067   1.303   0.479  0.2547  1.4859 -0.6378
    1SOL    HW3  931   0.175   1.211   0.428 -1.0883 -0.5941  0.2227
    1SOL    MW4  932   0.150   1.289   0.455  0.1402 -0.0365 -0.1994
    1SOL     OW  933   4.322   2.188   0.366  0.2303  0.5202 -0.0157
    1SOL    HW2  934   4.282   2.266   0.329  0.2264  0.1876 -0.7298
    1SOL    HW3  935   4.366   2.218   0.445 -1.3938  0.9052  0.7793
    1SOL    MW4  936   4.322   2.202   0.372  0.0148  0.5271 -0.0050
    1SOL     OW  937   4.115   2.073   0.548 -0.5595  0.4725  0.1299
    1SOL    HW2  938   4.176   2.102   0.616 -1.1565 -0.2578  0.9976
    1SOL    HW3  939   4.163   2.083   0.466 -0.3432  2.7567  0.5110
    1SOL    MW4  940   4.129   2.078   0.547 -0.6094  0.6776  0.2947
    1SOL     OW  941   0.099   2.237   0.290  0.2700  0.2163 -0.1494
    1SOL    HW2  942   0.004   2.236   0.303  0.2538  0.2019 -0.2673
    1SOL    HW3  943   0.131   2.166   0.346  0.2050  0.1791 -0.1593
    1SOL    MW4  944   0.091   2.227   0.300  0.2593  0.2093 -0.1663
    1SOL     OW  945   4.306   1.950   0.241  0.1469  0.1392  0.1403
    1SOL    HW2  946   4.273   1.952   0.151 -0.0843 -1.0345  0.1918
    1SOL    HW3  947   4.313   2.042   0.266 -3.2562  0.4539  0.1778
    1SOL    MW4  948   4.303   1.962   0.232 -0.3324  0.0259  0.1520
    1SOL     OW  949   4.433   2.577   0.448 -0.0041  0.3310  0.2548
    1SOL    HW2  950   4.511   2.619   0.412  0.0623 -0.1246 -0.1443
    1SOL    HW3  951   4.382   2.648   0.487  1.2819  0.4576  1.7661
    1SOL    MW4  952   4.437   2.592   0.449  0.1740  0.2875  0.4016
    1SOL     OW  953   3.816   2.962   0.482  0.2096 -0.2244 -0.0142
    1SOL    HW2  954   3.755   2.900   0.441  0.5705 -1.1694  0.8408
    1SOL    HW3  955   3.817   2.936   0.574 -1.3025  2.4700  0.7898
    1SOL    MW4  956   3.808   2.950   0.488  0.0577  0.0064  0.2047
    1SOL     OW  957   4.451   2.337   0.569  0.2914  0.2588  0.2956
    1SOL    HW2  958   4.435   2.417   0.520 -0.3747 -0.3107 -0.4419
    1SOL    HW3  959   4.546   2.326   0.568  0.2832  0.1957 -0.9881
    1SOL    MW4  960   4.461   2.346   0.562  0.2022  0.1752  0.0289
    1SOL     OW  961   0.105   3.552   0.451 -0.4060 -0.3620  0.2970
    1SOL    HW2  962   0.044   3.620   0.419  0.5789  0.4774  0.1678
    1SOL    HW3  963   0.191   3.588   0.431  0.1921 -0.5243  2.5493
    1SOL    MW4  964   0.108   3.566   0.444 -0.1971 -0.2725  0.5771
    1SOL     OW  965   4.275   3.927   0.208 -0.2920  0.1442 -0.3889
    1SOL    HW2  966   4.292   4.010   0.252 -0.1561 -0.4448  0.6790
    1SOL    HW3  967   4.329   3.930   0.129  0.4470  0.6720  0.1275
    1SOL    MW4  968   4.284   3.938   0.203 -0.1764  0.1361 -0.1799
    1SOL     OW  969   0.393   3.200   0.447 -0.1479 -0.6338  0.1094
    1SOL    HW2  970   0.389   3.220   0.541  1.0610 -1.0151  0.2482
    1SOL    HW3  971   0.444   3.272   0.409 -1.1599 -0.1496 -0.3660
    1SOL    MW4  972   0.399   3.212   0.454 -0.1220 -0.6201  0.0650
    1SOL     OW  973   3.977   3.666   0.447  0.1279 -0.1247  0.2330
    1SOL    HW2  974   3.915   3.673   0.520  1.2036 -0.4143  1.1982
    1SOL    HW3  975   3.931   3.614   0.381 -0.5144 -0.6592  1.0970
    1SOL    MW4  976   3.963   3.660   0.448  0.1853 -0.2337  0.4743
    1SOL     OW  977   4.207   3.116   0.334  0.1807 -0.2036 -0.4937
    1SOL    HW2  978   4.164   3.034   0.358  0.7022 -0.2098  0.4478
    1SOL    HW3  979   4.197   3.122   0.239  1.0358 -1.8688 -0.7022
    1SOL    MW4  980   4.200   3.106   0.324  0.3624 -0.4239 -0.3969
    1SOL     OW  981   0.115   3.958   0.441 -0.5708 -0.2638  0.2272
    1SOL    HW2  982   0.050   3.889   0.431 -0.9402  0.1160  0.0170
    1SOL    HW3  983   0.093   4.000   0.524 -2.1435  1.5006 -1.0549
    1SOL    MW4  984   0.104   3.954   0.451 -0.8271  0.0188  0.0304
    1SOL     OW  985   4.408   3.748   0.372 -0.0541 -0.3411 -0.1922
    1SOL    HW2  986   4.360   3.805   0.313  0.2496  0.9916  0.8330
    1SOL    HW3  987   4.342   3.689   0.408 -0.1167 -1.7362 -2.4667
    1SOL    MW4  988   4.393   3.748   0.369 -0.0219 -0.3495 -0.3570
    1SOL     OW  989   3.896   4.102   0.510  0.5232 -0.2650  0.2455
    1SOL    HW2  990   3.814   4.054   0.502 -0.0733  0.8046 -0.1907
    1SOL    HW3  991   3.948   4.075   0.434  0.4210 -0.6407  0.3094
    1SOL    MW4  992   3.892   4.092   0.499  0.4311 -0.1736  0.1964
    1SOL     OW  993   4.174   4.352   0.506  0.0244 -0.6508  0.2780
    1SOL    HW2  994   4.210   4.385   0.588 -1.1116  0.4146  0.3633
    1SOL    HW3  995   4.079   4.350   0.520 -0.1711 -0.5973 -0.9407
    1SOL    MW4  996   4.166   4.356   0.519 -0.1507 -0.5035  0.1285
    1SOL     OW  997   0.247   0.093   0.821  0.2244 -0.3944 -0.0211
    1SOL    HW2  998   0.262  -0.001   0.805  0.7901 -0.5311  1.3107
    1SOL    HW3  999   0.153   0.104   0.809 -0.1119 -1.4682  1.4840
    1SOL    MW4 1000   0.237   0.082   0.817  0.2546 -0.5542  0.3532
    1SOL     OW 1001   4.481   0.123   0.702  0.4010 -0.2958 -0.0553
    1SOL    HW2 1002   4.429   0.062   0.755  0.7220 -0.4142  0.1277
    1SOL    HW3 1003   4.464   0.209   0.741 -0.5021 -0.1851 -0.6720
    1SOL    MW4 1004   4.472   0.126   0.714  0.3247 -0.2968 -0.1125
    1SOL     OW 1005   4.474   0.388   0.808 -0.2757  0.2892 -0.1924
    1SOL    HW2 1006   4.479   0.376   0.903 -0.9768  0.5218 -0.1264
    1SOL    HW3 1007   4.561   0.420   0.783  0.8392 -2.3974 -0.0129
    1SOL    MW4 1008   4.486   0.390   0.817 -0.2203 -0.0346 -0.1600
    1SOL     OW 1009   0.235   0.512   0.754  0.3483  0.0392 -0.0796
    1SOL    HW2 1010   0.317   0.482   0.793  0.5683  1.3345  0.4950
    1SOL    HW3 1011   0.223   0.600   0.789 -1.8126 -0.4971  0.6400
    1SOL    MW4 1012   0.244   0.520   0.764  0.0923  0.1392  0.0912
    1SOL     OW 1013   0.235   0.784   0.838 -0.1742  0.2514  0.1920
    1SOL    HW2 1014   0.239   0.771   0.933 -0.1852 -0.6344  0.0766
    1SOL    HW3 1015   0.143   0.805   0.821 -0.7532 -2.1444  0.0879
    1SOL    MW4 1016   0.223   0.785   0.848 -0.2520 -0.1816  0.1631
    1SOL     OW 1017   4.485   0.866   0.759 -0.2142 -0.1564  0.2105
    1SOL    HW2 1018   4.409   0.820   0.793  0.1018  0.5598  1.9070
    1SOL    HW3 1019   4.477   0.858   0.664 -3.2284  1.1850  0.2939
    1SOL    MW4 1020   4.474   0.859   0.751 -0.5703  0.1151  0.4452
    1SOL     OW 1021   0.041   1.135   0.838  0.2444  0.2611  0.5067
    1SOL    HW2 1022   0.036   1.129   0.934 -1.3136  1.6739  0.5487
    1SOL    HW3 1023   0.053   1.045   0.808  0.1549 -0.2587  2.0074
    1SOL    MW4 1024   0.042   1.123   0.847  0.0270  0.3790  0.7102
    1SOL     OW 1025   0.267   1.275   0.724  0.0076  0.2779  0.0336
    1SOL    HW2 1026   0.197   1.236   0.776 -0.5052  1.2410  0.0788
    1SOL    HW3 1027   0.239   1.265   0.633  0.6331 -0.8894 -0.0368
    1SOL    MW4 1028   0.254   1.269   0.719  0.0225  0.2511  0.0303
    1SOL     OW 1029   0.241   1.546   0.826 -0.2879  0.2978 -0.2286
    1SOL    HW2 1030   0.321   1.598   0.824 -0.7450  0.9687 -1.2671
    1SOL    HW3 1031   0.265   1.463   0.785  0.1193  0.1400  0.3214
    1SOL    MW4 1032   0.255   1.542   0.820 -0.2945  0.3654 -0.2931
    1SOL     OW 1033   0.029   1.672   0.719 -0.3398 -0.4108  0.2433
    1SOL    HW2 1034  -0.051   1.629   0.750 -1.0554  0.7480  0.0147
    1SOL    HW3 1035   0.100   1.619   0.756 -1.2018 -0.9477  1.1535
    1SOL    MW4 1036   0.028   1.659   0.728 -0.5479 -0.3288  0.3332
    1SOL     OW 1037   0.001   1.949   0.854 -0.0864  0.0069  0.0411
    1SOL    HW2 1038   0.070   2.010   0.827  0.9046 -0.8978  0.5078
    1SOL    HW3 1039   0.020   1.869   0.806 -0.7992 -0.2608  0.2005
    1SOL    MW4 1040   0.013   1.947   0.844 -0.0497 -0.1478  0.1237
    1SOL     OW 1041   0.240   2.088   0.745  0.0147 -0.2139 -0.2883
    1SOL    HW2 1042   0.255   2.180   0.726 -0.6643 -0.3023 -1.3138
    1SOL    HW3 1043   0.201   2.053   0.665 -0.4381 -1.2164  0.3545
    1SOL    MW4 1044   0.237   2.095   0.732 -0.1346 -0.3574 -0.3389
    1SOL     OW 1045   0.253   2.350   0.663  0.2632 -0.1060 -0.0447
    1SOL    HW2 1046   0.187   2.388   0.721  0.6469 -0.7260  0.8121
    1SOL    HW3 1047   0.335   2.390   0.691  0.0413  2.0040 -2.2678
    1SOL    MW4 1048   0.255   2.361   0.674  0.2845  0.0906 -0.2249
    1SOL     OW 1049   0.076   2.413   0.848  0.1120 -0.9166  0.5673
    1SOL    HW2 1050  -0.013   2.385   0.867  0.5181 -2.0012  0.9408
    1SOL    HW3 1051   0.127   2.384   0.924  0.9861 -1.4053 -0.1892
    1SOL    MW4 1052   0.071   2.405   0.860  0.2810 -1.1241  0.5168
    1SOL     OW 1053   0.019   2.675   0.890  0.3119 -0.4105 -0.2739
    1SOL    HW2 1054   0.040   2.690   0.982  2.6701 -0.0047 -0.8390
    1SOL    HW3 1055   0.037   2.582   0.876 -2.2764 -1.0174  0.2046
    1SOL    MW4 1056   0.025   2.665   0.900  0.2818 -0.4368 -0.2854
    1SOL     OW 1057   0.214   2.789   0.707  0.6381 -0.2954 -0.5696
    1SOL    HW2 1058   0.154   2.730   0.753 -1.8906  1.5721 -1.4127
    1SOL    HW3 1059   0.194   2.778   0.615  2.2602 -0.3212 -0.9449
    1SOL    MW4 1060   0.204   2.780   0.701  0.5185 -0.0525 -0.7304
    1SOL     OW 1061   0.191   3.073   0.826 -0.4429 -0.1022  0.1384
    1SOL    HW2 1062   0.219   3.065   0.918 -1.5800  0.4226  0.5452
    1SOL    HW3 1063   0.188   2.983   0.795 -0.1794 -0.2976  0.6610
    1SOL    MW4 1064   0.194   3.060   0.834 -0.5582 -0.0589  0.2611
    1SOL     OW 1065   4.471   3.226   0.702  0.2960  0.2211 -0.2409
    1SOL    HW2 1066   4.551   3.183   0.734  0.8281  1.3049 -0.0874
    1SOL    HW3 1067   4.494   3.254   0.613 -0.2901 -0.4313 -0.6051
    1SOL    MW4 1068   4.485   3.224   0.694  0.2885  0.2780 -0.2686
    1SOL     OW 1069   4.479   3.428   0.893 -0.0648 -0.4082 -0.4331
    1SOL    HW2 1070   4.408   3.485   0.864 -1.4942 -0.8647  2.0364
    1SOL    HW3 1071   4.467   3.347   0.842 -1.8931 -0.8226  0.6386
    1SOL    MW4 1072   4.468   3.425   0.882 -0.4950 -0.5231  0.0340
    1SOL     OW 1073   0.158   3.617   0.764 -0.1931 -0.4098  0.1034
    1SOL    HW2 1074   0.113   3.547   0.812 -1.0094  0.3506  0.4789
    1SOL    HW3 1075   0.124   3.611   0.675 -1.2901  0.3505  0.4570
    1SOL    MW4 1076   0.147   3.607   0.759 -0.4455 -0.2093  0.1996
    1SOL     OW 1077   0.215   3.890   0.853 -0.3461  0.2029  0.7415
    1SOL    HW2 1078   0.217   3.882   0.948  0.7086 -0.2296  0.6901
    1SOL    HW3 1079   0.210   3.800   0.821 -1.4159  0.3821  0.4027
    1SOL    MW4 1080   0.215   3.877   0.861 -0.3481  0.1695  0.6900
    1SOL     OW 1081   0.034   4.046   0.694  0.3828 -0.0088  0.6926
    1SOL    HW2 1082  -0.047   4.011   0.731 -0.2648 -0.0287 -0.7281
    1SOL    HW3 1083   0.103   4.013   0.752 -0.4917 -1.0847  1.1400
    1SOL    MW4 1084   0.032   4.037   0.706  0.1820 -0.1535  0.5642
    1SOL     OW 1085   0.053   4.295   0.783 -0.3895  0.0968 -0.2695
    1SOL    HW2 1086   0.040   4.282   0.877 -1.4808  0.5858 -0.3554
    1SOL    HW3 1087   0.057   4.206   0.747  1.7521 -0.1433  0.4514
    1SOL    MW4 1088   0.052   4.281   0.790 -0.2509  0.1302 -0.1858
    1SOL     OW 1089   0.260   4.488   0.757 -0.3233 -0.0927  0.4029
    1SOL    HW2 1090   0.191   4.422   0.761 -0.6279  0.2639  1.0901
    1SOL    HW3 1091   0.291   4.485   0.666  0.0584 -1.5803  0.5694
    1SOL    MW4 1092   0.255   4.479   0.745 -0.3132 -0.2418  0.5156
    1SOL     OW 1093   0.684   4.642   0.845  0.3303 -0.4200 -0.0338
    1SOL    HW2 1094   0.690   4.659   0.939 -0.1090 -1.8342  0.2524
    1SOL    HW3 1095   0.624   4.709   0.813 -0.2423 -0.5127  0.8424
    1SOL    MW4 1096   0.677   4.653   0.853  0.1968 -0.6189  0.1196
    1SOL     OW 1097   0.505   0.161   0.735 -0.2175 -0.5994  0.0882
    1SOL    HW2 1098   0.414   0.143   0.761 -0.0291 -0.1942  1.0384
    1SOL    HW3 1099   0.507   0.140   0.641 -1.4402 -0.0164 -0.0800
    1SOL    MW4 1100   0.493   0.156   0.726 -0.3539 -0.4691  0.1914
    1SOL     OW 1101   0.476   0.416   0.858 -0.0160  0.3949 -0.1153
    1SOL    HW2 1102   0.546   0.478   0.840  0.1932  0.1844 -0.0264
    1SOL    HW3 1103   0.494   0.341   0.801  0.6074 -0.2387  0.9065
    1SOL    MW4 1104   0.487   0.414   0.848  0.0938  0.2835  0.0313
    1SOL     OW 1105   0.815   0.350   0.528  0.2377  0.1025 -0.1840
    1SOL    HW2 1106   0.833   0.364   0.621  0.9981  1.5054 -0.5339
    1SOL    HW3 1107   0.769   0.429   0.500 -0.8046 -0.7011 -0.7974
    1SOL    MW4 1108   0.811   0.362   0.536  0.2005  0.1816 -0.3111
    1SOL     OW 1109   0.651   0.643   0.790  0.8318 -0.1372 -0.3472
    1SOL    HW2 1110   0.595   0.721   0.782  0.9273 -0.0964 -0.6196
    1SOL    HW3 1111   0.672   0.620   0.700 -0.4740 -1.4002 -0.3507
    1SOL    MW4 1112   0.646   0.651   0.777  0.6722 -0.2984 -0.3836
    1SOL     OW 1113   0.497   0.873   0.743  0.0665 -0.0060  0.0955
    1SOL    HW2 1114   0.505   0.962   0.778  0.7221 -0.2741  0.6385
    1SOL    HW3 1115   0.412   0.842   0.773 -0.3275  0.5681 -0.4041
    1SOL    MW4 1116   0.487   0.881   0.752  0.1010  0.0345  0.1012
    1SOL     OW 1117   0.522   1.158   0.813 -0.7339  0.0522 -0.0359
    1SOL    HW2 1118   0.577   1.221   0.766 -1.2656  0.4510 -0.1278
    1SOL    HW3 1119   0.432   1.182   0.790 -1.0037  0.2670  1.1950
    1SOL    MW4 1120   0.517   1.170   0.804 -0.8397  0.1332  0.1144
    1SOL     OW 1121   0.739   1.330   0.723  0.2923 -0.2585  0.5318
    1SOL    HW2 1122   0.746   1.389   0.798  0.5379 -0.1747  0.4458
    1SOL    HW3 1123   0.757   1.386   0.647  0.4827 -0.4326  0.4468
    1SOL    MW4 1124   0.742   1.345   0.723  0.3498 -0.2705  0.5093
    1SOL     OW 1125   0.700   1.558   0.905 -0.1082  0.2473  0.1595
    1SOL    HW2 1126   0.697   1.550   1.000 -0.0342 -0.4216  0.1089
    1SOL    HW3 1127   0.638   1.628   0.884  0.2161  0.7079  0.7344
    1SOL    MW4 1128   0.691   1.567   0.914 -0.0557  0.2199  0.2287
    1SOL     OW 1129   0.455   1.706   0.807  0.4297  0.2165  0.2630
    1SOL    HW2 1130   0.454   1.802   0.813  0.2547  0.1533  1.2475
    1SOL    HW3 1131   0.477   1.688   0.715  0.5011  1.1983  0.0853
    1SOL    MW4 1132   0.457   1.716   0.795  0.4160  0.3378  0.3695
    1SOL     OW 1133   0.465   1.976   0.847 -0.1411  0.2016 -0.2266
    1SOL    HW2 1134   0.450   1.958   0.940 -0.1732  1.2508 -0.0153
    1SOL    HW3 1135   0.384   2.018   0.817  0.6554  1.8045 -0.1872
    1SOL    MW4 1136   0.452   1.979   0.856 -0.0402  0.5516 -0.1935
    1SOL     OW 1137   0.695   2.009   0.711 -0.0939 -0.0275 -0.5949
    1SOL    HW2 1138   0.613   1.981   0.750  0.1839  0.1446  0.1207
    1SOL    HW3 1139   0.698   1.965   0.626 -1.2360  0.4949 -0.9035
    1SOL    MW4 1140   0.685   2.000   0.705 -0.2080  0.0641 -0.5412
    1SOL     OW 1141   0.693   2.277   0.832 -0.0437 -0.2033 -0.1024
    1SOL    HW2 1142   0.698   2.283   0.928  0.3761 -0.8067 -0.0850
    1SOL    HW3 1143   0.706   2.184   0.813  0.2891 -0.0242 -0.7678
    1SOL    MW4 1144   0.695   2.266   0.842  0.0556 -0.2589 -0.1879
    1SOL     OW 1145   0.499   2.459   0.733 -0.1798  0.5160  0.5217
    1SOL    HW2 1146   0.547   2.389   0.779 -0.0487  0.1318 -0.1947
    1SOL    HW3 1147   0.542   2.465   0.648 -0.1914  1.4838  0.5865
    1SOL    MW4 1148   0.511   2.450   0.728 -0.1640  0.5932  0.4357
    1SOL     OW 1149   0.437   2.718   0.830  0.1791 -0.4271  0.0853
    1SOL    HW2 1150   0.459   2.626   0.815  0.5333 -0.4181  0.5089
    1SOL    HW3 1151   0.363   2.736   0.773  0.1831 -0.9483 -0.0790
    1SOL    MW4 1152   0.430   2.708   0.821  0.2263 -0.4950  0.1194
    1SOL     OW 1153   0.650   2.871   0.694 -0.4935 -0.4145 -0.3671
    1SOL    HW2 1154   0.722   2.838   0.747 -0.8176 -1.2406 -0.4359
    1SOL    HW3 1155   0.573   2.824   0.726 -1.0245  0.5283 -0.2271
    1SOL    MW4 1156   0.649   2.861   0.705 -0.6063 -0.3991 -0.3577
    1SOL     OW 1157   0.676   3.114   0.803 -0.3107 -0.0439  0.2790
    1SOL    HW2 1158   0.613   3.183   0.782  0.2319 -0.5767 -3.3113
    1SOL    HW3 1159   0.650   3.040   0.749  2.1567 -0.9638  0.2864
    1SOL    MW4 1160   0.664   3.113   0.793  0.0864 -0.2356 -0.1937
    1SOL     OW 1161   0.422   3.221   0.726  0.6610  0.1902  0.1477
    1SOL    HW2 1162   0.413   3.307   0.767 -0.2553  0.0483  0.2422
    1SOL    HW3 1163   0.354   3.168   0.766 -0.1686  0.0103 -1.4581
    1SOL    MW4 1164   0.412   3.226   0.737  0.4307  0.1478 -0.0517
    1SOL     OW 1165   0.393   3.481   0.844  0.4321 -1.0142  0.1087
    1SOL    HW2 1166   0.401   3.467   0.939 -1.5313 -0.7056  0.3311
    1SOL    HW3 1167   0.317   3.538   0.834  1.0048 -0.5245 -1.6205
    1SOL    MW4 1168   0.384   3.487   0.855  0.2486 -0.9089 -0.0901
    1SOL     OW 1169   0.651   3.596   0.750 -0.1300 -0.1761  0.1771
    1SOL    HW2 1170   0.573   3.568   0.799 -1.2049  0.4619 -1.1477
    1SOL    HW3 1171   0.647   3.691   0.752  0.8050 -0.1426  0.3954
    1SOL    MW4 1172   0.640   3.605   0.757 -0.1485 -0.0875  0.0312
    1SOL     OW 1173   0.637   3.865   0.789 -0.3935 -0.0053  0.3756
    1SOL    HW2 1174   0.712   3.924   0.783 -0.2073 -0.3326 -0.7994
    1SOL    HW3 1175   0.561   3.920   0.768 -0.2733 -0.0622 -0.2300
    1SOL    MW4 1176   0.637   3.880   0.785 -0.3531 -0.0560  0.1406
    1SOL     OW 1177   0.421   4.009   0.701 -0.1785 -0.8333  0.1060
    1SOL    HW2 1178   0.430   4.100   0.729  0.7954 -1.2411  1.1757
    1SOL    HW3 1179   0.351   3.975   0.757 -0.4813 -0.7612 -0.2316
    1SOL    MW4 1180   0.413   4.017   0.712 -0.0900 -0.8779  0.2027
    1SOL     OW 1181   0.423   4.289   0.817 -0.4573  0.6288 -0.1948
    1SOL    HW2 1182   0.426   4.290   0.912 -0.4753  0.4678 -0.1913
    1SOL    HW3 1183   0.372   4.365   0.793 -0.1501  0.8694 -0.0865
    1SOL    MW4 1184   0.417   4.299   0.826 -0.4191  0.6399 -0.1801
    1SOL     OW 1185   0.667   4.377   0.704  0.5298  0.3129 -0.2776
    1SOL    HW2 1186   0.588   4.349   0.750  0.4969  1.0643  0.1341
    1SOL    HW3 1187   0.679   4.468   0.731  1.6451  0.1444 -0.1803
    1SOL    MW4 1188   0.658   4.385   0.714  0.6726  0.3901 -0.2105
    1SOL     OW 1189   1.161   4.638   0.831 -0.4545 -0.0016 -0.5034
    1SOL    HW2 1190   1.235   4.690   0.801 -0.2568 -0.5984 -1.0659
    1SOL    HW3 1191   1.084   4.678   0.790 -0.5607  1.1729  0.7998
    1SOL    MW4 1192   1.160   4.650   0.822 -0.4424  0.0744 -0.4057
    1SOL     OW 1193   0.923   0.079   0.732 -0.1135  0.2261  0.0495
    1SOL    HW2 1194   0.929   0.173   0.751 -0.1404  0.0966  0.6890
    1SOL    HW3 1195   0.843   0.050   0.776 -0.3044 -0.0246 -0.4552
    1SOL    MW4 1196   0.913   0.088   0.740 -0.1423  0.1759  0.0673
    1SOL     OW 1197   0.918   0.338   0.824 -0.1733  0.3286  0.1953
    1SOL    HW2 1198   0.912   0.333   0.919  0.9854 -1.7915  0.1913
    1SOL    HW3 1199   1.002   0.382   0.807 -1.2796  2.4972  0.1242
    1SOL    MW4 1200   0.928   0.343   0.834 -0.1664  0.3351  0.1854
    1SOL     OW 1201   1.157   0.479   0.735  0.2350 -0.0343  0.2711
    1SOL    HW2 1202   1.241   0.444   0.764 -0.2356 -1.2706  0.1562
    1SOL    HW3 1203   1.165   0.485   0.640  0.5894  0.9032  0.3557
    1SOL    MW4 1204   1.169   0.475   0.726  0.2197 -0.0737  0.2671
    1SOL     OW 1205   1.142   0.740   0.825 -0.2279 -0.2095 -0.0657
    1SOL    HW2 1206   1.116   0.747   0.917 -0.7917 -2.1631 -0.0479
    1SOL    HW3 1207   1.148   0.646   0.809 -0.1908  0.1053 -2.0547
    1SOL    MW4 1208   1.139   0.728   0.835 -0.2974 -0.4258 -0.3258
    1SOL     OW 1209   0.929   0.915   0.736 -0.2734  0.3605 -0.2367
    1SOL    HW2 1210   1.005   0.873   0.778 -0.0170  0.7331 -0.3268
    1SOL    HW3 1211   0.854   0.865   0.768 -0.0498  0.4277  0.4133
    1SOL    MW4 1212   0.929   0.903   0.746 -0.2101  0.4185 -0.1628
    1SOL     OW 1213   0.924   1.165   0.845  0.3288  0.1743 -0.0501
    1SOL    HW2 1214   0.934   1.082   0.798  1.9517  0.9088 -1.0488
    1SOL    HW3 1215   0.855   1.211   0.797  1.3245  0.5279 -1.1747
    1SOL    MW4 1216   0.916   1.160   0.832  0.6743  0.3178 -0.3302
    1SOL     OW 1217   1.139   1.273   0.710 -0.3349  0.5131 -0.0358
    1SOL    HW2 1218   1.066   1.220   0.744 -0.6826  0.7012 -0.4784
    1SOL    HW3 1219   1.139   1.255   0.616 -0.5074  1.3568 -0.2024
    1SOL    MW4 1220   1.129   1.263   0.702 -0.4034  0.6492 -0.1162
    1SOL     OW 1221   1.124   1.505   0.864  0.1164  0.2148  0.1063
    1SOL    HW2 1222   1.059   1.565   0.827 -0.3309  0.3912  1.1754
    1SOL    HW3 1223   1.115   1.425   0.811  0.1319  0.7810 -0.7689
    1SOL    MW4 1224   1.114   1.502   0.852  0.0595  0.3127  0.1319
    1SOL     OW 1225   0.929   1.681   0.787 -0.1508  0.0347  0.1183
    1SOL    HW2 1226   0.942   1.769   0.822 -1.4637  0.8169 -1.3073
    1SOL    HW3 1227   0.856   1.645   0.837  0.7107 -0.4359  1.0408
    1SOL    MW4 1228   0.921   1.688   0.798 -0.2103  0.0757  0.0519
    1SOL     OW 1229   0.924   1.964   0.849 -0.1727 -0.0155 -0.0416
    1SOL    HW2 1230   0.909   1.965   0.943 -0.9826 -0.6030 -0.1656
    1SOL    HW3 1231   0.837   1.970   0.810  0.1750  0.5484 -0.7585
    1SOL    MW4 1232   0.910   1.965   0.856 -0.2337 -0.0187 -0.1525
    1SOL     OW 1233   1.108   2.097   0.682  0.2440 -0.1830  0.3116
    1SOL    HW2 1234   1.120   2.182   0.724  2.6354 -1.9587  3.4116
    1SOL    HW3 1235   1.040   2.054   0.734 -1.2667 -0.0737 -1.5054
    1SOL    MW4 1236   1.101   2.103   0.694  0.3603 -0.4029  0.4809
    1SOL     OW 1237   1.146   2.342   0.846 -0.4304  0.0240 -0.1133
    1SOL    HW2 1238   1.149   2.329   0.941  0.8111 -0.9011 -0.2560
    1SOL    HW3 1239   1.222   2.398   0.828 -0.4824 -0.0569 -0.5828
    1SOL    MW4 1240   1.157   2.348   0.856 -0.2735 -0.1090 -0.1940
    1SOL     OW 1241   0.928   2.470   0.751  0.3627  0.2531  0.0059
    1SOL    HW2 1242   1.005   2.434   0.797 -0.3763 -0.9428  0.3188
    1SOL    HW3 1243   0.855   2.418   0.784 -0.4742  0.8604 -0.9052
    1SOL    MW4 1244   0.929   2.458   0.762  0.1547  0.1755 -0.0730
    1SOL     OW 1245   0.861   2.732   0.822  0.1324 -0.6193  0.1158
    1SOL    HW2 1246   0.865   2.747   0.916  1.7554  0.5085 -0.1227
    1SOL    HW3 1247   0.879   2.639   0.811 -0.5069 -0.8464  0.9317
    1SOL    MW4 1248   0.864   2.722   0.833  0.2622 -0.5004  0.1919
    1SOL     OW 1249   1.119   2.811   0.787 -0.0970  0.1335  0.0652
    1SOL    HW2 1250   1.027   2.790   0.798 -0.7139  2.5544 -0.0476
    1SOL    HW3 1251   1.131   2.816   0.692  0.3295 -0.9112  0.0638
    1SOL    MW4 1252   1.108   2.809   0.776 -0.1221  0.3152  0.0501
    1SOL     OW 1253   1.054   3.065   0.906  0.2688 -0.3249 -0.0436
    1SOL    HW2 1254   0.998   3.115   0.845  0.0174 -0.3553  0.1632
    1SOL    HW3 1255   1.079   2.987   0.856 -0.8254 -0.8885  0.2657
    1SOL    MW4 1256   1.050   3.062   0.891  0.0913 -0.4032  0.0246
    1SOL     OW 1257   0.923   3.203   0.723  0.4770 -0.1758 -0.4531
    1SOL    HW2 1258   0.907   3.290   0.759  0.3974  0.2324 -1.4607
    1SOL    HW3 1259   0.842   3.155   0.742  0.0939  0.3002 -0.8566
    1SOL    MW4 1260   0.910   3.208   0.730  0.4159 -0.0589 -0.6392
    1SOL     OW 1261   0.870   3.474   0.850 -0.2375  0.3751  0.3398
    1SOL    HW2 1262   0.933   3.524   0.798 -0.7565  1.9281  1.1896
    1SOL    HW3 1263   0.785   3.513   0.829 -0.6627 -0.2513  0.8931
    1SOL    MW4 1264   0.868   3.486   0.840 -0.3621  0.4971  0.5249
    1SOL     OW 1265   1.089   3.580   0.725 -0.4917 -0.0640  0.3721
    1SOL    HW2 1266   1.153   3.529   0.774 -0.3547  0.3471  0.6210
    1SOL    HW3 1267   1.121   3.579   0.635 -0.0475  0.2854  0.5286
    1SOL    MW4 1268   1.101   3.573   0.720 -0.4150  0.0365  0.4256
    1SOL     OW 1269   1.107   3.828   0.837  0.2584 -0.9187  0.0060
    1SOL    HW2 1270   1.122   3.823   0.931 -0.6505  0.3520  0.2363
    1SOL    HW3 1271   1.092   3.738   0.809  2.4963 -1.5552  0.7297
    1SOL    MW4 1272   1.107   3.816   0.845  0.4337 -0.8352  0.1318
    1SOL     OW 1273   0.889   3.984   0.742  0.1149 -0.4558  0.0583
    1SOL    HW2 1274   0.906   4.068   0.785 -0.1583 -0.1338 -0.4583
    1SOL    HW3 1275   0.965   3.930   0.765  1.1407  0.4945 -1.0114
    1SOL    MW4 1276   0.902   3.988   0.750  0.2142 -0.2878 -0.1509
    1SOL     OW 1277   0.866   4.237   0.843  0.8302 -0.0419 -0.1176
    1SOL    HW2 1278   0.943   4.280   0.808 -1.1516  1.9669 -2.1790
    1SOL    HW3 1279   0.793   4.276   0.795 -1.5001 -1.6332  2.0169
    1SOL    MW4 1280   0.866   4.247   0.832  0.2613  0.0134 -0.1079
    1SOL     OW 1281   1.097   4.371   0.750 -0.3514  0.0707 -0.0309
    1SOL    HW2 1282   1.171   4.322   0.787 -0.1687  0.7404  0.4820
    1SOL    HW3 1283   1.120   4.463   0.763 -0.8057  0.2979 -0.7927
    1SOL    MW4 1284   1.110   4.376   0.757 -0.3872  0.1888 -0.0637
    1SOL     OW 1285   1.573   4.632   0.842  0.5528 -0.1605  0.3576
    1SOL    HW2 1286   1.554   4.649   0.934  0.6981  0.8518  0.2123
    1SOL    HW3 1287   1.503   4.678   0.795  1.6465  1.0930 -0.0871
    1SOL    MW4 1288   1.561   4.640   0.848  0.7163  0.1388  0.2797
    1SOL     OW 1289   1.376   0.111   0.732 -0.1820  0.6149  0.1785
    1SOL    HW2 1290   1.396   0.193   0.777  3.6716 -0.4677  0.6716
    1SOL    HW3 1291   1.384   0.132   0.639  0.1663  0.9709  0.2871
    1SOL    MW4 1292   1.380   0.125   0.726  0.3725  0.5191  0.2580
    1SOL     OW 1293   1.385   0.361   0.839 -0.3300 -0.0095  0.4465
    1SOL    HW2 1294   1.379   0.382   0.932 -2.0335  4.1742 -0.4796
    1SOL    HW3 1295   1.461   0.410   0.808  0.3744 -1.5676 -0.3270
    1SOL    MW4 1296   1.394   0.370   0.847 -0.4618  0.3369  0.2223
    1SOL     OW 1297   1.592   0.488   0.731 -0.1590  0.0318  0.6777
    1SOL    HW2 1298   1.618   0.573   0.767  1.0585  0.8445 -1.9653
    1SOL    HW3 1299   1.665   0.430   0.752  0.5465  0.5055 -0.3751
    1SOL    MW4 1300   1.605   0.492   0.738  0.0947  0.2015  0.1901
    1SOL     OW 1301   1.598   0.749   0.813 -0.3439 -0.4281 -0.6765
    1SOL    HW2 1302   1.670   0.801   0.778 -0.0308  0.8954  1.8421
    1SOL    HW3 1303   1.520   0.799   0.792 -0.1867  0.1704  0.1280
    1SOL    MW4 1304   1.597   0.762   0.806 -0.2818 -0.1746 -0.2380
    1SOL     OW 1305   1.361   0.882   0.714 -0.3388  0.4131  0.5552
    1SOL    HW2 1306   1.350   0.963   0.763  0.3552  0.8162  0.0512
    1SOL    HW3 1307   1.292   0.824   0.747 -2.1577  1.8951 -0.5312
    1SOL    MW4 1308   1.351   0.885   0.725 -0.4872  0.6618  0.3454
    1SOL     OW 1309   1.325   1.113   0.861 -0.0817 -0.0533  0.5946
    1SOL    HW2 1310   1.406   1.163   0.848  0.9589 -2.0692 -1.1002
    1SOL    HW3 1311   1.258   1.163   0.813  0.8748 -0.0865 -0.8159
    1SOL    MW4 1312   1.327   1.126   0.853  0.1818 -0.3237  0.1850
    1SOL     OW 1313   1.551   1.278   0.782  0.7280 -0.1324 -0.5885
    1SOL    HW2 1314   1.562   1.367   0.817 -1.0230  0.1879 -0.7833
    1SOL    HW3 1315   1.539   1.291   0.688 -0.4541 -0.4835 -0.4948
    1SOL    MW4 1316   1.551   1.292   0.774  0.3412 -0.1366 -0.6018
    1SOL     OW 1317   1.597   1.547   0.852 -0.2488  0.0460 -0.3864
    1SOL    HW2 1318   1.577   1.578   0.940 -2.6543 -2.3504 -0.0316
    1SOL    HW3 1319   1.522   1.574   0.800  0.6423  0.4574 -1.4879
    1SOL    MW4 1320   1.585   1.555   0.857 -0.4487 -0.2159 -0.4848
    1SOL     OW 1321   1.362   1.621   0.724  0.2842 -0.2124 -0.2560
    1SOL    HW2 1322   1.338   1.713   0.738  0.6204 -0.1636  0.0123
    1SOL    HW3 1323   1.293   1.571   0.769  0.1935 -0.0893 -0.2571
    1SOL    MW4 1324   1.350   1.627   0.732  0.3167 -0.1897 -0.2207
    1SOL     OW 1325   1.297   1.910   0.797  0.0991 -0.3788  0.7145
    1SOL    HW2 1326   1.278   1.919   0.890 -0.5652  0.5783  0.5061
    1SOL    HW3 1327   1.246   1.980   0.756  0.9827 -0.3058 -0.2878
    1SOL    MW4 1328   1.288   1.921   0.804  0.1280 -0.2429  0.5548
    1SOL     OW 1329   1.544   2.036   0.759  0.2213  0.1823  0.5861
    1SOL    HW2 1330   1.459   2.001   0.788 -1.0939  1.2032 -1.8631
    1SOL    HW3 1331   1.539   2.035   0.664  3.1798 -0.1504  0.4121
    1SOL    MW4 1332   1.532   2.032   0.750  0.4380  0.2730  0.2400
    1SOL     OW 1333   1.541   2.295   0.823 -0.1165  0.4714 -0.0106
    1SOL    HW2 1334   1.488   2.333   0.754 -0.4945 -0.1978 -0.0999
    1SOL    HW3 1335   1.556   2.205   0.794 -0.7934  0.0031  1.0590
    1SOL    MW4 1336   1.536   2.288   0.810 -0.2558  0.3214  0.1187
    1SOL     OW 1337   1.361   2.422   0.632  0.1553 -0.2751  0.1680
    1SOL    HW2 1338   1.368   2.509   0.671 -1.6205  0.7817 -1.7427
    1SOL    HW3 1339   1.426   2.422   0.562 -0.6126 -0.0447 -0.5602
    1SOL    MW4 1340   1.370   2.434   0.628 -0.1804 -0.1051 -0.1802
    1SOL     OW 1341   1.329   2.633   0.829 -0.3532 -0.0020  0.1577
    1SOL    HW2 1342   1.334   2.636   0.925  0.2603  1.8049  0.0985
    1SOL    HW3 1343   1.250   2.683   0.809 -0.1515  0.1344 -0.2931
    1SOL    MW4 1344   1.319   2.640   0.839 -0.2457  0.2546  0.0904
    1SOL     OW 1345   1.545   2.770   0.708  0.0028 -0.6468 -0.7008
    1SOL    HW2 1346   1.557   2.855   0.751  1.1950 -1.5289  0.7638
    1SOL    HW3 1347   1.463   2.737   0.744 -0.7068  0.1017 -1.6361
    1SOL    MW4 1348   1.536   2.777   0.719  0.0665 -0.6642 -0.6309
    1SOL     OW 1349   1.537   3.020   0.828 -0.2419  0.1382 -0.2419
    1SOL    HW2 1350   1.549   3.050   0.918  0.4753  1.5890 -0.7931
    1SOL    HW3 1351   1.478   3.084   0.789  0.2666  0.1077 -1.0831
    1SOL    MW4 1352   1.531   3.033   0.834 -0.0801  0.3257 -0.4256
    1SOL     OW 1353   1.328   3.187   0.768 -0.6338 -0.1765  0.2008
    1SOL    HW2 1354   1.252   3.141   0.803 -0.4667 -0.3340  0.3630
    1SOL    HW3 1355   1.302   3.213   0.680 -1.0223  0.1361  0.4050
    1SOL    MW4 1356   1.315   3.184   0.761 -0.6629 -0.1562  0.2491
    1SOL     OW 1357   1.294   3.437   0.849  0.0320 -0.2320 -0.2051
    1SOL    HW2 1358   1.373   3.487   0.829  0.2891 -0.1160  1.0276
    1SOL    HW3 1359   1.312   3.349   0.815  0.9539 -0.3716  0.6147
    1SOL    MW4 1360   1.307   3.432   0.842  0.1874 -0.2351  0.0656
    1SOL     OW 1361   1.538   3.563   0.784  0.1940  0.4099 -0.3433
    1SOL    HW2 1362   1.607   3.524   0.838 -0.6764 -0.2805  0.2880
    1SOL    HW3 1363   1.567   3.550   0.694  0.8913  0.1384 -0.0786
    1SOL    MW4 1364   1.551   3.556   0.779  0.1713  0.2830 -0.2252
    1SOL     OW 1365   1.553   3.839   0.818  0.5933 -0.4770 -0.0418
    1SOL    HW2 1366   1.492   3.877   0.755  2.0892  0.2921 -1.0603
    1SOL    HW3 1367   1.556   3.746   0.796 -0.6612 -0.6221  0.4019
    1SOL    MW4 1368   1.546   3.832   0.807  0.6253 -0.3946 -0.1176
    1SOL     OW 1369   1.313   3.976   0.729 -0.4589  0.0460 -0.0905
    1SOL    HW2 1370   1.242   3.918   0.756 -0.6677  0.8373  1.0516
    1SOL    HW3 1371   1.302   3.984   0.634 -1.2487 -0.6944 -0.0636
    1SOL    MW4 1372   1.303   3.970   0.720 -0.5906  0.0527  0.0637
    1SOL     OW 1373   1.330   4.235   0.847 -0.3679  0.0997 -0.2155
    1SOL    HW2 1374   1.417   4.262   0.817 -0.1616  0.8430  0.9893
    1SOL    HW3 1375   1.318   4.148   0.811  0.7746  0.1001 -0.6242
    1SOL    MW4 1376   1.340   4.227   0.838 -0.1900  0.1979 -0.1104
    1SOL     OW 1377   1.572   4.347   0.762  0.5885 -0.2094 -0.0947
    1SOL    HW2 1378   1.659   4.329   0.799 -0.3020  0.4008  2.4145
    1SOL    HW3 1379   1.557   4.439   0.782 -0.4972 -0.2240 -0.8408
    1SOL    MW4 1380   1.582   4.357   0.769  0.3278 -0.1307  0.1379
    1SOL     OW 1381   2.051   4.664   0.874 -0.1884  0.5423 -0.8853
    1SOL    HW2 1382   2.131   4.707   0.844  0.7398 -0.2837  0.3430
    1SOL    HW3 1383   2.049   4.581   0.828 -0.1779  0.4332 -0.6896
    1SOL    MW4 1384   2.062   4.659   0.864 -0.0644  0.4187 -0.6974
    1SOL     OW 1385   1.819   0.100   0.753  0.5277  0.2799 -0.2906
    1SOL    HW2 1386   1.891   0.077   0.812  2.4659 -0.5525 -2.8977
    1SOL    HW3 1387   1.743   0.054   0.789  1.8194 -0.8063  1.1187
    1SOL    MW4 1388   1.818   0.091   0.766  0.9537  0.0268 -0.4486
    1SOL     OW 1389   1.814   0.363   0.832  0.3406 -0.0128 -0.1345
    1SOL    HW2 1390   1.812   0.272   0.803  0.4302  0.0793 -0.4304
    1SOL    HW3 1391   1.886   0.402   0.782 -0.3999  0.4902 -0.8064
    1SOL    MW4 1392   1.824   0.356   0.821  0.2546  0.0657 -0.2621
    1SOL     OW 1393   1.978   0.497   0.645 -0.0169  0.3263 -0.3487
    1SOL    HW2 1394   2.073   0.484   0.634 -0.2024  0.3302 -2.0436
    1SOL    HW3 1395   1.953   0.554   0.572 -1.3020  0.4647  0.1919
    1SOL    MW4 1396   1.987   0.503   0.634 -0.2109  0.3451 -0.5010
    1SOL     OW 1397   1.997   0.708   0.835 -0.0642  0.0631 -0.2554
    1SOL    HW2 1398   2.066   0.762   0.796  0.0432  0.6910  0.7934
    1SOL    HW3 1399   1.988   0.634   0.775  1.6744 -0.1469 -0.2872
    1SOL    MW4 1400   2.005   0.705   0.822  0.1795  0.1181 -0.1212
    1SOL     OW 1401   1.819   0.877   0.709  0.2635 -0.8640  0.1828
    1SOL    HW2 1402   1.827   0.960   0.757 -0.2940 -0.8991  0.3313
    1SOL    HW3 1403   1.888   0.822   0.746  1.2887 -0.1324 -0.5968
    1SOL    MW4 1404   1.829   0.881   0.720  0.3252 -0.7721  0.0996
    1SOL     OW 1405   1.792   1.128   0.843  0.1617 -0.2322  0.2119
    1SOL    HW2 1406   1.863   1.175   0.799 -0.0912  0.7667  0.8440
    1SOL    HW3 1407   1.713   1.177   0.819 -0.3075 -1.2684 -0.3950
    1SOL    MW4 1408   1.791   1.141   0.834  0.0664 -0.2372  0.2152
    1SOL     OW 1409   2.000   1.274   0.730 -0.2333 -0.4190  0.5588
    1SOL    HW2 1410   2.079   1.229   0.759  0.1465  0.6525  1.2099
    1SOL    HW3 1411   1.986   1.243   0.640  2.2383  1.1086 -0.4157
    1SOL    MW4 1412   2.008   1.264   0.722  0.1428 -0.0761  0.5161
    1SOL     OW 1413   2.044   1.510   0.866  0.0266  0.1947 -0.4081
    1SOL    HW2 1414   2.106   1.572   0.827 -0.5173  1.4796  0.7280
    1SOL    HW3 1415   2.060   1.428   0.820  1.0949  1.0570 -1.6153
    1SOL    MW4 1416   2.054   1.508   0.855  0.0958  0.4780 -0.4174
    1SOL     OW 1417   1.830   1.664   0.745  0.0936  0.2758  0.5580
    1SOL    HW2 1418   1.904   1.620   0.786  0.1956  2.4035  2.8396
    1SOL    HW3 1419   1.754   1.611   0.769  0.5034 -0.0581  1.1350
    1SOL    MW4 1420   1.830   1.651   0.754  0.1611  0.5124  0.9352
    1SOL     OW 1421   1.785   1.918   0.846  0.0812 -0.0675 -0.5233
    1SOL    HW2 1422   1.786   1.831   0.805  1.4548  0.4468 -1.6162
    1SOL    HW3 1423   1.705   1.959   0.811  1.0057  0.2016 -2.4057
    1SOL    MW4 1424   1.774   1.912   0.836  0.3843  0.0360 -0.9158
    1SOL     OW 1425   1.990   2.015   0.659  0.3259 -0.5338  0.4054
    1SOL    HW2 1426   2.014   2.106   0.674  0.0100 -0.1197 -1.4836
    1SOL    HW3 1427   1.913   2.001   0.715 -0.7191  0.8868 -0.6398
    1SOL    MW4 1428   1.983   2.025   0.669  0.1464 -0.2921  0.0182
    1SOL     OW 1429   2.012   2.276   0.789 -0.2613  0.2169  0.0107
    1SOL    HW2 1430   2.020   2.275   0.885 -0.7890  0.5155  0.0618
    1SOL    HW3 1431   1.944   2.341   0.772 -0.6911 -0.3665 -0.5306
    1SOL    MW4 1432   2.004   2.284   0.799 -0.3874  0.1795 -0.0539
    1SOL     OW 1433   1.772   2.441   0.743  0.1264  0.2709 -0.0214
    1SOL    HW2 1434   1.694   2.396   0.776 -1.7650  3.1616 -0.4317
    1SOL    HW3 1435   1.775   2.417   0.650 -1.4090  1.6725 -0.4571
    1SOL    MW4 1436   1.762   2.432   0.735 -0.3256  0.8371 -0.1330
    1SOL     OW 1437   1.766   2.688   0.863 -0.0902  0.3146 -0.3445
    1SOL    HW2 1438   1.770   2.593   0.846 -0.1919  0.0252  1.1827
    1SOL    HW3 1439   1.685   2.716   0.820 -1.1524 -0.6876  0.9483
    1SOL    MW4 1440   1.756   2.679   0.855 -0.2437  0.1442  0.0276
    1SOL     OW 1441   1.997   2.800   0.735 -0.0653  0.5248  0.0902
    1SOL    HW2 1442   2.074   2.747   0.752  0.5245  2.0744  2.5964
    1SOL    HW3 1443   1.925   2.752   0.776 -0.4907 -1.0160 -2.4147
    1SOL    MW4 1444   1.997   2.787   0.743 -0.0437  0.5257  0.0904
    1SOL     OW 1445   2.015   3.038   0.883  0.1016 -0.0004  0.4933
    1SOL    HW2 1446   1.933   3.074   0.848  1.5712  1.7575 -1.3297
    1SOL    HW3 1447   2.027   2.956   0.835  0.3488  0.7048 -0.7031
    1SOL    MW4 1448   2.006   3.032   0.872  0.3281  0.3245  0.0948
    1SOL     OW 1449   1.795   3.170   0.761  0.6400  0.2573  0.4169
    1SOL    HW2 1450   1.709   3.132   0.775  1.2004 -0.7097  1.3385
    1SOL    HW3 1451   1.810   3.160   0.666  0.2317 -0.6538  0.4419
    1SOL    MW4 1452   1.786   3.164   0.750  0.6602  0.0093  0.5418
    1SOL     OW 1453   1.750   3.463   0.923 -0.4315 -0.9630 -0.4883
    1SOL    HW2 1454   1.758   3.462   1.019 -0.8977 -2.2642 -0.4446
    1SOL    HW3 1455   1.775   3.374   0.897 -0.1137 -0.5512 -1.5966
    1SOL    MW4 1456   1.754   3.451   0.932 -0.4511 -1.0805 -0.6288
    1SOL     OW 1457   1.964   3.553   0.753 -0.0477 -0.0520 -0.3935
    1SOL    HW2 1458   1.975   3.647   0.762  0.8766 -0.1885  0.0380
    1SOL    HW3 1459   1.890   3.532   0.810  0.9464  0.1663  1.0209
    1SOL    MW4 1460   1.956   3.562   0.762  0.2054 -0.0410 -0.1500
    1SOL     OW 1461   1.987   3.826   0.796  0.0223 -0.5913  0.1590
    1SOL    HW2 1462   1.993   3.832   0.891  1.8765 -0.3950  0.0602
    1SOL    HW3 1463   1.914   3.883   0.773 -0.5405 -0.7643  1.4788
    1SOL    MW4 1464   1.978   3.835   0.806  0.1928 -0.5879  0.3201
    1SOL     OW 1465   1.779   3.990   0.744 -0.2402  0.1122  0.1532
    1SOL    HW2 1466   1.695   3.959   0.779 -0.0040 -2.7081 -1.6356
    1SOL    HW3 1467   1.757   4.025   0.657  0.3670 -0.2516 -0.1504
    1SOL    MW4 1468   1.765   3.991   0.737 -0.1289 -0.3078 -0.1228
    1SOL     OW 1469   1.825   4.270   0.828 -0.4567 -0.3746  0.1848
    1SOL    HW2 1470   1.830   4.266   0.924 -0.7715 -0.1655  0.2088
    1SOL    HW3 1471   1.813   4.179   0.801  0.4860 -0.5385  0.2957
    1SOL    MW4 1472   1.824   4.258   0.837 -0.3740 -0.3686  0.2026
    1SOL     OW 1473   2.044   4.414   0.726  0.0076  0.4927  0.6239
    1SOL    HW2 1474   1.969   4.366   0.759  0.8996 -1.4258 -0.0206
    1SOL    HW3 1475   2.025   4.428   0.633 -0.3546  1.5906  0.8648
    1SOL    MW4 1476   2.032   4.409   0.718  0.0775  0.3848  0.5706
    1SOL     OW 1477   2.697   0.057   0.759  0.6326 -0.0315  0.4058
    1SOL    HW2 1478   2.694   0.151   0.778 -0.4068 -0.0421  0.3201
    1SOL    HW3 1479   2.624   0.020   0.809  2.2171 -1.0885  1.9964
    1SOL    MW4 1480   2.687   0.065   0.768  0.7045 -0.1723  0.6043
    1SOL     OW 1481   2.470   4.614   0.860  0.0376  0.3353  0.3856
    1SOL    HW2 1482   2.459   4.606   0.955  0.4279  1.3349  0.5186
    1SOL    HW3 1483   2.406   4.680   0.834 -1.3166 -1.2414 -0.3134
    1SOL    MW4 1484   2.460   4.622   0.869 -0.0896  0.2594  0.3110
    1SOL     OW 1485   2.276   0.129   0.784  0.0909  0.1262  0.3561
    1SOL    HW2 1486   2.303   0.220   0.801 -1.1343  0.3018  1.3773
    1SOL    HW3 1487   2.251   0.128   0.692 -0.3189  0.9282  0.4588
    1SOL    MW4 1488   2.277   0.141   0.774 -0.1249  0.2552  0.5044
    1SOL     OW 1489   2.370   0.404   0.834 -0.2389 -0.0703  0.5924
    1SOL    HW2 1490   2.463   0.384   0.841 -0.1526  0.5691  1.3579
    1SOL    HW3 1491   2.367   0.500   0.833 -0.9397 -0.0777  1.4351
    1SOL    MW4 1492   2.382   0.414   0.835 -0.3200  0.0131  0.8047
    1SOL     OW 1493   2.401   0.696   0.842 -0.0214 -0.1918  0.3601
    1SOL    HW2 1494   2.491   0.715   0.817 -0.0078  0.7215  1.0822
    1SOL    HW3 1495   2.399   0.705   0.937 -0.4175 -2.1902  0.5668
    1SOL    MW4 1496   2.412   0.700   0.851 -0.0722 -0.3349  0.4827
    1SOL     OW 1497   2.199   0.884   0.711  0.1687  0.0518  0.2650
    1SOL    HW2 1498   2.273   0.832   0.742 -0.2616 -0.9025 -0.3118
    1SOL    HW3 1499   2.222   0.905   0.620 -0.8433 -1.3075 -0.3154
    1SOL    MW4 1500   2.212   0.880   0.703 -0.0215 -0.2534  0.1122
    1SOL     OW 1501   2.240   1.156   0.820 -0.4458  0.3260 -0.8366
    1SOL    HW2 1502   2.254   1.141   0.913 -0.1401  0.6630 -0.8309
    1SOL    HW3 1503   2.224   1.068   0.784  0.0814  0.1244 -0.5802
    1SOL    MW4 1504   2.240   1.142   0.827 -0.3357  0.3438 -0.8019
    1SOL     OW 1505   2.468   1.315   0.736  0.2358  0.4997  0.4394
    1SOL    HW2 1506   2.409   1.256   0.783  1.4893 -0.3456  1.0088
    1SOL    HW3 1507   2.433   1.318   0.647  0.2105 -1.2407  0.3574
    1SOL    MW4 1508   2.456   1.307   0.730  0.3982  0.1585  0.5037
    1SOL     OW 1509   2.458   1.549   0.870 -0.0398  0.3446  0.0937
    1SOL    HW2 1510   2.524   1.604   0.829 -0.1360  0.0367 -0.4838
    1SOL    HW3 1511   2.459   1.468   0.819 -1.5286  0.6923 -0.5347
    1SOL    MW4 1512   2.467   1.545   0.858 -0.2489  0.3498 -0.0654
    1SOL     OW 1513   2.244   1.662   0.716  0.4091 -0.2164  0.0394
    1SOL    HW2 1514   2.332   1.639   0.747 -0.1451 -2.2576  0.1553
    1SOL    HW3 1515   2.240   1.626   0.627 -0.0827  0.4494 -0.2125
    1SOL    MW4 1516   2.255   1.654   0.708  0.2711 -0.3979  0.0214
    1SOL     OW 1517   2.169   1.884   0.852 -0.3311  0.1198  0.0407
    1SOL    HW2 1518   2.182   1.809   0.794  1.8209  0.3235  0.2227
    1SOL    HW3 1519   2.089   1.925   0.820 -0.5853 -1.2530 -1.1476
    1SOL    MW4 1520   2.160   1.879   0.840 -0.0806 -0.0346 -0.0920
    1SOL     OW 1521   2.394   2.020   0.762  0.6330  0.7285 -0.1992
    1SOL    HW2 1522   2.315   1.969   0.780  2.1759 -1.4015  0.7194
    1SOL    HW3 1523   2.385   2.045   0.670 -0.5864 -0.4352 -0.4280
    1SOL    MW4 1524   2.382   2.016   0.753  0.6757  0.2940 -0.1083
    1SOL     OW 1525   2.430   2.277   0.858 -0.1743  0.4943 -0.0793
    1SOL    HW2 1526   2.503   2.307   0.805 -0.7428  0.1024 -1.0927
    1SOL    HW3 1527   2.422   2.184   0.837  0.3391  0.0630  1.5745
    1SOL    MW4 1528   2.438   2.269   0.848 -0.1814  0.3855  0.0051
    1SOL     OW 1529   2.234   2.408   0.704 -0.1461 -0.2180 -0.5150
    1SOL    HW2 1530   2.292   2.363   0.765 -0.4017 -0.0438 -0.1386
    1SOL    HW3 1531   2.147   2.370   0.721  0.1390 -1.7261 -2.2787
    1SOL    MW4 1532   2.230   2.397   0.714 -0.1421 -0.3939 -0.6981
    1SOL     OW 1533   2.267   2.665   0.790 -0.3732  0.1108  0.2895
    1SOL    HW2 1534   2.265   2.654   0.885  0.0272 -2.1494  0.0585
    1SOL    HW3 1535   2.254   2.577   0.755  2.5839  0.4200 -1.7297
    1SOL    MW4 1536   2.265   2.652   0.798  0.0696 -0.1466 -0.0074
    1SOL     OW 1537   2.475   2.850   0.721  0.1850 -0.4783 -0.0163
    1SOL    HW2 1538   2.547   2.796   0.752  0.8886 -0.7055 -2.0257
    1SOL    HW3 1539   2.397   2.796   0.733  0.5260 -0.8045  0.7395
    1SOL    MW4 1540   2.474   2.836   0.727  0.3226 -0.5517 -0.1816
    1SOL     OW 1541   2.451   3.092   0.850  0.3902 -0.0525 -0.0042
    1SOL    HW2 1542   2.462   3.097   0.945 -0.0029 -0.0344  0.0413
    1SOL    HW3 1543   2.463   3.000   0.829 -0.3826 -0.1955  0.1720
    1SOL    MW4 1544   2.454   3.081   0.860  0.2363 -0.0689  0.0250
    1SOL     OW 1545   2.229   3.226   0.728 -0.6829  0.1049 -0.2282
    1SOL    HW2 1546   2.159   3.169   0.761  0.2450 -1.1384 -0.3596
    1SOL    HW3 1547   2.307   3.195   0.774 -0.1706  1.3259 -0.2632
    1SOL    MW4 1548   2.230   3.214   0.739 -0.4928  0.1018 -0.2501
    1SOL     OW 1549   2.215   3.488   0.850  0.2448  0.0942 -0.6210
    1SOL    HW2 1550   2.210   3.395   0.826 -0.7364 -0.2662  0.9126
    1SOL    HW3 1551   2.135   3.526   0.814  0.4429  0.2540 -0.8897
    1SOL    MW4 1552   2.203   3.481   0.842  0.1416  0.0675 -0.4541
    1SOL     OW 1553   2.447   3.618   0.728  0.3852 -0.6971 -0.3359
    1SOL    HW2 1554   2.527   3.577   0.761  0.1548 -0.7159  0.2036
    1SOL    HW3 1555   2.379   3.590   0.789  0.1091 -0.0489 -0.3441
    1SOL    MW4 1556   2.449   3.609   0.741  0.3185 -0.6142 -0.2658
    1SOL     OW 1557   2.411   3.884   0.817 -0.5440 -0.4388  0.0623
    1SOL    HW2 1558   2.330   3.917   0.778 -0.6682 -0.7958  0.0187
    1SOL    HW3 1559   2.419   3.795   0.785 -0.5450 -0.6692  0.6945
    1SOL    MW4 1560   2.401   3.877   0.808 -0.5603 -0.5164  0.1398
    1SOL     OW 1561   2.181   3.997   0.697 -0.1938  0.0367  0.0978
    1SOL    HW2 1562   2.116   3.936   0.731 -0.1041  0.0413  0.2756
    1SOL    HW3 1563   2.145   4.026   0.613  0.0324 -0.6925 -0.2538
    1SOL    MW4 1564   2.168   3.993   0.690 -0.1526 -0.0589  0.0749
    1SOL     OW 1565   2.236   4.253   0.834 -0.7858  0.2000 -0.2978
    1SOL    HW2 1566   2.224   4.166   0.797 -0.8600  0.9032 -1.9930
    1SOL    HW3 1567   2.168   4.306   0.791  0.7433  1.5964 -1.0462
    1SOL    MW4 1568   2.225   4.249   0.823 -0.5937  0.4768 -0.6202
    1SOL     OW 1569   2.447   4.391   0.713 -0.1588  0.0865  0.0682
    1SOL    HW2 1570   2.451   4.476   0.758  0.1129 -0.0879  0.3713
    1SOL    HW3 1571   2.368   4.349   0.748 -1.2232  0.8846 -1.2751
    1SOL    MW4 1572   2.437   4.397   0.723 -0.2635  0.1683 -0.0690
    1SOL     OW 1573   2.923   4.621   0.853  0.2535 -0.1019  0.1789
    1SOL    HW2 1574   2.931   4.533   0.815 -0.3859 -0.5207  1.0081
    1SOL    HW3 1575   2.838   4.652   0.823  0.1296 -0.0830  0.5531
    1SOL    MW4 1576   2.913   4.614   0.844  0.1526 -0.1545  0.3376
    1SOL     OW 1577   2.778   4.571   0.524 -0.4819 -0.1181 -0.3143
    1SOL    HW2 1578   2.744   4.605   0.607 -1.7339 -1.1201 -0.3991
    1SOL    HW3 1579   2.722   4.611   0.457 -0.1532 -0.1392 -0.5993
    1SOL    MW4 1580   2.766   4.581   0.526 -0.6037 -0.2532 -0.3631
    1SOL     OW 1581   2.633   0.316   0.828  0.0749  0.1459  0.2384
    1SOL    HW2 1582   2.637   0.320   0.923  0.6314 -2.8336  0.3970
    1SOL    HW3 1583   2.696   0.382   0.798  0.7595  0.2886  1.9633
    1SOL    MW4 1584   2.642   0.325   0.836  0.2387 -0.2284  0.4870
    1SOL     OW 1585   2.849   0.474   0.727 -0.2627  0.5217 -0.0253
    1SOL    HW2 1586   2.932   0.441   0.761 -1.1848 -0.5724  1.2210
    1SOL    HW3 1587   2.868   0.501   0.637  1.3765  0.0802  0.1810
    1SOL    MW4 1588   2.862   0.474   0.720 -0.1683  0.3191  0.1664
    1SOL     OW 1589   3.030   0.711   0.796 -0.4623 -0.0217  0.0640
    1SOL    HW2 1590   2.965   0.750   0.854 -0.1821  0.6880 -0.0889
    1SOL    HW3 1591   2.996   0.624   0.776 -0.4009 -0.3933  1.5484
    1SOL    MW4 1592   3.017   0.705   0.801 -0.4172  0.0229  0.2397
    1SOL     OW 1593   2.658   0.685   0.732 -0.0393 -0.1705  0.3124
    1SOL    HW2 1594   2.735   0.632   0.753  0.2086 -0.0946 -0.3694
    1SOL    HW3 1595   2.611   0.635   0.665  0.8641  1.0266 -1.2729
    1SOL    MW4 1596   2.662   0.672   0.726  0.1123 -0.0026  0.0132
    1SOL     OW 1597   2.666   1.165   0.826  0.3734 -0.2957 -0.0456
    1SOL    HW2 1598   2.644   1.080   0.788 -0.8147 -0.0108 -0.0278
    1SOL    HW3 1599   2.593   1.222   0.799  1.6175  0.9383 -0.8449
    1SOL    MW4 1600   2.653   1.161   0.817  0.3812 -0.0952 -0.1487
    1SOL     OW 1601   2.871   1.337   0.749  0.1448  0.4105 -0.0565
    1SOL    HW2 1602   2.955   1.299   0.774  0.4741  0.5947 -0.8776
    1SOL    HW3 1603   2.807   1.270   0.772  0.3868  0.7531  1.6986
    1SOL    MW4 1604   2.873   1.323   0.755  0.2201  0.4801  0.0666
    1SOL     OW 1605   2.877   1.596   0.860 -0.0273 -0.1697 -0.4432
    1SOL    HW2 1606   2.960   1.637   0.839  0.1037 -0.0960  0.2052
    1SOL    HW3 1607   2.885   1.506   0.828  0.7692 -0.5249  0.7617
    1SOL    MW4 1608   2.889   1.589   0.853  0.0951 -0.2067 -0.1987
    1SOL     OW 1609   2.660   1.666   0.722  0.5121 -0.2327 -0.2246
    1SOL    HW2 1610   2.630   1.753   0.747  0.0063 -0.6848  0.7554
    1SOL    HW3 1611   2.734   1.648   0.780  0.5561 -0.5026 -0.3600
    1SOL    MW4 1612   2.666   1.675   0.733  0.4513 -0.3278 -0.1132
    1SOL     OW 1613   2.615   1.904   0.879  0.1504  0.4154  0.2491
    1SOL    HW2 1614   2.610   1.926   0.972  0.3440 -0.0996  0.3842
    1SOL    HW3 1615   2.533   1.936   0.842  0.1881  0.8620  0.5455
    1SOL    MW4 1616   2.604   1.912   0.886  0.1810  0.4064  0.3060
    1SOL     OW 1617   2.797   2.073   0.715  0.1753  0.4210 -0.3886
    1SOL    HW2 1618   2.810   2.147   0.775  1.3002  0.1860 -0.3169
    1SOL    HW3 1619   2.742   2.012   0.763 -0.4209  1.0335 -0.2886
    1SOL    MW4 1620   2.792   2.075   0.729  0.2451  0.4706 -0.3660
    1SOL     OW 1621   2.838   2.334   0.829 -0.1655  0.2400 -1.0585
    1SOL    HW2 1622   2.833   2.322   0.924 -0.5613 -1.6477 -1.3124
    1SOL    HW3 1623   2.762   2.389   0.809 -0.1676  0.5275 -0.3177
    1SOL    MW4 1624   2.827   2.340   0.839 -0.2182  0.0286 -0.9943
    1SOL     OW 1625   2.607   2.430   0.706  0.2584  0.1252  0.1099
    1SOL    HW2 1626   2.636   2.419   0.615 -1.5840  1.2388 -0.6525
    1SOL    HW3 1627   2.609   2.525   0.720  0.9101 -0.0720  1.3736
    1SOL    MW4 1628   2.611   2.441   0.696  0.1011  0.2460  0.1761
    1SOL     OW 1629   2.671   2.676   0.801 -0.1117  0.2207 -0.0802
    1SOL    HW2 1630   2.661   2.682   0.896  0.2294  0.4014 -0.0571
    1SOL    HW3 1631   2.755   2.717   0.783 -0.3902  0.6102 -0.5085
    1SOL    MW4 1632   2.681   2.682   0.811 -0.1035  0.2959 -0.1337
    1SOL     OW 1633   2.758   2.817   0.517 -0.1677 -0.2238  0.4157
    1SOL    HW2 1634   2.671   2.810   0.478  0.1188  0.3930 -0.3525
    1SOL    HW3 1635   2.790   2.903   0.489  0.2084  0.0665  1.6928
    1SOL    MW4 1636   2.751   2.828   0.508 -0.0801 -0.1042  0.4829
    1SOL     OW 1637   2.892   3.092   0.849  0.0949  0.1058 -0.0874
    1SOL    HW2 1638   2.824   3.126   0.792 -0.3277  0.4901  0.6398
    1SOL    HW3 1639   2.899   2.999   0.826 -0.3385  0.1722 -0.4894
    1SOL    MW4 1640   2.884   3.084   0.838 -0.0181  0.1652 -0.0445
    1SOL     OW 1641   2.683   3.207   0.721 -0.3209 -0.1778  0.4956
    1SOL    HW2 1642   2.669   3.296   0.753 -0.0184 -0.3612  1.1478
    1SOL    HW3 1643   2.610   3.157   0.758 -1.7963  0.2491 -1.7412
    1SOL    MW4 1644   2.671   3.212   0.730 -0.4754 -0.1454  0.2865
    1SOL     OW 1645   2.676   3.480   0.827 -0.2836 -0.0385  0.1351
    1SOL    HW2 1646   2.691   3.461   0.920  1.2216 -2.2717 -0.5119
    1SOL    HW3 1647   2.741   3.547   0.805  0.7776 -1.0250  0.2163
    1SOL    MW4 1648   2.687   3.486   0.836  0.0548 -0.4632  0.0604
    1SOL     OW 1649   2.873   3.679   0.760  0.1253 -0.0175 -0.3018
    1SOL    HW2 1650   2.885   3.766   0.798  1.0968 -0.3736  0.2143
    1SOL    HW3 1651   2.912   3.686   0.673  1.3834 -0.3000  0.2292
    1SOL    MW4 1652   2.879   3.691   0.753  0.4194 -0.1018 -0.1636
    1SOL     OW 1653   2.905   3.944   0.848 -0.2778  0.6554 -0.5518
    1SOL    HW2 1654   2.923   3.942   0.942 -0.1228  0.8193 -0.5787
    1SOL    HW3 1655   2.822   3.991   0.841 -2.1245 -2.4147 -0.2060
    1SOL    MW4 1656   2.896   3.950   0.860 -0.5009  0.2720 -0.5098
    1SOL     OW 1657   2.644   4.027   0.713  0.2228  0.1810  0.3422
    1SOL    HW2 1658   2.564   3.985   0.744 -0.7570  0.7368 -1.3606
    1SOL    HW3 1659   2.677   3.967   0.646 -0.0691  1.0944 -0.6375
    1SOL    MW4 1660   2.638   4.013   0.708  0.0548  0.3748 -0.0117
    1SOL     OW 1661   2.705   4.329   0.873 -0.3260  0.1333 -0.6021
    1SOL    HW2 1662   2.694   4.308   0.966  0.0059 -0.5738 -0.7222
    1SOL    HW3 1663   2.622   4.303   0.832 -0.3313  0.0990 -0.5693
    1SOL    MW4 1664   2.693   4.323   0.880 -0.2830  0.0353 -0.6136
    1SOL     OW 1665   2.926   4.338   0.712  0.8201 -0.3854  0.5988
    1SOL    HW2 1666   2.995   4.301   0.766  0.0370  0.2898  2.0959
    1SOL    HW3 1667   2.852   4.350   0.772 -0.0673  0.3645 -0.6215
    1SOL    MW4 1668   2.925   4.335   0.727  0.5999 -0.1969  0.6353
    1SOL     OW 1669   3.391   0.010   0.863  0.3575  0.2712  1.0007
    1SOL    HW2 1670   3.391   0.030   0.957 -0.4845  0.1235  1.0311
    1SOL    HW3 1671   3.308   0.044   0.830  0.9474  0.9377  0.1705
    1SOL    MW4 1672   3.380   0.017   0.871  0.3242  0.3396  0.8952
    1SOL     OW 1673   3.149   0.109   0.766 -0.3905 -0.3367  0.7362
    1SOL    HW2 1674   3.118   0.191   0.805 -1.8719 -0.0662 -0.9343
    1SOL    HW3 1675   3.082   0.044   0.790  0.6361 -1.0261  1.8242
    1SOL    MW4 1676   3.136   0.111   0.774 -0.4506 -0.3920  0.6593
    1SOL     OW 1677   3.084   0.368   0.812 -0.0366  0.4338 -0.3856
    1SOL    HW2 1678   3.073   0.384   0.905 -0.3344  0.6290 -0.4532
    1SOL    HW3 1679   3.166   0.413   0.789  0.4506 -0.2786 -0.0589
    1SOL    MW4 1680   3.093   0.376   0.821 -0.0117  0.3656 -0.3514
    1SOL     OW 1681   3.311   0.484   0.718 -0.3768  0.3473 -0.2198
    1SOL    HW2 1682   3.397   0.442   0.725 -1.6546 -2.2193  1.0530
    1SOL    HW3 1683   3.288   0.479   0.625  0.5043  0.2768 -0.4314
    1SOL    MW4 1684   3.319   0.478   0.707 -0.4292 -0.0007 -0.0799
    1SOL     OW 1685   3.298   0.701   0.884 -0.0072  0.6069  0.0891
    1SOL    HW2 1686   3.205   0.721   0.874 -0.4724 -0.3453  2.2074
    1SOL    HW3 1687   3.310   0.618   0.838 -0.4683  0.1503  0.7791
    1SOL    MW4 1688   3.287   0.693   0.876 -0.1297  0.4210  0.4596
    1SOL     OW 1689   3.098   0.962   0.661 -0.3106 -0.1745 -0.3962
    1SOL    HW2 1690   3.102   1.029   0.729 -0.6522 -0.3532 -0.1956
    1SOL    HW3 1691   3.103   0.879   0.709  0.2237 -0.2889 -0.6500
    1SOL    MW4 1692   3.099   0.960   0.676 -0.2851 -0.2131 -0.4032
    1SOL     OW 1693   3.091   1.174   0.846 -0.0106  0.2152  0.5952
    1SOL    HW2 1694   3.085   1.187   0.941 -1.2446 -1.0211  0.7036
    1SOL    HW3 1695   3.170   1.222   0.820  0.3867  0.4922  2.2544
    1SOL    MW4 1696   3.100   1.182   0.855 -0.1214  0.0887  0.8284
    1SOL     OW 1697   3.314   1.284   0.718  0.0691 -0.3736  0.1948
    1SOL    HW2 1698   3.391   1.232   0.740  1.5543  1.6216 -0.1185
    1SOL    HW3 1699   3.330   1.368   0.761 -1.1148  0.6498 -1.3255
    1SOL    MW4 1700   3.326   1.288   0.727  0.1090  0.0247 -0.0471
    1SOL     OW 1701   3.336   1.530   0.846  0.4061  0.3408  0.6022
    1SOL    HW2 1702   3.329   1.529   0.942 -0.2178  0.7153  0.5609
    1SOL    HW3 1703   3.427   1.555   0.830  0.8711 -0.9974  1.1035
    1SOL    MW4 1704   3.347   1.533   0.857  0.3853  0.2136  0.6629
    1SOL     OW 1705   3.106   1.697   0.746 -0.3346  0.0262  0.3377
    1SOL    HW2 1706   3.172   1.635   0.777 -1.3936 -0.1412  2.3008
    1SOL    HW3 1707   3.076   1.659   0.662  0.2024 -1.2558  0.7154
    1SOL    MW4 1708   3.110   1.684   0.739 -0.4036 -0.1649  0.6465
    1SOL     OW 1709   3.179   1.946   0.845 -0.0009  0.3970  0.8300
    1SOL    HW2 1710   3.176   1.945   0.940  0.3723 -0.5729  0.8389
    1SOL    HW3 1711   3.156   1.856   0.819  1.2749  0.2754  0.0531
    1SOL    MW4 1712   3.175   1.934   0.854  0.2167  0.2532  0.7287
    1SOL     OW 1713   3.444   2.030   0.801  0.3838  0.2398  0.5155
    1SOL    HW2 1714   3.428   2.122   0.822 -0.4076  0.0192  0.8912
    1SOL    HW3 1715   3.357   1.989   0.804  0.4729 -0.1650 -1.4331
    1SOL    MW4 1716   3.430   2.037   0.804  0.2911  0.1571  0.3080
    1SOL     OW 1717   3.411   2.319   0.852 -0.2420 -0.0806 -0.0713
    1SOL    HW2 1718   3.375   2.331   0.939  0.3421 -0.3938  0.2126
    1SOL    HW3 1719   3.486   2.379   0.849 -0.4819  0.2027 -0.4853
    1SOL    MW4 1720   3.416   2.329   0.863 -0.1967 -0.0846 -0.0885
    1SOL     OW 1721   3.010   2.479   0.671 -0.5658 -0.2800 -0.4543
    1SOL    HW2 1722   3.094   2.433   0.675 -0.5355 -0.2882 -1.1475
    1SOL    HW3 1723   2.960   2.443   0.744  0.8534  1.3787  1.4091
    1SOL    MW4 1724   3.015   2.468   0.681 -0.3746 -0.0620 -0.2998
    1SOL     OW 1725   3.163   2.663   0.797 -0.4299  0.4031 -0.4344
    1SOL    HW2 1726   3.107   2.591   0.767 -0.1069 -0.1815  0.3516
    1SOL    HW3 1727   3.236   2.664   0.736 -0.4834  0.1230 -0.5024
    1SOL    MW4 1728   3.165   2.654   0.785 -0.3943  0.2887 -0.3396
    1SOL     OW 1729   3.401   2.874   0.701  0.1252 -0.1502 -0.1011
    1SOL    HW2 1730   3.402   2.944   0.635 -1.3439 -0.6822 -0.7052
    1SOL    HW3 1731   3.378   2.795   0.652 -1.1740 -0.5148  1.0738
    1SOL    MW4 1732   3.398   2.873   0.686 -0.2398 -0.2682 -0.0258
    1SOL     OW 1733   3.353   3.136   0.849 -0.3834  0.0458  0.2058
    1SOL    HW2 1734   3.391   3.135   0.936  0.8208 -1.4434 -0.3196
    1SOL    HW3 1735   3.351   3.044   0.822 -2.4394  0.2931 -0.6221
    1SOL    MW4 1736   3.358   3.124   0.857 -0.4957 -0.1183  0.0272
    1SOL     OW 1737   3.103   3.257   0.766  0.2175  0.1450  0.5930
    1SOL    HW2 1738   3.182   3.213   0.797  0.1060 -1.4521 -1.3362
    1SOL    HW3 1739   3.031   3.204   0.799  0.0371 -0.2100 -0.3641
    1SOL    MW4 1740   3.104   3.244   0.775  0.1788 -0.1128  0.2121
    1SOL     OW 1741   3.093   3.523   0.849  0.3362 -0.0724  0.4235
    1SOL    HW2 1742   3.085   3.433   0.816 -0.2527  0.6450 -1.4670
    1SOL    HW3 1743   3.009   3.564   0.827  1.7916  1.8663 -1.7177
    1SOL    MW4 1744   3.081   3.516   0.842  0.4506  0.2780 -0.1084
    1SOL     OW 1745   3.318   3.635   0.698 -0.4600 -0.3176 -0.3609
    1SOL    HW2 1746   3.317   3.716   0.749  3.4363 -1.7433  2.2160
    1SOL    HW3 1747   3.237   3.590   0.723 -1.3150  1.5407  0.2917
    1SOL    MW4 1748   3.307   3.639   0.708 -0.0587 -0.2604  0.0652
    1SOL     OW 1749   3.333   3.874   0.861 -0.2933  0.9499  0.2742
    1SOL    HW2 1750   3.347   3.881   0.956 -0.3922 -1.5728  0.5189
    1SOL    HW3 1751   3.412   3.910   0.822  0.6686  0.1109  1.3905
    1SOL    MW4 1752   3.345   3.879   0.869 -0.1795  0.5064  0.4537
    1SOL     OW 1753   3.151   4.008   0.708 -0.1485 -0.4127 -0.0330
    1SOL    HW2 1754   3.194   3.956   0.776  0.8131 -0.0866 -0.3778
    1SOL    HW3 1755   3.058   4.003   0.729 -0.1103 -2.5805 -0.2835
    1SOL    MW4 1756   3.145   4.000   0.720 -0.0165 -0.6561 -0.1115
    1SOL     OW 1757   3.152   4.243   0.871 -0.6206 -0.6333 -0.4883
    1SOL    HW2 1758   3.231   4.296   0.866 -1.3005  0.5235  0.6619
    1SOL    HW3 1759   3.171   4.166   0.817  1.4553 -0.6091  0.1636
    1SOL    MW4 1760   3.165   4.240   0.864 -0.4363 -0.4773 -0.2506
    1SOL     OW 1761   3.376   4.398   0.834 -0.6525  0.3198  0.1821
    1SOL    HW2 1762   3.374   4.485   0.874  2.0276  0.6447 -0.3671
    1SOL    HW3 1763   3.374   4.414   0.740  1.7997 -0.1158  0.0341
    1SOL    MW4 1764   3.375   4.412   0.827  0.0248  0.3047  0.0901
    1SOL     OW 1765   3.808   4.658   0.882 -0.5636  0.1057  0.2511
    1SOL    HW2 1766   3.897   4.688   0.863 -0.0441 -1.7854 -0.3918
    1SOL    HW3 1767   3.752   4.717   0.832  0.4187  0.1222 -0.8482
    1SOL    MW4 1768   3.812   4.670   0.873 -0.3653 -0.1411  0.0213
    1SOL     OW 1769   3.607   0.111   0.720  0.0651  0.4773  0.2372
    1SOL    HW2 1770   3.531   0.087   0.773 -0.0017 -0.9987 -0.4978
    1SOL    HW3 1771   3.569   0.147   0.640  0.1026 -1.1157 -0.5210
    1SOL    MW4 1772   3.592   0.112   0.716  0.0610  0.0724  0.0402
    1SOL     OW 1773   3.570   0.384   0.772 -0.0456 -0.0328  0.5153
    1SOL    HW2 1774   3.562   0.382   0.867  1.9232  0.3009  0.7052
    1SOL    HW3 1775   3.608   0.300   0.749  0.3792  0.2662  0.1117
    1SOL    MW4 1776   3.574   0.373   0.781  0.2699  0.0507  0.4871
    1SOL     OW 1777   3.803   0.507   0.764 -0.1548  0.1939 -0.0587
    1SOL    HW2 1778   3.794   0.595   0.801 -1.0814  0.2898 -0.5026
    1SOL    HW3 1779   3.716   0.469   0.770 -0.3360  0.2270 -2.1505
    1SOL    MW4 1780   3.790   0.514   0.770 -0.3009  0.2109 -0.3931
    1SOL     OW 1781   3.768   0.770   0.872 -0.0319 -0.1889 -0.3780
    1SOL    HW2 1782   3.786   0.769   0.966  1.0649 -0.6270 -0.5830
    1SOL    HW3 1783   3.844   0.813   0.833  0.1838 -1.2804 -1.1893
    1SOL    MW4 1784   3.780   0.775   0.879  0.1411 -0.3907 -0.5121
    1SOL     OW 1785   3.510   0.864   0.779  0.0363  0.1659  0.0903
    1SOL    HW2 1786   3.599   0.847   0.811  0.3597 -1.7950 -1.7580
    1SOL    HW3 1787   3.454   0.805   0.830 -0.0409  0.3919  0.2700
    1SOL    MW4 1788   3.514   0.854   0.790  0.0687 -0.0631 -0.1299
    1SOL     OW 1789   3.534   1.139   0.821  0.2547  0.0494 -0.3236
    1SOL    HW2 1790   3.532   1.149   0.916  0.1764  0.0414 -0.3246
    1SOL    HW3 1791   3.523   1.045   0.807 -0.4702  0.1402 -0.3683
    1SOL    MW4 1792   3.532   1.128   0.831  0.1485  0.0603 -0.3296
    1SOL     OW 1793   3.804   1.193   0.739  0.3160  0.2321  0.2870
    1SOL    HW2 1794   3.720   1.178   0.782  1.1845  0.5046  2.1022
    1SOL    HW3 1795   3.794   1.153   0.653 -0.6781 -2.3183  1.5411
    1SOL    MW4 1796   3.792   1.185   0.733  0.2992 -0.0683  0.6920
    1SOL     OW 1797   3.820   1.471   0.820 -0.4385 -0.4057 -0.2462
    1SOL    HW2 1798   3.910   1.503   0.813 -0.2201 -0.4410  2.1396
    1SOL    HW3 1799   3.826   1.378   0.799  0.0306 -0.3318 -0.4418
    1SOL    MW4 1800   3.833   1.463   0.816 -0.3479 -0.4007  0.0428
    1SOL     OW 1801   3.589   1.583   0.736 -0.0141 -0.3921  0.3938
    1SOL    HW2 1802   3.597   1.660   0.793 -0.8276 -0.6945  0.9300
    1SOL    HW3 1803   3.675   1.542   0.739  0.3467  0.3469  0.3220
    1SOL    MW4 1804   3.601   1.588   0.744 -0.0739 -0.3346  0.4551
    1SOL     OW 1805   3.635   1.837   0.856  0.1063  0.2301 -0.0424
    1SOL    HW2 1806   3.728   1.858   0.857  0.1874 -0.0864 -0.9375
    1SOL    HW3 1807   3.592   1.922   0.842  0.3127  0.2159 -0.8063
    1SOL    MW4 1808   3.642   1.851   0.854  0.1440  0.1866 -0.2612
    1SOL     OW 1809   3.862   2.071   0.683 -0.2453 -0.3571  0.0332
    1SOL    HW2 1810   3.927   2.068   0.613 -0.8936 -0.0251 -0.5880
    1SOL    HW3 1811   3.777   2.068   0.638 -0.6682 -0.1367  0.8021
    1SOL    MW4 1812   3.859   2.070   0.668 -0.3865 -0.2842  0.0526
    1SOL     OW 1813   3.884   2.318   0.811  0.4799 -0.0974 -0.0134
    1SOL    HW2 1814   3.852   2.301   0.900 -0.2821 -0.9141 -0.4348
    1SOL    HW3 1815   3.879   2.233   0.767  0.2928  0.4235 -1.0080
    1SOL    MW4 1816   3.879   2.305   0.817  0.3550 -0.1366 -0.2002
    1SOL     OW 1817   3.634   2.482   0.781 -0.0588  0.4967  0.0442
    1SOL    HW2 1818   3.656   2.562   0.829  1.0170 -0.1625  0.6606
    1SOL    HW3 1819   3.709   2.425   0.795 -0.5882 -0.4146 -0.8570
    1SOL    MW4 1820   3.647   2.485   0.789  0.0131  0.2892  0.0066
    1SOL     OW 1821   3.606   2.766   0.861  0.3922  0.0844 -0.3822
    1SOL    HW2 1822   3.585   2.776   0.953 -0.0911 -1.7848 -0.2660
    1SOL    HW3 1823   3.530   2.801   0.814 -0.4248 -1.1817 -0.0280
    1SOL    MW4 1824   3.593   2.772   0.867  0.2205 -0.3293 -0.3201
    1SOL     OW 1825   3.820   2.902   0.756 -0.0464  0.0346 -0.3340
    1SOL    HW2 1826   3.828   2.977   0.814 -1.7500 -0.0999  0.1020
    1SOL    HW3 1827   3.739   2.859   0.783 -0.5664 -0.3589 -2.4361
    1SOL    MW4 1828   3.811   2.906   0.767 -0.3397 -0.0350 -0.5538
    1SOL     OW 1829   3.819   3.140   0.877 -0.1188  0.0088 -0.0037
    1SOL    HW2 1830   3.881   3.186   0.821 -1.1655 -0.2683 -1.4359
    1SOL    HW3 1831   3.734   3.180   0.856 -0.2197  1.5969  3.2030
    1SOL    MW4 1832   3.816   3.151   0.867 -0.2704  0.1817  0.2304
    1SOL     OW 1833   3.588   3.243   0.744  0.5714 -0.0950 -0.0672
    1SOL    HW2 1834   3.495   3.226   0.758  0.7201 -1.2454 -0.4214
    1SOL    HW3 1835   3.600   3.238   0.650  0.6901  1.7279 -0.1721
    1SOL    MW4 1836   3.577   3.240   0.734  0.6065 -0.0064 -0.1277
    1SOL     OW 1837   3.558   3.518   0.798  0.2721  0.2462 -0.0257
    1SOL    HW2 1838   3.559   3.422   0.796  0.7694  0.2093  1.5011
    1SOL    HW3 1839   3.470   3.542   0.770  0.4502 -0.6111 -1.3966
    1SOL    MW4 1840   3.547   3.509   0.794  0.3612  0.1278 -0.0051
    1SOL     OW 1841   3.815   3.597   0.685  0.5355 -0.3453  0.3758
    1SOL    HW2 1842   3.873   3.552   0.746  0.4462  0.1382  0.8282
    1SOL    HW3 1843   3.727   3.574   0.715  0.4899  0.2196  0.6833
    1SOL    MW4 1844   3.811   3.588   0.697  0.5178 -0.2069  0.4761
    1SOL     OW 1845   3.819   3.853   0.852  0.5302 -0.5366 -0.0794
    1SOL    HW2 1846   3.734   3.893   0.832  0.8029 -0.7247 -1.7489
    1SOL    HW3 1847   3.824   3.778   0.793  0.9958 -1.7341  1.4600
    1SOL    MW4 1848   3.808   3.849   0.841  0.6275 -0.7195 -0.0965
    1SOL     OW 1849   3.572   3.971   0.766 -0.2736  0.0835 -0.1287
    1SOL    HW2 1850   3.588   4.061   0.796  1.4271 -0.4722  0.6834
    1SOL    HW3 1851   3.579   3.976   0.670 -0.7598  0.9039 -0.1314
    1SOL    MW4 1852   3.575   3.983   0.757 -0.1132  0.1185 -0.0219
    1SOL     OW 1853   3.591   4.233   0.843 -0.3018 -0.3900 -0.2353
    1SOL    HW2 1854   3.666   4.288   0.821 -0.4114  0.1133  0.6140
    1SOL    HW3 1855   3.515   4.290   0.835 -0.4392 -0.4741  0.3985
    1SOL    MW4 1856   3.591   4.248   0.839 -0.3345 -0.3352 -0.0396
    1SOL     OW 1857   3.799   4.396   0.773  0.5644  0.1939  0.2470
    1SOL    HW2 1858   3.871   4.361   0.824  0.3204 -0.1927  0.3250
    1SOL    HW3 1859   3.788   4.486   0.805  0.7758  0.1338  0.4832
    1SOL    MW4 1860   3.807   4.403   0.784  0.5603  0.1349  0.2884
    1SOL     OW 1861   4.300   4.659   0.857  0.2014 -0.0189 -0.0696
    1SOL    HW2 1862   4.310   4.655   0.952 -0.8847  0.1975  0.0639
    1SOL    HW3 1863   4.228   4.721   0.842  1.3269  1.0704 -1.1034
    1SOL    MW4 1864   4.292   4.667   0.867  0.2060  0.1540 -0.1883
    1SOL     OW 1865   4.039   0.105   0.798 -0.2395  0.1552 -0.2107
    1SOL    HW2 1866   4.034   0.200   0.814  1.4189  0.2070  0.0842
    1SOL    HW3 1867   4.020   0.096   0.705 -2.1132  0.6025  0.1095
    1SOL    MW4 1868   4.036   0.117   0.788 -0.2685  0.2211 -0.1295
    1SOL     OW 1869   4.026   0.366   0.837  0.0824 -0.5769  0.1362
    1SOL    HW2 1870   4.095   0.409   0.785  0.7514 -1.4380  0.2937
    1SOL    HW3 1871   3.945   0.405   0.806  0.6755  0.8228  0.2971
    1SOL    MW4 1872   4.025   0.377   0.826  0.2489 -0.5058  0.1783
    1SOL     OW 1873   4.221   0.487   0.697 -0.1266  0.2769  0.0889
    1SOL    HW2 1874   4.300   0.440   0.723 -2.0143 -1.9599  1.9938
    1SOL    HW3 1875   4.245   0.532   0.616  3.2102  0.0384  0.8700
    1SOL    MW4 1876   4.235   0.487   0.690  0.0648 -0.0497  0.4433
    1SOL     OW 1877   4.253   0.708   0.833  0.1530  0.3532  0.0339
    1SOL    HW2 1878   4.171   0.742   0.798  0.0900  0.4038  0.2316
    1SOL    HW3 1879   4.259   0.620   0.798 -0.4477  0.0124  0.7727
    1SOL    MW4 1880   4.243   0.701   0.824  0.0653  0.3150  0.1575
    1SOL     OW 1881   4.025   0.829   0.745 -0.4449 -0.1267  0.2934
    1SOL    HW2 1882   4.043   0.920   0.768 -0.8130  0.4214 -1.4731
    1SOL    HW3 1883   4.004   0.832   0.651  1.0186 -2.2397 -0.1279
    1SOL    MW4 1884   4.024   0.841   0.736 -0.3004 -0.3332  0.0048
    1SOL     OW 1885   4.069   1.099   0.820  0.0924 -0.0810  0.1551
    1SOL    HW2 1886   4.069   1.109   0.915  1.7773 -0.2559  0.1892
    1SOL    HW3 1887   3.985   1.135   0.792  0.3554  1.6577  1.5286
    1SOL    MW4 1888   4.057   1.105   0.829  0.3490  0.1253  0.3408
    1SOL     OW 1889   4.305   1.239   0.751  0.2834 -0.3805 -0.0372
    1SOL    HW2 1890   4.235   1.188   0.792 -1.0263  3.3260  2.6126
    1SOL    HW3 1891   4.385   1.209   0.794 -0.3781 -0.6882  0.9871
    1SOL    MW4 1892   4.306   1.228   0.762  0.0234  0.0681  0.4476
    1SOL     OW 1893   4.297   1.502   0.829 -0.3691  0.5125 -0.7047
    1SOL    HW2 1894   4.305   1.506   0.925 -0.9496 -0.8870 -0.5872
    1SOL    HW3 1895   4.295   1.408   0.809 -1.0210  0.7971 -2.0270
    1SOL    MW4 1896   4.298   1.490   0.839 -0.5317  0.3655 -0.8637
    1SOL     OW 1897   4.066   1.621   0.750 -0.4195  0.5371  0.2532
    1SOL    HW2 1898   4.153   1.593   0.778 -0.0257  2.1020  0.6294
    1SOL    HW3 1899   4.079   1.657   0.662 -1.1875 -1.8215 -0.8729
    1SOL    MW4 1900   4.079   1.622   0.742 -0.4683  0.4323  0.1543
    1SOL     OW 1901   3.941   1.865   0.853 -0.4093  0.4054 -0.4297
    1SOL    HW2 1902   3.928   1.937   0.792  0.4697  0.6299 -0.3552
    1SOL    HW3 1903   3.994   1.802   0.805 -0.6076  0.1069 -0.2601
    1SOL    MW4 1904   3.946   1.866   0.839 -0.3192  0.3957 -0.3975
    1SOL     OW 1905   4.322   2.140   0.730  0.0386  0.1787  0.0938
    1SOL    HW2 1906   4.363   2.067   0.776  0.5722 -0.2969 -1.1141
    1SOL    HW3 1907   4.395   2.194   0.700 -0.3663  1.4795  1.3849
    1SOL    MW4 1908   4.337   2.138   0.732  0.0558  0.2878  0.1048
    1SOL     OW 1909   4.294   2.357   0.904 -0.1385  0.1700  0.1804
    1SOL    HW2 1910   4.254   2.429   0.857  0.9887  0.0294 -1.0126
    1SOL    HW3 1911   4.274   2.280   0.851  0.2956 -0.1315  0.4532
    1SOL    MW4 1912   4.286   2.356   0.891  0.0677  0.1116  0.0590
    1SOL     OW 1913   4.083   2.499   0.747  0.5456 -0.1813 -0.4624
    1SOL    HW2 1914   4.058   2.581   0.790  0.7990 -0.6815  0.6436
    1SOL    HW3 1915   4.010   2.440   0.762 -0.4886  0.4007 -2.8909
    1SOL    MW4 1916   4.070   2.502   0.754  0.4425 -0.1702 -0.6369
    1SOL     OW 1917   4.026   2.741   0.860  0.1119  0.1884  0.3043
    1SOL    HW2 1918   4.108   2.785   0.840  0.7505 -1.2527 -0.3327
    1SOL    HW3 1919   3.958   2.804   0.835  1.0013  0.6283 -1.0650
    1SOL    MW4 1920   4.028   2.755   0.854  0.3133  0.0565  0.0396
    1SOL     OW 1921   4.295   2.839   0.813  0.1544  0.0580 -0.4092
    1SOL    HW2 1922   4.358   2.776   0.851 -1.4511 -0.7201  1.0260
    1SOL    HW3 1923   4.306   2.829   0.719  2.7128  0.4774 -0.2120
    1SOL    MW4 1924   4.305   2.829   0.806  0.2799  0.0107 -0.1938
    1SOL     OW 1925   4.244   3.105   0.839 -0.0802 -0.5194  0.2857
    1SOL    HW2 1926   4.261   3.012   0.826  0.6937 -0.3784  0.2326
    1SOL    HW3 1927   4.316   3.149   0.793 -0.8008  0.1161 -0.2307
    1SOL    MW4 1928   4.256   3.099   0.831 -0.0734 -0.4168  0.2106
    1SOL     OW 1929   4.033   3.271   0.744  0.3056  0.0453 -0.2903
    1SOL    HW2 1930   4.035   3.353   0.793  1.2110 -0.4536  0.5402
    1SOL    HW3 1931   4.104   3.219   0.782  0.4924 -0.6748 -1.5821
    1SOL    MW4 1932   4.043   3.275   0.755  0.4492 -0.1154 -0.3512
    1SOL     OW 1933   4.036   3.521   0.867  0.2023  0.2493  0.0559
    1SOL    HW2 1934   4.024   3.547   0.958 -0.1458  0.2746  0.0032
    1SOL    HW3 1935   4.114   3.569   0.839  1.9850 -1.9032  1.1581
    1SOL    MW4 1936   4.045   3.531   0.875  0.3920 -0.0315  0.1944
    1SOL     OW 1937   4.283   3.630   0.774  0.1602 -0.2197 -0.1230
    1SOL    HW2 1938   4.296   3.725   0.776 -1.4879  0.0300 -0.1308
    1SOL    HW3 1939   4.278   3.609   0.681  2.1951 -0.5863 -0.1750
    1SOL    MW4 1940   4.284   3.640   0.762  0.2112 -0.2351 -0.1309
    1SOL     OW 1941   4.290   3.940   0.792  0.2482  0.3450  0.0761
    1SOL    HW2 1942   4.290   3.907   0.882 -0.4343 -0.4483 -0.2100
    1SOL    HW3 1943   4.197   3.944   0.768  0.4694 -0.6025 -1.0044
    1SOL    MW4 1944   4.278   3.936   0.801  0.1869  0.1152 -0.1042
    1SOL     OW 1945   4.019   3.993   0.737  0.0118 -0.0254  0.2440
    1SOL    HW2 1946   3.953   3.931   0.770  0.4334 -1.2817 -1.2284
    1SOL    HW3 1947   3.978   4.031   0.660  0.6617 -0.1642 -0.1683
    1SOL    MW4 1948   4.005   3.990   0.731  0.1531 -0.2096 -0.0046
    1SOL     OW 1949   4.040   4.245   0.855 -0.2526 -0.3365  0.2021
    1SOL    HW2 1950   4.122   4.286   0.829 -0.8409  0.0220 -1.1576
    1SOL    HW3 1951   4.049   4.153   0.830 -1.1158  0.1627 -2.0863
    1SOL    MW4 1952   4.052   4.239   0.849 -0.4444 -0.2241 -0.2792
    1SOL     OW 1953   4.283   4.394   0.758 -0.1948 -0.2967 -0.1632
    1SOL    HW2 1954   4.285   4.481   0.798 -0.3453  0.4747 -1.7731
    1SOL    HW3 1955   4.367   4.355   0.780 -0.6948 -0.3225  1.7942
    1SOL    MW4 1956   4.294   4.400   0.766 -0.2809 -0.1984 -0.1174
    1SOL     OW 1957   0.256   4.654   1.076  0.9123 -0.1495 -0.0900
    1SOL    HW2 1958   0.328   4.693   1.126  0.4766  1.4091 -0.6754
    1SOL    HW3 1959   0.257   4.699   0.992 -0.6533 -0.2155 -0.1618
    1SOL    MW4 1960   0.265   4.665   1.072  0.6482  0.0474 -0.1768
    1SOL     OW 1961   0.051   0.087   1.242  0.0359  0.0716 -0.1360
    1SOL    HW2 1962  -0.023   0.037   1.207  1.0999 -1.4911 -0.1764
    1SOL    HW3 1963   0.128   0.050   1.199  0.8975  1.3763  0.2534
    1SOL    MW4 1964   0.051   0.076   1.231  0.2900  0.0375 -0.0900
    1SOL     OW 1965   0.014   0.330   1.075 -0.2177 -0.0527  0.2031
    1SOL    HW2 1966  -0.060   0.375   1.116  0.8722  0.8719  1.1524
    1SOL    HW3 1967   0.032   0.256   1.132  0.3152  0.3634  0.5753
    1SOL    MW4 1968   0.006   0.326   1.088 -0.0033  0.1242  0.3774
    1SOL     OW 1969   0.204   0.492   1.205  0.5336  0.5433 -0.0605
    1SOL    HW2 1970   0.212   0.578   1.163  0.8478  0.2501 -0.5985
    1SOL    HW3 1971   0.146   0.442   1.147  0.8544  0.1844 -0.0669
    1SOL    MW4 1972   0.197   0.497   1.192  0.6174  0.4573 -0.1323
    1SOL     OW 1973   0.223   0.730   1.096  0.6336 -0.2586 -0.0625
    1SOL    HW2 1974   0.306   0.773   1.116  0.6017  0.2332 -0.9718
    1SOL    HW3 1975   0.158   0.779   1.146  0.8273 -0.3486  0.2788
    1SOL    MW4 1976   0.225   0.742   1.106  0.6550 -0.2056 -0.1374
    1SOL     OW 1977   0.021   0.876   1.231  0.7226 -0.0419 -0.4017
    1SOL    HW2 1978   0.011   0.867   1.326  1.1735 -0.0939 -0.3577
    1SOL    HW3 1979  -0.061   0.843   1.195  0.1250  0.9758  0.0155
    1SOL    MW4 1980   0.009   0.870   1.239  0.7029  0.0855 -0.3408
    1SOL     OW 1981   0.022   1.124   1.114 -0.4205  0.1451 -0.3365
    1SOL    HW2 1982  -0.031   1.188   1.161  2.3692  1.1465  1.5551
    1SOL    HW3 1983   0.002   1.040   1.156 -0.4849  0.5206  0.3864
    1SOL    MW4 1984   0.012   1.121   1.125 -0.0610  0.3268  0.0083
    1SOL     OW 1985   0.243   1.269   1.202  0.3868  0.3509 -0.0745
    1SOL    HW2 1986   0.315   1.209   1.179  0.6649  0.3486  0.8087
    1SOL    HW3 1987   0.164   1.220   1.178  0.5569 -0.8943  1.8195
    1SOL    MW4 1988   0.242   1.254   1.196  0.4459  0.1863  0.2919
    1SOL     OW 1989   0.225   1.547   1.104 -0.0475  0.2421 -0.7029
    1SOL    HW2 1990   0.229   1.456   1.133 -0.1131  0.2810 -0.5669
    1SOL    HW3 1991   0.208   1.543   1.010 -1.2459  0.1183 -0.4973
    1SOL    MW4 1992   0.223   1.535   1.096 -0.2143  0.2309 -0.6579
    1SOL     OW 1993   0.013   1.662   1.243 -0.6277 -0.0379 -0.7379
    1SOL    HW2 1994   0.006   1.751   1.208  0.7454  0.0716 -0.7481
    1SOL    HW3 1995   0.093   1.627   1.205 -0.9882 -1.1788 -0.4822
    1SOL    MW4 1996   0.022   1.669   1.233 -0.4941 -0.1738 -0.7055
    1SOL     OW 1997   0.010   1.915   1.136  0.6626 -0.2012  0.2420
    1SOL    HW2 1998  -0.073   1.955   1.160  0.9781 -0.0590  1.1231
    1SOL    HW3 1999   0.006   1.907   1.041 -0.6233 -0.8069  0.3393
    1SOL    MW4 2000  -0.001   1.919   1.127  0.5345 -0.2623  0.3711
    1SOL     OW 2001   0.244   2.084   1.216  0.1770  0.0759  0.7512
    1SOL    HW2 2002   0.233   2.173   1.181  1.9861  0.1469  0.3112
    1SOL    HW3 2003   0.164   2.038   1.189 -0.2656  1.2572 -0.0038
    1SOL    MW4 2004   0.232   2.090   1.208  0.3572  0.2413  0.5934
    1SOL     OW 2005   0.221   2.340   1.085 -0.0577 -0.4472 -0.3186
    1SOL    HW2 2006   0.302   2.371   1.124  0.3167  0.1785 -1.5472
    1SOL    HW3 2007   0.153   2.365   1.147  0.5108  0.5725 -0.0865
    1SOL    MW4 2008   0.223   2.347   1.098  0.0667 -0.2298 -0.4501
    1SOL     OW 2009   0.027   2.459   1.244  0.4673 -0.5661 -0.2323
    1SOL    HW2 2010   0.045   2.457   1.338  1.5368  1.0063 -0.3973
    1SOL    HW3 2011  -0.062   2.424   1.237  0.3824 -0.7225  1.3652
    1SOL    MW4 2012   0.017   2.454   1.256  0.5970 -0.3793 -0.0432
    1SOL     OW 2013   0.026   2.713   1.171  0.1151  0.8747  0.2803
    1SOL    HW2 2014  -0.065   2.741   1.183  0.0153  1.2917 -1.3813
    1SOL    HW3 2015   0.026   2.621   1.198 -0.4731  1.2646  1.6747
    1SOL    MW4 2016   0.014   2.704   1.176  0.0243  0.9811  0.2451
    1SOL     OW 2017   0.247   2.844   1.242  0.5805  0.1015 -0.0198
    1SOL    HW2 2018   0.253   2.840   1.338  0.4308  0.1180 -0.0097
    1SOL    HW3 2019   0.161   2.807   1.222 -0.3784  2.2020  0.0129
    1SOL    MW4 2020   0.236   2.839   1.252  0.4342  0.3810 -0.0142
    1SOL     OW 2021   0.226   3.080   1.112 -0.1137  0.1431  0.4022
    1SOL    HW2 2022   0.301   3.130   1.145 -0.3489 -0.3373  1.6572
    1SOL    HW3 2023   0.237   2.992   1.148 -1.8487  0.3494  1.5039
    1SOL    MW4 2024   0.237   3.075   1.121 -0.3737  0.1070  0.7132
    1SOL     OW 2025   0.015   3.179   1.268  0.6382 -0.1409 -0.0739
    1SOL    HW2 2026  -0.060   3.149   1.216  0.2637  0.2644  0.2209
    1SOL    HW3 2027   0.091   3.142   1.225  0.2619 -0.5603 -0.3780
    1SOL    MW4 2028   0.015   3.170   1.256  0.5391 -0.1431 -0.0751
    1SOL     OW 2029   0.001   3.446   1.185 -0.0757  0.2523 -0.3785
    1SOL    HW2 2030  -0.000   3.358   1.222 -0.0199  0.2494 -0.3845
    1SOL    HW3 2031  -0.029   3.434   1.095 -1.2870  0.4028 -0.0168
    1SOL    MW4 2032  -0.003   3.433   1.178 -0.2281  0.2718 -0.3316
    1SOL     OW 2033   0.235   3.602   1.238  0.0803  0.0945 -0.0088
    1SOL    HW2 2034   0.239   3.618   1.332 -0.8456  0.8135 -0.0938
    1SOL    HW3 2035   0.146   3.573   1.222 -0.3203  1.8115 -0.9531
    1SOL    MW4 2036   0.224   3.600   1.248 -0.0947  0.4160 -0.1446
    1SOL     OW 2037   0.249   3.868   1.123  0.4711  0.2875  0.0494
    1SOL    HW2 2038   0.164   3.902   1.150  0.1856 -0.8825  0.6891
    1SOL    HW3 2039   0.242   3.773   1.138  1.5141  0.0524 -0.9079
    1SOL    MW4 2040   0.237   3.860   1.129  0.5710  0.1020  0.0075
    1SOL     OW 2041   0.011   3.960   1.192 -0.1233 -0.5701 -0.1318
    1SOL    HW2 2042  -0.014   3.951   1.284 -0.7873 -1.5654 -0.3967
    1SOL    HW3 2043  -0.057   3.912   1.144 -0.2760  0.6874 -1.2051
    1SOL    MW4 2044  -0.001   3.953   1.198 -0.2308 -0.5352 -0.3083
    1SOL     OW 2045   4.479   4.246   1.079 -0.1977 -0.0117 -0.0280
    1SOL    HW2 2046   4.553   4.298   1.109  1.1558 -0.1891 -2.8732
    1SOL    HW3 2047   4.484   4.165   1.129  1.8788 -0.2329 -0.5543
    1SOL    MW4 2048   4.489   4.242   1.089  0.2551 -0.0644 -0.4728
    1SOL     OW 2049   0.203   4.400   1.166  0.1678  0.3753  0.5222
    1SOL    HW2 2050   0.197   4.402   1.262  1.3083  0.4216  0.5979
    1SOL    HW3 2051   0.206   4.492   1.140 -0.0813  0.3619  0.4424
    1SOL    MW4 2052   0.203   4.412   1.175  0.2854  0.3796  0.5217
    1SOL     OW 2053   0.647   4.662   1.140  0.1927  0.4142  0.1315
    1SOL    HW2 2054   0.713   4.713   1.187  2.5559  0.3499 -2.9876
    1SOL    HW3 2055   0.652   4.575   1.179  0.5564  0.9003  1.2087
    1SOL    MW4 2056   0.656   4.658   1.152  0.5525  0.4697 -0.1380
    1SOL     OW 2057   0.417   0.118   1.267 -0.1038 -0.1550 -0.4043
    1SOL    HW2 2058   0.403   0.206   1.232 -0.2518 -0.0819 -0.1666
    1SOL    HW3 2059   0.492   0.084   1.218 -1.8417 -1.0156 -2.5041
    1SOL    MW4 2060   0.425   0.125   1.256 -0.3526 -0.2589 -0.6500
    1SOL     OW 2061   0.454   0.387   1.133 -0.1437  0.0270  0.0025
    1SOL    HW2 2062   0.376   0.441   1.148  0.1985  0.6621 -0.4652
    1SOL    HW3 2063   0.458   0.377   1.038  0.2078 -0.2048  0.0400
    1SOL    MW4 2064   0.444   0.393   1.122 -0.0522  0.0802 -0.0542
    1SOL     OW 2065   0.681   0.509   1.232 -0.1517  0.6613  0.6800
    1SOL    HW2 2066   0.705   0.579   1.171 -1.3237  0.0754 -0.4915
    1SOL    HW3 2067   0.604   0.468   1.192  2.1624 -3.1377 -0.1524
    1SOL    MW4 2068   0.674   0.513   1.218 -0.0010  0.0827  0.4157
    1SOL     OW 2069   0.692   0.738   1.100  0.0182  0.3665  0.1556
    1SOL    HW2 2070   0.609   0.777   1.125 -0.2698  0.1520 -0.4674
    1SOL    HW3 2071   0.683   0.719   1.006  0.6551  0.0702  0.1511
    1SOL    MW4 2072   0.680   0.741   1.091  0.0643  0.2992  0.0728
    1SOL     OW 2073   0.447   0.860   1.165  0.5450 -0.4578  0.2850
    1SOL    HW2 2074   0.440   0.869   1.260  2.6477 -2.3126  0.6606
    1SOL    HW3 2075   0.447   0.950   1.133  1.4569  0.2605  2.1884
    1SOL    MW4 2076   0.446   0.873   1.173  0.9427 -0.6078  0.5858
    1SOL     OW 2077   0.455   1.128   1.110 -0.0693 -0.3353 -0.3342
    1SOL    HW2 2078   0.522   1.179   1.156  0.9325 -1.3556 -0.6296
    1SOL    HW3 2079   0.472   1.146   1.017 -1.3719  0.8362 -0.3521
    1SOL    MW4 2080   0.466   1.138   1.104 -0.1090 -0.3153 -0.3756
    1SOL     OW 2081   0.659   1.279   1.249 -0.4008  0.0729 -0.1685
    1SOL    HW2 2082   0.740   1.241   1.214  0.1994 -0.0678  1.3351
    1SOL    HW3 2083   0.678   1.372   1.257 -0.5008  0.0885 -0.1180
    1SOL    MW4 2084   0.672   1.286   1.245 -0.3347  0.0564  0.0365
    1SOL     OW 2085   0.696   1.552   1.199  0.0438 -0.5937 -0.3516
    1SOL    HW2 2086   0.772   1.603   1.226 -0.4665  0.6466 -1.2261
    1SOL    HW3 2087   0.621   1.607   1.222 -0.4832 -0.4943 -2.2127
    1SOL    MW4 2088   0.696   1.566   1.206 -0.0930 -0.4170 -0.7126
    1SOL     OW 2089   0.426   1.692   1.233 -0.0923  0.3709  0.2180
    1SOL    HW2 2090   0.418   1.658   1.322 -0.2986 -0.1216  0.0168
    1SOL    HW3 2091   0.369   1.635   1.181 -1.1211  1.5740  0.0094
    1SOL    MW4 2092   0.418   1.680   1.238 -0.2553  0.4647  0.1639
    1SOL     OW 2093   0.471   1.938   1.115 -0.2019 -0.1726  0.2589
    1SOL    HW2 2094   0.464   1.854   1.161  0.5626  0.1763  1.0222
    1SOL    HW3 2095   0.391   1.985   1.141 -0.8233 -0.8082 -0.4800
    1SOL    MW4 2096   0.459   1.933   1.125 -0.1830 -0.2104  0.2620
    1SOL     OW 2097   0.693   2.054   1.246  0.5239  0.3177  0.3816
    1SOL    HW2 2098   0.659   2.059   1.335  1.4668  0.5250  0.7409
    1SOL    HW3 2099   0.620   2.021   1.194 -0.2625  0.8959  1.1022
    1SOL    MW4 2100   0.679   2.050   1.251  0.5445  0.4213  0.5242
    1SOL     OW 2101   0.698   2.314   1.107  0.4676  0.5218 -0.4613
    1SOL    HW2 2102   0.613   2.344   1.142  0.3259  0.4181 -0.7186
    1SOL    HW3 2103   0.716   2.234   1.156 -0.7344 -0.7695 -2.0847
    1SOL    MW4 2104   0.689   2.307   1.118  0.2903  0.3376 -0.7095
    1SOL     OW 2105   0.453   2.428   1.196  0.1164 -0.5374 -0.0087
    1SOL    HW2 2106   0.437   2.431   1.291 -1.1534 -0.0662 -0.2210
    1SOL    HW3 2107   0.467   2.519   1.171  2.3006 -0.8510  0.0100
    1SOL    MW4 2108   0.453   2.440   1.205  0.2370 -0.5167 -0.0343
    1SOL     OW 2109   0.437   2.689   1.114 -0.2699  0.3574 -0.0001
    1SOL    HW2 2110   0.362   2.733   1.154  0.3476  0.6998  0.7772
    1SOL    HW3 2111   0.434   2.716   1.022 -1.1318  0.3265  0.0128
    1SOL    MW4 2112   0.427   2.698   1.107 -0.3022  0.3984  0.1043
    1SOL     OW 2113   0.639   2.823   1.249  0.8710  0.3124 -0.0318
    1SOL    HW2 2114   0.643   2.905   1.199  0.3224  0.8330  0.7476
    1SOL    HW3 2115   0.565   2.775   1.211  0.3498  0.7807  0.3694
    1SOL    MW4 2116   0.629   2.828   1.238  0.7299  0.4430  0.1240
    1SOL     OW 2117   0.650   3.076   1.087 -0.6681  0.2073  0.1475
    1SOL    HW2 2118   0.717   3.127   1.133 -0.2442 -0.7286  0.5698
    1SOL    HW3 2119   0.675   3.082   0.995 -0.6623  0.8323  0.1902
    1SOL    MW4 2120   0.662   3.084   1.081 -0.6114  0.1662  0.2089
    1SOL     OW 2121   0.453   3.214   1.233 -0.3402  0.4609 -0.5126
    1SOL    HW2 2122   0.439   3.301   1.197 -0.8816  0.0725 -1.2626
    1SOL    HW3 2123   0.520   3.175   1.176  1.0722  0.9665  0.7994
    1SOL    MW4 2124   0.460   3.220   1.220 -0.2253  0.4764 -0.4385
    1SOL     OW 2125   0.436   3.456   1.113 -0.2288  0.1432  0.1743
    1SOL    HW2 2126   0.511   3.509   1.137 -0.4608  1.0814 -1.0803
    1SOL    HW3 2127   0.360   3.504   1.147 -0.3372 -0.1994  0.4209
    1SOL    MW4 2128   0.436   3.469   1.120 -0.2737  0.2217  0.0414
    1SOL     OW 2129   0.663   3.638   1.183 -0.1943 -0.0559  0.0670
    1SOL    HW2 2130   0.632   3.634   1.273  1.5209  0.5519  0.7161
    1SOL    HW3 2131   0.663   3.731   1.161  1.1827 -0.0280  0.1118
    1SOL    MW4 2132   0.659   3.650   1.192  0.2137  0.0281  0.1587
    1SOL     OW 2133   0.659   3.895   1.064 -0.2577  0.9273  0.2570
    1SOL    HW2 2134   0.589   3.952   1.097 -1.5592 -0.5415  0.1186
    1SOL    HW3 2135   0.639   3.885   0.971 -0.1354  0.1284  0.3165
    1SOL    MW4 2136   0.647   3.901   1.056 -0.4133  0.6282  0.2465
    1SOL     OW 2137   0.456   4.040   1.174  0.4549  0.0516 -0.6848
    1SOL    HW2 2138   0.449   4.134   1.155 -0.7294 -0.0607 -0.8571
    1SOL    HW3 2139   0.372   4.004   1.145  1.0915 -1.1396 -1.0655
    1SOL    MW4 2140   0.444   4.048   1.168  0.3827 -0.1206 -0.7577
    1SOL     OW 2141   0.439   4.304   1.096  0.3445  0.1572  0.0046
    1SOL    HW2 2142   0.509   4.337   1.152 -0.0769  1.2824 -0.1223
    1SOL    HW3 2143   0.361   4.351   1.125  0.0102  0.2957 -1.1049
    1SOL    MW4 2144   0.438   4.315   1.107  0.2447  0.3242 -0.1585
    1SOL     OW 2145   0.646   4.387   1.270  0.4519 -0.0171  0.4741
    1SOL    HW2 2146   0.640   4.373   1.365 -0.9656 -0.9675  0.2454
    1SOL    HW3 2147   0.718   4.331   1.242  0.6679  0.0240  0.9381
    1SOL    MW4 2148   0.655   4.378   1.279  0.2933 -0.1373  0.5052
    1SOL     OW 2149   1.098   4.614   1.121  0.1960  0.2120  0.3037
    1SOL    HW2 2150   1.077   4.521   1.135 -0.4239  0.4026  0.6555
    1SOL    HW3 2151   1.103   4.623   1.026 -0.6522  0.0073  0.2317
    1SOL    MW4 2152   1.096   4.603   1.110  0.0024  0.2098  0.3406
    1SOL     OW 2153   0.891   0.105   1.221 -0.5096 -0.1387  0.0536
    1SOL    HW2 2154   0.902   0.097   1.316  0.3257  2.1892  0.1849
    1SOL    HW3 2155   0.961   0.051   1.184 -0.5709 -0.7096  0.7583
    1SOL    MW4 2156   0.902   0.097   1.229 -0.4075  0.0931  0.1639
    1SOL     OW 2157   0.902   0.366   1.108  0.0658  0.0446 -0.0391
    1SOL    HW2 2158   0.915   0.285   1.157 -1.0619 -0.3954 -0.4620
    1SOL    HW3 2159   0.827   0.408   1.151  0.5435  0.7893  0.0767
    1SOL    MW4 2160   0.894   0.361   1.120 -0.0200  0.0848 -0.0798
    1SOL     OW 2161   1.112   0.525   1.197 -0.4746  0.0194 -0.3034
    1SOL    HW2 2162   1.110   0.497   1.288  1.4237  0.2573 -0.1712
    1SOL    HW3 2163   1.048   0.469   1.153 -0.2603 -1.1684  0.8738
    1SOL    MW4 2164   1.103   0.514   1.203 -0.1960 -0.1059 -0.1307
    1SOL     OW 2165   1.096   0.782   1.079  0.1542 -0.2540 -0.2719
    1SOL    HW2 2166   1.015   0.817   1.116 -0.7712  0.0598 -2.4524
    1SOL    HW3 2167   1.106   0.696   1.119 -1.4670 -0.4474 -0.2406
    1SOL    MW4 2168   1.086   0.775   1.089 -0.1819 -0.2382 -0.5555
    1SOL     OW 2169   0.881   0.891   1.218 -0.0532 -0.5166 -1.0070
    1SOL    HW2 2170   0.873   0.983   1.193 -1.5597 -0.2162  0.4712
    1SOL    HW3 2171   0.815   0.846   1.165 -1.2009 -0.3211  0.2311
    1SOL    MW4 2172   0.871   0.897   1.208 -0.4034 -0.4511 -0.6487
    1SOL     OW 2173   0.894   1.144   1.130  0.4305  0.2122  0.1419
    1SOL    HW2 2174   0.966   1.188   1.175  0.1390  1.0589 -0.2138
    1SOL    HW3 2175   0.916   1.150   1.037 -0.3132  0.8566  0.0035
    1SOL    MW4 2176   0.906   1.150   1.124  0.2939  0.4089  0.0767
    1SOL     OW 2177   1.117   1.255   1.271 -0.0511  0.1107 -0.6706
    1SOL    HW2 2178   1.132   1.261   1.366 -0.4619 -0.5731 -0.5601
    1SOL    HW3 2179   1.196   1.214   1.237 -1.1968 -2.5553 -0.2176
    1SOL    MW4 2180   1.129   1.250   1.279 -0.2565 -0.3312 -0.5963
    1SOL     OW 2181   1.133   1.525   1.142  0.7669 -0.1782  0.6631
    1SOL    HW2 2182   1.133   1.437   1.178  1.1166 -0.4648 -0.0198
    1SOL    HW3 2183   1.144   1.512   1.048  2.7597  0.6465  0.7432
    1SOL    MW4 2184   1.135   1.512   1.134  1.0759 -0.1070  0.5838
    1SOL     OW 2185   0.934   1.702   1.246  0.3854  0.3342 -0.2498
    1SOL    HW2 2186   0.931   1.785   1.199  2.0045  1.2643  1.2585
    1SOL    HW3 2187   1.008   1.655   1.207  0.7843  0.4737  0.3423
    1SOL    MW4 2188   0.943   1.706   1.234  0.6517  0.4754  0.0273
    1SOL     OW 2189   0.900   1.945   1.111  0.1181 -0.2848 -0.6628
    1SOL    HW2 2190   0.975   1.984   1.156 -0.3697  0.1192 -0.2071
    1SOL    HW3 2191   0.824   1.973   1.161 -0.2382 -1.8014 -0.3443
    1SOL    MW4 2192   0.900   1.954   1.123  0.0067 -0.4315 -0.5606
    1SOL     OW 2193   1.114   2.090   1.208  0.1302 -0.1082  0.1109
    1SOL    HW2 2194   1.104   2.104   1.302 -1.1900 -1.1902  0.1397
    1SOL    HW3 2195   1.113   2.177   1.170 -1.2999  0.2429  0.9242
    1SOL    MW4 2196   1.113   2.103   1.215 -0.2327 -0.2046  0.2221
    1SOL     OW 2197   1.136   2.347   1.126  0.3631 -0.1103  0.2602
    1SOL    HW2 2198   1.210   2.375   1.181  0.1826 -0.6767  0.7943
    1SOL    HW3 2199   1.062   2.396   1.161  0.3291 -0.1576  0.2537
    1SOL    MW4 2200   1.136   2.358   1.138  0.3349 -0.1915  0.3297
    1SOL     OW 2201   0.892   2.476   1.222 -0.4642  0.0293 -0.7494
    1SOL    HW2 2202   0.886   2.462   1.316 -0.7911 -0.2996 -0.8185
    1SOL    HW3 2203   0.822   2.422   1.185 -1.7384  1.8141 -1.0224
    1SOL    MW4 2204   0.882   2.467   1.229 -0.6755  0.2210 -0.7944
    1SOL     OW 2205   0.846   2.722   1.111  0.1227 -0.2543 -0.4401
    1SOL    HW2 2206   0.846   2.631   1.139  0.8334 -0.3996 -0.9113
    1SOL    HW3 2207   0.779   2.764   1.166  1.7305 -0.4454  1.7678
    1SOL    MW4 2208   0.837   2.716   1.122  0.4286 -0.2987 -0.2111
    1SOL     OW 2209   1.104   2.769   1.211 -0.9048 -0.2378  0.1420
    1SOL    HW2 2210   1.099   2.770   1.307 -0.0135  0.3080  0.1816
    1SOL    HW3 2211   1.019   2.733   1.184 -0.3598 -2.4241  1.1997
    1SOL    MW4 2212   1.092   2.764   1.220 -0.7153 -0.4544  0.2867
    1SOL     OW 2213   1.096   3.056   1.196  0.0354 -0.1677 -0.0120
    1SOL    HW2 2214   1.106   2.964   1.220  0.8486 -0.7068 -2.3400
    1SOL    HW3 2215   1.076   3.054   1.102  2.3845  2.1408 -0.5919
    1SOL    MW4 2216   1.095   3.043   1.187  0.4526  0.0656 -0.3957
    1SOL     OW 2217   0.848   3.222   1.223  0.1432  0.0212 -0.0788
    1SOL    HW2 2218   0.867   3.310   1.189 -0.5214 -0.5648 -2.0059
    1SOL    HW3 2219   0.929   3.173   1.210 -0.1484 -0.2370 -0.9751
    1SOL    MW4 2220   0.861   3.227   1.217  0.0171 -0.0901 -0.4513
    1SOL     OW 2221   0.883   3.483   1.125 -0.1410  0.0721  0.0166
    1SOL    HW2 2222   0.810   3.532   1.163  0.8790  2.1068 -0.5971
    1SOL    HW3 2223   0.874   3.496   1.031 -0.1923 -1.4104 -0.1856
    1SOL    MW4 2224   0.872   3.491   1.118 -0.0132  0.1447 -0.0911
    1SOL     OW 2225   1.133   3.607   1.222  0.1709 -0.1073 -0.1016
    1SOL    HW2 2226   1.208   3.556   1.194  0.8716  1.6603 -1.5635
    1SOL    HW3 2227   1.057   3.560   1.186  0.7968 -0.1200 -1.4249
    1SOL    MW4 2228   1.133   3.594   1.214  0.3459  0.1240 -0.4690
    1SOL     OW 2229   1.146   3.847   1.113  0.1073 -0.5290 -0.2203
    1SOL    HW2 2230   1.070   3.895   1.147  1.0649 -0.0946  1.3490
    1SOL    HW3 2231   1.146   3.764   1.162  1.5501  0.1416  0.9478
    1SOL    MW4 2232   1.136   3.842   1.124  0.4240 -0.3829  0.1408
    1SOL     OW 2233   0.911   3.967   1.182  0.0745  0.2894  0.4320
    1SOL    HW2 2234   0.906   3.957   1.277  0.6810 -0.8264  0.3512
    1SOL    HW3 2235   0.826   3.936   1.151  0.0016  0.3333  0.5839
    1SOL    MW4 2236   0.899   3.961   1.191  0.1449  0.1481  0.4414
    1SOL     OW 2237   0.819   4.230   1.112 -0.6615  0.2727  0.0611
    1SOL    HW2 2238   0.839   4.146   1.153  0.0314  0.7176  0.6575
    1SOL    HW3 2239   0.836   4.216   1.019 -0.1492 -0.1275  0.2125
    1SOL    MW4 2240   0.824   4.217   1.106 -0.5025  0.2785  0.1599
    1SOL     OW 2241   1.071   4.345   1.181  0.1276 -0.3114 -0.7626
    1SOL    HW2 2242   1.070   4.351   1.277 -1.1571  0.3467 -0.8159
    1SOL    HW3 2243   0.984   4.312   1.158  1.2738 -2.8762 -1.5564
    1SOL    MW4 2244   1.059   4.341   1.191  0.1093 -0.5631 -0.8744
    1SOL     OW 2245   1.547   0.010   1.118 -0.4358  0.5706 -0.5099
    1SOL    HW2 2246   1.614   0.067   1.155  0.6043 -0.4875 -0.7180
    1SOL    HW3 2247   1.567  -0.077   1.153 -1.2881  0.1160 -1.1138
    1SOL    MW4 2248   1.558   0.006   1.127 -0.4110  0.3705 -0.6169
    1SOL     OW 2249   1.291   0.125   1.217  0.3449  0.1225 -0.1234
    1SOL    HW2 2250   1.369   0.097   1.169  0.9383 -0.5424  1.1960
    1SOL    HW3 2251   1.221   0.068   1.186  0.9728 -1.0548  0.6135
    1SOL    MW4 2252   1.292   0.114   1.207  0.5060 -0.1205  0.1479
    1SOL     OW 2253   1.344   0.401   1.120  0.1734  0.0938  0.0653
    1SOL    HW2 2254   1.324   0.313   1.153 -1.0326 -0.2998 -1.6615
    1SOL    HW3 2255   1.269   0.454   1.145 -0.1134  0.1133 -0.8228
    1SOL    MW4 2256   1.332   0.396   1.128 -0.0236  0.0444 -0.2797
    1SOL     OW 2257   1.586   0.508   1.225  0.2422  0.2006  0.0437
    1SOL    HW2 2258   1.601   0.598   1.197  1.4044  0.0855  0.2700
    1SOL    HW3 2259   1.515   0.477   1.168  1.4628  0.5011 -1.6950
    1SOL    MW4 2260   1.579   0.516   1.214  0.5566  0.2250 -0.1558
    1SOL     OW 2261   1.546   0.748   1.104  0.1299  0.0041  0.0560
    1SOL    HW2 2262   1.629   0.789   1.127 -0.3585  0.8052  0.4209
    1SOL    HW3 2263   1.547   0.745   1.008  0.4557  0.2777  0.0493
    1SOL    MW4 2264   1.557   0.753   1.094  0.1084  0.1459  0.1034
    1SOL     OW 2265   1.314   0.862   1.229  0.6463 -0.0547 -0.3443
    1SOL    HW2 2266   1.393   0.833   1.184  0.2977 -0.6188 -0.6084
    1SOL    HW3 2267   1.242   0.830   1.174  0.1670 -2.6410  1.6596
    1SOL    MW4 2268   1.315   0.854   1.216  0.5372 -0.4703 -0.1148
    1SOL     OW 2269   1.339   1.138   1.128 -0.3089 -0.1424 -0.4072
    1SOL    HW2 2270   1.324   1.051   1.166 -3.2709  0.6943  0.4788
    1SOL    HW3 2271   1.327   1.125   1.034 -1.2540 -0.6328 -0.2312
    1SOL    MW4 2272   1.335   1.125   1.120 -0.8243 -0.0968 -0.2669
    1SOL     OW 2273   1.577   1.310   1.218  0.3820  0.1869 -0.1783
    1SOL    HW2 2274   1.665   1.290   1.189  0.4266  0.6272 -0.3433
    1SOL    HW3 2275   1.523   1.239   1.183  0.7570 -0.3778  0.3884
    1SOL    MW4 2276   1.581   1.298   1.210  0.4373  0.1704 -0.1253
    1SOL     OW 2277   1.553   1.581   1.118 -0.2510  0.2335 -0.0264
    1SOL    HW2 2278   1.632   1.602   1.167 -1.0440  1.0890  0.9215
    1SOL    HW3 2279   1.537   1.488   1.137  1.3847 -0.3888 -1.5123
    1SOL    MW4 2280   1.561   1.571   1.127 -0.1401  0.2643 -0.0975
    1SOL     OW 2281   1.334   1.684   1.239 -0.4184 -0.4209  0.1860
    1SOL    HW2 2282   1.405   1.647   1.187 -0.4484  0.0936 -0.2328
    1SOL    HW3 2283   1.257   1.632   1.217 -0.3022 -0.5820  0.1644
    1SOL    MW4 2284   1.333   1.673   1.229 -0.4070 -0.3744  0.1277
    1SOL     OW 2285   1.286   1.911   1.077 -0.1426 -0.2455 -0.6671
    1SOL    HW2 2286   1.287   1.822   1.115  0.2934  0.4533  1.0230
    1SOL    HW3 2287   1.224   1.959   1.133  0.2771  0.7432 -1.0486
    1SOL    MW4 2288   1.278   1.905   1.090 -0.0298 -0.0228 -0.4944
    1SOL     OW 2289   1.520   2.004   1.166 -0.0000  0.1580 -0.2263
    1SOL    HW2 2290   1.535   2.094   1.137 -1.9304  0.7429  0.4493
    1SOL    HW3 2291   1.434   1.982   1.131  0.0489 -1.0920  0.3949
    1SOL    MW4 2292   1.510   2.013   1.158 -0.2482  0.0701 -0.0552
    1SOL     OW 2293   1.569   2.263   1.102  0.3647  0.6135  0.2870
    1SOL    HW2 2294   1.502   2.316   1.145  0.6371  0.8205  0.4572
    1SOL    HW3 2295   1.549   2.271   1.009 -0.6731 -0.4408  0.4132
    1SOL    MW4 2296   1.558   2.271   1.096  0.2639  0.5014  0.3262
    1SOL     OW 2297   1.369   2.418   1.237 -0.8072 -0.3267  0.2137
    1SOL    HW2 2298   1.363   2.429   1.332 -0.2275  0.5521  0.1508
    1SOL    HW3 2299   1.369   2.507   1.202 -2.9822 -0.6717 -0.7579
    1SOL    MW4 2300   1.368   2.431   1.245 -1.0178 -0.2565  0.0772
    1SOL     OW 2301   1.345   2.665   1.117  0.1393  0.5236 -0.2268
    1SOL    HW2 2302   1.411   2.725   1.153 -0.8179  2.2446 -1.3076
    1SOL    HW3 2303   1.262   2.698   1.150 -0.2866 -1.2370  0.5505
    1SOL    MW4 2304   1.343   2.677   1.126 -0.0433  0.5183 -0.2668
    1SOL     OW 2305   1.556   2.825   1.226  0.2330 -0.0668 -0.2908
    1SOL    HW2 2306   1.642   2.789   1.209  0.7550  0.5330  0.9982
    1SOL    HW3 2307   1.557   2.912   1.186  0.5196  0.2598  0.4077
    1SOL    MW4 2308   1.567   2.832   1.218  0.3396  0.0556 -0.0285
    1SOL     OW 2309   1.579   3.069   1.097 -0.4784 -0.6762 -0.3442
    1SOL    HW2 2310   1.648   3.114   1.145  0.3710 -1.3298 -0.9451
    1SOL    HW3 2311   1.498   3.111   1.127  0.2412  0.7104 -0.2995
    1SOL    MW4 2312   1.577   3.081   1.107 -0.2713 -0.5794 -0.4177
    1SOL     OW 2313   1.348   3.179   1.229  0.3545  0.0637  0.1140
    1SOL    HW2 2314   1.366   3.178   1.323 -0.3117 -2.2398  0.2559
    1SOL    HW3 2315   1.269   3.125   1.219  1.2220 -0.8764 -1.9073
    1SOL    MW4 2316   1.340   3.172   1.240  0.3810 -0.3643 -0.1340
    1SOL     OW 2317   1.334   3.446   1.122 -0.2146  0.5028 -0.0660
    1SOL    HW2 2318   1.337   3.356   1.156  0.3053  0.0794 -1.2118
    1SOL    HW3 2319   1.324   3.435   1.028  2.4671  1.6145 -0.5168
    1SOL    MW4 2320   1.333   3.433   1.114  0.2077  0.5934 -0.2767
    1SOL     OW 2321   1.571   3.585   1.214  0.5098  0.1633  0.3849
    1SOL    HW2 2322   1.564   3.671   1.172  0.5473 -0.5448 -1.0860
    1SOL    HW3 2323   1.495   3.536   1.181  0.3546 -0.2975  1.4086
    1SOL    MW4 2324   1.560   3.590   1.204  0.4945  0.0088  0.3259
    1SOL     OW 2325   1.556   3.837   1.094  0.0287 -0.4043 -0.1158
    1SOL    HW2 2326   1.490   3.899   1.124  0.2735 -0.6396  0.9288
    1SOL    HW3 2327   1.539   3.827   1.001 -1.6785 -0.7954  0.2240
    1SOL    MW4 2328   1.545   3.844   1.086 -0.1643 -0.4871  0.0670
    1SOL     OW 2329   1.352   3.987   1.224  0.2880  0.2023  0.0137
    1SOL    HW2 2330   1.353   4.080   1.203 -0.6560  0.6684  1.9768
    1SOL    HW3 2331   1.271   3.955   1.185  0.0514  0.4373  0.3099
    1SOL    MW4 2332   1.341   3.995   1.216  0.1322  0.2949  0.3119
    1SOL     OW 2333   1.323   4.257   1.118  0.1042  0.3362  0.0172
    1SOL    HW2 2334   1.237   4.289   1.146 -0.6375 -0.6210 -1.1029
    1SOL    HW3 2335   1.310   4.230   1.027  2.0974  2.0389 -0.8290
    1SOL    MW4 2336   1.310   4.258   1.109  0.2694  0.4344 -0.2424
    1SOL     OW 2337   1.558   4.387   1.175 -0.4000  0.3711  0.6375
    1SOL    HW2 2338   1.550   4.398   1.270  0.3159  0.8266  0.6549
    1SOL    HW3 2339   1.479   4.340   1.149 -0.3098 -0.2913  1.5463
    1SOL    MW4 2340   1.547   4.382   1.184 -0.2937  0.3438  0.7596
    1SOL     OW 2341   1.963   4.650   1.143  0.1525 -0.6696 -0.1087
    1SOL    HW2 2342   1.974   4.566   1.188  1.0163 -0.8027 -0.5623
    1SOL    HW3 2343   2.007   4.638   1.059 -1.4417 -0.4370 -1.0128
    1SOL    MW4 2344   1.970   4.637   1.138  0.0563 -0.6566 -0.2878
    1SOL     OW 2345   1.745   0.127   1.239  0.3673 -0.1906 -0.2966
    1SOL    HW2 2346   1.778   0.208   1.201 -1.0643  0.4599 -0.1559
    1SOL    HW3 2347   1.792   0.058   1.192  0.9709  0.6947 -1.0036
    1SOL    MW4 2348   1.756   0.129   1.228  0.2581  0.0120 -0.3713
    1SOL     OW 2349   1.821   0.381   1.118 -0.5082  0.0165  0.3715
    1SOL    HW2 2350   1.747   0.432   1.150  0.3316  1.6069 -0.1747
    1SOL    HW3 2351   1.812   0.382   1.023  0.7607  1.0801  0.2482
    1SOL    MW4 2352   1.810   0.388   1.110 -0.2300  0.3667  0.2831
    1SOL     OW 2353   2.069   0.494   1.225  0.1973 -0.0280 -0.0571
    1SOL    HW2 2354   2.043   0.502   1.317 -2.1874  0.4377 -0.7402
    1SOL    HW3 2355   1.999   0.442   1.185  2.0228 -1.5675 -1.3007
    1SOL    MW4 2356   2.056   0.488   1.232  0.1237 -0.1697 -0.3113
    1SOL     OW 2357   1.995   0.756   1.112 -0.6110 -0.5004 -0.0264
    1SOL    HW2 2358   2.004   0.664   1.138 -0.6209 -0.9314 -1.4867
    1SOL    HW3 2359   1.990   0.753   1.016  0.8783  1.1408 -0.1796
    1SOL    MW4 2360   1.995   0.743   1.103 -0.4159 -0.3408 -0.2393
    1SOL     OW 2361   1.769   0.900   1.216 -0.0801 -0.3137  0.5330
    1SOL    HW2 2362   1.761   0.892   1.311  0.1460 -1.2397  0.4811
    1SOL    HW3 2363   1.850   0.854   1.194  0.1456  0.3508 -0.0525
    1SOL    MW4 2364   1.778   0.893   1.225 -0.0206 -0.3483  0.4489
    1SOL     OW 2365   1.812   1.188   1.111  0.2633 -0.1274  0.4548
    1SOL    HW2 2366   1.770   1.116   1.158 -1.0274  0.6933  0.5912
    1SOL    HW3 2367   1.836   1.150   1.026  1.3928 -1.2441  1.2628
    1SOL    MW4 2368   1.809   1.173   1.106  0.2420 -0.1664  0.5794
    1SOL     OW 2369   2.057   1.268   1.240  0.0786  0.1532  0.0126
    1SOL    HW2 2370   2.123   1.233   1.181  1.0229 -0.4020  1.3824
    1SOL    HW3 2371   1.975   1.261   1.190  0.8981 -0.0087 -1.3412
    1SOL    MW4 2372   2.055   1.262   1.226  0.3109  0.0587  0.0145
    1SOL     OW 2373   2.057   1.540   1.159  0.0282 -0.2566  0.2928
    1SOL    HW2 2374   2.060   1.449   1.188  1.8957 -0.4273 -0.3398
    1SOL    HW3 2375   2.046   1.535   1.064  1.1436  0.1353  0.1301
    1SOL    MW4 2376   2.056   1.528   1.150  0.4215 -0.2276  0.1880
    1SOL     OW 2377   1.804   1.637   1.241  0.0084 -0.2031 -0.2061
    1SOL    HW2 2378   1.794   1.720   1.194  0.0961 -0.1212 -0.0820
    1SOL    HW3 2379   1.896   1.613   1.228  0.1252  0.0060  0.2263
    1SOL    MW4 2380   1.815   1.645   1.233  0.0353 -0.1650 -0.1327
    1SOL     OW 2381   1.761   1.877   1.108 -0.3950  0.3765 -0.5189
    1SOL    HW2 2382   1.675   1.916   1.121 -0.2830  0.8915 -1.2859
    1SOL    HW3 2383   1.774   1.880   1.013  0.4283  0.2207 -0.4103
    1SOL    MW4 2384   1.751   1.882   1.097 -0.2716  0.4239 -0.6057
    1SOL     OW 2385   1.977   2.018   1.163  0.0325  0.2440 -0.4387
    1SOL    HW2 2386   1.973   2.050   1.253 -0.1168 -1.8110  0.3067
    1SOL    HW3 2387   1.889   1.983   1.146  0.3782 -0.3508 -1.0242
    1SOL    MW4 2388   1.965   2.018   1.173  0.0583 -0.1054 -0.4176
    1SOL     OW 2389   2.001   2.280   1.056 -0.1468  0.2758  0.6298
    1SOL    HW2 2390   2.058   2.303   1.130  0.7070 -0.6893  0.2819
    1SOL    HW3 2391   1.988   2.185   1.065 -0.0833  0.1655 -0.4210
    1SOL    MW4 2392   2.007   2.270   1.067 -0.0255  0.1342  0.4454
    1SOL     OW 2393   1.790   2.434   1.152  0.8968  0.5243  0.4104
    1SOL    HW2 2394   1.863   2.394   1.104  0.0482 -0.9155  0.2645
    1SOL    HW3 2395   1.715   2.376   1.133 -0.2609  1.9308  0.6035
    1SOL    MW4 2396   1.789   2.421   1.143  0.6320  0.5200  0.4166
    1SOL     OW 2397   1.798   2.714   1.127  0.6413 -0.8700  0.5325
    1SOL    HW2 2398   1.809   2.620   1.143  0.5516 -0.9281  0.2473
    1SOL    HW3 2399   1.775   2.721   1.035 -1.2283 -0.7126  0.9802
    1SOL    MW4 2400   1.797   2.703   1.117  0.3829 -0.8569  0.5541
    1SOL     OW 2401   2.034   2.796   1.237  0.0242  0.0528 -0.3199
    1SOL    HW2 2402   2.042   2.886   1.204 -0.5010 -0.4726 -1.9181
    1SOL    HW3 2403   1.957   2.761   1.192 -0.5190 -0.7977  1.2436
    1SOL    MW4 2404   2.025   2.803   1.227 -0.1168 -0.1287 -0.3246
    1SOL     OW 2405   2.024   3.051   1.169 -0.1352  0.1181  0.0523
    1SOL    HW2 2406   1.936   3.085   1.184 -0.5485 -0.9726  0.1630
    1SOL    HW3 2407   2.031   3.045   1.074  0.1802  1.1066  0.0050
    1SOL    MW4 2408   2.013   3.055   1.158 -0.1481  0.1047  0.0607
    1SOL     OW 2409   1.777   3.189   1.248  0.0226 -0.2046 -0.2342
    1SOL    HW2 2410   1.767   3.179   1.343 -0.0127 -1.1985 -0.3332
    1SOL    HW3 2411   1.784   3.283   1.234  2.9838 -0.1854  1.0599
    1SOL    MW4 2412   1.777   3.200   1.259  0.4086 -0.3331 -0.0765
    1SOL     OW 2413   1.814   3.454   1.187 -0.3682 -0.1427 -0.3663
    1SOL    HW2 2414   1.890   3.512   1.187 -0.9084  0.5756  0.4104
    1SOL    HW3 2415   1.741   3.509   1.217 -0.8605 -1.2350  0.4979
    1SOL    MW4 2416   1.814   3.469   1.191 -0.5044 -0.1922 -0.1498
    1SOL     OW 2417   2.029   3.622   1.195 -0.0685 -0.6496  0.2806
    1SOL    HW2 2418   2.040   3.608   1.289 -0.1523 -0.0332  0.3810
    1SOL    HW3 2419   2.100   3.572   1.155  1.1107  0.5971  0.7621
    1SOL    MW4 2420   2.040   3.614   1.202  0.0761 -0.4039  0.3574
    1SOL     OW 2421   1.988   3.865   1.080  0.4347 -0.1310 -0.1974
    1SOL    HW2 2422   1.911   3.902   1.124  0.5512  0.0436 -0.1379
    1SOL    HW3 2423   2.002   3.781   1.122  0.4407 -0.0401 -0.0165
    1SOL    MW4 2424   1.980   3.859   1.091  0.4508 -0.0958 -0.1658
    1SOL     OW 2425   1.793   4.007   1.189  0.1156 -0.0795 -0.4819
    1SOL    HW2 2426   1.785   4.009   1.284  0.4194  0.7057 -0.4657
    1SOL    HW3 2427   1.719   3.955   1.159  1.0348 -1.8628  0.2867
    1SOL    MW4 2428   1.782   4.000   1.197  0.2769 -0.2117 -0.3785
    1SOL     OW 2429   1.799   4.274   1.101  0.0257 -0.1169 -0.8537
    1SOL    HW2 2430   1.785   4.183   1.127  0.3805  0.0823  0.0442
    1SOL    HW3 2431   1.715   4.317   1.120  0.0734 -0.1137 -0.6450
    1SOL    MW4 2432   1.786   4.267   1.107  0.0788 -0.0901 -0.7077
    1SOL     OW 2433   2.015   4.392   1.223 -0.2753  0.8177 -0.5914
    1SOL    HW2 2434   1.986   4.401   1.313  0.5561 -2.3731  0.0730
    1SOL    HW3 2435   1.939   4.357   1.176 -0.1191  0.5642 -0.6638
    1SOL    MW4 2436   2.001   4.388   1.228 -0.1450  0.3629 -0.5133
    1SOL     OW 2437   2.435   4.650   1.132 -0.3824 -0.3235  0.0446
    1SOL    HW2 2438   2.515   4.690   1.166  0.2763 -1.6324  0.0504
    1SOL    HW3 2439   2.365   4.688   1.185  0.3340  0.0196  0.7590
    1SOL    MW4 2440   2.436   4.661   1.144 -0.2012 -0.4511  0.1396
    1SOL     OW 2441   2.209   0.113   1.238 -0.1965 -0.0237 -0.0476
    1SOL    HW2 2442   2.217   0.199   1.197  1.0771 -0.2775 -0.3723
    1SOL    HW3 2443   2.130   0.075   1.200  0.5169  0.0753 -1.6734
    1SOL    MW4 2444   2.200   0.119   1.228  0.0658 -0.0441 -0.3051
    1SOL     OW 2445   2.263   0.349   1.104  0.2091  0.2281  0.0095
    1SOL    HW2 2446   2.198   0.409   1.141  0.7888  0.4958  0.6083
    1SOL    HW3 2447   2.285   0.388   1.019  1.5410  1.6072  0.9409
    1SOL    MW4 2448   2.258   0.362   1.098  0.4616  0.4454  0.2114
    1SOL     OW 2449   2.450   0.497   1.237 -0.3443 -0.1597 -0.0313
    1SOL    HW2 2450   2.437   0.491   1.332 -0.8112 -1.3033 -0.1547
    1SOL    HW3 2451   2.375   0.450   1.200  0.6263 -1.0378 -0.9260
    1SOL    MW4 2452   2.438   0.490   1.245 -0.2780 -0.4265 -0.1656
    1SOL     OW 2453   2.437   0.751   1.111 -0.5092 -0.3236 -0.0129
    1SOL    HW2 2454   2.445   0.671   1.163 -1.2558 -0.0730  0.5051
    1SOL    HW3 2455   2.373   0.804   1.159  1.3770  1.3881  0.6559
    1SOL    MW4 2456   2.429   0.747   1.124 -0.3586 -0.0647  0.1436
    1SOL     OW 2457   2.220   0.875   1.224 -0.4280 -0.5233  0.2915
    1SOL    HW2 2458   2.217   0.865   1.319  0.4416 -1.7261  0.2064
    1SOL    HW3 2459   2.136   0.841   1.193 -1.0081  0.5551  0.6885
    1SOL    MW4 2460   2.208   0.869   1.232 -0.3898 -0.5397  0.3325
    1SOL     OW 2461   2.268   1.115   1.099 -0.0199  0.2222  0.3048
    1SOL    HW2 2462   2.342   1.144   1.151 -1.0210  1.0413  1.2970
    1SOL    HW3 2463   2.242   1.032   1.139 -0.5786  0.6858  0.9172
    1SOL    MW4 2464   2.274   1.108   1.111 -0.2258  0.3915  0.5164
    1SOL     OW 2465   2.473   1.248   1.255  0.1659  0.1384 -0.1125
    1SOL    HW2 2466   2.557   1.229   1.214  0.0042 -0.2839 -0.2473
    1SOL    HW3 2467   2.449   1.334   1.220  0.1914 -0.0646 -0.6404
    1SOL    MW4 2468   2.481   1.257   1.245  0.1478  0.0558 -0.2000
    1SOL     OW 2469   2.438   1.487   1.130 -0.4639  0.2233  0.4502
    1SOL    HW2 2470   2.373   1.549   1.164  0.1405  1.5753 -0.7967
    1SOL    HW3 2471   2.440   1.504   1.036  0.6574 -0.8062  0.2738
    1SOL    MW4 2472   2.429   1.498   1.122 -0.2360  0.2657  0.2624
    1SOL     OW 2473   2.273   1.670   1.259  0.1701  0.0398  0.6231
    1SOL    HW2 2474   2.266   1.751   1.209  0.0074 -1.1756 -1.3727
    1SOL    HW3 2475   2.188   1.628   1.249  0.1148 -0.2006  2.0018
    1SOL    MW4 2476   2.261   1.675   1.251  0.1414 -0.1522  0.5417
    1SOL     OW 2477   2.221   1.897   1.117 -0.5224  0.2893 -0.1033
    1SOL    HW2 2478   2.135   1.928   1.145 -1.3105 -2.4715  0.6572
    1SOL    HW3 2479   2.208   1.870   1.026 -0.4337 -0.0560 -0.0124
    1SOL    MW4 2480   2.208   1.898   1.109 -0.6146 -0.1205  0.0089
    1SOL     OW 2481   2.401   2.089   1.211 -0.3442  0.2026  0.4896
    1SOL    HW2 2482   2.476   2.034   1.189 -0.1758 -0.2426  2.1371
    1SOL    HW3 2483   2.326   2.042   1.175  0.2124  1.0988 -1.9890
    1SOL    MW4 2484   2.401   2.076   1.203 -0.2484  0.2618  0.3798
    1SOL     OW 2485   2.431   2.341   1.111  0.1824  0.5736  0.4663
    1SOL    HW2 2486   2.422   2.256   1.156  0.2634  0.9873  1.2667
    1SOL    HW3 2487   2.430   2.318   1.018  1.1651 -0.4073  0.6789
    1SOL    MW4 2488   2.430   2.326   1.105  0.3226  0.4988  0.6001
    1SOL     OW 2489   2.198   2.417   1.209  0.0221 -0.4351  0.4207
    1SOL    HW2 2490   2.209   2.442   1.301  0.4229  0.3784  0.1559
    1SOL    HW3 2491   2.284   2.382   1.184  0.6978  1.6837 -0.3494
    1SOL    MW4 2492   2.211   2.416   1.218  0.1640 -0.0484  0.2842
    1SOL     OW 2493   2.222   2.670   1.083  0.1837  0.0559 -0.2960
    1SOL    HW2 2494   2.211   2.580   1.113 -1.5960 -0.3097 -1.9113
    1SOL    HW3 2495   2.165   2.722   1.139  1.5072  0.2612  0.8924
    1SOL    MW4 2496   2.213   2.665   1.094  0.1235  0.0346 -0.3524
    1SOL     OW 2497   2.446   2.803   1.207 -0.3406  0.0062 -0.3320
    1SOL    HW2 2498   2.430   2.800   1.301  0.4402 -0.5796 -0.2129
    1SOL    HW3 2499   2.374   2.753   1.169  0.6334 -1.8027  0.1305
    1SOL    MW4 2500   2.434   2.796   1.214 -0.1092 -0.3097 -0.2552
    1SOL     OW 2501   2.486   3.082   1.135 -0.0155  0.0129 -0.3059
    1SOL    HW2 2502   2.416   3.130   1.180  0.7470  0.2447  0.6589
    1SOL    HW3 2503   2.480   2.993   1.170  0.2049  0.0511 -0.1661
    1SOL    MW4 2504   2.476   3.077   1.146  0.1142  0.0484 -0.1602
    1SOL     OW 2505   2.241   3.212   1.252 -0.1918 -0.0635  0.1806
    1SOL    HW2 2506   2.224   3.299   1.217 -0.8686  0.5932  2.0539
    1SOL    HW3 2507   2.162   3.162   1.232 -0.6734  0.3764  0.9808
    1SOL    MW4 2508   2.228   3.216   1.245 -0.3445  0.0813  0.5333
    1SOL     OW 2509   2.227   3.455   1.133 -0.2914 -0.0379 -0.1971
    1SOL    HW2 2510   2.320   3.467   1.147 -0.3169 -0.3412  0.2617
    1SOL    HW3 2511   2.215   3.465   1.039  0.5150 -2.0667 -0.5325
    1SOL    MW4 2512   2.237   3.458   1.122 -0.1884 -0.3457 -0.1810
    1SOL     OW 2513   2.483   3.564   1.185  0.4978 -0.5722  0.5552
    1SOL    HW2 2514   2.451   3.583   1.273 -1.0290 -1.4128  0.2026
    1SOL    HW3 2515   2.459   3.640   1.133  1.6079  0.0268  0.9018
    1SOL    MW4 2516   2.475   3.576   1.189  0.4427 -0.6044  0.5544
    1SOL     OW 2517   2.448   3.842   1.103  0.1677  0.4266 -0.0341
    1SOL    HW2 2518   2.380   3.899   1.139  0.9562  0.8817  0.7496
    1SOL    HW3 2519   2.446   3.858   1.009 -1.6564 -0.4881 -0.1655
    1SOL    MW4 2520   2.439   3.852   1.096  0.0312  0.3660  0.0520
    1SOL     OW 2521   2.217   3.969   1.176 -0.1162 -0.1682 -0.1010
    1SOL    HW2 2522   2.223   4.059   1.144 -0.2139  0.5148  1.7366
    1SOL    HW3 2523   2.139   3.933   1.134  0.4055  0.3215 -1.5148
    1SOL    MW4 2524   2.208   3.976   1.166 -0.0606 -0.0134 -0.0452
    1SOL     OW 2525   2.238   4.250   1.113  0.3084  0.5292  0.5345
    1SOL    HW2 2526   2.164   4.300   1.148  0.0661  0.1165  0.6159
    1SOL    HW3 2527   2.224   4.251   1.018 -0.6657 -0.8903  0.6571
    1SOL    MW4 2528   2.226   4.257   1.105  0.1481  0.2875  0.5614
    1SOL     OW 2529   2.455   4.382   1.241  0.2557 -0.3580 -0.1546
    1SOL    HW2 2530   2.381   4.340   1.199 -0.6138  0.8458  0.1547
    1SOL    HW3 2531   2.456   4.471   1.206 -0.1594  0.5050  1.9355
    1SOL    MW4 2532   2.446   4.388   1.231  0.0863 -0.0849  0.1621
    1SOL     OW 2533   2.936   4.656   1.135  0.2420  0.2111  0.0277
    1SOL    HW2 2534   2.929   4.567   1.170  0.4924  0.1702 -0.0259
    1SOL    HW3 2535   2.955   4.643   1.042 -0.4461  0.3164 -0.1295
    1SOL    MW4 2536   2.937   4.642   1.127  0.1845  0.2198  0.0000
    1SOL     OW 2537   2.714   0.123   1.214 -0.3869  0.1799 -0.2376
    1SOL    HW2 2538   2.716   0.116   1.309 -0.8462 -0.6257 -0.2823
    1SOL    HW3 2539   2.790   0.074   1.184 -0.2448  0.4294 -0.2886
    1SOL    MW4 2540   2.724   0.116   1.223 -0.4287  0.1065 -0.2501
    1SOL     OW 2541   2.636   0.370   1.093  0.3826 -0.5347  0.0894
    1SOL    HW2 2542   2.671   0.297   1.146 -0.4945 -0.4167  0.8454
    1SOL    HW3 2543   2.580   0.418   1.154  0.5261  0.4666 -0.5613
    1SOL    MW4 2544   2.633   0.366   1.108  0.2859 -0.3870  0.1035
    1SOL     OW 2545   2.898   0.498   1.164 -0.0541  0.1575  0.1618
    1SOL    HW2 2546   2.904   0.583   1.120 -0.1226 -0.0085 -0.1662
    1SOL    HW3 2547   2.814   0.462   1.137  1.0425 -1.1032 -1.6565
    1SOL    MW4 2548   2.888   0.504   1.155  0.0815 -0.0308 -0.1214
    1SOL     OW 2549   2.917   0.765   1.068  0.2416 -0.4879 -0.4214
    1SOL    HW2 2550   2.988   0.797   1.123 -0.6302  1.0353 -0.1690
    1SOL    HW3 2551   2.839   0.808   1.102 -0.6921 -1.5468 -1.1962
    1SOL    MW4 2552   2.916   0.775   1.080  0.0031 -0.4267 -0.4902
    1SOL     OW 2553   2.686   0.858   1.184  0.3515  0.4931 -0.3529
    1SOL    HW2 2554   2.678   0.953   1.175 -0.6230  0.5396  0.9477
    1SOL    HW3 2555   2.604   0.823   1.149  0.2310  0.1852  0.2418
    1SOL    MW4 2556   2.674   0.866   1.178  0.2069  0.4586 -0.1028
    1SOL     OW 2557   2.712   1.130   1.130 -0.0715  0.5065  0.3537
    1SOL    HW2 2558   2.776   1.189   1.170 -0.8547  0.4458  1.7258
    1SOL    HW3 2559   2.716   1.150   1.037  0.9626  1.4593  0.5897
    1SOL    MW4 2560   2.721   1.140   1.123 -0.0384  0.6243  0.5659
    1SOL     OW 2561   2.905   1.311   1.259 -0.2778 -0.0779  0.2307
    1SOL    HW2 2562   2.899   1.320   1.354  0.7694 -0.7146  0.3668
    1SOL    HW3 2563   2.890   1.399   1.225 -0.2845  0.2206  1.0054
    1SOL    MW4 2564   2.902   1.324   1.267 -0.1407 -0.1225  0.3510
    1SOL     OW 2565   2.868   1.556   1.137 -0.1517 -0.0091  0.0535
    1SOL    HW2 2566   2.944   1.596   1.179  0.5633  0.3597 -1.5673
    1SOL    HW3 2567   2.882   1.568   1.043 -1.2729 -1.6199 -0.3584
    1SOL    MW4 2568   2.880   1.563   1.130 -0.2055 -0.1730 -0.2147
    1SOL     OW 2569   2.635   1.684   1.218 -0.2844  0.4355  0.1015
    1SOL    HW2 2570   2.709   1.635   1.183 -0.5490  0.0657  0.0535
    1SOL    HW3 2571   2.558   1.645   1.176 -0.4679  1.1309 -0.2074
    1SOL    MW4 2572   2.634   1.672   1.208 -0.3433  0.4786  0.0544
    1SOL     OW 2573   2.638   1.946   1.170 -0.1243  0.2509  0.2216
    1SOL    HW2 2574   2.725   1.980   1.192  0.1999  0.6298 -1.5761
    1SOL    HW3 2575   2.646   1.851   1.180  0.6936  0.2269 -0.5646
    1SOL    MW4 2576   2.651   1.938   1.174  0.0265  0.2978 -0.1191
    1SOL     OW 2577   2.900   2.050   1.200  0.0411 -0.2044  0.3214
    1SOL    HW2 2578   2.901   2.060   1.295 -2.1673 -1.8210  0.5530
    1SOL    HW3 2579   2.879   2.137   1.167 -1.0077 -0.0432  1.4055
    1SOL    MW4 2580   2.898   2.063   1.208 -0.3886 -0.3965  0.4950
    1SOL     OW 2581   2.852   2.315   1.108 -0.3940 -0.6004  0.2080
    1SOL    HW2 2582   2.930   2.351   1.151 -0.4147 -0.3769  0.0595
    1SOL    HW3 2583   2.781   2.372   1.137 -0.3775 -0.3339 -0.2734
    1SOL    MW4 2584   2.853   2.328   1.117 -0.3943 -0.5360  0.1249
    1SOL     OW 2585   2.652   2.468   1.225  0.0908 -0.2491  0.4558
    1SOL    HW2 2586   2.652   2.433   1.315  0.5717 -3.3556 -0.7060
    1SOL    HW3 2587   2.564   2.450   1.193  0.0774  0.4094  0.1197
    1SOL    MW4 2588   2.640   2.461   1.233  0.1523 -0.5720  0.2581
    1SOL     OW 2589   2.679   2.711   1.076 -0.0855 -0.1924  0.0217
    1SOL    HW2 2590   2.682   2.630   1.127  1.8037  0.1974  0.5695
    1SOL    HW3 2591   2.606   2.760   1.115 -0.9140 -1.4026  0.0178
    1SOL    MW4 2592   2.670   2.707   1.088  0.0544 -0.3006  0.0933
    1SOL     OW 2593   2.937   2.792   1.172 -0.4078  0.1662 -0.3127
    1SOL    HW2 2594   2.937   2.786   1.268 -1.9854  0.5191 -0.2738
    1SOL    HW3 2595   2.850   2.763   1.146  0.8132 -2.2578 -1.8393
    1SOL    MW4 2596   2.925   2.788   1.181 -0.4549 -0.1068 -0.5090
    1SOL     OW 2597   2.947   3.077   1.108  0.4250  0.4753 -0.0608
    1SOL    HW2 2598   2.952   2.984   1.132 -0.8255  0.8322  1.7535
    1SOL    HW3 2599   2.923   3.077   1.016 -0.3649 -1.0183  0.1238
    1SOL    MW4 2600   2.945   3.065   1.099  0.1559  0.3254  0.2029
    1SOL     OW 2601   2.715   3.211   1.230 -0.3588 -0.0463  0.1096
    1SOL    HW2 2602   2.796   3.179   1.190 -0.0073  0.8324  0.0924
    1SOL    HW3 2603   2.647   3.155   1.195  0.1501 -0.2976 -0.4865
    1SOL    MW4 2604   2.717   3.200   1.220 -0.2451  0.0362  0.0286
    1SOL     OW 2605   2.723   3.459   1.104 -0.2926 -0.3026  0.0359
    1SOL    HW2 2606   2.738   3.373   1.145 -2.2717 -1.1889 -0.9964
    1SOL    HW3 2607   2.641   3.490   1.144  0.5181  1.2155  0.5448
    1SOL    MW4 2608   2.714   3.452   1.115 -0.4470 -0.2193 -0.0333
    1SOL     OW 2609   2.898   3.627   1.235 -0.1225 -0.4720 -0.2465
    1SOL    HW2 2610   2.985   3.597   1.208 -0.3915  0.5426 -2.3850
    1SOL    HW3 2611   2.837   3.571   1.187 -0.6324 -0.0239 -0.1271
    1SOL    MW4 2612   2.901   3.616   1.225 -0.2253 -0.2789 -0.5128
    1SOL     OW 2613   2.927   3.876   1.107 -0.6446  0.2467  0.1673
    1SOL    HW2 2614   2.994   3.903   1.170  1.1059  0.0931 -1.5796
    1SOL    HW3 2615   2.921   3.781   1.118 -0.0557  0.1690 -0.1510
    1SOL    MW4 2616   2.935   3.867   1.117 -0.3357  0.2162 -0.1053
    1SOL     OW 2617   2.684   3.967   1.216  0.0179 -0.6118  0.1088
    1SOL    HW2 2618   2.764   3.925   1.182  0.6180  0.9514 -0.4775
    1SOL    HW3 2619   2.613   3.916   1.178  0.7276 -1.5363 -0.0135
    1SOL    MW4 2620   2.685   3.955   1.206  0.1905 -0.5276  0.0153
    1SOL     OW 2621   2.676   4.257   1.135  0.4351 -0.2556 -0.0990
    1SOL    HW2 2622   2.666   4.164   1.156  1.3833 -0.5999 -1.1199
    1SOL    HW3 2623   2.611   4.301   1.189  0.2635 -1.4771  0.7086
    1SOL    MW4 2624   2.666   4.250   1.145  0.5374 -0.4625 -0.1270
    1SOL     OW 2625   2.898   4.392   1.233 -0.0127  0.1399 -0.3856
    1SOL    HW2 2626   2.979   4.350   1.203 -0.1039 -0.9237  0.8211
    1SOL    HW3 2627   2.828   4.342   1.191 -0.0891  0.1738 -0.2973
    1SOL    MW4 2628   2.900   4.380   1.223 -0.0350  0.0038 -0.2147
    1SOL     OW 2629   3.390   0.019   1.140 -0.0287 -0.7232 -0.0394
    1SOL    HW2 2630   3.465   0.063   1.179 -0.0082 -0.4302 -0.4113
    1SOL    HW3 2631   3.315   0.071   1.167  0.1735  0.7540 -2.1822
    1SOL    MW4 2632   3.390   0.032   1.149  0.0010 -0.4896 -0.3711
    1SOL     OW 2633   3.151   0.133   1.222  0.2800  0.1429 -0.0296
    1SOL    HW2 2634   3.135   0.154   1.314  0.3167 -0.7086  0.1753
    1SOL    HW3 2635   3.075   0.081   1.195  0.3723  0.2043 -0.4222
    1SOL    MW4 2636   3.139   0.129   1.230  0.2968  0.0387 -0.0544
    1SOL     OW 2637   3.148   0.408   1.081  0.1123 -0.4379  0.0627
    1SOL    HW2 2638   3.160   0.318   1.111 -2.1182 -0.9296 -0.4275
    1SOL    HW3 2639   3.082   0.444   1.140  1.2595  1.0147  0.4943
    1SOL    MW4 2640   3.141   0.401   1.093 -0.0308 -0.3111  0.0551
    1SOL     OW 2641   3.397   0.502   1.220 -0.0188  0.3590  0.6103
    1SOL    HW2 2642   3.394   0.598   1.214 -1.2023  0.2446 -0.9003
    1SOL    HW3 2643   3.317   0.473   1.175  0.8285 -1.3774  0.1989
    1SOL    MW4 2644   3.386   0.511   1.213 -0.0632  0.1149  0.3567
    1SOL     OW 2645   3.355   0.768   1.159  0.0030 -0.2527  0.3017
    1SOL    HW2 2646   3.293   0.836   1.185 -0.6092 -0.4010 -0.7592
    1SOL    HW3 2647   3.346   0.761   1.064  0.8864 -1.0107  0.2607
    1SOL    MW4 2648   3.345   0.776   1.150  0.0391 -0.3723  0.1563
    1SOL     OW 2649   3.119   0.898   1.214 -0.4124  0.0013  0.1931
    1SOL    HW2 2650   3.117   0.904   1.310 -1.9430  0.4910  0.1428
    1SOL    HW3 2651   3.096   0.986   1.184  2.0159  0.3802 -0.6434
    1SOL    MW4 2652   3.115   0.910   1.223 -0.2940  0.1159  0.0761
    1SOL     OW 2653   3.123   1.197   1.128 -0.1592 -0.2584  0.5295
    1SOL    HW2 2654   3.211   1.227   1.149 -0.2665  0.7765 -0.4642
    1SOL    HW3 2655   3.065   1.252   1.180 -0.2482 -0.5601  0.7530
    1SOL    MW4 2656   3.127   1.208   1.137 -0.1853 -0.1616  0.4280
    1SOL     OW 2657   3.373   1.325   1.187  0.6698  0.3609 -0.1602
    1SOL    HW2 2658   3.384   1.334   1.281  1.1875 -0.6726 -0.1189
    1SOL    HW3 2659   3.366   1.415   1.155  1.1304  0.7385  0.7814
    1SOL    MW4 2660   3.373   1.338   1.195  0.7989  0.2743 -0.0304
    1SOL     OW 2661   3.333   1.589   1.117 -0.4085  0.0803  0.3307
    1SOL    HW2 2662   3.406   1.637   1.157 -1.3609  0.9116  1.0977
    1SOL    HW3 2663   3.255   1.625   1.159 -1.3448  0.0134 -1.3186
    1SOL    MW4 2664   3.333   1.600   1.128 -0.6576  0.1812  0.2142
    1SOL     OW 2665   3.104   1.672   1.234 -0.2427 -0.0830  0.3307
    1SOL    HW2 2666   3.113   1.677   1.329 -0.9310 -0.4747  0.4222
    1SOL    HW3 2667   3.120   1.761   1.203 -0.1893  0.0807  0.8222
    1SOL    MW4 2668   3.108   1.684   1.243 -0.3266 -0.1130  0.4077
    1SOL     OW 2669   3.123   1.933   1.111  0.4433  0.3982  0.0480
    1SOL    HW2 2670   3.190   1.995   1.142  1.1715 -0.8826  1.0581
    1SOL    HW3 2671   3.041   1.968   1.146  0.7917  1.0316  0.2485
    1SOL    MW4 2672   3.121   1.946   1.120  0.5856  0.3127  0.2077
    1SOL     OW 2673   3.333   2.074   1.226  0.3761 -0.3624  0.8395
    1SOL    HW2 2674   3.419   2.043   1.201 -0.5000 -1.0625 -1.4261
    1SOL    HW3 2675   3.324   2.158   1.181 -0.2527 -0.4341  0.8261
    1SOL    MW4 2676   3.343   2.081   1.217  0.1774 -0.4642  0.5387
    1SOL     OW 2677   3.312   2.331   1.100 -0.4905  1.1363  0.3953
    1SOL    HW2 2678   3.382   2.391   1.125 -0.2322  0.7222  0.6737
    1SOL    HW3 2679   3.235   2.363   1.146  0.1318 -0.0132  2.2946
    1SOL    MW4 2680   3.311   2.343   1.109 -0.3746  0.9303  0.6825
    1SOL     OW 2681   3.088   2.433   1.228 -0.7136  0.0849 -0.3773
    1SOL    HW2 2682   3.095   2.434   1.324  1.4808 -0.3768 -0.5034
    1SOL    HW3 2683   3.092   2.525   1.203 -1.9043  0.2483 -0.0013
    1SOL    MW4 2684   3.089   2.445   1.238 -0.5810  0.0455 -0.3443
    1SOL     OW 2685   3.168   2.670   1.101 -0.2609 -0.1938 -0.1951
    1SOL    HW2 2686   3.085   2.715   1.118 -1.0211 -1.6899  0.0771
    1SOL    HW3 2687   3.175   2.667   1.006 -0.0657  0.7518 -0.2144
    1SOL    MW4 2688   3.158   2.676   1.091 -0.3355 -0.2663 -0.1616
    1SOL     OW 2689   3.350   2.808   1.261  0.1814 -0.0444 -0.6764
    1SOL    HW2 2690   3.351   2.896   1.224  0.9211 -0.7003 -2.2852
    1SOL    HW3 2691   3.297   2.756   1.200  0.9602 -1.0232 -0.5402
    1SOL    MW4 2692   3.343   2.812   1.248  0.3819 -0.2599 -0.8707
    1SOL     OW 2693   3.373   3.087   1.157 -0.7699  0.2399  0.8007
    1SOL    HW2 2694   3.437   3.143   1.199 -0.4345  0.6622 -0.2488
    1SOL    HW3 2695   3.289   3.130   1.173 -0.3793  1.8271 -1.1834
    1SOL    MW4 2696   3.370   3.100   1.164 -0.6740  0.5054  0.4003
    1SOL     OW 2697   3.167   3.262   1.194  0.2016 -0.0972 -0.7192
    1SOL    HW2 2698   3.154   3.356   1.192  0.2926 -0.0662 -0.0178
    1SOL    HW3 2699   3.083   3.226   1.165 -0.2538  0.1831  0.1992
    1SOL    MW4 2700   3.154   3.269   1.190  0.1535 -0.0563 -0.5056
    1SOL     OW 2701   3.145   3.527   1.118  0.2179 -0.2595 -0.3711
    1SOL    HW2 2702   3.233   3.558   1.136  0.2171 -0.6683  0.3486
    1SOL    HW3 2703   3.131   3.547   1.026 -0.3125  3.1756  0.3832
    1SOL    MW4 2704   3.155   3.534   1.108  0.1476  0.1397 -0.1767
    1SOL     OW 2705   3.378   3.651   1.218  0.1962 -0.4726  0.1215
    1SOL    HW2 2706   3.388   3.635   1.312  0.8668 -1.2544 -0.0740
    1SOL    HW3 2707   3.447   3.598   1.178 -0.2577 -0.3484 -0.8269
    1SOL    MW4 2708   3.388   3.642   1.225  0.2248 -0.5593 -0.0294
    1SOL     OW 2709   3.365   3.914   1.135  0.1158  0.0089 -0.0249
    1SOL    HW2 2710   3.285   3.936   1.184 -0.3875  0.4611 -1.0394
    1SOL    HW3 2711   3.378   3.821   1.153 -1.2035 -0.3102 -0.6406
    1SOL    MW4 2712   3.356   3.904   1.144 -0.1249  0.0265 -0.2401
    1SOL     OW 2713   3.130   4.006   1.244 -0.1352 -0.4232  0.1817
    1SOL    HW2 2714   3.130   4.012   1.339 -0.2114 -1.0905  0.2248
    1SOL    HW3 2715   3.138   4.097   1.214  1.1541 -0.3062  0.8276
    1SOL    MW4 2716   3.131   4.019   1.252  0.0248 -0.4954  0.2726
    1SOL     OW 2717   3.135   4.269   1.152 -0.4783  0.2063 -0.1192
    1SOL    HW2 2718   3.217   4.313   1.173 -0.6884  0.1168  0.9139
    1SOL    HW3 2719   3.135   4.262   1.057 -0.1419  1.8480 -0.2535
    1SOL    MW4 2720   3.146   4.274   1.142 -0.4616  0.4110 -0.0007
    1SOL     OW 2721   3.368   4.425   1.220  0.0949  0.6398  0.4882
    1SOL    HW2 2722   3.457   4.406   1.192  0.7514  1.0792  2.2180
    1SOL    HW3 2723   3.357   4.519   1.202 -0.2619  0.4446 -0.3409
    1SOL    MW4 2724   3.378   4.435   1.214  0.1342  0.6719  0.6070
    1SOL     OW 2725   3.837   0.012   1.150  0.0405 -0.4465 -0.4028
    1SOL    HW2 2726   3.821  -0.075   1.186  0.0707 -0.7644 -1.1493
    1SOL    HW3 2727   3.826   0.001   1.055 -0.5305  0.4812 -0.4541
    1SOL    MW4 2728   3.833  -0.001   1.142 -0.0308 -0.3662 -0.5082
    1SOL     OW 2729   3.613   0.158   1.214 -0.0551 -0.4717  0.4789
    1SOL    HW2 2730   3.608   0.233   1.156 -2.0661 -0.3602  0.7640
    1SOL    HW3 2731   3.698   0.118   1.195  0.5379  1.2194 -0.4645
    1SOL    MW4 2732   3.623   0.162   1.204 -0.2425 -0.2339  0.3921
    1SOL     OW 2733   3.583   0.392   1.055 -0.3455  0.1519  0.3310
    1SOL    HW2 2734   3.660   0.426   1.101 -0.1441 -1.3031  1.1046
    1SOL    HW3 2735   3.509   0.429   1.101 -0.1147  0.3703  0.5248
    1SOL    MW4 2736   3.583   0.401   1.067 -0.2885 -0.0113  0.4587
    1SOL     OW 2737   3.806   0.479   1.212 -0.3388  0.1283  0.0704
    1SOL    HW2 2738   3.886   0.440   1.178 -1.0463 -1.4274  0.1275
    1SOL    HW3 2739   3.811   0.571   1.188  0.7208 -0.2821 -1.3177
    1SOL    MW4 2740   3.817   0.486   1.205 -0.2923 -0.1311 -0.1051
    1SOL     OW 2741   3.823   0.746   1.152  0.3867 -0.1632  0.2554
    1SOL    HW2 2742   3.913   0.775   1.167  0.2199  0.4276  0.1341
    1SOL    HW3 2743   3.769   0.817   1.186 -0.0195  0.0321 -0.7650
    1SOL    MW4 2744   3.828   0.760   1.158  0.3111 -0.0594  0.1048
    1SOL     OW 2745   3.586   0.902   1.226  0.3382  0.2361 -0.1649
    1SOL    HW2 2746   3.556   0.988   1.197  0.6378  0.0986 -0.8727
    1SOL    HW3 2747   3.512   0.844   1.208  0.3476  0.2405 -0.2186
    1SOL    MW4 2748   3.572   0.906   1.220  0.3791  0.2185 -0.2654
    1SOL     OW 2749   3.561   1.152   1.093  0.2408  0.1373 -0.1342
    1SOL    HW2 2750   3.638   1.194   1.130 -0.4057  0.2975  1.0696
    1SOL    HW3 2751   3.488   1.209   1.118 -0.4433 -0.7941  0.0216
    1SOL    MW4 2752   3.561   1.165   1.101  0.0651  0.0355  0.0452
    1SOL     OW 2753   3.797   1.260   1.181 -0.2884  0.2020 -0.0058
    1SOL    HW2 2754   3.807   1.268   1.276  0.4474  1.2619 -0.1712
    1SOL    HW3 2755   3.798   1.350   1.149 -2.7546 -0.0229 -0.8077
    1SOL    MW4 2756   3.799   1.273   1.190 -0.5167  0.3122 -0.1334
    1SOL     OW 2757   3.798   1.532   1.100  0.1557 -0.2947 -0.0832
    1SOL    HW2 2758   3.884   1.545   1.140 -0.1783 -0.8424  0.8364
    1SOL    HW3 2759   3.817   1.522   1.007  1.0044  0.4303  0.0014
    1SOL    MW4 2760   3.812   1.532   1.093  0.2234 -0.2713  0.0492
    1SOL     OW 2761   3.589   1.669   1.229  0.8998 -0.0796 -0.0422
    1SOL    HW2 2762   3.611   1.757   1.199 -2.6429 -0.1420 -3.0982
    1SOL    HW3 2763   3.655   1.613   1.190 -0.0779  0.5887 -2.7171
    1SOL    MW4 2764   3.601   1.674   1.220  0.3033  0.0004 -0.7981
    1SOL     OW 2765   3.576   1.929   1.102 -0.3382 -0.1939 -0.1760
    1SOL    HW2 2766   3.657   1.979   1.113 -0.4604 -0.3055  1.3533
    1SOL    HW3 2767   3.586   1.885   1.018  0.4290  1.1883 -0.8148
    1SOL    MW4 2768   3.588   1.930   1.092 -0.2532 -0.0263 -0.0585
    1SOL     OW 2769   3.822   2.040   1.171  0.0792 -0.1016  0.1421
    1SOL    HW2 2770   3.806   2.049   1.265  0.3463 -0.1995  0.1964
    1SOL    HW3 2771   3.902   1.988   1.165 -1.3705 -2.4227 -0.1377
    1SOL    MW4 2772   3.830   2.034   1.182 -0.0765 -0.4208  0.1123
    1SOL     OW 2773   3.790   2.305   1.084 -0.3567  0.0370  0.2735
    1SOL    HW2 2774   3.860   2.358   1.123 -0.8649  0.5239  0.5331
    1SOL    HW3 2775   3.813   2.215   1.107  1.6254 -0.0547 -1.9571
    1SOL    MW4 2776   3.802   2.300   1.092 -0.1624  0.0892  0.0135
    1SOL     OW 2777   3.553   2.439   1.208 -0.2959 -0.2482 -0.0749
    1SOL    HW2 2778   3.556   2.415   1.300  0.0884 -0.6071 -0.1810
    1SOL    HW3 2779   3.621   2.386   1.166  1.3629  1.8255 -0.1080
    1SOL    MW4 2780   3.563   2.429   1.214 -0.0267 -0.0222 -0.0932
    1SOL     OW 2781   3.586   2.716   1.143  0.0224  0.1345 -0.1776
    1SOL    HW2 2782   3.588   2.623   1.165  0.6307 -0.0022 -0.7928
    1SOL    HW3 2783   3.506   2.749   1.184 -0.1989 -0.6626  0.0327
    1SOL    MW4 2784   3.575   2.708   1.151  0.0734  0.0117 -0.2310
    1SOL     OW 2785   3.816   2.850   1.234 -0.2626  0.4428 -0.0396
    1SOL    HW2 2786   3.807   2.841   1.329  1.5599  1.7269  0.2652
    1SOL    HW3 2787   3.744   2.797   1.198 -0.3205 -0.9268  2.0271
    1SOL    MW4 2788   3.805   2.842   1.242 -0.0298  0.4315  0.2733
    1SOL     OW 2789   3.810   3.135   1.163 -0.0032  0.0711 -0.0848
    1SOL    HW2 2790   3.797   3.047   1.196  1.1440  0.6589  2.0400
    1SOL    HW3 2791   3.823   3.124   1.069 -0.3258 -1.9642  0.0887
    1SOL    MW4 2792   3.810   3.122   1.155  0.1056 -0.1202  0.2185
    1SOL     OW 2793   3.574   3.280   1.226  0.1569  0.1365  0.2369
    1SOL    HW2 2794   3.575   3.345   1.156  1.3500  0.6703  0.7271
    1SOL    HW3 2795   3.658   3.235   1.217  1.0240  1.2938  2.3048
    1SOL    MW4 2796   3.585   3.282   1.216  0.4287  0.3593  0.5742
    1SOL     OW 2797   3.566   3.505   1.065 -0.3052 -0.1093 -0.0765
    1SOL    HW2 2798   3.645   3.535   1.110 -0.6620 -0.3751  0.7503
    1SOL    HW3 2799   3.585   3.517   0.972  0.4118  0.5481  0.1465
    1SOL    MW4 2800   3.579   3.511   1.059 -0.2577 -0.0575  0.0620
    1SOL     OW 2801   3.801   3.608   1.212  0.1974 -0.2990 -0.0430
    1SOL    HW2 2802   3.804   3.619   1.307  0.3853  1.4816 -0.2400
    1SOL    HW3 2803   3.809   3.697   1.178 -0.0688 -0.9144 -1.7223
    1SOL    MW4 2804   3.802   3.621   1.220  0.1869 -0.1450 -0.2905
    1SOL     OW 2805   3.825   3.870   1.137 -0.8224 -0.3147 -0.2364
    1SOL    HW2 2806   3.766   3.930   1.182  0.6775  0.9170  0.0991
    1SOL    HW3 2807   3.824   3.899   1.046 -0.7531 -0.3144 -0.2373
    1SOL    MW4 2808   3.817   3.882   1.131 -0.6151 -0.1521 -0.1922
    1SOL     OW 2809   3.596   4.017   1.236 -0.4008  0.2708 -0.1939
    1SOL    HW2 2810   3.587   4.029   1.331 -2.1687  1.6321 -0.5089
    1SOL    HW3 2811   3.512   3.982   1.208 -0.7868  2.1824 -1.5890
    1SOL    MW4 2812   3.584   4.014   1.245 -0.6847  0.7024 -0.4195
    1SOL     OW 2813   3.598   4.287   1.107 -0.1258  0.1665 -0.1894
    1SOL    HW2 2814   3.572   4.224   1.175 -0.0722 -0.9818 -1.2149
    1SOL    HW3 2815   3.566   4.248   1.026 -0.0456  1.4591 -0.8443
    1SOL    MW4 2816   3.590   4.273   1.106 -0.1080  0.1850 -0.4112
    1SOL     OW 2817   3.827   4.411   1.221  0.1057  0.3005 -0.5542
    1SOL    HW2 2818   3.810   4.424   1.314  1.0651 -0.0404 -0.3285
    1SOL    HW3 2819   3.744   4.377   1.186 -0.4393  0.9930  0.0536
    1SOL    MW4 2820   3.814   4.408   1.229  0.1602  0.3467 -0.4442
    1SOL     OW 2821   4.327   4.636   1.126 -0.0982 -0.4081  0.0167
    1SOL    HW2 2822   4.313   4.543   1.141 -2.0811 -0.2912 -0.9405
    1SOL    HW3 2823   4.243   4.677   1.147  1.1300  1.3349  1.7228
    1SOL    MW4 2824   4.314   4.629   1.131 -0.1974 -0.1631  0.1156
    1SOL     OW 2825   4.087   0.115   1.207  0.1783  0.2089 -0.5323
    1SOL    HW2 2826   4.073   0.128   1.300  1.3899  0.6028 -0.3942
    1SOL    HW3 2827   4.014   0.060   1.179 -1.3076  1.7463  0.2344
    1SOL    MW4 2828   4.075   0.109   1.215  0.1426  0.4637 -0.4131
    1SOL     OW 2829   4.059   0.380   1.112  0.4546 -0.1686 -0.2928
    1SOL    HW2 2830   4.062   0.288   1.136 -1.8462 -0.1067  0.3466
    1SOL    HW3 2831   4.034   0.380   1.020  0.2049 -0.1692 -0.2241
    1SOL    MW4 2832   4.056   0.368   1.103  0.1183 -0.1606 -0.1994
    1SOL     OW 2833   4.299   0.493   1.177  0.2528 -0.1386  0.6180
    1SOL    HW2 2834   4.297   0.500   1.273 -1.8878  0.7221  0.5433
    1SOL    HW3 2835   4.208   0.476   1.153  0.4793  1.3510 -1.3743
    1SOL    MW4 2836   4.286   0.492   1.187  0.0005  0.1715  0.3452
    1SOL     OW 2837   4.284   0.773   1.107 -0.0565 -0.0546  0.6958
    1SOL    HW2 2838   4.293   0.686   1.144 -0.6734 -0.0178  0.9428
    1SOL    HW3 2839   4.259   0.758   1.015 -0.7680 -0.1374  0.9007
    1SOL    MW4 2840   4.282   0.760   1.100 -0.2313 -0.0607  0.7554
    1SOL     OW 2841   4.061   0.880   1.204 -0.3378 -0.3558 -0.2013
    1SOL    HW2 2842   4.074   0.895   1.297  0.5674  0.1517 -0.4019
    1SOL    HW3 2843   4.144   0.845   1.173 -0.3463  0.2755 -0.9711
    1SOL    MW4 2844   4.074   0.877   1.212 -0.2184 -0.2056 -0.3294
    1SOL     OW 2845   4.042   1.140   1.087  0.0357  0.5517 -0.2131
    1SOL    HW2 2846   4.049   1.052   1.123  1.4824  1.0409  0.7800
    1SOL    HW3 2847   3.959   1.173   1.119  0.3447  0.2139  0.9667
    1SOL    MW4 2848   4.032   1.133   1.096  0.2675  0.5718  0.0737
    1SOL     OW 2849   4.285   1.254   1.190  0.6256  0.3620 -0.2712
    1SOL    HW2 2850   4.262   1.272   1.281 -0.5942 -0.5166 -0.3883
    1SOL    HW3 2851   4.201   1.236   1.148  1.2750 -0.1465 -1.3680
    1SOL    MW4 2852   4.271   1.254   1.196  0.5507  0.1791 -0.4314
    1SOL     OW 2853   4.300   1.523   1.098  0.1621  0.3215  0.1422
    1SOL    HW2 2854   4.280   1.436   1.131 -0.7185  0.7441  0.7529
    1SOL    HW3 2855   4.373   1.553   1.153 -1.8751  1.3754  2.3839
    1SOL    MW4 2856   4.307   1.516   1.110 -0.2227  0.5164  0.5184
    1SOL     OW 2857   4.032   1.617   1.227 -0.2132 -0.2120  0.5385
    1SOL    HW2 2858   4.029   1.636   1.321  1.0901  1.8333  0.2011
    1SOL    HW3 2859   4.123   1.594   1.210 -0.5659 -1.1394 -0.1201
    1SOL    MW4 2860   4.043   1.617   1.237 -0.0882 -0.0646  0.4072
    1SOL     OW 2861   4.048   1.891   1.135  0.3995 -0.5173 -0.1010
    1SOL    HW2 2862   4.037   1.806   1.175  0.4220 -0.5364 -0.1353
    1SOL    HW3 2863   4.018   1.879   1.044  1.6439 -0.8256 -0.4831
    1SOL    MW4 2864   4.042   1.878   1.128  0.5660 -0.5604 -0.1560
    1SOL     OW 2865   4.246   2.041   1.238  0.2024 -0.8390  0.0996
    1SOL    HW2 2866   4.228   2.130   1.207  0.4940 -0.1629  1.7821
    1SOL    HW3 2867   4.172   1.989   1.206 -0.5315  0.2359  0.0201
    1SOL    MW4 2868   4.234   2.046   1.230  0.1440 -0.6080  0.3111
    1SOL     OW 2869   4.245   2.331   1.163  0.4002  0.3058 -0.6895
    1SOL    HW2 2870   4.155   2.357   1.178  0.2852  0.2906 -1.3641
    1SOL    HW3 2871   4.256   2.333   1.068  1.4846  1.5554 -0.5549
    1SOL    MW4 2872   4.235   2.335   1.153  0.5283  0.4687 -0.7608
    1SOL     OW 2873   3.992   2.434   1.220 -0.0519 -0.0272 -0.0990
    1SOL    HW2 2874   3.979   2.437   1.314  0.9241 -0.0332  0.0339
    1SOL    HW3 2875   4.021   2.522   1.197 -0.5630  0.0584 -0.4417
    1SOL    MW4 2876   3.994   2.446   1.229  0.0095 -0.0167 -0.1266
    1SOL     OW 2877   4.044   2.702   1.136  0.0362  0.1410  0.0911
    1SOL    HW2 2878   3.957   2.732   1.165 -1.0224 -2.1862 -0.6061
    1SOL    HW3 2879   4.045   2.719   1.042 -0.4913 -1.7635 -0.2730
    1SOL    MW4 2880   4.033   2.708   1.127 -0.1731 -0.4172 -0.0489
    1SOL     OW 2881   4.260   2.838   1.208 -0.3557 -0.7871  0.0557
    1SOL    HW2 2882   4.259   2.923   1.165 -0.8305 -0.9125 -0.1862
    1SOL    HW3 2883   4.181   2.794   1.176 -0.6064 -0.9577  0.8930
    1SOL    MW4 2884   4.249   2.843   1.198 -0.4511 -0.8259  0.1342
    1SOL     OW 2885   4.260   3.099   1.133 -0.1638  0.1940 -0.2909
    1SOL    HW2 2886   4.185   3.153   1.160 -1.2627 -0.8764 -1.1752
    1SOL    HW3 2887   4.258   3.101   1.038  0.3524 -0.6596 -0.3232
    1SOL    MW4 2888   4.250   3.107   1.124 -0.2408 -0.0596 -0.4119
    1SOL     OW 2889   4.045   3.236   1.233 -0.1502  0.4994  0.0935
    1SOL    HW2 2890   4.048   3.209   1.325 -0.1174 -1.1376 -0.3691
    1SOL    HW3 2891   3.961   3.202   1.201  0.8020 -0.8510 -1.0405
    1SOL    MW4 2892   4.034   3.228   1.241 -0.0200  0.1054 -0.1171
    1SOL     OW 2893   4.057   3.516   1.150  0.4724  0.1155 -0.3654
    1SOL    HW2 2894   4.060   3.422   1.168  0.5414 -0.3698 -2.8252
    1SOL    HW3 2895   3.973   3.545   1.187 -0.6504 -1.3689 -1.7313
    1SOL    MW4 2896   4.046   3.508   1.157  0.3333 -0.1442 -0.8701
    1SOL     OW 2897   4.288   3.634   1.240 -0.4320  0.1099 -0.2142
    1SOL    HW2 2898   4.215   3.581   1.209  1.0282 -1.8490 -0.3989
    1SOL    HW3 2899   4.365   3.578   1.229  0.7810  1.1846  2.3424
    1SOL    MW4 2900   4.288   3.620   1.235 -0.0796 -0.0069  0.0986
    1SOL     OW 2901   4.280   3.846   1.053  0.4052 -0.1575  0.1662
    1SOL    HW2 2902   4.206   3.886   1.099  0.7656  0.3895  0.2645
    1SOL    HW3 2903   4.289   3.759   1.094  0.0447 -0.0852  0.4009
    1SOL    MW4 2904   4.271   3.840   1.065  0.4053 -0.0758  0.2102
    1SOL     OW 2905   4.077   3.966   1.221 -0.1367 -0.1561  0.2275
    1SOL    HW2 2906   4.067   4.056   1.190  0.6560 -0.2604 -0.3460
    1SOL    HW3 2907   3.997   3.922   1.193 -0.4905  0.3490  0.4396
    1SOL    MW4 2908   4.065   3.972   1.213 -0.0787 -0.1035  0.1799
    1SOL     OW 2909   4.028   4.224   1.130  0.1134  0.2600 -0.3846
    1SOL    HW2 2910   3.965   4.271   1.186  1.2150  0.8655  0.3630
    1SOL    HW3 2911   4.013   4.260   1.043 -1.2026 -0.2544 -0.3850
    1SOL    MW4 2912   4.017   4.235   1.126  0.0849  0.2723 -0.2862
    1SOL     OW 2913   4.271   4.381   1.197  0.1648 -0.0052  0.2306
    1SOL    HW2 2914   4.197   4.327   1.168 -0.2503  0.7632 -0.1736
    1SOL    HW3 2915   4.348   4.341   1.158 -0.0658 -0.6859  0.4698
    1SOL    MW4 2916   4.271   4.369   1.188  0.0792  0.0062  0.2089
    1SOL     OW 2917   0.229   4.583   1.618 -0.2421  0.0415  0.1353
    1SOL    HW2 2918   0.303   4.630   1.581 -0.5158 -0.1742 -0.7065
    1SOL    HW3 2919   0.152   4.635   1.593 -0.4420 -0.1531  0.3336
    1SOL    MW4 2920   0.228   4.596   1.610 -0.3046 -0.0129  0.0504
    1SOL     OW 2921   0.013   0.070   1.519 -0.2898  0.2467 -0.3563
    1SOL    HW2 2922  -0.072   0.040   1.549  0.3299 -1.1431  0.0311
    1SOL    HW3 2923   0.004   0.078   1.424 -1.6530  2.7513 -0.0815
    1SOL    MW4 2924   0.001   0.067   1.510 -0.3879  0.3938 -0.2691
    1SOL     OW 2925   4.489   0.348   1.558 -0.1444 -0.1355  0.0796
    1SOL    HW2 2926   4.456   0.354   1.648  0.2709  0.4455  0.1992
    1SOL    HW3 2927   4.508   0.255   1.546  0.2423 -0.1518  0.7631
    1SOL    MW4 2928   4.487   0.337   1.568 -0.0386 -0.0610  0.1856
    1SOL     OW 2929   0.214   0.488   1.494  0.2292  0.0196 -0.3236
    1SOL    HW2 2930   0.139   0.439   1.527  2.0750 -4.1139 -1.8958
    1SOL    HW3 2931   0.201   0.490   1.399  0.9038  1.4703 -0.3998
    1SOL    MW4 2932   0.202   0.482   1.486  0.5617 -0.3344 -0.5411
    1SOL     OW 2933   0.256   0.751   1.591  0.0396 -0.0559 -0.1730
    1SOL    HW2 2934   0.325   0.797   1.542  0.2146  0.3492  0.4457
    1SOL    HW3 2935   0.267   0.659   1.568  1.8600 -0.2090  1.2148
    1SOL    MW4 2936   0.267   0.745   1.582  0.3029 -0.0226  0.0918
    1SOL     OW 2937   0.008   0.861   1.507  0.1436  0.6382  0.4899
    1SOL    HW2 2938   0.009   0.953   1.535  0.1462  0.2213  1.8824
    1SOL    HW3 2939   0.089   0.825   1.541 -0.0347  0.0278  0.2672
    1SOL    MW4 2940   0.019   0.868   1.515  0.1205  0.5026  0.6443
    1SOL     OW 2941   4.482   1.131   1.567  0.2327  0.0267 -0.0795
    1SOL    HW2 2942   4.494   1.128   1.662  0.5984  0.9130 -0.0849
    1SOL    HW3 2943   4.570   1.140   1.532  0.1556 -0.9975 -0.5463
    1SOL    MW4 2944   4.495   1.132   1.575  0.2708  0.0083 -0.1419
    1SOL     OW 2945   0.252   1.231   1.483  0.4526  0.3530  0.0146
    1SOL    HW2 2946   0.238   1.315   1.526  0.2098  0.4077 -0.1772
    1SOL    HW3 2947   0.264   1.252   1.391 -0.0567  0.1341 -0.0998
    1SOL    MW4 2948   0.252   1.244   1.477  0.3534  0.3313 -0.0259
    1SOL     OW 2949   0.249   1.497   1.591  0.3556  0.3810 -0.2999
    1SOL    HW2 2950   0.255   1.518   1.684  2.3232  0.3223 -0.4051
    1SOL    HW3 2951   0.168   1.541   1.563  0.0760  0.9361  1.2814
    1SOL    MW4 2952   0.239   1.506   1.600  0.5783  0.4464 -0.1051
    1SOL     OW 2953   0.005   1.626   1.522 -0.0476 -0.3483  0.1850
    1SOL    HW2 2954   0.005   1.717   1.551  1.7599 -0.3505  0.2192
    1SOL    HW3 2955   0.022   1.631   1.428  2.1585 -0.7263  0.5342
    1SOL    MW4 2956   0.007   1.639   1.514  0.4821 -0.3986  0.2357
    1SOL     OW 2957   0.035   1.914   1.576  0.2249  0.0524  0.2759
    1SOL    HW2 2958   0.047   1.913   1.671  0.8415  1.4511  0.2221
    1SOL    HW3 2959  -0.057   1.938   1.564  0.1473 -0.1223  0.5196
    1SOL    MW4 2960   0.024   1.917   1.587  0.2960  0.2139  0.3010
    1SOL     OW 2961   0.265   2.055   1.495 -0.0044 -0.3179 -0.3228
    1SOL    HW2 2962   0.186   2.005   1.513 -0.1607  0.0759  0.0894
    1SOL    HW3 2963   0.259   2.078   1.402 -1.5828  1.8381  0.2928
    1SOL    MW4 2964   0.254   2.051   1.485 -0.2333  0.0188 -0.1872
    1SOL     OW 2965   0.250   2.296   1.629  0.0044 -0.5821  0.1633
    1SOL    HW2 2966   0.239   2.272   1.721 -1.7458 -1.7022 -0.3275
    1SOL    HW3 2967   0.244   2.213   1.582  0.5127  0.0386 -1.0150
    1SOL    MW4 2968   0.248   2.282   1.635 -0.1594 -0.6478 -0.0570
    1SOL     OW 2969   4.488   2.445   1.521 -0.1314  0.3726 -0.5599
    1SOL    HW2 2970   4.416   2.387   1.547 -0.4996  1.2494  0.3817
    1SOL    HW3 2971   4.562   2.415   1.574 -0.3980  0.9511  0.1410
    1SOL    MW4 2972   4.488   2.433   1.531 -0.2151  0.5648 -0.3432
    1SOL     OW 2973   4.473   2.712   1.588  0.5574  0.2427 -0.0075
    1SOL    HW2 2974   4.391   2.755   1.561  0.2371  0.5974  1.5221
    1SOL    HW3 2975   4.458   2.619   1.570 -0.9946  0.0214  2.2228
    1SOL    MW4 2976   4.460   2.705   1.582  0.3104  0.2601  0.4885
    1SOL     OW 2977   0.250   2.828   1.528 -0.4747  0.0281  0.9571
    1SOL    HW2 2978   0.315   2.767   1.562 -0.8864  0.4161  2.4869
    1SOL    HW3 2979   0.166   2.783   1.538 -0.4188 -0.6529 -1.4336
    1SOL    MW4 2980   0.247   2.814   1.534 -0.5216 -0.0107  0.8435
    1SOL     OW 2981   0.251   3.090   1.631  0.1091 -0.5833  0.2759
    1SOL    HW2 2982   0.166   3.132   1.618  0.3221 -0.1062  0.4152
    1SOL    HW3 2983   0.243   3.005   1.587 -0.2552 -0.3113 -0.1818
    1SOL    MW4 2984   0.239   3.084   1.623  0.0891 -0.4842  0.2339
    1SOL     OW 2985   0.014   3.228   1.552  0.3244  0.0096 -0.0800
    1SOL    HW2 2986   0.009   3.321   1.574  2.7308  0.3118 -0.7026
    1SOL    HW3 2987  -0.003   3.225   1.458  0.6362 -0.1416 -0.1313
    1SOL    MW4 2988   0.011   3.239   1.542  0.6833  0.0293 -0.1690
    1SOL     OW 2989   4.474   3.496   1.585  0.3360  0.4656  0.0971
    1SOL    HW2 2990   4.460   3.487   1.679  0.2595  0.2164  0.0622
    1SOL    HW3 2991   4.389   3.519   1.550  0.3959  0.7028  0.1078
    1SOL    MW4 2992   4.461   3.498   1.593  0.3338  0.4640  0.0937
    1SOL     OW 2993   0.232   3.634   1.528 -0.2549  0.0844  0.3318
    1SOL    HW2 2994   0.236   3.729   1.538 -0.7694  0.1439 -0.0273
    1SOL    HW3 2995   0.142   3.611   1.553 -0.1935 -0.2835  0.2166
    1SOL    MW4 2996   0.221   3.643   1.533 -0.3147  0.0439  0.2692
    1SOL     OW 2997   0.201   3.893   1.592  0.3394 -0.2463  0.0191
    1SOL    HW2 2998   0.222   3.896   1.686  2.8791 -1.0534 -0.4595
    1SOL    HW3 2999   0.277   3.933   1.550 -1.2457  1.0535 -1.6673
    1SOL    MW4 3000   0.214   3.899   1.599  0.4653 -0.1812 -0.2666
    1SOL     OW 3001   4.453   3.987   1.496 -0.2444 -0.0302 -0.0313
    1SOL    HW2 3002   4.453   4.080   1.522 -0.8908  0.3181 -1.2552
    1SOL    HW3 3003   4.536   3.953   1.530 -0.4355  0.7579  1.2580
    1SOL    MW4 3004   4.464   3.995   1.504 -0.3548  0.1197 -0.0228
    1SOL     OW 3005   4.450   4.249   1.578  0.0872  0.2479 -0.4217
    1SOL    HW2 3006   4.457   4.255   1.674  0.7823  1.6190 -0.5451
    1SOL    HW3 3007   4.375   4.304   1.556 -2.8484 -3.4986 -0.3254
    1SOL    MW4 3008   4.441   4.257   1.588 -0.2089 -0.0658 -0.4253
    1SOL     OW 3009   0.160   4.380   1.444  0.0376 -0.3578 -0.3436
    1SOL    HW2 3010   0.091   4.329   1.485  0.1048 -1.3415 -1.4197
    1SOL    HW3 3011   0.165   4.460   1.496 -1.4135 -0.5864  0.1666
    1SOL    MW4 3012   0.152   4.384   1.456 -0.1450 -0.5178 -0.4184
    1SOL     OW 3013   0.653   4.633   1.620 -0.2956  0.4626  0.1698
    1SOL    HW2 3014   0.732   4.682   1.597 -0.6265  0.2912 -1.3917
    1SOL    HW3 3015   0.582   4.679   1.574 -0.8927 -0.2761  0.3313
    1SOL    MW4 3016   0.654   4.646   1.611 -0.4181  0.3424 -0.0149
    1SOL     OW 3017   0.427   0.094   1.539  0.3148  0.5708 -0.1583
    1SOL    HW2 3018   0.429   0.182   1.576 -2.0623  0.6939 -0.2379
    1SOL    HW3 3019   0.406   0.107   1.447 -0.0965 -0.0737 -0.1607
    1SOL    MW4 3020   0.424   0.107   1.532 -0.0531  0.5020 -0.1690
    1SOL     OW 3021   0.439   0.356   1.618  0.2611 -0.0159 -0.2768
    1SOL    HW2 3022   0.513   0.406   1.583  0.6293 -0.3941 -0.0386
    1SOL    HW3 3023   0.362   0.397   1.578  0.4653  1.4805  0.7870
    1SOL    MW4 3024   0.439   0.368   1.608  0.3366  0.1317 -0.1050
    1SOL     OW 3025   0.663   0.489   1.507  0.4719 -0.1377 -0.5358
    1SOL    HW2 3026   0.656   0.583   1.523 -1.2024 -0.1389 -1.1710
    1SOL    HW3 3027   0.671   0.481   1.412  0.0874 -0.6759 -0.5266
    1SOL    MW4 3028   0.663   0.500   1.497  0.2002 -0.2088 -0.6185
    1SOL     OW 3029   0.674   0.746   1.598  0.0270  0.1884  0.0591
    1SOL    HW2 3030   0.681   0.749   1.694  0.3631 -0.6238  0.0622
    1SOL    HW3 3031   0.755   0.786   1.567  0.0482  0.1860  0.1114
    1SOL    MW4 3032   0.685   0.752   1.607  0.0741  0.0809  0.0665
    1SOL     OW 3033   0.464   0.866   1.447 -0.6533  0.2585 -0.0050
    1SOL    HW2 3034   0.463   0.950   1.492  0.5681  0.3584 -0.1454
    1SOL    HW3 3035   0.530   0.814   1.494 -1.2862 -0.5668 -0.0120
    1SOL    MW4 3036   0.472   0.870   1.459 -0.5756  0.1628 -0.0244
    1SOL     OW 3037   0.468   1.095   1.592 -0.3656 -0.1883  0.0612
    1SOL    HW2 3038   0.535   1.157   1.565 -0.1660  0.2205  1.4609
    1SOL    HW3 3039   0.385   1.137   1.567 -0.1335 -0.3998 -1.0710
    1SOL    MW4 3040   0.466   1.109   1.585 -0.3087 -0.1622  0.0964
    1SOL     OW 3041   0.683   1.262   1.531  0.1989  0.4938  0.1386
    1SOL    HW2 3042   0.686   1.350   1.569 -1.7099  0.2990  0.7709
    1SOL    HW3 3043   0.662   1.277   1.438 -0.8073  0.6828  0.3896
    1SOL    MW4 3044   0.681   1.276   1.524 -0.1857  0.4930  0.2550
    1SOL     OW 3045   0.712   1.525   1.633  0.0295  0.3352 -0.5034
    1SOL    HW2 3046   0.782   1.558   1.577 -1.0523  2.1754 -0.8196
    1SOL    HW3 3047   0.632   1.564   1.597 -0.8464  0.4367  1.4783
    1SOL    MW4 3048   0.710   1.535   1.621 -0.2288  0.5913 -0.2836
    1SOL     OW 3049   0.464   1.616   1.494 -0.4053  0.4475  0.2562
    1SOL    HW2 3050   0.444   1.705   1.522 -0.5670 -0.1071  1.9588
    1SOL    HW3 3051   0.392   1.563   1.529 -0.4841 -0.3210 -1.0108
    1SOL    MW4 3052   0.452   1.621   1.502 -0.4370  0.2729  0.3136
    1SOL     OW 3053   0.446   1.878   1.590  0.6445  0.2605  0.2189
    1SOL    HW2 3054   0.430   1.882   1.684 -0.8188  0.8541 -0.0424
    1SOL    HW3 3055   0.389   1.945   1.553  1.5531  0.3432 -1.0509
    1SOL    MW4 3056   0.437   1.887   1.597  0.5713  0.3498  0.0169
    1SOL     OW 3057   0.645   2.065   1.520 -0.2365  0.3119 -0.1675
    1SOL    HW2 3058   0.728   2.029   1.551  0.1297  1.1397 -0.1773
    1SOL    HW3 3059   0.580   1.998   1.542  0.3745 -0.1677  0.1915
    1SOL    MW4 3060   0.647   2.052   1.527 -0.1076  0.3581 -0.1215
    1SOL     OW 3061   0.679   2.336   1.616  0.0011 -0.1085  0.1524
    1SOL    HW2 3062   0.615   2.391   1.571  1.0005  0.8508 -0.1293
    1SOL    HW3 3063   0.665   2.248   1.579  0.1866  0.4906 -1.3610
    1SOL    MW4 3064   0.669   2.331   1.605  0.1574  0.0970 -0.0844
    1SOL     OW 3065   0.444   2.435   1.481  0.3333  0.3853  0.0390
    1SOL    HW2 3066   0.453   2.510   1.540 -0.1491  0.6140 -0.1742
    1SOL    HW3 3067   0.374   2.382   1.519 -0.1934  0.6931 -0.4884
    1SOL    MW4 3068   0.436   2.438   1.494  0.2002  0.4559 -0.0587
    1SOL     OW 3069   0.474   2.678   1.636  0.1173  0.1681 -0.2383
    1SOL    HW2 3070   0.450   2.693   1.728 -0.0102  0.5181 -0.3299
    1SOL    HW3 3071   0.547   2.737   1.620 -1.1236  1.5550 -0.9276
    1SOL    MW4 3072   0.480   2.687   1.646 -0.0632  0.3970 -0.3413
    1SOL     OW 3073   0.700   2.810   1.527 -0.0650  0.0533  0.3337
    1SOL    HW2 3074   0.687   2.903   1.542 -0.7745 -0.1426  0.9468
    1SOL    HW3 3075   0.671   2.796   1.436 -1.1176  0.2056  0.6430
    1SOL    MW4 3076   0.694   2.820   1.517 -0.2975  0.0474  0.4554
    1SOL     OW 3077   0.679   3.112   1.625  0.4888  0.3457  0.1659
    1SOL    HW2 3078   0.750   3.163   1.586 -0.1412  0.2492 -1.1476
    1SOL    HW3 3079   0.600   3.162   1.606  0.2064  0.5129  1.7262
    1SOL    MW4 3080   0.678   3.125   1.617  0.3685  0.3550  0.1984
    1SOL     OW 3081   0.440   3.258   1.523 -0.2415 -0.0495 -0.4323
    1SOL    HW2 3082   0.378   3.196   1.561  0.0341 -0.3800 -0.5087
    1SOL    HW3 3083   0.448   3.231   1.431  0.6875 -0.5773 -0.2111
    1SOL    MW4 3084   0.433   3.246   1.516 -0.0826 -0.1628 -0.4132
    1SOL     OW 3085   0.449   3.512   1.640  0.2908 -0.2686  0.2692
    1SOL    HW2 3086   0.459   3.428   1.597 -1.7682 -0.6909  0.5733
    1SOL    HW3 3087   0.371   3.550   1.600  0.7144  1.1293  0.7419
    1SOL    MW4 3088   0.440   3.506   1.629  0.0750 -0.1400  0.3717
    1SOL     OW 3089   0.627   3.605   1.458 -0.3268 -0.1073 -0.0411
    1SOL    HW2 3090   0.706   3.573   1.501 -0.0138  0.2224 -0.3598
    1SOL    HW3 3091   0.555   3.571   1.510  0.0094 -1.1152 -0.2388
    1SOL    MW4 3092   0.628   3.597   1.470 -0.2412 -0.1967 -0.1092
    1SOL     OW 3093   0.652   3.857   1.566  0.1044 -0.2745 -0.2975
    1SOL    HW2 3094   0.740   3.877   1.536 -0.1770  0.2538 -0.7789
    1SOL    HW3 3095   0.642   3.763   1.550  0.6445 -0.3703 -0.0707
    1SOL    MW4 3096   0.662   3.847   1.560  0.1385 -0.2174 -0.3310
    1SOL     OW 3097   0.426   4.002   1.454 -0.4119 -0.1175 -0.3470
    1SOL    HW2 3098   0.507   3.969   1.492 -0.3568  1.0739  0.5772
    1SOL    HW3 3099   0.451   4.037   1.369 -0.1253 -0.6226 -0.4707
    1SOL    MW4 3100   0.440   4.002   1.448 -0.3668 -0.0267 -0.2414
    1SOL     OW 3101   0.385   4.255   1.584 -0.0458  0.0815 -0.0125
    1SOL    HW2 3102   0.371   4.167   1.549 -0.9546 -0.1673  0.9240
    1SOL    HW3 3103   0.320   4.309   1.539 -1.2753 -0.2560  1.2977
    1SOL    MW4 3104   0.374   4.250   1.574 -0.3279  0.0043  0.2838
    1SOL     OW 3105   0.648   4.343   1.537 -0.4073  0.5283 -0.0827
    1SOL    HW2 3106   0.565   4.310   1.572  0.4684 -0.0806  1.5036
    1SOL    HW3 3107   0.668   4.420   1.591 -0.2341  1.0091 -0.8368
    1SOL    MW4 3108   0.640   4.349   1.549 -0.2688  0.5116  0.0269
    1SOL     OW 3109   1.099   4.595   1.580 -0.4327 -0.0696 -0.4493
    1SOL    HW2 3110   1.107   4.594   1.676 -1.2519  0.3147 -0.3723
    1SOL    HW3 3111   1.182   4.630   1.549 -0.0576 -0.4601  0.1105
    1SOL    MW4 3112   1.111   4.599   1.589 -0.4911 -0.0701 -0.3653
    1SOL     OW 3113   0.886   0.098   1.512 -0.0240  0.2445  0.4710
    1SOL    HW2 3114   0.908   0.186   1.541  0.8814 -0.4984  2.0998
    1SOL    HW3 3115   0.961   0.044   1.537 -1.3015 -1.3052  1.0907
    1SOL    MW4 3116   0.899   0.102   1.519 -0.0731 -0.0580  0.7675
    1SOL     OW 3117   0.906   0.357   1.578  0.0425  0.2605 -0.1034
    1SOL    HW2 3118   0.909   0.369   1.673  1.0301  0.0518 -0.1065
    1SOL    HW3 3119   0.826   0.402   1.551 -1.0640 -0.9844  1.0158
    1SOL    MW4 3120   0.895   0.365   1.587  0.0268  0.0687  0.0437
    1SOL     OW 3121   1.120   0.481   1.475  0.3355 -0.4151 -0.3437
    1SOL    HW2 3122   1.110   0.570   1.508 -0.0874  0.2014 -2.1047
    1SOL    HW3 3123   1.043   0.434   1.509  0.4082 -0.0449  0.3423
    1SOL    MW4 3124   1.109   0.486   1.484  0.2893 -0.2849 -0.4855
    1SOL     OW 3125   1.098   0.735   1.615 -0.1711  0.2995  0.3410
    1SOL    HW2 3126   1.099   0.724   1.710  0.4120 -0.2992  0.2776
    1SOL    HW3 3127   1.165   0.801   1.598  0.1404 -0.0195  0.3079
    1SOL    MW4 3128   1.107   0.742   1.626 -0.0533  0.1783  0.3282
    1SOL     OW 3129   0.901   0.897   1.502 -0.1415 -0.3659 -0.0935
    1SOL    HW2 3130   0.975   0.842   1.526  0.7893  0.9466  0.0987
    1SOL    HW3 3131   0.898   0.892   1.406  1.6441  1.3814 -0.2716
    1SOL    MW4 3132   0.910   0.889   1.492  0.2169  0.0378 -0.0916
    1SOL     OW 3133   0.919   1.134   1.650  0.0225  0.0279 -0.1433
    1SOL    HW2 3134   0.912   1.045   1.617  3.0133  0.4168 -1.9828
    1SOL    HW3 3135   0.835   1.174   1.628 -0.5827 -1.7426 -1.1512
    1SOL    MW4 3136   0.907   1.128   1.643  0.3373 -0.1544 -0.5189
    1SOL     OW 3137   1.143   1.276   1.552 -0.1214 -0.0205  0.1962
    1SOL    HW2 3138   1.217   1.220   1.577  0.6756  1.0083  0.1631
    1SOL    HW3 3139   1.065   1.226   1.578  0.6287 -0.0018  2.6269
    1SOL    MW4 3140   1.142   1.262   1.559  0.0827  0.1177  0.5125
    1SOL     OW 3141   1.116   1.538   1.631 -0.1098 -0.1127  0.7218
    1SOL    HW2 3142   1.196   1.579   1.597 -0.9858  0.7229 -0.3597
    1SOL    HW3 3143   1.120   1.448   1.598  0.2499  0.0029  0.4431
    1SOL    MW4 3144   1.127   1.531   1.622 -0.1779  0.0129  0.5425
    1SOL     OW 3145   0.907   1.672   1.513  0.3061  0.0433 -0.0897
    1SOL    HW2 3146   0.984   1.631   1.552 -0.1001 -0.8891 -0.2629
    1SOL    HW3 3147   0.932   1.690   1.423  0.4041 -0.0160 -0.0739
    1SOL    MW4 3148   0.920   1.669   1.506  0.2655 -0.0876 -0.1104
    1SOL     OW 3149   0.896   1.954   1.608 -0.0512  0.7740 -0.5318
    1SOL    HW2 3150   0.973   1.991   1.566  1.1892 -1.6997 -0.5422
    1SOL    HW3 3151   0.893   1.863   1.577 -2.4109  0.5553  0.2228
    1SOL    MW4 3152   0.906   1.947   1.598 -0.1988  0.4189 -0.4334
    1SOL     OW 3153   1.085   2.087   1.481  0.4081 -0.1755  0.1059
    1SOL    HW2 3154   1.170   2.049   1.504  0.8333  0.2457 -0.7378
    1SOL    HW3 3155   1.084   2.171   1.526 -1.0694 -1.6688  3.0256
    1SOL    MW4 3156   1.096   2.093   1.490  0.2692 -0.3169  0.3798
    1SOL     OW 3157   1.099   2.306   1.642 -0.2105 -0.0558 -0.0847
    1SOL    HW2 3158   1.186   2.340   1.618 -0.3982 -0.2424 -1.0633
    1SOL    HW3 3159   1.038   2.371   1.607 -0.4893 -0.2307  0.0764
    1SOL    MW4 3160   1.103   2.319   1.634 -0.2719 -0.1035 -0.1924
    1SOL     OW 3161   0.910   2.459   1.502  0.0368 -0.1133  0.2612
    1SOL    HW2 3162   0.886   2.547   1.533  0.8985  0.1880  0.0927
    1SOL    HW3 3163   0.839   2.403   1.532 -1.1539  0.8417 -0.6697
    1SOL    MW4 3164   0.897   2.463   1.510 -0.0066  0.0525  0.1162
    1SOL     OW 3165   0.925   2.704   1.644  0.0257  0.0566  0.2039
    1SOL    HW2 3166   0.908   2.708   1.738  1.0156 -0.0679  0.3910
    1SOL    HW3 3167   0.849   2.747   1.604 -0.6214 -0.2994  1.0308
    1SOL    MW4 3168   0.912   2.711   1.651  0.0709 -0.0069  0.3376
    1SOL     OW 3169   1.141   2.821   1.495  0.1857 -0.5081 -0.1273
    1SOL    HW2 3170   1.146   2.914   1.518 -0.9113 -0.1913 -1.1028
    1SOL    HW3 3171   1.066   2.788   1.545 -0.3303 -0.5233 -0.9077
    1SOL    MW4 3172   1.132   2.829   1.505 -0.0272 -0.4687 -0.3589
    1SOL     OW 3173   1.104   3.116   1.550  0.2044  0.2248 -0.1971
    1SOL    HW2 3174   1.115   3.096   1.643  1.2138  0.6884 -0.2082
    1SOL    HW3 3175   1.184   3.162   1.526 -0.4714  0.9516 -1.0724
    1SOL    MW4 3176   1.116   3.119   1.559  0.2484  0.3817 -0.3140
    1SOL     OW 3177   0.870   3.260   1.505  0.5309  0.4637  0.2529
    1SOL    HW2 3178   0.948   3.213   1.534  0.3058  0.6753  1.2202
    1SOL    HW3 3179   0.872   3.254   1.409  1.0318 -0.6438  0.3292
    1SOL    MW4 3180   0.880   3.253   1.496  0.5673  0.3455  0.3906
    1SOL     OW 3181   0.860   3.495   1.619  0.2235  0.1926 -0.5122
    1SOL    HW2 3182   0.931   3.538   1.572  1.7669 -0.8484  0.8052
    1SOL    HW3 3183   0.856   3.407   1.582 -1.0174  0.5476 -1.2288
    1SOL    MW4 3184   0.869   3.489   1.608  0.2634  0.1023 -0.4330
    1SOL     OW 3185   1.125   3.600   1.497  0.0978 -0.2029 -0.3112
    1SOL    HW2 3186   1.194   3.548   1.538  0.8322  0.7535 -0.3026
    1SOL    HW3 3187   1.129   3.577   1.404  1.5985  1.1042 -0.6012
    1SOL    MW4 3188   1.135   3.590   1.490  0.3926  0.0956 -0.3483
    1SOL     OW 3189   1.106   3.859   1.592  0.1520 -0.3770 -0.1087
    1SOL    HW2 3190   1.172   3.917   1.557 -0.2921 -0.2090 -0.6705
    1SOL    HW3 3191   1.138   3.771   1.573 -0.3554 -0.2827 -1.4322
    1SOL    MW4 3192   1.119   3.855   1.585  0.0265 -0.3424 -0.3574
    1SOL     OW 3193   0.880   3.952   1.457 -0.1116  0.1785 -0.0807
    1SOL    HW2 3194   0.869   4.036   1.501 -1.9549  0.1652 -0.4648
    1SOL    HW3 3195   0.956   3.912   1.499 -0.0812  1.4309  1.0743
    1SOL    MW4 3196   0.889   3.958   1.469 -0.3508  0.3421  0.0209
    1SOL     OW 3197   0.881   4.187   1.596  0.0580  0.5216 -0.2371
    1SOL    HW2 3198   0.885   4.194   1.692  1.9648 -0.6509 -0.2088
    1SOL    HW3 3199   0.801   4.233   1.573 -1.1951 -0.3958  2.0443
    1SOL    MW4 3200   0.871   4.194   1.606  0.1442  0.2465  0.0677
    1SOL     OW 3201   1.067   4.342   1.454 -0.4155  0.2838  0.0728
    1SOL    HW2 3202   0.999   4.299   1.506  0.4102 -0.0317  0.9127
    1SOL    HW3 3203   1.084   4.424   1.500  0.1694  0.0996  0.1972
    1SOL    MW4 3204   1.061   4.347   1.467 -0.2294  0.2179  0.2000
    1SOL     OW 3205   1.599   4.628   1.599 -0.0168 -0.2016  0.3455
    1SOL    HW2 3206   1.593   4.614   1.693  0.2932  0.2024  0.4250
    1SOL    HW3 3207   1.524   4.685   1.579  1.4022  1.8506  0.7639
    1SOL    MW4 3208   1.588   4.634   1.609  0.2112  0.1225  0.4113
    1SOL     OW 3209   1.337   0.061   1.483  0.1847 -0.3149  0.0474
    1SOL    HW2 3210   1.328   0.148   1.521  0.5655 -0.6708  0.9688
    1SOL    HW3 3211   1.327   0.075   1.389  0.5665  0.7705  0.1594
    1SOL    MW4 3212   1.335   0.074   1.476  0.2853 -0.2186  0.1837
    1SOL     OW 3213   1.309   0.318   1.573 -0.7597  0.0541  0.1224
    1SOL    HW2 3214   1.392   0.349   1.536 -0.6779  1.2971  1.3332
    1SOL    HW3 3215   1.243   0.378   1.538 -0.9032  0.1919  0.6233
    1SOL    MW4 3216   1.311   0.330   1.563 -0.7678  0.2363  0.3483
    1SOL     OW 3217   1.543   0.455   1.505 -0.0139  0.7042 -0.1164
    1SOL    HW2 3218   1.630   0.447   1.542 -0.1469  2.2021  0.5812
    1SOL    HW3 3219   1.558   0.477   1.413  0.3168 -2.9103 -0.9803
    1SOL    MW4 3220   1.556   0.457   1.498  0.0120  0.4249 -0.1384
    1SOL     OW 3221   1.524   0.707   1.617  0.6933  0.3302  0.5885
    1SOL    HW2 3222   1.523   0.715   1.712 -0.5228  1.4417  0.4937
    1SOL    HW3 3223   1.524   0.613   1.601  0.0425  0.1369  1.6841
    1SOL    MW4 3224   1.524   0.696   1.627  0.4469  0.4513  0.7205
    1SOL     OW 3225   1.318   0.872   1.519  0.1710  0.2620  0.4223
    1SOL    HW2 3226   1.383   0.809   1.551 -0.0416  0.2912  0.9211
    1SOL    HW3 3227   1.319   0.861   1.424  1.1884  0.5339  0.3921
    1SOL    MW4 3228   1.327   0.862   1.511  0.2772  0.3018  0.4841
    1SOL     OW 3229   1.363   1.117   1.629  0.5156  0.5158 -0.4127
    1SOL    HW2 3230   1.346   1.121   1.723  0.8133  0.2018 -0.3428
    1SOL    HW3 3231   1.365   1.023   1.609 -0.3831  0.5911 -0.8853
    1SOL    MW4 3232   1.361   1.105   1.639  0.4363  0.4843 -0.4660
    1SOL     OW 3233   1.582   1.283   1.513 -0.3471  0.1244  0.3371
    1SOL    HW2 3234   1.512   1.227   1.547  0.4979 -0.9831  0.2898
    1SOL    HW3 3235   1.566   1.286   1.418 -0.3546 -0.0921  0.3310
    1SOL    MW4 3236   1.570   1.276   1.505 -0.2365 -0.0503  0.3301
    1SOL     OW 3237   1.533   1.543   1.641 -0.8267  0.0131  0.2232
    1SOL    HW2 3238   1.527   1.534   1.736  1.4814 -1.2183  0.2872
    1SOL    HW3 3239   1.559   1.457   1.609  2.3604  1.3734 -1.1060
    1SOL    MW4 3240   1.536   1.531   1.649 -0.1016  0.0300  0.0563
    1SOL     OW 3241   1.325   1.679   1.515  0.3617  0.6852 -0.7722
    1SOL    HW2 3242   1.397   1.625   1.548 -0.7042 -0.9482 -1.0777
    1SOL    HW3 3243   1.328   1.668   1.420 -0.5209  0.3006 -0.7639
    1SOL    MW4 3244   1.335   1.671   1.507  0.1047  0.4189 -0.8113
    1SOL     OW 3245   1.317   1.944   1.587 -0.5383  0.1519 -0.0962
    1SOL    HW2 3246   1.335   1.948   1.681 -0.9320  0.7415 -0.0385
    1SOL    HW3 3247   1.307   1.851   1.568  2.2115 -0.1887 -0.0846
    1SOL    MW4 3248   1.318   1.932   1.597 -0.2275  0.1849 -0.0870
    1SOL     OW 3249   1.537   2.055   1.446 -0.1359 -0.3526 -0.4361
    1SOL    HW2 3250   1.466   2.011   1.492  0.2976  0.8380  1.4352
    1SOL    HW3 3251   1.526   2.029   1.354 -1.7423 -1.8110  0.1365
    1SOL    MW4 3252   1.526   2.046   1.440 -0.2908 -0.3877 -0.1136
    1SOL     OW 3253   1.556   2.306   1.604  0.2675 -0.3727  0.2695
    1SOL    HW2 3254   1.640   2.347   1.586  1.0933 -1.7269  0.9513
    1SOL    HW3 3255   1.560   2.222   1.558 -2.0716  0.9685 -2.5648
    1SOL    MW4 3256   1.567   2.300   1.595  0.0678 -0.3743 -0.0145
    1SOL     OW 3257   1.325   2.424   1.515  0.2236 -0.2979 -0.0916
    1SOL    HW2 3258   1.333   2.510   1.557  2.1245 -0.5151  0.0281
    1SOL    HW3 3259   1.409   2.381   1.532  0.6994 -0.7617 -3.2957
    1SOL    MW4 3260   1.337   2.430   1.523  0.5370 -0.3879 -0.4984
    1SOL     OW 3261   1.348   2.696   1.598  0.4127  0.2018 -0.1503
    1SOL    HW2 3262   1.419   2.747   1.559 -0.7319  3.2391  1.5361
    1SOL    HW3 3263   1.268   2.733   1.559 -0.4190 -0.8679  0.5157
    1SOL    MW4 3264   1.347   2.708   1.588  0.1520  0.4616  0.1600
    1SOL     OW 3265   1.575   2.827   1.495 -0.1684 -0.4289 -0.5353
    1SOL    HW2 3266   1.652   2.775   1.518 -0.6310 -0.9328 -0.1099
    1SOL    HW3 3267   1.577   2.831   1.399  0.7849  0.1807 -0.5019
    1SOL    MW4 3268   1.585   2.821   1.485 -0.1037 -0.4148 -0.4747
    1SOL     OW 3269   1.544   3.069   1.642  0.2791  0.2671  0.5261
    1SOL    HW2 3270   1.620   3.113   1.605  1.1697 -1.7857 -0.2024
    1SOL    HW3 3271   1.553   2.978   1.614 -2.8444  0.1086 -0.2020
    1SOL    MW4 3272   1.555   3.063   1.633 -0.0155 -0.0248  0.3339
    1SOL     OW 3273   1.351   3.193   1.492  0.2597 -0.2722 -0.5459
    1SOL    HW2 3274   1.356   3.284   1.520  0.1491 -0.3119 -0.3999
    1SOL    HW3 3275   1.410   3.146   1.552 -1.2154 -0.6131  0.6550
    1SOL    MW4 3276   1.360   3.199   1.504  0.0503 -0.3226 -0.3680
    1SOL     OW 3277   1.348   3.442   1.574 -0.2155  0.2108 -0.1001
    1SOL    HW2 3278   1.342   3.433   1.669 -3.1203  0.2697 -0.2473
    1SOL    HW3 3279   1.425   3.498   1.560  0.9576 -0.8099  2.1302
    1SOL    MW4 3280   1.358   3.448   1.585 -0.4438  0.0842  0.1746
    1SOL     OW 3281   1.552   3.605   1.490  0.2001 -0.1596  0.2643
    1SOL    HW2 3282   1.559   3.698   1.510 -0.7626  0.0006 -0.1443
    1SOL    HW3 3283   1.552   3.601   1.395 -0.6729 -0.5141  0.2803
    1SOL    MW4 3284   1.553   3.616   1.480 -0.0421 -0.1853  0.2126
    1SOL     OW 3285   1.539   3.880   1.560  0.0045  0.5137  0.1029
    1SOL    HW2 3286   1.513   3.849   1.647  1.4140  0.8124  0.6370
    1SOL    HW3 3287   1.464   3.932   1.531 -1.2988 -1.2044  0.2886
    1SOL    MW4 3288   1.525   3.883   1.568  0.0184  0.3264  0.1980
    1SOL     OW 3289   1.310   4.005   1.486  0.5147 -0.2886 -0.2207
    1SOL    HW2 3290   1.314   4.096   1.514 -1.8088 -0.0587 -0.5965
    1SOL    HW3 3291   1.315   4.009   1.391  0.5189 -0.5607 -0.2322
    1SOL    MW4 3292   1.311   4.017   1.477  0.2087 -0.2942 -0.2718
    1SOL     OW 3293   1.319   4.282   1.583  0.0799 -0.2305 -0.6678
    1SOL    HW2 3294   1.385   4.330   1.533  0.9441  0.3815  1.0333
    1SOL    HW3 3295   1.236   4.308   1.543  0.7387  0.2737 -1.7492
    1SOL    MW4 3296   1.317   4.292   1.571  0.2809 -0.0839 -0.5862
    1SOL     OW 3297   1.553   4.392   1.460 -0.5806  0.1307  0.1340
    1SOL    HW2 3298   1.623   4.333   1.487 -0.8805 -0.2209  0.1457
    1SOL    HW3 3299   1.577   4.477   1.498  0.2234  0.1889 -0.4828
    1SOL    MW4 3300   1.565   4.396   1.468 -0.5140  0.0916  0.0540
    1SOL     OW 3301   2.000   0.018   1.635  0.1282 -0.5622 -0.4674
    1SOL    HW2 3302   1.987  -0.008   1.726 -0.7468 -2.3116 -1.0618
    1SOL    HW3 3303   1.920   0.065   1.611 -0.2234 -1.2754 -0.7157
    1SOL    MW4 3304   1.988   0.021   1.644 -0.0336 -0.8871 -0.5785
    1SOL     OW 3305   1.777   0.134   1.513 -0.3799  0.0270 -0.2049
    1SOL    HW2 3306   1.703   0.080   1.538 -0.3819 -0.2942 -0.8775
    1SOL    HW3 3307   1.773   0.137   1.417  0.0333  0.6312 -0.2087
    1SOL    MW4 3308   1.767   0.128   1.503 -0.3256  0.0643 -0.2941
    1SOL     OW 3309   1.779   0.394   1.636  0.2864 -0.2617 -0.5330
    1SOL    HW2 3310   1.851   0.451   1.608  0.0495  0.4995  0.3935
    1SOL    HW3 3311   1.802   0.308   1.600  0.2088  0.5821 -2.6982
    1SOL    MW4 3312   1.791   0.390   1.628  0.2449 -0.0499 -0.6965
    1SOL     OW 3313   2.002   0.518   1.497 -0.3870 -0.0501  0.0313
    1SOL    HW2 3314   2.083   0.482   1.535 -0.2765 -1.2366 -1.3006
    1SOL    HW3 3315   2.001   0.610   1.525  1.8172  0.1856 -0.5723
    1SOL    MW4 3316   2.013   0.525   1.506 -0.0815 -0.1757 -0.2241
    1SOL     OW 3317   1.987   0.775   1.574  0.0059  0.2870 -0.3911
    1SOL    HW2 3318   1.988   0.773   1.670 -0.3265 -2.1010 -0.4068
    1SOL    HW3 3319   1.896   0.796   1.552  0.4568  2.5647 -0.2001
    1SOL    MW4 3320   1.975   0.777   1.584  0.0216  0.2725 -0.3679
    1SOL     OW 3321   1.725   0.849   1.502 -0.2849  0.1043 -0.9226
    1SOL    HW2 3322   1.729   0.934   1.547 -0.8376  0.1615 -0.9825
    1SOL    HW3 3323   1.654   0.802   1.545 -1.0039  0.2658 -1.9162
    1SOL    MW4 3324   1.716   0.854   1.513 -0.4526  0.1332 -1.0616
    1SOL     OW 3325   1.786   1.124   1.573  0.4275  0.1953  0.2839
    1SOL    HW2 3326   1.871   1.162   1.555  0.2890  0.7581  0.7864
    1SOL    HW3 3327   1.724   1.194   1.553  0.1320  0.0407  0.6580
    1SOL    MW4 3328   1.789   1.138   1.568  0.3701  0.2490  0.3996
    1SOL     OW 3329   2.027   1.264   1.506  0.0610 -0.3031 -0.8821
    1SOL    HW2 3330   2.037   1.354   1.539  1.2292 -1.0644  0.9314
    1SOL    HW3 3331   2.026   1.274   1.411  0.4890  1.6111 -0.7199
    1SOL    MW4 3332   2.028   1.277   1.498  0.2716 -0.1510 -0.6216
    1SOL     OW 3333   2.045   1.537   1.635  0.3663 -0.3599  0.2513
    1SOL    HW2 3334   2.118   1.596   1.615 -0.3808 -0.0211 -1.5794
    1SOL    HW3 3335   1.966   1.587   1.611 -0.4290 -1.0092  1.4568
    1SOL    MW4 3336   2.044   1.551   1.629  0.1628 -0.4008  0.1688
    1SOL     OW 3337   1.790   1.647   1.531  0.2014  0.0474 -0.1877
    1SOL    HW2 3338   1.713   1.616   1.578  0.6028 -0.0170  0.4401
    1SOL    HW3 3339   1.774   1.624   1.440 -1.9213  2.7963 -0.5662
    1SOL    MW4 3340   1.778   1.640   1.525 -0.0257  0.4016 -0.1547
    1SOL     OW 3341   1.748   1.920   1.588 -0.0600  0.0914  0.0289
    1SOL    HW2 3342   1.759   1.832   1.554 -0.8547 -0.1604  0.4152
    1SOL    HW3 3343   1.677   1.958   1.536  1.7795  1.2985 -1.6651
    1SOL    MW4 3344   1.740   1.914   1.577  0.0778  0.2174 -0.1436
    1SOL     OW 3345   1.958   2.063   1.457 -0.2182  0.4114 -0.1385
    1SOL    HW2 3346   2.031   2.022   1.503 -0.8671 -0.1940  0.3570
    1SOL    HW3 3347   1.880   2.019   1.490 -0.8148  1.0380 -0.6770
    1SOL    MW4 3348   1.958   2.052   1.467 -0.3824  0.4144 -0.1441
    1SOL     OW 3349   1.984   2.326   1.564  0.1942  0.0980  0.3510
    1SOL    HW2 3350   1.993   2.313   1.658  0.5562  1.4269  0.5027
    1SOL    HW3 3351   1.988   2.237   1.527 -2.2291 -0.6276  1.7461
    1SOL    MW4 3352   1.986   2.312   1.571 -0.0778  0.1774  0.5550
    1SOL     OW 3353   1.754   2.419   1.447  0.1359 -0.1121  0.0917
    1SOL    HW2 3354   1.837   2.378   1.471  0.0795 -0.4056 -0.1995
    1SOL    HW3 3355   1.764   2.440   1.354  0.1481  0.5025  0.2302
    1SOL    MW4 3356   1.766   2.416   1.438  0.1302 -0.0696  0.0716
    1SOL     OW 3357   1.780   2.662   1.568 -0.2817  0.6353 -0.1215
    1SOL    HW2 3358   1.867   2.692   1.540 -0.6097  0.8087 -0.9922
    1SOL    HW3 3359   1.775   2.572   1.537 -0.1368  0.3975  0.5583
    1SOL    MW4 3360   1.791   2.654   1.560 -0.3059  0.6270 -0.1467
    1SOL     OW 3361   1.996   2.805   1.527 -0.0368  0.3392  0.5485
    1SOL    HW2 3362   1.985   2.898   1.548  0.9016  0.7259 -0.5603
    1SOL    HW3 3363   1.989   2.802   1.431  0.1771 -0.6990  0.5628
    1SOL    MW4 3364   1.994   2.817   1.517  0.1153  0.2532  0.4040
    1SOL     OW 3365   1.996   3.069   1.595 -0.3094  0.0911  0.1913
    1SOL    HW2 3366   2.005   3.079   1.690  0.2002  0.1529  0.1407
    1SOL    HW3 3367   2.076   3.109   1.560  0.0627 -0.9888 -0.2061
    1SOL    MW4 3368   2.008   3.076   1.603 -0.1931 -0.0436  0.1322
    1SOL     OW 3369   1.742   3.215   1.522 -0.2433 -0.5607  0.1832
    1SOL    HW2 3370   1.780   3.301   1.535  0.6641 -0.7630 -1.0838
    1SOL    HW3 3371   1.807   3.154   1.558  0.1838 -0.8441 -1.0399
    1SOL    MW4 3372   1.756   3.218   1.529 -0.0674 -0.6249 -0.1453
    1SOL     OW 3373   1.802   3.480   1.589  0.0555  0.2656  0.4788
    1SOL    HW2 3374   1.798   3.482   1.684  0.2222  1.3077  0.4752
    1SOL    HW3 3375   1.718   3.514   1.560  0.2841  0.6587  0.2629
    1SOL    MW4 3376   1.791   3.485   1.598  0.1076  0.4547  0.4499
    1SOL     OW 3377   2.026   3.604   1.459 -0.5402 -0.4424  0.0485
    1SOL    HW2 3378   2.107   3.569   1.496 -0.4544 -2.4121 -1.8385
    1SOL    HW3 3379   1.956   3.552   1.499 -0.7469  0.1187  0.4216
    1SOL    MW4 3380   2.027   3.593   1.469 -0.5562 -0.6282 -0.1513
    1SOL     OW 3381   2.006   3.857   1.589 -0.0697 -0.5332  0.7648
    1SOL    HW2 3382   2.078   3.918   1.571  0.7553 -1.1938  1.7505
    1SOL    HW3 3383   2.030   3.778   1.541 -1.4040  0.0761 -0.9450
    1SOL    MW4 3384   2.019   3.855   1.581 -0.1369 -0.5398  0.6692
    1SOL     OW 3385   1.792   3.972   1.467 -0.3269  0.0543 -0.4025
    1SOL    HW2 3386   1.861   3.917   1.503 -1.2451 -0.4069  0.6836
    1SOL    HW3 3387   1.713   3.946   1.515 -1.1759  0.8550 -1.3352
    1SOL    MW4 3388   1.791   3.961   1.478 -0.5599  0.0992 -0.3822
    1SOL     OW 3389   1.778   4.236   1.575  0.5548 -0.4239 -0.4093
    1SOL    HW2 3390   1.849   4.288   1.538 -1.1652  0.3855 -2.7462
    1SOL    HW3 3391   1.798   4.146   1.550  1.2927 -0.3200 -0.1850
    1SOL    MW4 3392   1.790   4.231   1.566  0.4252 -0.3033 -0.6880
    1SOL     OW 3393   1.988   4.411   1.519 -0.0156  0.2198  0.1839
    1SOL    HW2 3394   2.063   4.357   1.543 -1.2863 -1.5997  0.1294
    1SOL    HW3 3395   1.996   4.489   1.575  1.0721 -0.6409  1.2561
    1SOL    MW4 3396   1.999   4.415   1.529 -0.0397 -0.1335  0.3182
    1SOL     OW 3397   2.409   4.657   1.606  0.0839  0.4255 -0.1991
    1SOL    HW2 3398   2.422   4.669   1.701  0.0075 -1.0726  0.0103
    1SOL    HW3 3399   2.337   4.717   1.584  1.2235  2.0408  0.3583
    1SOL    MW4 3400   2.401   4.667   1.616  0.2241  0.4411 -0.0979
    1SOL     OW 3401   2.203   0.158   1.516 -0.2431  0.0022  0.2471
    1SOL    HW2 3402   2.119   0.115   1.534 -0.0587 -0.6804 -0.5082
    1SOL    HW3 3403   2.217   0.146   1.422  0.0901  1.2248  0.1359
    1SOL    MW4 3404   2.194   0.151   1.506 -0.1748  0.0734  0.1328
    1SOL     OW 3405   2.222   0.406   1.644  0.0696  0.4290 -0.1249
    1SOL    HW2 3406   2.225   0.396   1.739 -2.1382 -0.8915 -0.1563
    1SOL    HW3 3407   2.222   0.317   1.610  1.8852  0.9048 -1.4262
    1SOL    MW4 3408   2.222   0.393   1.652  0.0179  0.3176 -0.3005
    1SOL     OW 3409   2.451   0.508   1.515 -0.4791  0.2969  0.5634
    1SOL    HW2 3410   2.524   0.457   1.549  0.3031  1.4489  0.6393
    1SOL    HW3 3411   2.374   0.475   1.561  0.1936  0.0116  1.4850
    1SOL    MW4 3412   2.450   0.497   1.525 -0.2871  0.4112  0.6951
    1SOL     OW 3413   2.463   0.778   1.601 -0.3894  0.0107 -0.2827
    1SOL    HW2 3414   2.388   0.807   1.549 -0.7733 -0.3241  0.0816
    1SOL    HW3 3415   2.471   0.684   1.581 -0.7533 -0.1928  0.5290
    1SOL    MW4 3416   2.455   0.769   1.591 -0.4880 -0.0604 -0.1274
    1SOL     OW 3417   2.227   0.881   1.505  0.2377  0.2759  0.1608
    1SOL    HW2 3418   2.243   0.971   1.533 -1.0475  0.5464  0.0522
    1SOL    HW3 3419   2.137   0.863   1.532  0.7224 -1.2320  0.8546
    1SOL    MW4 3420   2.217   0.891   1.513  0.1321  0.1127  0.2381
    1SOL     OW 3421   2.243   1.137   1.615 -0.4221  0.1973 -0.3015
    1SOL    HW2 3422   2.238   1.146   1.710 -1.1211 -2.3901 -0.0536
    1SOL    HW3 3423   2.167   1.184   1.582 -1.0928 -0.2977  0.5308
    1SOL    MW4 3424   2.232   1.145   1.623 -0.6027 -0.2093 -0.1591
    1SOL     OW 3425   2.449   1.298   1.523  0.4739  0.1248  0.4635
    1SOL    HW2 3426   2.382   1.248   1.570  1.3066 -1.3410  0.1361
    1SOL    HW3 3427   2.442   1.268   1.433  0.5521  1.0937  0.1299
    1SOL    MW4 3428   2.439   1.287   1.518  0.5939  0.0592  0.3763
    1SOL     OW 3429   2.463   1.552   1.632 -0.1569  0.2947  0.5154
    1SOL    HW2 3430   2.522   1.611   1.585  0.2862 -0.1016  0.5600
    1SOL    HW3 3431   2.468   1.470   1.583  0.6104 -0.2424  1.4677
    1SOL    MW4 3432   2.472   1.549   1.619  0.0029  0.1714  0.6469
    1SOL     OW 3433   2.245   1.703   1.536  0.5608 -0.1290 -0.0815
    1SOL    HW2 3434   2.315   1.649   1.572 -2.7755 -4.5105  0.3085
    1SOL    HW3 3435   2.257   1.697   1.441  1.4880  0.2111  0.0142
    1SOL    MW4 3436   2.256   1.695   1.528  0.2429 -0.6621 -0.0175
    1SOL     OW 3437   2.194   1.961   1.602 -0.2005 -0.4093  0.1131
    1SOL    HW2 3438   2.199   1.953   1.697 -0.5946 -1.4996  0.0491
    1SOL    HW3 3439   2.199   1.871   1.570 -4.0126 -0.4236 -0.7078
    1SOL    MW4 3440   2.195   1.948   1.610 -0.7553 -0.5550 -0.0037
    1SOL     OW 3441   2.409   2.082   1.482  0.5137 -0.4491  0.1336
    1SOL    HW2 3442   2.340   2.026   1.519  0.5159 -0.5633 -0.0386
    1SOL    HW3 3443   2.391   2.083   1.388  0.4553 -0.0838  0.1486
    1SOL    MW4 3444   2.397   2.075   1.475  0.5064 -0.4160  0.1130
    1SOL     OW 3445   2.440   2.316   1.611  0.1611  0.0232 -0.3015
    1SOL    HW2 3446   2.444   2.305   1.706 -1.1895  0.2862 -0.2019
    1SOL    HW3 3447   2.437   2.227   1.577 -0.4845 -0.0675 -0.0288
    1SOL    MW4 3448   2.440   2.303   1.619 -0.1020  0.0460 -0.2524
    1SOL     OW 3449   2.226   2.469   1.497  0.2810  0.2428 -0.0814
    1SOL    HW2 3450   2.296   2.423   1.543 -0.8764 -0.6334  0.8691
    1SOL    HW3 3451   2.146   2.427   1.529 -0.7879  2.5266  0.3449
    1SOL    MW4 3452   2.224   2.457   1.507 -0.0126  0.4284  0.1003
    1SOL     OW 3453   2.254   2.712   1.619 -0.2868 -0.2664 -0.3223
    1SOL    HW2 3454   2.252   2.627   1.575 -0.3769  0.0312 -0.9105
    1SOL    HW3 3455   2.170   2.752   1.598  0.7119  0.9790 -2.1343
    1SOL    MW4 3456   2.243   2.706   1.610 -0.1671 -0.0627 -0.6390
    1SOL     OW 3457   2.473   2.825   1.500 -0.2499 -0.0674  0.2641
    1SOL    HW2 3458   2.482   2.915   1.531 -0.2733  0.1890 -0.4690
    1SOL    HW3 3459   2.394   2.792   1.543 -0.3925  0.3486  0.3214
    1SOL    MW4 3460   2.464   2.833   1.510 -0.2718  0.0212  0.1749
    1SOL     OW 3461   2.478   3.094   1.596 -0.3623 -0.4223  1.1095
    1SOL    HW2 3462   2.541   3.166   1.587 -1.7358  0.9340  2.1158
    1SOL    HW3 3463   2.395   3.132   1.567 -0.6454 -2.3438 -0.6698
    1SOL    MW4 3464   2.475   3.109   1.591 -0.5810 -0.4969  1.0077
    1SOL     OW 3465   2.229   3.186   1.531  0.2418  0.2546 -0.1897
    1SOL    HW2 3466   2.216   3.275   1.565  2.0192  0.4600  0.0007
    1SOL    HW3 3467   2.234   3.196   1.436  2.2592  0.6135 -0.0589
    1SOL    MW4 3468   2.228   3.199   1.523  0.7424  0.3290 -0.1472
    1SOL     OW 3469   2.241   3.499   1.576 -0.1576  0.2584 -0.3593
    1SOL    HW2 3470   2.236   3.500   1.671 -0.2238  1.1226 -0.3595
    1SOL    HW3 3471   2.328   3.534   1.556 -0.6573  1.3872 -0.6240
    1SOL    MW4 3472   2.252   3.504   1.586 -0.2322  0.5212 -0.3942
    1SOL     OW 3473   2.481   3.593   1.460 -0.2337 -0.0192  0.1734
    1SOL    HW2 3474   2.549   3.546   1.508 -0.0953  0.1055  0.0971
    1SOL    HW3 3475   2.489   3.684   1.489 -0.3376  0.0049  0.1281
    1SOL    MW4 3476   2.491   3.599   1.470 -0.2291  0.0002  0.1575
    1SOL     OW 3477   2.477   3.849   1.575 -0.0822 -0.6001 -0.1754
    1SOL    HW2 3478   2.484   3.863   1.670  0.6762 -2.1451  0.0138
    1SOL    HW3 3479   2.557   3.887   1.539 -0.6459  0.5182 -0.2737
    1SOL    MW4 3480   2.488   3.856   1.583 -0.0565 -0.6564 -0.1636
    1SOL     OW 3481   2.222   4.002   1.468  0.1364  0.4850 -0.1174
    1SOL    HW2 3482   2.302   3.962   1.501 -0.3877 -1.5686 -1.2474
    1SOL    HW3 3483   2.220   3.978   1.375 -1.5158  0.9610 -0.2198
    1SOL    MW4 3484   2.233   3.994   1.460 -0.1507  0.2770 -0.2800
    1SOL     OW 3485   2.210   4.259   1.613  0.3318 -0.1177 -0.3600
    1SOL    HW2 3486   2.286   4.307   1.579  1.0888 -0.3621  0.9121
    1SOL    HW3 3487   2.216   4.172   1.573 -0.5464  0.5627 -1.9892
    1SOL    MW4 3488   2.221   4.254   1.603  0.3157 -0.0606 -0.4071
    1SOL     OW 3489   2.432   4.394   1.530  0.8185  0.1768  0.0904
    1SOL    HW2 3490   2.414   4.482   1.562  0.7892  0.0783  0.3491
    1SOL    HW3 3491   2.435   4.402   1.435 -2.3152 -0.1386 -0.0679
    1SOL    MW4 3492   2.430   4.407   1.522  0.4013  0.1216  0.1035
    1SOL     OW 3493   2.904   4.663   1.597  0.0447  0.5933 -0.1993
    1SOL    HW2 3494   2.892   4.655   1.692  0.8990 -1.0460 -0.2069
    1SOL    HW3 3495   2.829   4.714   1.568 -1.3774 -0.7013  1.0885
    1SOL    MW4 3496   2.893   4.669   1.606 -0.0300  0.2065 -0.0303
    1SOL     OW 3497   2.670   0.092   1.478 -0.0778 -0.0086  0.5036
    1SOL    HW2 3498   2.655   0.185   1.498 -0.0432 -0.0935  0.9470
    1SOL    HW3 3499   2.596   0.047   1.519 -0.9103 -0.0442 -1.0255
    1SOL    MW4 3500   2.658   0.099   1.486 -0.1829 -0.0245  0.3604
    1SOL     OW 3501   2.663   0.357   1.568  0.0191  0.1852 -0.3102
    1SOL    HW2 3502   2.677   0.346   1.662 -0.2181  0.2728 -0.2632
    1SOL    HW3 3503   2.729   0.421   1.541 -0.1607  0.4498 -0.1285
    1SOL    MW4 3504   2.674   0.364   1.577 -0.0360  0.2317 -0.2800
    1SOL     OW 3505   2.861   0.509   1.450  0.3041 -0.0697  0.0004
    1SOL    HW2 3506   2.884   0.602   1.456 -2.0314  0.7618 -2.5963
    1SOL    HW3 3507   2.874   0.488   1.357  1.1547 -2.4707  0.6345
    1SOL    MW4 3508   2.866   0.519   1.438  0.1080 -0.2768 -0.2584
    1SOL     OW 3509   2.907   0.758   1.546  0.0280  0.4134  0.4873
    1SOL    HW2 3510   2.914   0.759   1.642  1.2814  0.1399  0.4117
    1SOL    HW3 3511   2.817   0.786   1.528 -0.7751 -1.2664  1.7953
    1SOL    MW4 3512   2.896   0.762   1.556  0.0873  0.1557  0.6498
    1SOL     OW 3513   2.648   0.904   1.458  0.3425 -0.0485 -0.2410
    1SOL    HW2 3514   2.583   0.841   1.490 -1.1399  1.4542 -0.2466
    1SOL    HW3 3515   2.663   0.880   1.367 -1.3357  0.5182 -0.6678
    1SOL    MW4 3516   2.642   0.893   1.450 -0.0744  0.2246 -0.2980
    1SOL     OW 3517   2.662   1.161   1.597 -0.3165  0.3656 -0.1523
    1SOL    HW2 3518   2.658   1.076   1.553 -1.7778  0.1070  0.4880
    1SOL    HW3 3519   2.579   1.204   1.576 -0.3412  0.9101  1.0150
    1SOL    MW4 3520   2.651   1.156   1.588 -0.5126  0.4033  0.0862
    1SOL     OW 3521   2.896   1.308   1.532 -0.3935  0.1697 -0.2625
    1SOL    HW2 3522   2.975   1.256   1.547  0.0922  1.6065  2.4909
    1SOL    HW3 3523   2.825   1.255   1.568 -0.2595  0.2338  0.0969
    1SOL    MW4 3524   2.897   1.294   1.539 -0.3116  0.3678  0.1483
    1SOL     OW 3525   2.878   1.575   1.613  0.9223  0.0288  0.1231
    1SOL    HW2 3526   2.815   1.614   1.553  1.3942  0.4134 -0.1272
    1SOL    HW3 3527   2.887   1.484   1.583  1.5996  0.3786 -0.7638
    1SOL    MW4 3528   2.871   1.568   1.601  1.0738  0.1259 -0.0269
    1SOL     OW 3529   2.661   1.685   1.491  0.1969 -0.0889  0.1964
    1SOL    HW2 3530   2.633   1.772   1.517  1.4727  0.8001 -1.2713
    1SOL    HW3 3531   2.669   1.689   1.396  0.6282 -1.6917  0.1326
    1SOL    MW4 3532   2.659   1.697   1.482  0.4222 -0.1830 -0.0056
    1SOL     OW 3533   2.633   1.944   1.550  0.1543  0.8937 -0.2207
    1SOL    HW2 3534   2.646   1.949   1.645 -0.9719 -0.5842  0.0429
    1SOL    HW3 3535   2.556   1.998   1.533  0.1625  0.9003 -0.2365
    1SOL    MW4 3536   2.624   1.952   1.560  0.0069  0.6996 -0.1880
    1SOL     OW 3537   2.892   2.044   1.477 -0.0023 -0.4169 -0.6400
    1SOL    HW2 3538   2.900   2.119   1.536  0.0949  0.3798 -1.6440
    1SOL    HW3 3539   2.804   2.010   1.492 -0.7005  0.9930 -1.4400
    1SOL    MW4 3540   2.882   2.050   1.487 -0.0818 -0.1256 -0.8781
    1SOL     OW 3541   2.912   2.300   1.596 -0.4005 -0.2496 -0.1365
    1SOL    HW2 3542   2.899   2.322   1.688  1.2367 -0.2797  0.1150
    1SOL    HW3 3543   2.825   2.306   1.557 -0.6892  2.5734  0.8102
    1SOL    MW4 3544   2.899   2.304   1.603 -0.2224  0.1187  0.0216
    1SOL     OW 3545   2.674   2.394   1.485 -0.0102 -0.4251  0.0195
    1SOL    HW2 3546   2.703   2.484   1.499 -0.9703  0.2811 -2.2682
    1SOL    HW3 3547   2.600   2.384   1.545  1.4831 -0.4589  1.9126
    1SOL    MW4 3548   2.668   2.405   1.495  0.0601 -0.3364 -0.0327
    1SOL     OW 3549   2.722   2.655   1.552 -0.2271 -0.1589 -0.1460
    1SOL    HW2 3550   2.788   2.721   1.530 -0.1637 -0.5147 -1.0264
    1SOL    HW3 3551   2.639   2.694   1.524 -0.1373 -0.6463 -1.1002
    1SOL    MW4 3552   2.719   2.669   1.546 -0.2069 -0.2701 -0.3881
    1SOL     OW 3553   2.903   2.830   1.458  0.1149 -0.2006 -0.3613
    1SOL    HW2 3554   2.975   2.789   1.507  0.5381 -0.8589 -1.5275
    1SOL    HW3 3555   2.905   2.922   1.486  0.9829 -0.3529  0.1103
    1SOL    MW4 3556   2.913   2.837   1.468  0.2851 -0.3078 -0.4530
    1SOL     OW 3557   2.924   3.079   1.583  0.3132  0.3110  0.1990
    1SOL    HW2 3558   2.910   3.096   1.676 -0.9907  0.9408 -0.1073
    1SOL    HW3 3559   2.996   3.137   1.558 -0.1533  1.0477  0.5398
    1SOL    MW4 3560   2.932   3.089   1.592  0.0796  0.4914  0.2036
    1SOL     OW 3561   2.716   3.262   1.527  0.2848  0.2398  0.5436
    1SOL    HW2 3562   2.788   3.202   1.548 -1.4246 -1.7958  0.7075
    1SOL    HW3 3563   2.708   3.257   1.431 -1.2407 -1.4347  0.7497
    1SOL    MW4 3564   2.725   3.254   1.517 -0.1419 -0.2499  0.5924
    1SOL     OW 3565   2.691   3.511   1.636  0.3493 -0.0654  0.0656
    1SOL    HW2 3566   2.688   3.503   1.731  1.2848  0.2515  0.1295
    1SOL    HW3 3567   2.696   3.421   1.604 -1.1387 -0.2284  0.2579
    1SOL    MW4 3568   2.691   3.498   1.644  0.2768 -0.0451  0.0994
    1SOL     OW 3569   2.918   3.640   1.541  0.0457 -0.0168 -0.0874
    1SOL    HW2 3570   2.849   3.597   1.591  1.6181 -2.8740 -0.2894
    1SOL    HW3 3571   2.888   3.635   1.450  0.6675 -1.5872 -0.2143
    1SOL    MW4 3572   2.905   3.634   1.535  0.3352 -0.6008 -0.1309
    1SOL     OW 3573   2.932   3.914   1.576 -0.0732 -0.4026  0.0535
    1SOL    HW2 3574   2.843   3.941   1.557 -0.1764  0.7545  2.0366
    1SOL    HW3 3575   2.932   3.819   1.562 -1.9587 -0.6072  1.3260
    1SOL    MW4 3576   2.920   3.905   1.572 -0.3355 -0.2768  0.4830
    1SOL     OW 3577   2.698   3.992   1.493  0.3005  0.4153 -0.4177
    1SOL    HW2 3578   2.675   4.080   1.522  1.4765  0.6571 -0.1938
    1SOL    HW3 3579   2.692   3.995   1.398 -0.3240  0.5412 -0.3767
    1SOL    MW4 3580   2.694   4.004   1.484  0.3734  0.4640 -0.3827
    1SOL     OW 3581   2.658   4.251   1.583  0.0934  0.6803 -0.2768
    1SOL    HW2 3582   2.729   4.315   1.570  0.0338  0.4866 -1.5587
    1SOL    HW3 3583   2.578   4.301   1.571  0.0187  0.7059  0.3043
    1SOL    MW4 3584   2.657   4.266   1.580  0.0756  0.6580 -0.3693
    1SOL     OW 3585   2.879   4.392   1.507  0.0484 -0.2777  0.0894
    1SOL    HW2 3586   2.893   4.486   1.520  1.8453 -0.3851 -0.7895
    1SOL    HW3 3587   2.876   4.382   1.412 -1.8015 -0.8951  0.2094
    1SOL    MW4 3588   2.881   4.403   1.496  0.0415 -0.3734 -0.0106
    1SOL     OW 3589   3.345   0.017   1.576 -0.1440 -0.0577  0.5302
    1SOL    HW2 3590   3.423   0.061   1.540  0.0061 -0.7749 -0.0174
    1SOL    HW3 3591   3.357  -0.075   1.554 -0.2110 -0.4566  2.1527
    1SOL    MW4 3592   3.357   0.011   1.568 -0.1328 -0.2050  0.6720
    1SOL     OW 3593   3.110   0.172   1.494  0.4173  0.0045  0.1049
    1SOL    HW2 3594   3.193   0.131   1.517  0.0193  0.7125  2.9708
    1SOL    HW3 3595   3.043   0.110   1.522 -0.0555 -0.3395 -1.7312
    1SOL    MW4 3596   3.112   0.159   1.501  0.3026  0.0525  0.2408
    1SOL     OW 3597   3.134   0.418   1.590 -0.0414  0.9351 -0.1799
    1SOL    HW2 3598   3.129   0.328   1.560 -0.3251  0.6701  0.6471
    1SOL    HW3 3599   3.054   0.459   1.558 -0.1789  0.7457 -0.0753
    1SOL    MW4 3600   3.123   0.412   1.582 -0.0970  0.8752 -0.0571
    1SOL     OW 3601   3.384   0.530   1.511  0.2345 -0.4198  0.4837
    1SOL    HW2 3602   3.298   0.509   1.546  0.8257 -1.9353  1.1124
    1SOL    HW3 3603   3.375   0.522   1.416 -0.0677 -1.6205  0.6053
    1SOL    MW4 3604   3.372   0.526   1.503  0.2725 -0.7781  0.5827
    1SOL     OW 3605   3.379   0.773   1.622 -0.1632 -0.1039 -0.3996
    1SOL    HW2 3606   3.390   0.758   1.716  1.6159 -0.4147 -0.6320
    1SOL    HW3 3607   3.388   0.686   1.583 -0.0486  0.1428 -0.9284
    1SOL    MW4 3608   3.382   0.759   1.629  0.0868 -0.1124 -0.5000
    1SOL     OW 3609   3.155   0.902   1.499 -0.4553  0.1322  0.2761
    1SOL    HW2 3610   3.227   0.853   1.539 -1.2363  0.1896  1.7891
    1SOL    HW3 3611   3.078   0.849   1.516 -1.0845  1.1258  0.5348
    1SOL    MW4 3612   3.155   0.889   1.506 -0.6413  0.2708  0.5097
    1SOL     OW 3613   3.145   1.164   1.587  0.0814  0.0543  0.0393
    1SOL    HW2 3614   3.153   1.161   1.682 -1.4596 -0.7134  0.1543
    1SOL    HW3 3615   3.161   1.074   1.559  0.3243  0.2378 -0.4116
    1SOL    MW4 3616   3.148   1.152   1.596 -0.0896 -0.0226 -0.0050
    1SOL     OW 3617   3.372   1.298   1.490 -0.3114 -0.3250  0.3087
    1SOL    HW2 3618   3.445   1.246   1.522 -1.8192 -2.4989  0.3035
    1SOL    HW3 3619   3.295   1.258   1.529 -1.5138  1.9742  0.3579
    1SOL    MW4 3620   3.372   1.286   1.499 -0.6690 -0.3085  0.3144
    1SOL     OW 3621   3.338   1.555   1.593  0.4426 -0.0213  0.0842
    1SOL    HW2 3622   3.359   1.542   1.686  1.8596  0.5225 -0.1526
    1SOL    HW3 3623   3.347   1.468   1.554  1.2680  0.0171  0.1846
    1SOL    MW4 3624   3.342   1.542   1.600  0.7381  0.0556  0.0662
    1SOL     OW 3625   3.101   1.691   1.513  0.8232 -0.3833 -0.0162
    1SOL    HW2 3626   3.170   1.630   1.540  0.3318 -1.1028 -0.3852
    1SOL    HW3 3627   3.024   1.665   1.562  0.2097 -1.0223 -1.3037
    1SOL    MW4 3628   3.100   1.680   1.523  0.6773 -0.5625 -0.2346
    1SOL     OW 3629   3.121   1.943   1.600 -0.0154 -0.0490 -0.2875
    1SOL    HW2 3630   3.120   1.851   1.575 -1.6578 -0.1702  0.1109
    1SOL    HW3 3631   3.036   1.977   1.570  0.2175  1.1221  0.3164
    1SOL    MW4 3632   3.109   1.936   1.593 -0.2015  0.0895 -0.1552
    1SOL     OW 3633   3.355   2.064   1.495 -0.4886  0.5301 -0.6308
    1SOL    HW2 3634   3.276   2.017   1.523  0.5340 -0.6594  0.3020
    1SOL    HW3 3635   3.346   2.072   1.400 -1.7060  0.3707 -0.5420
    1SOL    MW4 3636   3.343   2.059   1.486 -0.5143  0.3521 -0.4960
    1SOL     OW 3637   3.350   2.335   1.628  0.6451 -0.3229  0.2551
    1SOL    HW2 3638   3.421   2.386   1.591 -0.7637  0.2992 -1.7119
    1SOL    HW3 3639   3.349   2.254   1.576 -1.4194  0.6035 -1.2194
    1SOL    MW4 3640   3.359   2.331   1.616  0.1867 -0.1187 -0.1990
    1SOL     OW 3641   3.117   2.445   1.494  0.5817 -0.1991 -0.6867
    1SOL    HW2 3642   3.193   2.402   1.532  0.0157 -0.9618 -0.4136
    1SOL    HW3 3643   3.042   2.405   1.538  0.0704  1.6461  0.1789
    1SOL    MW4 3644   3.117   2.434   1.505  0.4394 -0.0563 -0.5364
    1SOL     OW 3645   3.107   2.711   1.611  0.4154  0.6310  0.2899
    1SOL    HW2 3646   3.185   2.750   1.571  0.3118  0.2801 -0.2713
    1SOL    HW3 3647   3.111   2.619   1.585 -1.1617  0.9916 -1.3124
    1SOL    MW4 3648   3.118   2.704   1.602  0.1934  0.6323  0.0044
    1SOL     OW 3649   3.351   2.839   1.536  0.0432 -0.0587  0.0824
    1SOL    HW2 3650   3.349   2.934   1.528  0.0467 -0.0560  0.1097
    1SOL    HW3 3651   3.350   2.807   1.446  2.7377  0.0220 -0.0273
    1SOL    MW4 3652   3.351   2.847   1.523  0.3991 -0.0474  0.0718
    1SOL     OW 3653   3.323   3.116   1.592 -0.2666  0.1490 -0.2648
    1SOL    HW2 3654   3.323   3.128   1.687 -0.3017  0.8125 -0.3402
    1SOL    HW3 3655   3.402   3.163   1.562 -0.0325 -0.4013 -0.5230
    1SOL    MW4 3656   3.334   3.124   1.600 -0.2403  0.1638 -0.3089
    1SOL     OW 3657   3.105   3.249   1.482 -0.3791  0.2333  0.5395
    1SOL    HW2 3658   3.182   3.211   1.524 -0.7259 -0.2995  0.6926
    1SOL    HW3 3659   3.118   3.232   1.389 -1.2748 -1.6390  0.7322
    1SOL    MW4 3660   3.117   3.242   1.475 -0.5431 -0.0839  0.5852
    1SOL     OW 3661   3.155   3.490   1.605  0.6515 -0.6661  0.3220
    1SOL    HW2 3662   3.137   3.402   1.573  0.6476 -0.6714  0.3389
    1SOL    HW3 3663   3.071   3.535   1.600  0.5719 -0.7753  0.6631
    1SOL    MW4 3664   3.142   3.484   1.600  0.6404 -0.6814  0.3694
    1SOL     OW 3665   3.364   3.632   1.480  0.4165  0.2807  0.5314
    1SOL    HW2 3666   3.448   3.598   1.512  0.3802 -0.3947 -0.0827
    1SOL    HW3 3667   3.298   3.575   1.520  0.2530  0.7219  0.8978
    1SOL    MW4 3668   3.367   3.620   1.490  0.3903  0.2496  0.4987
    1SOL     OW 3669   3.364   3.888   1.563  0.2345  0.1372  0.1077
    1SOL    HW2 3670   3.284   3.935   1.539 -0.0931 -0.5367 -0.1174
    1SOL    HW3 3671   3.352   3.800   1.529  0.8576 -0.1114  0.5151
    1SOL    MW4 3672   3.352   3.883   1.556  0.2735  0.0157  0.1317
    1SOL     OW 3673   3.154   4.046   1.516 -0.1944 -0.2154  0.1547
    1SOL    HW2 3674   3.149   4.134   1.553 -0.4591 -0.9131  1.8523
    1SOL    HW3 3675   3.065   4.012   1.524  0.0508 -0.8659  0.1163
    1SOL    MW4 3676   3.142   4.053   1.522 -0.1972 -0.3929  0.3736
    1SOL     OW 3677   3.141   4.312   1.604  0.0684  0.5274  0.0598
    1SOL    HW2 3678   3.152   4.305   1.699  0.4824 -1.0396 -0.0949
    1SOL    HW3 3679   3.048   4.334   1.593 -0.0607  0.3885  0.8053
    1SOL    MW4 3680   3.130   4.314   1.615  0.1061  0.3028  0.1378
    1SOL     OW 3681   3.377   4.426   1.510  0.3680 -0.1941 -0.4704
    1SOL    HW2 3682   3.306   4.383   1.558  1.0304 -2.0624 -1.1449
    1SOL    HW3 3683   3.350   4.422   1.418  0.2526  1.2255 -0.5205
    1SOL    MW4 3684   3.364   4.420   1.504  0.4401 -0.2537 -0.5660
    1SOL     OW 3685   3.801   4.659   1.560 -0.2859 -0.0264 -0.8527
    1SOL    HW2 3686   3.806   4.665   1.655  0.4757 -2.4343 -0.7050
    1SOL    HW3 3687   3.879   4.703   1.528  0.1813 -0.4600 -0.3040
    1SOL    MW4 3688   3.812   4.666   1.568 -0.1237 -0.4013 -0.7607
    1SOL     OW 3689   3.586   0.157   1.482  0.2264 -0.1657  0.3599
    1SOL    HW2 3690   3.667   0.109   1.503  0.0461 -1.8198 -2.3255
    1SOL    HW3 3691   3.590   0.167   1.386 -2.7906 -0.3464  0.1901
    1SOL    MW4 3692   3.597   0.152   1.472 -0.1955 -0.4078 -0.0168
    1SOL     OW 3693   3.600   0.402   1.598 -0.1746 -0.3211 -0.1882
    1SOL    HW2 3694   3.577   0.321   1.552 -0.5350 -0.2891 -0.0625
    1SOL    HW3 3695   3.537   0.466   1.567  0.2780 -0.0170 -0.4878
    1SOL    MW4 3696   3.589   0.400   1.588 -0.1626 -0.2768 -0.2111
    1SOL     OW 3697   3.831   0.515   1.491  0.1138  0.4175 -0.0893
    1SOL    HW2 3698   3.751   0.482   1.530 -0.3803  0.8156 -0.7593
    1SOL    HW3 3699   3.816   0.509   1.396  0.9648  0.2575 -0.2231
    1SOL    MW4 3700   3.819   0.510   1.483  0.1612  0.4489 -0.1954
    1SOL     OW 3701   3.850   0.757   1.633  0.1470 -0.3418 -0.3147
    1SOL    HW2 3702   3.774   0.782   1.581  0.7299 -0.0434 -1.0342
    1SOL    HW3 3703   3.874   0.670   1.600 -0.6472 -0.9977  0.7905
    1SOL    MW4 3704   3.843   0.749   1.622  0.1190 -0.3890 -0.2638
    1SOL     OW 3705   3.617   0.871   1.521  0.0910  0.1417  0.1056
    1SOL    HW2 3706   3.534   0.845   1.561  0.4696  1.1667  1.5848
    1SOL    HW3 3707   3.596   0.885   1.429 -1.2093 -0.3419  0.3199
    1SOL    MW4 3708   3.603   0.869   1.514 -0.0308  0.2131  0.3290
    1SOL     OW 3709   3.597   1.144   1.563 -0.1134 -0.9278  0.2193
    1SOL    HW2 3710   3.677   1.187   1.534  0.2981 -0.8752  1.4183
    1SOL    HW3 3711   3.613   1.050   1.551  0.1311 -0.9170  0.4710
    1SOL    MW4 3712   3.609   1.137   1.557 -0.0267 -0.9193  0.4107
    1SOL     OW 3713   3.827   1.279   1.472 -0.2170  0.3266 -0.0979
    1SOL    HW2 3714   3.911   1.245   1.502 -0.3189  0.1024 -0.0659
    1SOL    HW3 3715   3.818   1.363   1.516 -0.3714 -0.0061  0.5013
    1SOL    MW4 3716   3.837   1.286   1.481 -0.2508  0.2532 -0.0145
    1SOL     OW 3717   3.808   1.523   1.590  0.2226  0.1873 -0.1019
    1SOL    HW2 3718   3.814   1.554   1.680  0.2086 -0.7185  0.2170
    1SOL    HW3 3719   3.725   1.557   1.558  0.0966  0.2737  0.3211
    1SOL    MW4 3720   3.798   1.531   1.598  0.2046  0.0793 -0.0041
    1SOL     OW 3721   3.572   1.666   1.515 -0.2707  0.5721  0.0876
    1SOL    HW2 3722   3.491   1.633   1.554  0.5437 -2.1110 -0.4006
    1SOL    HW3 3723   3.556   1.661   1.420  0.0165  1.2622 -0.0001
    1SOL    MW4 3724   3.559   1.661   1.507 -0.1256  0.3091  0.0116
    1SOL     OW 3725   3.583   1.934   1.588  0.4609  0.1181 -0.1821
    1SOL    HW2 3726   3.558   1.847   1.556 -0.8877  0.0974  0.8612
    1SOL    HW3 3727   3.511   1.991   1.561  1.0792  0.8046 -0.3816
    1SOL    MW4 3728   3.570   1.930   1.580  0.3645  0.2060 -0.0707
    1SOL     OW 3729   3.790   2.055   1.455 -0.4048 -0.2126 -0.2915
    1SOL    HW2 3730   3.776   2.140   1.496  1.8350  0.8112 -1.5751
    1SOL    HW3 3731   3.731   1.996   1.502 -0.0643  1.4929  2.4092
    1SOL    MW4 3732   3.780   2.058   1.467 -0.0644  0.1478 -0.1044
    1SOL     OW 3733   3.791   2.311   1.592  0.1048 -0.3450 -0.0985
    1SOL    HW2 3734   3.812   2.302   1.685  0.8703  0.5760 -0.1673
    1SOL    HW3 3735   3.872   2.345   1.553 -0.8490  1.1975 -0.7603
    1SOL    MW4 3736   3.804   2.314   1.599  0.0799 -0.0200 -0.1950
    1SOL     OW 3737   3.563   2.437   1.484  0.0674 -0.3887 -0.1421
    1SOL    HW2 3738   3.580   2.531   1.488 -0.0517 -0.4186  1.6700
    1SOL    HW3 3739   3.641   2.396   1.522 -0.1172 -0.9872 -0.3912
    1SOL    MW4 3740   3.576   2.444   1.489  0.0272 -0.4716  0.0641
    1SOL     OW 3741   3.583   2.694   1.582 -0.1646 -0.2163  0.5602
    1SOL    HW2 3742   3.587   2.680   1.676 -1.4206 -1.8677  0.3912
    1SOL    HW3 3743   3.499   2.739   1.569  0.3345  0.6352  0.3104
    1SOL    MW4 3744   3.572   2.698   1.593 -0.2646 -0.3216  0.5049
    1SOL     OW 3745   3.815   2.813   1.498 -0.3229 -0.2328 -0.4577
    1SOL    HW2 3746   3.878   2.741   1.500 -0.0236 -0.0102 -1.3799
    1SOL    HW3 3747   3.732   2.774   1.526  0.3571 -0.3801  1.3872
    1SOL    MW4 3748   3.812   2.798   1.502 -0.1938 -0.2229 -0.3359
    1SOL     OW 3749   3.774   3.091   1.572 -0.3222  0.1747 -0.0662
    1SOL    HW2 3750   3.857   3.134   1.552 -0.1591  0.6050  1.4907
    1SOL    HW3 3751   3.792   2.998   1.558 -0.0439  0.3902 -1.2666
    1SOL    MW4 3752   3.788   3.084   1.567 -0.2642  0.2601 -0.0192
    1SOL     OW 3753   3.556   3.278   1.495  0.2975  0.0753  0.0137
    1SOL    HW2 3754   3.626   3.216   1.510 -1.7528 -2.4983 -0.7175
    1SOL    HW3 3755   3.565   3.302   1.402 -0.9026 -1.7284 -0.5913
    1SOL    MW4 3756   3.566   3.273   1.484 -0.1311 -0.5023 -0.1626
    1SOL     OW 3757   3.610   3.539   1.598  0.2663 -0.0962 -0.3416
    1SOL    HW2 3758   3.698   3.556   1.562  0.6827 -1.3110  0.0698
    1SOL    HW3 3759   3.593   3.447   1.575 -0.4486 -0.1781  0.5236
    1SOL    MW4 3760   3.620   3.529   1.590  0.2270 -0.2673 -0.1731
    1SOL     OW 3761   3.839   3.614   1.495 -0.5645 -0.0740 -0.3722
    1SOL    HW2 3762   3.911   3.567   1.537 -0.7559 -0.2477 -0.2410
    1SOL    HW3 3763   3.850   3.705   1.524 -0.5844 -0.1573 -0.1033
    1SOL    MW4 3764   3.850   3.620   1.504 -0.5925 -0.1080 -0.3194
    1SOL     OW 3765   3.828   3.868   1.627  0.0301 -0.0855  0.8787
    1SOL    HW2 3766   3.900   3.923   1.598  0.3356 -0.0105  1.7531
    1SOL    HW3 3767   3.750   3.907   1.588  0.3370  0.5100  0.8605
    1SOL    MW4 3768   3.827   3.881   1.618  0.1109  0.0029  0.9917
    1SOL     OW 3769   3.620   4.008   1.523 -0.2819 -0.4817  0.1303
    1SOL    HW2 3770   3.610   4.099   1.551  1.1437 -0.5500  0.8753
    1SOL    HW3 3771   3.536   3.967   1.546 -0.8013  0.5562  0.1130
    1SOL    MW4 3772   3.608   4.015   1.530 -0.1624 -0.3543  0.2263
    1SOL     OW 3773   3.582   4.270   1.611  0.4409  0.5235 -0.2208
    1SOL    HW2 3774   3.587   4.275   1.707  1.2369  1.4545 -0.3055
    1SOL    HW3 3775   3.515   4.333   1.587 -0.7041 -0.6561 -0.1992
    1SOL    MW4 3776   3.574   4.279   1.621  0.3948  0.4907 -0.2290
    1SOL     OW 3777   3.779   4.401   1.484 -0.3160 -0.2486  0.2240
    1SOL    HW2 3778   3.703   4.364   1.529  0.6069 -0.6249  1.5271
    1SOL    HW3 3779   3.779   4.493   1.508  0.5851 -0.5981  1.6142
    1SOL    MW4 3780   3.769   4.408   1.493 -0.0753 -0.3448  0.5795
    1SOL     OW 3781   4.246   4.644   1.591 -0.6378 -0.0388 -0.1523
    1SOL    HW2 3782   4.237   4.646   1.686  0.7824 -0.2565  0.0054
    1SOL    HW3 3783   4.238   4.551   1.568 -1.3518  0.0547 -0.2888
    1SOL    MW4 3784   4.244   4.632   1.600 -0.5450 -0.0548 -0.1494
    1SOL     OW 3785   4.033   0.125   1.491  0.4632  0.0442  0.1958
    1SOL    HW2 3786   4.051   0.209   1.532  0.0790  0.5369 -0.6332
    1SOL    HW3 3787   4.099   0.066   1.527  0.0750  0.4450  1.5811
    1SOL    MW4 3788   4.044   0.128   1.501  0.3610  0.1621  0.2692
    1SOL     OW 3789   4.066   0.389   1.601 -0.4648  0.2657 -0.0691
    1SOL    HW2 3790   4.054   0.386   1.696 -0.7456 -0.8107 -0.1255
    1SOL    HW3 3791   3.987   0.430   1.567 -0.4007  0.5715  0.1510
    1SOL    MW4 3792   4.054   0.394   1.609 -0.4930  0.1640 -0.0476
    1SOL     OW 3793   4.268   0.516   1.447  0.0368  0.2948 -0.0387
    1SOL    HW2 3794   4.183   0.489   1.480 -0.6543 -1.2473 -2.9170
    1SOL    HW3 3795   4.327   0.443   1.468  0.3352  0.7109  0.6053
    1SOL    MW4 3796   4.265   0.503   1.454 -0.0148  0.1462 -0.3334
    1SOL     OW 3797   4.284   0.720   1.632  0.2049 -0.6047  0.2244
    1SOL    HW2 3798   4.291   0.645   1.573  0.8690 -0.3529 -0.0198
    1SOL    HW3 3799   4.351   0.781   1.602 -1.2965  0.7281 -0.4748
    1SOL    MW4 3800   4.294   0.718   1.620  0.0944 -0.3956  0.1000
    1SOL     OW 3801   4.074   0.859   1.480 -0.4438 -0.1524 -0.4869
    1SOL    HW2 3802   4.148   0.813   1.521  0.2939  1.9772  0.6613
    1SOL    HW3 3803   4.000   0.842   1.538 -0.3890 -0.6100 -0.5479
    1SOL    MW4 3804   4.074   0.850   1.493 -0.3395  0.0682 -0.3434
    1SOL     OW 3805   4.061   1.166   1.562  0.9312  0.5311 -0.5366
    1SOL    HW2 3806   4.059   1.171   1.658 -2.1335  0.2279 -0.5272
    1SOL    HW3 3807   4.063   1.073   1.542  1.4117  0.5907 -0.7769
    1SOL    MW4 3808   4.061   1.155   1.572  0.5903  0.4991 -0.5671
    1SOL     OW 3809   4.279   1.285   1.473  0.8218  0.0476  0.3349
    1SOL    HW2 3810   4.208   1.234   1.511  1.2922  0.0168  1.1685
    1SOL    HW3 3811   4.359   1.252   1.514  1.1831  1.0934  0.5085
    1SOL    MW4 3812   4.280   1.274   1.483  0.9317  0.1816  0.4678
    1SOL     OW 3813   4.257   1.532   1.572  0.3295  0.5686 -0.3417
    1SOL    HW2 3814   4.282   1.443   1.549 -0.2079  0.2063  0.4221
    1SOL    HW3 3815   4.330   1.587   1.544  0.4456 -0.0580 -1.2545
    1SOL    MW4 3816   4.270   1.528   1.566  0.2737  0.4382 -0.3613
    1SOL     OW 3817   4.015   1.663   1.483  0.0678 -0.2139  0.6493
    1SOL    HW2 3818   4.096   1.630   1.522  0.4417 -0.0245  0.0408
    1SOL    HW3 3819   3.948   1.602   1.514  0.4855 -0.5463  0.9202
    1SOL    MW4 3820   4.017   1.651   1.492  0.1717 -0.2327  0.6047
    1SOL     OW 3821   4.003   1.927   1.608  0.0733  0.2431  0.2256
    1SOL    HW2 3822   3.985   1.843   1.565 -0.1807 -0.2065  1.2060
    1SOL    HW3 3823   3.940   1.988   1.569  0.0060 -0.0996 -0.2094
    1SOL    MW4 3824   3.992   1.924   1.597  0.0308  0.1385  0.2975
    1SOL     OW 3825   4.256   1.986   1.525 -0.0538  0.2763 -0.4163
    1SOL    HW2 3826   4.168   1.954   1.546  0.3557 -0.2862  0.4656
    1SOL    HW3 3827   4.248   2.020   1.436 -0.7379 -1.4134 -1.0181
    1SOL    MW4 3828   4.243   1.986   1.516 -0.0901 -0.0207 -0.3793
    1SOL     OW 3829   4.284   2.270   1.611 -0.3433  0.0637  0.1307
    1SOL    HW2 3830   4.254   2.292   1.700 -1.9608 -0.0584 -0.3632
    1SOL    HW3 3831   4.266   2.177   1.602  0.5371 -0.0920 -0.0705
    1SOL    MW4 3832   4.278   2.261   1.622 -0.4411  0.0269  0.0390
    1SOL     OW 3833   4.052   2.392   1.519  0.1166 -0.0019  0.1416
    1SOL    HW2 3834   4.054   2.485   1.541 -0.0894  0.4682 -1.7418
    1SOL    HW3 3835   4.137   2.359   1.545  0.2247  0.7414  0.7349
    1SOL    MW4 3836   4.063   2.400   1.525  0.1040  0.1585 -0.0285
    1SOL     OW 3837   4.032   2.663   1.566 -0.0557  0.6134  0.2778
    1SOL    HW2 3838   4.016   2.669   1.660  0.9715 -0.0199  0.4933
    1SOL    HW3 3839   4.102   2.725   1.549  0.4932 -0.0514  0.1020
    1SOL    MW4 3840   4.039   2.672   1.576  0.1516  0.4423  0.2830
    1SOL     OW 3841   4.249   2.850   1.511 -0.5096  0.3374 -0.1356
    1SOL    HW2 3842   4.255   2.936   1.552  0.6033  0.1477  0.1340
    1SOL    HW3 3843   4.247   2.869   1.417 -1.3441  0.7028 -0.0392
    1SOL    MW4 3844   4.250   2.864   1.504 -0.4730  0.3605 -0.0874
    1SOL     OW 3845   4.239   3.098   1.630  0.0827  0.2492 -0.4350
    1SOL    HW2 3846   4.240   3.110   1.725  0.1417  2.3875 -0.7012
    1SOL    HW3 3847   4.319   3.139   1.598  0.2900 -0.8415 -1.3902
    1SOL    MW4 3848   4.249   3.105   1.638  0.1178  0.3874 -0.5959
    1SOL     OW 3849   4.010   3.216   1.515  0.3136 -0.6449  0.3188
    1SOL    HW2 3850   4.015   3.304   1.550  1.8038  0.0254 -1.4957
    1SOL    HW3 3851   4.079   3.168   1.560  1.3434 -0.1359 -0.6916
    1SOL    MW4 3852   4.019   3.221   1.525  0.6456 -0.4892 -0.0538
    1SOL     OW 3853   4.024   3.466   1.633  0.3942 -0.3604 -0.3882
    1SOL    HW2 3854   4.014   3.492   1.724 -1.2157  1.5719 -1.0958
    1SOL    HW3 3855   4.110   3.497   1.608 -0.0044  0.9615 -0.1277
    1SOL    MW4 3856   4.034   3.473   1.642  0.1297  0.0687 -0.4470
    1SOL     OW 3857   4.234   3.597   1.519 -0.0394 -0.1041  0.3028
    1SOL    HW2 3858   4.236   3.683   1.560 -1.4435 -0.2257  0.6374
    1SOL    HW3 3859   4.236   3.615   1.425 -1.5028  0.3469  0.3451
    1SOL    MW4 3860   4.235   3.611   1.512 -0.4177 -0.0606  0.3524
    1SOL     OW 3861   4.259   3.848   1.625 -0.2776 -0.4013  0.4267
    1SOL    HW2 3862   4.184   3.888   1.580 -0.6109  0.3927  1.6484
    1SOL    HW3 3863   4.335   3.881   1.578 -0.6101  0.6862  0.6229
    1SOL    MW4 3864   4.259   3.858   1.613 -0.3657 -0.1533  0.6138
    1SOL     OW 3865   4.053   3.973   1.496 -0.3457  0.4457 -0.4323
    1SOL    HW2 3866   4.035   4.067   1.503 -1.2176  0.2360  0.2941
    1SOL    HW3 3867   4.076   3.960   1.404 -0.1459  1.3802 -0.5236
    1SOL    MW4 3868   4.053   3.984   1.485 -0.4339  0.5414 -0.3484
    1SOL     OW 3869   4.016   4.236   1.569 -0.2531 -0.2372  0.0359
    1SOL    HW2 3870   3.996   4.241   1.662 -1.0900  0.2477 -0.1614
    1SOL    HW3 3871   3.959   4.302   1.529  0.2705 -0.2801 -0.7902
    1SOL    MW4 3872   4.006   4.246   1.576 -0.2942 -0.1788 -0.0991
    1SOL     OW 3873   4.227   4.390   1.508  0.2875 -0.3872  0.4348
    1SOL    HW2 3874   4.156   4.336   1.541 -1.1225  1.5759  0.7334
    1SOL    HW3 3875   4.224   4.378   1.413  0.2715 -1.1573  0.5301
    1SOL    MW4 3876   4.217   4.381   1.500  0.0992 -0.2298  0.4867
    1SOL     OW 3877   0.217   4.628   1.886  0.1124  0.2160 -0.0978
    1SOL    HW2 3878   0.283   4.693   1.909 -0.3449  0.5652  0.2241
    1SOL    HW3 3879   0.226   4.618   1.791  0.0164  0.9259 -0.1810
    1SOL    MW4 3880   0.227   4.635   1.876  0.0394  0.3552 -0.0664
    1SOL     OW 3881   4.455   0.084   1.922 -0.7940  0.5130  0.1158
    1SOL    HW2 3882   4.457   0.172   1.884 -0.9976 -0.2543 -1.7286
    1SOL    HW3 3883   4.546   0.053   1.915 -0.5051  0.9255  1.6796
    1SOL    MW4 3884   4.468   0.091   1.916 -0.7820  0.4662  0.0788
    1SOL     OW 3885   4.436   0.343   1.835 -0.2399 -0.3454  0.1876
    1SOL    HW2 3886   4.360   0.384   1.877 -0.4460 -0.5144 -0.0246
    1SOL    HW3 3887   4.511   0.375   1.886 -0.5542 -1.2634  1.2573
    1SOL    MW4 3888   4.436   0.353   1.847 -0.3085 -0.4888  0.3008
    1SOL     OW 3889   0.164   0.456   1.975 -0.2606 -0.0013 -0.3737
    1SOL    HW2 3890   0.248   0.420   1.948  0.1775  0.4848  0.3151
    1SOL    HW3 3891   0.161   0.543   1.934 -0.4187 -0.0165 -0.3932
    1SOL    MW4 3892   0.174   0.463   1.966 -0.2237  0.0608 -0.2854
    1SOL     OW 3893   0.201   0.713   1.866 -0.0314 -0.0367  0.3899
    1SOL    HW2 3894   0.256   0.763   1.926  0.1459 -1.3202  1.3188
    1SOL    HW3 3895   0.242   0.725   1.780  1.2581 -0.3419  0.9479
    1SOL    MW4 3896   0.214   0.721   1.862  0.1621 -0.2463  0.5860
    1SOL     OW 3897   4.474   0.885   1.964 -0.3852 -0.4016  0.5397
    1SOL    HW2 3898   4.395   0.837   1.939  0.3845 -2.3593  1.7076
    1SOL    HW3 3899   4.546   0.829   1.934  0.5758  1.1706 -0.1726
    1SOL    MW4 3900   4.473   0.871   1.957 -0.1564 -0.4525  0.5997
    1SOL     OW 3901   0.015   1.129   1.853 -0.3364 -0.0310 -0.2045
    1SOL    HW2 3902  -0.052   1.181   1.897 -1.0487 -0.7011 -0.4952
    1SOL    HW3 3903   0.007   1.041   1.890  1.3103  0.1991  0.7697
    1SOL    MW4 3904   0.005   1.124   1.863 -0.2130 -0.0890 -0.1143
    1SOL     OW 3905   0.248   1.248   1.951  0.3101 -0.0125  0.2196
    1SOL    HW2 3906   0.249   1.341   1.925 -0.8235  0.0493  0.3641
    1SOL    HW3 3907   0.167   1.214   1.914  0.5112 -0.8533  0.5371
    1SOL    MW4 3908   0.238   1.256   1.942  0.1871 -0.1153  0.2805
    1SOL     OW 3909   0.255   1.528   1.863 -0.0209 -0.3716 -0.1530
    1SOL    HW2 3910   0.314   1.576   1.922  0.0463 -0.7010  0.0508
    1SOL    HW3 3911   0.168   1.563   1.883 -0.1691 -1.4527  1.1179
    1SOL    MW4 3912   0.251   1.539   1.874 -0.0316 -0.5575  0.0416
    1SOL     OW 3913   0.026   1.632   1.967  0.0555  0.5442 -0.0970
    1SOL    HW2 3914   0.024   1.637   2.063 -0.2435 -0.6152 -0.0395
    1SOL    HW3 3915  -0.056   1.591   1.943 -0.0859  1.2824 -0.8932
    1SOL    MW4 3916   0.015   1.627   1.976 -0.0026  0.4888 -0.1944
    1SOL     OW 3917   0.007   1.910   1.879  0.3601  0.0478  0.5547
    1SOL    HW2 3918  -0.064   1.959   1.920 -2.0852 -1.9437 -1.1002
    1SOL    HW3 3919   0.003   1.824   1.921  1.4838 -0.2446  0.0769
    1SOL    MW4 3920  -0.003   1.905   1.890  0.1860 -0.2534  0.2733
    1SOL     OW 3921   0.212   2.053   1.983  0.2580 -0.2029 -0.6399
    1SOL    HW2 3922   0.195   2.137   1.941 -1.9282  0.4694  1.4804
    1SOL    HW3 3923   0.134   2.000   1.964  0.2155 -0.6325  0.6932
    1SOL    MW4 3924   0.200   2.057   1.975 -0.0360 -0.1707 -0.1844
    1SOL     OW 3925   0.181   2.306   1.895 -0.1763  0.1399 -0.2493
    1SOL    HW2 3926   0.263   2.339   1.933  0.2425 -1.1624  0.0296
    1SOL    HW3 3927   0.115   2.369   1.922  0.8706  1.6568 -1.1702
    1SOL    MW4 3928   0.183   2.319   1.904  0.0171  0.1678 -0.3340
    1SOL     OW 3929   4.454   2.493   1.932  0.2870  0.6031  0.2336
    1SOL    HW2 3930   4.446   2.500   2.027  2.3674  0.3862  0.4529
    1SOL    HW3 3931   4.435   2.581   1.900  0.2040  0.8351  0.9130
    1SOL    MW4 3932   4.451   2.506   1.941  0.5503  0.6053  0.3521
    1SOL     OW 3933   4.427   2.751   1.858  0.1970  0.3513  0.2702
    1SOL    HW2 3934   4.345   2.781   1.895  0.0224  0.8957 -0.5573
    1SOL    HW3 3935   4.412   2.749   1.763  0.8393 -0.4265  0.1748
    1SOL    MW4 3936   4.414   2.754   1.850  0.2584  0.3209  0.1483
    1SOL     OW 3937   0.175   2.837   1.972  0.2356 -0.1877  0.3824
    1SOL    HW2 3938   0.182   2.928   1.943 -0.1077 -0.0129  0.8470
    1SOL    HW3 3939   0.107   2.798   1.916  0.2527 -0.1126  0.3096
    1SOL    MW4 3940   0.167   2.844   1.961  0.1926 -0.1547  0.4342
    1SOL     OW 3941   0.243   3.094   1.911  0.1796  0.1066 -0.1203
    1SOL    HW2 3942   0.309   3.143   1.959 -0.2385  0.0520  0.5265
    1SOL    HW3 3943   0.268   3.101   1.820  1.9591 -1.2311  0.2491
    1SOL    MW4 3944   0.255   3.101   1.906  0.3592 -0.0770  0.0137
    1SOL     OW 3945   4.486   3.221   1.963  0.2957  0.3714 -0.0718
    1SOL    HW2 3946   4.414   3.159   1.958  0.2973  0.3564  0.0594
    1SOL    HW3 3947   4.565   3.167   1.957  0.3147  0.2297  1.1950
    1SOL    MW4 3948   4.487   3.206   1.962  0.2985  0.3507  0.1127
    1SOL     OW 3949   4.454   3.475   1.853  0.2969  0.3646 -0.0402
    1SOL    HW2 3950   4.539   3.511   1.880  1.4517 -0.1493 -2.8108
    1SOL    HW3 3951   4.447   3.392   1.899  0.3640  1.3251  1.7513
    1SOL    MW4 3952   4.464   3.469   1.863  0.4578  0.4237 -0.1694
    1SOL     OW 3953   0.182   3.599   1.972  0.2651 -0.2312 -0.0156
    1SOL    HW2 3954   0.177   3.594   2.068 -0.0525  1.2694  0.0581
    1SOL    HW3 3955   0.271   3.571   1.951  0.1209 -1.2163  0.6696
    1SOL    MW4 3956   0.193   3.595   1.982  0.2041 -0.1633  0.0845
    1SOL     OW 3957   0.196   3.872   1.890  0.5426  0.6648  0.0587
    1SOL    HW2 3958   0.267   3.910   1.941 -0.0472  0.7986  0.7960
    1SOL    HW3 3959   0.180   3.787   1.931 -0.7839  1.3042  0.9238
    1SOL    MW4 3960   0.203   3.866   1.902  0.2898  0.7668  0.2700
    1SOL     OW 3961   4.471   4.013   1.995 -0.4492 -0.1600  0.2017
    1SOL    HW2 3962   4.470   4.103   1.961 -0.9239  0.0030  0.6435
    1SOL    HW3 3963   4.544   3.972   1.950 -0.2460  0.4422 -0.0285
    1SOL    MW4 3964   4.480   4.020   1.985 -0.4849 -0.0587  0.2297
    1SOL     OW 3965   4.489   4.284   1.864  0.1135  0.2653  0.5817
    1SOL    HW2 3966   4.420   4.341   1.896 -0.3332 -0.5192  1.0295
    1SOL    HW3 3967   4.570   4.325   1.894 -0.0014  2.4233 -1.8748
    1SOL    MW4 3968   4.491   4.296   1.872  0.0391  0.4468  0.3167
    1SOL     OW 3969   0.224   4.371   1.993  0.4571  0.5106 -0.1247
    1SOL    HW2 3970   0.228   4.375   2.088  0.8395  1.4012 -0.1703
    1SOL    HW3 3971   0.241   4.461   1.964 -2.6073  0.8827 -0.9434
    1SOL    MW4 3972   0.227   4.383   2.002  0.1032  0.6776 -0.2389
    1SOL     OW 3973   0.673   4.645   1.894 -0.5123  0.5916  0.4242
    1SOL    HW2 3974   0.661   4.554   1.919  0.8728  0.6229  1.2010
    1SOL    HW3 3975   0.658   4.645   1.799  0.5047 -0.6143  0.2543
    1SOL    MW4 3976   0.669   4.633   1.884 -0.1954  0.4368  0.5044
    1SOL     OW 3977   0.441   0.103   1.964  0.5307  0.3950  0.0935
    1SOL    HW2 3978   0.438   0.197   1.951  0.0150  0.2671 -0.7749
    1SOL    HW3 3979   0.527   0.076   1.932  0.4677  0.5003 -0.1645
    1SOL    MW4 3980   0.452   0.112   1.958  0.4543  0.3920 -0.0551
    1SOL     OW 3981   0.424   0.368   1.907 -0.0689 -0.1085  0.3296
    1SOL    HW2 3982   0.497   0.420   1.939 -0.4889 -0.2495  1.5429
    1SOL    HW3 3983   0.428   0.377   1.811  1.4740 -0.0585  0.3888
    1SOL    MW4 3984   0.434   0.376   1.898  0.0792 -0.1205  0.4973
    1SOL     OW 3985   0.669   0.498   2.009 -0.3508 -0.4373  0.4417
    1SOL    HW2 3986   0.686   0.472   2.099 -2.4839 -2.3495  0.3364
    1SOL    HW3 3987   0.742   0.460   1.959 -1.1886 -2.6486  0.8677
    1SOL    MW4 3988   0.681   0.490   2.014 -0.7428 -0.9814  0.4842
    1SOL     OW 3989   0.668   0.770   1.889 -0.0991 -0.0746  0.2533
    1SOL    HW2 3990   0.748   0.808   1.925  0.4072  0.0184 -0.9324
    1SOL    HW3 3991   0.666   0.681   1.925 -0.3077  0.4384  1.5420
    1SOL    MW4 3992   0.678   0.763   1.898 -0.0598  0.0053  0.2668
    1SOL     OW 3993   0.405   0.851   1.999  0.0095 -0.3328 -0.1424
    1SOL    HW2 3994   0.406   0.939   1.962  0.7985 -0.4168 -0.3268
    1SOL    HW3 3995   0.493   0.817   1.982 -0.1433 -0.9778  0.3495
    1SOL    MW4 3996   0.417   0.858   1.992  0.0935 -0.4289 -0.1017
    1SOL     OW 3997   0.455   1.098   1.878  0.0767 -0.4012 -0.0851
    1SOL    HW2 3998   0.374   1.145   1.893  1.3868  1.3606  1.6826
    1SOL    HW3 3999   0.470   1.105   1.784 -1.0228  0.5596 -0.1930
    1SOL    MW4 4000   0.447   1.105   1.868  0.1045 -0.0420  0.1339
    1SOL     OW 4001   0.670   1.255   1.971  0.2159  0.0563 -0.0419
    1SOL    HW2 4002   0.669   1.269   2.066 -1.4937  1.0194 -0.1865
    1SOL    HW3 4003   0.593   1.201   1.954 -0.9381  1.9712 -1.1612
    1SOL    MW4 4004   0.659   1.250   1.981 -0.1620  0.4358 -0.2086
    1SOL     OW 4005   0.643   1.524   1.902 -0.0268  0.2275  0.3531
    1SOL    HW2 4006   0.673   1.435   1.917  1.4110  0.8666  1.3095
    1SOL    HW3 4007   0.662   1.541   1.810  0.4664 -0.1559  0.3859
    1SOL    MW4 4008   0.649   1.515   1.892  0.2279  0.2614  0.4836
    1SOL     OW 4009   0.441   1.668   2.004  0.2405  0.3255 -0.1567
    1SOL    HW2 4010   0.455   1.664   2.099  1.3690 -1.1956 -0.3758
    1SOL    HW3 4011   0.508   1.611   1.967 -1.4804 -0.7435 -1.7460
    1SOL    MW4 4012   0.452   1.660   2.012  0.1624 -0.0162 -0.3953
    1SOL     OW 4013   0.383   1.894   1.856  0.0841  0.0687  0.1707
    1SOL    HW2 4014   0.386   1.812   1.907 -1.2336 -0.1185 -0.0259
    1SOL    HW3 4015   0.328   1.952   1.908  1.9655  1.2478  0.8756
    1SOL    MW4 4016   0.376   1.891   1.870  0.1585  0.1994  0.2377
    1SOL     OW 4017   0.604   2.026   1.980 -0.0132  0.0305 -0.3057
    1SOL    HW2 4018   0.598   2.039   2.075  1.2368 -0.1864 -0.1908
    1SOL    HW3 4019   0.526   1.975   1.958  0.1569 -0.7112  0.7542
    1SOL    MW4 4020   0.593   2.021   1.990  0.1742 -0.0958 -0.1507
    1SOL     OW 4021   0.642   2.325   1.910 -0.0177  0.2402 -0.3228
    1SOL    HW2 4022   0.629   2.234   1.934  0.6034  0.4849  0.9514
    1SOL    HW3 4023   0.627   2.327   1.815 -0.6435 -1.0606 -0.2552
    1SOL    MW4 4024   0.639   2.314   1.900 -0.0184  0.1009 -0.1458
    1SOL     OW 4025   0.403   2.429   1.991 -0.2104  0.1479 -0.5064
    1SOL    HW2 4026   0.417   2.427   2.086 -0.7794  0.1265 -0.4212
    1SOL    HW3 4027   0.483   2.391   1.955  0.4878  1.1962 -0.0962
    1SOL    MW4 4028   0.416   2.423   1.999 -0.1934  0.2832 -0.4411
    1SOL     OW 4029   0.408   2.701   1.902  0.2474  0.1735  0.2504
    1SOL    HW2 4030   0.411   2.609   1.929 -2.7613 -1.1078 -3.3186
    1SOL    HW3 4031   0.336   2.738   1.954  0.0766 -0.0488  0.1762
    1SOL    MW4 4032   0.399   2.694   1.913 -0.1721 -0.0248 -0.2302
    1SOL     OW 4033   0.638   2.860   1.974 -0.2695 -0.2326  0.3068
    1SOL    HW2 4034   0.628   2.852   2.069  0.0891 -1.1903  0.2646
    1SOL    HW3 4035   0.571   2.801   1.939 -0.4341  0.1597 -0.0401
    1SOL    MW4 4036   0.628   2.851   1.982 -0.2439 -0.3071  0.2556
    1SOL     OW 4037   0.664   3.125   1.907  0.0526  0.4001  0.3929
    1SOL    HW2 4038   0.666   3.032   1.930 -0.8234  0.5481  1.1046
    1SOL    HW3 4039   0.669   3.127   1.812  2.1758 -0.2893  0.4522
    1SOL    MW4 4040   0.665   3.113   1.898  0.2172  0.3285  0.4947
    1SOL     OW 4041   0.433   3.227   2.041 -0.5106  0.1237  0.0231
    1SOL    HW2 4042   0.418   3.307   1.991 -0.7615 -0.4286 -0.7898
    1SOL    HW3 4043   0.514   3.191   2.005 -1.3058 -0.8879 -0.8136
    1SOL    MW4 4044   0.442   3.233   2.030 -0.6486 -0.0825 -0.1948
    1SOL     OW 4045   0.433   3.486   1.909  0.2868  0.4680 -0.4329
    1SOL    HW2 4046   0.508   3.534   1.945  0.6696 -0.7653  0.4397
    1SOL    HW3 4047   0.440   3.499   1.814  0.5514  1.8875 -0.2267
    1SOL    MW4 4048   0.444   3.494   1.901  0.3722  0.4928 -0.2904
    1SOL     OW 4049   0.656   3.636   1.984  0.0379 -0.3905 -0.2733
    1SOL    HW2 4050   0.741   3.595   1.966  0.7200  0.5113  0.7768
    1SOL    HW3 4051   0.653   3.712   1.926  0.2755 -0.0175  0.1942
    1SOL    MW4 4052   0.667   3.641   1.974  0.1593 -0.2222 -0.0731
    1SOL     OW 4053   0.603   3.880   1.843 -0.3722 -0.1503  0.4132
    1SOL    HW2 4054   0.692   3.905   1.865 -0.4990  0.0647  0.6801
    1SOL    HW3 4055   0.603   3.871   1.748 -0.1367  0.1135  0.3891
    1SOL    MW4 4056   0.615   3.882   1.833 -0.3579 -0.0873  0.4451
    1SOL     OW 4057   0.416   3.986   2.032 -0.3036 -0.0059  0.0655
    1SOL    HW2 4058   0.406   4.071   1.990  0.8861 -1.0361 -2.4293
    1SOL    HW3 4059   0.479   3.939   1.976 -0.8487 -2.4641  1.4445
    1SOL    MW4 4060   0.423   3.991   2.019 -0.2186 -0.4661 -0.0818
    1SOL     OW 4061   0.419   4.225   1.869 -0.1808 -0.3131  0.1477
    1SOL    HW2 4062   0.343   4.260   1.916 -0.6138 -0.3698 -0.5090
    1SOL    HW3 4063   0.403   4.246   1.777  0.8826  0.1981  0.0623
    1SOL    MW4 4064   0.407   4.232   1.863 -0.0977 -0.2537  0.0498
    1SOL     OW 4065   0.627   4.384   1.975  0.6229 -0.9372  0.0382
    1SOL    HW2 4066   0.708   4.343   1.944 -0.0956 -2.0111 -0.4618
    1SOL    HW3 4067   0.557   4.332   1.935 -0.3165  0.0790  0.3301
    1SOL    MW4 4068   0.628   4.371   1.966  0.4042 -0.9446  0.0107
    1SOL     OW 4069   1.093   4.620   1.845  0.8223  0.1567 -0.4492
    1SOL    HW2 4070   1.177   4.652   1.878  1.2129 -0.4617 -0.8422
    1SOL    HW3 4071   1.083   4.534   1.885  1.0001 -0.3302 -1.4394
    1SOL    MW4 4072   1.103   4.613   1.855  0.8973  0.0110 -0.6317
    1SOL     OW 4073   0.894   0.119   1.970  0.2768  0.2888  0.1430
    1SOL    HW2 4074   0.956   0.053   1.939  0.9575  0.4557  1.1336
    1SOL    HW3 4075   0.808   0.080   1.954  0.5858  0.3859 -1.9921
    1SOL    MW4 4076   0.891   0.106   1.964  0.4073  0.3237 -0.0081
    1SOL     OW 4077   0.879   0.380   1.859 -0.0159 -0.0323  0.1299
    1SOL    HW2 4078   0.969   0.401   1.885 -0.4989  1.2530  0.7925
    1SOL    HW3 4079   0.871   0.286   1.874  1.4531 -0.2976 -0.6556
    1SOL    MW4 4080   0.890   0.371   1.865  0.1142  0.1023  0.1136
    1SOL     OW 4081   1.109   0.494   1.973 -0.2234 -0.1998 -0.5756
    1SOL    HW2 4082   1.186   0.449   1.938  0.5146  1.4169 -1.0827
    1SOL    HW3 4083   1.118   0.584   1.943 -1.3307  0.4553  0.9792
    1SOL    MW4 4084   1.120   0.500   1.965 -0.2722  0.0999 -0.4373
    1SOL     OW 4085   1.124   0.744   1.882  0.3171  0.2618  0.4678
    1SOL    HW2 4086   1.209   0.779   1.910  0.1974  0.7869  0.1786
    1SOL    HW3 4087   1.060   0.795   1.930  0.1805 -0.7056  1.3238
    1SOL    MW4 4088   1.127   0.755   1.892  0.2832  0.2034  0.5425
    1SOL     OW 4089   0.907   0.881   1.985 -0.4941  0.0336 -0.3521
    1SOL    HW2 4090   0.879   0.878   2.077 -0.8874  0.1709 -0.4664
    1SOL    HW3 4091   0.910   0.974   1.964 -2.9299 -0.0604 -1.2389
    1SOL    MW4 4092   0.903   0.893   1.994 -0.8674  0.0393 -0.4841
    1SOL     OW 4093   0.933   1.149   1.930  0.1139 -0.0128 -0.5179
    1SOL    HW2 4094   0.850   1.193   1.946 -0.9842 -1.9132 -0.9543
    1SOL    HW3 4095   0.941   1.147   1.834 -0.8615 -2.6099 -0.5727
    1SOL    MW4 4096   0.923   1.155   1.919 -0.1597 -0.6062 -0.5827
    1SOL     OW 4097   1.128   1.320   2.005 -0.0529 -0.1337  0.5757
    1SOL    HW2 4098   1.121   1.409   1.969  0.6409  0.2181  1.2805
    1SOL    HW3 4099   1.056   1.272   1.965 -1.6258  1.2646  1.6748
    1SOL    MW4 4100   1.117   1.326   1.995 -0.1689  0.0973  0.8138
    1SOL     OW 4101   1.082   1.575   1.911  0.2593  0.2602 -0.0606
    1SOL    HW2 4102   0.995   1.607   1.935  0.4265  0.2753  0.5308
    1SOL    HW3 4103   1.074   1.551   1.819 -0.1906  0.8894 -0.1930
    1SOL    MW4 4104   1.069   1.576   1.902  0.2221  0.3452 -0.0002
    1SOL     OW 4105   0.828   1.678   2.035  0.1384 -0.2874  0.2599
    1SOL    HW2 4106   0.821   1.755   1.979  1.1539 -0.6779 -0.4158
    1SOL    HW3 4107   0.767   1.614   1.998 -0.2644 -0.0229  0.4666
    1SOL    MW4 4108   0.819   1.680   2.023  0.2192 -0.3039  0.1981
    1SOL     OW 4109   0.832   1.909   1.878 -0.2784  0.6053 -0.0135
    1SOL    HW2 4110   0.747   1.945   1.904 -0.3057  0.3461  0.2676
    1SOL    HW3 4111   0.843   1.936   1.787 -1.1484 -0.2527 -0.3763
    1SOL    MW4 4112   0.822   1.917   1.869 -0.3968  0.4580 -0.0243
    1SOL     OW 4113   1.068   2.022   1.980  0.2447  0.3275 -0.3518
    1SOL    HW2 4114   1.059   2.116   1.965 -0.9997  0.3220  0.3098
    1SOL    HW3 4115   0.993   1.983   1.936  0.4944 -0.3119 -0.2205
    1SOL    MW4 4116   1.057   2.029   1.972  0.1132  0.2425 -0.2472
    1SOL     OW 4117   1.096   2.292   1.919  0.8263  0.0163 -0.5670
    1SOL    HW2 4118   1.177   2.340   1.939  0.2671  1.1944 -1.0688
    1SOL    HW3 4119   1.091   2.292   1.823  0.6450 -0.7616 -0.5604
    1SOL    MW4 4120   1.106   2.298   1.909  0.7287  0.0689 -0.6323
    1SOL     OW 4121   0.880   2.440   1.982  0.1779  0.3347  0.1337
    1SOL    HW2 4122   0.950   2.376   1.967  0.7618  0.6930  1.2468
    1SOL    HW3 4123   0.800   2.394   1.957  0.6042 -0.7940  0.7750
    1SOL    MW4 4124   0.879   2.426   1.977  0.3111  0.2329  0.3653
    1SOL     OW 4125   0.861   2.695   1.904  0.0889  0.6149  0.3553
    1SOL    HW2 4126   0.854   2.606   1.937  0.6019  0.8922  1.2473
    1SOL    HW3 4127   0.793   2.744   1.951  0.5053  0.9105  0.6612
    1SOL    MW4 4128   0.851   2.690   1.915  0.2115  0.6907  0.5133
    1SOL     OW 4129   1.106   2.845   1.961 -0.0592  0.3498  0.5655
    1SOL    HW2 4130   1.107   2.850   2.056  1.1622 -0.7260  0.6324
    1SOL    HW3 4131   1.024   2.801   1.940  0.7725 -1.5857  1.2688
    1SOL    MW4 4132   1.096   2.840   1.970  0.2117 -0.0474  0.6671
    1SOL     OW 4133   1.078   3.091   1.830 -0.4836  0.4176  0.4830
    1SOL    HW2 4134   1.016   3.150   1.872  0.5859  0.8702  1.4673
    1SOL    HW3 4135   1.065   3.007   1.874 -1.5780  0.0706 -0.4924
    1SOL    MW4 4136   1.068   3.087   1.841 -0.4870  0.4313  0.4841
    1SOL     OW 4137   0.896   3.249   1.995  0.1513 -0.6121 -0.3253
    1SOL    HW2 4138   0.897   3.221   2.087 -0.9765 -0.2303 -0.1966
    1SOL    HW3 4139   0.811   3.221   1.962 -0.8265  2.1741 -0.3118
    1SOL    MW4 4140   0.885   3.242   2.003 -0.1265 -0.1945 -0.3064
    1SOL     OW 4141   0.885   3.513   1.882  0.8419 -0.1289  0.3379
    1SOL    HW2 4142   0.893   3.422   1.909  0.8772 -0.3359 -0.3789
    1SOL    HW3 4143   0.875   3.510   1.787 -0.4643  0.5428  0.4461
    1SOL    MW4 4144   0.885   3.501   1.873  0.6742 -0.0677  0.2577
    1SOL     OW 4145   1.145   3.604   1.944 -0.4763 -0.6269 -0.1413
    1SOL    HW2 4146   1.141   3.619   2.038 -2.2217  0.3773 -0.3433
    1SOL    HW3 4147   1.055   3.581   1.920 -0.0561 -0.8138 -1.5565
    1SOL    MW4 4148   1.132   3.603   1.953 -0.6511 -0.5188 -0.3546
    1SOL     OW 4149   1.110   3.882   1.875  0.3672 -0.2587 -0.4075
    1SOL    HW2 4150   1.129   3.792   1.901 -1.1866 -0.4658  0.0649
    1SOL    HW3 4151   1.116   3.882   1.779 -1.0458 -1.1993 -0.4972
    1SOL    MW4 4152   1.114   3.870   1.866 -0.0241 -0.4098 -0.3569
    1SOL     OW 4153   0.843   3.959   1.935 -0.1808  0.2260 -0.0907
    1SOL    HW2 4154   0.849   3.950   2.030 -2.3374 -1.3211 -0.0706
    1SOL    HW3 4155   0.934   3.949   1.904  0.4129 -0.1176  1.7198
    1SOL    MW4 4156   0.856   3.956   1.943 -0.3871 -0.0236  0.1508
    1SOL     OW 4157   0.861   4.250   1.885  0.3826  0.2099  0.2293
    1SOL    HW2 4158   0.945   4.288   1.910  0.1142  0.8013  0.2324
    1SOL    HW3 4159   0.868   4.158   1.910  1.1766  0.1658 -0.1332
    1SOL    MW4 4160   0.873   4.243   1.891  0.4520  0.2823  0.1820
    1SOL     OW 4161   1.098   4.361   1.948 -0.7247  0.2403 -0.0208
    1SOL    HW2 4162   1.113   4.357   2.043 -0.5022 -0.7354 -0.1000
    1SOL    HW3 4163   1.182   4.339   1.909 -1.0513 -0.2380 -0.4532
    1SOL    MW4 4164   1.111   4.358   1.956 -0.7384  0.0486 -0.0882
    1SOL     OW 4165   1.563   4.654   1.865  0.0395 -0.6490 -0.3268
    1SOL    HW2 4166   1.631   4.704   1.910  0.7725 -2.5775  0.7720
    1SOL    HW3 4167   1.564   4.569   1.908 -1.8264 -1.3062 -1.5354
    1SOL    MW4 4168   1.572   4.649   1.877 -0.1100 -0.9904 -0.3412
    1SOL     OW 4169   1.311   0.090   1.933  0.4364 -0.2279  0.0417
    1SOL    HW2 4170   1.306   0.095   2.029  0.2548 -0.6324  0.0538
    1SOL    HW3 4171   1.396   0.049   1.915  0.8579  0.6496  0.0044
    1SOL    MW4 4172   1.321   0.085   1.943  0.4680 -0.1655  0.0383
    1SOL     OW 4173   1.317   0.357   1.835 -0.3648 -0.0817  0.7833
    1SOL    HW2 4174   1.309   0.269   1.872  1.0593 -0.6924 -0.3168
    1SOL    HW3 4175   1.311   0.344   1.740 -2.0819  1.2417  0.6690
    1SOL    MW4 4176   1.315   0.344   1.827 -0.4034  0.0124  0.6230
    1SOL     OW 4177   1.560   0.504   1.945  0.3632 -0.0037  0.9601
    1SOL    HW2 4178   1.638   0.452   1.926 -0.3811 -0.3592 -1.2688
    1SOL    HW3 4179   1.488   0.457   1.903 -0.6883  1.5210  0.9915
    1SOL    MW4 4180   1.561   0.491   1.937  0.1264  0.1506  0.6703
    1SOL     OW 4181   1.556   0.765   1.878 -0.9908  0.1622 -0.1431
    1SOL    HW2 4182   1.507   0.798   1.953  2.1047  0.3747  1.8268
    1SOL    HW3 4183   1.562   0.671   1.893 -0.1723  0.2351  0.0230
    1SOL    MW4 4184   1.550   0.757   1.890 -0.4745  0.1999  0.1388
    1SOL     OW 4185   1.333   0.894   2.003 -0.1882 -0.2238  0.1455
    1SOL    HW2 4186   1.304   0.898   2.094 -1.9506 -0.8989 -0.3512
    1SOL    HW3 4187   1.327   0.984   1.971  1.4203  0.1836  0.9804
    1SOL    MW4 4188   1.328   0.906   2.011 -0.2085 -0.2592  0.1903
    1SOL     OW 4189   1.331   1.166   1.900 -0.0557  0.3958 -0.4322
    1SOL    HW2 4190   1.410   1.209   1.933 -0.4832  0.9346 -0.0887
    1SOL    HW3 4191   1.259   1.218   1.935 -0.6544 -1.6404  1.4915
    1SOL    MW4 4192   1.332   1.179   1.909 -0.1911  0.1981 -0.1330
    1SOL     OW 4193   1.590   1.265   1.974 -0.0846  0.2021 -0.0484
    1SOL    HW2 4194   1.578   1.359   1.964  0.3763  0.2857  0.1891
    1SOL    HW3 4195   1.586   1.250   2.069 -0.3665 -0.0470 -0.0961
    1SOL    MW4 4196   1.588   1.275   1.985 -0.0609  0.1802 -0.0234
    1SOL     OW 4197   1.528   1.534   1.910  0.6965 -0.3650 -0.1186
    1SOL    HW2 4198   1.600   1.587   1.944  0.2435 -0.8744  1.7224
    1SOL    HW3 4199   1.450   1.574   1.947  0.2417 -1.4379  0.0875
    1SOL    MW4 4200   1.527   1.546   1.919  0.5767 -0.5738  0.1515
    1SOL     OW 4201   1.314   1.674   1.994  0.0904  0.0348 -0.0819
    1SOL    HW2 4202   1.326   1.655   2.087 -0.1047 -0.9253 -0.2439
    1SOL    HW3 4203   1.227   1.640   1.974 -0.5184  1.6400 -0.2672
    1SOL    MW4 4204   1.304   1.667   2.004 -0.0156  0.1198 -0.1280
    1SOL     OW 4205   1.317   1.937   1.870 -0.4343 -0.2506 -0.1712
    1SOL    HW2 4206   1.315   1.843   1.891  0.3033  0.1068  1.5784
    1SOL    HW3 4207   1.235   1.971   1.905 -0.4064 -0.1279 -0.2275
    1SOL    MW4 4208   1.306   1.929   1.877 -0.3333 -0.1873  0.0522
    1SOL     OW 4209   1.536   2.054   1.990  0.5967 -0.0334 -0.1751
    1SOL    HW2 4210   1.554   2.142   1.958  1.3210 -0.4658 -0.9728
    1SOL    HW3 4211   1.446   2.036   1.963  0.3443  0.5657  0.2502
    1SOL    MW4 4212   1.527   2.063   1.983  0.6590 -0.0112 -0.2242
    1SOL     OW 4213   1.570   2.303   1.890  0.5297 -0.1415  0.1903
    1SOL    HW2 4214   1.634   2.368   1.918  0.0125  0.5410 -0.1870
    1SOL    HW3 4215   1.562   2.316   1.795  0.3086 -0.6517  0.1336
    1SOL    MW4 4216   1.577   2.313   1.881  0.4324 -0.1185  0.1330
    1SOL     OW 4217   1.324   2.431   1.974  0.0966 -0.2405  0.2342
    1SOL    HW2 4218   1.332   2.520   1.939 -0.9770 -0.0363  0.4733
    1SOL    HW3 4219   1.402   2.386   1.942  1.1912  1.0766  1.0035
    1SOL    MW4 4220   1.335   2.437   1.965  0.0994 -0.0398  0.3673
    1SOL     OW 4221   1.343   2.702   1.876 -0.0803 -0.5039 -0.2732
    1SOL    HW2 4222   1.270   2.758   1.902 -0.4243 -0.8336 -0.5329
    1SOL    HW3 4223   1.349   2.712   1.781  1.1574  0.6725 -0.0895
    1SOL    MW4 4224   1.334   2.711   1.867  0.0376 -0.3922 -0.2831
    1SOL     OW 4225   1.591   2.794   1.989  0.1261  0.1462  0.0838
    1SOL    HW2 4226   1.663   2.766   1.932 -0.4153  1.7783 -1.4535
    1SOL    HW3 4227   1.516   2.743   1.960  0.2179 -0.1439  0.3640
    1SOL    MW4 4228   1.591   2.784   1.978  0.0669  0.3233 -0.0820
    1SOL     OW 4229   1.503   3.056   1.906  0.2754 -1.1301  0.0539
    1SOL    HW2 4230   1.527   2.967   1.931  0.0588 -1.4182 -0.7299
    1SOL    HW3 4231   1.508   3.055   1.810  2.7256  0.3998  0.1253
    1SOL    MW4 4232   1.507   3.044   1.896  0.5699 -0.9661 -0.0402
    1SOL     OW 4233   1.284   3.207   1.991  0.2091 -0.3059  0.2142
    1SOL    HW2 4234   1.358   3.154   1.961 -0.0539 -0.6446  0.1690
    1SOL    HW3 4235   1.211   3.180   1.937  0.3172  0.8512 -0.5211
    1SOL    MW4 4236   1.284   3.197   1.980  0.1887 -0.1979  0.1112
    1SOL     OW 4237   1.325   3.430   1.836  0.5001 -0.0656 -0.3601
    1SOL    HW2 4238   1.312   3.348   1.884  1.9346  0.8781  1.7353
    1SOL    HW3 4239   1.259   3.489   1.872  0.2165  0.0337 -1.0450
    1SOL    MW4 4240   1.315   3.427   1.847  0.6521  0.0718 -0.1742
    1SOL     OW 4241   1.526   3.568   1.986 -0.4597  0.1853 -0.0304
    1SOL    HW2 4242   1.501   3.578   2.078  1.3685  1.0485  0.3939
    1SOL    HW3 4243   1.465   3.503   1.952 -1.7236  0.4993  1.5656
    1SOL    MW4 4244   1.515   3.561   1.994 -0.3852  0.3405  0.2362
    1SOL     OW 4245   1.565   3.820   1.843  1.1301  0.0731  0.0647
    1SOL    HW2 4246   1.636   3.873   1.878  0.6026  0.5801  0.3687
    1SOL    HW3 4247   1.572   3.737   1.889  0.9100  0.4721  0.8298
    1SOL    MW4 4248   1.575   3.816   1.854  1.0314  0.1924  0.2056
    1SOL     OW 4249   1.362   4.001   1.945  0.1170  0.2477 -0.6670
    1SOL    HW2 4250   1.427   3.932   1.936 -0.4281 -0.6322  1.8191
    1SOL    HW3 4251   1.278   3.957   1.928 -0.4209 -0.2157  2.9464
    1SOL    MW4 4252   1.359   3.986   1.941 -0.0259  0.0703  0.1379
    1SOL     OW 4253   1.349   4.274   1.853 -0.1171  0.0641  0.1991
    1SOL    HW2 4254   1.346   4.179   1.865  0.2604 -0.0078 -0.2787
    1SOL    HW3 4255   1.352   4.286   1.758  2.5257  0.4937  0.3229
    1SOL    MW4 4256   1.349   4.263   1.842  0.2813  0.1116  0.1523
    1SOL     OW 4257   1.561   4.399   1.980  0.4390  0.0478  0.2097
    1SOL    HW2 4258   1.562   4.400   2.076 -0.6735 -1.1759  0.2441
    1SOL    HW3 4259   1.482   4.350   1.957  0.0647  1.3425 -1.3509
    1SOL    MW4 4260   1.551   4.392   1.990  0.2429  0.0572  0.0083
    1SOL     OW 4261   1.963   4.662   1.915  0.2353  0.0590 -0.3400
    1SOL    HW2 4262   2.036   4.713   1.949  0.2006  1.1937 -1.9218
    1SOL    HW3 4263   1.965   4.581   1.966  0.5578  1.4294  1.9022
    1SOL    MW4 4264   1.973   4.658   1.927  0.2732  0.3896 -0.2530
    1SOL     OW 4265   1.748   0.123   2.009 -0.0664  0.1783  0.0629
    1SOL    HW2 4266   1.748   0.131   2.104  0.6650  0.9295  0.0053
    1SOL    HW3 4267   1.829   0.077   1.989 -0.6927 -0.8450 -0.1324
    1SOL    MW4 4268   1.758   0.118   2.019 -0.0525  0.1424  0.0296
    1SOL     OW 4269   1.817   0.383   1.917  0.0369 -0.1190  0.3120
    1SOL    HW2 4270   1.798   0.295   1.951  0.2288 -0.0795  0.5189
    1SOL    HW3 4271   1.817   0.372   1.822  1.0152 -0.5376  0.3612
    1SOL    MW4 4272   1.814   0.370   1.909  0.1912 -0.1690  0.3457
    1SOL     OW 4273   2.036   0.550   1.987 -0.5000  0.0082  0.3747
    1SOL    HW2 4274   2.006   0.631   1.945 -1.0487 -0.3599  0.0474
    1SOL    HW3 4275   1.960   0.492   1.984  0.1596 -0.8291 -0.1855
    1SOL    MW4 4276   2.022   0.553   1.981 -0.4852 -0.1508  0.2576
    1SOL     OW 4277   2.006   0.785   1.851 -0.0161 -0.2758 -0.3255
    1SOL    HW2 4278   2.088   0.816   1.889  0.6173 -2.0266 -0.2108
    1SOL    HW3 4279   1.938   0.836   1.896  0.9330  0.4147  0.3576
    1SOL    MW4 4280   2.008   0.796   1.862  0.1924 -0.4157 -0.2203
    1SOL     OW 4281   1.789   0.880   1.981  0.1935  0.5158 -0.3858
    1SOL    HW2 4282   1.704   0.847   1.952 -0.8470  2.6615  0.1248
    1SOL    HW3 4283   1.789   0.972   1.954  2.2940  0.5831 -0.2248
    1SOL    MW4 4284   1.778   0.888   1.974  0.3334  0.8076 -0.2971
    1SOL     OW 4285   1.794   1.125   1.871 -0.0981  0.2511 -0.6174
    1SOL    HW2 4286   1.721   1.180   1.898 -1.6814 -2.3725  0.5703
    1SOL    HW3 4287   1.794   1.130   1.775 -1.5485  0.6047 -0.6012
    1SOL    MW4 4288   1.785   1.133   1.862 -0.4984 -0.0484 -0.4585
    1SOL     OW 4289   1.986   1.252   2.023 -0.3692  0.0023 -0.0828
    1SOL    HW2 4290   2.071   1.221   1.992 -0.1967  1.1841 -0.8424
    1SOL    HW3 4291   1.922   1.200   1.975 -0.0790 -0.2680 -0.1758
    1SOL    MW4 4292   1.989   1.241   2.013 -0.3082  0.1227 -0.1955
    1SOL     OW 4293   1.983   1.516   1.916 -0.5920 -0.6337  0.6691
    1SOL    HW2 4294   1.999   1.434   1.962  1.2959 -1.0539 -0.6542
    1SOL    HW3 4295   1.997   1.495   1.823  3.3113  1.8478  0.5448
    1SOL    MW4 4296   1.987   1.503   1.910  0.1720 -0.3617  0.4780
    1SOL     OW 4297   1.758   1.662   2.002  0.4978  0.3565  0.0802
    1SOL    HW2 4298   1.775   1.744   1.955  0.2683  0.2121 -0.2573
    1SOL    HW3 4299   1.831   1.605   1.977  0.9983  0.6656  0.8107
    1SOL    MW4 4300   1.770   1.666   1.992  0.5333  0.3784  0.1320
    1SOL     OW 4301   1.736   1.896   1.867  0.0550  0.1211  0.1438
    1SOL    HW2 4302   1.659   1.926   1.915 -0.6598 -0.9554 -0.3202
    1SOL    HW3 4303   1.718   1.919   1.776 -0.2241 -1.1594 -0.1254
    1SOL    MW4 4304   1.724   1.903   1.861 -0.0761 -0.1899  0.0470
    1SOL     OW 4305   1.967   2.016   1.979 -0.2590  0.5675  0.2669
    1SOL    HW2 4306   2.023   1.952   1.936  0.8080  0.7408  1.3834
    1SOL    HW3 4307   1.878   1.994   1.950  0.3058 -0.1540 -0.9313
    1SOL    MW4 4308   1.962   2.005   1.969 -0.0437  0.4952  0.2561
    1SOL     OW 4309   1.986   2.291   1.841 -0.0054  0.2165 -0.0215
    1SOL    HW2 4310   2.062   2.329   1.884  0.1389 -1.0278  0.8536
    1SOL    HW3 4311   1.984   2.200   1.871 -0.6817 -0.3088 -1.5963
    1SOL    MW4 4312   1.996   2.284   1.851 -0.0755 -0.0172 -0.1137
    1SOL     OW 4313   1.789   2.473   1.966 -0.5029  0.2291  0.0634
    1SOL    HW2 4314   1.785   2.454   2.060 -0.4420 -1.1856 -0.2117
    1SOL    HW3 4315   1.846   2.406   1.930 -2.1871 -0.5114 -1.3031
    1SOL    MW4 4316   1.796   2.462   1.974 -0.7172 -0.0553 -0.1533
    1SOL     OW 4317   1.821   2.709   1.842 -0.3589 -0.3808  0.1004
    1SOL    HW2 4318   1.809   2.620   1.876 -2.3337 -0.1810  0.0149
    1SOL    HW3 4319   1.802   2.702   1.749 -0.2838  0.0906  0.0479
    1SOL    MW4 4320   1.817   2.696   1.834 -0.6095 -0.2921  0.0821
    1SOL     OW 4321   2.008   2.846   1.951 -0.3809  0.3528  0.3768
    1SOL    HW2 4322   2.004   2.817   2.043  2.5680 -1.4269  0.0243
    1SOL    HW3 4323   1.942   2.794   1.907  1.2958 -2.1770  0.7303
    1SOL    MW4 4324   1.999   2.835   1.957  0.2292 -0.2158  0.3769
    1SOL     OW 4325   1.995   3.112   1.877  0.1422 -0.3163  0.0555
    1SOL    HW2 4326   1.910   3.145   1.906 -0.0936 -0.5135 -0.4124
    1SOL    HW3 4327   2.000   3.023   1.913 -0.0361 -0.4637 -0.2846
    1SOL    MW4 4328   1.985   3.105   1.886  0.0876 -0.3619 -0.0511
    1SOL     OW 4329   1.739   3.206   1.943 -0.2266 -0.1245 -0.0902
    1SOL    HW2 4330   1.757   3.209   2.037  0.1654  0.5424 -0.1899
    1SOL    HW3 4331   1.654   3.162   1.936 -0.0059 -0.6524  0.5433
    1SOL    MW4 4332   1.730   3.200   1.954 -0.1458 -0.1061 -0.0198
    1SOL     OW 4333   1.764   3.467   1.869 -0.0341 -0.4337 -0.4019
    1SOL    HW2 4334   1.735   3.376   1.869 -1.6286  0.0507  0.5782
    1SOL    HW3 4335   1.689   3.516   1.903  0.8128  1.2430 -0.8929
    1SOL    MW4 4336   1.751   3.461   1.873 -0.1327 -0.1485 -0.3374
    1SOL     OW 4337   2.010   3.597   1.968  0.1343 -0.4994 -0.2056
    1SOL    HW2 4338   2.009   3.682   1.925 -1.6898 -0.2433  0.2955
    1SOL    HW3 4339   1.933   3.552   1.934 -0.4107 -0.9163  1.5502
    1SOL    MW4 4340   2.000   3.602   1.958 -0.1786 -0.5207  0.0921
    1SOL     OW 4341   2.002   3.850   1.867  0.1828  0.0953 -0.0103
    1SOL    HW2 4342   2.072   3.912   1.884 -1.3326  1.6430  0.6972
    1SOL    HW3 4343   2.001   3.840   1.772  0.3225  1.2791 -0.1408
    1SOL    MW4 4344   2.011   3.857   1.857  0.0014  0.4556  0.0658
    1SOL     OW 4345   1.779   3.976   1.966 -0.0076 -0.4202  0.0974
    1SOL    HW2 4346   1.782   4.065   1.928  0.1278  0.0377  1.1787
    1SOL    HW3 4347   1.855   3.932   1.928  1.0572  0.5410  1.0565
    1SOL    MW4 4348   1.789   3.982   1.956  0.1509 -0.2329  0.3667
    1SOL     OW 4349   1.771   4.242   1.893 -0.0944  0.1877 -0.3126
    1SOL    HW2 4350   1.695   4.282   1.936  0.6311  0.8085  0.4392
    1SOL    HW3 4351   1.760   4.262   1.800 -1.3886 -0.6523 -0.3421
    1SOL    MW4 4352   1.760   4.250   1.887 -0.1695  0.1583 -0.2173
    1SOL     OW 4353   1.982   4.395   1.997 -0.0203  0.1646  0.0202
    1SOL    HW2 4354   2.062   4.355   1.964 -0.1164  0.0517 -0.0727
    1SOL    HW3 4355   1.913   4.330   1.982  0.3266 -0.8453  2.5074
    1SOL    MW4 4356   1.983   4.382   1.991  0.0129  0.0162  0.3361
    1SOL     OW 4357   2.436   0.021   1.894 -0.3608 -0.3733 -0.3296
    1SOL    HW2 4358   2.512   0.072   1.923 -0.5358 -0.0985 -0.3507
    1SOL    HW3 4359   2.447  -0.065   1.935  0.3371 -0.5641 -0.9098
    1SOL    MW4 4360   2.447   0.016   1.903 -0.2918 -0.3622 -0.4091
    1SOL     OW 4361   2.181   0.134   2.010 -0.3517  0.2529  0.3632
    1SOL    HW2 4362   2.189   0.129   2.106 -1.0736 -1.9462  0.3208
    1SOL    HW3 4363   2.249   0.076   1.977 -2.0663 -1.3671 -0.3895
    1SOL    MW4 4364   2.191   0.126   2.019 -0.6731 -0.2510  0.2584
    1SOL     OW 4365   2.267   0.391   1.918 -0.2316 -0.3206 -0.5129
    1SOL    HW2 4366   2.244   0.300   1.938  0.3638 -0.2123  0.7518
    1SOL    HW3 4367   2.206   0.443   1.972  1.4513 -0.0146  1.1561
    1SOL    MW4 4368   2.256   0.386   1.928  0.0687 -0.2659 -0.1258
    1SOL     OW 4369   2.510   0.513   1.968 -0.0966 -0.1598  0.1181
    1SOL    HW2 4370   2.580   0.465   1.924  0.5282  0.7097  0.1400
    1SOL    HW3 4371   2.431   0.463   1.950  0.5609 -1.2563  0.2518
    1SOL    MW4 4372   2.509   0.500   1.960  0.0725 -0.1897  0.1386
    1SOL     OW 4373   2.529   0.804   1.881 -0.2034 -0.0898  0.2144
    1SOL    HW2 4374   2.532   0.715   1.915  1.4763  0.4206  1.5253
    1SOL    HW3 4375   2.514   0.795   1.787 -0.7085 -1.7194  0.4490
    1SOL    MW4 4376   2.528   0.791   1.873 -0.0484 -0.2375  0.4183
    1SOL     OW 4377   2.227   0.874   1.988 -0.2171 -0.1917  0.5206
    1SOL    HW2 4378   2.237   0.888   2.083 -0.4394  0.9080  0.3916
    1SOL    HW3 4379   2.314   0.847   1.959 -0.0349 -0.1160  0.9789
    1SOL    MW4 4380   2.240   0.873   1.997 -0.2224 -0.0366  0.5640
    1SOL     OW 4381   2.210   1.158   1.904  0.6824  0.1626  0.0910
    1SOL    HW2 4382   2.293   1.195   1.933  0.3033  0.8699  0.2829
    1SOL    HW3 4383   2.215   1.066   1.930  0.1270  0.8767  2.9223
    1SOL    MW4 4384   2.222   1.151   1.911  0.5591  0.3501  0.4900
    1SOL     OW 4385   2.457   1.262   1.981  0.2496  0.1306  0.1556
    1SOL    HW2 4386   2.445   1.259   2.076  0.3304  0.5916  0.1843
    1SOL    HW3 4387   2.476   1.354   1.963  0.9510 -0.0855 -0.2207
    1SOL    MW4 4388   2.458   1.274   1.992  0.3529  0.1630  0.1099
    1SOL     OW 4389   2.501   1.514   1.896  0.0188 -0.7366 -0.5035
    1SOL    HW2 4390   2.417   1.548   1.926  0.4913 -0.2486  0.2828
    1SOL    HW3 4391   2.497   1.522   1.801 -0.8884 -0.8804 -0.4866
    1SOL    MW4 4392   2.489   1.520   1.887 -0.0384 -0.6911 -0.3976
    1SOL     OW 4393   2.244   1.631   1.949  0.0878 -0.2786  0.4548
    1SOL    HW2 4394   2.258   1.637   2.043 -0.8122 -0.8239  0.6302
    1SOL    HW3 4395   2.157   1.592   1.940  0.1916 -0.2859 -0.5997
    1SOL    MW4 4396   2.234   1.626   1.960 -0.0174 -0.3515  0.3389
    1SOL     OW 4397   2.197   1.914   1.883  0.0715 -0.7756  0.2013
    1SOL    HW2 4398   2.258   1.960   1.941 -0.9487  0.4563  0.3305
    1SOL    HW3 4399   2.227   1.823   1.884  0.3346 -0.7074  2.3381
    1SOL    MW4 4400   2.209   1.908   1.891 -0.0286 -0.6040  0.5003
    1SOL     OW 4401   2.446   2.030   1.994  0.1205  0.0901 -0.1706
    1SOL    HW2 4402   2.519   1.979   1.958 -0.5452  0.6173 -2.3300
    1SOL    HW3 4403   2.452   2.115   1.950 -3.2312 -0.6680 -2.2400
    1SOL    MW4 4404   2.457   2.035   1.984 -0.4096  0.0596 -0.7285
    1SOL     OW 4405   2.452   2.290   1.896 -0.2556  0.2471  0.1385
    1SOL    HW2 4406   2.524   2.347   1.922  0.1557 -0.3329  0.2842
    1SOL    HW3 4407   2.373   2.340   1.917  0.0729  0.1008  1.8036
    1SOL    MW4 4408   2.451   2.304   1.902 -0.1581  0.1514  0.3773
    1SOL     OW 4409   2.206   2.431   1.947  0.1476  0.3536 -0.2497
    1SOL    HW2 4410   2.215   2.419   2.042 -0.7880 -1.1159 -0.3411
    1SOL    HW3 4411   2.214   2.526   1.935 -1.6005  0.7682  1.5185
    1SOL    MW4 4412   2.209   2.442   1.958 -0.2062  0.2146 -0.0285
    1SOL     OW 4413   2.245   2.709   1.903 -0.3945  0.1104 -0.0565
    1SOL    HW2 4414   2.165   2.759   1.920 -1.1170 -0.4489 -1.7588
    1SOL    HW3 4415   2.253   2.707   1.808  1.4840 -0.1073  0.0908
    1SOL    MW4 4416   2.236   2.715   1.893 -0.2422  0.0079 -0.2617
    1SOL     OW 4417   2.472   2.844   1.958 -0.2284 -0.5697 -0.2069
    1SOL    HW2 4418   2.464   2.934   1.927  1.4931 -0.1912  0.3846
    1SOL    HW3 4419   2.388   2.804   1.936 -0.8658  1.0545 -0.8582
    1SOL    MW4 4420   2.460   2.851   1.951 -0.0856 -0.3054 -0.2148
    1SOL     OW 4421   2.470   3.117   1.861 -0.3829  0.4932  0.0156
    1SOL    HW2 4422   2.390   3.167   1.876 -1.5312 -1.3440  0.1235
    1SOL    HW3 4423   2.473   3.105   1.766 -0.2773  0.4749  0.0213
    1SOL    MW4 4424   2.460   3.122   1.850 -0.5205  0.2482  0.0308
    1SOL     OW 4425   2.223   3.242   1.958  0.1331 -0.2031 -0.4526
    1SOL    HW2 4426   2.227   3.234   2.053  0.1999  1.0068 -0.3455
    1SOL    HW3 4427   2.141   3.200   1.933 -0.5485  0.6825  0.2806
    1SOL    MW4 4428   2.213   3.236   1.967  0.0517  0.0732 -0.3417
    1SOL     OW 4429   2.235   3.489   1.854  0.0950  1.0899 -0.1392
    1SOL    HW2 4430   2.232   3.397   1.882  0.7057  1.0984 -0.0557
    1SOL    HW3 4431   2.162   3.530   1.901  1.5644  1.2692  2.0474
    1SOL    MW4 4432   2.225   3.482   1.864  0.3693  1.1146  0.1605
    1SOL     OW 4433   2.481   3.632   1.999 -0.2184  0.0011  0.5129
    1SOL    HW2 4434   2.483   3.618   2.094  0.4068  0.9583  0.6467
    1SOL    HW3 4435   2.406   3.581   1.969 -0.9290  0.3706  1.6380
    1SOL    MW4 4436   2.471   3.623   2.008 -0.2298  0.1764  0.6790
    1SOL     OW 4437   2.448   3.888   1.851 -0.3776 -0.0662 -0.2161
    1SOL    HW2 4438   2.370   3.933   1.881 -0.8710  0.0648 -1.6735
    1SOL    HW3 4439   2.447   3.804   1.898 -1.4925 -0.1460 -0.3737
    1SOL    MW4 4440   2.438   3.883   1.861 -0.5898 -0.0596 -0.4293
    1SOL     OW 4441   2.224   4.010   1.964  0.1350 -0.0239 -0.6882
    1SOL    HW2 4442   2.241   3.996   2.057  1.3352  1.2238 -0.6898
    1SOL    HW3 4443   2.228   4.106   1.953 -1.4775 -0.0529 -1.7463
    1SOL    MW4 4444   2.226   4.021   1.974  0.0806  0.1369 -0.8279
    1SOL     OW 4445   2.212   4.288   1.885  0.0661 -0.1843 -0.1687
    1SOL    HW2 4446   2.291   4.332   1.913 -0.1318 -0.2682  0.5222
    1SOL    HW3 4447   2.223   4.276   1.791  0.4335  0.6885 -0.2378
    1SOL    MW4 4448   2.224   4.292   1.876  0.0885 -0.0801 -0.0868
    1SOL     OW 4449   2.445   4.423   1.978 -0.0170 -0.3023  0.0483
    1SOL    HW2 4450   2.451   4.423   2.074  0.2575 -1.7491  0.0414
    1SOL    HW3 4451   2.533   4.399   1.949  0.7391  3.0773 -0.6579
    1SOL    MW4 4452   2.458   4.420   1.987  0.1190 -0.0472 -0.0458
    1SOL     OW 4453   2.868   4.642   1.896  0.1263  0.0781  0.1321
    1SOL    HW2 4454   2.950   4.686   1.919  1.0376 -1.4221 -0.2046
    1SOL    HW3 4455   2.875   4.555   1.936 -0.7112 -0.5391 -1.0355
    1SOL    MW4 4456   2.880   4.636   1.904  0.1361 -0.2012 -0.0663
    1SOL     OW 4457   2.667   0.135   2.001 -0.3910  0.5893 -0.1128
    1SOL    HW2 4458   2.678   0.128   2.096  1.2513  0.8749 -0.2695
    1SOL    HW3 4459   2.736   0.080   1.965 -1.5218 -0.1708 -1.1462
    1SOL    MW4 4460   2.677   0.127   2.009 -0.3238  0.5267 -0.2699
    1SOL     OW 4461   2.707   0.369   1.839 -0.3046  0.1212 -0.1954
    1SOL    HW2 4462   2.761   0.434   1.884 -1.1499 -0.5652  1.8832
    1SOL    HW3 4463   2.710   0.292   1.896 -1.4217 -0.7771 -1.3231
    1SOL    MW4 4464   2.715   0.368   1.852 -0.5634 -0.0878 -0.0700
    1SOL     OW 4465   2.904   0.538   1.992 -0.3104  0.1453 -0.2392
    1SOL    HW2 4466   2.985   0.501   1.958 -1.5707 -1.9584 -1.0855
    1SOL    HW3 4467   2.903   0.628   1.960 -0.0401 -0.8893 -3.3981
    1SOL    MW4 4468   2.915   0.545   1.983 -0.4406 -0.2688 -0.7676
    1SOL     OW 4469   2.901   0.772   1.822 -0.2820  0.2417  0.0472
    1SOL    HW2 4470   2.982   0.804   1.862 -0.5253 -0.3195  0.9946
    1SOL    HW3 4471   2.832   0.826   1.861 -0.4407  0.1964 -0.1717
    1SOL    MW4 4472   2.902   0.783   1.832 -0.3350  0.1617  0.1434
    1SOL     OW 4473   2.743   0.945   1.995 -0.3441  0.1643  0.5135
    1SOL    HW2 4474   2.741   1.038   1.969  0.2045  0.5988  1.9957
    1SOL    HW3 4475   2.659   0.911   1.966 -1.5926  1.7464  2.1176
    1SOL    MW4 4476   2.732   0.953   1.988 -0.4363  0.4303  0.9207
    1SOL     OW 4477   2.693   1.200   1.878  0.4873 -0.2808  0.2149
    1SOL    HW2 4478   2.608   1.221   1.918  0.9165  1.2079  0.4032
    1SOL    HW3 4479   2.672   1.179   1.787 -0.3155 -2.1134  0.8028
    1SOL    MW4 4480   2.679   1.200   1.871  0.4377 -0.3262  0.3173
    1SOL     OW 4481   2.928   1.297   1.954 -0.6666  0.1451 -0.7717
    1SOL    HW2 4482   2.934   1.391   1.937  0.1353 -0.1837 -2.3779
    1SOL    HW3 4483   2.840   1.273   1.928 -0.6311  0.3147 -1.0470
    1SOL    MW4 4484   2.917   1.306   1.948 -0.5560  0.1241 -1.0200
    1SOL     OW 4485   2.952   1.560   1.873  0.4732 -0.0840  0.1245
    1SOL    HW2 4486   3.036   1.599   1.894  1.3341 -1.9738  0.3005
    1SOL    HW3 4487   2.938   1.581   1.780  1.3203 -0.0779 -0.0075
    1SOL    MW4 4488   2.961   1.568   1.863  0.6983 -0.3325  0.1303
    1SOL     OW 4489   2.712   1.667   1.975 -0.7782  0.2563 -0.1665
    1SOL    HW2 4490   2.793   1.621   1.951 -0.0393  0.5380  1.6498
    1SOL    HW3 4491   2.644   1.600   1.973  0.1598 -0.8073  1.7408
    1SOL    MW4 4492   2.714   1.653   1.972 -0.5569  0.1532  0.3247
    1SOL     OW 4493   2.659   1.918   1.871 -0.1489 -0.1041  0.5373
    1SOL    HW2 4494   2.742   1.961   1.894 -0.7862  0.7032  1.4049
    1SOL    HW3 4495   2.670   1.828   1.900  1.4877 -0.7595 -1.9881
    1SOL    MW4 4496   2.671   1.912   1.878 -0.0169 -0.0839  0.3186
    1SOL     OW 4497   2.910   2.038   1.965 -0.1673 -0.2025 -0.2131
    1SOL    HW2 4498   2.915   2.045   2.060 -0.0583  1.7308 -0.3439
    1SOL    HW3 4499   2.999   2.015   1.938 -0.3992 -1.6132  0.2124
    1SOL    MW4 4500   2.923   2.036   1.974 -0.1838 -0.1335 -0.1740
    1SOL     OW 4501   2.887   2.327   1.881 -0.0072 -0.0450  0.2197
    1SOL    HW2 4502   2.968   2.365   1.912  0.3160 -0.4577 -0.1082
    1SOL    HW3 4503   2.881   2.242   1.925  0.6109 -0.7687 -1.0516
    1SOL    MW4 4504   2.897   2.321   1.891  0.1171 -0.1953  0.0088
    1SOL     OW 4505   2.662   2.470   1.955 -0.0442 -0.1479 -0.5166
    1SOL    HW2 4506   2.668   2.560   1.924  2.3419  0.3905  1.2967
    1SOL    HW3 4507   2.744   2.429   1.926 -0.8878 -1.6102 -0.9111
    1SOL    MW4 4508   2.674   2.476   1.947  0.1593 -0.2697 -0.3295
    1SOL     OW 4509   2.698   2.722   1.860  0.2212 -0.5346  0.0005
    1SOL    HW2 4510   2.614   2.764   1.876  0.4367 -0.3901  0.7558
    1SOL    HW3 4511   2.704   2.715   1.765 -0.0032  0.7541 -0.1149
    1SOL    MW4 4512   2.688   2.726   1.850  0.2201 -0.3457  0.0851
    1SOL     OW 4513   2.922   2.829   1.983  0.0036  0.6141  0.0140
    1SOL    HW2 4514   2.928   2.918   1.949  1.6295 -0.7360 -3.5607
    1SOL    HW3 4515   2.836   2.798   1.954 -0.0701  0.6212  0.2246
    1SOL    MW4 4516   2.911   2.837   1.975  0.2086  0.4370 -0.4299
    1SOL     OW 4517   2.914   3.094   1.866  0.0598  0.2032 -0.1290
    1SOL    HW2 4518   2.979   3.147   1.910  1.2673  0.2024 -1.8641
    1SOL    HW3 4519   2.830   3.127   1.898  0.8355  2.1007 -0.0123
    1SOL    MW4 4520   2.911   3.105   1.876  0.3214  0.4535 -0.3425
    1SOL     OW 4521   2.698   3.220   1.981 -0.2041 -0.0931 -0.0953
    1SOL    HW2 4522   2.713   3.311   1.955 -0.3034 -0.0891 -0.1414
    1SOL    HW3 4523   2.615   3.197   1.939 -0.2745 -0.1449  0.0734
    1SOL    MW4 4524   2.689   3.229   1.972 -0.2267 -0.0997 -0.0792
    1SOL     OW 4525   2.710   3.480   1.910 -0.2396  0.4808  0.3354
    1SOL    HW2 4526   2.780   3.543   1.929 -0.2041  0.3477  0.6443
    1SOL    HW3 4527   2.631   3.521   1.946 -0.5283  1.1625 -1.0236
    1SOL    MW4 4528   2.709   3.494   1.917 -0.2730  0.5531  0.1968
    1SOL     OW 4529   2.925   3.666   1.940 -0.0282 -0.3046  0.3941
    1SOL    HW2 4530   2.916   3.670   2.035  1.3107 -1.6901  0.6024
    1SOL    HW3 4531   2.999   3.607   1.925  0.3192  0.5486 -1.4850
    1SOL    MW4 4532   2.934   3.659   1.950  0.1943 -0.3748  0.1737
    1SOL     OW 4533   2.910   3.951   1.855  0.6067 -0.3376  0.3344
    1SOL    HW2 4534   2.917   3.862   1.888 -1.2741 -0.3662  0.7249
    1SOL    HW3 4535   2.928   3.944   1.762  3.0311 -0.7110  0.7892
    1SOL    MW4 4536   2.913   3.939   1.847  0.6785 -0.3905  0.4461
    1SOL     OW 4537   2.655   4.034   1.978  0.1092  0.0594  0.4898
    1SOL    HW2 4538   2.732   4.007   1.927  0.0345 -0.6005  0.7133
    1SOL    HW3 4539   2.581   3.993   1.933 -0.2176  1.4259 -0.2467
    1SOL    MW4 4540   2.656   4.025   1.965  0.0560  0.1521  0.4222
    1SOL     OW 4541   2.672   4.313   1.894  0.1935 -0.0939  0.2779
    1SOL    HW2 4542   2.653   4.233   1.944 -0.5485  0.2905  0.6242
    1SOL    HW3 4543   2.667   4.286   1.803 -0.9109 -0.2579  0.3847
    1SOL    MW4 4544   2.669   4.299   1.889 -0.0503 -0.0648  0.3377
    1SOL     OW 4545   2.921   4.374   1.973  0.2357 -0.5025  0.3809
    1SOL    HW2 4546   2.916   4.381   2.068  0.3148 -0.4823  0.3840
    1SOL    HW3 4547   2.834   4.344   1.946 -0.9419  2.9569  0.1221
    1SOL    MW4 4548   2.909   4.371   1.982  0.0906 -0.0439  0.3470
    1SOL     OW 4549   3.338   0.055   1.849  0.2596  0.2017  0.2948
    1SOL    HW2 4550   3.355  -0.031   1.889  0.4636  0.2561  0.3250
    1SOL    HW3 4551   3.338   0.037   1.754  0.8607  0.2702  0.2835
    1SOL    MW4 4552   3.340   0.041   1.841  0.3657  0.2179  0.2973
    1SOL     OW 4553   3.079   0.144   1.945  0.2362 -0.3313 -0.2390
    1SOL    HW2 4554   3.087   0.133   2.040  0.2505 -0.5060 -0.2600
    1SOL    HW3 4555   3.163   0.112   1.910  0.4443  0.2375 -0.2711
    1SOL    MW4 4556   3.091   0.138   1.953  0.2654 -0.2793 -0.2458
    1SOL     OW 4557   3.147   0.416   1.893 -0.5851  0.3609 -0.2341
    1SOL    HW2 4558   3.127   0.328   1.926 -1.4909  0.4189 -0.6186
    1SOL    HW3 4559   3.143   0.407   1.797  1.3749  0.3449 -0.3312
    1SOL    MW4 4560   3.144   0.403   1.884 -0.4458  0.3665 -0.2974
    1SOL     OW 4561   3.388   0.514   1.984 -0.2467  0.2006 -0.1766
    1SOL    HW2 4562   3.466   0.470   1.951  0.2965  0.9999  0.0394
    1SOL    HW3 4563   3.315   0.469   1.940  0.3936  0.3454 -1.4214
    1SOL    MW4 4564   3.388   0.502   1.974 -0.0908  0.3253 -0.3122
    1SOL     OW 4565   3.373   0.771   1.892 -0.3313  0.0948  0.0701
    1SOL    HW2 4566   3.286   0.801   1.920 -0.5643 -0.8327  0.3443
    1SOL    HW3 4567   3.387   0.689   1.939  0.9015  0.4764  0.3865
    1SOL    MW4 4568   3.363   0.764   1.902 -0.1996  0.0228  0.1479
    1SOL     OW 4569   3.128   0.892   1.940 -0.1128  0.3162 -0.5543
    1SOL    HW2 4570   3.112   0.901   2.034 -3.8457 -1.8974 -0.8754
    1SOL    HW3 4571   3.139   0.982   1.909  0.6466  1.1119  1.8796
    1SOL    MW4 4572   3.127   0.905   1.948 -0.5052  0.1292 -0.2755
    1SOL     OW 4573   3.150   1.172   1.846  0.2754  0.1386  0.1390
    1SOL    HW2 4574   3.209   1.225   1.900 -1.2851  1.9824  0.1094
    1SOL    HW3 4575   3.064   1.212   1.859 -0.6884 -1.5047 -1.0718
    1SOL    MW4 4576   3.147   1.185   1.855 -0.0577  0.1651 -0.0246
    1SOL     OW 4577   3.376   1.285   1.987  0.0350 -0.0613  0.2980
    1SOL    HW2 4578   3.376   1.299   2.082  1.4282  0.4928  0.2265
    1SOL    HW3 4579   3.370   1.372   1.950 -0.6791 -0.2900 -0.1385
    1SOL    MW4 4580   3.375   1.298   1.995  0.1247 -0.0184  0.2309
    1SOL     OW 4581   3.384   1.527   1.854  0.2644  0.0464 -0.1411
    1SOL    HW2 4582   3.465   1.566   1.889  0.0887 -0.8111  1.2448
    1SOL    HW3 4583   3.315   1.584   1.886  0.1748 -0.1996  0.0959
    1SOL    MW4 4584   3.386   1.540   1.863  0.2291 -0.0992  0.0730
    1SOL     OW 4585   3.179   1.681   1.984  0.6193 -0.6994  0.2260
    1SOL    HW2 4586   3.156   1.682   2.077 -0.9482 -1.2368 -0.1444
    1SOL    HW3 4587   3.171   1.773   1.956 -1.5541 -0.9303  0.0109
    1SOL    MW4 4588   3.175   1.693   1.992  0.1256 -0.8007  0.1488
    1SOL     OW 4589   3.150   1.939   1.884 -0.5594  0.1443 -0.4267
    1SOL    HW2 4590   3.222   1.985   1.926 -0.4901  0.2832 -0.6951
    1SOL    HW3 4591   3.163   1.955   1.790 -0.8673  0.0649 -0.4829
    1SOL    MW4 4592   3.161   1.947   1.877 -0.5908  0.1521 -0.4694
    1SOL     OW 4593   3.369   2.048   2.013  0.1962  0.4498 -0.1669
    1SOL    HW2 4594   3.456   2.032   1.975  1.0790  1.4542  1.3520
    1SOL    HW3 4595   3.347   2.138   1.986  0.2673  0.7051  0.5987
    1SOL    MW4 4596   3.378   2.058   2.005  0.3221  0.6161  0.1345
    1SOL     OW 4597   3.364   2.308   1.902  0.7846 -0.3126  0.4430
    1SOL    HW2 4598   3.285   2.359   1.920  1.3949  0.5376  0.7356
    1SOL    HW3 4599   3.375   2.314   1.807  1.2623  0.7090  0.5628
    1SOL    MW4 4600   3.355   2.315   1.892  0.9282 -0.0658  0.4975
    1SOL     OW 4601   3.113   2.448   1.981  0.1440 -0.2489  0.0824
    1SOL    HW2 4602   3.133   2.470   2.072  0.5419 -0.3791  0.0259
    1SOL    HW3 4603   3.120   2.531   1.934  0.9898 -0.3690 -0.0139
    1SOL    MW4 4604   3.116   2.462   1.987  0.3080 -0.2820  0.0622
    1SOL     OW 4605   3.146   2.709   1.877 -0.1758  0.0154 -0.1673
    1SOL    HW2 4606   3.068   2.744   1.920  0.1112 -0.0645  0.4219
    1SOL    HW3 4607   3.135   2.732   1.785 -0.5936  0.5595  0.0161
    1SOL    MW4 4608   3.134   2.716   1.871 -0.1931  0.0768 -0.0653
    1SOL     OW 4609   3.357   2.831   1.978 -0.1373  0.3322 -0.5722
    1SOL    HW2 4610   3.350   2.833   2.073 -0.7707  1.2023 -0.6326
    1SOL    HW3 4611   3.280   2.782   1.949  1.4065 -2.2145 -0.5148
    1SOL    MW4 4612   3.346   2.825   1.986 -0.0172  0.1111 -0.5727
    1SOL     OW 4613   3.334   3.094   1.866  0.0558  0.4384 -0.1796
    1SOL    HW2 4614   3.415   3.133   1.901  1.3403 -0.9437 -1.4962
    1SOL    HW3 4615   3.342   3.001   1.885 -1.0891  0.2434 -0.6231
    1SOL    MW4 4616   3.346   3.087   1.873  0.0741  0.2303 -0.4117
    1SOL     OW 4617   3.124   3.216   2.003  0.1751  0.3103 -0.4399
    1SOL    HW2 4618   3.132   3.309   1.981  1.8943  0.1071 -0.7132
    1SOL    HW3 4619   3.191   3.173   1.951 -0.0182 -0.9822  0.3601
    1SOL    MW4 4620   3.134   3.223   1.993  0.3765  0.1128 -0.3703
    1SOL     OW 4621   3.121   3.491   1.908 -0.1417  0.5418 -0.0517
    1SOL    HW2 4622   3.197   3.532   1.948 -0.9538  2.0796 -0.0359
    1SOL    HW3 4623   3.140   3.491   1.814  0.7227 -0.8806  0.1135
    1SOL    MW4 4624   3.133   3.496   1.901 -0.1345  0.5569 -0.0279
    1SOL     OW 4625   3.355   3.650   1.999  0.2484 -0.1905 -0.0994
    1SOL    HW2 4626   3.426   3.593   1.969 -0.5128 -0.5876 -1.1709
    1SOL    HW3 4627   3.362   3.728   1.944 -0.1362 -0.2290 -0.2056
    1SOL    MW4 4628   3.365   3.653   1.988  0.0970 -0.2480 -0.2549
    1SOL     OW 4629   3.378   3.882   1.846 -0.0860  0.0695  0.0979
    1SOL    HW2 4630   3.302   3.928   1.882  1.5290  0.9952  2.5051
    1SOL    HW3 4631   3.368   3.888   1.751 -2.6308  0.7959  0.3868
    1SOL    MW4 4632   3.367   3.889   1.838 -0.2086  0.2875  0.4537
    1SOL     OW 4633   3.155   4.017   1.957 -0.1206  0.1370 -0.0445
    1SOL    HW2 4634   3.145   4.010   2.052 -0.3937  0.6551 -0.0354
    1SOL    HW3 4635   3.067   4.002   1.922 -0.2207  0.9708 -0.1586
    1SOL    MW4 4636   3.142   4.014   1.965 -0.1698  0.3152 -0.0582
    1SOL     OW 4637   3.169   4.286   1.889 -0.1831 -0.3591  0.3401
    1SOL    HW2 4638   3.181   4.193   1.907 -0.8418 -0.4688  0.2397
    1SOL    HW3 4639   3.083   4.306   1.925 -0.5691 -0.0712 -0.7301
    1SOL    MW4 4640   3.159   4.277   1.897 -0.3211 -0.3352  0.1857
    1SOL     OW 4641   3.387   4.475   1.962 -0.4663 -0.6578 -0.1068
    1SOL    HW2 4642   3.467   4.423   1.951 -0.4508 -1.0537  1.7090
    1SOL    HW3 4643   3.316   4.417   1.935 -0.5505 -2.0726  2.9321
    1SOL    MW4 4644   3.388   4.460   1.957 -0.4752 -0.8960  0.5337
    1SOL     OW 4645   3.814   0.034   1.834 -0.1453 -0.3643  0.0497
    1SOL    HW2 4646   3.822  -0.053   1.874  0.0851 -0.0017  0.8025
    1SOL    HW3 4647   3.730   0.067   1.867  0.0316 -0.0777  0.2166
    1SOL    MW4 4648   3.804   0.027   1.844 -0.0916 -0.2786  0.1711
    1SOL     OW 4649   3.575   0.125   1.957 -0.3350  0.7436 -0.3556
    1SOL    HW2 4650   3.562   0.138   2.051  1.2190 -1.0926  0.1406
    1SOL    HW3 4651   3.487   0.115   1.922 -0.9139  1.0666  0.9512
    1SOL    MW4 4652   3.562   0.126   1.965 -0.2062  0.5439 -0.1177
    1SOL     OW 4653   3.629   0.390   1.896  0.5784  0.4021 -0.4143
    1SOL    HW2 4654   3.629   0.296   1.913  0.1482  0.0161 -2.3490
    1SOL    HW3 4655   3.614   0.397   1.801  0.4426  2.4200 -0.2716
    1SOL    MW4 4656   3.627   0.379   1.886  0.5035  0.6174 -0.6506
    1SOL     OW 4657   3.845   0.505   1.999 -0.0212  0.3548 -0.1672
    1SOL    HW2 4658   3.843   0.596   1.970  0.1353  0.5574  0.4454
    1SOL    HW3 4659   3.762   0.468   1.969  0.6475  0.2277 -1.9213
    1SOL    MW4 4660   3.834   0.512   1.991  0.0877  0.3648 -0.3179
    1SOL     OW 4661   3.827   0.769   1.905 -0.8554  0.3766 -0.0913
    1SOL    HW2 4662   3.750   0.817   1.935 -0.8540  1.4398 -1.7344
    1SOL    HW3 4663   3.816   0.763   1.810  0.2539 -0.9432 -0.1547
    1SOL    MW4 4664   3.815   0.774   1.896 -0.7088  0.3427 -0.3165
    1SOL     OW 4665   3.610   0.922   1.998  0.4021 -0.2695 -0.0298
    1SOL    HW2 4666   3.608   1.007   1.955  0.1401  0.1365  0.8012
    1SOL    HW3 4667   3.544   0.870   1.952 -0.7570  0.5534  0.7133
    1SOL    MW4 4668   3.601   0.926   1.986  0.2146 -0.1073  0.1777
    1SOL     OW 4669   3.595   1.163   1.852  0.0939  0.7240 -0.4697
    1SOL    HW2 4670   3.510   1.192   1.886  0.6380  1.3112  0.4250
    1SOL    HW3 4671   3.584   1.160   1.757 -1.1638  0.0218 -0.3107
    1SOL    MW4 4672   3.583   1.166   1.844 -0.0002  0.7089 -0.3306
    1SOL     OW 4673   3.847   1.271   1.925  0.2084  0.3040 -0.1585
    1SOL    HW2 4674   3.843   1.254   2.019  1.4559  0.0326 -0.1472
    1SOL    HW3 4675   3.763   1.240   1.891 -0.0231 -0.0993  0.7826
    1SOL    MW4 4676   3.836   1.265   1.933  0.3426  0.2149 -0.0328
    1SOL     OW 4677   3.844   1.571   1.861 -0.5922 -0.0749  0.0184
    1SOL    HW2 4678   3.925   1.608   1.895 -1.0591  0.8229  0.1558
    1SOL    HW3 4679   3.845   1.480   1.891  0.3414 -0.0608  0.0549
    1SOL    MW4 4680   3.855   1.564   1.869 -0.5305  0.0453  0.0412
    1SOL     OW 4681   3.601   1.674   1.973  0.2847  0.0253  0.0397
    1SOL    HW2 4682   3.593   1.761   1.934  1.2941 -0.1187 -0.5070
    1SOL    HW3 4683   3.680   1.637   1.933 -0.9137 -1.6922 -0.8145
    1SOL    MW4 4684   3.610   1.681   1.962  0.2596 -0.2202 -0.1451
    1SOL     OW 4685   3.603   1.936   1.880 -0.0742  0.0759 -0.1332
    1SOL    HW2 4686   3.686   1.957   1.923 -0.2580 -1.8481  1.2105
    1SOL    HW3 4687   3.618   1.956   1.788  0.7996  2.8849  0.5712
    1SOL    MW4 4688   3.616   1.941   1.874  0.0172  0.1925  0.1370
    1SOL     OW 4689   3.852   2.036   1.981  0.4593 -0.0715 -0.1418
    1SOL    HW2 4690   3.930   2.011   1.932 -0.0886 -0.4013 -0.8520
    1SOL    HW3 4691   3.830   2.124   1.949  0.2412 -0.1889 -0.3170
    1SOL    MW4 4692   3.859   2.045   1.970  0.3586 -0.1304 -0.2586
    1SOL     OW 4693   3.788   2.283   1.905  0.2597 -0.1188  0.2508
    1SOL    HW2 4694   3.868   2.330   1.931  0.4656 -0.1144 -0.3895
    1SOL    HW3 4695   3.717   2.332   1.947  0.2719  2.1465 -2.2613
    1SOL    MW4 4696   3.789   2.296   1.914  0.2885  0.1802 -0.1650
    1SOL     OW 4697   3.575   2.450   2.012 -0.2373 -0.1694 -0.3804
    1SOL    HW2 4698   3.570   2.542   1.986  0.2049  0.2454  0.9370
    1SOL    HW3 4699   3.497   2.409   1.974 -0.9538  0.9761 -0.1595
    1SOL    MW4 4700   3.564   2.456   2.004 -0.2735  0.0365 -0.1776
    1SOL     OW 4701   3.546   2.685   1.864  0.0248 -0.0132  0.0224
    1SOL    HW2 4702   3.629   2.727   1.887 -0.2893  0.0146  1.1308
    1SOL    HW3 4703   3.479   2.738   1.907 -0.7004  0.8991 -2.1786
    1SOL    MW4 4704   3.548   2.697   1.873 -0.1125  0.1109 -0.1217
    1SOL     OW 4705   3.790   2.834   1.974  0.1921 -0.0307 -0.3917
    1SOL    HW2 4706   3.809   2.842   2.067 -1.3540 -0.3342 -0.0476
    1SOL    HW3 4707   3.773   2.923   1.945  0.3414  0.0219 -0.3208
    1SOL    MW4 4708   3.791   2.846   1.982  0.0079 -0.0637 -0.3369
    1SOL     OW 4709   3.771   3.084   1.847 -0.3390 -0.1027 -1.1725
    1SOL    HW2 4710   3.702   3.139   1.882  0.9575  0.8799 -0.0850
    1SOL    HW3 4711   3.777   3.107   1.754 -1.6644 -0.4196 -1.3387
    1SOL    MW4 4712   3.763   3.094   1.839 -0.3428 -0.0148 -1.0511
    1SOL     OW 4713   3.564   3.234   1.933  0.3953 -0.2131  0.1187
    1SOL    HW2 4714   3.569   3.245   2.028 -1.8118 -1.2323  0.3805
    1SOL    HW3 4715   3.560   3.323   1.899 -0.0378  0.1496  1.0846
    1SOL    MW4 4716   3.564   3.247   1.941  0.0472 -0.2999  0.2807
    1SOL     OW 4717   3.545   3.502   1.868 -0.2835 -0.2916 -0.1163
    1SOL    HW2 4718   3.617   3.537   1.920 -0.4828  0.5098 -0.3640
    1SOL    HW3 4719   3.565   3.529   1.778 -0.8490 -0.1362 -0.1988
    1SOL    MW4 4720   3.557   3.510   1.863 -0.3846 -0.1652 -0.1599
    1SOL     OW 4721   3.751   3.621   2.014  0.0592  0.2703 -0.4512
    1SOL    HW2 4722   3.828   3.575   1.980 -0.3883 -0.1238 -0.9315
    1SOL    HW3 4723   3.764   3.712   1.988  0.4104  0.2222 -0.4486
    1SOL    MW4 4724   3.763   3.627   2.006  0.0465  0.2122 -0.5145
    1SOL     OW 4725   3.767   3.886   1.912 -0.0058 -0.3663  0.0951
    1SOL    HW2 4726   3.699   3.947   1.940  1.4266  0.4848  1.8466
    1SOL    HW3 4727   3.764   3.890   1.817 -2.0561  0.0344  0.1491
    1SOL    MW4 4728   3.758   3.895   1.903 -0.0875 -0.2010  0.3331
    1SOL     OW 4729   3.564   4.062   1.957 -0.2523 -0.2994 -0.4866
    1SOL    HW2 4730   3.555   4.055   2.053  1.1989 -0.0660 -0.3332
    1SOL    HW3 4731   3.495   4.004   1.923 -0.1373 -1.1652  0.7101
    1SOL    MW4 4732   3.553   4.053   1.965 -0.0458 -0.3829 -0.3085
    1SOL     OW 4733   3.596   4.334   1.896 -0.0669 -0.2240  0.2604
    1SOL    HW2 4734   3.683   4.370   1.914 -0.0004 -0.4306  0.3672
    1SOL    HW3 4735   3.598   4.248   1.939 -0.0055 -0.6041 -0.5053
    1SOL    MW4 4736   3.608   4.327   1.904 -0.0498 -0.3009  0.1736
    1SOL     OW 4737   3.843   4.444   1.959 -0.0835  0.1023  0.0102
    1SOL    HW2 4738   3.829   4.431   2.053  0.1794 -0.5232 -0.0376
    1SOL    HW3 4739   3.896   4.369   1.932 -0.3944  0.1344 -0.6927
    1SOL    MW4 4740   3.848   4.432   1.968 -0.0896  0.0243 -0.0888
    1SOL     OW 4741   4.236   4.611   1.861 -0.3689  0.4114  0.0955
    1SOL    HW2 4742   4.162   4.645   1.911  0.0381 -0.3394  1.2168
    1SOL    HW3 4743   4.310   4.667   1.886  0.0656 -0.6177  1.1379
    1SOL    MW4 4744   4.236   4.623   1.871 -0.2575  0.1769  0.3810
    1SOL     OW 4745   4.032   0.091   1.983  0.1388 -0.4099 -0.2184
    1SOL    HW2 4746   4.008   0.118   2.072 -0.5052  0.2971 -0.6020
    1SOL    HW3 4747   3.948   0.069   1.942  0.4414 -0.7805 -0.6387
    1SOL    MW4 4748   4.017   0.091   1.989  0.0939 -0.3655 -0.3245
    1SOL     OW 4749   4.047   0.353   1.871  0.3028 -0.2289  0.2101
    1SOL    HW2 4750   4.031   0.260   1.887  2.5416 -0.5842  0.5065
    1SOL    HW3 4751   3.978   0.398   1.919 -0.0824 -1.6996  1.0539
    1SOL    MW4 4752   4.036   0.346   1.879  0.5474 -0.4698  0.3605
    1SOL     OW 4753   4.236   0.483   2.014  0.3273  0.1546 -0.0902
    1SOL    HW2 4754   4.227   0.469   2.108 -1.0072  0.5683 -0.1437
    1SOL    HW3 4755   4.169   0.427   1.975  0.6647  0.2236 -0.7685
    1SOL    MW4 4756   4.226   0.474   2.021  0.1950  0.2183 -0.1867
    1SOL     OW 4757   4.268   0.744   1.901  0.0133 -0.3759  0.1712
    1SOL    HW2 4758   4.260   0.654   1.934  0.5589 -0.2573  0.6484
    1SOL    HW3 4759   4.277   0.734   1.807  0.6766 -0.8673  0.2774
    1SOL    MW4 4760   4.268   0.730   1.893  0.1731 -0.4250  0.2482
    1SOL     OW 4761   4.063   0.900   1.989  0.2027 -0.3756  0.6339
    1SOL    HW2 4762   4.141   0.848   1.971  0.3100  0.0852 -0.2786
    1SOL    HW3 4763   3.991   0.850   1.949  0.1275 -0.4506  0.8617
    1SOL    MW4 4764   4.063   0.886   1.981  0.2074 -0.3247  0.5435
    1SOL     OW 4765   4.058   1.145   1.835 -0.1730  0.1407 -0.1562
    1SOL    HW2 4766   4.055   1.058   1.876  1.2892 -0.0670 -0.4434
    1SOL    HW3 4767   3.977   1.188   1.863  0.0810 -0.5479  1.7083
    1SOL    MW4 4768   4.047   1.139   1.845  0.0534  0.0224  0.0520
    1SOL     OW 4769   4.292   1.264   1.947  0.1663 -0.1112 -0.1598
    1SOL    HW2 4770   4.274   1.273   2.041 -0.9083  1.1502 -0.4770
    1SOL    HW3 4771   4.208   1.242   1.909  0.2081  1.2408 -1.0680
    1SOL    MW4 4772   4.279   1.262   1.955  0.0300  0.2337 -0.3214
    1SOL     OW 4773   4.276   1.529   1.862 -0.3715 -0.2851 -0.5314
    1SOL    HW2 4774   4.295   1.438   1.882 -0.8805 -0.5690 -1.3131
    1SOL    HW3 4775   4.263   1.530   1.767  1.1167  0.8614 -0.7355
    1SOL    MW4 4776   4.277   1.517   1.852 -0.2427 -0.1713 -0.6615
    1SOL     OW 4777   4.068   1.679   1.966 -0.3202 -0.0153  0.1990
    1SOL    HW2 4778   4.076   1.677   2.061  1.3759  1.0377  0.1198
    1SOL    HW3 4779   4.136   1.619   1.935 -0.1401  0.4641 -0.3561
    1SOL    MW4 4780   4.078   1.671   1.975 -0.0725  0.1869  0.1153
    1SOL     OW 4781   4.102   1.941   1.868 -0.1506 -0.2217 -0.0431
    1SOL    HW2 4782   4.095   1.850   1.897 -1.4212 -0.0795  0.1377
    1SOL    HW3 4783   4.079   1.939   1.775  0.1992 -0.1384 -0.1317
    1SOL    MW4 4784   4.098   1.929   1.860 -0.2718 -0.1920 -0.0309
    1SOL     OW 4785   4.303   2.093   1.986 -0.0966  0.0941 -0.2855
    1SOL    HW2 4786   4.299   2.086   2.081  1.6892 -2.0633 -0.3349
    1SOL    HW3 4787   4.224   2.050   1.954  0.0006 -0.4205  0.1724
    1SOL    MW4 4788   4.292   2.087   1.994  0.1521 -0.2584 -0.2316
    1SOL     OW 4789   4.237   2.343   1.876  0.2583 -0.3163  0.1162
    1SOL    HW2 4790   4.258   2.264   1.926  1.4633  0.1352  0.3349
    1SOL    HW3 4791   4.306   2.405   1.899 -0.7777  0.8657  0.0756
    1SOL    MW4 4792   4.249   2.341   1.886  0.2804 -0.1006  0.1397
    1SOL     OW 4793   3.998   2.439   1.974  0.0914  0.0560 -0.1789
    1SOL    HW2 4794   3.998   2.414   2.066 -0.7121  2.5097  0.5242
    1SOL    HW3 4795   4.082   2.407   1.940  0.2834 -1.0923  1.3206
    1SOL    MW4 4796   4.009   2.432   1.981  0.0110  0.2282  0.1116
    1SOL     OW 4797   3.985   2.688   1.846  0.3260  0.3736 -0.2234
    1SOL    HW2 4798   3.952   2.611   1.891  1.4854 -0.0680 -0.1012
    1SOL    HW3 4799   3.924   2.758   1.869  1.3867  0.3898  2.8323
    1SOL    MW4 4800   3.973   2.687   1.855  0.6189  0.3176  0.1959
    1SOL     OW 4801   4.193   2.839   1.978 -0.4270 -0.3039 -0.1450
    1SOL    HW2 4802   4.196   2.821   2.072  1.4272 -1.2336 -0.3565
    1SOL    HW3 4803   4.110   2.802   1.949 -1.7599  1.4235  1.4060
    1SOL    MW4 4804   4.183   2.831   1.987 -0.3581 -0.1986  0.0317
    1SOL     OW 4805   4.230   3.101   1.901 -0.0466 -0.3769 -0.0408
    1SOL    HW2 4806   4.147   3.144   1.920  0.9337  0.5572  2.2614
    1SOL    HW3 4807   4.217   3.010   1.930 -0.9238 -0.7637 -1.5949
    1SOL    MW4 4808   4.217   3.095   1.907 -0.0329 -0.3047  0.0579
    1SOL     OW 4809   3.985   3.219   1.940 -0.1985 -0.2666 -0.1516
    1SOL    HW2 4810   3.983   3.215   2.036 -1.3548  0.8061 -0.1199
    1SOL    HW3 4811   3.916   3.159   1.912 -0.8249  0.5036 -0.2709
    1SOL    MW4 4812   3.976   3.211   1.949 -0.4337 -0.0236 -0.1632
    1SOL     OW 4813   3.994   3.505   1.916  0.2578  0.7561 -0.0692
    1SOL    HW2 4814   4.077   3.541   1.949  0.5096  0.0131  0.1104
    1SOL    HW3 4815   4.000   3.411   1.933 -0.1852  0.5516 -1.0030
    1SOL    MW4 4816   4.006   3.497   1.922  0.2327  0.6309 -0.1687
    1SOL     OW 4817   4.241   3.608   1.976 -0.2942 -0.1773  0.6285
    1SOL    HW2 4818   4.239   3.698   1.943 -0.5165  0.4758  2.3828
    1SOL    HW3 4819   4.317   3.569   1.933 -0.9327  0.4459 -1.1261
    1SOL    MW4 4820   4.251   3.615   1.966 -0.4077 -0.0088  0.6282
    1SOL     OW 4821   4.201   3.903   1.894  0.2810 -0.5417  0.1109
    1SOL    HW2 4822   4.280   3.943   1.931  0.7312 -1.0306 -0.3207
    1SOL    HW3 4823   4.222   3.889   1.802 -0.1534 -1.0890  0.0974
    1SOL    MW4 4824   4.214   3.907   1.887  0.2828 -0.6783  0.0522
    1SOL     OW 4825   3.985   4.019   2.027  0.3050  0.0510  0.2789
    1SOL    HW2 4826   4.057   3.979   1.978  0.6049  0.0834  0.6850
    1SOL    HW3 4827   3.907   3.969   2.001  0.9020 -1.8038  1.8875
    1SOL    MW4 4828   3.984   4.007   2.017  0.4232 -0.1893  0.5448
    1SOL     OW 4829   3.985   4.235   1.847  0.3762  0.3526  0.2854
    1SOL    HW2 4830   4.076   4.236   1.877  0.2031 -1.8428  0.9796
    1SOL    HW3 4831   3.945   4.163   1.895 -1.9864  1.8659  0.6655
    1SOL    MW4 4832   3.992   4.226   1.857  0.0420  0.2632  0.4271
    1SOL     OW 4833   4.216   4.344   1.954  0.1217 -0.2296  0.0747
    1SOL    HW2 4834   4.208   4.355   2.049 -1.3921 -0.5952  0.0080
    1SOL    HW3 4835   4.218   4.433   1.920  2.8676 -0.0600  0.5895
    1SOL    MW4 4836   4.215   4.357   1.962  0.2837 -0.2551  0.1338
    1SOL     OW 4837   0.162   0.002   2.327  0.4431  0.3181 -0.4770
    1SOL    HW2 4838   0.172   0.000   2.423  0.0096  0.3406 -0.4308
    1SOL    HW3 4839   0.241   0.047   2.296  0.4998  0.4684 -0.1199
    1SOL    MW4 4840   0.174   0.008   2.336  0.3934  0.3409 -0.4241
    1SOL     OW 4841   4.429   0.129   2.203 -0.0261 -0.0685 -0.0836
    1SOL    HW2 4842   4.500   0.079   2.243  0.8987  1.0213 -0.3448
    1SOL    HW3 4843   4.442   0.118   2.109 -0.4800 -0.2364 -0.1288
    1SOL    MW4 4844   4.440   0.121   2.196  0.0362  0.0531 -0.1240
    1SOL     OW 4845   4.483   0.338   2.383  0.5715  0.1757 -0.0966
    1SOL    HW2 4846   4.549   0.401   2.352  0.4278 -0.4114 -1.6301
    1SOL    HW3 4847   4.473   0.277   2.311 -1.2297 -0.0836  0.3595
    1SOL    MW4 4848   4.491   0.338   2.369  0.3157  0.0640 -0.2389
    1SOL     OW 4849   0.190   0.482   2.261  0.2163  0.0182 -0.0479
    1SOL    HW2 4850   0.275   0.440   2.277  0.6910  0.7416 -0.6365
    1SOL    HW3 4851   0.171   0.464   2.169  0.0798  0.4729 -0.1089
    1SOL    MW4 4852   0.199   0.474   2.251  0.2609  0.1737 -0.1338
    1SOL     OW 4853   0.172   0.764   2.347 -0.1360 -0.0058  0.2937
    1SOL    HW2 4854   0.195   0.748   2.438 -1.6880  0.2203  0.7255
    1SOL    HW3 4855   0.168   0.677   2.307  1.3341 -0.0644  0.2241
    1SOL    MW4 4856   0.175   0.751   2.354 -0.1468  0.0163  0.3417
    1SOL     OW 4857   4.454   0.927   2.247  0.5652  0.0818  0.3484
    1SOL    HW2 4858   4.533   0.883   2.281  0.5326  0.0213  0.3460
    1SOL    HW3 4859   4.457   0.911   2.152  0.3194 -0.2959  0.4016
    1SOL    MW4 4860   4.465   0.919   2.239  0.5283  0.0240  0.3552
    1SOL     OW 4861   4.455   1.173   2.361  0.5120  0.1147 -0.0096
    1SOL    HW2 4862   4.466   1.158   2.455 -1.5543 -0.7527  0.1086
    1SOL    HW3 4863   4.455   1.086   2.322 -0.5148  0.3730 -0.5968
    1SOL    MW4 4864   4.457   1.160   2.368  0.1039  0.0342 -0.0715
    1SOL     OW 4865   0.213   1.247   2.270 -0.5579  0.0353  0.0424
    1SOL    HW2 4866   0.133   1.224   2.318 -0.2072 -0.1061  0.5718
    1SOL    HW3 4867   0.201   1.208   2.184 -0.8119 -0.4888  0.3065
    1SOL    MW4 4868   0.201   1.239   2.265 -0.5451 -0.0526  0.1471
    1SOL     OW 4869   0.277   1.501   2.374  0.1389  0.2183 -0.2567
    1SOL    HW2 4870   0.249   1.504   2.465 -0.2236  0.4758 -0.3787
    1SOL    HW3 4871   0.252   1.414   2.344 -2.2974  1.1089 -0.9310
    1SOL    MW4 4872   0.270   1.490   2.382 -0.2304  0.3698 -0.3617
    1SOL     OW 4873   0.042   1.649   2.272 -0.1014  0.0997 -0.3008
    1SOL    HW2 4874   0.050   1.738   2.308 -1.9875  0.2931 -0.3408
    1SOL    HW3 4875   0.127   1.609   2.290 -0.6785  0.4625  3.6436
    1SOL    MW4 4876   0.054   1.656   2.279 -0.4264  0.1731  0.2146
    1SOL     OW 4877   0.032   1.916   2.368 -0.1903  0.5936  0.2211
    1SOL    HW2 4878  -0.049   1.963   2.346 -0.5633 -0.4095 -0.6097
    1SOL    HW3 4879   0.101   1.979   2.347 -0.7262  1.2673  0.4229
    1SOL    MW4 4880   0.030   1.931   2.362 -0.3102  0.5502  0.1383
    1SOL     OW 4881   0.231   2.068   2.279 -0.0971  0.1388  0.0505
    1SOL    HW2 4882   0.310   2.020   2.305  0.8153  1.0181 -1.0272
    1SOL    HW3 4883   0.237   2.073   2.183 -0.0247  2.6014  0.1485
    1SOL    MW4 4884   0.243   2.062   2.270  0.0328  0.5798 -0.0784
    1SOL     OW 4885   0.195   2.332   2.355 -0.5587 -0.2153 -0.8470
    1SOL    HW2 4886   0.200   2.334   2.451  0.4011  0.1918 -0.9016
    1SOL    HW3 4887   0.191   2.239   2.333 -0.5435 -0.3175 -0.4281
    1SOL    MW4 4888   0.195   2.320   2.365 -0.4300 -0.1750 -0.7987
    1SOL     OW 4889   4.455   2.415   2.233 -0.1667  0.0462  0.1796
    1SOL    HW2 4890   4.442   2.501   2.272 -0.6573  0.2627 -0.4469
    1SOL    HW3 4891   4.537   2.384   2.270  0.6820  1.3429 -0.5706
    1SOL    MW4 4892   4.464   2.422   2.243 -0.1202  0.2458 -0.0021
    1SOL     OW 4893   4.449   2.684   2.353 -0.1470 -0.5907  0.3513
    1SOL    HW2 4894   4.450   2.701   2.448  0.3014  2.4741 -0.1589
    1SOL    HW3 4895   4.533   2.719   2.322 -1.9404  2.0285 -1.7214
    1SOL    MW4 4896   4.460   2.691   2.362 -0.3242  0.1590  0.0105
    1SOL     OW 4897   0.182   2.817   2.266 -0.2859  0.1179 -0.3000
    1SOL    HW2 4898   0.268   2.780   2.286 -0.5284 -0.7547 -0.8140
    1SOL    HW3 4899   0.175   2.811   2.171 -1.4901 -1.1625 -0.1430
    1SOL    MW4 4900   0.192   2.811   2.257 -0.4767 -0.1664 -0.3471
    1SOL     OW 4901   0.202   3.081   2.384 -0.3562 -0.2655 -0.2439
    1SOL    HW2 4902   0.126   3.134   2.358 -0.8375 -0.0801  1.5086
    1SOL    HW3 4903   0.185   2.996   2.344 -0.8293  0.1580 -0.9747
    1SOL    MW4 4904   0.189   3.077   2.375 -0.4821 -0.1855 -0.1094
    1SOL     OW 4905   4.467   3.202   2.244  0.4293  0.1403  0.3799
    1SOL    HW2 4906   4.473   3.289   2.284  0.7955  0.6174 -0.6888
    1SOL    HW3 4907   4.473   3.218   2.150  1.3508 -1.1203  0.2071
    1SOL    MW4 4908   4.469   3.215   2.237  0.5989  0.0367  0.2162
    1SOL     OW 4909   4.462   3.434   2.375 -0.2819 -0.2969 -0.3197
    1SOL    HW2 4910   4.455   3.442   2.470  0.2444 -1.2542 -0.1989
    1SOL    HW3 4911   4.392   3.491   2.342  1.1550  2.0752  0.5707
    1SOL    MW4 4912   4.452   3.443   2.383 -0.0224 -0.1101 -0.1864
    1SOL     OW 4913   0.182   3.563   2.268  0.0524  0.0102 -0.2452
    1SOL    HW2 4914   0.261   3.518   2.297  0.4798 -0.0589 -1.5306
    1SOL    HW3 4915   0.110   3.515   2.310  0.7893  1.8182  3.3133
    1SOL    MW4 4916   0.183   3.551   2.278  0.2060  0.2396  0.0546
    1SOL     OW 4917   0.224   3.823   2.401 -0.0124  0.2949  0.3859
    1SOL    HW2 4918   0.147   3.872   2.371  1.2614  2.4165  0.3987
    1SOL    HW3 4919   0.227   3.746   2.345 -2.7512 -0.3909  1.1239
    1SOL    MW4 4920   0.214   3.820   2.389 -0.2057  0.4842  0.4852
    1SOL     OW 4921   0.027   3.976   2.279  0.4066 -0.5795  0.2938
    1SOL    HW2 4922   0.014   4.065   2.310 -1.9256 -0.4285 -0.9816
    1SOL    HW3 4923   0.012   3.981   2.185  1.2942 -2.1167  0.0593
    1SOL    MW4 4924   0.023   3.988   2.271  0.2165 -0.7625  0.0944
    1SOL     OW 4925   4.455   4.247   2.332  0.2157  0.1125  0.2081
    1SOL    HW2 4926   4.458   4.266   2.426  1.0725  0.2870  0.1546
    1SOL    HW3 4927   4.535   4.287   2.297  1.1636 -2.0098 -0.1856
    1SOL    MW4 4928   4.466   4.255   2.340  0.4539 -0.1445  0.1490
    1SOL     OW 4929   0.208   4.379   2.270  0.6485 -0.1667 -0.1874
    1SOL    HW2 4930   0.287   4.341   2.307 -0.9480 -1.4562  1.9287
    1SOL    HW3 4931   0.214   4.472   2.291  1.2441 -0.3786  0.5734
    1SOL    MW4 4932   0.219   4.387   2.277  0.5164 -0.3648  0.1922
    1SOL     OW 4933   0.626   4.628   2.338 -0.5176  0.1784 -0.0725
    1SOL    HW2 4934   0.632   4.635   2.433 -1.5762  1.4213 -0.0884
    1SOL    HW3 4935   0.693   4.687   2.305 -0.1065 -0.3026 -0.0994
    1SOL    MW4 4936   0.635   4.636   2.346 -0.6030  0.2789 -0.0782
    1SOL     OW 4937   0.406   0.085   2.237 -0.3665  0.2730  0.3074
    1SOL    HW2 4938   0.488   0.063   2.280 -0.1748 -0.0111 -0.2033
    1SOL    HW3 4939   0.428   0.091   2.144 -1.6157 -3.3017 -0.2854
    1SOL    MW4 4940   0.419   0.083   2.230 -0.5060 -0.2361  0.1619
    1SOL     OW 4941   0.416   0.363   2.357 -0.1098 -0.0766 -0.1764
    1SOL    HW2 4942   0.423   0.366   2.452  0.6653 -0.4409 -0.2183
    1SOL    HW3 4943   0.402   0.271   2.336  0.7483 -0.1477 -0.4743
    1SOL    MW4 4944   0.415   0.352   2.367  0.1057 -0.1340 -0.2213
    1SOL     OW 4945   0.656   0.471   2.304 -0.1679  0.2655 -0.2920
    1SOL    HW2 4946   0.653   0.566   2.320 -0.9600  0.0152  1.1820
    1SOL    HW3 4947   0.566   0.442   2.318  0.1881 -0.7935 -0.1667
    1SOL    MW4 4948   0.643   0.480   2.308 -0.2254  0.0927 -0.0811
    1SOL     OW 4949   0.597   0.743   2.375  0.4178 -0.8672  0.1498
    1SOL    HW2 4950   0.613   0.754   2.469 -0.7019 -0.2075  0.2748
    1SOL    HW3 4951   0.526   0.805   2.355  0.3777 -1.2793 -1.0500
    1SOL    MW4 4952   0.589   0.752   2.385  0.2648 -0.8345  0.0083
    1SOL     OW 4953   0.387   0.908   2.275 -0.4338  0.3081 -0.1293
    1SOL    HW2 4954   0.306   0.858   2.289  0.7102 -1.5956 -0.0938
    1SOL    HW3 4955   0.410   0.891   2.183  0.9688 -0.8115  0.4042
    1SOL    MW4 4956   0.380   0.899   2.265 -0.0978 -0.0908 -0.0541
    1SOL     OW 4957   0.464   1.158   2.401  0.2599 -0.1734 -0.3602
    1SOL    HW2 4958   0.442   1.069   2.374  0.1201 -0.3206  0.2358
    1SOL    HW3 4959   0.393   1.212   2.366  0.0511 -0.3697 -0.2424
    1SOL    MW4 4960   0.452   1.153   2.393  0.2139 -0.2186 -0.2658
    1SOL     OW 4961   0.683   1.262   2.261  0.1771  0.6124  0.0262
    1SOL    HW2 4962   0.707   1.348   2.294 -1.6468  1.3622 -0.5713
    1SOL    HW3 4963   0.611   1.233   2.316 -1.6037  1.0439 -2.0018
    1SOL    MW4 4964   0.677   1.269   2.272 -0.2986  0.7683 -0.3202
    1SOL     OW 4965   0.711   1.530   2.360  0.5160 -0.1014 -0.1956
    1SOL    HW2 4966   0.694   1.539   2.454  1.5553  1.2117 -0.1316
    1SOL    HW3 4967   0.787   1.585   2.343  0.5899 -0.6411 -1.7457
    1SOL    MW4 4968   0.719   1.538   2.370  0.6629  0.0007 -0.3920
    1SOL     OW 4969   0.489   1.665   2.279  0.0238  0.5328  0.1527
    1SOL    HW2 4970   0.570   1.615   2.288 -0.6975 -0.3651  2.0215
    1SOL    HW3 4971   0.422   1.610   2.320 -1.6995  0.8973 -2.0687
    1SOL    MW4 4972   0.491   1.651   2.286 -0.2987  0.4623  0.1063
    1SOL     OW 4973   0.456   1.930   2.376  0.1360  0.2250 -0.3936
    1SOL    HW2 4974   0.536   1.975   2.350  0.0557 -0.4207 -1.8367
    1SOL    HW3 4975   0.467   1.840   2.344 -1.2820  0.2118 -0.9166
    1SOL    MW4 4976   0.468   1.924   2.368 -0.0617  0.1382 -0.6533
    1SOL     OW 4977   0.657   2.075   2.254 -0.0626  0.2163  0.3221
    1SOL    HW2 4978   0.733   2.023   2.282 -0.9694 -0.8395  0.8655
    1SOL    HW3 4979   0.671   2.161   2.293  0.0961 -0.4217  1.7182
    1SOL    MW4 4980   0.669   2.080   2.263 -0.1613 -0.0074  0.5779
    1SOL     OW 4981   0.681   2.330   2.379 -0.8677 -0.4090  0.6019
    1SOL    HW2 4982   0.674   2.329   2.474 -0.5606  0.6479  0.6349
    1SOL    HW3 4983   0.746   2.398   2.360 -0.5702 -0.9546 -0.3367
    1SOL    MW4 4984   0.689   2.339   2.389 -0.7879 -0.3417  0.4823
    1SOL     OW 4985   0.427   2.419   2.276  0.1899  0.8621  0.2953
    1SOL    HW2 4986   0.497   2.380   2.329  0.3549 -0.4072 -0.8090
    1SOL    HW3 4987   0.347   2.374   2.304  0.1823  0.6420 -0.0730
    1SOL    MW4 4988   0.426   2.408   2.286  0.2106  0.6657  0.1011
    1SOL     OW 4989   0.427   2.693   2.336 -0.1486  0.5515 -0.0209
    1SOL    HW2 4990   0.446   2.700   2.429 -0.4849  0.2315  0.0708
    1SOL    HW3 4991   0.413   2.600   2.321 -1.6688  0.7857 -0.0831
    1SOL    MW4 4992   0.428   2.682   2.346 -0.3935  0.5403 -0.0172
    1SOL     OW 4993   0.664   2.819   2.270  0.1724 -0.2568 -0.0523
    1SOL    HW2 4994   0.739   2.766   2.295  0.0040 -0.1122  0.8123
    1SOL    HW3 4995   0.590   2.778   2.316 -0.1031  0.2056 -0.0794
    1SOL    MW4 4996   0.664   2.806   2.280  0.1138 -0.1767  0.0582
    1SOL     OW 4997   0.672   3.090   2.355 -0.1566 -0.1929 -0.0312
    1SOL    HW2 4998   0.595   3.139   2.329  1.5910  2.2327 -0.7537
    1SOL    HW3 4999   0.668   3.010   2.303 -2.4377 -0.3607  0.3443
    1SOL    MW4 5000   0.661   3.086   2.345 -0.2270  0.1051 -0.0770
    1SOL     OW 5001   0.444   3.214   2.308 -0.2688 -0.1715 -0.1926
    1SOL    HW2 5002   0.374   3.171   2.356 -0.4107 -0.5606 -0.7531
    1SOL    HW3 5003   0.419   3.208   2.216 -0.0067  0.5971 -0.3231
    1SOL    MW4 5004   0.432   3.208   2.302 -0.2529 -0.1214 -0.2842
    1SOL     OW 5005   0.417   3.485   2.380 -0.1034  0.1601 -0.2186
    1SOL    HW2 5006   0.490   3.530   2.337  0.0896 -0.1416 -0.2077
    1SOL    HW3 5007   0.436   3.392   2.369  0.8055  0.0462  1.9197
    1SOL    MW4 5008   0.429   3.479   2.373  0.0420  0.1051  0.0651
    1SOL     OW 5009   0.622   3.636   2.259  0.2937 -0.1336  0.2932
    1SOL    HW2 5010   0.636   3.723   2.298 -0.4181  0.1643 -0.1102
    1SOL    HW3 5011   0.623   3.652   2.164  1.0031 -0.7005  0.1950
    1SOL    MW4 5012   0.624   3.650   2.251  0.2934 -0.1693  0.2272
    1SOL     OW 5013   0.662   3.886   2.366  0.1853  0.7589 -0.0362
    1SOL    HW2 5014   0.673   3.883   2.461 -1.3369 -2.4334  0.0919
    1SOL    HW3 5015   0.579   3.933   2.353 -0.9356 -1.0592  0.3722
    1SOL    MW4 5016   0.653   3.892   2.377 -0.1634  0.0978  0.0346
    1SOL     OW 5017   0.411   4.014   2.320 -1.0765  0.1549  0.0960
    1SOL    HW2 5018   0.363   3.941   2.357  0.1626 -0.4200  0.5846
    1SOL    HW3 5019   0.399   4.006   2.226 -0.5176 -0.9732  0.1190
    1SOL    MW4 5020   0.403   4.004   2.313 -0.8393 -0.0696  0.1636
    1SOL     OW 5021   0.435   4.277   2.382  0.1192  0.0230  0.0118
    1SOL    HW2 5022   0.513   4.316   2.342  0.8483 -0.0807  1.3095
    1SOL    HW3 5023   0.433   4.188   2.346  0.5102  0.0745 -0.1520
    1SOL    MW4 5024   0.445   4.270   2.372  0.2670  0.0162  0.1614
    1SOL     OW 5025   0.668   4.369   2.258 -0.3758  0.0201  0.3185
    1SOL    HW2 5026   0.658   4.462   2.278 -2.3940  0.0140 -0.4782
    1SOL    HW3 5027   0.671   4.365   2.162 -0.5079 -0.7498  0.3449
    1SOL    MW4 5028   0.667   4.381   2.248 -0.6596 -0.0825  0.2170
    1SOL     OW 5029   1.056   4.631   2.327 -0.2692 -0.1457 -0.4353
    1SOL    HW2 5030   1.065   4.616   2.422 -0.4140 -2.4926 -0.7660
    1SOL    HW3 5031   0.973   4.679   2.319 -0.5986 -0.5149  0.5790
    1SOL    MW4 5032   1.046   4.635   2.339 -0.3319 -0.5040 -0.3452
    1SOL     OW 5033   0.839   0.122   2.248 -0.2571  0.3207 -0.0089
    1SOL    HW2 5034   0.873   0.207   2.277 -0.0347 -0.0848  0.9630
    1SOL    HW3 5035   0.859   0.119   2.155  2.9806 -0.1510  0.6337
    1SOL    MW4 5036   0.847   0.133   2.240  0.1994  0.2049  0.2041
    1SOL     OW 5037   0.898   0.372   2.373 -0.1923  0.0827  0.0707
    1SOL    HW2 5038   0.957   0.432   2.328  0.9078  0.3580  1.8141
    1SOL    HW3 5039   0.811   0.412   2.364  0.2814  1.0510 -0.2549
    1SOL    MW4 5040   0.894   0.385   2.366  0.0154  0.2468  0.2577
    1SOL     OW 5041   1.092   0.525   2.254  0.4025  0.2945  0.2117
    1SOL    HW2 5042   1.164   0.467   2.280  0.6577  1.2057  1.5940
    1SOL    HW3 5043   1.095   0.527   2.158  1.2701 -0.8505  0.2086
    1SOL    MW4 5044   1.102   0.517   2.245  0.5505  0.2637  0.3936
    1SOL     OW 5045   1.036   0.764   2.380 -0.0477 -0.0629  0.2447
    1SOL    HW2 5046   0.970   0.826   2.348 -0.2203 -0.0748  0.5770
    1SOL    HW3 5047   1.042   0.698   2.311 -0.0233  0.2021 -0.0114
    1SOL    MW4 5048   1.028   0.764   2.366 -0.0672 -0.0295  0.2546
    1SOL     OW 5049   0.797   0.867   2.234 -0.0360  0.0070  0.1888
    1SOL    HW2 5050   0.791   0.958   2.262  1.3355 -0.2461  1.3978
    1SOL    HW3 5051   0.723   0.824   2.278  0.1614  0.2587  0.7743
    1SOL    MW4 5052   0.786   0.873   2.244  0.1710  0.0069  0.4256
    1SOL     OW 5053   0.908   1.122   2.347 -0.2552 -0.1375  0.0725
    1SOL    HW2 5054   0.980   1.180   2.321  0.2312 -0.9449 -0.4237
    1SOL    HW3 5055   0.829   1.167   2.319  0.2136 -0.6836 -2.2631
    1SOL    MW4 5056   0.907   1.135   2.340 -0.1291 -0.3161 -0.3009
    1SOL     OW 5057   1.130   1.281   2.281 -0.0702  0.1518 -0.1399
    1SOL    HW2 5058   1.210   1.231   2.297 -0.3284  0.0685  0.9045
    1SOL    HW3 5059   1.128   1.293   2.186 -0.1273 -2.0079 -0.4369
    1SOL    MW4 5060   1.141   1.276   2.271 -0.1118 -0.1440 -0.0412
    1SOL     OW 5061   1.144   1.526   2.403  0.0181 -0.2251 -0.0560
    1SOL    HW2 5062   1.070   1.573   2.365 -0.8249 -0.7952  0.8575
    1SOL    HW3 5063   1.132   1.435   2.374 -0.4831 -0.6102  1.3278
    1SOL    MW4 5064   1.132   1.520   2.394 -0.1593 -0.3512  0.2470
    1SOL     OW 5065   0.939   1.701   2.304  0.5395  0.2146  0.0121
    1SOL    HW2 5066   0.926   1.791   2.334 -0.8040 -0.2106  0.7817
    1SOL    HW3 5067   0.928   1.705   2.209 -0.0007  0.7936  0.0985
    1SOL    MW4 5068   0.936   1.713   2.296  0.2909  0.2348  0.1249
    1SOL     OW 5069   0.886   1.967   2.361  0.5449 -0.6620  0.2024
    1SOL    HW2 5070   0.867   1.969   2.455  0.2005 -0.6136  0.1333
    1SOL    HW3 5071   0.972   2.008   2.353 -0.8395  2.3638  0.1649
    1SOL    MW4 5072   0.895   1.973   2.372  0.3167 -0.2564  0.1881
    1SOL     OW 5073   1.144   2.086   2.263  0.1322 -0.6563  0.4617
    1SOL    HW2 5074   1.204   2.019   2.296  0.3250 -0.2993  0.8420
    1SOL    HW3 5075   1.128   2.061   2.172  0.9056 -0.7271  0.3420
    1SOL    MW4 5076   1.150   2.074   2.255  0.2596 -0.6187  0.4961
    1SOL     OW 5077   1.139   2.370   2.355  0.1950 -0.2313  0.4335
    1SOL    HW2 5078   1.220   2.417   2.332  0.0485 -0.1214  0.1437
    1SOL    HW3 5079   1.152   2.282   2.319 -0.8188  0.4737 -1.7606
    1SOL    MW4 5080   1.152   2.365   2.347  0.0418 -0.1237  0.1059
    1SOL     OW 5081   0.885   2.491   2.273  0.2315 -0.1141  0.2408
    1SOL    HW2 5082   0.965   2.445   2.297  0.0672 -0.1037  0.8060
    1SOL    HW3 5083   0.872   2.470   2.180  0.2364 -1.0807  0.4567
    1SOL    MW4 5084   0.894   2.482   2.264  0.2105 -0.2406  0.3438
    1SOL     OW 5085   0.923   2.735   2.395 -0.3400 -0.7436  0.1753
    1SOL    HW2 5086   0.915   2.722   2.489 -1.3912 -0.2304  0.1636
    1SOL    HW3 5087   0.913   2.647   2.358 -2.9635 -0.5620  0.3695
    1SOL    MW4 5088   0.921   2.722   2.402 -0.8249 -0.6521  0.1996
    1SOL     OW 5089   1.116   2.874   2.229  0.2391  0.2429 -0.1142
    1SOL    HW2 5090   1.194   2.836   2.270 -0.4306  0.0485  1.0104
    1SOL    HW3 5091   1.043   2.834   2.276 -0.5051  1.9318  0.1952
    1SOL    MW4 5092   1.117   2.864   2.241  0.0523  0.4401  0.0751
    1SOL     OW 5093   1.107   3.090   2.398 -0.8805 -0.5060  0.1019
    1SOL    HW2 5094   1.031   3.145   2.380 -1.1918 -0.8345  0.4115
    1SOL    HW3 5095   1.102   3.019   2.333  1.6417  1.8993 -2.8622
    1SOL    MW4 5096   1.096   3.088   2.387 -0.5889 -0.2315 -0.2484
    1SOL     OW 5097   0.902   3.229   2.286 -0.3341  0.6580 -0.1532
    1SOL    HW2 5098   0.897   3.324   2.298 -0.0649  0.8389 -1.4092
    1SOL    HW3 5099   0.817   3.197   2.318 -0.7300  1.3974 -0.4336
    1SOL    MW4 5100   0.890   3.237   2.292 -0.3508  0.7796 -0.3557
    1SOL     OW 5101   0.881   3.518   2.300 -0.0974 -0.4354 -0.0869
    1SOL    HW2 5102   0.878   3.529   2.395 -1.0701 -1.0775 -0.0347
    1SOL    HW3 5103   0.802   3.563   2.269  0.5756  0.3813 -0.6629
    1SOL    MW4 5104   0.870   3.526   2.308 -0.1370 -0.4122 -0.1559
    1SOL     OW 5105   1.128   3.636   2.224 -0.2811  0.0921 -0.1597
    1SOL    HW2 5106   1.191   3.597   2.284 -0.3666 -0.2394 -0.2836
    1SOL    HW3 5107   1.045   3.591   2.243 -0.4251  0.3587 -0.1600
    1SOL    MW4 5108   1.125   3.625   2.234 -0.3115  0.0837 -0.1764
    1SOL     OW 5109   1.096   3.892   2.335  0.1483  0.1559 -0.2525
    1SOL    HW2 5110   1.172   3.943   2.308  2.1930 -1.7234  1.7204
    1SOL    HW3 5111   1.105   3.809   2.289  0.0065 -0.5328  0.9237
    1SOL    MW4 5112   1.107   3.887   2.326  0.3994 -0.1829  0.1628
    1SOL     OW 5113   0.872   4.006   2.217  0.0115  0.7084  0.3125
    1SOL    HW2 5114   0.947   3.960   2.254 -0.9281 -0.1239  1.2374
    1SOL    HW3 5115   0.798   3.978   2.271 -1.2180  0.3177 -1.5139
    1SOL    MW4 5116   0.872   3.996   2.229 -0.2747  0.5467  0.1934
    1SOL     OW 5117   0.879   4.244   2.370  0.3290  0.4833  0.3379
    1SOL    HW2 5118   0.875   4.159   2.326  0.2862  0.4469  0.4120
    1SOL    HW3 5119   0.812   4.296   2.328 -2.1241 -0.6477  2.7017
    1SOL    MW4 5120   0.870   4.239   2.359 -0.0003  0.3290  0.6595
    1SOL     OW 5121   1.102   4.380   2.244  0.4413 -0.4743  0.1895
    1SOL    HW2 5122   1.024   4.349   2.291  0.0621  0.3126  0.0873
    1SOL    HW3 5123   1.096   4.475   2.247 -0.0152 -0.3880 -2.1358
    1SOL    MW4 5124   1.091   4.388   2.250  0.3310 -0.3591 -0.1309
    1SOL     OW 5125   1.541   0.016   2.350  0.1576  0.3154 -0.0024
    1SOL    HW2 5126   1.601   0.087   2.328 -0.2779  0.8733  0.5915
    1SOL    HW3 5127   1.461   0.035   2.301 -0.3202  0.7972  0.9567
    1SOL    MW4 5128   1.538   0.028   2.341  0.0371  0.4526  0.2027
    1SOL     OW 5129   1.301   0.095   2.237 -0.6772  0.0581  0.0673
    1SOL    HW2 5130   1.286   0.187   2.256 -0.5997 -0.1742  1.3245
    1SOL    HW3 5131   1.224   0.050   2.273 -0.1443 -0.4765  0.5646
    1SOL    MW4 5132   1.289   0.101   2.244 -0.5968 -0.0431  0.2985
    1SOL     OW 5133   1.306   0.363   2.317  0.1043  0.2457  0.3314
    1SOL    HW2 5134   1.309   0.365   2.413  2.5904 -0.0680  0.2945
    1SOL    HW3 5135   1.394   0.389   2.290 -0.4048 -0.2334 -1.8658
    1SOL    MW4 5136   1.318   0.367   2.326  0.3653  0.1411  0.0365
    1SOL     OW 5137   1.537   0.511   2.221  0.2883  0.1430  0.0232
    1SOL    HW2 5138   1.622   0.491   2.259 -0.5700 -2.5725  0.6681
    1SOL    HW3 5139   1.550   0.501   2.127  0.3802 -1.7107  0.2042
    1SOL    MW4 5140   1.550   0.507   2.214  0.1873 -0.4598  0.1321
    1SOL     OW 5141   1.509   0.762   2.327  0.2016 -0.2580 -0.4190
    1SOL    HW2 5142   1.596   0.795   2.307  0.6073 -1.4876 -0.7390
    1SOL    HW3 5143   1.511   0.671   2.297 -1.4726 -0.0418 -1.2138
    1SOL    MW4 5144   1.521   0.754   2.320  0.0342 -0.3917 -0.5660
    1SOL     OW 5145   1.259   0.890   2.278  0.0200 -0.0338  0.5821
    1SOL    HW2 5146   1.332   0.832   2.300 -0.7948 -1.3403 -0.1963
    1SOL    HW3 5147   1.181   0.843   2.305 -0.6804  0.5181 -0.4451
    1SOL    MW4 5148   1.259   0.876   2.285 -0.1801 -0.1333  0.3436
    1SOL     OW 5149   1.349   1.144   2.390  0.3010 -0.4597 -0.1543
    1SOL    HW2 5150   1.333   1.152   2.484  0.1932  0.3928 -0.2439
    1SOL    HW3 5151   1.313   1.058   2.368 -0.4531 -0.3017  0.4228
    1SOL    MW4 5152   1.342   1.134   2.400  0.1872 -0.3265 -0.0899
    1SOL     OW 5153   1.593   1.258   2.265 -0.6832  0.4889 -0.3525
    1SOL    HW2 5154   1.511   1.230   2.306 -0.2458 -0.4077 -0.0678
    1SOL    HW3 5155   1.606   1.347   2.296 -0.2062 -0.2840  1.7143
    1SOL    MW4 5156   1.583   1.266   2.274 -0.5627  0.2686 -0.0420
    1SOL     OW 5157   1.597   1.517   2.358 -0.4613 -0.5120  0.6242
    1SOL    HW2 5158   1.678   1.563   2.336  0.4625 -1.4223  2.0955
    1SOL    HW3 5159   1.597   1.512   2.453 -1.3196 -2.2070  0.5455
    1SOL    MW4 5160   1.608   1.522   2.367 -0.4528 -0.8558  0.8078
    1SOL     OW 5161   1.374   1.643   2.266 -0.0115 -0.2962 -0.2384
    1SOL    HW2 5162   1.454   1.606   2.304  0.5395  1.0557 -0.0445
    1SOL    HW3 5163   1.303   1.591   2.304  0.7275 -0.9686  0.2381
    1SOL    MW4 5164   1.375   1.631   2.276  0.1587 -0.2066 -0.1502
    1SOL     OW 5165   1.354   1.909   2.365  0.4980  0.8431  0.8486
    1SOL    HW2 5166   1.421   1.971   2.337 -0.8312  1.9618  0.0757
    1SOL    HW3 5167   1.370   1.831   2.311  1.5274  0.8870  1.0873
    1SOL    MW4 5168   1.365   1.907   2.354  0.4585  0.9964  0.7780
    1SOL     OW 5169   1.552   2.066   2.270 -0.1246  0.2036 -0.0122
    1SOL    HW2 5170   1.632   2.028   2.306 -0.8722 -0.6215  0.7969
    1SOL    HW3 5171   1.560   2.054   2.175 -0.3933 -2.0498  0.2357
    1SOL    MW4 5172   1.564   2.060   2.262 -0.2587 -0.2024  0.1271
    1SOL     OW 5173   1.550   2.331   2.329 -0.1376 -0.3624  0.9050
    1SOL    HW2 5174   1.543   2.329   2.424  1.1897  0.9485  1.0384
    1SOL    HW3 5175   1.546   2.239   2.303  1.2066 -0.8566  2.3517
    1SOL    MW4 5176   1.548   2.319   2.338  0.2148 -0.2546  1.1137
    1SOL     OW 5177   1.350   2.484   2.235  0.1950  0.4392 -0.1258
    1SOL    HW2 5178   1.433   2.440   2.252 -0.2250  0.2481  1.5521
    1SOL    HW3 5179   1.323   2.452   2.149  1.5326  0.0076 -0.3950
    1SOL    MW4 5180   1.357   2.474   2.226  0.3160  0.3574  0.0601
    1SOL     OW 5181   1.337   2.741   2.364  0.2847  0.4217  0.0200
    1SOL    HW2 5182   1.421   2.777   2.335  0.2779  0.5689  0.1834
    1SOL    HW3 5183   1.327   2.660   2.313  0.8126  0.0927  0.4266
    1SOL    MW4 5184   1.347   2.735   2.354  0.3533  0.3977  0.0954
    1SOL     OW 5185   1.580   2.840   2.278  0.5935  0.2082  0.6119
    1SOL    HW2 5186   1.562   2.933   2.294  0.9125  0.7074 -1.7510
    1SOL    HW3 5187   1.592   2.834   2.183 -0.9164 -2.5142  0.5481
    1SOL    MW4 5188   1.579   2.851   2.267  0.4364 -0.0854  0.2918
    1SOL     OW 5189   1.563   3.124   2.332 -0.2383 -0.1543  0.1632
    1SOL    HW2 5190   1.568   3.114   2.428  1.8309  2.1729  0.3186
    1SOL    HW3 5191   1.479   3.168   2.318  0.2003  0.9953  1.0483
    1SOL    MW4 5192   1.552   3.128   2.343  0.0927  0.3045  0.3004
    1SOL     OW 5193   1.316   3.246   2.276  0.0109 -1.0117 -0.5329
    1SOL    HW2 5194   1.251   3.191   2.321  0.0380 -0.8928 -0.3464
    1SOL    HW3 5195   1.297   3.234   2.183  0.1803 -1.5414 -0.5051
    1SOL    MW4 5196   1.304   3.237   2.270  0.0368 -1.0657 -0.5043
    1SOL     OW 5197   1.314   3.504   2.375 -0.2414 -0.4448  0.7091
    1SOL    HW2 5198   1.315   3.503   2.471 -1.4701 -1.2154  0.7191
    1SOL    HW3 5199   1.307   3.412   2.350  1.1038 -0.3345 -0.1482
    1SOL    MW4 5200   1.314   3.492   2.385 -0.2261 -0.5319  0.5972
    1SOL     OW 5201   1.528   3.605   2.262 -0.2340 -0.1899 -0.9156
    1SOL    HW2 5202   1.548   3.693   2.292  0.4083 -1.2438  1.9692
    1SOL    HW3 5203   1.450   3.579   2.312 -0.2696 -1.3446 -1.5382
    1SOL    MW4 5204   1.520   3.613   2.273 -0.1540 -0.4814 -0.6173
    1SOL     OW 5205   1.555   3.867   2.364 -0.1281  0.0523 -0.0983
    1SOL    HW2 5206   1.548   3.862   2.459 -1.6056 -1.0461 -0.2402
    1SOL    HW3 5207   1.642   3.901   2.347 -0.7010  2.5131  1.7035
    1SOL    MW4 5208   1.565   3.871   2.374 -0.3985  0.2320  0.1206
    1SOL     OW 5209   1.350   4.013   2.257 -0.1090 -0.4408  0.1677
    1SOL    HW2 5210   1.419   3.954   2.289  0.2064  0.3887  1.0386
    1SOL    HW3 5211   1.354   4.004   2.161  0.5986 -1.0806  0.2507
    1SOL    MW4 5212   1.360   4.004   2.248  0.0260 -0.4158  0.2935
    1SOL     OW 5213   1.343   4.266   2.344 -0.0592 -0.1340  0.1093
    1SOL    HW2 5214   1.352   4.183   2.298 -0.0569  0.7788 -1.5610
    1SOL    HW3 5215   1.257   4.299   2.317  0.6540  1.2028 -0.5479
    1SOL    MW4 5216   1.333   4.259   2.335  0.0352  0.1626 -0.1976
    1SOL     OW 5217   1.585   4.422   2.250  0.8608 -0.5291 -0.3367
    1SOL    HW2 5218   1.531   4.367   2.307  2.6519 -2.0785 -0.0575
    1SOL    HW3 5219   1.581   4.509   2.290 -0.3671 -0.9122  0.4020
    1SOL    MW4 5220   1.578   4.426   2.263  0.9351 -0.7839 -0.2022
    1SOL     OW 5221   1.990   0.000   2.356 -0.7541 -0.1945  0.3600
    1SOL    HW2 5222   2.075   0.035   2.331  0.0444 -1.6427  0.9906
    1SOL    HW3 5223   1.993  -0.092   2.331 -1.1061 -0.9119  2.8088
    1SOL    MW4 5224   2.001  -0.007   2.350 -0.6952 -0.4802  0.7665
    1SOL     OW 5225   1.732   0.171   2.277 -0.4029  0.0695  0.2528
    1SOL    HW2 5226   1.747   0.264   2.292 -1.5608  0.4584 -0.9346
    1SOL    HW3 5227   1.810   0.128   2.312  0.5370  1.5429 -0.0006
    1SOL    MW4 5228   1.744   0.177   2.284 -0.4318  0.3152  0.0629
    1SOL     OW 5229   1.787   0.437   2.340  0.4963 -0.0653  0.1293
    1SOL    HW2 5230   1.787   0.420   2.434 -0.1966 -0.1374  0.1238
    1SOL    HW3 5231   1.874   0.470   2.321  0.1263  1.4993  1.0826
    1SOL    MW4 5232   1.798   0.439   2.350  0.3562  0.1316  0.2542
    1SOL     OW 5233   2.041   0.540   2.271  0.2306 -0.2073 -0.1032
    1SOL    HW2 5234   2.034   0.628   2.307  0.8342 -0.1217 -0.1992
    1SOL    HW3 5235   2.033   0.551   2.177  1.7888 -0.0945 -0.2250
    1SOL    MW4 5236   2.039   0.553   2.264  0.5157 -0.1811 -0.1321
    1SOL     OW 5237   2.022   0.804   2.349  0.3374  0.3524  0.0673
    1SOL    HW2 5238   2.090   0.850   2.299 -0.1433  0.4484 -0.5010
    1SOL    HW3 5239   1.940   0.835   2.312  0.0180 -1.8952 -1.1776
    1SOL    MW4 5240   2.020   0.814   2.337  0.2317  0.0685 -0.1721
    1SOL     OW 5241   1.750   0.870   2.258  0.5618  0.5026 -0.0401
    1SOL    HW2 5242   1.749   0.959   2.292 -0.8899  0.2289  0.6673
    1SOL    HW3 5243   1.766   0.881   2.164 -0.4708  1.5682 -0.1059
    1SOL    MW4 5244   1.752   0.883   2.250  0.2341  0.6071  0.0446
    1SOL     OW 5245   1.800   1.117   2.373  0.2655  0.0924  0.1286
    1SOL    HW2 5246   1.868   1.174   2.336  0.6575 -1.0228 -0.8968
    1SOL    HW3 5247   1.718   1.162   2.353  0.6673  1.3086  1.1243
    1SOL    MW4 5248   1.798   1.130   2.366  0.3703  0.1056  0.1245
    1SOL     OW 5249   2.005   1.293   2.301 -0.2559 -0.2917 -0.0998
    1SOL    HW2 5250   2.006   1.385   2.329  0.9097 -0.5443  0.7275
    1SOL    HW3 5251   1.976   1.296   2.210 -0.1023  0.9046 -0.1199
    1SOL    MW4 5252   2.001   1.306   2.293 -0.0818 -0.1673  0.0067
    1SOL     OW 5253   2.037   1.578   2.370  0.0603 -0.0536 -0.2949
    1SOL    HW2 5254   2.024   1.562   2.464 -0.3393 -0.9096 -0.4979
    1SOL    HW3 5255   1.964   1.635   2.345  0.1953  0.2187 -0.0824
    1SOL    MW4 5256   2.026   1.584   2.379  0.0253 -0.1305 -0.2937
    1SOL     OW 5257   1.785   1.697   2.283  0.1219  0.1181  0.1044
    1SOL    HW2 5258   1.765   1.785   2.315  0.4933  0.6733 -1.1739
    1SOL    HW3 5259   1.760   1.699   2.191 -0.2021 -1.2325  0.1659
    1SOL    MW4 5260   1.779   1.709   2.275  0.1283  0.0130 -0.0558
    1SOL     OW 5261   1.788   1.967   2.386  0.3949 -0.4158  0.1241
    1SOL    HW2 5262   1.794   1.959   2.481 -0.5849  0.9406  0.3219
    1SOL    HW3 5263   1.853   2.034   2.363 -0.1599  0.0849 -0.0128
    1SOL    MW4 5264   1.797   1.975   2.395  0.1925 -0.1708  0.1323
    1SOL     OW 5265   2.014   2.067   2.244  0.3631 -0.1704  0.6634
    1SOL    HW2 5266   2.089   2.011   2.264  0.0973 -0.6814  0.2443
    1SOL    HW3 5267   2.003   2.060   2.149  1.5858  2.1958  0.3090
    1SOL    MW4 5268   2.022   2.059   2.234  0.4892  0.0741  0.5615
    1SOL     OW 5269   2.031   2.325   2.365  0.2952 -0.1125  0.0370
    1SOL    HW2 5270   2.101   2.372   2.319  1.6352  0.2099  2.3117
    1SOL    HW3 5271   2.039   2.235   2.334  1.1561  0.0906 -0.3759
    1SOL    MW4 5272   2.042   2.320   2.355  0.5858 -0.0432  0.2823
    1SOL     OW 5273   1.784   2.452   2.241 -0.0856 -0.0238 -0.3319
    1SOL    HW2 5274   1.858   2.404   2.279 -0.4618 -0.9609 -0.7574
    1SOL    HW3 5275   1.708   2.422   2.291 -0.3514 -0.0326 -0.7410
    1SOL    MW4 5276   1.784   2.442   2.253 -0.1704 -0.1488 -0.4420
    1SOL     OW 5277   1.802   2.714   2.363  0.4373  0.5058 -0.4898
    1SOL    HW2 5278   1.796   2.631   2.315  0.2889  1.1828 -1.6634
    1SOL    HW3 5279   1.725   2.763   2.334 -0.4858  0.3288  1.6105
    1SOL    MW4 5280   1.791   2.709   2.353  0.2960  0.5717 -0.3676
    1SOL     OW 5281   1.997   2.824   2.227  0.1722  0.1014  0.1775
    1SOL    HW2 5282   2.078   2.787   2.262 -0.2553 -0.2733  0.7773
    1SOL    HW3 5283   1.927   2.780   2.275 -0.3596  1.3323  0.5577
    1SOL    MW4 5284   1.998   2.813   2.238  0.0454  0.2143  0.3068
    1SOL     OW 5285   1.958   3.077   2.319 -0.6141  0.3769  0.2422
    1SOL    HW2 5286   2.037   3.127   2.295 -0.6980  0.2869 -0.2260
    1SOL    HW3 5287   1.980   2.986   2.297 -0.8547  0.3543  0.0899
    1SOL    MW4 5288   1.972   3.071   2.313 -0.6570  0.3624  0.1605
    1SOL     OW 5289   1.776   3.238   2.205  0.2107  0.4343  0.0591
    1SOL    HW2 5290   1.844   3.175   2.229 -0.0453 -0.1177 -0.6598
    1SOL    HW3 5291   1.695   3.201   2.239  0.1486  0.6944  0.1976
    1SOL    MW4 5292   1.775   3.225   2.213  0.1687  0.3958 -0.0176
    1SOL     OW 5293   1.774   3.479   2.340  0.7042  0.2191  0.0466
    1SOL    HW2 5294   1.775   3.404   2.281  0.3595 -0.1023  0.4480
    1SOL    HW3 5295   1.690   3.522   2.323  0.9689  0.6051 -0.2957
    1SOL    MW4 5296   1.763   3.475   2.330  0.6936  0.2277  0.0544
    1SOL     OW 5297   2.003   3.619   2.233  0.1821  0.1866 -0.0543
    1SOL    HW2 5298   1.943   3.554   2.269  1.1849 -0.6913  0.0356
    1SOL    HW3 5299   2.001   3.603   2.138  2.1132 -1.4446  0.1584
    1SOL    MW4 5300   1.994   3.609   2.225  0.5691 -0.1445 -0.0143
    1SOL     OW 5301   2.011   3.879   2.354 -0.0118 -0.4396  0.2301
    1SOL    HW2 5302   2.018   3.885   2.449 -1.1133 -0.2082  0.3130
    1SOL    HW3 5303   1.996   3.786   2.337  1.4701 -0.6696  0.1816
    1SOL    MW4 5304   2.010   3.867   2.364  0.0381 -0.4396  0.2348
    1SOL     OW 5305   1.782   3.997   2.242  0.1948  0.1317  0.4097
    1SOL    HW2 5306   1.861   3.954   2.273 -0.1628 -0.3379  0.6769
    1SOL    HW3 5307   1.780   3.978   2.148  0.2232 -0.1455  0.4638
    1SOL    MW4 5308   1.792   3.989   2.234  0.1514  0.0331  0.4520
    1SOL     OW 5309   1.782   4.250   2.366 -0.7396  0.0584  0.0407
    1SOL    HW2 5310   1.783   4.166   2.322  0.7644  0.1918 -0.2057
    1SOL    HW3 5311   1.707   4.296   2.329 -1.0218 -0.8208 -0.4858
    1SOL    MW4 5312   1.772   4.245   2.356 -0.5783 -0.0401 -0.0613
    1SOL     OW 5313   2.001   4.401   2.286  0.0600 -0.0747  0.2885
    1SOL    HW2 5314   1.934   4.341   2.319  0.0731 -0.4861 -0.4288
    1SOL    HW3 5315   1.983   4.408   2.192  0.6794  0.2560  0.1935
    1SOL    MW4 5316   1.989   4.394   2.278  0.1435 -0.0858  0.1812
    1SOL     OW 5317   2.462   4.647   2.398 -0.1694 -0.3276  0.3523
    1SOL    HW2 5318   2.543   4.696   2.388 -0.0562 -0.3650  1.0941
    1SOL    HW3 5319   2.471   4.572   2.340  0.2610 -0.2516  0.3246
    1SOL    MW4 5320   2.474   4.644   2.389 -0.0978 -0.3225  0.4463
    1SOL     OW 5321   2.247   0.105   2.299  0.0428 -0.3308  0.5378
    1SOL    HW2 5322   2.261   0.195   2.331  2.1101  0.3456 -2.1129
    1SOL    HW3 5323   2.315   0.054   2.344  0.1584 -0.1895  0.5282
    1SOL    MW4 5324   2.258   0.110   2.309  0.3309 -0.2229  0.1869
    1SOL     OW 5325   2.264   0.383   2.372  0.3071 -0.2749  0.1091
    1SOL    HW2 5326   2.344   0.419   2.335 -0.1081  0.9289  0.3829
    1SOL    HW3 5327   2.193   0.431   2.330 -0.3540 -2.3252 -1.2198
    1SOL    MW4 5328   2.265   0.394   2.362  0.1650 -0.3866 -0.0300
    1SOL     OW 5329   2.478   0.488   2.246  0.2237  0.1278  0.3571
    1SOL    HW2 5330   2.566   0.452   2.260 -0.4994 -1.5867  0.6034
    1SOL    HW3 5331   2.471   0.499   2.152  0.8887  0.7473  0.3775
    1SOL    MW4 5332   2.489   0.485   2.236  0.2158 -0.0167  0.3922
    1SOL     OW 5333   2.464   0.784   2.361 -0.0551 -0.1989  0.7512
    1SOL    HW2 5334   2.549   0.824   2.347  0.2997 -0.6289  1.6216
    1SOL    HW3 5335   2.469   0.700   2.315 -0.3479  0.1958 -0.0018
    1SOL    MW4 5336   2.476   0.778   2.353 -0.0467 -0.2035  0.7668
    1SOL     OW 5337   2.255   0.909   2.251  0.0393  0.1865  0.0107
    1SOL    HW2 5338   2.234   0.992   2.293  1.0323  0.8395 -0.7852
    1SOL    HW3 5339   2.330   0.876   2.300  1.2627  0.9957 -1.2863
    1SOL    MW4 5340   2.262   0.915   2.263  0.3319  0.3794 -0.2656
    1SOL     OW 5341   2.224   1.149   2.400 -0.0710  0.2747 -0.1528
    1SOL    HW2 5342   2.300   1.199   2.368  0.0866  0.3491  0.3282
    1SOL    HW3 5343   2.148   1.195   2.364  0.1821 -1.4643 -3.0127
    1SOL    MW4 5344   2.224   1.162   2.391 -0.0167  0.0550 -0.4668
    1SOL     OW 5345   2.424   1.280   2.256 -0.0177 -0.3308  0.6278
    1SOL    HW2 5346   2.508   1.246   2.285  0.8932  0.5378 -0.9636
    1SOL    HW3 5347   2.421   1.369   2.292 -0.8463 -0.7950  1.7697
    1SOL    MW4 5348   2.434   1.287   2.265 -0.0069 -0.2773  0.5684
    1SOL     OW 5349   2.493   1.545   2.360 -0.2127  0.4045 -0.1035
    1SOL    HW2 5350   2.470   1.557   2.452 -1.3778  0.0991 -0.3458
    1SOL    HW3 5351   2.557   1.613   2.342  0.2587  0.2611  1.0219
    1SOL    MW4 5352   2.498   1.555   2.370 -0.3042  0.3453  0.0131
    1SOL     OW 5353   2.275   1.668   2.256 -0.0705 -0.1913  0.1209
    1SOL    HW2 5354   2.340   1.612   2.299 -1.4278 -1.9057 -0.0279
    1SOL    HW3 5355   2.191   1.642   2.295 -0.8923  0.7200 -1.0091
    1SOL    MW4 5356   2.273   1.658   2.267 -0.3581 -0.2972 -0.0477
    1SOL     OW 5357   2.255   1.940   2.310  0.3602 -0.1225 -0.0830
    1SOL    HW2 5358   2.339   1.983   2.295 -0.1683  0.5665 -1.1464
    1SOL    HW3 5359   2.270   1.849   2.285  0.8041 -0.0071 -0.2388
    1SOL    MW4 5360   2.268   1.934   2.305  0.3490 -0.0165 -0.2441
    1SOL     OW 5361   2.477   2.081   2.269 -0.2104  0.3340 -0.2733
    1SOL    HW2 5362   2.555   2.033   2.300  0.6039  2.0056  0.3237
    1SOL    HW3 5363   2.484   2.077   2.174  2.2559  2.9638 -0.2841
    1SOL    MW4 5364   2.488   2.074   2.261  0.2224  0.9015 -0.1960
    1SOL     OW 5365   2.440   2.350   2.332  0.3710  0.0901  0.2440
    1SOL    HW2 5366   2.525   2.379   2.299  0.0680  0.3000 -0.3624
    1SOL    HW3 5367   2.445   2.254   2.326  0.8987  0.0623  1.0603
    1SOL    MW4 5368   2.452   2.341   2.327  0.4008  0.1142  0.2716
    1SOL     OW 5369   2.218   2.461   2.220  0.1320 -0.3645  0.2637
    1SOL    HW2 5370   2.224   2.556   2.222  0.2210 -0.3114 -1.3398
    1SOL    HW3 5371   2.296   2.430   2.267  0.2300  0.3575  0.5713
    1SOL    MW4 5372   2.229   2.469   2.226  0.1569 -0.2620  0.0925
    1SOL     OW 5373   2.239   2.734   2.314  0.0251 -0.2671  0.3638
    1SOL    HW2 5374   2.225   2.752   2.407 -0.7663 -0.1639  0.2256
    1SOL    HW3 5375   2.317   2.785   2.291 -0.2414  0.3305  0.7801
    1SOL    MW4 5376   2.247   2.743   2.323 -0.1147 -0.1748  0.4005
    1SOL     OW 5377   2.468   2.866   2.225 -0.0349 -0.7857  0.0355
    1SOL    HW2 5378   2.525   2.803   2.270  0.6214  0.3731  0.8572
    1SOL    HW3 5379   2.487   2.853   2.132  2.1238  0.0806  0.3318
    1SOL    MW4 5380   2.478   2.856   2.219  0.3364 -0.5186  0.1831
    1SOL     OW 5381   2.431   3.111   2.343 -0.6052  0.4502 -0.4819
    1SOL    HW2 5382   2.508   3.165   2.326 -0.4891  0.0552 -1.2396
    1SOL    HW3 5383   2.449   3.029   2.298 -0.4128 -0.5409  1.3904
    1SOL    MW4 5384   2.444   3.108   2.335 -0.5643  0.2673 -0.3350
    1SOL     OW 5385   2.196   3.229   2.250 -0.0497  0.5757  0.3250
    1SOL    HW2 5386   2.200   3.318   2.284  0.8226  0.7373 -0.1616
    1SOL    HW3 5387   2.274   3.186   2.285  0.6176  0.6130 -1.0683
    1SOL    MW4 5388   2.207   3.235   2.259  0.1533  0.6020  0.0770
    1SOL     OW 5389   2.244   3.501   2.334 -0.0510 -0.0538  0.3770
    1SOL    HW2 5390   2.249   3.512   2.429  1.4251  1.2073  0.1666
    1SOL    HW3 5391   2.173   3.559   2.306 -0.6976 -0.6648  0.7377
    1SOL    MW4 5392   2.236   3.510   2.343  0.0584  0.0319  0.3970
    1SOL     OW 5393   2.480   3.612   2.274  0.3654 -0.0176  0.4674
    1SOL    HW2 5394   2.454   3.698   2.307  0.5947 -0.1692  1.0635
    1SOL    HW3 5395   2.403   3.557   2.286  0.7511 -0.3152  1.6690
    1SOL    MW4 5396   2.467   3.616   2.280  0.4466 -0.0770  0.7045
    1SOL     OW 5397   2.444   3.874   2.369 -0.0556 -0.3216  0.0445
    1SOL    HW2 5398   2.443   3.887   2.464  0.7553  0.2075 -0.0151
    1SOL    HW3 5399   2.358   3.905   2.339 -0.5652 -1.1004  0.6757
    1SOL    MW4 5400   2.432   3.880   2.377 -0.0160 -0.3548  0.1197
    1SOL     OW 5401   2.231   4.013   2.265  0.0608 -0.2954 -0.1905
    1SOL    HW2 5402   2.229   4.104   2.296  0.8029  0.4122 -2.1307
    1SOL    HW3 5403   2.150   3.975   2.297 -0.5461  1.2268  0.1464
    1SOL    MW4 5404   2.220   4.020   2.273  0.0787 -0.0014 -0.4020
    1SOL     OW 5405   2.236   4.288   2.368 -0.1672  0.2584  0.2210
    1SOL    HW2 5406   2.242   4.292   2.463  0.7593  1.8500  0.1063
    1SOL    HW3 5407   2.153   4.331   2.346 -0.5002 -0.3267  0.3093
    1SOL    MW4 5408   2.226   4.294   2.377 -0.0887  0.3910  0.2177
    1SOL     OW 5409   2.457   4.409   2.247 -0.0666 -0.2440 -0.0875
    1SOL    HW2 5410   2.533   4.375   2.295 -0.7683  0.1042  1.3021
    1SOL    HW3 5411   2.382   4.364   2.286 -0.8061  1.3011  0.3139
    1SOL    MW4 5412   2.457   4.399   2.258 -0.2565  0.0057  0.1488
    1SOL     OW 5413   2.919   4.653   2.370  0.1541 -0.3878  0.2277
    1SOL    HW2 5414   2.988   4.692   2.317 -1.4554 -0.5723 -2.1094
    1SOL    HW3 5415   2.908   4.565   2.334 -2.7006  0.3553 -0.9316
    1SOL    MW4 5416   2.926   4.647   2.358 -0.4346 -0.3142 -0.2339
    1SOL     OW 5417   2.681   0.091   2.264 -0.3180 -0.1124 -0.1284
    1SOL    HW2 5418   2.703   0.180   2.290  0.6582 -0.8184  1.6017
    1SOL    HW3 5419   2.756   0.039   2.292 -0.8029 -1.4489 -1.2679
    1SOL    MW4 5420   2.694   0.096   2.271 -0.2530 -0.3819 -0.0503
    1SOL     OW 5421   2.718   0.363   2.321  0.1760  0.0942 -0.0545
    1SOL    HW2 5422   2.690   0.384   2.410  0.3731 -0.5920  0.1749
    1SOL    HW3 5423   2.787   0.427   2.302  1.2500 -0.7415  0.8911
    1SOL    MW4 5424   2.724   0.374   2.330  0.3438 -0.1066  0.1006
    1SOL     OW 5425   2.934   0.524   2.269 -0.1757  0.1002  0.2212
    1SOL    HW2 5426   2.946   0.617   2.287  1.2449  0.2064 -1.1382
    1SOL    HW3 5427   2.920   0.519   2.174 -3.2150 -0.8171  0.6602
    1SOL    MW4 5428   2.934   0.535   2.259 -0.3893 -0.0068  0.0999
    1SOL     OW 5429   2.901   0.787   2.376  0.0106 -0.4740  0.3481
    1SOL    HW2 5430   2.880   0.779   2.469 -0.1809 -0.5140  0.3031
    1SOL    HW3 5431   2.832   0.844   2.341 -0.6287 -1.4528 -0.0077
    1SOL    MW4 5432   2.889   0.794   2.383 -0.0992 -0.6084  0.2954
    1SOL     OW 5433   2.681   0.916   2.274 -0.0987  0.1546 -0.0620
    1SOL    HW2 5434   2.689   1.010   2.293  1.0537  0.1396 -0.3989
    1SOL    HW3 5435   2.680   0.912   2.178  0.7053 -0.2319 -0.0575
    1SOL    MW4 5436   2.682   0.928   2.264  0.1593  0.1015 -0.1061
    1SOL     OW 5437   2.680   1.180   2.327 -0.2319 -0.3102 -0.8236
    1SOL    HW2 5438   2.682   1.174   2.423 -1.3813  0.0164 -0.7708
    1SOL    HW3 5439   2.766   1.217   2.304 -0.1423  0.0966  0.1127
    1SOL    MW4 5440   2.692   1.184   2.337 -0.3719 -0.2135 -0.6931
    1SOL     OW 5441   2.922   1.307   2.241  0.1768  0.0002 -0.0266
    1SOL    HW2 5442   2.987   1.243   2.270  2.4732  2.7336  1.1246
    1SOL    HW3 5443   2.925   1.302   2.145  0.3843 -1.5033  0.0425
    1SOL    MW4 5444   2.931   1.298   2.232  0.5069  0.1624  0.1342
    1SOL     OW 5445   2.931   1.570   2.353  0.2696 -0.2707 -0.0491
    1SOL    HW2 5446   2.924   1.567   2.449  0.6015  0.5504  0.0013
    1SOL    HW3 5447   2.916   1.479   2.325 -0.1352 -0.4543  0.7605
    1SOL    MW4 5448   2.928   1.557   2.362  0.2599 -0.1867  0.0644
    1SOL     OW 5449   2.699   1.724   2.265  0.7076 -0.1782 -0.1340
    1SOL    HW2 5450   2.766   1.672   2.310  1.1782 -0.9674 -1.7026
    1SOL    HW3 5451   2.722   1.717   2.173 -0.9457  0.4014 -0.5976
    1SOL    MW4 5452   2.711   1.716   2.259  0.5517 -0.2058 -0.4022
    1SOL     OW 5453   2.720   1.960   2.382  0.4770 -0.4017  0.8307
    1SOL    HW2 5454   2.718   1.958   2.478 -0.5767 -0.8750  0.8084
    1SOL    HW3 5455   2.716   1.868   2.356  0.6703 -0.2725  0.3280
    1SOL    MW4 5456   2.719   1.947   2.391  0.3633 -0.4472  0.7613
    1SOL     OW 5457   2.919   2.095   2.237  0.5503 -0.4773  0.1521
    1SOL    HW2 5458   3.003   2.077   2.279  0.3223  0.1120  0.8611
    1SOL    HW3 5459   2.854   2.053   2.293  0.3014 -0.2411  0.0428
    1SOL    MW4 5460   2.922   2.087   2.250  0.4873 -0.3686  0.2310
    1SOL     OW 5461   2.917   2.368   2.300  0.1963  0.0019  0.0158
    1SOL    HW2 5462   2.920   2.362   2.395  0.3203  0.0635  0.0160
    1SOL    HW3 5463   2.900   2.279   2.271  0.2835 -0.0399  0.0911
    1SOL    MW4 5464   2.915   2.355   2.309  0.2241  0.0043  0.0255
    1SOL     OW 5465   2.667   2.473   2.243  0.1184 -0.4096 -0.5105
    1SOL    HW2 5466   2.752   2.445   2.275 -0.0899 -0.8982 -0.3785
    1SOL    HW3 5467   2.673   2.466   2.148  0.9141  1.5451 -0.6374
    1SOL    MW4 5468   2.679   2.469   2.234  0.1960 -0.2162 -0.5097
    1SOL     OW 5469   2.669   2.727   2.341  0.3091  0.5520  0.1774
    1SOL    HW2 5470   2.736   2.764   2.284 -0.3616  0.3396 -0.7711
    1SOL    HW3 5471   2.670   2.633   2.321  1.5218  0.1547  2.0571
    1SOL    MW4 5472   2.678   2.719   2.331  0.3808  0.4718  0.3006
    1SOL     OW 5473   2.896   2.841   2.264 -0.4991  0.1769  0.2255
    1SOL    HW2 5474   2.878   2.924   2.307  2.7815  0.4306  1.2783
    1SOL    HW3 5475   2.911   2.864   2.172  2.8249  1.1806  0.9559
    1SOL    MW4 5476   2.896   2.855   2.258  0.3724  0.3428  0.4609
    1SOL     OW 5477   2.845   3.080   2.392  0.0231 -0.1840 -0.0527
    1SOL    HW2 5478   2.925   3.114   2.353  0.2282  0.1899  0.6838
    1SOL    HW3 5479   2.775   3.132   2.354  0.2851  0.6789  0.6215
    1SOL    MW4 5480   2.846   3.091   2.382  0.0846 -0.0207  0.1335
    1SOL     OW 5481   2.654   3.232   2.281 -0.1500  0.0895  0.0823
    1SOL    HW2 5482   2.647   3.325   2.300 -0.5796 -0.0953  0.8554
    1SOL    HW3 5483   2.664   3.227   2.186  1.1956  0.9922  0.1564
    1SOL    MW4 5484   2.655   3.244   2.271 -0.0291  0.1843  0.1941
    1SOL     OW 5485   2.715   3.502   2.339 -0.0745 -0.2745 -0.1663
    1SOL    HW2 5486   2.772   3.539   2.272  0.6197 -0.7729  0.1522
    1SOL    HW3 5487   2.630   3.545   2.324  0.4662  0.7383 -0.4030
    1SOL    MW4 5488   2.711   3.513   2.328  0.0882 -0.2067 -0.1554
    1SOL     OW 5489   2.935   3.649   2.204 -0.0483 -0.2883 -0.1972
    1SOL    HW2 5490   3.008   3.606   2.249  0.9697  1.3196 -0.2953
    1SOL    HW3 5491   2.919   3.729   2.254 -1.1875 -0.2041 -0.6810
    1SOL    MW4 5492   2.942   3.653   2.217 -0.0646 -0.0648 -0.2739
    1SOL     OW 5493   2.906   3.908   2.324 -0.0432 -0.0987  0.4008
    1SOL    HW2 5494   2.913   3.908   2.420  0.3822 -1.0929  0.3753
    1SOL    HW3 5495   2.823   3.952   2.307  0.3936  1.0765  1.1771
    1SOL    MW4 5496   2.896   3.914   2.335  0.0703 -0.0749  0.4997
    1SOL     OW 5497   2.658   4.028   2.264 -0.1991 -0.3401 -0.0431
    1SOL    HW2 5498   2.581   3.979   2.290  0.1592 -1.6063 -1.2890
    1SOL    HW3 5499   2.657   4.025   2.168  0.6303  0.8208 -0.0915
    1SOL    MW4 5500   2.648   4.021   2.255 -0.0424 -0.3533 -0.2141
    1SOL     OW 5501   2.666   4.284   2.358  0.2501 -0.4305 -0.3249
    1SOL    HW2 5502   2.651   4.274   2.452  0.8098 -0.4243 -0.2364
    1SOL    HW3 5503   2.671   4.194   2.325 -0.1133 -0.4327 -0.3777
    1SOL    MW4 5504   2.664   4.270   2.366  0.2761 -0.4296 -0.3202
    1SOL     OW 5505   2.900   4.406   2.269 -0.0750  0.3980 -0.1921
    1SOL    HW2 5506   2.981   4.362   2.294  0.2935  0.7792 -0.7131
    1SOL    HW3 5507   2.832   4.364   2.323  0.3836 -0.2854 -0.1410
    1SOL    MW4 5508   2.901   4.395   2.280  0.0341  0.3576 -0.2539
    1SOL     OW 5509   3.328   4.667   2.322  0.0460  0.1298  0.1684
    1SOL    HW2 5510   3.350   4.660   2.414  1.0791  2.1534  0.1065
    1SOL    HW3 5511   3.384   4.738   2.289 -1.6950  0.7342 -1.5654
    1SOL    MW4 5512   3.339   4.675   2.330 -0.0477  0.4764 -0.0684
    1SOL     OW 5513   3.101   0.123   2.229  0.0988 -0.2276 -0.2276
    1SOL    HW2 5514   3.104   0.212   2.263  0.5854 -0.7445  1.1217
    1SOL    HW3 5515   3.181   0.082   2.263 -0.5843 -1.4456 -0.0774
    1SOL    MW4 5516   3.112   0.129   2.238  0.0727 -0.4565 -0.0296
    1SOL     OW 5517   3.126   0.363   2.371 -0.3047  0.5269 -0.0631
    1SOL    HW2 5518   3.204   0.408   2.337 -1.3275  0.1697 -3.0492
    1SOL    HW3 5519   3.054   0.421   2.346 -1.1379  0.0200  1.1785
    1SOL    MW4 5520   3.127   0.377   2.363 -0.5496  0.4129 -0.2930
    1SOL     OW 5521   3.354   0.490   2.263 -0.5412 -0.1955  0.4075
    1SOL    HW2 5522   3.437   0.455   2.297  0.0999  2.5159  1.8015
    1SOL    HW3 5523   3.369   0.501   2.169  0.4980 -0.2108  0.5653
    1SOL    MW4 5524   3.367   0.487   2.255 -0.3195  0.1602  0.6120
    1SOL     OW 5525   3.341   0.771   2.351 -0.1698  0.6528 -0.4875
    1SOL    HW2 5526   3.428   0.808   2.341  0.4696 -0.4548  0.7299
    1SOL    HW3 5527   3.355   0.676   2.349 -1.2191  0.4600  0.5508
    1SOL    MW4 5528   3.354   0.763   2.350 -0.2239  0.4813 -0.1898
    1SOL     OW 5529   3.123   0.909   2.215  0.0439  0.4897  0.1785
    1SOL    HW2 5530   3.199   0.882   2.266 -0.1607  2.3458  1.5133
    1SOL    HW3 5531   3.048   0.869   2.261 -0.0795  1.6052  0.9774
    1SOL    MW4 5532   3.123   0.900   2.228  0.0007  0.8817  0.4601
    1SOL     OW 5533   3.109   1.150   2.345  0.0050 -0.2430 -0.1253
    1SOL    HW2 5534   3.188   1.203   2.338 -0.8798  1.3454  1.4988
    1SOL    HW3 5535   3.126   1.074   2.289  2.2296  0.5987 -0.6447
    1SOL    MW4 5536   3.122   1.147   2.337  0.1819  0.0776  0.0205
    1SOL     OW 5537   3.349   1.289   2.296 -0.1892 -0.0640  0.1882
    1SOL    HW2 5538   3.434   1.259   2.327 -0.1686 -0.5337 -0.3183
    1SOL    HW3 5539   3.345   1.382   2.322  1.1929  0.4229 -1.2995
    1SOL    MW4 5540   3.360   1.298   2.304 -0.0043 -0.0618 -0.0749
    1SOL     OW 5541   3.380   1.561   2.362 -0.3722 -0.5367  0.1899
    1SOL    HW2 5542   3.373   1.569   2.457 -1.5223 -0.8259  0.1389
    1SOL    HW3 5543   3.299   1.600   2.328 -1.4307 -3.2246 -0.5117
    1SOL    MW4 5544   3.368   1.567   2.370 -0.6635 -0.9294  0.0908
    1SOL     OW 5545   3.161   1.706   2.261  0.0910 -0.1985 -0.4366
    1SOL    HW2 5546   3.147   1.793   2.297 -0.0659 -0.3094 -0.2259
    1SOL    HW3 5547   3.077   1.661   2.273  0.1108 -0.3144 -0.7233
    1SOL    MW4 5548   3.148   1.711   2.267  0.0730 -0.2285 -0.4466
    1SOL     OW 5549   3.130   1.967   2.358 -0.4771 -0.0171  0.2981
    1SOL    HW2 5550   3.136   1.963   2.453  0.1571  0.3990  0.2819
    1SOL    HW3 5551   3.218   1.991   2.329 -0.8307  0.5432 -0.3474
    1SOL    MW4 5552   3.143   1.970   2.366 -0.4399  0.1117  0.2108
    1SOL     OW 5553   3.376   2.090   2.284 -0.2329 -0.5246 -0.2852
    1SOL    HW2 5554   3.452   2.045   2.320 -0.4214 -0.6674 -0.0656
    1SOL    HW3 5555   3.389   2.088   2.189 -0.4988 -1.4826 -0.3032
    1SOL    MW4 5556   3.388   2.084   2.276 -0.2930 -0.6700 -0.2587
    1SOL     OW 5557   3.382   2.355   2.421 -0.0622  0.6549  0.1518
    1SOL    HW2 5558   3.317   2.400   2.368  0.2260  1.2526  0.3084
    1SOL    HW3 5559   3.387   2.267   2.382  0.1128  1.0692 -0.7774
    1SOL    MW4 5560   3.374   2.349   2.409 -0.0010  0.7885  0.0498
    1SOL     OW 5561   3.182   2.464   2.272 -0.1355  0.2803  0.1291
    1SOL    HW2 5562   3.172   2.551   2.312 -0.5951  0.6420 -0.7745
    1SOL    HW3 5563   3.096   2.423   2.280  0.0332 -0.0262  0.3919
    1SOL    MW4 5564   3.170   2.470   2.278 -0.1738  0.2875  0.0446
    1SOL     OW 5565   3.134   2.730   2.378  0.2187 -0.4920  0.1560
    1SOL    HW2 5566   3.117   2.707   2.469 -2.4300  0.9139  0.0742
    1SOL    HW3 5567   3.048   2.756   2.344  0.9592 -1.9283 -3.0261
    1SOL    MW4 5568   3.120   2.730   2.385 -0.0331 -0.4961 -0.2744
    1SOL     OW 5569   3.358   2.864   2.245  0.6067 -0.0141  0.0256
    1SOL    HW2 5570   3.364   2.952   2.282  2.1536  0.0496 -0.3534
    1SOL    HW3 5571   3.280   2.827   2.286 -0.2809  1.6518 -0.0970
    1SOL    MW4 5572   3.349   2.871   2.256  0.6938  0.2141 -0.0408
    1SOL     OW 5573   3.353   3.122   2.338 -0.3499 -0.6301 -0.1661
    1SOL    HW2 5574   3.422   3.176   2.299 -0.1067 -0.0712  0.9937
    1SOL    HW3 5575   3.271   3.167   2.316 -0.2615 -0.7101 -0.6481
    1SOL    MW4 5576   3.351   3.135   2.330 -0.3064 -0.5670 -0.0768
    1SOL     OW 5577   3.077   3.209   2.275 -0.2890  0.4404  0.2108
    1SOL    HW2 5578   3.102   3.300   2.287  1.1409  0.0168  0.5066
    1SOL    HW3 5579   3.083   3.194   2.181 -0.9357  0.7548  0.1139
    1SOL    MW4 5580   3.081   3.219   2.264 -0.1857  0.4261  0.2370
    1SOL     OW 5581   3.139   3.514   2.355  0.2472 -0.2153 -0.4717
    1SOL    HW2 5582   3.133   3.491   2.447  1.8282 -2.6642 -0.9438
    1SOL    HW3 5583   3.219   3.567   2.348 -0.0346  0.2244 -0.4045
    1SOL    MW4 5584   3.149   3.518   2.366  0.4187 -0.4807 -0.5250
    1SOL     OW 5585   3.366   3.675   2.279  0.1547 -0.0874 -0.4750
    1SOL    HW2 5586   3.449   3.633   2.302 -0.1055 -0.8829 -0.9532
    1SOL    HW3 5587   3.360   3.665   2.184 -0.0153  0.8548 -0.5650
    1SOL    MW4 5588   3.376   3.668   2.269  0.0980 -0.0679 -0.5498
    1SOL     OW 5589   3.325   3.932   2.366 -0.6579  0.3243 -0.2678
    1SOL    HW2 5590   3.403   3.963   2.320 -0.5839  0.3465 -0.1269
    1SOL    HW3 5591   3.329   3.837   2.359 -1.1821  0.3642 -1.1934
    1SOL    MW4 5592   3.336   3.924   2.359 -0.7174  0.3324 -0.3715
    1SOL     OW 5593   3.113   4.069   2.233 -0.0766  0.5246  0.1125
    1SOL    HW2 5594   3.179   4.030   2.290 -0.2043 -2.0587 -1.4758
    1SOL    HW3 5595   3.034   4.017   2.248 -0.6035  0.9664 -1.0783
    1SOL    MW4 5596   3.111   4.057   2.243 -0.1628  0.2422 -0.2542
    1SOL     OW 5597   3.137   4.312   2.363 -0.0553  0.3194 -0.4619
    1SOL    HW2 5598   3.216   4.355   2.329 -0.2133  0.4111 -0.7131
    1SOL    HW3 5599   3.136   4.226   2.322  1.2579 -0.6554  1.4602
    1SOL    MW4 5600   3.147   4.307   2.353  0.0970  0.2027 -0.2415
    1SOL     OW 5601   3.361   4.402   2.240  0.6686  0.3567 -0.0116
    1SOL    HW2 5602   3.364   4.492   2.274 -2.3669  0.5348 -0.0677
    1SOL    HW3 5603   3.369   4.413   2.145  1.5296  0.4486  0.0642
    1SOL    MW4 5604   3.363   4.416   2.232  0.3817  0.3920 -0.0088
    1SOL     OW 5605   3.749   4.631   2.329 -0.3731 -0.1365 -0.3656
    1SOL    HW2 5606   3.764   4.633   2.423 -0.3573  0.4359 -0.3792
    1SOL    HW3 5607   3.821   4.681   2.292 -0.5086 -0.1631 -0.6663
    1SOL    MW4 5608   3.761   4.638   2.337 -0.3889 -0.0644 -0.4067
    1SOL     OW 5609   3.555   0.152   2.248 -0.3020  0.4411 -0.2552
    1SOL    HW2 5610   3.574   0.237   2.288 -1.6850  0.7713 -0.2837
    1SOL    HW3 5611   3.622   0.094   2.284  1.2654  1.7470 -0.9972
    1SOL    MW4 5612   3.566   0.156   2.258 -0.2778  0.6570 -0.3569
    1SOL     OW 5613   3.589   0.382   2.365  0.2311  0.2936  0.1952
    1SOL    HW2 5614   3.582   0.382   2.461  1.0967  1.1583  0.2608
    1SOL    HW3 5615   3.674   0.421   2.347  0.5225 -0.8256 -0.9058
    1SOL    MW4 5616   3.599   0.387   2.376  0.3836  0.2601  0.0582
    1SOL     OW 5617   3.822   0.500   2.278 -0.3025  0.2156  0.2181
    1SOL    HW2 5618   3.820   0.591   2.309  0.8403  0.1713  0.4241
    1SOL    HW3 5619   3.826   0.508   2.183 -1.2062  0.3679  0.1859
    1SOL    MW4 5620   3.822   0.513   2.270 -0.2708  0.2299  0.2408
    1SOL     OW 5621   3.812   0.755   2.365  0.5929  0.8177  0.4728
    1SOL    HW2 5622   3.820   0.774   2.458  1.9922  0.2541  0.4688
    1SOL    HW3 5623   3.884   0.802   2.324  0.2021  0.7699 -0.2913
    1SOL    MW4 5624   3.822   0.764   2.371  0.7260  0.7371  0.3715
    1SOL     OW 5625   3.577   0.895   2.281 -0.0828  0.2018 -0.2708
    1SOL    HW2 5626   3.659   0.849   2.301  0.2518  1.3454  1.0322
    1SOL    HW3 5627   3.576   0.900   2.185  0.8019 -0.8254 -0.3516
    1SOL    MW4 5628   3.588   0.890   2.271  0.0780  0.2172 -0.1097
    1SOL     OW 5629   3.585   1.163   2.374  0.1341  0.0171  0.2469
    1SOL    HW2 5630   3.603   1.152   2.468  1.7255 -3.4755 -0.4099
    1SOL    HW3 5631   3.590   1.075   2.338  0.4968  1.4320 -3.3323
    1SOL    MW4 5632   3.588   1.150   2.382  0.3920 -0.2570 -0.3123
    1SOL     OW 5633   3.804   1.282   2.208 -0.5240 -0.2330  0.3747
    1SOL    HW2 5634   3.823   1.366   2.249  1.5283 -1.0437  1.1278
    1SOL    HW3 5635   3.726   1.251   2.254 -0.2880  0.4670  1.2591
    1SOL    MW4 5636   3.796   1.289   2.220 -0.2224 -0.2476  0.5910
    1SOL     OW 5637   3.814   1.575   2.324 -0.0229  0.3087  0.1598
    1SOL    HW2 5638   3.819   1.581   2.419 -0.0279  1.8026  0.0780
    1SOL    HW3 5639   3.731   1.618   2.301 -0.1154 -0.2094 -0.4938
    1SOL    MW4 5640   3.804   1.582   2.333 -0.0358  0.4374  0.0627
    1SOL     OW 5641   3.597   1.713   2.255 -0.1561  0.1066  0.2469
    1SOL    HW2 5642   3.526   1.653   2.275 -0.4685  0.0556 -0.9606
    1SOL    HW3 5643   3.620   1.694   2.164  0.6763  0.8551  0.2860
    1SOL    MW4 5644   3.591   1.703   2.246 -0.0875  0.1987  0.0925
    1SOL     OW 5645   3.607   1.951   2.385 -0.4479 -0.3602 -0.2579
    1SOL    HW2 5646   3.686   1.995   2.355 -0.8678  0.4365 -0.2260
    1SOL    HW3 5647   3.603   1.870   2.334  0.0293 -0.0850 -0.7329
    1SOL    MW4 5648   3.617   1.946   2.375 -0.4404 -0.2189 -0.3161
    1SOL     OW 5649   3.833   2.064   2.261 -0.1355 -0.3785 -0.2172
    1SOL    HW2 5650   3.915   2.023   2.287  0.3460  0.6219 -0.1185
    1SOL    HW3 5651   3.838   2.070   2.165 -0.7841 -1.7313 -0.3441
    1SOL    MW4 5652   3.844   2.059   2.252 -0.1576 -0.4249 -0.2208
    1SOL     OW 5653   3.811   2.295   2.413 -0.0603 -0.3036 -0.0590
    1SOL    HW2 5654   3.744   2.345   2.366  1.1045  0.3530 -1.0439
    1SOL    HW3 5655   3.816   2.212   2.366 -1.6946 -1.2116  1.3220
    1SOL    MW4 5656   3.803   2.291   2.401 -0.1221 -0.3364 -0.0069
    1SOL     OW 5657   3.614   2.475   2.308  0.4492  0.3587 -0.2863
    1SOL    HW2 5658   3.530   2.441   2.338  0.0898  1.5301  0.0487
    1SOL    HW3 5659   3.621   2.446   2.217 -1.4352  2.3175 -1.0854
    1SOL    MW4 5660   3.604   2.467   2.300  0.1531  0.7715 -0.3476
    1SOL     OW 5661   3.602   2.754   2.379 -0.1735  0.2355  0.3498
    1SOL    HW2 5662   3.607   2.660   2.359  2.1889  0.3008  0.5540
    1SOL    HW3 5663   3.520   2.782   2.338 -0.5741 -1.7763 -0.2948
    1SOL    MW4 5664   3.592   2.745   2.371  0.0851 -0.0215  0.2918
    1SOL     OW 5665   3.834   2.900   2.264  0.5736  0.1831 -0.4830
    1SOL    HW2 5666   3.825   2.989   2.297  0.0982  0.4152 -1.2173
    1SOL    HW3 5667   3.751   2.857   2.288  0.7447 -0.0180 -0.2532
    1SOL    MW4 5668   3.822   2.906   2.272  0.5333  0.1869 -0.5496
    1SOL     OW 5669   3.780   3.171   2.350  0.2706  0.2680 -0.0147
    1SOL    HW2 5670   3.788   3.165   2.445  0.7388 -0.6205 -0.1034
    1SOL    HW3 5671   3.869   3.189   2.320  0.0454  1.0029 -0.2591
    1SOL    MW4 5672   3.793   3.173   2.359  0.3030  0.2477 -0.0587
    1SOL     OW 5673   3.545   3.276   2.220 -0.0737 -0.2638 -0.0854
    1SOL    HW2 5674   3.554   3.351   2.279 -0.5152 -1.2478  1.2552
    1SOL    HW3 5675   3.619   3.219   2.242  0.9341  0.3060 -1.9050
    1SOL    MW4 5676   3.556   3.278   2.231  0.0007 -0.3181 -0.1488
    1SOL     OW 5677   3.565   3.511   2.366  0.3842  0.2563 -0.1943
    1SOL    HW2 5678   3.548   3.520   2.460 -1.8776  0.8469 -0.6177
    1SOL    HW3 5679   3.652   3.548   2.353  1.0610 -0.5970  1.7873
    1SOL    MW4 5680   3.574   3.517   2.377  0.1750  0.2217  0.0112
    1SOL     OW 5681   3.798   3.636   2.287 -0.4484 -0.2655  0.2498
    1SOL    HW2 5682   3.786   3.729   2.307  1.1471 -0.0060  0.0742
    1SOL    HW3 5683   3.792   3.631   2.192 -0.2302 -0.2912  0.2375
    1SOL    MW4 5684   3.796   3.648   2.277 -0.2093 -0.2346  0.2251
    1SOL     OW 5685   3.781   3.909   2.367 -0.1353 -0.0482  0.1584
    1SOL    HW2 5686   3.751   3.888   2.455  0.3980  0.1155  0.3830
    1SOL    HW3 5687   3.871   3.940   2.379 -0.0668 -0.0049 -0.4390
    1SOL    MW4 5688   3.789   3.910   2.380 -0.0558 -0.0212  0.1094
    1SOL     OW 5689   3.555   4.036   2.237 -0.2878 -0.2494  0.0045
    1SOL    HW2 5690   3.546   4.119   2.284 -0.1116 -0.4370  0.3703
    1SOL    HW3 5691   3.631   3.993   2.277 -1.2206 -1.2212  0.7846
    1SOL    MW4 5692   3.564   4.041   2.248 -0.3874 -0.4025  0.1557
    1SOL     OW 5693   3.550   4.264   2.380  0.1627 -0.3970  0.3075
    1SOL    HW2 5694   3.638   4.297   2.361  0.3691 -1.2541 -0.2370
    1SOL    HW3 5695   3.491   4.326   2.337  0.5730 -1.2518 -1.5049
    1SOL    MW4 5696   3.554   4.276   2.372  0.2444 -0.6227 -0.0036
    1SOL     OW 5697   3.789   4.367   2.254 -0.0674 -0.3276  0.3778
    1SOL    HW2 5698   3.869   4.342   2.300 -0.2691 -1.2036  0.2774
    1SOL    HW3 5699   3.770   4.456   2.282  0.4651 -0.4359  1.0737
    1SOL    MW4 5700   3.797   4.375   2.264 -0.0236 -0.4568  0.4566
    1SOL     OW 5701   4.218   4.652   2.331 -0.0912 -0.6694  0.0935
    1SOL    HW2 5702   4.245   4.661   2.422 -0.8760 -0.0288  0.2711
    1SOL    HW3 5703   4.285   4.700   2.281 -0.6396  0.5417  0.4901
    1SOL    MW4 5704   4.230   4.660   2.337 -0.2675 -0.4249  0.1693
    1SOL     OW 5705   3.971   0.099   2.255 -0.5327  0.8238 -0.3557
    1SOL    HW2 5706   3.988   0.184   2.297  1.5162  1.0103 -1.5262
    1SOL    HW3 5707   4.050   0.048   2.269 -1.5661 -0.7617 -0.0746
    1SOL    MW4 5708   3.983   0.104   2.262 -0.3989  0.6392 -0.4730
    1SOL     OW 5709   4.018   0.346   2.390 -0.3232  0.0586 -0.0574
    1SOL    HW2 5710   4.104   0.376   2.361 -0.2432 -0.4758 -0.3769
    1SOL    HW3 5711   3.957   0.410   2.354  0.0328  1.0708  1.1061
    1SOL    MW4 5712   4.022   0.358   2.382 -0.2651  0.1217  0.0539
    1SOL     OW 5713   4.254   0.457   2.290 -0.4303  0.1489 -0.7499
    1SOL    HW2 5714   4.252   0.547   2.322  1.0033 -0.0521 -0.0235
    1SOL    HW3 5715   4.339   0.423   2.320 -0.9389 -1.4285 -1.0414
    1SOL    MW4 5716   4.265   0.464   2.298 -0.3090 -0.0857 -0.6926
    1SOL     OW 5717   4.243   0.729   2.369 -0.1008  0.0228  0.0149
    1SOL    HW2 5718   4.164   0.771   2.334  0.4440  2.1007  1.2140
    1SOL    HW3 5719   4.315   0.784   2.340  0.6548 -0.1749  1.4607
    1SOL    MW4 5720   4.242   0.741   2.360  0.0706  0.2709  0.3638
    1SOL     OW 5721   4.043   0.880   2.261  0.5268 -0.3851 -0.4262
    1SOL    HW2 5722   4.054   0.970   2.290  0.8818 -0.4783 -0.2732
    1SOL    HW3 5723   4.049   0.885   2.165 -1.2528  0.0070 -0.5348
    1SOL    MW4 5724   4.045   0.892   2.252  0.3395 -0.3457 -0.4201
    1SOL     OW 5725   4.025   1.149   2.323 -0.0606 -0.8118  0.2400
    1SOL    HW2 5726   4.015   1.158   2.418 -0.2232  0.5439  0.1120
    1SOL    HW3 5727   3.945   1.186   2.287  1.0644  0.9999 -0.4958
    1SOL    MW4 5728   4.013   1.155   2.331  0.0658 -0.3940  0.1261
    1SOL     OW 5729   4.235   1.299   2.220 -1.0078  0.2433 -0.4055
    1SOL    HW2 5730   4.159   1.244   2.239 -0.9094 -0.0417 -0.8445
    1SOL    HW3 5731   4.308   1.254   2.263 -0.9459  0.0888 -0.6729
    1SOL    MW4 5732   4.235   1.286   2.228 -0.9866  0.1851 -0.4985
    1SOL     OW 5733   4.269   1.529   2.363  0.3931  0.2109  0.2117
    1SOL    HW2 5734   4.246   1.450   2.313 -0.4551  0.2797  0.4890
    1SOL    HW3 5735   4.360   1.546   2.339  0.9375 -1.4668  0.9378
    1SOL    MW4 5736   4.278   1.521   2.353  0.3524 -0.0013  0.3440
    1SOL     OW 5737   4.073   1.684   2.242  0.2615 -0.6094  0.0129
    1SOL    HW2 5738   4.135   1.636   2.297 -0.7933 -0.5270  1.3048
    1SOL    HW3 5739   3.989   1.642   2.258 -0.4450  0.7991  0.1538
    1SOL    MW4 5740   4.070   1.672   2.251  0.0296 -0.4127  0.2019
    1SOL     OW 5741   4.067   1.934   2.364 -0.7755 -0.0070 -0.5647
    1SOL    HW2 5742   4.064   1.913   2.458 -2.8552  0.3832 -0.5272
    1SOL    HW3 5743   4.066   1.849   2.320  0.6830 -0.2082 -0.2506
    1SOL    MW4 5744   4.066   1.920   2.371 -0.8578  0.0180 -0.5181
    1SOL     OW 5745   4.286   2.073   2.257 -0.6017  0.0566 -0.1645
    1SOL    HW2 5746   4.287   2.163   2.290 -1.6312  0.1321 -0.3121
    1SOL    HW3 5747   4.220   2.029   2.310 -0.3909 -0.5072 -0.3694
    1SOL    MW4 5748   4.277   2.079   2.268 -0.7105 -0.0079 -0.2115
    1SOL     OW 5749   4.248   2.354   2.384 -0.1768  0.1852 -0.3999
    1SOL    HW2 5750   4.170   2.391   2.343  0.0012 -0.3352 -1.2348
    1SOL    HW3 5751   4.319   2.375   2.323  0.2773  0.3474  0.1805
    1SOL    MW4 5752   4.247   2.362   2.371 -0.0935  0.1380 -0.4334
    1SOL     OW 5753   4.003   2.447   2.253 -0.0621 -0.4265 -0.3738
    1SOL    HW2 5754   3.989   2.535   2.287  0.4211 -0.1138 -0.9502
    1SOL    HW3 5755   3.952   2.390   2.309 -0.5120  0.2457 -0.0974
    1SOL    MW4 5756   3.995   2.451   2.265 -0.0575 -0.2966 -0.4134
    1SOL     OW 5757   3.996   2.697   2.374 -0.2547 -0.0001  0.1063
    1SOL    HW2 5758   3.991   2.695   2.469  1.0813 -0.7528  0.1694
    1SOL    HW3 5759   3.932   2.763   2.348  0.6634  1.5222  1.6326
    1SOL    MW4 5760   3.987   2.706   2.383  0.0424  0.1016  0.3159
    1SOL     OW 5761   4.222   2.839   2.262 -0.1361 -0.2871 -0.0701
    1SOL    HW2 5762   4.151   2.782   2.291 -0.4391 -0.0922 -0.4354
    1SOL    HW3 5763   4.302   2.795   2.293 -0.4118 -0.5131  0.3165
    1SOL    MW4 5764   4.223   2.825   2.270 -0.2127 -0.2911 -0.0672
    1SOL     OW 5765   4.228   3.107   2.325 -0.0422 -0.6480 -0.3944
    1SOL    HW2 5766   4.233   3.022   2.281  1.0987  0.0590 -1.6596
    1SOL    HW3 5767   4.307   3.153   2.297  0.0262  0.3358  1.3417
    1SOL    MW4 5768   4.239   3.102   2.316  0.1168 -0.4249 -0.3321
    1SOL     OW 5769   4.028   3.229   2.217  0.1639 -1.0385  0.0687
    1SOL    HW2 5770   4.029   3.314   2.261  0.1478 -0.7036 -0.5624
    1SOL    HW3 5771   4.105   3.184   2.251  1.1366 -0.1091 -0.8439
    1SOL    MW4 5772   4.038   3.234   2.227  0.2899 -0.8719 -0.1352
    1SOL     OW 5773   4.035   3.500   2.342 -0.0423  0.1142 -0.1770
    1SOL    HW2 5774   4.118   3.537   2.311 -0.1795  1.0196  0.5171
    1SOL    HW3 5775   3.968   3.558   2.305 -0.3766 -0.6450 -0.7842
    1SOL    MW4 5776   4.037   3.513   2.333 -0.1040  0.1335 -0.1655
    1SOL     OW 5777   4.266   3.600   2.261 -0.0623 -0.5492 -0.1810
    1SOL    HW2 5778   4.267   3.693   2.284 -1.5308 -0.7665  0.8429
    1SOL    HW3 5779   4.255   3.599   2.166  0.1590  0.3290 -0.2194
    1SOL    MW4 5780   4.265   3.612   2.252 -0.2275 -0.4618 -0.0513
    1SOL     OW 5781   4.285   3.854   2.362  0.6819  0.2370  0.0054
    1SOL    HW2 5782   4.289   3.849   2.458  0.8404  0.6259  0.0195
    1SOL    HW3 5783   4.365   3.900   2.337  0.7424 -0.0513 -0.3277
    1SOL    MW4 5784   4.296   3.859   2.371  0.7105  0.2503 -0.0367
    1SOL     OW 5785   4.065   4.027   2.309  0.0770  0.3931  0.3591
    1SOL    HW2 5786   4.147   3.977   2.316 -0.5136 -0.9514 -2.0412
    1SOL    HW3 5787   4.042   4.023   2.217 -2.2906  1.4685  0.8747
    1SOL    MW4 5788   4.073   4.020   2.298 -0.3138  0.3572  0.1101
    1SOL     OW 5789   4.006   4.281   2.406  0.1037 -0.5025  0.2362
    1SOL    HW2 5790   4.083   4.316   2.361 -0.4967 -0.1744 -0.5366
    1SOL    HW3 5791   4.008   4.187   2.386 -0.3421 -0.3083 -0.7553
    1SOL    MW4 5792   4.017   4.273   2.397 -0.0343 -0.4334  0.0038
    1SOL     OW 5793   4.231   4.390   2.234 -0.3146  0.5631  0.3839
    1SOL    HW2 5794   4.230   4.477   2.272  0.6778  1.2344 -1.0799
    1SOL    HW3 5795   4.318   4.355   2.254 -0.9431 -0.3686  1.5539
    1SOL    MW4 5796   4.242   4.397   2.242 -0.2661  0.5288  0.3450
    1SOL     OW 5797   0.183   4.660   2.610  0.2656  0.0535 -0.3175
    1SOL    HW2 5798   0.194   4.575   2.653 -1.7999  0.1904  0.5646
    1SOL    HW3 5799   0.111   4.701   2.658  2.0393  2.8422  0.0963
    1SOL    MW4 5800   0.175   4.654   2.622  0.2271  0.4396 -0.1466
    1SOL     OW 5801   4.466   0.077   2.781 -0.0135 -0.0936  0.3965
    1SOL    HW2 5802   4.477   0.090   2.875  1.0707  0.4859  0.1827
    1SOL    HW3 5803   4.433   0.160   2.749  0.3480 -0.0538  0.1349
    1SOL    MW4 5804   4.463   0.089   2.790  0.1774 -0.0119  0.3335
    1SOL     OW 5805   4.427   0.322   2.674 -0.4585 -0.2502  0.6533
    1SOL    HW2 5806   4.508   0.365   2.702 -1.0516  1.4943 -0.2043
    1SOL    HW3 5807   4.436   0.311   2.580 -2.2326  2.3481  0.1118
    1SOL    MW4 5808   4.439   0.326   2.666 -0.7710  0.3228  0.4690
    1SOL     OW 5809   0.184   0.478   2.725  0.3395 -0.1821  0.7175
    1SOL    HW2 5810   0.194   0.482   2.820  1.9701 -0.5241  0.5665
    1SOL    HW3 5811   0.267   0.443   2.693 -0.7388 -1.5499 -0.7231
    1SOL    MW4 5812   0.196   0.474   2.733  0.4123 -0.4077  0.5076
    1SOL     OW 5813   0.193   0.726   2.614  0.1749 -0.0009  0.3417
    1SOL    HW2 5814   0.256   0.769   2.672  1.8603 -0.7557 -0.8878
    1SOL    HW3 5815   0.174   0.643   2.657 -0.6330  0.5952  1.1382
    1SOL    MW4 5816   0.199   0.721   2.627  0.2907 -0.0219  0.2847
    1SOL     OW 5817   4.481   0.872   2.723  0.1949 -0.2203  0.2357
    1SOL    HW2 5818   4.397   0.830   2.705  0.1428  0.7056 -1.8122
    1SOL    HW3 5819   4.545   0.816   2.679  0.3751  0.4664 -0.3876
    1SOL    MW4 5820   4.478   0.859   2.715  0.2117 -0.0075 -0.1171
    1SOL     OW 5821   4.480   1.123   2.621  0.1069  0.2299 -0.4016
    1SOL    HW2 5822   4.544   1.177   2.668 -0.0859  1.4992 -1.5774
    1SOL    HW3 5823   4.484   1.038   2.665  1.7631  0.6369  0.2680
    1SOL    MW4 5824   4.489   1.119   2.633  0.2995  0.4511 -0.4683
    1SOL     OW 5825   0.183   1.264   2.760 -0.0917 -0.0301 -0.0316
    1SOL    HW2 5826   0.266   1.227   2.729  0.7027  1.7451 -0.1246
    1SOL    HW3 5827   0.178   1.350   2.718 -0.4157  1.2080  2.4245
    1SOL    MW4 5828   0.194   1.270   2.751 -0.0297  0.3675  0.2801
    1SOL     OW 5829   0.223   1.515   2.643  0.1503  0.3419  0.1668
    1SOL    HW2 5830   0.300   1.563   2.674 -0.2219  1.3767 -0.5102
    1SOL    HW3 5831   0.149   1.563   2.679 -0.2186  0.0536 -0.2070
    1SOL    MW4 5832   0.223   1.528   2.652  0.0525  0.4404  0.0284
    1SOL     OW 5833   4.489   1.642   2.718 -0.1967 -0.3776 -0.1063
    1SOL    HW2 5834   4.473   1.657   2.812  1.9944 -0.5045  0.3032
    1SOL    HW3 5835   4.500   1.730   2.682 -1.9066 -0.2731 -0.4412
    1SOL    MW4 5836   4.488   1.656   2.726 -0.1330 -0.3805 -0.0963
    1SOL     OW 5837   0.014   1.917   2.642  0.2171  0.1394  0.2128
    1SOL    HW2 5838   0.083   1.977   2.670  1.7852 -1.3458 -0.3752
    1SOL    HW3 5839   0.022   1.913   2.547 -0.9102  0.2245  0.1086
    1SOL    MW4 5840   0.025   1.924   2.633  0.2756 -0.0454  0.1216
    1SOL     OW 5841   0.209   2.076   2.769 -0.1206 -0.1144 -0.1248
    1SOL    HW2 5842   0.290   2.041   2.733  1.0280  1.5353  0.8172
    1SOL    HW3 5843   0.206   2.167   2.737 -0.8945  0.2541  0.9731
    1SOL    MW4 5844   0.219   2.084   2.760 -0.0712  0.1519  0.1445
    1SOL     OW 5845   0.192   2.346   2.628 -0.1162  0.0250 -0.3420
    1SOL    HW2 5846   0.262   2.399   2.666 -0.1587 -0.0575 -0.1526
    1SOL    HW3 5847   0.111   2.390   2.654 -0.2339 -1.2316  1.4677
    1SOL    MW4 5848   0.190   2.359   2.636 -0.1373 -0.1516 -0.0782
    1SOL     OW 5849   4.462   2.460   2.755  0.1592 -0.1369 -0.0283
    1SOL    HW2 5850   4.453   2.460   2.850  2.7823 -1.9634  0.2665
    1SOL    HW3 5851   4.378   2.425   2.723  0.0663 -1.5865  1.7387
    1SOL    MW4 5852   4.450   2.455   2.763  0.4935 -0.5691  0.2434
    1SOL     OW 5853   4.475   2.692   2.612 -0.4416  0.1142  0.1146
    1SOL    HW2 5854   4.395   2.728   2.650  1.0244  2.1183  1.3658
    1SOL    HW3 5855   4.475   2.600   2.639 -1.0957  0.7112  2.2019
    1SOL    MW4 5856   4.465   2.684   2.621 -0.3343  0.4573  0.5550
    1SOL     OW 5857   0.202   2.804   2.735  0.1046  0.1376  0.1538
    1SOL    HW2 5858   0.186   2.896   2.713  0.1228  0.3919  1.1489
    1SOL    HW3 5859   0.125   2.757   2.702 -0.4662  0.6825  0.6884
    1SOL    MW4 5860   0.190   2.810   2.728  0.0317  0.2432  0.3557
    1SOL     OW 5861   0.189   3.087   2.670 -0.0382 -0.1984 -0.1023
    1SOL    HW2 5862   0.274   3.123   2.693 -0.7666  1.5734 -0.0697
    1SOL    HW3 5863   0.184   3.096   2.574 -1.0939  1.8665  0.1106
    1SOL    MW4 5864   0.199   3.093   2.660 -0.2736  0.3076 -0.0701
    1SOL     OW 5865   4.446   3.164   2.768  0.3236  0.1051  0.3648
    1SOL    HW2 5866   4.380   3.117   2.716 -0.1355  0.8688  0.2353
    1SOL    HW3 5867   4.530   3.130   2.738  0.0348  0.1338 -0.4778
    1SOL    MW4 5868   4.448   3.154   2.757  0.2255  0.2096  0.2365
    1SOL     OW 5869   4.441   3.419   2.660  0.2538 -0.0060 -0.3727
    1SOL    HW2 5870   4.515   3.461   2.705  0.6838 -0.1427 -0.9504
    1SOL    HW3 5871   4.436   3.332   2.699  0.2541  0.0843 -0.1700
    1SOL    MW4 5872   4.450   3.413   2.671  0.3104 -0.0119 -0.4218
    1SOL     OW 5873   0.162   3.542   2.774 -0.4050  0.3091 -0.8625
    1SOL    HW2 5874   0.188   3.571   2.861 -1.4817  0.2876 -0.5257
    1SOL    HW3 5875   0.244   3.513   2.733  0.4329  2.2480 -0.6103
    1SOL    MW4 5876   0.176   3.542   2.780 -0.4365  0.5620 -0.7849
    1SOL     OW 5877   0.192   3.807   2.686 -0.2471  0.2870  0.6657
    1SOL    HW2 5878   0.176   3.717   2.717 -1.0548  0.4208  0.6689
    1SOL    HW3 5879   0.200   3.798   2.591 -1.6497  0.3695  0.5234
    1SOL    MW4 5880   0.191   3.794   2.678 -0.5388  0.3154  0.6473
    1SOL     OW 5881   4.479   4.024   2.708 -0.1413  0.3123  0.0371
    1SOL    HW2 5882   4.483   4.105   2.657 -0.3604  1.0126  1.1186
    1SOL    HW3 5883   4.552   3.972   2.675 -0.7845  0.3918 -1.5783
    1SOL    MW4 5884   4.489   4.028   2.697 -0.2551  0.4153 -0.0336
    1SOL     OW 5885   4.478   4.285   2.606  0.2341  0.5481 -0.2112
    1SOL    HW2 5886   4.412   4.311   2.669 -0.3067 -0.3488 -0.4006
    1SOL    HW3 5887   4.560   4.319   2.642 -0.4336  2.3995 -0.4055
    1SOL    MW4 5888   4.480   4.293   2.619  0.0744  0.6738 -0.2615
    1SOL     OW 5889   0.220   4.401   2.741  0.3107  0.7453 -0.8133
    1SOL    HW2 5890   0.224   4.377   2.834  0.0900 -0.7504 -1.1695
    1SOL    HW3 5891   0.300   4.363   2.703 -0.6431 -0.4738 -1.6288
    1SOL    MW4 5892   0.231   4.393   2.748  0.1557  0.3872 -0.9680
    1SOL     OW 5893   0.673   4.629   2.616  0.0222 -0.9280 -0.3430
    1SOL    HW2 5894   0.742   4.679   2.660  0.1110 -1.2506 -0.1094
    1SOL    HW3 5895   0.593   4.677   2.636  0.2330 -0.3166 -0.9729
    1SOL    MW4 5896   0.672   4.642   2.625  0.0618 -0.8898 -0.3955
    1SOL     OW 5897   0.442   0.097   2.685 -0.5221  0.1355  0.0927
    1SOL    HW2 5898   0.430   0.081   2.778 -0.1523 -2.7909 -0.3054
    1SOL    HW3 5899   0.365   0.058   2.644  0.6630 -1.1171 -1.0000
    1SOL    MW4 5900   0.431   0.090   2.692 -0.3169 -0.4159 -0.1042
    1SOL     OW 5901   0.425   0.374   2.639  0.2387  0.1475  0.1176
    1SOL    HW2 5902   0.499   0.415   2.683  0.4597  1.0178 -1.0420
    1SOL    HW3 5903   0.433   0.281   2.660  0.0604  0.5925  2.2895
    1SOL    MW4 5904   0.436   0.367   2.648  0.2443  0.3210  0.2511
    1SOL     OW 5905   0.637   0.506   2.722  0.0025 -0.0913  0.2082
    1SOL    HW2 5906   0.634   0.498   2.818 -1.3188  0.4711  0.2339
    1SOL    HW3 5907   0.720   0.467   2.697 -0.5534 -2.0964  1.4057
    1SOL    MW4 5908   0.648   0.500   2.732 -0.2451 -0.2816  0.3695
    1SOL     OW 5909   0.659   0.770   2.638  0.1681  0.1460 -0.1904
    1SOL    HW2 5910   0.743   0.803   2.671 -0.2489 -0.6575  1.7240
    1SOL    HW3 5911   0.653   0.681   2.672 -1.8477  0.4827  0.3667
    1SOL    MW4 5912   0.669   0.763   2.647 -0.1528  0.0843  0.1359
    1SOL     OW 5913   0.399   0.868   2.744 -0.0560  0.1877 -0.1774
    1SOL    HW2 5914   0.402   0.962   2.726  1.2102  0.8948  3.2478
    1SOL    HW3 5915   0.480   0.834   2.706  0.2212  0.7603 -0.1020
    1SOL    MW4 5916   0.410   0.876   2.737  0.1476  0.3565  0.2847
    1SOL     OW 5917   0.433   1.149   2.696  0.0991 -0.1519  0.6463
    1SOL    HW2 5918   0.510   1.194   2.732 -0.8395  1.3153  0.8757
    1SOL    HW3 5919   0.435   1.170   2.603 -0.1826  0.1381  0.7045
    1SOL    MW4 5920   0.444   1.158   2.688 -0.0619  0.0799  0.6843
    1SOL     OW 5921   0.673   1.287   2.719 -0.3417 -0.5622  0.2502
    1SOL    HW2 5922   0.696   1.291   2.811 -0.1464  1.9856  0.1095
    1SOL    HW3 5923   0.741   1.231   2.680  2.2991  2.0986  0.8572
    1SOL    MW4 5924   0.685   1.280   2.726  0.0325  0.1249  0.3116
    1SOL     OW 5925   0.683   1.558   2.640 -0.4765 -0.3511 -0.1196
    1SOL    HW2 5926   0.619   1.610   2.688 -0.4302 -0.4134  0.0100
    1SOL    HW3 5927   0.684   1.473   2.684  0.5077  0.0140  0.5680
    1SOL    MW4 5928   0.674   1.554   2.652 -0.3405 -0.3111 -0.0117
    1SOL     OW 5929   0.434   1.664   2.737 -0.6853 -0.2383 -0.2284
    1SOL    HW2 5930   0.431   1.668   2.832  1.8744 -0.3075 -0.1179
    1SOL    HW3 5931   0.445   1.755   2.709  1.3813 -0.4841 -0.2994
    1SOL    MW4 5932   0.435   1.677   2.746 -0.0749 -0.2798 -0.2234
    1SOL     OW 5933   0.413   1.933   2.682  0.2755  0.4171  0.2952
    1SOL    HW2 5934   0.496   1.977   2.700  1.3838 -1.0506 -1.0552
    1SOL    HW3 5935   0.410   1.926   2.587 -1.4247  0.4739  0.3313
    1SOL    MW4 5936   0.423   1.938   2.672  0.1974  0.2308  0.1218
    1SOL     OW 5937   0.643   2.064   2.736 -0.4699  0.0549 -0.3506
    1SOL    HW2 5938   0.659   2.063   2.830  1.7138  1.6372 -0.6593
    1SOL    HW3 5939   0.721   2.024   2.697 -1.0008  0.1333 -1.5257
    1SOL    MW4 5940   0.655   2.059   2.743 -0.2518  0.2742 -0.5462
    1SOL     OW 5941   0.666   2.323   2.650  0.0317 -0.2572  0.2473
    1SOL    HW2 5942   0.750   2.343   2.691  0.1343 -0.7319  0.2755
    1SOL    HW3 5943   0.651   2.230   2.669  0.1714 -0.5339 -0.9337
    1SOL    MW4 5944   0.675   2.313   2.658  0.0637 -0.3562  0.0949
    1SOL     OW 5945   0.433   2.449   2.724 -0.1771 -0.5527  0.2539
    1SOL    HW2 5946   0.444   2.537   2.687 -1.8811  0.2757  1.6607
    1SOL    HW3 5947   0.511   2.402   2.695  0.5446  1.2705 -0.9200
    1SOL    MW4 5948   0.444   2.455   2.715 -0.3067 -0.2029  0.2847
    1SOL     OW 5949   0.437   2.704   2.618  0.5141 -0.4436  0.2872
    1SOL    HW2 5950   0.509   2.764   2.636  0.6581 -0.4453 -0.2796
    1SOL    HW3 5951   0.361   2.745   2.658  0.3437  0.8054 -1.2912
    1SOL    MW4 5952   0.436   2.717   2.625  0.5106 -0.2792  0.0043
    1SOL     OW 5953   0.646   2.858   2.727 -0.3862  0.2493  0.1159
    1SOL    HW2 5954   0.641   2.852   2.823 -0.6604  0.6254  0.1272
    1SOL    HW3 5955   0.663   2.950   2.710 -0.3206  0.1780 -0.2003
    1SOL    MW4 5956   0.647   2.869   2.737 -0.4138  0.2894  0.0758
    1SOL     OW 5957   0.679   3.116   2.640 -0.2709 -0.2140 -0.0015
    1SOL    HW2 5958   0.761   3.152   2.674 -0.8785  2.3220 -1.0855
    1SOL    HW3 5959   0.700   3.090   2.550 -0.1632 -1.4335  0.3689
    1SOL    MW4 5960   0.693   3.118   2.633 -0.3368 -0.0403 -0.0956
    1SOL     OW 5961   0.440   3.201   2.750 -0.1770  0.2968 -0.1717
    1SOL    HW2 5962   0.456   3.188   2.843 -0.6977  0.7433 -0.0145
    1SOL    HW3 5963   0.513   3.158   2.706  0.5818  0.9391  0.4677
    1SOL    MW4 5964   0.451   3.194   2.756 -0.1456  0.4401 -0.0665
    1SOL     OW 5965   0.428   3.461   2.674 -0.0860 -0.3077  0.2010
    1SOL    HW2 5966   0.436   3.368   2.697 -0.2454 -0.1173  1.0204
    1SOL    HW3 5967   0.431   3.461   2.578 -1.2997 -1.2731  0.1462
    1SOL    MW4 5968   0.429   3.449   2.664 -0.2671 -0.4101  0.3021
    1SOL     OW 5969   0.673   3.618   2.732  0.0706 -0.0047  0.1021
    1SOL    HW2 5970   0.678   3.629   2.827  1.4169  1.1664 -0.0922
    1SOL    HW3 5971   0.591   3.569   2.718 -0.7101  0.7723  1.7688
    1SOL    MW4 5972   0.662   3.613   2.743  0.1453  0.2525  0.2964
    1SOL     OW 5973   0.660   3.876   2.636 -0.2506  0.3577  0.2759
    1SOL    HW2 5974   0.571   3.897   2.662 -0.4759  1.0326 -1.0427
    1SOL    HW3 5975   0.675   3.788   2.671 -1.2877  0.4052  0.8381
    1SOL    MW4 5976   0.650   3.867   2.644 -0.4172  0.4532  0.1760
    1SOL     OW 5977   0.417   3.957   2.755  0.1013  0.9072 -0.5825
    1SOL    HW2 5978   0.407   4.039   2.706 -0.5149  0.6977 -0.8175
    1SOL    HW3 5979   0.337   3.908   2.735 -0.5008  1.1276  1.2065
    1SOL    MW4 5980   0.405   3.962   2.746 -0.0595  0.9086 -0.3772
    1SOL     OW 5981   0.430   4.215   2.649  0.1449  0.8834  0.3815
    1SOL    HW2 5982   0.509   4.258   2.682  0.3897  1.5887 -1.1000
    1SOL    HW3 5983   0.428   4.236   2.556 -1.6728  0.6936  0.3552
    1SOL    MW4 5984   0.440   4.224   2.641 -0.0626  0.9513  0.1826
    1SOL     OW 5985   0.638   4.381   2.730  0.3229 -0.3885 -0.1441
    1SOL    HW2 5986   0.712   4.332   2.695 -0.4792 -1.0719 -0.9082
    1SOL    HW3 5987   0.646   4.468   2.691  0.3896 -0.6387 -0.6905
    1SOL    MW4 5988   0.649   4.386   2.720  0.2258 -0.5116 -0.3171
    1SOL     OW 5989   1.123   4.608   2.609 -0.0613  0.0800 -0.1745
    1SOL    HW2 5990   1.199   4.665   2.624  0.2270 -0.1464 -0.7648
    1SOL    HW3 5991   1.143   4.529   2.660 -0.2637  0.3251  0.2951
    1SOL    MW4 5992   1.136   4.605   2.618 -0.0499  0.0825 -0.1905
    1SOL     OW 5993   0.891   0.083   2.728 -0.1980 -0.0787  0.5608
    1SOL    HW2 5994   0.906   0.104   2.820  0.6876  2.4591 -0.1218
    1SOL    HW3 5995   0.973   0.044   2.699  0.1962  0.8622  0.3878
    1SOL    MW4 5996   0.904   0.081   2.736 -0.0291  0.3803  0.4478
    1SOL     OW 5997   0.867   0.335   2.651 -0.0020  0.4236  0.1775
    1SOL    HW2 5998   0.875   0.241   2.665  0.2211  0.5829  1.1801
    1SOL    HW3 5999   0.882   0.347   2.557 -0.4259 -0.5761 -0.0264
    1SOL    MW4 6000   0.870   0.324   2.640 -0.0285  0.3127  0.2828
    1SOL     OW 6001   1.112   0.434   2.762 -0.3595  0.4231  0.3267
    1SOL    HW2 6002   1.110   0.511   2.705  0.0995  0.3794  0.2447
    1SOL    HW3 6003   1.032   0.387   2.742 -0.8576  1.1068  0.6897
    1SOL    MW4 6004   1.101   0.438   2.752 -0.3647  0.5076  0.3638
    1SOL     OW 6005   1.114   0.688   2.644  0.2516 -0.2086  0.0300
    1SOL    HW2 6006   1.200   0.729   2.656  0.3842 -0.4805  0.0058
    1SOL    HW3 6007   1.096   0.698   2.550  0.1660  0.0272  0.0710
    1SOL    MW4 6008   1.123   0.695   2.633  0.2578 -0.2133  0.0324
    1SOL     OW 6009   0.904   0.873   2.720 -0.4640 -0.2625 -0.2181
    1SOL    HW2 6010   0.894   0.868   2.815 -0.2478 -0.6130 -0.2123
    1SOL    HW3 6011   0.977   0.813   2.701 -2.7011 -2.8495 -0.9774
    1SOL    MW4 6012   0.913   0.864   2.730 -0.7306 -0.6500 -0.3176
    1SOL     OW 6013   0.876   1.144   2.624  0.1961  0.6381  0.2386
    1SOL    HW2 6014   0.886   1.055   2.659 -2.6135  0.4464  0.7127
    1SOL    HW3 6015   0.888   1.134   2.530 -1.2594 -0.4773  0.1525
    1SOL    MW4 6016   0.879   1.131   2.616 -0.3667  0.4656  0.2897
    1SOL     OW 6017   1.067   1.289   2.777  0.0434  0.3193 -0.1068
    1SOL    HW2 6018   1.088   1.381   2.761  0.9130  0.3487  1.1463
    1SOL    HW3 6019   0.998   1.269   2.713 -0.2899  1.8848 -0.2660
    1SOL    MW4 6020   1.061   1.298   2.766  0.1141  0.5298  0.0370
    1SOL     OW 6021   1.152   1.577   2.701 -0.0082 -0.2620 -0.5319
    1SOL    HW2 6022   1.062   1.606   2.716 -0.2172 -1.1393 -0.0926
    1SOL    HW3 6023   1.154   1.554   2.608 -0.3375 -0.5833 -0.4624
    1SOL    MW4 6024   1.140   1.578   2.691 -0.0793 -0.4202 -0.4649
    1SOL     OW 6025   0.898   1.705   2.745  0.6281 -0.2027 -0.3653
    1SOL    HW2 6026   0.875   1.697   2.838  0.1508  0.7135 -0.3959
    1SOL    HW3 6027   0.842   1.641   2.701 -0.4201  0.5919 -0.2116
    1SOL    MW4 6028   0.887   1.695   2.752  0.4268  0.0230 -0.3490
    1SOL     OW 6029   0.898   1.970   2.649 -0.1128  0.0245 -0.2982
    1SOL    HW2 6030   0.982   2.014   2.667 -0.1301  0.2539 -0.7600
    1SOL    HW3 6031   0.911   1.880   2.678  0.4869 -0.0821 -0.8819
    1SOL    MW4 6032   0.911   1.964   2.655 -0.0359  0.0408 -0.4361
    1SOL     OW 6033   1.146   2.078   2.759  0.7297  0.1927 -0.2898
    1SOL    HW2 6034   1.219   2.026   2.726 -0.6467 -0.7097 -1.9828
    1SOL    HW3 6035   1.158   2.164   2.719  1.0283  0.1378 -0.3207
    1SOL    MW4 6036   1.157   2.082   2.749  0.5876  0.0660 -0.5174
    1SOL     OW 6037   1.134   2.303   2.629 -0.1786 -0.0685  0.4866
    1SOL    HW2 6038   1.203   2.359   2.664 -0.5864  1.1742 -0.6400
    1SOL    HW3 6039   1.132   2.324   2.536 -1.4707 -0.7405  0.3571
    1SOL    MW4 6040   1.142   2.314   2.622 -0.4029  0.0072  0.3207
    1SOL     OW 6041   0.904   2.434   2.745  0.2445  0.1178  0.6260
    1SOL    HW2 6042   0.895   2.526   2.723  0.7705  0.4461  1.7757
    1SOL    HW3 6043   0.980   2.404   2.695  0.2545  0.3747  0.4900
    1SOL    MW4 6044   0.913   2.442   2.735  0.3152  0.1948  0.7601
    1SOL     OW 6045   0.879   2.695   2.679 -0.2157  0.3462  0.2026
    1SOL    HW2 6046   0.951   2.748   2.713  0.2575 -0.6106  0.6957
    1SOL    HW3 6047   0.800   2.746   2.700  0.2946  1.3608 -0.2854
    1SOL    MW4 6048   0.878   2.709   2.686 -0.0859  0.3538  0.2034
    1SOL     OW 6049   1.083   2.832   2.778  0.0000  0.0000  0.0813
    1SOL    HW2 6050   1.106   2.825   2.871  0.0000  0.0000  0.0777
    1SOL    HW3 6051   1.159   2.795   2.732  0.0000  0.0000  0.0690
    1SOL    MW4 6052   1.096   2.826   2.785  0.0000  0.0000  0.0792
    1SOL     OW 6053   1.148   3.096   2.678  0.0000  0.0000 -0.3906
    1SOL    HW2 6054   1.122   3.007   2.700  0.0000  0.0000 -0.4051
    1SOL    HW3 6055   1.136   3.101   2.583  0.0000  0.0000 -0.3903
    1SOL    MW4 6056   1.143   3.085   2.668  0.0000  0.0000 -0.3924
    1SOL     OW 6057   0.919   3.208   2.775  0.0000  0.0000  0.1661
    1SOL    HW2 6058   0.903   3.287   2.723  0.0000  0.0000  0.2243
    1SOL    HW3 6059   1.006   3.179   2.747  0.0000  0.0000  0.0976
    1SOL    MW4 6060   0.928   3.215   2.765  0.0000  0.0000  0.1647
    1SOL     OW 6061   0.887   3.462   2.644  0.0000  0.0000  0.1290
    1SOL    HW2 6062   0.961   3.509   2.684  0.0000  0.0000  0.1214
    1SOL    HW3 6063   0.810   3.512   2.672  0.0000  0.0000  0.1373
    1SOL    MW4 6064   0.887   3.475   2.653  0.0000  0.0000  0.1292
    1SOL     OW 6065   1.102   3.599   2.747  0.0000  0.0000 -0.0978
    1SOL    HW2 6066   1.101   3.626   2.839  0.0000  0.0000 -0.0975
    1SOL    HW3 6067   1.100   3.681   2.698  0.0000  0.0000 -0.0974
    1SOL    MW4 6068   1.102   3.613   2.753  0.0000  0.0000 -0.0973
    1SOL     OW 6069   1.098   3.851   2.609  0.0000  0.0000  0.0999
    1SOL    HW2 6070   1.178   3.889   2.647  0.0000  0.0000  0.1088
    1SOL    HW3 6071   1.110   3.859   2.515  0.0000  0.0000  0.1012
    1SOL    MW4 6072   1.110   3.857   2.602  0.0000  0.0000  0.1011
    1SOL     OW 6073   0.893   4.008   2.746  0.0000  0.0000 -0.3588
    1SOL    HW2 6074   0.957   3.963   2.691  0.0000  0.0000 -0.3512
    1SOL    HW3 6075   0.809   3.969   2.721  0.0000  0.0000 -0.3702
    1SOL    MW4 6076   0.890   3.997   2.735  0.0000  0.0000 -0.3593
    1SOL     OW 6077   0.888   4.266   2.663  0.0000  0.0000  0.1607
    1SOL    HW2 6078   0.892   4.173   2.687  0.0000  0.0000  0.1621
    1SOL    HW3 6079   0.884   4.265   2.567  0.0000  0.0000  0.1607
    1SOL    MW4 6080   0.888   4.254   2.653  0.0000  0.0000  0.1609
    1SOL     OW 6081   1.144   4.351   2.723  0.0000  0.0000 -0.3382
    1SOL    HW2 6082   1.137   4.378   2.814  0.0000  0.0000 -0.3388
    1SOL    HW3 6083   1.055   4.327   2.698  0.0000  0.0000 -0.3353
    1SOL    MW4 6084   1.131   4.351   2.732  0.0000  0.0000 -0.3376
    1SOL     OW 6085   1.532   4.663   2.615  0.0747  0.3283  0.0618
    1SOL    HW2 6086   1.540   4.585   2.670 -3.4399  0.5576  1.0429
    1SOL    HW3 6087   1.521   4.629   2.526 -0.2141 -0.2819  0.3228
    1SOL    MW4 6088   1.531   4.648   2.611 -0.4270  0.2789  0.2258
    1SOL     OW 6089   1.314   0.135   2.703 -0.2851  0.3941  0.1508
    1SOL    HW2 6090   1.317   0.218   2.656  0.1153  0.3061  0.0143
    1SOL    HW3 6091   1.394   0.089   2.676  1.2273  1.3643  2.7766
    1SOL    MW4 6092   1.325   0.140   2.694 -0.0328  0.5105  0.4790
    1SOL     OW 6093   1.332   0.382   2.587  0.7716 -0.4181 -0.0410
    1SOL    HW2 6094   1.397   0.442   2.623  0.2877  0.4482 -0.6163
    1SOL    HW3 6095   1.259   0.385   2.649 -0.3276  1.5591 -1.4097
    1SOL    MW4 6096   1.331   0.390   2.600  0.5628 -0.0429 -0.2973
    1SOL     OW 6097   1.533   0.519   2.728 -0.0851 -0.0721 -0.1106
    1SOL    HW2 6098   1.599   0.457   2.696  0.1754 -0.4597  1.1647
    1SOL    HW3 6099   1.543   0.596   2.671  0.7739 -0.5157 -0.5756
    1SOL    MW4 6100   1.543   0.521   2.716  0.0627 -0.1818 -0.0038
    1SOL     OW 6101   1.559   0.753   2.606  0.1949 -0.2905  0.3277
    1SOL    HW2 6102   1.483   0.797   2.645 -0.3138 -0.3593 -0.5862
    1SOL    HW3 6103   1.543   0.757   2.512  0.4617 -1.8577  0.2093
    1SOL    MW4 6104   1.546   0.760   2.599  0.1630 -0.5063  0.1915
    1SOL     OW 6105   1.333   0.871   2.694 -0.0975 -0.2294 -0.0606
    1SOL    HW2 6106   1.326   0.874   2.789  0.6730  0.0118 -0.0135
    1SOL    HW3 6107   1.308   0.960   2.666 -1.8915 -0.7441 -0.1926
    1SOL    MW4 6108   1.329   0.883   2.703 -0.2327 -0.2655 -0.0718
    1SOL     OW 6109   1.320   1.145   2.671 -0.3543  0.1108 -0.0156
    1SOL    HW2 6110   1.403   1.180   2.703  0.0636  0.3563 -1.3319
    1SOL    HW3 6111   1.255   1.211   2.695 -0.2419 -0.2626  1.3643
    1SOL    MW4 6112   1.323   1.158   2.678 -0.2844  0.0939 -0.0072
    1SOL     OW 6113   1.552   1.270   2.760 -0.1524 -0.1392  0.2802
    1SOL    HW2 6114   1.549   1.261   2.855  1.1526  2.0781  0.5738
    1SOL    HW3 6115   1.629   1.219   2.733  0.2681  0.3254  0.5842
    1SOL    MW4 6116   1.562   1.262   2.769  0.0752  0.2145  0.3591
    1SOL     OW 6117   1.604   1.515   2.636 -0.2878  0.0759  0.4551
    1SOL    HW2 6118   1.587   1.433   2.683 -0.4955 -0.3632 -0.3754
    1SOL    HW3 6119   1.679   1.553   2.681  1.3379 -1.7677 -0.6462
    1SOL    MW4 6120   1.612   1.509   2.648 -0.1009 -0.2253  0.1998
    1SOL     OW 6121   1.407   1.673   2.753 -0.0185 -0.3365 -0.2355
    1SOL    HW2 6122   1.463   1.612   2.705  0.1058 -0.8088  0.4987
    1SOL    HW3 6123   1.318   1.644   2.733  0.0502 -1.2114  0.6681
    1SOL    MW4 6124   1.403   1.661   2.744  0.0070 -0.5141 -0.0193
    1SOL     OW 6125   1.354   1.922   2.653 -0.4706 -0.2692 -0.3775
    1SOL    HW2 6126   1.372   1.837   2.694 -0.5933  0.1746  0.6044
    1SOL    HW3 6127   1.363   1.905   2.559  0.1772 -1.2129 -0.1575
    1SOL    MW4 6128   1.357   1.908   2.646 -0.4013 -0.3350 -0.2186
    1SOL     OW 6129   1.577   2.077   2.722  0.1441  0.1575  0.2151
    1SOL    HW2 6130   1.577   2.065   2.817 -0.0538 -0.8879  0.0924
    1SOL    HW3 6131   1.508   2.018   2.691 -0.3467  1.1025 -0.5070
    1SOL    MW4 6132   1.568   2.068   2.731  0.0533  0.1440  0.1037
    1SOL     OW 6133   1.536   2.337   2.618  0.0656  0.3234 -0.0341
    1SOL    HW2 6134   1.611   2.378   2.661 -1.2712  0.7294  2.0378
    1SOL    HW3 6135   1.542   2.244   2.643  0.2203  0.2423 -0.3752
    1SOL    MW4 6136   1.547   2.330   2.627 -0.0904  0.3662  0.1941
    1SOL     OW 6137   1.329   2.472   2.733  0.0944  0.2981 -0.7406
    1SOL    HW2 6138   1.327   2.561   2.698  1.1832  0.9494  0.8134
    1SOL    HW3 6139   1.405   2.432   2.691  1.3320  1.0412  0.7828
    1SOL    MW4 6140   1.338   2.478   2.723  0.4013  0.4818 -0.3347
    1SOL     OW 6141   1.316   2.736   2.647  0.2053 -0.3026 -0.3106
    1SOL    HW2 6142   1.402   2.760   2.681 -0.3734  0.0739  0.9118
    1SOL    HW3 6143   1.321   2.755   2.553  0.9904  1.0441 -0.0061
    1SOL    MW4 6144   1.328   2.742   2.639  0.2325 -0.0751 -0.1090
    1SOL     OW 6145   1.563   2.829   2.763 -0.4237 -0.0311  0.5692
    1SOL    HW2 6146   1.567   2.852   2.855 -0.4614  0.1636  0.5211
    1SOL    HW3 6147   1.648   2.788   2.745 -1.1404 -1.8201  1.1674
    1SOL    MW4 6148   1.575   2.826   2.773 -0.5232 -0.2413  0.6421
    1SOL     OW 6149   1.575   3.074   2.596 -0.1395 -0.1614 -0.1560
    1SOL    HW2 6150   1.628   3.137   2.644  0.9738 -0.7032 -0.6561
    1SOL    HW3 6151   1.580   2.993   2.648 -1.4699  0.1064  0.4265
    1SOL    MW4 6152   1.582   3.071   2.610 -0.1680 -0.1974 -0.1452
    1SOL     OW 6153   1.377   3.236   2.758  0.1118  0.3383 -0.6837
    1SOL    HW2 6154   1.437   3.174   2.717  0.1990 -0.8853  1.2512
    1SOL    HW3 6155   1.291   3.194   2.751  0.2238 -0.1909  0.9628
    1SOL    MW4 6156   1.373   3.222   2.751  0.1382  0.1070 -0.2110
    1SOL     OW 6157   1.347   3.486   2.648 -0.3643 -0.2803 -0.2409
    1SOL    HW2 6158   1.363   3.399   2.684  0.8500 -0.3518 -0.9274
    1SOL    HW3 6159   1.265   3.514   2.689  0.4670 -0.7593  1.8373
    1SOL    MW4 6160   1.338   3.479   2.658 -0.0943 -0.3529 -0.0572
    1SOL     OW 6161   1.579   3.619   2.750  0.5960  0.1212 -0.7263
    1SOL    HW2 6162   1.653   3.588   2.698  0.2120 -1.0922 -0.5654
    1SOL    HW3 6163   1.503   3.578   2.710  0.2593 -0.5979  0.6102
    1SOL    MW4 6164   1.579   3.610   2.738  0.5009 -0.1338 -0.5286
    1SOL     OW 6165   1.537   3.887   2.641  0.0585  0.5053 -0.0106
    1SOL    HW2 6166   1.454   3.921   2.673 -0.6321  0.1096 -1.3420
    1SOL    HW3 6167   1.549   3.805   2.689 -0.3120  0.5661  0.1895
    1SOL    MW4 6168   1.528   3.881   2.651 -0.0814  0.4611 -0.1597
    1SOL     OW 6169   1.308   3.988   2.746  0.2546 -0.1578  0.0484
    1SOL    HW2 6170   1.323   3.990   2.840 -0.3401  2.0841  0.1358
    1SOL    HW3 6171   1.335   4.075   2.716 -2.7540  0.3633 -1.3100
    1SOL    MW4 6172   1.313   4.000   2.754 -0.2209  0.2067 -0.1197
    1SOL     OW 6173   1.373   4.243   2.635  0.2234 -0.3198 -0.0522
    1SOL    HW2 6174   1.297   4.283   2.675  0.1466 -0.1276 -0.3900
    1SOL    HW3 6175   1.360   4.253   2.541 -1.0315 -3.3686 -0.2633
    1SOL    MW4 6176   1.361   4.250   2.628  0.0476 -0.6967 -0.1245
    1SOL     OW 6177   1.568   4.409   2.748  0.0426  0.3040  0.2987
    1SOL    HW2 6178   1.554   4.403   2.842 -0.0841 -0.3440  0.2394
    1SOL    HW3 6179   1.511   4.342   2.711  0.3459  0.3281 -0.2154
    1SOL    MW4 6180   1.559   4.399   2.755  0.0659  0.2217  0.2232
    1SOL     OW 6181   1.994   4.660   2.630  0.0973  0.1060  0.0396
    1SOL    HW2 6182   2.074   4.712   2.643 -1.3023  2.0694  1.1911
    1SOL    HW3 6183   1.984   4.654   2.535  0.0344  2.4663 -0.1438
    1SOL    MW4 6184   2.003   4.666   2.619 -0.0956  0.6766  0.1674
    1SOL     OW 6185   1.761   0.127   2.708 -0.4133  0.3545 -0.6254
    1SOL    HW2 6186   1.822   0.061   2.676 -0.8336 -0.6470  0.6045
    1SOL    HW3 6187   1.675   0.096   2.682 -0.5920  0.5208 -0.2417
    1SOL    MW4 6188   1.758   0.114   2.700 -0.4923  0.2443 -0.4127
    1SOL     OW 6189   1.768   0.377   2.612 -0.1091 -0.1762 -0.3627
    1SOL    HW2 6190   1.838   0.421   2.660 -1.6448  0.9654  0.8996
    1SOL    HW3 6191   1.768   0.288   2.646 -0.4623  0.3272  1.0085
    1SOL    MW4 6192   1.777   0.371   2.623 -0.3583  0.0408 -0.0155
    1SOL     OW 6193   1.987   0.539   2.757 -0.0061 -0.4846 -0.0983
    1SOL    HW2 6194   2.064   0.501   2.715 -0.2514 -0.0534 -0.9539
    1SOL    HW3 6195   1.980   0.627   2.719 -0.9971 -0.5687 -0.1215
    1SOL    MW4 6196   1.996   0.546   2.746 -0.1692 -0.4387 -0.2141
    1SOL     OW 6197   2.021   0.819   2.633  0.3575 -0.3430  0.1216
    1SOL    HW2 6198   1.934   0.848   2.662  0.8147  0.3410  0.8323
    1SOL    HW3 6199   2.015   0.817   2.538  0.0551  1.3004  0.0914
    1SOL    MW4 6200   2.008   0.823   2.624  0.3777 -0.0359  0.2112
    1SOL     OW 6201   1.769   0.872   2.726 -0.0145 -0.3656 -0.1020
    1SOL    HW2 6202   1.752   0.961   2.696  2.0481 -0.0327 -0.3500
    1SOL    HW3 6203   1.717   0.817   2.667 -0.6242  0.6143 -0.4948
    1SOL    MW4 6204   1.760   0.876   2.714  0.1773 -0.1925 -0.1864
    1SOL     OW 6205   1.764   1.134   2.645 -0.2060 -0.3334 -0.2533
    1SOL    HW2 6206   1.852   1.160   2.674 -0.0227  0.3525 -1.3781
    1SOL    HW3 6207   1.771   1.131   2.549 -0.9173 -2.0888 -0.2736
    1SOL    MW4 6208   1.776   1.137   2.636 -0.2759 -0.4746 -0.4046
    1SOL     OW 6209   1.998   1.261   2.731  0.0902 -0.0048 -0.0963
    1SOL    HW2 6210   1.990   1.260   2.826  0.1217 -0.1867 -0.0950
    1SOL    HW3 6211   2.090   1.241   2.715  0.0011 -0.3482 -0.1767
    1SOL    MW4 6212   2.009   1.258   2.741  0.0827 -0.0741 -0.1066
    1SOL     OW 6213   2.028   1.512   2.632 -0.4086  0.1752 -0.4356
    1SOL    HW2 6214   1.955   1.564   2.666 -0.8484 -0.0592 -1.0137
    1SOL    HW3 6215   2.012   1.424   2.665  0.3912  0.4149  0.6253
    1SOL    MW4 6216   2.016   1.507   2.641 -0.3610  0.1758 -0.3719
    1SOL     OW 6217   1.821   1.658   2.726 -0.4272  0.3524 -0.7527
    1SOL    HW2 6218   1.807   1.653   2.820  0.0290  1.0840 -0.6439
    1SOL    HW3 6219   1.830   1.751   2.707  1.8571  0.0832 -1.1560
    1SOL    MW4 6220   1.821   1.670   2.736 -0.0657  0.4134 -0.7915
    1SOL     OW 6221   1.811   1.934   2.651 -0.2989  0.2879  0.6015
    1SOL    HW2 6222   1.730   1.978   2.675 -0.0848  0.9649  0.1227
    1SOL    HW3 6223   1.879   1.980   2.700  0.0047  0.9401 -0.3962
    1SOL    MW4 6224   1.810   1.946   2.660 -0.2306  0.4631  0.4067
    1SOL     OW 6225   2.044   2.056   2.738 -0.1934  0.5373  0.3598
    1SOL    HW2 6226   2.030   2.071   2.832 -0.9371  1.4868  0.1042
    1SOL    HW3 6227   2.029   2.141   2.698 -0.2223  0.0504 -0.6692
    1SOL    MW4 6228   2.040   2.069   2.745 -0.2954  0.5984  0.1907
    1SOL     OW 6229   2.005   2.325   2.655  0.1107 -0.0987 -0.3405
    1SOL    HW2 6230   2.082   2.373   2.687  0.0179 -0.2108  0.0547
    1SOL    HW3 6231   2.001   2.346   2.562 -0.3696  1.2716 -0.0216
    1SOL    MW4 6232   2.014   2.334   2.647  0.0353  0.0675 -0.2465
    1SOL     OW 6233   1.756   2.450   2.769  0.0027 -0.3424 -0.3547
    1SOL    HW2 6234   1.780   2.447   2.862 -0.1876  0.1193 -0.2899
    1SOL    HW3 6235   1.830   2.408   2.724 -0.1061 -0.9682  0.0397
    1SOL    MW4 6236   1.769   2.444   2.776 -0.0367 -0.3641 -0.2940
    1SOL     OW 6237   1.798   2.720   2.659 -0.2540 -0.2775  0.1784
    1SOL    HW2 6238   1.805   2.633   2.698  1.5081 -0.8047 -1.2212
    1SOL    HW3 6239   1.793   2.704   2.565 -0.9202  1.1054 -0.0399
    1SOL    MW4 6240   1.798   2.707   2.652 -0.1093 -0.1647 -0.0353
    1SOL     OW 6241   2.025   2.869   2.726  0.2170 -0.4404  0.2701
    1SOL    HW2 6242   2.091   2.827   2.670 -1.3511 -2.0284 -0.4470
    1SOL    HW3 6243   1.948   2.813   2.718 -0.8667  0.7527  1.9985
    1SOL    MW4 6244   2.024   2.856   2.717 -0.1328 -0.4926  0.4034
    1SOL     OW 6245   1.970   3.110   2.613  0.3690 -0.5905  0.0508
    1SOL    HW2 6246   1.984   3.025   2.654 -1.2965 -0.3504  1.1421
    1SOL    HW3 6247   1.947   3.090   2.523  0.6105 -1.2565  0.1347
    1SOL    MW4 6248   1.969   3.096   2.607  0.1811 -0.6466  0.2058
    1SOL     OW 6249   1.761   3.218   2.745  0.0358 -0.2996 -0.0668
    1SOL    HW2 6250   1.751   3.305   2.706 -0.1555 -0.4755 -0.4132
    1SOL    HW3 6251   1.832   3.178   2.696  0.7950  0.0293  0.7564
    1SOL    MW4 6252   1.769   3.224   2.734  0.1109 -0.2797 -0.0036
    1SOL     OW 6253   1.778   3.499   2.628 -0.1062  0.2529 -0.1934
    1SOL    HW2 6254   1.866   3.523   2.657  0.3230 -2.5432  0.9736
    1SOL    HW3 6255   1.784   3.499   2.532  1.2149 -0.1078 -0.1234
    1SOL    MW4 6256   1.791   3.502   2.619  0.1248 -0.1636 -0.0303
    1SOL     OW 6257   2.025   3.599   2.744 -0.5055 -0.0405  0.0178
    1SOL    HW2 6258   2.036   3.600   2.839 -0.2398  0.3864 -0.0128
    1SOL    HW3 6259   2.108   3.565   2.711 -1.0498 -1.3818 -0.0137
    1SOL    MW4 6260   2.038   3.595   2.752 -0.5422 -0.1612  0.0098
    1SOL     OW 6261   2.001   3.848   2.633 -0.1909  0.1024 -0.0529
    1SOL    HW2 6262   1.927   3.897   2.669 -1.4822 -0.8746 -1.3104
    1SOL    HW3 6263   2.000   3.765   2.680 -0.2434 -0.1229 -0.4433
    1SOL    MW4 6264   1.991   3.844   2.644 -0.3682 -0.0560 -0.2701
    1SOL     OW 6265   1.777   3.996   2.744  0.3282  0.2441  0.0252
    1SOL    HW2 6266   1.796   4.088   2.726  0.1217  0.5633  1.3759
    1SOL    HW3 6267   1.688   3.983   2.709  0.6856  0.3198 -0.9316
    1SOL    MW4 6268   1.767   4.006   2.737  0.3482  0.2961  0.0770
    1SOL     OW 6269   1.814   4.281   2.685 -0.1352  0.0933  0.1251
    1SOL    HW2 6270   1.736   4.337   2.684  0.7887  1.3691 -0.5753
    1SOL    HW3 6271   1.839   4.272   2.593 -0.1590 -1.3321  0.2404
    1SOL    MW4 6272   1.807   4.287   2.673 -0.0163  0.0739  0.0477
    1SOL     OW 6273   2.057   4.410   2.737 -0.5288 -0.5320  0.1720
    1SOL    HW2 6274   1.972   4.371   2.715 -1.4753  0.8643  1.3167
    1SOL    HW3 6275   2.048   4.503   2.716  1.3679 -0.6916 -1.5113
    1SOL    MW4 6276   2.045   4.417   2.731 -0.4034 -0.3691  0.1011
    1SOL     OW 6277   2.422   4.635   2.673 -0.0885 -0.0718 -0.2648
    1SOL    HW2 6278   2.490   4.700   2.693 -1.4565  1.3081  0.0081
    1SOL    HW3 6279   2.413   4.640   2.577 -1.1175  1.1095 -0.1161
    1SOL    MW4 6280   2.430   4.644   2.663 -0.4048  0.2656 -0.2093
    1SOL     OW 6281   2.221   0.146   2.713  0.0104  0.1857  0.3079
    1SOL    HW2 6282   2.208   0.161   2.807  0.4041  0.0966  0.3782
    1SOL    HW3 6283   2.307   0.105   2.707 -0.1771 -0.1514 -0.0643
    1SOL    MW4 6284   2.231   0.143   2.724  0.0374  0.1295  0.2680
    1SOL     OW 6285   2.206   0.422   2.649 -0.0141  0.1729  0.0221
    1SOL    HW2 6286   2.204   0.328   2.666  1.2569  0.3537  1.2874
    1SOL    HW3 6287   2.237   0.429   2.559 -1.3700 -0.6447 -0.5238
    1SOL    MW4 6288   2.210   0.411   2.639 -0.0257  0.0889  0.1168
    1SOL     OW 6289   2.494   0.486   2.740 -0.5167 -0.4525 -0.0947
    1SOL    HW2 6290   2.511   0.570   2.697  1.1098  0.0759  1.5097
    1SOL    HW3 6291   2.399   0.475   2.734 -0.6648  1.1278 -0.9995
    1SOL    MW4 6292   2.484   0.496   2.734 -0.3219 -0.1743 -0.0026
    1SOL     OW 6293   2.456   0.735   2.644 -0.4706  0.3287 -0.5919
    1SOL    HW2 6294   2.380   0.778   2.685 -0.7712 -0.4972 -0.2682
    1SOL    HW3 6295   2.442   0.748   2.550  0.1418  2.0948 -0.4530
    1SOL    MW4 6296   2.444   0.743   2.637 -0.4292  0.4528 -0.5310
    1SOL     OW 6297   2.261   0.925   2.740 -0.2046  0.0796  0.6440
    1SOL    HW2 6298   2.245   0.916   2.834 -2.1403  0.8064  0.3987
    1SOL    HW3 6299   2.180   0.895   2.699  0.7628 -0.6157 -0.8318
    1SOL    MW4 6300   2.248   0.920   2.747 -0.3324  0.0837  0.4168
    1SOL     OW 6301   2.255   1.195   2.674  0.3417 -0.0196  0.7421
    1SOL    HW2 6302   2.260   1.111   2.721 -0.1704 -0.2698  0.3578
    1SOL    HW3 6303   2.263   1.170   2.582 -0.5756  0.2816  0.5791
    1SOL    MW4 6304   2.257   1.180   2.668  0.1528 -0.0128  0.6700
    1SOL     OW 6305   2.479   1.326   2.762 -0.2472 -0.2862 -0.5195
    1SOL    HW2 6306   2.555   1.294   2.715 -0.3849  0.1472 -1.0374
    1SOL    HW3 6307   2.405   1.277   2.725 -0.3725  0.1533 -0.8497
    1SOL    MW4 6308   2.479   1.315   2.751 -0.2820 -0.1709 -0.6313
    1SOL     OW 6309   2.423   1.583   2.625  0.0831 -0.2191  0.2297
    1SOL    HW2 6310   2.350   1.629   2.667  0.6942  0.0917  0.9586
    1SOL    HW3 6311   2.431   1.501   2.674  0.1891 -0.2792  0.1117
    1SOL    MW4 6312   2.414   1.578   2.637  0.1776 -0.1860  0.3104
    1SOL     OW 6313   2.216   1.682   2.749  0.0780 -0.1156  0.2198
    1SOL    HW2 6314   2.214   1.760   2.693 -1.0816  0.3315  0.8801
    1SOL    HW3 6315   2.159   1.619   2.704 -0.0287 -0.1261  0.3727
    1SOL    MW4 6316   2.209   1.684   2.735 -0.0892 -0.0579  0.3269
    1SOL     OW 6317   2.271   1.914   2.601 -0.3331 -0.0380 -0.3884
    1SOL    HW2 6318   2.201   1.963   2.643  0.5544  2.0377 -1.2681
    1SOL    HW3 6319   2.256   1.925   2.507  0.1601 -1.0732 -0.6047
    1SOL    MW4 6320   2.260   1.922   2.594 -0.1507  0.0993 -0.5331
    1SOL     OW 6321   2.469   2.067   2.737 -0.3406 -0.1296 -0.5299
    1SOL    HW2 6322   2.452   2.158   2.712 -0.5044  0.3725  1.3053
    1SOL    HW3 6323   2.396   2.018   2.699 -0.2083  0.4981 -1.6062
    1SOL    MW4 6324   2.457   2.073   2.729 -0.3448  0.0191 -0.4299
    1SOL     OW 6325   2.442   2.328   2.625 -0.3632  0.0805 -0.4108
    1SOL    HW2 6326   2.522   2.375   2.650  0.1716 -1.1133  0.1661
    1SOL    HW3 6327   2.444   2.328   2.529  0.9642 -0.9850 -0.4000
    1SOL    MW4 6328   2.453   2.334   2.616 -0.1180 -0.2177 -0.3333
    1SOL     OW 6329   2.222   2.467   2.719 -0.0889  0.1429  0.6070
    1SOL    HW2 6330   2.249   2.485   2.809  0.8657  1.0359  0.1564
    1SOL    HW3 6331   2.298   2.426   2.679 -0.5686 -0.4041  0.2517
    1SOL    MW4 6332   2.236   2.464   2.726 -0.0262  0.1886  0.5007
    1SOL     OW 6333   2.213   2.724   2.582  0.2187 -0.2204  0.0688
    1SOL    HW2 6334   2.287   2.754   2.635 -0.4439  0.4121  0.6463
    1SOL    HW3 6335   2.196   2.635   2.614 -0.2925  0.2228  1.0584
    1SOL    MW4 6336   2.221   2.716   2.593  0.0637 -0.0784  0.2751
    1SOL     OW 6337   2.416   2.867   2.703 -0.4332 -0.3842 -0.2572
    1SOL    HW2 6338   2.487   2.811   2.673 -1.5749 -2.3242  0.5558
    1SOL    HW3 6339   2.446   2.956   2.686  1.0425 -1.2570 -2.4511
    1SOL    MW4 6340   2.429   2.871   2.696 -0.3891 -0.7553 -0.4394
    1SOL     OW 6341   2.467   3.127   2.624  0.6578 -0.0348  0.2881
    1SOL    HW2 6342   2.376   3.151   2.639  0.6292 -0.3444  0.6232
    1SOL    HW3 6343   2.473   3.111   2.529  0.5887  0.8924  0.1218
    1SOL    MW4 6344   2.456   3.128   2.613  0.6449  0.0465  0.3104
    1SOL     OW 6345   2.219   3.216   2.692  0.2767 -0.1455 -0.2178
    1SOL    HW2 6346   2.230   3.203   2.786  1.4933 -0.6251 -0.4007
    1SOL    HW3 6347   2.128   3.193   2.674 -0.3988  1.5033  1.0828
    1SOL    MW4 6348   2.209   3.211   2.702  0.3481  0.0088 -0.0703
    1SOL     OW 6349   2.264   3.480   2.616 -0.7666 -0.1068 -0.0122
    1SOL    HW2 6350   2.328   3.526   2.670 -0.2018 -1.3218  0.3480
    1SOL    HW3 6351   2.249   3.397   2.661 -1.3642 -0.5215 -0.9679
    1SOL    MW4 6352   2.270   3.475   2.629 -0.7710 -0.3219 -0.0908
    1SOL     OW 6353   2.464   3.631   2.728  0.0205  0.0302  0.4756
    1SOL    HW2 6354   2.477   3.637   2.822  0.0347 -1.1273  0.5621
    1SOL    HW3 6355   2.493   3.715   2.693  2.5098 -0.5018  1.2174
    1SOL    MW4 6356   2.469   3.643   2.736  0.3505 -0.1926  0.5846
    1SOL     OW 6357   2.477   3.876   2.635 -0.1382  0.4983  0.3936
    1SOL    HW2 6358   2.546   3.926   2.678 -1.0518  1.4314  0.8193
    1SOL    HW3 6359   2.399   3.894   2.688 -0.7229 -0.4391 -0.1456
    1SOL    MW4 6360   2.476   3.885   2.648 -0.3362  0.4976  0.3791
    1SOL     OW 6361   2.223   3.995   2.709 -0.1631 -0.1032 -0.0010
    1SOL    HW2 6362   2.224   3.998   2.804 -0.3001 -0.8460  0.0304
    1SOL    HW3 6363   2.160   3.926   2.688  0.7941 -0.8227 -0.5967
    1SOL    MW4 6364   2.215   3.986   2.719 -0.0546 -0.2961 -0.0756
    1SOL     OW 6365   2.277   4.263   2.654  0.3939 -0.7678  0.1879
    1SOL    HW2 6366   2.265   4.175   2.690 -1.1281 -0.2262  1.0752
    1SOL    HW3 6367   2.211   4.316   2.699 -0.0654  0.4047 -1.8051
    1SOL    MW4 6368   2.267   4.258   2.665  0.1326 -0.5417  0.0417
    1SOL     OW 6369   2.473   4.377   2.797 -0.4014 -0.0017 -0.2197
    1SOL    HW2 6370   2.405   4.329   2.749  0.3013 -1.1345 -0.0864
    1SOL    HW3 6371   2.459   4.468   2.772 -2.4474 -0.1223  0.3764
    1SOL    MW4 6372   2.462   4.382   2.788 -0.5786 -0.1669 -0.1235
    1SOL     OW 6373   2.913   4.654   2.645 -0.0667  0.2954  0.3228
    1SOL    HW2 6374   2.989   4.704   2.676 -0.9142  1.4511  0.5876
    1SOL    HW3 6375   2.924   4.652   2.550  0.1726  0.6529  0.3399
    1SOL    MW4 6376   2.925   4.660   2.637 -0.1471  0.4954  0.3605
    1SOL     OW 6377   2.661   0.093   2.734 -0.2450  0.8692  0.0137
    1SOL    HW2 6378   2.685   0.090   2.827 -0.2614 -0.6473 -0.0034
    1SOL    HW3 6379   2.734   0.049   2.690 -0.9096  0.2877 -0.5189
    1SOL    MW4 6380   2.674   0.087   2.741 -0.3347  0.5924 -0.0589
    1SOL     OW 6381   2.683   0.341   2.603 -0.0064 -0.4632 -0.0643
    1SOL    HW2 6382   2.680   0.254   2.644 -0.8548 -0.5396 -0.2867
    1SOL    HW3 6383   2.613   0.390   2.644 -1.8339 -0.9927 -2.4179
    1SOL    MW4 6384   2.673   0.336   2.613 -0.3593 -0.5431 -0.4041
    1SOL     OW 6385   2.900   0.486   2.729  0.0008 -0.0461 -0.2421
    1SOL    HW2 6386   2.883   0.572   2.692 -1.2575  0.5038  1.5243
    1SOL    HW3 6387   2.845   0.426   2.679 -1.0761  0.5661  0.1897
    1SOL    MW4 6388   2.891   0.489   2.718 -0.3071  0.1072  0.0479
    1SOL     OW 6389   2.877   0.745   2.648  0.0209 -0.0164  0.0816
    1SOL    HW2 6390   2.950   0.792   2.690  0.2893 -0.6036  0.2720
    1SOL    HW3 6391   2.803   0.804   2.660  0.6132  0.9249 -0.7741
    1SOL    MW4 6392   2.877   0.759   2.655  0.1345  0.0303 -0.0062
    1SOL     OW 6393   2.676   0.917   2.712 -0.1100  0.4854 -0.2355
    1SOL    HW2 6394   2.679   0.906   2.807 -0.6670  1.2325 -0.1300
    1SOL    HW3 6395   2.603   0.862   2.684  0.5577 -0.3659 -0.3271
    1SOL    MW4 6396   2.667   0.908   2.721 -0.0954  0.4717 -0.2339
    1SOL     OW 6397   2.696   1.191   2.639 -0.0195  0.1599  0.1075
    1SOL    HW2 6398   2.783   1.221   2.665  0.9058 -2.6480  0.3935
    1SOL    HW3 6399   2.693   1.100   2.667 -3.6319  0.6206  1.4772
    1SOL    MW4 6400   2.707   1.183   2.646 -0.3741 -0.1500  0.3257
    1SOL     OW 6401   2.940   1.302   2.734  0.0016 -0.7709 -0.3505
    1SOL    HW2 6402   2.939   1.312   2.829 -1.9656 -1.2090 -0.3114
    1SOL    HW3 6403   3.019   1.251   2.716 -1.4934 -3.8735  1.3970
    1SOL    MW4 6404   2.950   1.297   2.744 -0.4551 -1.2380 -0.1149
    1SOL     OW 6405   2.947   1.574   2.624 -0.1458  0.2409 -0.2069
    1SOL    HW2 6406   2.863   1.613   2.647 -0.4886 -1.0583  0.7349
    1SOL    HW3 6407   2.943   1.484   2.655  0.0909 -1.0616 -3.6402
    1SOL    MW4 6408   2.936   1.567   2.631 -0.1595 -0.1023 -0.5357
    1SOL     OW 6409   2.694   1.656   2.682  0.0449  0.4381 -0.3457
    1SOL    HW2 6410   2.686   1.650   2.778 -0.6246  0.1242 -0.4249
    1SOL    HW3 6411   2.605   1.643   2.649  0.6935 -2.0431 -1.1578
    1SOL    MW4 6412   2.681   1.654   2.691  0.0420  0.0693 -0.4632
    1SOL     OW 6413   2.716   1.942   2.653 -0.2283 -0.2995  0.2555
    1SOL    HW2 6414   2.695   1.851   2.675  0.2791  0.1273  2.7101
    1SOL    HW3 6415   2.636   1.991   2.672  0.0003 -0.0182  0.5102
    1SOL    MW4 6416   2.702   1.937   2.659 -0.1314 -0.2061  0.6127
    1SOL     OW 6417   2.913   2.105   2.757 -0.3448 -0.1391  0.2828
    1SOL    HW2 6418   2.898   2.185   2.706 -0.8594 -1.3085 -1.4726
    1SOL    HW3 6419   2.849   2.043   2.722  0.4438 -1.4860  1.2077
    1SOL    MW4 6420   2.902   2.108   2.745 -0.3088 -0.4709  0.1733
    1SOL     OW 6421   2.912   2.338   2.587 -0.1579  0.0653 -0.4668
    1SOL    HW2 6422   2.989   2.354   2.641  0.8758 -0.5805 -1.7394
    1SOL    HW3 6423   2.840   2.379   2.636  0.8173 -0.1692  1.1985
    1SOL    MW4 6424   2.913   2.346   2.601  0.1073 -0.0513 -0.4151
    1SOL     OW 6425   2.675   2.463   2.712 -0.3966  0.1591 -0.2876
    1SOL    HW2 6426   2.685   2.464   2.807 -1.0159 -2.0490 -0.1780
    1SOL    HW3 6427   2.664   2.555   2.688  0.4433  0.7967  1.6921
    1SOL    MW4 6428   2.675   2.475   2.721 -0.3674 -0.0479 -0.0119
    1SOL     OW 6429   2.641   2.724   2.624  0.0887  0.0801  0.3056
    1SOL    HW2 6430   2.707   2.781   2.664  0.8613 -0.4079 -0.2562
    1SOL    HW3 6431   2.661   2.726   2.531  0.1047 -1.0828  0.2731
    1SOL    MW4 6432   2.653   2.732   2.617  0.1926 -0.1376  0.2272
    1SOL     OW 6433   2.875   2.838   2.744  0.4170 -0.1256  0.0940
    1SOL    HW2 6434   2.876   2.834   2.840 -1.8358 -0.6423  0.1343
    1SOL    HW3 6435   2.907   2.925   2.724 -0.5000  0.5441  1.4102
    1SOL    MW4 6436   2.879   2.849   2.754 -0.0014 -0.1056  0.2730
    1SOL     OW 6437   2.905   3.128   2.668  0.0754  0.1639 -0.1637
    1SOL    HW2 6438   2.829   3.181   2.691  0.6620  0.9147  0.0732
    1SOL    HW3 6439   2.896   3.112   2.574 -0.0797  0.7223 -0.2429
    1SOL    MW4 6440   2.894   3.133   2.658  0.1323  0.3366 -0.1428
    1SOL     OW 6441   2.672   3.258   2.743 -0.2582 -0.0347  0.0766
    1SOL    HW2 6442   2.672   3.341   2.696 -0.2166  1.0186  1.8658
    1SOL    HW3 6443   2.595   3.212   2.710 -1.2452  1.4450  0.2520
    1SOL    MW4 6444   2.662   3.263   2.732 -0.3829  0.2997  0.3357
    1SOL     OW 6445   2.713   3.511   2.646  0.5146 -0.2349  0.0424
    1SOL    HW2 6446   2.625   3.547   2.657  1.3611  1.4357  1.6377
    1SOL    HW3 6447   2.725   3.506   2.551  0.0950  3.1522 -0.2661
    1SOL    MW4 6448   2.703   3.515   2.634  0.5710  0.4325  0.2120
    1SOL     OW 6449   2.940   3.644   2.724 -0.0440  0.3411 -0.3614
    1SOL    HW2 6450   2.951   3.639   2.819 -0.0566  2.1210 -0.2554
    1SOL    HW3 6451   2.861   3.593   2.707  1.8100 -2.8769  0.1554
    1SOL    MW4 6452   2.931   3.637   2.734  0.1991  0.1514 -0.2792
    1SOL     OW 6453   2.908   3.893   2.615 -0.1644  0.4796 -0.7546
    1SOL    HW2 6454   2.990   3.935   2.642 -0.6081  0.0727  1.3427
    1SOL    HW3 6455   2.914   3.805   2.652 -1.8584  0.6832  0.0666
    1SOL    MW4 6456   2.920   3.887   2.623 -0.4466  0.4528 -0.3695
    1SOL     OW 6457   2.689   4.023   2.739  0.1682  0.3598  0.2001
    1SOL    HW2 6458   2.686   4.111   2.704  0.5914 -0.5280 -2.1259
    1SOL    HW3 6459   2.772   3.987   2.710 -0.1064 -0.8976  0.9007
    1SOL    MW4 6460   2.699   4.030   2.731  0.1876  0.0772 -0.0145
    1SOL     OW 6461   2.682   4.277   2.646 -0.0281 -0.2800 -0.0747
    1SOL    HW2 6462   2.762   4.323   2.673 -0.0868 -0.2169 -0.0072
    1SOL    HW3 6463   2.619   4.296   2.715 -0.0245 -0.5441  0.0008
    1SOL    MW4 6464   2.684   4.286   2.659 -0.0353 -0.3066 -0.0560
    1SOL     OW 6465   2.894   4.397   2.767  0.0921  0.1670  0.4310
    1SOL    HW2 6466   2.927   4.408   2.856 -0.1775  0.4619  0.4953
    1SOL    HW3 6467   2.887   4.486   2.733 -0.2625  0.0800  0.2791
    1SOL    MW4 6468   2.897   4.410   2.775  0.0098  0.1945  0.4196
    1SOL     OW 6469   3.362   4.641   2.615  0.0033  0.4125 -0.2220
    1SOL    HW2 6470   3.359   4.555   2.659  1.7411 -0.7096 -2.1948
    1SOL    HW3 6471   3.296   4.693   2.660  0.0452 -1.4547  2.1018
    1SOL    MW4 6472   3.353   4.636   2.627  0.2382  0.0181 -0.1757
    1SOL     OW 6473   3.153   0.117   2.736 -0.1470  0.3826 -0.3781
    1SOL    HW2 6474   3.160   0.117   2.832 -1.0903 -0.3492 -0.3009
    1SOL    HW3 6475   3.181   0.204   2.710  0.7159  0.3873  0.5206
    1SOL    MW4 6476   3.158   0.128   2.746 -0.1574  0.2867 -0.2491
    1SOL     OW 6477   3.164   0.397   2.653 -0.3744 -0.3214 -0.2423
    1SOL    HW2 6478   3.080   0.425   2.689  0.3568  1.6804  0.0073
    1SOL    HW3 6479   3.149   0.387   2.559 -0.4088  2.0476 -0.5103
    1SOL    MW4 6480   3.151   0.399   2.646 -0.2825  0.2553 -0.2449
    1SOL     OW 6481   3.405   0.554   2.750  0.0165  0.5633 -0.5360
    1SOL    HW2 6482   3.394   0.643   2.717 -1.0269  1.0152  0.9838
    1SOL    HW3 6483   3.325   0.508   2.721  0.4527  0.1697 -1.1299
    1SOL    MW4 6484   3.393   0.560   2.742 -0.0637  0.5710 -0.4139
    1SOL     OW 6485   3.340   0.824   2.624 -0.2579 -0.2128 -0.2946
    1SOL    HW2 6486   3.428   0.858   2.642 -0.3398  0.7563 -1.6298
    1SOL    HW3 6487   3.341   0.802   2.531 -1.2470 -0.7688 -0.1851
    1SOL    MW4 6488   3.352   0.826   2.614 -0.3991 -0.1583 -0.4566
    1SOL     OW 6489   3.110   0.851   2.770  0.2653  0.4318  0.2454
    1SOL    HW2 6490   3.127   0.858   2.864  0.6088 -1.7172  0.3517
    1SOL    HW3 6491   3.195   0.831   2.732 -0.2150 -0.5269 -0.3241
    1SOL    MW4 6492   3.124   0.850   2.778  0.2472  0.0218  0.1843
    1SOL     OW 6493   3.124   1.108   2.629  0.0578  0.4001 -0.5868
    1SOL    HW2 6494   3.130   1.021   2.667 -0.8809  0.7732  0.4391
    1SOL    HW3 6495   3.120   1.093   2.534 -0.1313 -0.6660 -0.4101
    1SOL    MW4 6496   3.124   1.095   2.621 -0.0911  0.3086 -0.4282
    1SOL     OW 6497   3.352   1.272   2.727 -0.6696 -0.0880  0.0597
    1SOL    HW2 6498   3.342   1.262   2.821  0.8760 -0.6728  0.1783
    1SOL    HW3 6499   3.281   1.220   2.690 -0.2302 -1.3032  0.8889
    1SOL    MW4 6500   3.342   1.264   2.734 -0.4079 -0.3256  0.1848
    1SOL     OW 6501   3.372   1.548   2.645  0.1303  0.4485 -0.5886
    1SOL    HW2 6502   3.311   1.610   2.686  0.2735  0.7139 -0.7724
    1SOL    HW3 6503   3.355   1.465   2.689 -1.6506  0.0827 -1.8843
    1SOL    MW4 6504   3.362   1.546   2.657 -0.0858  0.4352 -0.7837
    1SOL     OW 6505   3.170   1.727   2.736 -0.3288  0.0666 -0.1416
    1SOL    HW2 6506   3.172   1.817   2.703 -1.6765  0.4489  0.7911
    1SOL    HW3 6507   3.093   1.688   2.696 -1.7122  0.3846  2.0989
    1SOL    MW4 6508   3.160   1.734   2.727 -0.6890  0.1589  0.2773
    1SOL     OW 6509   3.150   1.982   2.651 -0.1620 -0.4285 -0.0331
    1SOL    HW2 6510   3.227   2.031   2.680 -0.4529 -1.4013  2.5509
    1SOL    HW3 6511   3.075   2.031   2.685 -0.5547 -1.2114  0.2408
    1SOL    MW4 6512   3.150   1.995   2.659 -0.2520 -0.6599  0.3440
    1SOL     OW 6513   3.385   2.107   2.747 -0.4341  0.3896  0.2172
    1SOL    HW2 6514   3.377   2.103   2.842 -0.2268 -0.1707  0.2117
    1SOL    HW3 6515   3.380   2.201   2.727 -2.1147  0.4123  0.6236
    1SOL    MW4 6516   3.383   2.119   2.757 -0.6285  0.3188  0.2699
    1SOL     OW 6517   3.386   2.383   2.706 -0.0084 -0.1794 -0.3844
    1SOL    HW2 6518   3.459   2.440   2.731  0.5140 -1.1347  0.2963
    1SOL    HW3 6519   3.391   2.378   2.611  1.5758 -1.2131 -0.2725
    1SOL    MW4 6520   3.397   2.390   2.697  0.2694 -0.4420 -0.2799
    1SOL     OW 6521   3.122   2.429   2.755 -0.1225  0.3970 -0.2655
    1SOL    HW2 6522   3.098   2.517   2.726  0.0313  0.2148 -0.9580
    1SOL    HW3 6523   3.215   2.421   2.735 -0.1191  0.1003 -0.1421
    1SOL    MW4 6524   3.131   2.439   2.748 -0.1018  0.3338 -0.3402
    1SOL     OW 6525   3.087   2.683   2.666 -0.4402 -0.1590  0.3393
    1SOL    HW2 6526   3.163   2.740   2.681 -0.3968 -0.3052  0.6723
    1SOL    HW3 6527   3.013   2.734   2.698 -0.2299 -0.8759  1.9994
    1SOL    MW4 6528   3.087   2.697   2.672 -0.4067 -0.2728  0.6022
    1SOL     OW 6529   3.322   2.854   2.723  0.1827 -0.2401  0.0382
    1SOL    HW2 6530   3.317   2.842   2.818  2.5460  1.3016  0.4123
    1SOL    HW3 6531   3.407   2.818   2.699  0.4705  1.1708 -1.1583
    1SOL    MW4 6532   3.333   2.848   2.732  0.5324  0.1495 -0.0703
    1SOL     OW 6533   3.360   3.127   2.625 -0.2802 -0.1177  0.1640
    1SOL    HW2 6534   3.352   3.033   2.644 -0.2142 -0.2880 -0.6327
    1SOL    HW3 6535   3.367   3.131   2.529 -1.6936  0.7854  0.0785
    1SOL    MW4 6536   3.360   3.115   2.615 -0.4585 -0.0210  0.0477
    1SOL     OW 6537   3.139   3.234   2.790  0.6361 -0.2753  0.1893
    1SOL    HW2 6538   3.211   3.211   2.731  0.6259  0.3284 -0.0659
    1SOL    HW3 6539   3.063   3.187   2.755  0.9600 -1.1006  0.5984
    1SOL    MW4 6540   3.139   3.225   2.777  0.6773 -0.3045  0.2096
    1SOL     OW 6541   3.128   3.478   2.629  0.0279  0.2118  0.2046
    1SOL    HW2 6542   3.112   3.403   2.687 -0.8210 -0.0470 -0.3540
    1SOL    HW3 6543   3.060   3.541   2.652 -0.6459 -0.1109 -0.8717
    1SOL    MW4 6544   3.117   3.476   2.640 -0.1731  0.1349 -0.0112
    1SOL     OW 6545   3.354   3.623   2.712  0.0220  0.4592 -0.4196
    1SOL    HW2 6546   3.341   3.616   2.807  1.2244  0.9144 -0.2157
    1SOL    HW3 6547   3.276   3.583   2.674 -0.2874 -0.0696  0.7646
    1SOL    MW4 6548   3.342   3.617   2.720  0.1397  0.4497 -0.2360
    1SOL     OW 6549   3.391   3.908   2.648 -0.3689  0.3929 -0.0789
    1SOL    HW2 6550   3.388   3.813   2.661  1.4750  0.0500 -1.9083
    1SOL    HW3 6551   3.362   3.921   2.557  0.1629  1.5064 -0.1030
    1SOL    MW4 6552   3.387   3.897   2.638 -0.0556  0.4942 -0.3235
    1SOL     OW 6553   3.142   4.011   2.742 -0.4356  0.0879 -0.0369
    1SOL    HW2 6554   3.144   4.106   2.731 -1.2102  0.1843  0.5468
    1SOL    HW3 6555   3.231   3.982   2.723  0.4636  1.2211  2.2266
    1SOL    MW4 6556   3.154   4.019   2.738 -0.4191  0.2499  0.3388
    1SOL     OW 6557   3.116   4.279   2.641 -0.4578 -0.1545 -0.2319
    1SOL    HW2 6558   3.033   4.324   2.656 -0.1371  0.4059 -0.1077
    1SOL    HW3 6559   3.124   4.274   2.546 -1.3821 -1.6263 -0.2467
    1SOL    MW4 6560   3.106   4.285   2.631 -0.5374 -0.2747 -0.2177
    1SOL     OW 6561   3.346   4.392   2.746 -0.3772  0.1741  0.9740
    1SOL    HW2 6562   3.338   4.412   2.840 -1.3599 -0.3896  1.0078
    1SOL    HW3 6563   3.267   4.344   2.724  1.1681 -2.2646  0.5018
    1SOL    MW4 6564   3.335   4.388   2.756 -0.3033 -0.2222  0.9160
    1SOL     OW 6565   3.786   4.614   2.607 -0.1479 -0.3066  0.3135
    1SOL    HW2 6566   3.801   4.533   2.657  0.3908  0.2622  1.0985
    1SOL    HW3 6567   3.705   4.650   2.644 -1.3413 -1.3661 -1.2263
    1SOL    MW4 6568   3.777   4.608   2.619 -0.2344 -0.3715  0.2139
    1SOL     OW 6569   3.579   0.107   2.718 -0.5156 -0.4188  0.0525
    1SOL    HW2 6570   3.576   0.199   2.694 -0.1818 -0.8955 -1.9360
    1SOL    HW3 6571   3.502   0.068   2.677 -0.3717 -1.1270  0.4325
    1SOL    MW4 6572   3.569   0.114   2.710 -0.4525 -0.5751 -0.1597
    1SOL     OW 6573   3.580   0.379   2.657 -0.4406 -0.4391 -0.4960
    1SOL    HW2 6574   3.665   0.416   2.679 -0.2728 -0.3473 -1.2845
    1SOL    HW3 6575   3.516   0.441   2.693 -0.1788 -0.4883  0.0562
    1SOL    MW4 6576   3.582   0.392   2.664 -0.3841 -0.4335 -0.5274
    1SOL     OW 6577   3.829   0.515   2.723  0.5019  0.3517 -0.3671
    1SOL    HW2 6578   3.854   0.537   2.813  1.1146 -1.2867 -0.1116
    1SOL    HW3 6579   3.883   0.439   2.702 -1.5864 -0.9410 -1.1629
    1SOL    MW4 6580   3.839   0.508   2.732  0.3073 -0.0351 -0.4382
    1SOL     OW 6581   3.800   0.772   2.627  0.1700  0.2168  0.3469
    1SOL    HW2 6582   3.722   0.803   2.673 -0.0429  0.6321 -0.2932
    1SOL    HW3 6583   3.810   0.681   2.657  0.7356  0.8486  2.1308
    1SOL    MW4 6584   3.791   0.764   2.637  0.2165  0.3549  0.4978
    1SOL     OW 6585   3.572   0.895   2.745 -0.2911  0.1280  0.2394
    1SOL    HW2 6586   3.587   0.884   2.839  0.8720  1.6262  0.2484
    1SOL    HW3 6587   3.578   0.990   2.731 -2.2048  0.0853 -1.0638
    1SOL    MW4 6588   3.575   0.906   2.755 -0.3901  0.3200  0.0689
    1SOL     OW 6589   3.599   1.161   2.644  0.2572  0.3537  0.0747
    1SOL    HW2 6590   3.673   1.204   2.688  0.0050  1.5479 -0.6383
    1SOL    HW3 6591   3.523   1.212   2.671 -0.4475 -1.4147  1.5143
    1SOL    MW4 6592   3.599   1.173   2.654  0.1309  0.2779  0.1702
    1SOL     OW 6593   3.844   1.296   2.724 -0.0258 -0.4220  0.3169
    1SOL    HW2 6594   3.914   1.240   2.689 -0.5820 -1.3574  0.6751
    1SOL    HW3 6595   3.840   1.369   2.663  0.6835 -0.7931 -0.1946
    1SOL    MW4 6596   3.853   1.298   2.711 -0.0055 -0.5944  0.2968
    1SOL     OW 6597   3.830   1.542   2.604 -0.0720  0.1319 -0.0414
    1SOL    HW2 6598   3.902   1.585   2.651 -0.9814  0.0524  1.4789
    1SOL    HW3 6599   3.751   1.583   2.638 -0.7608  0.1531 -1.6323
    1SOL    MW4 6600   3.829   1.553   2.615 -0.2828  0.1242 -0.0505
    1SOL     OW 6601   3.603   1.658   2.721  0.8740  0.0210 -0.1267
    1SOL    HW2 6602   3.591   1.747   2.689 -0.2520  0.4213  1.3480
    1SOL    HW3 6603   3.523   1.612   2.693 -0.0171  0.3195  1.8958
    1SOL    MW4 6604   3.591   1.664   2.713  0.6080  0.1131  0.3350
    1SOL     OW 6605   3.595   1.937   2.669 -0.2758  0.0227  0.7061
    1SOL    HW2 6606   3.532   1.999   2.706 -0.3430  0.1151  0.4389
    1SOL    HW3 6607   3.583   1.944   2.574 -0.6436 -0.7811  0.6894
    1SOL    MW4 6608   3.585   1.946   2.661 -0.3331 -0.0712  0.6690
    1SOL     OW 6609   3.837   2.051   2.765 -0.1510  0.0133  0.6191
    1SOL    HW2 6610   3.902   1.997   2.719 -0.2512 -1.0816  1.7514
    1SOL    HW3 6611   3.753   2.016   2.736 -0.2621  1.3276 -0.7214
    1SOL    MW4 6612   3.835   2.040   2.755 -0.1788  0.0424  0.5918
    1SOL     OW 6613   3.807   2.325   2.684 -0.1560 -0.3383 -0.3798
    1SOL    HW2 6614   3.825   2.236   2.716 -1.6041 -0.5129 -0.0196
    1SOL    HW3 6615   3.827   2.321   2.591  4.1068  0.1744  0.3886
    1SOL    MW4 6616   3.812   2.313   2.676  0.2155 -0.2935 -0.2310
    1SOL     OW 6617   3.623   2.509   2.740  0.1922 -0.0492  0.0662
    1SOL    HW2 6618   3.608   2.515   2.834  1.9202  1.3295  0.3007
    1SOL    HW3 6619   3.684   2.436   2.730 -0.4242 -0.5513 -0.0478
    1SOL    MW4 6620   3.629   2.500   2.751  0.3388  0.0665  0.0823
    1SOL     OW 6621   3.567   2.760   2.656 -0.7127 -0.2149 -0.7540
    1SOL    HW2 6622   3.585   2.667   2.674 -1.6383 -0.5579 -1.5504
    1SOL    HW3 6623   3.590   2.771   2.564  0.8281  0.7255 -0.2716
    1SOL    MW4 6624   3.573   2.749   2.646 -0.6318 -0.1361 -0.7951
    1SOL     OW 6625   3.799   2.873   2.733  0.2436  0.6375 -0.0231
    1SOL    HW2 6626   3.862   2.811   2.696 -1.0033 -0.2261 -0.7221
    1SOL    HW3 6627   3.715   2.828   2.728 -0.3954  1.6640  1.1824
    1SOL    MW4 6628   3.796   2.859   2.727 -0.0055  0.6588  0.0439
    1SOL     OW 6629   3.797   3.150   2.622  0.0908 -0.2214 -0.2537
    1SOL    HW2 6630   3.725   3.184   2.676  1.4414  0.2093  1.3194
    1SOL    HW3 6631   3.806   3.059   2.650  1.7840  0.4228  1.3610
    1SOL    MW4 6632   3.788   3.142   2.633  0.4921 -0.0794  0.1669
    1SOL     OW 6633   3.590   3.239   2.771  0.5069  0.3066 -0.3040
    1SOL    HW2 6634   3.595   3.325   2.729  0.0946  0.0674 -0.8545
    1SOL    HW3 6635   3.512   3.198   2.732  0.6285 -0.2612  0.0469
    1SOL    MW4 6636   3.580   3.245   2.760  0.4687  0.2003 -0.3304
    1SOL     OW 6637   3.575   3.485   2.648 -0.6747  0.2293  0.3369
    1SOL    HW2 6638   3.647   3.544   2.670  0.2517 -1.2804  1.4450
    1SOL    HW3 6639   3.497   3.529   2.682 -0.2951  1.8406 -0.8004
    1SOL    MW4 6640   3.574   3.499   2.655 -0.5023  0.2427  0.3331
    1SOL     OW 6641   3.795   3.616   2.715  0.1764 -0.3299  0.6064
    1SOL    HW2 6642   3.870   3.561   2.693 -0.0132  0.2372 -1.5981
    1SOL    HW3 6643   3.804   3.693   2.659 -1.7799 -0.0392  0.6359
    1SOL    MW4 6644   3.806   3.619   2.705 -0.1068 -0.2167  0.3195
    1SOL     OW 6645   3.792   3.883   2.639 -0.0988 -0.4794  0.1177
    1SOL    HW2 6646   3.871   3.923   2.676  0.0130 -1.0299  0.4678
    1SOL    HW3 6647   3.720   3.918   2.692 -0.0822 -0.1017 -0.1017
    1SOL    MW4 6648   3.793   3.893   2.651 -0.0815 -0.5021  0.1347
    1SOL     OW 6649   3.607   4.017   2.787  0.1469 -0.0914 -0.0701
    1SOL    HW2 6650   3.619   4.098   2.737 -0.4655  0.0523  0.0158
    1SOL    HW3 6651   3.521   3.985   2.760 -0.4302  0.2781  1.3060
    1SOL    MW4 6652   3.597   4.023   2.777 -0.0100 -0.0234  0.1228
    1SOL     OW 6653   3.570   4.264   2.668 -0.7513  0.4434  0.7307
    1SOL    HW2 6654   3.494   4.313   2.699 -0.8166  1.4604 -0.9651
    1SOL    HW3 6655   3.556   4.254   2.574 -0.3081 -2.0999  0.9039
    1SOL    MW4 6656   3.558   4.269   2.660 -0.7014  0.2418  0.5298
    1SOL     OW 6657   3.824   4.378   2.749 -0.0654  0.7118 -0.3356
    1SOL    HW2 6658   3.903   4.327   2.728 -0.4781  0.0902 -0.3822
    1SOL    HW3 6659   3.752   4.323   2.719 -0.6747  0.0017  2.3031
    1SOL    MW4 6660   3.825   4.364   2.742 -0.2003  0.5360  0.0062
    1SOL     OW 6661   4.290   4.631   2.615 -0.1383  0.2337  0.0125
    1SOL    HW2 6662   4.208   4.669   2.646 -0.6635 -0.0488 -1.0102
    1SOL    HW3 6663   4.355   4.658   2.680 -0.6966  1.9561 -0.1202
    1SOL    MW4 6664   4.288   4.639   2.628 -0.2809  0.4230 -0.1402
    1SOL     OW 6665   4.024   0.032   2.720  0.2684  0.1983  0.3236
    1SOL    HW2 6666   4.007   0.021   2.813  0.9241 -1.5885  0.2491
    1SOL    HW3 6667   3.949  -0.007   2.676  0.7806 -0.5629  0.1012
    1SOL    MW4 6668   4.012   0.025   2.726  0.4220 -0.1379  0.2844
    1SOL     OW 6669   4.002   0.305   2.666 -0.0913  0.1958 -0.2927
    1SOL    HW2 6670   4.001   0.212   2.688 -0.4409  0.4412  0.7939
    1SOL    HW3 6671   4.009   0.308   2.571 -0.3982 -0.9457 -0.3549
    1SOL    MW4 6672   4.003   0.293   2.656 -0.1783  0.0775 -0.1576
    1SOL     OW 6673   4.210   0.491   2.777  0.0924 -0.5399 -0.5835
    1SOL    HW2 6674   4.141   0.435   2.742 -0.0124 -0.4696 -0.4864
    1SOL    HW3 6675   4.290   0.439   2.766 -0.0344 -0.7963 -0.2933
    1SOL    MW4 6676   4.212   0.477   2.771  0.0620 -0.5644 -0.5324
    1SOL     OW 6677   4.214   0.768   2.655  0.0794 -0.0956 -0.1485
    1SOL    HW2 6678   4.211   0.682   2.697 -0.6929 -0.3241 -0.6482
    1SOL    HW3 6679   4.214   0.749   2.561  0.3591  0.4388 -0.2591
    1SOL    MW4 6680   4.213   0.754   2.648  0.0143 -0.0552 -0.2291
    1SOL     OW 6681   4.008   0.891   2.772 -0.1785 -0.1894 -0.0589
    1SOL    HW2 6682   4.088   0.865   2.726  1.3080  2.2821  1.0286
    1SOL    HW3 6683   3.938   0.848   2.723  1.7731 -2.1526 -1.2373
    1SOL    MW4 6684   4.009   0.882   2.759  0.2751 -0.1224 -0.0708
    1SOL     OW 6685   4.048   1.120   2.606  0.0407  0.1372 -0.2801
    1SOL    HW2 6686   4.120   1.161   2.655 -0.2321  0.5966 -0.2583
    1SOL    HW3 6687   4.022   1.045   2.659 -0.7707  1.0822  0.6832
    1SOL    MW4 6688   4.054   1.116   2.619 -0.1025  0.3225 -0.1502
    1SOL     OW 6689   4.255   1.223   2.739 -0.1396 -0.1025 -0.0814
    1SOL    HW2 6690   4.262   1.317   2.727 -0.7707 -0.0121  0.2782
    1SOL    HW3 6691   4.318   1.186   2.676  0.8827  0.5877  0.5245
    1SOL    MW4 6692   4.264   1.230   2.729 -0.0882  0.0006  0.0463
    1SOL     OW 6693   4.266   1.488   2.658  0.0458  0.1001  0.4031
    1SOL    HW2 6694   4.332   1.547   2.693 -1.8303  1.8299  1.1120
    1SOL    HW3 6695   4.283   1.486   2.564  1.4277  0.0811  0.6409
    1SOL    MW4 6696   4.277   1.496   2.650 -0.0200  0.3258  0.5283
    1SOL     OW 6697   4.049   1.643   2.708  0.4926  0.2929 -0.1567
    1SOL    HW2 6698   4.047   1.652   2.804 -0.4379 -0.4913 -0.0965
    1SOL    HW3 6699   4.123   1.584   2.691 -0.0951 -0.5465  0.1644
    1SOL    MW4 6700   4.059   1.637   2.719  0.2923  0.0787 -0.1066
    1SOL     OW 6701   4.070   1.901   2.646  0.5368  0.4118  0.2793
    1SOL    HW2 6702   4.147   1.949   2.678 -1.1673  1.6214  2.6991
    1SOL    HW3 6703   4.085   1.811   2.674  1.3494  0.5197  0.2148
    1SOL    MW4 6704   4.082   1.895   2.654  0.4191  0.5856  0.5898
    1SOL     OW 6705   4.283   2.047   2.760 -0.0128  0.4188  0.0515
    1SOL    HW2 6706   4.278   2.134   2.721 -0.4024 -0.3262 -1.6054
    1SOL    HW3 6707   4.355   2.004   2.714  0.1983 -0.1295  0.8801
    1SOL    MW4 6708   4.292   2.053   2.749 -0.0367  0.2482 -0.0579
    1SOL     OW 6709   4.247   2.321   2.656  0.0300  0.2261  0.1882
    1SOL    HW2 6710   4.166   2.358   2.690  0.0623  0.2741  0.2126
    1SOL    HW3 6711   4.250   2.350   2.565  0.0346  0.2490  0.1957
    1SOL    MW4 6712   4.237   2.330   2.648  0.0343  0.2356  0.1926
    1SOL     OW 6713   4.032   2.436   2.764  0.2081 -0.6303 -0.0985
    1SOL    HW2 6714   4.040   2.438   2.859 -0.2240  0.7167 -0.0723
    1SOL    HW3 6715   3.946   2.397   2.748  1.0552 -2.6063 -0.0089
    1SOL    MW4 6716   4.022   2.431   2.774  0.2627 -0.7133 -0.0830
    1SOL     OW 6717   4.000   2.702   2.650  0.4975 -0.0066 -0.0063
    1SOL    HW2 6718   4.078   2.746   2.685  2.3072 -2.3908 -0.8851
    1SOL    HW3 6719   3.986   2.628   2.708  0.1516 -0.7759 -1.0444
    1SOL    MW4 6720   4.008   2.698   2.662  0.6905 -0.4227 -0.2592
    1SOL     OW 6721   4.239   2.820   2.728 -0.1512  0.2775  0.2638
    1SOL    HW2 6722   4.255   2.840   2.820 -1.0776  0.8457  0.3104
    1SOL    HW3 6723   4.231   2.905   2.686  1.2130  0.0187 -0.5186
    1SOL    MW4 6724   4.240   2.834   2.735 -0.0935  0.3183  0.1669
    1SOL     OW 6725   4.223   3.061   2.611 -0.3446  0.2282  0.2657
    1SOL    HW2 6726   4.162   3.123   2.649 -0.7243 -0.4732  0.8094
    1SOL    HW3 6727   4.213   3.071   2.517 -0.8684  0.5303  0.3574
    1SOL    MW4 6728   4.214   3.070   2.604 -0.4640  0.1755  0.3498
    1SOL     OW 6729   4.036   3.228   2.712 -0.0597  0.0815  0.0957
    1SOL    HW2 6730   4.051   3.321   2.696 -0.0231 -0.1845 -1.4961
    1SOL    HW3 6731   3.949   3.211   2.678  0.2177 -0.6139 -0.2937
    1SOL    MW4 6732   4.027   3.238   2.705 -0.0186 -0.0453 -0.1655
    1SOL     OW 6733   4.032   3.486   2.637  0.3826  0.2436  0.0276
    1SOL    HW2 6734   4.107   3.536   2.669  0.9172 -0.4967 -0.0636
    1SOL    HW3 6735   4.035   3.497   2.542  0.5232  0.0078  0.0044
    1SOL    MW4 6736   4.043   3.494   2.629  0.4716  0.1147  0.0126
    1SOL     OW 6737   4.259   3.596   2.767 -0.4779 -0.2005 -0.1214
    1SOL    HW2 6738   4.233   3.581   2.858  0.1571  2.2399  0.5014
    1SOL    HW3 6739   4.332   3.537   2.752 -0.8145 -0.8650  0.8402
    1SOL    MW4 6740   4.265   3.587   2.777 -0.4387  0.0336  0.0875
    1SOL     OW 6741   4.269   3.856   2.644 -0.1481 -0.0634  0.3381
    1SOL    HW2 6742   4.273   3.768   2.682  1.0402 -0.7419 -1.2694
    1SOL    HW3 6743   4.338   3.904   2.690  0.9928 -0.7542 -0.6222
    1SOL    MW4 6744   4.279   3.850   2.655  0.1593 -0.2439 -0.0007
    1SOL     OW 6745   4.032   3.971   2.725  0.0515 -0.4382  0.5370
    1SOL    HW2 6746   4.048   3.975   2.820 -0.6300 -0.7042  0.6609
    1SOL    HW3 6747   4.108   3.924   2.691  1.5356  1.7744  0.6444
    1SOL    MW4 6748   4.044   3.965   2.733  0.1574 -0.1814  0.5677
    1SOL     OW 6749   4.056   4.238   2.668  0.4969  0.4293 -0.0785
    1SOL    HW2 6750   4.059   4.143   2.666  0.3742  0.4302 -0.2842
    1SOL    HW3 6751   4.047   4.264   2.577 -0.5254  0.6038  0.0661
    1SOL    MW4 6752   4.056   4.229   2.656  0.3457  0.4530 -0.0865
    1SOL     OW 6753   4.268   4.394   2.744 -0.0135 -0.2267  0.0588
    1SOL    HW2 6754   4.193   4.347   2.709 -0.1433  0.5284 -0.7065
    1SOL    HW3 6755   4.273   4.473   2.691  1.7739 -0.6224 -0.3959
    1SOL    MW4 6756   4.259   4.398   2.732  0.2055 -0.1793 -0.1023
    1SOL     OW 6757   0.220   4.649   3.137  0.0897 -0.0805 -0.2862
    1SOL    HW2 6758   0.203   4.662   3.231 -0.6111 -1.3024 -0.2462
    1SOL    HW3 6759   0.142   4.683   3.094  0.1863 -0.0177 -0.4118
    1SOL    MW4 6760   0.207   4.655   3.144  0.0100 -0.2332 -0.2973
    1SOL     OW 6761   4.479   0.120   3.057  0.2090  0.0052  0.2459
    1SOL    HW2 6762   4.396   0.076   3.077 -1.1050  1.6657 -1.4206
    1SOL    HW3 6763   4.477   0.200   3.108  1.0971 -0.2500  0.6910
    1SOL    MW4 6764   4.468   0.125   3.066  0.1531  0.1906  0.0846
    1SOL     OW 6765   4.456   0.385   3.161  0.2675  0.0349  0.2408
    1SOL    HW2 6766   4.461   0.390   3.257  1.0202  2.0544  0.1237
    1SOL    HW3 6767   4.368   0.417   3.141  0.6003  0.9567  0.2023
    1SOL    MW4 6768   4.445   0.390   3.171  0.4110  0.4230  0.2203
    1SOL     OW 6769   0.175   0.474   3.008 -0.0733  0.1221 -0.1992
    1SOL    HW2 6770   0.242   0.416   3.045 -0.2522 -0.3640 -0.6329
    1SOL    HW3 6771   0.096   0.454   3.059 -0.2578 -0.3705 -0.6724
    1SOL    MW4 6772   0.173   0.464   3.020 -0.1213 -0.0070 -0.3188
    1SOL     OW 6773   0.195   0.747   3.136 -0.7313 -0.3177  0.2236
    1SOL    HW2 6774   0.203   0.750   3.232  0.9384 -0.8656  0.1037
    1SOL    HW3 6775   0.196   0.654   3.115 -1.4127 -0.2076 -0.3177
    1SOL    MW4 6776   0.196   0.735   3.146 -0.6009 -0.3754  0.1366
    1SOL     OW 6777   4.465   0.871   3.014  0.1801  0.8120 -0.0089
    1SOL    HW2 6778   4.542   0.833   3.056  1.1841  2.9359  0.1003
    1SOL    HW3 6779   4.493   0.889   2.924 -0.5125  0.6701 -0.2614
    1SOL    MW4 6780   4.479   0.868   3.008  0.2217  1.0735 -0.0279
    1SOL     OW 6781   4.470   1.186   3.096 -0.2110 -0.1533 -0.0598
    1SOL    HW2 6782   4.385   1.226   3.077 -0.3148 -0.8119 -1.0372
    1SOL    HW3 6783   4.472   1.107   3.042  0.5191 -0.7953  0.8702
    1SOL    MW4 6784   4.459   1.180   3.086 -0.1283 -0.3248 -0.0660
    1SOL     OW 6785   0.226   1.276   3.037 -0.2367 -0.1326 -0.5452
    1SOL    HW2 6786   0.140   1.239   3.059 -0.7926  1.3908 -0.0292
    1SOL    HW3 6787   0.229   1.275   2.942 -1.4746  1.1717 -0.6191
    1SOL    MW4 6788   0.215   1.271   3.028 -0.4734  0.2406 -0.4869
    1SOL     OW 6789   0.181   1.550   3.088 -0.1048 -0.0682  0.2289
    1SOL    HW2 6790   0.110   1.599   3.046 -0.3426  0.2643  1.0067
    1SOL    HW3 6791   0.173   1.461   3.053 -0.1506  0.2666 -0.6072
    1SOL    MW4 6792   0.171   1.544   3.078 -0.1422  0.0199  0.2210
    1SOL     OW 6793   4.458   1.696   3.000 -0.0078 -0.3461  0.1485
    1SOL    HW2 6794   4.394   1.643   3.047 -0.3983  0.6362  0.7613
    1SOL    HW3 6795   4.485   1.762   3.064  1.9971 -1.0448  0.0453
    1SOL    MW4 6796   4.453   1.698   3.015  0.2050 -0.3088  0.2155
    1SOL     OW 6797   0.010   1.907   3.164  0.0604 -0.7611  0.2686
    1SOL    HW2 6798  -0.058   1.963   3.125 -0.6500 -1.3630  0.6263
    1SOL    HW3 6799   0.092   1.948   3.138 -0.4590  0.8121  1.0308
    1SOL    MW4 6800   0.012   1.920   3.155 -0.1018 -0.6330  0.4165
    1SOL     OW 6801   0.215   2.054   3.044  0.0342 -0.0112 -0.2493
    1SOL    HW2 6802   0.198   2.141   3.079  1.0049  0.6959 -1.4730
    1SOL    HW3 6803   0.186   2.059   2.953 -0.6911 -1.2307 -0.0945
    1SOL    MW4 6804   0.209   2.066   3.037  0.0665 -0.0787 -0.3905
    1SOL     OW 6805   0.235   2.321   3.142  0.1333 -0.3652  0.0069
    1SOL    HW2 6806   0.241   2.335   3.237 -1.4429  0.5688  0.0079
    1SOL    HW3 6807   0.319   2.351   3.108 -0.1108  1.4130  0.9009
    1SOL    MW4 6808   0.247   2.327   3.150 -0.1069 -0.0074  0.1252
    1SOL     OW 6809   4.482   2.451   3.060  0.3438 -0.1982  0.1035
    1SOL    HW2 6810   4.480   2.539   3.097  1.3712  0.6239 -1.7185
    1SOL    HW3 6811   4.569   2.418   3.082 -0.0816 -0.8180  0.8870
    1SOL    MW4 6812   4.493   2.458   3.068  0.4230 -0.1717 -0.0336
    1SOL     OW 6813   4.481   2.706   3.157 -0.4419 -0.1718  0.5371
    1SOL    HW2 6814   4.495   2.721   3.251  0.3258 -0.0694  0.4098
    1SOL    HW3 6815   4.557   2.745   3.115 -0.0161 -1.5489 -0.0174
    1SOL    MW4 6816   4.493   2.713   3.164 -0.2847 -0.3402  0.4473
    1SOL     OW 6817   0.233   2.830   3.024  0.2757  0.5386 -0.1210
    1SOL    HW2 6818   0.311   2.782   3.052 -1.0136 -1.4447  0.1641
    1SOL    HW3 6819   0.228   2.814   2.930  0.6357  1.3256 -0.2814
    1SOL    MW4 6820   0.243   2.822   3.015  0.1531  0.3808 -0.1044
    1SOL     OW 6821   0.250   3.096   3.118 -0.0759  0.4683 -0.0818
    1SOL    HW2 6822   0.170   3.138   3.084  0.4778  1.9497  0.4185
    1SOL    HW3 6823   0.234   3.002   3.107 -1.2521  0.8115 -1.4143
    1SOL    MW4 6824   0.237   3.089   3.112 -0.1580  0.7093 -0.1915
    1SOL     OW 6825   0.017   3.206   3.026 -0.6273  0.4503  0.0295
    1SOL    HW2 6826  -0.061   3.173   3.071 -0.1074 -1.1553 -0.2101
    1SOL    HW3 6827  -0.008   3.208   2.934 -0.8040  1.1865  0.0869
    1SOL    MW4 6828   0.004   3.202   3.020 -0.5820  0.3352  0.0052
    1SOL     OW 6829   0.007   3.494   3.107  0.1418  0.0383 -0.7404
    1SOL    HW2 6830  -0.080   3.528   3.090 -0.9522 -1.5145  1.4909
    1SOL    HW3 6831   0.003   3.401   3.083  1.0581 -0.1286 -0.3158
    1SOL    MW4 6832  -0.005   3.486   3.102  0.1183 -0.1886 -0.3901
    1SOL     OW 6833   0.242   3.605   3.030  0.3950  0.0943  0.4210
    1SOL    HW2 6834   0.236   3.696   3.058  1.8403  0.3514 -0.0381
    1SOL    HW3 6835   0.166   3.563   3.069  0.6262  1.1213  2.0451
    1SOL    MW4 6836   0.231   3.612   3.039  0.6162  0.2637  0.5748
    1SOL     OW 6837   0.203   3.884   3.105  0.3783 -0.1908  0.3025
    1SOL    HW2 6838   0.205   3.876   3.201 -0.4957 -0.2871  0.3214
    1SOL    HW3 6839   0.286   3.926   3.083 -0.4044  2.0160  1.3240
    1SOL    MW4 6840   0.214   3.889   3.115  0.1597  0.0875  0.4399
    1SOL     OW 6841   4.461   4.000   2.998 -0.0401  0.3474 -0.3896
    1SOL    HW2 6842   4.537   3.954   3.034 -0.2115 -0.1364 -0.6357
    1SOL    HW3 6843   4.484   4.015   2.906 -0.9133 -1.2921 -0.9063
    1SOL    MW4 6844   4.474   3.996   2.991 -0.1779  0.0672 -0.4900
    1SOL     OW 6845   4.490   4.251   3.121  0.0650 -0.2840  0.2104
    1SOL    HW2 6846   4.487   4.249   3.217 -0.2966  0.2817  0.2126
    1SOL    HW3 6847   4.482   4.159   3.096  1.4512 -0.5580  0.7572
    1SOL    MW4 6848   4.488   4.238   3.131  0.2002 -0.2456  0.2828
    1SOL     OW 6849   0.243   4.388   3.034  0.3057 -0.0055  0.3098
    1SOL    HW2 6850   0.175   4.326   3.064 -0.1362 -0.5484 -1.7578
    1SOL    HW3 6851   0.223   4.469   3.081 -2.1956  0.0340 -0.7199
    1SOL    MW4 6852   0.231   4.390   3.044 -0.0826 -0.0720 -0.0987
    1SOL     OW 6853   0.688   4.661   3.098  0.2667  0.2120 -0.6027
    1SOL    HW2 6854   0.698   4.567   3.082 -0.6797 -0.0481  0.2966
    1SOL    HW3 6855   0.601   4.682   3.065 -1.1330 -0.0394  2.7183
    1SOL    MW4 6856   0.678   4.652   3.092 -0.0429  0.1450 -0.0455
    1SOL     OW 6857   0.449   0.071   2.986  0.4114 -0.3236  0.0092
    1SOL    HW2 6858   0.448   0.165   3.003  0.1892 -0.2197 -0.5511
    1SOL    HW3 6859   0.384   0.035   3.045  0.1651 -0.0622 -0.0979
    1SOL    MW4 6860   0.440   0.079   2.996  0.3496 -0.2754 -0.0792
    1SOL     OW 6861   0.424   0.330   3.069 -0.0692 -0.0871 -0.5134
    1SOL    HW2 6862   0.442   0.317   3.163  1.9177 -2.1539 -1.1273
    1SOL    HW3 6863   0.494   0.389   3.040 -0.3670  0.1195 -0.8018
    1SOL    MW4 6864   0.436   0.336   3.078  0.1537 -0.3326 -0.6325
    1SOL     OW 6865   0.654   0.497   3.000 -0.3085 -0.2434 -0.1251
    1SOL    HW2 6866   0.728   0.462   3.050  0.0913  1.3663  0.4295
    1SOL    HW3 6867   0.644   0.586   3.031 -1.1826  0.2183 -1.6777
    1SOL    MW4 6868   0.663   0.504   3.011 -0.3710  0.0299 -0.2568
    1SOL     OW 6869   0.643   0.761   3.092 -0.4794  0.4262 -0.3353
    1SOL    HW2 6870   0.639   0.769   3.188 -0.1206 -0.8300 -0.1989
    1SOL    HW3 6871   0.564   0.804   3.061 -0.9712  0.1966  0.5787
    1SOL    MW4 6872   0.632   0.768   3.101 -0.4969  0.2301 -0.1967
    1SOL     OW 6873   0.397   0.880   3.022  0.2583  0.6379 -0.4244
    1SOL    HW2 6874   0.326   0.829   3.060  0.5484  0.1349 -0.5622
    1SOL    HW3 6875   0.389   0.865   2.927  0.0705  1.2021 -0.5027
    1SOL    MW4 6876   0.386   0.872   3.014  0.2718  0.6459 -0.4528
    1SOL     OW 6877   0.440   1.131   3.125 -0.4432  0.0940  0.2365
    1SOL    HW2 6878   0.441   1.037   3.108  0.4647  0.0827  0.3532
    1SOL    HW3 6879   0.355   1.160   3.091 -0.5116 -0.6761 -0.2694
    1SOL    MW4 6880   0.429   1.122   3.118 -0.3324 -0.0092  0.1850
    1SOL     OW 6881   0.668   1.251   2.987 -0.4334  0.0828  0.6865
    1SOL    HW2 6882   0.746   1.213   3.027  0.6304  0.8432 -0.6164
    1SOL    HW3 6883   0.595   1.223   3.044  0.8018 -0.4365  2.0421
    1SOL    MW4 6884   0.668   1.242   3.000 -0.1301  0.1147  0.6936
    1SOL     OW 6885   0.649   1.531   3.051  0.1177  0.3547  0.4011
    1SOL    HW2 6886   0.643   1.534   3.147 -2.2993 -1.0390  0.3381
    1SOL    HW3 6887   0.649   1.438   3.030 -1.3085  0.6653 -1.0418
    1SOL    MW4 6888   0.648   1.519   3.061 -0.3895  0.2117  0.2024
    1SOL     OW 6889   0.424   1.670   3.001  0.0419  0.0186  0.2111
    1SOL    HW2 6890   0.497   1.616   3.030  0.2607 -0.1622 -0.6737
    1SOL    HW3 6891   0.346   1.620   3.026  0.2428 -0.8046 -0.7640
    1SOL    MW4 6892   0.423   1.656   3.008  0.0973 -0.1138 -0.0343
    1SOL     OW 6893   0.453   1.923   3.113 -0.3516  0.0621 -0.8498
    1SOL    HW2 6894   0.441   1.836   3.077 -1.8255 -0.4118  0.7242
    1SOL    HW3 6895   0.378   1.973   3.082 -1.3641 -0.2126  1.0900
    1SOL    MW4 6896   0.442   1.918   3.104 -0.6797 -0.0366 -0.3865
    1SOL     OW 6897   0.662   2.073   3.018 -0.1222  0.3374  0.0966
    1SOL    HW2 6898   0.746   2.036   3.046  0.1054  0.3128 -0.6081
    1SOL    HW3 6899   0.597   2.026   3.070  0.1495 -1.1338 -0.8653
    1SOL    MW4 6900   0.665   2.062   3.028 -0.0562  0.1400 -0.1233
    1SOL     OW 6901   0.677   2.328   3.126  0.4309  0.2773 -0.3706
    1SOL    HW2 6902   0.661   2.309   3.219 -1.3076  1.3142 -0.4267
    1SOL    HW3 6903   0.665   2.244   3.082 -0.7447  0.1660  0.1277
    1SOL    MW4 6904   0.673   2.314   3.133  0.0464  0.3994 -0.3121
    1SOL     OW 6905   0.449   2.428   3.011  0.5621  0.4529 -0.5420
    1SOL    HW2 6906   0.535   2.400   3.043 -0.0408 -0.3381  0.4279
    1SOL    HW3 6907   0.457   2.429   2.916  1.6056  0.2514 -0.4582
    1SOL    MW4 6908   0.461   2.425   3.003  0.6202  0.3221 -0.4029
    1SOL     OW 6909   0.446   2.685   3.125  0.1858  0.1780  0.5998
    1SOL    HW2 6910   0.520   2.731   3.086 -0.6142  0.6032 -0.4704
    1SOL    HW3 6911   0.450   2.597   3.087 -1.7408  1.1693 -2.0978
    1SOL    MW4 6912   0.456   2.679   3.115 -0.1739  0.3653  0.1028
    1SOL     OW 6913   0.660   2.817   3.003 -0.1468  0.3184  0.4371
    1SOL    HW2 6914   0.742   2.770   3.016 -0.6564 -1.0186 -0.9779
    1SOL    HW3 6915   0.676   2.905   3.038  1.8105  0.0152  0.3383
    1SOL    MW4 6916   0.673   2.823   3.010  0.0442  0.1020  0.2372
    1SOL     OW 6917   0.743   3.084   3.119 -0.0656  0.7920  0.2535
    1SOL    HW2 6918   0.742   3.066   3.213  0.3378 -0.7565 -0.0343
    1SOL    HW3 6919   0.664   3.137   3.105 -0.6838  0.1846  1.3033
    1SOL    MW4 6920   0.732   3.089   3.130 -0.0939  0.5074  0.3541
    1SOL     OW 6921   0.497   3.213   3.024 -0.0078  0.1305 -0.6850
    1SOL    HW2 6922   0.486   3.305   3.044  0.4342  0.0415 -0.0193
    1SOL    HW3 6923   0.420   3.170   3.060 -0.4507  0.3007 -1.4251
    1SOL    MW4 6924   0.486   3.219   3.031 -0.0079  0.1411 -0.6950
    1SOL     OW 6925   0.483   3.485   3.131  0.1173 -0.5383 -0.4455
    1SOL    HW2 6926   0.480   3.516   3.222  1.6658 -0.3200 -0.4536
    1SOL    HW3 6927   0.404   3.520   3.091 -0.1427  0.0860  0.5956
    1SOL    MW4 6928   0.472   3.494   3.138  0.2873 -0.4272 -0.3090
    1SOL     OW 6929   0.680   3.629   3.003 -0.5115  0.0746 -0.1870
    1SOL    HW2 6930   0.760   3.592   3.039 -0.9981 -0.3983  0.4188
    1SOL    HW3 6931   0.610   3.580   3.045 -1.0935 -0.4395 -1.7260
    1SOL    MW4 6932   0.681   3.617   3.013 -0.6525 -0.0556 -0.3102
    1SOL     OW 6933   0.686   3.885   3.102  0.5309  0.2495 -0.2073
    1SOL    HW2 6934   0.673   3.863   3.194 -0.6698  0.5188 -0.2946
    1SOL    HW3 6935   0.701   3.801   3.059 -0.7969 -0.0801 -0.0449
    1SOL    MW4 6936   0.686   3.871   3.108  0.1973  0.2418 -0.1972
    1SOL     OW 6937   0.450   4.019   3.028 -0.2453  0.0137  0.1599
    1SOL    HW2 6938   0.527   3.971   3.059  1.2474  0.9982 -1.9354
    1SOL    HW3 6939   0.442   3.994   2.936 -1.9375  0.5906  0.1450
    1SOL    MW4 6940   0.459   4.009   3.020 -0.2716  0.2198 -0.1185
    1SOL     OW 6941   0.452   4.255   3.161 -0.0179  0.3549 -0.3200
    1SOL    HW2 6942   0.453   4.176   3.108 -1.5238 -0.1138  0.3336
    1SOL    HW3 6943   0.393   4.315   3.115  0.2967  0.7197 -0.2574
    1SOL    MW4 6944   0.444   4.253   3.148 -0.1751  0.3409 -0.2253
    1SOL     OW 6945   0.663   4.385   3.027 -0.3549  0.0652  0.2728
    1SOL    HW2 6946   0.578   4.358   3.064 -1.2512  2.0678 -0.2507
    1SOL    HW3 6947   0.646   4.398   2.934  1.0458 -1.4838 -0.2273
    1SOL    MW4 6948   0.649   4.383   3.020 -0.2883  0.1249  0.1376
    1SOL     OW 6949   1.138   0.002   3.118  0.5159  0.4383  0.0315
    1SOL    HW2 6950   1.215   0.038   3.074  0.1824  0.2306 -0.7448
    1SOL    HW3 6951   1.065   0.052   3.081  0.2264  0.2402  0.3383
    1SOL    MW4 6952   1.139   0.014   3.107  0.4338  0.3843 -0.0305
    1SOL     OW 6953   0.907   0.133   3.004 -0.0410  0.1863  0.1639
    1SOL    HW2 6954   0.888   0.217   3.045  0.7215  0.6825 -0.4852
    1SOL    HW3 6955   0.835   0.076   3.030 -0.1554  0.8229  1.2396
    1SOL    MW4 6956   0.895   0.137   3.013  0.0445  0.3357  0.2201
    1SOL     OW 6957   0.888   0.386   3.101  0.4365 -0.0164  0.2582
    1SOL    HW2 6958   0.904   0.382   3.195 -0.4022  0.9530  0.4516
    1SOL    HW3 6959   0.968   0.425   3.065  0.8762 -0.6618  0.5235
    1SOL    MW4 6960   0.901   0.391   3.108  0.3838  0.0263  0.3185
    1SOL     OW 6961   1.129   0.515   3.025 -0.4696 -0.8548  0.1960
    1SOL    HW2 6962   1.212   0.479   3.056  0.3049  1.6801  1.1450
    1SOL    HW3 6963   1.125   0.490   2.932  0.5434 -2.3943  0.5451
    1SOL    MW4 6964   1.139   0.507   3.017 -0.2338 -0.7235  0.3674
    1SOL     OW 6965   1.088   0.774   3.104  0.2024  0.0515 -0.2926
    1SOL    HW2 6966   1.109   0.771   3.197  1.0250 -0.4858 -0.4898
    1SOL    HW3 6967   1.073   0.682   3.079 -1.8539  0.3448 -0.2938
    1SOL    MW4 6968   1.088   0.761   3.113  0.0397  0.0193 -0.3188
    1SOL     OW 6969   0.868   0.893   3.021  0.2257 -0.4472  0.0456
    1SOL    HW2 6970   0.945   0.851   3.059  0.0726  0.2757  1.1917
    1SOL    HW3 6971   0.795   0.836   3.046  0.2594 -0.5650 -0.1242
    1SOL    MW4 6972   0.868   0.880   3.030  0.2099 -0.3673  0.1743
    1SOL     OW 6973   0.868   1.141   3.118  0.0148 -0.8302 -0.2607
    1SOL    HW2 6974   0.955   1.178   3.105  0.4607 -1.3474  1.0739
    1SOL    HW3 6975   0.871   1.057   3.071 -0.4715  0.0997 -1.9662
    1SOL    MW4 6976   0.880   1.135   3.110  0.0095 -0.7757 -0.3097
    1SOL     OW 6977   1.077   1.300   3.043  0.0822 -0.3569  0.0363
    1SOL    HW2 6978   1.153   1.249   3.072 -0.6109 -0.7026  1.2800
    1SOL    HW3 6979   1.075   1.288   2.948  1.4949 -0.4645  0.0110
    1SOL    MW4 6980   1.087   1.292   3.034  0.1771 -0.4168  0.1972
    1SOL     OW 6981   1.115   1.563   3.120 -0.0598 -0.2095 -0.2962
    1SOL    HW2 6982   1.205   1.585   3.094  0.1592 -0.6075  0.1265
    1SOL    HW3 6983   1.106   1.470   3.099  0.4622 -0.8070  1.9732
    1SOL    MW4 6984   1.126   1.554   3.114  0.0379 -0.3408  0.0589
    1SOL     OW 6985   0.870   1.676   3.014  0.4160 -0.1057 -0.2974
    1SOL    HW2 6986   0.942   1.635   3.061  1.0345 -0.0282 -1.1684
    1SOL    HW3 6987   0.795   1.619   3.029  0.7734 -0.4319  0.2299
    1SOL    MW4 6988   0.869   1.663   3.022  0.5447 -0.1385 -0.3426
    1SOL     OW 6989   0.904   1.939   3.088 -0.3508  0.4722 -0.3227
    1SOL    HW2 6990   0.913   1.940   3.184 -1.7498 -1.0268 -0.1558
    1SOL    HW3 6991   0.885   1.848   3.066  0.1266  0.7784 -2.0556
    1SOL    MW4 6992   0.902   1.927   3.098 -0.4724  0.3148 -0.5293
    1SOL     OW 6993   1.135   2.057   3.036 -0.0409  0.0513 -0.1672
    1SOL    HW2 6994   1.047   2.027   3.058 -0.1653  0.6427  0.1353
    1SOL    HW3 6995   1.141   2.047   2.941  0.8912 -3.6035  0.1906
    1SOL    MW4 6996   1.124   2.052   3.026  0.0657 -0.3529 -0.0799
    1SOL     OW 6997   1.157   2.325   3.132  0.0408 -0.3549 -0.3177
    1SOL    HW2 6998   1.069   2.344   3.100  0.6000  0.7872 -1.2132
    1SOL    HW3 6999   1.176   2.237   3.101 -0.4556 -0.2702 -0.8570
    1SOL    MW4 7000   1.148   2.316   3.124  0.0491 -0.1931 -0.5071
    1SOL     OW 7001   0.920   2.412   3.021 -0.2865  0.3910 -0.1115
    1SOL    HW2 7002   0.838   2.377   3.053 -0.0099  0.0195  0.1912
    1SOL    HW3 7003   0.911   2.412   2.926 -0.4796 -0.0343 -0.0932
    1SOL    MW4 7004   0.908   2.407   3.013 -0.2755  0.2859 -0.0691
    1SOL     OW 7005   0.913   2.699   3.075  0.0058 -0.5268 -0.3675
    1SOL    HW2 7006   0.907   2.690   3.170  1.1165 -0.6356 -0.3086
    1SOL    HW3 7007   0.929   2.610   3.044  1.7132 -0.1948 -0.4891
    1SOL    MW4 7008   0.914   2.686   3.083  0.3776 -0.4973 -0.3757
    1SOL     OW 7009   1.147   2.840   3.061  0.2403  0.4946  0.5603
    1SOL    HW2 7010   1.150   2.923   3.108 -1.3833  0.7473  0.2323
    1SOL    HW3 7011   1.063   2.801   3.085  0.5450 -0.5825 -0.0791
    1SOL    MW4 7012   1.137   2.846   3.070  0.0664  0.3858  0.4327
    1SOL     OW 7013   1.153   3.086   3.171  0.2628  0.1167  0.0946
    1SOL    HW2 7014   1.226   3.123   3.120 -0.0395 -1.7538 -1.8005
    1SOL    HW3 7015   1.075   3.128   3.135  0.3772  1.9952  2.0095
    1SOL    MW4 7016   1.152   3.096   3.159  0.2378  0.1180  0.0975
    1SOL     OW 7017   0.954   3.233   3.040  0.4343 -0.1422 -0.2838
    1SOL    HW2 7018   0.886   3.182   3.083  1.9524 -0.6087  1.6306
    1SOL    HW3 7019   0.948   3.208   2.948 -0.0833 -2.3562  0.3171
    1SOL    MW4 7020   0.945   3.223   3.034  0.5663 -0.4959  0.0482
    1SOL     OW 7021   0.909   3.500   3.102 -0.0527 -0.0519  0.2003
    1SOL    HW2 7022   0.984   3.550   3.070  0.6785  0.0197  1.9745
    1SOL    HW3 7023   0.920   3.413   3.064  0.3477  0.2523 -0.3850
    1SOL    MW4 7024   0.920   3.495   3.093  0.0966 -0.0024  0.3572
    1SOL     OW 7025   1.144   3.645   3.016  0.2607 -0.0913 -0.0507
    1SOL    HW2 7026   1.209   3.587   3.056  0.5274 -0.4004 -0.9347
    1SOL    HW3 7027   1.149   3.725   3.069  1.5370 -0.0195 -0.2566
    1SOL    MW4 7028   1.153   3.648   3.028  0.4643 -0.1225 -0.1945
    1SOL     OW 7029   1.124   3.874   3.155  0.0297  0.3634 -0.1964
    1SOL    HW2 7030   1.108   3.889   3.248 -0.4251 -3.6674  0.4441
    1SOL    HW3 7031   1.051   3.917   3.111 -0.8595  0.5215  1.4009
    1SOL    MW4 7032   1.112   3.882   3.162 -0.1477 -0.1476  0.0987
    1SOL     OW 7033   0.913   4.023   3.027 -0.5502  0.1511  0.1536
    1SOL    HW2 7034   0.830   3.982   3.049  0.0903 -0.9424  0.5417
    1SOL    HW3 7035   0.912   4.031   2.932 -0.9746 -0.1028  0.1390
    1SOL    MW4 7036   0.902   4.019   3.018 -0.5217 -0.0267  0.2029
    1SOL     OW 7037   0.911   4.275   3.115 -0.1075  0.4208 -0.4072
    1SOL    HW2 7038   0.902   4.185   3.084  0.8408  0.1754  0.0116
    1SOL    HW3 7039   0.830   4.318   3.088 -0.9086 -0.7632  0.0810
    1SOL    MW4 7040   0.899   4.269   3.108 -0.0880  0.2327 -0.2878
    1SOL     OW 7041   1.117   4.416   3.000  0.0122  0.3608  0.0303
    1SOL    HW2 7042   1.037   4.380   3.039  0.1680  0.5092  0.4840
    1SOL    HW3 7043   1.138   4.492   3.054  0.8215 -0.0541  0.3149
    1SOL    MW4 7044   1.109   4.421   3.012  0.1396  0.3257  0.1278
    1SOL     OW 7045   1.600   4.650   3.119 -0.4038 -0.7016  0.5749
    1SOL    HW2 7046   1.597   4.648   3.214 -0.2847  0.0660  0.5939
    1SOL    HW3 7047   1.513   4.681   3.093 -0.1395 -0.0575  0.4590
    1SOL    MW4 7048   1.588   4.654   3.128 -0.3532 -0.5153  0.5620
    1SOL     OW 7049   1.363   0.114   3.004 -0.1927  0.0263 -0.1331
    1SOL    HW2 7050   1.355   0.204   3.036  2.2115  0.4121 -0.5604
    1SOL    HW3 7051   1.350   0.120   2.910  0.1008 -0.0436 -0.1793
    1SOL    MW4 7052   1.360   0.127   2.996  0.1632  0.0680 -0.1953
    1SOL     OW 7053   1.363   0.386   3.115  0.3420 -0.2536  0.2290
    1SOL    HW2 7054   1.361   0.391   3.210  0.5742  0.9615  0.1770
    1SOL    HW3 7055   1.437   0.441   3.089  1.1134 -1.6411 -0.5945
    1SOL    MW4 7056   1.372   0.394   3.124  0.4743 -0.2764  0.1135
    1SOL     OW 7057   1.587   0.535   3.016 -0.0240 -0.0784  0.5462
    1SOL    HW2 7058   1.586   0.628   3.042 -1.8248 -0.0125  0.3334
    1SOL    HW3 7059   1.564   0.536   2.923 -1.5419 -0.8144  0.8969
    1SOL    MW4 7060   1.584   0.548   3.007 -0.4618 -0.1668  0.5643
    1SOL     OW 7061   1.555   0.797   3.120  0.1394 -0.0431 -0.5120
    1SOL    HW2 7062   1.551   0.813   3.214  1.5172 -1.9286 -0.1212
    1SOL    HW3 7063   1.484   0.851   3.084  0.3660  1.6324  1.4499
    1SOL    MW4 7064   1.545   0.807   3.128  0.3512 -0.0708 -0.2019
    1SOL     OW 7065   1.314   0.903   2.987  0.0437  0.5125  0.0763
    1SOL    HW2 7066   1.335   0.987   3.028  0.9111 -0.5236  1.8271
    1SOL    HW3 7067   1.223   0.886   3.012 -0.0027  0.7380  0.0617
    1SOL    MW4 7068   1.305   0.912   2.996  0.1520  0.4055  0.3054
    1SOL     OW 7069   1.309   1.161   3.110  0.1839 -0.0067  0.1756
    1SOL    HW2 7070   1.322   1.145   3.203  1.6771 -1.6201 -0.2731
    1SOL    HW3 7071   1.391   1.202   3.081 -0.4277  0.8670 -0.3543
    1SOL    MW4 7072   1.322   1.164   3.119  0.3004 -0.1043  0.0465
    1SOL     OW 7073   1.551   1.259   3.053  0.2576 -0.3151  0.3514
    1SOL    HW2 7074   1.638   1.225   3.076  0.6866  0.0518 -0.7097
    1SOL    HW3 7075   1.554   1.351   3.077  0.4085 -0.1342 -0.3614
    1SOL    MW4 7076   1.563   1.266   3.059  0.3341 -0.2428  0.1175
    1SOL     OW 7077   1.576   1.531   3.136 -0.5145  0.4274  0.2996
    1SOL    HW2 7078   1.647   1.587   3.105 -0.9078  0.7359 -0.0379
    1SOL    HW3 7079   1.497   1.569   3.098 -0.6796 -0.9606 -0.7692
    1SOL    MW4 7080   1.575   1.543   3.127 -0.5881  0.2849  0.1140
    1SOL     OW 7081   1.364   1.667   3.036  0.4757 -0.0088 -0.1220
    1SOL    HW2 7082   1.381   1.758   3.060 -1.6396  0.9175 -1.9945
    1SOL    HW3 7083   1.389   1.662   2.943 -0.9184 -0.9193 -0.4560
    1SOL    MW4 7084   1.370   1.678   3.027  0.0126 -0.0067 -0.4132
    1SOL     OW 7085   1.373   1.939   3.147  0.0293 -0.4087 -0.2973
    1SOL    HW2 7086   1.361   1.915   3.239 -1.3203 -0.8689 -0.5890
    1SOL    HW3 7087   1.292   1.984   3.123  0.4371 -0.1684 -1.2327
    1SOL    MW4 7088   1.361   1.942   3.156 -0.0949 -0.4377 -0.4594
    1SOL     OW 7089   1.583   2.039   3.005 -0.3161 -0.1451 -0.0869
    1SOL    HW2 7090   1.510   2.015   3.063  0.0976 -0.7873  0.1674
    1SOL    HW3 7091   1.595   2.133   3.021 -0.7533 -0.1413  0.2467
    1SOL    MW4 7092   1.575   2.049   3.015 -0.3192 -0.2296 -0.0093
    1SOL     OW 7093   1.617   2.311   3.108  0.3555 -0.0254  0.0597
    1SOL    HW2 7094   1.542   2.353   3.066 -0.3524 -0.4715  0.8549
    1SOL    HW3 7095   1.599   2.318   3.202  2.1597  1.3985  0.3169
    1SOL    MW4 7096   1.605   2.317   3.115  0.5000  0.1037  0.1984
    1SOL     OW 7097   1.389   2.441   3.019 -0.1144  0.3090 -0.1180
    1SOL    HW2 7098   1.309   2.395   3.045 -1.3030  1.9460 -0.8131
    1SOL    HW3 7099   1.375   2.466   2.928  0.6975  1.6162  0.0919
    1SOL    MW4 7100   1.377   2.438   3.011 -0.1642  0.6974 -0.1819
    1SOL     OW 7101   1.352   2.682   3.144 -0.1171 -0.1359  0.1080
    1SOL    HW2 7102   1.353   2.596   3.102 -0.7625 -0.5025  0.8294
    1SOL    HW3 7103   1.272   2.724   3.111  0.9306  0.7669 -1.3629
    1SOL    MW4 7104   1.342   2.676   3.134 -0.0640 -0.0651  0.0091
    1SOL     OW 7105   1.515   2.884   3.043 -0.0864  0.3806 -0.2620
    1SOL    HW2 7106   1.595   2.860   3.090  0.2562  0.1539 -0.9517
    1SOL    HW3 7107   1.452   2.817   3.068  0.1203  0.2153 -0.1797
    1SOL    MW4 7108   1.518   2.872   3.052 -0.0139  0.3285 -0.3419
    1SOL     OW 7109   1.571   3.155   3.148 -0.1449 -0.0598 -0.0962
    1SOL    HW2 7110   1.582   3.123   3.238 -1.1747 -1.4961 -0.4610
    1SOL    HW3 7111   1.557   3.075   3.096 -2.2843  0.9364 -1.1111
    1SOL    MW4 7112   1.570   3.140   3.153 -0.5630 -0.1178 -0.2782
    1SOL     OW 7113   1.344   3.260   3.045  0.6873  0.2219 -0.3140
    1SOL    HW2 7114   1.420   3.223   3.089  0.4739 -1.7453 -1.5047
    1SOL    HW3 7115   1.367   3.256   2.952 -0.8134 -0.2912 -0.6727
    1SOL    MW4 7116   1.357   3.254   3.038  0.4612 -0.1054 -0.5183
    1SOL     OW 7117   1.348   3.516   3.131  0.0455 -0.1449 -0.1848
    1SOL    HW2 7118   1.351   3.498   3.225 -0.5290 -1.1375 -0.3442
    1SOL    HW3 7119   1.338   3.430   3.090  1.1508  0.1950 -1.2093
    1SOL    MW4 7120   1.347   3.502   3.138  0.1155 -0.2308 -0.3407
    1SOL     OW 7121   1.583   3.634   3.048 -0.1638 -0.1108 -0.0436
    1SOL    HW2 7122   1.500   3.596   3.078  0.2503 -0.6299  0.4346
    1SOL    HW3 7123   1.572   3.644   2.954 -0.7653 -0.1904  0.0159
    1SOL    MW4 7124   1.570   3.630   3.040 -0.1887 -0.1895  0.0274
    1SOL     OW 7125   1.568   3.907   3.168 -0.1664 -0.5985  0.0301
    1SOL    HW2 7126   1.634   3.960   3.123 -0.3475  0.8930  1.4569
    1SOL    HW3 7127   1.571   3.822   3.124  1.6432 -0.0769 -0.8998
    1SOL    MW4 7128   1.577   3.903   3.156  0.0484 -0.3328  0.0954
    1SOL     OW 7129   1.341   3.984   3.016 -0.0803  0.1653  0.2075
    1SOL    HW2 7130   1.421   3.984   3.069  0.1032 -1.3118 -0.0591
    1SOL    HW3 7131   1.278   3.935   3.068 -1.4447  2.9287  1.2932
    1SOL    MW4 7132   1.343   3.978   3.030 -0.2363  0.3350  0.3157
    1SOL     OW 7133   1.309   4.234   3.109  0.2293 -0.4569 -0.3771
    1SOL    HW2 7134   1.299   4.148   3.067  1.6047 -0.2020 -1.2902
    1SOL    HW3 7135   1.238   4.286   3.072  0.7321 -0.5721 -1.5538
    1SOL    MW4 7136   1.298   4.229   3.098  0.4771 -0.4387 -0.6530
    1SOL     OW 7137   1.529   4.383   3.006  0.0619 -0.3864 -0.0907
    1SOL    HW2 7138   1.451   4.356   3.055 -0.5341  0.3897 -0.5938
    1SOL    HW3 7139   1.556   4.465   3.048 -0.2173  0.0720 -0.8097
    1SOL    MW4 7140   1.522   4.390   3.018 -0.0536 -0.2236 -0.2520
    1SOL     OW 7141   2.026   0.003   3.104  0.2820 -0.2467 -0.1309
    1SOL    HW2 7142   2.040   0.002   3.199  0.4994 -0.4549 -0.1646
    1SOL    HW3 7143   1.939   0.043   3.093  0.3941  0.0714  0.1367
    1SOL    MW4 7144   2.016   0.008   3.115  0.3259 -0.2322 -0.0999
    1SOL     OW 7145   1.788   0.143   2.990  0.2969 -0.4114 -0.5160
    1SOL    HW2 7146   1.711   0.094   3.018  1.0788 -2.3241 -1.6207
    1SOL    HW3 7147   1.782   0.145   2.895  0.4764  1.3349 -0.5014
    1SOL    MW4 7148   1.777   0.136   2.982  0.4238 -0.4333 -0.6599
    1SOL     OW 7149   1.787   0.394   3.109  0.1813 -0.1271 -0.0152
    1SOL    HW2 7150   1.782   0.318   3.052 -0.6377 -1.4377  1.7285
    1SOL    HW3 7151   1.714   0.450   3.080 -0.9366 -1.3037  0.4418
    1SOL    MW4 7152   1.776   0.392   3.098 -0.0743 -0.4553  0.2751
    1SOL     OW 7153   2.029   0.498   3.048 -0.1167  0.4893 -0.2809
    1SOL    HW2 7154   1.946   0.466   3.084  0.2414 -0.1914 -0.0427
    1SOL    HW3 7155   2.013   0.507   2.954  0.0546 -1.3586 -0.5141
    1SOL    MW4 7156   2.016   0.495   3.040 -0.0467  0.1557 -0.2804
    1SOL     OW 7157   2.012   0.754   3.165  0.0312  0.3900  0.0413
    1SOL    HW2 7158   1.936   0.785   3.115 -0.7857 -0.5705  0.6797
    1SOL    HW3 7159   2.028   0.666   3.131  0.5944  0.4304  0.2057
    1SOL    MW4 7160   2.004   0.747   3.154 -0.0021  0.2685  0.1473
    1SOL     OW 7161   1.809   0.856   3.015  0.7372  0.7226  0.1712
    1SOL    HW2 7162   1.724   0.840   3.056  0.8335  2.4855  1.1273
    1SOL    HW3 7163   1.797   0.829   2.924 -1.1275  1.7776  0.0713
    1SOL    MW4 7164   1.796   0.850   3.009  0.5039  1.0944  0.2840
    1SOL     OW 7165   1.785   1.122   3.111 -0.2060 -0.0206 -0.0335
    1SOL    HW2 7166   1.779   1.120   3.206 -0.8241 -0.4780 -0.0817
    1SOL    HW3 7167   1.786   1.030   3.084 -1.0008  0.1122 -0.5263
    1SOL    MW4 7168   1.784   1.110   3.120 -0.3924 -0.0633 -0.1049
    1SOL     OW 7169   2.021   1.253   3.004 -0.3595  0.0185  0.2867
    1SOL    HW2 7170   2.105   1.225   3.042 -0.8051 -4.1171 -1.5633
    1SOL    HW3 7171   1.955   1.211   3.059 -1.1307 -0.4586 -0.9994
    1SOL    MW4 7172   2.024   1.244   3.016 -0.5200 -0.5901 -0.1268
    1SOL     OW 7173   2.019   1.532   3.128 -0.1873 -0.2195  0.1220
    1SOL    HW2 7174   2.020   1.518   3.223 -0.0545 -0.7146  0.0429
    1SOL    HW3 7175   1.997   1.447   3.091  2.2671 -0.6602 -0.4239
    1SOL    MW4 7176   2.016   1.519   3.136  0.1540 -0.3430  0.0398
    1SOL     OW 7177   1.813   1.665   3.002  0.0497  0.1649  0.1363
    1SOL    HW2 7178   1.810   1.754   3.036 -1.5537 -0.8771  2.9029
    1SOL    HW3 7179   1.886   1.624   3.047 -0.0942 -0.3223 -0.0684
    1SOL    MW4 7180   1.822   1.671   3.013 -0.1810 -0.0368  0.4745
    1SOL     OW 7181   1.803   1.920   3.127  0.0818 -0.3220 -0.2054
    1SOL    HW2 7182   1.874   1.981   3.107 -0.8052  1.7008  2.4431
    1SOL    HW3 7183   1.725   1.961   3.089 -0.0498 -1.3265 -1.0289
    1SOL    MW4 7184   1.802   1.934   3.119 -0.0526 -0.1876  0.0355
    1SOL     OW 7185   2.025   2.079   3.016  0.2433  0.2729 -0.2084
    1SOL    HW2 7186   2.095   2.028   3.057  0.9380  1.5274  0.1931
    1SOL    HW3 7187   2.046   2.170   3.038 -2.3808  0.5541  1.2442
    1SOL    MW4 7188   2.037   2.084   3.024 -0.0112  0.4756  0.0360
    1SOL     OW 7189   2.010   2.343   3.088  0.2038 -0.0685  0.1463
    1SOL    HW2 7190   2.082   2.395   3.054  0.4792  0.6767  1.8516
    1SOL    HW3 7191   1.935   2.403   3.088  0.1948 -0.0754  0.7990
    1SOL    MW4 7192   2.009   2.358   3.083  0.2391  0.0288  0.4575
    1SOL     OW 7193   1.805   2.504   3.039  0.3228 -0.1509  0.4520
    1SOL    HW2 7194   1.769   2.592   3.050 -0.3113 -0.5548  1.7558
    1SOL    HW3 7195   1.733   2.445   3.062  0.9863 -1.0033  0.3896
    1SOL    MW4 7196   1.791   2.508   3.043  0.3266 -0.3166  0.6156
    1SOL     OW 7197   1.756   2.763   3.105 -0.4434  0.9906  0.4061
    1SOL    HW2 7198   1.783   2.749   3.196  0.8661  0.6840 -0.0194
    1SOL    HW3 7199   1.830   2.809   3.065 -0.8818  0.8325 -0.5975
    1SOL    MW4 7200   1.769   2.767   3.112 -0.3283  0.9294  0.2177
    1SOL     OW 7201   2.009   2.877   2.992 -0.0510 -0.3267 -0.0263
    1SOL    HW2 7202   2.005   2.967   3.023 -0.5707 -0.4888  0.3759
    1SOL    HW3 7203   2.013   2.885   2.896  2.2366  0.1973  0.0751
    1SOL    MW4 7204   2.009   2.890   2.983  0.1824 -0.2789  0.0401
    1SOL     OW 7205   2.007   3.128   3.111 -0.4560  0.0324 -0.5979
    1SOL    HW2 7206   2.028   3.126   3.205  0.3208  1.8223 -0.7154
    1SOL    HW3 7207   1.927   3.179   3.106 -2.0402 -2.3658 -0.6737
    1SOL    MW4 7208   1.999   3.134   3.123 -0.5625 -0.0477 -0.6235
    1SOL     OW 7209   1.786   3.280   3.032  0.1338 -0.8484 -0.0721
    1SOL    HW2 7210   1.703   3.253   3.070  0.1307 -0.3687  0.2715
    1SOL    HW3 7211   1.771   3.280   2.938 -0.3722 -0.4029  0.0044
    1SOL    MW4 7212   1.773   3.277   3.025  0.0668 -0.7262 -0.0169
    1SOL     OW 7213   1.818   3.537   3.115  0.0500 -0.0432  0.6437
    1SOL    HW2 7214   1.806   3.445   3.088 -1.4999  0.3704 -0.1415
    1SOL    HW3 7215   1.735   3.579   3.092  1.0797  1.7612  0.1790
    1SOL    MW4 7216   1.805   3.530   3.108 -0.0186  0.2494  0.4790
    1SOL     OW 7217   2.061   3.632   3.018 -0.2177 -0.2106  0.0408
    1SOL    HW2 7218   2.074   3.718   3.058 -0.5597 -0.0600 -0.1677
    1SOL    HW3 7219   1.986   3.595   3.064  0.5415 -0.8159  0.8101
    1SOL    MW4 7220   2.053   3.639   3.029 -0.1626 -0.2706  0.1149
    1SOL     OW 7221   2.044   3.888   3.130 -0.1114 -0.0334  0.2344
    1SOL    HW2 7222   2.045   3.884   3.226 -0.7197 -1.6892  0.1806
    1SOL    HW3 7223   1.956   3.920   3.109 -0.1073 -0.0438  0.2022
    1SOL    MW4 7224   2.032   3.892   3.140 -0.1910 -0.2530  0.2232
    1SOL     OW 7225   1.794   4.002   3.019  0.3157  0.0477 -0.1513
    1SOL    HW2 7226   1.800   4.096   3.034 -2.0522  0.0345  1.3259
    1SOL    HW3 7227   1.801   3.991   2.925 -0.9416  1.8699 -0.4699
    1SOL    MW4 7228   1.795   4.013   3.009 -0.1628  0.2871  0.0012
    1SOL     OW 7229   1.795   4.260   3.089 -0.5977  0.1138  0.2228
    1SOL    HW2 7230   1.864   4.320   3.063 -0.0785  0.2346  1.8341
    1SOL    HW3 7231   1.714   4.304   3.063 -0.1857  1.1458  0.6512
    1SOL    MW4 7232   1.793   4.274   3.082 -0.4748  0.2656  0.4916
    1SOL     OW 7233   2.030   4.412   3.019 -0.0226 -0.0652 -0.0885
    1SOL    HW2 7234   2.032   4.504   3.046 -1.0014  0.2044 -0.8982
    1SOL    HW3 7235   2.044   4.415   2.925  0.7651 -0.8197 -0.0038
    1SOL    MW4 7236   2.032   4.425   3.010 -0.0482 -0.1287 -0.1843
    1SOL     OW 7237   2.471   4.655   3.077  0.2900 -0.2253  0.0705
    1SOL    HW2 7238   2.441   4.564   3.075  1.2294 -0.5600  0.9081
    1SOL    HW3 7239   2.401   4.704   3.033  0.0926 -1.4322 -0.9881
    1SOL    MW4 7240   2.457   4.649   3.071  0.3879 -0.4287  0.0415
    1SOL     OW 7241   2.252   0.152   2.988  0.0828  0.2672  0.2582
    1SOL    HW2 7242   2.256   0.225   3.049  1.2377 -1.0817  1.8180
    1SOL    HW3 7243   2.180   0.098   3.019 -0.7322  0.6787 -0.8614
    1SOL    MW4 7244   2.243   0.155   3.000  0.1276  0.1435  0.3164
    1SOL     OW 7245   2.262   0.377   3.122 -0.0382  0.1204  0.0997
    1SOL    HW2 7246   2.265   0.374   3.217  0.5115 -0.3318  0.0724
    1SOL    HW3 7247   2.174   0.407   3.101 -0.3083 -0.2173  0.7462
    1SOL    MW4 7248   2.251   0.380   3.132 -0.0017  0.0162  0.1812
    1SOL     OW 7249   2.499   0.518   3.012 -0.0468 -0.0030 -0.0365
    1SOL    HW2 7250   2.424   0.462   3.032  1.5192 -2.2846 -0.2565
    1SOL    HW3 7251   2.503   0.520   2.917 -0.1256  0.5298 -0.0287
    1SOL    MW4 7252   2.490   0.511   3.002  0.1493 -0.2338 -0.0648
    1SOL     OW 7253   2.480   0.783   3.100 -0.4594 -0.5024  0.5807
    1SOL    HW2 7254   2.554   0.825   3.057 -2.4848  0.2869 -2.2615
    1SOL    HW3 7255   2.491   0.690   3.082  0.2073 -0.4541  0.7408
    1SOL    MW4 7256   2.491   0.776   3.092 -0.6387 -0.3919  0.2267
    1SOL     OW 7257   2.215   0.903   3.017 -0.2878  0.5408  0.2178
    1SOL    HW2 7258   2.284   0.867   3.072 -1.0421  0.3876  1.0738
    1SOL    HW3 7259   2.138   0.850   3.037 -0.1212 -0.7584 -2.4110
    1SOL    MW4 7260   2.214   0.891   3.027 -0.3655  0.3492 -0.0165
    1SOL     OW 7261   2.261   1.159   3.101  0.4166  0.3864 -0.0331
    1SOL    HW2 7262   2.241   1.162   3.195 -1.7061 -1.3237 -0.3939
    1SOL    HW3 7263   2.246   1.068   3.076 -0.5218  1.1559 -2.3530
    1SOL    MW4 7264   2.257   1.148   3.111  0.0129  0.2624 -0.3867
    1SOL     OW 7265   2.497   1.280   3.020  0.3347  0.5278 -0.3357
    1SOL    HW2 7266   2.424   1.225   3.048  0.8333  0.6702  1.3327
    1SOL    HW3 7267   2.491   1.282   2.925 -2.1171  0.9265 -0.2014
    1SOL    MW4 7268   2.486   1.273   3.011  0.0770  0.5991 -0.0978
    1SOL     OW 7269   2.476   1.551   3.074 -0.0151 -0.5203  0.2900
    1SOL    HW2 7270   2.385   1.573   3.053 -0.0835  0.5174  1.6065
    1SOL    HW3 7271   2.487   1.462   3.041 -0.4548  0.5807 -3.0865
    1SOL    MW4 7272   2.465   1.542   3.067 -0.0823 -0.2382  0.0179
    1SOL     OW 7273   2.226   1.685   3.035 -0.1361 -0.2109  0.1986
    1SOL    HW2 7274   2.174   1.608   3.059  0.2349 -0.5137  0.0236
    1SOL    HW3 7275   2.214   1.693   2.941  1.9920 -1.6440 -0.2169
    1SOL    MW4 7276   2.217   1.676   3.026  0.1938 -0.4399  0.1206
    1SOL     OW 7277   2.232   1.937   3.134  0.4886 -0.4772  0.3003
    1SOL    HW2 7278   2.313   1.981   3.105  1.2087 -0.1357  2.7543
    1SOL    HW3 7279   2.238   1.849   3.095  0.2828  0.6737 -2.4960
    1SOL    MW4 7280   2.244   1.931   3.125  0.5565 -0.2803  0.2551
    1SOL     OW 7281   2.464   2.062   3.019 -0.6078 -0.3322 -0.1769
    1SOL    HW2 7282   2.545   2.014   3.034 -1.0618 -0.8493  0.6512
    1SOL    HW3 7283   2.454   2.063   2.924  0.7724  0.4221 -0.3246
    1SOL    MW4 7284   2.473   2.056   3.009 -0.4857 -0.3009 -0.0868
    1SOL     OW 7285   2.455   2.326   3.070  0.5360  0.0465  0.0824
    1SOL    HW2 7286   2.469   2.330   3.165 -0.8685  0.5609  0.2927
    1SOL    HW3 7287   2.458   2.232   3.050  0.4740 -0.0983  0.7103
    1SOL    MW4 7288   2.457   2.314   3.080  0.3426  0.0954  0.1929
    1SOL     OW 7289   2.254   2.484   2.991  0.4781  0.1518 -0.1819
    1SOL    HW2 7290   2.268   2.566   3.039 -0.0205 -0.3337  0.7961
    1SOL    HW3 7291   2.331   2.430   3.012  0.7745  0.3423 -0.7733
    1SOL    MW4 7292   2.266   2.488   3.000  0.4516  0.1125 -0.1309
    1SOL     OW 7293   2.225   2.748   3.122  0.4357  0.0941  0.6128
    1SOL    HW2 7294   2.299   2.797   3.086 -0.1716  0.4331 -0.1935
    1SOL    HW3 7295   2.151   2.774   3.068  0.2298 -2.2502 -0.2794
    1SOL    MW4 7296   2.225   2.758   3.110  0.3283 -0.1707  0.3889
    1SOL     OW 7297   2.458   2.849   2.974 -0.6206  0.3428  0.0249
    1SOL    HW2 7298   2.433   2.939   2.993  1.6257  1.0730 -0.3882
    1SOL    HW3 7299   2.458   2.843   2.879  1.5852  0.6116 -0.0132
    1SOL    MW4 7300   2.455   2.860   2.964 -0.0334  0.4747 -0.0346
    1SOL     OW 7301   2.403   3.104   3.094  0.0544  0.0935 -0.1149
    1SOL    HW2 7302   2.483   3.141   3.055  0.0484  0.1372 -0.0858
    1SOL    HW3 7303   2.332   3.154   3.054  0.0647  0.3676  0.2031
    1SOL    MW4 7304   2.404   3.116   3.083  0.0551  0.1354 -0.0691
    1SOL     OW 7305   2.212   3.253   2.985  0.1150 -0.0403 -0.2511
    1SOL    HW2 7306   2.212   3.328   3.044  0.3765 -0.1942 -0.0528
    1SOL    HW3 7307   2.144   3.195   3.020  1.6875 -1.0843  1.1296
    1SOL    MW4 7308   2.203   3.255   2.998  0.3569 -0.1981 -0.0432
    1SOL     OW 7309   2.272   3.505   3.143 -0.4444  0.0284 -0.0182
    1SOL    HW2 7310   2.349   3.523   3.088 -0.2676  0.7835  0.4775
    1SOL    HW3 7311   2.201   3.552   3.100 -0.7900 -1.2249 -0.8628
    1SOL    MW4 7312   2.273   3.513   3.130 -0.4668 -0.0372 -0.0641
    1SOL     OW 7313   2.479   3.598   2.994  0.4524 -0.0060  0.2436
    1SOL    HW2 7314   2.560   3.571   3.037  0.3976 -0.1181  0.2771
    1SOL    HW3 7315   2.466   3.688   3.023  0.1051 -0.2734  0.9189
    1SOL    MW4 7316   2.488   3.606   3.003  0.3994 -0.0560  0.3374
    1SOL     OW 7317   2.498   3.859   3.107  0.5733  0.2089 -0.0287
    1SOL    HW2 7318   2.490   3.858   3.203 -0.5680 -0.0878 -0.1171
    1SOL    HW3 7319   2.560   3.930   3.089  0.3550  0.6510  0.9052
    1SOL    MW4 7320   2.505   3.869   3.118  0.3939  0.2279  0.0827
    1SOL     OW 7321   2.258   3.982   2.974 -0.4799  0.4689  0.4735
    1SOL    HW2 7322   2.345   3.957   3.003 -0.8960 -0.2458  1.1065
    1SOL    HW3 7323   2.199   3.945   3.040 -1.3064  0.3562 -0.3270
    1SOL    MW4 7324   2.261   3.974   2.987 -0.6440  0.3598  0.4516
    1SOL     OW 7325   2.212   4.235   3.130  0.2764 -0.3403 -0.3843
    1SOL    HW2 7326   2.231   4.173   3.060 -2.4438 -3.7842  1.7956
    1SOL    HW3 7327   2.140   4.288   3.096 -0.9094 -1.8690 -0.2929
    1SOL    MW4 7328   2.205   4.234   3.116 -0.2391 -0.9961 -0.0844
    1SOL     OW 7329   2.431   4.383   3.061  0.0623  0.1482 -0.0583
    1SOL    HW2 7330   2.348   4.344   3.087  0.5193  0.0128  1.2466
    1SOL    HW3 7331   2.432   4.378   2.965 -0.9515 -0.8292 -0.0180
    1SOL    MW4 7332   2.420   4.377   3.052 -0.0112  0.0010  0.1192
    1SOL     OW 7333   2.912   0.036   3.132 -0.3017 -0.1203  0.1822
    1SOL    HW2 7334   2.980   0.083   3.083 -0.1331  0.5283  1.0379
    1SOL    HW3 7335   2.929  -0.057   3.114  1.3925 -0.0187  1.1541
    1SOL    MW4 7336   2.923   0.030   3.123 -0.0560 -0.0210  0.4232
    1SOL     OW 7337   2.699   0.142   2.996 -0.0966 -0.3557 -0.1501
    1SOL    HW2 7338   2.765   0.088   3.039 -0.1052 -0.2774 -0.0386
    1SOL    HW3 7339   2.616   0.103   3.022 -0.1458  0.3888  0.8524
    1SOL    MW4 7340   2.697   0.130   3.005 -0.1044 -0.2472 -0.0033
    1SOL     OW 7341   2.728   0.391   3.099  0.4406  0.3448 -0.0551
    1SOL    HW2 7342   2.712   0.301   3.070 -2.2110  1.0499 -0.9264
    1SOL    HW3 7343   2.650   0.439   3.072  1.4007  2.7236  1.2553
    1SOL    MW4 7344   2.716   0.385   3.092  0.2177  0.7517  0.0031
    1SOL     OW 7345   2.940   0.525   3.013 -0.7525 -0.3603 -0.1972
    1SOL    HW2 7346   2.873   0.482   3.067  0.1146 -0.5811  0.7260
    1SOL    HW3 7347   2.912   0.509   2.923 -1.3944 -1.3374  0.1637
    1SOL    MW4 7348   2.927   0.517   3.008 -0.7226 -0.5183 -0.0277
    1SOL     OW 7349   2.912   0.782   3.115  0.0166  0.0179  0.4351
    1SOL    HW2 7350   2.916   0.771   3.210  1.5749 -0.0527  0.3849
    1SOL    HW3 7351   2.926   0.694   3.080  3.1597  0.5591  0.1337
    1SOL    MW4 7352   2.915   0.769   3.123  0.6368  0.0799  0.3886
    1SOL     OW 7353   2.702   0.903   2.980 -0.0438 -0.0059  0.0174
    1SOL    HW2 7354   2.692   0.988   3.023 -1.6285 -1.1008  1.8955
    1SOL    HW3 7355   2.781   0.865   3.020  0.3201  0.3252 -0.3846
    1SOL    MW4 7356   2.711   0.909   2.991 -0.2046 -0.1067  0.2122
    1SOL     OW 7357   2.703   1.154   3.119 -0.1546 -0.2690  0.0346
    1SOL    HW2 7358   2.777   1.198   3.078  0.0946  0.4829  1.2795
    1SOL    HW3 7359   2.627   1.207   3.096 -0.0452  0.0226  0.3365
    1SOL    MW4 7360   2.703   1.166   3.111 -0.1073 -0.1312  0.2387
    1SOL     OW 7361   2.930   1.292   3.011  0.0006 -0.1364 -0.1539
    1SOL    HW2 7362   3.004   1.247   3.050 -0.6921 -0.6462  0.5998
    1SOL    HW3 7363   2.932   1.380   3.049  0.3274 -0.0901 -0.2780
    1SOL    MW4 7364   2.940   1.298   3.021 -0.0477 -0.1975 -0.0706
    1SOL     OW 7365   2.921   1.560   3.104  0.0193  0.2912  0.1892
    1SOL    HW2 7366   2.910   1.567   3.199  0.3837 -0.3900  0.2871
    1SOL    HW3 7367   3.006   1.600   3.087  0.1322  0.0654  0.2075
    1SOL    MW4 7368   2.931   1.566   3.114  0.0823  0.1715  0.2046
    1SOL     OW 7369   2.697   1.665   2.965 -0.0769  0.0620  0.2363
    1SOL    HW2 7370   2.768   1.621   3.013  0.5027 -0.4706 -1.0644
    1SOL    HW3 7371   2.617   1.638   3.009  0.3964 -1.0532  0.4246
    1SOL    MW4 7372   2.696   1.656   2.977  0.0620 -0.1552  0.0896
    1SOL     OW 7373   2.680   1.906   3.078  0.1254  0.0438 -0.0326
    1SOL    HW2 7374   2.756   1.964   3.077  0.1342  0.0367  0.2398
    1SOL    HW3 7375   2.706   1.830   3.027  0.5665 -0.2994  0.6980
    1SOL    MW4 7376   2.693   1.904   3.071  0.1845 -0.0024  0.0997
    1SOL     OW 7377   2.894   2.096   3.024 -0.4872 -0.1468  0.4244
    1SOL    HW2 7378   2.890   2.186   3.056  0.9148  0.1896 -0.3287
    1SOL    HW3 7379   2.894   2.104   2.929  1.0642 -0.8493  0.3466
    1SOL    MW4 7380   2.894   2.109   3.016 -0.0975 -0.1950  0.3150
    1SOL     OW 7381   2.891   2.359   3.121  0.2453 -0.0659  0.2292
    1SOL    HW2 7382   2.976   2.399   3.106  0.2660  0.0826  0.7307
    1SOL    HW3 7383   2.829   2.414   3.073  0.3769  0.0788  0.2264
    1SOL    MW4 7384   2.894   2.372   3.113  0.2654 -0.0272  0.2952
    1SOL     OW 7385   2.678   2.479   2.993 -0.1821 -0.4251 -0.2837
    1SOL    HW2 7386   2.681   2.554   3.052 -1.0084  0.4791 -1.3818
    1SOL    HW3 7387   2.607   2.425   3.027 -0.4521 -0.0607 -0.2637
    1SOL    MW4 7388   2.669   2.482   3.005 -0.3269 -0.2575 -0.4261
    1SOL     OW 7389   2.642   2.704   3.154 -0.0683  0.3851  0.2177
    1SOL    HW2 7390   2.643   2.718   3.248 -0.9446  0.3259  0.2438
    1SOL    HW3 7391   2.573   2.763   3.121  0.3306  0.5138 -0.3990
    1SOL    MW4 7392   2.633   2.714   3.162 -0.1314  0.3943  0.1400
    1SOL     OW 7393   2.860   2.804   3.009 -0.0331  0.1857 -0.4238
    1SOL    HW2 7394   2.935   2.770   3.057 -0.3552 -0.8545 -0.6352
    1SOL    HW3 7395   2.783   2.777   3.060 -0.4102 -1.5836 -1.8832
    1SOL    MW4 7396   2.859   2.796   3.022 -0.1254 -0.1848 -0.6444
    1SOL     OW 7397   2.889   3.073   3.129  0.2183 -0.9752  0.1854
    1SOL    HW2 7398   2.811   3.126   3.113  0.1888 -1.1601 -0.3225
    1SOL    HW3 7399   2.869   2.989   3.088  1.5111 -0.3317 -1.8396
    1SOL    MW4 7400   2.876   3.069   3.121  0.3848 -0.9146 -0.1490
    1SOL     OW 7401   2.667   3.212   3.032  0.0366  0.5575  0.1245
    1SOL    HW2 7402   2.669   3.305   3.056  3.8356  0.6810 -0.3521
    1SOL    HW3 7403   2.691   3.210   2.940 -0.9568 -0.8740 -0.1238
    1SOL    MW4 7404   2.670   3.224   3.023  0.4067  0.3848  0.0288
    1SOL     OW 7405   2.726   3.478   3.120 -0.3326 -0.1511 -0.5586
    1SOL    HW2 7406   2.742   3.492   3.213  0.4648 -1.3387 -0.5091
    1SOL    HW3 7407   2.797   3.526   3.076 -0.6938  0.3869 -0.5567
    1SOL    MW4 7408   2.738   3.486   3.126 -0.2747 -0.2367 -0.5519
    1SOL     OW 7409   2.897   3.635   2.993 -0.0606 -0.1155 -0.3090
    1SOL    HW2 7410   2.982   3.618   3.033 -1.7907 -0.9363  3.2543
    1SOL    HW3 7411   2.869   3.719   3.031 -1.4881 -0.5907 -0.2689
    1SOL    MW4 7412   2.904   3.644   3.003 -0.4771 -0.2866  0.1662
    1SOL     OW 7413   2.868   3.903   3.099  0.7554  0.1915 -0.3451
    1SOL    HW2 7414   2.870   3.883   3.193 -0.0605 -0.6101 -0.4882
    1SOL    HW3 7415   2.800   3.969   3.089  0.8521  0.2878 -0.3737
    1SOL    MW4 7416   2.859   3.909   3.110  0.6607  0.0985 -0.3679
    1SOL     OW 7417   2.663   4.058   3.014  0.1299 -0.5868 -0.3398
    1SOL    HW2 7418   2.681   4.147   3.045  0.5077 -0.8066  0.0830
    1SOL    HW3 7419   2.687   4.061   2.921  0.2957 -0.2872 -0.2914
    1SOL    MW4 7420   2.669   4.070   3.006  0.2017 -0.5760 -0.2775
    1SOL     OW 7421   2.681   4.303   3.140  0.5704 -0.1906  0.0045
    1SOL    HW2 7422   2.694   4.286   3.233  1.1708 -0.7644 -0.1829
    1SOL    HW3 7423   2.590   4.334   3.133  0.3733 -0.6122  0.7088
    1SOL    MW4 7424   2.671   4.305   3.151  0.6235 -0.3219  0.0725
    1SOL     OW 7425   2.939   4.432   3.060  0.1338  0.6507 -0.1069
    1SOL    HW2 7426   3.013   4.381   3.092 -0.0339  0.0894 -0.6195
    1SOL    HW3 7427   2.862   4.393   3.102  0.0703  0.8904  0.0041
    1SOL    MW4 7428   2.938   4.420   3.070  0.1032  0.6084 -0.1597
    1SOL     OW 7429   3.347   0.020   3.124 -0.3447  0.0867  0.2101
    1SOL    HW2 7430   3.436   0.048   3.105  0.0905 -1.3656  0.0410
    1SOL    HW3 7431   3.342  -0.069   3.090 -2.0427  0.3563 -0.3111
    1SOL    MW4 7432   3.358   0.012   3.117 -0.5112 -0.0693  0.1187
    1SOL     OW 7433   3.124   0.142   3.021 -0.2176 -0.2743 -0.6755
    1SOL    HW2 7434   3.132   0.235   3.039 -1.2917  0.0754 -1.9504
    1SOL    HW3 7435   3.198   0.102   3.068 -0.2094  1.1144  0.5182
    1SOL    MW4 7436   3.135   0.149   3.029 -0.3583 -0.0449 -0.6862
    1SOL     OW 7437   3.162   0.406   3.123 -0.1157 -0.1411  0.4456
    1SOL    HW2 7438   3.242   0.453   3.101 -0.6740  0.3383 -0.5603
    1SOL    HW3 7439   3.092   0.453   3.078 -1.0108 -0.3584  1.5764
    1SOL    MW4 7440   3.163   0.418   3.114 -0.3073 -0.1065  0.4621
    1SOL     OW 7441   3.396   0.534   3.023 -0.1840 -0.5707  0.2116
    1SOL    HW2 7442   3.459   0.464   3.038  0.0161 -0.3298  0.5080
    1SOL    HW3 7443   3.388   0.540   2.928  1.2007  0.2487  0.1390
    1SOL    MW4 7444   3.403   0.526   3.013  0.0250 -0.4308  0.2410
    1SOL     OW 7445   3.373   0.776   3.149 -0.0189  0.3200  0.4047
    1SOL    HW2 7446   3.376   0.753   3.241  0.3245 -0.1536  0.2717
    1SOL    HW3 7447   3.388   0.694   3.102  0.2416  0.6316 -0.0680
    1SOL    MW4 7448   3.375   0.762   3.155  0.0608  0.2987  0.3250
    1SOL     OW 7449   3.149   0.910   3.051  0.0594 -0.1398 -0.1877
    1SOL    HW2 7450   3.221   0.861   3.091  1.0265  2.0426  0.8531
    1SOL    HW3 7451   3.070   0.864   3.078  0.9429 -1.2626  0.5246
    1SOL    MW4 7452   3.148   0.898   3.060  0.3035 -0.0001  0.0436
    1SOL     OW 7453   3.150   1.165   3.145  0.1329  0.1220  0.0658
    1SOL    HW2 7454   3.228   1.201   3.102  0.8102 -2.0156 -0.5724
    1SOL    HW3 7455   3.149   1.073   3.119 -4.1679  0.6887 -2.2497
    1SOL    MW4 7456   3.160   1.158   3.135 -0.3452 -0.0852 -0.3238
    1SOL     OW 7457   3.336   1.293   3.002 -0.0431  0.0629 -0.0402
    1SOL    HW2 7458   3.414   1.250   3.038 -0.9189  0.1060  1.9510
    1SOL    HW3 7459   3.337   1.380   3.042  0.1540  0.8948 -1.8334
    1SOL    MW4 7460   3.347   1.299   3.012 -0.1328  0.1785 -0.0141
    1SOL     OW 7461   3.348   1.529   3.126  0.2754  0.5608  0.1251
    1SOL    HW2 7462   3.361   1.535   3.221  1.0780  0.7601  0.0113
    1SOL    HW3 7463   3.423   1.576   3.089  1.0408 -1.2541 -0.6489
    1SOL    MW4 7464   3.360   1.536   3.134  0.4823  0.3477  0.0079
    1SOL     OW 7465   3.169   1.732   3.029 -0.3731  0.0376 -0.2814
    1SOL    HW2 7466   3.236   1.668   3.051 -0.2551  0.6488  1.1954
    1SOL    HW3 7467   3.179   1.746   2.935  1.8928  0.4699  0.0003
    1SOL    MW4 7468   3.179   1.725   3.019 -0.0584  0.1755 -0.0494
    1SOL     OW 7469   3.142   1.982   3.126  0.1653  0.2380  0.3286
    1SOL    HW2 7470   3.141   1.891   3.096 -0.3674  0.1464  0.6278
    1SOL    HW3 7471   3.056   2.016   3.102 -0.5134 -0.0234  2.3661
    1SOL    MW4 7472   3.131   1.974   3.119  0.0052  0.1915  0.6368
    1SOL     OW 7473   3.384   2.100   3.026  0.1302  0.5546  0.0738
    1SOL    HW2 7474   3.442   2.030   3.057  0.6725  1.0910  0.2798
    1SOL    HW3 7475   3.296   2.069   3.048  0.2322 -0.8225 -1.3444
    1SOL    MW4 7476   3.380   2.087   3.033  0.2155  0.4437 -0.0861
    1SOL     OW 7477   3.369   2.363   3.140 -0.2168 -0.3417  0.2230
    1SOL    HW2 7478   3.343   2.348   3.231 -0.6689  0.3589  0.2088
    1SOL    HW3 7479   3.389   2.276   3.106 -0.3496 -0.6389  0.9031
    1SOL    MW4 7480   3.368   2.350   3.148 -0.2937 -0.2885  0.3107
    1SOL     OW 7481   3.127   2.454   3.037 -0.4495  0.0754  0.0050
    1SOL    HW2 7482   3.201   2.413   3.082 -2.0927 -2.2755  0.6623
    1SOL    HW3 7483   3.135   2.426   2.946 -0.6579 -0.3837  0.1260
    1SOL    MW4 7484   3.138   2.445   3.031 -0.6936 -0.2954  0.1078
    1SOL     OW 7485   3.112   2.714   3.128 -0.0461  0.1438 -0.1927
    1SOL    HW2 7486   3.129   2.716   3.222  0.1838 -0.8390 -0.2077
    1SOL    HW3 7487   3.126   2.623   3.103  2.3433  0.8476 -1.6197
    1SOL    MW4 7488   3.116   2.703   3.137  0.2992  0.1068 -0.3829
    1SOL     OW 7489   3.309   2.859   3.001  0.0608  0.1894 -0.3510
    1SOL    HW2 7490   3.312   2.946   3.040 -0.9487 -0.2436  0.7097
    1SOL    HW3 7491   3.243   2.811   3.052  1.1968 -1.4599 -0.3913
    1SOL    MW4 7492   3.301   2.864   3.013  0.0775 -0.0854 -0.2162
    1SOL     OW 7493   3.345   3.098   3.139 -0.3975 -0.4434  0.2514
    1SOL    HW2 7494   3.348   3.079   3.233  2.0084 -0.6053  0.1849
    1SOL    HW3 7495   3.273   3.160   3.130 -0.5279 -0.2508  2.2419
    1SOL    MW4 7496   3.336   3.104   3.150 -0.0975 -0.4392  0.5052
    1SOL     OW 7497   3.125   3.233   3.064  0.1768  0.0444 -0.2221
    1SOL    HW2 7498   3.056   3.168   3.076  0.4888  0.0490  1.8579
    1SOL    HW3 7499   3.139   3.237   2.970 -1.2656 -1.4153 -0.5144
    1SOL    MW4 7500   3.118   3.225   3.054  0.0274 -0.1478  0.0136
    1SOL     OW 7501   3.112   3.495   3.104  0.1928  0.6364  0.1452
    1SOL    HW2 7502   3.192   3.510   3.054 -0.2008 -1.6423 -1.2357
    1SOL    HW3 7503   3.091   3.403   3.088 -3.3636  1.4983 -0.5055
    1SOL    MW4 7504   3.120   3.485   3.095 -0.3281  0.4497 -0.1230
    1SOL     OW 7505   3.344   3.646   3.010 -0.4017 -0.0259  0.3363
    1SOL    HW2 7506   3.412   3.587   3.042  0.1796  0.0743 -0.6838
    1SOL    HW3 7507   3.362   3.729   3.054  1.2794  0.5170 -1.2950
    1SOL    MW4 7508   3.355   3.650   3.020 -0.1032  0.0589 -0.0136
    1SOL     OW 7509   3.385   3.901   3.138 -0.1394 -0.1648  0.0849
    1SOL    HW2 7510   3.386   3.882   3.231 -0.7977 -0.1791  0.0901
    1SOL    HW3 7511   3.299   3.940   3.122 -0.2779 -0.7457 -0.6276
    1SOL    MW4 7512   3.374   3.904   3.148 -0.2444 -0.2429 -0.0083
    1SOL     OW 7513   3.145   3.985   3.031  0.4338 -0.0437 -0.2898
    1SOL    HW2 7514   3.061   3.947   3.057 -0.3061  1.9587  0.2598
    1SOL    HW3 7515   3.137   3.999   2.937  1.1461 -2.2725 -0.7260
    1SOL    MW4 7516   3.133   3.982   3.022  0.4301 -0.0737 -0.2747
    1SOL     OW 7517   3.156   4.251   3.099 -0.3011 -0.5615 -0.4080
    1SOL    HW2 7518   3.156   4.264   3.194 -1.0146 -0.4540 -0.4228
    1SOL    HW3 7519   3.159   4.156   3.088 -2.0385 -0.6470 -0.2641
    1SOL    MW4 7520   3.156   4.240   3.110 -0.6247 -0.5584 -0.3910
    1SOL     OW 7521   3.344   4.426   3.017 -0.3717 -0.6187 -0.1845
    1SOL    HW2 7522   3.429   4.389   3.043  0.0784  0.1146 -0.5948
    1SOL    HW3 7523   3.280   4.365   3.052  0.3322 -1.2345  0.0482
    1SOL    MW4 7524   3.347   4.413   3.025 -0.2196 -0.6032 -0.2079
    1SOL     OW 7525   3.780   4.660   3.166 -0.0647  0.2976  0.5679
    1SOL    HW2 7526   3.786   4.573   3.126 -0.3068 -0.5159  2.2736
    1SOL    HW3 7527   3.710   4.704   3.117  1.8314  0.5215 -2.0629
    1SOL    MW4 7528   3.771   4.655   3.154  0.1533  0.2198  0.4458
    1SOL     OW 7529   3.593   0.104   3.010 -0.1532  0.2742 -0.1443
    1SOL    HW2 7530   3.604   0.199   3.022 -2.5979  0.4718  0.7444
    1SOL    HW3 7531   3.595   0.092   2.915  1.1724  1.0529 -0.2446
    1SOL    MW4 7532   3.595   0.115   2.999 -0.3009  0.4030 -0.0401
    1SOL     OW 7533   3.600   0.365   3.099  0.4266 -0.3951  0.0997
    1SOL    HW2 7534   3.600   0.375   3.194  0.7003 -2.2295  0.3153
    1SOL    HW3 7535   3.686   0.397   3.071  0.4842 -0.1958  0.4998
    1SOL    MW4 7536   3.611   0.371   3.107  0.4702 -0.6108  0.1807
    1SOL     OW 7537   3.856   0.473   3.009  0.2575  0.0019 -0.0909
    1SOL    HW2 7538   3.931   0.438   3.056  1.0471 -0.9565 -2.0221
    1SOL    HW3 7539   3.833   0.554   3.056  2.1150  0.0018  0.8442
    1SOL    MW4 7540   3.863   0.479   3.021  0.6068 -0.1246 -0.2222
    1SOL     OW 7541   3.780   0.707   3.122 -0.2469  0.2492  0.0039
    1SOL    HW2 7542   3.778   0.717   3.217 -1.2621 -1.8175  0.2138
    1SOL    HW3 7543   3.852   0.765   3.094  0.7609  0.0778  2.1199
    1SOL    MW4 7544   3.789   0.716   3.131 -0.2480 -0.0461  0.3109
    1SOL     OW 7545   3.587   0.897   3.027 -0.1499 -0.3944 -0.2204
    1SOL    HW2 7546   3.652   0.838   3.065 -0.1909  0.7245  1.6781
    1SOL    HW3 7547   3.502   0.860   3.053 -0.1917 -0.0523  0.1471
    1SOL    MW4 7548   3.584   0.885   3.035 -0.1609 -0.2017  0.0787
    1SOL     OW 7549   3.567   1.167   3.096 -0.0105  0.5038  0.0453
    1SOL    HW2 7550   3.641   1.212   3.056 -0.9686  0.7614 -1.4736
    1SOL    HW3 7551   3.578   1.075   3.069 -0.9705  0.7785 -1.3035
    1SOL    MW4 7552   3.579   1.161   3.087 -0.2639  0.5741 -0.3331
    1SOL     OW 7553   3.806   1.287   2.993 -0.0002  0.2463 -0.0904
    1SOL    HW2 7554   3.801   1.372   3.036 -1.0847  0.1547 -0.0377
    1SOL    HW3 7555   3.816   1.307   2.900  2.2398  0.4440  0.1682
    1SOL    MW4 7556   3.807   1.301   2.987  0.1521  0.2604 -0.0494
    1SOL     OW 7557   3.790   1.555   3.085  0.1124  0.0787 -0.2977
    1SOL    HW2 7558   3.792   1.536   3.179 -0.7370  1.0773 -0.0576
    1SOL    HW3 7559   3.710   1.607   3.073  0.8495  1.0092 -1.3599
    1SOL    MW4 7560   3.779   1.559   3.096  0.0978  0.3333 -0.4065
    1SOL     OW 7561   3.554   1.687   3.001  0.0614  0.0868  0.2131
    1SOL    HW2 7562   3.582   1.771   3.037 -0.3635  0.2685  0.1115
    1SOL    HW3 7563   3.573   1.693   2.908 -0.8500  0.4251  0.0476
    1SOL    MW4 7564   3.560   1.699   2.994 -0.1149  0.1554  0.1776
    1SOL     OW 7565   3.626   1.918   3.132  0.1355  0.1295 -0.1571
    1SOL    HW2 7566   3.617   1.918   3.228  0.5534 -1.4809 -0.1136
    1SOL    HW3 7567   3.706   1.970   3.116  0.5755 -0.3600  0.4193
    1SOL    MW4 7568   3.636   1.925   3.143  0.2487 -0.1477 -0.0751
    1SOL     OW 7569   3.823   2.078   3.039 -0.2538 -0.2000  0.0125
    1SOL    HW2 7570   3.816   2.172   3.055  3.0065 -0.2217  2.1174
    1SOL    HW3 7571   3.824   2.070   2.944  0.3015  1.9887 -0.1921
    1SOL    MW4 7572   3.822   2.089   3.029  0.2494  0.0858  0.2630
    1SOL     OW 7573   3.781   2.349   3.095 -0.1480  0.1501 -0.0611
    1SOL    HW2 7574   3.756   2.332   3.186 -1.3991  1.8839 -0.0651
    1SOL    HW3 7575   3.708   2.398   3.059  0.8925  0.5581 -1.6669
    1SOL    MW4 7576   3.768   2.353   3.102 -0.1757  0.4327 -0.2735
    1SOL     OW 7577   3.557   2.504   3.010 -0.0289  0.6192  0.1088
    1SOL    HW2 7578   3.568   2.583   3.063 -0.5451  1.2639 -0.7241
    1SOL    HW3 7579   3.483   2.458   3.049 -1.2454  1.7474 -0.8114
    1SOL    MW4 7580   3.549   2.508   3.022 -0.2577  0.8535 -0.1225
    1SOL     OW 7581   3.553   2.755   3.130  0.5875 -0.4138 -0.2810
    1SOL    HW2 7582   3.627   2.802   3.091  0.8813  0.6500  1.4983
    1SOL    HW3 7583   3.477   2.788   3.083  0.8546  1.4634  0.5469
    1SOL    MW4 7584   3.553   2.766   3.119  0.6616 -0.0257  0.0627
    1SOL     OW 7585   3.778   2.867   3.008 -0.5736 -0.1188 -0.0535
    1SOL    HW2 7586   3.802   2.945   3.059 -1.1438  0.7164 -1.0324
    1SOL    HW3 7587   3.784   2.896   2.917  0.7417 -1.6747 -0.4826
    1SOL    MW4 7588   3.782   2.881   3.003 -0.4754 -0.2139 -0.2394
    1SOL     OW 7589   3.838   3.103   3.141 -0.0010  0.1257  0.3407
    1SOL    HW2 7590   3.902   3.139   3.080  0.2394  0.8442  1.0048
    1SOL    HW3 7591   3.760   3.158   3.130 -0.1667 -0.1273  0.2420
    1SOL    MW4 7592   3.836   3.115   3.132  0.0086  0.1872  0.4156
    1SOL     OW 7593   3.600   3.229   3.052  0.4286  0.0744  0.0402
    1SOL    HW2 7594   3.519   3.184   3.075 -1.5752  3.3217 -0.2483
    1SOL    HW3 7595   3.598   3.234   2.956  1.8800 -1.3692 -0.0830
    1SOL    MW4 7596   3.589   3.224   3.042  0.3557  0.3123 -0.0141
    1SOL     OW 7597   3.561   3.499   3.087  0.2738  0.1627  0.3646
    1SOL    HW2 7598   3.639   3.549   3.061  1.2899 -1.2698  0.6287
    1SOL    HW3 7599   3.581   3.409   3.065 -1.2034 -0.2699  0.7227
    1SOL    MW4 7600   3.574   3.494   3.081  0.2131 -0.0832  0.4468
    1SOL     OW 7601   3.799   3.631   2.998 -0.0400 -0.2062  0.1256
    1SOL    HW2 7602   3.825   3.721   3.019  1.7633 -0.4799 -0.8935
    1SOL    HW3 7603   3.800   3.627   2.903  0.2320 -1.4094  0.1768
    1SOL    MW4 7604   3.802   3.642   2.988  0.2339 -0.4008 -0.0021
    1SOL     OW 7605   3.835   3.913   3.131 -0.2229 -0.1331  0.3475
    1SOL    HW2 7606   3.830   3.892   3.224 -1.4697 -2.6976 -0.2577
    1SOL    HW3 7607   3.762   3.973   3.115 -0.5119 -0.3599  0.8374
    1SOL    MW4 7608   3.825   3.918   3.141 -0.4256 -0.5014  0.3324
    1SOL     OW 7609   3.599   4.037   3.057 -0.0322 -0.3846 -0.0246
    1SOL    HW2 7610   3.524   3.982   3.078 -1.1008  1.2257  0.4999
    1SOL    HW3 7611   3.606   4.033   2.961 -0.3847 -1.0672 -0.0203
    1SOL    MW4 7612   3.590   4.029   3.047 -0.2196 -0.2623  0.0451
    1SOL     OW 7613   3.571   4.307   3.105 -0.0738  0.2841  0.2618
    1SOL    HW2 7614   3.653   4.340   3.068  0.4875  0.1511  1.3526
    1SOL    HW3 7615   3.571   4.214   3.087 -0.5063  0.4617 -0.6882
    1SOL    MW4 7616   3.582   4.299   3.098 -0.0567  0.2899  0.2804
    1SOL     OW 7617   3.830   4.422   3.017  0.6091  0.1243 -0.1343
    1SOL    HW2 7618   3.905   4.371   3.048  0.2472 -0.8841 -0.8854
    1SOL    HW3 7619   3.822   4.399   2.924 -0.1683  0.7937 -0.2424
    1SOL    MW4 7620   3.839   4.412   3.009  0.4585  0.0796 -0.2472
    1SOL     OW 7621   4.235   4.662   3.144 -0.1782  0.3494 -0.7591
    1SOL    HW2 7622   4.245   4.652   3.239 -0.2364  0.6688 -0.7199
    1SOL    HW3 7623   4.247   4.573   3.109  1.1598  0.4373 -0.5754
    1SOL    MW4 7624   4.238   4.649   3.152 -0.0091  0.4029 -0.7296
    1SOL     OW 7625   4.007   0.084   3.019  0.1068 -0.0920 -0.0534
    1SOL    HW2 7626   4.087   0.047   3.056  0.2024  0.2208  0.0574
    1SOL    HW3 7627   3.937   0.052   3.077  0.1362 -0.4526 -0.2138
    1SOL    MW4 7628   4.008   0.075   3.032  0.1230 -0.0983 -0.0601
    1SOL     OW 7629   4.031   0.316   3.161  0.2403  0.4136  0.7357
    1SOL    HW2 7630   4.109   0.364   3.134 -0.3196  0.6581 -0.5074
    1SOL    HW3 7631   4.035   0.233   3.112 -0.7570  0.8286 -0.0709
    1SOL    MW4 7632   4.041   0.311   3.151  0.0348  0.5006  0.4652
    1SOL     OW 7633   4.209   0.491   3.051  0.0217 -0.3703  0.3955
    1SOL    HW2 7634   4.219   0.581   3.082  0.1626  0.1546 -1.1676
    1SOL    HW3 7635   4.221   0.496   2.957 -0.1978 -2.0007  0.2662
    1SOL    MW4 7636   4.212   0.503   3.043  0.0114 -0.5162  0.1721
    1SOL     OW 7637   4.238   0.736   3.152  0.1537  0.5153  0.3597
    1SOL    HW2 7638   4.161   0.776   3.111 -0.5640 -0.1085  1.0730
    1SOL    HW3 7639   4.312   0.770   3.103 -0.6010  0.9195 -0.5104
    1SOL    MW4 7640   4.238   0.746   3.141 -0.0405  0.4863  0.3390
    1SOL     OW 7641   4.025   0.856   3.037 -0.0516 -0.1400 -0.0606
    1SOL    HW2 7642   4.025   0.946   3.071 -0.4772 -0.1644 -0.0002
    1SOL    HW3 7643   4.028   0.866   2.942  0.6804 -0.0673 -0.0333
    1SOL    MW4 7644   4.025   0.869   3.029 -0.0110 -0.1336 -0.0491
    1SOL     OW 7645   4.021   1.128   3.106 -0.0370 -0.2670  0.3305
    1SOL    HW2 7646   4.032   1.119   3.201 -0.6096  0.0877  0.4313
    1SOL    HW3 7647   3.939   1.175   3.096  0.7531  0.9859 -0.3089
    1SOL    MW4 7648   4.012   1.133   3.117 -0.0091 -0.0550  0.2596
    1SOL     OW 7649   4.231   1.280   3.011 -0.0660  0.2492 -0.2281
    1SOL    HW2 7650   4.166   1.234   3.064  0.3143 -0.9159 -0.7558
    1SOL    HW3 7651   4.225   1.238   2.925  0.3876  1.1005 -0.6820
    1SOL    MW4 7652   4.221   1.269   3.007  0.0439  0.2078 -0.3574
    1SOL     OW 7653   4.242   1.554   3.096  0.7570 -0.3980 -0.2540
    1SOL    HW2 7654   4.164   1.601   3.068 -0.4379 -0.7010  2.4033
    1SOL    HW3 7655   4.232   1.466   3.057 -0.5805 -0.6489  0.6393
    1SOL    MW4 7656   4.230   1.548   3.087  0.4225 -0.4710  0.2143
    1SOL     OW 7657   4.011   1.676   2.992 -0.2170  0.0936  0.1492
    1SOL    HW2 7658   4.019   1.761   3.035 -1.0600  0.7063 -0.8899
    1SOL    HW3 7659   3.936   1.635   3.034  0.4228 -0.3058  0.9165
    1SOL    MW4 7660   4.002   1.682   3.003 -0.2432  0.1218  0.1135
    1SOL     OW 7661   4.045   1.941   3.134 -0.0461 -0.0591 -0.2187
    1SOL    HW2 7662   4.129   1.984   3.115  0.2022 -0.2186  0.5067
    1SOL    HW3 7663   3.980   1.998   3.093  0.3994  0.1832 -0.5986
    1SOL    MW4 7664   4.048   1.954   3.126  0.0458 -0.0480 -0.1729
    1SOL     OW 7665   4.298   2.045   3.042 -0.3837  0.2223 -0.1653
    1SOL    HW2 7666   4.286   2.136   3.071  0.7722  0.0996  0.7174
    1SOL    HW3 7667   4.288   2.050   2.947 -0.3443  1.2792 -0.1270
    1SOL    MW4 7668   4.295   2.058   3.033 -0.2260  0.3452 -0.0436
    1SOL     OW 7669   4.256   2.300   3.123 -0.3918  0.0835 -0.0013
    1SOL    HW2 7670   4.175   2.344   3.096  0.0539  0.0637 -1.3714
    1SOL    HW3 7671   4.325   2.362   3.104 -0.0211 -0.1031  0.7074
    1SOL    MW4 7672   4.254   2.314   3.117 -0.2837  0.0565 -0.0885
    1SOL     OW 7673   4.031   2.452   3.052  0.2655  0.0542  0.4258
    1SOL    HW2 7674   4.024   2.545   3.074 -1.3294  0.0422  0.0424
    1SOL    HW3 7675   3.943   2.418   3.067  0.6544 -1.2285 -0.2059
    1SOL    MW4 7676   4.018   2.460   3.057  0.1063 -0.1166  0.2918
    1SOL     OW 7677   4.042   2.730   3.118  0.0543  0.2048  0.3260
    1SOL    HW2 7678   4.014   2.723   3.209 -0.4836  1.4013  0.2589
    1SOL    HW3 7679   3.966   2.766   3.072  0.2172 -0.6658 -0.6510
    1SOL    MW4 7680   4.028   2.734   3.124  0.0043  0.2477  0.1884
    1SOL     OW 7681   4.286   2.814   3.007  0.3382 -0.0995 -0.0773
    1SOL    HW2 7682   4.202   2.780   3.039  0.4170  0.3291  0.5900
    1SOL    HW3 7683   4.351   2.780   3.068  0.7274 -0.9031 -0.9225
    1SOL    MW4 7684   4.283   2.805   3.019  0.4001 -0.1490 -0.1009
    1SOL     OW 7685   4.269   3.083   3.115 -0.3899 -0.0368  0.1984
    1SOL    HW2 7686   4.189   3.124   3.082 -0.1442 -0.4351 -0.9223
    1SOL    HW3 7687   4.280   3.004   3.061  0.3732 -0.3574  0.8082
    1SOL    MW4 7688   4.260   3.078   3.103 -0.2575 -0.1318  0.1309
    1SOL     OW 7689   4.050   3.211   2.997 -0.0452 -0.0600  0.4340
    1SOL    HW2 7690   4.038   3.300   3.030 -0.4308  0.0210  0.0774
    1SOL    HW3 7691   4.027   3.217   2.904  1.4385 -0.1951  0.0491
    1SOL    MW4 7692   4.045   3.224   2.989  0.0997 -0.0668  0.3359
    1SOL     OW 7693   3.975   3.446   3.124  0.4080  0.1998 -0.3784
    1SOL    HW2 7694   3.978   3.467   3.217  1.0345 -0.9412 -0.1432
    1SOL    HW3 7695   3.911   3.508   3.088  0.2563  0.7256  0.7809
    1SOL    MW4 7696   3.967   3.457   3.131  0.4706  0.1187 -0.1941
    1SOL     OW 7697   4.226   3.575   3.048  0.2293  0.2949  0.0701
    1SOL    HW2 7698   4.207   3.666   3.072  0.7653  0.2768  0.5687
    1SOL    HW3 7699   4.148   3.526   3.074 -0.1438  0.6410 -0.3861
    1SOL    MW4 7700   4.213   3.581   3.054  0.2508  0.3383  0.0756
    1SOL     OW 7701   4.230   3.847   3.121  0.1695 -0.1726  0.1664
    1SOL    HW2 7702   4.163   3.903   3.082 -1.1097 -1.8825 -0.1384
    1SOL    HW3 7703   4.312   3.877   3.081 -0.2650  2.4560  1.1353
    1SOL    MW4 7704   4.232   3.858   3.110 -0.0567 -0.0510  0.2539
    1SOL     OW 7705   4.055   4.039   3.010  0.7677  0.0748  0.3336
    1SOL    HW2 7706   4.074   4.118   3.060  0.7576  0.2351  0.0839
    1SOL    HW3 7707   3.980   3.999   3.055  2.1271 -0.9393  1.7543
    1SOL    MW4 7708   4.048   4.044   3.023  0.9460 -0.0381  0.4883
    1SOL     OW 7709   4.069   4.287   3.137 -0.4371 -0.1401 -0.7597
    1SOL    HW2 7710   4.077   4.262   3.229 -1.7836 -1.0472 -0.8813
    1SOL    HW3 7711   4.150   4.335   3.119  0.3255 -0.8612  0.6047
    1SOL    MW4 7712   4.081   4.290   3.147 -0.5145 -0.3552 -0.5958
    1SOL     OW 7713   4.290   4.416   3.014  0.0663 -0.1876  0.1848
    1SOL    HW2 7714   4.361   4.354   3.033  1.0900  0.1046 -2.4630
    1SOL    HW3 7715   4.274   4.406   2.920 -1.4123  1.8337  0.1901
    1SOL    MW4 7716   4.297   4.406   3.004  0.0067  0.1178 -0.1640
    1SOL     OW 7717   0.185   4.631   3.416  0.6984 -0.4429 -0.2913
    1SOL    HW2 7718   0.274   4.664   3.426  0.3542  0.3988  0.0349
    1SOL    HW3 7719   0.190   4.540   3.445  1.4029 -0.3241 -0.0328
    1SOL    MW4 7720   0.197   4.623   3.421  0.7459 -0.3161 -0.2143
    1SOL     OW 7721   0.014   0.116   3.548  0.0661  0.0695  0.4645
    1SOL    HW2 7722   0.023   0.202   3.506 -2.0211  0.3615  0.5525
    1SOL    HW3 7723   0.080   0.061   3.506  1.2360  1.6403  0.2119
    1SOL    MW4 7724   0.024   0.120   3.537 -0.0548  0.3153  0.4425
    1SOL     OW 7725   4.488   0.369   3.437 -0.2511 -0.2297  0.3418
    1SOL    HW2 7726   4.414   0.408   3.484 -0.2864 -0.4866  0.4977
    1SOL    HW3 7727   4.565   0.412   3.475 -0.4164  1.5286 -1.2152
    1SOL    MW4 7728   4.488   0.380   3.448 -0.2780 -0.0316  0.1569
    1SOL     OW 7729   0.259   0.474   3.493  0.2776 -0.3859  0.1004
    1SOL    HW2 7730   0.295   0.421   3.422 -0.0932 -1.8535  0.9823
    1SOL    HW3 7731   0.242   0.560   3.453  2.1190 -0.5160 -1.0072
    1SOL    MW4 7732   0.261   0.479   3.478  0.4716 -0.5967  0.0706
    1SOL     OW 7733   0.247   0.730   3.407  0.1551 -0.4980  0.2996
    1SOL    HW2 7734   0.329   0.773   3.430  1.0186 -1.6826 -0.4761
    1SOL    HW3 7735   0.183   0.766   3.468  1.2326  0.4945  0.8728
    1SOL    MW4 7736   0.249   0.740   3.418  0.4112 -0.5233  0.2728
    1SOL     OW 7737   0.042   0.868   3.525 -0.2838 -0.4338  0.2987
    1SOL    HW2 7738   0.037   0.883   3.619 -2.6064  0.0023  0.1269
    1SOL    HW3 7739   0.028   0.954   3.486 -1.4580 -0.9764 -0.4826
    1SOL    MW4 7740   0.040   0.881   3.532 -0.7448 -0.4479  0.1729
    1SOL     OW 7741   4.490   1.132   3.399 -0.4911  0.2110 -0.0150
    1SOL    HW2 7742   4.563   1.173   3.443  0.6700 -1.0536 -0.7305
    1SOL    HW3 7743   4.503   1.152   3.306 -1.7873  1.1076 -0.0226
    1SOL    MW4 7744   4.501   1.140   3.392 -0.5093  0.1625 -0.1104
    1SOL     OW 7745   0.207   1.286   3.477 -0.2061 -0.2546 -0.1680
    1SOL    HW2 7746   0.297   1.257   3.459  0.3075  0.9565  0.4057
    1SOL    HW3 7747   0.204   1.376   3.446 -0.6195  0.3734  1.6525
    1SOL    MW4 7748   0.219   1.294   3.471 -0.1929 -0.0118  0.1478
    1SOL     OW 7749   0.210   1.552   3.373 -0.3494 -0.0728 -0.2080
    1SOL    HW2 7750   0.294   1.596   3.388 -0.5986  0.0728  0.8183
    1SOL    HW3 7751   0.197   1.556   3.278  0.2400  0.9508 -0.2523
    1SOL    MW4 7752   0.219   1.558   3.362 -0.3045  0.0814 -0.0784
    1SOL     OW 7753   4.464   1.671   3.498  0.3933  0.0812 -0.2947
    1SOL    HW2 7754   4.390   1.632   3.452 -0.1278  0.9853 -0.2328
    1SOL    HW3 7755   4.541   1.636   3.453 -0.0539 -1.0174 -0.2332
    1SOL    MW4 7756   4.465   1.661   3.486  0.2651  0.0554 -0.2785
    1SOL     OW 7757   4.462   1.938   3.434 -0.0103 -0.2194  0.0105
    1SOL    HW2 7758   4.466   1.844   3.452  1.5669 -0.3247 -0.7595
    1SOL    HW3 7759   4.475   1.944   3.339 -0.9344  0.7341 -0.0658
    1SOL    MW4 7760   4.464   1.926   3.424  0.0758 -0.1075 -0.1009
    1SOL     OW 7761   0.221   2.054   3.512  0.3226 -0.6626  0.1809
    1SOL    HW2 7762   0.253   2.049   3.602  0.0972  0.6550  0.3557
    1SOL    HW3 7763   0.142   1.999   3.511  0.0674 -0.3207  0.9126
    1SOL    MW4 7764   0.214   2.046   3.524  0.2592 -0.4437  0.3006
    1SOL     OW 7765   0.237   2.331   3.415  0.0825  0.1115 -0.1704
    1SOL    HW2 7766   0.166   2.383   3.454  1.1991  0.7954  1.0077
    1SOL    HW3 7767   0.227   2.244   3.453 -1.5317 -0.4477 -1.8115
    1SOL    MW4 7768   0.227   2.327   3.425  0.0168  0.1283 -0.2313
    1SOL     OW 7769   0.009   2.461   3.507 -0.1048  0.5066 -0.0071
    1SOL    HW2 7770  -0.004   2.452   3.601 -0.5314  0.8460 -0.0295
    1SOL    HW3 7771  -0.076   2.438   3.469  0.7109 -1.9392 -0.4613
    1SOL    MW4 7772  -0.004   2.457   3.514 -0.0534  0.2286 -0.0701
    1SOL     OW 7773   0.037   2.728   3.426  0.4169  0.2250 -0.2247
    1SOL    HW2 7774   0.115   2.771   3.463  0.6644 -0.7803  0.4357
    1SOL    HW3 7775   0.051   2.635   3.442 -0.1874 -0.1057 -1.5301
    1SOL    MW4 7776   0.049   2.721   3.433  0.3698  0.0486 -0.3099
    1SOL     OW 7777   0.269   2.846   3.509 -0.0009 -0.3655  0.3403
    1SOL    HW2 7778   0.349   2.803   3.478  0.4775  0.4709  0.4106
    1SOL    HW3 7779   0.274   2.935   3.474 -0.3101  0.0542  1.3430
    1SOL    MW4 7780   0.281   2.852   3.501  0.0215 -0.1996  0.4818
    1SOL     OW 7781   0.262   3.107   3.396  0.3941  0.0839  0.1970
    1SOL    HW2 7782   0.180   3.142   3.432  0.2649  0.5537 -0.5343
    1SOL    HW3 7783   0.248   3.106   3.302  0.3288 -2.1719  0.2143
    1SOL    MW4 7784   0.249   3.112   3.389  0.3684 -0.1516  0.1028
    1SOL     OW 7785   0.022   3.216   3.499 -0.0564  0.3534  0.5986
    1SOL    HW2 7786  -0.056   3.172   3.466  2.2895 -2.4501 -1.4979
    1SOL    HW3 7787   0.020   3.302   3.459 -0.5693 -0.7591 -1.8383
    1SOL    MW4 7788   0.011   3.221   3.490  0.1855 -0.1636  0.0002
    1SOL     OW 7789   4.472   3.455   3.387 -0.0742 -0.0779 -0.4438
    1SOL    HW2 7790   4.417   3.530   3.410 -0.8067 -0.4576 -0.9245
    1SOL    HW3 7791   4.485   3.463   3.293 -0.2325 -0.5927 -0.5156
    1SOL    MW4 7792   4.466   3.466   3.377 -0.1916 -0.1960 -0.5169
    1SOL     OW 7793   0.270   3.591   3.475 -0.6372 -0.0160 -0.1134
    1SOL    HW2 7794   0.277   3.611   3.568  0.6520 -0.2722 -0.1385
    1SOL    HW3 7795   0.198   3.529   3.469 -0.6588 -0.0783  0.7210
    1SOL    MW4 7796   0.261   3.586   3.486 -0.4700 -0.0577 -0.0067
    1SOL     OW 7797   0.222   3.855   3.391 -0.0201 -0.4643 -0.6400
    1SOL    HW2 7798   0.146   3.897   3.430 -0.0498 -1.1182  0.0192
    1SOL    HW3 7799   0.216   3.763   3.419  2.7009  0.0952  2.0944
    1SOL    MW4 7800   0.211   3.848   3.400  0.3350 -0.4768 -0.1922
    1SOL     OW 7801   0.012   3.989   3.494  0.0447  0.5780  0.2753
    1SOL    HW2 7802   0.045   3.997   3.583  0.8614  0.7713 -0.0419
    1SOL    HW3 7803   0.013   4.078   3.460  0.1817  0.4416 -0.0827
    1SOL    MW4 7804   0.017   4.002   3.501  0.1706  0.5856  0.1862
    1SOL     OW 7805   0.029   4.254   3.404  0.3417 -0.3747 -0.0275
    1SOL    HW2 7806  -0.045   4.295   3.448 -0.4556 -0.3686 -1.3261
    1SOL    HW3 7807   0.107   4.289   3.448 -0.4147 -0.0377  1.0451
    1SOL    MW4 7808   0.030   4.264   3.415  0.1368 -0.3295 -0.0575
    1SOL     OW 7809   0.246   4.367   3.511  0.4100 -0.3192 -0.3242
    1SOL    HW2 7810   0.254   4.370   3.606  0.1498  0.7166 -0.3270
    1SOL    HW3 7811   0.329   4.330   3.481  1.1272  0.8216  0.2283
    1SOL    MW4 7812   0.258   4.363   3.519  0.4703 -0.0315 -0.2520
    1SOL     OW 7813   0.664   4.632   3.374  0.1293  0.5066 -0.2489
    1SOL    HW2 7814   0.736   4.666   3.426 -0.1025  0.8361 -0.1427
    1SOL    HW3 7815   0.683   4.660   3.284  0.8848 -0.6415 -0.4655
    1SOL    MW4 7816   0.676   4.640   3.369  0.1984  0.3982 -0.2637
    1SOL     OW 7817   0.431   0.080   3.487  0.4205  0.0022 -0.0589
    1SOL    HW2 7818   0.438   0.081   3.583  0.1090  0.2813 -0.0408
    1SOL    HW3 7819   0.519   0.055   3.458  0.3436 -0.7142  0.3173
    1SOL    MW4 7820   0.444   0.077   3.496  0.3693 -0.0555 -0.0069
    1SOL     OW 7821   0.457   0.316   3.341 -0.2721 -0.4292  0.4342
    1SOL    HW2 7822   0.525   0.372   3.378 -0.4120  0.0570 -0.0497
    1SOL    HW3 7823   0.445   0.248   3.407  0.5721 -0.4331  0.5960
    1SOL    MW4 7824   0.465   0.314   3.355 -0.1792 -0.3656  0.3917
    1SOL     OW 7825   0.673   0.469   3.428  0.3802  0.1978 -0.0825
    1SOL    HW2 7826   0.667   0.464   3.523 -0.2230  1.2089 -0.0631
    1SOL    HW3 7827   0.761   0.438   3.408  0.1672 -0.9519  0.7257
    1SOL    MW4 7828   0.684   0.464   3.438  0.2725  0.1795  0.0265
    1SOL     OW 7829   0.655   0.737   3.363 -0.9723 -0.4305 -0.0918
    1SOL    HW2 7830   0.577   0.774   3.404 -1.4657 -0.6944 -0.7849
    1SOL    HW3 7831   0.651   0.644   3.385 -0.9344 -0.4713 -0.2550
    1SOL    MW4 7832   0.645   0.729   3.371 -1.0324 -0.4708 -0.2048
    1SOL     OW 7833   0.454   0.898   3.490 -0.3617  0.1330 -0.3439
    1SOL    HW2 7834   0.441   0.901   3.584 -0.1753 -0.5221 -0.2948
    1SOL    HW3 7835   0.460   0.990   3.463  0.1973  0.3035  0.3621
    1SOL    MW4 7836   0.453   0.911   3.499 -0.2634  0.0690 -0.2444
    1SOL     OW 7837   0.452   1.151   3.396  0.0553 -0.2473 -0.1835
    1SOL    HW2 7838   0.516   1.222   3.404 -0.2532 -0.0253  0.3674
    1SOL    HW3 7839   0.435   1.144   3.302 -1.5256  1.8986 -0.1084
    1SOL    MW4 7840   0.458   1.160   3.384 -0.1940  0.0652 -0.1011
    1SOL     OW 7841   0.650   1.319   3.484 -0.2285  0.0301  0.1190
    1SOL    HW2 7842   0.721   1.262   3.455 -0.7266  0.3792 -1.9207
    1SOL    HW3 7843   0.667   1.403   3.442 -1.6177  0.2325 -0.0827
    1SOL    MW4 7844   0.661   1.322   3.474 -0.4776  0.1028 -0.1764
    1SOL     OW 7845   0.649   1.567   3.326 -0.2549 -0.0374  0.0361
    1SOL    HW2 7846   0.725   1.607   3.371 -0.5657  1.0229 -0.3570
    1SOL    HW3 7847   0.574   1.595   3.378 -0.6009  1.0316 -1.0076
    1SOL    MW4 7848   0.649   1.576   3.339 -0.3416  0.2435 -0.1535
    1SOL     OW 7849   0.434   1.675   3.487 -0.3930 -0.3636  0.1656
    1SOL    HW2 7850   0.460   1.685   3.579  1.1172 -0.6842 -0.2225
    1SOL    HW3 7851   0.427   1.765   3.454  1.0283 -0.2931  0.0521
    1SOL    MW4 7852   0.436   1.688   3.495 -0.0062 -0.3965  0.0994
    1SOL     OW 7853   0.426   1.922   3.379  0.3452  0.0277  0.2833
    1SOL    HW2 7854   0.356   1.981   3.406 -1.4040 -1.9870  0.2672
    1SOL    HW3 7855   0.442   1.943   3.287 -1.7620 -0.9281 -0.3372
    1SOL    MW4 7856   0.419   1.932   3.370 -0.1636 -0.3642  0.1993
    1SOL     OW 7857   0.664   2.038   3.465 -0.0729 -0.1750 -0.1109
    1SOL    HW2 7858   0.683   2.036   3.559 -0.5180  2.3807  0.0725
    1SOL    HW3 7859   0.586   1.983   3.456 -0.3207 -0.0452  1.0887
    1SOL    MW4 7860   0.656   2.031   3.476 -0.1644  0.1793  0.0715
    1SOL     OW 7861   0.645   2.309   3.403  0.4185  0.0417  0.2923
    1SOL    HW2 7862   0.719   2.364   3.429  0.1308  1.0605 -0.9959
    1SOL    HW3 7863   0.669   2.221   3.434  2.3992  0.2546 -0.5153
    1SOL    MW4 7864   0.658   2.304   3.410  0.6419  0.2041  0.0157
    1SOL     OW 7865   0.448   2.462   3.524 -0.5870 -0.1928 -0.4389
    1SOL    HW2 7866   0.525   2.406   3.512 -1.0849 -1.1509  0.7568
    1SOL    HW3 7867   0.378   2.416   3.477 -1.0972 -0.8077  0.9050
    1SOL    MW4 7868   0.449   2.448   3.516 -0.7200 -0.4001 -0.1037
    1SOL     OW 7869   0.497   2.705   3.394  0.4757  0.4167 -0.0608
    1SOL    HW2 7870   0.471   2.622   3.435 -0.7540  0.6944 -0.2666
    1SOL    HW3 7871   0.495   2.686   3.300  3.1173 -0.1697 -0.0333
    1SOL    MW4 7872   0.493   2.691   3.387  0.6619  0.3760 -0.0844
    1SOL     OW 7873   0.722   2.816   3.506  0.4088  0.5422 -0.1270
    1SOL    HW2 7874   0.792   2.774   3.454  0.3188  2.1156 -1.5467
    1SOL    HW3 7875   0.641   2.780   3.470  0.4133  0.0920  0.3057
    1SOL    MW4 7876   0.721   2.806   3.495  0.3976  0.6905 -0.2573
    1SOL     OW 7877   0.739   3.070   3.402  0.2476 -0.8181  0.2705
    1SOL    HW2 7878   0.658   3.109   3.436 -0.2267 -0.8034 -0.8510
    1SOL    HW3 7879   0.746   2.986   3.448 -0.3519 -0.7740  0.4500
    1SOL    MW4 7880   0.729   3.064   3.413  0.1060 -0.8104  0.1459
    1SOL     OW 7881   0.508   3.214   3.492 -0.2799 -0.1287 -0.0895
    1SOL    HW2 7882   0.489   3.214   3.586  0.6899  1.1082  0.1144
    1SOL    HW3 7883   0.428   3.180   3.452 -1.2144  0.6328  1.0922
    1SOL    MW4 7884   0.495   3.210   3.499 -0.2752  0.1349  0.0935
    1SOL     OW 7885   0.527   3.482   3.418 -0.3406  0.4320 -0.6801
    1SOL    HW2 7886   0.545   3.392   3.447  0.9098  0.7631 -0.3946
    1SOL    HW3 7887   0.445   3.505   3.462 -0.7319 -0.6072 -0.8395
    1SOL    MW4 7888   0.519   3.473   3.428 -0.2272  0.3386 -0.6635
    1SOL     OW 7889   0.739   3.607   3.543 -0.4582 -0.1507 -0.1591
    1SOL    HW2 7890   0.814   3.581   3.491 -0.0073 -2.2149  1.4628
    1SOL    HW3 7891   0.666   3.558   3.507 -0.6821  0.4708 -0.5626
    1SOL    MW4 7892   0.739   3.597   3.532 -0.4283 -0.3412  0.0014
    1SOL     OW 7893   0.670   3.842   3.390  0.0988  0.3794  0.0750
    1SOL    HW2 7894   0.602   3.900   3.423 -0.5068  0.3788 -1.1166
    1SOL    HW3 7895   0.665   3.764   3.446  0.5655  1.2528  1.3420
    1SOL    MW4 7896   0.660   3.839   3.401  0.0805  0.4947  0.0846
    1SOL     OW 7897   0.459   3.970   3.503 -0.3411 -0.1493 -0.2229
    1SOL    HW2 7898   0.461   4.066   3.500 -1.0698 -0.0976  0.7122
    1SOL    HW3 7899   0.383   3.945   3.452  0.9402 -0.3352 -2.1040
    1SOL    MW4 7900   0.449   3.980   3.496 -0.2682 -0.1671 -0.3474
    1SOL     OW 7901   0.502   4.252   3.443  0.5327 -0.0829  0.2710
    1SOL    HW2 7902   0.580   4.303   3.466  0.8039 -0.5952  0.5081
    1SOL    HW3 7903   0.498   4.257   3.347  0.4326  0.5597  0.3046
    1SOL    MW4 7904   0.512   4.260   3.433  0.5552 -0.0658  0.3066
    1SOL     OW 7905   0.688   4.415   3.543  0.0745 -0.0960  0.1027
    1SOL    HW2 7906   0.757   4.363   3.503  2.1475  2.3953  0.3279
    1SOL    HW3 7907   0.671   4.486   3.481 -1.6226 -0.1299  0.4913
    1SOL    MW4 7908   0.695   4.417   3.530  0.1241  0.2284  0.1838
    1SOL     OW 7909   1.136   4.664   3.391 -0.5993 -0.3065  0.2245
    1SOL    HW2 7910   1.216   4.708   3.420 -0.5007 -1.1910  1.3103
    1SOL    HW3 7911   1.135   4.676   3.296  0.2035  0.7418  0.3405
    1SOL    MW4 7912   1.146   4.672   3.383 -0.4804 -0.2842  0.3829
    1SOL     OW 7913   0.891   0.095   3.489 -0.1075 -0.0975  0.3433
    1SOL    HW2 7914   0.915   0.105   3.581  1.0359 -0.1781  0.0654
    1SOL    HW3 7915   0.964   0.047   3.450 -0.3136  0.4354 -0.7289
    1SOL    MW4 7916   0.904   0.090   3.496  0.0162 -0.0378  0.1652
    1SOL     OW 7917   0.909   0.337   3.374 -0.2208  0.4706 -0.2291
    1SOL    HW2 7918   0.971   0.374   3.437 -1.0722  0.7083  0.4840
    1SOL    HW3 7919   0.874   0.259   3.418 -0.1939  0.1598 -0.7539
    1SOL    MW4 7920   0.912   0.332   3.388 -0.3296  0.4610 -0.2043
    1SOL     OW 7921   1.108   0.469   3.504 -0.3384 -0.1225  0.4244
    1SOL    HW2 7922   1.104   0.484   3.599  1.7119  1.8756  0.2208
    1SOL    HW3 7923   1.084   0.553   3.465 -0.9207 -0.8612 -0.8497
    1SOL    MW4 7924   1.104   0.482   3.512 -0.1448  0.0436  0.2294
    1SOL     OW 7925   1.102   0.741   3.399  0.4130 -0.2673 -0.5590
    1SOL    HW2 7926   1.189   0.761   3.434  0.0308 -1.4228  1.0938
    1SOL    HW3 7927   1.050   0.819   3.418  0.3398 -0.6908  1.0655
    1SOL    MW4 7928   1.107   0.754   3.406  0.3529 -0.4757 -0.1264
    1SOL     OW 7929   0.884   0.882   3.476 -0.2535 -0.6146  0.2190
    1SOL    HW2 7930   0.858   0.965   3.436 -0.0016 -0.6827 -0.0879
    1SOL    HW3 7931   0.811   0.822   3.456  0.0015 -0.7285 -0.3960
    1SOL    MW4 7932   0.871   0.885   3.468 -0.1866 -0.6386  0.0973
    1SOL     OW 7933   0.840   1.148   3.406  0.2039 -0.3186  0.0490
    1SOL    HW2 7934   0.923   1.192   3.421 -0.9944  2.0556 -0.1370
    1SOL    HW3 7935   0.840   1.129   3.312  0.2661  0.2137 -0.0575
    1SOL    MW4 7936   0.851   1.151   3.395  0.0540  0.0647  0.0107
    1SOL     OW 7937   1.085   1.279   3.449  0.2702  0.4431 -0.0733
    1SOL    HW2 7938   1.107   1.268   3.542  1.1633  0.6516 -0.2552
    1SOL    HW3 7939   1.097   1.372   3.432 -1.6515  0.7430  0.0317
    1SOL    MW4 7940   1.089   1.290   3.459  0.1345  0.5101 -0.0834
    1SOL     OW 7941   1.134   1.543   3.402 -0.1007  0.4585 -1.0322
    1SOL    HW2 7942   1.205   1.591   3.445 -0.6988  0.4746 -0.0189
    1SOL    HW3 7943   1.141   1.566   3.310  2.1504 -0.7578 -1.1841
    1SOL    MW4 7944   1.144   1.552   3.396  0.1172  0.3002 -0.9184
    1SOL     OW 7945   0.886   1.659   3.439  0.1227 -0.8731 -0.2690
    1SOL    HW2 7946   0.899   1.748   3.406  0.1132 -0.9285 -0.4224
    1SOL    HW3 7947   0.972   1.618   3.432  0.5743 -0.2899  1.5660
    1SOL    MW4 7948   0.899   1.665   3.434  0.1810 -0.8034 -0.0472
    1SOL     OW 7949   0.907   1.920   3.373  0.7375 -0.1910  0.9958
    1SOL    HW2 7950   0.970   1.968   3.427  0.4241  1.1951  0.1544
    1SOL    HW3 7951   0.822   1.955   3.398  0.5893  0.4741 -0.3766
    1SOL    MW4 7952   0.904   1.931   3.383  0.6766  0.0796  0.7036
    1SOL     OW 7953   1.124   2.021   3.527  0.0914  0.0472 -0.1496
    1SOL    HW2 7954   1.204   1.975   3.499 -1.3199 -1.0539 -2.4835
    1SOL    HW3 7955   1.131   2.108   3.488 -1.6543 -1.3344 -3.7262
    1SOL    MW4 7956   1.136   2.026   3.518 -0.3250 -0.2804 -0.9296
    1SOL     OW 7957   1.141   2.283   3.400 -0.0160 -0.0690  0.1377
    1SOL    HW2 7958   1.219   2.323   3.438  0.9866 -0.7280 -1.2201
    1SOL    HW3 7959   1.148   2.299   3.306 -1.4932 -0.1748 -0.0051
    1SOL    MW4 7960   1.152   2.290   3.393 -0.0787 -0.1698 -0.0603
    1SOL     OW 7961   0.914   2.443   3.475 -0.0855  0.1792 -0.2539
    1SOL    HW2 7962   0.915   2.445   3.571  0.0548 -0.8651 -0.2249
    1SOL    HW3 7963   0.991   2.391   3.451  0.1595  0.8539 -0.9493
    1SOL    MW4 7964   0.924   2.436   3.485 -0.0347  0.1304 -0.3417
    1SOL     OW 7965   0.923   2.701   3.364 -0.0698  0.1797  0.0446
    1SOL    HW2 7966   0.991   2.741   3.418  0.9421 -0.5145 -0.6988
    1SOL    HW3 7967   0.917   2.611   3.396  0.0018 -0.0156 -0.4834
    1SOL    MW4 7968   0.931   2.695   3.375  0.0732  0.0625 -0.1230
    1SOL     OW 7969   1.129   2.847   3.495  0.1516 -0.0245 -0.0613
    1SOL    HW2 7970   1.128   2.842   3.590 -0.3814 -0.7768 -0.0908
    1SOL    HW3 7971   1.210   2.803   3.469  0.5131  0.5715  0.0601
    1SOL    MW4 7972   1.139   2.840   3.504  0.1290 -0.0453 -0.0491
    1SOL     OW 7973   1.171   3.118   3.444 -0.0726  0.5273 -0.0411
    1SOL    HW2 7974   1.170   3.025   3.465 -1.1593  0.7819  1.0749
    1SOL    HW3 7975   1.163   3.121   3.349 -0.3944 -0.5049 -0.0489
    1SOL    MW4 7976   1.170   3.106   3.434 -0.2583  0.4249  0.1051
    1SOL     OW 7977   0.942   3.234   3.542  0.3373 -0.3371 -0.3090
    1SOL    HW2 7978   1.014   3.187   3.502  0.3861  0.2985 -0.9647
    1SOL    HW3 7979   0.863   3.194   3.504  0.4094  2.0748 -3.1395
    1SOL    MW4 7980   0.941   3.222   3.532  0.3533  0.0651 -0.7691
    1SOL     OW 7981   0.950   3.507   3.390  0.6484  0.5507  0.1383
    1SOL    HW2 7982   0.966   3.419   3.425  1.1918  0.9174  0.8395
    1SOL    HW3 7983   0.933   3.493   3.297 -0.3956 -0.4021  0.4680
    1SOL    MW4 7984   0.950   3.493   3.383  0.5823  0.4733  0.2744
    1SOL     OW 7985   1.163   3.631   3.495  0.1156 -0.2872  0.0419
    1SOL    HW2 7986   1.166   3.604   3.587 -0.8456 -0.5742 -0.0148
    1SOL    HW3 7987   1.085   3.589   3.459  0.6469 -0.4163 -0.9874
    1SOL    MW4 7988   1.153   3.622   3.502  0.0589 -0.3419 -0.1013
    1SOL     OW 7989   1.125   3.920   3.457  0.0373  0.2392  0.0834
    1SOL    HW2 7990   1.205   3.966   3.483 -0.1018  0.0814  0.7877
    1SOL    HW3 7991   1.148   3.828   3.460 -0.2570  0.1826  0.5664
    1SOL    MW4 7992   1.139   3.914   3.461 -0.0200  0.2108  0.2401
    1SOL     OW 7993   0.870   3.992   3.503 -0.2436 -0.0088 -0.2390
    1SOL    HW2 7994   0.957   3.963   3.477 -0.2460  0.5065 -0.8152
    1SOL    HW3 7995   0.811   3.931   3.459 -0.1699 -0.5097  0.3482
    1SOL    MW4 7996   0.874   3.980   3.494 -0.2342 -0.0072 -0.2375
    1SOL     OW 7997   0.861   4.262   3.381  0.0031 -0.1353  0.2257
    1SOL    HW2 7998   0.857   4.173   3.416  0.6186  0.0890  0.8774
    1SOL    HW3 7999   0.887   4.250   3.289  0.2327 -0.6220  0.3485
    1SOL    MW4 8000   0.864   4.248   3.373  0.1146 -0.1698  0.3278
    1SOL     OW 8001   1.105   4.384   3.454  0.7734  0.1643  0.1443
    1SOL    HW2 8002   1.019   4.367   3.417 -0.0071  0.2101  1.9059
    1SOL    HW3 8003   1.123   4.476   3.431  0.2015  0.2596  0.0716
    1SOL    MW4 8004   1.096   4.394   3.446  0.5949  0.1822  0.3669
    1SOL     OW 8005   1.579   0.009   3.383 -0.0176 -0.2391  0.8825
    1SOL    HW2 8006   1.591  -0.080   3.413 -0.6624 -0.5461  0.2533
    1SOL    HW3 8007   1.508   0.044   3.437 -1.6809 -1.0299 -0.7295
    1SOL    MW4 8008   1.571   0.002   3.394 -0.3221 -0.3839  0.5867
    1SOL     OW 8009   1.361   0.133   3.485 -0.5220 -0.1399 -0.3888
    1SOL    HW2 8010   1.346   0.138   3.579 -0.8763  0.6131 -0.4852
    1SOL    HW3 8011   1.361   0.223   3.455  0.0057 -0.3498 -1.0554
    1SOL    MW4 8012   1.359   0.145   3.493 -0.4990 -0.0683 -0.4895
    1SOL     OW 8013   1.373   0.400   3.389  0.1378  0.2146 -0.2677
    1SOL    HW2 8014   1.446   0.449   3.428  0.3207  0.5676 -1.0526
    1SOL    HW3 8015   1.295   0.445   3.421  0.3071  1.1062 -1.0828
    1SOL    MW4 8016   1.372   0.412   3.398  0.1843  0.3788 -0.4790
    1SOL     OW 8017   1.614   0.549   3.524 -0.0838 -0.2816  0.3940
    1SOL    HW2 8018   1.621   0.545   3.619 -0.0596 -1.1091  0.3631
    1SOL    HW3 8019   1.687   0.496   3.493  0.5992  0.9267 -0.1096
    1SOL    MW4 8020   1.625   0.542   3.533  0.0095 -0.2313  0.3235
    1SOL     OW 8021   1.576   0.799   3.398 -0.9301 -0.2432 -0.3790
    1SOL    HW2 8022   1.493   0.832   3.433  0.4334  1.5735  1.2661
    1SOL    HW3 8023   1.585   0.712   3.435 -1.3315  0.2005  0.7975
    1SOL    MW4 8024   1.566   0.792   3.407 -0.8032  0.0550 -0.0067
    1SOL     OW 8025   1.323   0.890   3.496 -0.1392  0.0255  0.4451
    1SOL    HW2 8026   1.339   0.898   3.590 -1.2350 -1.0815  0.7476
    1SOL    HW3 8027   1.298   0.978   3.468 -1.8253 -0.0421  1.6164
    1SOL    MW4 8028   1.322   0.903   3.504 -0.5062 -0.1295  0.6394
    1SOL     OW 8029   1.322   1.131   3.388 -0.2382 -0.9811 -0.2099
    1SOL    HW2 8030   1.392   1.164   3.446 -0.3970 -0.2543 -0.4247
    1SOL    HW3 8031   1.249   1.191   3.403 -1.1281 -2.2516  0.6676
    1SOL    MW4 8032   1.322   1.143   3.398 -0.3766 -1.0527 -0.1225
    1SOL     OW 8033   1.547   1.231   3.507  0.0649  0.2254  0.2964
    1SOL    HW2 8034   1.562   1.237   3.601  0.5569 -0.4226  0.2656
    1SOL    HW3 8035   1.629   1.195   3.472 -0.1685  0.3260 -0.3575
    1SOL    MW4 8036   1.560   1.227   3.515  0.0988  0.1531  0.2060
    1SOL     OW 8037   1.547   1.508   3.432 -0.0464  0.5004  0.3580
    1SOL    HW2 8038   1.533   1.415   3.450  0.6612  0.4319  0.5338
    1SOL    HW3 8039   1.567   1.512   3.338 -1.1805  0.5995  0.1012
    1SOL    MW4 8040   1.548   1.497   3.422 -0.1026  0.5044  0.3474
    1SOL     OW 8041   1.343   1.666   3.526 -0.1202  0.3157  0.3268
    1SOL    HW2 8042   1.347   1.674   3.621 -0.6384  1.0717  0.2840
    1SOL    HW3 8043   1.411   1.601   3.505  0.5291  0.7181  1.1330
    1SOL    MW4 8044   1.353   1.658   3.536 -0.1028  0.4684  0.4275
    1SOL     OW 8045   1.387   1.921   3.426 -0.0750  0.6118 -0.2670
    1SOL    HW2 8046   1.456   1.968   3.471  0.0871  1.0153 -0.9387
    1SOL    HW3 8047   1.395   1.831   3.458 -0.0434  0.9137  0.6003
    1SOL    MW4 8048   1.397   1.915   3.437 -0.0495  0.7049 -0.2413
    1SOL     OW 8049   1.570   2.095   3.529  0.0136  0.2566 -0.0556
    1SOL    HW2 8050   1.626   2.026   3.496  0.1432  0.3164  0.0408
    1SOL    HW3 8051   1.575   2.165   3.464  1.0134  0.7602  0.5545
    1SOL    MW4 8052   1.578   2.095   3.516  0.1626  0.3309  0.0374
    1SOL     OW 8053   1.554   2.324   3.378  0.2888  0.3170 -0.5343
    1SOL    HW2 8054   1.488   2.360   3.437  0.4293 -1.4976  0.7675
    1SOL    HW3 8055   1.635   2.369   3.402  0.5207 -1.0267  1.2726
    1SOL    MW4 8056   1.556   2.335   3.389  0.3378 -0.0994 -0.1240
    1SOL     OW 8057   1.339   2.444   3.522 -0.2842 -0.4020  0.0523
    1SOL    HW2 8058   1.315   2.461   3.613  0.3379 -1.0607  0.3459
    1SOL    HW3 8059   1.348   2.531   3.483 -0.4003 -0.1137  0.6644
    1SOL    MW4 8060   1.337   2.458   3.529 -0.2174 -0.4508  0.1717
    1SOL     OW 8061   1.362   2.719   3.425 -0.3342  0.3416  0.7306
    1SOL    HW2 8062   1.448   2.757   3.442 -0.7339  1.2456  0.7356
    1SOL    HW3 8063   1.362   2.700   3.331 -0.6429  1.6212  0.4714
    1SOL    MW4 8064   1.373   2.721   3.415 -0.4278  0.6294  0.6969
    1SOL     OW 8065   1.591   2.827   3.516  0.0608 -0.1477 -0.1640
    1SOL    HW2 8066   1.673   2.807   3.471  1.5818  0.0031  2.4942
    1SOL    HW3 8067   1.572   2.918   3.491  1.2637  0.1728  0.0879
    1SOL    MW4 8068   1.599   2.836   3.507  0.4202 -0.0854  0.2201
    1SOL     OW 8069   1.557   3.094   3.421 -0.1737  0.0426  0.2203
    1SOL    HW2 8070   1.637   3.146   3.431  0.9557 -1.3850 -1.0519
    1SOL    HW3 8071   1.493   3.137   3.478  0.7815  2.6333 -0.5871
    1SOL    MW4 8072   1.559   3.106   3.430  0.1014  0.1962 -0.0539
    1SOL     OW 8073   1.380   3.263   3.560 -0.1318 -0.0931  0.2695
    1SOL    HW2 8074   1.387   3.245   3.654 -0.9467 -0.6842  0.2226
    1SOL    HW3 8075   1.298   3.221   3.534  0.0445  0.1542 -0.6883
    1SOL    MW4 8076   1.370   3.255   3.569 -0.2160 -0.1385  0.1369
    1SOL     OW 8077   1.369   3.485   3.396 -0.3418  0.0232 -0.2126
    1SOL    HW2 8078   1.375   3.411   3.457 -0.9624 -0.3875 -0.6339
    1SOL    HW3 8079   1.292   3.534   3.426  1.7822  2.1980  1.8805
    1SOL    MW4 8080   1.360   3.481   3.408 -0.1433  0.2558  0.0079
    1SOL     OW 8081   1.590   3.631   3.506 -0.3228 -0.2726  0.7039
    1SOL    HW2 8082   1.581   3.623   3.601  0.4618  2.2074  1.0367
    1SOL    HW3 8083   1.513   3.587   3.470 -1.0586 -0.4813  2.5257
    1SOL    MW4 8084   1.579   3.624   3.513 -0.3164  0.0269  0.9885
    1SOL     OW 8085   1.603   3.909   3.455  0.3161  0.0628 -0.5597
    1SOL    HW2 8086   1.597   3.818   3.483 -2.6309 -0.2251 -1.9172
    1SOL    HW3 8087   1.598   3.905   3.359  0.0752  1.6639 -0.6285
    1SOL    MW4 8088   1.602   3.896   3.446 -0.1047  0.2360 -0.7477
    1SOL     OW 8089   1.353   4.055   3.516  0.2955  0.2097 -0.4497
    1SOL    HW2 8090   1.359   4.140   3.473  0.5946  0.3381 -0.1537
    1SOL    HW3 8091   1.427   4.005   3.482 -0.8225 -0.5046 -1.8788
    1SOL    MW4 8092   1.363   4.060   3.506  0.1875  0.1321 -0.5991
    1SOL     OW 8093   1.358   4.297   3.374  0.1281 -0.3104 -0.0348
    1SOL    HW2 8094   1.275   4.331   3.407  1.0120  1.1685  0.7106
    1SOL    HW3 8095   1.338   4.265   3.286 -1.1773  0.2751  0.0429
    1SOL    MW4 8096   1.344   4.297   3.367  0.0726 -0.0381  0.0737
    1SOL     OW 8097   1.579   4.428   3.492  0.2158  0.0788 -0.1149
    1SOL    HW2 8098   1.657   4.381   3.462  1.1100  1.6853 -0.3857
    1SOL    HW3 8099   1.508   4.390   3.441  1.1182 -0.0520 -1.3118
    1SOL    MW4 8100   1.580   4.417   3.481  0.4529  0.2732 -0.3088
    1SOL     OW 8101   2.032   4.665   3.373 -0.0836 -0.2080  0.1298
    1SOL    HW2 8102   2.104   4.714   3.413 -0.6687  0.0066  0.9345
    1SOL    HW3 8103   1.953   4.703   3.411 -0.6095 -0.7630 -0.3897
    1SOL    MW4 8104   2.031   4.676   3.383 -0.2301 -0.2529  0.1674
    1SOL     OW 8105   1.817   0.138   3.471 -0.4819 -0.1521  0.2481
    1SOL    HW2 8106   1.807   0.149   3.566  1.0759 -1.3048  0.5751
    1SOL    HW3 8107   1.728   0.119   3.440 -0.6494 -2.1816  1.8359
    1SOL    MW4 8108   1.804   0.137   3.480 -0.2985 -0.5720  0.5004
    1SOL     OW 8109   1.815   0.397   3.385 -0.2203 -0.3423 -0.5545
    1SOL    HW2 8110   1.806   0.307   3.418 -0.3585 -0.4382 -0.8523
    1SOL    HW3 8111   1.791   0.391   3.292 -0.3541  0.0255 -0.5449
    1SOL    MW4 8112   1.811   0.384   3.377 -0.2562 -0.3064 -0.5927
    1SOL     OW 8113   2.034   0.529   3.495  0.3282 -0.2953  0.0338
    1SOL    HW2 8114   2.023   0.620   3.468  0.5024 -0.0191  0.8864
    1SOL    HW3 8115   1.973   0.480   3.439 -0.7252  0.4995  0.4620
    1SOL    MW4 8116   2.024   0.534   3.484  0.2124 -0.1540  0.2029
    1SOL     OW 8117   2.012   0.784   3.429  0.3496  0.7025  0.2472
    1SOL    HW2 8118   2.095   0.824   3.454 -0.2308  1.6541  0.6742
    1SOL    HW3 8119   2.016   0.777   3.334  0.6900  1.2661  0.2206
    1SOL    MW4 8120   2.023   0.788   3.420  0.3178  0.9024  0.2999
    1SOL     OW 8121   1.784   0.872   3.554  0.6277 -0.2774 -0.3151
    1SOL    HW2 8122   1.861   0.829   3.516  0.0815 -1.4010 -0.1869
    1SOL    HW3 8123   1.711   0.843   3.499  0.2051  0.2610 -0.0402
    1SOL    MW4 8124   1.784   0.862   3.542  0.5000 -0.3546 -0.2618
    1SOL     OW 8125   1.771   1.119   3.402 -0.0515 -0.6738 -0.2439
    1SOL    HW2 8126   1.856   1.146   3.439  0.4902 -1.4307 -0.9326
    1SOL    HW3 8127   1.752   1.036   3.445 -0.4250 -0.5361 -0.1374
    1SOL    MW4 8128   1.780   1.112   3.413 -0.0293 -0.7557 -0.3204
    1SOL     OW 8129   2.010   1.244   3.515  0.3074 -0.1729  0.1047
    1SOL    HW2 8130   2.002   1.244   3.611 -0.9859  0.3626  0.0183
    1SOL    HW3 8131   2.022   1.337   3.493  0.0028 -0.2308 -0.2936
    1SOL    MW4 8132   2.010   1.256   3.525  0.0968 -0.1099  0.0405
    1SOL     OW 8133   2.012   1.511   3.407  0.4668 -0.2328  0.3633
    1SOL    HW2 8134   2.085   1.564   3.439  0.9024 -1.4930  1.4907
    1SOL    HW3 8135   1.934   1.564   3.426  0.9678  0.4445  0.5376
    1SOL    MW4 8136   2.011   1.525   3.414  0.5906 -0.3098  0.5352
    1SOL     OW 8137   1.782   1.662   3.489  0.3323 -0.0885 -0.2394
    1SOL    HW2 8138   1.755   1.750   3.465 -0.2225 -0.0562  0.4973
    1SOL    HW3 8139   1.704   1.608   3.476  0.3500 -0.2715  0.3870
    1SOL    MW4 8140   1.769   1.667   3.484  0.2614 -0.1084 -0.0596
    1SOL     OW 8141   1.767   1.927   3.410  0.0388  0.2858  0.1380
    1SOL    HW2 8142   1.846   1.952   3.458 -0.3267 -0.1812  0.9981
    1SOL    HW3 8143   1.794   1.928   3.318  1.2601 -0.6306  0.4641
    1SOL    MW4 8144   1.781   1.930   3.404  0.1518  0.1032  0.2944
    1SOL     OW 8145   2.001   2.037   3.500 -0.0964 -0.1550 -0.0889
    1SOL    HW2 8146   2.079   1.993   3.466 -0.5397  1.1177 -2.8969
    1SOL    HW3 8147   2.016   2.130   3.480 -1.1934  0.4400  1.6978
    1SOL    MW4 8148   2.013   2.044   3.493 -0.2997  0.0911 -0.2239
    1SOL     OW 8149   2.049   2.334   3.364  0.1496 -0.0055  0.6173
    1SOL    HW2 8150   2.124   2.386   3.390 -0.3559  1.0802 -0.0447
    1SOL    HW3 8151   2.031   2.360   3.273 -0.6401 -0.7013  0.5604
    1SOL    MW4 8152   2.056   2.344   3.355 -0.0210  0.0460  0.5221
    1SOL     OW 8153   1.806   2.447   3.450  0.4064  0.0935 -0.3328
    1SOL    HW2 8154   1.885   2.398   3.426  1.9761  1.2181  2.3679
    1SOL    HW3 8155   1.798   2.436   3.544 -0.7908  2.7010 -0.0870
    1SOL    MW4 8156   1.815   2.439   3.459  0.4555  0.5860  0.0558
    1SOL     OW 8157   1.835   2.710   3.386 -0.1402  0.5025 -0.3256
    1SOL    HW2 8158   1.912   2.746   3.430 -0.3987  0.3522  0.2425
    1SOL    HW3 8159   1.828   2.621   3.418 -1.5282  1.0355  0.9106
    1SOL    MW4 8160   1.844   2.703   3.396 -0.3574  0.5531 -0.0873
    1SOL     OW 8161   2.036   2.845   3.515  0.2785  0.3493 -0.2527
    1SOL    HW2 8162   2.029   2.876   3.605 -0.5764  0.1705 -0.2525
    1SOL    HW3 8163   2.039   2.925   3.462  0.1850  0.4531 -0.1016
    1SOL    MW4 8164   2.035   2.860   3.520  0.1531  0.3393 -0.2329
    1SOL     OW 8165   2.021   3.084   3.379  0.5714  0.5052  0.3891
    1SOL    HW2 8166   2.092   3.138   3.413  0.4827  0.4984  0.5875
    1SOL    HW3 8167   1.942   3.133   3.401  0.5179  0.5494  0.1032
    1SOL    MW4 8168   2.020   3.098   3.387  0.5524  0.5105  0.3774
    1SOL     OW 8169   1.806   3.227   3.487 -0.6220 -0.2510 -0.4092
    1SOL    HW2 8170   1.812   3.229   3.582  1.5228 -0.2761 -0.5258
    1SOL    HW3 8171   1.786   3.317   3.462 -0.9086 -0.1860  0.0460
    1SOL    MW4 8172   1.804   3.239   3.496 -0.3768 -0.2458 -0.3645
    1SOL     OW 8173   1.795   3.487   3.389  0.0830 -0.2865 -0.0785
    1SOL    HW2 8174   1.716   3.531   3.419  0.7771  1.1273 -0.2868
    1SOL    HW3 8175   1.806   3.516   3.299  2.1610  1.4376  0.7068
    1SOL    MW4 8176   1.786   3.496   3.381  0.4487  0.1276 -0.0024
    1SOL     OW 8177   2.001   3.622   3.540  0.7905  0.2266 -0.2158
    1SOL    HW2 8178   2.070   3.578   3.492  0.1789  0.0085 -0.8995
    1SOL    HW3 8179   1.920   3.591   3.501  0.3057  0.6655  0.4163
    1SOL    MW4 8180   2.000   3.612   3.529  0.6459  0.2558 -0.2224
    1SOL     OW 8181   2.069   3.877   3.428  0.1360 -0.2119  0.0695
    1SOL    HW2 8182   1.995   3.928   3.461  0.4137  0.4181 -0.2713
    1SOL    HW3 8183   2.048   3.786   3.451 -1.2137 -0.1576 -0.8632
    1SOL    MW4 8184   2.056   3.872   3.435 -0.0055 -0.1214 -0.0985
    1SOL     OW 8185   1.840   4.033   3.495 -0.1082 -0.5615  0.3866
    1SOL    HW2 8186   1.849   4.023   3.590 -1.9772  0.0810  0.6395
    1SOL    HW3 8187   1.760   3.985   3.473  0.8099 -1.4909 -1.0192
    1SOL    MW4 8188   1.831   4.025   3.505 -0.2338 -0.5989  0.2346
    1SOL     OW 8189   1.821   4.282   3.377 -0.2663  0.4336  0.0749
    1SOL    HW2 8190   1.844   4.200   3.421 -1.3447  0.0972  0.0293
    1SOL    HW3 8191   1.825   4.261   3.283 -2.4779 -0.1451  0.0693
    1SOL    MW4 8192   1.824   4.268   3.370 -0.7004  0.3123  0.0679
    1SOL     OW 8193   2.030   4.413   3.480 -0.4229  0.2135 -0.2027
    1SOL    HW2 8194   1.957   4.367   3.438 -0.0462 -1.4101  0.8854
    1SOL    HW3 8195   2.039   4.494   3.430 -3.2236  0.6320 -0.1232
    1SOL    MW4 8196   2.021   4.417   3.468 -0.7427  0.0548 -0.0486
    1SOL     OW 8197   2.496   0.010   3.355 -0.0732 -0.1955 -0.1757
    1SOL    HW2 8198   2.483  -0.081   3.383  1.4602 -0.1734  0.6525
    1SOL    HW3 8199   2.488   0.007   3.259 -0.1576 -1.1705 -0.1406
    1SOL    MW4 8200   2.493  -0.002   3.346  0.1183 -0.3211 -0.0618
    1SOL     OW 8201   2.252   0.122   3.483 -0.1883  0.1842 -0.0323
    1SOL    HW2 8202   2.241   0.214   3.459 -0.6069 -0.1548 -1.1891
    1SOL    HW3 8203   2.331   0.095   3.436  0.0119 -0.0150  0.4164
    1SOL    MW4 8204   2.261   0.131   3.473 -0.2170  0.1132 -0.1256
    1SOL     OW 8205   2.259   0.402   3.396 -0.1300  0.2771 -0.6783
    1SOL    HW2 8206   2.339   0.419   3.445 -0.4503 -0.3610  0.0714
    1SOL    HW3 8207   2.190   0.444   3.448 -0.5951 -1.1839 -0.0974
    1SOL    MW4 8208   2.260   0.410   3.409 -0.2337  0.0001 -0.5026
    1SOL     OW 8209   2.505   0.484   3.500 -0.0191 -0.0643  0.3376
    1SOL    HW2 8210   2.583   0.452   3.455  0.0057 -0.7722  0.8804
    1SOL    HW3 8211   2.487   0.569   3.458  0.8957 -0.0026  0.0473
    1SOL    MW4 8212   2.513   0.491   3.488  0.1051 -0.1495  0.3712
    1SOL     OW 8213   2.450   0.736   3.379  0.1393  0.1335  0.0913
    1SOL    HW2 8214   2.516   0.797   3.414  0.3288 -0.0889  0.1237
    1SOL    HW3 8215   2.475   0.723   3.288  0.6871 -0.6804  0.3533
    1SOL    MW4 8216   2.462   0.742   3.372  0.2365 -0.0032  0.1302
    1SOL     OW 8217   2.245   0.879   3.499 -0.3075 -0.6064  0.2929
    1SOL    HW2 8218   2.247   0.964   3.454  0.6210 -0.1879  1.1206
    1SOL    HW3 8219   2.305   0.824   3.449  1.6233  0.2000  1.6702
    1SOL    MW4 8220   2.253   0.883   3.486  0.0696 -0.4448  0.5839
    1SOL     OW 8221   2.227   1.129   3.372 -0.2350  0.3594 -0.0121
    1SOL    HW2 8222   2.301   1.185   3.397  0.4866 -0.1559 -0.9592
    1SOL    HW3 8223   2.151   1.169   3.416  0.6438  0.7194  1.2271
    1SOL    MW4 8224   2.227   1.142   3.381 -0.0238  0.3389  0.0262
    1SOL     OW 8225   2.448   1.258   3.457  0.3875  0.2281 -0.3803
    1SOL    HW2 8226   2.438   1.251   3.552 -0.7210 -1.3005 -0.5887
    1SOL    HW3 8227   2.521   1.200   3.436  0.3538  0.2295 -0.5044
    1SOL    MW4 8228   2.456   1.250   3.467  0.2370  0.0267 -0.4241
    1SOL     OW 8229   2.439   1.513   3.350  0.3161  0.0825  0.1390
    1SOL    HW2 8230   2.457   1.428   3.389 -3.9296 -0.5573  0.8770
    1SOL    HW3 8231   2.459   1.502   3.257 -1.9716 -2.3087 -0.1050
    1SOL    MW4 8232   2.444   1.500   3.343 -0.5460 -0.3173  0.2043
    1SOL     OW 8233   2.226   1.652   3.487  0.0564 -0.2797  0.2607
    1SOL    HW2 8234   2.256   1.657   3.578  0.7321 -0.8730  0.0749
    1SOL    HW3 8235   2.288   1.593   3.445  0.7595  1.3436 -1.0156
    1SOL    MW4 8236   2.238   1.645   3.494  0.2384 -0.1439  0.0679
    1SOL     OW 8237   2.213   1.918   3.407 -0.4073 -0.3460 -0.0247
    1SOL    HW2 8238   2.217   1.830   3.445 -2.2575 -0.2453  0.4279
    1SOL    HW3 8239   2.220   1.904   3.313  0.9819 -0.8365  0.1332
    1SOL    MW4 8240   2.215   1.905   3.399 -0.4680 -0.3973  0.0558
    1SOL     OW 8241   2.450   2.061   3.451 -0.1600  0.4748 -0.4673
    1SOL    HW2 8242   2.465   2.055   3.546  0.1429 -0.1887 -0.5531
    1SOL    HW3 8243   2.370   2.012   3.436  0.6073 -0.7185 -0.7503
    1SOL    MW4 8244   2.442   2.054   3.462 -0.0188  0.2301 -0.5159
    1SOL     OW 8245   2.465   2.327   3.364  0.3786  0.0778 -0.1617
    1SOL    HW2 8246   2.542   2.362   3.408  1.1314  0.0424 -1.4179
    1SOL    HW3 8247   2.465   2.233   3.385  2.3861 -0.5150 -2.5461
    1SOL    MW4 8248   2.475   2.319   3.372  0.7429 -0.0048 -0.6421
    1SOL     OW 8249   2.281   2.471   3.506 -0.4432  0.3040  0.5555
    1SOL    HW2 8250   2.298   2.558   3.470 -0.5451  0.2787  0.4473
    1SOL    HW3 8251   2.349   2.416   3.466  0.9984  0.7600  2.2957
    1SOL    MW4 8252   2.292   2.476   3.496 -0.2666  0.3607  0.7708
    1SOL     OW 8253   2.264   2.732   3.395 -0.1288 -0.5362  0.2018
    1SOL    HW2 8254   2.187   2.762   3.443  0.8773  0.5500  1.1440
    1SOL    HW3 8255   2.239   2.741   3.303 -0.2704  2.1535  0.4630
    1SOL    MW4 8256   2.250   2.737   3.389 -0.0145 -0.0381  0.3607
    1SOL     OW 8257   2.471   2.876   3.477  0.1757  0.1145  0.3149
    1SOL    HW2 8258   2.459   2.967   3.450 -1.5932  0.0185  0.7034
    1SOL    HW3 8259   2.395   2.831   3.441  0.0868 -0.8640  1.7024
    1SOL    MW4 8260   2.459   2.882   3.468 -0.0694 -0.0274  0.5488
    1SOL     OW 8261   2.456   3.135   3.384 -0.0932 -0.2240 -0.0133
    1SOL    HW2 8262   2.547   3.163   3.398  0.8401 -3.4514  0.7773
    1SOL    HW3 8263   2.452   3.116   3.290  0.1479 -0.4242  0.0152
    1SOL    MW4 8264   2.468   3.136   3.373  0.0615 -0.6759  0.0944
    1SOL     OW 8265   2.211   3.249   3.483 -0.4531 -0.0409  0.0891
    1SOL    HW2 8266   2.215   3.246   3.579 -0.2129 -0.8861  0.0566
    1SOL    HW3 8267   2.292   3.206   3.455 -0.1147  0.9647 -0.4930
    1SOL    MW4 8268   2.222   3.243   3.492 -0.3767 -0.0198  0.0081
    1SOL     OW 8269   2.242   3.507   3.412  0.5819 -0.4965 -0.4508
    1SOL    HW2 8270   2.221   3.415   3.424 -0.3804 -0.5236 -2.1241
    1SOL    HW3 8271   2.242   3.520   3.317 -0.9013  1.5639 -0.2144
    1SOL    MW4 8272   2.239   3.497   3.401  0.2592 -0.2282 -0.6404
    1SOL     OW 8273   2.471   3.601   3.504 -0.4497  0.5156 -0.2430
    1SOL    HW2 8274   2.463   3.686   3.460 -0.6785  0.2757 -0.6727
    1SOL    HW3 8275   2.392   3.554   3.479  0.0733 -0.1378 -0.6883
    1SOL    MW4 8276   2.459   3.606   3.495 -0.4110  0.3977 -0.3586
    1SOL     OW 8277   2.489   3.850   3.390 -0.0330  0.7914  0.6107
    1SOL    HW2 8278   2.572   3.890   3.417  0.0983  0.2118  1.0544
    1SOL    HW3 8279   2.422   3.910   3.423  0.1779  0.8217  0.9832
    1SOL    MW4 8280   2.491   3.863   3.398  0.0122  0.7191  0.7184
    1SOL     OW 8281   2.291   3.993   3.510  0.2852 -0.1392  0.2807
    1SOL    HW2 8282   2.277   4.083   3.480  1.3803 -0.0167  0.1102
    1SOL    HW3 8283   2.210   3.947   3.487 -0.5752  0.9687  1.0315
    1SOL    MW4 8284   2.279   3.999   3.503  0.3161  0.0231  0.3572
    1SOL     OW 8285   2.253   4.263   3.421 -0.3944 -0.5642  0.2113
    1SOL    HW2 8286   2.171   4.308   3.444  0.4988  1.2743 -0.1357
    1SOL    HW3 8287   2.244   4.244   3.328 -0.6839 -0.9226  0.3113
    1SOL    MW4 8288   2.241   4.266   3.412 -0.3147 -0.3686  0.1791
    1SOL     OW 8289   2.476   4.426   3.485  0.4371 -0.1644 -0.1813
    1SOL    HW2 8290   2.471   4.429   3.581  0.5521  0.5415 -0.1984
    1SOL    HW3 8291   2.399   4.375   3.459  2.0608 -3.0446  0.4459
    1SOL    MW4 8292   2.465   4.420   3.494  0.6669 -0.4511 -0.1006
    1SOL     OW 8293   2.951   0.005   3.399 -0.0431  0.2923 -0.6100
    1SOL    HW2 8294   2.869   0.040   3.432 -0.2250 -1.5266  0.9933
    1SOL    HW3 8295   2.946   0.016   3.304 -2.2458 -0.0210 -0.5519
    1SOL    MW4 8296   2.940   0.011   3.391 -0.3579  0.0110 -0.3908
    1SOL     OW 8297   2.717   0.105   3.501 -0.3001  0.0236  0.1970
    1SOL    HW2 8298   2.730   0.190   3.460  2.1365 -0.4642 -0.1188
    1SOL    HW3 8299   2.641   0.068   3.457 -0.7483  1.5935 -0.3801
    1SOL    MW4 8300   2.709   0.111   3.490 -0.0379  0.1664  0.0792
    1SOL     OW 8301   2.738   0.363   3.379  0.4290 -0.5771  0.1363
    1SOL    HW2 8302   2.807   0.412   3.424 -0.5253  0.1235  0.8758
    1SOL    HW3 8303   2.749   0.383   3.287  0.0848  1.0152  0.4296
    1SOL    MW4 8304   2.748   0.372   3.373  0.2577 -0.2746  0.2725
    1SOL     OW 8305   2.945   0.513   3.502 -0.3084  0.1190 -0.1418
    1SOL    HW2 8306   2.928   0.532   3.595  0.2224  0.3799 -0.0982
    1SOL    HW3 8307   2.910   0.589   3.456  1.2689  0.9400 -0.0085
    1SOL    MW4 8308   2.938   0.525   3.508 -0.0305  0.2618 -0.1187
    1SOL     OW 8309   2.864   0.767   3.396  0.3212 -0.2022 -0.1614
    1SOL    HW2 8310   2.930   0.812   3.449  0.5826 -1.0807  0.2723
    1SOL    HW3 8311   2.780   0.799   3.430  0.5203  1.4162 -1.1543
    1SOL    MW4 8312   2.861   0.777   3.407  0.3822 -0.1045 -0.2353
    1SOL     OW 8313   2.640   0.901   3.506 -0.2003  0.4631  0.2639
    1SOL    HW2 8314   2.678   0.901   3.594 -0.0293  0.5129  0.1917
    1SOL    HW3 8315   2.657   0.990   3.473 -2.0483  1.1001  0.9400
    1SOL    MW4 8316   2.647   0.913   3.513 -0.4213  0.5538  0.3436
    1SOL     OW 8317   2.680   1.146   3.389 -0.1088 -0.0690  0.3823
    1SOL    HW2 8318   2.755   1.193   3.425 -0.9949  0.1515  1.9845
    1SOL    HW3 8319   2.694   1.147   3.294  1.9371 -0.1163  0.6760
    1SOL    MW4 8320   2.692   1.153   3.381  0.0443 -0.0460  0.6325
    1SOL     OW 8321   2.882   1.287   3.490  0.3590 -0.0299  0.2421
    1SOL    HW2 8322   2.880   1.285   3.586 -0.3690  0.0344  0.2343
    1SOL    HW3 8323   2.965   1.246   3.467  0.2408 -0.6465  0.8899
    1SOL    MW4 8324   2.893   1.281   3.500  0.2472 -0.1028  0.3266
    1SOL     OW 8325   2.910   1.567   3.395 -0.4822  0.0361  0.3243
    1SOL    HW2 8326   2.833   1.605   3.439 -2.2725 -1.2266 -1.6311
    1SOL    HW3 8327   2.898   1.472   3.405  0.7664 -0.1734 -0.1120
    1SOL    MW4 8328   2.898   1.559   3.402 -0.5536 -0.1582  0.0088
    1SOL     OW 8329   2.644   1.633   3.490  0.1082 -0.0788 -0.1326
    1SOL    HW2 8330   2.636   1.722   3.455 -0.4106  0.4395  1.2599
    1SOL    HW3 8331   2.571   1.586   3.450  0.4072  0.1186 -0.9074
    1SOL    MW4 8332   2.633   1.639   3.480  0.0789  0.0155 -0.0510
    1SOL     OW 8333   2.663   1.894   3.361  0.3935 -0.5348  0.2546
    1SOL    HW2 8334   2.590   1.953   3.383  1.1523  0.4550  0.1464
    1SOL    HW3 8335   2.660   1.888   3.266  0.3965 -0.5848  0.2579
    1SOL    MW4 8336   2.653   1.901   3.352  0.4940 -0.4108  0.2406
    1SOL     OW 8337   2.883   2.054   3.451  0.2625 -0.2954 -0.1356
    1SOL    HW2 8338   2.872   2.061   3.546 -0.8499  0.5721 -0.3261
    1SOL    HW3 8339   2.807   2.003   3.423  1.4447 -1.9723 -0.3737
    1SOL    MW4 8340   2.871   2.048   3.460  0.2718 -0.4022 -0.1922
    1SOL     OW 8341   2.910   2.326   3.378  0.4714  0.2019  0.3489
    1SOL    HW2 8342   2.883   2.235   3.392  0.9996 -0.0129 -0.0117
    1SOL    HW3 8343   2.894   2.342   3.285  1.5338  0.0859  0.1395
    1SOL    MW4 8344   2.905   2.316   3.367  0.6812  0.1581  0.2739
    1SOL     OW 8345   2.672   2.449   3.463 -0.2338 -0.2362 -0.2639
    1SOL    HW2 8346   2.662   2.428   3.556 -2.6904 -1.0569 -0.6711
    1SOL    HW3 8347   2.760   2.419   3.442  0.6786  0.7329  1.9833
    1SOL    MW4 8348   2.682   2.442   3.473 -0.4380 -0.2167 -0.0210
    1SOL     OW 8349   2.687   2.733   3.419  0.8595  0.3639 -0.0300
    1SOL    HW2 8350   2.667   2.645   3.451  1.6424  0.2452  0.1420
    1SOL    HW3 8351   2.607   2.782   3.434  0.2653 -0.4403 -0.5479
    1SOL    MW4 8352   2.674   2.728   3.425  0.8848  0.2422 -0.0758
    1SOL     OW 8353   2.937   2.842   3.516  0.2621  0.2056  0.2073
    1SOL    HW2 8354   2.937   2.840   3.611 -0.8670 -1.9423  0.2156
    1SOL    HW3 8355   2.850   2.810   3.492  0.5471  0.6931 -1.5356
    1SOL    MW4 8356   2.925   2.837   3.525  0.1504 -0.0131 -0.0215
    1SOL     OW 8357   2.953   3.106   3.411  0.2044  0.6488  0.1389
    1SOL    HW2 8358   2.943   3.023   3.457 -0.4853  0.5064 -0.2641
    1SOL    HW3 8359   2.935   3.086   3.319  2.2712  0.8039 -0.3169
    1SOL    MW4 8360   2.949   3.093   3.405  0.3862  0.6504  0.0257
    1SOL     OW 8361   2.716   3.244   3.438  0.0689 -0.3301 -0.4214
    1SOL    HW2 8362   2.704   3.231   3.532 -0.6194  0.3743 -0.4123
    1SOL    HW3 8363   2.796   3.195   3.418 -0.5132 -1.5830  0.2758
    1SOL    MW4 8364   2.725   3.236   3.448 -0.0987 -0.4027 -0.3283
    1SOL     OW 8365   2.729   3.515   3.398  0.3009  0.0970 -0.1534
    1SOL    HW2 8366   2.724   3.419   3.403  1.2167  0.1167  1.2880
    1SOL    HW3 8367   2.642   3.545   3.423  0.2432 -0.3345  0.1654
    1SOL    MW4 8368   2.717   3.506   3.402  0.4141  0.0427  0.0787
    1SOL     OW 8369   2.974   3.605   3.508 -0.4063  0.2352  0.1503
    1SOL    HW2 8370   2.981   3.689   3.462  0.6548  0.3005  0.4045
    1SOL    HW3 8371   2.889   3.570   3.482  0.1546  0.2697 -1.8657
    1SOL    MW4 8372   2.964   3.612   3.498 -0.1924  0.2484 -0.0820
    1SOL     OW 8373   2.947   3.864   3.374  0.0907  0.0440 -0.2599
    1SOL    HW2 8374   3.017   3.928   3.383 -0.5932  0.6422  1.0270
    1SOL    HW3 8375   2.873   3.903   3.421 -0.9457 -0.8086 -1.1361
    1SOL    MW4 8376   2.946   3.878   3.381 -0.1364  0.0105 -0.2055
    1SOL     OW 8377   2.716   3.987   3.469  0.2003 -0.1262 -0.0772
    1SOL    HW2 8378   2.727   3.991   3.564  1.4390 -1.0993 -0.1765
    1SOL    HW3 8379   2.718   4.079   3.441  0.7250  0.1129  0.7377
    1SOL    MW4 8380   2.718   4.000   3.478  0.4334 -0.2229  0.0174
    1SOL     OW 8381   2.698   4.264   3.411  0.8129  0.3625 -0.2803
    1SOL    HW2 8382   2.765   4.298   3.471  0.6355 -2.3359  1.5900
    1SOL    HW3 8383   2.618   4.310   3.436  0.7471 -0.7133  1.6350
    1SOL    MW4 8384   2.697   4.275   3.423  0.7806 -0.1349  0.2191
    1SOL     OW 8385   2.926   4.406   3.488 -0.2813  0.0203 -0.2422
    1SOL    HW2 8386   2.935   4.417   3.583 -0.4342  0.6574 -0.2983
    1SOL    HW3 8387   2.928   4.496   3.453  0.2650 -0.2407 -0.8856
    1SOL    MW4 8388   2.927   4.420   3.496 -0.2296  0.0701 -0.3345
    1SOL     OW 8389   3.362   0.022   3.403  0.0771 -0.4044  0.1519
    1SOL    HW2 8390   3.279   0.046   3.444 -0.3631 -1.7428  0.0624
    1SOL    HW3 8391   3.347   0.036   3.309  0.1935  0.0130  0.1902
    1SOL    MW4 8392   3.349   0.027   3.396  0.0346 -0.5259  0.1450
    1SOL     OW 8393   3.141   0.132   3.551  0.1731 -0.2210 -0.3645
    1SOL    HW2 8394   3.151   0.214   3.502  0.8699 -0.4649 -0.6409
    1SOL    HW3 8395   3.077   0.082   3.502  1.0594 -0.5689 -1.1757
    1SOL    MW4 8396   3.134   0.136   3.538  0.3822 -0.2990 -0.5078
    1SOL     OW 8397   3.172   0.371   3.410  0.2462  0.6198 -0.1440
    1SOL    HW2 8398   3.092   0.412   3.443 -0.3708 -0.5675 -0.1427
    1SOL    HW3 8399   3.159   0.363   3.316  0.1600 -0.0049 -0.0827
    1SOL    MW4 8400   3.160   0.375   3.402  0.1535  0.3808 -0.1357
    1SOL     OW 8401   3.389   0.489   3.525 -0.2995 -0.2817 -0.0108
    1SOL    HW2 8402   3.379   0.483   3.620 -0.7440 -0.1968 -0.0485
    1SOL    HW3 8403   3.310   0.447   3.490 -0.6142  0.5484 -0.3288
    1SOL    MW4 8404   3.377   0.483   3.533 -0.3998 -0.1610 -0.0577
    1SOL     OW 8405   3.387   0.771   3.429  0.2208 -1.0425  0.4372
    1SOL    HW2 8406   3.460   0.831   3.443  1.4542 -2.2174 -0.8556
    1SOL    HW3 8407   3.408   0.694   3.483 -0.4614 -1.0575  0.6894
    1SOL    MW4 8408   3.400   0.768   3.438  0.2935 -1.1995  0.2997
    1SOL     OW 8409   3.119   0.859   3.475 -0.0542 -0.0244 -0.3800
    1SOL    HW2 8410   3.109   0.949   3.443  0.6929 -0.4854 -1.9561
    1SOL    HW3 8411   3.210   0.838   3.458 -0.2084 -1.0564  0.0726
    1SOL    MW4 8412   3.129   0.868   3.468  0.0241 -0.2213 -0.5279
    1SOL     OW 8413   3.106   1.138   3.407 -0.3874  0.0745  0.1163
    1SOL    HW2 8414   3.193   1.168   3.431 -0.8115  1.0087  0.5196
    1SOL    HW3 8415   3.101   1.150   3.312 -0.3816  0.8696  0.2081
    1SOL    MW4 8416   3.117   1.144   3.398 -0.4427  0.3027  0.1814
    1SOL     OW 8417   3.356   1.274   3.482 -0.0263  0.0767 -0.0992
    1SOL    HW2 8418   3.426   1.226   3.437  1.2801  0.9637  0.9791
    1SOL    HW3 8419   3.349   1.357   3.435 -0.0932  0.1521  0.0426
    1SOL    MW4 8420   3.364   1.279   3.469  0.1371  0.2037  0.0615
    1SOL     OW 8421   3.357   1.529   3.400 -0.0744 -0.5137  0.3510
    1SOL    HW2 8422   3.432   1.579   3.432 -0.5117 -0.3151  1.0694
    1SOL    HW3 8423   3.281   1.582   3.423 -0.4605 -0.8608 -0.1001
    1SOL    MW4 8424   3.357   1.543   3.407 -0.1831 -0.5332  0.3860
    1SOL     OW 8425   3.153   1.680   3.482 -0.2502 -0.4305  0.0416
    1SOL    HW2 8426   3.152   1.769   3.447  0.1567 -0.3635  0.1969
    1SOL    HW3 8427   3.067   1.644   3.461 -0.6781  0.2494  0.6291
    1SOL    MW4 8428   3.141   1.687   3.475 -0.2532 -0.3320  0.1395
    1SOL     OW 8429   3.117   1.935   3.388  0.1761 -0.6965  0.0291
    1SOL    HW2 8430   3.032   1.975   3.406  0.1680 -0.6102 -0.2074
    1SOL    HW3 8431   3.136   1.959   3.297  0.7149 -0.2344  0.2622
    1SOL    MW4 8432   3.108   1.943   3.378  0.2463 -0.6242  0.0288
    1SOL     OW 8433   3.343   2.033   3.512  0.2552 -0.4041 -0.1354
    1SOL    HW2 8434   3.345   2.122   3.478 -0.1417 -0.3373  0.0157
    1SOL    HW3 8435   3.261   1.996   3.479  0.3593 -0.6719 -0.0967
    1SOL    MW4 8436   3.332   2.040   3.503  0.2167 -0.4306 -0.1104
    1SOL     OW 8437   3.333   2.306   3.410  0.3170  0.1551 -0.1395
    1SOL    HW2 8438   3.406   2.349   3.454  0.1713  0.0992  0.1596
    1SOL    HW3 8439   3.255   2.352   3.443  0.2180  0.2304 -0.4737
    1SOL    MW4 8440   3.332   2.318   3.420  0.2844  0.1576 -0.1440
    1SOL     OW 8441   3.122   2.444   3.494  0.4520 -0.2844 -0.1197
    1SOL    HW2 8442   3.152   2.531   3.466  0.5970  0.3982  2.0912
    1SOL    HW3 8443   3.043   2.429   3.442 -0.2177  1.6760  0.2888
    1SOL    MW4 8444   3.116   2.454   3.483  0.3827  0.0646  0.2255
    1SOL     OW 8445   3.162   2.714   3.415  0.0049 -0.2922 -0.0057
    1SOL    HW2 8446   3.227   2.768   3.461 -1.5508  0.6833  1.1017
    1SOL    HW3 8447   3.078   2.742   3.451 -0.9569 -2.4061 -0.5085
    1SOL    MW4 8448   3.160   2.724   3.426 -0.3271 -0.4425  0.0741
    1SOL     OW 8449   3.386   2.837   3.536 -0.3180 -0.6483  0.4140
    1SOL    HW2 8450   3.450   2.790   3.483  0.7336  0.3925  0.7425
    1SOL    HW3 8451   3.381   2.924   3.497  0.2827  0.0495  1.8368
    1SOL    MW4 8452   3.394   2.843   3.524 -0.1004 -0.4189  0.6452
    1SOL     OW 8453   3.354   3.098   3.422 -0.3301  0.4819 -0.4653
    1SOL    HW2 8454   3.441   3.135   3.437  0.2277 -1.4546  1.3791
    1SOL    HW3 8455   3.296   3.148   3.479  0.0194  0.1686  0.1786
    1SOL    MW4 8456   3.358   3.109   3.432 -0.2105  0.1853 -0.1371
    1SOL     OW 8457   3.137   3.265   3.563 -0.0301 -0.1912 -0.0696
    1SOL    HW2 8458   3.153   3.319   3.485  0.6871 -1.7360 -1.0199
    1SOL    HW3 8459   3.054   3.221   3.545 -0.0407 -0.2785  0.1946
    1SOL    MW4 8460   3.128   3.267   3.550  0.0632 -0.4067 -0.1602
    1SOL     OW 8461   3.169   3.461   3.372  0.0451  0.1317  0.3345
    1SOL    HW2 8462   3.098   3.513   3.409 -1.7584 -1.8994 -0.1732
    1SOL    HW3 8463   3.153   3.463   3.277 -0.9040 -2.4973  0.4044
    1SOL    MW4 8464   3.158   3.468   3.364 -0.3181 -0.4830  0.2768
    1SOL     OW 8465   3.351   3.631   3.512 -0.2859  0.1035 -0.4620
    1SOL    HW2 8466   3.385   3.710   3.468 -0.2056  1.3140  1.7170
    1SOL    HW3 8467   3.283   3.599   3.453 -0.1268  1.6386 -1.5244
    1SOL    MW4 8468   3.347   3.637   3.498 -0.2544  0.4656 -0.3147
    1SOL     OW 8469   3.407   3.895   3.411  0.5468  0.0500  0.4556
    1SOL    HW2 8470   3.476   3.954   3.440  1.3265 -1.0792  0.9279
    1SOL    HW3 8471   3.326   3.941   3.432  1.1381  1.7902 -0.9689
    1SOL    MW4 8472   3.405   3.909   3.418  0.7277  0.1307  0.3300
    1SOL     OW 8473   3.163   4.011   3.494  0.1527  0.1390 -0.1780
    1SOL    HW2 8474   3.179   4.004   3.588  0.6214  0.5093 -0.2243
    1SOL    HW3 8475   3.172   4.105   3.475 -0.5254  0.1453 -0.4916
    1SOL    MW4 8476   3.166   4.022   3.504  0.1249  0.1888 -0.2253
    1SOL     OW 8477   3.150   4.283   3.372  0.2565  0.4417 -0.2091
    1SOL    HW2 8478   3.211   4.335   3.425  0.1001 -1.6666  2.1267
    1SOL    HW3 8479   3.064   4.302   3.408 -0.0092  0.0584 -0.6292
    1SOL    MW4 8480   3.147   4.292   3.384  0.2007  0.1130  0.0436
    1SOL     OW 8481   3.362   4.420   3.489 -0.4439 -0.0024 -0.5555
    1SOL    HW2 8482   3.353   4.431   3.583 -1.4148  1.1072 -0.7539
    1SOL    HW3 8483   3.339   4.506   3.453 -0.0053 -0.3876 -1.7993
    1SOL    MW4 8484   3.358   4.433   3.496 -0.5140  0.0930 -0.7458
    1SOL     OW 8485   3.816   0.030   3.460 -0.3266 -0.7425 -0.2403
    1SOL    HW2 8486   3.738   0.072   3.495 -0.4518 -0.2238 -1.1183
    1SOL    HW3 8487   3.804   0.034   3.365  1.2544  0.3159 -0.4174
    1SOL    MW4 8488   3.804   0.036   3.452 -0.1342 -0.5344 -0.3798
    1SOL     OW 8489   3.589   0.153   3.550  0.1949  0.0966 -0.5080
    1SOL    HW2 8490   3.592   0.230   3.493 -0.8087  0.5098 -0.0192
    1SOL    HW3 8491   3.520   0.098   3.513 -1.0739  0.7768  0.7978
    1SOL    MW4 8492   3.580   0.156   3.537 -0.1049  0.2409 -0.2711
    1SOL     OW 8493   3.601   0.365   3.385 -0.2822 -0.3504 -0.4229
    1SOL    HW2 8494   3.685   0.395   3.420 -0.7192  0.8612 -0.3573
    1SOL    HW3 8495   3.536   0.420   3.430 -0.9640  0.0350 -1.8509
    1SOL    MW4 8496   3.604   0.376   3.396 -0.4296 -0.1397 -0.6027
    1SOL     OW 8497   3.814   0.479   3.516  0.3219  0.0774  0.1464
    1SOL    HW2 8498   3.810   0.473   3.612  0.7354  1.9999  0.2951
    1SOL    HW3 8499   3.905   0.456   3.495 -0.3206 -2.4936  0.0190
    1SOL    MW4 8500   3.825   0.475   3.526  0.2918 -0.0082  0.1490
    1SOL     OW 8501   3.806   0.733   3.411  0.2238 -0.6796 -0.6422
    1SOL    HW2 8502   3.889   0.773   3.436  0.0127 -0.8306  0.3018
    1SOL    HW3 8503   3.804   0.650   3.457 -0.9265 -0.2026  0.1842
    1SOL    MW4 8504   3.817   0.727   3.420  0.0441 -0.6366 -0.4086
    1SOL     OW 8505   3.618   0.912   3.524  0.0323 -0.2895 -0.3283
    1SOL    HW2 8506   3.642   0.904   3.617 -0.1299  1.9045 -0.0855
    1SOL    HW3 8507   3.685   0.860   3.479  0.0813 -1.4450  1.0075
    1SOL    MW4 8508   3.630   0.904   3.531  0.0174 -0.1523 -0.1202
    1SOL     OW 8509   3.569   1.167   3.373  0.0592  0.0241 -0.1963
    1SOL    HW2 8510   3.584   1.079   3.409  0.8637 -0.0526 -0.7008
    1SOL    HW3 8511   3.572   1.154   3.278 -0.8142  0.4357 -0.2829
    1SOL    MW4 8512   3.571   1.153   3.365  0.0498  0.0684 -0.2742
    1SOL     OW 8513   3.804   1.261   3.455  0.1371  0.2351 -0.1244
    1SOL    HW2 8514   3.809   1.266   3.551  1.1058  1.4981 -0.2306
    1SOL    HW3 8515   3.712   1.245   3.437  0.0607 -0.6984  1.0532
    1SOL    MW4 8516   3.793   1.260   3.466  0.2549  0.2785  0.0169
    1SOL     OW 8517   3.812   1.529   3.388  0.0047 -0.3983 -0.6265
    1SOL    HW2 8518   3.887   1.572   3.430 -1.5992  0.5448  1.3579
    1SOL    HW3 8519   3.824   1.436   3.407  0.9320 -0.3127 -0.7588
    1SOL    MW4 8520   3.824   1.522   3.396 -0.0846 -0.2625 -0.3822
    1SOL     OW 8521   3.576   1.657   3.507  0.0446 -0.4146 -0.0078
    1SOL    HW2 8522   3.582   1.750   3.488 -0.4304 -0.4103 -0.1456
    1SOL    HW3 8523   3.658   1.620   3.474  1.3111  0.3255  2.2451
    1SOL    MW4 8524   3.587   1.664   3.500  0.1490 -0.3165  0.2711
    1SOL     OW 8525   3.594   1.926   3.414  0.0301  0.5082 -0.2196
    1SOL    HW2 8526   3.657   1.987   3.454 -0.0390  0.7415 -0.4610
    1SOL    HW3 8527   3.509   1.966   3.430 -0.0628  0.1205  0.2272
    1SOL    MW4 8528   3.591   1.939   3.421  0.0086  0.4879 -0.1924
    1SOL     OW 8529   3.803   2.095   3.504 -0.6023 -0.3159 -0.3046
    1SOL    HW2 8530   3.812   2.093   3.599 -4.0467  2.3027  0.1837
    1SOL    HW3 8531   3.883   2.054   3.471  1.6043  0.5661  3.6476
    1SOL    MW4 8532   3.815   2.089   3.512 -0.7658  0.1457  0.2813
    1SOL     OW 8533   3.736   2.299   3.350  0.1787  0.0635  0.2137
    1SOL    HW2 8534   3.816   2.349   3.368 -0.3676  0.8806  0.4079
    1SOL    HW3 8535   3.748   2.216   3.396  0.3077  0.7490  1.4150
    1SOL    MW4 8536   3.748   2.295   3.358  0.1235  0.2615  0.3979
    1SOL     OW 8537   3.553   2.427   3.510  0.2394 -0.3133  0.3103
    1SOL    HW2 8538   3.557   2.517   3.479 -0.0232  0.0788  1.4000
    1SOL    HW3 8539   3.616   2.380   3.455 -0.0265  0.4165 -0.6317
    1SOL    MW4 8540   3.562   2.432   3.499  0.1695 -0.1652  0.3297
    1SOL     OW 8541   3.570   2.695   3.394 -0.6461  0.3248 -0.0941
    1SOL    HW2 8542   3.648   2.736   3.431  0.3401 -1.1141 -0.5144
    1SOL    HW3 8543   3.565   2.728   3.304 -0.4640  0.3622 -0.0909
    1SOL    MW4 8544   3.580   2.705   3.387 -0.4919  0.1402 -0.1495
    1SOL     OW 8545   3.815   2.849   3.522 -0.2078  0.2960  0.5807
    1SOL    HW2 8546   3.807   2.850   3.617 -0.4851  0.3623  0.5575
    1SOL    HW3 8547   3.818   2.942   3.497 -1.7846  0.2977  0.3916
    1SOL    MW4 8548   3.815   2.862   3.531 -0.4525  0.3049  0.5527
    1SOL     OW 8549   3.850   3.100   3.420 -0.0627 -0.4614 -0.3235
    1SOL    HW2 8550   3.933   3.139   3.445 -0.4478 -0.2753  0.6810
    1SOL    HW3 8551   3.852   3.099   3.324 -0.1022  2.1692 -0.3779
    1SOL    MW4 8552   3.861   3.105   3.410 -0.1190 -0.0896 -0.1984
    1SOL     OW 8553   3.590   3.224   3.470 -0.1423 -0.2171 -0.3986
    1SOL    HW2 8554   3.595   3.311   3.431  0.8178  0.1996  0.6190
    1SOL    HW3 8555   3.675   3.184   3.450 -0.8792 -1.2304 -1.5594
    1SOL    MW4 8556   3.602   3.230   3.463 -0.1132 -0.2956 -0.4179
    1SOL     OW 8557   3.569   3.483   3.391 -0.5145  0.4423  0.3083
    1SOL    HW2 8558   3.486   3.505   3.434 -0.4898  3.3065 -1.0287
    1SOL    HW3 8559   3.556   3.508   3.300  1.4143 -0.2665 -0.1794
    1SOL    MW4 8560   3.557   3.489   3.385 -0.2565  0.7267  0.0675
    1SOL     OW 8561   3.793   3.624   3.487  0.0394 -0.4062  0.2600
    1SOL    HW2 8562   3.803   3.606   3.581  2.0562 -2.4547 -0.2877
    1SOL    HW3 8563   3.722   3.566   3.459 -0.4811  0.1168  0.4863
    1SOL    MW4 8564   3.785   3.614   3.496  0.2367 -0.6075  0.2177
    1SOL     OW 8565   3.853   3.886   3.422 -0.3644  0.0018  0.5387
    1SOL    HW2 8566   3.769   3.932   3.418 -0.6120 -0.5907 -1.9990
    1SOL    HW3 8567   3.833   3.803   3.466 -0.7930  0.4834  1.2640
    1SOL    MW4 8568   3.840   3.881   3.427 -0.4537 -0.0126  0.2995
    1SOL     OW 8569   3.629   4.028   3.470  0.4611 -0.3385 -0.1240
    1SOL    HW2 8570   3.628   4.026   3.566 -0.8115  0.9050 -0.0911
    1SOL    HW3 8571   3.614   4.120   3.448  0.6599 -0.6293 -1.5294
    1SOL    MW4 8572   3.627   4.040   3.480  0.3195 -0.2131 -0.3049
    1SOL     OW 8573   3.575   4.289   3.375 -0.1071 -0.0752  0.3108
    1SOL    HW2 8574   3.487   4.309   3.407 -0.0392  1.2485 -0.3172
    1SOL    HW3 8575   3.572   4.305   3.281  0.8334  0.0659  0.2958
    1SOL    MW4 8576   3.563   4.293   3.367  0.0257  0.1173  0.2263
    1SOL     OW 8577   3.818   4.424   3.475 -0.1227  0.1167 -0.0557
    1SOL    HW2 8578   3.735   4.391   3.440  0.8522 -0.9920 -1.3786
    1SOL    HW3 8579   3.810   4.519   3.467 -1.3104  0.0280 -0.0847
    1SOL    MW4 8580   3.806   4.432   3.469 -0.1509 -0.0410 -0.2341
    1SOL     OW 8581   4.282   4.652   3.424 -0.0498 -0.0793 -0.0526
    1SOL    HW2 8582   4.310   4.568   3.461  0.7118  0.2301  0.0745
    1SOL    HW3 8583   4.350   4.713   3.450  0.7680  0.0425 -2.4346
    1SOL    MW4 8584   4.295   4.649   3.433  0.1583 -0.0224 -0.3502
    1SOL     OW 8585   4.063   0.096   3.561  0.0928 -0.0997 -0.1171
    1SOL    HW2 8586   4.138   0.047   3.529 -0.5965 -0.9640 -0.4371
    1SOL    HW3 8587   3.987   0.049   3.525 -0.6917 -0.9073  2.5198
    1SOL    MW4 8588   4.063   0.083   3.552 -0.1020 -0.3203  0.1886
    1SOL     OW 8589   4.036   0.350   3.433  0.6244  0.6081  0.1366
    1SOL    HW2 8590   4.017   0.266   3.475 -0.4693  0.2986 -0.9521
    1SOL    HW3 8591   4.039   0.329   3.339 -0.3770  1.9222 -0.1909
    1SOL    MW4 8592   4.034   0.336   3.426  0.3486  0.7406 -0.0503
    1SOL     OW 8593   4.255   0.499   3.530 -0.2368  0.1790 -0.2772
    1SOL    HW2 8594   4.255   0.587   3.493 -1.2792 -0.2437 -1.2967
    1SOL    HW3 8595   4.177   0.457   3.494  1.2768 -1.8220 -1.3349
    1SOL    MW4 8596   4.244   0.505   3.521 -0.1740 -0.1407 -0.5512
    1SOL     OW 8597   4.288   0.754   3.421  0.3709  0.4350  0.2053
    1SOL    HW2 8598   4.374   0.790   3.440  0.7068 -0.2515 -0.0057
    1SOL    HW3 8599   4.282   0.755   3.325 -0.2175  1.3209  0.2451
    1SOL    MW4 8600   4.298   0.759   3.411  0.3371  0.4613  0.1824
    1SOL     OW 8601   4.034   0.864   3.498 -0.0942 -0.0190  0.4187
    1SOL    HW2 8602   4.034   0.953   3.462 -0.5390 -0.2168 -0.0791
    1SOL    HW3 8603   4.126   0.842   3.509  0.0458  0.0556 -0.5739
    1SOL    MW4 8604   4.046   0.873   3.495 -0.1349 -0.0352  0.2220
    1SOL     OW 8605   4.034   1.111   3.365  0.6477 -0.5629  0.6140
    1SOL    HW2 8606   4.118   1.156   3.375  0.1947  0.4615 -0.1315
    1SOL    HW3 8607   3.969   1.174   3.397 -0.0575 -0.4043 -1.0975
    1SOL    MW4 8608   4.036   1.125   3.370  0.4950 -0.4069  0.2897
    1SOL     OW 8609   4.249   1.284   3.452  0.5352  0.3197 -0.0214
    1SOL    HW2 8610   4.261   1.378   3.437  0.2965  0.3152 -0.2454
    1SOL    HW3 8611   4.334   1.245   3.432  0.7586  0.5392  0.4919
    1SOL    MW4 8612   4.262   1.292   3.448  0.5331  0.3481  0.0167
    1SOL     OW 8613   4.230   1.561   3.388 -0.0217  0.0193 -0.2867
    1SOL    HW2 8614   4.156   1.613   3.418 -0.6935 -0.8362 -0.4655
    1SOL    HW3 8615   4.231   1.573   3.293  2.0616  2.6728  0.0023
    1SOL    MW4 8616   4.221   1.569   3.379  0.1650  0.2567 -0.2720
    1SOL     OW 8617   4.014   1.711   3.491 -0.0832 -0.3466 -0.1993
    1SOL    HW2 8618   4.028   1.704   3.585 -0.1920 -1.4015 -0.2620
    1SOL    HW3 8619   4.018   1.805   3.473 -2.2249  0.0478  1.1910
    1SOL    MW4 8620   4.016   1.723   3.501 -0.3805 -0.4339 -0.0241
    1SOL     OW 8621   4.026   1.973   3.412 -0.0091 -0.3930 -0.1669
    1SOL    HW2 8622   4.093   2.031   3.448 -1.1581  0.9809 -0.1869
    1SOL    HW3 8623   4.049   1.964   3.319 -0.5681  1.1086 -0.4561
    1SOL    MW4 8624   4.038   1.979   3.404 -0.2341 -0.0136 -0.2077
    1SOL     OW 8625   4.243   2.093   3.521 -0.1229 -0.3892 -0.4295
    1SOL    HW2 8626   4.247   2.182   3.488 -1.1301 -0.0541  0.3390
    1SOL    HW3 8627   4.316   2.048   3.478  0.0261  0.6440 -1.2679
    1SOL    MW4 8628   4.253   2.099   3.511 -0.2365 -0.2089 -0.4387
    1SOL     OW 8629   4.265   2.353   3.398  0.1098 -0.3190  0.3937
    1SOL    HW2 8630   4.178   2.388   3.419  0.3816 -0.7837  2.4820
    1SOL    HW3 8631   4.260   2.326   3.307 -2.6508 -2.4088  1.1044
    1SOL    MW4 8632   4.253   2.354   3.389 -0.2184 -0.6559  0.7632
    1SOL     OW 8633   3.984   2.405   3.438  0.2821  0.8031  0.0780
    1SOL    HW2 8634   3.977   2.392   3.533  0.7274  0.4974  0.0714
    1SOL    HW3 8635   3.988   2.500   3.428  0.6984  0.8252  0.4030
    1SOL    MW4 8636   3.984   2.416   3.449  0.3958  0.7656  0.1202
    1SOL     OW 8637   3.997   2.686   3.409  0.3798  0.0778 -0.5001
    1SOL    HW2 8638   4.088   2.713   3.425  0.0465  0.7298  0.3109
    1SOL    HW3 8639   3.945   2.747   3.460 -0.4011 -2.2365  1.5539
    1SOL    MW4 8640   4.002   2.697   3.418  0.2327 -0.1414 -0.1221
    1SOL     OW 8641   4.268   2.777   3.482  0.1828 -0.4984  0.0181
    1SOL    HW2 8642   4.260   2.796   3.575  0.0096  0.2996 -0.1493
    1SOL    HW3 8643   4.361   2.764   3.467  0.3898  0.9321  0.0184
    1SOL    MW4 8644   4.279   2.778   3.492  0.1874 -0.2043 -0.0038
    1SOL     OW 8645   4.296   3.088   3.389  0.0498 -0.0819  0.1934
    1SOL    HW2 8646   4.273   3.001   3.423 -1.6057 -0.0129 -0.7373
    1SOL    HW3 8647   4.279   3.083   3.295  1.8820  0.6359 -0.2013
    1SOL    MW4 8648   4.291   3.076   3.381  0.0730  0.0219  0.0186
    1SOL     OW 8649   4.073   3.229   3.491  0.3381  0.5121 -0.5176
    1SOL    HW2 8650   4.065   3.314   3.446  0.2646  0.5118 -0.5042
    1SOL    HW3 8651   4.161   3.199   3.469  0.4837  0.7445 -0.2564
    1SOL    MW4 8652   4.084   3.236   3.482  0.3476  0.5429 -0.4814
    1SOL     OW 8653   4.031   3.484   3.393  0.0140 -0.1758  0.2214
    1SOL    HW2 8654   4.111   3.532   3.417  0.0018  0.6241 -1.2797
    1SOL    HW3 8655   3.960   3.534   3.433  0.1040  0.3342 -0.2505
    1SOL    MW4 8656   4.033   3.497   3.401  0.0248 -0.0031 -0.0391
    1SOL     OW 8657   4.254   3.612   3.494  0.2271 -0.5914 -0.6810
    1SOL    HW2 8658   4.284   3.617   3.585 -0.3903 -0.6529 -0.4706
    1SOL    HW3 8659   4.244   3.703   3.467 -1.1322 -0.5720 -0.1626
    1SOL    MW4 8660   4.257   3.625   3.503 -0.0339 -0.5970 -0.5846
    1SOL     OW 8661   4.270   3.868   3.397 -0.0866  0.2336  0.6804
    1SOL    HW2 8662   4.361   3.881   3.422  0.5378 -2.6690  0.1340
    1SOL    HW3 8663   4.269   3.883   3.302 -0.3360  1.0316  0.8093
    1SOL    MW4 8664   4.282   3.871   3.388 -0.0367 -0.0439  0.6251
    1SOL     OW 8665   4.070   4.031   3.509 -0.4155 -0.4140  0.0765
    1SOL    HW2 8666   4.135   3.980   3.461 -0.8047  0.1306 -1.0301
    1SOL    HW3 8667   3.986   3.995   3.480 -0.6439 -0.6133  0.9490
    1SOL    MW4 8668   4.067   4.019   3.499 -0.4969 -0.3681  0.0458
    1SOL     OW 8669   4.079   4.291   3.421  0.1852 -0.0875 -0.4695
    1SOL    HW2 8670   4.073   4.199   3.448 -0.1537  0.3543  0.9761
    1SOL    HW3 8671   3.991   4.326   3.435  1.0724  1.2716  2.0387
    1SOL    MW4 8672   4.066   4.283   3.426  0.2575  0.1497  0.0520
    1SOL     OW 8673   4.325   4.399   3.534  0.0009  0.6093  0.6169
    1SOL    HW2 8674   4.303   4.397   3.627  0.2463 -0.3916  0.6578
    1SOL    HW3 8675   4.249   4.359   3.491  0.2604  0.2870  0.4589
    1SOL    MW4 8676   4.312   4.393   3.540  0.0677  0.4344  0.6015
    1SOL     OW 8677   0.288   4.616   3.900  0.6094  0.3063 -0.6340
    1SOL    HW2 8678   0.308   4.610   3.993  0.7606 -2.7458 -0.8098
    1SOL    HW3 8679   0.199   4.652   3.897 -0.0361 -1.0806  0.7964
    1SOL    MW4 8680   0.279   4.620   3.912  0.5442 -0.2799 -0.4685
    1SOL     OW 8681   0.066   0.100   3.838  0.5392  0.0964 -0.2586
    1SOL    HW2 8682   0.046   0.188   3.870 -2.3059 -0.5340 -0.1567
    1SOL    HW3 8683   0.051   0.104   3.744 -1.5075 -0.7378  0.0080
    1SOL    MW4 8684   0.061   0.112   3.830 -0.1059 -0.0968 -0.2100
    1SOL     OW 8685   4.488   0.369   3.953 -0.7661  0.0290 -0.2099
    1SOL    HW2 8686   4.407   0.396   3.909  0.7847  1.9525 -1.9430
    1SOL    HW3 8687   4.557   0.418   3.909  1.3234 -1.2798  1.5276
    1SOL    MW4 8688   4.486   0.379   3.942 -0.2857  0.1101 -0.2096
    1SOL     OW 8689   0.191   0.492   3.763 -0.1136  0.2366  0.1179
    1SOL    HW2 8690   0.215   0.571   3.812 -2.3792  0.5752  0.7531
    1SOL    HW3 8691   0.212   0.513   3.672  1.0122  0.8749  0.5103
    1SOL    MW4 8692   0.197   0.505   3.758 -0.2640  0.3655  0.2534
    1SOL     OW 8693   0.266   0.731   3.903  0.2520  0.4235 -0.1393
    1SOL    HW2 8694   0.262   0.717   3.998 -1.3554  0.2266 -0.2357
    1SOL    HW3 8695   0.186   0.779   3.882 -0.7792 -1.9572 -1.8109
    1SOL    MW4 8696   0.255   0.735   3.913 -0.0961  0.0834 -0.3724
    1SOL     OW 8697   0.047   0.880   3.802 -0.4069  0.5803 -0.1675
    1SOL    HW2 8698  -0.031   0.833   3.831  0.0314  0.5713  1.0189
    1SOL    HW3 8699   0.034   0.969   3.834  0.1335  0.5489  0.1349
    1SOL    MW4 8700   0.035   0.886   3.810 -0.2778  0.5749  0.0288
    1SOL     OW 8701   0.004   1.151   3.891  0.6035  0.4659  0.5066
    1SOL    HW2 8702  -0.072   1.186   3.844  0.3034 -1.1056 -0.2005
    1SOL    HW3 8703   0.079   1.191   3.848  0.3204 -0.7987 -1.1999
    1SOL    MW4 8704   0.004   1.161   3.879  0.5265  0.0917  0.1876
    1SOL     OW 8705   0.215   1.266   3.764  0.3960 -0.2410  0.5507
    1SOL    HW2 8706   0.230   1.347   3.812  1.4730  0.1389 -0.4121
    1SOL    HW3 8707   0.210   1.292   3.672 -2.0651 -0.9078  0.4515
    1SOL    MW4 8708   0.217   1.280   3.758  0.2133 -0.2788  0.4106
    1SOL     OW 8709   0.243   1.556   3.842  0.5060 -0.3240 -0.2825
    1SOL    HW2 8710   0.238   1.565   3.938  0.9794  0.4482 -0.3276
    1SOL    HW3 8711   0.153   1.570   3.812  0.5947  0.7406 -0.0583
    1SOL    MW4 8712   0.230   1.559   3.851  0.5801 -0.0817 -0.2589
    1SOL     OW 8713   4.490   1.643   3.752  0.1867  0.3915 -0.2272
    1SOL    HW2 8714   4.490   1.729   3.794  0.2244  0.3147 -0.0662
    1SOL    HW3 8715   4.480   1.661   3.659  0.5045  0.5833 -0.2247
    1SOL    MW4 8716   4.488   1.657   3.745  0.2341  0.4067 -0.2058
    1SOL     OW 8717   0.019   1.904   3.853  0.0964 -0.4115  0.2568
    1SOL    HW2 8718   0.020   1.919   3.948 -2.3189 -2.7940  0.7241
    1SOL    HW3 8719  -0.049   1.963   3.821  3.0028  2.6925 -0.5288
    1SOL    MW4 8720   0.010   1.914   3.861  0.1610 -0.3161  0.2146
    1SOL     OW 8721   0.239   2.055   3.787  0.3864 -0.2266  0.5105
    1SOL    HW2 8722   0.219   2.141   3.823 -0.6952 -0.4303  0.4096
    1SOL    HW3 8723   0.163   2.002   3.809  1.5737 -1.4893  1.6401
    1SOL    MW4 8724   0.226   2.059   3.794  0.4004 -0.4203  0.6461
    1SOL     OW 8725   0.209   2.310   3.895  0.1475  0.5362 -0.4140
    1SOL    HW2 8726   0.198   2.297   3.989  0.2937  0.9552 -0.3380
    1SOL    HW3 8727   0.135   2.367   3.870 -0.9605 -1.0774 -0.8917
    1SOL    MW4 8728   0.198   2.316   3.904  0.0206  0.3784 -0.4668
    1SOL     OW 8729   4.490   2.459   3.787 -0.1072  0.1851  0.1814
    1SOL    HW2 8730   4.411   2.406   3.798  0.2514 -0.5843 -0.7910
    1SOL    HW3 8731   4.465   2.547   3.816 -1.3730 -0.0041 -0.2976
    1SOL    MW4 8732   4.476   2.463   3.792 -0.2270  0.0587 -0.0100
    1SOL     OW 8733   4.464   2.729   3.876  0.0490 -0.2698  0.0917
    1SOL    HW2 8734   4.454   2.746   3.970  1.6928 -0.1926  0.2761
    1SOL    HW3 8735   4.552   2.762   3.855 -0.2448 -0.4182 -1.4454
    1SOL    MW4 8736   4.474   2.736   3.886  0.2271 -0.2792 -0.0868
    1SOL     OW 8737   0.232   2.837   3.797  0.1949  0.0555 -0.0479
    1SOL    HW2 8738   0.312   2.796   3.829 -0.1878 -0.4234  0.2981
    1SOL    HW3 8739   0.231   2.818   3.703  0.0049 -0.7601  0.1136
    1SOL    MW4 8740   0.243   2.829   3.789  0.1193 -0.1152  0.0191
    1SOL     OW 8741   0.236   3.101   3.893  0.1993 -0.2708 -0.2332
    1SOL    HW2 8742   0.231   3.108   3.988 -0.4774  0.2487 -0.3022
    1SOL    HW3 8743   0.253   3.008   3.876 -2.0373 -0.8114  0.3083
    1SOL    MW4 8744   0.238   3.090   3.903 -0.1851 -0.2735 -0.1709
    1SOL     OW 8745   0.042   3.259   3.769  0.0826 -0.0115  0.1332
    1SOL    HW2 8746   0.118   3.214   3.808  0.0500 -0.5231 -0.3921
    1SOL    HW3 8747   0.044   3.234   3.677 -1.3446 -0.8592  0.3336
    1SOL    MW4 8748   0.053   3.250   3.762 -0.1100 -0.1907  0.0904
    1SOL     OW 8749   0.078   3.503   3.901  0.3213  0.1641 -0.2323
    1SOL    HW2 8750   0.145   3.552   3.854  1.6107  0.5385  1.9621
    1SOL    HW3 8751   0.063   3.425   3.847  2.1105  0.3394 -0.9978
    1SOL    MW4 8752   0.085   3.499   3.888  0.7275  0.2367 -0.0436
    1SOL     OW 8753   0.276   3.622   3.747 -0.2152 -0.0111  0.4726
    1SOL    HW2 8754   0.348   3.574   3.788  0.5274 -0.0836 -0.8921
    1SOL    HW3 8755   0.276   3.708   3.790  0.4499 -0.1457  0.7333
    1SOL    MW4 8756   0.285   3.627   3.758 -0.0295 -0.0384  0.3269
    1SOL     OW 8757   0.255   3.864   3.855  0.4434 -0.0110 -0.1257
    1SOL    HW2 8758   0.231   3.850   3.947 -0.4459 -0.3813 -0.4026
    1SOL    HW3 8759   0.328   3.925   3.858 -0.8132  1.4939  0.7387
    1SOL    MW4 8760   0.261   3.870   3.868  0.1603  0.1388 -0.0484
    1SOL     OW 8761   0.033   4.021   3.769 -0.2123  0.7416  0.1694
    1SOL    HW2 8762  -0.042   3.984   3.815 -0.0584 -0.8793 -0.8666
    1SOL    HW3 8763   0.108   3.970   3.799 -0.0083  0.1284 -1.2993
    1SOL    MW4 8764   0.033   4.010   3.779 -0.1651  0.4463 -0.1612
    1SOL     OW 8765   0.020   4.278   3.911  0.2162  0.0283  0.4371
    1SOL    HW2 8766   0.101   4.313   3.876  0.5828  0.4902  1.7066
    1SOL    HW3 8767   0.010   4.192   3.870  0.5668  0.6012 -0.8600
    1SOL    MW4 8768   0.029   4.271   3.901  0.3108  0.1650  0.4337
    1SOL     OW 8769   0.257   4.359   3.792  0.6955 -0.1820 -0.1095
    1SOL    HW2 8770   0.324   4.327   3.853  0.9787 -0.4757 -0.5732
    1SOL    HW3 8771   0.252   4.453   3.811 -0.5350 -0.5622  1.6270
    1SOL    MW4 8772   0.265   4.367   3.803  0.5705 -0.2708  0.0582
    1SOL     OW 8773   0.708   4.632   3.866  0.1171  0.1586  0.0185
    1SOL    HW2 8774   0.697   4.541   3.838 -2.2925  0.4908 -0.2390
    1SOL    HW3 8775   0.635   4.679   3.825  0.1550  1.8275  1.7843
    1SOL    MW4 8776   0.697   4.626   3.857 -0.1958  0.4225  0.2174
    1SOL     OW 8777   0.469   0.088   3.761 -0.0810  0.1702 -0.2317
    1SOL    HW2 8778   0.452   0.180   3.779  1.5595  0.3864  0.3246
    1SOL    HW3 8779   0.404   0.040   3.813 -0.9603  1.0147 -0.5602
    1SOL    MW4 8780   0.458   0.094   3.770  0.0195  0.3101 -0.2019
    1SOL     OW 8781   0.420   0.352   3.822 -0.2343 -0.0847 -0.0361
    1SOL    HW2 8782   0.489   0.411   3.794  0.9560 -1.4569 -0.0645
    1SOL    HW3 8783   0.339   0.400   3.806  0.7158  1.6452  0.2363
    1SOL    MW4 8784   0.418   0.366   3.816  0.0481 -0.0375 -0.0041
    1SOL     OW 8785   0.657   0.475   3.711  0.5871  0.6063  0.2607
    1SOL    HW2 8786   0.727   0.423   3.752 -0.5469 -0.6272  0.6701
    1SOL    HW3 8787   0.663   0.561   3.753  1.7857  0.4923  0.3553
    1SOL    MW4 8788   0.667   0.479   3.722  0.5956  0.4285  0.3271
    1SOL     OW 8789   0.674   0.736   3.834 -0.0244 -0.2271 -0.3573
    1SOL    HW2 8790   0.755   0.784   3.814  0.4479 -1.7631 -2.1813
    1SOL    HW3 8791   0.605   0.801   3.825  0.7306  0.4119 -1.6527
    1SOL    MW4 8792   0.676   0.751   3.830  0.1375 -0.3453 -0.7689
    1SOL     OW 8793   0.446   0.892   3.773 -0.4050 -0.0062 -0.1446
    1SOL    HW2 8794   0.438   0.977   3.816 -0.7118  1.5418 -3.1479
    1SOL    HW3 8795   0.381   0.837   3.817 -1.8183  1.9754  0.3326
    1SOL    MW4 8796   0.436   0.896   3.784 -0.6319  0.4594 -0.4780
    1SOL     OW 8797   0.434   1.126   3.911  0.4373 -0.0364  0.0506
    1SOL    HW2 8798   0.509   1.168   3.868  1.4648 -0.7528  1.0960
    1SOL    HW3 8799   0.358   1.175   3.880  1.4361  1.3722 -0.2207
    1SOL    MW4 8800   0.434   1.138   3.901  0.7046  0.0550  0.1528
    1SOL     OW 8801   0.622   1.227   3.737 -0.3663 -0.4507 -0.2214
    1SOL    HW2 8802   0.711   1.193   3.749 -0.4737 -0.7180 -0.1858
    1SOL    HW3 8803   0.616   1.247   3.643 -0.3100 -0.5435 -0.2439
    1SOL    MW4 8804   0.633   1.225   3.726 -0.3731 -0.4982 -0.2196
    1SOL     OW 8805   0.671   1.494   3.803 -0.0987 -0.0729 -0.0345
    1SOL    HW2 8806   0.761   1.521   3.785  0.0772  0.3216  1.3121
    1SOL    HW3 8807   0.662   1.408   3.762  0.8576 -0.0525 -0.2881
    1SOL    MW4 8808   0.682   1.486   3.795  0.0506 -0.0181  0.1097
    1SOL     OW 8809   0.474   1.695   3.762  0.0918  0.1372 -0.3191
    1SOL    HW2 8810   0.545   1.631   3.773 -0.8190 -0.4198  2.9469
    1SOL    HW3 8811   0.395   1.648   3.791 -1.1216  1.7062 -0.9930
    1SOL    MW4 8812   0.473   1.680   3.768 -0.1885  0.2706  0.0229
    1SOL     OW 8813   0.491   1.940   3.887  0.0304 -0.0819 -0.3436
    1SOL    HW2 8814   0.501   1.862   3.831  2.0019  1.0583 -1.6156
    1SOL    HW3 8815   0.416   1.986   3.850  0.0892 -0.3506 -0.8027
    1SOL    MW4 8816   0.482   1.936   3.875  0.2982  0.0331 -0.5720
    1SOL     OW 8817   0.702   2.061   3.762  0.1728 -0.0411 -0.1617
    1SOL    HW2 8818   0.731   2.134   3.817 -1.5059  2.0601 -1.9982
    1SOL    HW3 8819   0.625   2.026   3.807 -0.7341  1.1792 -0.7299
    1SOL    MW4 8820   0.696   2.066   3.775 -0.1684  0.3972 -0.4792
    1SOL     OW 8821   0.713   2.340   3.863 -0.1027  0.0336 -0.0562
    1SOL    HW2 8822   0.774   2.409   3.837 -0.4320  0.4108  0.1596
    1SOL    HW3 8823   0.626   2.379   3.850 -0.2829 -0.0371  0.8605
    1SOL    MW4 8824   0.709   2.354   3.858 -0.1700  0.0739  0.0932
    1SOL     OW 8825   0.450   2.455   3.812  0.4110  0.0611  0.1350
    1SOL    HW2 8826   0.370   2.409   3.836  2.2493 -3.2866  0.0932
    1SOL    HW3 8827   0.442   2.467   3.717  0.4398 -1.2195 -0.0339
    1SOL    MW4 8828   0.438   2.451   3.802  0.6574 -0.5498  0.1070
    1SOL     OW 8829   0.464   2.722   3.891  0.1473  0.1807 -0.1945
    1SOL    HW2 8830   0.535   2.763   3.842  0.4937  0.3616  0.4644
    1SOL    HW3 8831   0.459   2.633   3.854  0.4726  0.2839 -0.4948
    1SOL    MW4 8832   0.473   2.715   3.880  0.2359  0.2182 -0.1471
    1SOL     OW 8833   0.697   2.839   3.788  0.4445  0.3459 -0.4121
    1SOL    HW2 8834   0.787   2.817   3.814  0.5300 -0.6494 -1.5308
    1SOL    HW3 8835   0.696   2.829   3.693 -0.8862  0.2256 -0.3991
    1SOL    MW4 8836   0.709   2.835   3.779  0.2801  0.1988 -0.5579
    1SOL     OW 8837   0.681   3.083   3.890 -0.6100 -0.2195  0.0001
    1SOL    HW2 8838   0.684   3.080   3.985  1.8176  1.9670  0.0380
    1SOL    HW3 8839   0.696   2.992   3.862 -1.8004 -0.9480  1.6791
    1SOL    MW4 8840   0.683   3.070   3.899 -0.4469 -0.0274  0.2265
    1SOL     OW 8841   0.451   3.218   3.764  0.0643 -0.1636  0.1004
    1SOL    HW2 8842   0.528   3.169   3.792 -0.3379 -0.8690 -0.0202
    1SOL    HW3 8843   0.378   3.174   3.807 -0.1191  1.5671  1.6381
    1SOL    MW4 8844   0.452   3.206   3.774 -0.0130 -0.0279  0.2873
    1SOL     OW 8845   0.501   3.485   3.892 -0.0092  0.0068 -0.1553
    1SOL    HW2 8846   0.586   3.525   3.875  0.0402 -0.3139 -0.6534
    1SOL    HW3 8847   0.508   3.396   3.856 -0.8846  0.3064 -1.0861
    1SOL    MW4 8848   0.513   3.478   3.885 -0.1182  0.0041 -0.3438
    1SOL     OW 8849   0.730   3.601   3.831  0.2840  0.4664  0.1554
    1SOL    HW2 8850   0.729   3.693   3.858  3.1362  0.4908  0.3424
    1SOL    HW3 8851   0.745   3.603   3.737 -0.9168  0.2091 -0.0449
    1SOL    MW4 8852   0.732   3.613   3.822  0.5019  0.4354  0.1540
    1SOL     OW 8853   0.703   3.875   3.915  0.1534  0.2210 -0.3442
    1SOL    HW2 8854   0.720   3.873   4.009  0.3419 -0.6889 -0.3929
    1SOL    HW3 8855   0.778   3.922   3.878  0.8839 -0.8182 -0.2055
    1SOL    MW4 8856   0.715   3.881   3.923  0.2746 -0.0362 -0.3321
    1SOL     OW 8857   0.495   4.005   3.807 -0.0479  0.0904 -0.2771
    1SOL    HW2 8858   0.571   3.959   3.844  1.0453  1.4425 -0.8151
    1SOL    HW3 8859   0.489   3.972   3.718  0.0237  0.1353 -0.2981
    1SOL    MW4 8860   0.505   3.994   3.800  0.1058  0.2749 -0.3510
    1SOL     OW 8861   0.488   4.266   3.947  0.0281 -0.5964  0.1378
    1SOL    HW2 8862   0.570   4.291   3.903  0.0769 -1.0477 -0.0299
    1SOL    HW3 8863   0.467   4.180   3.911 -1.7093  0.4739 -1.4828
    1SOL    MW4 8864   0.496   4.258   3.936 -0.1947 -0.5150 -0.0980
    1SOL     OW 8865   0.708   4.344   3.796  0.0255 -0.1400  0.3741
    1SOL    HW2 8866   0.794   4.304   3.810 -0.5598 -1.0763  1.3535
    1SOL    HW3 8867   0.709   4.371   3.704  1.1833 -0.5779  0.2496
    1SOL    MW4 8868   0.719   4.342   3.786  0.1010 -0.3214  0.4869
    1SOL     OW 8869   1.162   4.630   3.867  0.3615  0.5435 -0.1899
    1SOL    HW2 8870   1.213   4.688   3.811  2.1371  0.6844  1.5189
    1SOL    HW3 8871   1.167   4.545   3.823  0.8203  0.8937 -0.8248
    1SOL    MW4 8872   1.169   4.626   3.854  0.6564  0.6084 -0.0479
    1SOL     OW 8873   0.934   0.091   3.768 -0.5267  0.2919  0.4254
    1SOL    HW2 8874   1.006   0.047   3.811 -0.5371  1.4482  1.6680
    1SOL    HW3 8875   0.855   0.048   3.802 -0.4945  0.4836  0.7468
    1SOL    MW4 8876   0.933   0.080   3.778 -0.5238  0.4698  0.6318
    1SOL     OW 8877   0.870   0.337   3.843 -0.2633  0.5318 -0.0392
    1SOL    HW2 8878   0.892   0.346   3.936 -1.0636  0.0573  0.1925
    1SOL    HW3 8879   0.892   0.246   3.821 -0.5418  0.5041 -0.1988
    1SOL    MW4 8880   0.876   0.326   3.852 -0.4056  0.4655 -0.0298
    1SOL     OW 8881   1.095   0.513   3.779 -0.3048 -0.1844  0.2306
    1SOL    HW2 8882   1.179   0.474   3.803  0.9244  2.6657  0.8355
    1SOL    HW3 8883   1.029   0.458   3.823  1.3989 -0.9007  1.9564
    1SOL    MW4 8884   1.097   0.501   3.788  0.0821  0.0972  0.5383
    1SOL     OW 8885   1.138   0.777   3.890 -0.2481  0.6603  0.1049
    1SOL    HW2 8886   1.151   0.770   3.984  0.8754  2.5441  0.1075
    1SOL    HW3 8887   1.118   0.687   3.862  0.7402 -0.1474  1.9132
    1SOL    MW4 8888   1.137   0.764   3.899  0.0306  0.8023  0.3438
    1SOL     OW 8889   0.891   0.884   3.766  0.0083 -0.2256  0.3550
    1SOL    HW2 8890   0.968   0.859   3.817  1.2918  1.5757 -0.6528
    1SOL    HW3 8891   0.917   0.872   3.675 -1.3308 -0.7811  0.0367
    1SOL    MW4 8892   0.905   0.879   3.761  0.0010 -0.0612  0.1798
    1SOL     OW 8893   0.891   1.150   3.798 -0.1406 -0.1758 -0.1226
    1SOL    HW2 8894   0.876   1.159   3.892 -2.3235  0.0726 -0.4607
    1SOL    HW3 8895   0.890   1.056   3.782  1.1784 -0.2568  0.2331
    1SOL    MW4 8896   0.889   1.139   3.809 -0.2546 -0.1538 -0.1202
    1SOL     OW 8897   1.139   1.247   3.714  0.4031 -0.2219 -0.1668
    1SOL    HW2 8898   1.135   1.337   3.745 -0.0336 -0.1065 -0.5454
    1SOL    HW3 8899   1.053   1.210   3.734  0.1361 -0.1644 -1.1624
    1SOL    MW4 8900   1.127   1.254   3.721  0.3102 -0.1991 -0.3481
    1SOL     OW 8901   1.121   1.512   3.816  0.1126  0.2388  0.0689
    1SOL    HW2 8902   1.101   1.522   3.909  0.4634 -1.1089  0.2874
    1SOL    HW3 8903   1.204   1.558   3.804 -0.4343  1.2956  0.1996
    1SOL    MW4 8904   1.129   1.520   3.827  0.0865  0.2004  0.1149
    1SOL     OW 8905   0.897   1.656   3.734  0.2423 -0.3469 -0.3355
    1SOL    HW2 8906   0.986   1.634   3.760  0.0811 -1.4252 -0.6882
    1SOL    HW3 8907   0.899   1.656   3.639  0.1207  0.6966 -0.3419
    1SOL    MW4 8908   0.909   1.653   3.725  0.2050 -0.3515 -0.3827
    1SOL     OW 8909   0.891   1.896   3.878  0.3551 -0.2460 -0.1227
    1SOL    HW2 8910   0.880   1.809   3.841 -0.6615 -0.8649  1.5666
    1SOL    HW3 8911   0.818   1.947   3.843 -0.9613 -0.9996  1.4440
    1SOL    MW4 8912   0.880   1.891   3.869  0.0472 -0.4270  0.3068
    1SOL     OW 8913   1.142   2.066   3.819  0.4246 -0.1550  0.0343
    1SOL    HW2 8914   1.081   1.997   3.844 -1.1789  1.1464 -0.1919
    1SOL    HW3 8915   1.155   2.054   3.725  0.6739 -0.5356  0.1141
    1SOL    MW4 8916   1.136   2.056   3.810  0.2458 -0.0336  0.0148
    1SOL     OW 8917   1.153   2.321   3.933 -0.5734  0.2660  0.1427
    1SOL    HW2 8918   1.130   2.329   4.026  1.0229  1.3607  0.4553
    1SOL    HW3 8919   1.135   2.229   3.912 -0.4410 -0.1244  1.6683
    1SOL    MW4 8920   1.147   2.310   3.942 -0.3452  0.3591  0.3850
    1SOL     OW 8921   0.951   2.480   3.767  0.2786 -0.0270 -0.1029
    1SOL    HW2 8922   0.976   2.568   3.797  1.3601  0.1027 -1.3103
    1SOL    HW3 8923   1.013   2.421   3.809 -0.1454 -0.1664  0.3300
    1SOL    MW4 8924   0.963   2.484   3.776  0.3653 -0.0281 -0.2050
    1SOL     OW 8925   0.955   2.755   3.859  0.0472  0.5530 -0.0454
    1SOL    HW2 8926   0.950   2.747   3.954  1.3191 -0.3366 -0.0446
    1SOL    HW3 8927   1.028   2.815   3.844  0.7741 -0.4259 -0.4864
    1SOL    MW4 8928   0.964   2.762   3.870  0.3110  0.3066 -0.1032
    1SOL     OW 8929   1.182   2.894   3.774  0.3041 -0.4390 -0.0592
    1SOL    HW2 8930   1.247   2.837   3.815  0.6221 -0.1699 -0.1822
    1SOL    HW3 8931   1.192   2.978   3.819 -0.6340 -0.6701  0.5865
    1SOL    MW4 8932   1.192   2.897   3.785  0.2223 -0.4339  0.0098
    1SOL     OW 8933   1.177   3.118   3.939  0.6438  0.0668  0.0701
    1SOL    HW2 8934   1.248   3.173   3.905  1.0806 -1.1475 -1.0645
    1SOL    HW3 8935   1.098   3.151   3.896  0.7801  0.3092  0.0031
    1SOL    MW4 8936   1.176   3.130   3.929  0.7194 -0.0613 -0.0887
    1SOL     OW 8937   0.925   3.227   3.827  0.5073  0.5200 -0.2879
    1SOL    HW2 8938   0.841   3.183   3.840  0.9319  0.2724  1.8498
    1SOL    HW3 8939   0.936   3.231   3.732 -0.9908 -1.2062 -0.5574
    1SOL    MW4 8940   0.916   3.221   3.817  0.3657  0.2594 -0.0415
    1SOL     OW 8941   0.957   3.471   3.963 -0.0652  0.0036 -0.4195
    1SOL    HW2 8942   0.943   3.381   3.933 -0.6938 -0.2359  0.5717
    1SOL    HW3 8943   0.877   3.518   3.939 -0.5360 -0.1669  0.7584
    1SOL    MW4 8944   0.945   3.466   3.956 -0.2103 -0.0503 -0.1330
    1SOL     OW 8945   1.143   3.592   3.772  0.2735 -0.1413 -0.1014
    1SOL    HW2 8946   1.136   3.680   3.811 -0.9297  0.9319 -2.5858
    1SOL    HW3 8947   1.083   3.538   3.824 -0.5997  1.0370  0.1490
    1SOL    MW4 8948   1.134   3.597   3.784 -0.0006  0.1559 -0.3963
    1SOL     OW 8949   1.156   3.829   3.880 -0.8076 -0.1159 -0.5684
    1SOL    HW2 8950   1.166   3.847   3.974  1.2927  0.1091 -0.7926
    1SOL    HW3 8951   1.214   3.893   3.838 -1.7599 -0.1962 -2.0241
    1SOL    MW4 8952   1.165   3.840   3.887 -0.6562 -0.0970 -0.7899
    1SOL     OW 8953   0.940   3.986   3.774  0.6932  0.3539  0.3501
    1SOL    HW2 8954   1.019   3.934   3.790  1.9374  1.5623 -1.7498
    1SOL    HW3 8955   0.920   3.973   3.681 -2.4428 -1.0710  1.1302
    1SOL    MW4 8956   0.948   3.977   3.764  0.4436  0.3257  0.1760
    1SOL     OW 8957   0.963   4.247   3.854 -0.3299  0.1531 -0.4319
    1SOL    HW2 8958   0.971   4.224   3.947  0.1349  0.3077 -0.4322
    1SOL    HW3 8959   0.953   4.163   3.809 -0.6783  0.0864 -0.2301
    1SOL    MW4 8960   0.963   4.233   3.860 -0.3145  0.1650 -0.4055
    1SOL     OW 8961   1.159   4.382   3.721 -0.1927  0.2605 -0.0698
    1SOL    HW2 8962   1.087   4.347   3.774  1.3363 -2.4615  0.2937
    1SOL    HW3 8963   1.127   4.380   3.631  0.0355 -2.6790 -0.1303
    1SOL    MW4 8964   1.145   4.377   3.716  0.0391 -0.4859 -0.0296
    1SOL     OW 8965   1.585   0.022   3.880  0.3596 -0.0062  0.2064
    1SOL    HW2 8966   1.617   0.012   3.970 -0.7399 -0.4762  0.5582
    1SOL    HW3 8967   1.606  -0.062   3.838  1.6791  0.5322 -0.2536
    1SOL    MW4 8968   1.592   0.010   3.886  0.3887  0.0028  0.1922
    1SOL     OW 8969   1.354   0.144   3.761 -0.6494  0.0648 -0.1775
    1SOL    HW2 8970   1.338   0.226   3.807 -0.0866 -0.7220  1.4430
    1SOL    HW3 8971   1.441   0.117   3.790 -0.9947 -1.3078 -0.3924
    1SOL    MW4 8972   1.363   0.151   3.771 -0.6207 -0.2201  0.0081
    1SOL     OW 8973   1.335   0.391   3.857 -0.0292  0.3453  0.1692
    1SOL    HW2 8974   1.345   0.386   3.952  1.1802 -2.7337 -0.0683
    1SOL    HW3 8975   1.419   0.423   3.825  0.3377 -0.7927 -0.0155
    1SOL    MW4 8976   1.347   0.394   3.865  0.1787 -0.2111  0.1135
    1SOL     OW 8977   1.583   0.506   3.818  0.1429  0.5012 -0.3780
    1SOL    HW2 8978   1.657   0.455   3.851 -0.3992 -0.3395 -0.4163
    1SOL    HW3 8979   1.594   0.593   3.856  1.0913  0.3472 -0.3074
    1SOL    MW4 8980   1.594   0.511   3.828  0.1965  0.3699 -0.3738
    1SOL     OW 8981   1.589   0.761   3.893  0.3987  0.0588 -0.4241
    1SOL    HW2 8982   1.666   0.812   3.867  0.9284 -1.2838 -1.5769
    1SOL    HW3 8983   1.517   0.801   3.846  1.0390 -1.1046 -2.4538
    1SOL    MW4 8984   1.590   0.773   3.883  0.5530 -0.2719 -0.8440
    1SOL     OW 8985   1.370   0.896   3.766  0.3013  0.0932  0.2625
    1SOL    HW2 8986   1.359   0.985   3.799  1.4625  0.3831 -0.0771
    1SOL    HW3 8987   1.297   0.847   3.802 -0.8843  1.4049 -0.3148
    1SOL    MW4 8988   1.359   0.901   3.775  0.2981  0.3046  0.1416
    1SOL     OW 8989   1.354   1.165   3.864 -0.0647 -0.0638  0.1185
    1SOL    HW2 8990   1.429   1.211   3.826  0.5728 -0.8460  0.4143
    1SOL    HW3 8991   1.278   1.201   3.818  0.4537  0.9702  0.0457
    1SOL    MW4 8992   1.354   1.176   3.853  0.0879 -0.0305  0.1483
    1SOL     OW 8993   1.573   1.298   3.770  0.0306  0.1551 -0.3052
    1SOL    HW2 8994   1.639   1.249   3.819 -1.3655  0.0460  1.5591
    1SOL    HW3 8995   1.572   1.385   3.811 -1.1315  0.0825 -0.1514
    1SOL    MW4 8996   1.581   1.303   3.782 -0.3068  0.1311 -0.0389
    1SOL     OW 8997   1.571   1.551   3.890 -0.1480  0.2407  0.1664
    1SOL    HW2 8998   1.559   1.563   3.984  0.2837  2.4702 -0.0414
    1SOL    HW3 8999   1.657   1.588   3.872  1.2182 -3.1673 -0.5924
    1SOL    MW4 9000   1.581   1.558   3.900  0.0892  0.0851  0.0389
    1SOL     OW 9001   1.336   1.687   3.791  0.7382 -0.3477 -0.0724
    1SOL    HW2 9002   1.326   1.768   3.840  1.5499  0.0470 -0.5427
    1SOL    HW3 9003   1.415   1.647   3.828  1.3389 -0.0572 -1.0365
    1SOL    MW4 9004   1.345   1.692   3.802  0.9246 -0.2571 -0.2618
    1SOL     OW 9005   1.348   1.927   3.914 -0.3940  0.3540 -0.6808
    1SOL    HW2 9006   1.353   1.943   4.008  1.7017  1.5287 -0.9627
    1SOL    HW3 9007   1.269   1.972   3.886 -1.4331 -0.5961  0.6021
    1SOL    MW4 9008   1.338   1.935   3.923 -0.2546  0.3836 -0.5488
    1SOL     OW 9009   1.579   2.085   3.818  0.3542 -0.3828 -0.3033
    1SOL    HW2 9010   1.503   2.037   3.850 -0.0517  0.3778 -0.1080
    1SOL    HW3 9011   1.566   2.092   3.723  0.3799 -0.6015 -0.3219
    1SOL    MW4 9012   1.567   2.080   3.810  0.3040 -0.3114 -0.2799
    1SOL     OW 9013   1.580   2.365   3.878 -0.0567 -0.2538 -0.0399
    1SOL    HW2 9014   1.654   2.399   3.828 -0.1167 -0.3971 -0.2271
    1SOL    HW3 9015   1.578   2.272   3.858 -0.4843 -0.1946 -0.2900
    1SOL    MW4 9016   1.589   2.358   3.869 -0.1209 -0.2646 -0.0973
    1SOL     OW 9017   1.341   2.466   3.802 -0.3435 -0.4516 -0.3378
    1SOL    HW2 9018   1.424   2.436   3.838 -0.9522 -1.4549  0.2597
    1SOL    HW3 9019   1.275   2.414   3.848 -1.2602 -0.1586 -1.3081
    1SOL    MW4 9020   1.343   2.455   3.813 -0.5448 -0.5455 -0.3870
    1SOL     OW 9021   1.381   2.732   3.902 -0.2018  0.6293  0.0017
    1SOL    HW2 9022   1.351   2.719   3.992 -1.8467 -0.9901 -0.7519
    1SOL    HW3 9023   1.380   2.644   3.863 -0.5111  1.4394 -1.8913
    1SOL    MW4 9024   1.377   2.718   3.909 -0.4597  0.5226 -0.3476
    1SOL     OW 9025   1.597   2.885   3.792  0.2748  0.0779 -0.2496
    1SOL    HW2 9026   1.522   2.833   3.820 -0.2960  1.4985  0.9412
    1SOL    HW3 9027   1.603   2.870   3.698 -0.4518 -1.3802 -0.0680
    1SOL    MW4 9028   1.588   2.876   3.783  0.1035  0.0732 -0.0684
    1SOL     OW 9029   1.589   3.109   3.946  1.0528  0.5282 -0.4791
    1SOL    HW2 9030   1.599   3.087   4.038  1.0367 -0.4284 -0.7015
    1SOL    HW3 9031   1.598   3.026   3.900 -1.2270  0.6383 -1.1807
    1SOL    MW4 9032   1.592   3.096   3.952  0.7499  0.4163 -0.6011
    1SOL     OW 9033   1.378   3.269   3.836  0.3807  0.4074  0.1863
    1SOL    HW2 9034   1.376   3.362   3.861 -0.7692  0.3864  0.1833
    1SOL    HW3 9035   1.446   3.231   3.892  1.4135  1.4057 -0.3577
    1SOL    MW4 9036   1.387   3.276   3.847  0.3651  0.5364  0.1140
    1SOL     OW 9037   1.361   3.527   3.924 -0.3222  0.0665 -0.3651
    1SOL    HW2 9038   1.437   3.570   3.885  0.2751  0.4713  1.2033
    1SOL    HW3 9039   1.287   3.555   3.870  0.8097 -1.4792 -2.7763
    1SOL    MW4 9040   1.361   3.536   3.912 -0.0942 -0.0839 -0.4764
    1SOL     OW 9041   1.582   3.613   3.771 -0.1620 -0.1241  0.4084
    1SOL    HW2 9042   1.661   3.566   3.798  0.2620 -0.1913 -0.9345
    1SOL    HW3 9043   1.599   3.704   3.795  0.0925 -0.2288  0.6300
    1SOL    MW4 9044   1.595   3.619   3.778 -0.0725 -0.1469  0.2608
    1SOL     OW 9045   1.613   3.878   3.887  0.1177 -0.4250 -0.5270
    1SOL    HW2 9046   1.628   3.883   3.981  1.5881 -1.1873 -0.7084
    1SOL    HW3 9047   1.522   3.908   3.876 -0.2216 -0.7563  1.1614
    1SOL    MW4 9048   1.603   3.883   3.898  0.2669 -0.5693 -0.3283
    1SOL     OW 9049   1.350   4.008   3.800  0.0445 -0.1171  0.2862
    1SOL    HW2 9050   1.361   4.089   3.850 -0.5338  0.2454 -0.1578
    1SOL    HW3 9051   1.352   4.037   3.708  0.7542 -0.7304  0.1074
    1SOL    MW4 9052   1.352   4.023   3.794  0.0619 -0.1507  0.2038
    1SOL     OW 9053   1.393   4.295   3.901 -0.2100 -0.2130  0.0862
    1SOL    HW2 9054   1.472   4.335   3.864 -0.4981  0.1554 -0.1235
    1SOL    HW3 9055   1.320   4.339   3.858 -0.5284 -1.0650 -0.2732
    1SOL    MW4 9056   1.394   4.306   3.891 -0.2899 -0.2766  0.0112
    1SOL     OW 9057   1.596   4.434   3.783 -0.2168 -0.2074 -0.3554
    1SOL    HW2 9058   1.657   4.374   3.825  1.3175  2.1118  0.8735
    1SOL    HW3 9059   1.592   4.406   3.692  1.8888 -1.0122 -0.2099
    1SOL    MW4 9060   1.603   4.423   3.777  0.2636 -0.0076 -0.1738
    1SOL     OW 9061   2.027   4.653   3.886 -0.0687  0.2787 -0.2402
    1SOL    HW2 9062   2.111   4.696   3.872 -0.5213  0.6589 -1.9988
    1SOL    HW3 9063   2.031   4.576   3.829 -1.8879  1.6930 -2.3628
    1SOL    MW4 9064   2.039   4.648   3.876 -0.3684  0.5150 -0.7520
    1SOL     OW 9065   1.816   0.124   3.745 -0.4656  0.4261 -0.1432
    1SOL    HW2 9066   1.892   0.076   3.779  0.1641  1.7833  0.4251
    1SOL    HW3 9067   1.742   0.093   3.796 -0.0498  0.1308  0.2818
    1SOL    MW4 9068   1.817   0.113   3.756 -0.3275  0.5662 -0.0122
    1SOL     OW 9069   1.818   0.379   3.891  0.2128 -0.5094  0.3773
    1SOL    HW2 9070   1.814   0.375   3.987  0.0192 -0.0830  0.3910
    1SOL    HW3 9071   1.829   0.288   3.864  0.3733 -0.6224  0.8088
    1SOL    MW4 9072   1.819   0.367   3.900  0.2084 -0.4681  0.4363
    1SOL     OW 9073   2.069   0.459   3.777 -0.1789  0.0439 -0.3924
    1SOL    HW2 9074   1.990   0.421   3.815  0.0041  0.4759  0.4189
    1SOL    HW3 9075   2.048   0.467   3.684 -1.3006  0.6631 -0.1023
    1SOL    MW4 9076   2.056   0.455   3.770 -0.3028  0.1826 -0.2470
    1SOL     OW 9077   2.041   0.735   3.869 -0.7380  0.3625 -0.0867
    1SOL    HW2 9078   2.035   0.750   3.963 -2.0653 -0.0411 -0.1042
    1SOL    HW3 9079   2.040   0.640   3.859 -0.8625  0.4051 -0.5185
    1SOL    MW4 9080   2.040   0.724   3.880 -0.9298  0.3148 -0.1462
    1SOL     OW 9081   1.825   0.886   3.814  0.2798  0.5698 -0.1233
    1SOL    HW2 9082   1.907   0.838   3.823  0.6591  0.7805 -2.1576
    1SOL    HW3 9083   1.808   0.886   3.720 -2.0222  0.5957  0.2812
    1SOL    MW4 9084   1.834   0.880   3.803  0.0260  0.6011 -0.3386
    1SOL     OW 9085   1.769   1.144   3.901 -0.2201 -0.0598 -0.3561
    1SOL    HW2 9086   1.760   1.161   3.995  0.7113  0.9056 -0.4321
    1SOL    HW3 9087   1.799   1.054   3.895 -1.3004 -0.4674  0.2251
    1SOL    MW4 9088   1.772   1.134   3.913 -0.2397  0.0138 -0.2894
    1SOL     OW 9089   2.000   1.283   3.795 -0.1748  0.1387 -0.1813
    1SOL    HW2 9090   2.074   1.235   3.832  0.8509  0.2046 -2.0822
    1SOL    HW3 9091   1.923   1.237   3.828  0.6349  0.8974  2.9417
    1SOL    MW4 9092   2.000   1.271   3.804  0.0675  0.2474 -0.0200
    1SOL     OW 9093   2.029   1.559   3.875  0.5901  0.4077 -0.1024
    1SOL    HW2 9094   1.950   1.595   3.837 -0.6755 -1.2097  0.9446
    1SOL    HW3 9095   2.037   1.471   3.836  2.0553  0.6761 -0.4515
    1SOL    MW4 9096   2.020   1.552   3.865  0.6163  0.2297 -0.0105
    1SOL     OW 9097   1.798   1.662   3.757  0.0114  0.0959  0.1154
    1SOL    HW2 9098   1.783   1.750   3.793  1.1736  1.0914 -1.7332
    1SOL    HW3 9099   1.804   1.676   3.663  1.0371 -1.8713 -0.1263
    1SOL    MW4 9100   1.797   1.676   3.750  0.3000 -0.0322 -0.1605
    1SOL     OW 9101   1.773   1.916   3.872 -0.0500  0.5952 -0.2508
    1SOL    HW2 9102   1.789   1.918   3.966 -0.3060 -0.6966 -0.1750
    1SOL    HW3 9103   1.711   1.988   3.857 -0.3995  0.4814  0.6388
    1SOL    MW4 9104   1.767   1.926   3.882 -0.1299  0.4097 -0.1235
    1SOL     OW 9105   2.014   2.037   3.779  0.3445  0.0302 -0.3732
    1SOL    HW2 9106   1.952   1.976   3.820  0.1485  0.3313 -0.2166
    1SOL    HW3 9107   1.996   2.030   3.685  0.6270 -0.4810 -0.3901
    1SOL    MW4 9108   2.003   2.028   3.772  0.3557  0.0026 -0.3548
    1SOL     OW 9109   1.993   2.309   3.853 -0.1004 -0.4164 -0.3551
    1SOL    HW2 9110   2.019   2.218   3.839  1.1306 -0.2678  0.8905
    1SOL    HW3 9111   1.969   2.313   3.946  1.4382  0.9182 -0.0044
    1SOL    MW4 9112   1.993   2.298   3.864  0.2651 -0.2205 -0.1445
    1SOL     OW 9113   1.793   2.460   3.718 -0.0806 -0.6955  0.3131
    1SOL    HW2 9114   1.806   2.542   3.766 -0.0310  0.1769 -1.1922
    1SOL    HW3 9115   1.862   2.403   3.750  1.1381  0.5175 -0.1047
    1SOL    MW4 9116   1.804   2.463   3.729  0.0867 -0.4206  0.0594
    1SOL     OW 9117   1.807   2.711   3.864 -0.1129  0.1758 -0.0798
    1SOL    HW2 9118   1.796   2.704   3.959 -0.2114  0.4450 -0.0692
    1SOL    HW3 9119   1.732   2.764   3.836 -0.0181  0.1962 -0.2913
    1SOL    MW4 9120   1.796   2.717   3.873 -0.1134  0.2139 -0.1063
    1SOL     OW 9121   2.029   2.883   3.797  0.0898 -0.0092  0.1766
    1SOL    HW2 9122   2.103   2.836   3.834  0.3181 -0.4268 -0.7822
    1SOL    HW3 9123   1.954   2.828   3.815  0.3133 -0.6044 -0.6647
    1SOL    MW4 9124   2.029   2.870   3.804  0.1495 -0.1431 -0.0610
    1SOL     OW 9125   2.028   3.132   3.907 -0.2596  0.6940 -0.2925
    1SOL    HW2 9126   2.105   3.168   3.863  0.4711 -0.8035 -0.2470
    1SOL    HW3 9127   2.021   3.042   3.874 -1.4665  0.5351  0.3761
    1SOL    MW4 9128   2.037   3.125   3.897 -0.3223  0.4754 -0.1981
    1SOL     OW 9129   1.790   3.212   3.761  0.2834 -0.3887 -0.3549
    1SOL    HW2 9130   1.876   3.185   3.792  0.5516 -2.0344 -2.3865
    1SOL    HW3 9131   1.728   3.174   3.823  1.0011  1.1943  1.3838
    1SOL    MW4 9132   1.793   3.203   3.773  0.4134 -0.3970 -0.3936
    1SOL     OW 9133   1.807   3.484   3.867  0.1028  0.1089 -0.2300
    1SOL    HW2 9134   1.896   3.519   3.856  0.5084 -1.4154 -1.9865
    1SOL    HW3 9135   1.810   3.397   3.828 -1.8495 -0.4873  0.8613
    1SOL    MW4 9136   1.819   3.478   3.861 -0.1013 -0.1709 -0.3178
    1SOL     OW 9137   2.024   3.647   3.827  0.2319  0.4841  0.1205
    1SOL    HW2 9138   2.098   3.594   3.857  1.2791  1.6563 -0.3810
    1SOL    HW3 9139   2.032   3.648   3.732 -1.2449 -0.5368 -0.0454
    1SOL    MW4 9140   2.035   3.640   3.819  0.1755  0.5043  0.0324
    1SOL     OW 9141   2.075   3.913   3.876  0.0154  0.1767  0.1950
    1SOL    HW2 9142   2.168   3.930   3.858 -0.0733 -0.0738 -0.4914
    1SOL    HW3 9143   2.064   3.820   3.857 -0.4196  0.2493  0.0978
    1SOL    MW4 9144   2.086   3.903   3.871 -0.0536  0.1533  0.0916
    1SOL     OW 9145   1.842   4.009   3.777 -0.5733  0.2113 -0.2104
    1SOL    HW2 9146   1.920   3.971   3.818 -1.0106 -1.5241 -0.9109
    1SOL    HW3 9147   1.769   3.957   3.813 -1.1969  0.4329 -1.1443
    1SOL    MW4 9148   1.842   3.997   3.787 -0.7132  0.0112 -0.4261
    1SOL     OW 9149   1.821   4.279   3.860  0.3127 -0.1400  0.4197
    1SOL    HW2 9150   1.908   4.316   3.844  0.1127 -0.4752 -1.6378
    1SOL    HW3 9151   1.829   4.187   3.836 -0.8288  0.0305 -0.6928
    1SOL    MW4 9152   1.833   4.272   3.855  0.1358 -0.1616  0.0014
    1SOL     OW 9153   2.051   4.414   3.758  0.6062 -0.2886 -0.0342
    1SOL    HW2 9154   2.120   4.351   3.780  1.6646  0.8389 -0.0559
    1SOL    HW3 9155   2.028   4.393   3.667  2.4818  0.7048 -0.7825
    1SOL    MW4 9156   2.057   4.403   3.749  0.9933 -0.0086 -0.1357
    1SOL     OW 9157   2.510   4.642   3.868  0.6698  0.1744 -0.7237
    1SOL    HW2 9158   2.500   4.642   3.963 -0.2317  0.0224 -0.8133
    1SOL    HW3 9159   2.599   4.673   3.853  1.0018 -0.3131  0.1873
    1SOL    MW4 9160   2.521   4.646   3.879  0.5949  0.0901 -0.6154
    1SOL     OW 9161   2.283   0.111   3.781  0.2764  0.1900 -0.0720
    1SOL    HW2 9162   2.357   0.055   3.803 -1.5823 -2.6687 -0.9032
    1SOL    HW3 9163   2.282   0.114   3.686 -0.6549  0.2044 -0.0708
    1SOL    MW4 9164   2.293   0.104   3.771 -0.0916 -0.1853 -0.1814
    1SOL     OW 9165   2.287   0.359   3.900 -0.3367  0.0933 -0.0164
    1SOL    HW2 9166   2.285   0.267   3.874  1.4598  0.4711 -1.5436
    1SOL    HW3 9167   2.219   0.401   3.847  2.1229  0.5318 -2.9028
    1SOL    MW4 9168   2.277   0.353   3.890  0.2251  0.2011 -0.5984
    1SOL     OW 9169   2.492   0.499   3.790 -0.2036  0.4861  0.5470
    1SOL    HW2 9170   2.430   0.436   3.825  1.3129 -0.9687  0.7199
    1SOL    HW3 9171   2.503   0.473   3.698  0.1095  0.7631  0.5030
    1SOL    MW4 9172   2.485   0.487   3.782  0.0377  0.3306  0.5639
    1SOL     OW 9173   2.476   0.754   3.902  0.1602  0.0658  0.1108
    1SOL    HW2 9174   2.400   0.796   3.863  0.9259 -0.6780 -2.2653
    1SOL    HW3 9175   2.474   0.664   3.870  0.8160 -0.5869  1.8266
    1SOL    MW4 9176   2.466   0.748   3.893  0.3476 -0.1185  0.0238
    1SOL     OW 9177   2.272   0.885   3.782  0.5794 -0.1137  0.1909
    1SOL    HW2 9178   2.190   0.842   3.808  0.4785  0.3828  0.7067
    1SOL    HW3 9179   2.274   0.878   3.687  0.8582 -1.7956  0.3042
    1SOL    MW4 9180   2.261   0.878   3.773  0.6025 -0.2701  0.2742
    1SOL     OW 9181   2.252   1.167   3.889  0.0047  0.2961  0.0934
    1SOL    HW2 9182   2.255   1.164   3.985 -0.4723  0.4638  0.1142
    1SOL    HW3 9183   2.266   1.076   3.862  1.0005  0.3814  0.2933
    1SOL    MW4 9184   2.254   1.155   3.898  0.0732  0.3294  0.1223
    1SOL     OW 9185   2.446   1.271   3.727  0.5348 -0.0614  0.4482
    1SOL    HW2 9186   2.474   1.351   3.771 -0.5151  0.8499 -0.5059
    1SOL    HW3 9187   2.388   1.228   3.789  1.5031 -0.3465  1.1657
    1SOL    MW4 9188   2.442   1.276   3.741  0.5243  0.0212  0.4170
    1SOL     OW 9189   2.486   1.508   3.860 -0.1120  0.1697 -0.0541
    1SOL    HW2 9190   2.557   1.565   3.832 -0.0634 -0.0195 -0.3149
    1SOL    HW3 9191   2.407   1.551   3.829  0.0262 -0.8127 -1.8439
    1SOL    MW4 9192   2.485   1.521   3.852 -0.0877  0.0151 -0.3247
    1SOL     OW 9193   2.276   1.643   3.771  0.1111  0.4864  0.5845
    1SOL    HW2 9194   2.270   1.738   3.780  0.1974  0.6041 -0.4568
    1SOL    HW3 9195   2.190   1.611   3.797 -0.0892  0.8956  0.4286
    1SOL    MW4 9196   2.264   1.652   3.775  0.0963  0.5559  0.4263
    1SOL     OW 9197   2.266   1.926   3.797 -0.0056  0.4060  0.0805
    1SOL    HW2 9198   2.281   1.939   3.891 -0.7559  1.4535  0.0738
    1SOL    HW3 9199   2.180   1.967   3.781  0.6698  1.3216 -1.2878
    1SOL    MW4 9200   2.256   1.933   3.808 -0.0155  0.6651 -0.1011
    1SOL     OW 9201   2.470   2.088   3.733  0.5494 -0.0187 -0.1930
    1SOL    HW2 9202   2.443   2.172   3.770  0.0322  0.3059 -1.2683
    1SOL    HW3 9203   2.403   2.026   3.763  1.5678 -0.2945  1.5631
    1SOL    MW4 9204   2.457   2.091   3.742  0.6158 -0.0124 -0.1032
    1SOL     OW 9205   2.427   2.329   3.891  0.4178  0.0943 -0.2762
    1SOL    HW2 9206   2.504   2.368   3.849 -0.3001 -0.2581 -1.9680
    1SOL    HW3 9207   2.353   2.374   3.852 -0.2682 -0.2459  0.6261
    1SOL    MW4 9208   2.428   2.340   3.880  0.2327  0.0029 -0.3803
    1SOL     OW 9209   2.205   2.480   3.776 -0.5544 -0.8045 -0.1879
    1SOL    HW2 9210   2.123   2.432   3.789 -0.6379 -0.9337 -1.1515
    1SOL    HW3 9211   2.229   2.463   3.685  0.3819 -0.5086 -0.0047
    1SOL    MW4 9212   2.197   2.472   3.766 -0.4420 -0.7825 -0.2906
    1SOL     OW 9213   2.231   2.723   3.895 -0.2863 -0.3125  0.0486
    1SOL    HW2 9214   2.217   2.701   3.987 -0.3792  0.8061  0.3063
    1SOL    HW3 9215   2.221   2.639   3.849 -1.2659 -0.7034  0.9413
    1SOL    MW4 9216   2.228   2.709   3.901 -0.4277 -0.2165  0.2005
    1SOL     OW 9217   2.482   2.848   3.775  0.3442 -0.0340  0.0406
    1SOL    HW2 9218   2.421   2.786   3.813 -1.5191  1.6841 -0.0700
    1SOL    HW3 9219   2.460   2.849   3.682 -0.4931  1.6902  0.2369
    1SOL    MW4 9220   2.471   2.840   3.768 -0.0119  0.4203  0.0515
    1SOL     OW 9221   2.458   3.121   3.836  0.0038 -0.5064 -0.4759
    1SOL    HW2 9222   2.464   3.125   3.931 -0.0400  1.1257 -0.5308
    1SOL    HW3 9223   2.467   3.028   3.815  1.0241 -0.7566  1.0419
    1SOL    MW4 9224   2.460   3.110   3.845  0.1326 -0.3242 -0.2830
    1SOL     OW 9225   2.226   3.248   3.748 -0.0573 -0.1887  0.0286
    1SOL    HW2 9226   2.232   3.325   3.803 -0.8610  1.0154 -1.5258
    1SOL    HW3 9227   2.307   3.199   3.765  0.1317  0.6409  1.5355
    1SOL    MW4 9228   2.238   3.251   3.757 -0.1383  0.0794  0.0222
    1SOL     OW 9229   2.267   3.491   3.884  0.0126  0.4182 -0.1614
    1SOL    HW2 9230   2.280   3.481   3.978  0.9163  0.5145 -0.2706
    1SOL    HW3 9231   2.355   3.501   3.849 -0.0763 -2.4483 -1.3549
    1SOL    MW4 9232   2.280   3.491   3.892  0.1202  0.0527 -0.3335
    1SOL     OW 9233   2.519   3.525   3.778 -0.2410  0.1885  0.4087
    1SOL    HW2 9234   2.602   3.478   3.784  0.5184  1.6296  1.5680
    1SOL    HW3 9235   2.495   3.521   3.685  0.6764 -0.9709  0.2117
    1SOL    MW4 9236   2.527   3.519   3.767 -0.0196  0.2258  0.5357
    1SOL     OW 9237   2.551   3.796   3.866  0.2594  0.3125  0.1215
    1SOL    HW2 9238   2.631   3.823   3.821  0.4805 -0.3842  0.0827
    1SOL    HW3 9239   2.544   3.702   3.848 -0.2681  0.2580  0.5869
    1SOL    MW4 9240   2.560   3.787   3.857  0.2189  0.2134  0.1776
    1SOL     OW 9241   2.332   3.960   3.793  0.4832  0.2585 -0.2440
    1SOL    HW2 9242   2.416   3.917   3.811  1.0831  1.3741 -0.3801
    1SOL    HW3 9243   2.323   3.958   3.698  0.7261  0.8441 -0.2792
    1SOL    MW4 9244   2.342   3.954   3.783  0.5941  0.4828 -0.2666
    1SOL     OW 9245   2.242   4.235   3.846  0.4288 -0.3195  0.4268
    1SOL    HW2 9246   2.266   4.234   3.938  0.6379  0.4593  0.3834
    1SOL    HW3 9247   2.277   4.153   3.810 -0.6462 -1.1702  1.2846
    1SOL    MW4 9248   2.250   4.224   3.853  0.3145 -0.3290  0.5341
    1SOL     OW 9249   2.486   4.383   3.774 -0.0002 -0.1062 -0.0761
    1SOL    HW2 9250   2.415   4.337   3.818  0.2635 -0.6833 -0.2523
    1SOL    HW3 9251   2.497   4.464   3.824 -1.7746  0.6801 -0.9087
    1SOL    MW4 9252   2.478   4.388   3.786 -0.1996 -0.0787 -0.2093
    1SOL     OW 9253   2.904   0.002   3.882 -0.1379  0.9411  0.0331
    1SOL    HW2 9254   2.903  -0.000   3.978 -1.4745 -2.4881  0.0166
    1SOL    HW3 9255   2.987   0.042   3.860  1.2869 -0.4250  2.6731
    1SOL    MW4 9256   2.915   0.007   3.892 -0.1266  0.3080  0.3791
    1SOL     OW 9257   2.728   0.170   3.768  0.1857 -0.4007  0.2296
    1SOL    HW2 9258   2.792   0.116   3.815  2.1325  0.9642 -0.8095
    1SOL    HW3 9259   2.734   0.141   3.677 -0.6659 -0.2214  0.1112
    1SOL    MW4 9260   2.737   0.159   3.763  0.3302 -0.1969  0.0768
    1SOL     OW 9261   2.723   0.410   3.925  0.3409  0.3060  0.0728
    1SOL    HW2 9262   2.728   0.320   3.892  0.0139  0.4817 -0.4716
    1SOL    HW3 9263   2.647   0.447   3.880  1.4962  1.3914 -1.0353
    1SOL    MW4 9264   2.713   0.403   3.915  0.4504  0.4724 -0.1454
    1SOL     OW 9265   2.934   0.504   3.787 -0.0749  0.3124  0.0433
    1SOL    HW2 9266   3.011   0.471   3.833 -0.2231  0.3569  0.3263
    1SOL    HW3 9267   2.860   0.459   3.829 -0.1685 -0.0691 -0.5319
    1SOL    MW4 9268   2.935   0.494   3.799 -0.1068  0.2680  0.0050
    1SOL     OW 9269   2.912   0.753   3.947  0.2682  0.3267  0.0576
    1SOL    HW2 9270   2.976   0.798   3.892  1.8924 -0.2788  1.4200
    1SOL    HW3 9271   2.907   0.664   3.911 -0.5307  0.6449 -0.6338
    1SOL    MW4 9272   2.919   0.747   3.935  0.3769  0.2888  0.1462
    1SOL     OW 9273   2.714   0.876   3.805  0.5602  0.2833 -0.0631
    1SOL    HW2 9274   2.781   0.843   3.865  0.5653  1.7522  0.7471
    1SOL    HW3 9275   2.635   0.829   3.830  0.9518 -0.3800 -0.0567
    1SOL    MW4 9276   2.712   0.865   3.816  0.6127  0.3896  0.0446
    1SOL     OW 9277   2.652   1.144   3.865 -0.1336 -0.4715 -0.2583
    1SOL    HW2 9278   2.660   1.052   3.840  0.6365 -0.9585  1.6764
    1SOL    HW3 9279   2.569   1.173   3.826 -0.6036 -2.1080 -0.5004
    1SOL    MW4 9280   2.642   1.136   3.857 -0.0942 -0.7516 -0.0348
    1SOL     OW 9281   2.888   1.274   3.775 -0.1527 -0.1379  0.8920
    1SOL    HW2 9282   2.909   1.359   3.813  0.8164 -0.2314  0.5941
    1SOL    HW3 9283   2.800   1.255   3.805 -1.1518  1.8549 -0.5984
    1SOL    MW4 9284   2.879   1.283   3.784 -0.1566  0.1127  0.6559
    1SOL     OW 9285   2.928   1.531   3.860  0.3327 -0.2168 -0.4231
    1SOL    HW2 9286   2.953   1.527   3.953  0.6060 -0.3042 -0.5003
    1SOL    HW3 9287   3.001   1.577   3.818  0.1773 -0.1196 -0.5834
    1SOL    MW4 9288   2.941   1.537   3.867  0.3483 -0.2156 -0.4544
    1SOL     OW 9289   2.702   1.669   3.764  0.3054  0.2192 -0.6185
    1SOL    HW2 9290   2.781   1.620   3.786  0.1104  0.4982  0.7179
    1SOL    HW3 9291   2.682   1.642   3.674  0.8970 -1.2264 -0.3306
    1SOL    MW4 9292   2.710   1.659   3.755  0.3576  0.0653 -0.4041
    1SOL     OW 9293   2.667   1.928   3.890 -0.9692 -0.0993  0.0372
    1SOL    HW2 9294   2.687   1.841   3.856 -1.2499  0.0651 -0.5392
    1SOL    HW3 9295   2.597   1.961   3.834  0.2242  1.1465 -0.7476
    1SOL    MW4 9296   2.660   1.921   3.878 -0.8485  0.0868 -0.1423
    1SOL     OW 9297   2.853   2.065   3.747  0.8684 -0.4588  0.1229
    1SOL    HW2 9298   2.856   2.158   3.770  0.9407 -0.3361 -0.3873
    1SOL    HW3 9299   2.776   2.032   3.794  0.0638  0.1471 -0.7396
    1SOL    MW4 9300   2.843   2.073   3.756  0.7718 -0.3626 -0.0579
    1SOL     OW 9301   2.862   2.324   3.843 -0.2424  0.1529 -0.1215
    1SOL    HW2 9302   2.883   2.320   3.936  0.0970 -1.8508 -0.2686
    1SOL    HW3 9303   2.940   2.362   3.803  0.1199 -0.1771  0.2667
    1SOL    MW4 9304   2.875   2.329   3.850 -0.1497 -0.1550 -0.0894
    1SOL     OW 9305   2.637   2.426   3.748 -0.4282  0.0691  0.7696
    1SOL    HW2 9306   2.650   2.517   3.773  0.9738 -0.5493  2.3665
    1SOL    HW3 9307   2.712   2.380   3.784 -0.2350 -1.4709 -1.4790
    1SOL    MW4 9308   2.649   2.432   3.756 -0.2177 -0.2155  0.6838
    1SOL     OW 9309   2.698   2.672   3.856 -0.4092 -0.0848 -0.2932
    1SOL    HW2 9310   2.692   2.672   3.951 -2.7944 -1.2714 -0.4126
    1SOL    HW3 9311   2.630   2.732   3.827 -0.4902 -0.6496 -1.2963
    1SOL    MW4 9312   2.688   2.680   3.864 -0.7348 -0.3161 -0.4413
    1SOL     OW 9313   2.928   2.809   3.805  0.2697  0.2471  0.1689
    1SOL    HW2 9314   2.926   2.901   3.832  0.7770  0.0599  0.8695
    1SOL    HW3 9315   2.844   2.774   3.833 -0.1997  0.6547 -0.6963
    1SOL    MW4 9316   2.917   2.817   3.812  0.2751  0.2763  0.1471
    1SOL     OW 9317   2.901   3.088   3.837  0.3409  0.1337 -0.2131
    1SOL    HW2 9318   2.976   3.149   3.837  0.3314  0.1753  1.3454
    1SOL    HW3 9319   2.838   3.128   3.778  1.0531  0.7357 -0.5805
    1SOL    MW4 9320   2.903   3.102   3.829  0.4332  0.2189 -0.0560
    1SOL     OW 9321   2.661   3.203   3.691 -0.1842  0.3286 -0.0353
    1SOL    HW2 9322   2.704   3.270   3.745 -0.2584 -0.8713  1.5683
    1SOL    HW3 9323   2.580   3.184   3.738  0.2668 -1.5130  0.0089
    1SOL    MW4 9324   2.656   3.210   3.705 -0.1342 -0.0727  0.1822
    1SOL     OW 9325   2.774   3.417   3.848  0.5135  0.3161 -0.1456
    1SOL    HW2 9326   2.764   3.417   3.943 -1.8657  0.5317 -0.3708
    1SOL    HW3 9327   2.833   3.491   3.830  1.3745 -0.0344  1.1746
    1SOL    MW4 9328   2.781   3.427   3.858  0.3133  0.2983 -0.0012
    1SOL     OW 9329   2.970   3.607   3.790  0.2267 -0.1077 -0.0593
    1SOL    HW2 9330   3.046   3.565   3.831  1.5122  2.3569  0.1622
    1SOL    HW3 9331   2.993   3.611   3.697  0.0478 -0.0082 -0.0986
    1SOL    MW4 9332   2.983   3.602   3.783  0.3726  0.2308 -0.0353
    1SOL     OW 9333   2.975   3.872   3.872  0.4187  0.0087 -0.1748
    1SOL    HW2 9334   2.957   3.860   3.965  1.4764  0.1664  0.0594
    1SOL    HW3 9335   2.982   3.783   3.837 -0.6568 -0.0557 -0.2504
    1SOL    MW4 9336   2.974   3.858   3.879  0.4165  0.0207 -0.1540
    1SOL     OW 9337   2.732   3.960   3.745 -0.2934 -0.5095  0.4573
    1SOL    HW2 9338   2.716   4.040   3.796  0.2794 -0.1376  0.0503
    1SOL    HW3 9339   2.819   3.931   3.773 -0.4726 -0.9573  0.5553
    1SOL    MW4 9340   2.741   3.966   3.756 -0.2418 -0.5195  0.4165
    1SOL     OW 9341   2.695   4.223   3.869 -0.2223 -0.3041  0.4319
    1SOL    HW2 9342   2.770   4.278   3.847  0.3316 -1.6324 -1.0707
    1SOL    HW3 9343   2.624   4.257   3.815 -0.5931  0.5977  1.4503
    1SOL    MW4 9344   2.696   4.235   3.859 -0.1981 -0.3605  0.3681
    1SOL     OW 9345   2.897   4.408   3.770  0.3502  0.1319  0.0244
    1SOL    HW2 9346   2.974   4.368   3.810 -0.0199 -0.4600  0.1448
    1SOL    HW3 9347   2.899   4.499   3.800 -0.2398 -0.4377  1.8571
    1SOL    MW4 9348   2.908   4.415   3.779  0.2234 -0.0215  0.2823
    1SOL     OW 9349   3.363   0.009   3.912  0.1701 -0.0925 -0.2758
    1SOL    HW2 9350   3.368  -0.025   4.002  0.1208  1.3539  0.2905
    1SOL    HW3 9351   3.452   0.039   3.893  0.2283 -0.5822 -0.7927
    1SOL    MW4 9352   3.376   0.009   3.921  0.1714  0.0343 -0.2694
    1SOL     OW 9353   3.126   0.137   3.823 -0.2949  0.7034  0.4852
    1SOL    HW2 9354   3.206   0.097   3.858  0.1633  1.6952  0.5840
    1SOL    HW3 9355   3.139   0.135   3.728  0.4001  1.9664  0.5399
    1SOL    MW4 9356   3.138   0.131   3.815 -0.1426  1.0009  0.5052
    1SOL     OW 9357   3.158   0.404   3.909  0.5986  0.6398 -0.3441
    1SOL    HW2 9358   3.162   0.394   4.004  0.9370  0.7794 -0.3435
    1SOL    HW3 9359   3.146   0.315   3.876 -0.4753  0.7055 -0.1200
    1SOL    MW4 9360   3.157   0.391   3.917  0.5016  0.6669 -0.3145
    1SOL     OW 9361   3.417   0.506   3.803  0.1868  0.2365 -0.2781
    1SOL    HW2 9362   3.492   0.473   3.852 -0.3529  2.0487  1.8804
    1SOL    HW3 9363   3.342   0.463   3.844 -0.1278  0.0247 -1.0627
    1SOL    MW4 9364   3.417   0.496   3.815  0.0741  0.4477 -0.0970
    1SOL     OW 9365   3.356   0.763   3.883  0.2774 -0.1436  0.1690
    1SOL    HW2 9366   3.345   0.786   3.975 -1.8161 -0.9145  0.1453
    1SOL    HW3 9367   3.367   0.668   3.883 -0.9032 -0.2908 -0.4473
    1SOL    MW4 9368   3.356   0.754   3.895 -0.1547 -0.2648  0.0846
    1SOL     OW 9369   3.132   0.856   3.737 -0.4411 -0.2977  0.1328
    1SOL    HW2 9370   3.210   0.805   3.761 -2.2612 -3.2924 -0.0835
    1SOL    HW3 9371   3.126   0.847   3.642 -0.5968  0.6300  0.0487
    1SOL    MW4 9372   3.142   0.848   3.728 -0.7017 -0.5704  0.0935
    1SOL     OW 9373   3.130   1.123   3.831  0.2193 -0.0880  0.1866
    1SOL    HW2 9374   3.147   1.043   3.781  0.7667  0.2488 -0.1667
    1SOL    HW3 9375   3.040   1.146   3.810  0.2410 -0.3084 -0.1437
    1SOL    MW4 9376   3.121   1.115   3.821  0.2944 -0.0727  0.0968
    1SOL     OW 9377   3.340   1.309   3.777  0.5560  0.2360 -0.1988
    1SOL    HW2 9378   3.272   1.244   3.795  0.8750 -0.0278  0.0762
    1SOL    HW3 9379   3.357   1.300   3.683  0.7489 -0.2391 -0.1255
    1SOL    MW4 9380   3.333   1.299   3.767  0.6237  0.1385 -0.1528
    1SOL     OW 9381   3.349   1.554   3.899  0.5117 -0.0363 -0.4313
    1SOL    HW2 9382   3.266   1.599   3.882 -0.6852 -2.0225 -0.0096
    1SOL    HW3 9383   3.341   1.470   3.854  1.2024 -1.3538  1.8216
    1SOL    MW4 9384   3.337   1.549   3.891  0.4449 -0.4722 -0.0782
    1SOL     OW 9385   3.131   1.687   3.766 -0.0183 -0.4354  0.3105
    1SOL    HW2 9386   3.102   1.775   3.787 -2.3408 -1.0223 -0.3416
    1SOL    HW3 9387   3.147   1.688   3.672 -0.7265 -0.8830  0.1794
    1SOL    MW4 9388   3.129   1.699   3.757 -0.4182 -0.5717  0.2072
    1SOL     OW 9389   3.082   1.950   3.878 -0.4626 -0.1935  0.2397
    1SOL    HW2 9390   3.081   1.941   3.973 -0.3672 -0.8856  0.1752
    1SOL    HW3 9391   2.995   1.983   3.856  0.0922  1.6915  0.7242
    1SOL    MW4 9392   3.070   1.953   3.888 -0.3767 -0.0361  0.2952
    1SOL     OW 9393   3.350   2.054   3.782  0.2280  0.3579  0.2121
    1SOL    HW2 9394   3.263   2.025   3.810  0.9916 -0.7489  1.4678
    1SOL    HW3 9395   3.349   2.041   3.687 -0.3955 -1.2820  0.4219
    1SOL    MW4 9396   3.338   2.049   3.773  0.2463 -0.0043  0.4055
    1SOL     OW 9397   3.361   2.333   3.872 -0.2752  0.0396 -0.1111
    1SOL    HW2 9398   3.271   2.366   3.870  0.1978  1.4606  0.8989
    1SOL    HW3 9399   3.356   2.246   3.834 -2.2582 -0.3049  0.8805
    1SOL    MW4 9400   3.349   2.326   3.867 -0.4742  0.1819  0.1531
    1SOL     OW 9401   3.106   2.409   3.750 -0.5360  0.0043 -0.2714
    1SOL    HW2 9402   3.136   2.497   3.775  0.8997 -0.5431 -0.0189
    1SOL    HW3 9403   3.106   2.411   3.655  0.6866 -0.0983 -0.2835
    1SOL    MW4 9404   3.110   2.421   3.741 -0.1853 -0.0815 -0.2396
    1SOL     OW 9405   3.146   2.653   3.883 -0.0706  0.9168 -0.1603
    1SOL    HW2 9406   3.160   2.651   3.978 -0.2371 -0.6050 -0.1436
    1SOL    HW3 9407   3.060   2.694   3.872  0.2808  1.7814  0.2996
    1SOL    MW4 9408   3.136   2.658   3.894 -0.0460  0.8299 -0.0973
    1SOL     OW 9409   3.341   2.830   3.804 -0.8095 -0.0399  0.1490
    1SOL    HW2 9410   3.273   2.770   3.834 -1.3528 -0.1917 -1.3055
    1SOL    HW3 9411   3.335   2.826   3.708 -0.2631  1.6640  0.0329
    1SOL    MW4 9412   3.331   2.821   3.795 -0.8092  0.1647 -0.0582
    1SOL     OW 9413   3.395   3.068   3.918 -0.0469 -0.2271 -0.0551
    1SOL    HW2 9414   3.466   3.106   3.865 -0.1162 -0.1387 -0.0854
    1SOL    HW3 9415   3.375   2.985   3.875  0.9089 -0.8568  0.6953
    1SOL    MW4 9416   3.402   3.062   3.905  0.0699 -0.2987  0.0401
    1SOL     OW 9417   3.173   3.230   3.843 -0.0216  0.3144  0.8352
    1SOL    HW2 9418   3.246   3.175   3.872  0.1474  1.1123  1.9642
    1SOL    HW3 9419   3.184   3.236   3.748  0.5717 -0.7126  0.8242
    1SOL    MW4 9420   3.184   3.223   3.834  0.0787  0.2840  0.9823
    1SOL     OW 9421   3.176   3.489   3.929 -0.0325 -0.6057  0.1707
    1SOL    HW2 9422   3.255   3.535   3.898 -0.3584  0.7948  1.3690
    1SOL    HW3 9423   3.182   3.402   3.889  0.1225  0.7612 -2.9370
    1SOL    MW4 9424   3.187   3.484   3.920 -0.0548 -0.2403 -0.0813
    1SOL     OW 9425   3.365   3.619   3.788 -0.6952  0.1820  0.5382
    1SOL    HW2 9426   3.400   3.703   3.818  0.4115 -0.7959  2.1263
    1SOL    HW3 9427   3.340   3.634   3.697 -0.0025  2.0751  0.6330
    1SOL    MW4 9428   3.366   3.632   3.780 -0.4575  0.3028  0.7603
    1SOL     OW 9429   3.423   3.893   3.856  0.2622  0.0925  0.0176
    1SOL    HW2 9430   3.490   3.961   3.844 -0.3770  0.5167 -1.2084
    1SOL    HW3 9431   3.342   3.935   3.829 -0.4114 -0.6027  0.9694
    1SOL    MW4 9432   3.421   3.908   3.851  0.0892  0.0567 -0.0186
    1SOL     OW 9433   3.189   4.013   3.763 -0.0786 -0.1939  0.4533
    1SOL    HW2 9434   3.175   4.102   3.794 -1.1389  0.1708 -1.0267
    1SOL    HW3 9435   3.111   3.965   3.793 -0.6945 -0.0361 -0.8671
    1SOL    MW4 9436   3.177   4.018   3.771 -0.2997 -0.1254  0.0837
    1SOL     OW 9437   3.136   4.289   3.887 -0.0283 -0.0189 -0.2147
    1SOL    HW2 9438   3.155   4.259   3.976 -0.7753  1.3608  0.4128
    1SOL    HW3 9439   3.207   4.350   3.867 -0.3724  0.3843 -0.2081
    1SOL    MW4 9440   3.148   4.293   3.896 -0.1721  0.2165 -0.1309
    1SOL     OW 9441   3.364   4.420   3.770  0.2239  0.1246 -0.0846
    1SOL    HW2 9442   3.451   4.383   3.787 -0.4571 -1.0287  1.0301
    1SOL    HW3 9443   3.368   4.508   3.807  1.2907  0.5132 -1.1076
    1SOL    MW4 9444   3.376   4.426   3.777  0.2749  0.0238 -0.0725
    1SOL     OW 9445   3.823   4.631   3.855  0.4987 -0.7181 -0.1252
    1SOL    HW2 9446   3.905   4.680   3.861  0.0314  0.0434  0.0821
    1SOL    HW3 9447   3.848   4.549   3.813  1.1691 -0.0263 -1.1017
    1SOL    MW4 9448   3.837   4.627   3.850  0.5257 -0.5260 -0.2267
    1SOL     OW 9449   3.601   0.139   3.819 -0.0997  0.1528  0.0081
    1SOL    HW2 9450   3.675   0.078   3.821 -1.3985 -1.4694  0.0345
    1SOL    HW3 9451   3.592   0.164   3.727 -0.1427 -0.4536 -0.1571
    1SOL    MW4 9452   3.610   0.134   3.807 -0.2768 -0.1412 -0.0103
    1SOL     OW 9453   3.620   0.385   3.941  0.2535 -0.1382 -0.0245
    1SOL    HW2 9454   3.706   0.408   3.907  0.3517 -1.2384 -0.5365
    1SOL    HW3 9455   3.599   0.301   3.900 -0.7600 -0.2200  0.6313
    1SOL    MW4 9456   3.628   0.377   3.931  0.1326 -0.2941 -0.0055
    1SOL     OW 9457   3.856   0.482   3.809 -0.2415 -0.5698  0.6693
    1SOL    HW2 9458   3.933   0.459   3.861  0.6452  0.3402 -0.2079
    1SOL    HW3 9459   3.844   0.576   3.823 -0.5016 -0.4806 -0.1035
    1SOL    MW4 9460   3.864   0.491   3.817 -0.1588 -0.4379  0.4518
    1SOL     OW 9461   3.830   0.737   3.866  0.0504  0.1946  0.4594
    1SOL    HW2 9462   3.909   0.788   3.848 -0.3947  1.0088  0.7911
    1SOL    HW3 9463   3.759   0.788   3.828 -0.2202 -1.0277 -0.7158
    1SOL    MW4 9464   3.831   0.750   3.859 -0.0441  0.1408  0.3479
    1SOL     OW 9465   3.624   0.893   3.801 -0.0270  0.2035 -0.1393
    1SOL    HW2 9466   3.611   0.983   3.831 -1.1135  0.0290 -0.0774
    1SOL    HW3 9467   3.540   0.849   3.818  0.0547 -0.4647 -1.3933
    1SOL    MW4 9468   3.611   0.899   3.807 -0.1600  0.0923 -0.2966
    1SOL     OW 9469   3.565   1.165   3.864 -0.3145 -0.2048  0.0829
    1SOL    HW2 9470   3.646   1.206   3.835 -0.5528 -0.2508 -0.6576
    1SOL    HW3 9471   3.496   1.225   3.836 -0.5161  0.0230  1.0537
    1SOL    MW4 9472   3.566   1.178   3.856 -0.3726 -0.1810  0.1132
    1SOL     OW 9473   3.795   1.283   3.753  0.0100 -0.3794  0.5466
    1SOL    HW2 9474   3.873   1.241   3.791  1.3999  0.4142 -1.3548
    1SOL    HW3 9475   3.804   1.375   3.776 -0.0886 -0.1921 -0.1848
    1SOL    MW4 9476   3.807   1.289   3.761  0.1802 -0.2499  0.1996
    1SOL     OW 9477   3.821   1.562   3.824 -0.0489  0.3102 -0.4193
    1SOL    HW2 9478   3.816   1.548   3.919  1.3630  1.1360 -0.2147
    1SOL    HW3 9479   3.739   1.609   3.803  0.8546  2.5443  0.8536
    1SOL    MW4 9480   3.809   1.566   3.834  0.2565  0.7138 -0.2244
    1SOL     OW 9481   3.560   1.695   3.787 -0.0148 -0.2966  0.1321
    1SOL    HW2 9482   3.493   1.640   3.828 -1.4992  1.0238 -0.5015
    1SOL    HW3 9483   3.543   1.688   3.693  0.4037  0.4616 -0.0022
    1SOL    MW4 9484   3.549   1.686   3.780 -0.1557 -0.0223  0.0310
    1SOL     OW 9485   3.593   1.968   3.882 -0.2477  0.0692  0.0883
    1SOL    HW2 9486   3.594   1.877   3.855 -1.4327 -0.1443  0.6858
    1SOL    HW3 9487   3.502   1.996   3.868  0.2671  1.3761 -0.7818
    1SOL    MW4 9488   3.581   1.960   3.877 -0.3359  0.2135  0.0522
    1SOL     OW 9489   3.833   2.113   3.805  0.1032  0.6412  0.0529
    1SOL    HW2 9490   3.909   2.058   3.820  0.0192 -0.1209 -2.1329
    1SOL    HW3 9491   3.760   2.063   3.842  0.4187  0.5518  0.5551
    1SOL    MW4 9492   3.833   2.099   3.812  0.1335  0.5291 -0.1695
    1SOL     OW 9493   3.801   2.341   3.934 -0.0521 -0.3627 -0.0146
    1SOL    HW2 9494   3.725   2.376   3.888  0.3531  0.4863 -0.0407
    1SOL    HW3 9495   3.814   2.254   3.895 -2.0028 -1.2004  1.1314
    1SOL    MW4 9496   3.793   2.334   3.923 -0.2563 -0.3610  0.1333
    1SOL     OW 9497   3.600   2.457   3.782 -0.2546 -0.4156  0.5543
    1SOL    HW2 9498   3.520   2.430   3.827 -1.0329  0.6809 -0.1503
    1SOL    HW3 9499   3.585   2.436   3.690 -0.2969  1.0486  0.2143
    1SOL    MW4 9500   3.587   2.451   3.776 -0.3629 -0.0775  0.4163
    1SOL     OW 9501   3.590   2.713   3.874  0.1785  0.3460  0.3663
    1SOL    HW2 9502   3.598   2.634   3.821 -1.3993 -1.1462  2.2807
    1SOL    HW3 9503   3.509   2.755   3.843  0.0025  0.2088  0.6373
    1SOL    MW4 9504   3.580   2.708   3.863 -0.0532  0.1311  0.6547
    1SOL     OW 9505   3.819   2.845   3.802  0.1321  0.0414  0.3162
    1SOL    HW2 9506   3.883   2.777   3.821 -0.7938 -0.9971 -0.2194
    1SOL    HW3 9507   3.737   2.812   3.840 -0.3395  0.8255 -0.0032
    1SOL    MW4 9508   3.817   2.832   3.809 -0.0522  0.0079  0.2034
    1SOL     OW 9509   3.842   3.120   3.835  0.8530  0.2287 -0.1777
    1SOL    HW2 9510   3.753   3.144   3.812  0.8295  0.8202  0.5216
    1SOL    HW3 9511   3.844   3.024   3.830  0.2106  0.2234 -0.2873
    1SOL    MW4 9512   3.831   3.110   3.831  0.7651  0.3064 -0.0999
    1SOL     OW 9513   3.578   3.208   3.772  0.3988 -0.1573 -0.4151
    1SOL    HW2 9514   3.573   3.298   3.806  1.1319 -0.1691 -0.2632
    1SOL    HW3 9515   3.589   3.219   3.678 -1.7513 -0.1253 -0.6929
    1SOL    MW4 9516   3.579   3.222   3.764  0.2117 -0.1545 -0.4315
    1SOL     OW 9517   3.599   3.465   3.870 -0.1235 -0.0866  0.0148
    1SOL    HW2 9518   3.592   3.460   3.965  2.5989  1.9993  0.3895
    1SOL    HW3 9519   3.520   3.513   3.843  0.4147  1.7135  1.5292
    1SOL    MW4 9520   3.588   3.471   3.879  0.3068  0.4263  0.2642
    1SOL     OW 9521   3.830   3.569   3.750 -0.2500  0.2518 -0.0143
    1SOL    HW2 9522   3.829   3.657   3.788  2.2961 -0.4872  1.9583
    1SOL    HW3 9523   3.757   3.524   3.792  0.7067  0.3399  1.7632
    1SOL    MW4 9524   3.820   3.575   3.760  0.2120  0.1657  0.4804
    1SOL     OW 9525   3.837   3.827   3.861 -0.2948  0.4922  0.4529
    1SOL    HW2 9526   3.845   3.846   3.954  0.4244  2.1416  0.0766
    1SOL    HW3 9527   3.908   3.877   3.820 -0.7096 -0.0733 -1.0022
    1SOL    MW4 9528   3.848   3.836   3.868 -0.2544  0.6349  0.2112
    1SOL     OW 9529   3.666   4.016   3.747 -0.0078 -0.0217  0.0557
    1SOL    HW2 9530   3.650   4.098   3.793 -0.5696 -0.4523  0.6284
    1SOL    HW3 9531   3.715   3.963   3.810  0.5044 -0.0721 -0.3759
    1SOL    MW4 9532   3.671   4.020   3.761 -0.0145 -0.0854  0.0746
    1SOL     OW 9533   3.600   4.274   3.844  0.3937  0.2005 -0.1409
    1SOL    HW2 9534   3.627   4.274   3.936  3.0810 -0.2148 -0.8940
    1SOL    HW3 9535   3.665   4.330   3.800 -0.8237  0.3394 -1.8048
    1SOL    MW4 9536   3.612   4.282   3.851  0.5877  0.1640 -0.4594
    1SOL     OW 9537   3.856   4.379   3.754  0.2458 -0.3760 -0.1358
    1SOL    HW2 9538   3.934   4.324   3.764  0.6210 -0.0706 -1.2681
    1SOL    HW3 9539   3.844   4.386   3.659 -0.9319 -0.0919  0.0306
    1SOL    MW4 9540   3.865   4.373   3.743  0.1397 -0.2980 -0.2632
    1SOL     OW 9541   4.283   4.659   3.942 -0.7641  0.6364  0.0305
    1SOL    HW2 9542   4.268   4.674   4.035  0.3713  0.9077  0.1675
    1SOL    HW3 9543   4.368   4.699   3.924 -1.3749  1.3655 -1.3105
    1SOL    MW4 9544   4.292   4.666   3.952 -0.6952  0.7687 -0.1283
    1SOL     OW 9545   4.038   0.131   3.825  0.4521  0.3865 -0.1260
    1SOL    HW2 9546   4.120   0.095   3.861  0.4091  0.9828  0.5847
    1SOL    HW3 9547   4.050   0.128   3.730  0.8068 -0.6706 -0.0520
    1SOL    MW4 9548   4.051   0.126   3.818  0.4930  0.3257 -0.0224
    1SOL     OW 9549   4.072   0.373   3.945 -0.1896 -0.1392  0.5554
    1SOL    HW2 9550   4.048   0.361   4.037 -0.2337 -1.1987  0.4125
    1SOL    HW3 9551   4.052   0.289   3.904  0.6070  0.0616 -0.2617
    1SOL    MW4 9552   4.066   0.360   3.952 -0.0906 -0.2525  0.4289
    1SOL     OW 9553   4.263   0.510   3.806 -0.3096 -0.5662 -0.1075
    1SOL    HW2 9554   4.183   0.468   3.837 -1.4858 -1.0519 -3.5189
    1SOL    HW3 9555   4.252   0.513   3.711  2.2982  2.3323 -0.3793
    1SOL    MW4 9556   4.251   0.505   3.797 -0.1202 -0.2479 -0.5937
    1SOL     OW 9557   4.296   0.778   3.894 -0.2368  0.3523  0.1858
    1SOL    HW2 9558   4.211   0.813   3.867 -0.0498  1.4701  1.0051
    1SOL    HW3 9559   4.295   0.687   3.865 -1.1310  0.7569 -1.1081
    1SOL    MW4 9560   4.285   0.771   3.887 -0.3300  0.5533  0.1230
    1SOL     OW 9561   4.054   0.859   3.794 -0.1108 -0.0107  0.1979
    1SOL    HW2 9562   4.041   0.948   3.825  2.1332  0.2276  0.5293
    1SOL    HW3 9563   4.034   0.863   3.700 -0.4285  0.7412  0.2934
    1SOL    MW4 9564   4.050   0.871   3.785  0.1431  0.1200  0.2544
    1SOL     OW 9565   4.016   1.132   3.851  0.0816  0.2819  0.2935
    1SOL    HW2 9566   4.014   1.129   3.946 -0.1945 -0.2137  0.2760
    1SOL    HW3 9567   4.101   1.169   3.829 -0.6615  2.3312  0.7613
    1SOL    MW4 9568   4.027   1.136   3.860 -0.0529  0.4869  0.3529
    1SOL     OW 9569   4.264   1.248   3.771 -0.5275  0.4171  0.0441
    1SOL    HW2 9570   4.238   1.337   3.793 -0.3121  0.4762  0.0651
    1SOL    HW3 9571   4.254   1.243   3.676  0.7747  0.9031 -0.1333
    1SOL    MW4 9572   4.259   1.259   3.761 -0.3271  0.4890  0.0234
    1SOL     OW 9573   4.261   1.524   3.846 -0.4066  0.5954  0.3779
    1SOL    HW2 9574   4.191   1.582   3.817 -0.7046 -0.7696 -1.7551
    1SOL    HW3 9575   4.341   1.562   3.808 -0.6947 -0.7231 -1.6815
    1SOL    MW4 9576   4.262   1.537   3.837 -0.4840  0.2413 -0.1752
    1SOL     OW 9577   4.055   1.694   3.755  0.2576  0.0939 -0.2449
    1SOL    HW2 9578   4.044   1.777   3.802 -0.2678 -0.0988 -0.0258
    1SOL    HW3 9579   3.976   1.644   3.775  0.3879 -0.3027 -0.7022
    1SOL    MW4 9580   4.043   1.698   3.763  0.2060  0.0162 -0.2761
    1SOL     OW 9581   4.044   1.936   3.884  0.1680  0.2159  0.0565
    1SOL    HW2 9582   4.052   1.949   3.978 -2.1105  1.5678  0.0941
    1SOL    HW3 9583   4.115   1.988   3.846  0.7284  0.1265  0.9809
    1SOL    MW4 9584   4.054   1.945   3.891 -0.0587  0.3824  0.1833
    1SOL     OW 9585   4.300   2.062   3.790  0.1809  0.0991 -0.6344
    1SOL    HW2 9586   4.271   2.150   3.816 -1.1870 -0.2000 -1.0869
    1SOL    HW3 9587   4.279   2.058   3.696 -0.2378 -0.8857 -0.5047
    1SOL    MW4 9588   4.293   2.073   3.781 -0.0548 -0.0701 -0.6771
    1SOL     OW 9589   4.251   2.336   3.847  0.0614  0.3160 -0.2233
    1SOL    HW2 9590   4.263   2.351   3.941 -0.2854  0.2918 -0.1712
    1SOL    HW3 9591   4.173   2.387   3.825 -0.5817 -0.6643 -0.2352
    1SOL    MW4 9592   4.242   2.345   3.856 -0.0691  0.1836 -0.2179
    1SOL     OW 9593   4.009   2.435   3.740 -0.3765 -0.4947 -0.0041
    1SOL    HW2 9594   4.013   2.528   3.763 -0.1240 -0.3677 -0.5460
    1SOL    HW3 9595   3.938   2.400   3.794 -2.1459  0.5373 -1.6187
    1SOL    MW4 9596   4.000   2.443   3.750 -0.5760 -0.3417 -0.2885
    1SOL     OW 9597   4.040   2.703   3.852 -0.1873 -0.4866  0.0804
    1SOL    HW2 9598   4.060   2.698   3.946  1.6410 -0.4681 -0.2918
    1SOL    HW3 9599   4.095   2.774   3.819 -0.6307 -0.6608 -1.0603
    1SOL    MW4 9600   4.050   2.712   3.860 -0.0048 -0.5071 -0.1194
    1SOL     OW 9601   4.254   2.857   3.749 -0.5889  0.0583  0.1922
    1SOL    HW2 9602   4.266   2.949   3.771 -0.6153  0.1035  0.0221
    1SOL    HW3 9603   4.330   2.812   3.785  0.5990  0.4772 -1.7361
    1SOL    MW4 9604   4.265   2.863   3.757 -0.4354  0.1197 -0.0846
    1SOL     OW 9605   4.300   3.107   3.838 -0.0521  0.2126  0.4664
    1SOL    HW2 9606   4.231   3.169   3.813 -0.4133 -0.0524  0.7985
    1SOL    HW3 9607   4.381   3.150   3.814 -0.3463  0.4554 -0.0940
    1SOL    MW4 9608   4.301   3.121   3.832 -0.1383  0.2100  0.4363
    1SOL     OW 9609   4.086   3.243   3.761  0.2106  0.0298 -0.1330
    1SOL    HW2 9610   4.000   3.214   3.790  0.6789  0.1098  1.3941
    1SOL    HW3 9611   4.075   3.265   3.669 -1.4762  0.3253  0.1369
    1SOL    MW4 9612   4.073   3.242   3.753  0.0496  0.0796  0.1044
    1SOL     OW 9613   4.107   3.515   3.848  0.1191 -0.1179  0.3007
    1SOL    HW2 9614   4.118   3.425   3.816 -0.6686  0.2711 -1.0746
    1SOL    HW3 9615   4.018   3.539   3.825  0.4893  1.2083  0.1785
    1SOL    MW4 9616   4.097   3.506   3.840  0.0639  0.1080  0.1030
    1SOL     OW 9617   4.335   3.641   3.760 -0.5230 -0.3488 -0.2293
    1SOL    HW2 9618   4.256   3.613   3.805  0.1962 -1.5844  0.2789
    1SOL    HW3 9619   4.406   3.603   3.811  0.4098  0.8736 -0.5941
    1SOL    MW4 9620   4.334   3.633   3.773 -0.3052 -0.3505 -0.2105
    1SOL     OW 9621   4.302   3.881   3.895  0.2970  0.3794  0.3936
    1SOL    HW2 9622   4.218   3.907   3.856  0.3302 -1.5157 -1.0562
    1SOL    HW3 9623   4.326   3.801   3.848  1.4714 -0.7477  2.8165
    1SOL    MW4 9624   4.294   3.874   3.884  0.4559 -0.0196  0.5217
    1SOL     OW 9625   4.054   3.976   3.777  0.8578 -0.0769 -0.2476
    1SOL    HW2 9626   4.040   4.062   3.817  2.2966 -0.0480  0.2415
    1SOL    HW3 9627   4.066   3.994   3.684 -0.3505  0.0874 -0.3752
    1SOL    MW4 9628   4.054   3.990   3.770  0.8879 -0.0513 -0.1998
    1SOL     OW 9629   4.080   4.240   3.872  0.3494 -0.5018  0.1364
    1SOL    HW2 9630   4.073   4.244   3.968 -1.4355  0.9800 -0.0286
    1SOL    HW3 9631   4.160   4.290   3.853  1.2453 -1.6112  0.8899
    1SOL    MW4 9632   4.090   4.247   3.882  0.2317 -0.4530  0.2139
    1SOL     OW 9633   4.283   4.414   3.802 -0.2771  0.5894  0.3659
    1SOL    HW2 9634   4.268   4.498   3.845 -1.9487 -0.0871  1.1517
    1SOL    HW3 9635   4.363   4.381   3.843 -1.4071  0.3175  2.4393
    1SOL    MW4 9636   4.292   4.421   3.813 -0.6466  0.4640  0.7432
    1SOL     OW 9637   0.270   4.635   4.171 -0.6963  0.4487  0.8171
    1SOL    HW2 9638   0.350   4.679   4.199 -0.7294  0.6077  0.6584
    1SOL    HW3 9639   0.269   4.553   4.221 -0.3481  0.3680  0.6889
    1SOL    MW4 9640   0.280   4.630   4.181 -0.6547  0.4592  0.7796
    1SOL     OW 9641   0.029   0.076   4.277 -0.2703  0.2900  0.3627
    1SOL    HW2 9642   0.040   0.076   4.372 -0.2600 -0.4534  0.3655
    1SOL    HW3 9643   0.108   0.032   4.245  0.0190  1.0956 -0.0218
    1SOL    MW4 9644   0.041   0.070   4.286 -0.2308  0.2982  0.3128
    1SOL     OW 9645   4.482   0.342   4.237 -0.0674 -0.0210 -0.4790
    1SOL    HW2 9646   4.504   0.251   4.257 -0.6668 -0.2792 -0.9771
    1SOL    HW3 9647   4.494   0.349   4.142 -0.8034  0.1954 -0.5598
    1SOL    MW4 9648   4.486   0.331   4.227 -0.2436 -0.0265 -0.5550
    1SOL     OW 9649   0.229   0.465   4.260 -0.1064 -0.1394  0.5543
    1SOL    HW2 9650   0.294   0.406   4.223  0.3324 -0.6920  2.1816
    1SOL    HW3 9651   0.147   0.417   4.254 -0.0234 -0.2616  0.3935
    1SOL    MW4 9652   0.227   0.451   4.254 -0.0375 -0.2285  0.7482
    1SOL     OW 9653   0.247   0.730   4.174  0.5524  0.2947  0.5500
    1SOL    HW2 9654   0.164   0.770   4.197 -0.1312  0.5333 -2.1806
    1SOL    HW3 9655   0.237   0.638   4.201  0.2991  0.8041  2.2999
    1SOL    MW4 9656   0.235   0.723   4.181  0.4288  0.3933  0.4201
    1SOL     OW 9657   0.027   0.856   4.307  0.5176  0.2294  0.1036
    1SOL    HW2 9658  -0.046   0.806   4.269  1.9054 -0.0088 -2.4030
    1SOL    HW3 9659   0.021   0.941   4.264  2.5285 -0.2666 -1.2309
    1SOL    MW4 9660   0.016   0.860   4.296  0.9661  0.1325 -0.4025
    1SOL     OW 9661   0.015   1.111   4.170 -0.1814  0.3548 -0.8812
    1SOL    HW2 9662   0.087   1.170   4.190  0.7183 -0.6499 -1.1344
    1SOL    HW3 9663   0.007   1.114   4.075 -0.9426  1.0117 -0.7994
    1SOL    MW4 9664   0.023   1.119   4.160 -0.1631  0.3090 -0.9036
    1SOL     OW 9665   0.227   1.274   4.243 -0.5442  0.4316  0.4327
    1SOL    HW2 9666   0.217   1.307   4.332  1.0436  1.4410  0.2477
    1SOL    HW3 9667   0.290   1.202   4.250 -1.8806 -0.7792  0.4017
    1SOL    MW4 9668   0.234   1.269   4.255 -0.5111  0.4051  0.4039
    1SOL     OW 9669   0.106   1.358   4.486  0.0014  0.2470  0.0591
    1SOL    HW2 9670   0.175   1.397   4.539  0.7851 -0.0485 -0.7260
    1SOL    HW3 9671   0.048   1.431   4.465  0.5267  0.6584  0.0286
    1SOL    MW4 9672   0.108   1.373   4.490  0.1741  0.2623 -0.0482
    1SOL     OW 9673   0.054   1.699   4.216 -0.4460  0.3899  0.0615
    1SOL    HW2 9674  -0.004   1.657   4.279 -1.0156  0.2616 -0.5450
    1SOL    HW3 9675  -0.003   1.757   4.166 -0.0391  0.3228 -0.4837
    1SOL    MW4 9676   0.039   1.701   4.218 -0.4674  0.3642 -0.0901
    1SOL     OW 9677   0.243   2.060   4.276 -0.4025  0.1609  0.0707
    1SOL    HW2 9678   0.276   2.109   4.351  1.2130  0.1788 -0.6191
    1SOL    HW3 9679   0.320   2.015   4.242 -1.5407 -1.5792 -0.2695
    1SOL    MW4 9680   0.258   2.060   4.281 -0.3396 -0.0663 -0.0653
    1SOL     OW 9681   0.363   1.752   4.489 -0.4562  0.0243  0.3872
    1SOL    HW2 9682   0.270   1.775   4.499 -0.3672  0.4991  0.1268
    1SOL    HW3 9683   0.372   1.727   4.397 -0.3145  0.0248  0.4009
    1SOL    MW4 9684   0.352   1.752   4.478 -0.4258  0.0870  0.3543
    1SOL     OW 9685   0.220   2.310   4.171 -0.0708 -0.2274  0.2109
    1SOL    HW2 9686   0.297   2.355   4.206 -1.0527  0.1932  1.8503
    1SOL    HW3 9687   0.229   2.220   4.203  0.5403 -0.5901 -0.9217
    1SOL    MW4 9688   0.231   2.304   4.180 -0.1197 -0.2198  0.2780
    1SOL     OW 9689   0.002   2.469   4.198  0.5210  0.3089 -0.1704
    1SOL    HW2 9690  -0.071   2.423   4.156 -0.3661  0.2044  1.4541
    1SOL    HW3 9691   0.076   2.409   4.189 -0.0928 -0.4816 -0.0044
    1SOL    MW4 9692   0.002   2.455   4.191  0.3233  0.1907  0.0658
    1SOL     OW 9693   4.462   2.745   4.152  0.1368 -0.3381  0.0986
    1SOL    HW2 9694   4.549   2.782   4.166  0.0983 -0.7098  1.3171
    1SOL    HW3 9695   4.474   2.651   4.161 -0.2206 -0.4590 -0.6414
    1SOL    MW4 9696   4.475   2.738   4.155  0.0844 -0.4032  0.1621
    1SOL     OW 9697   0.211   2.840   4.216  0.6092  0.2451 -0.1733
    1SOL    HW2 9698   0.300   2.809   4.197  0.5874  0.7131 -1.0504
    1SOL    HW3 9699   0.216   2.935   4.205  0.1924  0.3492  0.5589
    1SOL    MW4 9700   0.224   2.848   4.212  0.5514  0.3204 -0.1922
    1SOL     OW 9701   0.223   3.110   4.175  0.0736  0.4801  0.0433
    1SOL    HW2 9702   0.291   3.171   4.204  0.1662  0.3288  0.1456
    1SOL    HW3 9703   0.143   3.142   4.216 -0.1666  1.4447 -1.1559
    1SOL    MW4 9704   0.222   3.122   4.184  0.0541  0.5875 -0.1020
    1SOL     OW 9705   0.009   3.228   4.303 -0.2130 -0.4065  0.1555
    1SOL    HW2 9706  -0.065   3.215   4.244  0.7053 -0.2810 -1.0714
    1SOL    HW3 9707   0.035   3.320   4.288 -0.5106 -0.1226  1.3946
    1SOL    MW4 9708   0.003   3.239   4.293 -0.1311 -0.3526  0.1574
    1SOL     OW 9709   0.065   3.491   4.189  0.0452 -0.1915  0.1204
    1SOL    HW2 9710  -0.020   3.532   4.206  0.0558 -0.1533  0.0797
    1SOL    HW3 9711   0.086   3.516   4.099  1.4741  2.2568  1.0711
    1SOL    MW4 9712   0.057   3.500   4.179  0.2351  0.1364  0.2403
    1SOL     OW 9713   0.254   3.642   4.316 -0.1444 -0.4569 -0.1048
    1SOL    HW2 9714   0.329   3.600   4.273 -0.3272 -0.8974  0.0045
    1SOL    HW3 9715   0.178   3.591   4.288 -0.3050 -0.5389  0.4717
    1SOL    MW4 9716   0.254   3.630   4.306 -0.1897 -0.5257 -0.0148
    1SOL     OW 9717   0.224   3.865   4.153  0.0911 -0.0463 -0.4134
    1SOL    HW2 9718   0.171   3.934   4.193  0.0746 -0.5462  0.4468
    1SOL    HW3 9719   0.220   3.793   4.216 -0.5233 -1.1192 -1.6562
    1SOL    MW4 9720   0.216   3.864   4.167  0.0078 -0.2539 -0.4640
    1SOL     OW 9721   0.046   4.038   4.279  0.0561 -0.1441 -0.0208
    1SOL    HW2 9722   0.053   4.024   4.374 -2.0103  0.1062  0.1888
    1SOL    HW3 9723  -0.023   3.977   4.252 -0.7522  1.2199 -1.0348
    1SOL    MW4 9724   0.038   4.028   4.288 -0.3232  0.0691 -0.1268
    1SOL     OW 9725   0.020   4.295   4.187 -0.0287 -0.2287 -0.0658
    1SOL    HW2 9726   0.032   4.205   4.215 -0.8857 -0.3773 -0.1824
    1SOL    HW3 9727   0.042   4.294   4.094 -0.4504 -0.3977 -0.1620
    1SOL    MW4 9728   0.025   4.283   4.178 -0.1974 -0.2708 -0.0944
    1SOL     OW 9729   0.247   4.410   4.309 -0.1278 -0.4302 -0.0076
    1SOL    HW2 9730   0.239   4.413   4.404 -0.6378 -0.0616 -0.0554
    1SOL    HW3 9731   0.167   4.366   4.279  0.3669 -1.1834 -0.2232
    1SOL    MW4 9732   0.235   4.405   4.317 -0.1298 -0.4807 -0.0424
    1SOL     OW 9733   0.698   4.612   4.148  0.4952 -0.2002  0.0923
    1SOL    HW2 9734   0.629   4.675   4.166  1.4340  0.7749  0.2822
    1SOL    HW3 9735   0.705   4.610   4.052  0.0549 -0.4780  0.0630
    1SOL    MW4 9736   0.690   4.620   4.138  0.5610 -0.1082  0.1140
    1SOL     OW 9737   0.509   0.110   4.233 -0.0274 -0.3044  0.6823
    1SOL    HW2 9738   0.538   0.111   4.325  0.6051  1.1073  0.4812
    1SOL    HW3 9739   0.510   0.202   4.207  0.7463 -0.7981 -1.0503
    1SOL    MW4 9740   0.513   0.123   4.242  0.1581 -0.1833  0.4272
    1SOL     OW 9741   0.454   0.361   4.098 -0.6930  0.4026  0.6652
    1SOL    HW2 9742   0.542   0.400   4.099 -0.2809 -0.4791 -0.2547
    1SOL    HW3 9743   0.434   0.349   4.005 -0.6765 -1.8611  0.9178
    1SOL    MW4 9744   0.463   0.365   4.085 -0.6364 -0.0124  0.5774
    1SOL     OW 9745   0.679   0.478   4.209 -0.0334  0.2064  0.2838
    1SOL    HW2 9746   0.751   0.415   4.207 -0.5472 -0.4596  1.6743
    1SOL    HW3 9747   0.721   0.563   4.193  0.5989 -0.5079 -2.0498
    1SOL    MW4 9748   0.694   0.481   4.207 -0.0177  0.0243  0.1593
    1SOL     OW 9749   0.742   0.755   4.113  0.3039 -0.2490 -0.2594
    1SOL    HW2 9750   0.661   0.788   4.152 -0.0312 -0.2443 -0.9574
    1SOL    HW3 9751   0.715   0.718   4.029  1.3033  1.6205 -1.4518
    1SOL    MW4 9752   0.728   0.755   4.107  0.3915 -0.0017 -0.5088
    1SOL     OW 9753   0.511   0.845   4.213  0.6880  0.1233  0.1448
    1SOL    HW2 9754   0.497   0.939   4.199  2.1176  0.1675 -1.1694
    1SOL    HW3 9755   0.437   0.803   4.168  1.7803  0.5235 -2.0873
    1SOL    MW4 9756   0.499   0.852   4.205  1.0207  0.1820 -0.3228
    1SOL     OW 9757   0.455   1.104   4.180 -0.0612 -0.6786 -0.9111
    1SOL    HW2 9758   0.522   1.169   4.201  0.7371 -1.3908 -1.2199
    1SOL    HW3 9759   0.434   1.120   4.088 -0.9028  0.0572 -0.6039
    1SOL    MW4 9760   0.461   1.115   4.171 -0.0669 -0.6756 -0.9112
    1SOL     OW 9761   0.662   1.297   4.196  0.0272 -0.2341 -0.1707
    1SOL    HW2 9762   0.679   1.305   4.290  1.0944 -0.7709 -0.3063
    1SOL    HW3 9763   0.647   1.387   4.167  1.5027  0.1493  0.1950
    1SOL    MW4 9764   0.662   1.310   4.205  0.3626 -0.2544 -0.1407
    1SOL     OW 9765   0.639   1.547   4.105  0.2935 -0.1548 -0.5879
    1SOL    HW2 9766   0.726   1.585   4.120 -0.2524  1.1345 -0.6446
    1SOL    HW3 9767   0.638   1.531   4.010  0.5312 -0.3162 -0.5644
    1SOL    MW4 9768   0.651   1.550   4.094  0.2528 -0.0058 -0.5922
    1SOL     OW 9769   0.222   1.526   4.108  0.0742  0.4290 -0.3831
    1SOL    HW2 9770   0.206   1.445   4.156  2.4299 -0.8071 -1.5978
    1SOL    HW3 9771   0.153   1.585   4.137 -0.9978 -1.6295  1.3956
    1SOL    MW4 9772   0.211   1.524   4.118  0.2436 -0.0057 -0.3090
    1SOL     OW 9773   0.449   1.939   4.167 -0.0658 -0.3197 -0.9039
    1SOL    HW2 9774   0.452   1.846   4.187  2.6168  0.0858  0.7542
    1SOL    HW3 9775   0.469   1.944   4.073 -0.1938 -1.3963 -0.9889
    1SOL    MW4 9776   0.452   1.928   4.157  0.2713 -0.4082 -0.6962
    1SOL     OW 9777   0.719   2.046   4.221 -0.2560  0.2523 -0.1985
    1SOL    HW2 9778   0.733   2.086   4.307 -1.8773 -0.7911  0.5755
    1SOL    HW3 9779   0.624   2.032   4.216  0.1793 -2.8223 -0.7591
    1SOL    MW4 9780   0.708   2.050   4.231 -0.4125 -0.2911 -0.1702
    1SOL     OW 9781   0.723   2.308   4.131 -0.2958  0.0374 -0.2629
    1SOL    HW2 9782   0.723   2.213   4.145  0.8649  0.2650  1.5300
    1SOL    HW3 9783   0.729   2.318   4.036  1.3282 -1.6960 -0.3781
    1SOL    MW4 9784   0.724   2.297   4.120  0.0716 -0.1612 -0.0420
    1SOL     OW 9785   0.475   2.417   4.220  0.1697 -0.6473 -0.0504
    1SOL    HW2 9786   0.486   2.510   4.200 -1.4853 -0.2511  0.7057
    1SOL    HW3 9787   0.551   2.374   4.182  0.7217  0.9673 -0.8063
    1SOL    MW4 9788   0.486   2.424   4.212  0.0242 -0.3819 -0.0501
    1SOL     OW 9789   0.464   2.707   4.191 -0.3639 -0.0282  0.2711
    1SOL    HW2 9790   0.547   2.751   4.209 -0.5539  0.3828  0.1458
    1SOL    HW3 9791   0.452   2.717   4.097 -0.6783  0.1272  0.3273
    1SOL    MW4 9792   0.473   2.714   4.181 -0.4305  0.0465  0.2618
    1SOL     OW 9793   0.693   2.826   4.248 -0.4221  0.0088 -0.2064
    1SOL    HW2 9794   0.688   2.828   4.343  1.2441 -0.4025 -0.0964
    1SOL    HW3 9795   0.697   2.918   4.222  0.9473  0.0785  0.2344
    1SOL    MW4 9796   0.693   2.838   4.257 -0.0216 -0.0362 -0.1345
    1SOL     OW 9797   0.682   3.099   4.165 -0.1073  0.2917 -0.3747
    1SOL    HW2 9798   0.758   3.135   4.211  0.0586  1.1429 -1.2935
    1SOL    HW3 9799   0.610   3.158   4.188 -0.6066 -0.8123  0.9084
    1SOL    MW4 9800   0.683   3.111   4.174 -0.1513  0.2584 -0.3266
    1SOL     OW 9801   0.448   3.265   4.257 -0.1240 -0.3881  0.4242
    1SOL    HW2 9802   0.420   3.256   4.348 -0.0640  0.9440  0.5751
    1SOL    HW3 9803   0.458   3.359   4.244  1.4811 -0.6747 -0.4751
    1SOL    MW4 9804   0.446   3.276   4.267  0.0957 -0.2499  0.3257
    1SOL     OW 9805   0.464   3.517   4.164 -0.9018 -0.0002  0.3461
    1SOL    HW2 9806   0.554   3.526   4.195 -1.0199  1.7332  0.2383
    1SOL    HW3 9807   0.472   3.511   4.069 -0.8422 -0.9383  0.4012
    1SOL    MW4 9808   0.477   3.518   4.156 -0.9095  0.1047  0.3386
    1SOL     OW 9809   0.719   3.594   4.282  0.4415  0.3984 -0.1314
    1SOL    HW2 9810   0.712   3.616   4.374  0.6898 -1.7935  0.4540
    1SOL    HW3 9811   0.791   3.531   4.278 -2.0260 -2.5058 -1.2029
    1SOL    MW4 9812   0.727   3.588   4.293  0.1487 -0.2739 -0.1955
    1SOL     OW 9813   0.746   3.852   4.199  0.0506 -0.5848 -0.0033
    1SOL    HW2 9814   0.663   3.894   4.223 -0.5544 -1.2708 -0.8777
    1SOL    HW3 9815   0.740   3.764   4.237  0.5256 -0.5188  0.2231
    1SOL    MW4 9816   0.734   3.846   4.207  0.0333 -0.6666 -0.0887
    1SOL     OW 9817   0.483   3.946   4.233  0.3611  0.5052  0.2084
    1SOL    HW2 9818   0.465   4.039   4.241 -0.1258  0.5969 -1.6574
    1SOL    HW3 9819   0.412   3.912   4.178  0.6750 -0.9099  0.6427
    1SOL    MW4 9820   0.471   3.954   4.227  0.3382  0.3307  0.0196
    1SOL     OW 9821   0.464   4.250   4.232 -0.7106  0.1669  0.1570
    1SOL    HW2 9822   0.398   4.310   4.267 -1.2209  1.1812 -2.4160
    1SOL    HW3 9823   0.469   4.272   4.139 -0.4804 -3.3728 -0.7528
    1SOL    MW4 9824   0.456   4.261   4.225 -0.7475 -0.1664 -0.3023
    1SOL     OW 9825   0.729   4.348   4.238 -0.3239  0.1113  0.2572
    1SOL    HW2 9826   0.638   4.316   4.241 -0.3201  0.1708  1.2275
    1SOL    HW3 9827   0.721   4.436   4.201 -0.5135 -0.3575 -0.8578
    1SOL    MW4 9828   0.716   4.355   4.233 -0.3484  0.0572  0.2384
    1SOL     OW 9829   1.155   4.643   4.145 -0.0900 -0.2167  0.1128
    1SOL    HW2 9830   1.154   4.552   4.173 -0.2756 -0.4622 -0.7025
    1SOL    HW3 9831   1.157   4.640   4.050 -1.0051  0.6368  0.0608
    1SOL    MW4 9832   1.155   4.631   4.136 -0.2353 -0.1364 -0.0019
    1SOL     OW 9833   0.921   0.106   4.171 -0.2717  0.0114 -0.3693
    1SOL    HW2 9834   0.999   0.052   4.159  0.1127  0.3085  0.7176
    1SOL    HW3 9835   0.848   0.044   4.171 -0.2031 -0.1109 -3.0005
    1SOL    MW4 9836   0.922   0.091   4.170 -0.2119  0.0345 -0.5732
    1SOL     OW 9837   0.941   0.375   4.134 -0.0682 -0.5567  0.2841
    1SOL    HW2 9838   1.022   0.410   4.170 -1.3799  1.5880  1.2622
    1SOL    HW3 9839   0.938   0.284   4.164  1.2169 -0.2097  1.5122
    1SOL    MW4 9840   0.951   0.368   4.142 -0.0718 -0.2279  0.5751
    1SOL     OW 9841   1.176   0.503   4.222 -0.1177 -0.0544 -0.2043
    1SOL    HW2 9842   1.195   0.509   4.315 -0.7845  0.5398 -0.1018
    1SOL    HW3 9843   1.253   0.460   4.184 -0.9194 -2.6840  0.9918
    1SOL    MW4 9844   1.188   0.498   4.229 -0.3114 -0.3230 -0.0334
    1SOL     OW 9845   1.145   0.766   4.164  0.5338  0.1353 -0.8765
    1SOL    HW2 9846   1.198   0.818   4.225  0.4531  0.6433 -1.2389
    1SOL    HW3 9847   1.176   0.676   4.177 -0.1151  0.0981  0.5731
    1SOL    MW4 9848   1.156   0.761   4.174  0.4375  0.1975 -0.7334
    1SOL     OW 9849   0.938   0.924   4.157 -0.1159  0.2402 -0.2717
    1SOL    HW2 9850   1.016   0.869   4.152 -0.4202 -0.1162 -1.3399
    1SOL    HW3 9851   0.865   0.863   4.144 -0.6393  0.3903  1.8965
    1SOL    MW4 9852   0.938   0.908   4.154 -0.2252  0.2128 -0.1268
    1SOL     OW 9853   0.892   1.179   4.065  0.5351  0.4087  0.4611
    1SOL    HW2 9854   0.904   1.089   4.095 -1.3466 -0.8913 -2.5276
    1SOL    HW3 9855   0.814   1.210   4.111 -0.8048 -0.6811 -1.0262
    1SOL    MW4 9856   0.884   1.171   4.075  0.1100  0.0935 -0.1297
    1SOL     OW 9857   1.116   1.286   4.194  0.0967  0.2539  0.2222
    1SOL    HW2 9858   1.095   1.268   4.285 -0.1674 -0.6350 -0.0152
    1SOL    HW3 9859   1.046   1.244   4.144  0.7165 -0.0039 -0.4311
    1SOL    MW4 9860   1.104   1.278   4.199  0.1435  0.1025  0.1049
    1SOL     OW 9861   1.124   1.550   4.087  0.2831 -0.5040  0.0988
    1SOL    HW2 9862   1.034   1.563   4.118  0.2865  0.6079 -0.3273
    1SOL    HW3 9863   1.146   1.461   4.114 -1.5476 -1.4076 -1.2511
    1SOL    MW4 9864   1.115   1.540   4.095  0.0421 -0.4767 -0.1354
    1SOL     OW 9865   0.880   1.615   4.209 -0.0086 -0.4074 -0.0801
    1SOL    HW2 9866   0.878   1.592   4.301  3.5640 -0.1084  0.1435
    1SOL    HW3 9867   0.878   1.711   4.208 -1.6104 -0.4297 -0.4122
    1SOL    MW4 9868   0.879   1.625   4.221  0.2515 -0.3709 -0.0944
    1SOL     OW 9869   0.946   1.885   4.172  0.0975 -0.4904  0.1490
    1SOL    HW2 9870   0.873   1.942   4.196  0.7708 -0.1367  1.3821
    1SOL    HW3 9871   0.933   1.869   4.078 -0.3136  1.3754 -0.1324
    1SOL    MW4 9872   0.934   1.890   4.163  0.1321 -0.1975  0.2751
    1SOL     OW 9873   1.134   2.070   4.317 -0.1900 -0.1117 -0.2899
    1SOL    HW2 9874   1.167   2.019   4.391 -0.7791  1.7098  1.2651
    1SOL    HW3 9875   1.069   2.012   4.276 -0.7660 -0.6853  1.3624
    1SOL    MW4 9876   1.129   2.055   4.321 -0.3437  0.0527  0.1326
    1SOL     OW 9877   1.118   2.310   4.209  0.3213  0.0789  0.5327
    1SOL    HW2 9878   1.210   2.331   4.228 -0.2498  2.3845  1.0227
    1SOL    HW3 9879   1.103   2.225   4.250  1.7954  0.4681  1.9342
    1SOL    MW4 9880   1.128   2.302   4.217  0.4404  0.4346  0.7825
    1SOL     OW 9881   0.910   2.480   4.258  0.1120 -0.4291  0.1082
    1SOL    HW2 9882   0.989   2.427   4.250 -1.0205 -2.2193  0.6869
    1SOL    HW3 9883   0.838   2.421   4.233 -1.3017  0.4013  2.0569
    1SOL    MW4 9884   0.911   2.465   4.253 -0.2240 -0.5558  0.4416
    1SOL     OW 9885   0.933   2.726   4.134 -0.0224 -0.1550 -0.8185
    1SOL    HW2 9886   0.927   2.636   4.166  0.5417 -0.2986 -1.1133
    1SOL    HW3 9887   0.853   2.768   4.166  0.0183 -0.5866 -0.1405
    1SOL    MW4 9888   0.922   2.719   4.143  0.0574 -0.2306 -0.7677
    1SOL     OW 9889   1.107   2.800   4.334 -0.3621 -0.5329 -0.2015
    1SOL    HW2 9890   1.092   2.895   4.338  0.7191 -0.2543 -2.1921
    1SOL    HW3 9891   1.060   2.772   4.255  1.2027 -1.2616 -0.8954
    1SOL    MW4 9892   1.098   2.809   4.324 -0.0129 -0.5925 -0.5555
    1SOL     OW 9893   1.142   3.098   4.253 -0.0338 -0.2553 -0.1363
    1SOL    HW2 9894   1.224   3.121   4.297 -0.2897  0.2768  0.0745
    1SOL    HW3 9895   1.159   3.116   4.161  0.5494 -1.5077 -0.2845
    1SOL    MW4 9896   1.155   3.104   4.247  0.0093 -0.3502 -0.1283
    1SOL     OW 9897   0.898   3.194   4.329 -0.3302  0.0949  0.2132
    1SOL    HW2 9898   0.870   3.152   4.411 -1.2675 -0.0380 -0.1703
    1SOL    HW3 9899   0.989   3.166   4.318 -1.0498 -2.1641 -0.2237
    1SOL    MW4 9900   0.907   3.185   4.338 -0.5489 -0.2208  0.1059
    1SOL     OW 9901   0.959   3.462   4.252 -0.1343  0.3328  0.2489
    1SOL    HW2 9902   0.944   3.371   4.279 -0.4057  0.1614 -0.4865
    1SOL    HW3 9903   0.971   3.458   4.157  0.5500  0.9787  0.2993
    1SOL    MW4 9904   0.959   3.450   4.243 -0.0798  0.3953  0.1583
    1SOL     OW 9905   1.185   3.630   4.352  0.2184 -0.1960 -0.4606
    1SOL    HW2 9906   1.182   3.706   4.293  1.0973  0.8178  0.7450
    1SOL    HW3 9907   1.101   3.587   4.342  0.6349 -0.4735 -3.0069
    1SOL    MW4 9908   1.174   3.635   4.343  0.3893 -0.0987 -0.6366
    1SOL     OW 9909   1.216   3.849   4.169  0.8027 -0.1951 -0.1193
    1SOL    HW2 9910   1.288   3.901   4.206  0.2596  0.3183  0.2323
    1SOL    HW3 9911   1.137   3.898   4.193  0.3985 -0.1596 -1.4443
    1SOL    MW4 9912   1.215   3.863   4.177  0.6777 -0.1225 -0.2470
    1SOL     OW 9913   0.988   3.978   4.274 -0.3280 -0.0411 -0.0099
    1SOL    HW2 9914   0.981   4.054   4.216 -2.2375  1.1450  1.7259
    1SOL    HW3 9915   0.906   3.930   4.261 -0.2558 -0.3996  0.8404
    1SOL    MW4 9916   0.976   3.981   4.265 -0.5704  0.0684  0.3314
    1SOL     OW 9917   0.960   4.217   4.129 -0.1428  0.4180  0.3750
    1SOL    HW2 9918   1.021   4.271   4.177  0.2181  0.5154 -0.1889
    1SOL    HW3 9919   0.874   4.243   4.161  0.0760  0.7447  0.6925
    1SOL    MW4 9920   0.956   4.227   4.140 -0.0662  0.4735  0.3424
    1SOL     OW 9921   1.149   4.390   4.253  0.0913 -0.1694  0.2220
    1SOL    HW2 9922   1.152   4.395   4.348 -0.6504 -0.1616  0.2435
    1SOL    HW3 9923   1.232   4.349   4.229  0.6954  0.6612  0.8125
    1SOL    MW4 9924   1.161   4.386   4.262  0.0732 -0.0587  0.3028
    1SOL     OW 9925   1.638   4.644   4.141 -0.5494  0.2480 -0.2104
    1SOL    HW2 9926   1.704   4.688   4.195 -1.7161  0.9364  0.6697
    1SOL    HW3 9927   1.556   4.689   4.161 -0.9926  0.5586 -2.6472
    1SOL    MW4 9928   1.636   4.656   4.151 -0.7619  0.3800 -0.4163
    1SOL     OW 9929   1.413   0.095   4.229 -0.1942  0.2375 -0.3278
    1SOL    HW2 9930   1.417   0.095   4.325 -0.0270 -1.3687 -0.3244
    1SOL    HW3 9931   1.325   0.064   4.208 -0.7181  1.9229 -0.6978
    1SOL    MW4 9932   1.402   0.091   4.239 -0.2414  0.2480 -0.3762
    1SOL     OW 9933   1.387   0.354   4.126  0.6587  0.5200  0.2766
    1SOL    HW2 9934   1.457   0.402   4.169  0.7866  0.3190  0.2931
    1SOL    HW3 9935   1.387   0.268   4.168  0.2429  0.6004  0.4491
    1SOL    MW4 9936   1.396   0.349   4.137  0.6206  0.5041  0.3014
    1SOL     OW 9937   1.590   0.495   4.253 -0.4730 -0.0832 -0.0221
    1SOL    HW2 9938   1.598   0.513   4.347 -2.5212  1.2178 -0.0761
    1SOL    HW3 9939   1.598   0.581   4.212 -1.2506 -0.4412 -0.9303
    1SOL    MW4 9940   1.592   0.509   4.260 -0.8459  0.0412 -0.1488
    1SOL     OW 9941   1.540   0.764   4.186 -0.2201 -0.1798 -0.3717
    1SOL    HW2 9942   1.615   0.814   4.218 -0.5341 -0.6713  1.2042
    1SOL    HW3 9943   1.539   0.779   4.091  0.8659  1.1766 -0.1870
    1SOL    MW4 9944   1.549   0.773   4.178 -0.1181 -0.0657 -0.1392
    1SOL     OW 9945   1.332   0.911   4.314  0.5521 -0.1796 -0.1632
    1SOL    HW2 9946   1.361   1.000   4.292  0.6620  0.1018  1.1034
    1SOL    HW3 9947   1.397   0.854   4.272  1.5756  0.3890  0.6279
    1SOL    MW4 9948   1.345   0.915   4.306  0.7017 -0.0675  0.1087
    1SOL     OW 9949   1.351   1.158   4.154 -0.2716  0.1190  0.1990
    1SOL    HW2 9950   1.262   1.194   4.156 -0.5626 -0.6053  0.6498
    1SOL    HW3 9951   1.373   1.155   4.061 -2.0472 -2.8629 -0.1782
    1SOL    MW4 9952   1.342   1.162   4.142 -0.5443 -0.3700  0.2089
    1SOL     OW 9953   1.540   1.341   4.262  0.1110 -0.0938 -0.1435
    1SOL    HW2 9954   1.527   1.345   4.357  0.7966 -0.4210 -0.0356
    1SOL    HW3 9955   1.468   1.287   4.231  0.1481 -0.3724  0.2463
    1SOL    MW4 9956   1.529   1.334   4.271  0.2065 -0.1738 -0.0772
    1SOL     OW 9957   1.564   1.599   4.170 -0.4170 -0.2936 -0.0962
    1SOL    HW2 9958   1.489   1.642   4.211  0.1242 -0.7113  1.3657
    1SOL    HW3 9959   1.561   1.508   4.202  1.1139 -0.1362  0.5795
    1SOL    MW4 9960   1.554   1.592   4.179 -0.1436 -0.3279  0.1860
    1SOL     OW 9961   1.304   1.668   4.259 -0.3174 -0.1328 -0.8531
    1SOL    HW2 9962   1.288   1.761   4.244  0.3607  0.0420 -0.5055
    1SOL    HW3 9963   1.243   1.623   4.200 -1.1495  0.5260 -0.5030
    1SOL    MW4 9964   1.293   1.674   4.249 -0.3377 -0.0226 -0.7610
    1SOL     OW 9965   1.342   1.960   4.190  0.1418  0.0845 -0.5411
    1SOL    HW2 9966   1.428   1.993   4.217  0.1535 -1.1535  1.0700
    1SOL    HW3 9967   1.279   2.008   4.245 -0.1918  0.9239 -1.6515
    1SOL    MW4 9968   1.345   1.971   4.201  0.0992  0.0318 -0.4749
    1SOL     OW 9969   1.581   2.076   4.249  0.0978 -0.3759 -0.2378
    1SOL    HW2 9970   1.647   2.019   4.210 -0.2907 -1.6337  0.9177
    1SOL    HW3 9971   1.587   2.158   4.199  2.2625 -0.6122 -0.3892
    1SOL    MW4 9972   1.591   2.080   4.237  0.3322 -0.5732 -0.1054
    1SOL     OW 9973   1.606   2.339   4.149 -0.0415  0.0091 -0.0860
    1SOL    HW2 9974   1.701   2.347   4.154  0.0056  0.2361 -1.2271
    1SOL    HW3 9975   1.585   2.359   4.058 -1.3991  2.1502  0.6846
    1SOL    MW4 9976   1.616   2.342   4.138 -0.2143  0.3216 -0.1345
    1SOL     OW 9977   1.371   2.409   4.262  0.2209 -0.2665 -0.0906
    1SOL    HW2 9978   1.359   2.495   4.220 -1.1586 -0.4857 -0.1707
    1SOL    HW3 9979   1.462   2.387   4.244  0.0166  0.2415 -1.8784
    1SOL    MW4 9980   1.381   2.418   4.254  0.0120 -0.2282 -0.3371
    1SOL     OW 9981   1.339   2.695   4.179  0.3561 -0.2902 -0.3346
    1SOL    HW2 9982   1.415   2.741   4.216  1.2606 -0.1759 -2.2820
    1SOL    HW3 9983   1.265   2.725   4.233  1.5386  0.3117  1.0039
    1SOL    MW4 9984   1.339   2.705   4.191  0.6315 -0.1955 -0.4148
    1SOL     OW 9985   1.561   2.807   4.287  0.5748  0.0897  0.0766
    1SOL    HW2 9986   1.605   2.779   4.367 -0.1792 -0.7791  0.2025
    1SOL    HW3 9987   1.587   2.898   4.276  1.2941 -0.0057  0.8962
    1SOL    MW4 9988   1.570   2.815   4.296  0.5702 -0.0377  0.2017
    1SOL     OW 9989   1.597   3.077   4.233  0.2324 -0.1257 -0.2552
    1SOL    HW2 9990   1.675   3.128   4.256 -0.5805  0.7627  0.5727
    1SOL    HW3 9991   1.524   3.136   4.251 -0.7057 -1.4570  0.3497
    1SOL    MW4 9992   1.598   3.091   4.238  0.0013 -0.1843 -0.0663
    1SOL     OW 9993   1.385   3.221   4.329  0.0956 -0.3238  0.3746
    1SOL    HW2 9994   1.432   3.232   4.412 -0.2488  0.8361  0.4147
    1SOL    HW3 9995   1.379   3.309   4.293 -2.0757 -0.4618  0.3712
    1SOL    MW4 9996   1.390   3.234   4.335 -0.2364 -0.1891  0.3791
    1SOL     OW 9997   1.328   3.454   4.200 -0.3481 -0.4709 -0.2806
    1SOL    HW2 9998   1.277   3.516   4.252  1.7457 -0.1468  1.4878
    1SOL    HW3 9999   1.333   3.493   4.113 -1.0995  0.6389  0.1672
    1SOL    MW410000   1.322   3.467   4.195 -0.1707 -0.2816  0.0119
    1SOL     OW10001   1.571   3.582   4.260  0.5638  0.1000 -0.4387
    1SOL    HW210002   1.561   3.578   4.355  0.7999  0.7531 -0.3828
    1SOL    HW310003   1.498   3.531   4.225 -0.2788  0.9495  0.0675
    1SOL    MW410004   1.560   3.575   4.268  0.4839  0.2987 -0.3643
    1SOL     OW10005   1.609   3.855   4.156  0.0036  0.2550 -0.2886
    1SOL    HW210006   1.550   3.911   4.206 -0.0483 -0.7707  0.8111
    1SOL    HW310007   1.599   3.768   4.196  0.4116 -0.4471 -1.6880
    1SOL    MW410008   1.600   3.851   4.168  0.0505  0.0269 -0.3285
    1SOL     OW10009   1.422   4.031   4.294  0.1882  0.8567  0.5297
    1SOL    HW210010   1.409   4.038   4.389 -0.1505 -0.6502  0.6047
    1SOL    HW310011   1.411   4.121   4.262  0.7678  1.4531  1.9703
    1SOL    MW410012   1.419   4.044   4.303  0.2198  0.7362  0.7300
    1SOL     OW10013   1.381   4.273   4.182  0.0147 -0.7977  0.2997
    1SOL    HW210014   1.460   4.312   4.218 -1.3850  0.4038  2.1557
    1SOL    HW310015   1.393   4.278   4.087  2.0459 -0.4212  0.5623
    1SOL    MW410016   1.393   4.279   4.174  0.0980 -0.5898  0.5794
    1SOL     OW10017   1.621   4.390   4.256  0.3607 -0.2093  0.3199
    1SOL    HW210018   1.624   4.477   4.215 -0.7215 -0.2438  0.1702
    1SOL    HW310019   1.694   4.342   4.215  0.4305  0.3507 -0.2157
    1SOL    MW410020   1.631   4.395   4.245  0.2271 -0.1402  0.2294
    1SOL     OW10021   2.046   4.629   4.163 -0.1083 -0.2462  0.2980
    1SOL    HW210022   1.966   4.657   4.207 -0.0540 -0.6610  0.6633
    1SOL    HW310023   2.026   4.636   4.070 -0.6008 -0.4502  0.3901
    1SOL    MW410024   2.033   4.634   4.157 -0.1664 -0.3281  0.3586
    1SOL     OW10025   1.830   0.117   4.279  0.7624  0.7681  0.0541
    1SOL    HW210026   1.796   0.123   4.368  0.4810  1.0855 -0.0768
    1SOL    HW310027   1.817   0.204   4.242  1.4391  0.8040 -0.0978
    1SOL    MW410028   1.824   0.129   4.286  0.8146  0.8147  0.0172
    1SOL     OW10029   1.826   0.370   4.164  0.0740  0.0105 -0.2289
    1SOL    HW210030   1.898   0.422   4.201 -0.3007  0.8850 -0.7048
    1SOL    HW310031   1.748   0.402   4.209  0.1775 -2.1976  1.6049
    1SOL    MW410032   1.825   0.381   4.175  0.0381 -0.1655 -0.0501
    1SOL     OW10033   2.043   0.516   4.266 -0.3881 -0.5016  0.3341
    1SOL    HW210034   2.029   0.518   4.361 -0.2384  0.1321  0.3430
    1SOL    HW310035   2.130   0.478   4.256 -1.0721 -2.1578  0.3735
    1SOL    MW410036   2.052   0.511   4.277 -0.4582 -0.6365  0.3400
    1SOL     OW10037   2.021   0.764   4.159 -0.1789  0.0098 -0.1245
    1SOL    HW210038   2.100   0.806   4.191  0.3157 -0.6658 -0.4517
    1SOL    HW310039   2.028   0.673   4.188  0.8329 -0.9113 -3.0791
    1SOL    MW410040   2.032   0.758   4.167  0.0198 -0.2009 -0.5574
    1SOL     OW10041   1.764   0.902   4.254  0.4393  0.2990 -0.1473
    1SOL    HW210042   1.763   0.989   4.215  3.4063  1.1790  1.5683
    1SOL    HW310043   1.837   0.857   4.211  1.1508 -0.1132  1.4348
    1SOL    MW410044   1.774   0.907   4.243  0.9246  0.3607  0.2875
    1SOL     OW10045   1.762   1.178   4.166 -0.3696  0.3963  0.2350
    1SOL    HW210046   1.832   1.228   4.206 -0.6385  0.7523  0.2642
    1SOL    HW310047   1.682   1.223   4.193 -0.5974  0.1092  0.0437
    1SOL    MW410048   1.760   1.190   4.175 -0.4351  0.4053  0.2136
    1SOL     OW10049   1.977   1.290   4.281  0.0187 -0.3095  0.3233
    1SOL    HW210050   2.052   1.239   4.251 -0.6368 -1.0832 -0.0157
    1SOL    HW310051   1.988   1.375   4.239 -0.5019 -1.1439 -1.5585
    1SOL    MW410052   1.989   1.295   4.272 -0.1365 -0.5215  0.0300
    1SOL     OW10053   2.029   1.541   4.169  0.3637 -0.1159 -0.0757
    1SOL    HW210054   2.105   1.594   4.194 -1.4694  2.3306  0.4892
    1SOL    HW310055   2.030   1.540   4.074 -0.1157  1.7446 -0.1086
    1SOL    MW410056   2.039   1.548   4.160  0.0589  0.4523 -0.0057
    1SOL     OW10057   1.796   1.684   4.289 -0.1188 -0.3469 -0.0956
    1SOL    HW210058   1.872   1.625   4.285 -0.5236 -0.7312 -2.4232
    1SOL    HW310059   1.731   1.645   4.231 -1.2073  1.2607 -0.0024
    1SOL    MW410060   1.798   1.671   4.281 -0.3158 -0.1855 -0.3910
    1SOL     OW10061   1.792   1.929   4.146 -0.5748 -0.1652  0.0200
    1SOL    HW210062   1.812   1.850   4.196  1.1385  0.0472 -0.3054
    1SOL    HW310063   1.876   1.972   4.135 -1.2559  0.8656 -1.2371
    1SOL    MW410064   1.806   1.924   4.151 -0.4387 -0.0012 -0.1888
    1SOL     OW10065   2.030   2.078   4.109 -0.1816 -0.5590  0.5268
    1SOL    HW210066   2.050   2.094   4.201 -0.9192 -0.6052  0.6983
    1SOL    HW310067   2.113   2.048   4.071  0.3650  0.3786  0.9599
    1SOL    MW410068   2.044   2.076   4.116 -0.2067 -0.4413  0.6065
    1SOL     OW10069   1.880   2.309   4.116 -0.1493  0.1654 -0.0571
    1SOL    HW210070   1.937   2.233   4.129 -0.0207  0.1548 -0.6863
    1SOL    HW310071   1.920   2.378   4.169 -0.2983 -0.2187  0.5599
    1SOL    MW410072   1.893   2.308   4.125 -0.1520  0.1137 -0.0582
    1SOL     OW10073   1.908   2.520   4.305 -0.4274 -0.2564  0.2135
    1SOL    HW210074   1.874   2.468   4.378  0.8313  0.3613  1.2635
    1SOL    HW310075   1.967   2.583   4.346 -1.6122  1.7536 -1.0956
    1SOL    MW410076   1.911   2.521   4.320 -0.4177  0.0904  0.1793
    1SOL     OW10077   1.771   2.708   4.149  0.7380 -0.3441  0.3335
    1SOL    HW210078   1.810   2.640   4.204 -0.4400 -1.2413  0.1009
    1SOL    HW310079   1.696   2.740   4.200 -1.1418 -2.0784 -1.2223
    1SOL    MW410080   1.766   2.703   4.163  0.3345 -0.6912  0.0978
    1SOL     OW10081   1.970   2.880   4.215  0.2598  0.0907  0.0828
    1SOL    HW210082   1.983   2.846   4.303  0.1717 -2.0515 -0.6719
    1SOL    HW310083   1.899   2.827   4.179  2.2594 -1.1548 -2.2635
    1SOL    MW410084   1.963   2.868   4.222  0.5120 -0.3562 -0.3262
    1SOL     OW10085   2.044   3.129   4.176  0.4628 -0.0227 -0.0512
    1SOL    HW210086   2.022   3.037   4.189  0.0582  0.0148 -0.4458
    1SOL    HW310087   2.031   3.143   4.082 -1.5941  0.9934  0.3586
    1SOL    MW410088   2.039   3.119   4.165  0.1380  0.1163 -0.0496
    1SOL     OW10089   1.824   3.228   4.285  0.2035  0.0771 -0.2031
    1SOL    HW210090   1.817   3.316   4.247  0.7165  0.2158  0.0211
    1SOL    HW310091   1.908   3.194   4.252 -0.9366 -1.1359 -1.9576
    1SOL    MW410092   1.834   3.235   4.275  0.1208 -0.0646 -0.4048
    1SOL     OW10093   1.810   3.469   4.141  0.0236 -0.3749 -0.0219
    1SOL    HW210094   1.732   3.520   4.162  0.4183 -0.1678  1.0017
    1SOL    HW310095   1.812   3.465   4.046 -0.0128  1.5424 -0.1230
    1SOL    MW410096   1.800   3.476   4.131  0.0708 -0.0947  0.1001
    1SOL     OW10097   2.011   3.583   4.288 -0.7355  0.3679  0.0432
    1SOL    HW210098   2.043   3.667   4.254  0.1041  0.3185  0.7270
    1SOL    HW310099   1.942   3.558   4.226 -1.0100  1.5710 -0.1584
    1SOL    MW410100   2.006   3.591   4.275 -0.6609  0.5202  0.1073
    1SOL     OW10101   2.075   3.835   4.157 -0.4221 -0.2688  0.2226
    1SOL    HW210102   1.991   3.868   4.187 -0.3091  0.2873 -0.0629
    1SOL    HW310103   2.079   3.859   4.064 -0.4469 -1.3202 -0.0579
    1SOL    MW410104   2.065   3.843   4.149 -0.4103 -0.3338  0.1483
    1SOL     OW10105   1.845   4.002   4.246  0.1072 -0.8336 -0.2535
    1SOL    HW210106   1.852   4.090   4.208 -0.3935 -0.6069  0.1717
    1SOL    HW310107   1.756   3.974   4.224 -0.9610  0.1592  2.5663
    1SOL    MW410108   1.834   4.010   4.238 -0.0998 -0.6723  0.1745
    1SOL     OW10109   1.847   4.265   4.134  0.4476  0.3911  0.0558
    1SOL    HW210110   1.929   4.301   4.168 -0.1406  1.9721 -0.1259
    1SOL    HW310111   1.858   4.267   4.039  0.5020 -0.1360  0.0517
    1SOL    MW410112   1.859   4.270   4.126  0.3772  0.5298  0.0310
    1SOL     OW10113   2.088   4.360   4.217 -0.2728 -0.0549  0.1983
    1SOL    HW210114   2.083   4.356   4.313 -1.7325 -0.6669  0.1108
    1SOL    HW310115   2.073   4.452   4.197  0.9220  0.2335  0.5989
    1SOL    MW410116   2.085   4.372   4.227 -0.3076 -0.0973  0.2394
    1SOL     OW10117   2.470   4.651   4.139 -0.6869  0.3209  0.1170
    1SOL    HW210118   2.547   4.699   4.168 -0.5814 -0.0765  0.5120
    1SOL    HW310119   2.488   4.560   4.163 -0.6047 -0.0150 -1.2148
    1SOL    MW410120   2.482   4.645   4.146 -0.6621  0.2241 -0.0067
    1SOL     OW10121   2.254   0.091   4.269 -0.4352  0.1642  0.3312
    1SOL    HW210122   2.328   0.048   4.226 -1.2196 -0.5184 -0.3634
    1SOL    HW310123   2.179   0.037   4.246 -1.5311  2.1930 -0.9947
    1SOL    MW410124   2.254   0.078   4.260 -0.6831  0.3418  0.0648
    1SOL     OW10125   2.271   0.377   4.170 -0.2646 -0.1010  0.0103
    1SOL    HW210126   2.249   0.287   4.196 -1.2505  0.0308 -0.3376
    1SOL    HW310127   2.272   0.374   4.074 -1.4839  0.5218 -0.0333
    1SOL    MW410128   2.268   0.365   4.161 -0.5555 -0.0014 -0.0420
    1SOL     OW10129   2.472   0.538   4.267  0.1049 -0.1060  0.0689
    1SOL    HW210130   2.475   0.543   4.362  0.4317 -0.4249  0.0732
    1SOL    HW310131   2.404   0.474   4.248  1.3727 -1.4953  0.1176
    1SOL    MW410132   2.463   0.531   4.277  0.3152 -0.3315  0.0758
    1SOL     OW10133   2.517   0.799   4.164 -0.5300  0.0083  0.1072
    1SOL    HW210134   2.506   0.712   4.202 -0.2211 -0.4307 -0.7935
    1SOL    HW310135   2.501   0.786   4.071  2.0292  0.4305 -0.4318
    1SOL    MW410136   2.513   0.786   4.157 -0.1516  0.0061 -0.0825
    1SOL     OW10137   2.251   0.901   4.238  0.2943  0.0136  0.7227
    1SOL    HW210138   2.244   0.904   4.334  0.2592 -0.5671  0.7386
    1SOL    HW310139   2.339   0.867   4.222 -0.7653 -2.7465  0.5696
    1SOL    MW410140   2.262   0.897   4.249  0.1497 -0.4272  0.7043
    1SOL     OW10141   2.201   1.173   4.159 -0.4155 -0.1524 -0.2605
    1SOL    HW210142   2.253   1.238   4.206 -2.7153  0.6673  1.2110
    1SOL    HW310143   2.216   1.091   4.205  0.8286 -0.2637 -0.8396
    1SOL    MW410144   2.210   1.171   4.171 -0.5548 -0.0589 -0.1426
    1SOL     OW10145   2.394   1.354   4.253 -0.0074 -0.1440  0.1463
    1SOL    HW210146   2.399   1.369   4.348 -0.7415  0.0733  0.1580
    1SOL    HW310147   2.461   1.288   4.236  0.8091  0.5308  0.6640
    1SOL    MW410148   2.403   1.348   4.264  0.0033 -0.0265  0.2165
    1SOL     OW10149   2.462   1.601   4.127  0.3614  0.5892  0.1628
    1SOL    HW210150   2.425   1.519   4.159  0.6561  0.7969  1.0428
    1SOL    HW310151   2.467   1.590   4.032  0.1206 -0.2923  0.2520
    1SOL    MW410152   2.458   1.589   4.119  0.3688  0.5003  0.2904
    1SOL     OW10153   2.231   1.733   4.210  0.0307 -0.9402  0.4390
    1SOL    HW210154   2.247   1.773   4.295  0.0634 -1.2787  0.5928
    1SOL    HW310155   2.312   1.686   4.189 -0.1153 -1.1813  0.4026
    1SOL    MW410156   2.243   1.732   4.218  0.0157 -1.0167  0.4549
    1SOL     OW10157   2.280   1.957   4.063  0.0418 -0.6177  0.0283
    1SOL    HW210158   2.345   1.997   4.122 -0.5385  0.8750 -0.3143
    1SOL    HW310159   2.253   1.877   4.108  0.6401 -0.2185  1.1279
    1SOL    MW410160   2.285   1.952   4.077  0.0441 -0.3680  0.1283
    1SOL     OW10161   2.456   2.061   4.249 -0.5127  0.2412 -0.4176
    1SOL    HW210162   2.447   2.031   4.340  0.5539 -0.3480 -0.4952
    1SOL    HW310163   2.539   2.022   4.219 -1.0244  0.1587 -1.7546
    1SOL    MW410164   2.466   2.052   4.257 -0.4394  0.1526 -0.6042
    1SOL     OW10165   2.458   2.325   4.176  0.1099 -0.0825  0.1211
    1SOL    HW210166   2.439   2.238   4.209 -1.9395  0.2816 -0.0354
    1SOL    HW310167   2.456   2.316   4.081 -1.6201  0.4331  0.0972
    1SOL    MW410168   2.455   2.312   4.168 -0.3884  0.0334  0.0978
    1SOL     OW10169   2.167   2.364   4.244  0.0219 -0.2231 -0.5584
    1SOL    HW210170   2.255   2.358   4.206 -0.0555  0.1873 -0.8157
    1SOL    HW310171   2.157   2.458   4.263 -0.3350 -0.2809 -0.4743
    1SOL    MW410172   2.177   2.376   4.242 -0.0353 -0.1764 -0.5817
    1SOL     OW10173   2.177   2.714   4.165 -0.4713 -0.1533 -0.4541
    1SOL    HW210174   2.183   2.681   4.254 -2.2819 -2.9626 -1.2989
    1SOL    HW310175   2.106   2.779   4.169 -0.2098  0.0909  0.2534
    1SOL    MW410176   2.168   2.719   4.177 -0.6757 -0.4919 -0.4725
    1SOL     OW10177   2.450   2.833   4.200 -0.0376 -0.1902 -0.3472
    1SOL    HW210178   2.446   2.850   4.294 -1.1535 -1.1559 -0.2129
    1SOL    HW310179   2.363   2.803   4.177  0.5062 -0.9149 -1.5098
    1SOL    MW410180   2.438   2.832   4.210 -0.1130 -0.4132 -0.4830
    1SOL     OW10181   2.524   3.093   4.131  0.0835 -0.2298 -0.0178
    1SOL    HW210182   2.441   3.132   4.162 -0.8804  0.2407 -3.0639
    1SOL    HW310183   2.511   2.999   4.141 -0.6747 -0.1442 -0.1349
    1SOL    MW410184   2.511   3.086   4.137 -0.1435 -0.1564 -0.4354
    1SOL     OW10185   2.304   3.229   4.221 -0.3525 -0.3201 -0.0675
    1SOL    HW210186   2.279   3.320   4.207  0.0337  0.3026  2.9750
    1SOL    HW310187   2.222   3.180   4.215 -0.8361  0.4742  0.0657
    1SOL    MW410188   2.290   3.234   4.219 -0.3655 -0.1328  0.3514
    1SOL     OW10189   2.245   3.500   4.154  0.1627  0.0658  0.0590
    1SOL    HW210190   2.322   3.541   4.195  0.2353  0.4853 -0.4822
    1SOL    HW310191   2.176   3.507   4.219  0.5097 -0.0770  0.4506
    1SOL    MW410192   2.246   3.506   4.168  0.2179  0.1020  0.0391
    1SOL     OW10193   2.473   3.607   4.229  0.0290  0.1850  0.0106
    1SOL    HW210194   2.467   3.620   4.324 -2.0674 -0.1548 -0.0522
    1SOL    HW310195   2.492   3.694   4.194  1.3652  0.2088  0.7718
    1SOL    MW410196   2.475   3.620   4.237 -0.0713  0.1433  0.1020
    1SOL     OW10197   2.530   3.850   4.130 -0.6226  0.3645 -0.3345
    1SOL    HW210198   2.614   3.890   4.153 -0.6297 -0.1665  0.6371
    1SOL    HW310199   2.529   3.849   4.034 -0.0904  1.5753 -0.3622
    1SOL    MW410200   2.541   3.856   4.120 -0.5534  0.4539 -0.2098
    1SOL     OW10201   2.295   3.986   4.226 -0.1658 -0.2636 -0.0362
    1SOL    HW210202   2.370   3.932   4.201 -0.3490 -0.3948 -0.2986
    1SOL    HW310203   2.219   3.934   4.200 -0.3489 -0.1626  0.2986
    1SOL    MW410204   2.295   3.972   4.220 -0.2141 -0.2677 -0.0262
    1SOL     OW10205   2.302   4.239   4.106  0.3027  0.3493  0.3955
    1SOL    HW210206   2.306   4.152   4.144  0.3351  0.3207  0.3273
    1SOL    HW310207   2.225   4.279   4.146  0.0419  0.1365  0.1078
    1SOL    MW410208   2.292   4.233   4.116  0.2728  0.3171  0.3486
    1SOL     OW10209   2.522   4.383   4.197  0.3455 -0.1108  0.1753
    1SOL    HW210210   2.591   4.319   4.178  0.7997  1.0363 -2.0734
    1SOL    HW310211   2.442   4.340   4.167  0.4763 -0.1238 -0.1505
    1SOL    MW410212   2.520   4.369   4.191  0.4227  0.0396 -0.1645
    1SOL     OW10213   2.922   4.662   4.167 -0.2201  0.1322 -0.3925
    1SOL    HW210214   2.988   4.687   4.232  0.4598  0.9434 -1.3541
    1SOL    HW310215   2.927   4.567   4.162  0.7522  0.1747 -0.3084
    1SOL    MW410216   2.932   4.653   4.175 -0.0021  0.2451 -0.5078
    1SOL     OW10217   2.687   0.093   4.265 -0.1192  0.0941  0.3009
    1SOL    HW210218   2.704   0.183   4.237 -0.3508  0.2028  0.5111
    1SOL    HW310219   2.766   0.045   4.239  0.5219  0.5981  1.2743
    1SOL    MW410220   2.700   0.099   4.258 -0.0653  0.1749  0.4568
    1SOL     OW10221   2.688   0.355   4.189 -0.2697 -0.2601 -0.3044
    1SOL    HW210222   2.618   0.409   4.224 -0.1751 -1.1633  1.2949
    1SOL    HW310223   2.690   0.377   4.095 -1.8789  0.6475 -0.1461
    1SOL    MW410224   2.679   0.365   4.181 -0.4692 -0.2595 -0.0720
    1SOL     OW10225   2.899   0.486   4.306  0.5266 -0.4741 -0.7483
    1SOL    HW210226   2.893   0.578   4.281  0.4550 -0.3546 -0.2905
    1SOL    HW310227   2.822   0.445   4.269 -0.5374  0.0596  0.8242
    1SOL    MW410228   2.888   0.493   4.298  0.3767 -0.3879 -0.4802
    1SOL     OW10229   2.908   0.763   4.218  0.2159  0.0483 -0.1130
    1SOL    HW210230   2.986   0.810   4.248 -0.7920  0.6963  1.5361
    1SOL    HW310231   2.918   0.758   4.123  2.9118 -1.0181  0.1828
    1SOL    MW410232   2.920   0.769   4.209  0.4389 -0.0069  0.1435
    1SOL     OW10233   2.715   0.962   4.256  0.0816  0.2508 -0.2496
    1SOL    HW210234   2.788   0.900   4.246  0.3787  0.4552  0.6695
    1SOL    HW310235   2.643   0.922   4.206  0.1956 -0.9510  0.5322
    1SOL    MW410236   2.715   0.949   4.248  0.1359  0.1192 -0.0253
    1SOL     OW10237   2.614   1.192   4.162  0.3304  0.4107 -0.1133
    1SOL    HW210238   2.663   1.124   4.207 -0.8809 -0.4537 -0.0801
    1SOL    HW310239   2.640   1.183   4.070 -0.2155 -0.4410 -0.1907
    1SOL    MW410240   2.624   1.182   4.155  0.0985  0.1842 -0.1192
    1SOL     OW10241   2.854   1.297   4.269 -0.0475  0.0857 -0.0677
    1SOL    HW210242   2.922   1.243   4.229  1.4148  0.4025  1.8905
    1SOL    HW310243   2.776   1.279   4.218  1.2391 -1.1721 -1.6579
    1SOL    MW410244   2.853   1.288   4.257  0.3150 -0.0383 -0.0191
    1SOL     OW10245   2.949   1.543   4.124 -0.1625  0.6848  0.0223
    1SOL    HW210246   3.028   1.578   4.166  1.3175 -1.0471 -1.2267
    1SOL    HW310247   2.920   1.474   4.183 -0.9116  1.4676  0.5940
    1SOL    MW410248   2.956   1.539   4.137 -0.0660  0.5596 -0.0668
    1SOL     OW10249   2.713   1.648   4.238  0.6195  0.4195 -0.3087
    1SOL    HW210250   2.773   1.624   4.167  0.3791 -0.6621 -0.1657
    1SOL    HW310251   2.627   1.625   4.204  0.6247 -1.4548  0.8506
    1SOL    MW410252   2.710   1.642   4.224  0.5884  0.0294 -0.1369
    1SOL     OW10253   2.685   1.922   4.172 -0.2993  0.4013 -0.2675
    1SOL    HW210254   2.683   1.827   4.186 -0.4095  0.4976  0.3913
    1SOL    HW310255   2.688   1.932   4.077 -0.0192 -0.2678 -0.3345
    1SOL    MW410256   2.685   1.911   4.161 -0.2770  0.3257 -0.1898
    1SOL     OW10257   2.909   2.079   4.251 -0.3460 -0.2920  0.2755
    1SOL    HW210258   2.897   2.159   4.200  0.8029  0.1468  0.6615
    1SOL    HW310259   2.837   2.023   4.225 -0.6689  0.5321 -0.6603
    1SOL    MW410260   2.898   2.082   4.241 -0.2370 -0.1254  0.2031
    1SOL     OW10261   2.902   2.317   4.125  0.3718  0.5896  0.2192
    1SOL    HW210262   2.981   2.351   4.167 -0.4966  0.8911  1.6293
    1SOL    HW310263   2.830   2.355   4.175 -0.6999  1.2937 -1.8114
    1SOL    MW410264   2.903   2.327   4.137  0.1156  0.7222  0.1373
    1SOL     OW10265   2.700   2.446   4.255 -0.1118  0.1616  0.0794
    1SOL    HW210266   2.709   2.438   4.350 -2.7032 -0.5822  0.3164
    1SOL    HW310267   2.625   2.390   4.234 -1.1285  2.2419 -2.0784
    1SOL    MW410268   2.691   2.437   4.265 -0.5877  0.3381 -0.1740
    1SOL     OW10269   2.687   2.699   4.126 -0.2722 -0.4050  0.1469
    1SOL    HW210270   2.681   2.610   4.160 -1.1367  0.5938  2.6825
    1SOL    HW310271   2.601   2.737   4.141  0.8378  1.6828  1.4723
    1SOL    MW410272   2.675   2.692   4.132 -0.2398  0.0024  0.6566
    1SOL     OW10273   2.909   2.809   4.279 -0.4327 -0.2386  0.0911
    1SOL    HW210274   2.887   2.767   4.362 -0.3640  0.5135  0.4870
    1SOL    HW310275   2.838   2.783   4.220 -1.6570  1.0216  0.9737
    1SOL    MW410276   2.897   2.800   4.282 -0.5851  0.0272  0.2599
    1SOL     OW10277   2.967   3.077   4.338 -0.2454 -0.2666 -0.4342
    1SOL    HW210278   2.927   3.076   4.424  0.0713 -0.1260 -0.2840
    1SOL    HW310279   2.959   2.986   4.307 -0.2027 -0.3574 -0.1822
    1SOL    MW410280   2.961   3.065   4.345 -0.1976 -0.2601 -0.3810
    1SOL     OW10281   2.716   3.228   4.290 -0.3279  0.0862  0.1588
    1SOL    HW210282   2.795   3.174   4.287 -0.5188 -0.2164  0.4864
    1SOL    HW310283   2.653   3.183   4.234  0.6954  1.9238 -2.5795
    1SOL    MW410284   2.718   3.215   4.283 -0.2179  0.2890 -0.1593
    1SOL     OW10285   2.706   3.460   4.138  0.0623 -0.2345  0.6540
    1SOL    HW210286   2.701   3.386   4.198  0.0710 -0.5416  0.2750
    1SOL    HW310287   2.624   3.508   4.153 -0.7693 -1.3019 -0.3795
    1SOL    MW410288   2.694   3.457   4.148 -0.0465 -0.4158  0.4678
    1SOL     OW10289   2.913   3.583   4.310  0.0846 -0.2057 -0.5115
    1SOL    HW210290   2.870   3.589   4.395  0.4400  2.9697 -0.4708
    1SOL    HW310291   2.842   3.561   4.249 -0.3858 -1.3700  0.4416
    1SOL    MW410292   2.898   3.581   4.313  0.0696  0.0598 -0.3805
    1SOL     OW10293   2.942   3.848   4.181  0.0412 -0.4015  0.1369
    1SOL    HW210294   3.018   3.878   4.230  0.3430  0.1325 -0.6589
    1SOL    HW310295   2.924   3.760   4.215  0.5801 -0.2496  0.8134
    1SOL    MW410296   2.949   3.840   4.192  0.1521 -0.3109  0.1216
    1SOL     OW10297   2.711   3.990   4.267  0.2432  0.1302 -0.0616
    1SOL    HW210298   2.720   4.079   4.232 -1.5145  0.2047 -0.3394
    1SOL    HW310299   2.799   3.952   4.258  0.5328  1.1591 -1.7963
    1SOL    MW410300   2.724   3.997   4.261  0.0496  0.2759 -0.3266
    1SOL     OW10301   2.723   4.224   4.137  0.6644 -0.0324  0.3244
    1SOL    HW210302   2.800   4.276   4.161  0.2522  0.6298  0.2001
    1SOL    HW310303   2.725   4.222   4.041 -0.3131  1.2476  0.2711
    1SOL    MW410304   2.734   4.230   4.127  0.4809  0.2236  0.3009
    1SOL     OW10305   2.967   4.383   4.221 -0.5738  0.8115 -0.0957
    1SOL    HW210306   2.961   4.392   4.316 -1.1351 -0.3220 -0.0185
    1SOL    HW310307   3.047   4.332   4.207  0.0606  1.8474 -0.2908
    1SOL    MW410308   2.977   4.377   4.232 -0.5643  0.7982 -0.1116
    1SOL     OW10309   3.391   4.570   4.162 -0.3162  0.2744  0.5448
    1SOL    HW210310   3.459   4.624   4.202 -0.3899  1.9642 -1.5267
    1SOL    HW310311   3.419   4.480   4.179  0.4596  0.9200  2.9690
    1SOL    MW410312   3.404   4.565   4.169 -0.2234  0.5827  0.5918
    1SOL     OW10313   3.181   0.072   4.264 -0.3491  0.1367 -0.4288
    1SOL    HW210314   3.206   0.073   4.356 -0.9012 -0.3644 -0.2714
    1SOL    HW310315   3.239   0.006   4.224 -0.9977 -0.5890 -0.1824
    1SOL    MW410316   3.192   0.063   4.271 -0.5074 -0.0251 -0.3748
    1SOL     OW10317   3.140   0.369   4.206  0.2615  0.0968  0.7619
    1SOL    HW210318   3.138   0.276   4.227 -0.7222 -0.0115  0.2299
    1SOL    HW310319   3.064   0.405   4.252  0.0417  0.4507  0.1290
    1SOL    MW410320   3.130   0.362   4.215  0.1028  0.1292  0.6080
    1SOL     OW10321   3.358   0.543   4.241  0.4058  0.1354  0.7990
    1SOL    HW210322   3.442   0.500   4.224  0.5249  0.3472  0.8542
    1SOL    HW310323   3.293   0.479   4.214  0.5873  0.3272 -0.1223
    1SOL    MW410324   3.361   0.529   4.235  0.4454  0.1886  0.6847
    1SOL     OW10325   3.336   0.814   4.160  0.5862 -0.0163 -0.2588
    1SOL    HW210326   3.268   0.863   4.206  1.2643  1.1229 -0.4646
    1SOL    HW310327   3.322   0.723   4.187 -0.5657  0.3026  0.2610
    1SOL    MW410328   3.325   0.809   4.169  0.5236  0.1761 -0.2174
    1SOL     OW10329   3.121   0.924   4.298 -0.5334 -0.6507  0.6252
    1SOL    HW210330   3.100   0.926   4.391 -1.6123 -1.1068  0.4051
    1SOL    HW310331   3.118   1.015   4.270  0.2507 -0.4669  1.1326
    1SOL    MW410332   3.118   0.936   4.307 -0.5724 -0.6866  0.6633
    1SOL     OW10333   3.062   1.150   4.136 -0.2617 -0.0162 -0.5139
    1SOL    HW210334   3.139   1.199   4.166 -0.0584 -0.1465 -0.8228
    1SOL    HW310335   3.072   1.145   4.041  0.4192 -1.8395 -0.3700
    1SOL    MW410336   3.074   1.156   4.128 -0.1450 -0.2742 -0.5360
    1SOL     OW10337   3.324   1.248   4.225  0.1070 -0.0711 -0.0753
    1SOL    HW210338   3.303   1.252   4.318 -1.2371  1.7864 -0.4292
    1SOL    HW310339   3.358   1.335   4.204 -0.0115 -0.3291 -1.4029
    1SOL    MW410340   3.325   1.260   4.234 -0.0861  0.1398 -0.2975
    1SOL     OW10341   3.393   1.490   4.154 -0.1525 -0.6360 -0.3115
    1SOL    HW210342   3.334   1.550   4.198  0.9556 -0.1052  0.4830
    1SOL    HW310343   3.386   1.512   4.061 -0.0558  0.4480 -0.0637
    1SOL    MW410344   3.384   1.501   4.147  0.0062 -0.4230 -0.1740
    1SOL     OW10345   3.177   1.668   4.252  0.2022 -0.2001 -0.0831
    1SOL    HW210346   3.147   1.653   4.342  0.7869  0.3398  0.2075
    1SOL    HW310347   3.126   1.744   4.223  1.0130  0.4987  0.2891
    1SOL    MW410348   3.166   1.676   4.260  0.3860 -0.0367  0.0043
    1SOL     OW10349   3.092   1.890   4.137  0.3565  0.4624 -0.0289
    1SOL    HW210350   3.174   1.929   4.167  0.5273  0.9516 -1.0879
    1SOL    HW310351   3.024   1.939   4.183  0.6294  0.7638  0.0575
    1SOL    MW410352   3.094   1.902   4.147  0.4151  0.5668 -0.1574
    1SOL     OW10353   3.322   2.003   4.240 -0.2453 -0.1266  0.0320
    1SOL    HW210354   3.393   1.957   4.196  0.3844  0.2908  0.6043
    1SOL    HW310355   3.336   2.096   4.218 -1.4235 -0.1790 -1.0000
    1SOL    MW410356   3.333   2.010   4.231 -0.3176 -0.0784 -0.0281
    1SOL     OW10357   3.346   2.264   4.151 -0.0573 -0.5645  0.5321
    1SOL    HW210358   3.431   2.270   4.194  0.2643  1.7173 -0.3353
    1SOL    HW310359   3.360   2.300   4.064 -2.2929  1.6450  1.0272
    1SOL    MW410360   3.359   2.270   4.145 -0.3097  0.0281  0.4830
    1SOL     OW10361   3.110   2.404   4.278 -0.4666 -0.1531 -0.1505
    1SOL    HW210362   3.115   2.493   4.243 -0.6580 -0.4715 -0.9957
    1SOL    HW310363   3.181   2.358   4.236 -0.3306 -0.3912  0.3380
    1SOL    MW410364   3.120   2.410   4.268 -0.4737 -0.2267 -0.1974
    1SOL     OW10365   3.120   2.659   4.188 -0.0608 -0.3157 -0.1431
    1SOL    HW210366   3.196   2.717   4.191 -0.3691  0.1121 -0.7216
    1SOL    HW310367   3.048   2.710   4.224 -0.4901 -0.0928 -1.2893
    1SOL    MW410368   3.121   2.673   4.193 -0.1581 -0.2301 -0.3705
    1SOL     OW10369   3.378   2.787   4.186 -0.1385 -0.7097  0.3194
    1SOL    HW210370   3.458   2.738   4.167 -0.1052 -0.1515 -0.9828
    1SOL    HW310371   3.405   2.878   4.190 -0.4024 -0.6819  1.6442
    1SOL    MW410372   3.392   2.792   4.184 -0.1688 -0.6323  0.3223
    1SOL     OW10373   3.414   3.064   4.210 -0.2096 -0.2862  0.0823
    1SOL    HW210374   3.355   3.114   4.268  0.2583 -2.0247  2.1127
    1SOL    HW310375   3.373   3.069   4.124 -2.2102  0.3375  1.0434
    1SOL    MW410376   3.401   3.072   4.206 -0.4120 -0.4332  0.4773
    1SOL     OW10377   3.216   3.211   4.345  0.1474 -0.2199 -0.5533
    1SOL    HW210378   3.206   3.293   4.296  1.3765 -1.0068 -2.1643
    1SOL    HW310379   3.128   3.173   4.347  0.0248 -0.0175 -1.8842
    1SOL    MW410380   3.203   3.217   4.339  0.2933 -0.2971 -0.9413
    1SOL     OW10381   3.159   3.471   4.206 -0.7643  0.6003 -0.0764
    1SOL    HW210382   3.084   3.515   4.246  0.7151  3.0078  0.1392
    1SOL    HW310383   3.143   3.476   4.112 -1.9505 -0.9045  0.0261
    1SOL    MW410384   3.147   3.478   4.199 -0.7257  0.7193 -0.0339
    1SOL     OW10385   3.416   3.562   4.256 -0.3928  0.3728 -0.3134
    1SOL    HW210386   3.434   3.536   4.346  0.1226  3.3562  0.4964
    1SOL    HW310387   3.331   3.524   4.236 -1.1997  0.9098  1.9646
    1SOL    MW410388   3.407   3.554   4.265 -0.4311  0.8373  0.0939
    1SOL     OW10389   3.384   3.840   4.150  0.1511 -0.0339 -0.2546
    1SOL    HW210390   3.402   3.754   4.189  1.1908 -0.2571 -1.2224
    1SOL    HW310391   3.389   3.826   4.056 -1.1637  0.7758 -0.4602
    1SOL    MW410392   3.387   3.827   4.143  0.1147  0.0439 -0.4091
    1SOL     OW10393   3.162   4.011   4.303  0.4670  0.3469  0.0208
    1SOL    HW210394   3.154   4.007   4.399 -0.8443  1.7103 -0.0324
    1SOL    HW310395   3.249   3.973   4.286 -0.1517 -1.9099  1.5795
    1SOL    MW410396   3.173   4.005   4.314  0.2120  0.2284  0.2193
    1SOL     OW10397   3.181   4.235   4.146  0.4487  0.0124  0.1288
    1SOL    HW210398   3.270   4.257   4.172  0.8270 -0.8519 -0.4218
    1SOL    HW310399   3.159   4.158   4.198 -0.1327  0.4601  0.5630
    1SOL    MW410400   3.190   4.228   4.157  0.4218 -0.0424  0.1140
    1SOL     OW10401   3.432   4.309   4.218 -0.3485 -0.3671  0.5418
    1SOL    HW210402   3.463   4.306   4.309  0.8128  2.9484  0.3154
    1SOL    HW310403   3.505   4.271   4.168 -0.8997 -1.9946  0.9379
    1SOL    MW410404   3.446   4.303   4.223 -0.2682 -0.1440  0.5636
    1SOL     OW10405   3.785   4.609   4.122  0.0359 -0.1189 -0.2069
    1SOL    HW210406   3.864   4.659   4.144  0.6925 -1.6997  1.2229
    1SOL    HW310407   3.778   4.615   4.027  1.7142  0.3247 -0.3147
    1SOL    MW410408   3.795   4.616   4.112  0.3440 -0.2689 -0.0329
    1SOL     OW10409   3.593   0.052   4.265  0.0202  0.4289  0.4467
    1SOL    HW210410   3.589   0.146   4.252 -1.7048  0.2143 -0.7700
    1SOL    HW310411   3.657   0.021   4.201 -0.9685  0.5606 -0.6363
    1SOL    MW410412   3.601   0.060   4.254 -0.3378  0.4180  0.1435
    1SOL     OW10413   3.576   0.351   4.199  0.1590 -0.0901  0.4918
    1SOL    HW210414   3.650   0.382   4.252 -0.2134 -0.4958  1.2630
    1SOL    HW310415   3.598   0.377   4.110  0.3984  1.3805  0.9584
    1SOL    MW410416   3.589   0.359   4.195  0.1414  0.0504  0.6552
    1SOL     OW10417   3.823   0.485   4.298  0.5743 -0.4041 -0.0173
    1SOL    HW210418   3.840   0.495   4.392 -1.2742  0.7310  0.2128
    1SOL    HW310419   3.800   0.573   4.268 -0.8373 -1.1210 -1.1153
    1SOL    MW410420   3.822   0.498   4.306  0.1442 -0.3490 -0.1311
    1SOL     OW10421   3.791   0.741   4.156 -0.2106 -0.0238  0.0989
    1SOL    HW210422   3.719   0.798   4.183  0.1875  0.2821  0.5219
    1SOL    HW310423   3.786   0.739   4.061 -1.1450 -0.4763  0.1556
    1SOL    MW410424   3.781   0.748   4.147 -0.2816 -0.0432  0.1621
    1SOL     OW10425   3.586   0.893   4.265  1.0366 -0.2551  0.6268
    1SOL    HW210426   3.588   0.984   4.236  2.8077 -0.1063  1.1752
    1SOL    HW310427   3.505   0.858   4.228 -0.2400  1.8487  1.4016
    1SOL    MW410428   3.576   0.900   4.256  1.1020  0.0421  0.8016
    1SOL     OW10429   3.575   1.153   4.169  0.0869 -0.0470  0.1226
    1SOL    HW210430   3.487   1.181   4.193 -0.0680 -0.6264  0.2479
    1SOL    HW310431   3.572   1.142   4.074  0.2918  0.8473  0.0111
    1SOL    MW410432   3.563   1.155   4.160  0.0932 -0.0055  0.1245
    1SOL     OW10433   3.838   1.245   4.266 -0.2525  0.4082 -0.1003
    1SOL    HW210434   3.759   1.194   4.252  0.6243 -1.0545  0.2277
    1SOL    HW310435   3.835   1.313   4.198 -1.6732  0.2498 -0.2104
    1SOL    MW410436   3.827   1.248   4.255 -0.3240  0.1942 -0.0715
    1SOL     OW10437   3.841   1.475   4.106 -0.1320 -0.0705  0.2490
    1SOL    HW210438   3.902   1.537   4.147  0.1930 -0.1232 -0.1487
    1SOL    HW310439   3.754   1.503   4.136  0.1528 -0.5314  1.5110
    1SOL    MW410440   3.837   1.487   4.115 -0.0515 -0.1384  0.3633
    1SOL     OW10441   3.623   1.619   4.209  0.1217 -0.0544  0.0070
    1SOL    HW210442   3.546   1.562   4.205  0.1307 -0.1090  0.5748
    1SOL    HW310443   3.642   1.627   4.302  1.8869 -1.5277 -0.1950
    1SOL    MW410444   3.615   1.612   4.220  0.3560 -0.2559  0.0553
    1SOL     OW10445   3.567   1.882   4.144 -0.4829  0.3719 -0.3634
    1SOL    HW210446   3.608   1.796   4.156  0.5799  1.0076  0.7319
    1SOL    HW310447   3.586   1.906   4.054 -0.1028 -0.2047 -0.4389
    1SOL    MW410448   3.575   1.874   4.134 -0.2923  0.3797 -0.2294
    1SOL     OW10449   3.652   2.031   4.370 -0.5200  0.4831  0.2506
    1SOL    HW210450   3.747   2.042   4.365 -0.4615  0.0301  0.4021
    1SOL    HW310451   3.632   1.969   4.300 -0.4202 -1.2606  1.7418
    1SOL    MW410452   3.662   2.025   4.360 -0.4990  0.1934  0.4673
    1SOL     OW10453   3.786   2.427   4.215  0.2701  0.1281  0.0451
    1SOL    HW210454   3.716   2.375   4.254  0.6607 -0.3952  0.0521
    1SOL    HW310455   3.801   2.386   4.130 -0.5471  1.2320 -0.6472
    1SOL    MW410456   3.779   2.415   4.209  0.2139  0.2046 -0.0458
    1SOL     OW10457   3.555   2.275   4.334  0.1720 -0.1459  0.0656
    1SOL    HW210458   3.545   2.322   4.416 -0.5040  0.9325 -0.6339
    1SOL    HW310459   3.589   2.189   4.360  0.9806  0.5498  1.3773
    1SOL    MW410460   3.558   2.270   4.348  0.1895  0.0882  0.1469
    1SOL     OW10461   3.633   2.667   4.138 -0.2290 -0.1266 -0.4147
    1SOL    HW210462   3.681   2.587   4.160 -0.1542 -0.6899 -2.4704
    1SOL    HW310463   3.625   2.664   4.042 -0.2431  2.3167 -0.5180
    1SOL    MW410464   3.639   2.656   4.128 -0.2210  0.1211 -0.6995
    1SOL     OW10465   3.799   2.869   4.223  0.1543  0.5405  0.2060
    1SOL    HW210466   3.780   2.870   4.317  0.4654 -0.9629  0.3009
    1SOL    HW310467   3.734   2.810   4.186  1.0346 -0.1430 -0.2815
    1SOL    MW410468   3.788   2.861   4.231  0.3114  0.2520  0.1545
    1SOL     OW10469   3.861   3.118   4.108  0.0514 -0.5147  0.2516
    1SOL    HW210470   3.844   3.029   4.140  1.6085 -0.9932 -0.2051
    1SOL    HW310471   3.850   3.113   4.014 -0.9228  0.0462  0.3261
    1SOL    MW410472   3.857   3.106   4.100  0.1283 -0.5040  0.2017
    1SOL     OW10473   3.666   3.203   4.280 -0.2124 -0.1174 -0.2704
    1SOL    HW210474   3.737   3.176   4.223 -0.5869  0.5042 -1.0300
    1SOL    HW310475   3.592   3.148   4.253 -0.1676 -0.3891  0.1587
    1SOL    MW410476   3.665   3.192   4.269 -0.2563 -0.0713 -0.3142
    1SOL     OW10477   3.645   3.454   4.151 -0.1625 -0.3065 -0.2283
    1SOL    HW210478   3.644   3.362   4.177 -0.0889 -0.4113 -0.5904
    1SOL    HW310479   3.574   3.494   4.201  0.9052 -0.1920  1.2177
    1SOL    MW410480   3.635   3.447   4.161 -0.0119 -0.3054 -0.0854
    1SOL     OW10481   3.870   3.571   4.260  0.1439 -0.0851 -0.0745
    1SOL    HW210482   3.950   3.534   4.223  0.0696  0.5011 -0.8331
    1SOL    HW310483   3.800   3.513   4.228  0.2838 -0.7664  0.8236
    1SOL    MW410484   3.871   3.558   4.251  0.1523 -0.0975 -0.0553
    1SOL     OW10485   3.880   3.857   4.158 -0.0008 -0.1012  0.2895
    1SOL    HW210486   3.813   3.920   4.186  0.9780  0.1914  1.9794
    1SOL    HW310487   3.871   3.783   4.218  0.6055 -0.4407 -0.0324
    1SOL    MW410488   3.870   3.856   4.169  0.2084 -0.1075  0.4702
    1SOL     OW10489   3.642   3.979   4.199 -0.1748 -0.0721  0.0908
    1SOL    HW210490   3.615   3.987   4.291 -1.7885 -0.8300 -0.2972
    1SOL    HW310491   3.576   3.922   4.160  0.7825 -0.1549 -1.4347
    1SOL    MW410492   3.630   3.972   4.206 -0.2613 -0.1831 -0.1621
    1SOL     OW10493   3.681   4.224   4.100  0.3489 -0.1237 -0.2854
    1SOL    HW210494   3.740   4.275   4.155  0.4289 -0.6881  0.1557
    1SOL    HW310495   3.678   4.138   4.142 -0.9583 -0.0321 -0.1727
    1SOL    MW410496   3.688   4.219   4.113  0.1869 -0.1860 -0.2122
    1SOL     OW10497   3.850   4.383   4.258 -0.3675  0.0134 -0.3430
    1SOL    HW210498   3.934   4.341   4.240 -0.0700  0.2390  0.4911
    1SOL    HW310499   3.849   4.461   4.203  0.1301  0.2118 -0.0674
    1SOL    MW410500   3.861   4.388   4.249 -0.2625  0.0691 -0.1965
    1SOL     OW10501   4.255   4.648   4.235  0.3013 -0.5112  0.3711
    1SOL    HW210502   4.247   4.553   4.246  2.1404 -0.4426  2.6695
    1SOL    HW310503   4.344   4.669   4.262 -0.1118  1.9052  0.0415
    1SOL    MW410504   4.266   4.638   4.240  0.4892 -0.1836  0.6309
    1SOL     OW10505   3.999   0.074   4.239 -0.3551  0.2395 -0.3288
    1SOL    HW210506   4.005   0.169   4.246 -0.2276  0.3539 -1.9309
    1SOL    HW310507   4.089   0.043   4.245 -0.2906  0.3009 -1.0162
    1SOL    MW410508   4.011   0.083   4.241 -0.3300  0.2627 -0.6318
    1SOL     OW10509   4.031   0.344   4.209  0.6989  0.1855  0.4457
    1SOL    HW210510   4.108   0.384   4.249  1.0733 -0.8331  0.7813
    1SOL    HW310511   3.957   0.396   4.241  1.1210  0.2754  1.3028
    1SOL    MW410512   4.031   0.356   4.219  0.8044  0.0630  0.6032
    1SOL     OW10513   4.244   0.466   4.313 -0.2077  0.1684 -0.0319
    1SOL    HW210514   4.258   0.545   4.260 -0.3526  0.1488 -0.0997
    1SOL    HW310515   4.321   0.412   4.296  0.2893  0.6396  0.6319
    1SOL    MW410516   4.256   0.470   4.304 -0.1616  0.2280  0.0467
    1SOL     OW10517   4.300   0.716   4.166 -0.0061 -0.3067  0.7535
    1SOL    HW210518   4.215   0.751   4.190 -0.1355 -1.0931  1.4157
    1SOL    HW310519   4.313   0.746   4.075 -0.3820  0.9516  1.1024
    1SOL    MW410520   4.291   0.725   4.157 -0.0730 -0.2444  0.8860
    1SOL     OW10521   4.059   0.810   4.232  0.3899  0.1836 -0.2951
    1SOL    HW210522   4.049   0.905   4.222 -1.4742 -0.0565 -0.9992
    1SOL    HW310523   3.982   0.774   4.189 -0.3845 -1.5370  2.3761
    1SOL    MW410524   4.047   0.818   4.225  0.0415 -0.0751 -0.0353
    1SOL     OW10525   4.012   1.079   4.124 -0.2095  0.3744 -0.0730
    1SOL    HW210526   4.102   1.106   4.142 -0.2047  1.1011 -1.1412
    1SOL    HW310527   3.958   1.138   4.177 -0.0649 -0.1133  0.6283
    1SOL    MW410528   4.017   1.090   4.134 -0.1903  0.4059 -0.1216
    1SOL     OW10529   4.241   1.217   4.193 -0.0617  0.0678  0.3370
    1SOL    HW210530   4.226   1.227   4.287 -0.4489  0.7114  0.2114
    1SOL    HW310531   4.320   1.164   4.186  0.2015  0.3725  1.0233
    1SOL    MW410532   4.249   1.211   4.204 -0.0777  0.1929  0.4115
    1SOL     OW10533   4.287   1.485   4.141 -0.4883 -0.3799 -0.0953
    1SOL    HW210534   4.270   1.390   4.140 -0.4108 -0.3921 -0.4926
    1SOL    HW310535   4.298   1.507   4.049  0.5060 -0.1637  0.0769
    1SOL    MW410536   4.286   1.475   4.129 -0.3467 -0.3532 -0.1254
    1SOL     OW10537   4.042   1.647   4.201 -0.0016  0.1119  0.4746
    1SOL    HW210538   4.063   1.647   4.294  1.2707  0.8071  0.2043
    1SOL    HW310539   4.096   1.578   4.164  0.7601  0.9513 -0.0033
    1SOL    MW410540   4.052   1.638   4.208  0.2670  0.3145  0.3757
    1SOL     OW10541   4.085   1.933   4.137  0.2293 -0.1948 -0.1193
    1SOL    HW210542   4.088   1.837   4.140 -1.1533 -0.2899 -1.2850
    1SOL    HW310543   4.019   1.956   4.203 -0.0017 -0.0870 -0.3895
    1SOL    MW410544   4.077   1.923   4.146  0.0167 -0.1934 -0.3090
    1SOL     OW10545   4.479   1.948   4.113 -0.2611 -0.0251 -0.0485
    1SOL    HW210546   4.547   1.976   4.175 -0.7582 -0.2323  0.5940
    1SOL    HW310547   4.409   2.012   4.124 -1.1550 -1.1587  1.0004
    1SOL    MW410548   4.479   1.960   4.123 -0.4446 -0.2019  0.1750
    1SOL     OW10549   4.249   2.370   4.125 -0.0974 -0.0299 -0.0508
    1SOL    HW210550   4.184   2.423   4.171  0.2330 -0.3880  0.8452
    1SOL    HW310551   4.250   2.286   4.173  1.5468  0.2311  0.4211
    1SOL    MW410552   4.241   2.366   4.138  0.1631 -0.0427  0.1297
    1SOL     OW10553   4.060   2.506   4.261 -0.3925  0.0984  0.1251
    1SOL    HW210554   4.059   2.507   4.357  1.3156  0.5288  0.1453
    1SOL    HW310555   3.974   2.470   4.237 -1.2776  1.0560  1.7882
    1SOL    MW410556   4.049   2.501   4.271 -0.2837  0.2813  0.3471
    1SOL     OW10557   4.038   2.762   4.130 -0.3538 -0.0543  0.2342
    1SOL    HW210558   4.072   2.688   4.180  0.2696 -0.2106 -0.4140
    1SOL    HW310559   3.963   2.792   4.181  1.4040  1.0051  2.2880
    1SOL    MW410560   4.033   2.756   4.144 -0.0396  0.0651  0.4201
    1SOL     OW10561   4.249   2.903   4.242 -0.1037  0.1434  0.1617
    1SOL    HW210562   4.174   2.861   4.200 -0.2531 -0.6925  1.2516
    1SOL    HW310563   4.324   2.850   4.217  0.1672  1.1012 -1.1002
    1SOL    MW410564   4.249   2.891   4.233 -0.0877  0.1595  0.1392
    1SOL     OW10565   4.291   3.151   4.132  0.1350 -0.0137  0.0452
    1SOL    HW210566   4.279   3.064   4.170 -0.4861  0.0482 -0.0183
    1SOL    HW310567   4.294   3.136   4.037 -0.0679  0.0508  0.0295
    1SOL    MW410568   4.290   3.138   4.124  0.0262  0.0031  0.0348
    1SOL     OW10569   4.048   3.230   4.252 -0.2807 -0.1603 -0.0501
    1SOL    HW210570   4.129   3.197   4.214 -0.2060 -1.1290  0.9149
    1SOL    HW310571   3.978   3.193   4.198 -0.0757  0.9149 -1.0606
    1SOL    MW410572   4.049   3.221   4.240 -0.2437 -0.1464 -0.0553
    1SOL     OW10573   4.097   3.481   4.132 -0.1820  0.3362  0.0242
    1SOL    HW210574   4.085   3.392   4.166 -0.0824  0.1749 -0.3559
    1SOL    HW310575   4.090   3.471   4.037  3.4152  0.1371 -0.2938
    1SOL    MW410576   4.094   3.468   4.124  0.3061  0.2887 -0.0677
    1SOL     OW10577   4.310   3.611   4.277  0.3294  0.1281  0.0280
    1SOL    HW210578   4.317   3.699   4.241 -0.9591  0.1367 -0.2228
    1SOL    HW310579   4.243   3.568   4.224 -0.2154 -0.4814  1.1892
    1SOL    MW410580   4.302   3.617   4.265  0.0877  0.0491  0.1483
    1SOL     OW10581   4.324   3.869   4.176  0.2319  0.1176 -0.7163
    1SOL    HW210582   4.242   3.900   4.213  0.5367  0.9282 -0.7109
    1SOL    HW310583   4.302   3.847   4.085 -0.2042 -0.5732 -0.4452
    1SOL    MW410584   4.310   3.870   4.169  0.2146  0.1333 -0.6800
    1SOL     OW10585   4.092   3.986   4.269 -0.0973  0.0914  0.0561
    1SOL    HW210586   4.072   3.985   4.363 -0.5476  0.4178 -0.0342
    1SOL    HW310587   4.019   3.940   4.228 -1.0351  1.8559 -0.3361
    1SOL    MW410588   4.080   3.980   4.276 -0.2804  0.3672 -0.0072
    1SOL     OW10589   4.064   4.239   4.147 -0.1035  0.1676  0.0254
    1SOL    HW210590   4.131   4.291   4.191 -0.9244 -0.2928  1.8590
    1SOL    HW310591   4.072   4.152   4.186 -2.4148  0.3559  1.0182
    1SOL    MW410592   4.074   4.234   4.158 -0.5164  0.1316  0.3982
    1SOL     OW10593   4.303   0.218   4.837 -0.0468 -0.1569 -0.4041
    1SOL    HW210594   4.372   0.276   4.805  1.2617 -1.4751  0.0183
    1SOL    HW310595   4.226   0.274   4.844  0.9811  1.3249 -0.8601
    1SOL    MW410596   4.302   0.233   4.833  0.2613 -0.1353 -0.4082
    1SOL     OW10597   0.029   0.133   4.549 -0.5530  0.4454 -0.0076
    1SOL    HW210598   0.017   0.213   4.601 -1.5852  1.3165 -1.5495
    1SOL    HW310599  -0.028   0.069   4.591 -0.2111  0.6896  0.8555
    1SOL    MW410600   0.020   0.135   4.561 -0.6440  0.5926 -0.0973
    1SOL     OW10601   4.242   4.398   4.596 -0.1070  0.0041  0.0750
    1SOL    HW210602   4.217   4.347   4.673 -0.2639  1.0337  0.7177
    1SOL    HW310603   4.234   4.489   4.624  0.5039  0.3810 -0.9495
    1SOL    MW410604   4.238   4.403   4.610 -0.0472  0.1898  0.0243
    1SOL     OW10605   3.997   0.116   4.521 -0.2094 -0.2160  0.3628
    1SOL    HW210606   4.016   0.100   4.428 -0.1113  0.4287  0.2726
    1SOL    HW310607   3.914   0.071   4.536 -0.3464 -0.1194 -0.1011
    1SOL    MW410608   3.988   0.108   4.511 -0.2146 -0.1182  0.2899
    1SOL     OW10609   4.179   1.206   4.786  0.0212  0.2700 -0.1887
    1SOL    HW210610   4.266   1.198   4.748 -0.0146 -0.6925 -0.0959
    1SOL    HW310611   4.146   1.290   4.756  1.0270  0.6833 -0.1289
    1SOL    MW410612   4.186   1.216   4.777  0.1488  0.1974 -0.1688
    1SOL     OW10613   0.303   0.077   4.639  0.0350 -0.0569 -0.0860
    1SOL    HW210614   0.214   0.082   4.604 -0.5220  0.3821  1.3891
    1SOL    HW310615   0.317  -0.016   4.654 -0.2981 -0.0954 -0.0055
    1SOL    MW410616   0.293   0.065   4.636 -0.0824 -0.0041  0.1197
    1SOL     OW10617   0.684   0.769   4.536  0.2059 -0.2752  0.2471
    1SOL    HW210618   0.596   0.807   4.535  0.4127  0.2075 -0.0707
    1SOL    HW310619   0.672   0.677   4.515 -0.3571 -0.4908  1.4512
    1SOL    MW410620   0.671   0.762   4.533  0.1589 -0.2400  0.3638
    1SOL     OW10621   0.131   0.768   4.541 -0.5140  0.1043  0.6384
    1SOL    HW210622   0.136   0.672   4.543  1.2443  0.2018  1.7363
    1SOL    HW310623   0.102   0.789   4.453 -1.8191 -1.4739  0.6630
    1SOL    MW410624   0.128   0.758   4.530 -0.4542 -0.0910  0.7854
    1SOL     OW10625   0.514   1.286   4.661  0.0218  0.3189 -0.0714
    1SOL    HW210626   0.576   1.267   4.731  0.0236  0.2983 -0.0782
    1SOL    HW310627   0.450   1.215   4.667 -1.1415  1.4528  1.2407
    1SOL    MW410628   0.514   1.274   4.671 -0.1315  0.4658  0.1011
    1SOL     OW10629   0.536   1.973   4.528  0.3967  0.0848  0.0119
    1SOL    HW210630   0.626   1.950   4.553  0.5040 -0.6451 -0.9941
    1SOL    HW310631   0.489   1.890   4.533 -0.1047  0.3700  0.0189
    1SOL    MW410632   0.542   1.959   4.532  0.3447  0.0261 -0.1197
    1SOL     OW10633   4.243   1.228   4.462 -0.0941 -0.4186  0.1952
    1SOL    HW210634   4.194   1.154   4.497 -0.9402  1.0828  2.2498
    1SOL    HW310635   4.324   1.229   4.512  0.6236 -0.8880 -0.9289
    1SOL    MW410636   4.247   1.218   4.473 -0.1106 -0.2824  0.3181
    1SOL     OW10637   0.084   1.887   4.410 -0.3323 -0.0254  0.0960
    1SOL    HW210638   0.077   1.814   4.348  1.6506 -0.9135  0.9064
    1SOL    HW310639   0.140   1.951   4.366 -0.5652  0.2262  0.1582
    1SOL    MW410640   0.090   1.886   4.396 -0.1014 -0.1093  0.2108
    1SOL     OW10641   0.426   1.667   4.229  0.0301 -0.4715 -0.3043
    1SOL    HW210642   0.357   1.616   4.185  0.6926 -0.8784 -0.8718
    1SOL    HW310643   0.507   1.621   4.208  0.4055 -0.4408  1.0073
    1SOL    MW410644   0.427   1.654   4.221  0.1671 -0.5212 -0.2065
    1SOL     OW10645   0.071   2.245   4.583  0.3442 -0.1532  0.7108
    1SOL    HW210646   0.162   2.248   4.556  0.1182 -1.1701 -0.2205
    1SOL    HW310647   0.074   2.230   4.678  1.1408  0.0921  0.7199
    1SOL    MW410648   0.083   2.243   4.592  0.4195 -0.2549  0.5894
    1SOL     OW10649   3.768   2.452   4.848 -0.3933 -0.3013  0.1731
    1SOL    HW210650   3.699   2.457   4.914 -1.2555 -0.4514 -0.7045
    1SOL    HW310651   3.749   2.371   4.800 -0.0298  0.0282 -0.5300
    1SOL    MW410652   3.756   2.442   4.851 -0.4590 -0.2775 -0.0358
    1SOL     OW10653   0.414   2.699   4.475  0.3590  0.2178 -0.0392
    1SOL    HW210654   0.416   2.691   4.380 -1.3256 -0.0810 -0.0696
    1SOL    HW310655   0.414   2.609   4.507 -0.9657  0.2729  0.1653
    1SOL    MW410656   0.414   2.686   4.467 -0.0381  0.1855 -0.0157
    1SOL     OW10657   0.179   2.861   4.498 -0.0188  0.5297  0.3169
    1SOL    HW210658   0.266   2.825   4.519  0.1008  1.2856  1.1226
    1SOL    HW310659   0.170   2.846   4.404 -0.4779 -2.7299  0.7958
    1SOL    MW410660   0.190   2.854   4.489 -0.0636  0.1991  0.4864
    1SOL     OW10661   4.223   2.399   4.682  0.2125 -0.2334  0.3161
    1SOL    HW210662   4.284   2.423   4.612 -0.5688 -1.4296 -0.8027
    1SOL    HW310663   4.245   2.458   4.754  1.3157  0.7406 -0.7865
    1SOL    MW410664   4.234   2.410   4.682  0.2551 -0.2627  0.0234
    1SOL     OW10665   4.342   3.311   4.666 -0.0942  0.0481  0.4830
    1SOL    HW210666   4.415   3.250   4.656  0.2337  0.4077  0.7210
    1SOL    HW310667   4.274   3.275   4.608  0.5188  0.1048 -0.2765
    1SOL    MW410668   4.343   3.298   4.657  0.0300  0.1028  0.4144
    1SOL     OW10669   0.087   3.118   4.529 -0.4539 -1.0036  0.1344
    1SOL    HW210670   0.061   3.144   4.441 -0.8190 -1.0357  0.2318
    1SOL    HW310671   0.124   3.030   4.519 -0.0163 -0.7956 -0.0644
    1SOL    MW410672   0.088   3.110   4.516 -0.4443 -0.9804  0.1211
    1SOL     OW10673   4.263   3.966   4.682  0.0037 -0.6002  0.1826
    1SOL    HW210674   4.181   3.972   4.633  0.7926 -0.4792 -1.1355
    1SOL    HW310675   4.258   3.881   4.728 -0.4422 -1.0261 -0.6517
    1SOL    MW410676   4.252   3.955   4.682  0.0486 -0.6404 -0.1006
    1SOL     OW10677   4.249   0.006   4.646  0.0263  0.0838 -0.1821
    1SOL    HW210678   4.163   0.031   4.614 -1.5481 -2.7619  1.5919
    1SOL    HW310679   4.265   0.064   4.721 -0.5166  0.3331 -0.2613
    1SOL    MW410680   4.240   0.017   4.652 -0.2527 -0.2588  0.0410
    1SOL     OW10681   3.827   0.485   4.600  0.2355  0.1685 -0.1989
    1SOL    HW210682   3.735   0.460   4.602  0.0867  0.7826  1.1615
    1SOL    HW310683   3.827   0.580   4.616  1.1277  0.1108  0.1977
    1SOL    MW410684   3.815   0.494   4.602  0.3335  0.2419  0.0324
    1SOL     OW10685   4.127   3.421   4.811 -0.1994 -0.6356 -0.2230
    1SOL    HW210686   4.211   3.380   4.790 -0.4982 -1.2203 -0.2846
    1SOL    HW310687   4.119   3.413   4.906 -0.3627 -0.9206 -0.2613
    1SOL    MW410688   4.137   3.415   4.821 -0.2608 -0.7505 -0.2365
    1SOL     OW10689   3.906   4.233   4.668  0.1418  0.2077  0.2702
    1SOL    HW210690   3.862   4.297   4.612  0.3060 -1.0634 -1.3556
    1SOL    HW310691   3.840   4.166   4.685  0.4664 -0.0421  0.5454
    1SOL    MW410692   3.892   4.232   4.663  0.2062  0.0076  0.0920
    1SOL     OW10693   0.442   0.339   4.642  0.3990 -0.4847  0.2006
    1SOL    HW210694   0.396   0.256   4.654 -0.5494 -0.0569 -0.3405
    1SOL    HW310695   0.440   0.381   4.728 -1.0946 -0.0555 -0.0149
    1SOL    MW410696   0.436   0.334   4.655  0.0768 -0.3716  0.1006
    1SOL     OW10697   0.086   0.926   4.758  0.3285 -0.5444  0.1031
    1SOL    HW210698  -0.001   0.886   4.758  0.2702 -0.4386  1.8339
    1SOL    HW310699   0.136   0.874   4.696 -0.9311 -0.6945 -0.7981
    1SOL    MW410700   0.081   0.914   4.750  0.1547 -0.5502  0.2122
    1SOL     OW10701   1.544   0.960   4.667  0.0234  0.0915  0.1372
    1SOL    HW210702   1.524   0.885   4.725 -0.6579 -0.7255 -1.1321
    1SOL    HW310703   1.614   1.007   4.713 -0.6088 -0.4456  1.7131
    1SOL    MW410704   1.550   0.956   4.681 -0.1498 -0.0871  0.1779
    1SOL     OW10705   0.624   0.116   4.482 -0.2020 -0.3661  0.2748
    1SOL    HW210706   0.715   0.138   4.498 -0.6503  0.4527  1.7401
    1SOL    HW310707   0.583   0.114   4.568 -1.8492  0.5229 -0.4520
    1SOL    MW410708   0.630   0.119   4.495 -0.4784 -0.1408  0.3724
    1SOL     OW10709   1.174   0.899   4.553 -0.2698  0.8728 -0.0597
    1SOL    HW210710   1.224   0.906   4.472 -0.6337 -0.7037 -0.4409
    1SOL    HW310711   1.083   0.909   4.526 -0.3893  0.3931  0.1578
    1SOL    MW410712   1.169   0.901   4.539 -0.3335  0.6015 -0.0806
    1SOL     OW10713   0.424   0.855   4.488 -0.1822 -0.2742 -0.0582
    1SOL    HW210714   0.337   0.819   4.504  0.3100 -0.6370  1.9780
    1SOL    HW310715   0.442   0.836   4.396 -3.3419  2.2115 -1.2902
    1SOL    MW410716   0.415   0.848   4.478 -0.5341  0.0060  0.0482
    1SOL     OW10717   1.929   1.273   4.567  0.1661 -0.3555 -0.1888
    1SOL    HW210718   1.940   1.268   4.472  1.0624  2.3869 -0.2823
    1SOL    HW310719   2.018   1.261   4.602  0.0844  0.2162  0.2140
    1SOL    MW410720   1.942   1.271   4.559  0.2737  0.0818 -0.1483
    1SOL     OW10721   0.828   1.596   4.488  0.0867  0.0322  0.2626
    1SOL    HW210722   0.798   1.687   4.485  1.6233  0.5049 -1.3280
    1SOL    HW310723   0.901   1.596   4.549  2.3460  0.5979 -2.3381
    1SOL    MW410724   0.833   1.608   4.495  0.5876  0.1693 -0.2904
    1SOL     OW10725   1.110   1.317   4.676  0.1162 -0.4216  0.1077
    1SOL    HW210726   1.190   1.264   4.679 -0.3288 -1.0710  0.7204
    1SOL    HW310727   1.069   1.294   4.593  0.5443 -0.1059 -0.1978
    1SOL    MW410728   1.115   1.307   4.666  0.1141 -0.4658  0.1483
    1SOL     OW10729   0.821   1.884   4.541 -0.2359 -0.4185 -0.1264
    1SOL    HW210730   0.836   1.962   4.489 -0.0151 -0.3286  0.0710
    1SOL    HW310731   0.885   1.890   4.613  0.4798 -1.2836 -0.6798
    1SOL    MW410732   0.831   1.895   4.544 -0.1124 -0.5209 -0.1736
    1SOL     OW10733   0.340   2.172   4.496  0.1980  0.1884  0.0877
    1SOL    HW210734   0.395   2.250   4.493  0.6885 -0.1519  0.1060
    1SOL    HW310735   0.402   2.100   4.510 -0.2696 -0.1786  0.2823
    1SOL    MW410736   0.355   2.173   4.498  0.2010  0.0951  0.1154
    1SOL     OW10737   1.038   1.881   4.748 -0.3227 -0.0599 -0.2798
    1SOL    HW210738   1.039   1.787   4.731 -0.3615 -0.1658  0.3102
    1SOL    HW310739   1.102   1.917   4.686 -0.1521 -0.5000 -0.3606
    1SOL    MW410740   1.047   1.873   4.737 -0.3053 -0.1318 -0.2127
    1SOL     OW10741   4.420   2.469   4.492  0.1012 -0.0011 -0.3917
    1SOL    HW210742   4.450   2.472   4.401  0.0811 -0.2491 -0.4073
    1SOL    HW310743   4.469   2.395   4.530  1.7050  1.4161  0.3748
    1SOL    MW410744   4.431   2.459   4.485  0.3095  0.1535 -0.2923
    1SOL     OW10745   0.728   2.372   4.617 -0.4226  0.0295 -0.4375
    1SOL    HW210746   0.787   2.447   4.613  0.1711 -0.4978 -2.9499
    1SOL    HW310747   0.765   2.316   4.685  0.2738  1.0832  0.0622
    1SOL    MW410748   0.741   2.374   4.625 -0.2524  0.0989 -0.7029
    1SOL     OW10749   0.478   2.415   4.495  0.2363 -0.0158 -0.2466
    1SOL    HW210750   0.560   2.385   4.532  0.2437 -0.2074 -0.4124
    1SOL    HW310751   0.493   2.416   4.400 -0.1387 -0.6261 -0.3166
    1SOL    MW410752   0.491   2.411   4.487  0.1878 -0.1216 -0.2780
    1SOL     OW10753   1.087   2.302   4.613  0.4798 -0.1936 -0.9545
    1SOL    HW210754   1.171   2.257   4.623  0.6764  0.0088 -1.6657
    1SOL    HW310755   1.108   2.395   4.622 -0.2099 -0.3162  2.3884
    1SOL    MW410756   1.101   2.308   4.615  0.4146 -0.1831 -0.6075
    1SOL     OW10757   0.339   3.208   4.498  0.0590  0.4866 -0.3724
    1SOL    HW210758   0.384   3.237   4.578 -0.4622  0.1863  0.0360
    1SOL    HW310759   0.247   3.199   4.524  0.3013 -2.2839 -0.2576
    1SOL    MW410760   0.333   3.210   4.512  0.0222  0.0815 -0.3037
    1SOL     OW10761   1.398   4.497   4.648 -0.0420 -0.2572  0.0171
    1SOL    HW210762   1.324   4.461   4.598 -0.5147  1.5369 -0.6189
    1SOL    HW310763   1.474   4.449   4.616 -0.7473 -1.2316 -0.2400
    1SOL    MW410764   1.398   4.486   4.637 -0.1974 -0.1488 -0.1006
    1SOL     OW10765   4.297   2.626   4.829 -0.2463 -0.3196  0.2297
    1SOL    HW210766   4.225   2.683   4.856  0.6774  0.4109  1.1482
    1SOL    HW310767   4.335   2.669   4.753 -0.4666 -0.4626  0.0365
    1SOL    MW410768   4.292   2.639   4.823 -0.1535 -0.2425  0.3257
    1SOL     OW10769   4.381   3.608   4.571 -0.6180 -0.2835  0.3942
    1SOL    HW210770   4.383   3.514   4.587 -0.5659 -0.4246 -0.4425
    1SOL    HW310771   4.362   3.616   4.478 -0.0491  0.5236  0.3420
    1SOL    MW410772   4.379   3.597   4.561 -0.5364 -0.1955  0.2766
    1SOL     OW10773   0.780   4.323   4.505  0.1774  0.0405  0.4329
    1SOL    HW210774   0.710   4.262   4.531 -0.3727  1.2052  1.7357
    1SOL    HW310775   0.753   4.354   4.418  0.3533 -1.3982 -0.1486
    1SOL    MW410776   0.767   4.319   4.497  0.1280  0.0043  0.5279
    1SOL     OW10777   0.048   4.326   4.533 -0.1103  0.7017  0.1163
    1SOL    HW210778   0.053   4.232   4.514  1.8750  0.8226 -0.0518
    1SOL    HW310779  -0.044   4.340   4.557 -1.1648 -0.7209 -2.7277
    1SOL    MW410780   0.036   4.315   4.534  0.0126  0.5298 -0.2818
    1SOL     OW10781   0.051   4.016   4.554  0.0667 -0.0453  0.0235
    1SOL    HW210782   0.094   3.931   4.558  0.3627  0.1089  0.1167
    1SOL    HW310783  -0.018   4.011   4.621 -1.0478 -0.8341 -1.1612
    1SOL    MW410784   0.048   4.004   4.564 -0.0413 -0.1287 -0.1202
    1SOL     OW10785   0.278   4.458   4.602  0.2069 -0.5350 -0.2221
    1SOL    HW210786   0.346   4.415   4.654  0.3392 -0.8961 -0.6884
    1SOL    HW310787   0.199   4.409   4.621  0.2810 -0.7480 -0.4567
    1SOL    MW410788   0.277   4.446   4.611  0.2341 -0.6108 -0.3142
    1SOL     OW10789   1.190   0.202   4.587  0.0074 -0.0937 -0.0236
    1SOL    HW210790   1.163   0.206   4.678 -1.5191  2.1464 -0.5455
    1SOL    HW310791   1.109   0.181   4.539  0.3934  0.7055 -1.0450
    1SOL    MW410792   1.175   0.199   4.593 -0.1432  0.3073 -0.2275
    1SOL     OW10793   0.918   0.113   4.482 -0.4035  0.1530 -0.1938
    1SOL    HW210794   0.897   0.110   4.389 -2.4770  0.7288  0.2165
    1SOL    HW310795   0.902   0.023   4.513 -1.9061  0.4905  0.0328
    1SOL    MW410796   0.913   0.101   4.474 -0.8753  0.2735 -0.1097
    1SOL     OW10797   0.628   0.502   4.474  0.0670  0.3855  0.3751
    1SOL    HW210798   0.635   0.478   4.382  2.7316  0.3373  0.5503
    1SOL    HW310799   0.574   0.433   4.513  0.5182 -0.6279 -0.7826
    1SOL    MW410800   0.621   0.490   4.467  0.4781  0.2454  0.2451
    1SOL     OW10801   1.318   1.126   4.638  0.1345 -0.1987  0.0620
    1SOL    HW210802   1.252   1.057   4.628 -0.1149  0.2160 -1.2646
    1SOL    HW310803   1.401   1.079   4.643 -0.2239 -0.7135  1.5210
    1SOL    MW410804   1.320   1.111   4.637  0.0544 -0.2118  0.0792
    1SOL     OW10805   1.729   0.814   4.502 -0.1453 -0.2747 -0.1150
    1SOL    HW210806   1.680   0.878   4.553 -0.0232  0.5375 -1.0046
    1SOL    HW310807   1.734   0.852   4.414  0.9527 -0.9625 -0.3573
    1SOL    MW410808   1.723   0.827   4.497  0.0157 -0.2583 -0.2646
    1SOL     OW10809   0.350   1.060   4.676 -0.8171 -0.6877 -0.6585
    1SOL    HW210810   0.383   0.988   4.623 -0.4381 -0.0762 -1.2625
    1SOL    HW310811   0.276   1.022   4.725 -0.1999 -1.6496 -0.4649
    1SOL    MW410812   0.344   1.046   4.675 -0.6857 -0.7340 -0.7129
    1SOL     OW10813   0.714   1.334   4.465 -0.1963  0.2994 -0.1871
    1SOL    HW210814   0.733   1.426   4.483  0.4328 -0.1053  1.2768
    1SOL    HW310815   0.648   1.310   4.529  1.2383 -0.8561  0.8911
    1SOL    MW410816   0.708   1.343   4.476  0.0759  0.0935  0.1478
    1SOL     OW10817   0.913   0.935   4.422 -0.0755  0.3703  0.1616
    1SOL    HW210818   0.824   0.907   4.445  0.4656 -0.8357  0.8558
    1SOL    HW310819   0.916   0.929   4.327 -0.8524  0.7530  0.1080
    1SOL    MW410820   0.902   0.930   4.413 -0.1067  0.2617  0.2456
    1SOL     OW10821   1.816   1.051   4.711 -0.3750  0.6324 -0.1349
    1SOL    HW210822   1.836   1.123   4.652 -1.2592 -0.9071 -2.3712
    1SOL    HW310823   1.891   0.992   4.703 -0.9655 -0.0764 -0.5240
    1SOL    MW410824   1.829   1.053   4.702 -0.5695  0.3358 -0.4811
    1SOL     OW10825   0.982   1.225   4.437 -0.4569 -0.5775 -0.2433
    1SOL    HW210826   0.957   1.132   4.437 -0.0477 -0.6887  0.5335
    1SOL    HW310827   0.898   1.272   4.440 -0.6232 -0.9288  0.6067
    1SOL    MW410828   0.967   1.219   4.437 -0.4249 -0.6385 -0.0286
    1SOL     OW10829   0.854   2.146   4.454  0.2208  0.0767  0.1738
    1SOL    HW210830   0.948   2.157   4.444  0.1546  0.6392  0.1711
    1SOL    HW310831   0.833   2.192   4.535  0.0519 -0.6315  0.5391
    1SOL    MW410832   0.864   2.153   4.464  0.1898  0.0575  0.2217
    1SOL     OW10833   0.881   2.190   4.753 -0.1565 -0.7316  0.4932
    1SOL    HW210834   0.948   2.244   4.711 -1.3256  0.1573 -0.2815
    1SOL    HW310835   0.916   2.101   4.750  0.8212 -0.3323 -0.2348
    1SOL    MW410836   0.894   2.185   4.747 -0.1817 -0.5615  0.2952
    1SOL     OW10837   1.363   2.225   4.612 -0.0261  0.1385  0.5818
    1SOL    HW210838   1.354   2.307   4.564 -0.6574 -1.6508 -2.4555
    1SOL    HW310839   1.455   2.201   4.601 -0.5787 -1.1779 -1.2849
    1SOL    MW410840   1.374   2.232   4.604 -0.1823 -0.2711 -0.0648
    1SOL     OW10841   1.552   3.559   4.541  0.1591 -0.0260 -0.7176
    1SOL    HW210842   1.641   3.585   4.567 -0.4988  0.2138  1.4236
    1SOL    HW310843   1.551   3.464   4.556  0.0866 -0.0393 -0.8133
    1SOL    MW410844   1.564   3.550   4.547  0.0627  0.0041 -0.4478
    1SOL     OW10845   0.673   2.811   4.524 -0.2068 -0.3010 -0.2314
    1SOL    HW210846   0.730   2.737   4.542  0.4136 -0.0314 -1.0695
    1SOL    HW310847   0.584   2.775   4.533  0.0856 -1.0187 -0.1514
    1SOL    MW410848   0.669   2.797   4.528 -0.0864 -0.3600 -0.3309
    1SOL     OW10849   0.833   3.872   4.659 -0.1079  0.1188 -0.1551
    1SOL    HW210850   0.901   3.835   4.715 -0.9667 -1.9597 -0.4115
    1SOL    HW310851   0.877   3.939   4.608  1.1934  0.4419  1.3698
    1SOL    MW410852   0.847   3.876   4.660 -0.0495 -0.1128  0.0119
    1SOL     OW10853   1.148   2.642   4.578 -0.4412 -0.0646 -0.5537
    1SOL    HW210854   1.139   2.698   4.501 -0.3356  0.0888 -0.4568
    1SOL    HW310855   1.236   2.605   4.571 -0.1123  0.6028 -0.0823
    1SOL    MW410856   1.158   2.645   4.567 -0.3839  0.0436 -0.4783
    1SOL     OW10857   0.782   3.074   4.568  0.0506  0.0239 -0.3942
    1SOL    HW210858   0.775   3.108   4.657 -1.2284 -0.3125 -0.3554
    1SOL    HW310859   0.728   2.995   4.569 -1.0994  0.7891 -1.8510
    1SOL    MW410860   0.774   3.068   4.580 -0.2699  0.0803 -0.5813
    1SOL     OW10861   1.781   3.673   4.620 -0.0652 -0.1763  0.3971
    1SOL    HW210862   1.793   3.760   4.582 -0.1261 -0.3736 -0.0744
    1SOL    HW310863   1.867   3.630   4.609  0.1602  0.0532  1.2210
    1SOL    MW410864   1.794   3.679   4.614 -0.0434 -0.1721  0.4435
    1SOL     OW10865   0.655   3.658   4.551  0.1226 -0.3222 -0.1086
    1SOL    HW210866   0.577   3.710   4.534  1.2952  0.5404 -3.3353
    1SOL    HW310867   0.719   3.720   4.584  0.2977 -0.4765 -0.1541
    1SOL    MW410868   0.653   3.673   4.553  0.3004 -0.2289 -0.5398
    1SOL     OW10869   0.620   4.111   4.603  0.1740 -0.4324 -0.3052
    1SOL    HW210870   0.694   4.069   4.648 -0.3039 -1.8437 -0.7882
    1SOL    HW310871   0.565   4.038   4.575 -1.0146  0.5728 -0.6342
    1SOL    MW410872   0.623   4.095   4.605 -0.0458 -0.4859 -0.4125
    1SOL     OW10873   0.944   4.087   4.520  0.0890 -0.3029  0.0258
    1SOL    HW210874   0.898   4.167   4.494 -0.0825  0.2019  1.8097
    1SOL    HW310875   0.962   4.042   4.438  0.0384  1.4844 -0.9882
    1SOL    MW410876   0.940   4.092   4.506  0.0596 -0.0005  0.1273
    1SOL     OW10877   0.926   4.522   4.619  0.0573 -0.1385  0.2392
    1SOL    HW210878   0.904   4.523   4.712  0.5663 -1.7007  0.3904
    1SOL    HW310879   0.860   4.464   4.580 -0.0480  0.3695 -0.3347
    1SOL    MW410880   0.914   4.514   4.626  0.1105 -0.2780  0.1836
    1SOL     OW10881   1.616   4.239   4.916  0.3413 -0.2437 -0.6569
    1SOL    HW210882   1.614   4.188   4.997  0.2867  0.6326 -0.1115
    1SOL    HW310883   1.527   4.273   4.907  0.9856  1.6782  0.1901
    1SOL    MW410884   1.604   4.237   4.925  0.4191  0.1254 -0.4735
    1SOL     OW10885   1.622   4.354   4.530  0.3382 -0.1709 -0.3416
    1SOL    HW210886   1.693   4.416   4.547 -1.1112  1.4315  0.0364
    1SOL    HW310887   1.606   4.361   4.436 -0.1474  0.4020 -0.2199
    1SOL    MW410888   1.629   4.363   4.520  0.0829  0.1168 -0.2756
    1SOL     OW10889   1.178   4.414   4.515  0.4302 -0.0453  0.6571
    1SOL    HW210890   1.183   4.332   4.565  0.0535 -0.7488 -0.4180
    1SOL    HW310891   1.097   4.455   4.545  1.2720  0.5619  2.1189
    1SOL    MW410892   1.168   4.408   4.525  0.4915 -0.0577  0.7086
    1SOL     OW10893   1.188   0.474   4.522  0.1863  0.3666  0.4166
    1SOL    HW210894   1.100   0.511   4.516  0.0662  0.4038  2.1055
    1SOL    HW310895   1.175   0.384   4.551  0.6414 -0.0693 -0.6922
    1SOL    MW410896   1.175   0.467   4.525  0.2306  0.3140  0.4930
    1SOL     OW10897   1.721   0.098   4.523  0.5116  0.1746  0.2433
    1SOL    HW210898   1.626   0.095   4.523  0.5023  0.4063  0.4887
    1SOL    HW310899   1.748   0.012   4.555  0.4254 -0.7192 -2.0426
    1SOL    MW410900   1.712   0.087   4.527  0.4990  0.0872 -0.0257
    1SOL     OW10901   1.343   0.693   4.640  0.0261 -0.0079 -0.2149
    1SOL    HW210902   1.302   0.607   4.633 -2.1678  0.8134  1.6415
    1SOL    HW310903   1.275   0.755   4.612  1.7432  1.1266 -2.0545
    1SOL    MW410904   1.329   0.690   4.636 -0.0368  0.2501 -0.2122
    1SOL     OW10905   2.416   1.355   4.902 -0.5602  0.5671  0.2453
    1SOL    HW210906   2.441   1.348   4.995  0.9979 -0.1888 -0.2060
    1SOL    HW310907   2.424   1.265   4.869  0.0164  1.0316 -0.8962
    1SOL    MW410908   2.420   1.342   4.910 -0.2787  0.5287  0.0353
    1SOL     OW10909   0.916   0.547   4.520  0.0278 -0.1446 -0.4932
    1SOL    HW210910   0.910   0.642   4.536 -0.8395 -0.2791 -0.0020
    1SOL    HW310911   0.826   0.521   4.500  0.1508 -0.9872  0.0334
    1SOL    MW410912   0.904   0.556   4.519 -0.0703 -0.2735 -0.3586
    1SOL     OW10913   2.026   0.519   4.539  0.0563 -0.0405 -0.2014
    1SOL    HW210914   2.102   0.465   4.560 -0.4050 -0.5110  0.2782
    1SOL    HW310915   1.951   0.460   4.552 -0.5184  1.0387  1.4324
    1SOL    MW410916   2.026   0.504   4.544 -0.0801  0.0398  0.0777
    1SOL     OW10917   1.458   1.359   4.533  0.1065 -0.2168 -0.0008
    1SOL    HW210918   1.383   1.415   4.548 -0.6111 -0.9445 -0.8328
    1SOL    HW310919   1.433   1.274   4.570  0.7179 -0.3263  0.1781
    1SOL    MW410920   1.445   1.355   4.540  0.0926 -0.3271 -0.0873
    1SOL     OW10921   1.282   1.590   4.508  0.1389 -0.1006  0.4851
    1SOL    HW210922   1.330   1.652   4.563 -0.0261 -0.5267  1.1210
    1SOL    HW310923   1.282   1.629   4.421  0.7061  0.4197  0.7154
    1SOL    MW410924   1.289   1.603   4.504  0.1919 -0.0881  0.5994
    1SOL     OW10925   1.652   2.531   4.602  0.4809 -0.0723  0.0570
    1SOL    HW210926   1.675   2.619   4.570  0.9118  0.4530  1.7468
    1SOL    HW310927   1.701   2.472   4.545  0.0317  0.7738 -1.2281
    1SOL    MW410928   1.662   2.535   4.590  0.4785  0.1087  0.1101
    1SOL     OW10929   2.077   2.326   4.497 -0.3523  0.1409 -0.0946
    1SOL    HW210930   2.098   2.346   4.406  1.6504  0.7952  0.4863
    1SOL    HW310931   2.082   2.410   4.542 -0.6100 -0.2992  0.7647
    1SOL    MW410932   2.080   2.340   4.491 -0.1223  0.1690  0.0954
    1SOL     OW10933   0.867   2.607   4.531  0.0942 -0.0763 -0.1682
    1SOL    HW210934   0.951   2.616   4.576 -0.5041 -0.6549  1.1092
    1SOL    HW310935   0.890   2.592   4.439  1.4426 -1.8053  0.4187
    1SOL    MW410936   0.881   2.606   4.525  0.1931 -0.3808  0.0777
    1SOL     OW10937   1.418   4.000   4.588 -0.5926  0.1307  0.6242
    1SOL    HW210938   1.415   3.911   4.623 -0.4682  0.2071  0.8248
    1SOL    HW310939   1.504   4.033   4.614 -0.9093  0.5487  1.1170
    1SOL    MW410940   1.429   3.992   4.596 -0.6180  0.1960  0.7162
    1SOL     OW10941   1.377   2.515   4.532  0.1551 -0.1152 -0.0457
    1SOL    HW210942   1.374   2.497   4.438 -0.6565 -2.7688  0.4618
    1SOL    HW310943   1.470   2.513   4.554  0.2128 -1.7007 -0.3966
    1SOL    MW410944   1.388   2.512   4.522  0.0556 -0.6745 -0.0253
    1SOL     OW10945   1.738   2.780   4.505 -0.2998  0.2016  0.3678
    1SOL    HW210946   1.722   2.861   4.553 -1.1388 -0.7244  1.6696
    1SOL    HW310947   1.833   2.774   4.497 -0.2331  1.2689  0.3381
    1SOL    MW410948   1.748   2.790   4.510 -0.4017  0.2205  0.5355
    1SOL     OW10949   1.557   3.294   4.571  0.5042  0.3739  0.2844
    1SOL    HW210950   1.651   3.281   4.559  0.7477  2.6847 -0.6275
    1SOL    HW310951   1.537   3.251   4.654  2.7025  1.2664  1.3160
    1SOL    MW410952   1.567   3.287   4.581  0.8262  0.7966  0.2999
    1SOL     OW10953   1.346   3.725   4.623 -0.3176 -0.2218  0.6960
    1SOL    HW210954   1.421   3.668   4.610 -0.4399 -0.0110 -1.0664
    1SOL    HW310955   1.287   3.703   4.551 -1.0282  1.0641  0.8776
    1SOL    MW410956   1.348   3.715   4.612 -0.4274 -0.0243  0.4873
    1SOL     OW10957   0.440   3.853   4.488 -0.0648 -0.4210 -0.0848
    1SOL    HW210958   0.350   3.823   4.497  0.0994 -0.9628 -0.2401
    1SOL    HW310959   0.446   3.884   4.398  0.1259 -1.1198 -0.3105
    1SOL    MW410960   0.429   3.853   4.477 -0.0180 -0.5846 -0.1354
    1SOL     OW10961   2.010   3.514   4.556 -0.1980  0.1937  0.3445
    1SOL    HW210962   2.017   3.522   4.461  1.6831  0.0310  0.4583
    1SOL    HW310963   1.946   3.445   4.570 -0.5539  0.2827 -0.8007
    1SOL    MW410964   2.002   3.506   4.546  0.0033  0.1841  0.2089
    1SOL     OW10965   1.843   3.279   4.560 -0.2954  0.0188 -0.6841
    1SOL    HW210966   1.888   3.203   4.596  2.1440  1.9979  0.5622
    1SOL    HW310967   1.837   3.260   4.466  1.3560 -1.1860 -0.5730
    1SOL    MW410968   1.848   3.266   4.552  0.2444  0.1209 -0.5050
    1SOL     OW10969   2.276   3.533   4.667  0.2464  0.0895  0.0580
    1SOL    HW210970   2.303   3.442   4.684 -1.3326  0.1936  3.4495
    1SOL    HW310971   2.189   3.525   4.629  0.3116  0.1928 -0.1163
    1SOL    MW410972   2.268   3.520   4.664  0.0465  0.1168  0.4821
    1SOL     OW10973   1.200   4.184   4.668 -0.3925  0.3360 -0.2439
    1SOL    HW210974   1.118   4.143   4.640  0.4925 -0.6389 -1.4609
    1SOL    HW310975   1.268   4.119   4.648  0.8525  1.7459 -0.6932
    1SOL    MW410976   1.198   4.170   4.661 -0.1116  0.3929 -0.4640
    1SOL     OW10977   1.843   4.381   4.832 -0.4562  0.3288 -0.0896
    1SOL    HW210978   1.876   4.449   4.891  0.6625 -0.5111  0.2793
    1SOL    HW310979   1.763   4.350   4.874 -0.6010  0.9412  0.0926
    1SOL    MW410980   1.837   4.386   4.845 -0.3278  0.2985 -0.0172
    1SOL     OW10981   2.252   0.370   4.572  0.0759  0.1008 -0.3006
    1SOL    HW210982   2.336   0.414   4.585 -0.2489  0.3055  1.2536
    1SOL    HW310983   2.274   0.277   4.568  0.3673  0.1472  0.2117
    1SOL    MW410984   2.266   0.364   4.573  0.0715  0.1339 -0.0281
    1SOL     OW10985   1.434   0.081   4.537 -0.3560 -0.0113  0.2897
    1SOL    HW210986   1.351   0.126   4.553  0.4966  1.1868  1.3997
    1SOL    HW310987   1.430   0.003   4.593 -0.2299  0.6723  1.2595
    1SOL    MW410988   1.423   0.077   4.547 -0.2270  0.2370  0.5646
    1SOL     OW10989   1.815   0.356   4.601  0.3623 -0.2881 -0.3358
    1SOL    HW210990   1.783   0.267   4.588 -0.1581 -0.2174  0.4067
    1SOL    HW310991   1.738   0.411   4.584  0.4723 -0.0298  0.0000
    1SOL    MW410992   1.801   0.352   4.597  0.3080 -0.2447 -0.1936
    1SOL     OW10993   2.346   0.119   4.559  0.1704  0.6967  0.3690
    1SOL    HW210994   2.327   0.029   4.585  1.3369 -0.2505 -1.9656
    1SOL    HW310995   2.319   0.124   4.468 -0.5116  2.9274  0.6705
    1SOL    MW410996   2.340   0.108   4.550  0.2344  0.8661  0.1006
    1SOL     OW10997   1.992   0.800   4.591  0.1180  0.6172 -0.0536
    1SOL    HW210998   2.005   0.705   4.588  0.6274  0.6526  0.9064
    1SOL    HW310999   1.898   0.812   4.580  0.1435  0.0360 -0.8948
    1SOL    MW411000   1.981   0.789   4.589  0.1886  0.5451 -0.0377
    1SOL     OW11001   1.607   0.570   4.519 -0.3046  0.3262 -0.7868
    1SOL    HW211002   1.663   0.648   4.519  1.9547 -1.2459  0.6135
    1SOL    HW311003   1.527   0.599   4.562  0.6032  1.8277 -0.0517
    1SOL    MW411004   1.604   0.584   4.525  0.1134  0.3169 -0.5050
    1SOL     OW11005   1.704   1.458   4.609 -0.2777  0.0025 -0.2729
    1SOL    HW211006   1.773   1.394   4.628  0.0096  0.8145  1.4997
    1SOL    HW311007   1.626   1.406   4.595  0.1177 -0.7832  0.4087
    1SOL    MW411008   1.703   1.443   4.610 -0.1878  0.0060  0.0515
    1SOL     OW11009   1.240   1.979   4.549  0.0337  0.3595  0.5384
    1SOL    HW211010   1.299   1.904   4.550  0.9279  1.0463 -0.0792
    1SOL    HW311011   1.294   2.053   4.577 -0.7773  0.8130  0.9076
    1SOL    MW411012   1.255   1.979   4.553  0.0446  0.5099  0.5064
    1SOL     OW11013   1.707   1.728   4.544 -0.0421 -0.4253 -0.0722
    1SOL    HW211014   1.728   1.640   4.577 -2.3776 -1.2034 -0.5473
    1SOL    HW311015   1.721   1.721   4.450 -0.3747 -0.3552 -0.1285
    1SOL    MW411016   1.711   1.715   4.536 -0.3942 -0.5187 -0.1421
    1SOL     OW11017   1.442   1.783   4.603  0.2263 -0.3076 -0.3254
    1SOL    HW211018   1.447   1.805   4.696 -1.4879  0.1431 -0.3113
    1SOL    HW311019   1.533   1.770   4.576  0.6775 -1.5915  1.6716
    1SOL    MW411020   1.454   1.784   4.612  0.0597 -0.4176 -0.0601
    1SOL     OW11021   1.836   1.967   4.597  0.5934  0.0353  0.2243
    1SOL    HW211022   1.913   1.968   4.653  1.2026 -1.7704 -0.5638
    1SOL    HW311023   1.801   1.878   4.604 -0.3062  0.2777 -0.9310
    1SOL    MW411024   1.841   1.956   4.605  0.5552 -0.1709 -0.0319
    1SOL     OW11025   1.604   2.108   4.524  0.4286 -0.4585 -0.1949
    1SOL    HW211026   1.599   2.089   4.430  0.4937 -0.0877 -0.2726
    1SOL    HW311027   1.671   2.048   4.557  0.3197 -0.6746 -0.3622
    1SOL    MW411028   1.612   2.097   4.516  0.4228 -0.4377 -0.2275
    1SOL     OW11029   1.781   2.316   4.450 -0.4432  0.0562 -0.0420
    1SOL    HW211030   1.868   2.291   4.482 -0.7481  1.1331  1.6940
    1SOL    HW311031   1.725   2.242   4.475 -0.6169  0.7459  1.6864
    1SOL    MW411032   1.785   2.303   4.458 -0.5063  0.2892  0.4148
    1SOL     OW11033   2.425   2.550   4.476  0.2793 -0.0888  0.0469
    1SOL    HW211034   2.335   2.575   4.456 -0.0041 -0.5774  0.7277
    1SOL    HW311035   2.476   2.588   4.404 -0.2279  1.8932  0.6829
    1SOL    MW411036   2.420   2.559   4.464  0.1750  0.1082  0.2208
    1SOL     OW11037   2.603   2.351   4.742 -0.6758  0.2009 -0.2419
    1SOL    HW211038   2.514   2.318   4.735 -0.3956 -0.8721  0.9938
    1SOL    HW311039   2.593   2.441   4.773 -1.2849 -0.4446  1.4965
    1SOL    MW411040   2.590   2.359   4.745 -0.7191 -0.0257  0.1507
    1SOL     OW11041   1.673   4.117   4.647  0.3125  0.2269 -0.1992
    1SOL    HW211042   1.692   4.202   4.606  0.8638  0.7905  1.2040
    1SOL    HW311043   1.680   4.133   4.741  0.0270 -1.2910  0.1002
    1SOL    MW411044   1.676   4.130   4.654  0.3476  0.1011  0.0257
    1SOL     OW11045   2.344   3.162   4.491 -0.0607 -0.1461 -0.2899
    1SOL    HW211046   2.336   3.205   4.406  0.0675 -1.0975 -0.7864
    1SOL    HW311047   2.403   3.219   4.541  1.0837 -0.3768 -1.3625
    1SOL    MW411048   2.351   3.176   4.486  0.1073 -0.3021 -0.4973
    1SOL     OW11049   2.488   3.062   4.823  0.6240 -0.1521 -0.1474
    1SOL    HW211050   2.397   3.038   4.810  0.0723  0.2556  2.6005
    1SOL    HW311051   2.538   3.001   4.769 -1.2623 -0.5757 -1.4300
    1SOL    MW411052   2.483   3.051   4.814  0.3021 -0.1543  0.0458
    1SOL     OW11053   2.474   3.650   4.503 -0.0734  0.4787  0.0696
    1SOL    HW211054   2.414   3.614   4.569  0.5326  0.3110  0.5449
    1SOL    HW311055   2.442   3.738   4.487 -1.6711 -0.3146 -1.2198
    1SOL    MW411056   2.462   3.657   4.510 -0.2043  0.3521 -0.0381
    1SOL     OW11057   2.115   3.740   4.792 -0.3219  0.0602  0.2099
    1SOL    HW211058   2.197   3.690   4.791 -0.3544  0.0088  0.0219
    1SOL    HW311059   2.049   3.678   4.760 -0.3662  0.2177  0.0001
    1SOL    MW411060   2.117   3.725   4.788 -0.3321  0.0744  0.1578
    1SOL     OW11061   2.132   3.971   4.631 -0.4064 -0.4031  0.1750
    1SOL    HW211062   2.056   3.977   4.574 -0.9795  1.3369  1.0937
    1SOL    HW311063   2.111   3.898   4.690 -1.6339  0.4320  0.7962
    1SOL    MW411064   2.119   3.962   4.632 -0.6440 -0.0632  0.3786
    1SOL     OW11065   1.872   3.960   4.533 -0.2193  0.4009  0.0542
    1SOL    HW211066   1.796   4.011   4.561  0.7666  1.7475  0.3184
    1SOL    HW311067   1.876   3.973   4.438 -0.4796  0.0868 -0.0026
    1SOL    MW411068   1.863   3.968   4.524 -0.1235  0.5372  0.0815
    1SOL     OW11069   2.089   4.250   4.719 -0.6081 -0.4788 -0.3073
    1SOL    HW211070   2.100   4.156   4.711 -0.6954 -0.5353  0.2085
    1SOL    HW311071   2.014   4.261   4.777 -0.9733 -0.0925 -0.8395
    1SOL    MW411072   2.080   4.239   4.726 -0.6676 -0.4358 -0.3095
    1SOL     OW11073   1.839   4.524   4.584  0.1406 -0.0078 -0.7831
    1SOL    HW211074   1.923   4.499   4.546  1.1666  1.6409  0.3572
    1SOL    HW311075   1.837   4.480   4.668  0.3639  0.8358 -0.3311
    1SOL    MW411076   1.850   4.515   4.590  0.3054  0.3209 -0.5732
    1SOL     OW11077   2.065   4.411   4.492  0.2605 -0.0966  0.2602
    1SOL    HW211078   2.062   4.344   4.560 -0.7427  0.0985  0.4042
    1SOL    HW311079   2.150   4.453   4.505 -0.2930  0.5531  1.9851
    1SOL    MW411080   2.076   4.408   4.503  0.0551  0.0153  0.5074
    1SOL     OW11081   2.301   4.507   4.583  0.5062  0.4726  0.2728
    1SOL    HW211082   2.381   4.476   4.540  0.8754  1.7311  0.0486
    1SOL    HW311083   2.308   4.472   4.672  1.6827  1.2043  0.4824
    1SOL    MW411084   2.313   4.498   4.589  0.7100  0.7348  0.2708
    1SOL     OW11085   1.053   1.608   4.654  0.4428 -0.4588 -0.3923
    1SOL    HW211086   1.118   1.597   4.584 -0.3169 -0.3749 -1.1080
    1SOL    HW311087   1.057   1.525   4.702  2.3483  0.2034  0.6540
    1SOL    MW411088   1.062   1.596   4.651  0.5939 -0.3604 -0.3486
    1SOL     OW11089   2.665   0.129   4.542  0.4532 -0.2519 -0.0547
    1SOL    HW211090   2.573   0.136   4.569  0.5642  0.7778  0.0890
    1SOL    HW311091   2.662   0.131   4.446  0.4345  1.6154 -0.0429
    1SOL    MW411092   2.653   0.130   4.533  0.4659  0.1304 -0.0348
    1SOL     OW11093   2.430   0.816   4.664  0.3706 -0.0519  0.0134
    1SOL    HW211094   2.362   0.857   4.610  1.0218  0.6095 -0.3199
    1SOL    HW311095   2.512   0.838   4.619  0.6695 -2.7843 -0.8709
    1SOL    MW411096   2.432   0.824   4.651  0.4959 -0.3251 -0.1469
    1SOL     OW11097   2.855   0.743   4.588  0.2375 -0.1705 -0.0103
    1SOL    HW211098   2.928   0.802   4.573 -1.0762  1.6192  0.4800
    1SOL    HW311099   2.891   0.656   4.574  2.3314  0.7136 -0.2326
    1SOL    MW411100   2.869   0.739   4.584  0.3402  0.1822  0.0253
    1SOL     OW11101   2.209   1.200   4.646  0.0465 -0.3130  0.3013
    1SOL    HW211102   2.244   1.176   4.732  0.5312 -0.6545  0.0094
    1SOL    HW311103   2.271   1.264   4.611 -0.1490 -0.1746  0.2024
    1SOL    MW411104   2.222   1.205   4.653  0.0846 -0.3399  0.2494
    1SOL     OW11105   2.431   1.355   4.527  0.6145 -0.1369  0.2500
    1SOL    HW211106   2.488   1.286   4.559  0.3979  0.1104  1.1798
    1SOL    HW311107   2.448   1.430   4.584 -0.1928  0.1250  0.1598
    1SOL    MW411108   2.441   1.356   4.538  0.4795 -0.0697  0.3605
    1SOL     OW11109   2.467   1.556   4.723  0.4744  0.1449  0.7356
    1SOL    HW211110   2.454   1.490   4.790  2.2672 -0.0974  0.8761
    1SOL    HW311111   2.397   1.620   4.737 -0.5033 -1.0578  1.3952
    1SOL    MW411112   2.456   1.556   4.733  0.5820 -0.0458  0.8416
    1SOL     OW11113   2.247   1.877   4.449 -0.3200  0.1141 -0.4494
    1SOL    HW211114   2.174   1.936   4.429 -0.7171 -0.4633 -0.6944
    1SOL    HW311115   2.226   1.841   4.535 -0.9399 -1.0037 -1.0667
    1SOL    MW411116   2.235   1.880   4.458 -0.4544 -0.1096 -0.5631
    1SOL     OW11117   2.020   2.069   4.398 -0.0254  0.0093  0.3296
    1SOL    HW211118   1.961   2.026   4.461 -1.2282  0.4668 -0.4584
    1SOL    HW311119   2.046   2.150   4.442 -0.0396 -0.1608  0.6584
    1SOL    MW411120   2.016   2.074   4.412 -0.1860  0.0472  0.2689
    1SOL     OW11121   2.471   2.035   4.524 -0.3011 -0.0988  0.0487
    1SOL    HW211122   2.433   2.122   4.539  0.0932  0.1382 -0.3148
    1SOL    HW311123   2.402   1.974   4.550 -0.5821  0.3227  0.3024
    1SOL    MW411124   2.456   2.039   4.530 -0.2861 -0.0119  0.0339
    1SOL     OW11125   2.775   2.428   4.533 -0.2191 -0.2096  0.6828
    1SOL    HW211126   2.738   2.401   4.617  1.3232 -0.7690  1.2123
    1SOL    HW311127   2.793   2.521   4.544 -2.9074  0.4362 -0.1401
    1SOL    MW411128   2.773   2.437   4.546 -0.3705 -0.1984  0.6437
    1SOL     OW11129   1.953   2.992   4.611 -0.3452 -0.6202 -0.5011
    1SOL    HW211130   1.966   2.912   4.561 -0.4175 -0.8960 -0.0804
    1SOL    HW311131   2.038   3.008   4.653  0.5365  1.0777 -2.8239
    1SOL    MW411132   1.966   2.984   4.610 -0.2383 -0.4323 -0.7524
    1SOL     OW11133   2.399   2.894   4.468  0.8086  0.4255  0.9848
    1SOL    HW211134   2.379   2.987   4.469  0.6035  0.3880  0.2789
    1SOL    HW311135   2.321   2.852   4.505 -0.4077  0.2864 -1.6697
    1SOL    MW411136   2.386   2.901   4.473  0.6211  0.4022  0.5407
    1SOL     OW11137   2.518   2.621   4.723 -0.0115  0.0510 -0.2297
    1SOL    HW211138   2.488   2.596   4.635  0.2104 -0.6417 -0.1137
    1SOL    HW311139   2.438   2.622   4.776  0.2111 -2.4620  0.2379
    1SOL    MW411140   2.503   2.618   4.718  0.0472 -0.3719 -0.1526
    1SOL     OW11141   2.458   3.313   4.685  0.2026 -0.2449 -0.0462
    1SOL    HW211142   2.546   3.317   4.647  1.0100 -1.1542  1.7021
    1SOL    HW311143   2.465   3.250   4.756 -1.9675 -0.5997 -0.1107
    1SOL    MW411144   2.471   3.305   4.689  0.0231 -0.4115  0.1760
    1SOL     OW11145   1.351   4.330   4.876 -0.4116  0.4402 -0.1760
    1SOL    HW211146   1.368   4.406   4.820 -2.0629  0.8177 -0.1938
    1SOL    HW311147   1.302   4.269   4.820  0.0425 -0.2189  0.1332
    1SOL    MW411148   1.347   4.332   4.861 -0.5696  0.4025 -0.1369
    1SOL     OW11149   2.563   4.074   4.493  0.4117  0.3230 -0.3845
    1SOL    HW211150   2.496   4.014   4.525 -0.7529  1.7688 -0.0507
    1SOL    HW311151   2.604   4.028   4.420 -1.2859 -0.3857 -0.9150
    1SOL    MW411152   2.560   4.060   4.488  0.0343  0.4206 -0.4106
    1SOL     OW11153   2.217   3.007   4.722 -0.5497 -0.5315 -0.0346
    1SOL    HW211154   2.265   3.068   4.665 -1.7766  0.3850 -0.1129
    1SOL    HW311155   2.215   2.925   4.673 -0.1684 -0.2161 -0.5874
    1SOL    MW411156   2.223   3.004   4.708 -0.6614 -0.3688 -0.1178
    1SOL     OW11157   3.463   3.971   4.821  0.2785 -0.3554  0.9418
    1SOL    HW211158   3.395   4.034   4.795  0.1049 -0.3762  1.3385
    1SOL    HW311159   3.451   3.961   4.916  0.3157 -0.9705  0.8831
    1SOL    MW411160   3.452   3.978   4.830  0.2606 -0.4394  0.9866
    1SOL     OW11161   3.166   3.952   4.577  0.0236  0.0058  0.3429
    1SOL    HW211162   3.087   3.908   4.608 -0.4337  0.8265  0.3744
    1SOL    HW311163   3.233   3.884   4.575 -0.6301 -0.6481  0.5306
    1SOL    MW411164   3.164   3.937   4.581 -0.1228  0.0279  0.3719
    1SOL     OW11165   2.338   3.886   4.469  0.1422 -0.2588  0.0047
    1SOL    HW211166   2.273   3.924   4.528 -0.9803 -0.9816 -0.7413
    1SOL    HW311167   2.322   3.928   4.385  2.8017  1.9800  0.5392
    1SOL    MW411168   2.327   3.896   4.466  0.3448 -0.0587 -0.0229
    1SOL     OW11169   2.526   4.365   4.480  0.3004 -0.2056  0.0376
    1SOL    HW211170   2.544   4.272   4.491 -0.4966 -0.3284  0.3421
    1SOL    HW311171   2.521   4.377   4.385  0.4313 -0.4670 -0.0032
    1SOL    MW411172   2.528   4.354   4.469  0.2127 -0.2565  0.0730
    1SOL     OW11173   2.968   0.485   4.573  0.4139  0.3290 -0.0097
    1SOL    HW211174   3.058   0.516   4.561  0.9911 -1.7267 -1.3280
    1SOL    HW311175   2.933   0.479   4.484 -0.7792  0.4045  0.4509
    1SOL    MW411176   2.975   0.488   4.560  0.3326  0.0677 -0.1225
    1SOL     OW11177   2.755   4.527   4.538 -0.0841 -0.2409  0.4185
    1SOL    HW211178   2.672   4.479   4.541  0.7259 -1.6112  2.1369
    1SOL    HW311179   2.732   4.617   4.558 -1.1879 -0.6005  0.7875
    1SOL    MW411180   2.741   4.532   4.541 -0.1230 -0.4687  0.6943
    1SOL     OW11181   3.020   0.186   4.629 -0.1052 -0.1121  0.4029
    1SOL    HW211182   2.936   0.156   4.664 -1.6121  0.9911 -2.0613
    1SOL    HW311183   3.005   0.279   4.610  0.9177 -0.4290 -2.1485
    1SOL    MW411184   3.007   0.195   4.631 -0.1690 -0.0084 -0.2584
    1SOL     OW11185   2.641   0.913   4.513  0.0700  0.2952 -0.6487
    1SOL    HW211186   2.708   0.858   4.555  0.8355  2.5144  1.1469
    1SOL    HW311187   2.658   0.905   4.419  1.3960 -0.9870 -0.3087
    1SOL    MW411188   2.652   0.905   4.506  0.3462  0.4188 -0.3672
    1SOL     OW11189   3.513   0.673   4.745  0.3404  0.1875 -0.6813
    1SOL    HW211190   3.522   0.604   4.679  0.5814  1.2233 -1.7398
    1SOL    HW311191   3.600   0.710   4.753  0.4648 -0.3603  0.7227
    1SOL    MW411192   3.525   0.669   4.738  0.3884  0.2519 -0.6361
    1SOL     OW11193   2.224   0.954   4.514  0.1187  0.3659  0.2019
    1SOL    HW211194   2.214   1.034   4.565  0.4505  1.1207 -0.8991
    1SOL    HW311195   2.145   0.903   4.533 -0.3445  1.1913  0.4973
    1SOL    MW411196   2.212   0.958   4.523  0.1013  0.5743  0.0963
    1SOL     OW11197   2.618   1.164   4.610  0.2802  0.0156  0.2620
    1SOL    HW211198   2.697   1.217   4.600 -0.3108  0.6468 -1.3626
    1SOL    HW311199   2.642   1.078   4.577  0.0292  0.4826 -1.1931
    1SOL    MW411200   2.631   1.160   4.604  0.1688  0.1605 -0.1445
    1SOL     OW11201   2.826   1.314   4.559 -0.2246  0.0602 -0.2229
    1SOL    HW211202   2.807   1.391   4.612  1.9355  0.3642  0.1235
    1SOL    HW311203   2.829   1.347   4.469 -1.3267  0.0002 -0.2890
    1SOL    MW411204   2.824   1.329   4.554 -0.0851  0.0925 -0.1855
    1SOL     OW11205   2.753   1.559   4.681 -0.0497 -0.9509 -0.4091
    1SOL    HW211206   2.782   1.613   4.608 -1.0346  1.1162  0.6839
    1SOL    HW311207   2.660   1.545   4.665 -0.0544 -1.3262 -0.0628
    1SOL    MW411208   2.745   1.565   4.670 -0.1802 -0.7278 -0.2193
    1SOL     OW11209   2.855   1.707   4.483  0.2764  0.1964 -0.0556
    1SOL    HW211210   2.834   1.794   4.516 -0.5125  0.3305 -0.9095
    1SOL    HW311211   2.792   1.691   4.413  0.6121 -0.9349 -0.1187
    1SOL    MW411212   2.844   1.716   4.478  0.2167  0.0650 -0.1764
    1SOL     OW11213   2.731   1.945   4.587  0.1776 -0.2610 -0.2424
    1SOL    HW211214   2.646   1.987   4.581  0.9319  1.0696 -1.8993
    1SOL    HW311215   2.795   2.016   4.575  1.5126 -1.3310  0.3259
    1SOL    MW411216   2.728   1.960   4.585  0.4532 -0.2266 -0.3862
    1SOL     OW11217   2.927   2.131   4.514  0.1910  0.2609  0.0096
    1SOL    HW211218   2.875   2.211   4.502 -0.8070 -0.3995 -0.0735
    1SOL    HW311219   2.939   2.097   4.425  0.6927  0.3635  0.0372
    1SOL    MW411220   2.921   2.137   4.501  0.1256  0.1874  0.0019
    1SOL     OW11221   3.173   2.180   4.626 -0.0475  0.4274  0.2793
    1SOL    HW211222   3.172   2.159   4.720  0.3112  0.7255  0.3509
    1SOL    HW311223   3.085   2.158   4.596 -0.2761  0.6700  0.7616
    1SOL    MW411224   3.161   2.174   4.635 -0.0305  0.4988  0.3524
    1SOL     OW11225   2.345   2.285   4.542 -0.3087 -0.5256  0.3920
    1SOL    HW211226   2.373   2.376   4.532  2.0794 -1.3487 -0.8370
    1SOL    HW311227   2.254   2.284   4.512 -0.6271  1.5774  1.1719
    1SOL    MW411228   2.337   2.297   4.537 -0.0358 -0.3567  0.3324
    1SOL     OW11229   3.076   2.960   4.738  0.0541  0.1052 -0.2638
    1SOL    HW211230   3.140   3.028   4.717 -0.2566  0.6657  0.5454
    1SOL    HW311231   3.101   2.886   4.684  1.7327  0.1246  0.4407
    1SOL    MW411232   3.088   2.960   4.728  0.2346  0.1817 -0.0639
    1SOL     OW11233   2.612   2.877   4.651 -0.0243  0.3555 -0.0250
    1SOL    HW211234   2.547   2.889   4.581 -0.9020  0.6411  0.8247
    1SOL    HW311235   2.589   2.793   4.691 -0.1323  0.6705  0.5661
    1SOL    MW411236   2.600   2.867   4.647 -0.1545  0.4349  0.1655
    1SOL     OW11237   2.713   3.324   4.548  0.3239 -0.0715 -0.7427
    1SOL    HW211238   2.751   3.251   4.596  0.9554  0.1556 -0.8988
    1SOL    HW311239   2.715   3.297   4.457 -0.1417 -0.1706 -0.7257
    1SOL    MW411240   2.718   3.311   4.543  0.3459 -0.0546 -0.7606
    1SOL     OW11241   2.824   3.062   4.607  0.1621  0.3346 -0.2643
    1SOL    HW211242   2.903   3.043   4.657  0.2644 -1.3173 -1.0168
    1SOL    HW311243   2.759   3.000   4.639 -0.7163  1.4152  0.0645
    1SOL    MW411244   2.826   3.052   4.618  0.0596  0.2594 -0.3200
    1SOL     OW11245   2.927   3.827   4.646 -0.3530  0.3031  0.0371
    1SOL    HW211246   2.941   3.820   4.740  0.3527  0.3026 -0.0590
    1SOL    HW311247   2.877   3.749   4.623 -1.4495  0.8367  0.5706
    1SOL    MW411248   2.923   3.816   4.655 -0.4046  0.3736  0.0949
    1SOL     OW11249   3.419   3.809   4.590  0.2093  0.0315  0.1971
    1SOL    HW211250   3.426   3.715   4.610 -0.4482  0.2723  1.6034
    1SOL    HW311251   3.425   3.852   4.674  0.5111  1.2699 -0.4512
    1SOL    MW411252   3.420   3.802   4.603  0.1626  0.2265  0.2975
    1SOL     OW11253   3.875   3.793   4.687  0.5192 -0.3371  0.1019
    1SOL    HW211254   3.962   3.764   4.714 -0.1616 -2.2968  0.3284
    1SOL    HW311255   3.831   3.712   4.659 -1.4612  0.4983  0.6950
    1SOL    MW411256   3.880   3.778   4.687  0.1683 -0.4854  0.2103
    1SOL     OW11257   2.751   3.612   4.568  0.1385  0.5156 -0.1331
    1SOL    HW211258   2.661   3.645   4.571 -0.1540 -0.3824  1.0214
    1SOL    HW311259   2.742   3.517   4.563  1.0214  0.4281 -0.1090
    1SOL    MW411260   2.738   3.604   4.568  0.2162  0.3855  0.0229
    1SOL     OW11261   2.860   4.114   4.552 -0.0379 -0.5237  0.0001
    1SOL    HW211262   2.766   4.121   4.564 -0.0907 -1.3991  0.1331
    1SOL    HW311263   2.875   4.021   4.534  0.8998 -0.5557  0.9015
    1SOL    MW411264   2.850   4.102   4.551  0.0787 -0.6442  0.1364
    1SOL     OW11265   3.014   4.359   4.500  0.1548 -0.0291 -0.4981
    1SOL    HW211266   2.964   4.278   4.512 -0.4123  0.2220 -1.1321
    1SOL    HW311267   2.952   4.429   4.519  0.5036  0.2720 -0.4531
    1SOL    MW411268   2.999   4.357   4.505  0.1261  0.0429 -0.5760
    1SOL     OW11269   3.278   0.586   4.499  0.3463 -0.2273 -0.4646
    1SOL    HW211270   3.296   0.580   4.405  0.1256 -0.3986 -0.4973
    1SOL    HW311271   3.309   0.673   4.525 -1.3213  0.5701 -1.0774
    1SOL    MW411272   3.284   0.596   4.490  0.0973 -0.1447 -0.5503
    1SOL     OW11273   2.473   0.557   4.558  0.0449  0.2020 -0.3381
    1SOL    HW211274   2.539   0.512   4.611 -0.2451  0.6290  0.4087
    1SOL    HW311275   2.461   0.641   4.603  0.1806  0.7991 -1.3903
    1SOL    MW411276   2.480   0.562   4.571  0.0243  0.3371 -0.3786
    1SOL     OW11277   2.444   1.075   4.796  0.4797 -0.3059  0.0980
    1SOL    HW211278   2.434   0.982   4.775  1.2552 -0.4270  0.2356
    1SOL    HW311279   2.500   1.110   4.727  0.0725  0.0918 -0.0330
    1SOL    MW411280   2.450   1.067   4.784  0.5283 -0.2694  0.0987
    1SOL     OW11281   2.714   0.398   4.667  0.0005  0.0261 -0.4939
    1SOL    HW211282   2.804   0.427   4.654  0.4781 -1.6006 -0.9695
    1SOL    HW311283   2.711   0.312   4.626 -1.6631 -0.1108 -0.1075
    1SOL    MW411284   2.725   0.391   4.660 -0.1559 -0.2065 -0.5059
    1SOL     OW11285   3.346   0.840   4.609 -0.2095 -0.0276  0.2301
    1SOL    HW211286   3.403   0.908   4.572 -0.0799  0.4943  1.3628
    1SOL    HW311287   3.399   0.798   4.676 -0.1370 -1.5795 -0.7761
    1SOL    MW411288   3.361   0.844   4.613 -0.1829 -0.1635  0.2465
    1SOL     OW11289   3.326   1.247   4.504 -0.3646 -0.2044 -0.0509
    1SOL    HW211290   3.257   1.233   4.569  0.4885  0.5028  1.0453
    1SOL    HW311291   3.384   1.172   4.513  0.5120  0.5682  1.0272
    1SOL    MW411292   3.325   1.235   4.514 -0.1364 -0.0092  0.2360
    1SOL     OW11293   2.704   1.793   4.833 -0.4459 -0.3061 -0.1631
    1SOL    HW211294   2.712   1.849   4.756  0.4635 -0.1127  0.0587
    1SOL    HW311295   2.725   1.705   4.802  1.6496  0.0298  0.1859
    1SOL    MW411296   2.708   1.789   4.819 -0.0494 -0.2364 -0.0877
    1SOL     OW11297   4.027   1.062   4.551  0.3582 -0.2728  0.1445
    1SOL    HW211298   4.047   1.094   4.639  1.1185 -0.5000  0.0593
    1SOL    HW311299   4.072   0.978   4.545 -2.0021 -1.6138  0.5269
    1SOL    MW411300   4.036   1.055   4.562  0.1478 -0.4798  0.1841
    1SOL     OW11301   3.410   1.524   4.533 -0.6515  0.1665 -0.0748
    1SOL    HW211302   3.326   1.570   4.538 -0.7250  0.1522 -1.1441
    1SOL    HW311303   3.386   1.431   4.529 -0.5157  0.0300  1.5845
    1SOL    MW411304   3.396   1.518   4.533 -0.6435  0.1466  0.0029
    1SOL     OW11305   3.166   1.666   4.538  0.4357 -0.0937 -0.4514
    1SOL    HW211306   3.211   1.749   4.548 -0.5099  0.1253  2.3415
    1SOL    HW311307   3.074   1.690   4.524  0.1435 -0.6535  0.4679
    1SOL    MW411308   3.159   1.680   4.537  0.2723 -0.1388  0.0386
    1SOL     OW11309   3.284   1.927   4.534  0.2705 -0.1716 -0.2383
    1SOL    HW211310   3.240   2.010   4.553 -1.0138 -0.7543 -0.5765
    1SOL    HW311311   3.317   1.938   4.445  1.3400  0.4889  0.2346
    1SOL    MW411312   3.283   1.940   4.525  0.2425 -0.1614 -0.2208
    1SOL     OW11313   3.751   1.838   4.690  0.2576 -0.1906 -0.3598
    1SOL    HW211314   3.672   1.891   4.696  0.2349 -0.3021  0.4305
    1SOL    HW311315   3.753   1.789   4.772  1.1028 -0.2426 -0.4045
    1SOL    MW411316   3.741   1.839   4.701  0.3660 -0.2122 -0.2618
    1SOL     OW11317   2.840   2.713   4.530  0.3577  0.1960 -0.3284
    1SOL    HW211318   2.791   2.785   4.570 -0.6296 -0.7994  0.2779
    1SOL    HW311319   2.930   2.725   4.560 -0.4543 -0.9072  2.7997
    1SOL    MW411320   2.845   2.724   4.539  0.1202 -0.0811  0.1645
    1SOL     OW11321   3.496   2.404   4.570 -0.2008 -0.6156 -0.0984
    1SOL    HW211322   3.401   2.398   4.575 -0.1338 -0.4310  1.5003
    1SOL    HW311323   3.516   2.497   4.584  0.2652 -0.7945  0.4506
    1SOL    MW411324   3.486   2.416   4.573 -0.1304 -0.6146  0.1855
    1SOL     OW11325   3.215   2.438   4.538  0.3050 -0.0551  0.2016
    1SOL    HW211326   3.197   2.434   4.444  0.4681 -1.5599  0.2119
    1SOL    HW311327   3.179   2.356   4.572 -1.2694  1.2387  1.7319
    1SOL    MW411328   3.208   2.426   4.530  0.1185 -0.0832  0.4048
    1SOL     OW11329   3.574   2.681   4.619 -0.5661 -0.0259  0.2167
    1SOL    HW211330   3.603   2.691   4.710  0.1484  0.6277 -0.0739
    1SOL    HW311331   3.629   2.742   4.570 -3.0765  1.9678 -0.2166
    1SOL    MW411332   3.585   2.691   4.625 -0.8030  0.3233  0.1216
    1SOL     OW11333   3.286   3.106   4.613  0.1133 -0.1968  0.2358
    1SOL    HW211334   3.331   3.023   4.597 -0.9266 -1.0449  1.5719
    1SOL    HW311335   3.276   3.145   4.527  1.4195 -1.0434 -0.3076
    1SOL    MW411336   3.291   3.100   4.600  0.1485 -0.4201  0.3409
    1SOL     OW11337   3.363   2.841   4.492 -0.1644  0.1897 -0.3254
    1SOL    HW211338   3.388   2.840   4.400  2.0755 -1.4358  0.2602
    1SOL    HW311339   3.425   2.782   4.535 -3.0835 -1.5074  1.7561
    1SOL    MW411340   3.374   2.833   4.486 -0.2542 -0.2489  0.0267
    1SOL     OW11341   4.019   2.509   4.538  0.0102 -0.3115 -0.1124
    1SOL    HW211342   4.081   2.465   4.597  0.5581  0.3938 -0.1480
    1SOL    HW311343   3.950   2.445   4.524  0.9494 -1.2790 -0.4081
    1SOL    MW411344   4.018   2.495   4.544  0.2069 -0.3457 -0.1564
    1SOL     OW11345   3.699   3.153   4.552  0.2677  0.3505 -0.6392
    1SOL    HW211346   3.780   3.203   4.552  0.8210 -0.5006 -2.5303
    1SOL    HW311347   3.669   3.155   4.461 -0.8727 -0.8824 -0.3095
    1SOL    MW411348   3.705   3.160   4.540  0.1900  0.0753 -0.8450
    1SOL     OW11349   3.574   4.001   4.460  0.0292  0.2606 -0.3974
    1SOL    HW211350   3.640   4.019   4.527  0.5653 -2.0448 -0.2731
    1SOL    HW311351   3.521   3.930   4.497 -1.7138  1.1988 -1.0472
    1SOL    MW411352   3.575   3.994   4.474 -0.1299  0.0803 -0.4668
    1SOL     OW11353   3.267   4.153   4.757 -0.0071 -0.3548  0.4111
    1SOL    HW211354   3.184   4.146   4.711 -0.1671 -0.0481  0.6505
    1SOL    HW311355   3.293   4.245   4.746  0.6950 -0.6462 -0.3428
    1SOL    MW411356   3.260   4.164   4.749  0.0644 -0.3533  0.3433
    1SOL     OW11357   3.263   4.432   4.618 -0.5018  0.1843  0.4917
    1SOL    HW211358   3.324   4.389   4.559  0.1569  1.5496  0.1482
    1SOL    HW311359   3.177   4.399   4.591 -0.1017 -0.1011 -0.4575
    1SOL    MW411360   3.259   4.422   4.606 -0.3622  0.3262  0.3219
    1SOL     OW11361   3.474   4.285   4.491 -0.0291 -0.1756  0.0960
    1SOL    HW211362   3.488   4.191   4.490 -0.2312 -0.2082  0.4554
    1SOL    HW311363   3.561   4.322   4.507  0.4166 -0.2267 -2.0596
    1SOL    MW411364   3.487   4.278   4.493  0.0031 -0.1864 -0.1407
    1SOL     OW11365   3.714   4.031   4.701  0.5041 -0.0049 -0.2207
    1SOL    HW211366   3.762   3.954   4.730 -1.3313 -0.0337  3.0074
    1SOL    HW311367   3.626   4.019   4.736 -0.4989  2.3901 -1.7838
    1SOL    MW411368   3.709   4.020   4.709  0.1295  0.3071 -0.0014
    1SOL     OW11369   3.487   0.171   4.636 -0.1049 -0.2707 -0.1533
    1SOL    HW211370   3.454   0.207   4.719 -0.0214  1.5910 -0.8968
    1SOL    HW311371   3.409   0.136   4.593 -0.1548 -1.2236  0.6780
    1SOL    MW411372   3.472   0.171   4.641 -0.1006 -0.1508 -0.1416
    1SOL     OW11373   3.076   0.926   4.560 -0.3438  0.2043  0.4573
    1SOL    HW211374   3.074   1.008   4.610  0.5883  1.4203 -1.4314
    1SOL    HW311375   3.167   0.896   4.566  0.1201  1.1189 -1.6580
    1SOL    MW411376   3.087   0.933   4.568 -0.1595  0.4854 -0.0715
    1SOL     OW11377   3.073   1.197   4.657  0.1441  0.5415  0.0619
    1SOL    HW211378   3.093   1.233   4.743  0.8953 -0.4362  0.3011
    1SOL    HW311379   2.992   1.241   4.631 -1.7188 -1.2984  2.5452
    1SOL    MW411380   3.065   1.208   4.665 -0.0024  0.1699  0.4210
    1SOL     OW11381   4.061   1.411   4.635  0.0567 -0.1505 -0.3450
    1SOL    HW211382   4.117   1.361   4.575  0.0576  0.8909 -1.2416
    1SOL    HW311383   3.973   1.377   4.620  0.1527 -0.3473 -0.4661
    1SOL    MW411384   4.057   1.400   4.625  0.0696 -0.0390 -0.4792
    1SOL     OW11385   3.759   1.099   4.569 -0.5134 -0.1099 -0.2904
    1SOL    HW211386   3.752   1.194   4.569 -0.8951 -0.1256  0.8967
    1SOL    HW311387   3.852   1.082   4.554 -0.2349  0.4798  0.7470
    1SOL    MW411388   3.770   1.109   4.567 -0.5269 -0.0342  0.0038
    1SOL     OW11389   4.092   0.802   4.514 -0.5951  0.2916 -0.3628
    1SOL    HW211390   4.136   0.718   4.532  1.1266  0.9964 -1.0867
    1SOL    HW311391   4.078   0.800   4.419  1.0802  1.5594 -0.6584
    1SOL    MW411392   4.096   0.791   4.504 -0.1469  0.5519 -0.4969
    1SOL     OW11393   4.222   0.531   4.586  0.0033 -0.4912 -0.5443
    1SOL    HW211394   4.166   0.475   4.641  1.7193 -0.4567  1.3288
    1SOL    HW311395   4.220   0.489   4.500 -2.8067 -0.5254 -0.5138
    1SOL    MW411396   4.214   0.518   4.582 -0.1411 -0.4911 -0.2933
    1SOL     OW11397   3.655   1.636   4.465 -0.5370  0.2731 -0.6744
    1SOL    HW211398   3.683   1.699   4.532  0.0377 -0.1306 -0.5252
    1SOL    HW311399   3.566   1.611   4.490  0.0070 -0.5813  0.4815
    1SOL    MW411400   3.647   1.641   4.477 -0.3893  0.1070 -0.5021
    1SOL     OW11401   4.006   1.871   4.575  0.5966  0.1640  0.1985
    1SOL    HW211402   3.923   1.868   4.624  0.6072  1.1629  0.2947
    1SOL    HW311403   4.059   1.936   4.622  1.2297 -0.0779 -0.1804
    1SOL    MW411404   4.002   1.880   4.588  0.6809  0.2639  0.1612
    1SOL     OW11405   3.537   1.996   4.628 -0.7539 -0.0110 -0.1194
    1SOL    HW211406   3.565   1.999   4.536 -0.9285 -0.0787 -0.1746
    1SOL    HW311407   3.445   1.971   4.624 -0.6648 -0.3721  0.0909
    1SOL    MW411408   3.529   1.993   4.615 -0.7651 -0.0676 -0.0997
    1SOL     OW11409   4.165   2.125   4.641  0.0655 -0.4600  0.0545
    1SOL    HW211410   4.224   2.081   4.580  1.0341 -0.0795  0.7069
    1SOL    HW311411   4.204   2.212   4.654 -0.8569 -0.0555  0.1769
    1SOL    MW411412   4.178   2.131   4.635  0.0715 -0.3564  0.1569
    1SOL     OW11413   4.394   1.535   4.390  0.1233 -1.1591  0.3883
    1SOL    HW211414   4.352   1.488   4.318  1.9382 -0.9457 -0.8431
    1SOL    HW311415   4.326   1.595   4.422 -0.2537 -0.1250 -2.1919
    1SOL    MW411416   4.380   1.537   4.385  0.3133 -0.9943 -0.1144
    1SOL     OW11417   3.900   2.253   4.552  0.6382 -0.1139  0.0088
    1SOL    HW211418   3.977   2.210   4.589 -0.3941  0.0356  2.4612
    1SOL    HW311419   3.830   2.234   4.615 -1.1200  0.4778 -1.7356
    1SOL    MW411420   3.901   2.245   4.566  0.2701 -0.0162  0.1030
    1SOL     OW11421   3.709   2.760   4.846  0.3547  0.1871 -0.4895
    1SOL    HW211422   3.791   2.714   4.864  0.3057 -0.0352 -0.8263
    1SOL    HW311423   3.723   2.848   4.881  0.5634  0.0114 -0.1238
    1SOL    MW411424   3.722   2.766   4.853  0.3757  0.1347 -0.4864
    1SOL     OW11425   3.755   2.885   4.485 -0.2567 -0.0031 -0.0876
    1SOL    HW211426   3.845   2.858   4.507 -0.5105  0.3186  1.3656
    1SOL    HW311427   3.745   2.971   4.525 -1.7689 -0.7637  1.2278
    1SOL    MW411428   3.766   2.892   4.493 -0.4897 -0.0610  0.2780
    1SOL     OW11429   3.991   2.778   4.580 -0.1281 -0.2771  0.2117
    1SOL    HW211430   4.011   2.690   4.550  0.7807 -0.2029  0.5682
    1SOL    HW311431   4.072   2.827   4.563 -0.0476  0.0756  1.5805
    1SOL    MW411432   4.005   2.773   4.574  0.0024 -0.2205  0.4392
    1SOL     OW11433   3.511   3.295   4.708  0.1390  0.2765 -0.1128
    1SOL    HW211434   3.442   3.239   4.745 -1.0520  1.7933  0.0247
    1SOL    HW311435   3.576   3.234   4.675 -1.4408 -1.2222 -0.5465
    1SOL    MW411436   3.510   3.279   4.709 -0.2265  0.2789 -0.1516
    1SOL     OW11437   3.947   3.341   4.615  0.0324  0.0979  0.3524
    1SOL    HW211438   4.003   3.376   4.684  0.3450  0.8959 -0.2979
    1SOL    HW311439   4.005   3.283   4.564  0.3458  1.1313 -0.4809
    1SOL    MW411440   3.962   3.338   4.617  0.1149  0.3393  0.1569
    1SOL     OW11441   3.501   3.519   4.534  0.0343 -0.1294  0.5607
    1SOL    HW211442   3.489   3.438   4.584  0.1038  0.5548  1.7203
    1SOL    HW311443   3.596   3.532   4.532  0.0692 -0.5219 -0.3587
    1SOL    MW411444   3.512   3.510   4.541  0.0479 -0.0906  0.5922
    1SOL     OW11445   3.780   3.549   4.530 -0.2954 -0.2027  0.0564
    1SOL    HW211446   3.820   3.571   4.446 -0.3879  0.9802  0.3089
    1SOL    HW311447   3.810   3.461   4.549  1.4075  0.3017 -0.2335
    1SOL    MW411448   3.789   3.541   4.522 -0.0830  0.0200  0.0510
    1SOL     OW11449   4.424   2.736   4.608 -0.1752 -0.4782  0.5762
    1SOL    HW211450   4.503   2.780   4.576 -0.7734 -0.5313 -0.9998
    1SOL    HW311451   4.430   2.647   4.575 -1.0185 -0.4136  0.2405
    1SOL    MW411452   4.435   2.730   4.600 -0.3653 -0.4766  0.3242
    1SOL     OW11453   4.030   3.984   4.540 -0.0656  0.5048 -0.4719
    1SOL    HW211454   3.991   4.068   4.565 -0.2967  0.4146 -0.5254
    1SOL    HW311455   3.969   3.919   4.573  0.7394  0.3200  0.6540
    1SOL    MW411456   4.017   3.987   4.548  0.0100  0.4685 -0.3309
    1SOL     OW11457   3.720   4.393   4.499 -0.3744 -0.0414 -0.5534
    1SOL    HW211458   3.762   4.389   4.413  0.3584 -0.2726 -0.1877
    1SOL    HW311459   3.726   4.485   4.525  0.5906 -0.2114 -0.1656
    1SOL    MW411460   3.726   4.405   4.491 -0.1504 -0.0944 -0.4539
    1SOL     OW11461   3.250   0.051   4.543 -0.2164 -0.3942 -0.0376
    1SOL    HW211462   3.247  -0.037   4.579  0.0785 -0.6119 -0.5485
    1SOL    HW311463   3.173   0.095   4.579  1.1472  0.0125  2.5167
    1SOL    MW411464   3.240   0.045   4.553  0.0021 -0.3693  0.2322
    1SOL     OW11465   3.500   1.042   4.491 -0.2474 -0.1834 -0.0041
    1SOL    HW211466   3.589   1.061   4.521 -0.2962  0.9431 -0.5390
    1SOL    HW311467   3.512   0.989   4.413 -0.0208  0.6388 -0.5346
    1SOL    MW411468   3.513   1.038   4.485 -0.2236  0.0737 -0.1450
    1SOL     OW11469   3.835   0.773   4.604 -0.3184 -0.2027  0.0259
    1SOL    HW211470   3.926   0.792   4.582 -0.4146 -0.4881 -0.6420
    1SOL    HW311471   3.792   0.859   4.601  0.2106  0.1542  1.8074
    1SOL    MW411472   3.841   0.787   4.601 -0.2613 -0.1932  0.1726
    1SOL     OW11473   4.476   0.394   4.636  0.5322  0.2040 -0.2395
    1SOL    HW211474   4.401   0.442   4.601 -1.2391 -0.6902  2.1501
    1SOL    HW311475   4.552   0.429   4.590 -1.2223  2.0338 -1.7938
    1SOL    MW411476   4.476   0.405   4.626  0.0672  0.3274 -0.1287
    1SOL     OW11477   0.211   0.494   4.528 -0.0773 -0.3161 -0.0359
    1SOL    HW211478   0.298   0.468   4.560  0.3569  1.0421 -0.0976
    1SOL    HW311479   0.221   0.493   4.432 -0.2351 -0.5117 -0.0500
    1SOL    MW411480   0.224   0.490   4.519 -0.0408 -0.1627 -0.0458
    1SOL     OW11481   4.054   0.339   4.710  0.3394 -0.1532 -0.1162
    1SOL    HW211482   4.034   0.264   4.655  0.3404  0.9136 -1.6144
    1SOL    HW311483   3.976   0.395   4.704  0.9554  0.7020 -0.2923
    1SOL    MW411484   4.041   0.337   4.702  0.4206  0.1004 -0.3366
    1SOL     OW11485   3.793   1.366   4.523 -0.1443 -0.3994 -0.2206
    1SOL    HW211486   3.813   1.328   4.437  1.8176  1.0991 -0.4509
    1SOL    HW311487   3.760   1.454   4.503  1.9940  0.6162  0.6324
    1SOL    MW411488   3.791   1.372   4.509  0.3965 -0.0677 -0.1388
    1SOL     OW11489   4.469   1.176   4.641 -0.2564  0.2073  0.5666
    1SOL    HW211490   4.526   1.222   4.580 -0.0117 -1.4639 -0.4848
    1SOL    HW311491   4.526   1.114   4.686 -1.1762 -1.3118 -0.3202
    1SOL    MW411492   4.484   1.174   4.639 -0.3457 -0.2135  0.3109
    1SOL     OW11493   0.349   1.468   4.613 -0.3439 -0.2219 -0.4238
    1SOL    HW211494   0.384   1.545   4.569  0.3966  1.0202  2.2774
    1SOL    HW311495   0.423   1.408   4.619 -0.1893  0.0102  0.0052
    1SOL    MW411496   0.363   1.470   4.608 -0.2258 -0.0274 -0.0114
    1SOL     OW11497   4.134   1.639   4.465  0.1801 -0.2528 -0.3254
    1SOL    HW211498   4.117   1.571   4.530  0.7891 -0.3572 -0.2655
    1SOL    HW311499   4.105   1.720   4.505 -1.5274 -0.6206 -0.8089
    1SOL    MW411500   4.128   1.641   4.479  0.0353 -0.3152 -0.3810
    1SOL     OW11501   3.119   2.710   4.530  0.1752 -0.5929  0.1654
    1SOL    HW211502   3.201   2.757   4.516  0.1182 -0.4000  0.4750
    1SOL    HW311503   3.145   2.621   4.554  0.2836 -0.7091 -0.3684
    1SOL    MW411504   3.133   2.704   4.531  0.1822 -0.5829  0.1359
    1SOL     OW11505   4.276   2.111   4.203  0.2505  0.0659  0.2236
    1SOL    HW211506   4.202   2.052   4.190 -0.4799  0.9110  0.5484
    1SOL    HW311507   4.299   2.101   4.295  1.5022 -1.2976 -0.2031
    1SOL    MW411508   4.269   2.102   4.213  0.3190 -0.0021  0.2098
    1SOL     OW11509   4.383   2.060   4.483  0.0080  0.1926  0.0551
    1SOL    HW211510   4.441   1.987   4.464  0.2672  0.2206  0.7154
    1SOL    HW311511   4.440   2.128   4.519 -0.1950  0.8138 -0.7728
    1SOL    MW411512   4.398   2.059   4.485  0.0153  0.2785  0.0334
    1SOL     OW11513   3.954   2.030   4.367  0.2589 -0.1266  0.4069
    1SOL    HW211514   3.951   1.963   4.435 -1.6463 -0.3651  0.1336
    1SOL    HW311515   3.938   2.113   4.413  2.5294  0.1741  0.7332
    1SOL    MW411516   3.951   2.032   4.382  0.3068 -0.1185  0.4144
    1SOL     OW11517   3.674   2.232   4.690 -0.0412  0.0805 -0.2188
    1SOL    HW211518   3.617   2.297   4.648  0.8566  0.9236 -0.1454
    1SOL    HW311519   3.625   2.150   4.683 -0.5668  0.4981 -1.5601
    1SOL    MW411520   3.660   2.230   4.684  0.0079  0.2468 -0.3858
    1SOL     OW11521   3.999   2.688   4.827 -0.3093 -0.3655  0.0269
    1SOL    HW211522   3.996   2.725   4.739 -0.5760  0.0521  0.2129
    1SOL    HW311523   3.957   2.602   4.817 -0.1802 -0.3955 -0.2877
    1SOL    MW411524   3.993   2.681   4.814 -0.3276 -0.3142  0.0100
    1SOL     OW11525   4.219   2.907   4.517 -0.1390 -0.0435 -0.1263
    1SOL    HW211526   4.282   2.853   4.565 -1.4510 -1.2222  0.2963
    1SOL    HW311527   4.246   2.901   4.426  0.8420  0.1141  0.1510
    1SOL    MW411528   4.231   2.899   4.512 -0.1831 -0.1781 -0.0343
    1SOL     OW11529   4.162   3.185   4.507  0.2346 -0.1843  0.0974
    1SOL    HW211530   4.129   3.201   4.418 -0.8110  1.3765  0.7521
    1SOL    HW311531   4.175   3.090   4.510 -1.9962 -0.5712 -0.9648
    1SOL    MW411532   4.159   3.175   4.495 -0.1979 -0.0296  0.0439
    1SOL     OW11533   0.148   3.754   4.554  0.0869 -0.0577 -0.3084
    1SOL    HW211534   0.191   3.700   4.488 -1.0626 -0.3020 -0.8711
    1SOL    HW311535   0.060   3.717   4.562 -0.0583  0.4837  0.7688
    1SOL    MW411536   0.142   3.742   4.547 -0.0839 -0.0184 -0.2408
    1SOL     OW11537   4.155   4.251   4.801 -0.2329 -0.2532  0.7271
    1SOL    HW211538   4.067   4.248   4.764 -0.5270 -0.6767  1.4500
    1SOL    HW311539   4.185   4.160   4.800 -0.0678 -0.2063  1.1108
    1SOL    MW411540   4.148   4.238   4.796 -0.2494 -0.3033  0.8731
    1SOL     OW11541   3.717   0.026   4.521  0.1062 -0.3182  1.0231
    1SOL    HW211542   3.666   0.093   4.566  1.8437  2.1293 -0.5525
    1SOL    HW311543   3.682   0.024   4.432  1.3409 -0.1115  0.5239
    1SOL    MW411544   3.706   0.034   4.515  0.4983  0.0320  0.7496
    1SOL     OW11545   4.142   3.696   4.707 -0.3687 -0.1609 -0.1959
    1SOL    HW211546   4.129   3.614   4.754 -0.5409  0.1330  0.2718
    1SOL    HW311547   4.216   3.678   4.648  1.3313  0.1238  1.7675
    1SOL    MW411548   4.150   3.683   4.706 -0.1674 -0.0849  0.1245
    1SOL     OW11549   3.522   0.456   4.558  0.3334 -0.0192 -0.0710
    1SOL    HW211550   3.435   0.489   4.534  0.7950  0.7996 -0.5974
    1SOL    HW311551   3.509   0.361   4.566 -0.5768  0.0798 -0.2803
    1SOL    MW411552   3.508   0.448   4.556  0.2742  0.1019 -0.1688
    1SOL     OW11553   4.255   4.375   4.298 -0.0218 -0.1978  0.0311
    1SOL    HW211554   4.347   4.360   4.274  0.0916  0.0842  0.2789
    1SOL    HW311555   4.255   4.373   4.394 -0.4045 -0.9476  0.0188
    1SOL    MW411556   4.267   4.372   4.307 -0.0577 -0.2599  0.0615
    1NA      NA11557   2.861   4.324   0.490  0.3055 -0.4551 -0.2279
    1NA      NA11558   0.450   2.500   0.297 -0.2065  0.9146 -0.1296
   4.49070   4.66690  10.00000
