Gromacs Runs On Most of All Computer Systems
   36
    3RG35     P    1  -0.314   0.026   0.342
    3RG35   O1P    2  -0.354   0.145   0.420
    3RG35   O2P    3  -0.176  -0.028   0.355
    3RG35   O5'    4  -0.417  -0.093   0.375
    3RG35   C5'    5  -0.554  -0.065   0.405
    3RG35  H5'1    6  -0.592  -0.011   0.330
    3RG35  H5'2    7  -0.558  -0.012   0.490
    3RG35   C4'    8  -0.629  -0.195   0.421
    3RG35   H4'    9  -0.724  -0.175   0.444
    3RG35   O4'   10  -0.625  -0.270   0.297
    3RG35   C1'   11  -0.616  -0.408   0.332
    3RG35   H1'   12  -0.700  -0.452   0.299
    3RG35    N9   13  -0.498  -0.465   0.265
    3RG35    C8   14  -0.368  -0.418   0.265
    3RG35    H8   15  -0.339  -0.335   0.314
    3RG35    N7   16  -0.286  -0.492   0.195
    3RG35    C5   17  -0.367  -0.594   0.146
    3RG35    C6   18  -0.339  -0.705   0.064
    3RG35    O6   19  -0.227  -0.729   0.020
    3RG35    N1   20  -0.450  -0.785   0.037
    3RG35    H1   21  -0.435  -0.865  -0.021
    3RG35    C2   22  -0.583  -0.764   0.083
    3RG35    N2   23  -0.686  -0.845   0.054
    3RG35   H21   24  -0.672  -0.926  -0.003
    3RG35   H22   25  -0.777  -0.825   0.090
    3RG35    N3   26  -0.602  -0.658   0.160
    3RG35    C4   27  -0.496  -0.578   0.188
    3RG35   C3'   28  -0.558  -0.282   0.524
    3RG35   H3'   29  -0.460  -0.267   0.532
    3RG35   C2'   30  -0.600  -0.423   0.483
    3RG35  H2'1   31  -0.541  -0.498   0.514
    3RG35   O2'   32  -0.726  -0.452   0.540
    3RG35  HO'2   33  -0.716  -0.462   0.639
    3RG35   O3'   34  -0.608  -0.253   0.654
    3RG35   H3T   35  -0.561  -0.310   0.721
    3RG35   O3P   36  -0.340   0.058   0.186
   0.60121   1.07077   0.74182
