Gromacs Runs On Most of All Computer Systems
   36
    3RG35     P    1   2.354   2.580   5.494
    3RG35   O1P    2   2.314   2.699   5.572
    3RG35   O2P    3   2.492   2.526   5.507
    3RG35   O5'    4   2.251   2.461   5.527
    3RG35   C5'    5   2.114   2.489   5.557
    3RG35  H5'1    6   2.076   2.543   5.482
    3RG35  H5'2    7   2.110   2.542   5.642
    3RG35   C4'    8   2.039   2.359   5.573
    3RG35   H4'    9   1.944   2.379   5.596
    3RG35   O4'   10   2.043   2.284   5.449
    3RG35   C1'   11   2.052   2.146   5.484
    3RG35   H1'   12   1.968   2.102   5.451
    3RG35    N9   13   2.170   2.089   5.417
    3RG35    C8   14   2.300   2.136   5.417
    3RG35    H8   15   2.329   2.219   5.466
    3RG35    N7   16   2.382   2.062   5.347
    3RG35    C5   17   2.301   1.960   5.298
    3RG35    C6   18   2.329   1.849   5.216
    3RG35    O6   19   2.441   1.825   5.172
    3RG35    N1   20   2.218   1.769   5.189
    3RG35    H1   21   2.233   1.689   5.131
    3RG35    C2   22   2.085   1.790   5.235
    3RG35    N2   23   1.982   1.709   5.206
    3RG35   H21   24   1.996   1.628   5.149
    3RG35   H22   25   1.891   1.729   5.242
    3RG35    N3   26   2.066   1.896   5.312
    3RG35    C4   27   2.172   1.976   5.340
    3RG35   C3'   28   2.110   2.272   5.676
    3RG35   H3'   29   2.208   2.287   5.684
    3RG35   C2'   30   2.068   2.131   5.635
    3RG35  H2'1   31   2.127   2.056   5.666
    3RG35   O2'   32   1.942   2.102   5.692
    3RG35  HO'2   33   1.952   2.092   5.791
    3RG35   O3'   34   2.060   2.301   5.806
    3RG35   H3T   35   2.107   2.244   5.873
    3RG35   O3P   36   2.328   2.612   5.338
   4.49070   4.66690  10.00000
