Gromacs Runs On Most of All Computer Systems in water
11619
    1RU5    O5'    1   1.985   1.280   4.957 -0.4562  0.4967  0.1814
    1RU5    H5T    2   1.892   1.258   4.946 -0.1455 -1.0222  0.5148
    1RU5    C5'    3   1.996   1.412   4.910  0.6902 -0.1227 -0.0660
    1RU5   H5'1    4   2.102   1.434   4.900  0.8262  0.0121  1.4820
    1RU5   H5'2    5   1.956   1.483   4.982  0.1429 -0.7538  0.2583
    1RU5    C4'    6   1.918   1.423   4.781 -0.2632  0.0309  0.2888
    1RU5    H4'    7   1.977   1.364   4.711  0.5851  0.2460  0.8191
    1RU5    O4'    8   1.787   1.368   4.793 -0.2030  0.2365 -0.6824
    1RU5    C1'    9   1.712   1.407   4.680  0.2959 -0.2249 -0.2051
    1RU5    H1'   10   1.709   1.318   4.617  0.2857 -0.3248 -0.0634
    1RU5     N1   11   1.571   1.449   4.713 -0.3442 -0.2987  0.4818
    1RU5     C6   12   1.541   1.533   4.815 -0.2913 -0.4317  0.5204
    1RU5     H6   13   1.626   1.579   4.863 -1.5791  1.5644  0.9800
    1RU5     C5   14   1.414   1.553   4.858  0.4952 -0.1367 -0.7833
    1RU5     H5   15   1.404   1.622   4.940  1.3876 -0.4098 -0.4441
    1RU5     C4   16   1.302   1.484   4.797 -0.2454 -0.0234  0.3448
    1RU5     O4   17   1.184   1.503   4.816 -0.2628  0.0841  0.1650
    1RU5     N3   18   1.337   1.390   4.704  0.4462  0.5642  0.1477
    1RU5     H3   19   1.264   1.356   4.643 -0.8641  1.0437  1.4252
    1RU5     C2   20   1.467   1.374   4.653 -0.3642  0.4404 -0.1106
    1RU5     O2   21   1.486   1.296   4.557 -0.7674 -0.2740 -0.0988
    1RU5    C3'   22   1.908   1.564   4.714  0.3577  0.3418  0.5088
    1RU5    H3'   23   1.880   1.640   4.787  2.6988 -0.0326  1.8420
    1RU5    C2'   24   1.795   1.522   4.611 -0.0157 -0.0277 -0.2477
    1RU5   H2'1   25   1.728   1.608   4.603 -0.8402 -0.4449  1.7114
    1RU5    O2'   26   1.838   1.478   4.483 -0.1894  0.7294 -0.6007
    1RU5   HO'2   27   1.843   1.557   4.429 -2.3007  0.2080 -1.6470
    1RU5    O3'   28   2.033   1.587   4.651 -0.1973 -0.1939  0.7211
    2RG       P   29   2.069   1.724   4.584 -0.2682  0.0233 -0.0936
    2RG     O1P   30   1.961   1.774   4.499  0.6028  0.0079  0.0023
    2RG     O2P   31   2.197   1.707   4.510  0.4521  0.0291  0.3295
    2RG     O5'   32   2.099   1.835   4.700 -0.3502 -0.6506  0.1952
    2RG     C5'   33   1.997   1.889   4.785 -0.0926 -0.0473  0.3863
    2RG    H5'1   34   1.981   1.823   4.870 -0.8658  0.7883  0.9016
    2RG    H5'2   35   1.902   1.900   4.733 -0.1867  0.6229  0.6905
    2RG     C4'   36   2.032   2.032   4.842 -0.1518  0.0275  0.4442
    2RG     H4'   37   1.946   2.065   4.899  1.8125  3.1898  1.6612
    2RG     O4'   38   2.135   2.037   4.935  0.3058  0.2199 -0.0712
    2RG     C1'   39   2.221   2.149   4.928  0.8080  0.6267 -0.1698
    2RG     H1'   40   2.233   2.205   5.021  1.0793 -0.7681  0.6468
    2RG      N9   41   2.359   2.100   4.902 -0.6226  0.4275 -0.4659
    2RG      C8   42   2.404   1.974   4.887 -0.6988 -0.2825 -0.2161
    2RG      H8   43   2.330   1.895   4.887 -0.6012 -0.3750  1.1464
    2RG      N7   44   2.535   1.958   4.892  0.0596 -0.5892 -0.4734
    2RG      C5   45   2.582   2.087   4.900  0.1428 -0.4844 -0.0548
    2RG      C6   46   2.720   2.142   4.909 -0.4636 -1.0325  0.4247
    2RG      O6   47   2.831   2.083   4.902  0.4747  0.3698 -0.6803
    2RG      N1   48   2.721   2.282   4.917 -0.1678  0.6389  0.1023
    2RG      H1   49   2.808   2.335   4.915  1.6901 -2.2422  1.4224
    2RG      C2   50   2.610   2.354   4.917 -0.1203  0.3990  0.0081
    2RG      N2   51   2.625   2.484   4.920 -0.4161  0.2896  0.1123
    2RG     H21   52   2.715   2.529   4.918 -0.3972  0.3064  1.2569
    2RG     H22   53   2.540   2.537   4.904 -0.9178 -0.5148  0.0878
    2RG      N3   54   2.488   2.310   4.909 -0.0118  0.1454 -0.1400
    2RG      C4   55   2.477   2.176   4.905  0.3961  0.0804  0.5362
    2RG     C3'   56   2.067   2.130   4.732 -0.5015  0.0363 -0.4546
    2RG     H3'   57   2.128   2.080   4.656  1.3619 -0.2485  1.1781
    2RG     C2'   58   2.158   2.232   4.812 -0.2607 -0.0325  0.5420
    2RG    H2'1   59   2.235   2.274   4.747  0.0965 -0.8823  0.4074
    2RG     O2'   60   2.073   2.330   4.867 -0.0245  0.1679 -0.0856
    2RG    HO'2   61   2.005   2.335   4.799 -0.0876 -1.8232 -0.2152
    2RG     O3'   62   1.950   2.188   4.672  0.5918  0.1701 -0.0076
    3RG3      P   63   1.961   2.279   4.540  0.2705  0.3097 -0.0582
    3RG3    O1P   64   1.821   2.276   4.484 -0.2345 -0.3827  0.1028
    3RG3    O2P   65   2.075   2.234   4.451 -0.3730  0.4390 -0.0530
    3RG3    O5'   66   1.986   2.426   4.597  0.2252 -0.6823  0.1058
    3RG3    C5'   67   1.883   2.496   4.664  0.1839 -0.5420 -0.4315
    3RG3   H5'1   68   1.860   2.446   4.758  0.1768  0.2704 -0.0011
    3RG3   H5'2   69   1.787   2.485   4.614  0.4190 -1.9288 -0.6157
    3RG3    C4'   70   1.907   2.649   4.674 -0.1424  0.0389  0.3759
    3RG3    H4'   71   1.810   2.684   4.708 -1.2600 -2.7460  0.1089
    3RG3    O4'   72   2.004   2.682   4.768 -0.7964 -0.6252  0.5373
    3RG3    C1'   73   2.098   2.777   4.712  0.5726  0.9117  0.2886
    3RG3    H1'   74   2.068   2.878   4.740  0.6078  0.7335  0.9656
    3RG3     N9   75   2.238   2.742   4.754 -0.2687 -0.5952  0.0198
    3RG3     C8   76   2.298   2.629   4.796  0.0442  0.1876  0.5404
    3RG3     H8   77   2.241   2.541   4.821  0.4347 -0.9779 -2.4673
    3RG3     N7   78   2.424   2.633   4.802  0.0379  0.0417  0.1416
    3RG3     C5   79   2.454   2.756   4.743  0.2665 -0.0290  0.1682
    3RG3     C6   80   2.579   2.819   4.711  0.1591 -0.3453 -0.5004
    3RG3     O6   81   2.690   2.774   4.726  0.1944  0.3670  0.2585
    3RG3     N1   82   2.568   2.946   4.654  0.2545  0.5169 -0.0488
    3RG3     H1   83   2.652   2.993   4.623  0.4243 -0.1004 -0.5368
    3RG3     C2   84   2.450   3.009   4.631  0.7909  0.3587 -0.4038
    3RG3     N2   85   2.460   3.120   4.572 -0.1463 -0.2182 -0.0685
    3RG3    H21   86   2.371   3.161   4.548  0.4667  1.0772 -0.1826
    3RG3    H22   87   2.548   3.169   4.577  0.5920 -1.5001 -0.2465
    3RG3     N3   88   2.329   2.953   4.662 -0.0378  0.0518 -0.0783
    3RG3     C4   89   2.340   2.829   4.721  0.1150 -0.2997 -0.2606
    3RG3    C3'   90   1.939   2.714   4.543 -0.1822 -0.0234 -0.2167
    3RG3    H3'   91   1.913   2.658   4.453 -1.2320 -0.2686  0.2418
    3RG3    C2'   92   2.087   2.762   4.558  0.4960  0.2366 -0.4399
    3RG3   H2'1   93   2.140   2.674   4.524  1.4346  0.2477  0.9850
    3RG3    O2'   94   2.118   2.881   4.480  0.2913 -0.3136 -0.2481
    3RG3   HO'2   95   2.196   2.922   4.517  0.5650 -0.2207 -0.9418
    3RG3    O3'   96   1.859   2.829   4.540  0.1376  0.2289  0.7735
    3RG3    H3T   97   1.912   2.907   4.522 -1.0662  0.7371 -0.7069
    7SOL     OW   98   2.637   0.654   0.573  0.0520  0.0126 -0.2268
    7SOL    HW2   99   2.586   0.575   0.589 -1.0846  0.8262  0.2592
    7SOL    HW3  100   2.716   0.624   0.528 -0.2912 -1.4063  0.1151
    7SOL    MW4  101   2.641   0.640   0.569 -0.1433 -0.0672 -0.1176
    8SOL     OW  102   3.169   3.450   0.158  0.0811  0.1421 -0.0090
    8SOL    HW2  103   3.250   3.486   0.121 -0.0448  0.0610 -0.3641
    8SOL    HW3  104   3.150   3.507   0.232  0.7122 -0.1089  0.3539
    8SOL    MW4  105   3.177   3.462   0.162  0.1478  0.0982 -0.0079
    9SOL     OW  106   3.605   1.746   0.697 -0.1139 -0.5333 -0.0321
    9SOL    HW2  107   3.524   1.704   0.725 -0.0939 -0.1789  0.5696
    9SOL    HW3  108   3.674   1.700   0.745  0.1207 -1.4015 -1.1862
    9SOL    MW4  109   3.603   1.735   0.707 -0.0803 -0.6011 -0.1050
   10SOL     OW  110   2.896   3.913   0.384 -0.1243 -0.0291 -0.0359
   10SOL    HW2  111   2.900   3.898   0.289 -0.5641  0.6843 -0.1727
   10SOL    HW3  112   2.872   3.828   0.421 -0.2748 -0.2329 -0.5941
   10SOL    MW4  113   2.893   3.900   0.376 -0.2019  0.0381 -0.1276
   11SOL     OW  114   2.709   4.089   0.500  0.5956  0.3818  0.1861
   11SOL    HW2  115   2.619   4.058   0.504  0.3138  0.9862 -1.4069
   11SOL    HW3  116   2.757   4.017   0.458  0.5504  0.7223 -0.4564
   11SOL    MW4  117   2.704   4.075   0.495  0.5524  0.5074 -0.1088
   12SOL     OW  118   0.619   4.544   0.365 -0.5149 -0.2226  0.4723
   12SOL    HW2  119   0.569   4.500   0.295  0.7907  0.0632 -0.6555
   12SOL    HW3  120   0.702   4.497   0.367  0.2644  1.1400  0.3819
   12SOL    MW4  121   0.623   4.532   0.356 -0.2398 -0.0052  0.3116
   13SOL     OW  122   1.343   0.352   0.855 -0.2514  0.7524 -0.1296
   13SOL    HW2  123   1.320   0.327   0.945 -2.1890  0.8293 -0.5885
   13SOL    HW3  124   1.290   0.429   0.837 -2.7953 -1.4768 -2.6637
   13SOL    MW4  125   1.333   0.359   0.865 -0.8427  0.4685 -0.5246
   14SOL     OW  126   1.147   3.646   0.727  0.1823 -0.2826 -0.1342
   14SOL    HW2  127   1.142   3.688   0.641 -1.0760  0.5400  0.3277
   14SOL    HW3  128   1.164   3.718   0.788 -1.8846 -0.4263  0.6569
   14SOL    MW4  129   1.149   3.661   0.724 -0.2564 -0.1926  0.0311
   15SOL     OW  130   3.000   4.373   0.442 -0.1555  0.4740  0.1076
   15SOL    HW2  131   2.982   4.398   0.533 -1.1913 -0.2939  0.1213
   15SOL    HW3  132   3.022   4.280   0.447 -0.6985  0.3152 -0.4893
   15SOL    MW4  133   3.000   4.364   0.455 -0.3638  0.3514  0.0306
   16SOL     OW  134   2.331   2.951   0.405 -0.0582 -0.4444 -0.0409
   16SOL    HW2  135   2.384   3.029   0.423 -0.9222  0.1026  0.1940
   16SOL    HW3  136   2.384   2.878   0.437  0.7119  0.0607 -0.1516
   16SOL    MW4  137   2.345   2.952   0.412 -0.0706 -0.3054 -0.0245
   17SOL     OW  138   0.123   0.731   0.851  0.1070  0.2439 -0.5215
   17SOL    HW2  139   0.142   0.766   0.938  1.2890  0.8040 -0.9878
   17SOL    HW3  140   0.148   0.639   0.856 -0.2074  0.1776 -0.1536
   17SOL    MW4  141   0.129   0.724   0.863  0.2215  0.3091 -0.5345
   18SOL     OW  142   1.921   1.420   0.732  0.5618 -0.3132  0.0363
   18SOL    HW2  143   1.939   1.327   0.740  0.2558 -0.2843  1.1322
   18SOL    HW3  144   1.957   1.444   0.646 -0.7072 -1.7269 -0.9194
   18SOL    MW4  145   1.928   1.411   0.722  0.3541 -0.4959  0.0548
   19SOL     OW  146   1.814   4.040   0.760 -0.0226 -0.2640 -0.1543
   19SOL    HW2  147   1.892   3.985   0.752  0.2821  0.0335  0.7334
   19SOL    HW3  148   1.754   3.990   0.815  0.9705  1.0407  2.2040
   19SOL    MW4  149   1.816   4.026   0.766  0.1487 -0.0529  0.2740
   20SOL     OW  150   0.236   2.861   0.718 -0.4393 -0.5421 -0.7202
   20SOL    HW2  151   0.161   2.804   0.735 -1.2802  0.8619  0.3642
   20SOL    HW3  152   0.311   2.811   0.750 -1.2764 -0.6552  1.0973
   20SOL    MW4  153   0.236   2.847   0.724 -0.6607 -0.3717 -0.3373
   21SOL     OW  154   1.165   1.331   0.470  0.0352  0.1562 -0.0809
   21SOL    HW2  155   1.084   1.380   0.465  0.9656  1.8569  1.0520
   21SOL    HW3  156   1.179   1.316   0.563  1.3825  0.5301 -0.2016
   21SOL    MW4  157   1.156   1.335   0.481  0.3357  0.4299  0.0526
   22SOL     OW  158   1.749   4.290   0.853  0.0872  0.3019 -0.0173
   22SOL    HW2  159   1.761   4.286   0.948 -0.6151 -1.0064  0.0328
   22SOL    HW3  160   1.777   4.204   0.822 -0.5195  0.4143 -0.8986
   22SOL    MW4  161   1.755   4.278   0.862 -0.0855  0.1440 -0.1269
   23SOL     OW  162   2.478   3.645   0.722  0.3910 -0.0310 -0.6907
   23SOL    HW2  163   2.492   3.650   0.628  1.4117  0.4863 -0.5186
   23SOL    HW3  164   2.548   3.586   0.753  0.0602 -0.1979 -0.2595
   23SOL    MW4  165   2.489   3.638   0.714  0.4821  0.0148 -0.6111
   24SOL     OW  166   0.404   3.818   0.621 -0.5936  0.3249 -0.2076
   24SOL    HW2  167   0.345   3.773   0.681  1.1719 -0.5308  0.9489
   24SOL    HW3  168   0.439   3.748   0.565  1.0562  0.4374  0.6460
   24SOL    MW4  169   0.401   3.803   0.622 -0.1430  0.2270  0.0576
   25SOL     OW  170   1.818   2.048   0.235  0.0410 -0.1195 -0.0705
   25SOL    HW2  171   1.886   2.020   0.296  0.8814  0.4216 -0.7358
   25SOL    HW3  172   1.866   2.094   0.166 -0.9224 -0.4717 -0.9882
   25SOL    MW4  173   1.834   2.051   0.234  0.0248 -0.0944 -0.2794
   26SOL     OW  174   0.657   2.313   0.830  0.0370  0.2096 -0.4322
   26SOL    HW2  175   0.742   2.341   0.797 -0.1810  0.7186 -0.5632
   26SOL    HW3  176   0.664   2.322   0.925  0.4430 -0.6345 -0.3804
   26SOL    MW4  177   0.669   2.318   0.839  0.0619  0.1652 -0.4426
   27SOL     OW  178   0.890   2.213   0.353 -0.0032  0.0528 -0.0259
   27SOL    HW2  179   0.815   2.157   0.376  0.2133 -0.7817 -1.3080
   27SOL    HW3  180   0.967   2.158   0.367  0.3429  0.7347  0.7678
   27SOL    MW4  181   0.890   2.198   0.358  0.0710  0.0329 -0.0903
   28SOL     OW  182   3.375   1.613   0.788 -0.3826  0.0446 -0.5045
   28SOL    HW2  183   3.357   1.606   0.882  0.0267  0.7200 -0.3832
   28SOL    HW3  184   3.289   1.628   0.749 -0.4639  0.4077 -0.1816
   28SOL    MW4  185   3.361   1.614   0.796 -0.3395  0.1816 -0.4458
   29SOL     OW  186   2.301   3.386   0.467  0.0775  0.0608 -0.1067
   29SOL    HW2  187   2.303   3.363   0.559 -1.5257 -0.1000 -0.0868
   29SOL    HW3  188   2.362   3.326   0.425  0.7675  0.1011  0.8403
   29SOL    MW4  189   2.309   3.375   0.473 -0.0429  0.0448  0.0208
   30SOL     OW  190   3.812   1.386   0.707  0.2398  0.0057  0.4887
   30SOL    HW2  191   3.807   1.350   0.618  0.4907  0.2656  0.3697
   30SOL    HW3  192   3.743   1.341   0.754 -0.1868  0.1863  0.0466
   30SOL    MW4  193   3.802   1.375   0.701  0.2167  0.0639  0.4147
   31SOL     OW  194   0.831   0.362   0.537 -0.1106  0.2266  0.0684
   31SOL    HW2  195   0.821   0.450   0.501 -1.0101 -0.2410 -0.8434
   31SOL    HW3  196   0.814   0.373   0.631  0.7695  1.1840  0.1299
   31SOL    MW4  197   0.827   0.375   0.545 -0.1131  0.2912 -0.0438
   32SOL     OW  198   3.282   0.491   0.573  0.4354  0.4925 -0.2484
   32SOL    HW2  199   3.320   0.546   0.504  0.6160  0.5206 -0.1263
   32SOL    HW3  200   3.304   0.537   0.654  1.5904 -0.3558 -0.0623
   32SOL    MW4  201   3.290   0.504   0.574  0.6115  0.3843 -0.2078
   33SOL     OW  202   0.532   2.809   0.360  0.2716  0.0391  0.3534
   33SOL    HW2  203   0.462   2.858   0.404 -0.1958 -0.8182  0.5657
   33SOL    HW3  204   0.526   2.721   0.396  0.1205 -0.5762 -1.1783
   33SOL    MW4  205   0.522   2.804   0.371  0.1901 -0.1554  0.1794
   34SOL     OW  206   4.226   0.920   0.436  0.4937 -0.0284 -0.5070
   34SOL    HW2  207   4.183   1.003   0.459  0.1850 -0.1931 -0.4912
   34SOL    HW3  208   4.157   0.867   0.397  0.5468 -0.5116  0.0526
   34SOL    MW4  209   4.211   0.924   0.434  0.4601 -0.1139 -0.4311
   35SOL     OW  210   1.169   4.051   0.429  0.0293 -0.3026 -0.0152
   35SOL    HW2  211   1.196   4.102   0.505  1.8988 -0.1167 -0.7963
   35SOL    HW3  212   1.189   4.106   0.354  0.1513 -1.3394 -0.7576
   35SOL    MW4  213   1.175   4.065   0.429  0.2921 -0.4148 -0.2162
   36SOL     OW  214   1.110   2.348   0.800  0.2575 -0.3659 -0.5676
   36SOL    HW2  215   1.108   2.344   0.895  0.0801 -2.1221 -0.6127
   36SOL    HW3  216   1.178   2.412   0.779 -0.7206  1.1151  0.7278
   36SOL    MW4  217   1.119   2.356   0.810  0.1050 -0.4022 -0.4026
   37SOL     OW  218   0.138   0.567   1.246 -0.0522 -0.1312  0.8427
   37SOL    HW2  219   0.098   0.501   1.190 -0.0690 -0.3239  1.0820
   37SOL    HW3  220   0.121   0.650   1.201  1.6770 -0.4529 -0.4773
   37SOL    MW4  221   0.130   0.569   1.233  0.1737 -0.1991  0.7001
   38SOL     OW  222   4.325   0.720   0.913 -0.2828 -0.4738  0.2149
   38SOL    HW2  223   4.419   0.734   0.904 -0.3635 -0.1487 -0.0979
   38SOL    HW3  224   4.307   0.739   1.005 -0.0435 -0.5332  0.2748
   38SOL    MW4  225   4.335   0.724   0.924 -0.2613 -0.4387  0.1815
   39SOL     OW  226   0.882   1.204   0.845  0.2373 -0.0051  0.8154
   39SOL    HW2  227   0.902   1.121   0.803  0.9292 -0.3203  1.7483
   39SOL    HW3  228   0.807   1.239   0.796 -0.7409 -1.6799  1.1017
   39SOL    MW4  229   0.874   1.198   0.833  0.1996 -0.2677  0.9762
   40SOL     OW  230   3.542   1.929   0.458  0.1340 -0.0258 -0.0645
   40SOL    HW2  231   3.634   1.956   0.464  0.0536  0.3469 -0.4723
   40SOL    HW3  232   3.529   1.872   0.533  1.2550 -1.7374 -1.1215
   40SOL    MW4  233   3.552   1.925   0.468  0.2711 -0.2027 -0.2577
   41SOL     OW  234   3.912   3.292   0.186 -0.5882  0.4582  0.2227
   41SOL    HW2  235   3.887   3.374   0.228  0.6175  0.4881  0.9085
   41SOL    HW3  236   3.878   3.224   0.243  0.0235  0.4958  0.6402
   41SOL    MW4  237   3.904   3.294   0.199 -0.3483  0.4671  0.3683
   42SOL     OW  238   4.449   1.952   0.336  0.0757  0.1159  0.0641
   42SOL    HW2  239   4.459   1.865   0.375  0.3285  0.6338  1.1709
   42SOL    HW3  240   4.455   1.936   0.241  1.8845 -0.8515  0.3163
   42SOL    MW4  241   4.451   1.938   0.328  0.3476  0.0567  0.2434
   43SOL     OW  242   2.431   0.326   0.374  0.0842 -0.2109  0.1151
   43SOL    HW2  243   2.477   0.243   0.365  1.5760  0.2516  2.8539
   43SOL    HW3  244   2.479   0.385   0.316  1.2023 -0.4552  0.7564
   43SOL    MW4  245   2.444   0.323   0.365  0.4282 -0.1821  0.5611
   44SOL     OW  246   4.487   3.816   0.402 -0.3822  0.0558 -0.5464
   44SOL    HW2  247   4.564   3.874   0.399  0.0124 -0.5102 -1.9239
   44SOL    HW3  248   4.511   3.748   0.464  0.4528 -0.3935 -1.3397
   44SOL    MW4  249   4.501   3.815   0.410 -0.2200 -0.0784 -0.8328
   45SOL     OW  250   1.661   0.304   0.343  0.4157 -0.0845  0.6804
   45SOL    HW2  251   1.594   0.244   0.375  0.2021 -0.3762 -0.3040
   45SOL    HW3  252   1.744   0.260   0.361  0.2540 -0.7463 -0.1613
   45SOL    MW4  253   1.663   0.291   0.349  0.3661 -0.2103  0.4395
   46SOL     OW  254   0.221   3.090   0.861 -0.4598  0.3857  0.3323
   46SOL    HW2  255   0.228   3.066   0.954 -1.8100  1.8078  0.8061
   46SOL    HW3  256   0.230   3.006   0.815  0.9634 -0.2487  1.6998
   46SOL    MW4  257   0.223   3.076   0.867 -0.4502  0.4897  0.5752
   47SOL     OW  258   4.302   3.872   0.899 -0.6632 -0.2806  0.0057
   47SOL    HW2  259   4.297   3.865   0.995  1.3204  0.0639  0.1627
   47SOL    HW3  260   4.285   3.783   0.868 -2.7331 -0.1084  0.5976
   47SOL    MW4  261   4.299   3.859   0.908 -0.6747 -0.2127  0.1045
   48SOL     OW  262   1.316   1.064   0.487 -0.5784  0.1184 -0.2812
   48SOL    HW2  263   1.401   1.088   0.523 -0.1749 -0.6053 -0.7198
   48SOL    HW3  264   1.281   1.145   0.451 -0.0381  0.4080 -0.1613
   48SOL    MW4  265   1.322   1.078   0.487 -0.4538  0.0612 -0.3232
   49SOL     OW  266   0.718   3.858   0.866 -0.0650  0.3533 -0.0054
   49SOL    HW2  267   0.716   3.777   0.815 -0.3999  1.0333 -1.0854
   49SOL    HW3  268   0.802   3.899   0.844 -0.5068  0.9822 -0.5487
   49SOL    MW4  269   0.729   3.853   0.856 -0.1675  0.5262 -0.2196
   50SOL     OW  270   0.782   3.231   0.482 -0.0378  0.4238 -0.0269
   50SOL    HW2  271   0.842   3.232   0.556 -1.0324  0.0433  0.7915
   50SOL    HW3  272   0.787   3.141   0.448 -0.5123  0.2516  0.3514
   50SOL    MW4  273   0.790   3.219   0.487 -0.2316  0.3510  0.1310
   51SOL     OW  274   1.568   2.466   0.504  0.4288  0.7701  0.7554
   51SOL    HW2  275   1.581   2.390   0.448 -0.4144  1.6731 -0.6996
   51SOL    HW3  276   1.649   2.474   0.553  1.0284 -0.2824 -0.0484
   51SOL    MW4  277   1.580   2.457   0.503  0.3965  0.7498  0.4573
   52SOL     OW  278   1.375   3.509   0.826 -0.4344 -0.0685 -0.0276
   52SOL    HW2  279   1.451   3.557   0.793 -0.0739 -0.1177  0.7181
   52SOL    HW3  280   1.301   3.544   0.777 -0.1997  1.3779  0.6179
   52SOL    MW4  281   1.375   3.520   0.816 -0.3558  0.1159  0.1559
   53SOL     OW  282   4.264   2.143   0.462  0.3665  0.3162  0.0840
   53SOL    HW2  283   4.182   2.121   0.417  0.3950  1.2595 -0.4325
   53SOL    HW3  284   4.322   2.069   0.443  0.5589  0.9629 -1.9075
   53SOL    MW4  285   4.261   2.130   0.454  0.3963  0.5260 -0.2469
   54SOL     OW  286   0.058   1.249   0.452  0.6604  0.1155 -0.3536
   54SOL    HW2  287   0.094   1.312   0.390 -0.2786 -0.3560 -1.4145
   54SOL    HW3  288  -0.016   1.295   0.492  1.2508  0.4100  0.4090
   54SOL    MW4  289   0.053   1.263   0.449  0.6144  0.0920 -0.3929
   55SOL     OW  290   1.804   3.509   0.889  0.1681  0.3694 -0.1318
   55SOL    HW2  291   1.829   3.419   0.867  0.2736  0.3278  0.1532
   55SOL    HW3  292   1.798   3.510   0.985  3.2977  1.4853  0.0846
   55SOL    MW4  293   1.806   3.497   0.899  0.5950  0.5109 -0.0656
   56SOL     OW  294   2.425   4.402   0.757 -0.2229 -0.4263  0.4290
   56SOL    HW2  295   2.347   4.383   0.809 -0.9140  1.7468  0.2153
   56SOL    HW3  296   2.443   4.494   0.773  1.1784 -0.4286 -1.0257
   56SOL    MW4  297   2.417   4.411   0.766 -0.1292 -0.1392  0.2089
   57SOL     OW  298   2.312   3.262   0.742  0.0675  0.4252  0.8824
   57SOL    HW2  299   2.245   3.219   0.795 -0.7076  0.5426  0.0237
   57SOL    HW3  300   2.392   3.213   0.759 -0.5283 -0.5517  0.8915
   57SOL    MW4  301   2.313   3.250   0.751 -0.1132  0.3116  0.7702
   58SOL     OW  302   3.318   2.833   0.467  0.2664  0.0470 -0.1057
   58SOL    HW2  303   3.253   2.903   0.460  1.2780  0.9041 -1.0229
   58SOL    HW3  304   3.288   2.767   0.403 -0.1176  0.0922  0.0251
   58SOL    MW4  305   3.305   2.833   0.457  0.3493  0.1664 -0.2095
   59SOL     OW  306   2.843   1.003   0.699 -0.0315 -0.6837  0.5919
   59SOL    HW2  307   2.811   0.997   0.609 -0.9626 -0.5472  0.9095
   59SOL    HW3  308   2.938   0.993   0.691  0.0860  1.0549 -0.5877
   59SOL    MW4  309   2.851   1.001   0.686 -0.1390 -0.4362  0.4782
   60SOL     OW  310   1.303   1.088   0.851  0.1690  0.1592  0.5289
   60SOL    HW2  311   1.258   1.165   0.814  0.9699  0.5658  0.3977
   60SOL    HW3  312   1.395   1.102   0.829  0.2978 -0.9025  0.4025
   60SOL    MW4  313   1.309   1.100   0.843  0.2918  0.0728  0.4950
   61SOL     OW  314   3.959   1.067   0.694  0.0457  0.1578  0.0591
   61SOL    HW2  315   4.009   1.132   0.645 -0.3338  0.9886  0.7473
   61SOL    HW3  316   4.015   0.989   0.695  0.5055  0.4692 -0.7723
   61SOL    MW4  317   3.973   1.065   0.688  0.0563  0.3086  0.0402
   62SOL     OW  318   4.398   0.752   0.589 -0.4884 -0.0040 -0.0031
   62SOL    HW2  319   4.356   0.790   0.512 -0.7276 -1.1624 -0.4626
   62SOL    HW3  320   4.374   0.659   0.585 -1.8182  0.2030  2.3369
   62SOL    MW4  321   4.389   0.744   0.578 -0.6957 -0.1296  0.2451
   63SOL     OW  322   4.473   3.475   0.264 -0.1219 -0.3831  0.1429
   63SOL    HW2  323   4.488   3.557   0.218  1.0980 -1.0068 -0.5985
   63SOL    HW3  324   4.381   3.453   0.245 -0.3405  0.6109  0.0476
   63SOL    MW4  325   4.463   3.483   0.255  0.0105 -0.3343  0.0325
   64SOL     OW  326   0.661   1.308   0.731  0.6300 -0.3932 -0.1880
   64SOL    HW2  327   0.660   1.302   0.636 -2.3092 -2.0320 -0.1145
   64SOL    HW3  328   0.656   1.402   0.749 -0.0442 -0.1279 -1.6674
   64SOL    MW4  329   0.660   1.319   0.721  0.1532 -0.5744 -0.3735
   65SOL     OW  330   1.455   1.476   0.859  0.3086  1.0431 -0.1478
   65SOL    HW2  331   1.499   1.491   0.943  0.7745  2.2672 -0.5872
   65SOL    HW3  332   1.522   1.496   0.794  0.0120 -0.1226 -0.8105
   65SOL    MW4  333   1.470   1.481   0.862  0.3309  1.0507 -0.2931
   66SOL     OW  334   1.460   2.718   0.360  0.2541  0.0214  0.4673
   66SOL    HW2  335   1.366   2.707   0.375  0.1977 -0.0989  0.0296
   66SOL    HW3  336   1.499   2.637   0.393  0.0955 -0.3933 -0.3506
   66SOL    MW4  337   1.452   2.706   0.367  0.2259 -0.0489  0.3017
   67SOL     OW  338   1.143   2.869   0.696  0.0924 -0.1034 -0.1551
   67SOL    HW2  339   1.066   2.827   0.734 -0.1022 -1.3035 -1.8029
   67SOL    HW3  340   1.217   2.838   0.748 -0.2645 -1.0248 -0.1933
   67SOL    MW4  341   1.143   2.859   0.708  0.0197 -0.3834 -0.3775
   68SOL     OW  342   0.571   4.036   0.710 -0.4835  0.0588  0.2616
   68SOL    HW2  343   0.502   3.973   0.689 -1.1654  0.2959  1.7229
   68SOL    HW3  344   0.629   3.989   0.771  0.9768 -0.3314 -1.4051
   68SOL    MW4  345   0.569   4.021   0.716 -0.3808  0.0386  0.2346
   69SOL     OW  346   0.050   3.216   0.704 -0.5124 -0.1615  0.8967
   69SOL    HW2  347   0.106   3.167   0.764  0.3640  0.7452  0.8210
   69SOL    HW3  348   0.077   3.188   0.617  0.1981  0.6828  0.8447
   69SOL    MW4  349   0.061   3.206   0.700 -0.3030  0.0694  0.8798
   70SOL     OW  350   0.224   2.376   0.797 -0.6919 -0.4395  0.2545
   70SOL    HW2  351   0.212   2.285   0.771  0.2080 -0.8747  1.3414
   70SOL    HW3  352   0.241   2.373   0.891  1.0386  0.7113  0.0024
   70SOL    MW4  353   0.224   2.364   0.806 -0.3449 -0.3450  0.3647
   71SOL     OW  354   4.490   2.749   0.822 -0.2231  0.4892  0.0801
   71SOL    HW2  355   4.457   2.748   0.912 -1.7723  1.0882 -0.4684
   71SOL    HW3  356   4.430   2.806   0.775  2.2572  2.5069 -0.7175
   71SOL    MW4  357   4.478   2.756   0.827 -0.1003  0.8345 -0.0976
   72SOL     OW  358   0.497   0.140   0.446 -0.0860  0.2623  0.1371
   72SOL    HW2  359   0.506   0.045   0.438 -1.2366 -0.1053  2.7190
   72SOL    HW3  360   0.411   0.159   0.408  0.3094  0.3578 -0.7396
   72SOL    MW4  361   0.487   0.130   0.440 -0.1856  0.2264  0.3621
   73SOL     OW  362   1.653   2.142   0.646 -0.4162 -0.4274 -0.4988
   73SOL    HW2  363   1.607   2.199   0.708  0.3379 -1.4179  1.0047
   73SOL    HW3  364   1.602   2.061   0.646  0.7407 -1.1788  0.4354
   73SOL    MW4  365   1.640   2.139   0.654 -0.1640 -0.6571 -0.1771
   74SOL     OW  366   0.241   1.302   0.690 -0.1796  0.0056 -0.2386
   74SOL    HW2  367   0.179   1.293   0.617  0.0785  0.5170 -0.5256
   74SOL    HW3  368   0.217   1.385   0.731  0.0325 -0.0151 -0.0719
   74SOL    MW4  369   0.230   1.312   0.686 -0.1175  0.0703 -0.2545
   75SOL     OW  370   4.489   4.324   0.863 -0.2550 -0.1574  0.2679
   75SOL    HW2  371   4.496   4.308   0.957 -2.2229 -0.4184  0.3917
   75SOL    HW3  372   4.526   4.245   0.823  0.8509  0.0784  0.8162
   75SOL    MW4  373   4.495   4.311   0.870 -0.3686 -0.1602  0.3566
   76SOL     OW  374   4.206   1.561   0.545  0.0299 -0.7657  0.3510
   76SOL    HW2  375   4.134   1.528   0.493  0.4034 -2.2443  0.7567
   76SOL    HW3  376   4.272   1.587   0.481 -0.6782  0.1897 -0.0045
   76SOL    MW4  377   4.205   1.560   0.530 -0.0143 -0.8347  0.3576
   77SOL     OW  378   4.255   1.598   0.879  0.5922 -0.1928  0.1051
   77SOL    HW2  379   4.210   1.515   0.862  1.0365 -0.3063 -0.5191
   77SOL    HW3  380   4.276   1.595   0.973 -1.5329  0.2655  0.6276
   77SOL    MW4  381   4.251   1.587   0.889  0.3705 -0.1472  0.0917
   78SOL     OW  382   2.074   3.110   1.167 -0.1423 -0.1402  0.3214
   78SOL    HW2  383   1.998   3.150   1.210 -1.4950 -0.9418 -1.2353
   78SOL    HW3  384   2.148   3.163   1.195 -0.9715 -0.5542  3.4864
   78SOL    MW4  385   2.073   3.123   1.176 -0.4303 -0.3006  0.5335
   79SOL     OW  386   2.596   1.471   0.316 -0.3516 -0.2738 -0.4021
   79SOL    HW2  387   2.560   1.486   0.229 -0.6351  0.8942 -0.0982
   79SOL    HW3  388   2.566   1.546   0.368 -1.2602 -1.6058  1.0422
   79SOL    MW4  389   2.587   1.483   0.312 -0.5088 -0.2953 -0.1715
   80SOL     OW  390   3.121   1.699   0.707 -0.0309 -0.2124  0.4745
   80SOL    HW2  391   3.044   1.651   0.737  0.7115 -1.9635 -0.3587
   80SOL    HW3  392   3.119   1.781   0.758 -1.5745 -0.8964  1.5712
   80SOL    MW4  393   3.111   1.704   0.718 -0.1366 -0.5337  0.5092
   81SOL     OW  394   0.312   3.755   0.231  0.6504 -0.1953 -0.6308
   81SOL    HW2  395   0.286   3.819   0.297 -0.6614 -2.2616  0.8907
   81SOL    HW3  396   0.231   3.728   0.190  1.2648 -0.4992 -1.6686
   81SOL    MW4  397   0.298   3.760   0.234  0.5583 -0.5081 -0.5670
   82SOL     OW  398   3.144   1.948   0.291  0.0855 -0.1482  0.0451
   82SOL    HW2  399   3.209   2.009   0.325 -0.6265 -0.1648  1.5189
   82SOL    HW3  400   3.065   2.000   0.281  0.3655 -0.0905 -1.8982
   82SOL    MW4  401   3.142   1.963   0.294  0.0286 -0.1427 -0.0168
   83SOL     OW  402   4.065   3.513   0.463  0.0662  0.5337 -0.2376
   83SOL    HW2  403   4.076   3.450   0.534 -0.9590  2.0892  1.3412
   83SOL    HW3  404   4.110   3.591   0.493 -1.7066  1.7196 -0.6108
   83SOL    MW4  405   4.072   3.515   0.477 -0.3028  0.8955 -0.0786
   84SOL     OW  406   2.292   1.071   0.493  0.4724 -0.0750 -0.3064
   84SOL    HW2  407   2.363   1.088   0.431  0.6709  0.4074  0.0520
   84SOL    HW3  408   2.328   1.007   0.554 -0.1039 -1.4197 -1.3563
   84SOL    MW4  409   2.306   1.065   0.493  0.4225 -0.1888 -0.3977
   85SOL     OW  410   2.240   0.101   0.714  0.2664 -0.1027  0.5345
   85SOL    HW2  411   2.218   0.132   0.626  1.1034  1.1431  0.7588
   85SOL    HW3  412   2.165   0.048   0.740 -0.4842  0.4510 -0.4772
   85SOL    MW4  413   2.227   0.098   0.706  0.2775  0.1347  0.4306
   86SOL     OW  414   0.433   1.181   0.850 -0.0469  0.1781 -0.1712
   86SOL    HW2  415   0.365   1.228   0.804  0.0967 -0.2385 -0.8167
   86SOL    HW3  416   0.513   1.197   0.799  0.0634 -0.4889 -0.2211
   86SOL    MW4  417   0.435   1.189   0.837 -0.0134  0.0352 -0.2629
   87SOL     OW  418   3.641   3.149   0.524  0.0235  0.2598 -0.3646
   87SOL    HW2  419   3.596   3.224   0.485 -0.6071 -0.0270 -0.1902
   87SOL    HW3  420   3.598   3.072   0.486 -0.0315 -0.0144  0.2517
   87SOL    MW4  421   3.630   3.149   0.514 -0.0668  0.1860 -0.2602
   88SOL     OW  422   4.066   3.951   0.495  0.3062  0.1305  0.5964
   88SOL    HW2  423   4.058   3.975   0.587 -1.7581  1.0216  0.2199
   88SOL    HW3  424   4.097   4.030   0.452  0.6294 -0.0866  0.4296
   88SOL    MW4  425   4.069   3.965   0.501  0.0772  0.2196  0.5248
   89SOL     OW  426   0.457   2.478   0.713 -0.2291  0.2535 -0.0917
   89SOL    HW2  427   0.512   2.413   0.756  0.4632  2.3315  2.2412
   89SOL    HW3  428   0.367   2.448   0.729  0.0990 -0.4513  0.4523
   89SOL    MW4  429   0.452   2.465   0.721 -0.0945  0.4346  0.2879
   90SOL     OW  430   1.775   1.074   0.909  0.0995  0.2000 -0.6144
   90SOL    HW2  431   1.689   1.116   0.902 -0.1817 -0.4024 -0.8463
   90SOL    HW3  432   1.759   0.983   0.883  0.5864 -0.1845  0.4102
   90SOL    MW4  433   1.762   1.067   0.905  0.1266  0.0699 -0.5098
   91SOL     OW  434   2.601   1.942   0.453 -0.0089  0.0826  0.1289
   91SOL    HW2  435   2.571   1.997   0.380  2.0305 -0.8576 -1.4803
   91SOL    HW3  436   2.690   1.971   0.469 -0.1126 -0.3998  1.6171
   91SOL    MW4  437   2.609   1.953   0.445  0.2463 -0.1050  0.1129
   92SOL     OW  438   3.795   3.569   0.305 -0.5179 -0.2216 -0.0613
   92SOL    HW2  439   3.816   3.645   0.250 -1.4466  0.4836  0.5519
   92SOL    HW3  440   3.831   3.591   0.391  0.4497 -1.0917 -0.2394
   92SOL    MW4  441   3.802   3.582   0.309 -0.5126 -0.2432 -0.0038
   93SOL     OW  442   0.058   0.081   0.881 -0.2751  0.4781 -0.1090
   93SOL    HW2  443   0.108   0.141   0.826 -0.4538 -0.6233 -1.4976
   93SOL    HW3  444  -0.032   0.090   0.850 -0.1382 -1.3045 -1.0554
   93SOL    MW4  445   0.052   0.090   0.870 -0.2806  0.0976 -0.4171
   94SOL     OW  446   2.288   4.046   0.749 -0.3454 -0.5371 -0.0813
   94SOL    HW2  447   2.205   4.004   0.772 -0.1489 -0.7775  0.1892
   94SOL    HW3  448   2.355   3.986   0.780 -0.0701 -0.4561 -0.5259
   94SOL    MW4  449   2.286   4.033   0.756 -0.2832 -0.5579 -0.1042
   95SOL     OW  450   3.574   3.986   0.453  0.4041  0.0372  0.3148
   95SOL    HW2  451   3.653   4.017   0.409 -0.2246 -1.1581 -1.7248
   95SOL    HW3  452   3.506   4.048   0.426  0.2925  0.0600  0.6507
   95SOL    MW4  453   3.575   3.998   0.443  0.3064 -0.1180  0.0900
   96SOL     OW  454   4.057   3.516   0.801  0.3347  0.0082  0.2906
   96SOL    HW2  455   4.050   3.520   0.896 -2.5267 -0.8558  0.1800
   96SOL    HW3  456   4.056   3.422   0.782 -1.0380  0.1961 -0.6605
   96SOL    MW4  457   4.056   3.504   0.811 -0.2241 -0.0808  0.1504
   97SOL     OW  458   0.774   0.804   0.668 -0.2129 -0.3441  0.3017
   97SOL    HW2  459   0.804   0.760   0.588  0.5396  0.1745  0.2979
   97SOL    HW3  460   0.841   0.869   0.687 -1.0964  0.5138  0.5578
   97SOL    MW4  461   0.786   0.807   0.660 -0.2302 -0.1624  0.3350
   98SOL     OW  462   3.658   0.523   0.492 -0.2616  0.2468  0.3590
   98SOL    HW2  463   3.747   0.543   0.461 -0.1949 -0.9704 -0.2430
   98SOL    HW3  464   3.655   0.562   0.580  1.5010 -1.3337  1.1583
   98SOL    MW4  465   3.670   0.531   0.499 -0.0200 -0.1223  0.3850
   99SOL     OW  466   4.262   2.428   0.555 -0.1616 -0.4581 -0.0309
   99SOL    HW2  467   4.341   2.440   0.608 -0.3067 -0.9506  0.2925
   99SOL    HW3  468   4.281   2.350   0.502  0.5780  0.8674 -1.7763
   99SOL    MW4  469   4.275   2.419   0.555 -0.0834 -0.3481 -0.2185
  100SOL     OW  470   0.979   0.978   0.688  0.0747 -0.1543  0.0442
  100SOL    HW2  471   1.045   0.928   0.737  1.3820  0.3443 -1.1645
  100SOL    HW3  472   1.008   0.974   0.597 -1.2317  0.6104 -0.4193
  100SOL    MW4  473   0.992   0.971   0.683  0.0747  0.0123 -0.1764
  101SOL     OW  474   1.642   1.467   0.659  0.3951  0.2132 -0.1807
  101SOL    HW2  475   1.728   1.435   0.686 -0.2583 -0.1540  1.5956
  101SOL    HW3  476   1.627   1.428   0.573  0.5355 -2.5654  1.0121
  101SOL    MW4  477   1.651   1.458   0.651  0.3273 -0.2018  0.2111
  102SOL     OW  478   0.949   3.485   0.851 -0.2014 -0.4832 -0.1053
  102SOL    HW2  479   0.877   3.534   0.811  0.3120  0.2038 -0.2010
  102SOL    HW3  480   1.028   3.531   0.821  0.2401 -0.7528  0.6451
  102SOL    MW4  481   0.950   3.498   0.841 -0.0753 -0.4282 -0.0190
  103SOL     OW  482   2.464   2.106   0.264 -0.2829  0.0379  0.1203
  103SOL    HW2  483   2.460   2.075   0.174  0.9749  0.2101 -0.0055
  103SOL    HW3  484   2.373   2.112   0.292 -0.6224 -1.2142 -0.7230
  103SOL    MW4  485   2.451   2.103   0.256 -0.1614 -0.1044 -0.0075
  104SOL     OW  486   2.918   1.299   0.710 -0.3521 -0.4431 -0.1543
  104SOL    HW2  487   2.863   1.254   0.774  0.2559  1.9618  2.1328
  104SOL    HW3  488   3.006   1.296   0.747  0.1694  0.2075 -1.3041
  104SOL    MW4  489   2.922   1.293   0.723 -0.2031 -0.0401 -0.0042
  105SOL     OW  490   1.525   1.902   0.616 -0.0492 -0.0410  0.1800
  105SOL    HW2  491   1.472   1.925   0.540  0.0362  1.3838  0.5373
  105SOL    HW3  492   1.476   1.937   0.691  0.0891 -1.0352  0.7454
  105SOL    MW4  493   1.511   1.910   0.616 -0.0196  0.0157  0.3017
  106SOL     OW  494   2.672   1.069   0.898 -0.0739 -0.1495  0.1554
  106SOL    HW2  495   2.614   1.127   0.848  0.4650 -0.5374 -0.9384
  106SOL    HW3  496   2.744   1.049   0.837 -0.0267 -1.6075  0.6783
  106SOL    MW4  497   2.674   1.074   0.883  0.0033 -0.3930  0.0801
  107SOL     OW  498   2.068   2.959   0.492  0.7703 -0.1348 -0.3096
  107SOL    HW2  499   2.156   2.942   0.458  0.3533 -0.5159 -1.2165
  107SOL    HW3  500   2.013   2.893   0.450  0.2346 -0.6169  1.1141
  107SOL    MW4  501   2.073   2.948   0.482  0.6447 -0.2487 -0.2414
  108SOL     OW  502   1.036   4.666   0.337 -0.4199  0.1544 -0.0201
  108SOL    HW2  503   0.949   4.670   0.377 -0.4451  2.4263 -0.1980
  108SOL    HW3  504   1.074   4.752   0.355  1.0348 -0.1315 -1.5997
  108SOL    MW4  505   1.030   4.678   0.344 -0.2313  0.4163 -0.2519
  109SOL     OW  506   3.500   0.316   0.551  0.0073 -0.2568 -0.3481
  109SOL    HW2  507   3.422   0.367   0.572 -1.0039 -1.7764 -0.4113
  109SOL    HW3  508   3.561   0.381   0.515 -0.4959  1.2672  1.4863
  109SOL    MW4  509   3.498   0.332   0.549 -0.1924 -0.2562 -0.1144
  110SOL     OW  510   1.370   1.735   0.264 -0.0896  0.1061  0.1673
  110SOL    HW2  511   1.457   1.760   0.234 -0.5445 -0.4950 -1.7273
  110SOL    HW3  512   1.383   1.653   0.312  0.0878 -1.3719 -2.3132
  110SOL    MW4  513   1.383   1.728   0.267 -0.1262 -0.1683 -0.4099
  111SOL     OW  514   3.167   3.983   0.717 -0.1568 -0.0051  0.1617
  111SOL    HW2  515   3.239   3.923   0.735  0.3010  0.4536 -0.1693
  111SOL    HW3  516   3.091   3.940   0.757  0.1430 -0.8751 -0.1937
  111SOL    MW4  517   3.166   3.969   0.725 -0.0570 -0.0596  0.0710
  112SOL     OW  518   2.605   1.247   0.503  0.1532  0.3267  0.2442
  112SOL    HW2  519   2.621   1.316   0.439  0.0005 -1.2204 -1.5152
  112SOL    HW3  520   2.689   1.202   0.511  0.1442  0.4524  1.0655
  112SOL    MW4  521   2.618   1.250   0.495  0.1321  0.1392  0.1204
  113SOL     OW  522   3.153   2.717   0.784  0.6164 -0.2484 -0.3622
  113SOL    HW2  523   3.163   2.642   0.726 -0.5451  0.3499 -1.3632
  113SOL    HW3  524   3.238   2.762   0.779  0.4999 -0.1550 -1.6810
  113SOL    MW4  525   3.166   2.713   0.776  0.4478 -0.1571 -0.6682
  114SOL     OW  526   1.978   1.162   0.750 -0.2203 -0.1752 -0.4785
  114SOL    HW2  527   1.914   1.121   0.809  1.2020 -1.1650  0.4185
  114SOL    HW3  528   1.987   1.100   0.678  1.7794 -1.3842  0.7771
  114SOL    MW4  529   1.971   1.148   0.749  0.2313 -0.4654 -0.1945
  115SOL     OW  530   1.610   3.924   0.892  0.1772  0.0694 -0.1001
  115SOL    HW2  531   1.536   3.981   0.871  0.2725  0.1701 -0.1638
  115SOL    HW3  532   1.590   3.842   0.848 -0.6829 -0.4425  1.2114
  115SOL    MW4  533   1.598   3.921   0.884  0.0763  0.0153  0.0646
  116SOL     OW  534   4.351   2.924   0.471  0.1301  0.3184 -0.4533
  116SOL    HW2  535   4.437   2.965   0.479  0.5615 -0.1988 -2.2939
  116SOL    HW3  536   4.291   2.997   0.455  0.1009  0.7434  1.3853
  116SOL    MW4  537   4.354   2.939   0.470  0.1831  0.3061 -0.4535
  117SOL     OW  538   1.890   3.254   0.810  0.0558  0.3559  0.3566
  117SOL    HW2  539   1.812   3.206   0.838 -0.0723  1.5382  2.1074
  117SOL    HW3  540   1.963   3.205   0.847 -0.0130  0.8148  1.1126
  117SOL    MW4  541   1.889   3.242   0.819  0.0299  0.5727  0.6874
  118SOL     OW  542   0.709   3.516   0.495 -0.4681 -0.0564 -0.2414
  118SOL    HW2  543   0.650   3.561   0.436 -2.5497 -0.9946  1.0789
  118SOL    HW3  544   0.724   3.430   0.454 -0.6744 -0.1258 -0.1715
  118SOL    MW4  545   0.703   3.510   0.482 -0.7700 -0.1893 -0.0579
  119SOL     OW  546   4.449   1.680   0.708  0.0450  0.2060 -0.0417
  119SOL    HW2  547   4.468   1.767   0.744 -1.2192  0.2523  0.5358
  119SOL    HW3  548   4.379   1.646   0.764  0.4697 -1.1478 -0.3286
  119SOL    MW4  549   4.442   1.687   0.720 -0.0658  0.0334 -0.0034
  120SOL     OW  550   0.824   4.356   0.436  0.3523 -0.4438 -0.0564
  120SOL    HW2  551   0.786   4.270   0.419  1.2487 -0.7888 -0.3830
  120SOL    HW3  552   0.918   4.344   0.420  0.8323 -0.0068  2.2122
  120SOL    MW4  553   0.832   4.343   0.431  0.5339 -0.4320  0.1999
  121SOL     OW  554   1.363   4.055   0.879 -0.0889 -0.3300 -0.4666
  121SOL    HW2  555   1.292   3.991   0.878  0.1325 -0.5749 -1.6904
  121SOL    HW3  556   1.348   4.109   0.802  0.1583  0.6236  0.1447
  121SOL    MW4  557   1.352   4.054   0.869 -0.0271 -0.2365 -0.5475
  122SOL     OW  558   1.999   2.303   0.798 -0.7365  0.0286  0.0666
  122SOL    HW2  559   1.991   2.312   0.893 -1.4374  1.8093 -0.1542
  122SOL    HW3  560   2.083   2.344   0.777  0.1664 -1.7608  0.0849
  122SOL    MW4  561   2.009   2.309   0.808 -0.7098  0.0274  0.0398
  123SOL     OW  562   3.280   2.612   0.266  0.3565  0.5329 -0.2188
  123SOL    HW2  563   3.249   2.609   0.176  0.8497 -0.5203 -0.3595
  123SOL    HW3  564   3.251   2.528   0.304  3.1498 -0.5507 -0.3934
  123SOL    MW4  565   3.272   2.600   0.259  0.7899  0.2511 -0.2604
  124SOL     OW  566   1.585   4.661   0.609  0.1370 -0.0508  0.3509
  124SOL    HW2  567   1.660   4.707   0.646 -1.2262  1.2197  1.5981
  124SOL    HW3  568   1.536   4.729   0.562  0.7727 -1.2442 -2.1551
  124SOL    MW4  569   1.589   4.676   0.608  0.0410 -0.0406  0.1848
  125SOL     OW  570   3.125   3.189   0.684 -0.2282 -0.2004  0.0878
  125SOL    HW2  571   3.213   3.173   0.718 -0.1300 -2.1959 -1.0372
  125SOL    HW3  572   3.068   3.148   0.749 -0.0249 -4.3639 -2.1776
  125SOL    MW4  573   3.129   3.181   0.697 -0.1886 -1.0130 -0.3595
  126SOL     OW  574   2.468   4.661   0.841  0.0510  0.8021 -0.1254
  126SOL    HW2  575   2.381   4.672   0.803 -0.1108 -0.4797 -0.1462
  126SOL    HW3  576   2.454   4.662   0.935 -0.0810 -0.0293 -0.1292
  126SOL    MW4  577   2.455   4.662   0.848  0.0122  0.5240 -0.1287
  127SOL     OW  578   3.937   2.818   0.451 -0.2026 -0.2092  0.4336
  127SOL    HW2  579   3.919   2.832   0.544 -2.5244 -0.5223  0.0543
  127SOL    HW3  580   4.019   2.768   0.450  0.8973  1.4789  2.2228
  127SOL    MW4  581   3.946   2.814   0.464 -0.3641 -0.0279  0.6196
  128SOL     OW  582   2.457   2.052   0.716 -0.2305  0.3689  0.0614
  128SOL    HW2  583   2.497   1.996   0.782  1.2349  1.0841 -0.2072
  128SOL    HW3  584   2.514   2.043   0.639 -1.8814 -0.4126 -1.0890
  128SOL    MW4  585   2.470   2.044   0.715 -0.2549  0.3603 -0.1258
  129SOL     OW  586   1.304   1.677   0.634  0.1002  0.1284 -0.2752
  129SOL    HW2  587   1.363   1.745   0.665  1.1178 -0.3077 -1.2329
  129SOL    HW3  588   1.262   1.644   0.713  1.2637  0.3293  0.4333
  129SOL    MW4  589   1.306   1.681   0.648  0.3879  0.0973 -0.3081
  130SOL     OW  590   0.894   0.656   0.467  0.5343  0.3810 -0.2392
  130SOL    HW2  591   0.909   0.629   0.376  0.0271 -1.4863  0.2009
  130SOL    HW3  592   0.980   0.645   0.509  0.4803  0.0616 -0.2113
  130SOL    MW4  593   0.907   0.651   0.461  0.4603  0.0926 -0.1774
  131SOL     OW  594   2.428   4.370   0.478 -0.1916  0.2960 -0.3792
  131SOL    HW2  595   2.523   4.364   0.464 -0.2781 -0.4935 -0.6045
  131SOL    HW3  596   2.420   4.416   0.562  0.3539  2.2131 -1.3413
  131SOL    MW4  597   2.440   4.376   0.487 -0.1309  0.4449 -0.5358
  132SOL     OW  598   2.969   4.644   0.870  0.3067 -0.2335  0.3592
  132SOL    HW2  599   3.022   4.722   0.854  0.9623 -0.5816  0.7658
  132SOL    HW3  600   2.879   4.671   0.853  0.6120  0.3883 -0.2799
  132SOL    MW4  601   2.964   4.658   0.866  0.4332 -0.1974  0.3285
  133SOL     OW  602   0.566   4.168   1.043  0.4050  0.2146 -0.6667
  133SOL    HW2  603   0.549   4.249   1.091  0.5512  0.1489 -0.5063
  133SOL    HW3  604   0.504   4.171   0.969  0.3711  0.4453 -0.6296
  133SOL    MW4  605   0.556   4.179   1.039  0.4198  0.2360 -0.6405
  134SOL     OW  606   0.916   4.006   0.506  0.0713  0.0698  0.0719
  134SOL    HW2  607   0.925   3.911   0.501  0.0303 -0.0339  1.8662
  134SOL    HW3  608   0.991   4.040   0.458 -0.4177 -0.8461 -1.4108
  134SOL    MW4  609   0.927   3.998   0.499  0.0014 -0.0648  0.1130
  135SOL     OW  610   2.001   3.628   0.718 -0.1813 -0.0180 -0.2152
  135SOL    HW2  611   2.084   3.591   0.750 -0.9439 -2.7597 -1.2647
  135SOL    HW3  612   1.934   3.582   0.768 -1.1411  1.7986  0.2259
  135SOL    MW4  613   2.003   3.617   0.729 -0.4086 -0.1402 -0.2955
  136SOL     OW  614   3.122   0.934   0.600 -0.1856 -0.9019 -0.1141
  136SOL    HW2  615   3.167   0.995   0.543 -0.7083 -0.2902  0.1270
  136SOL    HW3  616   3.187   0.910   0.666  0.0869 -0.7808 -0.3420
  136SOL    MW4  617   3.136   0.939   0.601 -0.2186 -0.8053 -0.1124
  137SOL     OW  618   3.184   2.390   0.407  0.0181 -0.1254  0.7320
  137SOL    HW2  619   3.167   2.416   0.497  0.5119  0.1735  0.7408
  137SOL    HW3  620   3.228   2.305   0.414 -1.9346 -1.1675  0.6902
  137SOL    MW4  621   3.188   2.382   0.420 -0.1748 -0.2236  0.7277
  138SOL     OW  622   2.490   1.238   0.761  0.1043 -0.5547 -0.0537
  138SOL    HW2  623   2.505   1.216   0.670 -0.4990 -0.4003 -0.1920
  138SOL    HW3  624   2.409   1.193   0.784  1.0580 -1.8380  0.8401
  138SOL    MW4  625   2.481   1.229   0.752  0.1504 -0.7036  0.0460
  139SOL     OW  626   2.034   0.982   0.552  0.2968 -0.4436 -0.3834
  139SOL    HW2  627   2.063   0.900   0.593  1.0029  0.3436  0.7207
  139SOL    HW3  628   2.114   1.022   0.519  0.2742  0.9387  1.1931
  139SOL    MW4  629   2.049   0.976   0.553  0.3872 -0.1573 -0.0297
  140SOL     OW  630   1.583   0.500   0.815 -0.2131 -0.0832 -0.4572
  140SOL    HW2  631   1.607   0.479   0.725 -1.1848 -1.0600 -0.5016
  140SOL    HW3  632   1.509   0.441   0.835  0.5625 -0.5182  1.2644
  140SOL    MW4  633   1.576   0.489   0.806 -0.2389 -0.2695 -0.2360
  141SOL     OW  634   3.567   4.263   0.791 -0.2701  0.0630  0.0407
  141SOL    HW2  635   3.494   4.322   0.774 -0.7372 -0.8799 -1.3120
  141SOL    HW3  636   3.641   4.300   0.743 -0.4933 -0.2961 -0.5847
  141SOL    MW4  637   3.567   4.275   0.783 -0.3612 -0.1082 -0.2202
  142SOL     OW  638   0.113   4.532   0.729  0.1903 -0.4799 -0.1795
  142SOL    HW2  639   0.097   4.606   0.788 -2.3627 -0.7203 -0.5250
  142SOL    HW3  640   0.071   4.458   0.772 -0.3898 -0.9723 -1.5564
  142SOL    MW4  641   0.106   4.532   0.743 -0.2231 -0.5765 -0.4067
  143SOL     OW  642   0.410   0.562   0.715 -0.0348  0.2282 -0.2117
  143SOL    HW2  643   0.461   0.491   0.675 -1.4624 -0.6423 -0.5354
  143SOL    HW3  644   0.474   0.611   0.767  1.3533 -0.1428 -1.5138
  143SOL    MW4  645   0.425   0.559   0.717 -0.0400  0.0644 -0.4262
  144SOL     OW  646   2.324   0.359   0.856  0.5177  0.1917  0.7180
  144SOL    HW2  647   2.300   0.272   0.822  1.8106 -0.0088  0.2964
  144SOL    HW3  648   2.278   0.366   0.940 -0.0166 -0.6772  0.5050
  144SOL    MW4  649   2.315   0.349   0.862  0.6177  0.0506  0.6343
  145SOL     OW  650   0.803   0.113   0.451 -0.1891  0.0973  0.6847
  145SOL    HW2  651   0.730   0.105   0.390  1.0926  0.2895 -0.9198
  145SOL    HW3  652   0.798   0.203   0.483  0.3687  0.6962 -0.8198
  145SOL    MW4  653   0.793   0.124   0.447  0.0536  0.2017  0.2745
  146SOL     OW  654   4.073   0.385   0.855  0.6750 -0.1997 -0.0376
  146SOL    HW2  655   4.165   0.394   0.829  1.0010 -0.0981  1.1226
  146SOL    HW3  656   4.029   0.459   0.813  0.9091 -0.8806 -1.5148
  146SOL    MW4  657   4.080   0.396   0.846  0.7491 -0.2761 -0.0795
  147SOL     OW  658   1.718   0.406   1.078 -0.0093  0.4793  0.3292
  147SOL    HW2  659   1.699   0.444   0.992  0.9668  1.3998  0.5158
  147SOL    HW3  660   1.807   0.433   1.097 -0.0078 -0.2405  1.3690
  147SOL    MW4  661   1.727   0.415   1.069  0.1198  0.5058  0.4908
  148SOL     OW  662   1.999   1.934   0.411  0.3958  0.3266  0.2530
  148SOL    HW2  663   2.064   1.864   0.413  1.3689  1.2460  0.7309
  148SOL    HW3  664   1.980   1.952   0.503 -0.4703  0.1303  0.1187
  148SOL    MW4  665   2.005   1.927   0.423  0.4098  0.4219  0.2983
  149SOL     OW  666   2.513   0.404   0.634  0.2527 -0.1508 -0.2117
  149SOL    HW2  667   2.483   0.381   0.546  0.4434  0.6720 -0.4973
  149SOL    HW3  668   2.439   0.383   0.691 -0.3586  0.5724 -0.7344
  149SOL    MW4  669   2.500   0.398   0.630  0.1974  0.0532 -0.3183
  150SOL     OW  670   1.129   2.044   0.432 -0.6379 -0.4325 -0.6333
  150SOL    HW2  671   1.107   1.951   0.431  0.4318 -0.6793 -1.1996
  150SOL    HW3  672   1.223   2.047   0.416 -0.1667  0.6164  2.0191
  150SOL    MW4  673   1.138   2.032   0.430 -0.4346 -0.3266 -0.3580
  151SOL     OW  674   2.303   3.862   0.341  0.1470 -0.1727  0.2731
  151SOL    HW2  675   2.345   3.935   0.385 -0.2813  0.3919 -0.2544
  151SOL    HW3  676   2.308   3.883   0.248  2.3540 -2.0431 -0.0804
  151SOL    MW4  677   2.309   3.874   0.335  0.3817 -0.3450  0.1569
  152SOL     OW  678   1.476   3.640   0.507 -0.2978  0.5880  0.3546
  152SOL    HW2  679   1.455   3.549   0.486  0.1392  0.6877 -0.5414
  152SOL    HW3  680   1.398   3.689   0.480  0.3440  0.7430 -1.3149
  152SOL    MW4  681   1.463   3.635   0.500 -0.1556  0.6216  0.0162
  153SOL     OW  682   4.466   2.493   0.722 -0.3519 -0.4346  0.5843
  153SOL    HW2  683   4.547   2.449   0.746 -0.1054 -1.1496 -1.4218
  153SOL    HW3  684   4.469   2.577   0.767  2.2251  0.1905 -0.7072
  153SOL    MW4  685   4.477   2.498   0.731  0.0205 -0.4463  0.1493
  154SOL     OW  686   0.074   3.569   0.517 -0.4685  0.2572  0.0717
  154SOL    HW2  687   0.019   3.524   0.452  1.2411 -1.8314 -0.0171
  154SOL    HW3  688   0.153   3.514   0.523 -0.0008  1.1590  2.9152
  154SOL    MW4  689   0.077   3.556   0.509 -0.1812  0.1006  0.4352
  155SOL     OW  690   2.680   0.349   0.860 -0.3380 -0.0268  0.3489
  155SOL    HW2  691   2.618   0.363   0.789  0.6680 -3.1971 -1.2301
  155SOL    HW3  692   2.760   0.393   0.831 -0.4360  0.1311  0.3131
  155SOL    MW4  693   2.682   0.357   0.847 -0.2182 -0.4242  0.1359
  156SOL     OW  694   1.146   2.085   0.720 -0.2117 -0.1719 -0.2140
  156SOL    HW2  695   1.137   2.083   0.625 -0.2391  0.4951 -0.2242
  156SOL    HW3  696   1.154   2.178   0.742  1.1157 -0.3980  0.3154
  156SOL    MW4  697   1.146   2.097   0.710 -0.0401 -0.1140 -0.1455
  157SOL     OW  698   3.586   0.187   0.801 -0.3896  0.1452 -0.4297
  157SOL    HW2  699   3.555   0.219   0.716 -1.8417 -0.1232 -0.0247
  157SOL    HW3  700   3.516   0.129   0.831  0.1694  0.1392  0.8809
  157SOL    MW4  701   3.572   0.184   0.794 -0.5074  0.1090 -0.2033
  158SOL     OW  702   0.855   0.900   0.264  0.0453 -0.3382 -0.1017
  158SOL    HW2  703   0.874   0.817   0.221  0.9297 -0.7533  1.0608
  158SOL    HW3  704   0.937   0.924   0.307 -0.0325  1.4195 -0.8710
  158SOL    MW4  705   0.869   0.892   0.264  0.1518 -0.1610 -0.0498
  159SOL     OW  706   3.867   3.080   0.376 -0.1213  0.2916  0.8609
  159SOL    HW2  707   3.790   3.101   0.429  0.0723  0.5327  1.0439
  159SOL    HW3  708   3.888   2.990   0.400 -2.6846 -1.1820 -2.0056
  159SOL    MW4  709   3.859   3.071   0.386 -0.4342  0.1292  0.5068
  160SOL     OW  710   2.463   3.616   0.446  0.1036 -0.0233 -0.3594
  160SOL    HW2  711   2.391   3.554   0.454  1.0568 -1.4150 -1.9563
  160SOL    HW3  712   2.423   3.695   0.409 -0.7853 -0.3819 -0.1763
  160SOL    MW4  713   2.449   3.618   0.442  0.1121 -0.2542 -0.5460
  161SOL     OW  714   0.617   1.825   0.403  0.0568 -0.5173  0.0240
  161SOL    HW2  715   0.707   1.791   0.405  0.4110 -0.0351 -3.8542
  161SOL    HW3  716   0.628   1.920   0.405 -0.3887 -0.4751  0.3124
  161SOL    MW4  717   0.630   1.833   0.403  0.0448 -0.4481 -0.4496
  162SOL     OW  718   3.500   0.052   0.449 -0.2146 -0.2696 -0.2474
  162SOL    HW2  719   3.500   0.147   0.457  0.1985 -0.3153  0.3565
  162SOL    HW3  720   3.419   0.024   0.491 -0.3160 -0.1862 -0.3877
  162SOL    MW4  721   3.489   0.061   0.456 -0.1733 -0.2646 -0.1863
  163SOL     OW  722   3.293   3.226   0.282  0.2276  0.5565 -0.1238
  163SOL    HW2  723   3.372   3.262   0.322  0.2213  0.9722 -0.4739
  163SOL    HW3  724   3.260   3.297   0.227  0.8973 -0.3983 -1.7931
  163SOL    MW4  725   3.299   3.240   0.280  0.3152  0.4852 -0.3902
  164SOL     OW  726   2.492   1.688   0.471 -0.4052 -0.5955 -0.4946
  164SOL    HW2  727   2.536   1.767   0.440 -0.9246 -0.4698 -0.9006
  164SOL    HW3  728   2.534   1.670   0.556 -0.7773  0.5125 -0.0637
  164SOL    MW4  729   2.503   1.696   0.478 -0.5229 -0.4328 -0.4913
  165SOL     OW  730   3.823   1.982   0.478  0.0066  0.2887 -0.2171
  165SOL    HW2  731   3.819   2.022   0.564 -2.9453  0.1574 -0.2169
  165SOL    HW3  732   3.891   2.031   0.431  2.3734 -0.3339  2.4755
  165SOL    MW4  733   3.831   1.994   0.483 -0.0708  0.1893  0.1382
  166SOL     OW  734   2.905   0.479   0.765 -0.3558  0.2689 -0.2608
  166SOL    HW2  735   2.982   0.487   0.821  0.6184  0.1236 -1.5323
  166SOL    HW3  736   2.881   0.570   0.745  0.5612  0.3108 -1.2555
  166SOL    MW4  737   2.912   0.492   0.770 -0.1063  0.2553 -0.5597
  167SOL     OW  738   1.521   2.313   0.821  0.1787  0.4170  0.0100
  167SOL    HW2  739   1.584   2.380   0.794  0.7591 -0.7727 -1.6939
  167SOL    HW3  740   1.443   2.332   0.770  0.6651 -0.7531 -1.1961
  167SOL    MW4  741   1.519   2.324   0.811  0.3194  0.1056 -0.3739
  168SOL     OW  742   2.491   3.177   0.383 -0.0546  0.0767  0.7304
  168SOL    HW2  743   2.562   3.207   0.441 -0.6933  1.6296  0.7285
  168SOL    HW3  744   2.530   3.177   0.296 -0.0348  0.8576  0.7386
  168SOL    MW4  745   2.506   3.181   0.379 -0.1361  0.3846  0.7313
  169SOL     OW  746   1.005   0.021   1.061  0.1390 -0.1395  0.1657
  169SOL    HW2  747   1.007   0.076   0.983  0.9747  0.1367  0.3789
  169SOL    HW3  748   1.009  -0.069   1.027  2.0327  0.0152 -0.0612
  169SOL    MW4  749   1.006   0.016   1.046  0.4991 -0.0826  0.1639
  170SOL     OW  750   1.350   4.609   0.291 -0.1296  0.0535 -0.4045
  170SOL    HW2  751   1.278   4.627   0.231  0.9926  0.2199 -1.7117
  170SOL    HW3  752   1.380   4.522   0.266 -0.6263 -0.5246  0.9306
  170SOL    MW4  753   1.344   4.600   0.280 -0.0471 -0.0010 -0.4008
  171SOL     OW  754   0.883   1.689   0.747 -0.2783 -0.3045  0.3266
  171SOL    HW2  755   0.884   1.782   0.769  0.7865 -0.7683  2.2981
  171SOL    HW3  756   0.885   1.688   0.651  1.8951  1.6980  0.2921
  171SOL    MW4  757   0.884   1.701   0.737  0.1490 -0.1016  0.5822
  172SOL     OW  758   0.246   0.677   0.521  0.1048  0.0524 -0.5419
  172SOL    HW2  759   0.312   0.650   0.586 -0.5571  0.5446  0.3327
  172SOL    HW3  760   0.202   0.595   0.497  0.9375 -0.2648 -1.0423
  172SOL    MW4  761   0.249   0.663   0.526  0.1273  0.0755 -0.4926
  173SOL     OW  762   1.186   3.128   0.803  0.0303 -0.1943 -0.0324
  173SOL    HW2  763   1.115   3.184   0.772  1.2918  0.6914 -1.4359
  173SOL    HW3  764   1.173   3.045   0.756  0.1535  0.1078 -0.6107
  173SOL    MW4  765   1.175   3.124   0.793  0.2130 -0.0377 -0.2939
  174SOL     OW  766   3.019   1.232   0.453  0.3167 -0.0983  0.2591
  174SOL    HW2  767   2.973   1.244   0.535  0.5243 -0.6759  0.4610
  174SOL    HW3  768   3.024   1.320   0.415 -1.7736 -0.1671 -0.2227
  174SOL    MW4  769   3.014   1.245   0.459  0.0682 -0.1837  0.2222
  175SOL     OW  770   3.705   0.711   0.866 -0.1798 -0.3422  0.1845
  175SOL    HW2  771   3.741   0.748   0.947 -1.5729  0.7202  0.3388
  175SOL    HW3  772   3.661   0.631   0.894 -1.9026  0.7653  0.7377
  175SOL    MW4  773   3.704   0.705   0.880 -0.5910 -0.0558  0.2779
  176SOL     OW  774   3.943   0.631   0.747  0.4872  0.6451  0.0628
  176SOL    HW2  775   3.867   0.655   0.799  1.5177  0.4349  1.7136
  176SOL    HW3  776   3.998   0.709   0.748  1.2322  0.1195  0.6342
  176SOL    MW4  777   3.940   0.644   0.754  0.7215  0.5480  0.3560
  177SOL     OW  778   1.464   0.506   0.287  0.3246  0.1962 -0.3145
  177SOL    HW2  779   1.514   0.581   0.321  0.8434  0.1253 -0.9033
  177SOL    HW3  780   1.529   0.436   0.280 -0.5859 -0.9564  2.2099
  177SOL    MW4  781   1.479   0.507   0.291  0.2730  0.0347 -0.0591
  178SOL     OW  782   3.792   3.786   0.132  0.3252  0.1251 -0.0570
  178SOL    HW2  783   3.804   3.856   0.197 -1.8298 -0.9730  1.5823
  178SOL    HW3  784   3.711   3.808   0.087 -0.1777 -1.1260  0.2245
  178SOL    MW4  785   3.783   3.798   0.135 -0.0253 -0.1848  0.1964
  179SOL     OW  786   2.248   2.705   0.818 -0.4037 -0.1566 -0.5360
  179SOL    HW2  787   2.267   2.713   0.911 -2.1970 -0.6432 -0.1140
  179SOL    HW3  788   2.264   2.613   0.797 -0.2871 -0.1113 -0.6523
  179SOL    MW4  789   2.253   2.694   0.827 -0.6247 -0.2151 -0.4957
  180SOL     OW  790   2.209   4.274   0.907 -0.3882  0.2006  0.7214
  180SOL    HW2  791   2.125   4.305   0.871 -0.1955 -0.0732  0.0322
  180SOL    HW3  792   2.229   4.195   0.857 -0.0812 -0.1543  1.3942
  180SOL    MW4  793   2.200   4.268   0.896 -0.3223  0.1178  0.7192
  181SOL     OW  794   4.370   0.466   0.840 -0.3613 -0.2766  0.2906
  181SOL    HW2  795   4.346   0.555   0.863  0.5210  0.2470 -0.7523
  181SOL    HW3  796   4.416   0.432   0.917  0.6374  0.6962  0.1455
  181SOL    MW4  797   4.373   0.473   0.853 -0.1130 -0.0792  0.1339
  182SOL     OW  798   3.355   3.536   0.471  0.1113  0.4371  0.0749
  182SOL    HW2  799   3.365   3.543   0.566 -0.5681  2.5233  0.0217
  182SOL    HW3  800   3.418   3.599   0.436 -0.5279  0.5769 -0.8239
  182SOL    MW4  801   3.365   3.545   0.479 -0.0627  0.7308 -0.0507
  183SOL     OW  802   3.303   0.819   1.227  0.4890 -0.1477  0.0983
  183SOL    HW2  803   3.256   0.858   1.153  1.3577  2.3176  0.7906
  183SOL    HW3  804   3.242   0.827   1.301  0.2793 -1.0392  0.0222
  183SOL    MW4  805   3.289   0.826   1.227  0.5758  0.0600  0.1794
  184SOL     OW  806   2.361   4.087   0.474 -0.0296  0.0106 -0.1266
  184SOL    HW2  807   2.369   4.182   0.467  0.1253  0.0146  0.0963
  184SOL    HW3  808   2.340   4.071   0.566 -0.3572 -0.1529 -0.2287
  184SOL    MW4  809   2.359   4.098   0.485 -0.0527 -0.0105 -0.1107
  185SOL     OW  810   1.385   1.958   0.828 -0.0727  0.1588  1.0078
  185SOL    HW2  811   1.298   1.991   0.807 -0.3363 -0.1250  1.6463
  185SOL    HW3  812   1.383   1.940   0.922  0.1808 -1.3160  0.7532
  185SOL    MW4  813   1.374   1.960   0.838 -0.0740 -0.0732  1.0584
  186SOL     OW  814   3.349   4.116   0.336  0.5677 -0.1810  0.8761
  186SOL    HW2  815   3.373   4.207   0.352 -0.2385  0.5486 -1.7958
  186SOL    HW3  816   3.258   4.110   0.364  0.3765  0.0438  0.3019
  186SOL    MW4  817   3.340   4.127   0.342  0.4363 -0.0553  0.4478
  187SOL     OW  818   2.816   1.044   0.423 -0.0202  0.2608  0.3165
  187SOL    HW2  819   2.840   0.963   0.378 -0.7780  0.2045 -0.0049
  187SOL    HW3  820   2.878   1.109   0.391  1.5521 -0.5179  1.6949
  187SOL    MW4  821   2.827   1.042   0.413  0.0875  0.1507  0.4559
  188SOL     OW  822   2.694   3.489   0.368  0.1578 -0.1749  0.4331
  188SOL    HW2  823   2.715   3.416   0.426 -2.0356 -2.4805 -1.5311
  188SOL    HW3  824   2.616   3.528   0.407  1.0427  0.8361  1.2129
  188SOL    MW4  825   2.686   3.484   0.380 -0.0150 -0.3457  0.2768
  189SOL     OW  826   3.813   2.358   0.793  0.3183  0.4995  0.0852
  189SOL    HW2  827   3.815   2.355   0.889  0.3596 -0.5555  0.0558
  189SOL    HW3  828   3.806   2.266   0.766  1.2798  0.7179 -0.9510
  189SOL    MW4  829   3.812   2.345   0.802  0.4504  0.3889 -0.0554
  190SOL     OW  830   2.637   3.305   0.175 -0.4152 -0.0694  0.0898
  190SOL    HW2  831   2.641   3.382   0.232 -0.2446 -0.3342  0.4393
  190SOL    HW3  832   2.566   3.324   0.114 -0.3903  0.3537  0.1903
  190SOL    MW4  833   2.628   3.317   0.174 -0.3896 -0.0486  0.1492
  191SOL     OW  834   0.798   0.012   0.721  0.0227  0.0475  0.3917
  191SOL    HW2  835   0.798  -0.083   0.725  0.1455  0.0781  1.2941
  191SOL    HW3  836   0.780   0.033   0.629  0.6372 -0.8436  0.0661
  191SOL    MW4  837   0.795   0.002   0.710  0.1200 -0.0663  0.4678
  192SOL     OW  838   3.785   4.667   0.837 -0.2777  0.6141 -0.3434
  192SOL    HW2  839   3.731   4.744   0.819 -0.4466  0.3322 -1.0832
  192SOL    HW3  840   3.874   4.696   0.820 -0.3525  0.6130 -0.7388
  192SOL    MW4  841   3.789   4.681   0.832 -0.3097  0.5768 -0.4932
  193SOL     OW  842   2.637   0.496   0.213 -0.2388 -0.0920  0.2722
  193SOL    HW2  843   2.718   0.490   0.263 -0.4707  0.2233  0.6894
  193SOL    HW3  844   2.617   0.590   0.210  1.2033  0.1612 -2.7266
  193SOL    MW4  845   2.645   0.508   0.219 -0.0792 -0.0170 -0.0684
  194SOL     OW  846   3.854   2.854   0.724 -0.6129  0.5203  0.0457
  194SOL    HW2  847   3.913   2.822   0.792  0.3796 -0.1593 -1.1141
  194SOL    HW3  848   3.775   2.801   0.732  0.1085 -0.6318 -0.3331
  194SOL    MW4  849   3.852   2.843   0.734 -0.3867  0.2785 -0.1573
  195SOL     OW  850   1.878   0.417   0.787 -0.5063  0.0251  0.0096
  195SOL    HW2  851   1.825   0.435   0.710 -1.1450 -0.3142  0.3649
  195SOL    HW3  852   1.968   0.416   0.755 -0.7125  0.6151 -0.5958
  195SOL    MW4  853   1.883   0.419   0.773 -0.6177  0.0581 -0.0234
  196SOL     OW  854   0.403   1.311   0.449  0.2222 -0.1071 -0.1220
  196SOL    HW2  855   0.393   1.217   0.434  0.0956  0.1194 -1.5318
  196SOL    HW3  856   0.375   1.324   0.540 -2.3011 -1.0447 -0.7184
  196SOL    MW4  857   0.398   1.300   0.459 -0.1275 -0.2010 -0.3867
  197SOL     OW  858   2.778   4.662   0.538 -0.4493  0.3594  0.2860
  197SOL    HW2  859   2.756   4.569   0.542 -0.5081  0.3870  0.5990
  197SOL    HW3  860   2.749   4.697   0.622  0.3080  0.4998  0.4927
  197SOL    MW4  861   2.772   4.654   0.550 -0.3574  0.3815  0.3545
  198SOL     OW  862   0.376   1.044   0.455  0.2962  0.1187 -0.0634
  198SOL    HW2  863   0.329   0.999   0.385  0.6292  0.4517 -0.5081
  198SOL    HW3  864   0.465   1.010   0.449  0.6428  1.1298 -0.6587
  198SOL    MW4  865   0.381   1.034   0.445  0.3859  0.2960 -0.2006
  199SOL     OW  866   3.564   2.478   0.702 -0.2082  0.2598 -0.1471
  199SOL    HW2  867   3.652   2.450   0.731  0.1359 -0.2802 -1.6525
  199SOL    HW3  868   3.505   2.444   0.769  0.5873 -0.8411  0.0100
  199SOL    MW4  869   3.568   2.470   0.715 -0.0575  0.0436 -0.3250
  200SOL     OW  870   2.892   3.613   0.754  0.3734 -0.0187  0.0284
  200SOL    HW2  871   2.909   3.695   0.800  0.9419 -0.1172 -0.0071
  200SOL    HW3  872   2.877   3.640   0.663  0.0276  0.0963  0.1168
  200SOL    MW4  873   2.892   3.627   0.748  0.4029 -0.0165  0.0353
  201SOL     OW  874   0.195   0.234   0.710 -0.0010 -0.0454  0.5071
  201SOL    HW2  875   0.169   0.305   0.650 -0.9789  0.0868  1.0713
  201SOL    HW3  876   0.289   0.222   0.694 -0.0895  0.5113 -0.5010
  201SOL    MW4  877   0.204   0.242   0.700 -0.1417  0.0455  0.4486
  202SOL     OW  878   1.406   2.000   0.403  0.2183 -0.0818  0.2360
  202SOL    HW2  879   1.381   1.938   0.334 -1.9426  1.6256 -0.6122
  202SOL    HW3  880   1.460   2.065   0.358 -0.6887  0.6980  0.2454
  202SOL    MW4  881   1.410   2.001   0.388 -0.1864  0.2463  0.1254
  203SOL     OW  882   3.612   3.326   0.127  0.3118 -0.3133  0.6622
  203SOL    HW2  883   3.706   3.310   0.126  0.3983  0.2284  0.0013
  203SOL    HW3  884   3.572   3.239   0.133  0.7713 -0.8115 -2.6946
  203SOL    MW4  885   3.619   3.313   0.128  0.3839 -0.3076  0.1321
  204SOL     OW  886   3.499   3.072   0.109 -0.0910  0.3977 -0.0140
  204SOL    HW2  887   3.497   3.014   0.185 -1.0540  2.3947  1.5135
  204SOL    HW3  888   3.407   3.082   0.084  0.1682  0.3101 -1.0286
  204SOL    MW4  889   3.487   3.066   0.116 -0.1838  0.6497  0.0537
  205SOL     OW  890   0.355   4.472   0.228 -0.1065 -0.2063  0.4367
  205SOL    HW2  891   0.326   4.463   0.137  0.0768 -0.3482  0.3922
  205SOL    HW3  892   0.313   4.399   0.274 -0.8236  0.3153  0.6229
  205SOL    MW4  893   0.346   4.461   0.222 -0.1770 -0.1559  0.4555
  206SOL     OW  894   0.212   1.523   0.397 -0.1952  0.1619 -0.0119
  206SOL    HW2  895   0.286   1.462   0.393 -1.1688 -0.9898 -0.6400
  206SOL    HW3  896   0.253   1.609   0.401  1.1931 -0.4762 -0.1429
  206SOL    MW4  897   0.228   1.526   0.397 -0.1405 -0.0743 -0.1121
  207SOL     OW  898   3.132   0.441   0.904 -0.4537  0.0263 -0.5842
  207SOL    HW2  899   3.138   0.352   0.869  2.4991  0.2511 -0.7632
  207SOL    HW3  900   3.114   0.428   0.997 -2.5604 -0.6944 -1.0772
  207SOL    MW4  901   3.131   0.428   0.912 -0.3421 -0.0391 -0.6729
  208SOL     OW  902   1.743   3.453   0.545 -0.0121 -0.6655  0.3370
  208SOL    HW2  903   1.657   3.422   0.518  0.2153 -0.5115 -0.5789
  208SOL    HW3  904   1.799   3.375   0.544  0.6949 -0.2031 -2.5070
  208SOL    MW4  905   1.739   3.439   0.541  0.1112 -0.5839 -0.1590
  209SOL     OW  906   4.282   0.007   0.843  0.0596 -0.0775 -0.4362
  209SOL    HW2  907   4.202   0.056   0.822 -0.0477 -0.4725 -0.9475
  209SOL    HW3  908   4.281  -0.002   0.938  0.2887  1.2830 -0.2883
  209SOL    MW4  909   4.272   0.013   0.853  0.0749  0.0499 -0.4842
  210SOL     OW  910   1.127   1.760   0.421 -0.0237  0.0407  0.2677
  210SOL    HW2  911   1.181   1.738   0.345 -0.4780  0.3375 -0.1387
  210SOL    HW3  912   1.179   1.730   0.496  0.2989 -0.5103 -0.1686
  210SOL    MW4  913   1.141   1.753   0.421 -0.0410  0.0072  0.1566
  211SOL     OW  914   3.147   1.274   0.875 -0.0783  0.2570  0.3945
  211SOL    HW2  915   3.119   1.358   0.912 -0.4926  0.4675 -0.3772
  211SOL    HW3  916   3.147   1.214   0.949 -0.8062  0.6915  0.7554
  211SOL    MW4  917   3.143   1.277   0.890 -0.2291  0.3421  0.3403
  212SOL     OW  918   4.265   2.126   0.742  0.1909 -0.1635  0.0930
  212SOL    HW2  919   4.259   2.147   0.649 -0.3336  0.0893  0.1859
  212SOL    HW3  920   4.257   2.211   0.786  1.7862 -0.1022  0.3196
  212SOL    MW4  921   4.263   2.140   0.735  0.3319 -0.1223  0.1352
  213SOL     OW  922   4.272   3.569   1.234 -0.4011 -0.5208 -0.4683
  213SOL    HW2  923   4.195   3.546   1.182 -1.6000 -0.3111  1.1832
  213SOL    HW3  924   4.337   3.503   1.210 -1.0726 -0.6720 -1.9172
  213SOL    MW4  925   4.270   3.557   1.224 -0.6480 -0.5133 -0.4414
  214SOL     OW  926   0.210   0.016   0.334 -0.5212 -0.3131  0.2999
  214SOL    HW2  927   0.149  -0.024   0.396 -0.8675  0.5448  0.5102
  214SOL    HW3  928   0.269  -0.056   0.310 -1.5272 -1.1087  0.1937
  214SOL    MW4  929   0.210   0.001   0.339 -0.6996 -0.3050  0.3136
  215SOL     OW  930   0.166   3.265   0.255 -0.1355  0.2195  0.4678
  215SOL    HW2  931   0.208   3.256   0.170 -1.1832 -1.3756  0.0884
  215SOL    HW3  932   0.101   3.334   0.243  1.4643  1.7997  0.7090
  215SOL    MW4  933   0.163   3.273   0.243 -0.0626  0.2177  0.4496
  216SOL     OW  934   3.725   2.769   0.281 -0.1057  0.0815  0.0797
  216SOL    HW2  935   3.793   2.773   0.349 -0.0615  0.4601  0.0152
  216SOL    HW3  936   3.771   2.795   0.201 -0.3072  0.2600  0.0220
  216SOL    MW4  937   3.740   2.773   0.280 -0.1261  0.1547  0.0636
  217SOL     OW  938   3.984   1.473   0.433 -0.0374  0.3436 -0.4448
  217SOL    HW2  939   3.935   1.553   0.454 -0.3522  0.1011 -0.2573
  217SOL    HW3  940   3.925   1.422   0.378 -0.4290 -0.4628  0.7253
  217SOL    MW4  941   3.970   1.477   0.428 -0.1304  0.2053 -0.2657
  218SOL     OW  942   2.951   4.396   0.722 -0.0968  0.1826 -0.0341
  218SOL    HW2  943   2.873   4.352   0.755  0.5241 -0.7492  0.1879
  218SOL    HW3  944   2.955   4.478   0.771 -1.4339  0.6446 -0.6789
  218SOL    MW4  945   2.941   4.401   0.733 -0.1910  0.1202 -0.0899
  219SOL     OW  946   1.191   2.696   0.468 -0.1279  0.6081 -0.3807
  219SOL    HW2  947   1.197   2.775   0.522  0.0484 -0.6678  1.4909
  219SOL    HW3  948   1.113   2.710   0.414 -1.3869  1.1166  1.5218
  219SOL    MW4  949   1.181   2.708   0.468 -0.2707  0.5069  0.1172
  220SOL     OW  950   4.333   0.479   0.564 -0.2614 -0.0792 -0.0894
  220SOL    HW2  951   4.271   0.419   0.523 -1.7996  0.8402  0.8642
  220SOL    HW3  952   4.337   0.449   0.655  0.5336  0.0041 -0.0932
  220SOL    MW4  953   4.326   0.467   0.571 -0.3591  0.0531  0.0359
  221SOL     OW  954   1.663   2.890   0.461  0.1439  0.1027 -0.1701
  221SOL    HW2  955   1.638   2.885   0.553 -0.3309 -2.0905 -0.3929
  221SOL    HW3  956   1.590   2.849   0.414  1.2110 -0.4567 -1.3644
  221SOL    MW4  957   1.650   2.884   0.467  0.2220 -0.2604 -0.3570
  222SOL     OW  958   2.861   3.668   0.487  0.3457  0.2243 -0.2899
  222SOL    HW2  959   2.952   3.658   0.459  0.4117 -0.2954  0.1021
  222SOL    HW3  960   2.812   3.603   0.437  0.3905 -0.3789  0.4529
  222SOL    MW4  961   2.866   3.658   0.477  0.3605  0.0761 -0.1402
  223SOL     OW  962   2.015   0.004   0.818 -0.7433 -0.0160 -0.1709
  223SOL    HW2  963   2.005  -0.091   0.821  1.7959 -0.2780  1.4272
  223SOL    HW3  964   2.008   0.032   0.910 -0.1403  1.1828 -0.4817
  223SOL    MW4  965   2.013  -0.005   0.831 -0.3288  0.1077 -0.0010
  224SOL     OW  966   4.134   1.205   0.518 -0.2111 -0.5451  0.5362
  224SOL    HW2  967   4.215   1.237   0.558 -1.1138  1.2425  1.0207
  224SOL    HW3  968   4.089   1.285   0.488 -1.2967 -1.5839 -0.6651
  224SOL    MW4  969   4.138   1.220   0.519 -0.4730 -0.4463  0.4416
  225SOL     OW  970   0.598   0.809   1.107  0.6651  0.0238 -0.5170
  225SOL    HW2  971   0.518   0.859   1.126  1.3743  0.9284  0.1480
  225SOL    HW3  972   0.593   0.791   1.014  0.1841  0.9581 -0.6805
  225SOL    MW4  973   0.586   0.813   1.098  0.6952  0.2665 -0.4508
  226SOL     OW  974   3.234   4.592   0.490 -0.0867  0.0298 -0.4614
  226SOL    HW2  975   3.199   4.523   0.433  0.3752  0.5137 -1.3411
  226SOL    HW3  976   3.158   4.649   0.508 -0.8597 -1.6052  1.6332
  226SOL    MW4  977   3.219   4.591   0.485 -0.1280 -0.1221 -0.3011
  227SOL     OW  978   3.419   3.551   0.113  0.1515  0.3638  0.3637
  227SOL    HW2  979   3.452   3.604   0.185  0.5776  1.1207 -0.3798
  227SOL    HW3  980   3.490   3.491   0.092 -0.1205 -0.1223  0.8358
  227SOL    MW4  981   3.432   3.550   0.119  0.1719  0.3991  0.3278
  228SOL     OW  982   4.009   4.256   0.882 -0.4838 -0.4121  0.5207
  228SOL    HW2  983   4.015   4.172   0.837  0.0921 -0.1200  0.0438
  228SOL    HW3  984   4.084   4.306   0.849 -0.4245  0.0353  1.3278
  228SOL    MW4  985   4.020   4.252   0.872 -0.4001 -0.3142  0.5643
  229SOL     OW  986   0.949   4.027   0.795  0.2419  0.8378  0.2169
  229SOL    HW2  987   0.902   4.103   0.828 -1.2084  0.2624 -0.4940
  229SOL    HW3  988   0.949   4.038   0.700  1.9114  1.0317  0.2184
  229SOL    MW4  989   0.943   4.039   0.787  0.2709  0.7877  0.1233
  230SOL     OW  990   2.545   2.769   0.478  0.1264  0.2921 -0.0756
  230SOL    HW2  991   2.638   2.785   0.464 -0.3363  1.4875 -1.9029
  230SOL    HW3  992   2.526   2.812   0.562  1.1110  0.4246  0.0876
  230SOL    MW4  993   2.555   2.777   0.488  0.1953  0.4673 -0.2951
  231SOL     OW  994   1.919   2.067   0.682  0.0120  0.5785 -0.7150
  231SOL    HW2  995   1.958   2.141   0.729  0.4392  1.0821 -1.8302
  231SOL    HW3  996   1.828   2.094   0.669 -0.2602  0.1846  0.3145
  231SOL    MW4  997   1.912   2.081   0.686  0.0324  0.5929 -0.7263
  232SOL     OW  998   4.057   2.734   0.871 -0.4970  0.6733  0.1138
  232SOL    HW2  999   4.037   2.654   0.823  1.8430  0.2543 -0.1998
  232SOL    HW3 1000   4.128   2.775   0.822  0.7786  1.1168  2.2486
  232SOL    MW4 1001   4.063   2.729   0.858 -0.0196  0.6764  0.3542
  233SOL     OW 1002   0.178   2.119   0.724 -0.2637  0.9005 -0.1343
  233SOL    HW2 1003   0.178   2.113   0.629  0.4480  1.5856 -0.1865
  233SOL    HW3 1004   0.259   2.075   0.751 -0.8016  0.1176  0.1938
  233SOL    MW4 1005   0.189   2.112   0.715 -0.2408  0.8876 -0.0980
  234SOL     OW 1006   0.194   1.550   0.821 -0.0531  0.1789  0.1509
  234SOL    HW2 1007   0.117   1.577   0.770 -0.1652  1.8447  1.1934
  234SOL    HW3 1008   0.262   1.611   0.795  0.8484 -1.0594 -0.4802
  234SOL    MW4 1009   0.193   1.561   0.811  0.0510  0.2353  0.2053
  235SOL     OW 1010   4.237   3.731   0.525  0.4696  0.0988 -0.4554
  235SOL    HW2 1011   4.179   3.807   0.533  1.1763  0.7706 -1.5342
  235SOL    HW3 1012   4.304   3.759   0.463  2.0592 -0.6031  0.9238
  235SOL    MW4 1013   4.238   3.745   0.518  0.7725  0.0949 -0.4158
  236SOL     OW 1014   3.805   1.277   0.419  0.0627 -0.7078  0.1146
  236SOL    HW2 1015   3.803   1.185   0.393 -0.5488 -0.6060 -0.2036
  236SOL    HW3 1016   3.713   1.301   0.428  0.2450 -0.4503  1.3426
  236SOL    MW4 1017   3.792   1.268   0.417  0.0062 -0.6604  0.2346
  237SOL     OW 1018   2.570   0.091   0.377 -0.6539  0.0460 -0.3638
  237SOL    HW2 1019   2.610   0.046   0.302 -1.1626 -0.2117 -0.4810
  237SOL    HW3 1020   2.637   0.086   0.445 -0.7929 -1.1079 -0.2981
  237SOL    MW4 1021   2.584   0.084   0.376 -0.7396 -0.1402 -0.3706
  238SOL     OW 1022   0.036   4.234   0.476  0.4341 -0.3540  0.2026
  238SOL    HW2 1023   0.074   4.199   0.557 -0.1957 -2.1595 -0.2452
  238SOL    HW3 1024   0.015   4.325   0.497  1.6310 -0.3703  1.6017
  238SOL    MW4 1025   0.039   4.241   0.490  0.5089 -0.5941  0.3282
  239SOL     OW 1026   0.633   1.581   0.778  0.3582  0.1771  0.0024
  239SOL    HW2 1027   0.720   1.616   0.763 -0.1821  1.5442  0.0364
  239SOL    HW3 1028   0.623   1.581   0.873  0.4509 -0.3141  0.0143
  239SOL    MW4 1029   0.643   1.585   0.788  0.2991  0.2928  0.0085
  240SOL     OW 1030   2.910   3.091   0.401  0.0073  0.2232 -0.2193
  240SOL    HW2 1031   2.902   3.103   0.307 -0.1695  0.0450 -0.2279
  240SOL    HW3 1032   3.005   3.091   0.418  0.0348  0.3861 -0.3781
  240SOL    MW4 1033   2.922   3.093   0.391 -0.0126  0.2210 -0.2414
  241SOL     OW 1034   4.214   4.456   0.510  0.3440 -0.3670  0.3712
  241SOL    HW2 1035   4.208   4.429   0.602 -0.4406  0.0270  0.4379
  241SOL    HW3 1036   4.186   4.379   0.461  2.2291 -1.1057  0.3841
  241SOL    MW4 1037   4.210   4.442   0.516  0.4892 -0.4125  0.3816
  242SOL     OW 1038   0.086   3.902   0.858 -0.3086 -0.0396  0.0692
  242SOL    HW2 1039   0.124   3.899   0.945 -0.7726  1.4810  0.3323
  242SOL    HW3 1040  -0.007   3.884   0.871 -0.8191  2.5346  0.1934
  242SOL    MW4 1041   0.079   3.899   0.871 -0.4372  0.5007  0.1203
  243SOL     OW 1042   0.381   4.163   0.832  0.3467  0.1321 -0.0212
  243SOL    HW2 1043   0.455   4.133   0.780 -0.4937  0.2434 -1.3380
  243SOL    HW3 1044   0.378   4.257   0.817 -0.4137  0.0448 -0.4823
  243SOL    MW4 1045   0.390   4.171   0.823  0.1355  0.1349 -0.2558
  244SOL     OW 1046   1.291   4.174   0.631  0.1386  0.1925 -0.0454
  244SOL    HW2 1047   1.360   4.194   0.567  0.2669  0.5654  0.2113
  244SOL    HW3 1048   1.249   4.258   0.649 -0.9587 -0.1688 -0.8503
  244SOL    MW4 1049   1.295   4.188   0.625  0.0107  0.1941 -0.1177
  245SOL     OW 1050   3.740   4.409   0.452 -0.3360  0.1896 -0.2954
  245SOL    HW2 1051   3.752   4.504   0.456 -2.7197  0.5548 -0.8226
  245SOL    HW3 1052   3.757   4.379   0.541 -1.4855  1.3783  0.3438
  245SOL    MW4 1053   3.744   4.417   0.464 -0.8023  0.3943 -0.2806
  246SOL     OW 1054   3.548   0.455   0.927  0.5760  0.0447 -0.2444
  246SOL    HW2 1055   3.543   0.369   0.884 -1.0698  0.1247 -0.2516
  246SOL    HW3 1056   3.555   0.434   1.021 -0.0771 -0.1003 -0.2265
  246SOL    MW4 1057   3.548   0.441   0.934  0.2728  0.0361 -0.2429
  247SOL     OW 1058   0.232   3.694   0.777 -0.4040  0.2618  0.3171
  247SOL    HW2 1059   0.178   3.767   0.807 -0.9899 -0.3040  0.6535
  247SOL    HW3 1060   0.172   3.620   0.773  0.1310 -0.1416 -0.2866
  247SOL    MW4 1061   0.217   3.694   0.781 -0.4107  0.1340  0.2818
  248SOL     OW 1062   1.115   0.254   0.459 -0.1412  0.5980  0.1743
  248SOL    HW2 1063   1.020   0.256   0.473 -0.1517  1.0514  0.0666
  248SOL    HW3 1064   1.152   0.247   0.547 -0.2835  0.0102  0.1879
  248SOL    MW4 1065   1.107   0.253   0.473 -0.1613  0.5803  0.1619
  249SOL     OW 1066   0.464   3.632   0.418 -0.0976 -0.2573  0.3540
  249SOL    HW2 1067   0.420   3.666   0.340  0.3765  1.0688  0.6588
  249SOL    HW3 1068   0.403   3.568   0.455 -1.0024  0.2883 -0.1959
  249SOL    MW4 1069   0.450   3.628   0.412 -0.1544 -0.0103  0.3217
  250SOL     OW 1070   1.813   0.146   0.708 -0.3833  0.0220  0.1780
  250SOL    HW2 1071   1.827   0.230   0.751  0.3007 -0.1871  0.3689
  250SOL    HW3 1072   1.878   0.087   0.747  1.6045  0.3268 -2.5099
  250SOL    MW4 1073   1.824   0.149   0.719 -0.0309  0.0346 -0.1515
  251SOL     OW 1074   1.612   2.892   0.733  0.0383  0.7106  0.5272
  251SOL    HW2 1075   1.640   2.967   0.785 -0.0058 -0.3949  2.1856
  251SOL    HW3 1076   1.528   2.865   0.772  0.2159 -0.3837  0.1777
  251SOL    MW4 1077   1.605   2.898   0.745  0.0558  0.4206  0.7000
  252SOL     OW 1078   3.482   1.322   0.472  0.1017  0.2244  0.0031
  252SOL    HW2 1079   3.466   1.321   0.566  2.3937 -0.4602  0.4112
  252SOL    HW3 1080   3.483   1.415   0.448  1.2287  0.4706  0.9750
  252SOL    MW4 1081   3.480   1.334   0.481  0.5527  0.1664  0.1852
  253SOL     OW 1082   3.367   2.099   0.727 -0.1506 -0.2050  0.2227
  253SOL    HW2 1083   3.288   2.056   0.760 -0.2913 -0.2159 -0.1219
  253SOL    HW3 1084   3.357   2.096   0.631  0.4852 -0.6128  0.1722
  253SOL    MW4 1085   3.355   2.093   0.718 -0.0854 -0.2604  0.1705
  254SOL     OW 1086   3.533   2.952   0.357  0.6709 -0.3072 -0.7685
  254SOL    HW2 1087   3.585   2.874   0.336  0.0800 -0.3031 -2.2863
  254SOL    HW3 1088   3.453   2.917   0.395  0.9221 -0.3816 -0.2934
  254SOL    MW4 1089   3.530   2.937   0.360  0.6258 -0.3166 -0.9061
  255SOL     OW 1090   0.200   0.469   0.867  0.2995  0.6124  0.3837
  255SOL    HW2 1091   0.267   0.504   0.809 -0.7625  0.6641 -0.8408
  255SOL    HW3 1092   0.183   0.381   0.835 -0.3692  0.6759  0.5499
  255SOL    MW4 1093   0.207   0.462   0.855  0.0712  0.6276  0.2440
  256SOL     OW 1094   2.888   2.039   0.753 -0.1129 -0.1397  0.4773
  256SOL    HW2 1095   2.890   2.024   0.659 -0.8563  0.5036  0.3551
  256SOL    HW3 1096   2.913   2.131   0.764 -0.5778 -0.0561  0.8673
  256SOL    MW4 1097   2.892   2.049   0.742 -0.2720 -0.0439  0.5127
  257SOL     OW 1098   0.417   2.001   0.824 -0.0136 -0.2172  0.2188
  257SOL    HW2 1099   0.433   1.975   0.915 -0.6023  0.2162  0.4493
  257SOL    HW3 1100   0.504   2.015   0.788  0.1686  1.5986  1.3078
  257SOL    MW4 1101   0.430   1.999   0.831 -0.0672  0.0795  0.3930
  258SOL     OW 1102   3.121   3.630   0.348 -0.4573  0.2071  0.0343
  258SOL    HW2 1103   3.193   3.601   0.405 -0.5370 -0.8053 -0.3751
  258SOL    HW3 1104   3.158   3.705   0.301  0.1633  0.0142  0.1988
  258SOL    MW4 1105   3.136   3.636   0.349 -0.3860  0.0479  0.0020
  259SOL     OW 1106   4.060   1.384   0.833 -0.0692  0.3648 -0.2909
  259SOL    HW2 1107   4.071   1.298   0.872 -0.0936  0.6716  0.4082
  259SOL    HW3 1108   3.974   1.380   0.791  0.0666 -0.0513 -0.5292
  259SOL    MW4 1109   4.050   1.372   0.833 -0.0544  0.3504 -0.2301
  260SOL     OW 1110   0.388   1.712   0.724 -0.0495  0.2936  0.5136
  260SOL    HW2 1111   0.469   1.662   0.732 -0.9651 -1.1339  1.1349
  260SOL    HW3 1112   0.409   1.797   0.763  0.8087 -0.4642  1.7455
  260SOL    MW4 1113   0.402   1.717   0.730 -0.0571  0.0054  0.7582
  261SOL     OW 1114   3.778   0.028   0.501 -0.3644 -0.0089 -0.2798
  261SOL    HW2 1115   3.777   0.041   0.596 -0.8358  0.3213 -0.3279
  261SOL    HW3 1116   3.687   0.042   0.474 -0.6409 -2.0954 -0.5147
  261SOL    MW4 1117   3.766   0.031   0.510 -0.4630 -0.2408 -0.3172
  262SOL     OW 1118   0.320   3.411   0.473  0.2356 -0.5518  0.7837
  262SOL    HW2 1119   0.288   3.360   0.399 -0.7283  0.5589  0.4210
  262SOL    HW3 1120   0.383   3.353   0.516  1.1529 -1.0444 -1.1530
  262SOL    MW4 1121   0.324   3.397   0.469  0.2295 -0.4702  0.4804
  263SOL     OW 1122   0.701   3.119   0.898 -0.3327 -0.2809 -0.0984
  263SOL    HW2 1123   0.705   3.035   0.852  0.7422 -0.3780  0.1525
  263SOL    HW3 1124   0.622   3.160   0.864 -0.6327 -1.2016 -0.5615
  263SOL    MW4 1125   0.691   3.113   0.887 -0.2304 -0.4151 -0.1263
  264SOL     OW 1126   1.916   0.174   0.461  0.2007 -0.4733 -0.1825
  264SOL    HW2 1127   1.950   0.087   0.438  0.0536 -1.0199  1.6413
  264SOL    HW3 1128   1.880   0.164   0.549 -1.2975  1.0489 -0.5927
  264SOL    MW4 1129   1.916   0.161   0.470 -0.0165 -0.3446  0.0041
  265SOL     OW 1130   4.125   4.209   0.374  0.2095  0.1252 -0.1066
  265SOL    HW2 1131   4.042   4.207   0.326 -1.0990 -0.9650  2.1213
  265SOL    HW3 1132   4.186   4.162   0.317 -1.0454 -0.2293 -1.1951
  265SOL    MW4 1133   4.122   4.202   0.360 -0.1283 -0.0653  0.0437
  266SOL     OW 1134   0.455   3.226   0.832  0.3206 -0.6746  0.2523
  266SOL    HW2 1135   0.379   3.168   0.839  0.6435 -1.0205  1.1134
  266SOL    HW3 1136   0.420   3.314   0.840 -0.0459 -0.8112  0.1489
  266SOL    MW4 1137   0.441   3.230   0.834  0.3149 -0.7381  0.3523
  267SOL     OW 1138   2.039   3.468   0.380 -0.2236  0.4431 -0.0382
  267SOL    HW2 1139   1.992   3.388   0.358 -1.1763  0.6646  1.1321
  267SOL    HW3 1140   2.118   3.438   0.425 -0.2251  0.1335 -0.2440
  267SOL    MW4 1141   2.043   3.453   0.383 -0.3495  0.4313  0.0891
  268SOL     OW 1142   0.081   0.259   0.280 -0.0872  0.1060 -0.0743
  268SOL    HW2 1143   0.115   0.173   0.304 -0.9493  0.1484  1.3645
  268SOL    HW3 1144  -0.001   0.241   0.234  0.0888  0.1270 -0.3938
  268SOL    MW4 1145   0.075   0.245   0.277 -0.1777  0.1143  0.0734
  269SOL     OW 1146   0.253   3.951   0.413  0.1329  0.2362  0.0182
  269SOL    HW2 1147   0.285   4.039   0.392 -1.3047  0.7537 -0.0698
  269SOL    HW3 1148   0.302   3.926   0.491 -0.1569  1.5246  0.6293
  269SOL    MW4 1149   0.264   3.960   0.421 -0.0950  0.4745  0.0872
  270SOL     OW 1150   4.022   0.116   0.755 -0.1987 -0.0061 -0.2538
  270SOL    HW2 1151   4.028   0.111   0.659 -0.6015 -0.3938 -0.2560
  270SOL    HW3 1152   4.030   0.209   0.774  0.7524 -0.0072 -0.6091
  270SOL    MW4 1153   4.024   0.128   0.745 -0.1259 -0.0574 -0.3011
  271SOL     OW 1154   0.534   0.041   0.853  0.0123  0.1382 -0.2629
  271SOL    HW2 1155   0.528   0.029   0.948 -1.2384  1.4070 -0.1546
  271SOL    HW3 1156   0.627   0.030   0.833  0.6416  2.0366  1.4347
  271SOL    MW4 1157   0.545   0.038   0.863 -0.0697  0.5561 -0.0246
  272SOL     OW 1158   4.291   3.140   1.139 -0.0235  0.0138  0.3430
  272SOL    HW2 1159   4.287   3.150   1.044  0.3270  1.7312  0.4866
  272SOL    HW3 1160   4.210   3.179   1.171  0.0623 -0.1580  0.7818
  272SOL    MW4 1161   4.280   3.146   1.131  0.0343  0.2174  0.4199
  273SOL     OW 1162   4.007   2.137   0.348  0.0640 -0.0003 -0.1263
  273SOL    HW2 1163   3.972   2.132   0.259  0.3197 -0.4305 -0.2036
  273SOL    HW3 1164   3.972   2.219   0.383 -0.5520 -0.1448 -0.4019
  273SOL    MW4 1165   3.998   2.147   0.341  0.0160 -0.0761 -0.1728
  274SOL     OW 1166   1.691   0.477   0.553  0.6190  0.4539 -0.6056
  274SOL    HW2 1167   1.651   0.551   0.507  0.3793 -0.2151 -1.4841
  274SOL    HW3 1168   1.710   0.413   0.484  0.1346 -0.6087  0.2349
  274SOL    MW4 1169   1.688   0.478   0.538  0.5234  0.2255 -0.6106
  275SOL     OW 1170   3.823   1.639   0.828 -0.3283 -0.1412  0.0202
  275SOL    HW2 1171   3.828   1.556   0.781 -1.5102  0.0497 -0.4592
  275SOL    HW3 1172   3.910   1.677   0.818 -0.8287  0.3478 -2.8626
  275SOL    MW4 1173   3.835   1.633   0.821 -0.5503 -0.0515 -0.4234
  276SOL     OW 1174   0.116   0.427   0.501 -0.0051 -0.2667 -0.2825
  276SOL    HW2 1175   0.104   0.361   0.432 -0.0918 -0.3831 -0.1581
  276SOL    HW3 1176   0.027   0.460   0.518 -0.2234 -1.4338  0.9371
  276SOL    MW4 1177   0.102   0.422   0.494 -0.0453 -0.4360 -0.1052
  277SOL     OW 1178   0.661   4.117   0.439 -0.3952  0.3034  0.0746
  277SOL    HW2 1179   0.743   4.068   0.449 -1.0341 -1.0213 -1.0126
  277SOL    HW3 1180   0.615   4.103   0.521 -0.1166 -0.0700  0.1698
  277SOL    MW4 1181   0.666   4.108   0.451 -0.4427  0.0787 -0.0564
  278SOL     OW 1182   4.061   1.752   0.759  0.5727 -0.3085  0.1778
  278SOL    HW2 1183   4.125   1.706   0.813 -0.0787 -2.5748 -0.8987
  278SOL    HW3 1184   4.081   1.722   0.670 -0.2319  1.0833 -0.4741
  278SOL    MW4 1185   4.072   1.742   0.754  0.3805 -0.4239 -0.0502
  279SOL     OW 1186   0.474   4.371   0.545 -0.7748 -0.0066 -0.5719
  279SOL    HW2 1187   0.428   4.422   0.612  1.3131 -0.3750  1.1794
  279SOL    HW3 1188   0.498   4.436   0.479 -1.2206  0.6765 -0.0813
  279SOL    MW4 1189   0.471   4.386   0.545 -0.5582  0.0348 -0.2761
  280SOL     OW 1190   4.062   0.053   0.490  0.6344  0.3690 -0.1251
  280SOL    HW2 1191   3.969   0.036   0.474  0.9527 -1.0487 -0.5860
  280SOL    HW3 1192   4.105  -0.032   0.477  1.8433  0.7179  1.3148
  280SOL    MW4 1193   4.056   0.040   0.486  0.8359  0.2280  0.0041
  281SOL     OW 1194   2.919   2.309   0.781  0.3934  0.0178  0.0326
  281SOL    HW2 1195   2.837   2.340   0.741  0.6864  0.3421 -0.3264
  281SOL    HW3 1196   2.913   2.338   0.872  0.8682  1.5882 -0.4074
  281SOL    MW4 1197   2.907   2.317   0.787  0.4947  0.2677 -0.0728
  282SOL     OW 1198   0.014   4.512   0.472  0.0963 -0.0063 -0.2203
  282SOL    HW2 1199   0.038   4.529   0.563  1.7112  2.5073 -1.0791
  282SOL    HW3 1200  -0.079   4.534   0.468 -0.0339 -0.3238  0.8645
  282SOL    MW4 1201   0.005   4.517   0.484  0.2918  0.2837 -0.1905
  283SOL     OW 1202   0.903   1.959   0.800  0.3470  0.1381 -0.5250
  283SOL    HW2 1203   0.991   1.994   0.789  0.8733 -0.8998  0.3432
  283SOL    HW3 1204   0.888   1.960   0.894 -0.1481 -0.7316 -0.5935
  283SOL    MW4 1205   0.912   1.964   0.811  0.3511 -0.1137 -0.4195
  284SOL     OW 1206   0.866   1.718   0.483 -0.0064  0.1325  0.1563
  284SOL    HW2 1207   0.843   1.628   0.462 -1.9288  0.9608 -1.4297
  284SOL    HW3 1208   0.959   1.725   0.462  0.1701 -1.4780  0.3437
  284SOL    MW4 1209   0.875   1.707   0.478 -0.2367  0.0293 -0.0282
  285SOL     OW 1210   1.003   1.460   0.839  0.1612  0.3035  0.2684
  285SOL    HW2 1211   0.942   1.387   0.845 -0.0175  0.2790 -1.5289
  285SOL    HW3 1212   0.949   1.534   0.810  0.5076  0.9486  1.2213
  285SOL    MW4 1213   0.988   1.460   0.836  0.1833  0.3853  0.1571
  286SOL     OW 1214   2.199   1.725   0.483  0.0690  0.1477  0.2204
  286SOL    HW2 1215   2.207   1.800   0.542 -0.3079 -1.4907  2.4552
  286SOL    HW3 1216   2.290   1.699   0.466  0.1686 -0.2006  1.2232
  286SOL    MW4 1217   2.212   1.731   0.489  0.0322 -0.1144  0.6475
  287SOL     OW 1218   0.454   3.514   0.861  0.0260 -0.3117 -0.1851
  287SOL    HW2 1219   0.442   3.503   0.955 -0.9076 -2.3982 -0.5160
  287SOL    HW3 1220   0.377   3.562   0.832 -0.2299 -0.6312 -0.0408
  287SOL    MW4 1221   0.442   3.519   0.869 -0.1309 -0.6289 -0.2096
  288SOL     OW 1222   1.669   3.114   0.871 -0.3473 -0.0914 -0.3128
  288SOL    HW2 1223   1.588   3.156   0.841 -0.9698 -1.6121 -0.7903
  288SOL    HW3 1224   1.650   3.087   0.961  0.0059  0.5219 -0.0527
  288SOL    MW4 1225   1.656   3.116   0.879 -0.3829 -0.2110 -0.3415
  289SOL     OW 1226   1.004   0.156   0.822  0.3428 -0.1752  0.0176
  289SOL    HW2 1227   0.930   0.105   0.788  0.5581 -0.9686  0.7109
  289SOL    HW3 1228   1.078   0.132   0.766  0.7070 -1.5126  1.0616
  289SOL    MW4 1229   1.004   0.146   0.810  0.4193 -0.4564  0.2468
  290SOL     OW 1230   0.879   2.466   0.708  0.1652  0.3619  0.8075
  290SOL    HW2 1231   0.957   2.415   0.728 -0.0363 -0.1606  0.2742
  290SOL    HW3 1232   0.874   2.467   0.612 -0.4223  0.4840  0.8349
  290SOL    MW4 1233   0.888   2.460   0.698  0.0612  0.3090  0.7408
  291SOL     OW 1234   3.516   0.957   0.446  0.3476 -0.3215 -0.3479
  291SOL    HW2 1235   3.514   0.948   0.541  0.9207  2.6501 -0.0325
  291SOL    HW3 1236   3.426   0.981   0.422  0.2969 -0.6733 -0.5141
  291SOL    MW4 1237   3.504   0.959   0.455  0.4165  0.0241 -0.3282
  292SOL     OW 1238   4.176   2.690   0.412  0.2192  0.2833  0.6362
  292SOL    HW2 1239   4.246   2.745   0.445  1.0367 -0.9890  1.0724
  292SOL    HW3 1240   4.207   2.600   0.427 -0.6621 -0.3005 -0.9247
  292SOL    MW4 1241   4.189   2.685   0.418  0.2108  0.0384  0.4878
  293SOL     OW 1242   3.875   3.122   0.815  0.2108 -0.1570 -0.1361
  293SOL    HW2 1243   3.871   3.031   0.787 -1.8974 -0.5018  1.1544
  293SOL    HW3 1244   3.791   3.159   0.788  0.4909  1.0380  0.5898
  293SOL    MW4 1245   3.864   3.115   0.808 -0.0305 -0.0451  0.1299
  294SOL     OW 1246   2.855   0.581   0.413  0.1776  0.0644 -0.2677
  294SOL    HW2 1247   2.909   0.656   0.387  0.1093  0.0298 -0.5091
  294SOL    HW3 1248   2.918   0.509   0.421  0.3235  0.2648  0.4781
  294SOL    MW4 1249   2.871   0.581   0.411  0.1879  0.0863 -0.2011
  295SOL     OW 1250   0.366   4.455   0.793 -0.1342  0.2054 -0.0622
  295SOL    HW2 1251   0.276   4.480   0.770 -0.7448  0.1938  2.1991
  295SOL    HW3 1252   0.402   4.533   0.837  0.5911 -0.1864  0.0467
  295SOL    MW4 1253   0.359   4.469   0.796 -0.1191  0.1521  0.2506
  296SOL     OW 1254   2.113   1.482   0.905 -0.4528  0.0145 -0.1421
  296SOL    HW2 1255   2.197   1.446   0.877 -0.4573 -0.2433  0.1724
  296SOL    HW3 1256   2.052   1.458   0.835 -0.5680 -1.0658  0.3078
  296SOL    MW4 1257   2.116   1.474   0.892 -0.4685 -0.1621 -0.0412
  297SOL     OW 1258   4.129   0.852   0.709  0.5071  0.0560  0.1881
  297SOL    HW2 1259   4.198   0.820   0.768  2.4066  2.5609 -0.5846
  297SOL    HW3 1260   4.169   0.851   0.623 -2.1313 -3.1977 -1.1010
  297SOL    MW4 1261   4.143   0.848   0.706  0.4101 -0.0428 -0.0840
  298SOL     OW 1262   1.846   1.871   0.854  0.9714  0.4324  0.4342
  298SOL    HW2 1263   1.874   1.939   0.791  3.4366  0.3994  1.4386
  298SOL    HW3 1264   1.799   1.807   0.800  0.5627  1.8071 -0.9004
  298SOL    MW4 1265   1.843   1.872   0.838  1.2429  0.6094  0.3906
  299SOL     OW 1266   1.187   0.482   0.319  0.0853 -0.4907 -0.4459
  299SOL    HW2 1267   1.281   0.489   0.299 -0.0687  0.4423 -0.8442
  299SOL    HW3 1268   1.179   0.398   0.365  1.0490 -0.7863 -0.7987
  299SOL    MW4 1269   1.199   0.472   0.322  0.1922 -0.4066 -0.5451
  300SOL     OW 1270   2.324   0.917   0.746 -0.1141  0.0674 -0.2603
  300SOL    HW2 1271   2.396   0.890   0.802  0.5256  0.9200 -0.6710
  300SOL    HW3 1272   2.262   0.844   0.750 -0.7673  0.7388  2.7225
  300SOL    MW4 1273   2.325   0.904   0.754 -0.1159  0.2685  0.0792
  301SOL     OW 1274   1.159   0.573   0.787  0.0556  0.1504 -0.1679
  301SOL    HW2 1275   1.160   0.666   0.812 -0.9268  0.0742  0.1868
  301SOL    HW3 1276   1.072   0.543   0.812  0.7394 -1.1489  0.6638
  301SOL    MW4 1277   1.148   0.582   0.793  0.0161 -0.0312 -0.0113
  302SOL     OW 1278   1.141   4.420   0.722 -0.4401  0.8116  0.1545
  302SOL    HW2 1279   1.079   4.421   0.795  0.8221  0.3102  1.2778
  302SOL    HW3 1280   1.221   4.457   0.759  0.5469 -0.4560 -0.6703
  302SOL    MW4 1281   1.144   4.425   0.737 -0.1434  0.5779  0.1938
  303SOL     OW 1282   4.265   2.369   0.885  0.1754  0.7029  0.1168
  303SOL    HW2 1283   4.184   2.410   0.855  0.3770  0.4228 -0.8143
  303SOL    HW3 1284   4.335   2.424   0.850  0.4051  0.5026  0.2557
  303SOL    MW4 1285   4.264   2.382   0.877  0.2322  0.6394  0.0123
  304SOL     OW 1286   2.008   4.091   0.393  0.2699 -0.3180 -0.2120
  304SOL    HW2 1287   2.095   4.069   0.428  0.0173 -0.4034  0.3705
  304SOL    HW3 1288   1.988   4.176   0.432  0.2640 -0.1100 -0.6668
  304SOL    MW4 1289   2.017   4.100   0.403  0.2360 -0.3018 -0.1951
  305SOL     OW 1290   2.901   3.214   0.131 -0.3899 -0.2429 -0.2723
  305SOL    HW2 1291   2.966   3.283   0.144 -0.3015 -0.2678 -0.5702
  305SOL    HW3 1292   2.817   3.258   0.136 -0.3019  0.1908 -2.1830
  305SOL    MW4 1293   2.899   3.229   0.134 -0.3664 -0.1891 -0.5637
  306SOL     OW 1294   1.508   4.226   0.476  0.4881 -0.4861  0.3602
  306SOL    HW2 1295   1.566   4.295   0.508  0.0818  0.5338 -1.0737
  306SOL    HW3 1296   1.566   4.151   0.460  1.2646  0.2223 -0.1624
  306SOL    MW4 1297   1.523   4.225   0.478  0.5369 -0.2584  0.1021
  307SOL     OW 1298   3.565   2.304   0.487  0.3915  0.0732 -0.0961
  307SOL    HW2 1299   3.561   2.363   0.412  2.5796 -0.7391 -0.8975
  307SOL    HW3 1300   3.558   2.362   0.563 -0.0763  1.0946 -0.9086
  307SOL    MW4 1301   3.564   2.319   0.487  0.6182  0.1011 -0.3091
  308SOL     OW 1302   0.244   2.012   0.420 -0.1698  0.1559 -0.1360
  308SOL    HW2 1303   0.154   2.009   0.386  0.1542  0.7648 -1.0582
  308SOL    HW3 1304   0.279   1.925   0.402 -0.6487 -0.1577  0.4281
  308SOL    MW4 1305   0.236   2.000   0.413 -0.1902  0.1950 -0.1832
  309SOL     OW 1306   0.938   2.736   0.831  0.0183 -0.3462 -0.2867
  309SOL    HW2 1307   0.954   2.716   0.923 -0.2272 -0.5990 -0.2965
  309SOL    HW3 1308   0.917   2.651   0.792 -0.2377 -0.1841 -0.4985
  309SOL    MW4 1309   0.937   2.722   0.838 -0.0479 -0.3583 -0.3159
  310SOL     OW 1310   0.337   0.958   0.706  0.4849 -0.0782  0.2912
  310SOL    HW2 1311   0.371   1.031   0.759 -1.5837  0.5173  0.8247
  310SOL    HW3 1312   0.350   0.987   0.616 -0.8992  1.2566  0.4942
  310SOL    MW4 1313   0.344   0.971   0.701  0.0294  0.1765  0.3883
  311SOL     OW 1314   0.936   2.729   0.344 -0.2608  0.6189 -0.5134
  311SOL    HW2 1315   0.901   2.646   0.376 -0.0734  0.5026 -0.6056
  311SOL    HW3 1316   0.916   2.728   0.250 -0.1466  0.6198 -0.5382
  311SOL    MW4 1317   0.929   2.718   0.335 -0.2210  0.6037 -0.5288
  312SOL     OW 1318   1.785   1.594   0.393 -0.1373 -0.7925  0.0700
  312SOL    HW2 1319   1.771   1.651   0.468 -1.7840 -0.8176 -0.1825
  312SOL    HW3 1320   1.871   1.556   0.406  0.5337  0.9300  0.7935
  312SOL    MW4 1321   1.794   1.596   0.404 -0.2661 -0.5686  0.1322
  313SOL     OW 1322   1.681   4.398   0.605  0.5495 -0.2455  0.1637
  313SOL    HW2 1323   1.640   4.484   0.612  0.9558  0.1126 -1.5781
  313SOL    HW3 1324   1.689   4.368   0.695 -0.1106  1.2990  0.7581
  313SOL    MW4 1325   1.676   4.405   0.618  0.5159  0.0057  0.0122
  314SOL     OW 1326   2.036   3.640   1.241  0.0397 -0.3630  0.3267
  314SOL    HW2 1327   2.100   3.578   1.207 -1.9362 -1.6300 -1.1456
  314SOL    HW3 1328   2.051   3.639   1.336  1.1528 -1.8020  0.1579
  314SOL    MW4 1329   2.047   3.632   1.249 -0.0739 -0.7200  0.1101
  315SOL     OW 1330   0.924   3.229   0.736 -0.2591 -0.0060 -0.5095
  315SOL    HW2 1331   0.936   3.309   0.787  1.0414  0.1218 -1.0085
  315SOL    HW3 1332   0.862   3.177   0.788 -0.2280  0.8312  0.3801
  315SOL    MW4 1333   0.917   3.233   0.750 -0.0834  0.1214 -0.4579
  316SOL     OW 1334   2.114   3.119   0.897  0.2265  0.3304  0.5546
  316SOL    HW2 1335   2.106   3.122   0.992  2.9061  1.1964  0.8075
  316SOL    HW3 1336   2.094   3.029   0.874 -0.3977  0.0969  1.9326
  316SOL    MW4 1337   2.110   3.108   0.907  0.4976  0.4139  0.7699
  317SOL     OW 1338   3.512   3.331   0.383 -0.1328  0.0426  0.3355
  317SOL    HW2 1339   3.481   3.416   0.414 -0.6835  0.1160 -0.4259
  317SOL    HW3 1340   3.567   3.352   0.307  0.3561 -0.2269  0.6071
  317SOL    MW4 1341   3.515   3.345   0.377 -0.1409  0.0165  0.2708
  318SOL     OW 1342   1.755   2.430   0.726 -0.3412  0.5823  0.0169
  318SOL    HW2 1343   1.772   2.516   0.765  1.3456  0.3637 -0.1671
  318SOL    HW3 1344   1.835   2.380   0.744 -0.9873 -0.6859 -0.5786
  318SOL    MW4 1345   1.768   2.435   0.733 -0.2038  0.3860 -0.0859
  319SOL     OW 1346   3.807   0.995   0.442  0.3997 -0.1921  0.3543
  319SOL    HW2 1347   3.844   1.024   0.526 -1.1177  2.4391  0.1515
  319SOL    HW3 1348   3.713   1.008   0.452  0.1364 -0.6347 -1.4820
  319SOL    MW4 1349   3.800   1.000   0.455  0.1645  0.0967  0.0853
  320SOL     OW 1350   3.833   3.987   0.334  0.1480 -0.1584  0.4831
  320SOL    HW2 1351   3.901   3.953   0.392  0.1368 -1.6211 -0.3425
  320SOL    HW3 1352   3.867   4.073   0.306  1.5774 -0.7941  0.2155
  320SOL    MW4 1353   3.846   3.994   0.338  0.3347 -0.4354  0.3389
  321SOL     OW 1354   0.907   3.737   0.435  0.3569 -0.3698 -0.0484
  321SOL    HW2 1355   0.919   3.694   0.351  0.6933 -0.0818 -0.1456
  321SOL    HW3 1356   0.840   3.684   0.480 -1.7600  0.9587 -1.5252
  321SOL    MW4 1357   0.899   3.724   0.430  0.1220 -0.1564 -0.2560
  322SOL     OW 1358   2.389   1.495   0.800  0.1967  0.3410  0.3852
  322SOL    HW2 1359   2.447   1.569   0.787 -0.2435  0.2516 -2.3525
  322SOL    HW3 1360   2.446   1.418   0.790  0.3252  0.2843  1.5137
  322SOL    MW4 1361   2.404   1.494   0.797  0.1557  0.3219  0.1729
  323SOL     OW 1362   1.492   0.753   0.885  0.4333  0.2482 -0.0907
  323SOL    HW2 1363   1.420   0.777   0.826 -1.4532 -0.1677  1.9737
  323SOL    HW3 1364   1.516   0.664   0.858 -1.4839 -0.5519  0.7458
  323SOL    MW4 1365   1.486   0.745   0.873 -0.0685  0.0879  0.2921
  324SOL     OW 1366   2.177   0.265   0.493 -0.0045 -0.1002 -0.7847
  324SOL    HW2 1367   2.098   0.232   0.450  0.4402 -2.3832  0.0954
  324SOL    HW3 1368   2.242   0.272   0.423 -0.3947 -0.1143 -1.1482
  324SOL    MW4 1369   2.175   0.262   0.478  0.0026 -0.4032 -0.7165
  325SOL     OW 1370   1.006   4.390   0.966  0.0715 -0.3088 -0.3671
  325SOL    HW2 1371   0.923   4.344   0.958 -0.2573  0.1048  0.6358
  325SOL    HW3 1372   1.044   4.357   1.047  0.6106 -0.0558 -0.5184
  325SOL    MW4 1373   1.000   4.380   0.975  0.0992 -0.2208 -0.2548
  326SOL     OW 1374   3.085   0.889   1.013 -0.4174 -0.2572 -0.0295
  326SOL    HW2 1375   3.153   0.903   0.947  0.8150  0.5262  1.3809
  326SOL    HW3 1376   3.065   0.977   1.044 -0.9920 -0.6297  0.6431
  326SOL    MW4 1377   3.091   0.903   1.008 -0.3304 -0.2030  0.2453
  327SOL     OW 1378   3.342   2.349   0.838  0.2767 -0.1921 -0.0839
  327SOL    HW2 1379   3.370   2.263   0.808 -1.2135 -1.4959  2.2031
  327SOL    HW3 1380   3.334   2.341   0.933 -1.1507  2.0905  0.0346
  327SOL    MW4 1381   3.345   2.337   0.846 -0.1085 -0.0632  0.2335
  328SOL     OW 1382   3.316   0.873   0.794  0.1952 -0.2986  0.1550
  328SOL    HW2 1383   3.331   0.779   0.800  2.2606  0.0417  0.5687
  328SOL    HW3 1384   3.403   0.912   0.801 -0.7612  1.7161  1.3130
  328SOL    MW4 1385   3.329   0.866   0.796  0.3414  0.0121  0.3624
  329SOL     OW 1386   1.590   1.129   0.541 -0.0052 -0.0369 -0.2063
  329SOL    HW2 1387   1.625   1.045   0.513 -1.1729 -0.6164  0.0481
  329SOL    HW3 1388   1.633   1.193   0.483  0.2697 -0.8802 -0.9476
  329SOL    MW4 1389   1.600   1.126   0.529 -0.1230 -0.2246 -0.2705
  330SOL     OW 1390   0.540   2.478   0.454 -0.0370 -0.3258  0.2141
  330SOL    HW2 1391   0.507   2.487   0.543  0.4883 -1.2271  0.4985
  330SOL    HW3 1392   0.489   2.406   0.416 -1.5722  1.2791 -0.8299
  330SOL    MW4 1393   0.529   2.470   0.461 -0.1703 -0.2329  0.1139
  331SOL     OW 1394   3.526   3.777   9.987 -0.2253 -0.4752 -0.0876
  331SOL    HW2 1395   3.478   3.696  10.006 -0.4277 -0.3970 -0.2575
  331SOL    HW3 1396   3.510   3.793   9.894 -2.1355  1.0130  0.4601
  331SOL    MW4 1397   3.517   3.769   9.977 -0.5043 -0.2689 -0.0377
  332SOL     OW 1398   1.365   2.753   0.814  0.1496  0.0411  0.1943
  332SOL    HW2 1399   1.354   2.742   0.908 -0.2544 -0.1993  0.1180
  332SOL    HW3 1400   1.377   2.665   0.780  2.8262  0.3146  0.3321
  332SOL    MW4 1401   1.365   2.740   0.822  0.4494  0.0455  0.2025
  333SOL     OW 1402   4.217   4.402   0.770  0.3222 -0.3208 -0.0207
  333SOL    HW2 1403   4.232   4.488   0.809 -0.4158  1.1657 -2.8905
  333SOL    HW3 1404   4.299   4.355   0.782  0.9185  0.9814  1.0617
  333SOL    MW4 1405   4.230   4.407   0.777  0.3037  0.0467 -0.2565
  334SOL     OW 1406   1.225   1.348   0.740 -0.5906 -0.2183  0.0524
  334SOL    HW2 1407   1.142   1.389   0.766 -0.3712  0.0344  0.3395
  334SOL    HW3 1408   1.291   1.391   0.793 -0.1197  0.4251 -1.0261
  334SOL    MW4 1409   1.223   1.359   0.750 -0.4995 -0.1001 -0.0520
  335SOL     OW 1410   2.110   0.764   0.674  0.2757  0.3190  0.0429
  335SOL    HW2 1411   2.055   0.735   0.747  0.6707  0.5027  0.4197
  335SOL    HW3 1412   2.133   0.683   0.628 -0.5345  0.2702 -0.2818
  335SOL    MW4 1413   2.106   0.749   0.678  0.2208  0.3368  0.0498
  336SOL     OW 1414   1.211   3.776   0.492  0.3206  0.1741 -0.1581
  336SOL    HW2 1415   1.201   3.871   0.486 -1.2451  0.0719  0.5091
  336SOL    HW3 1416   1.136   3.742   0.443  0.5736 -0.7102  0.0662
  336SOL    MW4 1417   1.200   3.784   0.485  0.1473  0.0436 -0.0405
  337SOL     OW 1418   2.697   2.449   0.692 -0.5638 -0.4200 -0.4218
  337SOL    HW2 1419   2.647   2.468   0.613 -1.2044 -0.0370  0.0702
  337SOL    HW3 1420   2.704   2.533   0.737 -0.8121 -0.7696  0.2756
  337SOL    MW4 1421   2.692   2.463   0.687 -0.6812 -0.4156 -0.2649
  338SOL     OW 1422   2.598   1.678   0.754 -0.2131 -0.1207  0.0107
  338SOL    HW2 1423   2.600   1.770   0.778 -0.3360 -0.2486  0.5050
  338SOL    HW3 1424   2.689   1.648   0.763 -0.2173 -0.1106  0.0861
  338SOL    MW4 1425   2.610   1.686   0.758 -0.2296 -0.1363  0.0858
  339SOL     OW 1426   2.053   3.915   0.809 -0.2771 -0.5498  0.1349
  339SOL    HW2 1427   2.035   3.828   0.773  0.5575 -0.4484 -0.5448
  339SOL    HW3 1428   2.040   3.906   0.903 -1.9841 -0.9539 -0.1270
  339SOL    MW4 1429   2.049   3.903   0.816 -0.3924 -0.5894  0.0107
  340SOL     OW 1430   0.726   4.402   0.683  0.4147 -0.0325  0.1372
  340SOL    HW2 1431   0.772   4.388   0.600 -0.6063  0.2314 -0.4791
  340SOL    HW3 1432   0.634   4.393   0.661  0.0800  1.0302  1.0570
  340SOL    MW4 1433   0.720   4.399   0.669  0.2358  0.1431  0.1773
  341SOL     OW 1434   0.651   2.066   0.720 -0.2334  0.6319 -0.5673
  341SOL    HW2 1435   0.736   2.030   0.748 -0.8517 -0.3057  0.1216
  341SOL    HW3 1436   0.645   2.151   0.764 -0.3385  0.0177  0.6303
  341SOL    MW4 1437   0.662   2.072   0.730 -0.3288  0.4272 -0.3185
  342SOL     OW 1438   1.415   4.590   0.821 -0.1412  0.0471  0.1438
  342SOL    HW2 1439   1.450   4.601   0.910 -2.3306 -1.4800  1.2495
  342SOL    HW3 1440   1.489   4.605   0.764  1.6308 -0.2367  2.2994
  342SOL    MW4 1441   1.429   4.594   0.825 -0.1962 -0.1922  0.5741
  343SOL     OW 1442   1.994   4.390   0.766 -0.4466 -0.4617 -0.4712
  343SOL    HW2 1443   1.904   4.370   0.792 -0.5329 -1.1562 -1.3021
  343SOL    HW3 1444   1.998   4.367   0.673  0.5782 -0.4080 -0.4409
  343SOL    MW4 1445   1.983   4.384   0.757 -0.3227 -0.5465 -0.5768
  344SOL     OW 1446   0.338   2.971   0.482 -0.4802 -0.2342  0.6213
  344SOL    HW2 1447   0.310   2.912   0.553 -0.6057 -0.4953  0.3562
  344SOL    HW3 1448   0.404   3.027   0.523 -1.0554  0.0786  1.1309
  344SOL    MW4 1449   0.343   2.970   0.497 -0.5727 -0.2277  0.6536
  345SOL     OW 1450   2.440   0.786   1.182 -0.7164  0.3064 -0.1930
  345SOL    HW2 1451   2.505   0.836   1.232 -1.0937 -0.0470  0.6576
  345SOL    HW3 1452   2.468   0.796   1.091  0.4743  0.2449  0.1513
  345SOL    MW4 1453   2.452   0.794   1.177 -0.6094  0.2517 -0.0354
  346SOL     OW 1454   1.721   0.842   0.768  0.0631  0.5237  0.0457
  346SOL    HW2 1455   1.777   0.780   0.814 -0.8786 -1.2817 -1.1754
  346SOL    HW3 1456   1.633   0.822   0.797 -0.2812  1.0935 -0.5765
  346SOL    MW4 1457   1.717   0.831   0.778 -0.1065  0.3607 -0.1975
  347SOL     OW 1458   2.683   2.264   0.327 -0.2386  0.1818  0.1175
  347SOL    HW2 1459   2.653   2.337   0.381 -1.0827 -1.0209  1.3294
  347SOL    HW3 1460   2.604   2.228   0.288 -0.1580 -1.6267  1.5427
  347SOL    MW4 1461   2.669   2.269   0.329 -0.3395 -0.2155  0.4654
  348SOL     OW 1462   1.592   2.207   0.366 -0.0853  0.4526  0.2046
  348SOL    HW2 1463   1.609   2.173   0.453 -1.2316  0.2691  0.3643
  348SOL    HW3 1464   1.659   2.167   0.311 -0.3963 -0.7672  0.6899
  348SOL    MW4 1465   1.603   2.197   0.370 -0.2775  0.2673  0.2898
  349SOL     OW 1466   1.947   4.327   0.504 -0.0942 -0.4955  0.2529
  349SOL    HW2 1467   1.969   4.407   0.455 -1.3068 -0.8368 -0.8650
  349SOL    HW3 1468   1.856   4.340   0.531  0.1710 -0.8651  1.3253
  349SOL    MW4 1469   1.938   4.339   0.501 -0.2192 -0.5894  0.2469
  350SOL     OW 1470   4.461   1.691   0.426 -0.2625  0.0216 -0.1959
  350SOL    HW2 1471   4.538   1.634   0.420  0.2685  0.6862  0.1478
  350SOL    HW3 1472   4.446   1.701   0.520 -0.2326  0.5952 -0.2488
  350SOL    MW4 1473   4.469   1.685   0.438 -0.1884  0.1850 -0.1575
  351SOL     OW 1474   2.048   2.890   0.764 -0.3708 -0.0120  0.2541
  351SOL    HW2 1475   2.062   2.926   0.676  0.0263  1.2049  0.8003
  351SOL    HW3 1476   2.118   2.826   0.775 -0.9877 -0.8625 -0.6737
  351SOL    MW4 1477   2.059   2.886   0.754 -0.3996  0.0360  0.2037
  352SOL     OW 1478   1.371   1.510   0.421  0.0623  0.7758  0.3502
  352SOL    HW2 1479   1.304   1.443   0.421 -0.5124  1.3212 -1.2991
  352SOL    HW3 1480   1.358   1.557   0.503 -0.3693 -0.2869  0.8983
  352SOL    MW4 1481   1.360   1.508   0.432 -0.0706  0.7075  0.2049
  353SOL     OW 1482   2.518   3.111   0.820 -0.1872  0.1558  0.6637
  353SOL    HW2 1483   2.499   3.120   0.914  0.5179 -0.7670  0.9075
  353SOL    HW3 1484   2.484   3.025   0.797  1.1290 -0.3164  0.4590
  353SOL    MW4 1485   2.511   3.101   0.830  0.0799 -0.0286  0.6689
  354SOL     OW 1486   1.164   0.849   0.869 -0.0529 -0.0748 -0.3285
  354SOL    HW2 1487   1.142   0.830   0.960 -0.9680 -0.7011 -0.6666
  354SOL    HW3 1488   1.221   0.925   0.873  0.0537 -0.2074  0.7794
  354SOL    MW4 1489   1.168   0.856   0.881 -0.1595 -0.1749 -0.2270
  355SOL     OW 1490   2.008   2.510   0.521 -0.1259  0.3830  0.5010
  355SOL    HW2 1491   1.981   2.589   0.474 -0.6960  0.4216  0.8877
  355SOL    HW3 1492   1.943   2.500   0.591 -0.0071 -0.3785  0.5107
  355SOL    MW4 1493   1.996   2.519   0.524 -0.1856  0.2875  0.5533
  356SOL     OW 1494   3.587   1.959   0.863  0.3403  0.2321 -0.1824
  356SOL    HW2 1495   3.502   2.000   0.848 -0.2411 -1.0842 -0.5336
  356SOL    HW3 1496   3.590   1.886   0.802  2.2537  1.0131 -1.0491
  356SOL    MW4 1497   3.577   1.955   0.853  0.5159  0.1613 -0.3430
  357SOL     OW 1498   3.339   2.131   0.428  0.1476  0.0574  0.0480
  357SOL    HW2 1499   3.387   2.050   0.412 -0.3802 -0.9023  2.9246
  357SOL    HW3 1500   3.407   2.197   0.444  0.5828 -0.7454  1.6628
  357SOL    MW4 1501   3.354   2.129   0.428  0.1352 -0.1750  0.6406
  358SOL     OW 1502   1.592   0.709   0.437  0.3905  0.5191 -0.3958
  358SOL    HW2 1503   1.519   0.753   0.482  0.9366  1.5883 -0.5283
  358SOL    HW3 1504   1.656   0.779   0.422  0.2397  0.1785 -2.7832
  358SOL    MW4 1505   1.591   0.724   0.441  0.4426  0.6153 -0.7283
  359SOL     OW 1506   1.717   3.747   0.465  0.0725  0.3169 -0.2214
  359SOL    HW2 1507   1.695   3.840   0.464 -0.3243  0.2254 -1.4645
  359SOL    HW3 1508   1.634   3.703   0.445  0.3961 -0.2768 -0.2743
  359SOL    MW4 1509   1.703   3.754   0.462  0.0628  0.2267 -0.3924
  360SOL     OW 1510   2.715   3.266   0.513 -0.4228 -0.1923 -0.2835
  360SOL    HW2 1511   2.723   3.258   0.608  1.0159 -0.5571 -0.4339
  360SOL    HW3 1512   2.784   3.210   0.478 -0.9058 -0.0050 -1.5464
  360SOL    MW4 1513   2.725   3.258   0.521 -0.2968 -0.2158 -0.4700
  361SOL     OW 1514   2.033   1.494   0.471  0.0875 -0.1073 -0.0061
  361SOL    HW2 1515   2.091   1.567   0.493 -0.2014  0.9078 -2.5084
  361SOL    HW3 1516   2.086   1.416   0.489  0.9339  0.7152  1.2213
  361SOL    MW4 1517   2.048   1.493   0.476  0.1609  0.1349 -0.1743
  362SOL     OW 1518   0.910   0.428   0.840  0.2070 -0.2487 -0.0247
  362SOL    HW2 1519   0.863   0.430   0.924  0.5095 -0.4434  0.1503
  362SOL    HW3 1520   0.952   0.342   0.838  1.5622  0.3916  0.3872
  362SOL    MW4 1521   0.909   0.417   0.851  0.4258 -0.1899  0.0528
  363SOL     OW 1522   2.052   3.799   0.454  0.1871 -0.3215 -0.3158
  363SOL    HW2 1523   2.130   3.793   0.399  0.0879 -0.4630 -0.4426
  363SOL    HW3 1524   2.011   3.882   0.429  0.2872 -0.2555 -0.2606
  363SOL    MW4 1525   2.057   3.809   0.444  0.1872 -0.3314 -0.3252
  364SOL     OW 1526   3.025   0.388   0.521 -0.7491 -0.0938 -0.1250
  364SOL    HW2 1527   2.983   0.412   0.604  0.0743  0.7190  0.0628
  364SOL    HW3 1528   3.116   0.414   0.532 -0.4760 -0.6478 -1.0230
  364SOL    MW4 1529   3.031   0.394   0.533 -0.6044 -0.0597 -0.2187
  365SOL     OW 1530   1.764   0.917   0.491 -0.0817 -0.1945  0.2616
  365SOL    HW2 1531   1.859   0.915   0.485 -0.0598  1.1345 -0.1080
  365SOL    HW3 1532   1.744   0.882   0.578  0.8630  1.2747  1.0968
  365SOL    MW4 1533   1.774   0.912   0.502  0.0460  0.1747  0.3231
  366SOL     OW 1534   1.374   0.813   0.593  0.1219  0.0999  0.2415
  366SOL    HW2 1535   1.295   0.758   0.588 -0.6384  1.0071  1.9979
  366SOL    HW3 1536   1.353   0.890   0.541 -0.0918  0.2543  0.5521
  366SOL    MW4 1537   1.361   0.816   0.585 -0.0068  0.2400  0.5141
  367SOL     OW 1538   1.069   0.935   0.432 -0.0801  0.0314  0.4032
  367SOL    HW2 1539   1.067   0.840   0.443 -1.6673  0.0557  0.5577
  367SOL    HW3 1540   1.157   0.961   0.457  0.2916 -1.3737  0.6018
  367SOL    MW4 1541   1.080   0.926   0.437 -0.2404 -0.1507  0.4498
  368SOL     OW 1542   1.444   0.148   0.441 -0.0591 -0.4623 -0.2244
  368SOL    HW2 1543   1.370   0.171   0.498  0.6277  0.6752  0.2370
  368SOL    HW3 1544   1.411   0.078   0.385 -0.9466 -1.1848  1.1655
  368SOL    MW4 1545   1.430   0.142   0.441 -0.0856 -0.4075  0.0198
  369SOL     OW 1546   2.823   2.806   0.480  0.1942 -0.2072  0.6360
  369SOL    HW2 1547   2.859   2.881   0.433 -1.1059 -0.3208 -0.5818
  369SOL    HW3 1548   2.830   2.733   0.418 -1.9922 -0.2557  0.4164
  369SOL    MW4 1549   2.829   2.806   0.465 -0.2658 -0.2286  0.4464
  370SOL     OW 1550   2.794   0.740   0.772 -0.6391  0.4415 -0.1201
  370SOL    HW2 1551   2.743   0.719   0.694 -1.3677 -0.6165  0.6314
  370SOL    HW3 1552   2.816   0.833   0.762 -0.4568  0.2345 -1.7302
  370SOL    MW4 1553   2.790   0.750   0.760 -0.7110  0.2746 -0.2334
  371SOL     OW 1554   3.569   0.976   0.722 -0.1659  0.1223  0.1244
  371SOL    HW2 1555   3.616   0.903   0.762  1.0187  0.4015 -0.7153
  371SOL    HW3 1556   3.596   1.053   0.773 -0.9988  0.0483  0.6763
  371SOL    MW4 1557   3.579   0.976   0.734 -0.1194  0.1494  0.0864
  372SOL     OW 1558   3.987   0.821   0.337 -0.3739 -0.4005 -0.4733
  372SOL    HW2 1559   3.995   0.839   0.243 -0.5368 -0.2828 -0.4655
  372SOL    HW3 1560   3.920   0.883   0.367 -0.2003 -0.3224 -0.2473
  372SOL    MW4 1561   3.979   0.832   0.329 -0.3724 -0.3746 -0.4424
  373SOL     OW 1562   0.358   1.751   0.443  0.1716 -0.3265  0.3024
  373SOL    HW2 1563   0.359   1.741   0.538  0.4060  1.0272  0.4518
  373SOL    HW3 1564   0.447   1.776   0.420 -0.5254  2.1531  0.0774
  373SOL    MW4 1565   0.370   1.753   0.453  0.1106  0.1793  0.2925
  374SOL     OW 1566   1.945   3.216   0.522  0.1271 -0.0933 -0.3301
  374SOL    HW2 1567   1.985   3.131   0.506 -1.0745 -0.8302  0.4914
  374SOL    HW3 1568   1.950   3.228   0.617  1.3712  1.3125 -0.5430
  374SOL    MW4 1569   1.951   3.207   0.533  0.1327 -0.0052 -0.2499
  375SOL     OW 1570   0.462   2.754   0.802  0.5757 -0.1400  0.7784
  375SOL    HW2 1571   0.459   2.659   0.787  0.8126  0.1278 -0.9626
  375SOL    HW3 1572   0.549   2.780   0.772  0.2691  0.7431  0.6481
  375SOL    MW4 1573   0.473   2.745   0.796  0.5665  0.0117  0.5315
  376SOL     OW 1574   1.689   3.173   0.402  0.5113  0.1943 -0.1436
  376SOL    HW2 1575   1.781   3.179   0.428  0.3485 -1.6099  0.9321
  376SOL    HW3 1576   1.665   3.082   0.418 -0.7959  0.0248 -2.7343
  376SOL    MW4 1577   1.698   3.162   0.407  0.3175 -0.0663 -0.3435
  377SOL     OW 1578   2.749   4.044   0.761  0.2984 -0.2454  0.5327
  377SOL    HW2 1579   2.740   4.130   0.803 -1.1421 -0.0005 -0.2255
  377SOL    HW3 1580   2.760   4.065   0.668  0.1877 -0.8718  0.3798
  377SOL    MW4 1581   2.749   4.058   0.754  0.0939 -0.2961  0.4125
  378SOL     OW 1582   0.218   0.945   0.251  0.0823 -0.2338  0.1349
  378SOL    HW2 1583   0.202   0.860   0.210  0.8275 -0.0054 -0.6357
  378SOL    HW3 1584   0.152   0.951   0.320 -0.1368 -1.3271  0.0271
  378SOL    MW4 1585   0.207   0.935   0.255  0.1517 -0.3480  0.0190
  379SOL     OW 1586   2.530   2.287   0.870  0.1532 -0.1679  0.5436
  379SOL    HW2 1587   2.556   2.353   0.806  1.1399 -0.2322  0.8736
  379SOL    HW3 1588   2.529   2.205   0.821 -0.2952 -0.0316  0.3222
  379SOL    MW4 1589   2.533   2.285   0.855  0.2244 -0.1581  0.5578
  380SOL     OW 1590   1.820   2.707   0.824 -0.0430  0.0264  0.3179
  380SOL    HW2 1591   1.893   2.760   0.791  0.1003  0.4132  1.2448
  380SOL    HW3 1592   1.743   2.761   0.808  0.1894  0.8860  2.0184
  380SOL    MW4 1593   1.819   2.721   0.817  0.0064  0.1910  0.6646
  381SOL     OW 1594   1.464   3.351   0.481  0.1999  0.2992  0.0512
  381SOL    HW2 1595   1.510   3.287   0.426 -0.2379  0.3655 -0.3965
  381SOL    HW3 1596   1.436   3.301   0.558  0.1248  0.0180 -0.1575
  381SOL    MW4 1597   1.466   3.336   0.484  0.1322  0.2711 -0.0354
  382SOL     OW 1598   1.608   1.385   0.403 -0.0239 -0.1604 -0.0412
  382SOL    HW2 1599   1.678   1.449   0.398 -0.3589  0.2289  0.2259
  382SOL    HW3 1600   1.528   1.436   0.401 -0.2895 -0.5417  0.5438
  382SOL    MW4 1601   1.607   1.400   0.402 -0.1031 -0.1594  0.0712
  383SOL     OW 1602   4.316   3.624   0.787  0.8422  0.2323 -0.4202
  383SOL    HW2 1603   4.303   3.677   0.709 -0.8249 -1.1818 -1.1196
  383SOL    HW3 1604   4.229   3.593   0.811  1.7834 -2.4021 -0.1719
  383SOL    MW4 1605   4.303   3.627   0.780  0.7463 -0.3018 -0.4797
  384SOL     OW 1606   2.660   3.499   0.874 -0.3719  0.1309  0.5068
  384SOL    HW2 1607   2.736   3.556   0.863 -0.9354  0.9209  0.7444
  384SOL    HW3 1608   2.647   3.494   0.969 -0.7514  0.1584  0.4564
  384SOL    MW4 1609   2.669   3.506   0.885 -0.4964  0.2387  0.5316
  385SOL     OW 1610   1.159   3.878   0.868 -0.2949 -0.3667 -0.0677
  385SOL    HW2 1611   1.088   3.938   0.846 -0.0782 -0.4880 -1.0944
  385SOL    HW3 1612   1.150   3.864   0.963  0.2409  2.0384  0.3706
  385SOL    MW4 1613   1.149   3.884   0.878 -0.1956 -0.0656 -0.1453
  386SOL     OW 1614   2.692   4.336   0.845  0.4347  0.5332  0.0113
  386SOL    HW2 1615   2.602   4.355   0.822  0.6268  1.0835 -0.2839
  386SOL    HW3 1616   2.693   4.336   0.941  0.0642  0.2396  0.0152
  386SOL    MW4 1617   2.680   4.339   0.855  0.4110  0.5670 -0.0272
  387SOL     OW 1618   3.105   3.425   0.835 -0.4007  0.1638  0.0778
  387SOL    HW2 1619   3.107   3.339   0.793  1.3527  0.4386 -0.4087
  387SOL    HW3 1620   3.021   3.462   0.807 -0.5216 -0.7968 -0.8891
  387SOL    MW4 1621   3.094   3.418   0.826 -0.1853  0.0732 -0.1140
  388SOL     OW 1622   4.359   1.348   0.631 -0.1472  0.0082 -0.2315
  388SOL    HW2 1623   4.344   1.318   0.721  1.3787  0.0628  0.0636
  388SOL    HW3 1624   4.307   1.428   0.623 -0.2886  0.0064  0.6114
  388SOL    MW4 1625   4.350   1.355   0.642  0.0353  0.0151 -0.0813
  389SOL     OW 1626   1.278   0.142   0.703  0.0498 -0.1563 -0.7589
  389SOL    HW2 1627   1.339   0.072   0.725  1.0673  0.9903  0.1793
  389SOL    HW3 1628   1.300   0.213   0.764 -0.3423  1.3199 -2.3063
  389SOL    MW4 1629   1.289   0.142   0.714  0.1323  0.1898 -0.8393
  390SOL     OW 1630   1.750   4.048   0.496  0.0838 -0.4496  0.3547
  390SOL    HW2 1631   1.826   4.069   0.443 -0.8384  0.1019 -0.7888
  390SOL    HW3 1632   1.783   4.044   0.585  1.1622  1.3492  0.0542
  390SOL    MW4 1633   1.764   4.050   0.501  0.1043 -0.1392  0.1642
  391SOL     OW 1634   2.726   0.088   0.812  0.1483 -0.8957  0.1040
  391SOL    HW2 1635   2.726   0.183   0.805  1.4420 -0.8920  0.1041
  391SOL    HW3 1636   2.635   0.066   0.833 -0.1357  0.3427  0.2248
  391SOL    MW4 1637   2.714   0.097   0.814  0.2813 -0.7318  0.1199
  392SOL     OW 1638   3.871   4.247   0.241 -0.0700 -0.3076 -0.0577
  392SOL    HW2 1639   3.840   4.276   0.155 -1.7448 -1.4658  0.1372
  392SOL    HW3 1640   3.840   4.315   0.301 -1.5228 -1.0380  0.0248
  392SOL    MW4 1641   3.863   4.260   0.237 -0.4828 -0.5569 -0.0211
  393SOL     OW 1642   0.558   0.767   0.837 -0.4907 -0.3982  0.3797
  393SOL    HW2 1643   0.636   0.786   0.785 -0.3164 -0.1527  0.7374
  393SOL    HW3 1644   0.493   0.831   0.807  0.1782  0.9636  1.7827
  393SOL    MW4 1645   0.560   0.778   0.826 -0.3794 -0.1862  0.6120
  394SOL     OW 1646   3.949   0.563   0.481 -0.1701 -0.1806 -0.1088
  394SOL    HW2 1647   3.930   0.594   0.570 -0.0322 -0.0730 -0.1178
  394SOL    HW3 1648   3.966   0.642   0.431 -0.6710 -0.2132 -0.3310
  394SOL    MW4 1649   3.949   0.577   0.486 -0.2182 -0.1707 -0.1393
  395SOL     OW 1650   3.430   0.663   0.405 -0.0669  0.3299 -0.2034
  395SOL    HW2 1651   3.520   0.642   0.428 -0.0780 -0.4010 -0.8069
  395SOL    HW3 1652   3.433   0.755   0.378  0.4776  0.3346 -0.1337
  395SOL    MW4 1653   3.442   0.672   0.405  0.0033  0.2341 -0.2738
  396SOL     OW 1654   2.874   1.586   0.788  0.2441  0.1616 -0.2770
  396SOL    HW2 1655   2.881   1.499   0.749 -1.6482 -0.0860 -0.1358
  396SOL    HW3 1656   2.897   1.574   0.880 -0.6304 -0.3343 -0.1150
  396SOL    MW4 1657   2.878   1.573   0.795 -0.1214  0.0635 -0.2370
  397SOL     OW 1658   3.024   0.104   0.524  0.2370  0.0457 -0.7067
  397SOL    HW2 1659   2.933   0.075   0.523  0.2382  0.0391 -0.6368
  397SOL    HW3 1660   3.020   0.198   0.507 -0.0111  0.6577  2.3886
  397SOL    MW4 1661   3.012   0.113   0.521  0.2043  0.1255 -0.2890
  398SOL     OW 1662   2.306   4.603   0.365  0.1588  0.4991  0.3609
  398SOL    HW2 1663   2.380   4.662   0.376  0.8151 -0.5670  1.7333
  398SOL    HW3 1664   2.342   4.516   0.378 -0.9791 -0.1656 -0.8133
  398SOL    MW4 1665   2.320   4.600   0.368  0.0954  0.2704  0.3871
  399SOL     OW 1666   1.162   0.663   0.526 -0.4623  0.3155  0.6538
  399SOL    HW2 1667   1.149   0.618   0.609 -0.1280 -0.0964  0.4819
  399SOL    HW3 1668   1.194   0.596   0.466 -2.3133  0.2091 -0.2812
  399SOL    MW4 1669   1.164   0.648   0.529 -0.6624  0.2471  0.5077
  400SOL     OW 1670   2.885   1.329   1.191 -0.2207  0.3733 -0.1076
  400SOL    HW2 1671   2.800   1.286   1.185 -1.3042  2.4326 -0.1627
  400SOL    HW3 1672   2.907   1.327   1.285 -1.2563  1.5355  0.1676
  400SOL    MW4 1673   2.877   1.323   1.203 -0.5002  0.7983 -0.0786
  401SOL     OW 1674   3.802   2.077   0.737  0.0768  0.5508 -0.1376
  401SOL    HW2 1675   3.878   2.041   0.783  0.4875  1.3019 -0.2117
  401SOL    HW3 1676   3.727   2.044   0.785  0.4307 -0.6850 -0.4191
  401SOL    MW4 1677   3.802   2.068   0.749  0.1776  0.4869 -0.1844
  402SOL     OW 1678   4.181   3.376   0.228  0.1939 -0.3762 -0.8033
  402SOL    HW2 1679   4.148   3.437   0.295 -0.1711 -2.7104  1.2403
  402SOL    HW3 1680   4.103   3.348   0.180  0.1517 -0.3401 -0.7548
  402SOL    MW4 1681   4.166   3.380   0.231  0.1402 -0.6795 -0.5273
  403SOL     OW 1682   3.101   4.098   0.475  0.1364 -0.5866 -0.1722
  403SOL    HW2 1683   3.131   4.060   0.558 -0.2123 -2.0184 -0.6824
  403SOL    HW3 1684   3.048   4.029   0.435 -2.4557  1.2565 -0.0645
  403SOL    MW4 1685   3.098   4.084   0.481 -0.2520 -0.5322 -0.2253
  404SOL     OW 1686   0.710   3.590   0.760  0.0275  0.0443  0.5719
  404SOL    HW2 1687   0.636   3.551   0.806 -0.6152 -0.6786 -1.0698
  404SOL    HW3 1688   0.706   3.554   0.672  1.8882  0.5845  0.2423
  404SOL    MW4 1689   0.700   3.580   0.755  0.1883  0.0200  0.3117
  405SOL     OW 1690   2.639   1.944   0.872 -0.2283 -0.0851  0.1155
  405SOL    HW2 1691   2.662   1.933   0.964  0.2911 -1.7831 -0.1910
  405SOL    HW3 1692   2.720   1.975   0.830 -0.1927 -0.2220  0.0806
  405SOL    MW4 1693   2.653   1.947   0.879 -0.1550 -0.3271  0.0704
  406SOL     OW 1694   4.037   1.996   0.841  0.3679  0.7771  0.1114
  406SOL    HW2 1695   4.048   1.920   0.785 -0.8346  1.9486 -1.7852
  406SOL    HW3 1696   4.104   2.058   0.812 -0.3730  1.4576 -0.1809
  406SOL    MW4 1697   4.047   1.994   0.830  0.1111  1.0214 -0.1774
  407SOL     OW 1698   2.949   3.077   0.865 -0.0143  0.5422 -0.0203
  407SOL    HW2 1699   2.912   2.999   0.825  0.3402  0.1107  0.5012
  407SOL    HW3 1700   2.880   3.143   0.859  0.3031  0.7200 -2.0754
  407SOL    MW4 1701   2.935   3.076   0.859  0.0741  0.5090 -0.2227
  408SOL     OW 1702   1.599   3.674   0.767 -0.6330 -0.0481  0.3218
  408SOL    HW2 1703   1.673   3.618   0.789 -0.5831 -0.1992 -0.2248
  408SOL    HW3 1704   1.592   3.668   0.672 -0.3475  1.2184  0.2057
  408SOL    MW4 1705   1.608   3.666   0.758 -0.5887  0.0994  0.2344
  409SOL     OW 1706   1.738   1.717   0.650  0.3135 -0.4128  0.2491
  409SOL    HW2 1707   1.665   1.774   0.623  0.1140 -0.9681 -0.4066
  409SOL    HW3 1708   1.698   1.631   0.662  0.8156 -0.6618  0.1397
  409SOL    MW4 1709   1.723   1.713   0.648  0.3535 -0.5188  0.1481
  410SOL     OW 1710   2.894   1.500   0.407 -0.0535  0.2375  0.1072
  410SOL    HW2 1711   2.803   1.523   0.385  0.0511  0.4487 -0.1057
  410SOL    HW3 1712   2.937   1.584   0.423  0.4200  0.2231 -1.0176
  410SOL    MW4 1713   2.888   1.514   0.406  0.0229  0.2635 -0.0693
  411SOL     OW 1714   2.943   3.859   0.841  0.2797  0.2670  0.1850
  411SOL    HW2 1715   2.927   3.862   0.936 -1.4920 -0.6219 -0.0639
  411SOL    HW3 1716   2.889   3.930   0.805 -0.6321 -0.7017 -0.3626
  411SOL    MW4 1717   2.934   3.869   0.849 -0.0744  0.0219  0.0799
  412SOL     OW 1718   2.503   3.895   0.857  0.6814  0.3774 -0.3342
  412SOL    HW2 1719   2.515   3.812   0.810 -0.3285  0.5627 -0.9382
  412SOL    HW3 1720   2.581   3.946   0.836  0.2911  0.4221 -1.7515
  412SOL    MW4 1721   2.515   3.891   0.848  0.4966  0.4075 -0.6009
  413SOL     OW 1722   3.625   1.232   0.840  0.1160 -0.2526  0.4419
  413SOL    HW2 1723   3.542   1.270   0.812  0.7876  2.9471  2.5995
  413SOL    HW3 1724   3.609   1.203   0.930  1.0932 -0.4281  0.5610
  413SOL    MW4 1725   3.612   1.233   0.848  0.3335  0.1464  0.7424
  414SOL     OW 1726   3.450   4.373   0.435 -0.1608 -0.3464  0.1762
  414SOL    HW2 1727   3.546   4.374   0.441 -0.2186  0.0963  0.9736
  414SOL    HW3 1728   3.426   4.462   0.409 -0.3431 -0.5204 -0.2579
  414SOL    MW4 1729   3.460   4.385   0.432 -0.1926 -0.3109  0.2242
  415SOL     OW 1730   3.365   4.661   1.141  0.5609 -0.4655 -0.0982
  415SOL    HW2 1731   3.286   4.692   1.184  0.9716  1.3128 -0.5893
  415SOL    HW3 1732   3.435   4.718   1.174  1.1581 -0.1684 -1.8378
  415SOL    MW4 1733   3.364   4.673   1.151  0.6940 -0.1917 -0.3926
  416SOL     OW 1734   2.249   1.136   0.865 -0.2476  0.3858 -0.2012
  416SOL    HW2 1735   2.170   1.164   0.819 -2.2020 -0.2877  2.6049
  416SOL    HW3 1736   2.278   1.057   0.819 -1.2575  0.5820 -1.1892
  416SOL    MW4 1737   2.242   1.130   0.853 -0.6390  0.3229  0.0387
  417SOL     OW 1738   2.230   1.134   1.148  0.1569 -0.0611  0.4519
  417SOL    HW2 1739   2.211   1.044   1.175 -0.1120  0.2044  1.1479
  417SOL    HW3 1740   2.243   1.128   1.053 -1.6231 -0.5480  0.2190
  417SOL    MW4 1741   2.229   1.121   1.139 -0.1135 -0.0902  0.5131
  418SOL     OW 1742   2.756   3.253   0.797 -0.3947  0.1856 -0.1926
  418SOL    HW2 1743   2.731   3.341   0.826 -0.6425  0.3993 -1.0124
  418SOL    HW3 1744   2.678   3.200   0.812 -0.4934  0.2762 -0.3712
  418SOL    MW4 1745   2.742   3.258   0.803 -0.4404  0.2258 -0.3244
  419SOL     OW 1746   0.680   1.257   0.443 -0.1108 -0.0076 -0.1975
  419SOL    HW2 1747   0.588   1.279   0.430 -0.1473 -0.7018 -1.2582
  419SOL    HW3 1748   0.684   1.162   0.431  0.6515 -0.0584  0.4016
  419SOL    MW4 1749   0.669   1.247   0.440 -0.0150 -0.1059 -0.2584
  420SOL     OW 1750   1.329   4.315   0.273  0.1197  0.2640  0.1714
  420SOL    HW2 1751   1.259   4.336   0.335 -0.3334 -1.4532  0.2446
  420SOL    HW3 1752   1.403   4.288   0.327  0.7620  1.7520  0.0773
  420SOL    MW4 1753   1.329   4.314   0.288  0.1446  0.2341  0.1687
  421SOL     OW 1754   0.813   2.496   0.430 -0.3781 -0.1874  0.5367
  421SOL    HW2 1755   0.842   2.417   0.385 -0.9553 -0.2143  0.2160
  421SOL    HW3 1756   0.718   2.487   0.436 -0.3477  0.0083  1.3868
  421SOL    MW4 1757   0.804   2.484   0.425 -0.4503 -0.1652  0.6066
  422SOL     OW 1758   3.384   2.846   0.736 -0.5881 -0.5611  0.1133
  422SOL    HW2 1759   3.369   2.848   0.641  0.4085  1.2959 -0.0307
  422SOL    HW3 1760   3.472   2.809   0.745  0.5854  2.1285  0.1059
  422SOL    MW4 1761   3.394   2.841   0.724 -0.3016  0.0389  0.0933
  423SOL     OW 1762   3.331   0.607   0.841  0.3753 -0.2178 -0.3139
  423SOL    HW2 1763   3.400   0.564   0.891 -0.4480 -1.4589 -0.2444
  423SOL    HW3 1764   3.252   0.555   0.857 -0.7941  1.6692  0.3086
  423SOL    MW4 1765   3.330   0.595   0.850  0.1123 -0.1326 -0.2227
  424SOL     OW 1766   2.109   1.767   0.857  0.6152 -0.5469 -0.0174
  424SOL    HW2 1767   2.127   1.675   0.875  0.8114 -0.3600  0.7939
  424SOL    HW3 1768   2.014   1.775   0.862  0.5271 -0.9070 -1.1150
  424SOL    MW4 1769   2.099   1.756   0.860  0.6292 -0.5698 -0.0552
  425SOL     OW 1770   2.899   2.843   0.739  0.1098  0.0059  0.3632
  425SOL    HW2 1771   2.872   2.842   0.647  0.4295 -0.8133  0.2698
  425SOL    HW3 1772   2.975   2.784   0.742 -0.6771 -0.9709  1.3892
  425SOL    MW4 1773   2.906   2.835   0.727  0.0482 -0.2308  0.4862
  426SOL     OW 1774   0.663   0.970   0.456 -0.3621 -0.6435 -0.2661
  426SOL    HW2 1775   0.717   0.938   0.384  0.8096 -0.1106  0.3584
  426SOL    HW3 1776   0.696   0.925   0.533 -1.1384 -0.6738  0.0592
  426SOL    MW4 1777   0.674   0.960   0.457 -0.3099 -0.5772 -0.1408
  427SOL     OW 1778   2.491   2.857   0.736  0.1379  0.3948  0.7341
  427SOL    HW2 1779   2.409   2.809   0.745 -0.4386  1.2611  0.2624
  427SOL    HW3 1780   2.557   2.800   0.773 -0.5066 -0.8167  0.0322
  427SOL    MW4 1781   2.489   2.843   0.742 -0.0229  0.3493  0.5793
  428SOL     OW 1782   0.480   0.267   0.716 -0.1273  0.1796  0.0094
  428SOL    HW2 1783   0.500   0.245   0.625  3.1020  1.6357  0.2666
  428SOL    HW3 1784   0.506   0.189   0.766  2.5578  1.0296  0.0520
  428SOL    MW4 1785   0.486   0.253   0.711  0.6530  0.4838  0.0489
  429SOL     OW 1786   3.819   1.693   0.468 -0.5189  0.2205  0.0683
  429SOL    HW2 1787   3.819   1.788   0.462 -1.4960  0.2307  0.1540
  429SOL    HW3 1788   3.791   1.674   0.557 -1.8208 -0.1538 -0.3961
  429SOL    MW4 1789   3.815   1.703   0.479 -0.8197  0.1724  0.0183
  430SOL     OW 1790   3.557   3.682   0.373  0.4630  0.3129  0.1343
  430SOL    HW2 1791   3.639   3.634   0.357  0.1629 -0.1774  0.0743
  430SOL    HW3 1792   3.586   3.771   0.391  0.8937  0.6621 -2.0499
  430SOL    MW4 1793   3.572   3.687   0.373  0.4804  0.2944 -0.1618
  431SOL     OW 1794   3.379   3.117   0.807 -0.1308  0.3029 -0.2765
  431SOL    HW2 1795   3.388   3.022   0.801 -0.8354  0.2342 -0.2457
  431SOL    HW3 1796   3.362   3.134   0.899  0.3920  0.5004 -0.2103
  431SOL    MW4 1797   3.378   3.106   0.818 -0.1550  0.3200 -0.2637
  432SOL     OW 1798   0.139   4.126   0.716 -0.1339 -0.2304  0.4802
  432SOL    HW2 1799   0.115   4.040   0.752 -0.6739 -0.8782 -1.3213
  432SOL    HW3 1800   0.228   4.142   0.748 -0.3610 -1.0558  1.5467
  432SOL    MW4 1801   0.147   4.117   0.725 -0.2351 -0.4244  0.3833
  433SOL     OW 1802   0.645   2.090   0.433 -0.1448 -0.6167 -0.2949
  433SOL    HW2 1803   0.563   2.130   0.404  0.6241  0.1133 -1.5015
  433SOL    HW3 1804   0.650   2.111   0.527  0.2933  2.3030 -0.9228
  433SOL    MW4 1805   0.635   2.098   0.442  0.0145 -0.1354 -0.5369
  434SOL     OW 1806   3.357   3.550   0.741 -0.3190 -0.3533  0.2513
  434SOL    HW2 1807   3.374   3.641   0.764  0.0694 -0.6613  1.1861
  434SOL    HW3 1808   3.266   3.536   0.767 -0.4559 -0.1771 -0.1125
  434SOL    MW4 1809   3.347   3.560   0.747 -0.2859 -0.3705  0.3266
  435SOL     OW 1810   3.375   3.807   0.824 -0.2656  0.5789 -0.1318
  435SOL    HW2 1811   3.363   3.819   0.918  1.5811  2.7704 -0.1341
  435SOL    HW3 1812   3.448   3.864   0.802  0.2247 -0.9524 -2.6685
  435SOL    MW4 1813   3.383   3.816   0.834  0.0427  0.6657 -0.4668
  436SOL     OW 1814   3.371   4.458   0.727  0.1120  0.2622  0.2929
  436SOL    HW2 1815   3.340   4.482   0.639 -0.5259  0.0169  0.4474
  436SOL    HW3 1816   3.298   4.409   0.766 -0.0777  1.4241  1.4175
  436SOL    MW4 1817   3.357   4.455   0.720  0.0026  0.3834  0.4617
  437SOL     OW 1818   3.171   4.267   0.803  0.2210 -0.6172 -0.0144
  437SOL    HW2 1819   3.094   4.307   0.763  0.1727  0.2014  0.8706
  437SOL    HW3 1820   3.177   4.180   0.762 -1.0493 -0.6109 -0.2441
  437SOL    MW4 1821   3.162   4.260   0.793  0.0470 -0.5078  0.0721
  438SOL     OW 1822   3.363   0.048   0.872 -0.1615 -0.0958 -0.1498
  438SOL    HW2 1823   3.371   0.018   0.963  0.7546 -0.6084 -0.3962
  438SOL    HW3 1824   3.380  -0.030   0.820 -0.1954  0.3122 -0.7698
  438SOL    MW4 1825   3.366   0.034   0.877 -0.0451 -0.1096 -0.2642
  439SOL     OW 1826   2.225   1.944   0.657 -0.1438 -0.1992 -0.1436
  439SOL    HW2 1827   2.176   1.907   0.731 -0.6333 -0.0821 -0.4023
  439SOL    HW3 1828   2.315   1.948   0.687 -0.1865 -1.0173  0.1193
  439SOL    MW4 1829   2.230   1.939   0.670 -0.2141 -0.2917 -0.1431
  440SOL     OW 1830   0.900   1.450   0.390 -0.6166 -0.1974 -0.0160
  440SOL    HW2 1831   0.913   1.472   0.298 -0.3675 -0.1684  0.0249
  440SOL    HW3 1832   0.827   1.389   0.390 -1.6102  0.9753 -0.0933
  440SOL    MW4 1833   0.892   1.445   0.378 -0.7148 -0.0389 -0.0208
  441SOL     OW 1834   2.013   4.580   0.372 -0.1444  0.0708 -0.2497
  441SOL    HW2 1835   1.980   4.582   0.282  0.7846  2.3500 -0.5641
  441SOL    HW3 1836   2.108   4.584   0.363 -0.0055 -0.7013  0.8114
  441SOL    MW4 1837   2.021   4.581   0.359 -0.0033  0.2689 -0.1512
  442SOL     OW 1838   2.984   2.225   0.303 -0.3863  0.2929 -0.3677
  442SOL    HW2 1839   2.899   2.269   0.302 -1.0051 -0.6998  2.3408
  442SOL    HW3 1840   3.042   2.286   0.348 -0.5176 -0.3795  0.7463
  442SOL    MW4 1841   2.980   2.239   0.309 -0.4849  0.0732  0.1366
  443SOL     OW 1842   4.131   0.329   0.442  0.1842  0.2125  0.3549
  443SOL    HW2 1843   4.099   0.240   0.451  0.0561  0.2589  0.3532
  443SOL    HW3 1844   4.054   0.384   0.452  0.4195  0.3713  1.4505
  443SOL    MW4 1845   4.117   0.325   0.445  0.1984  0.2396  0.4992
  444SOL     OW 1846   3.268   1.136   0.456  0.3595 -0.0920 -0.0479
  444SOL    HW2 1847   3.325   1.213   0.454 -0.7526  0.7290 -0.8345
  444SOL    HW3 1848   3.179   1.172   0.458 -0.2036 -1.3354 -1.5026
  444SOL    MW4 1849   3.264   1.151   0.456  0.1385 -0.1477 -0.3436
  445SOL     OW 1850   1.551   1.199   0.806 -0.2606  0.0065  0.1408
  445SOL    HW2 1851   1.584   1.188   0.717 -0.8350  0.0272 -0.0816
  445SOL    HW3 1852   1.525   1.292   0.811 -0.2113  0.0101  0.3317
  445SOL    MW4 1853   1.552   1.210   0.795 -0.3299  0.0097  0.1366
  446SOL     OW 1854   2.543   2.499   0.450 -0.0106  0.1075 -0.3863
  446SOL    HW2 1855   2.452   2.473   0.459 -0.1949  0.7758 -0.2598
  446SOL    HW3 1856   2.540   2.595   0.446  0.7950  0.2141  1.0003
  446SOL    MW4 1857   2.531   2.508   0.451  0.0715  0.2100 -0.1867
  447SOL     OW 1858   0.047   0.985   0.459 -0.2055  0.5300 -0.0997
  447SOL    HW2 1859  -0.045   0.970   0.439  0.1297  0.3674 -1.5881
  447SOL    HW3 1860   0.053   1.080   0.474 -0.4110  0.7238 -1.1783
  447SOL    MW4 1861   0.036   0.996   0.458 -0.1884  0.5341 -0.4385
  448SOL     OW 1862   2.997   1.759   0.461 -0.0701  0.0990  0.1854
  448SOL    HW2 1863   3.068   1.791   0.405 -1.0682  1.0561 -0.5593
  448SOL    HW3 1864   3.038   1.746   0.546  1.6182 -1.9534 -0.8914
  448SOL    MW4 1865   3.012   1.762   0.465  0.0212 -0.0454 -0.0549
  449SOL     OW 1866   2.276   2.420   0.780 -0.0448 -0.1087  0.5811
  449SOL    HW2 1867   2.337   2.355   0.814  1.5482  1.1754  0.2575
  449SOL    HW3 1868   2.271   2.401   0.686  0.1471  0.0067  0.5466
  449SOL    MW4 1869   2.283   2.409   0.772  0.1905  0.0758  0.5339
  450SOL     OW 1870   3.252   3.829   0.187  0.1233 -0.3736 -0.3186
  450SOL    HW2 1871   3.326   3.883   0.216  0.6788 -1.0807 -0.4098
  450SOL    HW3 1872   3.288   3.775   0.116 -0.4927 -0.6911 -0.3905
  450SOL    MW4 1873   3.266   3.829   0.181  0.1154 -0.5090 -0.3401
  451SOL     OW 1874   0.760   2.932   0.458 -0.0993 -0.0334 -0.1950
  451SOL    HW2 1875   0.831   2.877   0.426 -0.2793 -1.1480  1.2541
  451SOL    HW3 1876   0.682   2.899   0.414 -0.3939 -1.7602  1.5512
  451SOL    MW4 1877   0.759   2.920   0.448 -0.1619 -0.4086  0.2265
  452SOL     OW 1878   1.652   1.771   0.192 -0.4458  0.1669  0.4130
  452SOL    HW2 1879   1.718   1.840   0.195 -0.5799  0.2799  0.8002
  452SOL    HW3 1880   1.688   1.701   0.247  0.3874 -0.6956 -1.2024
  452SOL    MW4 1881   1.665   1.770   0.200 -0.3536  0.0681  0.2510
  453SOL     OW 1882   3.613   2.725   0.799  0.2639  0.2807 -0.0769
  453SOL    HW2 1883   3.601   2.738   0.893  0.8242 -1.2938  0.2253
  453SOL    HW3 1884   3.574   2.640   0.781 -0.7001  0.9971 -1.4599
  453SOL    MW4 1885   3.606   2.716   0.809  0.2108  0.1674 -0.2195
  454SOL     OW 1886   3.158   1.955   0.828 -0.3116  0.8038 -0.0224
  454SOL    HW2 1887   3.069   1.988   0.820 -0.8011 -0.2438  0.9235
  454SOL    HW3 1888   3.168   1.932   0.921  0.2638 -0.9057 -0.4735
  454SOL    MW4 1889   3.148   1.956   0.839 -0.3004  0.4400  0.0429
  455SOL     OW 1890   3.628   3.243   0.762  0.4076  0.5226 -0.3038
  455SOL    HW2 1891   3.639   3.208   0.673 -0.4148  0.7709 -0.5044
  455SOL    HW3 1892   3.539   3.219   0.786  0.6651  0.3525  0.5108
  455SOL    MW4 1893   3.618   3.235   0.754  0.3333  0.5329 -0.2229
  456SOL     OW 1894   4.082   3.238   0.677  0.5246 -0.1144 -0.7812
  456SOL    HW2 1895   4.099   3.209   0.587  0.8514 -0.3602 -0.6427
  456SOL    HW3 1896   4.008   3.185   0.706  0.8286 -0.4871 -0.6854
  456SOL    MW4 1897   4.075   3.228   0.669  0.6080 -0.1960 -0.7503
  457SOL     OW 1898   3.826   3.835   0.831  0.1382  0.2402 -0.2092
  457SOL    HW2 1899   3.745   3.882   0.811 -1.0079 -1.2283  0.8715
  457SOL    HW3 1900   3.829   3.764   0.767 -0.4649 -0.8992  1.0130
  457SOL    MW4 1901   3.816   3.832   0.820 -0.0927 -0.1035  0.0947
  458SOL     OW 1902   3.520   1.605   0.427 -0.0593  0.4406 -0.0064
  458SOL    HW2 1903   3.609   1.641   0.430 -0.2116  0.7486  1.1756
  458SOL    HW3 1904   3.471   1.666   0.372  0.0776  1.1652  0.6652
  458SOL    MW4 1905   3.525   1.618   0.420 -0.0615  0.5767  0.2382
  459SOL     OW 1906   3.828   3.612   0.652  0.5484 -0.0500  0.1064
  459SOL    HW2 1907   3.749   3.580   0.695  0.1192 -0.0356 -0.6591
  459SOL    HW3 1908   3.900   3.572   0.701  0.0349 -1.2223 -0.0862
  459SOL    MW4 1909   3.827   3.602   0.664  0.4241 -0.2029 -0.0200
  460SOL     OW 1910   3.595   3.961   0.728  0.1267 -0.1243 -0.4843
  460SOL    HW2 1911   3.588   3.971   0.633  1.7532 -0.1315 -0.6110
  460SOL    HW3 1912   3.597   4.050   0.761  0.0439 -0.1231 -0.4798
  460SOL    MW4 1913   3.594   3.974   0.719  0.3304 -0.1252 -0.5004
  461SOL     OW 1914   1.114   4.396   0.441  0.4007  0.3100  0.3233
  461SOL    HW2 1915   1.105   4.481   0.398  0.7678 -0.0917 -0.5345
  461SOL    HW3 1916   1.126   4.418   0.534  1.4014  1.2230 -0.0115
  461SOL    MW4 1917   1.114   4.410   0.448  0.5811  0.3772  0.1660
  462SOL     OW 1918   3.393   1.326   0.747 -0.3141  0.3807 -0.5006
  462SOL    HW2 1919   3.309   1.292   0.778  1.5590 -0.7007  3.7298
  462SOL    HW3 1920   3.387   1.420   0.761 -0.3222  0.1457  1.1566
  462SOL    MW4 1921   3.381   1.334   0.753 -0.0679  0.2069  0.2761
  463SOL     OW 1922   3.555   2.516   0.289 -0.1840 -0.4193  0.0842
  463SOL    HW2 1923   3.465   2.549   0.288 -0.1466 -0.3267 -0.1383
  463SOL    HW3 1924   3.608   2.590   0.260 -0.1373 -0.7955 -0.8032
  463SOL    MW4 1925   3.550   2.530   0.285 -0.1729 -0.4570 -0.0623
  464SOL     OW 1926   4.114   1.117   0.916  0.2318  0.1692  0.0565
  464SOL    HW2 1927   4.061   1.126   0.995  0.5506  0.1691  0.2703
  464SOL    HW3 1928   4.053   1.085   0.849  0.3359 -1.5231  0.7525
  464SOL    MW4 1929   4.099   1.114   0.917  0.2871 -0.0541  0.1766
  465SOL     OW 1930   2.263   2.387   0.493  0.4615 -0.4788 -0.4906
  465SOL    HW2 1931   2.255   2.293   0.477  0.6632 -0.7400  0.8895
  465SOL    HW3 1932   2.173   2.419   0.494  0.3316 -0.8582  0.1957
  465SOL    MW4 1933   2.250   2.378   0.491  0.4706 -0.5634 -0.2179
  466SOL     OW 1934   0.715   2.871   0.737  1.2226 -0.3211  0.1637
  466SOL    HW2 1935   0.794   2.834   0.776  1.5195 -0.7978 -0.8647
  466SOL    HW3 1936   0.729   2.862   0.643  0.7270  1.2383 -0.0691
  466SOL    MW4 1937   0.727   2.865   0.730  1.1963 -0.1781 -0.0027
  467SOL     OW 1938   2.211   1.337   0.620  0.0889 -0.0769 -0.8170
  467SOL    HW2 1939   2.280   1.390   0.661  0.9888 -0.2650 -2.0482
  467SOL    HW3 1940   2.257   1.281   0.558 -1.2241  0.2666 -2.1614
  467SOL    MW4 1941   2.226   1.337   0.617  0.0346 -0.0564 -1.1568
  468SOL     OW 1942   2.702   2.679   0.835  0.0646 -0.3652  0.0394
  468SOL    HW2 1943   2.778   2.738   0.828  0.9643 -1.4530  0.4804
  468SOL    HW3 1944   2.686   2.673   0.929 -1.3794  0.8623 -0.1142
  468SOL    MW4 1945   2.710   2.686   0.846 -0.0074 -0.3467  0.0773
  469SOL     OW 1946   2.218   2.119   0.423 -0.3148  0.6539  0.6088
  469SOL    HW2 1947   2.141   2.071   0.393  0.6548 -0.6966  0.1973
  469SOL    HW3 1948   2.234   2.086   0.511 -0.6726  1.5147  0.9976
  469SOL    MW4 1949   2.210   2.108   0.431 -0.2339  0.5891  0.6058
  470SOL     OW 1950   4.456   1.945   0.844 -0.1064 -0.1043  0.0633
  470SOL    HW2 1951   4.377   1.989   0.812 -0.5698 -0.6467  0.4680
  470SOL    HW3 1952   4.527   2.002   0.815 -0.6904  0.8617  0.4754
  470SOL    MW4 1953   4.455   1.959   0.836 -0.2441 -0.0484  0.1711
  471SOL     OW 1954   0.072   1.062   0.772 -0.8591 -0.4074 -0.2642
  471SOL    HW2 1955  -0.001   1.104   0.818 -1.0579 -1.5518  0.4875
  471SOL    HW3 1956   0.147   1.118   0.792 -0.9343 -0.8882  1.5078
  471SOL    MW4 1957   0.072   1.075   0.781 -0.8953 -0.6217  0.0688
  472SOL     OW 1958   1.329   2.505   0.654 -0.2321 -0.5075 -0.0213
  472SOL    HW2 1959   1.404   2.496   0.595 -1.4859 -1.3160 -1.5194
  472SOL    HW3 1960   1.272   2.569   0.611  0.1699  1.1012  1.7458
  472SOL    MW4 1961   1.331   2.512   0.641 -0.3444 -0.4017  0.0142
  473SOL     OW 1962   0.421   2.213   0.323  0.0460 -0.0095  0.5975
  473SOL    HW2 1963   0.349   2.151   0.336  1.6176 -1.9194  0.4443
  473SOL    HW3 1964   0.454   2.194   0.235 -0.0157  1.6675  0.1904
  473SOL    MW4 1965   0.416   2.202   0.313  0.2452 -0.0401  0.5236
  474SOL     OW 1966   3.613   3.509   0.826  0.3266 -0.4621  0.3824
  474SOL    HW2 1967   3.633   3.418   0.801 -0.5488 -0.7249  0.6188
  474SOL    HW3 1968   3.525   3.524   0.791  1.2597  0.9698 -1.4140
  474SOL    MW4 1969   3.604   3.499   0.818  0.3345 -0.3078  0.1765
  475SOL     OW 1970   3.000   0.827   0.362  0.1752  0.4271 -0.0658
  475SOL    HW2 1971   3.082   0.834   0.314  0.4939  0.6033  0.5007
  475SOL    HW3 1972   3.021   0.857   0.451 -0.5772  0.7910 -0.0042
  475SOL    MW4 1973   3.013   0.832   0.368  0.1178  0.4984  0.0171
  476SOL     OW 1974   4.358   4.055   0.336 -0.0470 -0.0292  0.2167
  476SOL    HW2 1975   4.388   3.966   0.355  2.0276  0.2728 -1.4886
  476SOL    HW3 1976   4.418   4.111   0.385 -0.0425  0.4936 -0.3894
  476SOL    MW4 1977   4.370   4.050   0.345  0.2270  0.0796 -0.0883
  477SOL     OW 1978   4.043   2.771   1.143 -0.0861 -0.2495  0.0944
  477SOL    HW2 1979   3.960   2.818   1.155  0.4300  0.0670  2.5295
  477SOL    HW3 1980   4.056   2.772   1.048 -2.3888  0.5135 -0.2632
  477SOL    MW4 1981   4.033   2.778   1.132 -0.3219 -0.1070  0.3685
  478SOL     OW 1982   0.063   3.452   0.848 -0.0829 -0.5021  0.0626
  478SOL    HW2 1983  -0.007   3.509   0.815  0.1047 -0.0310  0.4647
  478SOL    HW3 1984   0.066   3.379   0.787 -0.0865  0.1006 -0.6653
  478SOL    MW4 1985   0.054   3.450   0.836 -0.0587 -0.3605  0.0197
  479SOL     OW 1986   0.091   3.090   0.459 -0.4120  0.3499  0.0410
  479SOL    HW2 1987   0.175   3.044   0.456 -1.0066 -0.6626 -1.8897
  479SOL    HW3 1988   0.093   3.149   0.384 -0.1970  2.5850  1.7556
  479SOL    MW4 1989   0.102   3.092   0.449 -0.4621  0.5112  0.0125
  480SOL     OW 1990   4.295   3.123   0.845  0.2751  0.0437 -0.5084
  480SOL    HW2 1991   4.221   3.168   0.805  0.4104  0.9364  0.2260
  480SOL    HW3 1992   4.370   3.146   0.790  0.3551  0.7864 -0.0998
  480SOL    MW4 1993   4.295   3.132   0.833  0.3037  0.2596 -0.3576
  481SOL     OW 1994   3.857   2.351   0.458  0.4185  0.2124 -0.1676
  481SOL    HW2 1995   3.770   2.319   0.479  0.4749 -0.0297 -0.3023
  481SOL    HW3 1996   3.845   2.444   0.441  0.4103  0.4553  1.1573
  481SOL    MW4 1997   3.844   2.359   0.459  0.4249  0.2124 -0.0105
  482SOL     OW 1998   1.905   2.776   0.382  0.1960 -0.3123 -0.0323
  482SOL    HW2 1999   1.892   2.753   0.290 -0.2509 -2.2822  0.4989
  482SOL    HW3 2000   1.820   2.809   0.410 -0.4732 -2.3362  0.3912
  482SOL    MW4 2001   1.892   2.777   0.373  0.0486 -0.8392  0.0936
  483SOL     OW 2002   4.080   3.999   0.776  0.1912 -0.0562  0.1004
  483SOL    HW2 2003   4.162   3.976   0.818 -0.0132  1.0598  1.1365
  483SOL    HW3 2004   4.018   3.932   0.805  1.0308 -1.6409 -1.7124
  483SOL    MW4 2005   4.083   3.987   0.785  0.2747 -0.1183 -0.0021
  484SOL     OW 2006   3.821   4.413   0.727 -0.1937 -0.1035 -0.2690
  484SOL    HW2 2007   3.810   4.500   0.764 -0.7288 -0.3578  0.1693
  484SOL    HW3 2008   3.899   4.378   0.772 -0.9889 -0.5067  0.8024
  484SOL    MW4 2009   3.830   4.420   0.738 -0.3693 -0.1903 -0.0699
  485SOL     OW 2010   0.508   3.176   0.560 -0.3763  0.3453  0.0845
  485SOL    HW2 2011   0.599   3.198   0.538  0.2725 -2.4395 -0.2191
  485SOL    HW3 2012   0.502   3.189   0.654 -0.0146  1.6616 -0.0590
  485SOL    MW4 2013   0.519   3.180   0.569 -0.2430  0.1514  0.0255
  486SOL     OW 2014   4.168   3.135   0.423 -0.4819  0.2708  0.2733
  486SOL    HW2 2015   4.079   3.110   0.397 -0.2819 -0.2463  0.0904
  486SOL    HW3 2016   4.196   3.195   0.354 -0.4610 -0.0403  0.0108
  486SOL    MW4 2017   4.160   3.140   0.411 -0.4525  0.1616  0.2145
  487SOL     OW 2018   0.172   4.620   1.123 -0.5354 -0.1238 -0.1561
  487SOL    HW2 2019   0.242   4.681   1.147 -0.5617 -0.3983  0.6089
  487SOL    HW3 2020   0.138   4.655   1.040  0.3721  0.1198 -0.4357
  487SOL    MW4 2021   0.177   4.633   1.115 -0.4191 -0.1279 -0.0920
  488SOL     OW 2022   4.466   0.124   1.211 -0.0301  0.3941 -0.0035
  488SOL    HW2 2023   4.385   0.085   1.177  0.0997  0.6944 -0.6665
  488SOL    HW3 2024   4.532   0.056   1.199  0.2712  0.9260 -1.4837
  488SOL    MW4 2025   4.464   0.110   1.205  0.0272  0.5039 -0.2862
  489SOL     OW 2026   4.474   0.401   1.081  0.3155 -0.1183  0.0912
  489SOL    HW2 2027   4.393   0.431   1.122 -0.3726 -1.0641 -0.5439
  489SOL    HW3 2028   4.491   0.315   1.121  0.6453 -0.2103 -0.2413
  489SOL    MW4 2029   4.466   0.393   1.091  0.2680 -0.2553 -0.0365
  490SOL     OW 2030   0.351   0.415   1.123  0.4612 -0.4013  0.4457
  490SOL    HW2 2031   0.318   0.430   1.034 -0.2811 -0.4078  0.7235
  490SOL    HW3 2032   0.328   0.494   1.171 -0.0005 -0.8056  0.8877
  490SOL    MW4 2033   0.344   0.427   1.117  0.3023 -0.4555  0.5405
  491SOL     OW 2034   4.374   1.231   0.887  0.1087  0.2417  0.2228
  491SOL    HW2 2035   4.293   1.184   0.909 -0.0339  0.1444 -0.4882
  491SOL    HW3 2036   4.405   1.266   0.970 -0.4368 -0.0888  0.5691
  491SOL    MW4 2037   4.368   1.229   0.901  0.0181  0.1853  0.1746
  492SOL     OW 2038   4.440   0.943   1.315  0.6357  0.1810 -0.2079
  492SOL    HW2 2039   4.473   0.905   1.396  0.6709  0.5287 -0.0556
  492SOL    HW3 2040   4.363   0.994   1.342 -0.5575 -1.3543 -0.6936
  492SOL    MW4 2041   4.434   0.945   1.329  0.4826  0.0244 -0.2520
  493SOL     OW 2042   4.417   1.293   1.154 -0.2589 -0.4363 -0.2247
  493SOL    HW2 2043   4.376   1.226   1.208 -0.4165  0.6137  0.9577
  493SOL    HW3 2044   4.511   1.286   1.173 -0.2651 -0.3925 -0.1779
  493SOL    MW4 2045   4.424   1.283   1.163 -0.2799 -0.2919 -0.0625
  494SOL     OW 2046   0.190   1.311   1.203 -0.4768 -0.2048  0.8291
  494SOL    HW2 2047   0.278   1.295   1.169  0.0757  1.4882  1.4276
  494SOL    HW3 2048   0.201   1.311   1.298 -1.3554 -1.1718  0.9405
  494SOL    MW4 2049   0.203   1.309   1.211 -0.5198 -0.1091  0.9228
  495SOL     OW 2050   0.174   1.560   1.094 -0.3837  0.0247  0.4335
  495SOL    HW2 2051   0.162   1.475   1.137  1.0110 -0.2266  0.3464
  495SOL    HW3 2052   0.171   1.540   1.001  0.6116 -0.0264  0.4134
  495SOL    MW4 2053   0.172   1.546   1.088 -0.0684 -0.0151  0.4196
  496SOL     OW 2054   4.476   1.690   1.272 -0.0362  0.5954 -0.1654
  496SOL    HW2 2055   4.487   1.778   1.237 -0.0238  0.2647 -0.9966
  496SOL    HW3 2056   4.547   1.639   1.232 -1.1346 -0.2153 -1.0956
  496SOL    MW4 2057   4.487   1.695   1.262 -0.1795  0.4448 -0.3978
  497SOL     OW 2058   0.011   1.941   1.129 -0.8044  0.4492 -0.0950
  497SOL    HW2 2059  -0.056   2.009   1.134 -0.6030  0.7698 -1.4029
  497SOL    HW3 2060   0.009   1.913   1.037  1.1926  0.8271 -0.2706
  497SOL    MW4 2061   0.002   1.947   1.117 -0.5145  0.5414 -0.2908
  498SOL     OW 2062   0.227   2.103   1.210 -0.1882 -0.0118 -0.2579
  498SOL    HW2 2063   0.218   2.185   1.163 -1.1521  0.0862  0.0841
  498SOL    HW3 2064   0.155   2.048   1.179  0.7215 -0.9020 -0.8266
  498SOL    MW4 2065   0.217   2.106   1.200 -0.1953 -0.1161 -0.2879
  499SOL     OW 2066   0.193   2.348   1.093 -0.0591  0.2207  0.0012
  499SOL    HW2 2067   0.271   2.383   1.136 -0.2793  0.0962  0.4928
  499SOL    HW3 2068   0.120   2.397   1.131 -0.1588  0.8568 -0.9869
  499SOL    MW4 2069   0.194   2.359   1.103 -0.1013  0.2882 -0.0644
  500SOL     OW 2070   4.444   2.467   1.192 -0.0914  0.4395  0.0818
  500SOL    HW2 2071   4.467   2.451   1.283  0.1499 -0.9623 -0.2205
  500SOL    HW3 2072   4.363   2.417   1.179  1.0615 -1.1346 -1.0800
  500SOL    MW4 2073   4.436   2.459   1.202  0.0925  0.0467 -0.1115
  501SOL     OW 2074   4.422   2.744   1.079  0.1967 -0.2097 -0.5567
  501SOL    HW2 2075   4.357   2.790   1.133  1.0076  0.4344 -0.1294
  501SOL    HW3 2076   4.420   2.654   1.112  0.0253 -0.0314 -0.0696
  501SOL    MW4 2077   4.413   2.738   1.090  0.2809 -0.1009 -0.4361
  502SOL     OW 2078   0.204   2.780   1.219  0.1865 -0.3224 -0.2099
  502SOL    HW2 2079   0.186   2.783   1.313  1.4594 -1.7682  0.0850
  502SOL    HW3 2080   0.117   2.784   1.178 -0.3421  0.9279  0.9966
  502SOL    MW4 2081   0.190   2.781   1.226  0.2847 -0.3481 -0.0118
  503SOL     OW 2082   0.240   3.028   1.125 -0.0018  0.4651 -0.3895
  503SOL    HW2 2083   0.304   3.075   1.179  0.8461 -0.6738 -0.4002
  503SOL    HW3 2084   0.239   2.939   1.160 -1.3412  0.3820 -0.6011
  503SOL    MW4 2085   0.248   3.023   1.137 -0.0666  0.3037 -0.4188
  504SOL     OW 2086   0.060   3.180   1.250  0.4944 -0.9042  0.2811
  504SOL    HW2 2087  -0.027   3.182   1.209  1.6947  1.8895 -2.3667
  504SOL    HW3 2088   0.112   3.126   1.191  1.7715  1.6194 -0.9911
  504SOL    MW4 2089   0.055   3.173   1.237  0.8213 -0.2027 -0.2362
  505SOL     OW 2090   0.012   3.435   1.122  0.0329 -0.0693 -0.2233
  505SOL    HW2 2091   0.049   3.357   1.163  0.1091  0.0348 -0.0944
  505SOL    HW3 2092   0.043   3.431   1.031  0.7870  0.2828  0.0130
  505SOL    MW4 2093   0.021   3.424   1.115  0.1424 -0.0091 -0.1751
  506SOL     OW 2094   0.200   3.612   1.226 -0.9083 -0.2943  0.0383
  506SOL    HW2 2095   0.193   3.590   1.319 -0.3943 -0.8643 -0.0529
  506SOL    HW3 2096   0.126   3.565   1.185 -2.0757  1.2151  0.3649
  506SOL    MW4 2097   0.189   3.603   1.233 -0.9945 -0.1705  0.0694
  507SOL     OW 2098   0.200   3.886   1.117  0.1411 -0.1223 -0.0887
  507SOL    HW2 2099   0.186   3.797   1.149 -1.2480  0.0039 -0.3177
  507SOL    HW3 2100   0.126   3.936   1.151  0.4647  0.7600 -0.6610
  507SOL    MW4 2101   0.188   3.880   1.125  0.0006  0.0107 -0.1943
  508SOL     OW 2102   4.465   4.028   1.226  0.2931 -0.1441 -0.3061
  508SOL    HW2 2103   4.468   4.029   1.321 -0.8784 -0.8477 -0.2620
  508SOL    HW3 2104   4.397   3.964   1.204  0.1730  0.4153 -1.6011
  508SOL    MW4 2105   4.457   4.020   1.235  0.1225 -0.1631 -0.4711
  509SOL     OW 2106   4.485   4.297   1.139 -0.2087 -0.2254 -0.0789
  509SOL    HW2 2107   4.576   4.319   1.158 -0.7428  0.8000  1.3271
  509SOL    HW3 2108   4.473   4.210   1.179  0.0209 -0.1640  0.1242
  509SOL    MW4 2109   4.496   4.288   1.147 -0.2494 -0.0825  0.1334
  510SOL     OW 2110   0.251   4.361   1.219 -0.0727 -0.4789 -0.4414
  510SOL    HW2 2111   0.230   4.364   1.313 -0.1383 -0.1114 -0.4656
  510SOL    HW3 2112   0.229   4.449   1.187 -1.7784 -1.1536 -1.1638
  510SOL    MW4 2113   0.245   4.373   1.227 -0.3064 -0.5198 -0.5399
  511SOL     OW 2114   0.574   4.654   1.126  0.3065 -0.1296 -0.1859
  511SOL    HW2 2115   0.566   4.560   1.140 -0.9522  0.1391  1.0697
  511SOL    HW3 2116   0.648   4.681   1.181 -0.7878 -0.0422  1.2741
  511SOL    MW4 2117   0.582   4.645   1.135 -0.0039 -0.0826  0.1725
  512SOL     OW 2118   0.358   0.139   1.212 -0.1883 -0.9321 -0.0258
  512SOL    HW2 2119   0.361   0.231   1.184  1.4502 -0.6044  1.1312
  512SOL    HW3 2120   0.437   0.100   1.174 -1.0698 -1.9745 -0.8193
  512SOL    MW4 2121   0.369   0.146   1.203 -0.0884 -1.0264  0.0221
  513SOL     OW 2122   4.264   2.879   0.711  0.0614 -0.7684 -0.3038
  513SOL    HW2 2123   4.276   2.895   0.618 -1.4648 -0.7082 -0.5137
  513SOL    HW3 2124   4.269   2.966   0.752 -1.3403 -0.5387 -0.5961
  513SOL    MW4 2125   4.266   2.893   0.704 -0.3252 -0.7303 -0.3701
  514SOL     OW 2126   0.604   0.532   1.179 -0.0217 -0.2957  0.0539
  514SOL    HW2 2127   0.598   0.626   1.161  0.2255  0.0308  1.5845
  514SOL    HW3 2128   0.519   0.498   1.150 -0.4849  0.5607  0.3503
  514SOL    MW4 2129   0.592   0.540   1.173 -0.0502 -0.1397  0.2950
  515SOL     OW 2130   0.369   0.937   1.193 -0.3160  0.9994  0.3501
  515SOL    HW2 2131   0.380   0.923   1.287 -1.3116  0.0667  0.3460
  515SOL    HW3 2132   0.394   1.028   1.179  2.4124  0.4202  1.0850
  515SOL    MW4 2133   0.374   0.947   1.203 -0.0874  0.8000  0.4467
  516SOL     OW 2134   0.132   0.818   1.129  0.4752 -0.0700 -0.2057
  516SOL    HW2 2135   0.065   0.862   1.182 -0.2646 -0.0484 -1.1577
  516SOL    HW3 2136   0.214   0.858   1.157  0.0497  0.2413  0.6266
  516SOL    MW4 2137   0.134   0.829   1.140  0.3214 -0.0260 -0.2215
  517SOL     OW 2138   0.439   1.219   1.134  1.0985 -0.6224 -0.1398
  517SOL    HW2 2139   0.524   1.255   1.162  1.3078  0.0833 -1.5981
  517SOL    HW3 2140   0.440   1.228   1.038 -1.1563  0.6159 -0.0770
  517SOL    MW4 2141   0.451   1.225   1.125  0.8286 -0.3660 -0.3239
  518SOL     OW 2142   0.669   1.348   1.216  0.3789  0.3497  0.0080
  518SOL    HW2 2143   0.658   1.422   1.157 -0.6316 -0.2585 -0.5758
  518SOL    HW3 2144   0.746   1.303   1.184 -0.3853 -0.1997 -1.1041
  518SOL    MW4 2145   0.677   1.352   1.204  0.1447  0.1969 -0.2156
  519SOL     OW 2146   0.637   1.584   1.058  0.4964 -0.0287  0.2232
  519SOL    HW2 2147   0.718   1.621   1.095  0.5317  3.0624 -2.7368
  519SOL    HW3 2148   0.567   1.634   1.099  0.3693  1.0103 -1.2482
  519SOL    MW4 2149   0.639   1.595   1.068  0.4842  0.5162 -0.3614
  520SOL     OW 2150   0.394   1.680   1.181  0.3972 -0.1246 -0.2144
  520SOL    HW2 2151   0.396   1.647   1.271  0.4118 -0.8399 -0.4780
  520SOL    HW3 2152   0.324   1.631   1.138  1.2319 -0.6934 -0.9426
  520SOL    MW4 2153   0.385   1.669   1.187  0.5093 -0.2940 -0.3452
  521SOL     OW 2154   0.429   1.944   1.103 -0.3782  0.0134 -0.0766
  521SOL    HW2 2155   0.414   1.857   1.141  0.1084  0.1286  0.3800
  521SOL    HW3 2156   0.364   2.000   1.145 -0.3809 -0.0305 -0.0213
  521SOL    MW4 2157   0.418   1.940   1.113 -0.3144  0.0228 -0.0091
  522SOL     OW 2158   0.678   2.074   1.163 -0.2244  0.3897  0.4229
  522SOL    HW2 2159   0.676   2.066   1.258  1.7262 -2.1828  0.3065
  522SOL    HW3 2160   0.598   2.029   1.133  0.7696 -1.6424  0.7371
  522SOL    MW4 2161   0.667   2.067   1.171  0.1642 -0.2179  0.4489
  523SOL     OW 2162   0.682   2.345   1.116 -0.1566 -0.1543 -0.1356
  523SOL    HW2 2163   0.593   2.372   1.137  0.0908  0.4201  0.1644
  523SOL    HW3 2164   0.684   2.252   1.138 -0.0201  0.3440  2.0124
  523SOL    MW4 2165   0.670   2.336   1.122 -0.1059 -0.0126  0.1874
  524SOL     OW 2166   0.435   2.474   1.185 -0.0560 -0.4251 -0.2021
  524SOL    HW2 2167   0.439   2.477   1.280 -3.3351 -0.2518 -0.0110
  524SOL    HW3 2168   0.454   2.564   1.157  2.4434 -0.8094  0.1610
  524SOL    MW4 2169   0.438   2.486   1.194 -0.1589 -0.4528 -0.1291
  525SOL     OW 2170   0.446   2.740   1.104 -0.1515 -0.3871 -0.0692
  525SOL    HW2 2171   0.355   2.741   1.135 -0.4494  1.3961 -0.9168
  525SOL    HW3 2172   0.438   2.754   1.009  1.0766  1.4857  0.0901
  525SOL    MW4 2173   0.433   2.742   1.095 -0.0288  0.0956 -0.1600
  526SOL     OW 2174   0.689   2.821   1.229 -0.1824  0.4291  0.1533
  526SOL    HW2 2175   0.683   2.917   1.223  2.0741  0.5765 -0.2515
  526SOL    HW3 2176   0.607   2.790   1.190 -1.7226  2.2024  1.8306
  526SOL    MW4 2177   0.677   2.830   1.223 -0.0879  0.6828  0.3213
  527SOL     OW 2178   0.674   3.109   1.181  0.4486  0.0410  0.1645
  527SOL    HW2 2179   0.763   3.138   1.204  0.5544 -0.8436  0.8764
  527SOL    HW3 2180   0.675   3.104   1.085  0.8412  1.0762  0.1075
  527SOL    MW4 2181   0.686   3.112   1.171  0.5144  0.0608  0.2508
  528SOL     OW 2182   0.424   3.221   1.238  0.4935  0.2710  0.1461
  528SOL    HW2 2183   0.422   3.312   1.210 -1.5870 -0.0440 -0.7794
  528SOL    HW3 2184   0.508   3.188   1.205  0.5559  1.4239 -0.8793
  528SOL    MW4 2185   0.435   3.228   1.230  0.2272  0.3812 -0.1113
  529SOL     OW 2186   0.444   3.507   1.140  0.0092  0.0106  0.1140
  529SOL    HW2 2187   0.517   3.550   1.184 -0.3583 -0.3946  1.1238
  529SOL    HW3 2188   0.374   3.572   1.141  0.5840  0.7119 -1.5894
  529SOL    MW4 2189   0.444   3.521   1.146  0.0365  0.0498  0.0225
  530SOL     OW 2190   0.661   3.595   1.261 -0.0085  0.1388  0.2135
  530SOL    HW2 2191   0.665   3.618   1.354 -1.5352 -0.7059  0.4939
  530SOL    HW3 2192   0.688   3.675   1.216 -0.4935  0.9543  1.3417
  530SOL    MW4 2193   0.665   3.609   1.267 -0.2738  0.1349  0.3994
  531SOL     OW 2194   0.729   3.865   1.160  0.4601  0.4841  0.1091
  531SOL    HW2 2195   0.648   3.896   1.199  0.8831  0.9474  0.6357
  531SOL    HW3 2196   0.715   3.874   1.065  0.2216  1.4135  0.2233
  531SOL    MW4 2197   0.717   3.870   1.152  0.4846  0.6678  0.1936
  532SOL     OW 2198   0.459   3.962   1.184 -0.0178 -0.4401  0.0595
  532SOL    HW2 2199   0.489   4.031   1.126 -0.3905  1.0453  1.5863
  532SOL    HW3 2200   0.370   3.944   1.155 -0.1963  0.2791  0.1413
  532SOL    MW4 2201   0.451   3.969   1.173 -0.0905 -0.1495  0.2717
  533SOL     OW 2202   0.513   4.394   1.211  0.0188  0.1109  0.1966
  533SOL    HW2 2203   0.542   4.396   1.302  0.3459  0.9520  0.0734
  533SOL    HW3 2204   0.420   4.371   1.216 -0.3281  1.6126  0.8189
  533SOL    MW4 2205   0.505   4.391   1.224  0.0162  0.4206  0.2624
  534SOL     OW 2206   0.798   4.232   0.898 -0.0276  0.1111 -0.0760
  534SOL    HW2 2207   0.731   4.225   0.965  0.0083 -0.5723 -0.1158
  534SOL    HW3 2208   0.751   4.260   0.819 -0.2859 -0.4983 -0.1378
  534SOL    MW4 2209   0.783   4.235   0.896 -0.0569 -0.0591 -0.0895
  535SOL     OW 2210   0.043   3.725   0.145 -0.0741  0.4913 -0.2107
  535SOL    HW2 2211   0.045   3.793   0.078  1.4001  1.6513  0.9806
  535SOL    HW3 2212   0.018   3.770   0.225 -0.5226 -0.6444  0.3053
  535SOL    MW4 2213   0.040   3.740   0.147  0.0610  0.4945  0.0145
  536SOL     OW 2214   0.790   0.158   1.239 -0.3963  0.1882  0.3985
  536SOL    HW2 2215   0.806   0.186   1.329 -0.5453 -1.5487  0.9766
  536SOL    HW3 2216   0.868   0.110   1.214 -1.0148 -0.7147  0.1663
  536SOL    MW4 2217   0.802   0.156   1.247 -0.4976 -0.1601  0.4442
  537SOL     OW 2218   0.827   0.400   1.087  0.2753  0.0175  0.4231
  537SOL    HW2 2219   0.822   0.314   1.129  0.3532 -0.1696  0.0486
  537SOL    HW3 2220   0.742   0.441   1.107 -0.8544 -1.2186 -1.7072
  537SOL    MW4 2221   0.815   0.394   1.095  0.1366 -0.1703  0.0926
  538SOL     OW 2222   1.066   0.525   1.206  0.0014  0.4928  0.2130
  538SOL    HW2 2223   1.068   0.508   1.300  1.5067  1.0901  0.2995
  538SOL    HW3 2224   0.987   0.481   1.176 -0.9630  1.0160  1.8908
  538SOL    MW4 2225   1.056   0.517   1.215  0.0728  0.6407  0.4457
  539SOL     OW 2226   1.085   0.788   1.121  0.0478 -0.5846 -0.4123
  539SOL    HW2 2227   0.999   0.824   1.142  0.7106 -0.1749  1.7317
  539SOL    HW3 2228   1.079   0.695   1.145  0.0645 -0.6729 -0.7385
  539SOL    MW4 2229   1.073   0.780   1.127  0.1374 -0.5422 -0.1724
  540SOL     OW 2230   0.834   0.898   1.212  0.1880  0.6683  0.0309
  540SOL    HW2 2231   0.841   0.989   1.185  0.7397  0.7265  0.3690
  540SOL    HW3 2232   0.745   0.872   1.187  0.3235  1.0434 -0.8353
  540SOL    MW4 2233   0.823   0.906   1.205  0.2786  0.7254 -0.0387
  541SOL     OW 2234   0.873   1.184   1.120 -0.1951  0.3281 -0.6066
  541SOL    HW2 2235   0.962   1.215   1.136 -0.4866  0.1475  1.5214
  541SOL    HW3 2236   0.865   1.182   1.025  1.9902  0.5832 -0.8228
  541SOL    MW4 2237   0.883   1.188   1.110  0.0547  0.3378 -0.3544
  542SOL     OW 2238   1.128   1.266   1.210 -0.1046 -0.8771  0.0478
  542SOL    HW2 2239   1.115   1.274   1.304 -0.7620 -0.8112 -0.0498
  542SOL    HW3 2240   1.222   1.251   1.200  0.4760  2.1303  0.5115
  542SOL    MW4 2241   1.139   1.265   1.221 -0.1147 -0.4716  0.0960
  543SOL     OW 2242   1.113   1.510   1.082  0.1816 -0.3414 -0.2160
  543SOL    HW2 2243   1.140   1.427   1.121  3.0594  0.0958 -1.1530
  543SOL    HW3 2244   1.071   1.485   1.000  1.1936 -0.8792 -0.5748
  543SOL    MW4 2245   1.111   1.496   1.076  0.6949 -0.3545 -0.3870
  544SOL     OW 2246   0.888   1.653   1.178  0.3573 -0.3520  0.9414
  544SOL    HW2 2247   0.898   1.742   1.144 -0.4355 -0.8507 -0.6287
  544SOL    HW3 2248   0.960   1.604   1.139 -0.3262 -0.8346  0.2769
  544SOL    MW4 2249   0.899   1.658   1.168  0.1625 -0.4815  0.6466
  545SOL     OW 2250   0.891   1.918   1.070  0.1721 -0.3326  0.6163
  545SOL    HW2 2251   0.972   1.964   1.091 -0.0277 -0.0787  0.8229
  545SOL    HW3 2252   0.822   1.979   1.092 -0.0971 -0.7606  0.9736
  545SOL    MW4 2253   0.893   1.932   1.076  0.1102 -0.3556  0.6907
  546SOL     OW 2254   1.114   2.078   1.147 -0.1834  0.3028 -0.1068
  546SOL    HW2 2255   1.097   2.080   1.241 -1.3400  1.3438 -0.3329
  546SOL    HW3 2256   1.127   2.169   1.123  0.4885  0.0038 -0.8937
  546SOL    MW4 2257   1.114   2.090   1.156 -0.2474  0.4005 -0.2404
  547SOL     OW 2258   1.145   2.343   1.081 -0.2439 -0.0127  0.3172
  547SOL    HW2 2259   1.226   2.372   1.123 -0.7636 -0.0556  1.3565
  547SOL    HW3 2260   1.077   2.400   1.117 -1.0891 -1.6958  1.4748
  547SOL    MW4 2261   1.147   2.354   1.091 -0.4240 -0.2401  0.6070
  548SOL     OW 2262   0.929   2.462   1.193 -0.3704  0.2182 -0.9460
  548SOL    HW2 2263   0.922   2.475   1.287  0.1531  1.4877 -1.0757
  548SOL    HW3 2264   0.850   2.412   1.170  0.5279 -1.9110  0.4537
  548SOL    MW4 2265   0.918   2.457   1.202 -0.1828  0.1049 -0.7784
  549SOL     OW 2266   0.929   2.710   1.115  0.0994  0.5122 -0.1402
  549SOL    HW2 2267   0.928   2.619   1.144  1.8363  0.4084 -0.3419
  549SOL    HW3 2268   0.840   2.741   1.130 -0.6434 -1.3602 -0.5245
  549SOL    MW4 2269   0.918   2.702   1.121  0.2306  0.2515 -0.2176
  550SOL     OW 2270   1.147   2.842   1.201  0.4652  0.0195  0.0648
  550SOL    HW2 2271   1.148   2.835   1.296 -0.4645  0.3084  0.1060
  550SOL    HW3 2272   1.066   2.797   1.175  0.4558  0.3848 -0.5452
  550SOL    MW4 2273   1.136   2.835   1.210  0.3412  0.1059 -0.0103
  551SOL     OW 2274   1.162   3.103   1.091  0.2026  0.3615  0.0856
  551SOL    HW2 2275   1.161   3.011   1.117  1.3289  0.2950 -0.0702
  551SOL    HW3 2276   1.166   3.101   0.995  0.1118  0.5633  0.0769
  551SOL    MW4 2277   1.163   3.091   1.082  0.3392  0.3796  0.0638
  552SOL     OW 2278   0.930   3.202   1.208 -0.5803  0.2084 -0.0800
  552SOL    HW2 2279   0.919   3.290   1.174  0.5999  0.2139 -0.4669
  552SOL    HW3 2280   1.012   3.171   1.171  0.1814 -0.1959  1.8722
  552SOL    MW4 2281   0.939   3.209   1.199 -0.3241  0.1557  0.1266
  553SOL     OW 2282   0.890   3.464   1.139  0.0093  0.8628 -0.1993
  553SOL    HW2 2283   0.892   3.487   1.046 -1.1864  0.6698 -0.2749
  553SOL    HW3 2284   0.814   3.511   1.174 -0.1624  0.1116  0.4573
  553SOL    MW4 2285   0.880   3.473   1.131 -0.1711  0.7379 -0.1225
  554SOL     OW 2286   1.114   3.587   1.231  0.0406  0.2276 -0.8138
  554SOL    HW2 2287   1.186   3.541   1.187 -0.5871 -0.1913 -1.4085
  554SOL    HW3 2288   1.036   3.539   1.206 -0.6729  1.8054 -1.6957
  554SOL    MW4 2289   1.113   3.575   1.222 -0.1364  0.3803 -1.0086
  555SOL     OW 2290   1.153   3.870   1.131 -0.3193 -0.3090  0.0987
  555SOL    HW2 2291   1.093   3.922   1.185 -0.0022  0.3542 -0.1730
  555SOL    HW3 2292   1.143   3.780   1.162 -1.4983 -0.2066  0.0067
  555SOL    MW4 2293   1.144   3.865   1.142 -0.4330 -0.2079  0.0507
  556SOL     OW 2294   0.964   4.018   1.249  0.0509  0.1729 -0.4355
  556SOL    HW2 2295   0.938   4.022   1.341  0.1069 -0.3898 -0.3925
  556SOL    HW3 2296   0.888   3.982   1.204 -0.0817  0.7260 -0.6514
  556SOL    MW4 2297   0.951   4.014   1.256  0.0408  0.1712 -0.4585
  557SOL     OW 2298   1.098   4.264   1.198  0.0234  0.3582  0.8667
  557SOL    HW2 2299   1.071   4.299   1.283 -3.1889  0.0999  0.0012
  557SOL    HW3 2300   1.058   4.177   1.194  0.1547  0.3716 -0.9135
  557SOL    MW4 2301   1.089   4.257   1.209 -0.3830  0.3262  0.5176
  558SOL     OW 2302   1.368   4.223   1.106  0.8815 -0.4585  0.3518
  558SOL    HW2 2303   1.360   4.153   1.041 -0.0390 -0.5539  0.5564
  558SOL    HW3 2304   1.278   4.242   1.132  1.0394  1.5491 -0.4864
  558SOL    MW4 2305   1.355   4.217   1.101  0.7809 -0.2060  0.2683
  559SOL     OW 2306   1.491   4.654   1.092  0.3139 -0.2760  0.1587
  559SOL    HW2 2307   1.576   4.695   1.107 -0.5439  1.2699  0.9482
  559SOL    HW3 2308   1.496   4.570   1.137  0.6253  0.8056  2.2226
  559SOL    MW4 2309   1.503   4.648   1.100  0.2419  0.0710  0.5351
  560SOL     OW 2310   1.247   0.091   1.212 -0.2292  0.1264  0.0134
  560SOL    HW2 2311   1.330   0.064   1.171 -0.3818 -1.0191  0.4651
  560SOL    HW3 2312   1.180   0.067   1.149 -0.3513 -0.3656  0.3340
  560SOL    MW4 2313   1.249   0.085   1.198 -0.2655 -0.0896  0.1154
  561SOL     OW 2314   1.282   0.372   1.125  0.2947 -0.0296  0.3034
  561SOL    HW2 2315   1.255   0.286   1.160 -0.0068  0.0276  0.2118
  561SOL    HW3 2316   1.211   0.431   1.149  0.9075  0.3850  1.1385
  561SOL    MW4 2317   1.269   0.368   1.133  0.3358  0.0326  0.4015
  562SOL     OW 2318   1.533   0.779   1.171 -0.2697  0.3217 -0.0399
  562SOL    HW2 2319   1.517   0.689   1.200 -0.5886  0.6354  0.7714
  562SOL    HW3 2320   1.542   0.772   1.076 -0.7409 -0.5076 -0.0308
  562SOL    MW4 2321   1.532   0.767   1.162 -0.3740  0.2537  0.0683
  563SOL     OW 2322   1.784   0.847   1.279 -0.4988  0.5377  0.6263
  563SOL    HW2 2323   1.695   0.829   1.251 -0.4152  1.4105 -0.2379
  563SOL    HW3 2324   1.779   0.856   1.374 -1.6303  2.2736  0.4212
  563SOL    MW4 2325   1.772   0.846   1.288 -0.6371  0.8819  0.4853
  564SOL     OW 2326   1.304   0.917   1.252  0.4779  0.1639  0.0096
  564SOL    HW2 2327   1.379   0.865   1.224  0.1086 -0.2952 -0.1404
  564SOL    HW3 2328   1.228   0.865   1.226  0.1063  0.6845  0.0485
  564SOL    MW4 2329   1.304   0.903   1.245  0.3802  0.1720 -0.0050
  565SOL     OW 2330   1.365   1.148   1.128  0.4825  0.1862 -0.5943
  565SOL    HW2 2331   1.342   1.066   1.172 -1.2264  1.2244  0.5252
  565SOL    HW3 2332   1.329   1.138   1.040 -0.5753  0.0961 -0.1637
  565SOL    MW4 2333   1.357   1.136   1.122  0.1174  0.3113 -0.3897
  566SOL     OW 2334   1.574   1.280   1.252  0.2686 -0.3113  0.0171
  566SOL    HW2 2335   1.653   1.236   1.222  0.0050 -0.1702 -0.9180
  566SOL    HW3 2336   1.503   1.239   1.203  0.2409  2.5942 -2.5455
  566SOL    MW4 2337   1.575   1.269   1.241  0.2302  0.0906 -0.4444
  567SOL     OW 2338   1.575   1.538   1.118 -0.7169  0.1531  0.5282
  567SOL    HW2 2339   1.654   1.591   1.125 -0.2713 -0.1118 -2.1949
  567SOL    HW3 2340   1.591   1.463   1.175  1.2532 -0.1960 -0.4503
  567SOL    MW4 2341   1.587   1.535   1.127 -0.3982  0.0721  0.0398
  568SOL     OW 2342   1.347   1.676   1.179  0.3457  0.1891  0.0880
  568SOL    HW2 2343   1.422   1.626   1.147 -0.2011 -1.2022  0.9458
  568SOL    HW3 2344   1.272   1.643   1.128  0.0391  0.3558  0.4304
  568SOL    MW4 2345   1.347   1.665   1.168  0.2331  0.0277  0.2463
  569SOL     OW 2346   1.352   1.943   1.115 -0.1446 -0.2847 -0.2055
  569SOL    HW2 2347   1.273   1.987   1.145  0.6524  1.0102  0.0196
  569SOL    HW3 2348   1.341   1.852   1.144 -1.3086  0.0038  0.2760
  569SOL    MW4 2349   1.340   1.937   1.123 -0.1930 -0.0759 -0.1122
  570SOL     OW 2350   1.589   2.059   1.216  0.1911 -0.7103 -0.0369
  570SOL    HW2 2351   1.568   2.150   1.194  0.7218 -0.6745 -0.4238
  570SOL    HW3 2352   1.511   2.010   1.190 -0.0640 -0.3729  0.0913
  570SOL    MW4 2353   1.576   2.065   1.209  0.2273 -0.6609 -0.0709
  571SOL     OW 2354   1.561   2.315   1.096  0.3544  0.1318 -0.1056
  571SOL    HW2 2355   1.491   2.364   1.139 -0.0024 -1.3547  1.0626
  571SOL    HW3 2356   1.540   2.319   1.003 -1.8631 -1.1560  0.3119
  571SOL    MW4 2357   1.549   2.322   1.089  0.0145 -0.2344  0.1037
  572SOL     OW 2358   1.361   2.464   1.213 -0.4221  0.3020 -0.2374
  572SOL    HW2 2359   1.346   2.483   1.306  1.0494 -1.8281  0.4858
  572SOL    HW3 2360   1.354   2.549   1.170 -0.3052  1.4640  1.9470
  572SOL    MW4 2361   1.358   2.477   1.220 -0.2127  0.1743  0.1462
  573SOL     OW 2362   1.369   2.715   1.082 -0.2077  0.3621  0.4888
  573SOL    HW2 2363   1.454   2.749   1.112  0.0726  1.1061 -1.0954
  573SOL    HW3 2364   1.304   2.762   1.134  0.3621 -0.8448  2.3397
  573SOL    MW4 2365   1.372   2.726   1.093 -0.0955  0.3014  0.5242
  574SOL     OW 2366   1.623   2.790   1.219 -0.2445 -0.0498  0.3918
  574SOL    HW2 2367   1.707   2.750   1.193  0.3814  0.1607  2.0449
  574SOL    HW3 2368   1.632   2.881   1.193 -0.2015 -0.1453  0.0551
  574SOL    MW4 2369   1.636   2.796   1.212 -0.1563 -0.0348  0.5654
  575SOL     OW 2370   1.631   3.055   1.128 -0.0170  0.5642  0.0228
  575SOL    HW2 2371   1.699   3.103   1.176 -0.6705  2.4421 -0.8895
  575SOL    HW3 2372   1.552   3.107   1.139 -0.7970 -0.4229 -0.8193
  575SOL    MW4 2373   1.630   3.068   1.136 -0.2060  0.6816 -0.2086
  576SOL     OW 2374   1.416   3.229   1.178 -0.5637 -0.1134 -0.3588
  576SOL    HW2 2375   1.407   3.237   1.273 -0.7826  0.6265 -0.4347
  576SOL    HW3 2376   1.335   3.186   1.150 -0.1275 -1.0849 -0.1180
  576SOL    MW4 2377   1.404   3.225   1.187 -0.5350 -0.1440 -0.3370
  577SOL     OW 2378   1.348   3.492   1.104  0.2923 -0.2180  0.1525
  577SOL    HW2 2379   1.382   3.403   1.113  0.4849  0.0050  1.7992
  577SOL    HW3 2380   1.354   3.510   1.010  2.3209 -1.1237  0.0747
  577SOL    MW4 2381   1.353   3.482   1.093  0.5853 -0.3080  0.3595
  578SOL     OW 2382   1.542   3.608   1.265 -0.3650  0.2502  0.2745
  578SOL    HW2 2383   1.581   3.678   1.213  0.7985 -0.2312  0.4942
  578SOL    HW3 2384   1.466   3.579   1.214  0.7278 -0.1684 -1.1220
  578SOL    MW4 2385   1.537   3.613   1.252 -0.0674  0.1314  0.1192
  579SOL     OW 2386   1.595   3.859   1.155  0.1548  0.0643  0.2775
  579SOL    HW2 2387   1.515   3.893   1.197 -1.1444 -2.3380 -0.1809
  579SOL    HW3 2388   1.585   3.884   1.063 -0.8466 -1.5386 -0.0773
  579SOL    MW4 2389   1.583   3.867   1.148 -0.1487 -0.4642  0.1702
  580SOL     OW 2390   1.397   4.006   1.268 -0.1724  0.6054  0.2628
  580SOL    HW2 2391   1.397   4.085   1.214  1.5934  0.2181 -0.3445
  580SOL    HW3 2392   1.326   3.953   1.232 -0.3097  1.2214 -0.3997
  580SOL    MW4 2393   1.388   4.010   1.256  0.0426  0.6361  0.0952
  581SOL     OW 2394   3.167   3.061   0.451  0.6750 -0.3018 -0.3531
  581SOL    HW2 2395   3.153   3.110   0.532 -0.3598 -0.1573 -0.6085
  581SOL    HW3 2396   3.201   3.127   0.389 -0.8624  0.1444 -0.7412
  581SOL    MW4 2397   3.170   3.076   0.454  0.3355 -0.2239 -0.4380
  582SOL     OW 2398   1.556   4.421   1.222 -0.6106 -0.1510 -0.2686
  582SOL    HW2 2399   1.558   4.425   1.318  0.5272 -1.0374 -0.2544
  582SOL    HW3 2400   1.494   4.351   1.202  0.2750 -0.9783 -0.1510
  582SOL    MW4 2401   1.548   4.412   1.232 -0.3436 -0.3767 -0.2513
  583SOL     OW 2402   1.963   0.011   1.112 -0.4654 -0.0987 -0.3818
  583SOL    HW2 2403   1.967  -0.074   1.154 -0.4614 -0.3530 -0.8997
  583SOL    HW3 2404   1.888   0.054   1.153 -1.8267 -1.1916 -1.6813
  583SOL    MW4 2405   1.954   0.006   1.123 -0.6447 -0.2764 -0.6217
  584SOL     OW 2406   1.720   0.136   1.180  0.0573  0.2186 -0.0077
  584SOL    HW2 2407   1.717   0.227   1.150  3.2213  0.0506 -1.0481
  584SOL    HW3 2408   1.706   0.141   1.274 -0.1294  1.7767 -0.1057
  584SOL    MW4 2409   1.718   0.149   1.188  0.4501  0.4020 -0.1578
  585SOL     OW 2410   1.505   0.508   1.230 -0.3498  0.0769 -0.6751
  585SOL    HW2 2411   1.425   0.458   1.214  0.0214 -1.1664  1.1844
  585SOL    HW3 2412   1.571   0.467   1.174 -0.4289 -0.5069 -0.3462
  585SOL    MW4 2413   1.503   0.496   1.221 -0.3113 -0.1641 -0.3864
  586SOL     OW 2414   1.965   0.456   1.208  0.1963  0.5098  0.1176
  586SOL    HW2 2415   1.984   0.452   1.302  0.4373  1.1487  0.1053
  586SOL    HW3 2416   2.048   0.434   1.166  0.5393  1.8440  0.0613
  586SOL    MW4 2417   1.979   0.453   1.215  0.2735  0.7701  0.1085
  587SOL     OW 2418   2.141   0.470   0.672 -0.1328  0.6350 -0.1999
  587SOL    HW2 2419   2.200   0.451   0.745 -0.8868 -1.1283 -0.0040
  587SOL    HW3 2420   2.161   0.402   0.607 -0.0407  1.6863 -1.2877
  587SOL    MW4 2421   2.151   0.458   0.673 -0.2203  0.5411 -0.3176
  588SOL     OW 2422   1.988   0.726   1.153  0.2250  0.0575  0.0910
  588SOL    HW2 2423   1.922   0.776   1.202 -1.0306 -1.3723 -0.0988
  588SOL    HW3 2424   1.987   0.640   1.194  0.4496 -0.6102 -1.3027
  588SOL    MW4 2425   1.979   0.722   1.165  0.0889 -0.2192 -0.1178
  589SOL     OW 2426   1.788   1.131   1.187 -0.2381 -0.1873  0.6060
  589SOL    HW2 2427   1.795   1.038   1.210  0.1148 -0.5011 -0.7221
  589SOL    HW3 2428   1.791   1.132   1.091 -0.8314  1.1502  0.5932
  589SOL    MW4 2429   1.789   1.119   1.177 -0.2699 -0.0522  0.4292
  590SOL     OW 2430   2.016   1.259   1.265  0.1778  0.1001  0.0613
  590SOL    HW2 2431   2.085   1.217   1.214  0.0066  1.9215 -1.7330
  590SOL    HW3 2432   1.942   1.199   1.259 -0.0189  0.5452 -2.3351
  590SOL    MW4 2433   2.015   1.246   1.258  0.1292  0.3991 -0.4916
  591SOL     OW 2434   2.035   1.528   1.174 -0.1704 -0.4484 -0.3257
  591SOL    HW2 2435   2.011   1.447   1.218 -1.1048  0.6059  1.1821
  591SOL    HW3 2436   2.062   1.502   1.087  0.2761 -2.4579  0.3957
  591SOL    MW4 2437   2.035   1.514   1.169 -0.2348 -0.5745 -0.0315
  592SOL     OW 2438   1.809   1.656   1.256  0.6224 -0.3749  0.0659
  592SOL    HW2 2439   1.822   1.739   1.211 -0.8571 -0.3789 -0.3791
  592SOL    HW3 2440   1.885   1.603   1.231  0.9424  0.4085 -0.6304
  592SOL    MW4 2441   1.821   1.660   1.246  0.4694 -0.2722 -0.0846
  593SOL     OW 2442   1.810   1.907   1.132 -0.1613  0.8110  0.1379
  593SOL    HW2 2443   1.735   1.961   1.157 -0.5124  1.0312 -1.3550
  593SOL    HW3 2444   1.805   1.902   1.037  0.3644 -1.1487  0.1989
  593SOL    MW4 2445   1.799   1.914   1.123 -0.1382  0.5815 -0.0510
  594SOL     OW 2446   2.027   2.058   1.223  0.3433 -0.6800  1.1257
  594SOL    HW2 2447   2.036   2.067   1.318 -0.9207 -0.7081  1.2567
  594SOL    HW3 2448   1.949   2.003   1.211  0.2111 -0.2818  0.0694
  594SOL    MW4 2449   2.018   2.052   1.234  0.1593 -0.6313  1.0036
  595SOL     OW 2450   2.012   2.305   1.084 -0.4510  0.1081 -0.1107
  595SOL    HW2 2451   2.092   2.349   1.114 -0.3228  0.1948 -0.5658
  595SOL    HW3 2452   2.008   2.225   1.136 -0.7335  0.6910  0.7903
  595SOL    MW4 2453   2.022   2.300   1.095 -0.4714  0.1965 -0.0519
  596SOL     OW 2454   1.815   2.457   1.213  0.2220  0.3424  0.0312
  596SOL    HW2 2455   1.866   2.398   1.157 -0.3068 -0.2294  0.1436
  596SOL    HW3 2456   1.727   2.419   1.214  0.3268  0.1011  1.5721
  596SOL    MW4 2457   1.810   2.444   1.206  0.1659  0.2353  0.2493
  597SOL     OW 2458   1.880   2.729   1.140 -0.0651 -0.0300 -0.1624
  597SOL    HW2 2459   1.874   2.634   1.154  0.4688 -0.0684 -0.1836
  597SOL    HW3 2460   1.870   2.740   1.046  1.6913 -0.2257 -0.3918
  597SOL    MW4 2461   1.878   2.718   1.130  0.2371 -0.0613 -0.1954
  598SOL     OW 2462   2.102   2.859   1.254  0.0092  0.1409 -0.0011
  598SOL    HW2 2463   2.095   2.945   1.213 -0.7451  0.4245  0.7091
  598SOL    HW3 2464   2.016   2.818   1.237  0.0294 -0.1016  0.4845
  598SOL    MW4 2465   2.090   2.865   1.246 -0.0880  0.1464  0.1568
  599SOL     OW 2466   2.300   3.265   1.262  0.0890  0.2815  0.0467
  599SOL    HW2 2467   2.269   3.261   1.353  0.5215  0.9574  0.2304
  599SOL    HW3 2468   2.290   3.357   1.238 -0.5520 -0.0022 -0.7849
  599SOL    MW4 2469   2.294   3.276   1.271  0.0618  0.3331 -0.0389
  600SOL     OW 2470   1.833   3.220   1.273 -0.1227  0.0895  0.2121
  600SOL    HW2 2471   1.800   3.226   1.362  1.9503  2.8430  0.8598
  600SOL    HW3 2472   1.838   3.311   1.243  2.0874 -0.5843 -1.6075
  600SOL    MW4 2473   1.829   3.233   1.281  0.4425  0.3641  0.0575
  601SOL     OW 2474   1.780   3.494   1.177  0.3594 -0.1846 -0.0331
  601SOL    HW2 2475   1.853   3.548   1.206  0.7568 -0.2339 -0.9113
  601SOL    HW3 2476   1.702   3.545   1.199  0.7199  0.6214 -0.5868
  601SOL    MW4 2477   1.780   3.508   1.184  0.4594 -0.0846 -0.2221
  602SOL     OW 2478   2.252   3.497   1.119  0.0699  0.1855  0.4085
  602SOL    HW2 2479   2.329   3.545   1.150  0.2890 -0.6860  1.2178
  602SOL    HW3 2480   2.261   3.497   1.024  0.0946  1.7076  0.3923
  602SOL    MW4 2481   2.264   3.504   1.111  0.1020  0.2713  0.5132
  603SOL     OW 2482   2.018   3.888   1.107 -0.2503  0.1056 -0.1179
  603SOL    HW2 2483   1.957   3.934   1.164  1.6565  0.8137  1.4169
  603SOL    HW3 2484   2.030   3.803   1.149 -2.1718 -1.0667 -1.8425
  603SOL    MW4 2485   2.012   3.883   1.120 -0.2520  0.0446 -0.1429
  604SOL     OW 2486   1.817   4.021   1.251  0.0423 -0.1510  0.1707
  604SOL    HW2 2487   1.802   4.033   1.345 -1.2212  2.0853 -0.2847
  604SOL    HW3 2488   1.736   3.983   1.218  0.0887  0.0554 -0.1840
  604SOL    MW4 2489   1.804   4.017   1.259 -0.1183  0.1712  0.0639
  605SOL     OW 2490   1.785   4.281   1.123 -0.0310 -0.0472  0.1475
  605SOL    HW2 2491   1.786   4.194   1.163 -1.0786 -0.7593 -1.3272
  605SOL    HW3 2492   1.712   4.326   1.167  1.7285  0.7861  2.2931
  605SOL    MW4 2493   1.775   4.275   1.134  0.0629 -0.0310  0.2362
  606SOL     OW 2494   2.022   4.401   1.192 -0.2746 -0.1318  0.4742
  606SOL    HW2 2495   2.016   4.387   1.287  0.3152 -1.9985  0.2450
  606SOL    HW3 2496   1.945   4.358   1.156  0.7881 -1.5706 -0.1095
  606SOL    MW4 2497   2.011   4.394   1.200 -0.0565 -0.5674  0.3670
  607SOL     OW 2498   2.451   4.656   1.118  0.2727 -0.5723  0.0511
  607SOL    HW2 2499   2.520   4.698   1.170  0.4654 -0.4784 -0.2763
  607SOL    HW3 2500   2.370   4.692   1.153  0.4035 -0.4706  0.2534
  607SOL    MW4 2501   2.450   4.667   1.129  0.3154 -0.5465  0.0346
  608SOL     OW 2502   2.198   0.371   1.109  0.4645 -0.2946  0.1150
  608SOL    HW2 2503   2.280   0.402   1.148  0.4979  0.7007 -0.7175
  608SOL    HW3 2504   2.191   0.280   1.138  1.5101 -0.1778  0.7750
  608SOL    MW4 2505   2.208   0.363   1.118  0.6073 -0.1479  0.0921
  609SOL     OW 2506   1.939   0.683   0.872 -0.3003  0.2801 -0.3116
  609SOL    HW2 2507   1.940   0.589   0.854  0.3717  0.1152  0.5257
  609SOL    HW3 2508   1.945   0.689   0.968  0.1274  1.1797 -0.3836
  609SOL    MW4 2509   1.940   0.672   0.883 -0.1552  0.3770 -0.2107
  610SOL     OW 2510   2.715   0.378   1.595  0.2017 -0.0224  0.1301
  610SOL    HW2 2511   2.717   0.362   1.689 -0.1536 -1.3969 -0.0886
  610SOL    HW3 2512   2.706   0.292   1.556 -1.7839  0.6901 -1.0770
  610SOL    MW4 2513   2.714   0.365   1.602 -0.1068 -0.1097 -0.0581
  611SOL     OW 2514   2.679   0.356   1.140 -0.7777  0.1625 -0.0633
  611SOL    HW2 2515   2.685   0.353   1.045 -2.0092  0.2886 -0.1542
  611SOL    HW3 2516   2.753   0.410   1.167  0.7813 -1.5699 -0.7965
  611SOL    MW4 2517   2.689   0.363   1.131 -0.7343 -0.0494 -0.1719
  612SOL     OW 2518   2.181   0.883   1.249  0.2312  0.5724  0.6410
  612SOL    HW2 2519   2.263   0.839   1.227 -0.8644 -1.0754 -0.2210
  612SOL    HW3 2520   2.115   0.838   1.197 -1.1398  2.3176  0.8288
  612SOL    MW4 2521   2.183   0.872   1.239 -0.0944  0.5853  0.5521
  613SOL     OW 2522   2.467   1.291   1.218  0.1662  0.4871  0.6038
  613SOL    HW2 2523   2.452   1.363   1.157  0.6203  0.9636  1.0483
  613SOL    HW3 2524   2.393   1.232   1.204 -0.4246  1.2354  0.5221
  613SOL    MW4 2525   2.455   1.293   1.208  0.1481  0.6486  0.6516
  614SOL     OW 2526   2.681   1.126   1.159  0.2445 -0.2190  0.0566
  614SOL    HW2 2527   2.673   1.109   1.066 -0.6935 -0.1863  0.1296
  614SOL    HW3 2528   2.605   1.179   1.181  1.7398  1.8864  0.3674
  614SOL    MW4 2529   2.670   1.131   1.150  0.3181  0.0631  0.1072
  615SOL     OW 2530   2.478   1.528   1.066  0.3589  0.3475  0.4601
  615SOL    HW2 2531   2.408   1.574   1.112  0.0721 -0.0508  0.4286
  615SOL    HW3 2532   2.443   1.511   0.979  1.0387  1.4264 -0.0405
  615SOL    MW4 2533   2.464   1.532   1.060  0.4108  0.4373  0.3899
  616SOL     OW 2534   2.277   1.669   1.222 -0.5206 -1.1604  0.1883
  616SOL    HW2 2535   2.272   1.763   1.204  0.0897 -1.0449  0.5879
  616SOL    HW3 2536   2.190   1.635   1.202 -0.2086 -0.8351 -1.7754
  616SOL    MW4 2537   2.265   1.677   1.217 -0.3989 -1.1022 -0.0180
  617SOL     OW 2538   2.201   1.905   1.095  0.1231  0.1092  0.6862
  617SOL    HW2 2539   2.141   1.972   1.129 -1.1196 -1.2630  1.2417
  617SOL    HW3 2540   2.168   1.888   1.006 -0.5319 -0.8794  1.1092
  617SOL    MW4 2541   2.188   1.912   1.088 -0.1273 -0.2023  0.8155
  618SOL     OW 2542   2.703   1.896   1.153 -0.0298  0.2301 -0.2761
  618SOL    HW2 2543   2.742   1.810   1.165  0.0334  0.0251 -1.7795
  618SOL    HW3 2544   2.774   1.958   1.169  0.5247 -0.0847 -1.4685
  618SOL    MW4 2545   2.717   1.893   1.156  0.0515  0.1615 -0.6319
  619SOL     OW 2546   2.472   2.257   1.132  0.1984  0.2232  0.8407
  619SOL    HW2 2547   2.464   2.163   1.150  0.6306  0.3487  1.7272
  619SOL    HW3 2548   2.486   2.263   1.038 -1.0307 -0.5333  0.5994
  619SOL    MW4 2549   2.472   2.245   1.122  0.0932  0.1402  0.9258
  620SOL     OW 2550   2.251   2.454   1.202  0.5097 -0.1838  0.1135
  620SOL    HW2 2551   2.266   2.452   1.296  0.2250 -0.7967  0.1432
  620SOL    HW3 2552   2.315   2.393   1.166 -0.2301 -0.9028  0.0178
  620SOL    MW4 2553   2.261   2.446   1.209  0.3743 -0.3598  0.1048
  621SOL     OW 2554   2.270   2.697   1.087  0.2293  0.0923  0.0746
  621SOL    HW2 2555   2.262   2.604   1.104 -0.9516 -0.0551 -1.2103
  621SOL    HW3 2556   2.203   2.738   1.142  0.7506  0.1958  0.6423
  621SOL    MW4 2557   2.260   2.690   1.096  0.1423  0.0865 -0.0200
  622SOL     OW 2558   2.452   2.873   1.214  0.4157  0.1084 -0.6532
  622SOL    HW2 2559   2.480   2.864   1.305 -0.1002 -0.5860 -0.5624
  622SOL    HW3 2560   2.390   2.802   1.201 -0.1611  0.7238 -1.3023
  622SOL    MW4 2561   2.448   2.863   1.224  0.2716  0.0982 -0.7269
  623SOL     OW 2562   2.479   3.120   1.097 -0.5708 -0.0926  0.0696
  623SOL    HW2 2563   2.431   3.184   1.150  0.2320  1.1573 -0.6896
  623SOL    HW3 2564   2.467   3.037   1.143 -1.5942  0.6072  1.0890
  623SOL    MW4 2565   2.471   3.118   1.110 -0.5999  0.1645  0.1041
  624SOL     OW 2566   2.267   3.522   0.835  0.2424  0.1302  0.0099
  624SOL    HW2 2567   2.338   3.582   0.813  0.9116 -0.6031  0.1668
  624SOL    HW3 2568   2.303   3.435   0.820 -0.6003 -0.2475  0.1553
  624SOL    MW4 2569   2.281   3.518   0.830  0.2196 -0.0165  0.0499
  625SOL     OW 2570   0.288   4.245   0.370 -0.7150 -0.3200  0.4704
  625SOL    HW2 2571   0.202   4.245   0.412 -0.7843 -2.5278  0.3606
  625SOL    HW3 2572   0.349   4.267   0.440 -1.2599  0.3917  0.7365
  625SOL    MW4 2573   0.285   4.248   0.384 -0.7960 -0.5178  0.4911
  626SOL     OW 2574   2.453   3.629   1.240 -0.1710  0.0505  0.6076
  626SOL    HW2 2575   2.459   3.635   1.335 -0.5317  0.1650  0.6242
  626SOL    HW3 2576   2.451   3.719   1.210  0.5437  0.0143  0.4488
  626SOL    MW4 2577   2.453   3.641   1.249 -0.1242  0.0606  0.5887
  627SOL     OW 2578   2.473   3.893   1.147  0.4447  0.6107 -0.0992
  627SOL    HW2 2579   2.386   3.930   1.162 -0.4455 -1.6529  0.5506
  627SOL    HW3 2580   2.478   3.881   1.052  0.2262  1.1572 -0.1798
  627SOL    MW4 2581   2.462   3.897   1.136  0.2983  0.3841 -0.0240
  628SOL     OW 2582   2.232   3.985   1.254 -0.3437 -0.3695 -0.3217
  628SOL    HW2 2583   2.238   4.074   1.220 -1.9570 -0.2956 -0.4175
  628SOL    HW3 2584   2.152   3.949   1.216 -0.4984 -1.3624  0.8926
  628SOL    MW4 2585   2.222   3.992   1.245 -0.5770 -0.4911 -0.1742
  629SOL     OW 2586   2.262   4.250   1.183 -0.8040 -0.3551  0.4880
  629SOL    HW2 2587   2.189   4.304   1.213 -0.6599  0.5627 -0.7525
  629SOL    HW3 2588   2.255   4.251   1.087  0.6705 -0.4843  0.3587
  629SOL    MW4 2589   2.252   4.257   1.174 -0.5906 -0.2508  0.3073
  630SOL     OW 2590   2.493   4.398   1.238  0.0221  0.3653 -0.1055
  630SOL    HW2 2591   2.423   4.338   1.215  0.7102 -0.3090 -0.4370
  630SOL    HW3 2592   2.471   4.479   1.193 -0.4164  0.0865 -0.3947
  630SOL    MW4 2593   2.481   4.401   1.229  0.0553  0.2394 -0.1874
  631SOL     OW 2594   2.680   0.096   1.218 -0.2167 -0.5231  0.1222
  631SOL    HW2 2595   2.759   0.051   1.189 -0.2688 -0.7396  0.3152
  631SOL    HW3 2596   2.691   0.186   1.188 -0.8956 -1.0516 -1.8298
  631SOL    MW4 2597   2.692   0.102   1.210 -0.3130 -0.6214 -0.1098
  632SOL     OW 2598   2.718   0.113   1.504 -0.5648 -0.0247  0.0633
  632SOL    HW2 2599   2.645   0.058   1.533  0.1389 -0.9748  0.0473
  632SOL    HW3 2600   2.723   0.097   1.409  0.3854 -0.8413  0.2453
  632SOL    MW4 2601   2.709   0.103   1.495 -0.3464 -0.2578  0.0851
  633SOL     OW 2602   2.429   0.492   1.246 -0.1986 -0.7010 -0.0754
  633SOL    HW2 2603   2.493   0.432   1.207  0.4933  0.0857 -0.1725
  633SOL    HW3 2604   2.433   0.570   1.190 -1.1566 -0.5937 -0.0068
  633SOL    MW4 2605   2.438   0.494   1.233 -0.2334 -0.5830 -0.0793
  634SOL     OW 2606   2.855   0.742   1.069 -0.3128 -0.1396 -0.2963
  634SOL    HW2 2607   2.820   0.707   0.987 -0.4853  0.4127 -0.4577
  634SOL    HW3 2608   2.941   0.778   1.045 -0.9949  1.3699 -0.5447
  634SOL    MW4 2609   2.862   0.742   1.055 -0.4256  0.1324 -0.3504
  635SOL     OW 2610   2.515   0.846   0.922  0.2261 -0.1058 -0.4741
  635SOL    HW2 2611   2.565   0.774   0.884  0.0183 -0.3690 -0.2554
  635SOL    HW3 2612   2.572   0.922   0.913 -0.2133  0.0250 -2.1515
  635SOL    MW4 2613   2.529   0.846   0.916  0.1409 -0.1233 -0.6666
  636SOL     OW 2614   2.880   0.520   1.246  0.1731  0.3315  0.1881
  636SOL    HW2 2615   2.897   0.607   1.209  1.6776  0.0747  0.2113
  636SOL    HW3 2616   2.909   0.526   1.337  2.6823 -0.8532 -0.4614
  636SOL    MW4 2617   2.886   0.532   1.253  0.7029  0.1412  0.1055
  637SOL     OW 2618   2.697   0.867   1.279 -0.3620  0.0640  0.0825
  637SOL    HW2 2619   2.736   0.814   1.210  1.4574  0.6643  0.6056
  637SOL    HW3 2620   2.704   0.957   1.247  0.5531  0.3548  1.0466
  637SOL    MW4 2621   2.703   0.872   1.266 -0.0010  0.1816  0.2788
  638SOL     OW 2622   3.023   1.505   1.007  0.4215  0.8423  0.2065
  638SOL    HW2 2623   2.984   1.442   1.068  1.1646 -1.0476 -1.2335
  638SOL    HW3 2624   3.048   1.579   1.062  0.9290 -0.7540  2.1771
  638SOL    MW4 2625   3.021   1.507   1.022  0.5865  0.3823  0.2764
  639SOL     OW 2626   3.151   2.458   0.677 -0.1412 -0.5437 -0.3221
  639SOL    HW2 2627   3.071   2.420   0.713  0.2690 -1.0242  0.0976
  639SOL    HW3 2628   3.221   2.422   0.731  0.3263  0.1905 -0.4271
  639SOL    MW4 2629   3.150   2.448   0.689 -0.0253 -0.5100 -0.2806
  640SOL     OW 2630   2.726   1.603   1.161 -0.6219  0.3408  0.2209
  640SOL    HW2 2631   2.783   1.526   1.163 -0.2964  0.6110  1.4722
  640SOL    HW3 2632   2.649   1.575   1.111 -0.3303 -0.6635  0.3294
  640SOL    MW4 2633   2.724   1.589   1.155 -0.5405  0.2440  0.4003
  641SOL     OW 2634   2.438   1.988   1.205  0.2051  0.2429  0.0523
  641SOL    HW2 2635   2.370   1.948   1.150 -0.1451  0.4266  0.3493
  641SOL    HW3 2636   2.515   1.932   1.193  0.4356  0.8709 -1.4225
  641SOL    MW4 2637   2.439   1.975   1.196  0.1893  0.3500 -0.1030
  642SOL     OW 2638   2.918   2.063   1.181 -0.1587  0.0096 -0.0500
  642SOL    HW2 2639   2.920   2.072   1.276  0.8310  0.0358 -0.0651
  642SOL    HW3 2640   2.913   2.153   1.148  0.5216  0.0573 -0.0350
  642SOL    MW4 2641   2.918   2.076   1.189  0.0618  0.0196 -0.0499
  643SOL     OW 2642   2.911   2.337   1.068 -0.0126 -0.1193 -0.0839
  643SOL    HW2 2643   2.979   2.387   1.114 -0.3056 -0.0375  0.2605
  643SOL    HW3 2644   2.830   2.361   1.112 -0.2947 -0.0441 -0.6516
  643SOL    MW4 2645   2.910   2.346   1.080 -0.0885 -0.0985 -0.1136
  644SOL     OW 2646   2.672   2.414   1.197  0.3736  0.5345 -0.2736
  644SOL    HW2 2647   2.689   2.421   1.292 -0.6089  0.6776 -0.1087
  644SOL    HW3 2648   2.598   2.354   1.190  0.1354  0.9065 -0.9290
  644SOL    MW4 2649   2.665   2.407   1.209  0.2124  0.6022 -0.3383
  645SOL     OW 2650   2.685   2.697   1.123  0.1522 -0.1418  0.4159
  645SOL    HW2 2651   2.679   2.607   1.156 -0.8438 -0.9218 -1.7974
  645SOL    HW3 2652   2.611   2.742   1.163  0.7107 -0.2628  1.6108
  645SOL    MW4 2653   2.675   2.691   1.132  0.0944 -0.2606  0.2816
  646SOL     OW 2654   2.920   2.820   1.219  0.2684 -0.1889 -0.0562
  646SOL    HW2 2655   2.924   2.810   1.315 -0.2968 -1.3498 -0.1421
  646SOL    HW3 2656   2.849   2.761   1.192  2.1488 -1.8750 -1.4463
  646SOL    MW4 2657   2.911   2.811   1.228  0.4418 -0.5641 -0.2511
  647SOL     OW 2658   2.909   3.074   1.139 -0.3073 -0.7187 -0.2172
  647SOL    HW2 2659   2.912   2.984   1.173  0.3128 -0.7930 -0.4779
  647SOL    HW3 2660   2.938   3.066   1.048  0.3699 -0.1536 -0.0466
  647SOL    MW4 2661   2.913   3.061   1.131 -0.1364 -0.6540 -0.2292
  648SOL     OW 2662   2.690   3.202   1.263  0.0817  0.0236 -0.4577
  648SOL    HW2 2663   2.766   3.165   1.217  0.2286  2.4758 -2.2690
  648SOL    HW3 2664   2.615   3.171   1.212  0.0553  0.2737 -0.5687
  648SOL    MW4 2665   2.690   3.193   1.250  0.0975  0.3803 -0.7113
  649SOL     OW 2666   2.659   3.466   1.138  0.0265  0.0342  0.3597
  649SOL    HW2 2667   2.664   3.377   1.171 -1.7706 -0.6584 -1.1318
  649SOL    HW3 2668   2.584   3.505   1.183  0.1518  0.4326  0.2245
  649SOL    MW4 2669   2.650   3.460   1.148 -0.1943 -0.0050  0.1452
  650SOL     OW 2670   2.912   3.592   1.193  0.0419 -0.2976 -0.1358
  650SOL    HW2 2671   2.963   3.523   1.151 -0.2715 -0.2649 -0.5732
  650SOL    HW3 2672   2.822   3.558   1.195 -0.0702 -0.0090 -0.1315
  650SOL    MW4 2673   2.907   3.579   1.188 -0.0143 -0.2551 -0.1930
  651SOL     OW 2674   2.891   3.873   1.120  0.1491  0.0027 -0.3577
  651SOL    HW2 2675   2.972   3.921   1.137 -0.2343  0.0637  1.3754
  651SOL    HW3 2676   2.911   3.783   1.148 -0.2969 -0.0378 -0.1669
  651SOL    MW4 2677   2.905   3.867   1.126  0.0396  0.0055 -0.1038
  652SOL     OW 2678   2.696   4.007   1.274 -0.0280  0.0913  0.2350
  652SOL    HW2 2679   2.761   3.954   1.228  0.6213  1.3317 -0.3116
  652SOL    HW3 2680   2.612   3.969   1.250  0.4814 -1.5836  1.0073
  652SOL    MW4 2681   2.693   3.995   1.265  0.1249  0.0336  0.2646
  653SOL     OW 2682   2.702   4.263   1.137  0.1830  0.6682  0.2168
  653SOL    HW2 2683   2.703   4.179   1.183 -1.5114  0.3764 -0.2501
  653SOL    HW3 2684   2.641   4.317   1.187 -0.2818  0.9528 -0.6570
  653SOL    MW4 2685   2.694   4.259   1.150 -0.1018  0.6666  0.0398
  654SOL     OW 2686   2.949   4.383   1.235  0.1706  0.0752 -0.4080
  654SOL    HW2 2687   3.019   4.323   1.209  1.0776  1.1654 -0.5340
  654SOL    HW3 2688   2.873   4.355   1.184  0.6666 -0.7578 -0.6988
  654SOL    MW4 2689   2.948   4.371   1.225  0.3557  0.1092 -0.4630
  655SOL     OW 2690   3.575   0.130   1.272  0.1262 -0.1362 -0.0407
  655SOL    HW2 2691   3.645   0.101   1.214 -0.0549  0.0577 -0.3566
  655SOL    HW3 2692   3.564   0.223   1.253 -1.8130 -0.6650 -1.6985
  655SOL    MW4 2693   3.583   0.138   1.262 -0.1540 -0.1804 -0.3010
  656SOL     OW 2694   3.155   0.136   1.264 -0.3056 -0.0252 -0.0754
  656SOL    HW2 2695   3.154   0.127   1.359 -0.6068  1.8207  0.1104
  656SOL    HW3 2696   3.074   0.094   1.235 -0.2979 -0.4351  0.4902
  656SOL    MW4 2697   3.144   0.129   1.273 -0.3445  0.1643  0.0238
  657SOL     OW 2698   2.918   4.647   1.176 -0.6443 -0.3682 -0.2788
  657SOL    HW2 2699   2.929   4.553   1.191  0.9258 -0.3973 -1.5109
  657SOL    HW3 2700   2.930   4.658   1.082 -0.0750  1.1548 -0.0395
  657SOL    MW4 2701   2.921   4.636   1.166 -0.3619 -0.1717 -0.4098
  658SOL     OW 2702   3.360   0.555   1.264  0.0270  0.3090  0.2491
  658SOL    HW2 2703   3.349   0.649   1.247 -1.4383  0.7056  3.1048
  658SOL    HW3 2704   3.284   0.514   1.224 -0.1194  0.5105  0.3219
  658SOL    MW4 2705   3.349   0.562   1.256 -0.1857  0.3878  0.6355
  659SOL     OW 2706   3.119   0.183   0.776  0.2354 -0.1762  0.0797
  659SOL    HW2 2707   3.098   0.151   0.688 -0.4653 -0.5417  0.3791
  659SOL    HW3 2708   3.199   0.136   0.800  1.4232  1.2220 -1.0611
  659SOL    MW4 2709   3.127   0.172   0.768  0.2997 -0.0400 -0.0314
  660SOL     OW 2710   3.087   1.153   1.139  0.2532  0.4225 -0.1443
  660SOL    HW2 2711   3.009   1.202   1.164 -0.2009 -0.0997 -0.5105
  660SOL    HW3 2712   3.160   1.208   1.165 -0.2405  0.8378  0.3600
  660SOL    MW4 2713   3.086   1.167   1.145  0.1283  0.4085 -0.1260
  661SOL     OW 2714   2.863   2.020   0.484  0.4474  0.0113 -0.1402
  661SOL    HW2 2715   2.904   1.940   0.452 -0.8614 -1.3100  1.3634
  661SOL    HW3 2716   2.871   2.081   0.411  1.7241 -1.3871 -1.2262
  661SOL    MW4 2717   2.869   2.017   0.470  0.4432 -0.3476 -0.0852
  662SOL     OW 2718   3.311   1.334   1.180 -0.2563 -0.0575  0.9197
  662SOL    HW2 2719   3.330   1.334   1.273 -0.8880  0.3287  1.0528
  662SOL    HW3 2720   3.339   1.421   1.150  1.6541 -0.8158  0.3802
  662SOL    MW4 2721   3.317   1.346   1.188 -0.0875 -0.1065  0.8661
  663SOL     OW 2722   3.347   1.582   1.097 -0.0140 -0.1153  0.1549
  663SOL    HW2 2723   3.431   1.616   1.128  0.2050  0.0894 -0.6608
  663SOL    HW3 2724   3.282   1.633   1.145  0.3202  0.6871 -0.2274
  663SOL    MW4 2725   3.349   1.594   1.108  0.0591  0.0175 -0.0031
  664SOL     OW 2726   3.129   1.699   1.204 -0.0222 -0.0634  0.2086
  664SOL    HW2 2727   3.127   1.712   1.299  1.1784  2.4144 -0.0843
  664SOL    HW3 2728   3.125   1.787   1.167  0.9985 -0.9082 -2.0240
  664SOL    MW4 2729   3.128   1.712   1.212  0.2708  0.1519 -0.1246
  665SOL     OW 2730   3.152   1.951   1.112 -0.4746 -0.3081  0.0017
  665SOL    HW2 2731   3.222   1.989   1.164 -1.0903 -0.3953  0.9033
  665SOL    HW3 2732   3.073   1.997   1.141 -0.6793  0.4461 -1.6518
  665SOL    MW4 2733   3.151   1.962   1.122 -0.5827 -0.2201 -0.0975
  666SOL     OW 2734   3.334   2.093   1.272 -0.1090 -0.1517  0.1066
  666SOL    HW2 2735   3.425   2.064   1.276 -0.5800 -1.8996 -1.3663
  666SOL    HW3 2736   3.337   2.176   1.223  0.8593  0.6377  1.4865
  666SOL    MW4 2737   3.346   2.100   1.266 -0.0436 -0.2780  0.0943
  667SOL     OW 2738   3.332   2.323   1.107 -0.1507 -0.2091  0.5096
  667SOL    HW2 2739   3.401   2.376   1.146  0.4354  0.4779 -1.4214
  667SOL    HW3 2740   3.251   2.360   1.143  0.3977 -0.0659  1.6296
  667SOL    MW4 2741   3.330   2.335   1.117 -0.0012 -0.0997  0.4025
  668SOL     OW 2742   3.110   2.460   1.212 -0.3810  0.2978  0.5972
  668SOL    HW2 2743   3.125   2.457   1.307  1.3655 -1.7625  0.3060
  668SOL    HW3 2744   3.124   2.551   1.188  1.8294  0.3524  1.9630
  668SOL    MW4 2745   3.114   2.471   1.221  0.1414  0.0334  0.7390
  669SOL     OW 2746   3.150   2.733   1.084  0.2525  0.4342 -0.0058
  669SOL    HW2 2747   3.066   2.775   1.102  0.1926  0.3134 -0.0041
  669SOL    HW3 2748   3.150   2.720   0.989 -0.6002 -1.4226  0.2415
  669SOL    MW4 2749   3.139   2.737   1.074  0.1318  0.1733  0.0271
  670SOL     OW 2750   3.368   2.857   1.187  0.3804 -0.0553 -0.0907
  670SOL    HW2 2751   3.377   2.942   1.145  0.9651  0.2338  0.6083
  670SOL    HW3 2752   3.289   2.819   1.149 -0.5159  1.2826  0.4261
  670SOL    MW4 2753   3.359   2.863   1.177  0.3390  0.1593  0.0697
  671SOL     OW 2754   3.379   3.109   1.082 -0.3498  0.3896 -0.0047
  671SOL    HW2 2755   3.459   3.151   1.117  0.0325 -1.9210  2.0475
  671SOL    HW3 2756   3.310   3.137   1.142 -0.8053  1.0843 -0.8429
  671SOL    MW4 2757   3.381   3.118   1.095 -0.3598  0.1762  0.1557
  672SOL     OW 2758   3.160   3.189   1.239  0.1017  0.2109 -0.2443
  672SOL    HW2 2759   3.133   3.270   1.195  0.5398 -0.0750 -1.0573
  672SOL    HW3 2760   3.089   3.128   1.220 -0.3041  0.4560  0.5036
  672SOL    MW4 2761   3.147   3.192   1.230  0.1061  0.2058 -0.2530
  673SOL     OW 2762   3.126   3.418   1.104  0.6553  0.2088 -0.2243
  673SOL    HW2 2763   3.190   3.480   1.139  0.3050  1.2284 -1.3626
  673SOL    HW3 2764   3.139   3.421   1.009  0.9366 -1.7996 -0.2578
  673SOL    MW4 2765   3.136   3.427   1.096  0.6461  0.0784 -0.3790
  674SOL     OW 2766   3.339   3.587   1.199 -0.1774 -0.6603  0.1607
  674SOL    HW2 2767   3.351   3.598   1.294 -1.4374 -1.2613  0.4125
  674SOL    HW3 2768   3.425   3.564   1.166  0.4384  0.3225  1.0552
  674SOL    MW4 2769   3.352   3.585   1.207 -0.2623 -0.6096  0.3120
  675SOL     OW 2770   3.330   3.834   1.097 -0.3466  0.0354  0.1795
  675SOL    HW2 2771   3.253   3.863   1.146 -1.5204 -0.7217 -1.1715
  675SOL    HW3 2772   3.351   3.748   1.134 -0.2437  0.1803  0.4549
  675SOL    MW4 2773   3.322   3.826   1.108 -0.4880 -0.0453  0.0376
  676SOL     OW 2774   3.128   4.002   1.198 -0.2294 -0.2658  0.3290
  676SOL    HW2 2775   3.143   4.001   1.293 -5.1291 -0.1385  1.2180
  676SOL    HW3 2776   3.140   4.093   1.173 -0.9116  0.0573  1.1777
  676SOL    MW4 2777   3.132   4.014   1.207 -0.9661 -0.2060  0.5583
  677SOL     OW 2778   3.163   4.258   1.089  0.0166  0.2562  0.5395
  677SOL    HW2 2779   3.238   4.306   1.123  1.0732 -1.2943  0.4283
  677SOL    HW3 2780   3.176   4.255   0.994 -0.4810  0.4450  0.4585
  677SOL    MW4 2781   3.174   4.264   1.081  0.0904  0.0763  0.5143
  678SOL     OW 2782   3.387   4.398   1.201  0.6566 -0.0077 -0.3729
  678SOL    HW2 2783   3.471   4.369   1.165  1.6509  0.8835  1.1663
  678SOL    HW3 2784   3.389   4.494   1.189 -0.5869 -0.0788 -1.2321
  678SOL    MW4 2785   3.399   4.407   1.194  0.6237  0.1006 -0.2832
  679SOL     OW 2786   3.747   0.001   1.102  0.6232 -0.0411 -0.3197
  679SOL    HW2 2787   3.783  -0.082   1.133  1.5732  0.4364 -0.1132
  679SOL    HW3 2788   3.761   0.000   1.008 -0.3497 -0.5786 -0.4654
  679SOL    MW4 2789   3.754  -0.010   1.094  0.6201 -0.0486 -0.3119
  680SOL     OW 2790   3.585   0.400   1.195  0.3678 -0.4373  0.2349
  680SOL    HW2 2791   3.515   0.463   1.215 -1.4829 -1.9924 -1.1025
  680SOL    HW3 2792   3.663   0.437   1.235 -0.9268  2.1097  0.5123
  680SOL    MW4 2793   3.586   0.413   1.203 -0.0472 -0.3064  0.0950
  681SOL     OW 2794   0.951   0.612   0.182  0.2257 -0.9071  0.1212
  681SOL    HW2 2795   1.033   0.564   0.193  1.0552  0.4003 -0.2416
  681SOL    HW3 2796   0.902   0.562   0.117  0.7594 -1.6709  0.3048
  681SOL    MW4 2797   0.955   0.599   0.175  0.4055 -0.8354  0.0976
  682SOL     OW 2798   3.816   0.524   1.285  0.4456  0.4703 -0.3687
  682SOL    HW2 2799   3.882   0.467   1.248  2.2408  1.8768  0.5939
  682SOL    HW3 2800   3.814   0.600   1.226  0.0323  0.6639 -0.1121
  682SOL    MW4 2801   3.824   0.527   1.272  0.6280  0.6815 -0.2079
  683SOL     OW 2802   3.778   0.762   1.131  0.0931 -0.0971 -0.4084
  683SOL    HW2 2803   3.851   0.814   1.166 -1.1113  0.3233  1.5214
  683SOL    HW3 2804   3.700   0.812   1.153 -0.8786 -1.2083 -1.2856
  683SOL    MW4 2805   3.777   0.775   1.139 -0.1941 -0.1883 -0.2694
  684SOL     OW 2806   3.568   0.917   1.198 -0.3449  0.3051  0.2853
  684SOL    HW2 2807   3.564   1.008   1.170 -1.0548  0.8997  2.2397
  684SOL    HW3 2808   3.478   0.886   1.194 -0.1327 -0.2656 -0.1993
  684SOL    MW4 2809   3.556   0.925   1.194 -0.4106  0.3083  0.4793
  685SOL     OW 2810   3.558   1.181   1.117  0.2209 -0.2660  0.0359
  685SOL    HW2 2811   3.618   1.227   1.175 -0.0001  1.4778 -1.0836
  685SOL    HW3 2812   3.473   1.224   1.132  0.0811 -0.0777 -1.2481
  685SOL    MW4 2813   3.555   1.193   1.127  0.1731 -0.0111 -0.2811
  686SOL     OW 2814   3.762   1.323   1.234  0.1686  0.3082  0.0938
  686SOL    HW2 2815   3.787   1.357   1.320  1.3342 -0.9168  0.2557
  686SOL    HW3 2816   3.750   1.401   1.180  1.1781  1.0329  0.9054
  686SOL    MW4 2817   3.764   1.338   1.238  0.4554  0.2421  0.2222
  687SOL     OW 2818   3.814   1.588   1.115  0.5892 -0.5493 -0.5154
  687SOL    HW2 2819   3.894   1.614   1.160 -0.1196  0.2047  0.3099
  687SOL    HW3 2820   3.836   1.596   1.022  0.7889  1.8224 -0.2952
  687SOL    MW4 2821   3.827   1.592   1.108  0.5221 -0.1367 -0.3775
  688SOL     OW 2822   3.577   1.704   1.233  0.4976 -0.3308 -0.0659
  688SOL    HW2 2823   3.567   1.796   1.207  0.9452 -0.0965  0.5684
  688SOL    HW3 2824   3.656   1.674   1.188  1.1877  0.0312  0.8814
  688SOL    MW4 2825   3.586   1.712   1.224  0.6478 -0.2521  0.1428
  689SOL     OW 2826   3.577   1.960   1.147 -0.1941 -0.3973 -0.2140
  689SOL    HW2 2827   3.654   2.012   1.167 -0.6052  0.3264 -0.4857
  689SOL    HW3 2828   3.579   1.949   1.052 -0.6594  0.0124 -0.2773
  689SOL    MW4 2829   3.587   1.965   1.137 -0.3099 -0.2477 -0.2581
  690SOL     OW 2830   3.784   2.102   1.242 -0.5923  0.4253 -0.0555
  690SOL    HW2 2831   3.789   2.097   1.338 -1.3848 -0.9243 -0.0639
  690SOL    HW3 2832   3.850   2.039   1.212  0.3592  1.5827 -0.4132
  690SOL    MW4 2833   3.793   2.093   1.251 -0.5715  0.3998 -0.1037
  691SOL     OW 2834   3.781   2.350   1.095  1.1064  0.3143 -0.5895
  691SOL    HW2 2835   3.849   2.392   1.148  0.1491 -0.5629  1.4035
  691SOL    HW3 2836   3.775   2.261   1.130 -0.2940  0.0386 -1.4743
  691SOL    MW4 2837   3.789   2.344   1.107  0.7951  0.1619 -0.4433
  692SOL     OW 2838   3.552   2.453   1.210 -0.2735  0.5895  0.4367
  692SOL    HW2 2839   3.567   2.467   1.304 -0.6838 -0.3648  0.6421
  692SOL    HW3 2840   3.632   2.409   1.179 -1.1149 -1.2446  0.8185
  692SOL    MW4 2841   3.565   2.449   1.218 -0.4387  0.2217  0.5143
  693SOL     OW 2842   3.581   2.715   1.078 -0.2062  0.6652  0.0220
  693SOL    HW2 2843   3.592   2.631   1.124 -0.4168  0.5464 -0.1462
  693SOL    HW3 2844   3.505   2.755   1.121 -0.3214  0.6134 -0.1327
  693SOL    MW4 2845   3.572   2.709   1.090 -0.2489  0.6428 -0.0206
  694SOL     OW 2846   3.788   2.895   1.179  0.5460 -0.5311  0.1226
  694SOL    HW2 2847   3.769   2.881   1.272 -0.1832 -1.3581 -0.1441
  694SOL    HW3 2848   3.726   2.839   1.133 -0.0628  0.9709 -0.9095
  694SOL    MW4 2849   3.777   2.886   1.185  0.3698 -0.4423 -0.0489
  695SOL     OW 2850   4.068   2.500   0.740  0.0213 -0.2029 -0.0932
  695SOL    HW2 2851   3.987   2.450   0.733 -0.3581  0.4631 -0.4882
  695SOL    HW3 2852   4.118   2.475   0.662  0.1329 -0.4993  0.0728
  695SOL    MW4 2853   4.064   2.490   0.729 -0.0143 -0.1543 -0.1234
  696SOL     OW 2854   3.595   3.234   1.186  0.4589 -0.0257 -0.2946
  696SOL    HW2 2855   3.585   3.318   1.141 -0.7781 -0.5820 -1.0679
  696SOL    HW3 2856   3.681   3.202   1.158 -0.1009 -0.1461 -1.8970
  696SOL    MW4 2857   3.605   3.241   1.176  0.2220 -0.1149 -0.6080
  697SOL     OW 2858   3.591   3.508   1.096 -0.1951  0.9504 -0.2427
  697SOL    HW2 2859   3.679   3.526   1.129 -0.8099  1.7340  0.9962
  697SOL    HW3 2860   3.601   3.510   1.001  1.2563  0.3644 -0.1299
  697SOL    MW4 2861   3.604   3.510   1.088 -0.0849  0.9766 -0.0644
  698SOL     OW 2862   3.841   3.594   1.224  0.1459 -0.1376 -0.3298
  698SOL    HW2 2863   3.818   3.606   1.316 -0.9794  0.4627 -0.6759
  698SOL    HW3 2864   3.841   3.682   1.188  2.1174 -0.2127 -0.5718
  698SOL    MW4 2865   3.838   3.607   1.231  0.2577 -0.0684 -0.4073
  699SOL     OW 2866   3.802   3.849   1.111  0.3973 -0.4844  0.0508
  699SOL    HW2 2867   3.714   3.879   1.133  1.0672  0.8847  1.0029
  699SOL    HW3 2868   3.808   3.860   1.016 -0.2416  0.0666  0.0693
  699SOL    MW4 2869   3.791   3.855   1.102  0.4015 -0.2310  0.1789
  700SOL     OW 2870   3.580   4.008   1.172  0.1888 -0.2621 -0.4913
  700SOL    HW2 2871   3.583   4.004   1.268  0.6822  0.3712 -0.4781
  700SOL    HW3 2872   3.503   3.956   1.149  0.7865 -1.4609  0.1843
  700SOL    MW4 2873   3.570   4.001   1.182  0.3331 -0.3366 -0.4003
  701SOL     OW 2874   3.629   4.282   1.083  0.5112  0.5162 -0.1590
  701SOL    HW2 2875   3.623   4.190   1.107  0.7452  0.6479  0.4114
  701SOL    HW3 2876   3.628   4.282   0.987  2.2755 -0.2124 -0.2012
  701SOL    MW4 2877   3.628   4.270   1.073  0.7746  0.4377 -0.0894
  702SOL     OW 2878   3.835   4.417   1.210 -0.1574 -0.2926  0.0403
  702SOL    HW2 2879   3.824   4.426   1.305 -1.0472 -0.0290 -0.0744
  702SOL    HW3 2880   3.756   4.372   1.181  0.7327 -1.5721 -0.4118
  702SOL    MW4 2881   3.823   4.412   1.219 -0.1574 -0.4268 -0.0345
  703SOL     OW 2882   4.224   4.660   1.113 -0.1986 -0.0095  0.1690
  703SOL    HW2 2883   4.227   4.574   1.154 -1.8686  0.3526  1.0796
  703SOL    HW3 2884   4.138   4.695   1.136 -0.0030  1.4169 -1.1854
  703SOL    MW4 2885   4.213   4.653   1.121 -0.3934  0.2260  0.1104
  704SOL     OW 2886   3.978   0.122   1.192 -0.0207 -0.0224  0.1570
  704SOL    HW2 2887   3.999   0.126   1.285  0.9202 -1.0337 -0.0045
  704SOL    HW3 2888   3.888   0.091   1.188 -0.6579  1.6658  0.7710
  704SOL    MW4 2889   3.969   0.119   1.203  0.0193  0.0669  0.2167
  705SOL     OW 2890   4.027   0.382   1.136  0.2084  0.0982  0.4147
  705SOL    HW2 2891   4.039   0.290   1.158  0.8283  0.3035  0.9752
  705SOL    HW3 2892   4.036   0.386   1.041 -0.1328 -0.4664  0.3584
  705SOL    MW4 2893   4.030   0.371   1.127  0.2451  0.0508  0.4810
  706SOL     OW 2894   4.273   0.509   1.237 -0.2257 -0.2577 -0.2065
  706SOL    HW2 2895   4.269   0.504   1.332  0.2519  0.0384 -0.1668
  706SOL    HW3 2896   4.193   0.467   1.207  0.2847 -1.6070  0.2856
  706SOL    MW4 2897   4.262   0.503   1.245 -0.0949 -0.3966 -0.1363
  707SOL     OW 2898   4.250   0.792   1.165 -0.0946  0.0736  0.1305
  707SOL    HW2 2899   4.260   0.707   1.207  0.7003  0.0212 -0.1689
  707SOL    HW3 2900   4.311   0.850   1.211 -0.0598  0.2966 -0.1931
  707SOL    MW4 2901   4.259   0.789   1.177  0.0153  0.0961  0.0483
  708SOL     OW 2902   3.980   0.901   1.263 -0.4164 -0.6321 -0.2312
  708SOL    HW2 2903   3.986   0.909   1.358  1.1628  0.4499 -0.4053
  708SOL    HW3 2904   4.067   0.870   1.236 -0.2362  0.9421 -1.5045
  708SOL    MW4 2905   3.992   0.898   1.272 -0.1841 -0.2817 -0.4222
  709SOL     OW 2906   3.970   1.146   1.150 -0.2344  0.1781  0.1149
  709SOL    HW2 2907   3.949   1.063   1.193  0.6769  0.1653  0.5519
  709SOL    HW3 2908   3.905   1.207   1.183 -0.8916 -0.3512 -0.1856
  709SOL    MW4 2909   3.959   1.143   1.160 -0.2007  0.1066  0.1328
  710SOL     OW 2910   4.222   1.126   1.305 -0.6090  0.3075 -0.0728
  710SOL    HW2 2911   4.214   1.187   1.378  0.9802 -1.5327  1.7084
  710SOL    HW3 2912   4.136   1.125   1.264 -1.6323  1.1126  2.0008
  710SOL    MW4 2913   4.210   1.134   1.309 -0.5341  0.1709  0.4357
  711SOL     OW 2914   4.282   1.540   1.150 -0.3427  0.3492 -0.1628
  711SOL    HW2 2915   4.325   1.455   1.146  0.6302  0.8821 -1.3611
  711SOL    HW3 2916   4.343   1.596   1.198 -0.9956  0.3701  0.6581
  711SOL    MW4 2917   4.295   1.536   1.156 -0.3009  0.4221 -0.2126
  712SOL     OW 2918   4.051   1.679   1.208 -0.4510  0.1527 -0.3652
  712SOL    HW2 2919   4.045   1.679   1.304  0.5876 -0.1227 -0.2928
  712SOL    HW3 2920   4.126   1.623   1.189 -0.6316  0.2376 -1.3434
  712SOL    MW4 2921   4.060   1.672   1.218 -0.3376  0.1274 -0.4848
  713SOL     OW 2922   4.017   1.950   1.123 -0.1332 -0.6900 -0.2434
  713SOL    HW2 2923   4.059   1.866   1.142  0.6757 -0.4023 -0.7322
  713SOL    HW3 2924   4.033   1.964   1.029 -0.4148 -0.0722 -0.2023
  713SOL    MW4 2925   4.025   1.941   1.113 -0.0644 -0.5707 -0.3023
  714SOL     OW 2926   4.254   2.054   1.223  0.2973  0.2035 -0.1127
  714SOL    HW2 2927   4.250   2.148   1.205 -0.9691  0.4982  1.5876
  714SOL    HW3 2928   4.165   2.023   1.208  0.2820 -0.3743  1.1134
  714SOL    MW4 2929   4.241   2.062   1.218  0.1278  0.1664  0.2733
  715SOL     OW 2930   4.204   2.320   1.146 -0.2459 -0.3906  0.1892
  715SOL    HW2 2931   4.137   2.384   1.169 -0.8913 -0.7797 -0.5875
  715SOL    HW3 2932   4.232   2.345   1.058  1.8327  0.7700  1.1294
  715SOL    MW4 2933   4.199   2.332   1.138 -0.0563 -0.2890  0.2106
  716SOL     OW 2934   3.996   2.477   1.219 -0.1230  0.4442 -0.1216
  716SOL    HW2 2935   4.015   2.486   1.312  1.8189  1.5634 -0.6013
  716SOL    HW3 2936   4.007   2.565   1.183 -1.1641  0.0875 -1.3806
  716SOL    MW4 2937   4.000   2.490   1.227 -0.0043  0.5448 -0.3511
  717SOL     OW 2938   1.433   3.246   0.765  0.2463  0.0711  0.1213
  717SOL    HW2 2939   1.342   3.215   0.772  0.4203 -0.0897  1.9947
  717SOL    HW3 2940   1.428   3.339   0.788  0.4944  0.1560 -0.1729
  717SOL    MW4 2941   1.420   3.254   0.769  0.3021  0.0610  0.3296
  718SOL     OW 2942   4.261   2.873   1.261 -0.4070  0.3007  0.3266
  718SOL    HW2 2943   4.275   2.957   1.218  0.7564 -0.4861 -0.8827
  718SOL    HW3 2944   4.178   2.841   1.226 -0.3918  0.5253  0.0878
  718SOL    MW4 2945   4.252   2.880   1.251 -0.2508  0.2267  0.1355
  719SOL     OW 2946   4.058   3.260   1.221  0.2740 -0.3684  0.5541
  719SOL    HW2 2947   4.045   3.266   1.316 -0.0488  0.0790  0.4829
  719SOL    HW3 2948   3.976   3.223   1.188 -0.5469  1.7397  0.1888
  719SOL    MW4 2949   4.045   3.256   1.230  0.1235 -0.0312  0.4965
  720SOL     OW 2950   3.838   3.147   1.089 -0.1051  0.2827  0.0307
  720SOL    HW2 2951   3.824   3.056   1.118  0.2402 -0.1241 -1.0570
  720SOL    HW3 2952   3.857   3.139   0.996 -1.4197  1.5860 -0.3603
  720SOL    MW4 2953   3.838   3.134   1.081 -0.2332  0.4008 -0.1644
  721SOL     OW 2954   4.059   3.503   1.080  0.2487 -0.0429 -0.2948
  721SOL    HW2 2955   4.053   3.414   1.115 -0.7041  0.2841  0.4275
  721SOL    HW3 2956   3.977   3.545   1.109  0.5433  0.9658 -0.8990
  721SOL    MW4 2957   4.047   3.497   1.088  0.1616  0.1333 -0.2793
  722SOL     OW 2958   2.722   4.386   0.499 -0.4397 -0.3992 -0.3624
  722SOL    HW2 2959   2.801   4.393   0.444  0.6662  0.2424  1.2667
  722SOL    HW3 2960   2.719   4.293   0.523 -0.7378 -0.6179 -1.2052
  722SOL    MW4 2961   2.732   4.374   0.495 -0.3333 -0.3433 -0.2587
  723SOL     OW 2962   4.275   3.835   1.171  0.0292 -0.1825 -0.5921
  723SOL    HW2 2963   4.188   3.858   1.204  0.4343 -0.5645  0.7905
  723SOL    HW3 2964   4.283   3.742   1.191  1.4990  0.2765  1.0008
  723SOL    MW4 2965   4.264   3.826   1.178  0.2766 -0.1721 -0.1996
  724SOL     OW 2966   4.024   3.992   1.251  0.1335  0.5840 -0.0071
  724SOL    HW2 2967   4.022   4.087   1.241 -1.4919  0.3909 -1.7355
  724SOL    HW3 2968   3.947   3.961   1.204  1.1698 -1.6677 -0.2912
  724SOL    MW4 2969   4.013   4.000   1.243  0.0558  0.2615 -0.2726
  725SOL     OW 2970   4.033   4.252   1.157 -0.1971 -0.0439 -0.4386
  725SOL    HW2 2971   3.965   4.315   1.182 -0.6609  0.0398 -1.8651
  725SOL    HW3 2972   4.033   4.254   1.061  0.8956 -1.0354 -0.4619
  725SOL    MW4 2973   4.024   4.260   1.148 -0.1140 -0.1636 -0.6298
  726SOL     OW 2974   4.248   4.410   1.216  0.4503 -0.4510 -0.3056
  726SOL    HW2 2975   4.183   4.344   1.189 -0.2609  0.1340 -0.0225
  726SOL    HW3 2976   4.332   4.372   1.190 -0.0135 -1.1435 -0.8202
  726SOL    MW4 2977   4.250   4.396   1.209  0.2956 -0.4649 -0.3362
  727SOL     OW 2978   0.199   0.012   1.596 -0.0766  0.5956  0.1852
  727SOL    HW2 2979   0.272   0.065   1.561 -0.4603  0.1159 -1.3685
  727SOL    HW3 2980   0.120   0.059   1.568 -0.4007 -0.2134 -0.2797
  727SOL    MW4 2981   0.198   0.025   1.587 -0.1700  0.4253 -0.0812
  728SOL     OW 2982   4.440   0.136   1.506 -0.0638 -0.4606 -0.3053
  728SOL    HW2 2983   4.361   0.091   1.535  0.5690 -1.8259 -0.6573
  728SOL    HW3 2984   4.446   0.117   1.412  0.9974 -0.8707 -0.1696
  728SOL    MW4 2985   4.431   0.128   1.497  0.1602 -0.6948 -0.3339
  729SOL     OW 2986   4.473   0.391   1.619 -0.0128 -0.3094  0.0422
  729SOL    HW2 2987   4.481   0.369   1.712  0.1528 -1.8245 -0.3178
  729SOL    HW3 2988   4.458   0.307   1.576  0.0974  0.3657 -1.3298
  729SOL    MW4 2989   4.472   0.377   1.625  0.0236 -0.4202 -0.1863
  730SOL     OW 2990   0.191   0.527   1.502 -0.6602 -0.4229 -0.2621
  730SOL    HW2 2991   0.111   0.484   1.534 -0.7977  0.3692  0.4725
  730SOL    HW3 2992   0.170   0.550   1.411 -1.2287 -0.3184 -0.1087
  730SOL    MW4 2993   0.178   0.524   1.494 -0.7533 -0.3046 -0.1448
  731SOL     OW 2994   0.272   0.763   1.646  0.4947 -0.0519 -0.1339
  731SOL    HW2 2995   0.337   0.796   1.583 -0.1925 -1.1401 -1.4407
  731SOL    HW3 2996   0.245   0.679   1.610 -1.9605  0.5705  0.1683
  731SOL    MW4 2997   0.277   0.756   1.633  0.0801 -0.1134 -0.2664
  732SOL     OW 2998   0.025   0.876   1.579  0.0074  0.3066  0.1515
  732SOL    HW2 2999   0.045   0.968   1.599  0.3856 -0.1408  1.9008
  732SOL    HW3 3000   0.102   0.828   1.611 -0.9102 -0.7744  0.7547
  732SOL    MW4 3001   0.038   0.882   1.586 -0.0644  0.1050  0.4619
  733SOL     OW 3002   0.026   1.147   1.635  0.0060 -0.5192 -0.1403
  733SOL    HW2 3003   0.014   1.160   1.729  0.4511  1.6101 -0.3374
  733SOL    HW3 3004  -0.041   1.203   1.595 -0.2598 -1.5110 -1.0850
  733SOL    MW4 3005   0.016   1.156   1.642  0.0297 -0.3690 -0.2910
  734SOL     OW 3006   0.210   1.299   1.478 -0.7155 -0.0440 -0.2364
  734SOL    HW2 3007   0.205   1.389   1.512 -1.2518 -0.5672  1.0887
  734SOL    HW3 3008   0.146   1.251   1.529 -0.2442 -1.2490 -0.7759
  734SOL    MW4 3009   0.201   1.305   1.489 -0.7241 -0.2720 -0.1329
  735SOL     OW 3010   0.219   1.565   1.601  0.2622 -0.5004  0.6065
  735SOL    HW2 3011   0.243   1.574   1.694 -0.1650 -2.3912  0.9194
  735SOL    HW3 3012   0.147   1.628   1.589  1.2401  0.7508  1.1997
  735SOL    MW4 3013   0.213   1.575   1.612  0.3349 -0.5848  0.7261
  736SOL     OW 3014   4.486   1.717   1.545  0.8824  0.3029 -0.1365
  736SOL    HW2 3015   4.486   1.809   1.571  0.6166  0.1337  0.4661
  736SOL    HW3 3016   4.495   1.719   1.449  0.8336  0.9531 -0.1293
  736SOL    MW4 3017   4.487   1.729   1.536  0.8416  0.3662 -0.0560
  737SOL     OW 3018   0.025   1.996   1.621 -0.0240 -0.1015  0.3654
  737SOL    HW2 3019   0.020   1.993   1.717  2.5000  1.6992  0.6190
  737SOL    HW3 3020  -0.061   2.026   1.593 -0.8760 -0.9210  2.0482
  737SOL    MW4 3021   0.013   2.000   1.630  0.1965  0.0280  0.6208
  738SOL     OW 3022   0.252   2.071   1.497  0.1628 -0.0775  0.0177
  738SOL    HW2 3023   0.171   2.036   1.535 -0.3547 -0.1755 -1.1517
  738SOL    HW3 3024   0.234   2.077   1.404  0.9299  1.4943 -0.0443
  738SOL    MW4 3025   0.239   2.067   1.490  0.1957  0.1168 -0.1447
  739SOL     OW 3026   0.240   2.330   1.588  0.3933  0.0198  0.0268
  739SOL    HW2 3027   0.226   2.333   1.683 -0.1491  0.8731 -0.0769
  739SOL    HW3 3028   0.245   2.237   1.567  0.9132 -0.1633  0.9562
  739SOL    MW4 3029   0.239   2.318   1.598  0.3903  0.1082  0.1358
  740SOL     OW 3030   4.471   2.421   1.460 -0.2520 -0.0142  0.4553
  740SOL    HW2 3031   4.385   2.400   1.497 -0.0361  0.2708  1.1218
  740SOL    HW3 3032   4.533   2.372   1.514  0.1598  1.3445  1.2462
  740SOL    MW4 3033   4.468   2.412   1.472 -0.1693  0.2024  0.6475
  741SOL     OW 3034   4.464   2.670   1.612  0.6010 -0.0303 -0.1156
  741SOL    HW2 3035   4.387   2.704   1.565 -0.6758 -1.1783  1.0739
  741SOL    HW3 3036   4.474   2.581   1.578  0.1529 -0.5850  1.1888
  741SOL    MW4 3037   4.455   2.663   1.601  0.3734 -0.2553  0.2134
  742SOL     OW 3038   0.193   2.822   1.495  0.1759 -0.1987 -0.3026
  742SOL    HW2 3039   0.268   2.777   1.535  0.1420 -1.7102 -1.8738
  742SOL    HW3 3040   0.117   2.784   1.537  0.2240  0.2588  0.2105
  742SOL    MW4 3041   0.193   2.811   1.506  0.1778 -0.3378 -0.4421
  743SOL     OW 3042   0.190   3.075   1.628 -0.1972 -0.3087  0.0180
  743SOL    HW2 3043   0.115   3.110   1.581  1.1774  0.1426 -1.9046
  743SOL    HW3 3044   0.187   2.980   1.612  0.2077 -0.1700 -0.9487
  743SOL    MW4 3045   0.180   3.067   1.620  0.0376 -0.2310 -0.3632
  744SOL     OW 3046   4.480   3.211   1.506  0.1021 -0.1211 -0.4251
  744SOL    HW2 3047   4.497   3.300   1.535  0.5489 -0.3920  0.1692
  744SOL    HW3 3048   4.515   3.208   1.417  0.4944  0.1770 -0.2851
  744SOL    MW4 3049   4.487   3.222   1.498  0.2128 -0.1175 -0.3282
  745SOL     OW 3050   0.028   3.472   1.615  0.0756 -0.7461 -0.3875
  745SOL    HW2 3051   0.022   3.465   1.710 -0.5145 -0.7629 -0.4227
  745SOL    HW3 3052  -0.048   3.524   1.590  2.2807  2.5675 -0.4896
  745SOL    MW4 3053   0.017   3.478   1.624  0.2885 -0.3109 -0.4055
  746SOL     OW 3054   0.247   3.606   1.516  0.5973  0.2597  0.5632
  746SOL    HW2 3055   0.222   3.697   1.533 -1.3426 -0.0846 -0.2137
  746SOL    HW3 3056   0.183   3.555   1.564  1.8571 -0.7005  1.2198
  746SOL    MW4 3057   0.235   3.612   1.524  0.5076  0.0877  0.5474
  747SOL     OW 3058   0.204   3.862   1.605 -0.6945  0.0796  0.2554
  747SOL    HW2 3059   0.232   3.870   1.696 -0.7434  0.6589  0.2181
  747SOL    HW3 3060   0.272   3.908   1.555 -0.8639  0.0851  0.0304
  747SOL    MW4 3061   0.217   3.869   1.610 -0.7233  0.1566  0.2208
  748SOL     OW 3062   4.483   4.001   1.494  0.0574 -0.3204 -0.1066
  748SOL    HW2 3063   4.492   4.093   1.518 -0.1127 -0.0997 -0.8724
  748SOL    HW3 3064   4.559   3.958   1.533 -0.4008 -0.0253  1.1062
  748SOL    MW4 3065   4.494   4.008   1.502 -0.0255 -0.2522 -0.0477
  749SOL     OW 3066   4.479   4.269   1.580 -0.9463 -0.2469 -0.0771
  749SOL    HW2 3067   4.474   4.256   1.674  0.0950  1.8432  0.2959
  749SOL    HW3 3068   4.388   4.282   1.553 -1.0227  1.6453  1.0370
  749SOL    MW4 3069   4.466   4.269   1.589 -0.8187  0.2789  0.1192
  750SOL     OW 3070   0.226   4.410   1.494 -0.4014  0.3798  0.3181
  750SOL    HW2 3071   0.148   4.375   1.537  0.1226 -0.5045  0.5785
  750SOL    HW3 3072   0.237   4.497   1.531 -0.4062 -0.0747  1.4141
  750SOL    MW4 3073   0.217   4.417   1.505 -0.3329  0.2036  0.4971
  751SOL     OW 3074   0.640   4.666   1.606  0.5113 -0.6545  0.3364
  751SOL    HW2 3075   0.720   4.692   1.561 -0.0421 -0.2752 -0.4410
  751SOL    HW3 3076   0.571   4.717   1.564 -0.3143 -1.9262  0.1051
  751SOL    MW4 3077   0.642   4.676   1.595  0.3294 -0.7725  0.2033
  752SOL     OW 3078   0.429   0.127   1.472 -0.2105  0.0910 -0.1715
  752SOL    HW2 3079   0.418   0.214   1.510  0.0521 -0.1990  0.5723
  752SOL    HW3 3080   0.397   0.136   1.382 -0.9885  0.7392  0.1646
  752SOL    MW4 3081   0.423   0.140   1.465 -0.2785  0.1383 -0.0290
  753SOL     OW 3082   0.426   0.395   1.547  0.1585  0.1897 -0.1244
  753SOL    HW2 3083   0.506   0.447   1.540  0.0907  0.0210 -2.6137
  753SOL    HW3 3084   0.357   0.451   1.511 -0.6290 -0.1527  0.8130
  753SOL    MW4 3085   0.427   0.409   1.542  0.0457  0.1223 -0.3291
  754SOL     OW 3086   0.695   0.511   1.446 -0.8521 -0.0049  0.5547
  754SOL    HW2 3087   0.668   0.598   1.474 -0.5662  0.4441 -0.5479
  754SOL    HW3 3088   0.680   0.510   1.351  2.3180  0.0460 -0.0259
  754SOL    MW4 3089   0.690   0.522   1.437 -0.3961  0.0611  0.3326
  755SOL     OW 3090   0.648   0.745   1.592 -0.2254 -0.0168 -0.5477
  755SOL    HW2 3091   0.664   0.746   1.687 -0.9995 -0.4006 -0.4106
  755SOL    HW3 3092   0.724   0.790   1.555  0.5650 -0.7149  0.1847
  755SOL    MW4 3093   0.660   0.751   1.600 -0.2232 -0.1596 -0.4330
  756SOL     OW 3094   0.423   0.893   1.458  0.7131  0.0362 -0.0579
  756SOL    HW2 3095   0.412   0.979   1.500 -1.4393 -0.7375  1.0387
  756SOL    HW3 3096   0.507   0.861   1.491  0.5767  0.8624  1.1119
  756SOL    MW4 3097   0.433   0.900   1.468  0.4111  0.0432  0.2410
  757SOL     OW 3098   0.432   1.155   1.564 -0.0554 -0.0934 -0.2600
  757SOL    HW2 3099   0.513   1.205   1.560  0.5366 -1.0481 -0.3531
  757SOL    HW3 3100   0.364   1.216   1.534  0.6406  0.6643 -0.3012
  757SOL    MW4 3101   0.434   1.170   1.560  0.1145 -0.1194 -0.2776
  758SOL     OW 3102   0.662   1.299   1.503  0.4825 -0.1556  0.4840
  758SOL    HW2 3103   0.663   1.386   1.542  0.9619 -0.2494  0.6846
  758SOL    HW3 3104   0.656   1.314   1.409 -0.1794  0.0820  0.5618
  758SOL    MW4 3105   0.661   1.312   1.496  0.4584 -0.1367  0.5207
  759SOL     OW 3106   0.662   1.568   1.574 -0.2876 -0.0125 -0.0936
  759SOL    HW2 3107   0.735   1.618   1.537 -0.5758  2.3487  2.3669
  759SOL    HW3 3108   0.585   1.601   1.528 -0.2540  0.4452  0.1713
  759SOL    MW4 3109   0.661   1.579   1.563 -0.3211  0.3594  0.2661
  760SOL     OW 3110   0.434   1.646   1.448  0.2659  0.1162  0.0417
  760SOL    HW2 3111   0.449   1.732   1.487 -0.9821  0.5143 -0.3326
  760SOL    HW3 3112   0.361   1.609   1.497  0.0772 -0.2702 -0.5199
  760SOL    MW4 3113   0.427   1.652   1.459  0.0764  0.1178 -0.0818
  761SOL     OW 3114   0.475   1.904   1.572  0.0786  0.3698  0.6639
  761SOL    HW2 3115   0.490   1.899   1.667 -0.9322  1.8356  0.9130
  761SOL    HW3 3116   0.397   1.958   1.563  0.9689  1.4049 -1.0759
  761SOL    MW4 3117   0.467   1.911   1.583  0.0627  0.7000  0.4673
  762SOL     OW 3118   0.655   2.077   1.442  0.6808 -0.2380  0.4119
  762SOL    HW2 3119   0.738   2.051   1.484  1.1280 -0.2237 -0.4492
  762SOL    HW3 3120   0.588   2.032   1.493  1.2238 -0.3108  1.0771
  762SOL    MW4 3121   0.657   2.067   1.454  0.8114 -0.2456  0.3860
  763SOL     OW 3122   0.693   2.327   1.561 -0.5255 -0.3474 -0.3327
  763SOL    HW2 3123   0.617   2.374   1.527  0.5606  0.0590 -2.2838
  763SOL    HW3 3124   0.685   2.238   1.526 -0.7297 -0.6450  0.4567
  763SOL    MW4 3125   0.682   2.322   1.552 -0.4092 -0.3331 -0.4859
  764SOL     OW 3126   0.471   2.440   1.458  0.3590 -0.2963 -0.0785
  764SOL    HW2 3127   0.459   2.523   1.505  1.0548 -0.5593  0.5709
  764SOL    HW3 3128   0.398   2.385   1.489  0.1385 -0.0749 -0.1969
  764SOL    MW4 3129   0.459   2.444   1.468  0.4217 -0.3021 -0.0083
  765SOL     OW 3130   0.418   2.684   1.583  0.0110 -0.5220  0.0929
  765SOL    HW2 3131   0.428   2.682   1.678 -0.4353 -1.9032  0.1225
  765SOL    HW3 3132   0.496   2.729   1.552  0.0767  0.0935  1.1218
  765SOL    MW4 3133   0.430   2.690   1.592 -0.0392 -0.6230  0.2325
  766SOL     OW 3134   0.660   2.794   1.496 -0.1882  0.0194  0.0360
  766SOL    HW2 3135   0.668   2.886   1.519 -0.7398 -0.0631  0.5547
  766SOL    HW3 3136   0.675   2.792   1.401 -0.8622  0.7304 -0.0932
  766SOL    MW4 3137   0.663   2.806   1.486 -0.3498  0.1020  0.0874
  767SOL     OW 3138   0.675   3.051   1.593 -0.0472  0.2389 -0.5178
  767SOL    HW2 3139   0.748   3.103   1.559  0.2374 -1.4643 -2.6107
  767SOL    HW3 3140   0.597   3.091   1.553  0.0616 -0.1372 -1.1145
  767SOL    MW4 3141   0.674   3.063   1.583  0.0047 -0.0355 -0.8729
  768SOL     OW 3142   0.437   3.210   1.521 -0.1208 -0.4635 -0.6476
  768SOL    HW2 3143   0.367   3.149   1.544  0.1715 -0.8810 -0.8525
  768SOL    HW3 3144   0.440   3.208   1.425 -1.2023  1.1188 -0.7244
  768SOL    MW4 3145   0.428   3.202   1.511 -0.2249 -0.3099 -0.6847
  769SOL     OW 3146   0.472   3.500   1.640 -0.0928 -0.4579  0.3462
  769SOL    HW2 3147   0.467   3.405   1.631 -1.5922 -0.6289  2.6251
  769SOL    HW3 3148   0.403   3.533   1.582 -0.9490 -0.8710  1.1203
  769SOL    MW4 3149   0.463   3.492   1.631 -0.4036 -0.5348  0.7491
  770SOL     OW 3150   0.683   3.638   1.532 -0.4395  0.1436  0.3491
  770SOL    HW2 3151   0.750   3.574   1.557 -0.7098  0.3441  1.6713
  770SOL    HW3 3152   0.603   3.605   1.573 -0.6946  1.0215  0.5556
  770SOL    MW4 3153   0.681   3.625   1.541 -0.5087  0.2859  0.5507
  771SOL     OW 3154   0.659   3.903   1.590 -0.0284  0.1112  0.0183
  771SOL    HW2 3155   0.735   3.950   1.554 -0.9904  1.4191 -0.3378
  771SOL    HW3 3156   0.675   3.811   1.568  1.8451  0.2631  0.6523
  771SOL    MW4 3157   0.671   3.897   1.582  0.0918  0.3040  0.0550
  772SOL     OW 3158   0.402   4.013   1.493 -0.0945 -0.2700  0.2845
  772SOL    HW2 3159   0.471   3.976   1.547 -0.9749 -1.9800  0.2676
  772SOL    HW3 3160   0.439   4.012   1.404  0.3439  0.0443  0.4602
  772SOL    MW4 3161   0.416   4.008   1.488 -0.1528 -0.4544  0.3054
  773SOL     OW 3162   0.449   4.269   1.585 -0.2462 -0.4562  0.0566
  773SOL    HW2 3163   0.431   4.176   1.569 -1.1797 -0.1819 -0.5555
  773SOL    HW3 3164   0.369   4.313   1.557  0.6960  0.6492 -0.9175
  773SOL    MW4 3165   0.436   4.262   1.579 -0.2451 -0.2742 -0.1526
  774SOL     OW 3166   0.661   4.397   1.482 -0.0580  0.6055 -0.1376
  774SOL    HW2 3167   0.605   4.333   1.527  0.6393  0.5213  0.6206
  774SOL    HW3 3168   0.630   4.482   1.514  0.7317  0.5303  0.8758
  774SOL    MW4 3169   0.650   4.400   1.492  0.1383  0.5846  0.0961
  775SOL     OW 3170   1.094   4.652   1.572 -0.4469 -0.2575 -0.1276
  775SOL    HW2 3171   1.104   4.639   1.666 -0.4249 -0.3019 -0.1365
  775SOL    HW3 3172   1.172   4.702   1.546  0.1262 -1.2578 -0.3326
  775SOL    MW4 3173   1.105   4.657   1.581 -0.3684 -0.3948 -0.1558
  776SOL     OW 3174   0.882   0.132   1.499  0.7462  0.3042  0.1173
  776SOL    HW2 3175   0.898   0.215   1.544  1.4099 -0.4055  1.2105
  776SOL    HW3 3176   0.957   0.078   1.522 -0.5441 -1.2095  0.8749
  776SOL    MW4 3177   0.894   0.136   1.508  0.6635  0.0109  0.3614
  777SOL     OW 3178   0.913   0.393   1.603  0.4485  0.5547 -0.3570
  777SOL    HW2 3179   0.922   0.400   1.698 -2.2984 -1.7476  0.1107
  777SOL    HW3 3180   0.832   0.441   1.583 -0.2446 -0.9657 -1.2347
  777SOL    MW4 3181   0.904   0.400   1.612 -0.0053  0.0504 -0.4112
  778SOL     OW 3182   1.130   0.501   1.477  0.7299 -0.0345 -0.4208
  778SOL    HW2 3183   1.136   0.585   1.523  1.4611 -0.8748  1.0620
  778SOL    HW3 3184   1.051   0.460   1.511  0.8595 -0.3349 -0.4771
  778SOL    MW4 3185   1.121   0.507   1.488  0.8435 -0.1850 -0.2327
  779SOL     OW 3186   1.103   0.745   1.596  0.3330  0.2043  0.4697
  779SOL    HW2 3187   1.097   0.759   1.691  0.2883  1.1114  0.3367
  779SOL    HW3 3188   1.180   0.796   1.569  0.0235  0.3944 -0.0607
  779SOL    MW4 3189   1.113   0.754   1.605  0.2863  0.3491  0.3821
  780SOL     OW 3190   0.884   0.884   1.494 -0.1612  0.0311 -0.1201
  780SOL    HW2 3191   0.950   0.825   1.531 -0.9760 -0.8301 -0.0345
  780SOL    HW3 3192   0.893   0.873   1.399  0.8879  1.0981 -0.1546
  780SOL    MW4 3193   0.894   0.875   1.487 -0.1303  0.0582 -0.1134
  781SOL     OW 3194   0.880   1.148   1.582 -0.0451  0.6289  0.3103
  781SOL    HW2 3195   0.854   1.057   1.566  1.0956  0.7084 -2.3522
  781SOL    HW3 3196   0.802   1.199   1.564 -0.3100  0.2699  0.4364
  781SOL    MW4 3197   0.866   1.142   1.577  0.0705  0.5919 -0.0243
  782SOL     OW 3198   1.098   1.273   1.492  0.2136 -0.2915 -0.4011
  782SOL    HW2 3199   1.168   1.231   1.541 -0.0205  0.3291  0.4684
  782SOL    HW3 3200   1.017   1.238   1.529  0.0398 -0.0868 -0.5776
  782SOL    MW4 3201   1.096   1.263   1.503  0.1599 -0.1825 -0.3097
  783SOL     OW 3202   1.089   1.533   1.570  0.3913  0.5796  0.0846
  783SOL    HW2 3203   1.160   1.580   1.525 -1.4949  1.8591 -1.6195
  783SOL    HW3 3204   1.081   1.450   1.524  0.8238  0.4022  0.3265
  783SOL    MW4 3205   1.097   1.529   1.558  0.1994  0.7249 -0.1084
  784SOL     OW 3206   0.880   1.695   1.472 -0.0766 -0.2198  0.2348
  784SOL    HW2 3207   0.950   1.647   1.516 -2.1696 -1.0426  2.7553
  784SOL    HW3 3208   0.883   1.662   1.382  2.5814 -0.4249  0.3511
  784SOL    MW4 3209   0.890   1.684   1.466 -0.0021 -0.3554  0.5826
  785SOL     OW 3210   0.881   1.966   1.588 -0.4945 -0.4418 -0.3453
  785SOL    HW2 3211   0.970   1.997   1.570  0.2459 -1.9757  0.5908
  785SOL    HW3 3212   0.873   1.885   1.537 -0.6989 -1.2679  0.9703
  785SOL    MW4 3213   0.892   1.959   1.579 -0.4238 -0.7533 -0.0483
  786SOL     OW 3214   1.100   2.046   1.449  0.4758 -0.1941  0.3636
  786SOL    HW2 3215   1.171   2.008   1.500  0.3085  1.3447  1.7681
  786SOL    HW3 3216   1.102   2.139   1.469 -0.5731  0.2112 -1.2637
  786SOL    MW4 3217   1.109   2.053   1.458  0.3153  0.0625  0.3341
  787SOL     OW 3218   1.101   2.310   1.550 -0.3098 -0.0927 -0.1960
  787SOL    HW2 3219   1.182   2.353   1.523 -0.4413 -0.0288 -0.4867
  787SOL    HW3 3220   1.032   2.365   1.516 -0.4819 -0.9297 -1.2058
  787SOL    MW4 3221   1.103   2.323   1.542 -0.3499 -0.1948 -0.3678
  788SOL     OW 3222   0.916   2.486   1.464 -0.0447 -0.1708 -0.1442
  788SOL    HW2 3223   0.926   2.568   1.512 -0.0539 -0.4695  0.3777
  788SOL    HW3 3224   0.836   2.447   1.500  0.6077 -0.9740  0.4688
  788SOL    MW4 3225   0.907   2.492   1.475  0.0402 -0.3161  0.0055
  789SOL     OW 3226   0.911   2.744   1.609 -0.0477 -0.0287 -0.0853
  789SOL    HW2 3227   0.910   2.742   1.704  3.2973 -1.0700 -0.0255
  789SOL    HW3 3228   0.819   2.757   1.584 -0.9708  0.1000  3.2439
  789SOL    MW4 3229   0.899   2.745   1.618  0.2719 -0.1488  0.3619
  790SOL     OW 3230   1.138   2.835   1.481  0.4102 -0.3975 -0.1411
  790SOL    HW2 3231   1.149   2.929   1.492 -0.8732 -0.1451 -0.8977
  790SOL    HW3 3232   1.055   2.815   1.526  0.7615 -1.1895  0.1674
  790SOL    MW4 3233   1.128   2.844   1.489  0.2872 -0.4687 -0.2003
  791SOL     OW 3234   1.146   3.117   1.558 -0.0244 -0.1491 -0.1615
  791SOL    HW2 3235   1.164   3.146   1.647 -0.7796  0.2714 -0.1337
  791SOL    HW3 3236   1.213   3.158   1.504 -0.6728  1.1195 -0.0265
  791SOL    MW4 3237   1.157   3.126   1.562 -0.2097  0.0737 -0.1400
  792SOL     OW 3238   0.879   3.202   1.497  0.0705 -0.2523 -0.0295
  792SOL    HW2 3239   0.963   3.161   1.514  0.2150  0.1042  0.1201
  792SOL    HW3 3240   0.874   3.209   1.401  0.7246  0.7835 -0.0019
  792SOL    MW4 3241   0.889   3.198   1.486  0.1758 -0.0687 -0.0061
  793SOL     OW 3242   0.912   3.475   1.591 -0.7287 -0.1393 -0.0491
  793SOL    HW2 3243   0.998   3.502   1.558 -0.3463 -0.1081  0.9423
  793SOL    HW3 3244   0.901   3.386   1.558 -0.8069  0.2531 -1.0962
  793SOL    MW4 3245   0.922   3.467   1.582 -0.6886 -0.0834 -0.0563
  794SOL     OW 3246   1.145   3.614   1.517  0.2450  0.0349 -0.4345
  794SOL    HW2 3247   1.224   3.566   1.543  1.2122  1.4896 -0.5878
  794SOL    HW3 3248   1.140   3.603   1.422 -0.5039 -1.1646 -0.2685
  794SOL    MW4 3249   1.155   3.606   1.508  0.2738  0.0684 -0.4327
  795SOL     OW 3250   1.104   3.877   1.601 -0.2487 -0.0588  0.0953
  795SOL    HW2 3251   1.186   3.923   1.583 -0.6333  0.3899 -0.5351
  795SOL    HW3 3252   1.122   3.785   1.582  0.9571 -0.4071  2.7599
  795SOL    MW4 3253   1.117   3.871   1.596 -0.1403 -0.0453  0.3636
  796SOL     OW 3254   0.889   4.017   1.513  0.2456  0.0252  0.0747
  796SOL    HW2 3255   0.893   4.108   1.543  1.0444  0.2612 -0.7455
  796SOL    HW3 3256   0.971   3.978   1.543 -0.0951 -0.4341  0.4275
  796SOL    MW4 3257   0.900   4.023   1.521  0.3061 -0.0043  0.0131
  797SOL     OW 3258   0.891   4.288   1.582  0.4475  0.1902  0.0373
  797SOL    HW2 3259   0.897   4.301   1.677 -0.6359  1.3163 -0.0420
  797SOL    HW3 3260   0.811   4.334   1.557 -0.3007 -1.7477 -1.1497
  797SOL    MW4 3261   0.882   4.296   1.592  0.2058  0.0834 -0.1298
  798SOL     OW 3262   1.090   4.410   1.446  0.3556 -0.2855 -0.0444
  798SOL    HW2 3263   1.008   4.379   1.486 -0.1650  1.2501  0.1059
  798SOL    HW3 3264   1.095   4.502   1.471  1.2265  0.0898 -1.5634
  798SOL    MW4 3265   1.080   4.418   1.455  0.4019 -0.0334 -0.2249
  799SOL     OW 3266   1.572   0.010   1.634  0.3491 -0.4590  0.0141
  799SOL    HW2 3267   1.556   0.001   1.728 -0.9409 -0.4445 -0.2055
  799SOL    HW3 3268   1.487   0.034   1.597  0.8269 -0.5783 -1.1729
  799SOL    MW4 3269   1.559   0.012   1.641  0.2420 -0.4728 -0.1717
  800SOL     OW 3270   1.335   0.097   1.495  0.2686  0.1400  0.7430
  800SOL    HW2 3271   1.344   0.190   1.514  0.6218  0.3076 -0.2005
  800SOL    HW3 3272   1.309   0.093   1.403  1.1356 -0.7141  0.5227
  800SOL    MW4 3273   1.333   0.109   1.485  0.4297  0.0495  0.5894
  801SOL     OW 3274   1.343   0.350   1.562  0.3789 -0.1371  0.1175
  801SOL    HW2 3275   1.415   0.408   1.537 -0.1425  0.0121 -1.0759
  801SOL    HW3 3276   1.264   0.397   1.535 -0.1143 -0.7923  0.4054
  801SOL    MW4 3277   1.342   0.364   1.555  0.2451 -0.2039 -0.0019
  802SOL     OW 3278   1.566   0.535   1.504 -0.1210  0.2377 -0.1805
  802SOL    HW2 3279   1.649   0.491   1.520  0.1496  0.8214  0.0205
  802SOL    HW3 3280   1.558   0.539   1.408 -0.1913 -0.3306 -0.1970
  802SOL    MW4 3281   1.576   0.530   1.493 -0.0947  0.2397 -0.1563
  803SOL     OW 3282   1.554   0.790   1.628  0.2283 -0.5068 -0.1390
  803SOL    HW2 3283   1.541   0.779   1.722 -0.7715 -0.5622 -0.2754
  803SOL    HW3 3284   1.555   0.700   1.593  0.4192 -0.4804 -0.2004
  803SOL    MW4 3285   1.552   0.776   1.636  0.1215 -0.5107 -0.1652
  804SOL     OW 3286   1.314   0.888   1.517  0.1773 -0.0275  0.7044
  804SOL    HW2 3287   1.402   0.869   1.551  0.8624  2.3837  0.3546
  804SOL    HW3 3288   1.325   0.892   1.422 -0.7152 -1.6401  0.5163
  804SOL    MW4 3289   1.327   0.886   1.509  0.1500  0.0778  0.6334
  805SOL     OW 3290   1.317   1.160   1.606  0.5742 -0.1360  0.4241
  805SOL    HW2 3291   1.312   1.144   1.700  1.3134 -1.8443  0.2068
  805SOL    HW3 3292   1.304   1.073   1.567  2.1956  0.2193 -0.9731
  805SOL    MW4 3293   1.315   1.146   1.613  0.8856 -0.3146  0.2112
  806SOL     OW 3294   1.515   1.338   1.527  0.3740 -0.1086  0.4493
  806SOL    HW2 3295   1.453   1.269   1.550 -2.0090  1.7278 -0.2543
  806SOL    HW3 3296   1.548   1.313   1.441 -0.4498 -0.4168  0.2145
  806SOL    MW4 3297   1.511   1.326   1.518 -0.0490  0.0931  0.3256
  807SOL     OW 3298   1.526   1.601   1.618  0.1885  0.2584 -0.0025
  807SOL    HW2 3299   1.532   1.580   1.711 -1.1849  0.7267  0.2041
  807SOL    HW3 3300   1.525   1.516   1.574 -1.5808 -0.0596  0.5865
  807SOL    MW4 3301   1.527   1.587   1.624 -0.2263  0.2781  0.1024
  808SOL     OW 3302   1.307   1.678   1.469 -0.3027  0.1380  0.0164
  808SOL    HW2 3303   1.391   1.666   1.514 -0.2356  1.1499  0.1545
  808SOL    HW3 3304   1.328   1.671   1.376 -0.0676  0.4012  0.0511
  808SOL    MW4 3305   1.321   1.675   1.463 -0.2627  0.3064  0.0393
  809SOL     OW 3306   1.326   1.947   1.572  0.1038  0.6475  0.2774
  809SOL    HW2 3307   1.328   1.943   1.667 -0.4290  1.6010  0.3316
  809SOL    HW3 3308   1.313   1.856   1.544  0.8815  0.2865  1.0879
  809SOL    MW4 3309   1.324   1.934   1.581  0.1361  0.7257  0.3914
  810SOL     OW 3310   1.559   2.042   1.491  0.1041 -0.9743 -0.6479
  810SOL    HW2 3311   1.478   1.998   1.515  0.2193 -0.6184  0.4304
  810SOL    HW3 3312   1.558   2.045   1.395 -0.7085 -1.7971 -0.6662
  810SOL    MW4 3313   1.548   2.037   1.482  0.0120 -1.0357 -0.5082
  811SOL     OW 3314   1.582   2.322   1.570 -0.2322  0.0611  0.2800
  811SOL    HW2 3315   1.667   2.349   1.536 -0.5355  0.2974 -0.2971
  811SOL    HW3 3316   1.573   2.231   1.544  0.0610 -0.1131  0.7780
  811SOL    MW4 3317   1.592   2.314   1.562 -0.2335  0.0694  0.2697
  812SOL     OW 3318   1.340   2.442   1.493 -0.3082 -0.3055  0.1201
  812SOL    HW2 3319   1.343   2.519   1.549  3.3889  0.7595 -1.3811
  812SOL    HW3 3320   1.417   2.391   1.517 -0.4269 -1.4441 -1.7725
  812SOL    MW4 3321   1.351   2.445   1.503  0.1640 -0.3154 -0.3277
  813SOL     OW 3322   1.355   2.715   1.616 -0.0905  0.1967  0.2598
  813SOL    HW2 3323   1.438   2.728   1.569  0.2357 -0.8582  0.5325
  813SOL    HW3 3324   1.291   2.762   1.563  0.2876 -0.9033 -1.2212
  813SOL    MW4 3325   1.358   2.723   1.603  0.0024 -0.0877  0.1004
  814SOL     OW 3326   1.602   2.807   1.506  0.1787  0.0125  0.1766
  814SOL    HW2 3327   1.682   2.768   1.543  0.3853 -0.6583 -0.9404
  814SOL    HW3 3328   1.618   2.809   1.411 -0.3945  1.5654  0.0894
  814SOL    MW4 3329   1.615   2.802   1.498  0.1303  0.1290  0.0176
  815SOL     OW 3330   1.545   3.080   1.608  0.4481  0.1384 -0.2371
  815SOL    HW2 3331   1.625   3.127   1.581  1.0994 -0.9131 -0.1802
  815SOL    HW3 3332   1.564   2.988   1.588 -0.8926 -0.0749 -0.5395
  815SOL    MW4 3333   1.558   3.074   1.602  0.3572 -0.0284 -0.2695
  816SOL     OW 3334   1.390   3.248   1.443  0.4389  0.3171 -0.9951
  816SOL    HW2 3335   1.389   3.332   1.489  0.0642 -0.5360  0.5760
  816SOL    HW3 3336   1.443   3.191   1.498  1.5687 -0.2069 -2.5820
  816SOL    MW4 3337   1.397   3.252   1.456  0.5386  0.1354 -0.9972
  817SOL     OW 3338   1.365   3.457   1.615  0.1565 -0.3474 -0.0343
  817SOL    HW2 3339   1.352   3.454   1.710 -0.4838 -0.4473 -0.1215
  817SOL    HW3 3340   1.447   3.506   1.603  0.7121 -1.1114  0.6074
  817SOL    MW4 3341   1.374   3.463   1.626  0.1453 -0.4611  0.0389
  818SOL     OW 3342   1.604   3.619   1.527 -0.0417 -0.7251  0.1313
  818SOL    HW2 3343   1.598   3.708   1.563 -0.6028 -0.4368 -0.6540
  818SOL    HW3 3344   1.574   3.628   1.437  0.0909 -1.6821 -0.0104
  818SOL    MW4 3345   1.599   3.632   1.520 -0.0982 -0.8135  0.0089
  819SOL     OW 3346   1.588   3.874   1.627  0.4092 -0.4460  0.0126
  819SOL    HW2 3347   1.584   3.860   1.722 -0.3971 -1.0452 -0.0975
  819SOL    HW3 3348   1.501   3.905   1.604  0.6395 -0.1875 -0.5186
  819SOL    MW4 3349   1.576   3.876   1.637  0.3333 -0.4911 -0.0720
  820SOL     OW 3350   1.346   4.001   1.532 -0.0696  0.6729 -0.2820
  820SOL    HW2 3351   1.343   4.090   1.566 -0.6178  0.1185  1.1667
  820SOL    HW3 3352   1.371   4.011   1.440  0.2129  2.2852 -0.0415
  820SOL    MW4 3353   1.349   4.014   1.524 -0.1045  0.8125 -0.0592
  821SOL     OW 3354   1.321   4.307   1.589 -0.4540 -0.0581 -0.0244
  821SOL    HW2 3355   1.395   4.358   1.554  0.1340  0.0858  1.4276
  821SOL    HW3 3356   1.245   4.339   1.539 -0.1327  2.4287  1.0235
  821SOL    MW4 3357   1.321   4.318   1.578 -0.3339  0.2890  0.3053
  822SOL     OW 3358   1.561   4.416   1.513  0.1559 -0.3932 -0.3611
  822SOL    HW2 3359   1.619   4.357   1.561 -0.4005  0.2660  1.1708
  822SOL    HW3 3360   1.562   4.497   1.564 -1.3464 -0.0560 -0.8402
  822SOL    MW4 3361   1.569   4.419   1.526 -0.1158 -0.2613 -0.2221
  823SOL     OW 3362   1.974   4.642   1.568  0.2158  0.0234  0.1351
  823SOL    HW2 3363   1.973   4.647   1.664 -0.0586 -0.7129  0.1688
  823SOL    HW3 3364   1.901   4.698   1.541 -0.0389 -0.1858  0.3778
  823SOL    MW4 3365   1.964   4.650   1.577  0.1460 -0.1013  0.1717
  824SOL     OW 3366   1.755   0.123   1.458  0.0577  0.1115  0.1313
  824SOL    HW2 3367   1.699   0.078   1.521  0.5224 -0.0240  0.4451
  824SOL    HW3 3368   1.764   0.212   1.492 -0.7042  0.3978 -0.3900
  824SOL    MW4 3369   1.748   0.129   1.471  0.0184  0.1314  0.1038
  825SOL     OW 3370   1.775   0.374   1.553 -0.0603  0.0248  0.5804
  825SOL    HW2 3371   1.860   0.411   1.532  0.8624 -1.7528  1.1257
  825SOL    HW3 3372   1.774   0.367   1.649 -0.7048 -0.2505  0.5582
  825SOL    MW4 3373   1.786   0.378   1.563 -0.0235 -0.2460  0.6495
  826SOL     OW 3374   2.030   0.493   1.473 -0.0283 -0.2624  0.2271
  826SOL    HW2 3375   2.115   0.460   1.502  0.3200  0.4562  0.0424
  826SOL    HW3 3376   2.032   0.586   1.494 -0.4355 -0.0701 -0.5609
  826SOL    MW4 3377   2.042   0.501   1.480 -0.0360 -0.1423  0.0987
  827SOL     OW 3378   2.016   0.744   1.572  0.2190  0.3996  0.3871
  827SOL    HW2 3379   2.094   0.799   1.575 -0.0197  0.7531  0.2996
  827SOL    HW3 3380   1.943   0.807   1.572 -0.0644  0.0730  0.5411
  827SOL    MW4 3381   2.017   0.760   1.572  0.1502  0.4031  0.3958
  828SOL     OW 3382   1.794   0.912   1.551  0.3827  0.0317  0.8360
  828SOL    HW2 3383   1.797   0.999   1.590 -0.3795  0.0942  0.7562
  828SOL    HW3 3384   1.714   0.872   1.586  0.2901 -0.3256  0.2223
  828SOL    MW4 3385   1.784   0.918   1.561  0.2699 -0.0072  0.7445
  829SOL     OW 3386   1.738   1.199   1.651  0.9937 -0.1133  0.5006
  829SOL    HW2 3387   1.817   1.248   1.628  1.3004 -0.5761  0.5605
  829SOL    HW3 3388   1.667   1.246   1.607  1.4136 -0.2064 -0.2933
  829SOL    MW4 3389   1.739   1.212   1.642  1.0896 -0.1867  0.4038
  830SOL     OW 3390   2.004   1.268   1.549 -0.2409  0.2290  0.1338
  830SOL    HW2 3391   1.979   1.359   1.565 -1.9858 -0.1227 -0.4713
  830SOL    HW3 3392   2.016   1.264   1.454 -0.1123 -0.1673  0.1672
  830SOL    MW4 3393   2.002   1.280   1.538 -0.4542  0.1303  0.0584
  831SOL     OW 3394   1.986   1.525   1.642 -0.0614  0.4148 -0.3042
  831SOL    HW2 3395   2.064   1.556   1.595  0.5271  0.2560  0.5517
  831SOL    HW3 3396   1.915   1.579   1.608  0.3578  0.3206 -1.3536
  831SOL    MW4 3397   1.987   1.536   1.631  0.0714  0.3815 -0.3299
  832SOL     OW 3398   1.774   1.699   1.542  0.1946  0.8197  0.1713
  832SOL    HW2 3399   1.700   1.660   1.588 -0.1545  2.6254  1.2134
  832SOL    HW3 3400   1.759   1.679   1.450  0.0194 -1.4240  0.6688
  832SOL    MW4 3401   1.762   1.691   1.536  0.1254  0.7617  0.3744
  833SOL     OW 3402   1.800   1.963   1.623  0.4244  0.4647  0.2373
  833SOL    HW2 3403   1.789   1.874   1.588  0.7287  0.4571  0.1602
  833SOL    HW3 3404   1.725   2.011   1.590  1.7273  0.9878 -2.1046
  833SOL    MW4 3405   1.789   1.957   1.614  0.6363  0.5327 -0.0819
  834SOL     OW 3406   2.026   2.054   1.496  0.7377 -0.3018 -1.0590
  834SOL    HW2 3407   2.104   2.001   1.512  0.5578 -0.4610 -0.7084
  834SOL    HW3 3408   1.955   2.008   1.541  0.2020 -0.7981 -2.3767
  834SOL    MW4 3409   2.027   2.041   1.504  0.6433 -0.3881 -1.1866
  835SOL     OW 3410   2.056   2.313   1.604 -0.7265  0.1061  0.1169
  835SOL    HW2 3411   2.043   2.320   1.699 -3.3020  0.7706 -0.2342
  835SOL    HW3 3412   2.061   2.219   1.588 -0.9890 -0.0357  0.8207
  835SOL    MW4 3413   2.055   2.302   1.615 -1.1008  0.1752  0.1633
  836SOL     OW 3414   1.831   2.438   1.494  0.0622  0.0652  0.2861
  836SOL    HW2 3415   1.906   2.390   1.528  0.5193 -0.2972 -1.1928
  836SOL    HW3 3416   1.853   2.454   1.402 -1.6479 -0.0281 -0.1510
  836SOL    MW4 3417   1.844   2.433   1.487 -0.1031  0.0052  0.0333
  837SOL     OW 3418   1.829   2.694   1.610 -0.1499 -0.4726 -0.3193
  837SOL    HW2 3419   1.919   2.721   1.596 -0.2165  0.2407  0.5436
  837SOL    HW3 3420   1.822   2.609   1.567  0.9126 -0.4967 -0.4579
  837SOL    MW4 3421   1.840   2.686   1.603 -0.0185 -0.3817 -0.2239
  838SOL     OW 3422   2.088   2.813   1.545  0.0478 -0.2714  0.2840
  838SOL    HW2 3423   2.078   2.905   1.568  1.4362 -0.5465  2.0013
  838SOL    HW3 3424   2.104   2.814   1.450 -0.3610  1.2052  0.2172
  838SOL    MW4 3425   2.088   2.825   1.535  0.1769 -0.1130  0.5019
  839SOL     OW 3426   2.016   3.074   1.598  0.3739  0.1457 -0.4434
  839SOL    HW2 3427   2.036   3.074   1.691  0.2677  0.3141 -0.4211
  839SOL    HW3 3428   2.069   3.145   1.562  0.6683 -0.1322 -0.5664
  839SOL    MW4 3429   2.026   3.083   1.605  0.3989  0.1314 -0.4567
  840SOL     OW 3430   1.781   3.220   1.553  0.1875 -0.3932  0.1315
  840SOL    HW2 3431   1.802   3.307   1.587 -0.3828  0.5690 -1.9346
  840SOL    HW3 3432   1.854   3.165   1.580  0.6394  0.7626  1.2905
  840SOL    MW4 3433   1.793   3.224   1.561  0.1719 -0.1135  0.0118
  841SOL     OW 3434   1.839   3.501   1.608  0.2794 -0.2498 -0.1121
  841SOL    HW2 3435   1.826   3.511   1.703  1.3545 -0.1051  0.0291
  841SOL    HW3 3436   1.760   3.536   1.569 -0.7638 -1.5494  0.7787
  841SOL    MW4 3437   1.827   3.507   1.616  0.2837 -0.4022  0.0240
  842SOL     OW 3438   2.043   3.652   1.511  0.3246 -0.1306  0.2400
  842SOL    HW2 3439   2.122   3.604   1.538 -0.3641 -2.6181 -1.9174
  842SOL    HW3 3440   1.971   3.599   1.544 -0.4576  0.4688 -0.4930
  842SOL    MW4 3441   2.044   3.638   1.519  0.1307 -0.3798 -0.1411
  843SOL     OW 3442   2.028   3.899   1.607 -0.6795 -0.0414 -0.2922
  843SOL    HW2 3443   2.112   3.942   1.592 -0.4168 -0.6934 -0.6920
  843SOL    HW3 3444   2.039   3.811   1.572 -1.8658  0.1978 -1.3249
  843SOL    MW4 3445   2.040   3.893   1.600 -0.8016 -0.0961 -0.4814
  844SOL     OW 3446   1.794   4.047   1.522 -0.2680 -0.8533  0.1225
  844SOL    HW2 3447   1.871   4.003   1.557  0.0306 -0.0754  0.4759
  844SOL    HW3 3448   1.719   3.999   1.557  0.0143  0.2915  2.3766
  844SOL    MW4 3449   1.794   4.035   1.531 -0.1913 -0.5994  0.4666
  845SOL     OW 3450   1.799   4.309   1.600 -0.2994 -0.2907 -0.3260
  845SOL    HW2 3451   1.880   4.343   1.561 -0.4286 -1.2451 -1.4436
  845SOL    HW3 3452   1.797   4.217   1.575 -1.0137 -0.6197  0.9189
  845SOL    MW4 3453   1.809   4.302   1.591 -0.4108 -0.4597 -0.3091
  846SOL     OW 3454   2.023   4.395   1.467  0.1362 -0.0660 -0.4409
  846SOL    HW2 3455   2.098   4.361   1.516  0.7217 -0.8523 -1.8450
  846SOL    HW3 3456   2.007   4.481   1.504  2.3063  0.4853 -0.7099
  846SOL    MW4 3457   2.031   4.402   1.478  0.5000 -0.0978 -0.6617
  847SOL     OW 3458   2.472   4.664   1.592  0.0360  0.3902  0.4185
  847SOL    HW2 3459   2.477   4.664   1.687 -1.0896 -1.4717  0.5122
  847SOL    HW3 3460   2.387   4.705   1.572  0.4350  1.1159  0.2011
  847SOL    MW4 3461   2.461   4.670   1.602 -0.0596  0.2403  0.4022
  848SOL     OW 3462   2.224   0.104   1.229 -0.1249 -0.1788 -0.8344
  848SOL    HW2 3463   2.215   0.108   1.324  0.8867 -0.5686 -0.7131
  848SOL    HW3 3464   2.152   0.048   1.200  0.2058 -0.9422 -0.1894
  848SOL    MW4 3465   2.214   0.097   1.238  0.0520 -0.3309 -0.7333
  849SOL     OW 3466   2.213   0.109   1.506 -0.0825 -0.0541  0.3465
  849SOL    HW2 3467   2.205   0.197   1.543 -0.4506  0.6529 -1.3954
  849SOL    HW3 3468   2.134   0.063   1.537 -0.3646  0.5092  0.4686
  849SOL    MW4 3469   2.202   0.114   1.515 -0.1681  0.1135  0.1328
  850SOL     OW 3470   2.259   0.381   1.574  0.3644 -0.0041 -0.3019
  850SOL    HW2 3471   2.342   0.427   1.560 -0.1291  0.6745 -1.0688
  850SOL    HW3 3472   2.245   0.383   1.668  1.3079 -0.2691 -0.1574
  850SOL    MW4 3473   2.268   0.387   1.584  0.4239  0.0505 -0.3839
  851SOL     OW 3474   2.482   0.801   1.615  0.2067 -0.4557 -0.2391
  851SOL    HW2 3475   2.397   0.827   1.579  0.2373 -0.7546 -0.5309
  851SOL    HW3 3476   2.495   0.712   1.582  0.3683 -0.6224  0.2800
  851SOL    MW4 3477   2.472   0.793   1.606  0.2320 -0.5171 -0.2092
  852SOL     OW 3478   2.251   0.881   1.522 -0.0163  0.1065 -0.0390
  852SOL    HW2 3479   2.248   0.977   1.530  1.1300  0.0913  0.7092
  852SOL    HW3 3480   2.211   0.863   1.437 -1.3011  1.1617  0.3118
  852SOL    MW4 3481   2.245   0.891   1.512 -0.0346  0.2437  0.1060
  853SOL     OW 3482   2.250   1.151   1.606 -0.5860 -0.0004  0.2669
  853SOL    HW2 3483   2.250   1.148   1.702  1.7579  1.5100  0.3802
  853SOL    HW3 3484   2.167   1.193   1.583 -1.2507 -0.5494  1.6169
  853SOL    MW4 3485   2.239   1.156   1.616 -0.3645  0.1264  0.4600
  854SOL     OW 3486   2.482   1.274   1.503 -0.3321  0.1941 -0.0468
  854SOL    HW2 3487   2.403   1.236   1.542  0.6490 -2.9738 -1.0901
  854SOL    HW3 3488   2.464   1.278   1.409  0.0418  1.2794 -0.0914
  854SOL    MW4 3489   2.469   1.270   1.496 -0.1533 -0.0806 -0.1903
  855SOL     OW 3490   2.475   1.550   1.578  0.0856  0.2573 -0.4409
  855SOL    HW2 3491   2.548   1.581   1.526  0.8124  0.9856  0.9885
  855SOL    HW3 3492   2.485   1.455   1.580  2.1282  0.4840  1.3673
  855SOL    MW4 3493   2.486   1.541   1.572  0.4511  0.3833 -0.0138
  856SOL     OW 3494   2.223   1.647   1.501  0.2780 -0.5116 -0.1483
  856SOL    HW2 3495   2.305   1.612   1.536  0.4020  0.7019  0.7940
  856SOL    HW3 3496   2.238   1.653   1.406  1.1892 -0.5327 -0.0120
  856SOL    MW4 3497   2.236   1.643   1.493  0.4144 -0.3542 -0.0060
  857SOL     OW 3498   2.240   1.899   1.606 -0.0597 -0.1755  0.0518
  857SOL    HW2 3499   2.238   1.898   1.702  1.7548 -2.0758  0.1027
  857SOL    HW3 3500   2.215   1.810   1.581  0.9462 -0.1134 -1.1926
  857SOL    MW4 3501   2.236   1.887   1.616  0.3123 -0.4181 -0.1057
  858SOL     OW 3502   2.448   2.007   1.477  0.0055 -0.4825 -0.2214
  858SOL    HW2 3503   2.377   1.958   1.518 -0.0194  0.1432  0.5141
  858SOL    HW3 3504   2.429   2.006   1.384 -1.5243  0.5463  0.0651
  858SOL    MW4 3505   2.436   2.000   1.470 -0.1993 -0.2644 -0.0865
  859SOL     OW 3506   2.460   2.276   1.588  0.4600 -0.0436 -0.5488
  859SOL    HW2 3507   2.441   2.261   1.681 -0.8470 -0.0497 -0.8059
  859SOL    HW3 3508   2.470   2.188   1.551  0.0411 -0.0641 -0.6087
  859SOL    MW4 3509   2.459   2.262   1.595  0.2322 -0.0472 -0.5906
  860SOL     OW 3510   2.265   2.452   1.467  0.3140 -0.0191 -0.4110
  860SOL    HW2 3511   2.335   2.392   1.493 -0.4351 -0.7315  0.0170
  860SOL    HW3 3512   2.185   2.412   1.503 -0.4219  0.3120 -1.6166
  860SOL    MW4 3513   2.264   2.439   1.475  0.1180 -0.0694 -0.5134
  861SOL     OW 3514   2.285   2.653   1.658 -0.4014  0.2730  0.4817
  861SOL    HW2 3515   2.265   2.577   1.603 -0.4631  0.0832  0.7651
  861SOL    HW3 3516   2.214   2.715   1.640 -0.1226  0.4340 -0.0678
  861SOL    MW4 3517   2.273   2.651   1.649 -0.3731  0.2694  0.4466
  862SOL     OW 3518   2.459   2.827   1.513  0.4902  0.1154 -0.2055
  862SOL    HW2 3519   2.435   2.909   1.556 -1.5228  0.3321 -1.6919
  862SOL    HW3 3520   2.403   2.761   1.555  1.3226 -0.3340  0.2148
  862SOL    MW4 3521   2.448   2.829   1.525  0.3345  0.0846 -0.3462
  863SOL     OW 3522   2.423   3.095   1.633 -0.1146  0.1594 -0.1667
  863SOL    HW2 3523   2.503   3.135   1.598 -0.8682  1.7307 -0.0830
  863SOL    HW3 3524   2.425   3.113   1.727 -1.0098  0.9673 -0.2978
  863SOL    MW4 3525   2.434   3.102   1.640 -0.3319  0.4735 -0.1730
  864SOL     OW 3526   2.203   3.272   1.515  0.1852 -0.1706  0.2584
  864SOL    HW2 3527   2.218   3.358   1.553  0.0553 -0.5491  1.1990
  864SOL    HW3 3528   2.250   3.212   1.573 -0.4817 -0.8228  0.1304
  864SOL    MW4 3529   2.211   3.275   1.528  0.0803 -0.3066  0.3656
  865SOL     OW 3530   2.256   3.513   1.605  0.2807  0.1366  0.2690
  865SOL    HW2 3531   2.247   3.518   1.700 -0.7221 -1.1202  0.2607
  865SOL    HW3 3532   2.343   3.549   1.586  1.2386 -1.2809  1.8383
  865SOL    MW4 3533   2.266   3.518   1.615  0.2747 -0.2165  0.4750
  866SOL     OW 3534   2.482   3.633   1.509  0.0402 -0.0627 -0.5916
  866SOL    HW2 3535   2.555   3.586   1.550 -0.2071  0.7621  0.7918
  866SOL    HW3 3536   2.475   3.715   1.557 -2.0617 -0.2986 -0.4275
  866SOL    MW4 3537   2.491   3.637   1.521 -0.2699  0.0150 -0.3875
  867SOL     OW 3538   2.451   3.893   1.656  0.0753  0.1211 -0.2722
  867SOL    HW2 3539   2.457   3.898   1.752  1.3822 -0.8617 -0.2800
  867SOL    HW3 3540   2.539   3.915   1.626 -0.4314  0.8106 -1.2800
  867SOL    MW4 3541   2.463   3.897   1.665  0.1810  0.0825 -0.4064
  868SOL     OW 3542   2.240   4.051   1.545 -0.3869  1.0967 -0.2830
  868SOL    HW2 3543   2.314   3.995   1.572 -0.5394  1.0049 -0.0558
  868SOL    HW3 3544   2.225   4.027   1.453  0.1637  1.4450 -0.4660
  868SOL    MW4 3545   2.248   4.040   1.536 -0.3345  1.1311 -0.2773
  869SOL     OW 3546   2.236   4.318   1.605  0.4359  0.0474 -0.6541
  869SOL    HW2 3547   2.324   4.347   1.580  0.5455  0.5741  0.3456
  869SOL    HW3 3548   2.236   4.224   1.585  1.5080 -0.1315  0.1193
  869SOL    MW4 3549   2.248   4.309   1.599  0.5915  0.0925 -0.4202
  870SOL     OW 3550   2.491   4.406   1.529  0.2475 -0.1823  0.1437
  870SOL    HW2 3551   2.483   4.498   1.554  1.9177 -0.0532  0.2515
  870SOL    HW3 3552   2.503   4.408   1.434 -0.6877 -0.3535  0.0177
  870SOL    MW4 3553   2.492   4.419   1.520  0.3443 -0.1879  0.1411
  871SOL     OW 3554   2.948   4.664   1.600 -0.3369  0.1327 -0.1509
  871SOL    HW2 3555   2.922   4.649   1.691 -1.2039 -0.5714 -0.5052
  871SOL    HW3 3556   2.868   4.692   1.556  0.3865  1.8906 -0.3901
  871SOL    MW4 3557   2.934   4.666   1.606 -0.3560  0.2713 -0.2292
  872SOL     OW 3558   2.951   0.495   1.531 -0.8120  0.1023 -0.0078
  872SOL    HW2 3559   2.869   0.453   1.557 -1.7181  1.8577 -0.0027
  872SOL    HW3 3560   2.940   0.587   1.555  1.3679  0.2649  0.4734
  872SOL    MW4 3561   2.939   0.501   1.538 -0.6440  0.3553  0.0563
  873SOL     OW 3562   2.498   0.533   1.514  0.0834 -0.0990  0.0066
  873SOL    HW2 3563   2.574   0.478   1.532  0.4237  0.5403  0.5627
  873SOL    HW3 3564   2.484   0.524   1.420  0.4712 -0.6999 -0.0011
  873SOL    MW4 3565   2.506   0.524   1.504  0.1795 -0.0939  0.0790
  874SOL     OW 3566   3.141   0.388   1.184  0.3469 -0.1040 -0.0196
  874SOL    HW2 3567   3.075   0.428   1.240 -0.4062 -1.6762  0.2145
  874SOL    HW3 3568   3.152   0.299   1.218  1.2562 -0.4548 -1.1884
  874SOL    MW4 3569   3.134   0.382   1.196  0.3676 -0.3577 -0.1429
  875SOL     OW 3570   2.928   0.758   1.599 -0.1138  0.0944 -0.1053
  875SOL    HW2 3571   2.912   0.749   1.693  0.6136  0.2916  0.0454
  875SOL    HW3 3572   2.866   0.825   1.570 -0.7552 -0.4039  0.1184
  875SOL    MW4 3573   2.918   0.766   1.608 -0.1025  0.0547 -0.0558
  876SOL     OW 3574   2.715   0.905   1.544 -0.5429  0.3546  0.0530
  876SOL    HW2 3575   2.636   0.877   1.589 -0.4020 -1.3163 -0.6896
  876SOL    HW3 3576   2.702   0.877   1.453  0.6173  0.6434 -0.2120
  876SOL    MW4 3577   2.703   0.898   1.538 -0.3712  0.1723 -0.0799
  877SOL     OW 3578   2.736   1.184   1.557  0.2568 -0.1656 -0.1536
  877SOL    HW2 3579   2.736   1.088   1.551  0.7121 -0.1779  0.0621
  877SOL    HW3 3580   2.645   1.208   1.541  0.0732 -0.6585  0.1242
  877SOL    MW4 3581   2.724   1.174   1.554  0.2928 -0.2323 -0.0886
  878SOL     OW 3582   2.977   1.283   1.447  0.1219 -0.3493 -0.1256
  878SOL    HW2 3583   3.040   1.246   1.508 -0.7692  2.0414  2.3578
  878SOL    HW3 3584   2.893   1.244   1.472 -0.5319  1.9314  1.3961
  878SOL    MW4 3585   2.974   1.273   1.458 -0.0820  0.2670  0.4028
  879SOL     OW 3586   2.911   1.496   1.605  0.1879  0.2237 -0.0885
  879SOL    HW2 3587   2.833   1.534   1.565  0.6779  0.4458 -0.8352
  879SOL    HW3 3588   2.923   1.412   1.560 -0.0130 -0.1263  0.5021
  879SOL    MW4 3589   2.903   1.490   1.594  0.2258  0.2069 -0.1091
  880SOL     OW 3590   2.710   1.634   1.444  0.4948  0.0258  0.4483
  880SOL    HW2 3591   2.711   1.727   1.468  1.1062  0.2844 -0.5637
  880SOL    HW3 3592   2.718   1.634   1.349 -0.1295 -1.0501  0.3988
  880SOL    MW4 3593   2.711   1.646   1.435  0.4928 -0.0820  0.3084
  881SOL     OW 3594   2.702   1.901   1.536  0.1390 -0.1157  0.1854
  881SOL    HW2 3595   2.707   1.908   1.632  0.6613  1.9868  0.0264
  881SOL    HW3 3596   2.620   1.945   1.513 -0.3459 -1.2525 -0.2901
  881SOL    MW4 3597   2.692   1.908   1.546  0.1438  0.0117  0.1017
  882SOL     OW 3598   2.930   2.047   1.480  0.0344  0.1164  0.1928
  882SOL    HW2 3599   2.921   2.123   1.537  0.1591  0.6987 -0.5472
  882SOL    HW3 3600   2.846   2.001   1.488 -0.3267  0.7445  0.0677
  882SOL    MW4 3601   2.917   2.051   1.488  0.0031  0.2763  0.0786
  883SOL     OW 3602   2.907   2.292   1.615 -0.0091 -0.1296  0.0206
  883SOL    HW2 3603   2.895   2.295   1.710 -1.6936 -0.9553 -0.1436
  883SOL    HW3 3604   2.823   2.321   1.579  0.2463 -0.8793 -1.2159
  883SOL    MW4 3605   2.894   2.296   1.622 -0.1976 -0.3374 -0.1644
  884SOL     OW 3606   2.697   2.405   1.490 -0.2964 -0.2539  0.1798
  884SOL    HW2 3607   2.705   2.499   1.502 -1.4194 -0.3210  1.5149
  884SOL    HW3 3608   2.606   2.385   1.511 -0.6113 -1.3695 -2.0452
  884SOL    MW4 3609   2.686   2.415   1.494 -0.4864 -0.4101  0.0623
  885SOL     OW 3610   2.692   2.673   1.544  0.3319  0.2036 -0.3236
  885SOL    HW2 3611   2.767   2.730   1.527  0.7190 -0.7008 -1.7639
  885SOL    HW3 3612   2.617   2.733   1.550  0.7320  0.8978 -1.8016
  885SOL    MW4 3613   2.692   2.689   1.542  0.4358  0.1760 -0.7086
  886SOL     OW 3614   2.920   2.854   1.528 -0.1450 -0.3325  0.2316
  886SOL    HW2 3615   2.999   2.819   1.569 -0.7826 -0.6906  1.1660
  886SOL    HW3 3616   2.916   2.945   1.559  0.1076 -0.1937 -0.1338
  886SOL    MW4 3617   2.930   2.862   1.538 -0.1955 -0.3617  0.3067
  887SOL     OW 3618   2.911   3.100   1.638  0.1656 -0.2063  0.5265
  887SOL    HW2 3619   2.940   3.091   1.729 -0.1735  0.0480  0.6593
  887SOL    HW3 3620   2.989   3.130   1.591  0.1958  0.1833  0.8280
  887SOL    MW4 3621   2.925   3.103   1.644  0.1249 -0.1211  0.5839
  888SOL     OW 3622   2.657   3.225   1.531 -0.1173 -0.4707 -0.3582
  888SOL    HW2 3623   2.724   3.182   1.584  0.0905  0.7250  0.3618
  888SOL    HW3 3624   2.686   3.212   1.440  1.8590  1.2374 -0.0164
  888SOL    MW4 3625   2.670   3.218   1.526  0.1707 -0.0875 -0.2182
  889SOL     OW 3626   2.707   3.488   1.575  0.1623  0.5673 -0.3392
  889SOL    HW2 3627   2.710   3.492   1.671  0.4795  1.4055 -0.3747
  889SOL    HW3 3628   2.673   3.401   1.555  0.5261  0.2222  0.5307
  889SOL    MW4 3629   2.703   3.477   1.585  0.2522  0.6325 -0.2291
  890SOL     OW 3630   2.940   3.605   1.473  0.1437  0.3052 -0.1800
  890SOL    HW2 3631   2.880   3.542   1.512  1.3259 -0.2161  0.8115
  890SOL    HW3 3632   2.931   3.591   1.379  0.8680 -1.8190  0.0337
  890SOL    MW4 3633   2.931   3.595   1.466  0.3948 -0.0439 -0.0211
  891SOL     OW 3634   2.936   3.846   1.589 -0.0712  0.2684  0.3679
  891SOL    HW2 3635   2.851   3.888   1.574  0.4516  1.0151 -0.5549
  891SOL    HW3 3636   2.933   3.766   1.538  0.5218  1.2722 -1.2715
  891SOL    MW4 3637   2.924   3.841   1.580  0.0761  0.4995  0.0297
  892SOL     OW 3638   2.698   3.973   1.550  0.0536 -0.1600  0.0826
  892SOL    HW2 3639   2.707   4.061   1.587  1.0905 -0.1587 -0.1375
  892SOL    HW3 3640   2.664   3.988   1.462 -0.9683 -0.0685  0.4842
  892SOL    MW4 3641   2.695   3.987   1.543  0.0556 -0.1481  0.1066
  893SOL     OW 3642   2.681   4.251   1.633  0.1834  0.1054  0.0493
  893SOL    HW2 3643   2.753   4.297   1.589 -2.8110  2.3384 -2.7241
  893SOL    HW3 3644   2.602   4.297   1.606 -2.3197 -1.8852  3.5212
  893SOL    MW4 3645   2.680   4.263   1.623 -0.5419  0.1373  0.1415
  894SOL     OW 3646   2.882   4.396   1.507 -0.0677  0.2833 -0.0403
  894SOL    HW2 3647   2.901   4.487   1.526  0.4499  0.6056 -1.9331
  894SOL    HW3 3648   2.883   4.391   1.411  0.4938 -1.8182  0.0427
  894SOL    MW4 3649   2.885   4.407   1.497  0.0744  0.0486 -0.2789
  895SOL     OW 3650   3.388   4.606   1.608 -0.2157 -0.1975  0.4340
  895SOL    HW2 3651   3.463   4.657   1.578  0.0326  0.1323  1.6041
  895SOL    HW3 3652   3.377   4.538   1.541 -1.1514  1.9433 -1.6149
  895SOL    MW4 3653   3.397   4.604   1.595 -0.3066  0.1287  0.3182
  896SOL     OW 3654   3.190   0.117   1.532  0.6130  0.1846 -0.0979
  896SOL    HW2 3655   3.266   0.062   1.551  0.1811 -0.7973 -1.1110
  896SOL    HW3 3656   3.116   0.072   1.573  0.2239 -0.1330 -1.1090
  896SOL    MW4 3657   3.190   0.104   1.540  0.5047  0.0132 -0.3650
  897SOL     OW 3658   3.182   0.371   1.647 -0.3659  0.4000 -0.1296
  897SOL    HW2 3659   3.195   0.284   1.609  1.0373  0.4188  0.2984
  897SOL    HW3 3660   3.091   0.394   1.624 -0.0579 -0.2653 -2.0944
  897SOL    MW4 3661   3.171   0.363   1.639 -0.1400  0.3147 -0.3324
  898SOL     OW 3662   3.385   0.528   1.540 -0.4904 -0.6100  0.1415
  898SOL    HW2 3663   3.309   0.483   1.576  0.0189 -1.9432 -0.4050
  898SOL    HW3 3664   3.372   0.525   1.445 -0.0318 -0.3724  0.0659
  898SOL    MW4 3665   3.374   0.522   1.532 -0.3626 -0.7545  0.0594
  899SOL     OW 3666   3.419   0.782   1.635 -0.3948 -0.3321 -0.3419
  899SOL    HW2 3667   3.422   0.763   1.729 -0.7077 -1.1375 -0.4898
  899SOL    HW3 3668   3.416   0.696   1.593  0.6327  0.0057 -1.1301
  899SOL    MW4 3669   3.419   0.768   1.642 -0.3004 -0.3938 -0.4654
  900SOL     OW 3670   3.171   0.826   1.482  0.2003 -0.1059 -0.0988
  900SOL    HW2 3671   3.232   0.804   1.552 -0.5257 -3.4059 -0.3821
  900SOL    HW3 3672   3.085   0.809   1.519 -0.2748 -0.2069 -1.2118
  900SOL    MW4 3673   3.168   0.821   1.496  0.0420 -0.5546 -0.2831
  901SOL     OW 3674   3.143   1.113   1.593  0.1807  0.0123  0.1242
  901SOL    HW2 3675   3.158   1.109   1.687 -1.9606 -0.0582  0.5002
  901SOL    HW3 3676   3.125   1.022   1.567  0.9411  0.0039 -0.3917
  901SOL    MW4 3677   3.142   1.100   1.602 -0.0014  0.0019  0.1057
  902SOL     OW 3678   3.344   1.275   1.465  0.1996  0.1270  0.2624
  902SOL    HW2 3679   3.425   1.236   1.498 -1.2237 -0.0275  3.6747
  902SOL    HW3 3680   3.275   1.214   1.490 -1.5170  2.5048  1.5717
  902SOL    MW4 3681   3.346   1.262   1.472 -0.2148  0.4203  0.8854
  903SOL     OW 3682   3.371   1.548   1.571  0.1900  0.0075 -0.3456
  903SOL    HW2 3683   3.347   1.553   1.664 -1.5346  0.3336 -0.7832
  903SOL    HW3 3684   3.365   1.455   1.549 -0.1835  0.0273 -0.3257
  903SOL    MW4 3685   3.367   1.537   1.580 -0.0868  0.0532 -0.4005
  904SOL     OW 3686   3.114   1.660   1.492  0.2606  0.0589 -0.0225
  904SOL    HW2 3687   3.202   1.632   1.515 -0.0440  0.3880  1.5529
  904SOL    HW3 3688   3.057   1.593   1.529 -0.1987  0.2008 -0.4642
  904SOL    MW4 3689   3.118   1.648   1.500  0.1600  0.1210  0.1271
  905SOL     OW 3690   3.109   1.908   1.638 -0.3841  0.0678 -0.1950
  905SOL    HW2 3691   3.098   1.821   1.600 -0.5436  0.1006 -0.2246
  905SOL    HW3 3692   3.048   1.963   1.590  0.3584  0.3863 -0.7879
  905SOL    MW4 3693   3.100   1.904   1.627 -0.3071  0.1141 -0.2772
  906SOL     OW 3694   3.343   2.049   1.561 -0.2139 -0.4297  0.0786
  906SOL    HW2 3695   3.267   2.009   1.605 -0.1618 -0.1830  0.3902
  906SOL    HW3 3696   3.318   2.050   1.468 -1.8887  2.4445  0.4922
  906SOL    MW4 3697   3.329   2.044   1.554 -0.4280 -0.0179  0.1743
  907SOL     OW 3698   3.336   2.327   1.617 -0.4046 -0.3201 -0.2524
  907SOL    HW2 3699   3.415   2.366   1.580 -1.4720  1.2139 -0.9849
  907SOL    HW3 3700   3.337   2.236   1.587  0.5995 -0.0596 -1.0297
  907SOL    MW4 3701   3.347   2.320   1.608 -0.4129 -0.0834 -0.4516
  908SOL     OW 3702   3.122   2.449   1.501  0.3540 -0.3331  0.8181
  908SOL    HW2 3703   3.190   2.403   1.550  1.1311  2.2604  2.2668
  908SOL    HW3 3704   3.040   2.413   1.536  0.9375 -1.9451  0.5775
  908SOL    MW4 3705   3.120   2.438   1.512  0.5336 -0.2036  0.9775
  909SOL     OW 3706   3.154   2.722   1.613 -0.4781 -0.0332  0.0065
  909SOL    HW2 3707   3.242   2.746   1.586 -0.9079  1.1228 -0.4161
  909SOL    HW3 3708   3.146   2.630   1.591  0.2805  0.1114 -0.8845
  909SOL    MW4 3709   3.164   2.713   1.607 -0.4346  0.1383 -0.1669
  910SOL     OW 3710   3.380   2.824   1.486 -0.4690 -0.7003  0.1162
  910SOL    HW2 3711   3.379   2.914   1.519  0.7278 -0.4911 -0.4030
  910SOL    HW3 3712   3.367   2.832   1.392 -0.1045 -1.0538  0.0334
  910SOL    MW4 3713   3.378   2.837   1.478 -0.2630 -0.7193  0.0368
  911SOL     OW 3714   3.378   3.084   1.594 -0.4303 -0.3679  0.2887
  911SOL    HW2 3715   3.352   3.123   1.677 -0.7035  2.0155 -0.8508
  911SOL    HW3 3716   3.444   3.144   1.559  1.8819 -2.9138  0.1420
  911SOL    MW4 3717   3.383   3.097   1.600 -0.1612 -0.3893  0.1190
  912SOL     OW 3718   3.152   3.214   1.510  0.3826 -0.4356 -0.1848
  912SOL    HW2 3719   3.233   3.167   1.527 -0.3323 -1.9684 -0.9482
  912SOL    HW3 3720   3.145   3.216   1.414  0.1218  0.7604 -0.1543
  912SOL    MW4 3721   3.162   3.208   1.500  0.2539 -0.4799 -0.2815
  913SOL     OW 3722   3.166   3.472   1.588  0.2582  0.1098 -0.2528
  913SOL    HW2 3723   3.152   3.377   1.583 -1.3946  0.2871  0.5785
  913SOL    HW3 3724   3.092   3.510   1.541 -1.5569  1.0655  3.1453
  913SOL    MW4 3725   3.154   3.464   1.581 -0.1996  0.2589  0.3052
  914SOL     OW 3726   3.368   3.623   1.497 -0.1354  0.3978 -0.8995
  914SOL    HW2 3727   3.444   3.578   1.534 -0.2613  0.6430 -0.3369
  914SOL    HW3 3728   3.293   3.573   1.528 -0.2056  0.1857 -1.4125
  914SOL    MW4 3729   3.368   3.611   1.506 -0.1612  0.4022 -0.8929
  915SOL     OW 3730   3.369   3.884   1.594  0.3243 -0.1305  0.2845
  915SOL    HW2 3731   3.285   3.909   1.555  0.1968  0.0898  0.6985
  915SOL    HW3 3732   3.379   3.791   1.573  0.0050 -0.1417  0.1862
  915SOL    MW4 3733   3.359   3.875   1.586  0.2654 -0.1030  0.3263
  916SOL     OW 3734   3.132   4.009   1.475 -0.2254 -0.1203 -0.1112
  916SOL    HW2 3735   3.126   4.096   1.514 -1.0953 -0.4324  0.4752
  916SOL    HW3 3736   3.069   3.956   1.524 -2.0683 -0.2824 -2.5704
  916SOL    MW4 3737   3.123   4.013   1.487 -0.5834 -0.1826 -0.3583
  917SOL     OW 3738   3.117   4.267   1.569  0.5506  0.5912  0.1532
  917SOL    HW2 3739   3.130   4.272   1.664 -0.4307  1.5179  0.2373
  917SOL    HW3 3740   3.042   4.323   1.551 -1.7547 -2.5736 -0.6959
  917SOL    MW4 3741   3.109   4.275   1.579  0.1168  0.2956  0.0522
  918SOL     OW 3742   3.359   4.368   1.473  0.6155 -0.1070 -0.2537
  918SOL    HW2 3743   3.271   4.333   1.485  1.6782 -2.7111  0.2903
  918SOL    HW3 3744   3.371   4.369   1.378  0.3836 -0.7139 -0.2903
  918SOL    MW4 3745   3.349   4.364   1.462  0.7250 -0.5312 -0.1868
  919SOL     OW 3746   3.841   4.661   1.603  0.3291  0.5469  0.1573
  919SOL    HW2 3747   3.862   4.670   1.696  1.8766  2.1221 -0.3093
  919SOL    HW3 3748   3.907   4.714   1.558 -0.8825  0.4589 -1.8008
  919SOL    MW4 3749   3.852   4.669   1.609  0.3731  0.7434 -0.1626
  920SOL     OW 3750   3.606   0.116   1.546 -0.2663  0.0914 -0.0767
  920SOL    HW2 3751   3.691   0.084   1.576  0.1742  0.6170 -0.7637
  920SOL    HW3 3752   3.615   0.124   1.451 -1.3888 -0.7614 -0.2721
  920SOL    MW4 3753   3.619   0.113   1.538 -0.3564  0.0482 -0.1931
  921SOL     OW 3754   3.600   0.387   1.644  0.2901  0.0188 -0.0313
  921SOL    HW2 3755   3.619   0.299   1.612 -0.6319  0.0528 -0.7124
  921SOL    HW3 3756   3.527   0.416   1.590  0.6443  1.2373  0.1307
  921SOL    MW4 3757   3.593   0.379   1.632  0.2151  0.1841 -0.0998
  922SOL     OW 3758   3.807   0.546   1.563  0.8060  0.0849  0.0048
  922SOL    HW2 3759   3.723   0.503   1.580  1.2133 -0.6280  0.2256
  922SOL    HW3 3760   3.818   0.540   1.468  1.4731 -1.4565  0.1706
  922SOL    MW4 3761   3.797   0.539   1.552  0.9477 -0.2126  0.0557
  923SOL     OW 3762   3.813   0.811   1.641  0.3141  0.1126  0.3216
  923SOL    HW2 3763   3.746   0.845   1.582 -0.2686 -0.4242  0.6582
  923SOL    HW3 3764   3.825   0.720   1.614  1.8456  0.5644 -0.5615
  923SOL    MW4 3765   3.806   0.803   1.630  0.4396  0.1014  0.2493
  924SOL     OW 3766   3.619   0.917   1.480 -0.6890  0.2276  0.0599
  924SOL    HW2 3767   3.560   0.850   1.515 -0.7289  0.4375  0.4039
  924SOL    HW3 3768   3.617   0.905   1.385 -0.1237 -0.7336  0.1669
  924SOL    MW4 3769   3.611   0.907   1.472 -0.6196  0.1285  0.1194
  925SOL     OW 3770   3.595   1.173   1.584 -0.4328 -0.0317 -0.0550
  925SOL    HW2 3771   3.673   1.220   1.555 -0.2005 -0.4019 -0.0338
  925SOL    HW3 3772   3.609   1.083   1.555 -0.9092 -0.0725 -0.1613
  925SOL    MW4 3773   3.607   1.167   1.577 -0.4652 -0.0858 -0.0663
  926SOL     OW 3774   3.812   1.328   1.531  0.3753  0.1857 -0.0308
  926SOL    HW2 3775   3.887   1.284   1.571  0.7498  0.7924 -0.0731
  926SOL    HW3 3776   3.817   1.418   1.562  0.8859  0.7699 -1.7313
  926SOL    MW4 3777   3.823   1.334   1.540  0.4923  0.3427 -0.2607
  927SOL     OW 3778   3.818   1.583   1.641  0.1508 -0.1659 -0.5671
  927SOL    HW2 3779   3.822   1.592   1.736  1.0971  1.1142 -0.7049
  927SOL    HW3 3780   3.740   1.632   1.616 -0.4563 -1.0411 -0.3970
  927SOL    MW4 3781   3.809   1.591   1.650  0.1957 -0.1124 -0.5628
  928SOL     OW 3782   3.600   1.701   1.509  0.5842  0.1406 -0.1774
  928SOL    HW2 3783   3.540   1.636   1.543  2.1698 -1.2941 -0.0538
  928SOL    HW3 3784   3.591   1.696   1.414 -0.1038  0.5409 -0.1367
  928SOL    MW4 3785   3.591   1.692   1.501  0.7029  0.0041 -0.1558
  929SOL     OW 3786   3.607   1.951   1.638  0.4433 -0.1963 -0.3100
  929SOL    HW2 3787   3.616   1.870   1.588  1.9047  0.6099 -1.3989
  929SOL    HW3 3788   3.523   1.988   1.610  0.0540 -1.0181 -0.2445
  929SOL    MW4 3789   3.597   1.946   1.628  0.5848 -0.1984 -0.4449
  930SOL     OW 3790   3.830   2.050   1.512 -0.3642  0.2155  0.2657
  930SOL    HW2 3791   3.828   2.144   1.531  1.5353 -0.2012  2.8927
  930SOL    HW3 3792   3.771   2.012   1.576 -0.4145 -0.4556 -0.1816
  930SOL    MW4 3793   3.822   2.058   1.523 -0.1204  0.0720  0.5534
  931SOL     OW 3794   3.798   2.326   1.589  0.1962  0.1772  0.0993
  931SOL    HW2 3795   3.804   2.318   1.685  1.1329  3.5064  0.3502
  931SOL    HW3 3796   3.867   2.388   1.565 -0.0640 -0.5733 -2.7549
  931SOL    MW4 3797   3.808   2.333   1.599  0.2854  0.5176 -0.2443
  932SOL     OW 3798   3.574   2.441   1.480  0.4553  0.1981  0.3572
  932SOL    HW2 3799   3.580   2.521   1.532  1.2214 -0.1194  0.7744
  932SOL    HW3 3800   3.637   2.381   1.522 -1.3555 -1.2185  1.0916
  932SOL    MW4 3801   3.583   2.443   1.493  0.3173 -0.0308  0.5093
  933SOL     OW 3802   3.577   2.686   1.617  0.3883  0.0346 -0.0242
  933SOL    HW2 3803   3.566   2.694   1.712  0.3708  0.3449 -0.0522
  933SOL    HW3 3804   3.503   2.736   1.581  1.2803  1.2341 -0.2129
  933SOL    MW4 3805   3.566   2.694   1.625  0.5035  0.2339 -0.0527
  934SOL     OW 3806   3.768   2.829   1.466 -0.0233 -0.4265 -0.6147
  934SOL    HW2 3807   3.848   2.799   1.510  0.5666 -0.4766 -1.6775
  934SOL    HW3 3808   3.697   2.789   1.515  0.6663 -1.4850 -0.4558
  934SOL    MW4 3809   3.769   2.820   1.478  0.1454 -0.5727 -0.7339
  935SOL     OW 3810   3.779   3.076   1.578  0.3871 -0.1955  0.2577
  935SOL    HW2 3811   3.863   3.117   1.556  0.3515 -0.1672  0.1710
  935SOL    HW3 3812   3.783   2.990   1.538 -0.2437  0.3905 -1.0889
  935SOL    MW4 3813   3.791   3.070   1.570  0.2990 -0.1147  0.0685
  936SOL     OW 3814   3.570   3.248   1.473 -0.1678 -0.0642 -0.3872
  936SOL    HW2 3815   3.645   3.194   1.499 -0.0888 -0.1768 -0.8533
  936SOL    HW3 3816   3.568   3.243   1.378  1.0990  2.4802 -0.5757
  936SOL    MW4 3817   3.580   3.240   1.464  0.0098  0.2568 -0.4736
  937SOL     OW 3818   3.580   3.502   1.615  0.6066 -0.4175 -0.5726
  937SOL    HW2 3819   3.646   3.552   1.567  0.0429 -0.4543 -1.3895
  937SOL    HW3 3820   3.556   3.431   1.555  1.4411 -1.7115  0.5919
  937SOL    MW4 3821   3.586   3.499   1.601  0.6423 -0.5929 -0.5267
  938SOL     OW 3822   3.795   3.638   1.488  0.2059 -0.3172  0.3121
  938SOL    HW2 3823   3.869   3.595   1.530 -0.0014  1.0446  2.1152
  938SOL    HW3 3824   3.811   3.732   1.500 -1.2788  0.0113 -0.1847
  938SOL    MW4 3825   3.807   3.645   1.495 -0.0172 -0.0944  0.4846
  939SOL     OW 3826   3.798   3.890   1.630 -0.3590 -0.2229 -0.2412
  939SOL    HW2 3827   3.887   3.904   1.596 -0.6112  0.5520 -0.5860
  939SOL    HW3 3828   3.743   3.948   1.578 -1.0888 -0.7811 -0.0953
  939SOL    MW4 3829   3.803   3.900   1.619 -0.4885 -0.1945 -0.2674
  940SOL     OW 3830   3.588   3.999   1.443 -0.1353 -0.1973  0.2549
  940SOL    HW2 3831   3.595   4.081   1.492 -0.6823  0.5618 -0.9016
  940SOL    HW3 3832   3.515   3.953   1.483  0.2008 -0.1431  0.9400
  940SOL    MW4 3833   3.579   4.004   1.455 -0.1628 -0.0901  0.1926
  941SOL     OW 3834   3.592   4.251   1.587  0.6376 -0.1221 -0.2342
  941SOL    HW2 3835   3.575   4.243   1.681 -1.0110  0.0050 -0.5113
  941SOL    HW3 3836   3.513   4.292   1.551  1.1114 -0.4738 -1.7203
  941SOL    MW4 3837   3.579   4.255   1.594  0.4826 -0.1516 -0.4669
  942SOL     OW 3838   3.804   4.414   1.490  0.6418 -0.4743  0.4828
  942SOL    HW2 3839   3.805   4.503   1.526  1.0440 -1.0644  1.9774
  942SOL    HW3 3840   3.734   4.370   1.539 -0.9865 -0.3918 -1.7284
  942SOL    MW4 3841   3.795   4.420   1.501  0.4799 -0.5412  0.3883
  943SOL     OW 3842   4.220   4.649   1.583 -0.6311 -0.4414 -0.5518
  943SOL    HW2 3843   4.212   4.633   1.677  0.6909 -0.9913 -0.5111
  943SOL    HW3 3844   4.225   4.561   1.545  0.1843 -0.2005 -1.0002
  943SOL    MW4 3845   4.220   4.635   1.590 -0.3495 -0.4821 -0.6055
  944SOL     OW 3846   4.018   0.161   1.470 -0.1548 -0.5522  0.0691
  944SOL    HW2 3847   4.025   0.240   1.524 -0.5713  0.4248 -1.2577
  944SOL    HW3 3848   4.094   0.108   1.495  2.2043  1.8987 -1.5686
  944SOL    MW4 3849   4.029   0.165   1.480  0.1016 -0.0999 -0.3222
  945SOL     OW 3850   4.031   0.396   1.598  0.0224  0.3560 -0.0993
  945SOL    HW2 3851   4.061   0.411   1.687  1.3557  1.1426 -0.6660
  945SOL    HW3 3852   3.946   0.440   1.593 -1.2673 -1.8892  1.5203
  945SOL    MW4 3853   4.024   0.404   1.609  0.0281  0.1635  0.0396
  946SOL     OW 3854   4.251   0.529   1.520  0.2341 -0.0470 -0.1394
  946SOL    HW2 3855   4.171   0.487   1.554 -0.5776  2.6246  1.3630
  946SOL    HW3 3856   4.322   0.474   1.553 -0.9085 -2.1021 -0.9616
  946SOL    MW4 3857   4.250   0.516   1.529 -0.0234  0.0344 -0.0498
  947SOL     OW 3858   4.259   0.788   1.622  0.1066  0.1518 -1.0952
  947SOL    HW2 3859   4.255   0.698   1.591 -0.9175 -0.1061 -0.2173
  947SOL    HW3 3860   4.351   0.813   1.609  0.7126 -1.4574 -0.0882
  947SOL    MW4 3861   4.271   0.780   1.616  0.0510 -0.0945 -0.8466
  948SOL     OW 3862   4.033   0.926   1.535 -0.0717 -0.4432  0.0097
  948SOL    HW2 3863   4.116   0.882   1.555 -0.3004 -0.2639  1.4168
  948SOL    HW3 3864   3.970   0.884   1.593 -1.1545 -1.1536 -1.6451
  948SOL    MW4 3865   4.036   0.914   1.545 -0.2446 -0.5133 -0.0230
  949SOL     OW 3866   4.029   1.201   1.621  0.1831 -0.0061 -0.4108
  949SOL    HW2 3867   4.024   1.191   1.716 -0.7088 -0.1974 -0.4759
  949SOL    HW3 3868   4.037   1.111   1.588 -0.6213 -0.0185 -0.5789
  949SOL    MW4 3869   4.030   1.188   1.629 -0.0405 -0.0330 -0.4416
  950SOL     OW 3870   4.265   1.295   1.532 -0.2404 -0.3589 -0.3178
  950SOL    HW2 3871   4.179   1.266   1.562 -1.0583  0.1821 -2.0841
  950SOL    HW3 3872   4.265   1.390   1.546 -0.1161 -0.2947 -0.7243
  950SOL    MW4 3873   4.254   1.304   1.538 -0.3319 -0.2791 -0.6045
  951SOL     OW 3874   4.252   1.560   1.618 -0.4232  0.0440 -0.2300
  951SOL    HW2 3875   4.254   1.556   1.713 -1.1162 -1.4752 -0.2497
  951SOL    HW3 3876   4.332   1.606   1.593  0.7575 -1.2745  1.0262
  951SOL    MW4 3877   4.263   1.565   1.627 -0.3591 -0.3304 -0.0668
  952SOL     OW 3878   4.036   1.681   1.485 -0.3347 -0.2953  0.0371
  952SOL    HW2 3879   4.098   1.630   1.538 -0.5223  0.5156  1.0513
  952SOL    HW3 3880   3.950   1.662   1.524 -0.7311 -1.3453 -1.3037
  952SOL    MW4 3881   4.033   1.672   1.497 -0.4120 -0.3270 -0.0062
  953SOL     OW 3882   4.050   1.943   1.629 -0.1957  0.1402 -0.4061
  953SOL    HW2 3883   4.055   1.869   1.569  0.1229  0.3361 -0.6238
  953SOL    HW3 3884   3.969   1.988   1.603 -0.4617 -0.2095 -0.1802
  953SOL    MW4 3885   4.040   1.940   1.617 -0.1888  0.1199 -0.4051
  954SOL     OW 3886   4.272   2.073   1.501  0.4889 -0.0703 -0.1303
  954SOL    HW2 3887   4.191   2.032   1.532  0.0907  1.3814  0.8167
  954SOL    HW3 3888   4.267   2.067   1.406  0.0966 -1.5510 -0.0211
  954SOL    MW4 3889   4.260   2.067   1.493  0.3848 -0.0739  0.0091
  955SOL     OW 3890   4.242   2.337   1.596  0.5607  0.2483  0.0997
  955SOL    HW2 3891   4.260   2.342   1.690  1.5804  1.4760 -0.1368
  955SOL    HW3 3892   4.258   2.246   1.573  3.2692  0.5564  0.5654
  955SOL    MW4 3893   4.246   2.326   1.606  1.0524  0.4508  0.1299
  956SOL     OW 3894   4.008   2.464   1.500  0.0602 -0.1448  0.2045
  956SOL    HW2 3895   4.001   2.548   1.546  0.1715  0.1169 -0.2555
  956SOL    HW3 3896   4.087   2.424   1.534 -0.2649 -0.2884  0.7955
  956SOL    MW4 3897   4.017   2.470   1.510  0.0319 -0.1292  0.2218
  957SOL     OW 3898   3.993   2.737   1.608 -0.2115  0.0592 -0.5474
  957SOL    HW2 3899   3.992   2.729   1.704 -1.6855 -0.9487 -0.6263
  957SOL    HW3 3900   4.081   2.770   1.588  1.1192 -2.3679  0.9700
  957SOL    MW4 3901   4.004   2.740   1.618 -0.2303 -0.3941 -0.3574
  958SOL     OW 3902   4.243   2.815   1.525  0.0882 -0.2030  0.0750
  958SOL    HW2 3903   4.240   2.907   1.551  0.8731  0.0431 -0.6857
  958SOL    HW3 3904   4.248   2.817   1.430  0.5575 -1.0192  0.0769
  958SOL    MW4 3905   4.244   2.828   1.516  0.2542 -0.2782 -0.0250
  959SOL     OW 3906   4.244   3.082   1.599 -0.7505  0.0300  0.2775
  959SOL    HW2 3907   4.246   3.118   1.687  1.2226 -0.8975  0.6460
  959SOL    HW3 3908   4.317   3.124   1.554 -0.1975 -1.3599 -0.1497
  959SOL    MW4 3909   4.254   3.092   1.605 -0.4172 -0.2754  0.2699
  960SOL     OW 3910   4.028   3.222   1.513 -0.1915  0.1456  0.7703
  960SOL    HW2 3911   4.040   3.312   1.543 -0.8377  0.1327  1.0765
  960SOL    HW3 3912   4.106   3.175   1.546  0.0630  0.5544  0.7509
  960SOL    MW4 3913   4.040   3.228   1.522 -0.2427  0.1979  0.8082
  961SOL     OW 3914   4.012   3.516   1.601  0.7284 -0.2032 -0.0995
  961SOL    HW2 3915   4.032   3.530   1.693 -1.1209  1.7280  0.0460
  961SOL    HW3 3916   4.090   3.545   1.555  0.6542  1.4045  0.7438
  961SOL    MW4 3917   4.025   3.522   1.607  0.4749  0.2637  0.0310
  962SOL     OW 3918   4.280   3.602   1.523  0.7027 -0.2878  0.0933
  962SOL    HW2 3919   4.278   3.694   1.549  0.2975 -0.4045  0.4713
  962SOL    HW3 3920   4.276   3.604   1.427  1.1826  0.1051  0.0789
  962SOL    MW4 3921   4.279   3.614   1.514  0.7124 -0.2515  0.1411
  963SOL     OW 3922   4.299   3.852   1.611 -0.4400  0.0403  0.1144
  963SOL    HW2 3923   4.211   3.889   1.600 -0.5988 -0.2483  0.4215
  963SOL    HW3 3924   4.357   3.921   1.580 -0.7609  0.3439  0.1780
  963SOL    MW4 3925   4.295   3.866   1.605 -0.5031  0.0424  0.1633
  964SOL     OW 3926   4.048   3.960   1.535  0.1207  0.0786 -0.0212
  964SOL    HW2 3927   4.031   4.040   1.584  2.2123  0.7594 -0.3437
  964SOL    HW3 3928   4.032   3.984   1.443  0.3835  0.0382 -0.0799
  964SOL    MW4 3929   4.044   3.974   1.529  0.4315  0.1631 -0.0715
  965SOL     OW 3930   3.996   4.229   1.586  0.4344  0.1824 -0.6580
  965SOL    HW2 3931   3.992   4.251   1.679 -0.2701  1.2605 -0.9320
  965SOL    HW3 3932   3.930   4.286   1.546 -1.9136 -2.9018 -1.3269
  965SOL    MW4 3933   3.987   4.240   1.593  0.0317 -0.0830 -0.7825
  966SOL     OW 3934   4.235   4.385   1.493  0.2019 -0.0792 -0.1307
  966SOL    HW2 3935   4.147   4.357   1.516  0.1162  0.9921  0.9220
  966SOL    HW3 3936   4.240   4.376   1.398 -0.6623 -1.2034 -0.0676
  966SOL    MW4 3937   4.224   4.380   1.484  0.0768 -0.0863  0.0166
  967SOL     OW 3938   0.195   4.598   1.872  0.1968  0.1033 -0.5608
  967SOL    HW2 3939   0.268   4.654   1.897  0.2548 -0.3998  0.4604
  967SOL    HW3 3940   0.183   4.612   1.779  0.2617  1.7414 -0.3247
  967SOL    MW4 3941   0.203   4.607   1.863  0.2130  0.2532 -0.3948
  968SOL     OW 3942   4.471   0.080   1.984 -0.3002 -0.1429  0.1053
  968SOL    HW2 3943   4.486   0.167   1.947  1.6847 -0.2036  0.7124
  968SOL    HW3 3944   4.542   0.026   1.949  0.3838 -0.7225  2.2794
  968SOL    MW4 3945   4.482   0.084   1.974  0.0515 -0.2274  0.4723
  969SOL     OW 3946   0.012   0.317   1.874 -0.2662 -0.1128  0.2604
  969SOL    HW2 3947  -0.065   0.368   1.899 -1.2495 -1.0772 -0.7699
  969SOL    HW3 3948   0.087   0.370   1.902 -1.2435  2.3766 -1.6947
  969SOL    MW4 3949   0.012   0.330   1.881 -0.5248  0.0884 -0.1335
  970SOL     OW 3950   0.220   0.504   1.962  0.1149  0.0348 -0.2716
  970SOL    HW2 3951   0.303   0.475   1.924  0.2744  1.1395 -0.8031
  970SOL    HW3 3952   0.226   0.600   1.963 -1.7094  0.2002 -1.6522
  970SOL    MW4 3953   0.232   0.513   1.957 -0.1048  0.2024 -0.5240
  971SOL     OW 3954   0.243   0.782   1.930 -0.3069 -0.1724 -0.0855
  971SOL    HW2 3955   0.328   0.808   1.965  0.1167 -2.2830  0.4960
  971SOL    HW3 3956   0.258   0.770   1.836 -0.1259  0.1367 -0.0955
  971SOL    MW4 3957   0.256   0.784   1.922 -0.2272 -0.4101 -0.0100
  972SOL     OW 3958   0.002   0.907   2.016  0.2984  0.4754 -0.0010
  972SOL    HW2 3959  -0.072   0.859   1.980 -0.5037  1.6712  0.0196
  972SOL    HW3 3960   0.079   0.857   1.990 -0.5749 -1.4350  1.0034
  972SOL    MW4 3961   0.002   0.894   2.008  0.0774  0.3811  0.1340
  973SOL     OW 3962   4.479   1.185   1.930 -0.0722 -0.5081 -0.1335
  973SOL    HW2 3963   4.403   1.240   1.948 -0.1608 -0.2983 -1.1186
  973SOL    HW3 3964   4.460   1.102   1.974 -0.5162 -0.1857  0.2833
  973SOL    MW4 3965   4.467   1.181   1.938 -0.1421 -0.4377 -0.2085
  974SOL     OW 3966   0.223   1.294   1.949 -0.0136 -0.0980  0.2054
  974SOL    HW2 3967   0.221   1.388   1.930 -0.9564  0.4182  2.7194
  974SOL    HW3 3968   0.131   1.267   1.943  0.0255 -0.4788  1.2312
  974SOL    MW4 3969   0.210   1.303   1.945 -0.1328 -0.0802  0.6725
  975SOL     OW 3970   0.257   1.564   1.892  0.1690  0.3147 -0.0488
  975SOL    HW2 3971   0.326   1.614   1.936  0.6918  0.1613 -0.6904
  975SOL    HW3 3972   0.175   1.601   1.926  0.5561  1.3216 -0.2016
  975SOL    MW4 3973   0.255   1.576   1.902  0.2890  0.4274 -0.1534
  976SOL     OW 3974   4.483   1.671   1.982 -0.4039  0.4282 -0.0781
  976SOL    HW2 3975   4.474   1.672   2.077 -1.2082  0.0021 -0.1435
  976SOL    HW3 3976   4.396   1.645   1.950 -0.1753  0.6855 -0.9302
  976SOL    MW4 3977   4.470   1.668   1.990 -0.4797  0.4060 -0.1990
  977SOL     OW 3978   0.004   1.937   1.916 -0.1138  0.0899 -0.2116
  977SOL    HW2 3979  -0.074   1.977   1.955 -0.1088 -0.0731 -0.0324
  977SOL    HW3 3980   0.000   1.845   1.944  0.4377  0.2110  0.2564
  977SOL    MW4 3981  -0.007   1.930   1.925 -0.0401  0.0844 -0.1262
  978SOL     OW 3982   0.251   2.049   1.976 -0.2722  0.4022  0.4167
  978SOL    HW2 3983   0.239   2.139   1.946  0.9678  0.2691 -0.5147
  978SOL    HW3 3984   0.175   2.002   1.941 -0.7760  1.0215  0.6682
  978SOL    MW4 3985   0.239   2.055   1.968 -0.1751  0.4661  0.3270
  979SOL     OW 3986   0.213   2.304   1.868  0.6142  0.4025  0.2141
  979SOL    HW2 3987   0.288   2.355   1.897 -0.0273  1.7816 -0.5097
  979SOL    HW3 3988   0.139   2.339   1.919  0.3271 -0.4301  0.3752
  979SOL    MW4 3989   0.213   2.315   1.879  0.4917  0.4749  0.1398
  980SOL     OW 3990   4.489   2.434   2.006  0.3627 -0.1266  0.1269
  980SOL    HW2 3991   4.458   2.435   2.096  1.2084  0.9337  0.4138
  980SOL    HW3 3992   4.492   2.526   1.980  0.2582 -0.4115 -0.9383
  980SOL    MW4 3993   4.486   2.446   2.014  0.4606 -0.0243  0.0241
  981SOL     OW 3994   4.452   2.688   1.885  0.2634  0.1009 -0.0742
  981SOL    HW2 3995   4.382   2.750   1.906 -0.2658 -0.0729 -1.3038
  981SOL    HW3 3996   4.444   2.672   1.791  0.3006 -1.9282  0.2250
  981SOL    MW4 3997   4.442   2.694   1.875  0.1984 -0.1898 -0.1969
  982SOL     OW 3998   0.204   2.802   1.980  0.3309  0.3638  0.0565
  982SOL    HW2 3999   0.211   2.894   1.953  0.1618  1.0314  2.1589
  982SOL    HW3 4000   0.119   2.774   1.947 -0.3364  1.4631  0.7912
  982SOL    MW4 4001   0.194   2.811   1.972  0.2206  0.5968  0.4309
  983SOL     OW 4002   0.211   3.074   1.902 -0.2631  0.0439  0.1227
  983SOL    HW2 4003   0.276   3.139   1.927 -2.0528  1.7275  0.5195
  983SOL    HW3 4004   0.209   3.076   1.807 -0.8788  1.1424  0.1592
  983SOL    MW4 4005   0.219   3.083   1.893 -0.5805  0.4110  0.1799
  984SOL     OW 4006   4.482   3.234   2.014 -0.5430 -0.1222  0.0661
  984SOL    HW2 4007   4.403   3.198   1.974  1.5176 -2.0207 -2.4108
  984SOL    HW3 4008   4.555   3.192   1.968  1.9611  0.1274  3.5710
  984SOL    MW4 4009   4.481   3.224   2.002  0.0592 -0.3397  0.2015
  985SOL     OW 4010   4.468   3.500   1.902 -0.0904  0.5839 -0.0650
  985SOL    HW2 4011   4.534   3.554   1.945  0.0548  1.2829 -1.1364
  985SOL    HW3 4012   4.480   3.413   1.939  1.0822  0.8324  0.1501
  985SOL    MW4 4013   4.478   3.495   1.912  0.0830  0.7088 -0.1779
  986SOL     OW 4014   0.205   3.629   2.014 -0.3613 -0.0755 -1.0691
  986SOL    HW2 4015   0.215   3.611   2.107 -0.8238 -0.2277 -1.0512
  986SOL    HW3 4016   0.284   3.591   1.974 -0.0094  0.2681 -0.7064
  986SOL    MW4 4017   0.217   3.621   2.021 -0.3759 -0.0503 -1.0190
  987SOL     OW 4018   0.246   3.855   1.876 -0.0136 -0.0913 -0.1828
  987SOL    HW2 4019   0.328   3.894   1.906 -0.7986  1.4281  0.0339
  987SOL    HW3 4020   0.231   3.783   1.936  1.2381 -0.4851 -0.3180
  987SOL    MW4 4021   0.255   3.851   1.888  0.0480  0.0572 -0.1720
  988SOL     OW 4022   0.018   4.000   1.988 -0.5126  0.3506  0.2484
  988SOL    HW2 4023   0.013   4.083   1.941 -1.2770  0.1502 -0.0281
  988SOL    HW3 4024   0.095   3.956   1.952  0.8015  1.5890  1.4648
  988SOL    MW4 4025   0.027   4.005   1.977 -0.4401  0.4873  0.3724
  989SOL     OW 4026   0.013   4.246   1.862  0.2641 -0.2827 -0.2514
  989SOL    HW2 4027  -0.060   4.299   1.892 -0.5434 -1.2792 -0.4421
  989SOL    HW3 4028   0.090   4.289   1.900 -0.3070  1.4197 -0.9933
  989SOL    MW4 4029   0.014   4.259   1.871  0.0822 -0.1893 -0.3744
  990SOL     OW 4030   0.247   4.339   1.967 -0.0138 -0.2938  0.1995
  990SOL    HW2 4031   0.259   4.354   2.061 -0.1211 -0.6732  0.2715
  990SOL    HW3 4032   0.225   4.426   1.932 -0.9273 -0.3290  0.6698
  990SOL    MW4 4033   0.246   4.352   1.975 -0.1485 -0.3486  0.2711
  991SOL     OW 4034   0.655   0.008   1.878  0.9769  0.2140  0.1646
  991SOL    HW2 4035   0.664  -0.084   1.904 -1.3374 -0.0161  0.2680
  991SOL    HW3 4036   0.647   0.005   1.783  1.7497  0.4001  0.0879
  991SOL    MW4 4037   0.655  -0.005   1.869  0.7735  0.2084  0.1682
  992SOL     OW 4038   0.405   0.105   1.927 -0.0429  0.2434  0.5766
  992SOL    HW2 4039   0.418   0.185   1.876  0.7306 -1.0243 -1.2735
  992SOL    HW3 4040   0.487   0.056   1.916 -0.3125 -0.5721  2.0830
  992SOL    MW4 4041   0.418   0.109   1.919  0.0236 -0.0314  0.5312
  993SOL     OW 4042   0.433   0.370   1.825 -0.8055  0.2157 -0.5334
  993SOL    HW2 4043   0.520   0.406   1.847 -1.3859  0.7671  0.9734
  993SOL    HW3 4044   0.425   0.382   1.731 -0.0737  2.0723 -0.3831
  993SOL    MW4 4045   0.444   0.376   1.816 -0.7855  0.5334 -0.3148
  994SOL     OW 4046   0.680   0.483   1.938 -0.3283  0.5928  0.0557
  994SOL    HW2 4047   0.675   0.468   2.032 -1.9412 -0.4196 -0.1794
  994SOL    HW3 4048   0.767   0.452   1.913 -0.0139  0.5866  1.1510
  994SOL    MW4 4049   0.691   0.477   1.947 -0.4997  0.4584  0.1692
  995SOL     OW 4050   0.667   0.750   1.862 -0.4850 -0.1039  0.2489
  995SOL    HW2 4051   0.747   0.791   1.895 -1.0162 -0.0090  1.4489
  995SOL    HW3 4052   0.676   0.658   1.887 -0.0823 -0.3815 -0.9132
  995SOL    MW4 4053   0.679   0.743   1.870 -0.5019 -0.1280  0.2540
  996SOL     OW 4054   0.480   0.919   1.992 -0.4729  0.0184 -0.0525
  996SOL    HW2 4055   0.474   1.006   1.955  0.2726 -0.2161 -0.7194
  996SOL    HW3 4056   0.543   0.873   1.938 -0.2988 -0.7090  0.7456
  996SOL    MW4 4057   0.487   0.924   1.980 -0.3516 -0.1085 -0.0353
  997SOL     OW 4058   0.439   1.157   1.846 -0.4170  0.0507 -0.3542
  997SOL    HW2 4059   0.359   1.207   1.866 -0.1836  0.5848 -0.7492
  997SOL    HW3 4060   0.441   1.153   1.750  0.6160  0.9742 -0.3652
  997SOL    MW4 4061   0.429   1.163   1.836 -0.2499  0.2431 -0.4077
  998SOL     OW 4062   0.669   1.285   1.956 -0.3324  0.6161  0.0831
  998SOL    HW2 4063   0.667   1.295   2.051 -0.9207 -1.6167  0.3092
  998SOL    HW3 4064   0.593   1.232   1.935 -0.2265  1.1098 -1.6619
  998SOL    MW4 4065   0.659   1.280   1.966 -0.3960  0.3867 -0.1173
  999SOL     OW 4066   0.689   1.568   1.869  0.3516  0.1363  0.2419
  999SOL    HW2 4067   0.660   1.481   1.899  1.4882  0.0422  1.0967
  999SOL    HW3 4068   0.680   1.564   1.774 -0.3417 -0.6524  0.3306
  999SOL    MW4 4069   0.684   1.556   1.860  0.4101  0.0198  0.3664
 1000SOL     OW 4070   0.474   1.683   2.001 -0.4952 -0.6630 -0.4192
 1000SOL    HW2 4071   0.459   1.689   2.095 -1.6847  0.1903 -0.6418
 1000SOL    HW3 4072   0.560   1.643   1.992 -0.2754 -0.5289  1.0301
 1000SOL    MW4 4073   0.483   1.678   2.012 -0.6231 -0.5327 -0.2575
 1001SOL     OW 4074   0.475   1.930   1.856  0.3399  0.1090  0.3652
 1001SOL    HW2 4075   0.476   1.847   1.902 -1.8323 -1.4263 -2.2024
 1001SOL    HW3 4076   0.388   1.967   1.875  0.5777  0.8835 -0.0124
 1001SOL    MW4 4077   0.463   1.924   1.864  0.0847  0.0087 -0.0234
 1002SOL     OW 4078   0.654   2.083   1.969 -0.0393 -0.1104  0.3844
 1002SOL    HW2 4079   0.640   2.084   2.064 -0.7118 -1.5152  0.3131
 1002SOL    HW3 4080   0.577   2.038   1.934  1.5083 -2.0749 -0.5948
 1002SOL    MW4 4081   0.642   2.077   1.977  0.0762 -0.5548  0.2458
 1003SOL     OW 4082   0.683   2.337   1.843  0.4713 -0.0692  0.6892
 1003SOL    HW2 4083   0.664   2.252   1.882 -0.7312  0.0552  0.3844
 1003SOL    HW3 4084   0.676   2.323   1.749  1.6143  0.0540  0.5751
 1003SOL    MW4 4085   0.680   2.324   1.836  0.4634 -0.0365  0.6340
 1004SOL     OW 4086   0.437   2.456   1.931  0.3676  0.2366 -0.4802
 1004SOL    HW2 4087   0.446   2.460   2.026  1.1818 -0.0769 -0.5453
 1004SOL    HW3 4088   0.519   2.418   1.900 -0.0935 -0.1325 -1.2725
 1004SOL    MW4 4089   0.449   2.452   1.940  0.4142  0.1464 -0.5933
 1005SOL     OW 4090   0.456   2.725   1.863 -0.1055 -0.1033 -0.3436
 1005SOL    HW2 4091   0.462   2.635   1.895  0.6854  0.0857  0.0631
 1005SOL    HW3 4092   0.371   2.756   1.894 -0.2625 -0.6216 -0.2563
 1005SOL    MW4 4093   0.445   2.717   1.871 -0.0219 -0.1466 -0.2785
 1006SOL     OW 4094   0.670   2.842   1.977 -0.3340 -0.0706  0.6450
 1006SOL    HW2 4095   0.659   2.848   2.072 -0.0212 -0.9476  0.7456
 1006SOL    HW3 4096   0.593   2.792   1.947 -0.4580  0.2462  0.4358
 1006SOL    MW4 4097   0.658   2.836   1.985 -0.3092 -0.1447  0.6309
 1007SOL     OW 4098   0.661   3.097   1.866 -0.1355 -0.1211  0.4775
 1007SOL    HW2 4099   0.664   3.009   1.903 -0.7773  0.0970  1.0496
 1007SOL    HW3 4100   0.661   3.083   1.771  1.5228 -0.6765  0.5419
 1007SOL    MW4 4101   0.661   3.084   1.858 -0.0014 -0.1657  0.5616
 1008SOL     OW 4102   0.427   3.227   1.976 -0.0046  0.1574  0.1180
 1008SOL    HW2 4103   0.429   3.321   1.958 -1.3512 -0.0106 -0.9845
 1008SOL    HW3 4104   0.500   3.192   1.926  1.8683  0.8709  2.2501
 1008SOL    MW4 4105   0.437   3.235   1.967  0.0648  0.2294  0.2539
 1009SOL     OW 4106   0.437   3.517   1.929  0.1949 -0.1375 -0.4518
 1009SOL    HW2 4107   0.517   3.545   1.974 -0.1481 -0.8594  0.6461
 1009SOL    HW3 4108   0.461   3.515   1.836  1.3962 -0.1521 -0.1539
 1009SOL    MW4 4109   0.451   3.520   1.923  0.3082 -0.2346 -0.2676
 1010SOL     OW 4110   0.683   3.625   1.998 -0.0017  0.2770 -0.0917
 1010SOL    HW2 4111   0.757   3.577   1.960  0.4904  1.1699 -0.2727
 1010SOL    HW3 4112   0.695   3.715   1.968 -1.3259  0.3680 -0.3438
 1010SOL    MW4 4113   0.695   3.631   1.989 -0.1115  0.4070 -0.1488
 1011SOL     OW 4114   0.706   3.889   1.884 -0.4596 -0.2879 -0.5743
 1011SOL    HW2 4115   0.773   3.956   1.897 -0.6120 -0.3929  0.7418
 1011SOL    HW3 4116   0.696   3.884   1.788  0.0842  1.0266 -0.7072
 1011SOL    MW4 4117   0.714   3.897   1.873 -0.4080 -0.1283 -0.4181
 1012SOL     OW 4118   0.467   3.972   1.984 -0.0452  0.0438 -0.3743
 1012SOL    HW2 4119   0.471   4.059   1.944 -0.7118  0.2264 -0.0563
 1012SOL    HW3 4120   0.543   3.926   1.949  0.7376  1.0047  0.0606
 1012SOL    MW4 4121   0.477   3.978   1.974 -0.0299  0.1945 -0.2750
 1013SOL     OW 4122   0.471   4.216   1.859  0.5882 -0.4206 -0.1740
 1013SOL    HW2 4123   0.394   4.254   1.901  0.8553  0.5841 -0.5829
 1013SOL    HW3 4124   0.467   4.247   1.768  1.8572  0.2236 -0.0208
 1013SOL    MW4 4125   0.460   4.225   1.852  0.7909 -0.2027 -0.2078
 1014SOL     OW 4126   0.667   4.397   1.955 -0.2708  0.0746  0.1285
 1014SOL    HW2 4127   0.745   4.354   1.922  0.2833  1.3976 -0.3325
 1014SOL    HW3 4128   0.595   4.340   1.930  0.5249 -1.0159  0.3102
 1014SOL    MW4 4129   0.668   4.384   1.947 -0.0927  0.1054  0.0917
 1015SOL     OW 4130   1.112   4.637   1.845  0.2022 -0.0151  0.3484
 1015SOL    HW2 4131   1.168   4.708   1.878 -0.6556  0.7601  0.1607
 1015SOL    HW3 4132   1.140   4.560   1.894  2.1890  0.1216 -0.5158
 1015SOL    MW4 4133   1.123   4.637   1.856  0.3513  0.1054  0.2097
 1016SOL     OW 4134   0.905   0.114   1.972  0.1002  0.3426  0.2174
 1016SOL    HW2 4135   0.960   0.054   1.922 -0.7566 -2.0921  2.0724
 1016SOL    HW3 4136   0.815   0.088   1.951 -0.3079  1.9068 -0.0233
 1016SOL    MW4 4137   0.901   0.102   1.963 -0.0667  0.2277  0.4303
 1017SOL     OW 4138   0.941   0.387   1.888  0.2933  0.2794 -0.1859
 1017SOL    HW2 4139   1.012   0.429   1.937 -0.1456  0.2251  0.5075
 1017SOL    HW3 4140   0.944   0.296   1.917  0.3126  0.1490 -0.5983
 1017SOL    MW4 4141   0.951   0.381   1.898  0.2379  0.2550 -0.1489
 1018SOL     OW 4142   1.163   0.508   1.999  0.0472  0.0740  0.3545
 1018SOL    HW2 4143   1.236   0.478   1.944  0.0092  0.4602  0.0847
 1018SOL    HW3 4144   1.144   0.597   1.966  0.1799  0.3990  1.1549
 1018SOL    MW4 4145   1.170   0.516   1.987  0.0597  0.1678  0.4244
 1019SOL     OW 4146   1.125   0.770   1.875 -0.0722  0.0681  0.2554
 1019SOL    HW2 4147   1.198   0.811   1.921 -0.0164  1.1432 -0.7606
 1019SOL    HW3 4148   1.047   0.806   1.918 -0.0145  0.5680 -0.0508
 1019SOL    MW4 4149   1.124   0.780   1.887 -0.0573  0.2759  0.0811
 1020SOL     OW 4150   0.899   0.874   1.982  0.4994  0.5540  0.1133
 1020SOL    HW2 4151   0.886   0.867   2.077  0.8452  1.1149  0.2032
 1020SOL    HW3 4152   0.873   0.963   1.961  0.6729  0.5122 -0.2786
 1020SOL    MW4 4153   0.894   0.885   1.992  0.5679  0.6225  0.0736
 1021SOL     OW 4154   0.878   1.134   1.872 -0.4695 -0.1458 -0.1237
 1021SOL    HW2 4155   0.803   1.192   1.887 -0.4216 -0.0950 -0.0806
 1021SOL    HW3 4156   0.890   1.134   1.777 -1.0225 -0.7822 -0.1978
 1021SOL    MW4 4157   0.870   1.142   1.861 -0.5361 -0.2230 -0.1278
 1022SOL     OW 4158   1.083   1.278   1.974 -0.3862 -0.1959  0.0247
 1022SOL    HW2 4159   1.079   1.358   1.921  1.2503  0.3310  0.6491
 1022SOL    HW3 4160   1.009   1.226   1.945 -0.9516  1.1680 -1.0340
 1022SOL    MW4 4161   1.073   1.282   1.963 -0.2449  0.0534 -0.0327
 1023SOL     OW 4162   1.138   1.550   1.859 -0.1079 -0.3985  0.2180
 1023SOL    HW2 4163   1.062   1.597   1.893 -1.0531 -0.5772 -1.5398
 1023SOL    HW3 4164   1.119   1.541   1.765  2.2742 -0.0855 -0.3108
 1023SOL    MW4 4165   1.125   1.555   1.851  0.0815 -0.3808 -0.0838
 1024SOL     OW 4166   0.919   1.695   1.975  0.3754  0.0634 -0.4801
 1024SOL    HW2 4167   0.911   1.785   1.944  1.5895 -0.3119 -1.9175
 1024SOL    HW3 4168   0.852   1.646   1.928 -0.5791  0.2816  0.6266
 1024SOL    MW4 4169   0.909   1.700   1.965  0.4097  0.0427 -0.5238
 1025SOL     OW 4170   0.867   1.948   1.859 -0.1690 -0.1592 -0.3394
 1025SOL    HW2 4171   0.785   1.991   1.883  1.0912  1.6646  0.8730
 1025SOL    HW3 4172   0.871   1.952   1.764 -0.2017  2.2270 -0.2513
 1025SOL    MW4 4173   0.857   1.954   1.850 -0.0072  0.3963 -0.1678
 1026SOL     OW 4174   1.122   2.045   1.917 -0.0058 -0.4411 -0.2809
 1026SOL    HW2 4175   1.119   2.135   1.885 -2.4769 -0.3179  0.2084
 1026SOL    HW3 4176   1.041   2.006   1.886 -0.8047 -1.3777  2.8111
 1026SOL    MW4 4177   1.111   2.052   1.908 -0.4371 -0.5484  0.1916
 1027SOL     OW 4178   1.117   2.318   1.864 -0.2433 -0.0041  0.6678
 1027SOL    HW2 4179   1.188   2.365   1.907 -1.4776  0.8281  1.8259
 1027SOL    HW3 4180   1.131   2.333   1.770  0.0469  1.7202  0.9687
 1027SOL    MW4 4181   1.128   2.326   1.857 -0.3679  0.3333  0.8602
 1028SOL     OW 4182   0.899   2.459   1.961 -0.4454 -0.5592  0.0054
 1028SOL    HW2 4183   0.979   2.410   1.941  0.5542  1.1274 -0.1972
 1028SOL    HW3 4184   0.829   2.410   1.918  0.6598 -1.3071 -0.9511
 1028SOL    MW4 4185   0.900   2.446   1.953 -0.1677 -0.4354 -0.1476
 1029SOL     OW 4186   0.906   2.716   1.882 -0.2117 -0.1057 -0.1901
 1029SOL    HW2 4187   0.895   2.625   1.909  0.5334  0.5440  2.4427
 1029SOL    HW3 4188   0.828   2.761   1.915 -0.1628  0.3697 -0.7078
 1029SOL    MW4 4189   0.894   2.710   1.890 -0.1069  0.0427  0.0889
 1030SOL     OW 4190   1.131   2.867   1.993 -0.8293 -0.5250 -0.5175
 1030SOL    HW2 4191   1.102   2.884   2.082  0.4064  1.6905 -0.5142
 1030SOL    HW3 4192   1.061   2.814   1.955 -1.8034 -0.6976  1.4600
 1030SOL    MW4 4193   1.118   2.862   2.000 -0.7948 -0.2556 -0.2559
 1031SOL     OW 4194   1.152   3.120   1.834  0.1313  0.2052  0.6625
 1031SOL    HW2 4195   1.077   3.170   1.868  0.8370  1.0783  0.9414
 1031SOL    HW3 4196   1.157   3.043   1.891 -1.1861 -0.3849  0.0019
 1031SOL    MW4 4197   1.143   3.116   1.846  0.0507  0.2425  0.6121
 1032SOL     OW 4198   0.911   3.220   1.955 -0.2036 -0.1243 -0.1619
 1032SOL    HW2 4199   0.894   3.221   2.050 -1.1779  0.6327 -0.3412
 1032SOL    HW3 4200   0.834   3.178   1.917 -0.2356  0.3981 -0.6908
 1032SOL    MW4 4201   0.899   3.215   1.963 -0.3365  0.0448 -0.2552
 1033SOL     OW 4202   0.899   3.498   1.874 -0.2503 -0.0768  0.0190
 1033SOL    HW2 4203   0.905   3.405   1.896 -0.7516  0.3156  1.8205
 1033SOL    HW3 4204   0.909   3.500   1.778 -1.4803 -2.0881 -0.1765
 1033SOL    MW4 4205   0.901   3.486   1.864 -0.4787 -0.2906  0.2309
 1034SOL     OW 4206   1.132   3.620   1.953 -0.0926  0.3741  0.3630
 1034SOL    HW2 4207   1.118   3.622   2.048 -0.4121  2.1329  0.3012
 1034SOL    HW3 4208   1.051   3.583   1.918 -0.2041  0.2675  0.7297
 1034SOL    MW4 4209   1.119   3.615   1.961 -0.1496  0.5920  0.4033
 1035SOL     OW 4210   1.128   3.897   1.905 -0.2632  0.0957 -0.2945
 1035SOL    HW2 4211   1.145   3.805   1.925 -1.3836 -0.5637 -2.2469
 1035SOL    HW3 4212   1.115   3.899   1.810 -0.6819  2.1950 -0.2176
 1035SOL    MW4 4213   1.128   3.885   1.895 -0.4662  0.2854 -0.5419
 1036SOL     OW 4214   0.915   4.043   1.982 -0.2949 -0.4369 -0.0572
 1036SOL    HW2 4215   0.914   4.028   2.076 -2.3389 -0.7409 -0.1018
 1036SOL    HW3 4216   0.991   3.995   1.950  0.0157 -0.8889  1.3501
 1036SOL    MW4 4217   0.925   4.035   1.990 -0.5236 -0.5364  0.1228
 1037SOL     OW 4218   0.913   4.295   1.861  0.4755  0.4859  0.5520
 1037SOL    HW2 4219   0.983   4.349   1.896  1.6373 -0.4318 -0.3114
 1037SOL    HW3 4220   0.928   4.208   1.898 -0.8554  0.5284  1.2338
 1037SOL    MW4 4221   0.924   4.290   1.870  0.4532  0.3700  0.5280
 1038SOL     OW 4222   1.138   4.412   1.986  0.0082 -0.0582 -0.9755
 1038SOL    HW2 4223   1.169   4.409   2.077  0.1921  0.3459 -1.0229
 1038SOL    HW3 4224   1.211   4.377   1.935 -0.2389 -0.6288 -0.9285
 1038SOL    MW4 4225   1.152   4.407   1.991 -0.0002 -0.0801 -0.9756
 1039SOL     OW 4226   1.567   4.663   1.918  0.1008 -0.2075 -0.4288
 1039SOL    HW2 4227   1.634   4.721   1.953 -0.1097 -0.7462  0.8760
 1039SOL    HW3 4228   1.581   4.580   1.964 -1.8364 -0.1468  0.2878
 1039SOL    MW4 4229   1.578   4.659   1.928 -0.1826 -0.2705 -0.1621
 1040SOL     OW 4230   1.298   0.132   1.983  0.0899  0.4233  0.1422
 1040SOL    HW2 4231   1.283   0.132   2.078  1.6525  0.7190  0.4006
 1040SOL    HW3 4232   1.388   0.099   1.973 -0.2111 -0.0038 -1.2652
 1040SOL    MW4 4233   1.308   0.127   1.994  0.2563  0.4060 -0.0094
 1041SOL     OW 4234   1.347   0.362   1.847  0.0572 -0.1617 -0.5329
 1041SOL    HW2 4235   1.323   0.278   1.887  1.4927 -0.6517 -0.6661
 1041SOL    HW3 4236   1.355   0.343   1.754  0.3132  0.1439 -0.5747
 1041SOL    MW4 4237   1.345   0.348   1.840  0.2804 -0.1861 -0.5560
 1042SOL     OW 4238   1.573   0.441   1.969 -0.4342  0.6431 -0.5003
 1042SOL    HW2 4239   1.649   0.430   1.912 -1.0787  0.8129 -1.3915
 1042SOL    HW3 4240   1.499   0.408   1.918 -1.1882  1.8772 -0.2187
 1042SOL    MW4 4241   1.573   0.435   1.955 -0.6187  0.8283 -0.5808
 1043SOL     OW 4242   1.537   0.740   1.918  0.5275  0.4694  0.1686
 1043SOL    HW2 4243   1.616   0.778   1.954  0.9749  0.2392 -0.5558
 1043SOL    HW3 4244   1.545   0.646   1.936  1.2276  0.2079 -1.3656
 1043SOL    MW4 4245   1.548   0.732   1.925  0.6789  0.4046 -0.1295
 1044SOL     OW 4246   1.332   0.911   1.988 -0.2470 -0.6934 -0.3244
 1044SOL    HW2 4247   1.316   0.891   2.080  3.0972  0.7209  0.6744
 1044SOL    HW3 4248   1.399   0.848   1.961 -1.8799 -1.7130 -2.0960
 1044SOL    MW4 4249   1.339   0.900   1.996 -0.0213 -0.6414 -0.4263
 1045SOL     OW 4250   1.315   1.169   1.883 -0.3031  0.2056 -0.0928
 1045SOL    HW2 4251   1.326   1.082   1.922 -0.4472 -0.0764 -0.6760
 1045SOL    HW3 4252   1.230   1.199   1.914 -0.0790  0.3052  0.4287
 1045SOL    MW4 4253   1.305   1.161   1.893 -0.2927  0.1814 -0.1010
 1046SOL     OW 4254   1.546   1.291   1.994 -0.2006  0.1773 -0.1687
 1046SOL    HW2 4255   1.539   1.378   1.955 -0.4182  0.1620 -0.1657
 1046SOL    HW3 4256   1.471   1.243   1.959  0.1848 -0.1578 -0.5515
 1046SOL    MW4 4257   1.535   1.296   1.984 -0.1785  0.1311 -0.2189
 1047SOL     OW 4258   1.572   1.546   1.877  0.3682 -0.0668  0.1930
 1047SOL    HW2 4259   1.640   1.597   1.921 -0.3224 -0.4974  1.8127
 1047SOL    HW3 4260   1.490   1.577   1.916 -0.1595 -1.5034  0.2705
 1047SOL    MW4 4261   1.570   1.557   1.888  0.2073 -0.3132  0.4170
 1048SOL     OW 4262   1.354   1.670   1.994 -0.1953 -0.2186 -0.2454
 1048SOL    HW2 4263   1.351   1.664   2.089  1.0176  0.0701 -0.1820
 1048SOL    HW3 4264   1.274   1.626   1.965 -0.2592 -0.8757  0.8818
 1048SOL    MW4 4265   1.344   1.663   2.003 -0.0436 -0.2673 -0.0882
 1049SOL     OW 4266   1.363   1.925   1.859  0.1797 -0.0237 -0.6262
 1049SOL    HW2 4267   1.363   1.833   1.886  1.6205  0.1366 -0.0715
 1049SOL    HW3 4268   1.276   1.957   1.885  0.3906 -0.7094  0.9386
 1049SOL    MW4 4269   1.351   1.917   1.866  0.3977 -0.0932 -0.3465
 1050SOL     OW 4270   1.557   2.099   1.952  0.0435  0.1744 -0.2540
 1050SOL    HW2 4271   1.533   2.184   1.916 -0.4785 -0.2991 -1.0336
 1050SOL    HW3 4272   1.500   2.036   1.907  0.5415 -0.6081  0.1847
 1050SOL    MW4 4273   1.547   2.102   1.942  0.0403  0.0088 -0.2990
 1051SOL     OW 4274   1.540   2.340   1.833 -0.2139 -0.3199  0.2319
 1051SOL    HW2 4275   1.619   2.378   1.872  0.0733 -0.6038 -0.0667
 1051SOL    HW3 4276   1.559   2.337   1.739 -0.8924  0.3472  0.0675
 1051SOL    MW4 4277   1.553   2.345   1.826 -0.2655 -0.2694  0.1709
 1052SOL     OW 4278   1.346   2.459   1.982  0.1191  0.0251  0.2088
 1052SOL    HW2 4279   1.350   2.550   1.954 -1.6920 -0.3984 -1.5108
 1052SOL    HW3 4280   1.413   2.415   1.930  1.6092  0.4941  1.6726
 1052SOL    MW4 4281   1.355   2.465   1.971  0.0768  0.0310  0.1751
 1053SOL     OW 4282   1.353   2.714   1.891  0.5223  0.1207 -0.0765
 1053SOL    HW2 4283   1.282   2.763   1.932 -0.2990 -1.1300  0.0285
 1053SOL    HW3 4284   1.342   2.730   1.797 -0.2473 -0.5080 -0.1016
 1053SOL    MW4 4285   1.342   2.722   1.884  0.3124 -0.1273 -0.0660
 1054SOL     OW 4286   1.582   2.862   1.963  0.2265  0.4879 -0.4754
 1054SOL    HW2 4287   1.665   2.822   1.937 -0.2381 -1.5641  1.0046
 1054SOL    HW3 4288   1.516   2.802   1.929 -0.5374  0.6744  0.6665
 1054SOL    MW4 4289   1.584   2.849   1.955  0.0645  0.2420 -0.1296
 1055SOL     OW 4290   1.560   3.132   1.895  0.2880  0.2923  0.4189
 1055SOL    HW2 4291   1.558   3.042   1.927  0.7831  0.1710  0.1046
 1055SOL    HW3 4292   1.550   3.125   1.800  2.3008  0.4400  0.1776
 1055SOL    MW4 4293   1.558   3.119   1.887  0.6189  0.2959  0.3456
 1056SOL     OW 4294   1.328   3.227   2.013  0.9658  0.0030 -0.0874
 1056SOL    HW2 4295   1.409   3.199   1.969  1.1933  1.2216 -0.4577
 1056SOL    HW3 4296   1.258   3.199   1.954  1.1066 -1.0385  0.2222
 1056SOL    MW4 4297   1.330   3.220   2.000  1.0144  0.0265 -0.0956
 1057SOL     OW 4298   1.346   3.462   1.881 -0.5686 -0.3623  0.0714
 1057SOL    HW2 4299   1.340   3.381   1.931 -0.4357 -0.3632  0.0856
 1057SOL    HW3 4300   1.268   3.512   1.907  0.1473  0.1718  1.2398
 1057SOL    MW4 4301   1.335   3.458   1.891 -0.4566 -0.2923  0.2275
 1058SOL     OW 4302   1.574   3.576   1.978 -0.0173 -0.0427  0.3396
 1058SOL    HW2 4303   1.565   3.583   2.073 -0.3564 -0.1480  0.3185
 1058SOL    HW3 4304   1.492   3.534   1.950 -0.2692  0.7180 -0.0849
 1058SOL    MW4 4305   1.562   3.571   1.987 -0.0954  0.0436  0.2809
 1059SOL     OW 4306   1.541   3.837   1.903 -0.0252  0.0079  0.1652
 1059SOL    HW2 4307   1.622   3.881   1.927  0.1781 -1.2154  1.8131
 1059SOL    HW3 4308   1.559   3.744   1.915 -1.6633 -0.2835  0.5980
 1059SOL    MW4 4309   1.554   3.831   1.908 -0.2146 -0.1919  0.4398
 1060SOL     OW 4310   1.346   4.038   1.988  0.4344  0.0449 -0.4014
 1060SOL    HW2 4311   1.412   3.969   1.981  0.5068  0.0196  0.4863
 1060SOL    HW3 4312   1.266   3.998   1.954  0.9056  0.1238 -1.6282
 1060SOL    MW4 4313   1.344   4.024   1.983  0.5060  0.0520 -0.4462
 1061SOL     OW 4314   1.364   4.288   1.878  0.1464  0.5185  0.0665
 1061SOL    HW2 4315   1.374   4.196   1.904 -1.4382 -0.0170 -1.1750
 1061SOL    HW3 4316   1.347   4.285   1.784 -0.5868  2.0343  0.1401
 1061SOL    MW4 4317   1.363   4.276   1.869 -0.1594  0.6480 -0.0875
 1062SOL     OW 4318   1.605   4.398   1.984 -0.6080 -0.2052 -0.2559
 1062SOL    HW2 4319   1.605   4.379   2.078  0.9620 -0.7633 -0.3645
 1062SOL    HW3 4320   1.519   4.368   1.954 -0.6329 -1.2140  0.7687
 1062SOL    MW4 4321   1.594   4.391   1.993 -0.4040 -0.4110 -0.1351
 1063SOL     OW 4322   1.989   4.660   1.839 -0.1833 -0.1745  0.2347
 1063SOL    HW2 4323   1.990   4.576   1.884 -0.2841 -0.8118 -0.9444
 1063SOL    HW3 4324   2.061   4.710   1.880  0.9861 -1.4499 -0.2291
 1063SOL    MW4 4325   1.999   4.656   1.850 -0.0424 -0.4269  0.0180
 1064SOL     OW 4326   1.800   0.145   1.986 -0.2742 -0.0417  0.0950
 1064SOL    HW2 4327   1.801   0.123   2.079 -0.8468 -0.3060  0.0330
 1064SOL    HW3 4328   1.880   0.106   1.952  0.2481  0.5659  0.5950
 1064SOL    MW4 4329   1.811   0.137   1.994 -0.2809  0.0036  0.1527
 1065SOL     OW 4330   1.800   0.380   1.833  0.4031 -0.1083  0.0442
 1065SOL    HW2 4331   1.781   0.298   1.878 -0.1571  0.6640  1.2552
 1065SOL    HW3 4332   1.874   0.417   1.882 -0.2238  0.7488  0.3556
 1065SOL    MW4 4333   1.807   0.374   1.846  0.2465  0.1067  0.2451
 1066SOL     OW 4334   2.018   0.503   1.965  0.4418 -0.6473 -0.4531
 1066SOL    HW2 4335   1.991   0.589   1.932 -1.1848 -0.8505  0.3110
 1066SOL    HW3 4336   1.994   0.505   2.057  1.5086 -1.4901 -0.1542
 1066SOL    MW4 4337   2.011   0.515   1.972  0.3679 -0.7854 -0.3130
 1067SOL     OW 4338   1.992   0.747   1.850 -0.7402 -0.1013  0.1304
 1067SOL    HW2 4339   2.072   0.778   1.892 -0.2469  0.0176 -0.8639
 1067SOL    HW3 4340   2.014   0.744   1.757 -1.6482 -0.8278 -0.0704
 1067SOL    MW4 4341   2.005   0.751   1.843 -0.7949 -0.1814 -0.0273
 1068SOL     OW 4342   1.769   0.848   1.987 -0.3163  0.3444 -0.6644
 1068SOL    HW2 4343   1.770   0.936   1.948 -1.5525 -0.1974 -1.9375
 1068SOL    HW3 4344   1.831   0.798   1.934 -0.4135  0.1650 -0.6087
 1068SOL    MW4 4345   1.778   0.853   1.975 -0.4922  0.2493 -0.8250
 1069SOL     OW 4346   1.750   1.120   1.919 -0.5537  0.0855  0.4032
 1069SOL    HW2 4347   1.687   1.181   1.959 -1.0712 -0.1383 -0.0753
 1069SOL    HW3 4348   1.742   1.135   1.825 -0.3654 -0.4190  0.3084
 1069SOL    MW4 4349   1.741   1.130   1.912 -0.5970 -0.0106  0.3275
 1070SOL     OW 4350   1.998   1.244   1.997  0.2004  0.1904 -0.1809
 1070SOL    HW2 4351   2.066   1.197   1.950  0.3200 -1.0007  1.1180
 1070SOL    HW3 4352   1.916   1.208   1.963  0.2838 -0.5110  0.3407
 1070SOL    MW4 4353   1.996   1.233   1.986  0.2272 -0.0592  0.0595
 1071SOL     OW 4354   1.986   1.507   1.933  0.8294 -0.7309 -0.8283
 1071SOL    HW2 4355   1.973   1.414   1.950 -0.0382 -0.6147 -0.8122
 1071SOL    HW3 4356   1.994   1.514   1.838 -0.5201 -0.6714 -0.9544
 1071SOL    MW4 4357   1.985   1.496   1.923  0.5369 -0.7077 -0.8428
 1072SOL     OW 4358   1.782   1.677   2.009  0.3892 -0.5984  0.6187
 1072SOL    HW2 4359   1.817   1.757   1.969  0.6403 -1.5166 -1.0287
 1072SOL    HW3 4360   1.848   1.610   1.991  0.1289 -1.1994  1.9061
 1072SOL    MW4 4361   1.795   1.679   2.001  0.3879 -0.7988  0.5713
 1073SOL     OW 4362   1.808   1.939   1.899  0.3198  0.3642  0.2247
 1073SOL    HW2 4363   1.727   1.983   1.925  0.0359 -0.2547  0.3975
 1073SOL    HW3 4364   1.802   1.930   1.804 -1.3363 -2.6205  0.5568
 1073SOL    MW4 4365   1.797   1.944   1.890  0.0640 -0.1112  0.2913
 1074SOL     OW 4366   2.033   2.068   1.954  0.0062 -0.6388 -0.2543
 1074SOL    HW2 4367   2.103   2.005   1.939  0.7164  0.5499 -2.1996
 1074SOL    HW3 4368   1.953   2.023   1.926  0.3649 -1.0733 -0.5954
 1074SOL    MW4 4369   2.032   2.054   1.948  0.1473 -0.5395 -0.5560
 1075SOL     OW 4370   2.006   2.324   1.879  0.4684 -0.1438 -0.0863
 1075SOL    HW2 4371   2.074   2.368   1.931  0.2863 -0.3665  0.3431
 1075SOL    HW3 4372   2.011   2.232   1.905  0.1115 -0.1903 -0.1761
 1075SOL    MW4 4373   2.016   2.318   1.889  0.3972 -0.1793 -0.0415
 1076SOL     OW 4374   1.754   2.439   1.944  0.1312  0.1364 -0.0493
 1076SOL    HW2 4375   1.744   2.432   2.039 -0.3373 -0.2368 -0.1223
 1076SOL    HW3 4376   1.841   2.403   1.926 -0.9875 -2.6507 -0.0761
 1076SOL    MW4 4377   1.764   2.433   1.955 -0.0781 -0.2804 -0.0625
 1077SOL     OW 4378   1.804   2.712   1.884 -0.0118  0.2001 -0.4310
 1077SOL    HW2 4379   1.775   2.628   1.919  0.3449  0.0953 -0.3845
 1077SOL    HW3 4380   1.814   2.697   1.790 -0.5905  0.3733 -0.5218
 1077SOL    MW4 4381   1.801   2.699   1.876 -0.0410  0.2091 -0.4369
 1078SOL     OW 4382   2.058   2.808   1.983 -0.3325  0.3308 -0.0956
 1078SOL    HW2 4383   2.040   2.812   2.077 -0.2963  0.5570 -0.0977
 1078SOL    HW3 4384   1.976   2.778   1.944 -0.3425  0.2210  0.0104
 1078SOL    MW4 4385   2.045   2.805   1.990 -0.3290  0.3459 -0.0819
 1079SOL     OW 4386   2.052   3.076   1.874  0.0846  0.2082  0.5492
 1079SOL    HW2 4387   1.968   3.111   1.905  0.7917  1.0264  1.5359
 1079SOL    HW3 4388   2.055   2.987   1.910 -0.5519  0.0105  0.1364
 1079SOL    MW4 4389   2.041   3.069   1.883  0.0939  0.2902  0.6250
 1080SOL     OW 4390   1.812   3.216   1.951 -0.5825 -0.2054  0.0995
 1080SOL    HW2 4391   1.822   3.215   2.046 -1.1324  0.7713  0.1751
 1080SOL    HW3 4392   1.719   3.195   1.936 -1.2716  2.7505 -0.0701
 1080SOL    MW4 4393   1.801   3.213   1.961 -0.7461  0.3133  0.0871
 1081SOL     OW 4394   1.806   3.469   1.880 -0.0193  0.0758 -0.0918
 1081SOL    HW2 4395   1.825   3.383   1.917 -0.9915 -0.0421  0.1522
 1081SOL    HW3 4396   1.716   3.488   1.907 -0.5614  0.2239 -1.9157
 1081SOL    MW4 4397   1.796   3.460   1.888 -0.2191  0.0796 -0.3003
 1082SOL     OW 4398   2.008   3.597   2.006 -0.0432 -0.2211  0.1729
 1082SOL    HW2 4399   1.996   3.686   1.972  0.3882 -0.0102  0.5528
 1082SOL    HW3 4400   1.938   3.546   1.966 -0.3771  0.3223  0.0534
 1082SOL    MW4 4401   1.997   3.602   1.997 -0.0303 -0.1216  0.2074
 1083SOL     OW 4402   1.989   3.841   1.906  0.4470 -0.4891  0.0138
 1083SOL    HW2 4403   2.066   3.891   1.933  1.4609 -1.5561 -0.8489
 1083SOL    HW3 4404   1.982   3.857   1.812  0.6198 -1.7205 -0.2241
 1083SOL    MW4 4405   1.998   3.850   1.897  0.6036 -0.7925 -0.1315
 1084SOL     OW 4406   1.773   3.983   1.967  0.1726 -0.5270  0.0922
 1084SOL    HW2 4407   1.779   4.070   1.927  0.6203  0.0566  1.3993
 1084SOL    HW3 4408   1.853   3.939   1.940  0.2918 -0.2716  0.0236
 1084SOL    MW4 4409   1.784   3.989   1.958  0.2474 -0.4165  0.2556
 1085SOL     OW 4410   1.816   4.254   1.878  0.1826  0.1428 -0.0987
 1085SOL    HW2 4411   1.758   4.312   1.926 -0.1026 -0.1711 -0.0608
 1085SOL    HW3 4412   1.788   4.262   1.787 -1.2523 -1.5227  0.1650
 1085SOL    MW4 4413   1.805   4.262   1.872 -0.0443 -0.1187 -0.0589
 1086SOL     OW 4414   2.018   4.418   1.971 -0.5202 -0.3495 -0.4491
 1086SOL    HW2 4415   2.097   4.368   1.949 -1.1019 -1.3205 -0.3853
 1086SOL    HW3 4416   1.946   4.358   1.951 -1.2357  0.5101 -0.4490
 1086SOL    MW4 4417   2.019   4.403   1.966 -0.6912 -0.3638 -0.4407
 1087SOL     OW 4418   2.447   0.002   1.867 -0.0100  0.3072 -0.5040
 1087SOL    HW2 4419   2.509   0.056   1.916 -1.1495  0.3866  0.8760
 1087SOL    HW3 4420   2.457  -0.085   1.905  0.0542  0.0821 -1.0432
 1087SOL    MW4 4421   2.457  -0.002   1.879 -0.1519  0.2880 -0.3930
 1088SOL     OW 4422   2.220   0.118   1.960 -0.0537 -0.6316 -0.0626
 1088SOL    HW2 4423   2.224   0.123   2.056 -0.0098  0.6596 -0.1232
 1088SOL    HW3 4424   2.293   0.062   1.936 -0.0961 -1.0060  0.6635
 1088SOL    MW4 4425   2.230   0.111   1.970 -0.0536 -0.5106  0.0253
 1089SOL     OW 4426   2.237   0.384   1.863 -0.3564 -0.0567 -0.2967
 1089SOL    HW2 4427   2.230   0.297   1.902 -0.7431  0.0628 -0.1050
 1089SOL    HW3 4428   2.165   0.434   1.901  1.9100  1.4007  2.2408
 1089SOL    MW4 4429   2.226   0.379   1.873 -0.1087  0.1513  0.0634
 1090SOL     OW 4430   2.482   0.498   1.933  0.2969 -0.0160 -0.3065
 1090SOL    HW2 4431   2.561   0.460   1.893 -0.2205 -0.0228 -1.3385
 1090SOL    HW3 4432   2.410   0.449   1.894 -0.2805  0.8345 -0.3011
 1090SOL    MW4 4433   2.483   0.486   1.922  0.1523  0.0953 -0.4419
 1091SOL     OW 4434   2.464   0.777   1.885  0.0461 -0.6726  0.2020
 1091SOL    HW2 4435   2.482   0.686   1.907 -1.2827 -1.1734 -0.7632
 1091SOL    HW3 4436   2.467   0.780   1.789  0.9369  0.4790  0.2528
 1091SOL    MW4 4437   2.467   0.765   1.875 -0.0119 -0.5868  0.0815
 1092SOL     OW 4438   2.208   0.856   1.963  0.1100 -0.0359  0.4215
 1092SOL    HW2 4439   2.211   0.862   2.058 -0.8036 -0.7521  0.4946
 1092SOL    HW3 4440   2.294   0.822   1.938  0.3525  0.1621  0.9821
 1092SOL    MW4 4441   2.220   0.852   1.972  0.0217 -0.1043  0.5051
 1093SOL     OW 4442   2.240   1.123   1.877  0.1087 -0.0538 -0.3316
 1093SOL    HW2 4443   2.322   1.157   1.912  0.9205 -1.2940 -0.9948
 1093SOL    HW3 4444   2.243   1.029   1.895 -1.5116  0.0119  0.3167
 1093SOL    MW4 4445   2.251   1.115   1.884  0.0021 -0.2086 -0.3337
 1094SOL     OW 4446   2.467   1.257   1.950  0.1937 -0.0115  0.1552
 1094SOL    HW2 4447   2.457   1.287   2.041  0.2823  0.1950  0.0988
 1094SOL    HW3 4448   2.480   1.338   1.900  0.3339 -0.1388 -0.0148
 1094SOL    MW4 4449   2.468   1.272   1.956  0.2239 -0.0010  0.1253
 1095SOL     OW 4450   2.463   1.517   1.853  0.0012 -0.0826 -0.1242
 1095SOL    HW2 4451   2.376   1.538   1.887 -0.4633  0.4189 -1.5823
 1095SOL    HW3 4452   2.459   1.541   1.760  1.2446 -1.3940 -0.5358
 1095SOL    MW4 4453   2.451   1.523   1.845  0.1040 -0.1894 -0.3709
 1096SOL     OW 4454   2.241   1.631   2.005  0.2737 -0.2276 -0.3735
 1096SOL    HW2 4455   2.245   1.644   2.100 -0.1766  2.0798 -0.6363
 1096SOL    HW3 4456   2.156   1.589   1.990  0.6191 -1.1700  0.2991
 1096SOL    MW4 4457   2.230   1.627   2.016  0.2599 -0.0474 -0.3192
 1097SOL     OW 4458   2.231   1.866   1.869  0.3164 -0.5403  0.1823
 1097SOL    HW2 4459   2.316   1.901   1.896  0.4254 -0.3873 -0.3698
 1097SOL    HW3 4460   2.228   1.779   1.908 -0.3525  0.4082  2.3746
 1097SOL    MW4 4461   2.241   1.859   1.878  0.2427 -0.3952  0.3988
 1098SOL     OW 4462   2.472   1.988   1.944  0.3438 -0.2755  0.6422
 1098SOL    HW2 4463   2.557   1.968   1.906 -0.4896 -1.7833 -0.5001
 1098SOL    HW3 4464   2.460   2.081   1.926  1.1195 -0.3780 -0.5051
 1098SOL    MW4 4465   2.481   1.998   1.936  0.3362 -0.4878  0.3402
 1099SOL     OW 4466   2.431   2.265   1.880 -0.0885 -0.2693 -0.1850
 1099SOL    HW2 4467   2.502   2.323   1.906  0.8963 -1.2756 -0.5690
 1099SOL    HW3 4468   2.354   2.299   1.925  0.9427 -0.0813  1.4613
 1099SOL    MW4 4469   2.430   2.277   1.889  0.1776 -0.3772 -0.0185
 1100SOL     OW 4470   2.219   2.426   2.004  0.4015 -0.5084 -0.1628
 1100SOL    HW2 4471   2.195   2.434   2.096 -0.8606 -0.2465 -0.5082
 1100SOL    HW3 4472   2.254   2.511   1.980 -0.4218 -0.1926 -0.2501
 1100SOL    MW4 4473   2.220   2.438   2.013  0.1261 -0.4320 -0.2196
 1101SOL     OW 4474   2.301   2.670   1.925 -0.0670 -0.6766 -0.1782
 1101SOL    HW2 4475   2.216   2.712   1.938  1.2157  2.4704 -1.5231
 1101SOL    HW3 4476   2.310   2.662   1.830  0.9628 -1.4293 -0.0320
 1101SOL    MW4 4477   2.291   2.674   1.914  0.2382 -0.3610 -0.3362
 1102SOL     OW 4478   2.515   2.858   1.928 -0.4746 -0.3578  0.2280
 1102SOL    HW2 4479   2.478   2.943   1.906 -1.0142 -0.1918  1.7375
 1102SOL    HW3 4480   2.440   2.797   1.924 -0.3235 -0.5508  0.3010
 1102SOL    MW4 4481   2.500   2.861   1.925 -0.5257 -0.3614  0.4368
 1103SOL     OW 4482   2.439   3.138   1.923 -0.1655  0.1442 -0.2579
 1103SOL    HW2 4483   2.519   3.183   1.950 -0.5498  0.3404  0.5764
 1103SOL    HW3 4484   2.369   3.187   1.967 -0.5606 -1.5141  0.9831
 1103SOL    MW4 4485   2.440   3.151   1.932 -0.2682 -0.0486  0.0160
 1104SOL     OW 4486   2.217   3.262   2.004 -0.4663 -0.0145  0.0077
 1104SOL    HW2 4487   2.198   3.253   2.097  0.9148 -0.0576  0.2920
 1104SOL    HW3 4488   2.166   3.192   1.962 -0.4558 -0.5139  0.8136
 1104SOL    MW4 4489   2.207   3.251   2.011 -0.2828 -0.0861  0.1516
 1105SOL     OW 4490   2.244   3.525   1.883  0.3717 -0.6919  0.0298
 1105SOL    HW2 4491   2.234   3.441   1.927 -1.5614 -2.3261 -3.3747
 1105SOL    HW3 4492   2.171   3.578   1.914 -0.9554 -1.8223 -1.0715
 1105SOL    MW4 4493   2.233   3.521   1.893 -0.0584 -1.0569 -0.5647
 1106SOL     OW 4494   2.486   3.602   1.973  0.2782  0.5012  0.5012
 1106SOL    HW2 4495   2.486   3.575   2.064 -1.1870  1.0248  0.6778
 1106SOL    HW3 4496   2.402   3.571   1.939  0.7591  0.4185 -0.6248
 1106SOL    MW4 4497   2.475   3.595   1.980  0.1485  0.5591  0.3760
 1107SOL     OW 4498   2.476   3.873   1.938  0.2353 -0.1137 -0.4583
 1107SOL    HW2 4499   2.392   3.916   1.957 -0.3739 -0.7133 -1.7550
 1107SOL    HW3 4500   2.460   3.780   1.956  1.1166 -0.0220  0.8913
 1107SOL    MW4 4501   2.463   3.866   1.943  0.2713 -0.1805 -0.4513
 1108SOL     OW 4502   2.219   3.986   1.973 -0.0695 -0.1548  0.5718
 1108SOL    HW2 4503   2.222   4.002   2.067 -1.2079  0.9619  0.4251
 1108SOL    HW3 4504   2.220   4.073   1.933 -2.7864 -0.5032 -0.3378
 1108SOL    MW4 4505   2.219   3.999   1.980 -0.5782 -0.0534  0.4324
 1109SOL     OW 4506   2.252   4.283   1.898  0.2150 -0.1568  0.4295
 1109SOL    HW2 4507   2.331   4.316   1.942 -0.4825  0.6392  1.1029
 1109SOL    HW3 4508   2.259   4.315   1.808  0.3650  0.4290  0.6457
 1109SOL    MW4 4509   2.263   4.292   1.892  0.1428  0.0253  0.5468
 1110SOL     OW 4510   2.473   4.427   2.000 -0.3964  0.2052  0.2479
 1110SOL    HW2 4511   2.480   4.426   2.095 -1.2609  0.2495  0.3213
 1110SOL    HW3 4512   2.542   4.369   1.969 -0.5150 -0.2937  0.9298
 1110SOL    MW4 4513   2.483   4.419   2.008 -0.5264  0.1454  0.3474
 1111SOL     OW 4514   2.883   4.635   1.872  0.2286 -0.0247 -0.5946
 1111SOL    HW2 4515   2.957   4.682   1.913 -0.2807 -0.8636  1.3397
 1111SOL    HW3 4516   2.885   4.548   1.912 -0.9948 -0.5030 -1.5519
 1111SOL    MW4 4517   2.893   4.630   1.883  0.0000 -0.1984 -0.4658
 1112SOL     OW 4518   2.665   0.119   1.978  0.1449  0.0931 -0.0589
 1112SOL    HW2 4519   2.678   0.112   2.072 -0.5663 -0.6164 -0.0025
 1112SOL    HW3 4520   2.724   0.054   1.940  0.9888  0.9115 -0.1489
 1112SOL    MW4 4521   2.674   0.109   1.985  0.1624  0.1074 -0.0634
 1113SOL     OW 4522   2.724   0.371   1.868  0.5623 -0.0934  0.2005
 1113SOL    HW2 4523   2.795   0.412   1.916  0.9512 -1.1834  0.5761
 1113SOL    HW3 4524   2.706   0.290   1.916 -0.6879 -0.0055 -0.0997
 1113SOL    MW4 4525   2.731   0.366   1.880  0.4487 -0.2256  0.2103
 1114SOL     OW 4526   2.912   0.521   2.031 -0.4762 -0.1342  0.0380
 1114SOL    HW2 4527   3.002   0.497   2.009 -0.0896  1.3199 -0.0164
 1114SOL    HW3 4528   2.893   0.595   1.974 -1.7999 -0.5948 -0.1251
 1114SOL    MW4 4529   2.922   0.527   2.021 -0.5999 -0.0031  0.0095
 1115SOL     OW 4530   2.915   0.747   1.873 -0.0255 -0.1278 -0.0845
 1115SOL    HW2 4531   2.993   0.787   1.910  0.6277 -1.0137 -0.5084
 1115SOL    HW3 4532   2.844   0.808   1.897  0.6079  0.1131  1.2642
 1115SOL    MW4 4533   2.916   0.760   1.881  0.1445 -0.2129  0.0377
 1116SOL     OW 4534   2.702   0.893   1.934  0.2280 -0.0184 -0.0763
 1116SOL    HW2 4535   2.706   0.982   1.898 -0.3651  0.1120  0.1766
 1116SOL    HW3 4536   2.609   0.873   1.939  0.1823  0.6586  3.0666
 1116SOL    MW4 4537   2.691   0.902   1.930  0.1438  0.0882  0.3718
 1117SOL     OW 4538   2.701   1.161   1.845  0.1117  0.2769 -0.1245
 1117SOL    HW2 4539   2.625   1.210   1.875 -1.6846 -2.5579  0.1286
 1117SOL    HW3 4540   2.711   1.186   1.753 -0.2255  1.7186  0.2081
 1117SOL    MW4 4541   2.693   1.171   1.837 -0.1698  0.0930 -0.0471
 1118SOL     OW 4542   2.930   1.268   1.980  0.2996  0.0152  0.4698
 1118SOL    HW2 4543   2.917   1.359   1.954  0.8391  0.1886  0.8026
 1118SOL    HW3 4544   2.847   1.225   1.958  0.0093  0.6030  0.3998
 1118SOL    MW4 4545   2.917   1.274   1.974  0.3326  0.1156  0.5044
 1119SOL     OW 4546   2.887   1.532   1.884  0.0490 -0.5163 -0.1227
 1119SOL    HW2 4547   2.965   1.575   1.918  0.5257 -0.8421 -0.8044
 1119SOL    HW3 4548   2.906   1.516   1.792 -0.5529 -1.2083 -0.1339
 1119SOL    MW4 4549   2.900   1.536   1.876  0.0324 -0.6506 -0.2141
 1120SOL     OW 4550   2.671   1.675   1.966 -0.1133  0.0166 -0.1914
 1120SOL    HW2 4551   2.743   1.627   1.926 -0.2253 -0.6026  0.3398
 1120SOL    HW3 4552   2.592   1.635   1.930 -0.1987  0.7818 -0.8736
 1120SOL    MW4 4553   2.670   1.663   1.956 -0.1395  0.0359 -0.2114
 1121SOL     OW 4554   2.735   1.902   1.819  0.0186  0.3655 -0.0308
 1121SOL    HW2 4555   2.782   1.959   1.880 -2.6190  2.0961  0.4821
 1121SOL    HW3 4556   2.714   1.824   1.870  0.0164  0.7431  0.5505
 1121SOL    MW4 4557   2.738   1.899   1.834 -0.3295  0.6437  0.1135
 1122SOL     OW 4558   2.891   2.050   2.001 -0.5352 -0.1892  0.2607
 1122SOL    HW2 4559   2.887   2.057   2.096  0.0569 -0.5681  0.3155
 1122SOL    HW3 4560   2.969   1.997   1.984 -0.4966  0.0868 -0.4425
 1122SOL    MW4 4561   2.901   2.044   2.011 -0.4518 -0.2029  0.1752
 1123SOL     OW 4562   2.871   2.308   1.884  0.7708  0.0016 -0.0489
 1123SOL    HW2 4563   2.946   2.352   1.922  0.9438 -0.0483 -0.3321
 1123SOL    HW3 4564   2.874   2.219   1.920  0.3966  0.2354  0.5558
 1123SOL    MW4 4565   2.881   2.302   1.893  0.7443  0.0255 -0.0066
 1124SOL     OW 4566   2.654   2.439   1.980  0.0309  0.1756  0.1751
 1124SOL    HW2 4567   2.658   2.505   1.910  0.4495 -0.3795 -0.3319
 1124SOL    HW3 4568   2.720   2.374   1.956 -0.5384 -0.5527  0.5392
 1124SOL    MW4 4569   2.663   2.439   1.967  0.0110  0.0062  0.1563
 1125SOL     OW 4570   2.711   2.678   1.828 -0.0484 -0.4869  0.0735
 1125SOL    HW2 4571   2.646   2.740   1.862  0.9405 -0.1604  1.4469
 1125SOL    HW3 4572   2.689   2.667   1.736 -0.9683  1.0012  0.0993
 1125SOL    MW4 4573   2.700   2.685   1.820 -0.0393 -0.2477  0.2581
 1126SOL     OW 4574   2.916   2.801   1.963  0.3595 -0.2649 -0.1425
 1126SOL    HW2 4575   2.903   2.896   1.965 -1.3786 -0.5024  0.2704
 1126SOL    HW3 4576   2.855   2.770   1.897  1.3075 -1.0564 -0.6610
 1126SOL    MW4 4577   2.906   2.809   1.955  0.2549 -0.4005 -0.1565
 1127SOL     OW 4578   2.948   3.077   1.906  0.0799 -0.4965  0.1821
 1127SOL    HW2 4579   3.013   3.141   1.935 -0.4291 -0.2778  0.8381
 1127SOL    HW3 4580   2.864   3.122   1.915 -0.2235 -1.0191 -0.0243
 1127SOL    MW4 4581   2.945   3.092   1.911 -0.0272 -0.5367  0.2414
 1128SOL     OW 4582   2.712   3.242   1.956 -0.4021 -0.1032  0.0322
 1128SOL    HW2 4583   2.725   3.328   1.917 -0.3348 -0.1093  0.0414
 1128SOL    HW3 4584   2.690   3.260   2.047 -0.4809 -0.0916  0.0107
 1128SOL    MW4 4585   2.711   3.256   1.963 -0.4034 -0.1025  0.0308
 1129SOL     OW 4586   2.710   3.504   1.846  0.1096 -0.5248 -0.2844
 1129SOL    HW2 4587   2.794   3.530   1.885 -0.6486 -0.6650  1.5001
 1129SOL    HW3 4588   2.644   3.544   1.904 -1.0557 -2.7978 -0.0189
 1129SOL    MW4 4589   2.712   3.513   1.859 -0.1445 -0.8433 -0.0138
 1130SOL     OW 4590   2.926   3.595   1.988 -0.2306  0.2825  0.4832
 1130SOL    HW2 4591   2.927   3.598   2.084 -1.2771  0.8900  0.4789
 1130SOL    HW3 4592   3.008   3.551   1.965 -0.8819 -1.6105  1.7086
 1130SOL    MW4 4593   2.937   3.590   1.998 -0.4544  0.1130  0.6446
 1131SOL     OW 4594   2.899   3.847   1.881 -0.4576  0.3322  0.1274
 1131SOL    HW2 4595   2.919   3.758   1.908  1.3964  1.0055  1.0309
 1131SOL    HW3 4596   2.912   3.848   1.787 -1.1305 -0.5161  0.0252
 1131SOL    MW4 4597   2.903   3.836   1.872 -0.3016  0.3090  0.2332
 1132SOL     OW 4598   2.700   3.996   2.002 -0.2906  0.1042  0.2860
 1132SOL    HW2 4599   2.764   3.952   1.946 -0.7909 -2.2518  1.4913
 1132SOL    HW3 4600   2.619   3.949   1.986 -0.6758  0.1095  2.1846
 1132SOL    MW4 4601   2.698   3.984   1.992 -0.4075 -0.2060  0.6953
 1133SOL     OW 4602   2.675   4.259   1.916  0.1955 -0.1904  0.3506
 1133SOL    HW2 4603   2.694   4.173   1.951 -2.1766 -1.8723 -2.2579
 1133SOL    HW3 4604   2.698   4.253   1.823 -0.3824  1.8489  0.0400
 1133SOL    MW4 4605   2.680   4.247   1.908 -0.1938 -0.1431 -0.0343
 1134SOL     OW 4606   2.896   4.400   1.992  0.0298 -0.1056 -0.2686
 1134SOL    HW2 4607   2.900   4.393   2.088  0.2497  1.1108 -0.1807
 1134SOL    HW3 4608   2.823   4.344   1.967  0.8843 -1.5920  0.4776
 1134SOL    MW4 4609   2.887   4.392   2.002  0.1717 -0.1411 -0.1583
 1135SOL     OW 4610   3.319   4.661   1.868  0.0007  0.1350 -0.1192
 1135SOL    HW2 4611   3.328   4.576   1.910 -2.4970 -0.3503 -0.4839
 1135SOL    HW3 4612   3.341   4.645   1.776  0.8274  0.1940  0.0587
 1135SOL    MW4 4613   3.323   4.648   1.862 -0.2196  0.0787 -0.1439
 1136SOL     OW 4614   3.098   0.115   1.990 -0.2581 -0.2392  0.0178
 1136SOL    HW2 4615   3.104   0.085   2.081 -0.1614 -0.4972 -0.0711
 1136SOL    HW3 4616   3.181   0.088   1.951 -0.0772  0.3501 -0.0085
 1136SOL    MW4 4617   3.110   0.107   1.997 -0.2217 -0.1955  0.0027
 1137SOL     OW 4618   3.156   0.385   1.942  0.1552  0.0723 -0.0020
 1137SOL    HW2 4619   3.132   0.294   1.960 -1.0520  0.3582 -0.1237
 1137SOL    HW3 4620   3.165   0.389   1.847 -0.3917  0.2178 -0.0501
 1137SOL    MW4 4621   3.154   0.373   1.932 -0.0763  0.1292 -0.0243
 1138SOL     OW 4622   3.390   0.496   2.030 -0.6125 -0.2826  0.5225
 1138SOL    HW2 4623   3.463   0.447   1.991  0.1143 -0.7367  2.3895
 1138SOL    HW3 4624   3.312   0.450   2.000 -0.0555 -0.8136 -0.1291
 1138SOL    MW4 4625   3.389   0.483   2.021 -0.4432 -0.4126  0.6826
 1139SOL     OW 4626   3.377   0.763   1.915 -0.0833 -0.4051 -0.0757
 1139SOL    HW2 4627   3.293   0.802   1.940  0.4321  0.1587  0.7799
 1139SOL    HW3 4628   3.375   0.675   1.954 -0.2328 -0.3560  0.0293
 1139SOL    MW4 4629   3.365   0.756   1.924 -0.0350 -0.3242  0.0509
 1140SOL     OW 4630   3.134   0.883   1.965 -0.0583  0.3009 -0.4238
 1140SOL    HW2 4631   3.120   0.896   2.059  0.2716  1.3760 -0.5156
 1140SOL    HW3 4632   3.148   0.972   1.931  1.1914 -0.2185 -1.2691
 1140SOL    MW4 4633   3.134   0.897   1.973  0.1502  0.3742 -0.5475
 1141SOL     OW 4634   3.153   1.139   1.874  0.2539  0.3846  0.1472
 1141SOL    HW2 4635   3.227   1.194   1.898  0.6158 -0.4079  0.8847
 1141SOL    HW3 4636   3.076   1.187   1.906  0.5891  0.3091  1.0976
 1141SOL    MW4 4637   3.152   1.152   1.881  0.3459  0.2700  0.3699
 1142SOL     OW 4638   3.357   1.304   1.940 -0.6458 -0.0264 -0.5685
 1142SOL    HW2 4639   3.355   1.312   2.036  1.0795 -0.0120 -0.5074
 1142SOL    HW3 4640   3.358   1.395   1.909  0.0912 -0.0205 -0.5425
 1142SOL    MW4 4641   3.357   1.317   1.949 -0.3211 -0.0237 -0.5571
 1143SOL     OW 4642   3.358   1.562   1.858  0.1555  0.3740  0.2456
 1143SOL    HW2 4643   3.435   1.612   1.885  0.2867  0.1095  0.3587
 1143SOL    HW3 4644   3.285   1.605   1.902  0.3849 -0.1415  1.1369
 1143SOL    MW4 4645   3.358   1.574   1.867  0.2029  0.2710  0.3781
 1144SOL     OW 4646   3.139   1.642   2.004  0.5952 -0.4811  0.7084
 1144SOL    HW2 4647   3.131   1.633   2.099  1.2578 -0.4365  0.7754
 1144SOL    HW3 4648   3.127   1.735   1.988 -0.6880 -0.6630  0.6223
 1144SOL    MW4 4649   3.136   1.653   2.015  0.5136 -0.4991  0.7060
 1145SOL     OW 4650   3.107   1.904   1.912 -0.1688  0.3524 -0.2342
 1145SOL    HW2 4651   3.177   1.967   1.928  0.2011 -0.1729  0.2838
 1145SOL    HW3 4652   3.099   1.901   1.817  1.6371 -0.7525 -0.3906
 1145SOL    MW4 4653   3.115   1.912   1.902  0.1183  0.1373 -0.1863
 1146SOL     OW 4654   3.313   2.073   1.987 -0.3295  0.1658 -0.1257
 1146SOL    HW2 4655   3.402   2.057   1.957 -0.2911 -0.2781  0.2316
 1146SOL    HW3 4656   3.296   2.165   1.964 -0.3102 -0.1780 -1.5517
 1146SOL    MW4 4657   3.322   2.083   1.980 -0.3219  0.0618 -0.2667
 1147SOL     OW 4658   3.322   2.342   1.917 -0.0176  0.2080  0.2777
 1147SOL    HW2 4659   3.243   2.390   1.942  0.2516  0.5420  0.4816
 1147SOL    HW3 4660   3.326   2.351   1.822 -0.5383 -0.2947  0.2025
 1147SOL    MW4 4661   3.312   2.349   1.908 -0.0508  0.1857  0.2947
 1148SOL     OW 4662   3.081   2.458   1.981  0.3093 -0.3122  0.0471
 1148SOL    HW2 4663   3.102   2.463   2.075 -1.7030 -0.5542  0.5258
 1148SOL    HW3 4664   3.094   2.548   1.949  0.7600 -0.1752  0.6120
 1148SOL    MW4 4665   3.085   2.471   1.989  0.1032 -0.3259  0.1849
 1149SOL     OW 4666   3.169   2.733   1.891  0.1434 -0.3165  0.4527
 1149SOL    HW2 4667   3.086   2.763   1.929  0.7662  3.4712 -0.9489
 1149SOL    HW3 4668   3.150   2.721   1.798  1.5178  2.3534 -0.2369
 1149SOL    MW4 4669   3.156   2.735   1.884  0.4070  0.5355  0.1767
 1150SOL     OW 4670   3.375   2.885   2.009 -0.3018 -0.3485  0.0732
 1150SOL    HW2 4671   3.388   2.856   2.100  0.1610 -1.7019 -0.4159
 1150SOL    HW3 4672   3.304   2.831   1.976  0.0228 -0.3692 -0.5979
 1150SOL    MW4 4673   3.368   2.874   2.017 -0.1979 -0.5295 -0.0799
 1151SOL     OW 4674   3.347   3.121   1.882 -0.2935  0.0401  0.2087
 1151SOL    HW2 4675   3.432   3.159   1.905  0.3542 -1.6182  0.5916
 1151SOL    HW3 4676   3.351   3.031   1.913 -2.0362 -0.1905 -0.1662
 1151SOL    MW4 4677   3.359   3.114   1.889 -0.4382 -0.2093  0.2098
 1152SOL     OW 4678   3.140   3.259   2.016  0.5994 -0.3272 -0.2299
 1152SOL    HW2 4679   3.120   3.335   1.961  0.5456 -1.1195 -1.3075
 1152SOL    HW3 4680   3.221   3.224   1.978  1.2428 -0.1551  0.9585
 1152SOL    MW4 4681   3.148   3.265   2.004  0.6773 -0.4089 -0.2155
 1153SOL     OW 4682   3.165   3.497   1.863 -0.0153  0.0711  0.5428
 1153SOL    HW2 4683   3.251   3.527   1.894  0.4837 -0.9135  0.1418
 1153SOL    HW3 4684   3.176   3.486   1.769  0.7285 -4.1503  0.9938
 1153SOL    MW4 4685   3.178   3.499   1.855  0.1483 -0.6156  0.5494
 1154SOL     OW 4686   3.375   3.636   1.976  0.4348 -0.1166  0.0972
 1154SOL    HW2 4687   3.448   3.589   1.936  1.0108  0.4281  0.5008
 1154SOL    HW3 4688   3.372   3.720   1.930  0.5626  0.1761  0.6262
 1154SOL    MW4 4689   3.384   3.641   1.964  0.5279 -0.0062  0.2202
 1155SOL     OW 4690   3.370   3.895   1.873  0.6425 -0.4499 -0.4228
 1155SOL    HW2 4691   3.288   3.939   1.898  0.7389 -0.5190  0.0253
 1155SOL    HW3 4692   3.374   3.904   1.778  0.2433 -0.2168 -0.4205
 1155SOL    MW4 4693   3.359   3.902   1.864  0.6027 -0.4282 -0.3633
 1156SOL     OW 4694   3.109   4.003   1.972 -0.0116 -0.2505 -0.0130
 1156SOL    HW2 4695   3.104   4.004   2.067 -0.3538  0.1010 -0.0335
 1156SOL    HW3 4696   3.038   3.945   1.944  0.5677 -0.9590 -0.0266
 1156SOL    MW4 4697   3.099   3.995   1.981  0.0196 -0.2975 -0.0175
 1157SOL     OW 4698   3.103   4.262   1.875  0.2713 -0.7264  0.2958
 1157SOL    HW2 4699   3.096   4.176   1.916  1.7846 -1.3823 -0.8021
 1157SOL    HW3 4700   3.034   4.314   1.917 -0.5340 -2.4065  1.0997
 1157SOL    MW4 4701   3.093   4.257   1.886  0.3648 -1.0347  0.2569
 1158SOL     OW 4702   3.361   4.409   1.957 -0.0135  0.0385 -0.3645
 1158SOL    HW2 4703   3.445   4.369   1.935 -0.1566 -0.6284  0.2746
 1158SOL    HW3 4704   3.296   4.349   1.922 -0.2217  0.2328 -0.3095
 1158SOL    MW4 4705   3.364   4.396   1.950 -0.0598 -0.0238 -0.2729
 1159SOL     OW 4706   3.847   0.007   1.876 -0.1233 -0.0973  0.1921
 1159SOL    HW2 4707   3.848  -0.085   1.905  0.8603  0.2735  1.3611
 1159SOL    HW3 4708   3.762   0.040   1.907  0.3066 -0.1072  1.4114
 1159SOL    MW4 4709   3.836  -0.001   1.884  0.0634 -0.0496  0.5074
 1160SOL     OW 4710   3.585   0.089   1.955  0.0494  0.6933  0.4926
 1160SOL    HW2 4711   3.592   0.090   2.051 -0.2219  1.5932  0.5029
 1160SOL    HW3 4712   3.500   0.048   1.938  1.3826 -2.2105  0.5580
 1160SOL    MW4 4713   3.574   0.083   1.966  0.1895  0.4289  0.5027
 1161SOL     OW 4714   3.623   0.354   1.914  0.0968 -0.1420  0.0391
 1161SOL    HW2 4715   3.600   0.262   1.930 -1.4900  0.4932  1.5569
 1161SOL    HW3 4716   3.626   0.362   1.819 -0.5138 -1.5955 -0.1124
 1161SOL    MW4 4717   3.620   0.343   1.903 -0.1931 -0.2500  0.2195
 1162SOL     OW 4718   3.829   0.530   1.973 -0.1579 -0.0558 -0.2275
 1162SOL    HW2 4719   3.810   0.622   1.954 -0.6933 -0.1240 -0.0455
 1162SOL    HW3 4720   3.752   0.483   1.940 -0.2208 -0.3659  0.3634
 1162SOL    MW4 4721   3.816   0.536   1.966 -0.2365 -0.1057 -0.1256
 1163SOL     OW 4722   3.806   0.797   1.907 -0.1083  0.3562  0.1076
 1163SOL    HW2 4723   3.732   0.844   1.946 -0.2141  0.7640 -0.5617
 1163SOL    HW3 4724   3.798   0.814   1.813  0.0825 -0.6896 -0.1033
 1163SOL    MW4 4725   3.795   0.806   1.900 -0.0968  0.2720 -0.0086
 1164SOL     OW 4726   3.573   0.928   2.007 -0.2067 -0.6670  0.4492
 1164SOL    HW2 4727   3.568   1.010   1.959 -0.2960 -0.5161  0.7166
 1164SOL    HW3 4728   3.494   0.880   1.983 -0.5797 -0.3099  0.9622
 1164SOL    MW4 4729   3.562   0.932   1.998 -0.2680 -0.6000  0.5522
 1165SOL     OW 4730   3.598   1.165   1.878 -0.1026 -0.2495 -0.1251
 1165SOL    HW2 4731   3.518   1.215   1.896  0.8222  1.0983  0.3222
 1165SOL    HW3 4732   3.608   1.171   1.783 -0.2208  0.0734 -0.1180
 1165SOL    MW4 4733   3.589   1.173   1.868  0.0036 -0.0292 -0.0651
 1166SOL     OW 4734   3.799   1.305   1.991 -0.0761  0.0739  0.4815
 1166SOL    HW2 4735   3.797   1.270   2.080 -0.3325  1.6099  1.0847
 1166SOL    HW3 4736   3.727   1.261   1.946  0.3923 -1.1185  0.8539
 1166SOL    MW4 4737   3.789   1.294   1.997 -0.0482  0.1193  0.6104
 1167SOL     OW 4738   3.789   1.587   1.925  0.6680  0.3028  0.2491
 1167SOL    HW2 4739   3.704   1.624   1.951  1.0596  1.1929  0.2934
 1167SOL    HW3 4740   3.777   1.493   1.930 -1.9710  0.2141 -4.9002
 1167SOL    MW4 4741   3.776   1.580   1.929  0.3719  0.4085 -0.4245
 1168SOL     OW 4742   3.538   1.711   2.001  0.3944 -0.1508  0.5657
 1168SOL    HW2 4743   3.550   1.804   1.981  0.2591 -0.3151 -0.2990
 1168SOL    HW3 4744   3.569   1.702   2.091 -1.4196  1.1160  1.3765
 1168SOL    MW4 4745   3.543   1.722   2.010  0.1371 -0.0054  0.5586
 1169SOL     OW 4746   3.570   1.973   1.942  0.0367  0.6681  0.0927
 1169SOL    HW2 4747   3.650   2.016   1.972  0.6900  0.2211 -0.9757
 1169SOL    HW3 4748   3.586   1.955   1.850 -0.6314 -0.9485  0.2780
 1169SOL    MW4 4749   3.583   1.977   1.934  0.0346  0.3959 -0.0237
 1170SOL     OW 4750   3.800   2.092   2.020 -0.0892 -0.1043 -0.0365
 1170SOL    HW2 4751   3.864   2.035   1.977 -0.4755 -0.4185 -0.2018
 1170SOL    HW3 4752   3.807   2.175   1.973 -0.1949 -0.3109 -0.4207
 1170SOL    MW4 4753   3.809   2.095   2.008 -0.1543 -0.1731 -0.1090
 1171SOL     OW 4754   3.806   2.327   1.879 -0.0748 -0.0971  0.1945
 1171SOL    HW2 4755   3.882   2.385   1.887  0.0645 -0.2941  0.2988
 1171SOL    HW3 4756   3.732   2.379   1.911  0.1542 -0.1968  0.8823
 1171SOL    MW4 4757   3.806   2.342   1.884 -0.0262 -0.1361  0.2990
 1172SOL     OW 4758   3.572   2.427   1.984  0.1753 -0.0312 -0.2907
 1172SOL    HW2 4759   3.563   2.521   1.968 -0.9921  0.3226  2.1569
 1172SOL    HW3 4760   3.484   2.391   1.968 -0.5442  0.0476  3.1198
 1172SOL    MW4 4761   3.559   2.435   1.980 -0.0737  0.0260  0.4822
 1173SOL     OW 4762   3.560   2.705   1.883 -0.3936  0.2254  0.0251
 1173SOL    HW2 4763   3.637   2.753   1.913 -0.9034  1.3001 -0.3900
 1173SOL    HW3 4764   3.486   2.759   1.908 -1.0670 -1.1069  0.9837
 1173SOL    MW4 4765   3.561   2.718   1.890 -0.5498  0.1912  0.0968
 1174SOL     OW 4766   3.805   2.820   1.984 -0.1702 -0.2066 -0.1063
 1174SOL    HW2 4767   3.797   2.815   2.080  0.7950  1.2807  0.0713
 1174SOL    HW3 4768   3.816   2.913   1.966  0.4673 -0.5631 -1.6144
 1174SOL    MW4 4769   3.805   2.832   1.995  0.0415 -0.0572 -0.2817
 1175SOL     OW 4770   3.815   3.085   1.861 -0.5661 -0.1365 -0.2052
 1175SOL    HW2 4771   3.731   3.129   1.878 -0.0294  0.5647  0.6696
 1175SOL    HW3 4772   3.816   3.069   1.767 -2.0782 -0.9366 -0.1054
 1175SOL    MW4 4773   3.804   3.089   1.851 -0.6943 -0.1495 -0.0767
 1176SOL     OW 4774   3.585   3.226   1.963  0.3078  0.0159  0.5018
 1176SOL    HW2 4775   3.584   3.217   2.059 -0.3782  1.7937  0.6816
 1176SOL    HW3 4776   3.584   3.320   1.948 -1.1415 -0.2587 -1.2940
 1176SOL    MW4 4777   3.585   3.237   1.974  0.0260  0.2143  0.2885
 1177SOL     OW 4778   3.603   3.497   1.901 -0.4230  0.5028 -0.0202
 1177SOL    HW2 4779   3.676   3.551   1.933 -1.2141  1.2142  0.6310
 1177SOL    HW3 4780   3.615   3.494   1.806  1.5432 -1.0145  0.2543
 1177SOL    MW4 4781   3.614   3.504   1.893 -0.2680  0.3965  0.1019
 1178SOL     OW 4782   3.816   3.649   1.993 -0.0957  0.2336  0.1336
 1178SOL    HW2 4783   3.884   3.593   1.955 -1.6585 -0.7056 -1.3359
 1178SOL    HW3 4784   3.828   3.734   1.952  0.8610  0.3672  0.6801
 1178SOL    MW4 4785   3.827   3.653   1.983 -0.1757  0.1273  0.0119
 1179SOL     OW 4786   3.826   3.899   1.888  0.1574 -0.1573 -0.0937
 1179SOL    HW2 4787   3.751   3.928   1.939 -0.4774 -0.3942 -0.8847
 1179SOL    HW3 4788   3.804   3.922   1.798  1.7833  1.3557 -0.1424
 1179SOL    MW4 4789   3.813   3.906   1.883  0.2880  0.0110 -0.2046
 1180SOL     OW 4790   3.595   4.015   1.991 -0.1429  0.7633 -0.3739
 1180SOL    HW2 4791   3.572   4.023   2.084  0.3383  0.7142 -0.2486
 1180SOL    HW3 4792   3.522   3.968   1.952  0.7436 -1.3545  0.4461
 1180SOL    MW4 4793   3.583   4.010   1.998  0.0374  0.4773 -0.2491
 1181SOL     OW 4794   3.589   4.256   1.863 -0.1563  0.1311  0.2867
 1181SOL    HW2 4795   3.645   4.308   1.920  0.0542  0.6220 -0.3578
 1181SOL    HW3 4796   3.604   4.166   1.890 -1.2220  0.4637  2.0396
 1181SOL    MW4 4797   3.599   4.251   1.874 -0.2692  0.2398  0.4330
 1182SOL     OW 4798   3.798   4.399   1.959  0.0240  0.6105  0.3666
 1182SOL    HW2 4799   3.795   4.391   2.054  0.5732 -0.5847  0.2945
 1182SOL    HW3 4800   3.884   4.366   1.935 -0.5994 -0.3185 -0.6543
 1182SOL    MW4 4801   3.809   4.394   1.968  0.0143  0.3300  0.2223
 1183SOL     OW 4802   4.248   4.647   1.867  0.1701 -0.6277  0.3464
 1183SOL    HW2 4803   4.187   4.705   1.913  1.1397  0.3023  0.4863
 1183SOL    HW3 4804   4.334   4.671   1.900  0.7689 -0.8348 -1.0055
 1183SOL    MW4 4805   4.251   4.658   1.877  0.3767 -0.5322  0.1864
 1184SOL     OW 4806   4.057   0.155   1.997 -0.2990 -0.5123  0.2075
 1184SOL    HW2 4807   4.046   0.124   2.086 -1.1835  0.1450  0.3311
 1184SOL    HW3 4808   3.984   0.117   1.949  1.2366 -2.4152 -0.6565
 1184SOL    MW4 4809   4.046   0.146   2.002 -0.2136 -0.6767  0.1099
 1185SOL     OW 4810   4.070   0.420   1.876 -0.2394  0.1132 -0.2135
 1185SOL    HW2 4811   4.069   0.329   1.905 -0.0702 -0.1582 -1.0558
 1185SOL    HW3 4812   3.987   0.456   1.908 -0.1138 -0.2198  0.4829
 1185SOL    MW4 4813   4.059   0.413   1.884 -0.2003  0.0335 -0.2327
 1186SOL     OW 4814   4.305   0.515   1.945 -0.0796 -0.1612  0.1870
 1186SOL    HW2 4815   4.314   0.515   2.040  0.3771 -0.4495  0.1423
 1186SOL    HW3 4816   4.213   0.493   1.930 -0.1332 -0.1843  0.5601
 1186SOL    MW4 4817   4.294   0.512   1.955 -0.0262 -0.2023  0.2303
 1187SOL     OW 4818   4.259   0.785   1.902 -0.2356 -0.0561  0.4471
 1187SOL    HW2 4819   4.271   0.696   1.934 -1.4206 -0.2349  0.4177
 1187SOL    HW3 4820   4.260   0.777   1.807  1.7042  0.2540  0.4329
 1187SOL    MW4 4821   4.260   0.773   1.894 -0.1359 -0.0387  0.4413
 1188SOL     OW 4822   4.043   0.921   2.012 -0.0408  0.1851  0.1031
 1188SOL    HW2 4823   4.116   0.873   1.972 -0.7990  0.1289 -1.2763
 1188SOL    HW3 4824   3.965   0.878   1.977 -0.7436  0.0514  1.7950
 1188SOL    MW4 4825   4.042   0.909   2.002 -0.2337  0.1601  0.1440
 1189SOL     OW 4826   4.017   1.180   1.903  0.4156  0.2819  0.2323
 1189SOL    HW2 4827   4.021   1.090   1.936  0.6303  0.3884  0.4913
 1189SOL    HW3 4828   3.942   1.218   1.948  0.4746  0.3084  0.3078
 1189SOL    MW4 4829   4.007   1.173   1.913  0.4516  0.2995  0.2763
 1190SOL     OW 4830   4.247   1.319   1.998 -0.1459  0.1316  0.3076
 1190SOL    HW2 4831   4.236   1.308   2.092 -0.8902  0.0335  0.2085
 1190SOL    HW3 4832   4.167   1.283   1.960  0.9941 -1.6322 -0.4785
 1190SOL    MW4 4833   4.235   1.313   2.005 -0.0930 -0.1141  0.1910
 1191SOL     OW 4834   4.249   1.577   1.901  0.4848  0.3271 -0.4627
 1191SOL    HW2 4835   4.246   1.491   1.941  0.9637  0.5131 -0.0246
 1191SOL    HW3 4836   4.169   1.620   1.930  0.0437 -0.1168 -1.0188
 1191SOL    MW4 4837   4.238   1.572   1.910  0.4902  0.2931 -0.4783
 1192SOL     OW 4838   4.031   1.707   2.007  0.0957  0.2029  0.0845
 1192SOL    HW2 4839   4.054   1.685   2.097  2.5080 -2.9055 -1.2333
 1192SOL    HW3 4840   3.952   1.656   1.989 -0.5039  0.9770  0.4243
 1192SOL    MW4 4841   4.023   1.698   2.017  0.3347 -0.1051 -0.0448
 1193SOL     OW 4842   4.018   1.974   1.903  0.1443 -0.4672 -0.4202
 1193SOL    HW2 4843   4.030   1.884   1.933  1.8187 -0.0523  0.1684
 1193SOL    HW3 4844   4.033   1.969   1.808  0.9552 -0.6846 -0.2867
 1193SOL    MW4 4845   4.021   1.961   1.894  0.4721 -0.4412 -0.3250
 1194SOL     OW 4846   4.266   2.078   2.012  0.2148 -0.1928 -0.4761
 1194SOL    HW2 4847   4.263   2.089   2.107 -1.0968  1.0006 -0.6338
 1194SOL    HW3 4848   4.178   2.047   1.989  0.4174 -0.1352 -1.3463
 1194SOL    MW4 4849   4.254   2.075   2.021  0.0687 -0.0279 -0.6118
 1195SOL     OW 4850   4.286   2.305   1.868  0.1986  0.0273 -0.2040
 1195SOL    HW2 4851   4.277   2.221   1.914 -0.8181  0.4953  0.4661
 1195SOL    HW3 4852   4.366   2.344   1.904  0.4993 -0.5033 -0.2903
 1195SOL    MW4 4853   4.296   2.299   1.879  0.1044  0.0193 -0.1271
 1196SOL     OW 4854   4.045   2.455   1.928 -0.8996  0.3810 -0.1944
 1196SOL    HW2 4855   4.035   2.429   2.020  0.1991 -0.1590 -0.2086
 1196SOL    HW3 4856   4.111   2.394   1.894 -2.0233 -0.0750 -1.6119
 1196SOL    MW4 4857   4.053   2.443   1.935 -0.9027  0.2496 -0.3831
 1197SOL     OW 4858   4.028   2.726   1.866  0.1484 -0.2644 -0.0823
 1197SOL    HW2 4859   4.025   2.634   1.893 -1.3643 -0.3112 -0.3742
 1197SOL    HW3 4860   3.952   2.766   1.908 -1.0507  0.1316 -2.5135
 1197SOL    MW4 4861   4.018   2.719   1.875 -0.2093 -0.2184 -0.4417
 1198SOL     OW 4862   4.260   2.876   1.956  0.4230 -0.3670  0.1563
 1198SOL    HW2 4863   4.262   2.872   2.052 -0.3586 -1.2080  0.1434
 1198SOL    HW3 4864   4.184   2.823   1.931  0.2044  0.4091 -0.8966
 1198SOL    MW4 4865   4.250   2.869   1.965  0.2909 -0.3757  0.0157
 1199SOL     OW 4866   4.252   3.149   1.884 -0.0622  0.1718  0.0998
 1199SOL    HW2 4867   4.172   3.190   1.917 -0.6627  0.1236 -1.2444
 1199SOL    HW3 4868   4.234   3.055   1.887  0.4623  0.0992  1.0679
 1199SOL    MW4 4869   4.239   3.142   1.888 -0.0725  0.1557  0.0503
 1200SOL     OW 4870   4.019   3.245   1.965  0.1984 -0.0165  0.0660
 1200SOL    HW2 4871   4.017   3.234   2.060 -1.3180 -0.2405  0.0273
 1200SOL    HW3 4872   3.951   3.186   1.932 -0.9914  1.8314 -0.9415
 1200SOL    MW4 4873   4.010   3.236   1.973 -0.1588  0.1979 -0.0720
 1201SOL     OW 4874   4.036   3.502   1.886 -0.5373  0.3226 -0.1891
 1201SOL    HW2 4875   4.116   3.530   1.931  0.1927 -1.3058 -0.4465
 1201SOL    HW3 4876   4.015   3.417   1.925 -1.3116  0.0541 -1.1854
 1201SOL    MW4 4877   4.044   3.495   1.897 -0.5436  0.0722 -0.3544
 1202SOL     OW 4878   4.255   3.614   2.026  0.4277  0.1160 -0.2460
 1202SOL    HW2 4879   4.254   3.698   1.979  0.6605  0.5868  0.5903
 1202SOL    HW3 4880   4.334   3.570   1.993 -1.2585 -1.0293 -2.8639
 1202SOL    MW4 4881   4.266   3.619   2.015  0.2360  0.0269 -0.4811
 1203SOL     OW 4882   4.279   3.871   1.893 -0.0940  0.2883  0.4119
 1203SOL    HW2 4883   4.362   3.907   1.926 -0.5365  0.6799  1.1106
 1203SOL    HW3 4884   4.296   3.853   1.800  1.4124 -1.5758  1.0183
 1203SOL    MW4 4885   4.292   3.873   1.885  0.0463  0.0939  0.5842
 1204SOL     OW 4886   4.070   4.031   1.973  0.2174  0.0894  0.2621
 1204SOL    HW2 4887   4.143   3.972   1.953 -0.2733 -0.5531  0.3623
 1204SOL    HW3 4888   3.994   3.989   1.933 -0.1290  0.6771  0.3028
 1204SOL    MW4 4889   4.070   4.018   1.965  0.1073  0.0815  0.2806
 1205SOL     OW 4890   4.047   4.273   1.862 -0.6715 -0.0868 -0.1870
 1205SOL    HW2 4891   4.128   4.318   1.886 -0.0089  0.0054 -2.4735
 1205SOL    HW3 4892   4.060   4.183   1.891  0.7830 -0.3681 -1.6637
 1205SOL    MW4 4893   4.059   4.267   1.869 -0.3924 -0.1121 -0.6837
 1206SOL     OW 4894   4.300   4.378   1.966 -0.8624  0.4539 -0.0223
 1206SOL    HW2 4895   4.298   4.363   2.060  0.7517  0.8313  0.0946
 1206SOL    HW3 4896   4.285   4.472   1.957  0.2139  0.6299 -0.0534
 1206SOL    MW4 4897   4.298   4.389   1.977 -0.5069  0.5269 -0.0111
 1207SOL     OW 4898   0.248   4.644   2.301  0.1029  0.4038 -0.2246
 1207SOL    HW2 4899   0.251   4.641   2.397 -0.2329 -0.5043 -0.2411
 1207SOL    HW3 4900   0.317   4.707   2.277 -1.6642  2.7719  0.7007
 1207SOL    MW4 4901   0.258   4.652   2.310 -0.1746  0.5960 -0.1047
 1208SOL     OW 4902   4.469   0.077   2.269 -0.4886 -0.0842  0.2577
 1208SOL    HW2 4903   4.466   0.085   2.174  0.4481  3.0325  0.4518
 1208SOL    HW3 4904   4.547   0.025   2.287  0.1205  0.5265 -0.6151
 1208SOL    MW4 4905   4.479   0.071   2.259 -0.2847  0.4075  0.1683
 1209SOL     OW 4906   4.475   0.341   2.337  0.0977  0.0627 -0.1532
 1209SOL    HW2 4907   4.552   0.373   2.291 -0.0996  0.0969 -0.4608
 1209SOL    HW3 4908   4.480   0.246   2.331  0.2409  0.0581  0.0351
 1209SOL    MW4 4909   4.486   0.333   2.330  0.0906  0.0666 -0.1688
 1210SOL     OW 4910   0.197   0.475   2.260 -0.1573 -0.3029 -0.2921
 1210SOL    HW2 4911   0.283   0.445   2.290 -0.5600 -1.4406 -0.2731
 1210SOL    HW3 4912   0.200   0.466   2.165 -0.6377 -1.3693 -0.2090
 1210SOL    MW4 4913   0.209   0.470   2.252 -0.2738 -0.5937 -0.2785
 1211SOL     OW 4914   0.243   0.734   2.328 -0.4728 -0.2116 -0.4996
 1211SOL    HW2 4915   0.228   0.740   2.423  0.3242 -0.8524 -0.3258
 1211SOL    HW3 4916   0.222   0.643   2.307  2.0364 -0.8490 -0.4399
 1211SOL    MW4 4917   0.238   0.723   2.338 -0.0366 -0.3803 -0.4690
 1212SOL     OW 4918   0.005   0.870   2.300 -0.0496  0.1233 -0.3465
 1212SOL    HW2 4919   0.089   0.825   2.312 -0.9348 -1.6970 -0.9917
 1212SOL    HW3 4920  -0.003   0.882   2.205 -1.4956 -1.5985 -0.4585
 1212SOL    MW4 4921   0.015   0.866   2.289 -0.3572 -0.3441 -0.4466
 1213SOL     OW 4922   0.002   1.140   2.365  0.5232  0.2363  0.0636
 1213SOL    HW2 4923   0.011   1.149   2.460 -2.0588  2.1139  0.1817
 1213SOL    HW3 4924   0.002   1.046   2.350 -0.4202 -0.1076  2.0745
 1213SOL    MW4 4925   0.003   1.129   2.376  0.0582  0.4387  0.3445
 1214SOL     OW 4926   0.221   1.275   2.256  0.0117 -0.1900 -0.4687
 1214SOL    HW2 4927   0.161   1.212   2.297 -1.3745  0.5522 -1.3720
 1214SOL    HW3 4928   0.210   1.261   2.162  1.3191 -0.0951 -0.6450
 1214SOL    MW4 4929   0.212   1.265   2.249  0.0013 -0.0795 -0.6111
 1215SOL     OW 4930   0.226   1.529   2.344  0.0432 -0.1543  0.3099
 1215SOL    HW2 4931   0.221   1.522   2.440 -0.5136 -0.5513  0.2552
 1215SOL    HW3 4932   0.222   1.439   2.314 -3.0690  0.1250 -0.2284
 1215SOL    MW4 4933   0.225   1.516   2.353 -0.4409 -0.1696  0.2317
 1216SOL     OW 4934   4.484   1.681   2.264  0.6004  0.3273  0.4070
 1216SOL    HW2 4935   4.479   1.762   2.314  0.9346 -0.2340  1.3702
 1216SOL    HW3 4936   4.566   1.641   2.292  0.9366  0.1370 -0.8095
 1216SOL    MW4 4937   4.494   1.686   2.274  0.6886  0.2282  0.3734
 1217SOL     OW 4938   0.024   1.943   2.379 -0.3019  0.4138  0.3005
 1217SOL    HW2 4939  -0.064   1.975   2.360 -0.6631 -0.3096  0.7340
 1217SOL    HW3 4940   0.082   2.000   2.329 -1.0074  1.0109  0.1578
 1217SOL    MW4 4941   0.020   1.955   2.370 -0.4426  0.3973  0.3390
 1218SOL     OW 4942   0.233   2.101   2.245 -0.0663 -0.0383 -0.2242
 1218SOL    HW2 4943   0.288   2.034   2.285 -1.4495 -0.5589  0.8271
 1218SOL    HW3 4944   0.243   2.087   2.151  0.6012 -0.9346 -0.0267
 1218SOL    MW4 4945   0.242   2.091   2.238 -0.1607 -0.2251 -0.0596
 1219SOL     OW 4946   0.219   2.364   2.352 -0.2015  0.0987 -0.2922
 1219SOL    HW2 4947   0.206   2.344   2.445 -0.5460 -2.2495 -0.8129
 1219SOL    HW3 4948   0.222   2.278   2.309  1.6721  1.0989 -2.2335
 1219SOL    MW4 4949   0.218   2.350   2.359  0.0002 -0.0789 -0.6168
 1220SOL     OW 4950   4.454   2.452   2.281  0.3151  0.1602  0.1378
 1220SOL    HW2 4951   4.454   2.546   2.298 -1.0321  0.3861 -0.9798
 1220SOL    HW3 4952   4.543   2.424   2.299  0.7615  1.6823  0.3441
 1220SOL    MW4 4953   4.466   2.461   2.286  0.1960  0.3908  0.0174
 1221SOL     OW 4954   4.441   2.722   2.318 -0.0271 -0.4616  0.0694
 1221SOL    HW2 4955   4.435   2.719   2.413 -0.4930  0.8876  0.0786
 1221SOL    HW3 4956   4.534   2.740   2.301  0.4937 -2.8532  0.2138
 1221SOL    MW4 4957   4.453   2.724   2.328 -0.0196 -0.5989  0.0896
 1222SOL     OW 4958   0.202   2.810   2.255  0.2506  0.1862 -0.0614
 1222SOL    HW2 4959   0.290   2.781   2.280  0.7005  0.3374 -1.4516
 1222SOL    HW3 4960   0.204   2.813   2.160 -1.0853  0.7705 -0.0761
 1222SOL    MW4 4961   0.214   2.807   2.246  0.1337  0.2832 -0.2470
 1223SOL     OW 4962   0.200   3.081   2.323  0.2279 -0.1680 -0.6119
 1223SOL    HW2 4963   0.120   3.130   2.300 -0.9612 -0.0460  3.4119
 1223SOL    HW3 4964   0.186   2.994   2.285 -1.4898  0.0742 -0.5846
 1223SOL    MW4 4965   0.187   3.076   2.315 -0.1556 -0.1202 -0.0775
 1224SOL     OW 4966   4.462   3.230   2.281  0.0231 -0.0511 -0.3058
 1224SOL    HW2 4967   4.469   3.323   2.303  2.6995 -0.3343  0.2393
 1224SOL    HW3 4968   4.472   3.228   2.185  0.1947  0.2117 -0.2953
 1224SOL    MW4 4969   4.464   3.242   2.271  0.3991 -0.0536 -0.2322
 1225SOL     OW 4970   4.479   3.495   2.374 -0.5080 -0.0722  0.0263
 1225SOL    HW2 4971   4.491   3.487   2.469 -0.9620 -1.6600 -0.0310
 1225SOL    HW3 4972   4.398   3.544   2.363 -0.7888 -0.4275  0.4766
 1225SOL    MW4 4973   4.470   3.500   2.385 -0.6046 -0.3283  0.0784
 1226SOL     OW 4974   0.223   3.610   2.290 -0.3092 -0.5862  0.2993
 1226SOL    HW2 4975   0.290   3.547   2.316  0.8579  0.7797  0.6808
 1226SOL    HW3 4976   0.141   3.574   2.325  0.2332 -2.2180 -0.0813
 1226SOL    MW4 4977   0.221   3.597   2.298 -0.0837 -0.6213  0.2995
 1227SOL     OW 4978   0.233   3.874   2.387 -0.0498  0.6305  0.2087
 1227SOL    HW2 4979   0.145   3.902   2.361 -0.0470  0.5456  0.1050
 1227SOL    HW3 4980   0.243   3.787   2.347  1.1038  1.7802 -2.0812
 1227SOL    MW4 4981   0.223   3.866   2.378  0.1028  0.7708 -0.1068
 1228SOL     OW 4982   4.480   3.988   2.286 -0.0984 -0.0322 -0.9071
 1228SOL    HW2 4983   4.502   4.077   2.310  1.2368 -0.8664  1.0422
 1228SOL    HW3 4984   4.481   3.988   2.190 -1.7967  2.4193 -0.9702
 1228SOL    MW4 4985   4.483   3.999   2.276 -0.1463  0.1812 -0.6583
 1229SOL     OW 4986   0.043   4.257   2.370  0.0557  0.1795  0.1207
 1229SOL    HW2 4987   0.045   4.265   2.465 -1.5565 -0.4305  0.2302
 1229SOL    HW3 4988   0.125   4.296   2.340  0.0880  1.3444  1.6965
 1229SOL    MW4 4989   0.054   4.263   2.378 -0.1528  0.2527  0.3431
 1230SOL     OW 4990   0.271   4.385   2.235 -0.2583  0.1939  0.1572
 1230SOL    HW2 4991   0.343   4.344   2.284 -1.4233 -0.2307  1.5520
 1230SOL    HW3 4992   0.269   4.475   2.267  0.4053  0.5414 -0.7551
 1230SOL    MW4 4993   0.280   4.392   2.246 -0.3245  0.1841  0.2208
 1231SOL     OW 4994   0.684   4.645   2.298 -0.0220 -0.2958  0.4848
 1231SOL    HW2 4995   0.667   4.659   2.392  1.3874 -1.0183  0.8556
 1231SOL    HW3 4996   0.768   4.687   2.283 -0.0644 -0.5226 -0.3807
 1231SOL    MW4 4997   0.693   4.652   2.309  0.1584 -0.4210  0.4196
 1232SOL     OW 4998   0.454   0.133   2.216  0.2716  0.1058  0.0726
 1232SOL    HW2 4999   0.536   0.083   2.215 -0.6922 -1.5059  0.3706
 1232SOL    HW3 5000   0.431   0.143   2.124 -0.6080 -1.8372  0.0550
 1232SOL    MW4 5001   0.462   0.128   2.204  0.0284 -0.3632  0.1094
 1233SOL     OW 5002   0.464   0.399   2.311  0.2965 -0.2736 -0.4879
 1233SOL    HW2 5003   0.464   0.387   2.406  0.8316 -0.2158 -0.4827
 1233SOL    HW3 5004   0.467   0.310   2.276  1.3484 -0.2508 -0.4509
 1233SOL    MW4 5005   0.464   0.385   2.319  0.5059 -0.2630 -0.4823
 1234SOL     OW 5006   0.700   0.504   2.235  0.3016 -0.8889  0.3567
 1234SOL    HW2 5007   0.707   0.588   2.280 -1.5828 -0.8976  0.6921
 1234SOL    HW3 5008   0.621   0.464   2.270 -0.1352 -1.7625 -1.5410
 1234SOL    MW4 5009   0.691   0.510   2.245 -0.0046 -1.0053  0.1504
 1235SOL     OW 5010   0.676   0.759   2.373 -0.0851 -0.1221 -0.5053
 1235SOL    HW2 5011   0.682   0.766   2.468  1.6266  1.7918 -0.7145
 1235SOL    HW3 5012   0.589   0.790   2.351 -0.5985 -0.8600  0.4473
 1235SOL    MW4 5013   0.666   0.764   2.382  0.0730  0.0330 -0.4070
 1236SOL     OW 5014   0.457   0.892   2.258 -0.0836  0.1027 -0.1001
 1236SOL    HW2 5015   0.377   0.845   2.279 -1.6056  2.2931 -0.9301
 1236SOL    HW3 5016   0.463   0.886   2.162  0.6108  0.1812 -0.0648
 1236SOL    MW4 5017   0.448   0.885   2.248 -0.1929  0.4021 -0.2048
 1237SOL     OW 5018   0.449   1.171   2.362 -0.0510 -0.3303 -0.1456
 1237SOL    HW2 5019   0.462   1.095   2.307 -0.9947 -0.6910  0.1150
 1237SOL    HW3 5020   0.379   1.221   2.318 -1.0931 -0.8236  0.9087
 1237SOL    MW4 5021   0.441   1.168   2.349 -0.3130 -0.4430  0.0279
 1238SOL     OW 5022   0.653   1.291   2.233 -0.0345  0.0909 -0.5074
 1238SOL    HW2 5023   0.654   1.371   2.286  0.4028 -0.5148  0.4227
 1238SOL    HW3 5024   0.586   1.236   2.275  0.6120 -0.5627 -0.3194
 1238SOL    MW4 5025   0.644   1.294   2.246  0.1085 -0.0753 -0.3598
 1239SOL     OW 5026   0.675   1.538   2.372  0.2598  0.5896  1.0517
 1239SOL    HW2 5027   0.670   1.564   2.464  1.2274  1.5578  0.8345
 1239SOL    HW3 5028   0.748   1.589   2.336  0.4730 -0.4561 -0.0306
 1239SOL    MW4 5029   0.684   1.548   2.380  0.4156  0.5794  0.8802
 1240SOL     OW 5030   0.451   1.674   2.278  0.0072  0.2268 -0.0751
 1240SOL    HW2 5031   0.533   1.625   2.291 -0.3467 -0.5488 -0.7427
 1240SOL    HW3 5032   0.382   1.611   2.299 -0.4022  1.3842  2.1629
 1240SOL    MW4 5033   0.453   1.659   2.282 -0.0935  0.2773  0.1321
 1241SOL     OW 5034   0.419   1.931   2.383 -0.0679  0.6681  0.0494
 1241SOL    HW2 5035   0.495   1.961   2.332  0.5607  0.5645  0.9073
 1241SOL    HW3 5036   0.417   1.836   2.369  0.7777  0.4890  1.1065
 1241SOL    MW4 5037   0.429   1.922   2.374  0.1267  0.6309  0.3021
 1242SOL     OW 5038   0.620   2.051   2.238 -0.8347  0.1895 -0.2642
 1242SOL    HW2 5039   0.706   2.009   2.241 -0.7566  0.1464 -2.7223
 1242SOL    HW3 5040   0.637   2.141   2.267  0.0425  0.1730 -0.7188
 1242SOL    MW4 5041   0.634   2.058   2.243 -0.7087  0.1814 -0.6487
 1243SOL     OW 5042   0.667   2.310   2.313  0.2783  0.1714 -0.2693
 1243SOL    HW2 5043   0.653   2.325   2.407  0.4245 -0.2233 -0.1831
 1243SOL    HW3 5044   0.748   2.357   2.293  0.0811  0.5146 -0.2652
 1243SOL    MW4 5045   0.676   2.318   2.323  0.2716  0.1645 -0.2575
 1244SOL     OW 5046   0.437   2.438   2.210  0.2024 -0.0969 -0.1298
 1244SOL    HW2 5047   0.514   2.398   2.250  0.1780  0.1567  0.1724
 1244SOL    HW3 5048   0.363   2.401   2.258  0.0728 -1.2007 -1.1686
 1244SOL    MW4 5049   0.438   2.428   2.221  0.1821 -0.2089 -0.2270
 1245SOL     OW 5050   0.443   2.705   2.309  0.2364 -0.0537  0.1317
 1245SOL    HW2 5051   0.430   2.697   2.404 -0.2212 -0.6586  0.0259
 1245SOL    HW3 5052   0.422   2.618   2.275 -0.1874  0.3267 -0.5871
 1245SOL    MW4 5053   0.438   2.692   2.317  0.1201 -0.0837  0.0229
 1246SOL     OW 5054   0.667   2.842   2.269 -0.1158 -0.7677 -0.1303
 1246SOL    HW2 5055   0.740   2.796   2.310 -0.3221 -0.7466  0.2591
 1246SOL    HW3 5056   0.591   2.788   2.288 -0.7031  0.8090  2.1485
 1246SOL    MW4 5057   0.667   2.829   2.277 -0.2205 -0.5569  0.2217
 1247SOL     OW 5058   0.684   3.096   2.362 -0.4127 -0.2885 -0.2401
 1247SOL    HW2 5059   0.603   3.135   2.329  0.3261  0.2256 -1.4855
 1247SOL    HW3 5060   0.686   3.009   2.322 -0.3906 -0.3271 -0.1550
 1247SOL    MW4 5061   0.674   3.090   2.352 -0.3123 -0.2258 -0.3934
 1248SOL     OW 5062   0.439   3.193   2.257 -0.0278 -0.1338 -0.5066
 1248SOL    HW2 5063   0.361   3.148   2.291 -0.4648  0.5381 -0.6142
 1248SOL    HW3 5064   0.419   3.208   2.164 -0.3302  1.2217 -0.2291
 1248SOL    MW4 5065   0.426   3.189   2.249 -0.1253  0.1338 -0.4845
 1249SOL     OW 5066   0.426   3.447   2.358 -0.1243  0.0789 -0.5079
 1249SOL    HW2 5067   0.504   3.492   2.325  0.7135 -1.8527 -1.2696
 1249SOL    HW3 5068   0.438   3.356   2.330 -1.9348 -0.5425  0.6693
 1249SOL    MW4 5069   0.438   3.441   2.350 -0.2526 -0.2580 -0.4530
 1250SOL     OW 5070   0.631   3.600   2.254  0.2743  0.2772 -0.2403
 1250SOL    HW2 5071   0.622   3.687   2.291  2.8486  0.3227  0.3330
 1250SOL    HW3 5072   0.639   3.614   2.160 -0.2315  0.5908 -0.2363
 1250SOL    MW4 5073   0.631   3.613   2.247  0.5471  0.3247 -0.1640
 1251SOL     OW 5074   0.661   3.853   2.370 -0.1403 -0.2220  0.3536
 1251SOL    HW2 5075   0.668   3.862   2.465 -1.6884 -0.9544  0.5688
 1251SOL    HW3 5076   0.588   3.909   2.346 -0.3189 -0.7144 -0.2769
 1251SOL    MW4 5077   0.652   3.861   2.379 -0.3681 -0.3836  0.2987
 1252SOL     OW 5078   0.459   4.008   2.265  0.3142  0.1428 -0.2489
 1252SOL    HW2 5079   0.368   3.993   2.290 -0.0584  2.1854 -0.2950
 1252SOL    HW3 5080   0.460   3.994   2.170 -0.4868  2.3454 -0.6251
 1252SOL    MW4 5081   0.447   4.004   2.256  0.1594  0.7024 -0.3047
 1253SOL     OW 5082   0.496   4.267   2.369 -0.1439 -0.3469  0.1320
 1253SOL    HW2 5083   0.576   4.306   2.334 -0.7896  1.5622  0.7441
 1253SOL    HW3 5084   0.493   4.179   2.330  2.0372 -0.2920 -0.1902
 1253SOL    MW4 5085   0.506   4.261   2.359  0.0587 -0.0877  0.1702
 1254SOL     OW 5086   0.702   4.376   2.226 -0.0203 -0.1520  0.7806
 1254SOL    HW2 5087   0.689   4.467   2.252 -1.6539 -0.7464  2.1502
 1254SOL    HW3 5088   0.692   4.376   2.131  0.9985  1.2428  0.6586
 1254SOL    MW4 5089   0.699   4.388   2.217 -0.1014 -0.0467  0.9451
 1255SOL     OW 5090   1.135   4.616   2.369 -0.4335 -0.8175  0.0141
 1255SOL    HW2 5091   1.143   4.626   2.464  2.0858  0.8615 -0.3359
 1255SOL    HW3 5092   1.066   4.678   2.344  0.0844 -0.0239  0.5344
 1255SOL    MW4 5093   1.127   4.625   2.378 -0.0328 -0.4916  0.0367
 1256SOL     OW 5094   0.940   0.097   2.254  0.3954  0.2614  0.2070
 1256SOL    HW2 5095   0.895   0.175   2.286  0.8152  0.6951 -0.2450
 1256SOL    HW3 5096   0.934   0.103   2.159  0.5738 -0.1758  0.1650
 1256SOL    MW4 5097   0.933   0.108   2.246  0.4743  0.2610  0.1421
 1257SOL     OW 5098   0.882   0.350   2.375  0.0753 -0.3384  0.0020
 1257SOL    HW2 5099   0.966   0.389   2.353  0.1310 -1.0292 -1.0197
 1257SOL    HW3 5100   0.817   0.405   2.331  0.0777 -0.6417 -0.3804
 1257SOL    MW4 5101   0.885   0.362   2.367  0.0830 -0.4696 -0.1833
 1258SOL     OW 5102   1.112   0.479   2.279  0.1645 -0.0696 -0.4237
 1258SOL    HW2 5103   1.185   0.441   2.328  0.5659  1.7771  0.4573
 1258SOL    HW3 5104   1.147   0.490   2.191  1.0385  1.0236  0.0472
 1258SOL    MW4 5105   1.127   0.475   2.274  0.3330  0.3183 -0.2453
 1259SOL     OW 5106   1.120   0.734   2.395  0.2949  0.2547 -0.5418
 1259SOL    HW2 5107   1.053   0.784   2.347 -1.8534 -0.4943  1.5675
 1259SOL    HW3 5108   1.104   0.643   2.371 -1.2926 -0.2119  2.0527
 1259SOL    MW4 5109   1.109   0.729   2.386 -0.1980  0.0943  0.0787
 1260SOL     OW 5110   0.884   0.885   2.251  0.2174  0.4206  0.2799
 1260SOL    HW2 5111   0.886   0.976   2.280 -0.8167  0.5198  0.0632
 1260SOL    HW3 5112   0.808   0.847   2.296  0.7687 -0.3950  0.5390
 1260SOL    MW4 5113   0.874   0.892   2.261  0.1536  0.3262  0.2854
 1261SOL     OW 5114   0.862   1.149   2.353 -0.0495  0.3444  0.1547
 1261SOL    HW2 5115   0.935   1.204   2.325  0.2023 -0.7642 -1.3822
 1261SOL    HW3 5116   0.786   1.184   2.306  0.0865 -0.5278 -0.7177
 1261SOL    MW4 5117   0.862   1.161   2.343  0.0016  0.0830 -0.1633
 1262SOL     OW 5118   1.078   1.291   2.264 -0.2972 -0.2592 -0.3923
 1262SOL    HW2 5119   1.155   1.243   2.293  0.1910  0.9054  0.2815
 1262SOL    HW3 5120   1.088   1.299   2.169 -0.0008 -0.8163 -0.4026
 1262SOL    MW4 5121   1.089   1.286   2.255 -0.1936 -0.1789 -0.3047
 1263SOL     OW 5122   1.075   1.535   2.377  0.3501 -0.1483  0.3091
 1263SOL    HW2 5123   1.002   1.576   2.330  1.5505 -0.5179 -1.9636
 1263SOL    HW3 5124   1.072   1.443   2.348  2.1879  0.0221 -0.4544
 1263SOL    MW4 5125   1.065   1.528   2.367  0.7509 -0.1745 -0.0916
 1264SOL     OW 5126   0.873   1.687   2.258  0.0592 -0.1419  0.3626
 1264SOL    HW2 5127   0.890   1.771   2.301 -0.6866 -0.0638  0.5134
 1264SOL    HW3 5128   0.890   1.704   2.165 -0.3307  0.2451  0.3604
 1264SOL    MW4 5129   0.878   1.700   2.251 -0.0907 -0.0806  0.3824
 1265SOL     OW 5130   0.848   1.970   2.368 -0.4861  0.1794  0.1614
 1265SOL    HW2 5131   0.842   1.990   2.461  1.5291 -1.7015  0.7376
 1265SOL    HW3 5132   0.935   2.001   2.342 -0.8967  0.3739 -1.0344
 1265SOL    MW4 5133   0.859   1.977   2.377 -0.2744 -0.0432  0.0796
 1266SOL     OW 5134   1.096   2.053   2.223  0.7416 -0.3130  0.2360
 1266SOL    HW2 5135   1.167   2.001   2.259  1.7430  1.8122  1.3682
 1266SOL    HW3 5136   1.106   2.044   2.128  0.5165 -2.6411  0.3926
 1266SOL    MW4 5137   1.106   2.045   2.215  0.8440 -0.3397  0.4063
 1267SOL     OW 5138   1.135   2.318   2.348 -0.1867 -0.3521  0.2059
 1267SOL    HW2 5139   1.210   2.368   2.316 -0.3252 -0.8777 -0.9580
 1267SOL    HW3 5140   1.139   2.235   2.300 -2.3596  0.1954 -0.9657
 1267SOL    MW4 5141   1.146   2.314   2.338 -0.4916 -0.3495 -0.1023
 1268SOL     OW 5142   0.902   2.437   2.259  0.2021  0.4045 -0.0544
 1268SOL    HW2 5143   0.983   2.396   2.287 -0.6063 -1.1445  0.0673
 1268SOL    HW3 5144   0.912   2.449   2.164 -0.1927 -1.6289 -0.3857
 1268SOL    MW4 5145   0.914   2.433   2.250  0.0433 -0.0679 -0.0820
 1269SOL     OW 5146   0.898   2.705   2.367 -0.3903  0.5618 -0.4338
 1269SOL    HW2 5147   0.900   2.701   2.462  1.0591  2.2023 -0.3916
 1269SOL    HW3 5148   0.886   2.614   2.340 -0.7630  0.0778  1.2994
 1269SOL    MW4 5149   0.896   2.692   2.376 -0.2482  0.7143 -0.1996
 1270SOL     OW 5150   1.085   2.888   2.260 -0.2149 -0.2440 -0.3150
 1270SOL    HW2 5151   1.172   2.857   2.286  0.4264  2.9973  1.7099
 1270SOL    HW3 5152   1.025   2.823   2.296  1.2820 -1.8404 -0.6033
 1270SOL    MW4 5153   1.089   2.876   2.268  0.0672 -0.0272 -0.0861
 1271SOL     OW 5154   1.102   3.140   2.367 -0.0438  0.1882  0.0156
 1271SOL    HW2 5155   1.028   3.191   2.335  0.4095 -0.0913 -1.4732
 1271SOL    HW3 5156   1.099   3.059   2.317  1.7711  0.5163 -0.6614
 1271SOL    MW4 5157   1.092   3.136   2.357  0.2556  0.1943 -0.2701
 1272SOL     OW 5158   0.881   3.262   2.240 -0.4442 -0.0528  0.1704
 1272SOL    HW2 5159   0.865   3.350   2.274 -2.9036  0.3278 -1.7863
 1272SOL    HW3 5160   0.813   3.208   2.280  0.8696 -1.0197  1.1321
 1272SOL    MW4 5161   0.870   3.266   2.250 -0.5953 -0.1302  0.0391
 1273SOL     OW 5162   0.877   3.507   2.338  0.1110  0.1245  0.0581
 1273SOL    HW2 5163   0.884   3.503   2.434  0.0180 -0.3412  0.0477
 1273SOL    HW3 5164   0.801   3.563   2.322  0.3450  0.4984  0.2509
 1273SOL    MW4 5165   0.867   3.514   2.349  0.1296  0.1125  0.0820
 1274SOL     OW 5166   1.097   3.642   2.242  0.0681  0.2746  0.6698
 1274SOL    HW2 5167   1.174   3.590   2.263 -0.0854 -0.5352 -0.6786
 1274SOL    HW3 5168   1.023   3.587   2.268 -0.0674  0.4565  0.6693
 1274SOL    MW4 5169   1.097   3.628   2.248  0.0299  0.1917  0.4921
 1275SOL     OW 5170   1.116   3.904   2.371 -0.2292 -0.1333 -0.6190
 1275SOL    HW2 5171   1.197   3.941   2.337  0.1303  0.0566  0.4299
 1275SOL    HW3 5172   1.121   3.811   2.351  0.4595 -0.1971 -0.1464
 1275SOL    MW4 5173   1.127   3.897   2.364 -0.0911 -0.1166 -0.4184
 1276SOL     OW 5174   0.884   3.996   2.260 -0.0090 -0.3245 -0.3161
 1276SOL    HW2 5175   0.961   3.951   2.294  0.3387  0.4879  0.0037
 1276SOL    HW3 5176   0.809   3.947   2.294  0.3499 -0.1660  0.7137
 1276SOL    MW4 5177   0.884   3.984   2.269  0.0842 -0.1965 -0.1380
 1277SOL     OW 5178   0.907   4.251   2.377  0.0792 -0.4172 -0.0606
 1277SOL    HW2 5179   0.911   4.157   2.359 -1.6278 -1.0190  2.4910
 1277SOL    HW3 5180   0.829   4.281   2.331  0.2487 -0.3843 -0.3258
 1277SOL    MW4 5181   0.897   4.243   2.369 -0.1237 -0.4921  0.2410
 1278SOL     OW 5182   1.160   4.360   2.272 -0.0472  0.1178  0.2380
 1278SOL    HW2 5183   1.074   4.331   2.303  0.2198 -1.3540 -0.3776
 1278SOL    HW3 5184   1.169   4.449   2.307 -2.0486  0.4973 -0.1495
 1278SOL    MW4 5185   1.149   4.368   2.281 -0.2760 -0.0257  0.1059
 1279SOL     OW 5186   1.560   4.630   2.355  0.1191  0.4951  0.0843
 1279SOL    HW2 5187   1.635   4.677   2.318  1.2515  0.1361  1.8939
 1279SOL    HW3 5188   1.484   4.678   2.321  1.1520  1.2619 -1.2405
 1279SOL    MW4 5189   1.560   4.643   2.345  0.4048  0.5488  0.1481
 1280SOL     OW 5190   1.339   0.101   2.260  0.2603  0.0859  0.4982
 1280SOL    HW2 5191   1.338   0.181   2.312  0.7817 -0.5575  1.5138
 1280SOL    HW3 5192   1.263   0.052   2.290  0.8716 -0.5334  1.0588
 1280SOL    MW4 5193   1.329   0.105   2.271  0.4098 -0.0807  0.7060
 1281SOL     OW 5194   1.322   0.361   2.388 -0.3017 -0.4412 -0.5382
 1281SOL    HW2 5195   1.408   0.395   2.363 -0.8443  1.1586 -0.3263
 1281SOL    HW3 5196   1.329   0.348   2.483 -0.1242 -0.8272 -0.6037
 1281SOL    MW4 5197   1.334   0.364   2.397 -0.3499 -0.2810 -0.5188
 1282SOL     OW 5198   1.554   0.449   2.248 -0.3233  0.0126 -0.0663
 1282SOL    HW2 5199   1.548   0.543   2.263 -1.1356 -0.0959  0.3107
 1282SOL    HW3 5200   1.559   0.440   2.153  0.9619  0.4920 -0.0578
 1282SOL    MW4 5201   1.554   0.460   2.237 -0.2609  0.0615 -0.0155
 1283SOL     OW 5202   1.561   0.722   2.334 -0.2647  0.6789  0.1273
 1283SOL    HW2 5203   1.633   0.779   2.305 -0.0360  1.0812  1.4561
 1283SOL    HW3 5204   1.566   0.724   2.429 -1.8911  0.5024  0.2283
 1283SOL    MW4 5205   1.571   0.730   2.343 -0.4491  0.7088  0.3159
 1284SOL     OW 5206   1.323   0.860   2.276  0.2164 -0.1572  0.0255
 1284SOL    HW2 5207   1.406   0.814   2.288  0.7432  0.6272 -0.5113
 1284SOL    HW3 5208   1.259   0.807   2.322  0.7518 -1.5684 -0.8390
 1284SOL    MW4 5209   1.326   0.847   2.284  0.3566 -0.2400 -0.1590
 1285SOL     OW 5210   1.303   1.131   2.361 -0.0563 -0.0625 -0.2866
 1285SOL    HW2 5211   1.321   1.120   2.454 -2.0751 -0.9575  0.0276
 1285SOL    HW3 5212   1.317   1.043   2.324 -0.8843 -0.1006 -0.5230
 1285SOL    MW4 5213   1.307   1.118   2.368 -0.4319 -0.1856 -0.2761
 1286SOL     OW 5214   1.544   1.263   2.277  0.1526  0.0960 -0.0547
 1286SOL    HW2 5215   1.467   1.218   2.311  0.4924 -0.0986  0.4511
 1286SOL    HW3 5216   1.524   1.278   2.185 -0.5409  0.1517  0.1078
 1286SOL    MW4 5217   1.531   1.259   2.269  0.1060  0.0776  0.0336
 1287SOL     OW 5218   1.544   1.535   2.377  0.2095 -0.2263 -0.3203
 1287SOL    HW2 5219   1.616   1.591   2.348  0.9426 -1.1906 -0.3852
 1287SOL    HW3 5220   1.563   1.450   2.338  0.1610 -1.0276  1.3599
 1287SOL    MW4 5221   1.556   1.531   2.368  0.2999 -0.4593 -0.1070
 1288SOL     OW 5222   1.322   1.650   2.277 -0.1338  0.3558 -0.0453
 1288SOL    HW2 5223   1.395   1.599   2.312 -0.9072 -0.9275 -0.2804
 1288SOL    HW3 5224   1.244   1.608   2.311 -0.8020  1.0471 -0.6976
 1288SOL    MW4 5225   1.321   1.638   2.286 -0.3240  0.2776 -0.1621
 1289SOL     OW 5226   1.313   1.910   2.337 -0.0283 -0.2883 -0.3825
 1289SOL    HW2 5227   1.394   1.947   2.301 -0.0867 -0.5921 -0.8345
 1289SOL    HW3 5228   1.315   1.817   2.312  0.4526 -0.7624  1.3368
 1289SOL    MW4 5229   1.324   1.902   2.329  0.0275 -0.3909 -0.2151
 1290SOL     OW 5230   1.545   2.050   2.232 -0.3129  0.1665  0.5291
 1290SOL    HW2 5231   1.636   2.032   2.257 -0.2551  0.0530  0.2412
 1290SOL    HW3 5232   1.550   2.074   2.139 -0.4965  0.8269  0.6885
 1290SOL    MW4 5233   1.557   2.051   2.223 -0.3295  0.2384  0.5121
 1291SOL     OW 5234   1.520   2.321   2.309 -0.4838  0.5933  0.3059
 1291SOL    HW2 5235   1.512   2.325   2.405 -0.3475  1.8966  0.2639
 1291SOL    HW3 5236   1.518   2.227   2.290  2.1166  0.1670  1.8285
 1291SOL    MW4 5237   1.519   2.309   2.319 -0.1227  0.7091  0.5016
 1292SOL     OW 5238   1.325   2.501   2.267 -0.5452 -0.6379 -0.4050
 1292SOL    HW2 5239   1.405   2.452   2.286  1.5353  2.0219 -1.7941
 1292SOL    HW3 5240   1.306   2.481   2.175 -1.5817 -1.3841 -0.0326
 1292SOL    MW4 5241   1.333   2.492   2.257 -0.4075 -0.3853 -0.5393
 1293SOL     OW 5242   1.331   2.784   2.325  0.4907  0.3368 -0.2701
 1293SOL    HW2 5243   1.420   2.813   2.307  1.0413 -0.5257  0.9995
 1293SOL    HW3 5244   1.327   2.695   2.292  0.7747 -0.3994  1.6202
 1293SOL    MW4 5245   1.342   2.776   2.318  0.6007  0.1259  0.1471
 1294SOL     OW 5246   1.575   2.878   2.263  0.1074 -0.2254  0.1712
 1294SOL    HW2 5247   1.584   2.971   2.284  0.3969 -0.6905  2.2048
 1294SOL    HW3 5248   1.560   2.876   2.168 -1.7943  2.0069  0.3713
 1294SOL    MW4 5249   1.574   2.890   2.253 -0.1054  0.0076  0.4659
 1295SOL     OW 5250   1.588   3.153   2.314  0.1557  0.2465 -0.1093
 1295SOL    HW2 5251   1.599   3.143   2.408  0.9393  0.9376 -0.1232
 1295SOL    HW3 5252   1.502   3.195   2.304  0.2316  0.4976  0.3085
 1295SOL    MW4 5253   1.578   3.157   2.325  0.2691  0.3710 -0.0560
 1296SOL     OW 5254   1.330   3.251   2.277 -0.1321  0.2499  0.1638
 1296SOL    HW2 5255   1.247   3.214   2.307  0.0658  0.5298  1.0639
 1296SOL    HW3 5256   1.328   3.241   2.182 -0.7209 -0.7458  0.2738
 1296SOL    MW4 5257   1.319   3.245   2.269 -0.1838  0.1557  0.2971
 1297SOL     OW 5258   1.317   3.518   2.333 -0.3756 -0.3187 -0.0638
 1297SOL    HW2 5259   1.320   3.518   2.428  0.0203 -0.1953 -0.0767
 1297SOL    HW3 5260   1.317   3.425   2.309 -1.0804 -0.3525  0.0743
 1297SOL    MW4 5261   1.318   3.506   2.342 -0.4164 -0.3068 -0.0472
 1298SOL     OW 5262   1.551   3.613   2.238 -0.1945  0.1037 -0.0887
 1298SOL    HW2 5263   1.545   3.706   2.260  0.6201 -0.2054  1.5064
 1298SOL    HW3 5264   1.476   3.573   2.282 -0.8492  0.0688 -1.2104
 1298SOL    MW4 5265   1.540   3.620   2.247 -0.1734  0.0584 -0.0260
 1299SOL     OW 5266   1.568   3.858   2.326  0.5450 -0.4204  0.1986
 1299SOL    HW2 5267   1.564   3.835   2.418 -0.8743 -0.8376  0.0466
 1299SOL    HW3 5268   1.650   3.905   2.316  0.3638  0.2593  1.8166
 1299SOL    MW4 5269   1.578   3.861   2.337  0.3338 -0.3858  0.3922
 1300SOL     OW 5270   1.346   4.015   2.258  0.1844 -0.4946  0.3703
 1300SOL    HW2 5271   1.419   3.954   2.272 -0.1376 -0.9637  0.0140
 1300SOL    HW3 5272   1.339   4.022   2.163  0.8278  0.8417  0.4065
 1300SOL    MW4 5273   1.355   4.008   2.247  0.2269 -0.3800  0.3278
 1301SOL     OW 5274   1.363   4.237   2.410  0.3687  0.2069  0.3918
 1301SOL    HW2 5275   1.383   4.162   2.353 -1.5727 -0.4588  0.5542
 1301SOL    HW3 5276   1.298   4.288   2.361  1.0504  1.3552  0.6502
 1301SOL    MW4 5277   1.357   4.234   2.396  0.2025  0.2704  0.4473
 1302SOL     OW 5278   1.560   4.364   2.266 -0.0585 -0.4915  0.0039
 1302SOL    HW2 5279   1.499   4.322   2.326  0.7757 -0.3631  0.9544
 1302SOL    HW3 5280   1.556   4.457   2.288  0.2204 -0.4398 -0.1614
 1302SOL    MW4 5281   1.552   4.371   2.277  0.0882 -0.4673  0.1075
 1303SOL     OW 5282   2.038   4.637   2.313 -0.0812  0.0258 -0.0675
 1303SOL    HW2 5283   2.115   4.684   2.282 -0.7981  1.5686  0.4391
 1303SOL    HW3 5284   2.047   4.549   2.278  1.5449  0.4088 -0.6087
 1303SOL    MW4 5285   2.049   4.632   2.304  0.0389  0.2804 -0.0722
 1304SOL     OW 5286   1.792   0.080   2.266 -0.3773 -0.2329  0.3352
 1304SOL    HW2 5287   1.795   0.168   2.303 -0.5065  0.1865 -0.6199
 1304SOL    HW3 5288   1.879   0.044   2.282 -0.1678  0.2558  0.2916
 1304SOL    MW4 5289   1.804   0.086   2.273 -0.3667 -0.1131  0.2034
 1305SOL     OW 5290   1.804   0.348   2.343  0.3778 -0.5372  0.2128
 1305SOL    HW2 5291   1.798   0.345   2.439 -0.6046 -2.0743  0.1237
 1305SOL    HW3 5292   1.724   0.394   2.316  1.3647  1.1974  0.1840
 1305SOL    MW4 5293   1.793   0.353   2.353  0.3784 -0.5111  0.1972
 1306SOL     OW 5294   2.000   0.532   2.253  0.2402 -0.2704 -0.2937
 1306SOL    HW2 5295   1.932   0.473   2.285  0.3531 -0.6867 -0.8115
 1306SOL    HW3 5296   1.995   0.608   2.311 -0.2050 -0.5943  0.0973
 1306SOL    MW4 5297   1.990   0.534   2.265  0.1963 -0.3681 -0.3104
 1307SOL     OW 5298   1.995   0.776   2.389 -0.1366  0.2557  0.7163
 1307SOL    HW2 5299   2.070   0.805   2.337  0.5617  0.0658  1.6149
 1307SOL    HW3 5300   1.921   0.824   2.352  0.4437  0.5656 -0.0716
 1307SOL    MW4 5301   1.995   0.786   2.377  0.0319  0.2716  0.7308
 1308SOL     OW 5302   1.768   0.893   2.253  0.0871 -0.0585 -0.0339
 1308SOL    HW2 5303   1.770   0.988   2.267  0.0217  0.1648 -1.4741
 1308SOL    HW3 5304   1.767   0.883   2.158 -0.1404 -1.5043  0.1134
 1308SOL    MW4 5305   1.768   0.904   2.242  0.0484 -0.2198 -0.2046
 1309SOL     OW 5306   1.762   1.144   2.366 -0.3238  0.1676  0.6453
 1309SOL    HW2 5307   1.838   1.187   2.325  0.0961 -0.9651  0.2127
 1309SOL    HW3 5308   1.686   1.190   2.330  0.0847 -0.1792 -0.6916
 1309SOL    MW4 5309   1.762   1.156   2.356 -0.2146 -0.0277  0.4120
 1310SOL     OW 5310   2.017   1.255   2.286 -0.2450 -0.0849  0.1728
 1310SOL    HW2 5311   2.008   1.341   2.328  0.4613  0.4784 -0.8220
 1310SOL    HW3 5312   2.030   1.275   2.193 -3.2914 -1.3595 -0.5827
 1310SOL    MW4 5313   2.017   1.269   2.279 -0.5536 -0.1788 -0.0579
 1311SOL     OW 5314   1.976   1.511   2.399 -0.2867 -0.1987 -0.3860
 1311SOL    HW2 5315   1.991   1.522   2.493 -0.3945 -0.8025 -0.2993
 1311SOL    HW3 5316   1.910   1.577   2.378 -0.2377 -0.0389 -0.0482
 1311SOL    MW4 5317   1.969   1.521   2.408 -0.2944 -0.2573 -0.3302
 1312SOL     OW 5318   1.767   1.667   2.291 -0.1892  0.1842  0.0758
 1312SOL    HW2 5319   1.755   1.758   2.318  0.5678  0.4293 -0.4059
 1312SOL    HW3 5320   1.780   1.672   2.197  0.3529 -0.3822  0.1223
 1312SOL    MW4 5321   1.767   1.680   2.282 -0.0178  0.1417  0.0184
 1313SOL     OW 5322   1.774   1.945   2.367 -0.1267  0.4714 -0.0407
 1313SOL    HW2 5323   1.769   1.946   2.463  1.2410 -2.2260  0.1063
 1313SOL    HW3 5324   1.863   1.976   2.347  0.1158 -0.4259 -0.3656
 1313SOL    MW4 5325   1.785   1.949   2.377  0.0857 -0.0027 -0.0641
 1314SOL     OW 5326   2.008   2.049   2.237 -0.2559  0.1030  0.3196
 1314SOL    HW2 5327   2.080   2.000   2.277  0.8071  2.3416  1.2730
 1314SOL    HW3 5328   2.029   2.049   2.144 -0.5531 -1.6963  0.2532
 1314SOL    MW4 5329   2.020   2.043   2.230 -0.1550  0.1609  0.4365
 1315SOL     OW 5330   1.969   2.307   2.353  0.5161 -0.0795 -0.1910
 1315SOL    HW2 5331   2.046   2.361   2.336  2.7147 -2.2368  2.4073
 1315SOL    HW3 5332   1.984   2.227   2.303  0.0113 -0.5587  0.4067
 1315SOL    MW4 5333   1.981   2.303   2.345  0.7395 -0.4277  0.2308
 1316SOL     OW 5334   1.760   2.422   2.232 -0.1304  0.4622  0.0418
 1316SOL    HW2 5335   1.829   2.383   2.286 -1.0193 -0.3100  0.6253
 1316SOL    HW3 5336   1.679   2.381   2.262 -0.7701  0.8309 -1.1350
 1316SOL    MW4 5337   1.758   2.411   2.243 -0.3322  0.4091 -0.0362
 1317SOL     OW 5338   1.787   2.707   2.351 -0.0319  0.0949  0.1832
 1317SOL    HW2 5339   1.781   2.616   2.320  0.8410 -0.0327  0.3726
 1317SOL    HW3 5340   1.714   2.751   2.308  0.9789 -0.1521 -1.8330
 1317SOL    MW4 5341   1.777   2.700   2.341  0.2167  0.0453 -0.0577
 1318SOL     OW 5342   1.986   2.840   2.242  0.0945 -0.0122  0.0507
 1318SOL    HW2 5343   2.063   2.801   2.284  0.6122 -0.0874 -0.9691
 1318SOL    HW3 5344   1.912   2.791   2.278  0.5849 -0.5017  0.3993
 1318SOL    MW4 5345   1.986   2.828   2.253  0.2276 -0.0865 -0.0377
 1319SOL     OW 5346   1.991   3.076   2.395  0.0991  0.3925  0.2449
 1319SOL    HW2 5347   2.067   3.129   2.371 -0.1297  0.5594 -0.1040
 1319SOL    HW3 5348   2.001   2.996   2.342  0.7984 -0.2088  1.2509
 1319SOL    MW4 5349   2.003   3.072   2.385  0.1612  0.3355  0.3316
 1320SOL     OW 5350   1.830   3.234   2.217  0.1034 -0.2207 -0.0656
 1320SOL    HW2 5351   1.892   3.193   2.277  0.8280 -1.2187 -1.4526
 1320SOL    HW3 5352   1.745   3.199   2.242  0.0806  1.1259  1.8314
 1320SOL    MW4 5353   1.827   3.224   2.228  0.1960 -0.1745  0.0017
 1321SOL     OW 5354   1.780   3.476   2.349  0.1366 -0.0841  0.3104
 1321SOL    HW2 5355   1.794   3.393   2.304 -1.2086 -0.1210 -0.0805
 1321SOL    HW3 5356   1.692   3.503   2.321 -0.1077  0.6372  1.7448
 1321SOL    MW4 5357   1.770   3.469   2.339 -0.0731  0.0064  0.4480
 1322SOL     OW 5358   1.994   3.634   2.284 -0.0910  0.6367  0.0483
 1322SOL    HW2 5359   1.906   3.602   2.305  0.2550 -0.0776  0.4139
 1322SOL    HW3 5360   2.004   3.614   2.191  0.4202 -1.0484  0.4486
 1322SOL    MW4 5361   1.984   3.627   2.274  0.0221  0.3200  0.1493
 1323SOL     OW 5362   2.035   3.890   2.349 -0.1503 -0.1237  0.0202
 1323SOL    HW2 5363   2.032   3.890   2.444  0.0528 -1.0563  0.0292
 1323SOL    HW3 5364   2.011   3.800   2.324 -1.6839  0.4980 -0.8490
 1323SOL    MW4 5365   2.031   3.878   2.358 -0.3259 -0.1645 -0.0935
 1324SOL     OW 5366   1.791   4.012   2.250 -0.0992 -0.0258  0.1665
 1324SOL    HW2 5367   1.871   3.967   2.278  0.7222  1.4019  0.1346
 1324SOL    HW3 5368   1.787   3.996   2.156 -0.0654 -0.4300  0.2314
 1324SOL    MW4 5369   1.801   4.004   2.242  0.0137  0.1092  0.1707
 1325SOL     OW 5370   1.823   4.268   2.310 -0.1310  0.0219 -0.7618
 1325SOL    HW2 5371   1.808   4.175   2.293 -0.6303  0.5075 -3.1439
 1325SOL    HW3 5372   1.736   4.308   2.305 -0.2289  0.3397  2.4173
 1325SOL    MW4 5373   1.809   4.261   2.308 -0.2099  0.1278 -0.6566
 1326SOL     OW 5374   2.073   4.352   2.239  0.1772 -0.0850  0.0642
 1326SOL    HW2 5375   1.983   4.329   2.265 -0.0674 -0.2202 -0.8921
 1326SOL    HW3 5376   2.069   4.362   2.144  1.3259 -0.7062 -0.0549
 1326SOL    MW4 5377   2.060   4.350   2.230  0.2968 -0.1855 -0.0775
 1327SOL     OW 5378   2.484   0.001   2.375  0.1775 -0.0777  0.0547
 1327SOL    HW2 5379   2.549   0.058   2.334 -0.5356  0.3332 -0.5260
 1327SOL    HW3 5380   2.502  -0.086   2.338  0.1870  0.0970 -0.3613
 1327SOL    MW4 5381   2.495  -0.003   2.364  0.0846  0.0000 -0.0768
 1328SOL     OW 5382   2.271   0.147   2.248  0.4313  0.4045 -0.3179
 1328SOL    HW2 5383   2.264   0.231   2.293  2.0267  1.2444 -1.5937
 1328SOL    HW3 5384   2.347   0.105   2.286  0.2159 -0.0294 -0.3693
 1328SOL    MW4 5385   2.280   0.153   2.259  0.6130  0.4581 -0.4930
 1329SOL     OW 5386   2.258   0.407   2.355 -0.0624  0.1231  0.4282
 1329SOL    HW2 5387   2.330   0.453   2.313 -0.0580  0.2303  0.5502
 1329SOL    HW3 5388   2.181   0.461   2.337 -0.6714 -1.6374 -2.3930
 1329SOL    MW4 5389   2.258   0.420   2.347 -0.1419 -0.0950  0.0722
 1330SOL     OW 5390   2.484   0.526   2.221 -0.0706 -0.2133 -0.1266
 1330SOL    HW2 5391   2.567   0.483   2.241  0.4823  0.4353 -0.9724
 1330SOL    HW3 5392   2.475   0.517   2.126 -1.6429 -1.4666  0.1236
 1330SOL    MW4 5393   2.494   0.519   2.211 -0.2050 -0.2931 -0.2048
 1331SOL     OW 5394   2.443   0.747   2.357 -0.3702  0.4173  0.1136
 1331SOL    HW2 5395   2.508   0.810   2.326 -1.1309  0.5907 -1.1711
 1331SOL    HW3 5396   2.458   0.669   2.304 -1.3607  0.5344 -0.3305
 1331SOL    MW4 5397   2.454   0.745   2.346 -0.6013  0.4556 -0.1144
 1332SOL     OW 5398   2.204   0.860   2.243  0.2156 -0.4099 -0.3376
 1332SOL    HW2 5399   2.198   0.949   2.277  1.4718 -0.0959 -0.9208
 1332SOL    HW3 5400   2.283   0.824   2.282 -0.7530 -1.5706  0.5668
 1332SOL    MW4 5401   2.213   0.867   2.252  0.2534 -0.5216 -0.2952
 1333SOL     OW 5402   2.226   1.110   2.358 -0.2310 -0.1292  0.1717
 1333SOL    HW2 5403   2.297   1.157   2.314 -0.5044 -1.5626 -1.8688
 1333SOL    HW3 5404   2.149   1.166   2.345  0.0005  0.2018  0.1993
 1333SOL    MW4 5405   2.225   1.124   2.351 -0.2365 -0.2747 -0.0939
 1334SOL     OW 5406   2.430   1.278   2.238  0.5150 -0.1319  0.1701
 1334SOL    HW2 5407   2.513   1.236   2.260  1.0219  0.9395  0.3400
 1334SOL    HW3 5408   2.434   1.364   2.280 -0.5023  0.0982 -0.1700
 1334SOL    MW4 5409   2.441   1.284   2.247  0.4478  0.0399  0.1476
 1335SOL     OW 5410   2.442   1.523   2.389 -0.1312  0.4868  0.1981
 1335SOL    HW2 5411   2.460   1.516   2.483  0.6253  1.9084  0.1669
 1335SOL    HW3 5412   2.502   1.590   2.358  1.1952 -1.5439 -1.7548
 1335SOL    MW4 5413   2.452   1.531   2.398  0.1435  0.4065 -0.0637
 1336SOL     OW 5414   2.215   1.640   2.304  0.2081 -0.0712  0.3022
 1336SOL    HW2 5415   2.287   1.588   2.337 -1.0359 -1.1204  1.4205
 1336SOL    HW3 5416   2.137   1.602   2.344 -0.9529  1.1633 -0.7121
 1336SOL    MW4 5417   2.214   1.629   2.313 -0.1094 -0.0467  0.3161
 1337SOL     OW 5418   2.233   1.918   2.368  0.1899 -0.3443  0.7159
 1337SOL    HW2 5419   2.307   1.958   2.321  0.6375 -0.4073  1.3572
 1337SOL    HW3 5420   2.234   1.827   2.339 -0.4144 -0.0518 -0.2330
 1337SOL    MW4 5421   2.243   1.911   2.358  0.1693 -0.3140  0.6752
 1338SOL     OW 5422   2.447   2.045   2.241  0.8483  0.0232  0.0113
 1338SOL    HW2 5423   2.523   2.009   2.287  1.4988  0.8490 -0.4108
 1338SOL    HW3 5424   2.461   2.020   2.149  1.8212  2.1961 -0.4535
 1338SOL    MW4 5425   2.459   2.037   2.235  1.0624  0.4187 -0.1059
 1339SOL     OW 5426   2.410   2.314   2.344 -0.1551  0.3836 -0.6979
 1339SOL    HW2 5427   2.485   2.359   2.303  1.4372 -0.7468  0.9012
 1339SOL    HW3 5428   2.396   2.237   2.289 -0.8453  1.1557 -1.6157
 1339SOL    MW4 5429   2.418   2.310   2.331 -0.0360  0.3364 -0.6080
 1340SOL     OW 5430   2.173   2.482   2.285 -0.0060 -0.6011  0.1818
 1340SOL    HW2 5431   2.185   2.576   2.292 -0.7741 -0.4986  0.1425
 1340SOL    HW3 5432   2.257   2.445   2.313  0.7046  0.1218 -0.9508
 1340SOL    MW4 5433   2.186   2.489   2.289 -0.0136 -0.4923  0.0274
 1341SOL     OW 5434   2.216   2.749   2.360 -0.3189 -0.1587 -0.3177
 1341SOL    HW2 5435   2.232   2.734   2.453  0.6520  3.1551  0.0872
 1341SOL    HW3 5436   2.303   2.760   2.322 -0.7592 -0.6380 -1.4831
 1341SOL    MW4 5437   2.230   2.748   2.367 -0.2489  0.2153 -0.4182
 1342SOL     OW 5438   2.472   2.830   2.237  0.0052  0.0198 -0.3219
 1342SOL    HW2 5439   2.539   2.782   2.285 -1.5850 -0.9639  1.0000
 1342SOL    HW3 5440   2.501   2.829   2.146  0.8294 -2.0474 -0.0506
 1342SOL    MW4 5441   2.484   2.824   2.231 -0.0958 -0.3827 -0.1118
 1343SOL     OW 5442   2.478   3.083   2.346 -0.0071 -0.4456 -0.3516
 1343SOL    HW2 5443   2.542   3.133   2.296 -0.2609 -0.1420 -0.3770
 1343SOL    HW3 5444   2.474   2.998   2.303 -0.0605 -0.2622 -0.7150
 1343SOL    MW4 5445   2.486   3.079   2.334 -0.0474 -0.3815 -0.4029
 1344SOL     OW 5446   2.207   3.207   2.300 -0.8367 -0.3233  0.2919
 1344SOL    HW2 5447   2.204   3.298   2.329 -0.9867  0.1526 -1.1753
 1344SOL    HW3 5448   2.300   3.184   2.303 -0.8363 -0.2459  1.0110
 1344SOL    MW4 5449   2.219   3.216   2.304 -0.8562 -0.2501  0.1931
 1345SOL     OW 5450   2.206   3.470   2.347 -0.6589 -0.0538 -0.3740
 1345SOL    HW2 5451   2.236   3.483   2.437 -1.0161 -0.4894 -0.1923
 1345SOL    HW3 5452   2.130   3.528   2.339 -1.7544 -1.4087  0.1814
 1345SOL    MW4 5453   2.200   3.479   2.358 -0.8507 -0.2897 -0.2770
 1346SOL     OW 5454   2.442   3.584   2.256 -0.4282 -0.3907 -0.3804
 1346SOL    HW2 5455   2.445   3.663   2.310 -0.6369 -0.6758  0.0490
 1346SOL    HW3 5456   2.355   3.548   2.270 -0.0573 -1.1315  0.0480
 1346SOL    MW4 5457   2.431   3.589   2.265 -0.4067 -0.5260 -0.2673
 1347SOL     OW 5458   2.447   3.830   2.368  0.1042 -0.3430  0.3491
 1347SOL    HW2 5459   2.446   3.863   2.457  1.1589  0.0074  0.2322
 1347SOL    HW3 5460   2.384   3.885   2.321 -1.8357 -1.7180  1.2888
 1347SOL    MW4 5461   2.438   3.842   2.373 -0.0124 -0.4783  0.4578
 1348SOL     OW 5462   2.263   4.000   2.247 -0.3169 -0.3217 -0.4216
 1348SOL    HW2 5463   2.275   4.084   2.291 -0.6900 -0.6996  0.4168
 1348SOL    HW3 5464   2.182   3.965   2.283  0.6103 -1.7300  0.3643
 1348SOL    MW4 5465   2.254   4.007   2.257 -0.2439 -0.5574 -0.2072
 1349SOL     OW 5466   2.288   4.235   2.388 -0.2670  0.3824 -0.1357
 1349SOL    HW2 5467   2.274   4.256   2.480  0.1756 -0.0520  0.0284
 1349SOL    HW3 5468   2.206   4.261   2.345 -0.3787  0.8165  0.3365
 1349SOL    MW4 5469   2.275   4.241   2.394 -0.2234  0.3819 -0.0517
 1350SOL     OW 5470   2.479   4.396   2.276 -0.5655  0.2455 -0.3106
 1350SOL    HW2 5471   2.556   4.353   2.314  0.4135  0.6572 -1.7951
 1350SOL    HW3 5472   2.405   4.341   2.302  0.2668 -0.3731  0.7903
 1350SOL    MW4 5473   2.479   4.383   2.285 -0.3266  0.2184 -0.3612
 1351SOL     OW 5474   2.892   4.631   2.361 -0.5530  0.1148  0.1942
 1351SOL    HW2 5475   2.971   4.681   2.344 -1.0101  0.4634 -0.9852
 1351SOL    HW3 5476   2.916   4.540   2.341 -0.5954  0.2897 -0.6584
 1351SOL    MW4 5477   2.905   4.625   2.356 -0.6187  0.1841 -0.0739
 1352SOL     OW 5478   2.695   0.115   2.239  0.0174  0.3673 -0.3387
 1352SOL    HW2 5479   2.704   0.204   2.273 -0.6123  1.1984 -2.2773
 1352SOL    HW3 5480   2.777   0.071   2.265 -0.8216  0.6129  3.0489
 1352SOL    MW4 5481   2.707   0.121   2.247 -0.1762  0.5093 -0.1476
 1353SOL     OW 5482   2.702   0.394   2.323 -0.5014 -0.0549 -0.4455
 1353SOL    HW2 5483   2.706   0.378   2.418  0.0964 -0.5180 -0.5464
 1353SOL    HW3 5484   2.783   0.442   2.304  0.4693 -1.8728 -1.0714
 1353SOL    MW4 5485   2.713   0.398   2.333 -0.2942 -0.3559 -0.5412
 1354SOL     OW 5486   2.946   0.555   2.297  0.1629  0.2993 -0.1501
 1354SOL    HW2 5487   2.919   0.644   2.319 -1.3650 -0.1869  0.0434
 1354SOL    HW3 5488   2.929   0.548   2.203  0.8015  0.3940 -0.2692
 1354SOL    MW4 5489   2.940   0.566   2.288  0.0458  0.2477 -0.1402
 1355SOL     OW 5490   2.888   0.820   2.362  0.1655  0.2539  0.3497
 1355SOL    HW2 5491   2.888   0.834   2.457 -0.1226 -1.4867  0.6111
 1355SOL    HW3 5492   2.807   0.861   2.332  0.1001  0.5291  0.8899
 1355SOL    MW4 5493   2.877   0.828   2.371  0.1190  0.0606  0.4556
 1356SOL     OW 5494   2.647   0.907   2.244  0.2184 -0.1549  0.0364
 1356SOL    HW2 5495   2.640   1.001   2.261  0.4901 -0.1388  0.0618
 1356SOL    HW3 5496   2.668   0.901   2.151 -1.0210 -0.2339 -0.2541
 1356SOL    MW4 5497   2.649   0.918   2.234  0.0906 -0.1632  0.0014
 1357SOL     OW 5498   2.681   1.185   2.323 -0.1573  0.3456  0.1040
 1357SOL    HW2 5499   2.682   1.166   2.417  0.2082  0.2197  0.0741
 1357SOL    HW3 5500   2.766   1.225   2.306  0.3032 -0.8350 -0.4224
 1357SOL    MW4 5501   2.692   1.188   2.334 -0.0484  0.1732  0.0305
 1358SOL     OW 5502   2.947   1.275   2.266  0.1669 -0.0140  0.0149
 1358SOL    HW2 5503   3.031   1.234   2.289 -0.2253 -0.3089  0.9255
 1358SOL    HW3 5504   2.943   1.268   2.171  1.0706 -0.2112 -0.0209
 1358SOL    MW4 5505   2.958   1.269   2.257  0.2346 -0.0790  0.1302
 1359SOL     OW 5506   2.884   1.516   2.383  0.2002 -0.1683 -0.3740
 1359SOL    HW2 5507   2.890   1.514   2.479 -0.8091 -0.6515 -0.3119
 1359SOL    HW3 5508   2.910   1.428   2.356 -0.3001 -0.2784 -0.4957
 1359SOL    MW4 5509   2.888   1.504   2.392  0.0010 -0.2468 -0.3817
 1360SOL     OW 5510   2.662   1.674   2.267 -0.2144  0.3594 -0.1961
 1360SOL    HW2 5511   2.729   1.611   2.294 -0.9640 -0.1871  0.4085
 1360SOL    HW3 5512   2.669   1.677   2.171  0.0525 -0.3856 -0.2011
 1360SOL    MW4 5513   2.672   1.666   2.258 -0.2782  0.1891 -0.1171
 1361SOL     OW 5514   2.665   1.931   2.363  0.0609 -0.0356  0.4291
 1361SOL    HW2 5515   2.674   1.909   2.455 -0.5361 -0.0595  0.4812
 1361SOL    HW3 5516   2.675   1.847   2.317  0.0369 -0.0697  0.4870
 1361SOL    MW4 5517   2.668   1.917   2.369 -0.0210 -0.0433  0.4437
 1362SOL     OW 5518   2.863   2.092   2.271 -0.2433  0.2486  0.2300
 1362SOL    HW2 5519   2.938   2.048   2.309  0.5444 -0.6189 -2.2840
 1362SOL    HW3 5520   2.787   2.052   2.314  0.5738 -1.5393  0.0357
 1362SOL    MW4 5521   2.863   2.081   2.281 -0.0317 -0.1016 -0.1276
 1363SOL     OW 5522   2.874   2.356   2.363 -0.2371 -0.9556 -0.3695
 1363SOL    HW2 5523   2.880   2.358   2.459  1.7653  0.2632 -0.5042
 1363SOL    HW3 5524   2.877   2.262   2.342  2.5537 -1.1281  0.6004
 1363SOL    MW4 5525   2.875   2.344   2.373  0.3955 -0.8173 -0.2592
 1364SOL     OW 5526   2.647   2.468   2.255  0.1986  0.2823 -0.3351
 1364SOL    HW2 5527   2.730   2.427   2.280  0.1634  0.1809 -0.3859
 1364SOL    HW3 5528   2.649   2.468   2.159 -1.1454 -2.3139 -0.3866
 1364SOL    MW4 5529   2.658   2.463   2.246  0.0167 -0.0739 -0.3488
 1365SOL     OW 5530   2.673   2.711   2.377  0.5840 -0.1277  0.1517
 1365SOL    HW2 5531   2.744   2.748   2.324  0.1203 -0.4431 -0.6811
 1365SOL    HW3 5532   2.657   2.625   2.340 -1.2379  0.5199 -0.5787
 1365SOL    MW4 5533   2.680   2.705   2.365  0.2825 -0.0842 -0.0541
 1366SOL     OW 5534   2.895   2.818   2.248 -0.2544  0.0914  0.0683
 1366SOL    HW2 5535   2.896   2.912   2.268  0.8745  0.2662 -0.7596
 1366SOL    HW3 5536   2.907   2.814   2.153  0.3066 -0.9212  0.1808
 1366SOL    MW4 5537   2.896   2.830   2.238 -0.0317 -0.0191 -0.0262
 1367SOL     OW 5538   2.879   3.080   2.317 -0.2057  0.0942  0.3189
 1367SOL    HW2 5539   2.966   3.113   2.293 -0.3267  0.5574  0.5139
 1367SOL    HW3 5540   2.872   3.097   2.411 -0.1796 -0.6960  0.4653
 1367SOL    MW4 5541   2.890   3.087   2.326 -0.2179  0.0510  0.3638
 1368SOL     OW 5542   2.669   3.259   2.234  0.2639 -0.2135  0.0097
 1368SOL    HW2 5543   2.684   3.335   2.290  0.6498 -0.9962  0.9772
 1368SOL    HW3 5544   2.735   3.195   2.261  0.0017 -0.8685 -0.8585
 1368SOL    MW4 5545   2.680   3.261   2.245  0.2801 -0.4032  0.0229
 1369SOL     OW 5546   2.648   3.484   2.399 -0.2258 -0.1752  0.2620
 1369SOL    HW2 5547   2.719   3.536   2.361  0.1460  0.5006  1.8532
 1369SOL    HW3 5548   2.569   3.514   2.353  0.2657  0.3843 -0.2153
 1369SOL    MW4 5549   2.647   3.495   2.388 -0.1118 -0.0122  0.4091
 1370SOL     OW 5550   2.889   3.587   2.284  0.2773 -0.2117  0.0057
 1370SOL    HW2 5551   2.965   3.537   2.315  0.3651 -1.2185 -1.7359
 1370SOL    HW3 5552   2.899   3.673   2.323  2.8977 -0.0085 -1.0058
 1370SOL    MW4 5553   2.901   3.592   2.293  0.6347 -0.3176 -0.3572
 1371SOL     OW 5554   2.902   3.855   2.379  0.0377 -0.2272 -0.2370
 1371SOL    HW2 5555   2.906   3.875   2.473 -1.3286 -0.0449 -0.2054
 1371SOL    HW3 5556   2.826   3.904   2.347 -1.6980 -3.0701 -0.7194
 1371SOL    MW4 5557   2.892   3.864   2.387 -0.3715 -0.5784 -0.2964
 1372SOL     OW 5558   2.689   3.992   2.286  0.4393 -0.4575 -0.4989
 1372SOL    HW2 5559   2.608   3.942   2.299  0.6703 -0.8568 -0.5832
 1372SOL    HW3 5560   2.694   4.004   2.191 -0.5409  1.2750 -0.3471
 1372SOL    MW4 5561   2.679   3.987   2.275  0.3405 -0.2816 -0.4897
 1373SOL     OW 5562   2.700   4.258   2.383  0.1655 -0.5350  0.4003
 1373SOL    HW2 5563   2.693   4.255   2.479  1.0769  0.6271  0.5176
 1373SOL    HW3 5564   2.698   4.166   2.356  1.6567 -0.9687  1.6831
 1373SOL    MW4 5565   2.699   4.246   2.392  0.4828 -0.4387  0.5851
 1374SOL     OW 5566   2.937   4.375   2.277  0.3113 -0.0396 -0.4675
 1374SOL    HW2 5567   3.002   4.317   2.318 -0.0791  0.4419  0.8363
 1374SOL    HW3 5568   2.853   4.337   2.299  0.0631  0.8116  0.0667
 1374SOL    MW4 5569   2.935   4.362   2.285  0.2270  0.1364 -0.2253
 1375SOL     OW 5570   3.356   4.657   2.337 -0.0581  0.3482  0.0075
 1375SOL    HW2 5571   3.366   4.653   2.432  1.0092 -0.0711 -0.1217
 1375SOL    HW3 5572   3.417   4.724   2.309 -0.4884  0.5847 -0.3753
 1375SOL    MW4 5573   3.365   4.665   2.346  0.0260  0.3242 -0.0603
 1376SOL     OW 5574   3.106   0.106   2.265 -0.3272 -0.1982 -0.3526
 1376SOL    HW2 5575   3.106   0.198   2.293  0.6433 -0.2566 -0.1649
 1376SOL    HW3 5576   3.192   0.073   2.290 -0.8880 -1.3270  0.0937
 1376SOL    MW4 5577   3.117   0.114   2.272 -0.2730 -0.3548 -0.2689
 1377SOL     OW 5578   3.120   0.364   2.383  0.2279 -0.2133  0.6108
 1377SOL    HW2 5579   3.194   0.402   2.336  0.1835 -0.2856  0.4825
 1377SOL    HW3 5580   3.048   0.426   2.369 -0.2445 -1.0741 -0.8161
 1377SOL    MW4 5581   3.120   0.377   2.375  0.1595 -0.3364  0.4055
 1378SOL     OW 5582   3.373   0.513   2.302 -0.6793  0.2433 -0.1010
 1378SOL    HW2 5583   3.453   0.471   2.334 -2.2363 -2.5392  0.2769
 1378SOL    HW3 5584   3.378   0.505   2.207 -0.7427 -0.3433 -0.0534
 1378SOL    MW4 5585   3.384   0.507   2.294 -0.8931 -0.2012 -0.0448
 1379SOL     OW 5586   3.327   0.780   2.368  0.3080 -0.4802  0.0483
 1379SOL    HW2 5587   3.407   0.804   2.322 -0.2797  0.1801 -0.6520
 1379SOL    HW3 5588   3.322   0.685   2.358  1.1898 -0.5686  0.4153
 1379SOL    MW4 5589   3.337   0.770   2.361  0.3469 -0.4048  0.0043
 1380SOL     OW 5590   3.121   0.927   2.250  0.0967  0.0088 -0.1561
 1380SOL    HW2 5591   3.185   0.876   2.299  0.2410 -0.0614 -0.4177
 1380SOL    HW3 5592   3.036   0.894   2.281  0.1864 -0.0369  0.0421
 1380SOL    MW4 5593   3.118   0.916   2.260  0.1276 -0.0064 -0.1643
 1381SOL     OW 5594   3.195   1.166   2.356 -0.2270 -0.2281 -0.2759
 1381SOL    HW2 5595   3.253   1.214   2.297  0.2115 -0.3079  0.0810
 1381SOL    HW3 5596   3.183   1.081   2.315 -0.3423 -0.0993 -0.5059
 1381SOL    MW4 5597   3.201   1.161   2.343 -0.1843 -0.2216 -0.2592
 1382SOL     OW 5598   3.362   1.329   2.216 -0.1628  0.0209 -0.4296
 1382SOL    HW2 5599   3.439   1.294   2.261  0.0824 -0.5448 -1.2744
 1382SOL    HW3 5600   3.346   1.413   2.258  1.3601  0.4835 -0.7354
 1382SOL    MW4 5601   3.370   1.335   2.227  0.0708  0.0074 -0.5817
 1383SOL     OW 5602   3.341   1.563   2.346 -0.2575  0.5385 -0.0954
 1383SOL    HW2 5603   3.343   1.543   2.440  1.9656  0.5020 -0.1216
 1383SOL    HW3 5604   3.266   1.620   2.335 -0.2106  0.9936  1.8185
 1383SOL    MW4 5605   3.332   1.568   2.357  0.0420  0.5937  0.1535
 1384SOL     OW 5606   3.086   1.681   2.282 -0.0165  0.6387  0.0127
 1384SOL    HW2 5607   3.072   1.762   2.332 -1.0624  1.0766 -0.9806
 1384SOL    HW3 5608   3.017   1.622   2.311  0.4831  0.2461  0.4157
 1384SOL    MW4 5609   3.075   1.684   2.293 -0.0885  0.6446 -0.0651
 1385SOL     OW 5610   3.086   1.957   2.367  0.1844  0.3099  0.3701
 1385SOL    HW2 5611   3.096   1.948   2.462  0.2176  0.0781  0.3455
 1385SOL    HW3 5612   3.171   1.990   2.337  0.8372 -1.4948  0.1814
 1385SOL    MW4 5613   3.099   1.960   2.375  0.2747  0.0410  0.3424
 1386SOL     OW 5614   3.317   2.084   2.270  0.2652 -0.1707  0.3173
 1386SOL    HW2 5615   3.397   2.049   2.308 -0.2095 -1.5953  0.0126
 1386SOL    HW3 5616   3.329   2.075   2.176 -0.4343 -0.7915  0.2853
 1386SOL    MW4 5617   3.329   2.078   2.263  0.1101 -0.4406  0.2728
 1387SOL     OW 5618   3.331   2.349   2.352 -0.0416  0.4382 -0.4724
 1387SOL    HW2 5619   3.248   2.388   2.324 -0.4008 -0.5607 -0.8337
 1387SOL    HW3 5620   3.325   2.258   2.323  1.2241  0.3852 -0.5785
 1387SOL    MW4 5621   3.319   2.342   2.344  0.0780  0.2992 -0.5338
 1388SOL     OW 5622   3.105   2.439   2.256 -0.4548  0.6756 -0.0341
 1388SOL    HW2 5623   3.111   2.534   2.272  0.5158  0.3880  1.4081
 1388SOL    HW3 5624   3.012   2.418   2.270 -0.9147  1.6242 -1.6070
 1388SOL    MW4 5625   3.093   2.449   2.260 -0.3872  0.7627 -0.0510
 1389SOL     OW 5626   3.126   2.702   2.334  0.2438 -0.1787 -0.3311
 1389SOL    HW2 5627   3.104   2.725   2.424 -0.3081 -0.6399 -0.3470
 1389SOL    HW3 5628   3.051   2.732   2.283 -1.3685 -3.6420 -0.1353
 1389SOL    MW4 5629   3.113   2.709   2.339 -0.0420 -0.6967 -0.3073
 1390SOL     OW 5630   3.376   2.803   2.262  0.2939 -0.1702 -0.6611
 1390SOL    HW2 5631   3.369   2.883   2.314  1.9944 -1.4232  1.5732
 1390SOL    HW3 5632   3.297   2.753   2.283  0.1893  0.0449 -0.5398
 1390SOL    MW4 5633   3.365   2.807   2.271  0.5045 -0.3071 -0.3505
 1391SOL     OW 5634   3.360   3.066   2.362 -0.2557 -0.5411  0.0452
 1391SOL    HW2 5635   3.432   3.122   2.333 -0.0454  0.1179  1.7576
 1391SOL    HW3 5636   3.282   3.120   2.351 -0.1365 -0.1604  0.9858
 1391SOL    MW4 5637   3.359   3.080   2.357 -0.2122 -0.4039  0.3955
 1392SOL     OW 5638   3.137   3.219   2.303  0.4001  0.4638  0.3801
 1392SOL    HW2 5639   3.146   3.311   2.327  1.1535  0.2180  1.0614
 1392SOL    HW3 5640   3.144   3.219   2.207  0.3332  1.1176  0.3708
 1392SOL    MW4 5641   3.139   3.231   2.293  0.4907  0.5178  0.4690
 1393SOL     OW 5642   3.139   3.491   2.360  0.0221  0.0711 -0.3223
 1393SOL    HW2 5643   3.158   3.517   2.450 -1.2472 -0.2252  0.0361
 1393SOL    HW3 5644   3.196   3.547   2.307 -1.1015  2.0777  0.5323
 1393SOL    MW4 5645   3.149   3.502   2.365 -0.2937  0.2966 -0.1624
 1394SOL     OW 5646   3.370   3.624   2.258  0.6023  0.1903  0.3733
 1394SOL    HW2 5647   3.426   3.551   2.282  0.4544 -0.0767 -0.0972
 1394SOL    HW3 5648   3.378   3.631   2.163 -0.3151  0.0199  0.2742
 1394SOL    MW4 5649   3.378   3.616   2.249  0.4616  0.1323  0.2983
 1395SOL     OW 5650   3.355   3.882   2.401 -0.2576  0.2214  0.0546
 1395SOL    HW2 5651   3.428   3.928   2.359  0.1353 -1.1091 -0.7758
 1395SOL    HW3 5652   3.356   3.795   2.361 -2.6225  0.3352 -0.3597
 1395SOL    MW4 5653   3.364   3.877   2.390 -0.5176  0.0610 -0.1097
 1396SOL     OW 5654   3.117   3.981   2.254 -0.1449 -0.3965  0.0323
 1396SOL    HW2 5655   3.200   3.951   2.293  1.0997  2.0001 -0.6848
 1396SOL    HW3 5656   3.050   3.928   2.297  1.3829  0.5070  3.6570
 1396SOL    MW4 5657   3.119   3.970   2.264  0.2208  0.0389  0.4160
 1397SOL     OW 5658   3.153   4.236   2.371 -0.5146  0.1047  0.3451
 1397SOL    HW2 5659   3.228   4.275   2.328 -0.7243  0.6863  0.5051
 1397SOL    HW3 5660   3.136   4.155   2.322  1.0661 -0.7418  1.1584
 1397SOL    MW4 5661   3.160   4.230   2.359 -0.3335  0.0701  0.4737
 1398SOL     OW 5662   3.352   4.382   2.238  0.2496  0.0707  0.0845
 1398SOL    HW2 5663   3.332   4.473   2.261 -1.4023 -0.0525 -0.7961
 1398SOL    HW3 5664   3.355   4.381   2.142  0.1446 -0.8115  0.0822
 1398SOL    MW4 5665   3.349   4.394   2.228  0.0179 -0.0615 -0.0317
 1399SOL     OW 5666   3.801   4.653   2.347 -0.0063  0.2247  0.1508
 1399SOL    HW2 5667   3.786   4.653   2.441 -0.2550 -0.5027  0.1113
 1399SOL    HW3 5668   3.895   4.672   2.338 -0.3265  2.0328  0.4802
 1399SOL    MW4 5669   3.812   4.656   2.358 -0.0815  0.3681  0.1893
 1400SOL     OW 5670   3.594   0.112   2.238  0.3821  0.0605  0.2302
 1400SOL    HW2 5671   3.607   0.201   2.270  0.8088  0.1806 -0.2679
 1400SOL    HW3 5672   3.668   0.062   2.274  0.0035 -0.1565  0.7240
 1400SOL    MW4 5673   3.605   0.117   2.247  0.3884  0.0477  0.2294
 1401SOL     OW 5674   3.587   0.358   2.365 -0.2016 -0.5088  0.3599
 1401SOL    HW2 5675   3.594   0.367   2.460  0.1126 -1.3774  0.4274
 1401SOL    HW3 5676   3.665   0.402   2.331 -0.8115  0.6472  0.4510
 1401SOL    MW4 5677   3.598   0.365   2.373 -0.2403 -0.4709  0.3808
 1402SOL     OW 5678   3.830   0.457   2.251 -0.3205  0.1683  0.2012
 1402SOL    HW2 5679   3.832   0.547   2.283  2.4086  0.3511 -0.3476
 1402SOL    HW3 5680   3.829   0.465   2.156 -0.5426 -0.3700  0.1581
 1402SOL    MW4 5681   3.830   0.470   2.243  0.0103  0.1214  0.1230
 1403SOL     OW 5682   3.831   0.711   2.349 -0.3105 -0.1490 -0.0535
 1403SOL    HW2 5683   3.836   0.710   2.445 -0.1774 -1.8020 -0.0720
 1403SOL    HW3 5684   3.909   0.760   2.322 -0.2342  0.1414  0.6745
 1403SOL    MW4 5685   3.842   0.718   2.358 -0.2828 -0.3288  0.0401
 1404SOL     OW 5686   3.588   0.900   2.299 -0.3261  0.2967 -0.1184
 1404SOL    HW2 5687   3.670   0.860   2.328 -0.8152 -0.4679  0.2367
 1404SOL    HW3 5688   3.593   0.900   2.204  0.0595  0.2003 -0.0999
 1404SOL    MW4 5689   3.600   0.895   2.291 -0.3397  0.1832 -0.0691
 1405SOL     OW 5690   3.562   1.170   2.342 -0.2247  0.1941 -0.1289
 1405SOL    HW2 5691   3.600   1.183   2.429  1.0982 -0.8043 -0.5336
 1405SOL    HW3 5692   3.560   1.075   2.331 -0.1606  0.3197 -1.2847
 1405SOL    MW4 5693   3.567   1.159   2.352 -0.0417  0.0789 -0.3347
 1406SOL     OW 5694   3.797   1.273   2.252 -0.1459 -0.0338 -0.2741
 1406SOL    HW2 5695   3.805   1.359   2.294 -0.5162  0.3871 -1.0549
 1406SOL    HW3 5696   3.709   1.243   2.273  0.0028 -0.2484  0.0460
 1406SOL    MW4 5697   3.787   1.280   2.260 -0.1752 -0.0066 -0.3347
 1407SOL     OW 5698   3.832   1.528   2.363  0.2860 -0.6840  0.6539
 1407SOL    HW2 5699   3.837   1.539   2.458  0.4760  1.2971  0.4285
 1407SOL    HW3 5700   3.750   1.571   2.339  0.3426 -0.9968 -0.1082
 1407SOL    MW4 5701   3.822   1.535   2.372  0.3188 -0.4638  0.5238
 1408SOL     OW 5702   3.598   1.662   2.269 -0.2953 -0.0368  0.3599
 1408SOL    HW2 5703   3.517   1.613   2.279 -0.9163  1.0590  0.8716
 1408SOL    HW3 5704   3.577   1.750   2.301  1.1491  0.2069  0.6942
 1408SOL    MW4 5705   3.585   1.667   2.274 -0.1867  0.1398  0.4716
 1409SOL     OW 5706   3.549   1.923   2.362 -0.6496 -0.0387 -0.0919
 1409SOL    HW2 5707   3.632   1.964   2.338 -0.9442 -0.2772 -1.5667
 1409SOL    HW3 5708   3.564   1.888   2.450  0.5678  0.5765 -0.0465
 1409SOL    MW4 5709   3.562   1.924   2.371 -0.5279  0.0110 -0.2804
 1410SOL     OW 5710   3.799   2.039   2.294  0.7055 -0.4789  0.0728
 1410SOL    HW2 5711   3.878   1.989   2.314  1.0944 -0.0584 -0.4080
 1410SOL    HW3 5712   3.807   2.060   2.201 -0.6648 -1.6669 -0.3224
 1410SOL    MW4 5713   3.810   2.035   2.284  0.5758 -0.5801 -0.0424
 1411SOL     OW 5714   3.819   2.307   2.362 -0.0360 -0.2603  0.1257
 1411SOL    HW2 5715   3.734   2.341   2.333 -0.5437  0.1715  2.0406
 1411SOL    HW3 5716   3.810   2.212   2.357 -0.3769 -0.2089 -0.3483
 1411SOL    MW4 5717   3.806   2.299   2.357 -0.1481 -0.1967  0.3157
 1412SOL     OW 5718   3.586   2.410   2.257  0.0482  0.1923 -0.2605
 1412SOL    HW2 5719   3.499   2.376   2.278 -0.0681  0.0627 -0.9613
 1412SOL    HW3 5720   3.583   2.428   2.163  0.1117  2.1068  0.0795
 1412SOL    MW4 5721   3.574   2.408   2.248  0.0410  0.4277 -0.3080
 1413SOL     OW 5722   3.565   2.651   2.375  0.0792 -0.1776  0.3567
 1413SOL    HW2 5723   3.559   2.563   2.340 -1.7082 -0.3896  1.1591
 1413SOL    HW3 5724   3.498   2.701   2.328  1.3277  0.8650 -0.3705
 1413SOL    MW4 5725   3.556   2.646   2.364  0.0076 -0.0679  0.3667
 1414SOL     OW 5726   3.780   2.816   2.268  0.1552  1.0122 -0.0936
 1414SOL    HW2 5727   3.779   2.898   2.317  0.5497  0.2873  1.1343
 1414SOL    HW3 5728   3.710   2.764   2.307  0.7955  0.2393  0.0434
 1414SOL    MW4 5729   3.771   2.820   2.280  0.2916  0.8144  0.0865
 1415SOL     OW 5730   3.813   3.066   2.372  0.3437  0.5279 -0.6877
 1415SOL    HW2 5731   3.825   3.086   2.465  2.2539  0.6029 -0.9353
 1415SOL    HW3 5732   3.887   3.108   2.328 -0.3419  0.1856 -2.2092
 1415SOL    MW4 5733   3.824   3.074   2.379  0.5057  0.4930 -0.9210
 1416SOL     OW 5734   3.599   3.208   2.242 -0.2117  0.3551 -0.2486
 1416SOL    HW2 5735   3.611   3.290   2.291 -1.5948  0.7477 -0.5464
 1416SOL    HW3 5736   3.658   3.146   2.286  1.8114  1.8070 -0.8103
 1416SOL    MW4 5737   3.609   3.210   2.254 -0.1273  0.5984 -0.3622
 1417SOL     OW 5738   3.603   3.485   2.343  0.3708  0.7601  0.3051
 1417SOL    HW2 5739   3.613   3.493   2.438  0.9623 -0.2258  0.3307
 1417SOL    HW3 5740   3.686   3.517   2.308  1.1842 -1.3035  0.2470
 1417SOL    MW4 5741   3.615   3.490   2.351  0.5562  0.3576  0.3006
 1418SOL     OW 5742   3.820   3.626   2.268  0.2330  0.1701  1.0500
 1418SOL    HW2 5743   3.801   3.712   2.308  0.2864  0.3999  0.5824
 1418SOL    HW3 5744   3.829   3.645   2.175 -1.6352 -0.6364  0.6818
 1418SOL    MW4 5745   3.819   3.640   2.261 -0.0067  0.0937  0.9398
 1419SOL     OW 5746   3.794   3.883   2.385 -0.6478 -0.4648  0.5245
 1419SOL    HW2 5747   3.819   3.889   2.477 -0.3069  0.6019  0.3710
 1419SOL    HW3 5748   3.869   3.919   2.338 -1.4207  0.3755 -0.0868
 1419SOL    MW4 5749   3.807   3.888   2.391 -0.7045 -0.2131  0.4234
 1420SOL     OW 5750   3.581   4.021   2.292 -0.3389  0.0251  0.0815
 1420SOL    HW2 5751   3.565   4.093   2.354  1.3511  1.1540 -0.7683
 1420SOL    HW3 5752   3.653   3.972   2.331 -1.8379 -1.5664  0.9303
 1420SOL    MW4 5753   3.588   4.024   2.306 -0.3135 -0.0358  0.0815
 1421SOL     OW 5754   3.570   4.287   2.385 -0.0887  0.0430  0.2526
 1421SOL    HW2 5755   3.649   4.313   2.338 -0.0229  2.0744  1.4524
 1421SOL    HW3 5756   3.499   4.333   2.340 -0.4718 -0.9174 -0.1387
 1421SOL    MW4 5757   3.571   4.297   2.373 -0.1307  0.1841  0.3591
 1422SOL     OW 5758   3.799   4.365   2.253  0.1226  0.4351 -0.1024
 1422SOL    HW2 5759   3.868   4.318   2.300  0.5793  0.8930 -0.3011
 1422SOL    HW3 5760   3.809   4.456   2.282  0.1530  0.6511 -0.7880
 1422SOL    MW4 5761   3.810   4.371   2.263  0.1869  0.5240 -0.2191
 1423SOL     OW 5762   4.254   4.602   2.339 -0.1829 -0.3454 -0.0976
 1423SOL    HW2 5763   4.261   4.604   2.435 -2.4281 -0.0405  0.0780
 1423SOL    HW3 5764   4.326   4.658   2.309  0.4834 -0.3630  1.4081
 1423SOL    MW4 5765   4.265   4.609   2.348 -0.3910 -0.3071  0.1240
 1424SOL     OW 5766   4.034   0.089   2.265  0.1308 -0.0728 -0.1153
 1424SOL    HW2 5767   4.051   0.174   2.305  0.9209  0.5232 -1.6680
 1424SOL    HW3 5768   4.109   0.035   2.290  0.5965  0.2820 -0.7406
 1424SOL    MW4 5769   4.046   0.093   2.274  0.2966  0.0527 -0.4027
 1425SOL     OW 5770   4.072   0.361   2.354  0.0252 -0.0977 -0.0190
 1425SOL    HW2 5771   4.138   0.417   2.313  0.8387 -1.1844 -0.1998
 1425SOL    HW3 5772   3.989   0.391   2.317  0.3292  1.7097  0.6899
 1425SOL    MW4 5773   4.069   0.372   2.344  0.1731 -0.0026  0.0505
 1426SOL     OW 5774   4.290   0.517   2.239 -0.3097 -0.2322 -0.1037
 1426SOL    HW2 5775   4.298   0.591   2.298  2.4460  1.8787 -2.9878
 1426SOL    HW3 5776   4.356   0.454   2.269  0.6120  0.5318 -0.5406
 1426SOL    MW4 5777   4.300   0.518   2.251  0.1750  0.1472 -0.5419
 1427SOL     OW 5778   4.270   0.730   2.421  0.0755  0.1157 -0.3709
 1427SOL    HW2 5779   4.188   0.756   2.378 -0.0272 -0.8785 -0.7975
 1427SOL    HW3 5780   4.338   0.778   2.374 -0.2655  0.9509 -0.0131
 1427SOL    MW4 5781   4.268   0.740   2.409  0.0176  0.0948 -0.3800
 1428SOL     OW 5782   4.063   0.845   2.270 -0.1191  0.4539 -0.4657
 1428SOL    HW2 5783   4.062   0.925   2.323  1.3026  0.6798 -0.7588
 1428SOL    HW3 5784   4.067   0.877   2.180 -0.9522  0.0504 -0.6531
 1428SOL    MW4 5785   4.063   0.860   2.265 -0.0410  0.4305 -0.5293
 1429SOL     OW 5786   4.021   1.106   2.358 -0.3410 -0.2666  0.6261
 1429SOL    HW2 5787   4.031   1.130   2.450 -0.1295  1.4344  0.1725
 1429SOL    HW3 5788   3.937   1.145   2.332  0.0273  0.0416 -0.1309
 1429SOL    MW4 5789   4.011   1.114   2.367 -0.2642 -0.0014  0.4663
 1430SOL     OW 5790   4.247   1.257   2.262 -0.3979 -0.0201  0.2409
 1430SOL    HW2 5791   4.174   1.196   2.270 -0.3614 -0.0964 -0.0024
 1430SOL    HW3 5792   4.323   1.208   2.296 -0.4802  0.0994  0.6001
 1430SOL    MW4 5793   4.248   1.243   2.268 -0.4044 -0.0143  0.2563
 1431SOL     OW 5794   4.283   1.507   2.395 -0.5389  0.0166  0.4746
 1431SOL    HW2 5795   4.268   1.426   2.345  1.5862 -0.0855 -0.0430
 1431SOL    HW3 5796   4.356   1.549   2.351  1.6003 -0.2162  3.6729
 1431SOL    MW4 5797   4.290   1.501   2.383  0.0234 -0.0275  0.8285
 1432SOL     OW 5798   4.074   1.650   2.285 -0.7652 -0.2046 -0.2881
 1432SOL    HW2 5799   4.141   1.598   2.328 -0.6941  1.1079  1.2208
 1432SOL    HW3 5800   3.992   1.605   2.307 -0.6590  0.0037  0.5304
 1432SOL    MW4 5801   4.072   1.637   2.293 -0.7415 -0.0041  0.0191
 1433SOL     OW 5802   4.040   1.912   2.362 -0.4147  0.4674  0.5052
 1433SOL    HW2 5803   4.041   1.914   2.458 -1.3595  1.7298  0.5055
 1433SOL    HW3 5804   4.066   1.823   2.340  0.2776  0.3052  1.9288
 1433SOL    MW4 5805   4.043   1.900   2.372 -0.4473  0.6124  0.6931
 1434SOL     OW 5806   4.270   2.050   2.281  0.3667 -0.0881 -0.2786
 1434SOL    HW2 5807   4.262   2.140   2.314  1.7000  0.7688 -2.2111
 1434SOL    HW3 5808   4.194   2.004   2.316 -1.1001  2.1697 -0.4431
 1434SOL    MW4 5809   4.259   2.056   2.290  0.3490  0.3228 -0.5553
 1435SOL     OW 5810   4.234   2.301   2.368 -0.1131 -0.1870  0.3992
 1435SOL    HW2 5811   4.162   2.346   2.324 -0.0144 -1.3394 -0.9959
 1435SOL    HW3 5812   4.313   2.349   2.341 -0.0768 -0.7475 -0.5335
 1435SOL    MW4 5813   4.235   2.313   2.358 -0.0958 -0.4132  0.0923
 1436SOL     OW 5814   4.042   2.438   2.217 -0.1233 -0.0729 -0.2951
 1436SOL    HW2 5815   4.038   2.526   2.253 -0.9573 -0.5739  0.9083
 1436SOL    HW3 5816   3.961   2.396   2.248 -0.5628 -0.7299 -2.2487
 1436SOL    MW4 5817   4.031   2.444   2.226 -0.2913 -0.2258 -0.3941
 1437SOL     OW 5818   4.025   2.712   2.344  0.0851  0.3153 -0.1037
 1437SOL    HW2 5819   4.025   2.726   2.439 -1.8052  0.3215 -0.0829
 1437SOL    HW3 5820   3.952   2.766   2.312  0.4885  0.0392 -1.5139
 1437SOL    MW4 5821   4.015   2.721   2.353 -0.1111  0.2797 -0.2873
 1438SOL     OW 5822   4.225   2.857   2.231  0.0585 -0.1838  0.2600
 1438SOL    HW2 5823   4.161   2.806   2.280  0.9360 -0.5094  1.0847
 1438SOL    HW3 5824   4.310   2.821   2.257  0.6213  0.7702 -0.2050
 1438SOL    MW4 5825   4.228   2.846   2.241  0.2484 -0.1009  0.3076
 1439SOL     OW 5826   4.256   3.082   2.378 -0.1202 -0.1189 -0.3057
 1439SOL    HW2 5827   4.249   3.005   2.322  0.9050 -1.4627  1.3518
 1439SOL    HW3 5828   4.334   3.127   2.348  0.5870 -0.9888  0.2075
 1439SOL    MW4 5829   4.265   3.078   2.367  0.1082 -0.4113 -0.0193
 1440SOL     OW 5830   4.028   3.199   2.232 -0.2114 -0.0174 -0.3148
 1440SOL    HW2 5831   4.101   3.152   2.272 -1.2550 -0.9513  0.5085
 1440SOL    HW3 5832   4.032   3.286   2.270 -0.3008 -0.4550  0.7110
 1440SOL    MW4 5833   4.038   3.204   2.242 -0.3605 -0.1981 -0.0706
 1441SOL     OW 5834   4.025   3.452   2.339  0.1089  0.0114 -0.5505
 1441SOL    HW2 5835   4.100   3.502   2.306 -0.0039  0.7260  0.2458
 1441SOL    HW3 5836   3.949   3.504   2.312 -0.1028 -0.7055 -1.3492
 1441SOL    MW4 5837   4.025   3.466   2.331  0.0658  0.0112 -0.5507
 1442SOL     OW 5838   4.248   3.627   2.290  0.3833  0.2218  0.0188
 1442SOL    HW2 5839   4.240   3.719   2.317 -1.7798 -0.0530  0.4452
 1442SOL    HW3 5840   4.263   3.631   2.196 -1.6254  0.9960 -0.2970
 1442SOL    MW4 5841   4.249   3.640   2.281 -0.1669  0.2878  0.0331
 1443SOL     OW 5842   4.242   3.888   2.371 -0.4562 -0.9587 -0.1014
 1443SOL    HW2 5843   4.268   3.867   2.460 -0.6049 -0.1978  0.1243
 1443SOL    HW3 5844   4.311   3.946   2.339 -0.8693 -0.4987 -0.1687
 1443SOL    MW4 5845   4.255   3.893   2.378 -0.5302 -0.7975 -0.0803
 1444SOL     OW 5846   4.013   3.981   2.247  0.3658 -0.4298 -0.2874
 1444SOL    HW2 5847   4.091   3.950   2.292  0.2692 -0.5761 -0.2201
 1444SOL    HW3 5848   4.036   3.979   2.154  0.2817 -0.9173 -0.2964
 1444SOL    MW4 5849   4.026   3.977   2.241  0.3414 -0.5136 -0.2797
 1445SOL     OW 5850   4.025   4.244   2.358 -0.2356 -0.2238  0.2865
 1445SOL    HW2 5851   4.104   4.273   2.312 -0.5179 -1.4296 -1.0277
 1445SOL    HW3 5852   4.018   4.151   2.336 -1.7003 -0.2704  0.8732
 1445SOL    MW4 5853   4.035   4.235   2.349 -0.4659 -0.3891  0.1907
 1446SOL     OW 5854   4.279   4.322   2.255 -0.4353 -0.3267  0.0812
 1446SOL    HW2 5855   4.261   4.401   2.305 -1.1626 -0.5782  0.2201
 1446SOL    HW3 5856   4.368   4.298   2.280 -0.6113 -0.1722  0.8720
 1446SOL    MW4 5857   4.288   4.329   2.265 -0.5550 -0.3395  0.2038
 1447SOL     OW 5858   0.249   4.650   2.573 -0.1327 -0.1238  0.0294
 1447SOL    HW2 5859   0.261   4.578   2.634 -0.8491 -0.4233 -0.1768
 1447SOL    HW3 5860   0.168   4.693   2.602  1.2863  1.7539  1.3150
 1447SOL    MW4 5861   0.240   4.646   2.585 -0.0400  0.0844  0.1719
 1448SOL     OW 5862   0.034   0.091   2.681 -0.1713  0.1276 -0.1680
 1448SOL    HW2 5863   0.017   0.087   2.775 -0.9427  0.5006 -0.2853
 1448SOL    HW3 5864   0.034   0.185   2.661  1.5791  0.1297 -0.2714
 1448SOL    MW4 5865   0.032   0.103   2.691 -0.0421  0.1771 -0.1972
 1449SOL     OW 5866   0.019   0.351   2.615 -0.4831 -0.3005  0.2502
 1449SOL    HW2 5867   0.102   0.395   2.633 -0.1948 -0.8287  0.2246
 1449SOL    HW3 5868   0.003   0.368   2.522 -0.6105  0.1477  0.3549
 1449SOL    MW4 5869   0.028   0.359   2.605 -0.4619 -0.3110  0.2606
 1450SOL     OW 5870   0.246   0.479   2.711  0.1802  0.2813  0.0022
 1450SOL    HW2 5871   0.235   0.466   2.805 -1.0141  0.8947 -0.0394
 1450SOL    HW3 5872   0.321   0.425   2.687  0.2639 -0.1539  1.2425
 1450SOL    MW4 5873   0.255   0.470   2.720  0.0337  0.3048  0.1602
 1451SOL     OW 5874   0.222   0.746   2.609 -0.1078 -0.3264  0.0692
 1451SOL    HW2 5875   0.297   0.799   2.633 -1.0042 -0.0756  2.4097
 1451SOL    HW3 5876   0.240   0.660   2.646 -1.1702 -0.1390  1.0446
 1451SOL    MW4 5877   0.234   0.742   2.617 -0.3663 -0.2686  0.5066
 1452SOL     OW 5878   0.012   0.869   2.752  0.1791  0.2671  0.0066
 1452SOL    HW2 5879  -0.071   0.824   2.736  0.1448 -0.2643  1.5212
 1452SOL    HW3 5880   0.077   0.817   2.706 -0.1705 -0.0497 -0.1328
 1452SOL    MW4 5881   0.010   0.856   2.744  0.1283  0.1551  0.1879
 1453SOL     OW 5882   4.480   1.130   2.645 -0.1250 -0.2776 -0.4450
 1453SOL    HW2 5883   4.549   1.176   2.693 -0.2265 -0.6791  0.0866
 1453SOL    HW3 5884   4.486   1.039   2.674 -1.6731 -0.0845  0.5511
 1453SOL    MW4 5885   4.490   1.124   2.655 -0.3427 -0.3052 -0.2434
 1454SOL     OW 5886   0.209   1.271   2.754 -0.1962  0.2010 -0.0850
 1454SOL    HW2 5887   0.299   1.248   2.730 -0.8458 -0.6646 -1.7777
 1454SOL    HW3 5888   0.196   1.359   2.719  0.0856  0.4688  0.4658
 1454SOL    MW4 5889   0.219   1.279   2.746 -0.2447  0.1221 -0.2360
 1455SOL     OW 5890   0.223   1.536   2.626  0.0328  0.5840  0.3340
 1455SOL    HW2 5891   0.286   1.599   2.661  0.0396  1.0174 -0.4713
 1455SOL    HW3 5892   0.138   1.568   2.656 -0.1323  1.9751 -1.5868
 1455SOL    MW4 5893   0.221   1.548   2.635  0.0119  0.8247 -0.0257
 1456SOL     OW 5894   0.009   1.644   2.773 -0.0926 -0.2557 -0.0901
 1456SOL    HW2 5895   0.009   1.640   2.868 -0.6903  1.2100 -0.0088
 1456SOL    HW3 5896   0.001   1.738   2.753  2.6676 -0.2910 -1.5949
 1456SOL    MW4 5897   0.008   1.656   2.783  0.1927 -0.0670 -0.2778
 1457SOL     OW 5898   0.032   1.913   2.648 -0.4231  0.3851  0.2107
 1457SOL    HW2 5899   0.092   1.975   2.689 -1.9873  2.1227 -0.0302
 1457SOL    HW3 5900   0.045   1.925   2.554 -0.0605 -0.3408  0.1652
 1457SOL    MW4 5901   0.042   1.923   2.641 -0.5816  0.5186  0.1731
 1458SOL     OW 5902   0.219   2.075   2.770 -0.2621 -0.0610 -0.0837
 1458SOL    HW2 5903   0.299   2.040   2.729  0.0568 -0.4088  0.8187
 1458SOL    HW3 5904   0.215   2.166   2.741  1.4164  0.4756  1.2521
 1458SOL    MW4 5905   0.229   2.082   2.761  0.0014 -0.0360  0.2115
 1459SOL     OW 5906   0.194   2.327   2.620  0.2053 -0.2143 -0.3942
 1459SOL    HW2 5907   0.266   2.382   2.649 -0.2955  0.0702  0.3087
 1459SOL    HW3 5908   0.115   2.376   2.642 -0.3478 -2.2720  2.5470
 1459SOL    MW4 5909   0.193   2.341   2.626  0.0662 -0.4482  0.0865
 1460SOL     OW 5910   4.437   2.465   2.698 -0.6557  0.2807  0.2411
 1460SOL    HW2 5911   4.444   2.455   2.792  0.7775 -0.3711  0.0777
 1460SOL    HW3 5912   4.377   2.396   2.670 -0.3984 -0.0711  0.5646
 1460SOL    MW4 5913   4.430   2.455   2.706 -0.4330  0.1483  0.2620
 1461SOL     OW 5914   4.463   2.716   2.604  0.0538  0.0541 -0.2424
 1461SOL    HW2 5915   4.393   2.761   2.651 -1.0177 -0.0228 -1.7142
 1461SOL    HW3 5916   4.456   2.624   2.631  0.2708  0.2306  0.4161
 1461SOL    MW4 5917   4.453   2.709   2.613 -0.0587  0.0670 -0.3498
 1462SOL     OW 5918   0.205   2.820   2.708  0.4189  0.3189  0.2793
 1462SOL    HW2 5919   0.203   2.907   2.668  1.6745 -0.3293 -1.2560
 1462SOL    HW3 5920   0.124   2.779   2.679  1.0409  0.0687 -1.1740
 1462SOL    MW4 5921   0.194   2.826   2.699  0.6666  0.2005 -0.1149
 1463SOL     OW 5922   0.199   3.095   2.632 -0.1098  0.6565 -0.1065
 1463SOL    HW2 5923   0.291   3.116   2.651  0.1280  1.5811 -2.2424
 1463SOL    HW3 5924   0.195   3.086   2.537 -1.3920 -3.5147  0.2428
 1463SOL    MW4 5925   0.211   3.097   2.622 -0.2476  0.2279 -0.3424
 1464SOL     OW 5926   4.490   3.245   2.752  0.4016 -0.5744 -0.7509
 1464SOL    HW2 5927   4.409   3.205   2.721  0.3737 -1.7468  0.8045
 1464SOL    HW3 5928   4.559   3.195   2.709  0.3423 -1.2953 -0.0073
 1464SOL    MW4 5929   4.489   3.233   2.742  0.3901 -0.8242 -0.4480
 1465SOL     OW 5930   0.012   3.480   2.654  0.1173  0.1033 -0.0026
 1465SOL    HW2 5931   0.089   3.525   2.690  0.5248  0.0924 -0.8461
 1465SOL    HW3 5932   0.008   3.398   2.702  0.8120 -0.0290 -0.1585
 1465SOL    MW4 5933   0.022   3.475   2.665  0.2627  0.0844 -0.1345
 1466SOL     OW 5934   0.244   3.603   2.741  0.0712 -0.3383  0.3028
 1466SOL    HW2 5935   0.227   3.603   2.835 -0.9628  0.0919  0.1289
 1466SOL    HW3 5936   0.321   3.548   2.730 -0.1863 -0.9151  1.3323
 1466SOL    MW4 5937   0.252   3.596   2.752 -0.0992 -0.3576  0.4156
 1467SOL     OW 5938   0.251   3.872   2.665  0.0975 -0.0416 -0.0472
 1467SOL    HW2 5939   0.257   3.785   2.704  1.9565  0.5293  0.9691
 1467SOL    HW3 5940   0.256   3.856   2.571 -0.5607 -1.1079  0.0851
 1467SOL    MW4 5941   0.252   3.858   2.658  0.2559 -0.1068  0.1044
 1468SOL     OW 5942   0.008   3.995   2.776  0.1225 -0.2080 -0.5304
 1468SOL    HW2 5943   0.007   4.086   2.746  1.0473  0.1579  0.5171
 1468SOL    HW3 5944   0.091   3.960   2.743  0.6064 -0.1405  0.6147
 1468SOL    MW4 5945   0.019   4.003   2.767  0.3084 -0.1507 -0.2408
 1469SOL     OW 5946   0.035   4.251   2.639 -0.4784 -0.5504  0.0306
 1469SOL    HW2 5947  -0.047   4.288   2.672 -0.1924  0.5341 -0.4379
 1469SOL    HW3 5948   0.103   4.305   2.678 -0.0691 -0.2944 -1.0188
 1469SOL    MW4 5949   0.033   4.263   2.649 -0.3866 -0.3734 -0.1698
 1470SOL     OW 5950   0.272   4.423   2.740 -0.1466 -0.0192 -0.0789
 1470SOL    HW2 5951   0.261   4.426   2.835 -0.5741  1.4009 -0.1662
 1470SOL    HW3 5952   0.346   4.364   2.727 -0.2611 -0.4552  1.1160
 1470SOL    MW4 5953   0.280   4.415   2.751 -0.2181  0.1106  0.0672
 1471SOL     OW 5954   0.711   0.014   2.591 -0.3323 -0.0967 -0.2707
 1471SOL    HW2 5955   0.785   0.048   2.642 -0.1648 -1.2227  0.2430
 1471SOL    HW3 5956   0.634   0.047   2.637 -0.1677  0.9807 -0.7373
 1471SOL    MW4 5957   0.711   0.023   2.604 -0.2885 -0.1025 -0.2646
 1472SOL     OW 5958   0.479   0.073   2.715  0.0510  0.2962  0.2988
 1472SOL    HW2 5959   0.457   0.085   2.807 -0.4061 -0.5282  0.3023
 1472SOL    HW3 5960   0.398   0.040   2.676  0.9975 -1.8769  0.1137
 1472SOL    MW4 5961   0.465   0.070   2.722  0.1156 -0.0993  0.2751
 1473SOL     OW 5962   0.456   0.343   2.601  0.1876 -0.2375 -0.3235
 1473SOL    HW2 5963   0.527   0.392   2.643 -0.5869 -0.2889  1.0794
 1473SOL    HW3 5964   0.454   0.259   2.646 -2.6417  0.8325  1.7089
 1473SOL    MW4 5965   0.465   0.338   2.612 -0.2879 -0.1031  0.1295
 1474SOL     OW 5966   0.658   0.474   2.741 -0.6941  0.4078  0.3682
 1474SOL    HW2 5967   0.672   0.483   2.836  0.1214 -0.4464  0.3411
 1474SOL    HW3 5968   0.741   0.439   2.708 -1.2168  0.0312 -0.5648
 1474SOL    MW4 5969   0.671   0.470   2.749 -0.6555  0.2454  0.2415
 1475SOL     OW 5970   0.615   0.749   2.652 -0.0873 -0.2491  0.5446
 1475SOL    HW2 5971   0.681   0.802   2.697  0.4516 -0.8803  0.5113
 1475SOL    HW3 5972   0.621   0.663   2.694  0.0535 -0.6928 -0.3779
 1475SOL    MW4 5973   0.624   0.745   2.664  0.0024 -0.3909  0.4182
 1476SOL     OW 5974   0.403   0.901   2.737  0.4637 -0.3875  0.2219
 1476SOL    HW2 5975   0.423   0.990   2.708 -1.9228  0.0256 -0.2771
 1476SOL    HW3 5976   0.474   0.848   2.702  1.8012  1.2721  0.3327
 1476SOL    MW4 5977   0.415   0.906   2.729  0.3253 -0.1140  0.1707
 1477SOL     OW 5978   0.457   1.152   2.647  0.1397  0.1549  0.3739
 1477SOL    HW2 5979   0.538   1.201   2.661 -0.1706  0.2806  1.8028
 1477SOL    HW3 5980   0.448   1.148   2.551  1.6456  0.4282  0.2022
 1477SOL    MW4 5981   0.467   1.158   2.636  0.2975  0.2075  0.5400
 1478SOL     OW 5982   0.677   1.310   2.731  0.1665 -0.0342 -0.0421
 1478SOL    HW2 5983   0.676   1.311   2.827 -0.1213 -1.7026 -0.0176
 1478SOL    HW3 5984   0.748   1.250   2.708  0.1043  0.2057 -0.8800
 1478SOL    MW4 5985   0.687   1.302   2.741  0.1204 -0.2226 -0.1490
 1479SOL     OW 5986   0.664   1.580   2.639  0.0723  0.1198  0.1763
 1479SOL    HW2 5987   0.659   1.489   2.670 -1.3443  0.3629  0.6908
 1479SOL    HW3 5988   0.578   1.616   2.658  0.4172  1.3855 -0.6456
 1479SOL    MW4 5989   0.652   1.572   2.646 -0.0690  0.3188  0.1357
 1480SOL     OW 5990   0.423   1.692   2.718  0.2397 -0.0058 -0.4455
 1480SOL    HW2 5991   0.417   1.675   2.812 -0.0024  0.4023 -0.3909
 1480SOL    HW3 5992   0.423   1.787   2.710 -3.0613 -0.0177 -1.0891
 1480SOL    MW4 5993   0.422   1.702   2.729 -0.2278  0.0465 -0.5233
 1481SOL     OW 5994   0.433   1.958   2.660 -0.6324  0.0666 -0.0970
 1481SOL    HW2 5995   0.516   1.998   2.687 -0.8161  0.5405 -0.2266
 1481SOL    HW3 5996   0.438   1.955   2.565 -1.7729  2.3455 -0.2635
 1481SOL    MW4 5997   0.445   1.963   2.651 -0.8072  0.4299 -0.1364
 1482SOL     OW 5998   0.651   2.102   2.757 -0.7796  0.1109  0.2780
 1482SOL    HW2 5999   0.652   2.099   2.853  0.5597  1.7344  0.3465
 1482SOL    HW3 6000   0.738   2.070   2.732 -1.1988 -0.4999 -0.4030
 1482SOL    MW4 6001   0.663   2.097   2.766 -0.6582  0.2449  0.1972
 1483SOL     OW 6002   0.632   2.332   2.610 -0.6250 -0.1282 -0.1661
 1483SOL    HW2 6003   0.715   2.366   2.644 -0.2564 -0.2976 -0.8995
 1483SOL    HW3 6004   0.615   2.253   2.662  0.0768 -0.5427 -0.5672
 1483SOL    MW4 6005   0.641   2.326   2.622 -0.4838 -0.2053 -0.3157
 1484SOL     OW 6006   0.416   2.474   2.694 -0.1289  0.2508 -0.4341
 1484SOL    HW2 6007   0.428   2.560   2.654 -0.1550  0.6235  0.3514
 1484SOL    HW3 6008   0.492   2.424   2.666 -0.3080  0.4100 -1.2101
 1484SOL    MW4 6009   0.428   2.479   2.685 -0.1560  0.3211 -0.4327
 1485SOL     OW 6010   0.447   2.706   2.583 -0.3919 -0.5753 -0.2472
 1485SOL    HW2 6011   0.515   2.745   2.639 -0.0883 -2.4319  0.7262
 1485SOL    HW3 6012   0.366   2.747   2.612 -0.0968 -0.7541  0.8863
 1485SOL    MW4 6013   0.445   2.716   2.594 -0.3130 -0.8440  0.0305
 1486SOL     OW 6014   0.643   2.811   2.769 -0.0680  0.2445  0.2322
 1486SOL    HW2 6015   0.649   2.815   2.865  1.7927 -0.9803  0.2096
 1486SOL    HW3 6016   0.692   2.888   2.739  1.1866 -0.5254  0.2608
 1486SOL    MW4 6017   0.650   2.822   2.778  0.3430 -0.0186  0.2329
 1487SOL     OW 6018   0.744   3.026   2.631 -0.2574  0.5440 -0.1412
 1487SOL    HW2 6019   0.809   3.080   2.676 -0.5772  0.2641  0.6605
 1487SOL    HW3 6020   0.740   3.063   2.542  1.0688  0.4820 -0.2262
 1487SOL    MW4 6021   0.752   3.038   2.625 -0.1246  0.4988 -0.0467
 1488SOL     OW 6022   0.486   3.152   2.714  0.2221  0.5067 -0.1665
 1488SOL    HW2 6023   0.487   3.168   2.808  0.5678 -2.3528  0.3526
 1488SOL    HW3 6024   0.572   3.116   2.695  0.0421  0.7749 -1.5365
 1488SOL    MW4 6025   0.497   3.150   2.724  0.2439  0.1650 -0.2789
 1489SOL     OW 6026   0.467   3.412   2.655  0.3891  0.2190 -0.0099
 1489SOL    HW2 6027   0.480   3.318   2.668  0.7154  0.1977 -0.4625
 1489SOL    HW3 6028   0.439   3.420   2.564  2.1528  0.7087 -0.5304
 1489SOL    MW4 6029   0.465   3.400   2.645  0.6649  0.2806 -0.1383
 1490SOL     OW 6030   0.672   3.606   2.737 -0.2744  0.2165 -0.0988
 1490SOL    HW2 6031   0.669   3.611   2.832 -1.5937 -1.4810 -0.0165
 1490SOL    HW3 6032   0.606   3.540   2.715  2.0952 -1.6135 -1.9899
 1490SOL    MW4 6033   0.663   3.598   2.747 -0.1358 -0.2487 -0.3376
 1491SOL     OW 6034   0.651   3.873   2.651  0.0120 -0.1667  0.0152
 1491SOL    HW2 6035   0.581   3.905   2.707  0.6532  1.6133 -0.1446
 1491SOL    HW3 6036   0.662   3.781   2.675 -0.8518  0.1340  1.6043
 1491SOL    MW4 6037   0.643   3.865   2.661 -0.0174  0.1080  0.2041
 1492SOL     OW 6038   0.454   4.030   2.774 -0.0889 -0.2987  0.0459
 1492SOL    HW2 6039   0.458   4.119   2.739 -0.9799 -0.0373  0.5842
 1492SOL    HW3 6040   0.378   3.991   2.731 -0.4820 -0.3602  0.7789
 1492SOL    MW4 6041   0.445   4.037   2.764 -0.2583 -0.2718  0.2134
 1493SOL     OW 6042   0.471   4.266   2.643 -0.2464 -0.2459 -0.0140
 1493SOL    HW2 6043   0.547   4.319   2.664 -0.4228  0.3308 -0.7785
 1493SOL    HW3 6044   0.474   4.256   2.547 -0.9243 -0.5246 -0.0133
 1493SOL    MW4 6045   0.481   4.271   2.633 -0.3591 -0.2065 -0.1147
 1494SOL     OW 6046   0.678   4.437   2.725 -0.6185  0.5816  0.2761
 1494SOL    HW2 6047   0.753   4.389   2.690 -0.0199  1.1936  0.7051
 1494SOL    HW3 6048   0.684   4.524   2.685 -1.6869  0.3204 -0.4818
 1494SOL    MW4 6049   0.688   4.442   2.715 -0.6804  0.6285  0.2327
 1495SOL     OW 6050   1.133   4.618   2.655  0.4133  0.2712  0.3422
 1495SOL    HW2 6051   1.218   4.653   2.682  0.7120 -1.0593  1.1838
 1495SOL    HW3 6052   1.135   4.526   2.681 -0.2425 -0.4743 -2.0953
 1495SOL    MW4 6053   1.144   4.610   2.662  0.3662 -0.0033  0.1318
 1496SOL     OW 6054   0.937   0.120   2.738 -0.1063  0.0601 -0.0430
 1496SOL    HW2 6055   0.936   0.129   2.833  0.3853 -0.8874  0.0488
 1496SOL    HW3 6056   1.004   0.054   2.720 -2.3935 -2.1004 -0.8594
 1496SOL    MW4 6057   0.946   0.113   2.748 -0.3433 -0.3499 -0.1388
 1497SOL     OW 6058   0.899   0.373   2.637 -0.5253  0.5818 -0.1627
 1497SOL    HW2 6059   0.912   0.285   2.673  0.7434  0.8263  0.0147
 1497SOL    HW3 6060   0.898   0.360   2.542 -1.5004  0.2335 -0.1069
 1497SOL    MW4 6061   0.901   0.360   2.629 -0.4866  0.5681 -0.1318
 1498SOL     OW 6062   1.134   0.472   2.765 -0.2556  0.9162 -0.2348
 1498SOL    HW2 6063   1.135   0.566   2.746  0.5165  1.1934  1.1598
 1498SOL    HW3 6064   1.057   0.440   2.718 -0.1757  2.1290 -1.2365
 1498SOL    MW4 6065   1.124   0.480   2.756 -0.1431  1.1128 -0.1831
 1499SOL     OW 6066   1.112   0.734   2.688 -0.2694  0.2236  0.2816
 1499SOL    HW2 6067   1.187   0.791   2.704 -0.6013  0.9830 -0.7987
 1499SOL    HW3 6068   1.101   0.736   2.593 -1.8902  0.4065  0.4695
 1499SOL    MW4 6069   1.121   0.742   2.677 -0.5270  0.3479  0.1640
 1500SOL     OW 6070   0.877   0.872   2.767 -0.2993 -0.0217  0.7386
 1500SOL    HW2 6071   0.883   0.884   2.862  0.8319  0.8913  0.5613
 1500SOL    HW3 6072   0.959   0.830   2.743 -0.4701 -0.0075  0.1248
 1500SOL    MW4 6073   0.889   0.868   2.776 -0.1726  0.1006  0.6342
 1501SOL     OW 6074   0.891   1.140   2.646  0.9326 -0.0112  0.1072
 1501SOL    HW2 6075   0.887   1.045   2.660 -0.4773 -0.3385 -2.1555
 1501SOL    HW3 6076   0.873   1.151   2.553  0.0262  2.5555  0.5403
 1501SOL    MW4 6077   0.888   1.129   2.636  0.6270  0.2842 -0.1342
 1502SOL     OW 6078   1.137   1.276   2.736 -0.4991  0.1550 -0.0322
 1502SOL    HW2 6079   1.127   1.359   2.688 -0.8000  0.8734  1.2402
 1502SOL    HW3 6080   1.069   1.219   2.701  0.9085 -0.2161 -2.2606
 1502SOL    MW4 6081   1.127   1.280   2.725 -0.3530  0.2009 -0.1583
 1503SOL     OW 6082   1.066   1.566   2.637  0.0115 -0.0412 -0.3057
 1503SOL    HW2 6083   0.994   1.627   2.654  0.0485 -0.1472  0.2278
 1503SOL    HW3 6084   1.057   1.544   2.544 -0.2671  0.4356 -0.3946
 1503SOL    MW4 6085   1.056   1.571   2.627 -0.0203  0.0077 -0.2472
 1504SOL     OW 6086   0.864   1.739   2.758  0.0633  0.5344  0.0216
 1504SOL    HW2 6087   0.860   1.730   2.853  0.2254 -1.8002 -0.1532
 1504SOL    HW3 6088   0.781   1.702   2.727  0.5963  0.0275 -0.8203
 1504SOL    MW4 6089   0.853   1.733   2.766  0.1551  0.1596 -0.1125
 1505SOL     OW 6090   0.894   1.990   2.667 -0.0776  0.2657  0.0516
 1505SOL    HW2 6091   0.979   2.026   2.693  0.0526 -0.3322  0.4474
 1505SOL    HW3 6092   0.895   1.900   2.699 -0.6490  0.0916 -0.4147
 1505SOL    MW4 6093   0.905   1.983   2.674 -0.1359  0.1639  0.0424
 1506SOL     OW 6094   1.146   2.085   2.751  0.6569  0.2135  0.0736
 1506SOL    HW2 6095   1.210   2.023   2.716  0.0889 -0.2670 -0.1031
 1506SOL    HW3 6096   1.148   2.159   2.690  1.5339  0.5030  0.4355
 1506SOL    MW4 6097   1.155   2.087   2.739  0.6976  0.1884  0.0982
 1507SOL     OW 6098   1.094   2.325   2.624 -0.0583 -0.1085 -0.0326
 1507SOL    HW2 6099   1.156   2.394   2.647 -0.1509 -0.4309  1.2331
 1507SOL    HW3 6100   1.106   2.312   2.530 -0.9724  2.5401 -0.5688
 1507SOL    MW4 6101   1.104   2.332   2.615 -0.1910  0.1981  0.0637
 1508SOL     OW 6102   0.860   2.412   2.741 -0.2905 -0.0141 -0.3617
 1508SOL    HW2 6103   0.865   2.502   2.707  0.4975  1.0649  2.4192
 1508SOL    HW3 6104   0.934   2.367   2.700  1.2990  1.5554  0.6830
 1508SOL    MW4 6105   0.870   2.418   2.731  0.0232  0.3355  0.1431
 1509SOL     OW 6106   0.864   2.667   2.651  0.2065 -0.0701  0.1973
 1509SOL    HW2 6107   0.935   2.713   2.695  0.5844 -1.1822  0.7606
 1509SOL    HW3 6108   0.787   2.723   2.665  0.7910  0.7008  0.3320
 1509SOL    MW4 6109   0.863   2.680   2.659  0.3335 -0.1149  0.2894
 1510SOL     OW 6110   1.083   2.832   2.734  0.0000  0.0000  0.3546
 1510SOL    HW2 6111   1.106   2.825   2.827  0.0000  0.0000  0.3565
 1510SOL    HW3 6112   1.159   2.795   2.688  0.0000  0.0000  0.3617
 1510SOL    MW4 6113   1.096   2.826   2.740  0.0000  0.0000  0.3557
 1511SOL     OW 6114   1.148   3.096   2.644  0.0000  0.0000 -0.2769
 1511SOL    HW2 6115   1.122   3.007   2.667  0.0000  0.0000 -0.2721
 1511SOL    HW3 6116   1.136   3.101   2.550  0.0000  0.0000 -0.2769
 1511SOL    MW4 6117   1.143   3.085   2.635  0.0000  0.0000 -0.2763
 1512SOL     OW 6118   0.919   3.208   2.741  0.0000  0.0000  0.2260
 1512SOL    HW2 6119   0.903   3.287   2.689  0.0000  0.0000  0.2411
 1512SOL    HW3 6120   1.006   3.179   2.713  0.0000  0.0000  0.1917
 1512SOL    MW4 6121   0.928   3.215   2.730  0.0000  0.0000  0.2234
 1513SOL     OW 6122   0.887   3.462   2.638  0.0000  0.0000 -0.4678
 1513SOL    HW2 6123   0.961   3.508   2.679  0.0000  0.0000 -0.4703
 1513SOL    HW3 6124   0.810   3.512   2.667  0.0000  0.0000 -0.4542
 1513SOL    MW4 6125   0.887   3.475   2.647  0.0000  0.0000 -0.4663
 1514SOL     OW 6126   1.102   3.599   2.780  0.0000  0.0000  0.4712
 1514SOL    HW2 6127   1.101   3.626   2.871  0.0000  0.0000  0.4734
 1514SOL    HW3 6128   1.100   3.681   2.731  0.0000  0.0000  0.4776
 1514SOL    MW4 6129   1.102   3.613   2.785  0.0000  0.0000  0.4725
 1515SOL     OW 6130   1.098   3.851   2.655  0.0000  0.0000  0.4453
 1515SOL    HW2 6131   1.178   3.889   2.693  0.0000  0.0000  0.4571
 1515SOL    HW3 6132   1.110   3.859   2.560  0.0000  0.0000  0.4473
 1515SOL    MW4 6133   1.110   3.857   2.647  0.0000  0.0000  0.4473
 1516SOL     OW 6134   0.893   4.008   2.766  0.0000  0.0000 -0.3162
 1516SOL    HW2 6135   0.957   3.963   2.710  0.0000  0.0000 -0.2828
 1516SOL    HW3 6136   0.809   3.969   2.740  0.0000  0.0000 -0.3525
 1516SOL    MW4 6137   0.890   3.997   2.755  0.0000  0.0000 -0.3166
 1517SOL     OW 6138   0.888   4.266   2.650  0.0000  0.0000 -0.0431
 1517SOL    HW2 6139   0.892   4.174   2.675  0.0000  0.0000 -0.0365
 1517SOL    HW3 6140   0.884   4.265   2.554  0.0000  0.0000 -0.0429
 1517SOL    MW4 6141   0.888   4.254   2.640  0.0000  0.0000 -0.0422
 1518SOL     OW 6142   1.144   4.351   2.736  0.0000  0.0000 -0.8671
 1518SOL    HW2 6143   1.137   4.378   2.828  0.0000  0.0000 -0.8674
 1518SOL    HW3 6144   1.055   4.327   2.711  0.0000  0.0000 -0.8574
 1518SOL    MW4 6145   1.131   4.351   2.745  0.0000  0.0000 -0.8662
 1519SOL     OW 6146   1.370   0.059   2.722  0.1087  0.0634 -0.6079
 1519SOL    HW2 6147   1.457   0.026   2.700  0.9218  0.6192  1.6675
 1519SOL    HW3 6148   1.368   0.147   2.684  0.6216  0.1265 -0.4918
 1519SOL    MW4 6149   1.381   0.066   2.714  0.2837  0.1451 -0.2921
 1520SOL     OW 6150   1.359   0.085   2.994 -0.2113 -0.0882 -0.1903
 1520SOL    HW2 6151   1.373   0.088   2.899  0.7859  0.7607 -0.0222
 1520SOL    HW3 6152   1.434   0.037   3.028  0.3783  1.1857  0.3381
 1520SOL    MW4 6153   1.370   0.079   2.986 -0.0019  0.1918 -0.0982
 1521SOL     OW 6154   1.345   0.329   2.647  0.5166 -0.1139  0.1193
 1521SOL    HW2 6155   1.425   0.371   2.680  0.9405 -1.1583  0.4552
 1521SOL    HW3 6156   1.274   0.381   2.683  1.0107 -0.2515  1.3369
 1521SOL    MW4 6157   1.346   0.341   2.656  0.6378 -0.2698  0.3245
 1522SOL     OW 6158   1.601   0.465   2.728  0.2502 -0.0340 -0.1771
 1522SOL    HW2 6159   1.582   0.469   2.821 -0.8045  0.1191 -0.3992
 1522SOL    HW3 6160   1.612   0.556   2.701  0.7890 -0.0913 -0.1543
 1522SOL    MW4 6161   1.600   0.477   2.737  0.1820 -0.0214 -0.2034
 1523SOL     OW 6162   1.558   0.745   2.621  0.3331  0.1095 -0.1389
 1523SOL    HW2 6163   1.476   0.776   2.661 -0.7668 -0.6793 -1.7177
 1523SOL    HW3 6164   1.627   0.789   2.671 -0.9631 -1.0526  2.8177
 1523SOL    MW4 6165   1.556   0.755   2.633  0.0169 -0.1479  0.0429
 1524SOL     OW 6166   1.344   0.860   2.756 -0.0405  0.2482 -0.0404
 1524SOL    HW2 6167   1.325   0.879   2.848  1.0272 -1.2523  0.5135
 1524SOL    HW3 6168   1.354   0.946   2.716 -2.0026  0.9510  0.9121
 1524SOL    MW4 6169   1.343   0.874   2.763 -0.1585  0.1429  0.1583
 1525SOL     OW 6170   1.322   1.103   2.637 -0.2727 -0.2878 -0.1958
 1525SOL    HW2 6171   1.404   1.140   2.669 -0.0932 -2.3822  1.9582
 1525SOL    HW3 6172   1.254   1.157   2.678  0.0086 -1.3968  1.8270
 1525SOL    MW4 6173   1.324   1.115   2.647 -0.2120 -0.7105  0.3550
 1526SOL     OW 6174   1.527   1.259   2.732 -0.0866  0.2596  0.3923
 1526SOL    HW2 6175   1.543   1.269   2.826  2.2856  1.4295 -0.0890
 1526SOL    HW3 6176   1.606   1.215   2.699 -0.6505  0.3777 -1.1257
 1526SOL    MW4 6177   1.540   1.255   2.740  0.1520  0.4296  0.1285
 1527SOL     OW 6178   1.520   1.527   2.675  0.6709 -0.6001 -0.5915
 1527SOL    HW2 6179   1.519   1.433   2.695  0.3936 -0.5645 -0.4376
 1527SOL    HW3 6180   1.527   1.531   2.580 -1.5388 -0.7955 -0.7816
 1527SOL    MW4 6181   1.521   1.515   2.665  0.3427 -0.6212 -0.5963
 1528SOL     OW 6182   1.308   1.671   2.731 -0.2042  0.0085  0.3798
 1528SOL    HW2 6183   1.385   1.619   2.711 -0.9792 -1.0238  0.0163
 1528SOL    HW3 6184   1.236   1.623   2.691 -0.8346  1.8047 -0.6841
 1528SOL    MW4 6185   1.309   1.657   2.723 -0.3897  0.1092  0.1915
 1529SOL     OW 6186   1.328   1.924   2.612  0.2212  0.1696 -0.6222
 1529SOL    HW2 6187   1.319   1.836   2.648  1.6674 -0.1164 -0.9482
 1529SOL    HW3 6188   1.321   1.912   2.517  0.7488  0.3718 -0.6851
 1529SOL    MW4 6189   1.326   1.911   2.604  0.4817  0.1585 -0.6733
 1530SOL     OW 6190   1.542   2.074   2.700 -0.0377  0.1233  0.5511
 1530SOL    HW2 6191   1.628   2.034   2.684 -0.1266 -0.3274  1.1762
 1530SOL    HW3 6192   1.479   2.010   2.669 -0.1615  0.3398  0.3470
 1530SOL    MW4 6193   1.545   2.061   2.694 -0.0658  0.0923  0.6068
 1531SOL     OW 6194   1.538   2.336   2.584  0.0969 -0.0616  0.0365
 1531SOL    HW2 6195   1.605   2.387   2.630  0.2606  0.4718 -0.7852
 1531SOL    HW3 6196   1.554   2.246   2.612  0.6796  0.1588  0.4378
 1531SOL    MW4 6197   1.549   2.331   2.594  0.1954  0.0379 -0.0188
 1532SOL     OW 6198   1.350   2.479   2.703 -0.1935  0.5452  0.0163
 1532SOL    HW2 6199   1.347   2.565   2.661  0.6059  0.4137 -0.3178
 1532SOL    HW3 6200   1.417   2.430   2.654 -2.5123 -1.1823 -1.5307
 1532SOL    MW4 6201   1.359   2.484   2.691 -0.3940  0.2999 -0.2317
 1533SOL     OW 6202   1.331   2.758   2.605 -0.0507 -0.6241  0.1487
 1533SOL    HW2 6203   1.415   2.791   2.638  0.9298 -2.1142 -0.7859
 1533SOL    HW3 6204   1.337   2.771   2.510 -1.8874  1.4997  0.2828
 1533SOL    MW4 6205   1.343   2.764   2.597 -0.1636 -0.5405  0.0432
 1534SOL     OW 6206   1.591   2.840   2.660 -0.2155  0.0146 -0.7943
 1534SOL    HW2 6207   1.589   2.835   2.756 -0.2416  0.9559 -0.7437
 1534SOL    HW3 6208   1.672   2.796   2.635 -0.0879 -0.0225 -0.3220
 1534SOL    MW4 6209   1.601   2.834   2.669 -0.2019  0.1340 -0.7253
 1535SOL     OW 6210   1.604   3.099   2.593  0.3670 -0.1354 -0.4144
 1535SOL    HW2 6211   1.650   3.148   2.662  2.2846 -0.9320 -1.0929
 1535SOL    HW3 6212   1.614   3.007   2.618  0.6561 -0.4022 -1.4969
 1535SOL    MW4 6213   1.611   3.094   2.606  0.6580 -0.2759 -0.6468
 1536SOL     OW 6214   1.394   3.225   2.706 -0.1934 -0.3098  0.0634
 1536SOL    HW2 6215   1.459   3.187   2.646 -0.0373  0.4225 -0.2432
 1536SOL    HW3 6216   1.311   3.185   2.680 -0.2526  0.5536 -1.1646
 1536SOL    MW4 6217   1.392   3.215   2.694 -0.1807 -0.0992 -0.1390
 1537SOL     OW 6218   1.335   3.506   2.643  0.3619  0.1061 -0.3449
 1537SOL    HW2 6219   1.350   3.421   2.684  1.7972 -0.2535 -1.5644
 1537SOL    HW3 6220   1.269   3.548   2.698  0.7404 -1.1893  1.1306
 1537SOL    MW4 6221   1.328   3.501   2.656  0.6013 -0.1125 -0.3109
 1538SOL     OW 6222   1.578   3.597   2.749  0.2196  0.0926 -0.0910
 1538SOL    HW2 6223   1.656   3.552   2.718 -0.8095 -1.4655 -0.4932
 1538SOL    HW3 6224   1.505   3.550   2.709 -0.9361  1.4682  0.3318
 1538SOL    MW4 6225   1.578   3.585   2.740 -0.0687  0.0682 -0.0885
 1539SOL     OW 6226   1.554   3.839   2.608 -0.5271 -0.1513  0.4552
 1539SOL    HW2 6227   1.474   3.877   2.645 -0.9148 -0.8651  0.3573
 1539SOL    HW3 6228   1.569   3.760   2.659 -0.1522 -0.2706  0.1595
 1539SOL    MW4 6229   1.545   3.834   2.619 -0.5288 -0.2613  0.4036
 1540SOL     OW 6230   1.327   3.965   2.770 -0.0928  0.0494 -0.2303
 1540SOL    HW2 6231   1.361   3.959   2.859  2.0281  0.5471 -0.9596
 1540SOL    HW3 6232   1.333   4.058   2.748  0.4151 -0.2105 -1.2451
 1540SOL    MW4 6233   1.332   3.976   2.779  0.2540  0.0803 -0.4604
 1541SOL     OW 6234   1.398   4.232   2.679  0.3107 -0.4216  0.3335
 1541SOL    HW2 6235   1.319   4.284   2.695  1.0930  1.1025 -0.6471
 1541SOL    HW3 6236   1.404   4.226   2.584  0.2158 -2.3559  0.4413
 1541SOL    MW4 6237   1.388   4.238   2.669  0.4014 -0.4754  0.2186
 1542SOL     OW 6238   1.621   4.378   2.715  0.3181 -0.0380  0.2267
 1542SOL    HW2 6239   1.641   4.376   2.808  1.6686 -1.5005 -0.0759
 1542SOL    HW3 6240   1.543   4.324   2.706  0.3049 -0.0603  0.4762
 1542SOL    MW4 6241   1.613   4.371   2.726  0.4946 -0.2346  0.2198
 1543SOL     OW 6242   2.006   4.662   2.601  0.6654 -0.6898  0.3135
 1543SOL    HW2 6243   2.085   4.697   2.641  0.3849  1.0089 -0.5613
 1543SOL    HW3 6244   2.016   4.679   2.507 -0.4470 -1.0398  0.1181
 1543SOL    MW4 6245   2.018   4.669   2.594  0.4818 -0.5116  0.1724
 1544SOL     OW 6246   1.630   4.653   2.638 -0.4555  0.1129  0.7312
 1544SOL    HW2 6247   1.615   4.647   2.544 -1.8624  1.2583  0.8699
 1544SOL    HW3 6248   1.641   4.562   2.666 -1.0553 -0.3139 -0.3870
 1544SOL    MW4 6249   1.629   4.640   2.629 -0.7203  0.2074  0.6015
 1545SOL     OW 6250   1.816   0.318   2.620 -0.3011 -0.0755 -0.6250
 1545SOL    HW2 6251   1.821   0.237   2.670 -0.2330  0.6178  0.5075
 1545SOL    HW3 6252   1.747   0.369   2.663  0.9526  1.2488 -0.1431
 1545SOL    MW4 6253   1.808   0.314   2.632 -0.1267  0.1907 -0.4117
 1546SOL     OW 6254   2.021   0.470   2.729  0.1571  0.2174 -0.2232
 1546SOL    HW2 6255   2.103   0.421   2.732 -0.3868 -0.6262  2.2057
 1546SOL    HW3 6256   1.965   0.419   2.670  0.8823  0.0215 -0.7545
 1546SOL    MW4 6257   2.024   0.457   2.721  0.1807  0.0803  0.0274
 1547SOL     OW 6258   2.034   0.757   2.679  0.1658  0.3453 -0.7478
 1547SOL    HW2 6259   2.047   0.664   2.698  0.8063  0.6000  0.0675
 1547SOL    HW3 6260   2.012   0.759   2.586 -0.1599 -0.6484 -0.7034
 1547SOL    MW4 6261   2.033   0.745   2.669  0.2074  0.2478 -0.6342
 1548SOL     OW 6262   1.780   0.840   2.764  0.3665  0.0477  0.2571
 1548SOL    HW2 6263   1.866   0.809   2.736 -0.0413 -0.5098 -0.4094
 1548SOL    HW3 6264   1.769   0.924   2.719  0.2976 -0.1850 -0.1653
 1548SOL    MW4 6265   1.790   0.847   2.755  0.3036 -0.0565  0.1135
 1549SOL     OW 6266   1.758   1.097   2.656 -0.1631  0.0376 -0.5413
 1549SOL    HW2 6267   1.823   1.161   2.685  0.3297 -1.0310  0.7239
 1549SOL    HW3 6268   1.765   1.098   2.560  0.4951  1.1809 -0.4942
 1549SOL    MW4 6269   1.767   1.106   2.647 -0.0113  0.0476 -0.3679
 1550SOL     OW 6270   1.976   1.258   2.736  0.3244  0.0253 -0.4323
 1550SOL    HW2 6271   1.991   1.231   2.827  1.5695  1.1461 -0.2920
 1550SOL    HW3 6272   2.048   1.218   2.687  1.1630  1.6181 -0.5041
 1550SOL    MW4 6273   1.987   1.249   2.741  0.5993  0.3834 -0.4234
 1551SOL     OW 6274   2.014   1.529   2.673 -0.3947 -0.0188 -0.7166
 1551SOL    HW2 6275   1.933   1.580   2.674 -0.2031  0.2963 -1.1118
 1551SOL    HW3 6276   1.987   1.439   2.690 -0.8569  0.0446 -1.1272
 1551SOL    MW4 6277   2.000   1.524   2.675 -0.4303  0.0312 -0.8230
 1552SOL     OW 6278   1.767   1.657   2.709 -0.4234  0.2873 -0.0329
 1552SOL    HW2 6279   1.774   1.656   2.804 -0.1162  1.2171 -0.0442
 1552SOL    HW3 6280   1.682   1.618   2.691  0.5102 -2.0806  0.5207
 1552SOL    MW4 6281   1.757   1.652   2.719 -0.2596  0.0975  0.0389
 1553SOL     OW 6282   1.764   1.930   2.645 -0.0745 -0.0720 -0.6494
 1553SOL    HW2 6283   1.855   1.950   2.667  0.0406 -1.0044 -0.2356
 1553SOL    HW3 6284   1.756   1.836   2.660 -1.6678  0.3292  1.4201
 1553SOL    MW4 6285   1.775   1.920   2.650 -0.2694 -0.1421 -0.3216
 1554SOL     OW 6286   2.031   2.030   2.696  0.5818 -0.5658  0.1295
 1554SOL    HW2 6287   2.030   2.037   2.792 -2.3071 -2.7559  0.3152
 1554SOL    HW3 6288   2.019   2.121   2.666  1.2857  0.1094  1.8183
 1554SOL    MW4 6289   2.029   2.043   2.705  0.2937 -0.7656  0.3769
 1555SOL     OW 6290   2.009   2.300   2.641 -0.5825 -0.6561  0.5621
 1555SOL    HW2 6291   2.089   2.347   2.664 -1.9064  1.8876  0.1978
 1555SOL    HW3 6292   2.002   2.310   2.546 -1.0753 -1.2790  0.5294
 1555SOL    MW4 6293   2.019   2.307   2.632 -0.8223 -0.4025  0.5097
 1556SOL     OW 6294   1.773   2.437   2.711 -0.3472  0.3294 -0.3967
 1556SOL    HW2 6295   1.771   2.430   2.807  1.8900  1.2963 -0.2608
 1556SOL    HW3 6296   1.840   2.376   2.683 -1.0655 -0.0270 -1.3752
 1556SOL    MW4 6297   1.781   2.428   2.720 -0.1469  0.4096 -0.5081
 1557SOL     OW 6298   1.826   2.718   2.626 -0.2050 -0.3106 -0.0817
 1557SOL    HW2 6299   1.813   2.628   2.656 -0.2866 -0.0958  0.5351
 1557SOL    HW3 6300   1.833   2.711   2.531  0.3256 -1.0341  0.0032
 1557SOL    MW4 6301   1.826   2.705   2.618 -0.1459 -0.3777  0.0107
 1558SOL     OW 6302   2.050   2.839   2.738  0.1480  0.1518 -0.0962
 1558SOL    HW2 6303   2.129   2.802   2.699  0.8970  1.1457  0.4797
 1558SOL    HW3 6304   1.978   2.788   2.699  0.9253  0.6630 -2.2460
 1558SOL    MW4 6305   2.051   2.827   2.727  0.3493  0.3505 -0.3042
 1559SOL     OW 6306   1.982   3.084   2.663 -0.0563 -0.2310  0.6442
 1559SOL    HW2 6307   2.018   3.006   2.704  1.4662 -0.0484 -0.3189
 1559SOL    HW3 6308   1.991   3.068   2.569  0.0434  1.0064  0.4369
 1559SOL    MW4 6309   1.988   3.072   2.656  0.1577 -0.0439  0.4895
 1560SOL     OW 6310   1.767   3.248   2.767 -0.4513 -0.0083 -0.3812
 1560SOL    HW2 6311   1.779   3.324   2.710 -0.2264  0.0205 -0.2952
 1560SOL    HW3 6312   1.845   3.195   2.752 -0.3866  0.0047 -0.0937
 1560SOL    MW4 6313   1.779   3.251   2.758 -0.4131 -0.0026 -0.3321
 1561SOL     OW 6314   1.789   3.483   2.631  0.0146 -0.0789  0.0669
 1561SOL    HW2 6315   1.875   3.517   2.654  0.1913 -1.1703  1.0301
 1561SOL    HW3 6316   1.786   3.488   2.535  1.5181 -0.9385 -0.0374
 1561SOL    MW4 6317   1.800   3.488   2.621  0.2363 -0.3362  0.1800
 1562SOL     OW 6318   2.019   3.600   2.708  0.0085  0.1281  0.4520
 1562SOL    HW2 6319   2.014   3.582   2.802 -1.2882 -3.0823 -0.1627
 1562SOL    HW3 6320   2.098   3.555   2.679 -0.4353 -0.1995 -0.2520
 1562SOL    MW4 6321   2.028   3.592   2.717 -0.2215 -0.3388  0.2780
 1563SOL     OW 6322   2.016   3.862   2.637 -0.3877 -0.1296  0.0519
 1563SOL    HW2 6323   1.937   3.905   2.668  0.2934  0.9965  0.2263
 1563SOL    HW3 6324   1.999   3.768   2.651 -0.7265  0.2500  2.3513
 1563SOL    MW4 6325   2.004   3.855   2.643 -0.3426  0.0691  0.3784
 1564SOL     OW 6326   1.776   3.978   2.708 -0.2148 -0.0375 -0.3044
 1564SOL    HW2 6327   1.777   4.051   2.646  0.9024  0.3994  0.2148
 1564SOL    HW3 6328   1.706   3.921   2.676 -0.2361  0.6140 -1.4653
 1564SOL    MW4 6329   1.767   3.980   2.695 -0.0701  0.1059 -0.3889
 1565SOL     OW 6330   1.830   4.219   2.582  0.5784  0.3137  0.3063
 1565SOL    HW2 6331   1.769   4.280   2.623  1.2827  1.5404 -0.4236
 1565SOL    HW3 6332   1.822   4.237   2.488 -0.4841 -1.9493 -0.0733
 1565SOL    MW4 6333   1.821   4.230   2.575  0.5312  0.1769  0.1602
 1566SOL     OW 6334   2.001   4.412   2.738 -0.0562  0.2910  0.2054
 1566SOL    HW2 6335   1.938   4.350   2.702  1.4770 -0.7080 -0.7969
 1566SOL    HW3 6336   2.001   4.484   2.675  0.0365  0.1460  0.0390
 1566SOL    MW4 6337   1.993   4.414   2.725  0.1583  0.1402  0.0513
 1567SOL     OW 6338   2.435   4.659   2.650  0.3550  0.4816 -0.1346
 1567SOL    HW2 6339   2.514   4.704   2.682  0.3081 -0.2844  1.1084
 1567SOL    HW3 6340   2.447   4.653   2.556  2.0164 -0.0296  0.0915
 1567SOL    MW4 6341   2.447   4.664   2.642  0.5682  0.3128  0.0594
 1568SOL     OW 6342   2.218   0.141   2.714  0.2837 -0.2326  0.3765
 1568SOL    HW2 6343   2.217   0.127   2.809 -0.5933 -1.1358  0.2402
 1568SOL    HW3 6344   2.293   0.089   2.684  0.4660 -0.0743  0.5488
 1568SOL    MW4 6345   2.228   0.132   2.723  0.1922 -0.3309  0.3812
 1569SOL     OW 6346   2.286   0.393   2.633 -0.4208 -0.0364 -0.1601
 1569SOL    HW2 6347   2.262   0.302   2.650  0.5644 -0.7656 -2.4724
 1569SOL    HW3 6348   2.260   0.408   2.542  0.1942  1.7415 -0.0617
 1569SOL    MW4 6349   2.279   0.383   2.623 -0.2100  0.1019 -0.4523
 1570SOL     OW 6350   2.519   0.534   2.737  0.0975 -0.1239  0.4462
 1570SOL    HW2 6351   2.525   0.623   2.702  1.0484 -0.5120 -0.3932
 1570SOL    HW3 6352   2.447   0.494   2.689  1.3418 -0.6267 -1.0276
 1570SOL    MW4 6353   2.510   0.540   2.726  0.3872 -0.2415  0.1411
 1571SOL     OW 6354   2.454   0.790   2.644  0.0549  0.2554  0.3208
 1571SOL    HW2 6355   2.384   0.842   2.683  0.9220  0.5195  1.5562
 1571SOL    HW3 6356   2.432   0.786   2.551 -1.1337  1.0563  0.5566
 1571SOL    MW4 6357   2.442   0.796   2.637  0.0124  0.3959  0.5145
 1572SOL     OW 6358   2.240   0.921   2.776  0.5214 -0.1779 -0.1023
 1572SOL    HW2 6359   2.253   0.894   2.866  1.7839 -0.9676 -0.5136
 1572SOL    HW3 6360   2.171   0.864   2.743 -0.5979  0.7296  0.6233
 1572SOL    MW4 6361   2.232   0.910   2.783  0.5400 -0.1624 -0.0610
 1573SOL     OW 6362   2.227   1.153   2.619 -0.3385  0.0901 -0.2135
 1573SOL    HW2 6363   2.223   1.066   2.661  1.3255 -0.2755 -0.7783
 1573SOL    HW3 6364   2.238   1.134   2.526 -2.5688  0.9128 -0.6785
 1573SOL    MW4 6365   2.228   1.139   2.612 -0.4132  0.1504 -0.3498
 1574SOL     OW 6366   2.442   1.243   2.750 -0.2594 -0.2256  0.0682
 1574SOL    HW2 6367   2.511   1.208   2.692 -0.7543  0.2774 -0.8339
 1574SOL    HW3 6368   2.360   1.215   2.709 -0.6711  1.9778 -0.6840
 1574SOL    MW4 6369   2.441   1.235   2.737 -0.3793  0.1315 -0.1500
 1575SOL     OW 6370   2.487   1.511   2.656 -0.5379  0.0821  0.2349
 1575SOL    HW2 6371   2.426   1.576   2.693 -0.4178 -0.8328  2.0948
 1575SOL    HW3 6372   2.459   1.428   2.694  0.2878 -0.7346 -0.9223
 1575SOL    MW4 6373   2.475   1.509   2.666 -0.4132 -0.1464  0.3278
 1576SOL     OW 6374   2.267   1.652   2.752  0.2620  0.3621 -0.5243
 1576SOL    HW2 6375   2.258   1.734   2.703  0.9446 -0.9249 -2.9179
 1576SOL    HW3 6376   2.185   1.605   2.736  0.2595  0.1632  0.0553
 1576SOL    MW4 6377   2.255   1.657   2.743  0.3517  0.1661 -0.7637
 1577SOL     OW 6378   2.265   1.900   2.642  0.1209 -0.3039 -0.2889
 1577SOL    HW2 6379   2.186   1.940   2.678  0.3939 -0.6985  0.7500
 1577SOL    HW3 6380   2.251   1.900   2.547 -1.2100 -0.5680 -0.0907
 1577SOL    MW4 6381   2.253   1.905   2.634 -0.0186 -0.3909 -0.1259
 1578SOL     OW 6382   2.491   2.037   2.725  0.2790  0.0142  0.2191
 1578SOL    HW2 6383   2.489   2.122   2.680  1.5757 -1.2544 -2.3025
 1578SOL    HW3 6384   2.420   1.987   2.684  2.1086 -1.4999 -1.1585
 1578SOL    MW4 6385   2.481   2.042   2.714  0.6914 -0.3529 -0.2952
 1579SOL     OW 6386   2.457   2.293   2.610 -0.0487 -0.0278  0.0242
 1579SOL    HW2 6387   2.525   2.355   2.635 -1.1780  1.3249 -0.1586
 1579SOL    HW3 6388   2.457   2.295   2.514  0.6715 -1.1741 -0.0053
 1579SOL    MW4 6389   2.466   2.302   2.600 -0.1030 -0.0005 -0.0038
 1580SOL     OW 6390   2.245   2.433   2.723  0.0215 -0.3530 -0.2737
 1580SOL    HW2 6391   2.257   2.430   2.818 -1.7465  0.9823  0.0096
 1580SOL    HW3 6392   2.320   2.385   2.688  1.7060  0.7468  1.7188
 1580SOL    MW4 6393   2.257   2.426   2.731  0.0105 -0.0315  0.0265
 1581SOL     OW 6394   2.260   2.705   2.637 -0.1802 -0.5181 -0.3713
 1581SOL    HW2 6395   2.345   2.725   2.675 -0.9801  1.0650  0.6634
 1581SOL    HW3 6396   2.243   2.614   2.661  1.2856 -0.8812 -0.7205
 1581SOL    MW4 6397   2.269   2.696   2.645 -0.0923 -0.3572 -0.2809
 1582SOL     OW 6398   2.492   2.825   2.737  0.0362  0.0603 -0.1301
 1582SOL    HW2 6399   2.574   2.783   2.710  1.1272  1.2971  1.1605
 1582SOL    HW3 6400   2.500   2.915   2.707 -0.2149  0.5557  1.2370
 1582SOL    MW4 6401   2.504   2.831   2.730  0.1469  0.2890  0.2208
 1583SOL     OW 6402   2.481   3.097   2.623 -0.2797  0.0835  0.1215
 1583SOL    HW2 6403   2.400   3.147   2.639  0.6954  1.5601  0.4892
 1583SOL    HW3 6404   2.489   3.096   2.527 -0.4134  0.4549  0.1050
 1583SOL    MW4 6405   2.471   3.104   2.612 -0.1690  0.3273  0.1678
 1584SOL     OW 6406   2.231   3.207   2.713  0.6603  0.0893 -0.1454
 1584SOL    HW2 6407   2.229   3.220   2.808 -0.1106 -0.6955 -0.0491
 1584SOL    HW3 6408   2.157   3.148   2.695  2.6189 -2.2405 -0.8502
 1584SOL    MW4 6409   2.221   3.201   2.723  0.8171 -0.3214 -0.2255
 1585SOL     OW 6410   2.268   3.479   2.627  0.1395  0.5141  0.5131
 1585SOL    HW2 6411   2.324   3.525   2.689  1.6977  0.5239 -0.8550
 1585SOL    HW3 6412   2.257   3.392   2.666  1.5437  0.3436  0.5510
 1585SOL    MW4 6413   2.274   3.473   2.641  0.5302  0.4926  0.3376
 1586SOL     OW 6414   2.412   3.643   2.782 -0.0823 -0.0370  0.3801
 1586SOL    HW2 6415   2.425   3.656   2.876  0.0708  0.1670  0.3309
 1586SOL    HW3 6416   2.426   3.730   2.744  0.0105 -0.1529  0.1508
 1586SOL    MW4 6417   2.415   3.657   2.790 -0.0496 -0.0255  0.3433
 1587SOL     OW 6418   2.468   3.865   2.636  0.2741 -0.2441 -0.3571
 1587SOL    HW2 6419   2.391   3.907   2.674  0.8386 -0.3956  0.9777
 1587SOL    HW3 6420   2.542   3.902   2.685  0.9792 -0.8407 -0.9542
 1587SOL    MW4 6421   2.468   3.875   2.647  0.4416 -0.3426 -0.2596
 1588SOL     OW 6422   2.233   3.991   2.739 -0.0820  0.1962  0.0767
 1588SOL    HW2 6423   2.228   3.980   2.834 -0.8303  0.1645  0.0425
 1588SOL    HW3 6424   2.163   3.934   2.705 -0.6236  1.1507 -0.4208
 1588SOL    MW4 6425   2.223   3.982   2.747 -0.2520  0.3181  0.0064
 1589SOL     OW 6426   2.239   4.254   2.686 -0.1348 -0.0868  0.8993
 1589SOL    HW2 6427   2.212   4.166   2.710 -0.7539 -0.7243 -1.9774
 1589SOL    HW3 6428   2.170   4.310   2.721 -0.7742 -0.9275  1.0032
 1589SOL    MW4 6429   2.227   4.250   2.694 -0.3009 -0.2813  0.5336
 1590SOL     OW 6430   2.478   4.409   2.769  0.4959  0.3159 -0.2058
 1590SOL    HW2 6431   2.404   4.351   2.757  1.1009 -0.7305  0.9518
 1590SOL    HW3 6432   2.455   4.489   2.721 -1.0097 -0.2976 -0.5196
 1590SOL    MW4 6433   2.465   4.412   2.761  0.3772  0.0968 -0.0944
 1591SOL     OW 6434   2.888   4.625   2.640  0.2287  0.4913 -0.1516
 1591SOL    HW2 6435   2.971   4.669   2.658  0.9328 -0.2906 -1.3445
 1591SOL    HW3 6436   2.880   4.628   2.544 -0.0195 -1.3580 -0.2166
 1591SOL    MW4 6437   2.898   4.631   2.630  0.2890  0.1445 -0.3173
 1592SOL     OW 6438   2.685   0.120   2.742 -0.2126 -0.0351  0.3286
 1592SOL    HW2 6439   2.692   0.132   2.836  0.4330  0.6745  0.1968
 1592SOL    HW3 6440   2.750   0.054   2.721 -0.3947 -0.2330  0.3893
 1592SOL    MW4 6441   2.695   0.113   2.751 -0.1516  0.0324  0.3195
 1593SOL     OW 6442   2.689   0.376   2.604  0.2665 -0.0629  0.0175
 1593SOL    HW2 6443   2.692   0.287   2.640  1.8062  0.1149  0.3806
 1593SOL    HW3 6444   2.630   0.423   2.662  0.6807 -0.4550  0.7661
 1593SOL    MW4 6445   2.682   0.370   2.617  0.5240 -0.0912  0.1640
 1594SOL     OW 6446   2.905   0.492   2.718 -0.5676  0.5241  0.4719
 1594SOL    HW2 6447   2.900   0.578   2.676  2.2390  0.3826 -0.2640
 1594SOL    HW3 6448   2.829   0.444   2.685 -1.3627  2.2286 -0.2204
 1594SOL    MW4 6449   2.894   0.497   2.708 -0.3023  0.7303  0.2835
 1595SOL     OW 6450   2.892   0.761   2.634  0.4491  0.3960 -0.7305
 1595SOL    HW2 6451   2.970   0.793   2.679  0.8862  0.2650 -1.3818
 1595SOL    HW3 6452   2.820   0.810   2.673  0.7002 -0.4173  0.8024
 1595SOL    MW4 6453   2.893   0.772   2.645  0.5398  0.2714 -0.6139
 1596SOL     OW 6454   2.681   0.909   2.752  0.4373  0.9587  0.2695
 1596SOL    HW2 6455   2.696   0.893   2.845  2.0357 -1.3773 -0.3502
 1596SOL    HW3 6456   2.593   0.875   2.736  1.1952 -1.1158  0.3895
 1596SOL    MW4 6457   2.671   0.902   2.762  0.7482  0.3768  0.2034
 1597SOL     OW 6458   2.681   1.155   2.607  0.1716  0.5759  0.1027
 1597SOL    HW2 6459   2.758   1.201   2.637  0.8111 -0.1924 -0.3249
 1597SOL    HW3 6460   2.690   1.067   2.644  0.2530  0.0478 -1.1336
 1597SOL    MW4 6461   2.692   1.149   2.616  0.2666  0.4047 -0.1168
 1598SOL     OW 6462   2.926   1.238   2.734 -0.4246 -0.2252 -0.5699
 1598SOL    HW2 6463   2.936   1.237   2.829 -0.5090 -1.0473 -0.5684
 1598SOL    HW3 6464   3.013   1.221   2.699 -0.7776 -2.0637 -0.6091
 1598SOL    MW4 6465   2.939   1.236   2.742 -0.4823 -0.5763 -0.5753
 1599SOL     OW 6466   2.959   1.504   2.642 -0.7609 -0.7791  0.1698
 1599SOL    HW2 6467   2.885   1.555   2.676  0.3136  0.6823  0.3709
 1599SOL    HW3 6468   2.953   1.420   2.688 -3.4064 -1.4081 -1.2319
 1599SOL    MW4 6469   2.949   1.500   2.653 -0.9680 -0.6694  0.0117
 1600SOL     OW 6470   2.731   1.624   2.735  0.1838 -0.1189  0.3765
 1600SOL    HW2 6471   2.742   1.615   2.829 -0.9588 -1.0954  0.4271
 1600SOL    HW3 6472   2.647   1.582   2.716  0.2024  0.4317 -1.0158
 1600SOL    MW4 6473   2.721   1.617   2.745  0.0355 -0.1750  0.1996
 1601SOL     OW 6474   2.703   1.891   2.636 -0.0962  0.3977 -0.0675
 1601SOL    HW2 6475   2.702   1.804   2.677 -0.1155 -0.3340 -1.5765
 1601SOL    HW3 6476   2.631   1.937   2.678 -0.0225 -0.2714  0.8325
 1601SOL    MW4 6477   2.693   1.885   2.647 -0.0892  0.2128 -0.1478
 1602SOL     OW 6478   2.913   2.069   2.707  0.0264 -0.1367 -0.3175
 1602SOL    HW2 6479   2.922   2.153   2.661  0.5759 -0.3180 -0.5550
 1602SOL    HW3 6480   2.827   2.037   2.682  0.0497  0.0883 -0.6902
 1602SOL    MW4 6481   2.903   2.076   2.697  0.1023 -0.1307 -0.3979
 1603SOL     OW 6482   2.904   2.360   2.644 -0.2547 -0.2858  0.0973
 1603SOL    HW2 6483   2.968   2.412   2.693 -1.5263  0.5009  0.9471
 1603SOL    HW3 6484   2.819   2.391   2.675 -1.0496 -2.2038 -0.0848
 1603SOL    MW4 6485   2.901   2.371   2.655 -0.5274 -0.4349  0.1850
 1604SOL     OW 6486   2.634   2.464   2.727 -0.1623  0.2757 -0.1997
 1604SOL    HW2 6487   2.659   2.447   2.817 -2.2876 -1.2218  0.1662
 1604SOL    HW3 6488   2.654   2.556   2.713 -0.9826  0.8607  2.2165
 1604SOL    MW4 6489   2.640   2.474   2.737 -0.5512  0.1554  0.1674
 1605SOL     OW 6490   2.742   2.706   2.675  0.3840  0.4199  0.2199
 1605SOL    HW2 6491   2.811   2.770   2.693 -0.2375  0.7881  1.3853
 1605SOL    HW3 6492   2.729   2.710   2.580  2.8870 -0.6468 -0.1979
 1605SOL    MW4 6493   2.749   2.715   2.665  0.6323  0.3278  0.3185
 1606SOL     OW 6494   2.952   2.901   2.705 -0.2677  0.4754  0.1643
 1606SOL    HW2 6495   2.959   2.905   2.800  0.4119  0.5365  0.1099
 1606SOL    HW3 6496   3.032   2.858   2.677 -0.1703  1.0366 -0.4298
 1606SOL    MW4 6497   2.963   2.896   2.714 -0.1652  0.5577  0.0787
 1607SOL     OW 6498   2.892   3.153   2.604 -0.3572  0.2635 -0.1241
 1607SOL    HW2 6499   2.815   3.186   2.650 -0.6833  0.6678 -0.9575
 1607SOL    HW3 6500   2.904   3.064   2.638  0.1051  0.9602  1.6054
 1607SOL    MW4 6501   2.883   3.145   2.615 -0.3393  0.4086 -0.0060
 1608SOL     OW 6502   2.693   3.217   2.762  0.0574  0.2365 -0.6626
 1608SOL    HW2 6503   2.674   3.309   2.745  0.1207  0.4007  0.1267
 1608SOL    HW3 6504   2.627   3.169   2.712 -0.6992  0.7388 -0.1444
 1608SOL    MW4 6505   2.682   3.223   2.753 -0.0339  0.3245 -0.4900
 1609SOL     OW 6506   2.637   3.479   2.671  0.3636 -0.8750 -0.6253
 1609SOL    HW2 6507   2.563   3.535   2.694  1.3288 -0.3523  1.3875
 1609SOL    HW3 6508   2.643   3.483   2.576 -0.1125  1.7550 -0.5620
 1609SOL    MW4 6509   2.628   3.487   2.662  0.4280 -0.4592 -0.3514
 1610SOL     OW 6510   2.854   3.639   2.742 -0.5907  0.5436  0.2202
 1610SOL    HW2 6511   2.886   3.619   2.830  0.6145  0.2144 -0.2757
 1610SOL    HW3 6512   2.777   3.583   2.731 -1.6054  1.6639  1.6010
 1610SOL    MW4 6513   2.848   3.629   2.752 -0.5658  0.6478  0.3371
 1611SOL     OW 6514   2.900   3.890   2.649 -0.5207 -0.2233 -0.3332
 1611SOL    HW2 6515   2.984   3.907   2.690 -1.5058  2.2997  0.7279
 1611SOL    HW3 6516   2.878   3.801   2.675  0.5158  0.1088  1.7368
 1611SOL    MW4 6517   2.908   3.880   2.658 -0.5140  0.1533  0.0799
 1612SOL     OW 6518   2.675   4.002   2.760  0.3085  0.1088  0.1149
 1612SOL    HW2 6519   2.676   4.095   2.739  0.2144 -0.1110 -0.8501
 1612SOL    HW3 6520   2.758   3.969   2.726 -0.3072 -0.4539 -0.8321
 1612SOL    MW4 6521   2.686   4.010   2.753  0.2151  0.0052 -0.1373
 1613SOL     OW 6522   2.685   4.249   2.671 -0.1792  0.0689  0.5777
 1613SOL    HW2 6523   2.762   4.282   2.717  1.3062 -0.4022 -1.5309
 1613SOL    HW3 6524   2.617   4.314   2.689  0.7584  0.6123  2.2587
 1613SOL    MW4 6525   2.686   4.262   2.680  0.1404  0.0787  0.5214
 1614SOL     OW 6526   2.934   4.367   2.770 -0.0177 -0.0517 -0.7544
 1614SOL    HW2 6527   2.923   4.370   2.865  2.2814  0.5834 -0.4772
 1614SOL    HW3 6528   2.902   4.452   2.739 -0.0899  0.0234 -0.4744
 1614SOL    MW4 6529   2.929   4.378   2.778  0.2763  0.0420 -0.6809
 1615SOL     OW 6530   3.365   4.638   2.631  0.1321 -0.0253 -0.3266
 1615SOL    HW2 6531   3.371   4.548   2.663 -0.1993 -0.7180 -2.1352
 1615SOL    HW3 6532   3.286   4.673   2.672 -0.0746 -0.7635 -0.0839
 1615SOL    MW4 6533   3.356   4.631   2.641  0.0610 -0.2141 -0.5331
 1616SOL     OW 6534   3.123   0.071   2.732  0.0148 -0.1510  0.3267
 1616SOL    HW2 6535   3.140   0.072   2.827 -0.4666 -0.1897  0.4137
 1616SOL    HW3 6536   3.138   0.161   2.704 -0.7783  0.0690  0.6060
 1616SOL    MW4 6537   3.128   0.083   2.741 -0.1531 -0.1271  0.3753
 1617SOL     OW 6538   3.150   0.340   2.682 -0.1311 -0.4745  0.2759
 1617SOL    HW2 6539   3.068   0.379   2.714  0.2000  0.9063 -0.5064
 1617SOL    HW3 6540   3.145   0.351   2.587  0.2315 -1.8631  0.0925
 1617SOL    MW4 6541   3.138   0.347   2.674 -0.0391 -0.4755  0.1485
 1618SOL     OW 6542   3.347   0.510   2.768 -0.4801 -0.1745  0.8571
 1618SOL    HW2 6543   3.342   0.588   2.712 -0.0135 -0.7255  0.0433
 1618SOL    HW3 6544   3.266   0.462   2.750 -0.9166  0.2692  1.5934
 1618SOL    MW4 6545   3.336   0.514   2.758 -0.4761 -0.1886  0.8469
 1619SOL     OW 6546   3.370   0.756   2.642 -0.1273 -0.2260  0.2240
 1619SOL    HW2 6547   3.446   0.808   2.667  0.4370 -1.2902  0.7696
 1619SOL    HW3 6548   3.363   0.768   2.547  1.0752 -0.5640  0.0791
 1619SOL    MW4 6549   3.379   0.764   2.633  0.1059 -0.4110  0.2768
 1620SOL     OW 6550   3.149   0.887   2.734 -0.3141 -0.5744 -0.0758
 1620SOL    HW2 6551   3.169   0.891   2.828  0.2049  0.9322 -0.2505
 1620SOL    HW3 6552   3.224   0.841   2.696 -0.9822 -2.0803  0.3579
 1620SOL    MW4 6553   3.161   0.881   2.742 -0.3338 -0.5742 -0.0420
 1621SOL     OW 6554   3.181   1.137   2.636 -0.1942  0.5765 -0.2657
 1621SOL    HW2 6555   3.157   1.046   2.654 -0.5713  0.7023 -0.1286
 1621SOL    HW3 6556   3.202   1.138   2.542  0.0566  0.2952 -0.2124
 1621SOL    MW4 6557   3.180   1.125   2.626 -0.2110  0.5559 -0.2406
 1622SOL     OW 6558   3.421   1.270   2.735 -0.0553  0.0126 -0.2828
 1622SOL    HW2 6559   3.418   1.258   2.830  0.6975 -2.1333 -0.5075
 1622SOL    HW3 6560   3.348   1.217   2.701 -0.0244  0.3798 -0.9332
 1622SOL    MW4 6561   3.411   1.261   2.743  0.0482 -0.2220 -0.3986
 1623SOL     OW 6562   3.407   1.524   2.613 -0.1886  0.6246  0.2174
 1623SOL    HW2 6563   3.335   1.575   2.651 -1.3544 -0.3539 -0.5937
 1623SOL    HW3 6564   3.408   1.443   2.664  0.5410  0.7649  0.4228
 1623SOL    MW4 6565   3.397   1.520   2.625 -0.2458  0.5140  0.1376
 1624SOL     OW 6566   3.198   1.670   2.733  0.0939 -0.0399  0.0793
 1624SOL    HW2 6567   3.191   1.759   2.696 -0.3986 -0.8664 -1.9029
 1624SOL    HW3 6568   3.126   1.622   2.692  0.4976 -1.4108  0.9686
 1624SOL    MW4 6569   3.188   1.676   2.723  0.0818 -0.3299 -0.0651
 1625SOL     OW 6570   3.148   1.960   2.636 -0.0634  0.1579 -0.1358
 1625SOL    HW2 6571   3.219   2.022   2.649 -0.2171  0.4025 -0.4662
 1625SOL    HW3 6572   3.070   2.005   2.668  0.0357 -0.3645  0.8544
 1625SOL    MW4 6573   3.147   1.974   2.642 -0.0708  0.1212 -0.0489
 1626SOL     OW 6574   3.382   2.073   2.719 -0.1138  0.0787  0.0392
 1626SOL    HW2 6575   3.381   2.077   2.815 -0.9947  0.3216  0.0257
 1626SOL    HW3 6576   3.387   2.164   2.691 -0.2890  0.0295 -0.1520
 1626SOL    MW4 6577   3.383   2.085   2.728 -0.2534  0.1047  0.0124
 1627SOL     OW 6578   3.311   2.338   2.630 -0.5189 -0.2644 -0.5119
 1627SOL    HW2 6579   3.391   2.387   2.651  0.7480 -1.4047 -2.5653
 1627SOL    HW3 6580   3.296   2.354   2.537 -1.2818 -2.0746 -0.7294
 1627SOL    MW4 6581   3.319   2.347   2.621 -0.4523 -0.6535 -0.8116
 1628SOL     OW 6582   3.116   2.485   2.751  0.0519 -0.0807  0.2304
 1628SOL    HW2 6583   3.113   2.482   2.847  0.6848  0.4362  0.2707
 1628SOL    HW3 6584   3.192   2.433   2.728  0.7951  1.0388  0.0907
 1628SOL    MW4 6585   3.126   2.478   2.761  0.2332  0.1352  0.2174
 1629SOL     OW 6586   3.134   2.735   2.609 -0.0056  0.2733 -0.2516
 1629SOL    HW2 6587   3.219   2.761   2.645 -0.7341 -0.7349  2.3563
 1629SOL    HW3 6588   3.111   2.656   2.658 -3.2388  1.4899  0.3536
 1629SOL    MW4 6589   3.142   2.728   2.621 -0.5283  0.3006  0.1721
 1630SOL     OW 6590   3.346   2.861   2.738  0.2287 -0.2819 -0.1497
 1630SOL    HW2 6591   3.340   2.848   2.833 -0.4100  0.0118 -0.1490
 1630SOL    HW3 6592   3.435   2.834   2.716 -0.6334 -3.4200  0.0407
 1630SOL    MW4 6593   3.357   2.856   2.748  0.0310 -0.6573 -0.1245
 1631SOL     OW 6594   3.342   3.122   2.640 -0.1159  0.1967 -0.1533
 1631SOL    HW2 6595   3.353   3.040   2.688  0.7729  0.5388  0.2470
 1631SOL    HW3 6596   3.339   3.096   2.548  1.0419 -0.2234 -0.0863
 1631SOL    MW4 6597   3.343   3.108   2.634  0.1540  0.1867 -0.0916
 1632SOL     OW 6598   3.097   3.266   2.732 -0.5155  0.2374  0.0630
 1632SOL    HW2 6599   3.174   3.223   2.695 -0.7158  0.3659 -0.5107
 1632SOL    HW3 6600   3.023   3.228   2.684 -0.5635  2.7141 -1.9451
 1632SOL    MW4 6601   3.097   3.255   2.721 -0.5484  0.5810 -0.2778
 1633SOL     OW 6602   3.151   3.516   2.631 -0.3819  0.0291  0.0507
 1633SOL    HW2 6603   3.144   3.429   2.669 -1.0175 -0.4799 -1.1850
 1633SOL    HW3 6604   3.074   3.563   2.664  0.2096  0.2782  1.0886
 1633SOL    MW4 6605   3.140   3.511   2.640 -0.3874 -0.0052  0.0248
 1634SOL     OW 6606   3.418   3.601   2.713  0.3927 -0.0786 -0.1553
 1634SOL    HW2 6607   3.406   3.611   2.807 -0.2269 -2.4984  0.0582
 1634SOL    HW3 6608   3.336   3.565   2.681  1.1316 -0.7340 -1.3864
 1634SOL    MW4 6609   3.406   3.598   2.721  0.4084 -0.4842 -0.2897
 1635SOL     OW 6610   3.346   3.860   2.672  0.5822 -0.1038 -0.1007
 1635SOL    HW2 6611   3.369   3.769   2.691 -2.0136 -0.3843  1.9706
 1635SOL    HW3 6612   3.364   3.870   2.579  0.4333 -2.8914 -0.4797
 1635SOL    MW4 6613   3.351   3.849   2.663  0.2201 -0.5088  0.1225
 1636SOL     OW 6614   3.112   3.992   2.770  0.4258 -0.6124 -0.5280
 1636SOL    HW2 6615   3.129   4.076   2.728  0.8907 -0.5850 -0.2858
 1636SOL    HW3 6616   3.196   3.946   2.767  1.2885  0.5884  3.1012
 1636SOL    MW4 6617   3.125   3.997   2.764  0.6011 -0.4506 -0.0174
 1637SOL     OW 6618   3.162   4.233   2.655  0.3877 -0.4561 -0.1821
 1637SOL    HW2 6619   3.089   4.271   2.705  1.3977  0.9010  0.2964
 1637SOL    HW3 6620   3.135   4.240   2.564 -0.2232 -0.2669  0.0094
 1637SOL    MW4 6621   3.149   4.239   2.650  0.4404 -0.2522 -0.0937
 1638SOL     OW 6622   3.379   4.386   2.769 -0.2496  0.2967 -0.0621
 1638SOL    HW2 6623   3.370   4.413   2.861  0.7389  0.2973  0.0499
 1638SOL    HW3 6624   3.294   4.351   2.745 -1.1620  2.2933  0.1981
 1638SOL    MW4 6625   3.367   4.385   2.778 -0.2394  0.5608 -0.0131
 1639SOL     OW 6626   3.802   4.640   2.629 -0.2672  0.0916  0.2403
 1639SOL    HW2 6627   3.827   4.560   2.674 -0.0363  0.5593  0.9552
 1639SOL    HW3 6628   3.734   4.679   2.684 -0.0805  0.6012  0.1182
 1639SOL    MW4 6629   3.796   4.635   2.642 -0.2124  0.2203  0.3185
 1640SOL     OW 6630   3.569   0.121   2.766  0.7439 -0.2554  0.4930
 1640SOL    HW2 6631   3.545   0.209   2.737 -0.5365 -0.4226  0.9761
 1640SOL    HW3 6632   3.507   0.064   2.721  2.1925 -1.0147 -0.5683
 1640SOL    MW4 6633   3.558   0.125   2.756  0.7660 -0.3777  0.4170
 1641SOL     OW 6634   3.583   0.400   2.643 -0.1713 -0.4206  0.1739
 1641SOL    HW2 6635   3.660   0.426   2.693 -0.2992 -1.2647  0.8263
 1641SOL    HW3 6636   3.510   0.446   2.685 -0.0932 -0.0059 -0.1384
 1641SOL    MW4 6637   3.583   0.409   2.655 -0.1781 -0.4773  0.2189
 1642SOL     OW 6638   3.845   0.460   2.738 -0.0005 -0.1697  0.3710
 1642SOL    HW2 6639   3.828   0.443   2.830  1.0506  0.6728  0.7267
 1642SOL    HW3 6640   3.928   0.414   2.719 -0.7819 -1.2935 -0.4543
 1642SOL    MW4 6641   3.854   0.451   2.747  0.0350 -0.2068  0.3088
 1643SOL     OW 6642   3.838   0.724   2.639 -0.3639  0.3249  0.1958
 1643SOL    HW2 6643   3.765   0.781   2.660 -1.2130 -0.7872  0.2741
 1643SOL    HW3 6644   3.820   0.642   2.685  1.4229  0.3765  1.0117
 1643SOL    MW4 6645   3.826   0.721   2.648 -0.2403  0.1850  0.3138
 1644SOL     OW 6646   3.636   0.895   2.691 -0.1159  0.2260 -0.2390
 1644SOL    HW2 6647   3.648   0.900   2.786 -0.9002  0.4251 -0.1484
 1644SOL    HW3 6648   3.653   0.984   2.660  1.2385 -0.0862 -0.4183
 1644SOL    MW4 6649   3.640   0.907   2.700 -0.0408  0.2111 -0.2506
 1645SOL     OW 6650   3.651   1.176   2.629 -0.0698  0.0580  0.1973
 1645SOL    HW2 6651   3.719   1.213   2.685 -0.4565  1.1902 -0.0832
 1645SOL    HW3 6652   3.569   1.197   2.672 -0.4845  2.6921 -1.7788
 1645SOL    MW4 6653   3.649   1.183   2.642 -0.1755  0.5550 -0.1004
 1646SOL     OW 6654   3.851   1.302   2.760 -0.0559  0.0247 -0.0642
 1646SOL    HW2 6655   3.917   1.246   2.720  0.4109 -0.2392  1.0370
 1646SOL    HW3 6656   3.866   1.389   2.724 -0.1174 -0.3524 -0.9993
 1646SOL    MW4 6657   3.862   1.306   2.750 -0.0021 -0.0598 -0.0420
 1647SOL     OW 6658   3.849   1.562   2.638  0.1578 -0.0250  0.3152
 1647SOL    HW2 6659   3.926   1.609   2.670  0.0033  1.1836 -1.0300
 1647SOL    HW3 6660   3.775   1.602   2.683  0.4597 -2.7452  3.3821
 1647SOL    MW4 6661   3.849   1.574   2.648  0.1771 -0.2245  0.5426
 1648SOL     OW 6662   3.626   1.665   2.727 -0.0623  0.0159 -0.1880
 1648SOL    HW2 6663   3.613   1.754   2.695 -0.6168  0.0853  0.2234
 1648SOL    HW3 6664   3.558   1.614   2.684 -0.7427  0.0895  0.7896
 1648SOL    MW4 6665   3.615   1.670   2.717 -0.2255  0.0348 -0.0050
 1649SOL     OW 6666   3.606   1.925   2.639  0.9073 -0.2560 -0.2312
 1649SOL    HW2 6667   3.536   1.969   2.687  1.3728 -2.1458  2.2998
 1649SOL    HW3 6668   3.685   1.974   2.661  1.1625 -1.2869  1.1841
 1649SOL    MW4 6669   3.607   1.937   2.648  1.0026 -0.6413  0.2894
 1650SOL     OW 6670   3.817   2.066   2.719  0.0368 -0.0060 -0.5894
 1650SOL    HW2 6671   3.901   2.025   2.698  0.4076  1.0651 -1.2421
 1650SOL    HW3 6672   3.812   2.065   2.814  0.6497 -0.3676 -0.5640
 1650SOL    MW4 6673   3.827   2.061   2.729  0.1667  0.0877 -0.6721
 1651SOL     OW 6674   3.787   2.335   2.643  0.1086  0.0657  0.3845
 1651SOL    HW2 6675   3.795   2.243   2.670 -0.2707 -0.2104 -0.4106
 1651SOL    HW3 6676   3.799   2.332   2.548 -1.0973  0.6933  0.2156
 1651SOL    MW4 6677   3.790   2.322   2.634 -0.1009  0.1121  0.2573
 1652SOL     OW 6678   3.540   2.439   2.722 -0.1885 -0.0133 -0.0239
 1652SOL    HW2 6679   3.549   2.424   2.816 -1.7213 -0.6508  0.0418
 1652SOL    HW3 6680   3.619   2.402   2.684 -0.7648 -2.1718  0.7882
 1652SOL    MW4 6681   3.552   2.432   2.729 -0.4668 -0.3822  0.0918
 1653SOL     OW 6682   3.581   2.714   2.653  0.4462  0.2683 -0.2184
 1653SOL    HW2 6683   3.562   2.627   2.687  2.5903 -0.5522 -1.0678
 1653SOL    HW3 6684   3.605   2.700   2.562  1.2918  1.6718 -0.2290
 1653SOL    MW4 6685   3.582   2.701   2.646  0.8409  0.3452 -0.3316
 1654SOL     OW 6686   3.797   2.855   2.751  0.1039 -0.4419  0.2658
 1654SOL    HW2 6687   3.869   2.808   2.708  0.6898 -0.3229  1.1010
 1654SOL    HW3 6688   3.720   2.801   2.735  0.5478 -1.0414  0.1467
 1654SOL    MW4 6689   3.797   2.842   2.743  0.2398 -0.5052  0.3603
 1655SOL     OW 6690   3.808   3.105   2.639  0.3148  0.2252 -0.8811
 1655SOL    HW2 6691   3.736   3.150   2.684 -0.4946 -0.5839 -1.3513
 1655SOL    HW3 6692   3.808   3.017   2.676 -0.9086 -0.7274 -3.0175
 1655SOL    MW4 6693   3.798   3.099   2.650  0.0470 -0.0074 -1.2250
 1656SOL     OW 6694   3.575   3.241   2.756 -0.7489 -0.2446  0.4460
 1656SOL    HW2 6695   3.591   3.316   2.699  0.3631 -0.1651  0.8445
 1656SOL    HW3 6696   3.502   3.195   2.715 -0.2682  0.0755 -0.7890
 1656SOL    MW4 6697   3.568   3.245   2.743 -0.5386 -0.1919  0.3355
 1657SOL     OW 6698   3.628   3.455   2.606  0.0670 -0.8970 -0.0250
 1657SOL    HW2 6699   3.704   3.507   2.634  0.2291 -1.1525  0.0117
 1657SOL    HW3 6700   3.552   3.506   2.635  0.2283 -1.4620  1.4548
 1657SOL    MW4 6701   3.628   3.469   2.614  0.1097 -1.0049  0.1750
 1658SOL     OW 6702   3.819   3.614   2.723  0.0858 -0.6615 -0.1226
 1658SOL    HW2 6703   3.901   3.594   2.678  0.9786  0.1935  1.1358
 1658SOL    HW3 6704   3.805   3.707   2.708  0.1213 -0.4850  0.9570
 1658SOL    MW4 6705   3.828   3.623   2.715  0.2084 -0.5255  0.1855
 1659SOL     OW 6706   3.790   3.883   2.661 -0.2322 -0.5944 -0.2413
 1659SOL    HW2 6707   3.866   3.939   2.677 -0.1693 -0.7444 -0.0163
 1659SOL    HW3 6708   3.716   3.935   2.695 -0.2469 -0.4007 -0.5645
 1659SOL    MW4 6709   3.790   3.897   2.668 -0.2260 -0.5884 -0.2544
 1660SOL     OW 6710   3.566   4.020   2.750 -0.0418  0.0216  0.0685
 1660SOL    HW2 6711   3.567   4.100   2.698  1.1763 -0.6179 -0.9177
 1660SOL    HW3 6712   3.477   3.985   2.739 -0.3267  0.8106 -0.1345
 1660SOL    MW4 6713   3.554   4.026   2.742  0.0813  0.0415 -0.0887
 1661SOL     OW 6714   3.613   4.292   2.661  0.4209 -0.4691 -0.2123
 1661SOL    HW2 6715   3.530   4.326   2.696  0.5114  0.1834 -0.6176
 1661SOL    HW3 6716   3.607   4.306   2.567  1.2451  0.1442 -0.1778
 1661SOL    MW4 6717   3.601   4.298   2.653  0.5414 -0.3014 -0.2611
 1662SOL     OW 6718   3.843   4.411   2.788  0.3041 -0.1740 -0.3318
 1662SOL    HW2 6719   3.915   4.355   2.760 -0.0974 -0.3491 -1.0144
 1662SOL    HW3 6720   3.766   4.375   2.744 -0.2113 -0.0339  0.4596
 1662SOL    MW4 6721   3.842   4.399   2.778  0.1831 -0.1783 -0.3173
 1663SOL     OW 6722   4.289   4.607   2.634 -0.4356 -0.1315  0.0808
 1663SOL    HW2 6723   4.210   4.658   2.646 -1.2467 -1.5586  0.9331
 1663SOL    HW3 6724   4.360   4.666   2.658 -1.2494  1.0587 -0.3989
 1663SOL    MW4 6725   4.288   4.622   2.639 -0.6499 -0.1631  0.1297
 1664SOL     OW 6726   4.058   0.080   2.679 -0.1568  0.0065  0.2186
 1664SOL    HW2 6727   4.033   0.079   2.771 -0.0046  0.9132  0.2716
 1664SOL    HW3 6728   3.980   0.049   2.633 -0.0513 -0.9981  0.6813
 1664SOL    MW4 6729   4.044   0.075   2.685 -0.1230 -0.0064  0.2868
 1665SOL     OW 6730   4.090   0.347   2.633 -0.0694  0.5604 -0.0883
 1665SOL    HW2 6731   4.095   0.252   2.646 -1.4119  0.6271  0.9648
 1665SOL    HW3 6732   4.103   0.359   2.539 -1.2449 -0.7714 -0.4385
 1665SOL    MW4 6733   4.093   0.336   2.622 -0.4015  0.3935  0.0045
 1666SOL     OW 6734   4.302   0.458   2.773 -0.0590  0.3722  1.0065
 1666SOL    HW2 6735   4.236   0.417   2.718  0.0654  1.3679  0.1174
 1666SOL    HW3 6736   4.385   0.434   2.733  0.0226  1.3013  0.6241
 1666SOL    MW4 6737   4.304   0.449   2.761 -0.0315  0.6262  0.8390
 1667SOL     OW 6738   4.266   0.730   2.688  0.1725  0.2960 -0.1386
 1667SOL    HW2 6739   4.286   0.640   2.711 -0.7763 -0.0101 -0.4696
 1667SOL    HW3 6740   4.272   0.733   2.592  0.2373  0.5877 -0.1262
 1667SOL    MW4 6741   4.269   0.719   2.678  0.0563  0.2941 -0.1807
 1668SOL     OW 6742   4.035   0.890   2.748 -0.0707  0.2377  0.2916
 1668SOL    HW2 6743   4.110   0.830   2.754 -0.4974 -0.2660  0.6218
 1668SOL    HW3 6744   3.969   0.841   2.700 -0.0249  0.8594 -0.4221
 1668SOL    MW4 6745   4.036   0.876   2.743 -0.1206  0.2533  0.2410
 1669SOL     OW 6746   4.052   1.144   2.631 -0.3546 -0.2921  0.1567
 1669SOL    HW2 6747   4.116   1.185   2.689 -0.1485  0.5065 -0.6187
 1669SOL    HW3 6748   4.037   1.058   2.669  0.7235 -0.2586  0.6922
 1669SOL    MW4 6749   4.059   1.138   2.644 -0.1850 -0.1823  0.1252
 1670SOL     OW 6750   4.263   1.222   2.788 -0.1727 -0.0038  0.0227
 1670SOL    HW2 6751   4.272   1.313   2.759 -0.5482  0.2527  0.7036
 1670SOL    HW3 6752   4.341   1.179   2.754  0.4224  0.7567  0.4133
 1670SOL    MW4 6753   4.274   1.229   2.779 -0.1435  0.1304  0.1640
 1671SOL     OW 6754   4.257   1.503   2.696  0.0458 -0.0606  0.0168
 1671SOL    HW2 6755   4.340   1.543   2.724  1.3694 -2.9808  0.4512
 1671SOL    HW3 6756   4.268   1.487   2.602 -0.4788  0.6196 -0.1583
 1671SOL    MW4 6757   4.269   1.506   2.687  0.1512 -0.3561  0.0510
 1672SOL     OW 6758   4.064   1.683   2.729 -0.4926 -0.0810  0.0239
 1672SOL    HW2 6759   4.060   1.677   2.825  0.6533  0.9111  0.1472
 1672SOL    HW3 6760   4.141   1.631   2.705 -0.8542 -0.4338 -0.3692
 1672SOL    MW4 6761   4.074   1.676   2.739 -0.3891  0.0035 -0.0117
 1673SOL     OW 6762   4.058   1.949   2.638  0.2435  0.2042  0.4304
 1673SOL    HW2 6763   4.137   1.974   2.686  1.7753 -1.0977 -1.3284
 1673SOL    HW3 6764   4.037   1.861   2.671 -0.0670  0.2682  0.4062
 1673SOL    MW4 6765   4.065   1.941   2.649  0.4048  0.0410  0.1955
 1674SOL     OW 6766   4.305   2.029   2.758 -0.1828  0.0719 -0.0406
 1674SOL    HW2 6767   4.295   2.115   2.716  0.0530 -0.2240 -0.7128
 1674SOL    HW3 6768   4.384   1.992   2.718 -0.3949 -0.5390  0.0987
 1674SOL    MW4 6769   4.314   2.035   2.747 -0.1802 -0.0477 -0.1111
 1675SOL     OW 6770   4.219   2.274   2.646 -0.4637 -0.0844 -0.0828
 1675SOL    HW2 6771   4.158   2.341   2.676 -0.3701 -0.4864  1.0154
 1675SOL    HW3 6772   4.217   2.281   2.550 -1.3402  0.6846 -0.0146
 1675SOL    MW4 6773   4.211   2.284   2.637 -0.5670 -0.0358  0.0708
 1676SOL     OW 6774   4.026   2.460   2.728  0.7629  0.2354 -0.1461
 1676SOL    HW2 6775   4.008   2.452   2.822  2.0772 -0.0004  0.0924
 1676SOL    HW3 6776   3.948   2.423   2.685  0.1952  0.2713  0.8450
 1676SOL    MW4 6777   4.013   2.454   2.735  0.8616  0.2089  0.0160
 1677SOL     OW 6778   4.015   2.715   2.626 -0.1696  0.1074 -0.2995
 1677SOL    HW2 6779   4.097   2.753   2.658  0.0397 -1.7711  1.5612
 1677SOL    HW3 6780   4.012   2.628   2.667 -2.7143 -0.1502 -0.9615
 1677SOL    MW4 6781   4.026   2.708   2.636 -0.4778 -0.1743 -0.1414
 1678SOL     OW 6782   4.240   2.843   2.743  0.3596  0.0764  0.1288
 1678SOL    HW2 6783   4.238   2.849   2.838 -1.1741  0.5419  0.0655
 1678SOL    HW3 6784   4.251   2.933   2.713  0.9884 -0.0844 -0.1398
 1678SOL    MW4 6785   4.241   2.855   2.752  0.2403  0.1168  0.0849
 1679SOL     OW 6786   4.278   3.099   2.650 -0.5057  0.0939 -0.4544
 1679SOL    HW2 6787   4.199   3.153   2.661  1.0601  2.8334 -2.1333
 1679SOL    HW3 6788   4.281   3.081   2.556  0.8983  0.0854 -0.4110
 1679SOL    MW4 6789   4.268   3.104   2.639 -0.1140  0.4542 -0.6704
 1680SOL     OW 6790   4.038   3.238   2.715  0.1057 -0.4364 -0.8065
 1680SOL    HW2 6791   4.031   3.326   2.677 -0.0144  0.0066  0.2321
 1680SOL    HW3 6792   3.954   3.196   2.694 -0.7227  0.4720  0.6061
 1680SOL    MW4 6793   4.026   3.244   2.707 -0.0191 -0.2580 -0.4830
 1681SOL     OW 6794   4.030   3.495   2.598  0.1682  0.1941  0.1529
 1681SOL    HW2 6795   4.111   3.543   2.617 -0.3422  0.5399  1.5169
 1681SOL    HW3 6796   4.033   3.479   2.504  2.3116 -0.6649  0.3308
 1681SOL    MW4 6797   4.041   3.499   2.588  0.3834  0.1264  0.3564
 1682SOL     OW 6798   4.267   3.614   2.714  0.3181  0.7301  0.1623
 1682SOL    HW2 6799   4.269   3.626   2.809 -0.5608  0.1406  0.2618
 1682SOL    HW3 6800   4.345   3.561   2.696 -0.0498 -0.0045  0.6852
 1682SOL    MW4 6801   4.277   3.608   2.725  0.1535  0.5555  0.2444
 1683SOL     OW 6802   4.247   3.887   2.666 -0.3101  0.3232 -0.1275
 1683SOL    HW2 6803   4.263   3.793   2.675  0.0766  0.4990  1.0907
 1683SOL    HW3 6804   4.324   3.928   2.705 -0.3915  1.1461 -0.8306
 1683SOL    MW4 6805   4.259   3.880   2.673 -0.2704  0.4549 -0.0596
 1684SOL     OW 6806   4.010   4.023   2.736 -0.1241 -0.4416  0.3675
 1684SOL    HW2 6807   4.027   4.012   2.829  1.3444  1.1847  0.3183
 1684SOL    HW3 6808   4.076   3.969   2.692 -1.1757 -1.6569  0.2670
 1684SOL    MW4 6809   4.021   4.015   2.742 -0.0687 -0.3877  0.3476
 1685SOL     OW 6810   4.055   4.266   2.638 -0.4871 -0.0015  0.7658
 1685SOL    HW2 6811   4.043   4.178   2.674  2.5124 -1.0051 -0.5815
 1685SOL    HW3 6812   4.031   4.259   2.546  3.3172 -0.3588 -0.2537
 1685SOL    MW4 6813   4.050   4.254   2.631  0.4101 -0.1812  0.4537
 1686SOL     OW 6814   4.287   4.357   2.762 -0.8018 -0.4917 -0.0783
 1686SOL    HW2 6815   4.215   4.316   2.714  0.1150 -0.1277 -1.7809
 1686SOL    HW3 6816   4.288   4.447   2.731  1.0440 -0.7576 -0.8417
 1686SOL    MW4 6817   4.278   4.363   2.752 -0.4373 -0.4787 -0.4039
 1687SOL     OW 6818   0.211   0.024   3.133 -0.1674 -0.1777  0.5827
 1687SOL    HW2 6819   0.178   0.025   3.223 -0.7930  1.7776  0.3525
 1687SOL    HW3 6820   0.133   0.027   3.078  0.2720  3.3083  0.0366
 1687SOL    MW4 6821   0.197   0.024   3.138 -0.1920  0.5407  0.4804
 1688SOL     OW 6822   4.481   0.059   2.961 -0.1688 -0.1688  0.2328
 1688SOL    HW2 6823   4.392   0.035   2.987  0.1224 -0.7945  0.6658
 1688SOL    HW3 6824   4.497   0.142   3.005 -0.0950 -0.6650  1.1656
 1688SOL    MW4 6825   4.471   0.066   2.970 -0.1206 -0.3168  0.4129
 1689SOL     OW 6826   4.491   0.302   3.113 -0.2394 -0.3038  0.0610
 1689SOL    HW2 6827   4.521   0.313   3.203  0.6802  0.0318 -0.2869
 1689SOL    HW3 6828   4.425   0.370   3.101 -0.0197 -0.0463  0.3282
 1689SOL    MW4 6829   4.486   0.312   3.123 -0.0887 -0.2255  0.0501
 1690SOL     OW 6830   0.179   0.469   2.989  0.2661  0.1528  0.2644
 1690SOL    HW2 6831   0.265   0.447   3.024  0.5273  0.6016 -0.0976
 1690SOL    HW3 6832   0.120   0.405   3.030  0.8033 -0.3157  0.3202
 1690SOL    MW4 6833   0.182   0.457   2.999  0.3715  0.1503  0.2239
 1691SOL     OW 6834   0.165   0.712   3.115  0.1353 -0.1853  0.2531
 1691SOL    HW2 6835   0.172   0.709   3.210 -0.0200  1.7713  0.3363
 1691SOL    HW3 6836   0.164   0.620   3.088 -0.4697 -0.7530  2.1753
 1691SOL    MW4 6837   0.166   0.699   3.124  0.0350 -0.0021  0.5176
 1692SOL     OW 6838   0.029   0.932   3.025  0.0228  0.1892  0.0428
 1692SOL    HW2 6839   0.074   0.851   3.048  0.7458  0.3847 -0.6714
 1692SOL    HW3 6840   0.020   0.928   2.929  0.0948  0.9690  0.0032
 1692SOL    MW4 6841   0.034   0.920   3.015  0.1278  0.3179 -0.0565
 1693SOL     OW 6842   4.483   1.178   3.164  0.2045  0.2285  0.1526
 1693SOL    HW2 6843   4.400   1.222   3.147 -0.4096 -0.6186  0.9636
 1693SOL    HW3 6844   4.479   1.098   3.112  0.9913  0.7301 -0.6967
 1693SOL    MW4 6845   4.472   1.173   3.155  0.2275  0.1829  0.1476
 1694SOL     OW 6846   0.221   1.306   3.030  0.1353  0.1075  0.2479
 1694SOL    HW2 6847   0.148   1.267   3.078  0.3947 -0.4420  0.1968
 1694SOL    HW3 6848   0.193   1.307   2.939 -0.7499  2.0391  0.5289
 1694SOL    MW4 6849   0.208   1.301   3.024  0.0528  0.2898  0.2782
 1695SOL     OW 6850   0.233   1.560   3.171  0.3150  0.7511 -0.4324
 1695SOL    HW2 6851   0.147   1.598   3.152 -0.3356 -0.5357 -0.1317
 1695SOL    HW3 6852   0.237   1.482   3.116  1.0143  0.4311  0.0614
 1695SOL    MW4 6853   0.222   1.555   3.161  0.3214  0.5391 -0.3276
 1696SOL     OW 6854   4.480   1.636   3.058  0.2482  0.1656  0.0270
 1696SOL    HW2 6855   4.403   1.589   3.091 -0.5357  0.5648 -1.1787
 1696SOL    HW3 6856   4.465   1.727   3.084 -0.1396  0.3987 -0.9883
 1696SOL    MW4 6857   4.468   1.642   3.066  0.0939  0.2491 -0.2658
 1697SOL     OW 6858   4.451   1.879   3.146  0.2754 -0.0700 -0.0137
 1697SOL    HW2 6859   4.396   1.945   3.104 -0.2701 -0.7236 -0.3377
 1697SOL    HW3 6860   4.540   1.916   3.144 -0.3552  1.5704  1.7146
 1697SOL    MW4 6861   4.456   1.893   3.140  0.1206  0.0602  0.1717
 1698SOL     OW 6862   0.195   2.000   3.051 -0.1318  0.3176  0.1972
 1698SOL    HW2 6863   0.191   2.094   3.072  2.4463  0.6468 -0.6248
 1698SOL    HW3 6864   0.210   1.998   2.956  1.3213 -0.9096  0.4565
 1698SOL    MW4 6865   0.196   2.012   3.041  0.4000  0.1991  0.1233
 1699SOL     OW 6866   0.190   2.282   3.107 -0.3946  0.5188  0.3348
 1699SOL    HW2 6867   0.204   2.307   3.198  0.6405 -0.3712  0.4262
 1699SOL    HW3 6868   0.264   2.321   3.060  0.1373 -0.6640  0.1793
 1699SOL    MW4 6869   0.202   2.291   3.113 -0.1879  0.2451  0.3264
 1700SOL     OW 6870   4.486   2.443   2.972  0.0498  0.1360 -0.2206
 1700SOL    HW2 6871   4.501   2.508   3.041 -1.2002  0.7607 -0.5262
 1700SOL    HW3 6872   4.550   2.374   2.990 -0.4271  0.1738  1.7063
 1700SOL    MW4 6873   4.496   2.443   2.983 -0.1781  0.2234 -0.0069
 1701SOL     OW 6874   0.012   2.697   3.127  0.5545 -0.1788 -0.3403
 1701SOL    HW2 6875   0.013   2.698   3.223  0.3913 -2.0166 -0.2957
 1701SOL    HW3 6876   0.093   2.742   3.102  0.2467  0.9452  0.6350
 1701SOL    MW4 6877   0.023   2.703   3.136  0.4921 -0.2728 -0.2060
 1702SOL     OW 6878   0.230   2.818   3.002 -0.1503 -0.1860 -0.1956
 1702SOL    HW2 6879   0.314   2.779   3.026  0.3984  1.2463  0.2865
 1702SOL    HW3 6880   0.220   2.800   2.909  1.0149  0.1985 -0.4019
 1702SOL    MW4 6881   0.240   2.811   2.993  0.0758  0.0536 -0.1593
 1703SOL     OW 6882   0.265   3.070   3.087 -0.0126 -0.0036 -0.3155
 1703SOL    HW2 6883   0.195   3.124   3.050  1.5223  2.5062  0.3009
 1703SOL    HW3 6884   0.244   2.981   3.060 -3.0630  0.7873 -0.7139
 1703SOL    MW4 6885   0.253   3.066   3.079 -0.2126  0.4315 -0.2866
 1704SOL     OW 6886   0.052   3.226   3.027  0.2281 -0.0075  0.3827
 1704SOL    HW2 6887  -0.022   3.176   3.062 -0.0624  1.5056  1.9443
 1704SOL    HW3 6888   0.031   3.237   2.934 -1.8577  1.0116  0.9592
 1704SOL    MW4 6889   0.039   3.221   3.019 -0.0855  0.3264  0.6649
 1705SOL     OW 6890   4.484   3.497   3.121 -0.0205 -0.0216 -0.3661
 1705SOL    HW2 6891   4.395   3.518   3.091  0.3312  0.4385 -1.0974
 1705SOL    HW3 6892   4.499   3.408   3.088  0.0013  0.1165 -0.7355
 1705SOL    MW4 6893   4.474   3.488   3.113  0.0288  0.0575 -0.5114
 1706SOL     OW 6894   0.230   3.615   3.011 -0.3517  0.3537  0.0809
 1706SOL    HW2 6895   0.259   3.689   3.063 -0.0536 -1.1015  2.0309
 1706SOL    HW3 6896   0.148   3.587   3.052  0.2727 -1.2744  0.2473
 1706SOL    MW4 6897   0.223   3.621   3.023 -0.2300 -0.0529  0.3603
 1707SOL     OW 6898   0.273   3.860   3.144 -0.2060  0.1467 -0.0597
 1707SOL    HW2 6899   0.264   3.854   3.239  1.5448 -0.9523  0.0453
 1707SOL    HW3 6900   0.329   3.936   3.130 -1.1721  0.8373 -0.2744
 1707SOL    MW4 6901   0.279   3.869   3.155 -0.1025  0.0930 -0.0741
 1708SOL     OW 6902   0.034   3.961   3.057  0.1068 -0.0937  0.0747
 1708SOL    HW2 6903   0.116   3.915   3.074 -0.4341 -0.8696  0.6513
 1708SOL    HW3 6904   0.023   3.957   2.962 -0.3552 -1.9133  0.1913
 1708SOL    MW4 6905   0.043   3.955   3.047 -0.0256 -0.4361  0.1664
 1709SOL     OW 6906   0.053   4.229   3.108  0.1186  0.3667  0.2328
 1709SOL    HW2 6907   0.020   4.241   3.198 -0.0215  0.3636  0.1814
 1709SOL    HW3 6908   0.056   4.134   3.096 -0.9768  0.3808 -0.1788
 1709SOL    MW4 6909   0.049   4.218   3.119 -0.0444  0.3686  0.1717
 1710SOL     OW 6910   0.259   4.411   3.018 -0.2927 -0.1885 -0.0291
 1710SOL    HW2 6911   0.197   4.350   3.057  0.1381  0.4529  1.6959
 1710SOL    HW3 6912   0.252   4.490   3.070  0.9314  0.3948 -0.7127
 1710SOL    MW4 6913   0.250   4.413   3.030 -0.0744 -0.0267  0.1082
 1711SOL     OW 6914   0.665   0.045   3.109 -0.3549  0.1965 -0.0748
 1711SOL    HW2 6915   0.685  -0.042   3.075 -1.9737 -1.1635  2.3253
 1711SOL    HW3 6916   0.589   0.074   3.059 -0.5705 -0.3050 -0.0415
 1711SOL    MW4 6917   0.658   0.037   3.098 -0.5969 -0.0491  0.2460
 1712SOL     OW 6918   0.436   0.137   2.975 -0.0639  0.0869 -0.5806
 1712SOL    HW2 6919   0.442   0.223   3.016 -0.1060 -0.4695  0.6274
 1712SOL    HW3 6920   0.370   0.090   3.027 -0.2117 -0.5898 -1.3643
 1712SOL    MW4 6921   0.428   0.142   2.987 -0.0889 -0.0758 -0.5248
 1713SOL     OW 6922   0.429   0.398   3.082  0.1952  0.0932  0.3102
 1713SOL    HW2 6923   0.448   0.378   3.174  1.2440  1.5896  0.4360
 1713SOL    HW3 6924   0.513   0.425   3.046 -0.3922  0.3476 -0.8738
 1713SOL    MW4 6925   0.442   0.399   3.089  0.2561  0.3242  0.1702
 1714SOL     OW 6926   0.682   0.507   3.008 -0.1454 -0.1051 -0.3838
 1714SOL    HW2 6927   0.670   0.599   3.033 -0.3173 -0.0041 -0.8464
 1714SOL    HW3 6928   0.737   0.471   3.078 -0.8155  0.1199  0.2651
 1714SOL    MW4 6929   0.688   0.515   3.020 -0.2564 -0.0620 -0.3593
 1715SOL     OW 6930   0.639   0.750   3.115 -0.0246  0.0178  0.4264
 1715SOL    HW2 6931   0.634   0.759   3.210 -0.6525 -1.8903  0.5890
 1715SOL    HW3 6932   0.561   0.796   3.083  0.5695  1.2961  0.7723
 1715SOL    MW4 6933   0.628   0.758   3.124 -0.0291 -0.0654  0.4935
 1716SOL     OW 6934   0.399   0.862   3.025  0.5890  0.1693 -0.4745
 1716SOL    HW2 6935   0.320   0.823   3.063  0.7911  0.8841  0.7113
 1716SOL    HW3 6936   0.395   0.838   2.932 -0.9412  0.0422 -0.4000
 1716SOL    MW4 6937   0.388   0.854   3.017  0.4138  0.2468 -0.3083
 1717SOL     OW 6938   0.432   1.136   3.070  0.0364 -0.0420 -0.0274
 1717SOL    HW2 6939   0.408   1.046   3.050 -0.8277  0.0191  0.6944
 1717SOL    HW3 6940   0.351   1.186   3.057  0.7336  0.7924 -1.3619
 1717SOL    MW4 6941   0.418   1.131   3.065  0.0144  0.0763 -0.1082
 1718SOL     OW 6942   0.670   1.286   3.012 -0.0241  0.3135  0.0893
 1718SOL    HW2 6943   0.723   1.230   3.069 -0.0583 -0.7798 -0.9350
 1718SOL    HW3 6944   0.583   1.245   3.013  0.0427  0.1533 -0.9463
 1718SOL    MW4 6945   0.666   1.274   3.020 -0.0198  0.1481 -0.1824
 1719SOL     OW 6946   0.633   1.529   3.116  0.0140 -0.1347  0.2298
 1719SOL    HW2 6947   0.628   1.525   3.212  0.9865  0.8141  0.3340
 1719SOL    HW3 6948   0.645   1.438   3.089 -1.1968 -0.5147  0.9531
 1719SOL    MW4 6949   0.634   1.516   3.125 -0.0174 -0.0596  0.3390
 1720SOL     OW 6950   0.415   1.673   3.002 -0.3272  0.2482 -0.0562
 1720SOL    HW2 6951   0.495   1.627   3.030  0.8945  0.9740 -2.2834
 1720SOL    HW3 6952   0.349   1.645   3.066  1.7951  0.0022  2.1150
 1720SOL    MW4 6953   0.417   1.663   3.014  0.1140  0.3115 -0.0637
 1721SOL     OW 6954   0.430   1.899   3.127  0.0495  0.1570  0.3443
 1721SOL    HW2 6955   0.440   1.820   3.074 -1.2320 -0.0892  0.4510
 1721SOL    HW3 6956   0.350   1.940   3.094  0.8129  1.5380  0.1416
 1721SOL    MW4 6957   0.421   1.894   3.115 -0.0189  0.3067  0.3314
 1722SOL     OW 6958   0.641   2.053   3.028 -0.2454  0.2938 -0.2476
 1722SOL    HW2 6959   0.722   2.008   3.052 -0.5533 -0.5410 -0.7426
 1722SOL    HW3 6960   0.571   1.991   3.052 -0.7046  0.7893 -0.3040
 1722SOL    MW4 6961   0.642   2.039   3.034 -0.3466  0.2491 -0.3202
 1723SOL     OW 6962   0.616   2.311   3.125  0.0155 -0.4746  0.0415
 1723SOL    HW2 6963   0.632   2.309   3.219  1.0433 -0.2681 -0.1234
 1723SOL    HW3 6964   0.623   2.220   3.097  0.2394 -0.4688  0.0797
 1723SOL    MW4 6965   0.619   2.299   3.134  0.1806 -0.4463  0.0248
 1724SOL     OW 6966   0.397   2.420   2.971  0.1976 -0.3491  0.2111
 1724SOL    HW2 6967   0.480   2.384   3.002  1.4757  0.6283 -1.9984
 1724SOL    HW3 6968   0.408   2.427   2.876 -1.4868  2.1328  0.1715
 1724SOL    MW4 6969   0.409   2.416   2.962  0.1440  0.1070 -0.0856
 1725SOL     OW 6970   0.447   2.683   3.103 -0.1125  0.1320 -0.2487
 1725SOL    HW2 6971   0.533   2.718   3.084 -0.5983  1.2700 -0.3928
 1725SOL    HW3 6972   0.441   2.604   3.050  0.7092  0.2292 -0.4929
 1725SOL    MW4 6973   0.457   2.677   3.094 -0.0682  0.2947 -0.2999
 1726SOL     OW 6974   0.681   2.827   3.041  0.4884  0.0087 -0.2701
 1726SOL    HW2 6975   0.758   2.772   3.056 -0.3173 -0.9824  0.2775
 1726SOL    HW3 6976   0.708   2.914   3.070  2.1619  0.1770 -2.2428
 1726SOL    MW4 6977   0.695   2.831   3.047  0.6028 -0.0999 -0.4582
 1727SOL     OW 6978   0.726   3.092   3.076  0.0315  0.2123 -0.2819
 1727SOL    HW2 6979   0.724   3.090   3.171 -1.3596  1.8163 -0.2737
 1727SOL    HW3 6980   0.643   3.133   3.050  1.3026  1.7260 -2.1051
 1727SOL    MW4 6981   0.715   3.097   3.085  0.0157  0.6237 -0.5214
 1728SOL     OW 6982   0.489   3.183   2.986 -0.2465  0.0945 -0.3636
 1728SOL    HW2 6983   0.472   3.266   3.030  1.8256  0.6339 -0.5320
 1728SOL    HW3 6984   0.418   3.125   3.015  0.2522  0.8523  2.5635
 1728SOL    MW4 6985   0.478   3.186   2.996  0.0927  0.2656  0.0005
 1729SOL     OW 6986   0.449   3.429   3.092  0.1887  0.7160  0.4626
 1729SOL    HW2 6987   0.442   3.430   3.187 -1.2557  1.2328  0.3677
 1729SOL    HW3 6988   0.369   3.472   3.061  0.4136  0.1381 -0.9963
 1729SOL    MW4 6989   0.438   3.435   3.100  0.0278  0.7079  0.2577
 1730SOL     OW 6990   0.650   3.603   3.010  0.2012 -0.3414 -0.0775
 1730SOL    HW2 6991   0.729   3.578   3.058  0.6333  0.5127 -0.3263
 1730SOL    HW3 6992   0.583   3.542   3.040  0.9206 -0.9746  0.2545
 1730SOL    MW4 6993   0.652   3.592   3.020  0.3531 -0.3123 -0.0663
 1731SOL     OW 6994   0.708   3.860   3.130 -0.3285  0.0644  0.4698
 1731SOL    HW2 6995   0.715   3.830   3.221  1.2495 -0.5085  0.1845
 1731SOL    HW3 6996   0.694   3.780   3.080 -0.3971  0.2852  0.1369
 1731SOL    MW4 6997   0.707   3.845   3.135 -0.1294  0.0181  0.3884
 1732SOL     OW 6998   0.477   4.018   3.056 -0.6757 -0.3182  0.1129
 1732SOL    HW2 6999   0.558   3.976   3.085 -0.5437 -0.9932 -1.1662
 1732SOL    HW3 7000   0.482   4.016   2.960 -1.3443  1.3326  0.0309
 1732SOL    MW4 7001   0.488   4.012   3.047 -0.7465 -0.1898 -0.0665
 1733SOL     OW 7002   0.478   4.281   3.136 -0.1242 -0.2529 -0.4234
 1733SOL    HW2 7003   0.480   4.191   3.104 -2.8136 -0.5022  0.0239
 1733SOL    HW3 7004   0.397   4.317   3.101  0.7078  1.8835 -0.2441
 1733SOL    MW4 7005   0.468   4.274   3.127 -0.3693 -0.0043 -0.3405
 1734SOL     OW 7006   0.714   4.449   3.011  0.3067 -0.4619 -0.0601
 1734SOL    HW2 7007   0.639   4.402   3.046 -0.1211 -0.9203 -1.5427
 1734SOL    HW3 7008   0.709   4.436   2.916  0.6771  1.8433 -0.4325
 1734SOL    MW4 7009   0.704   4.441   3.003  0.2992 -0.2179 -0.3047
 1735SOL     OW 7010   1.141   4.643   3.384 -0.0855 -0.4716 -0.1529
 1735SOL    HW2 7011   1.214   4.693   3.419 -1.2334  0.9328  0.2619
 1735SOL    HW3 7012   1.148   4.652   3.289 -0.7530  1.1579 -0.0546
 1735SOL    MW4 7013   1.151   4.650   3.376 -0.3251 -0.0715 -0.0849
 1736SOL     OW 7014   0.908   0.155   3.027 -0.2389 -0.4378 -0.5903
 1736SOL    HW2 7015   0.907   0.244   3.061  0.7753  0.2959 -2.4044
 1736SOL    HW3 7016   0.827   0.116   3.059 -0.2925  0.8553  0.9125
 1736SOL    MW4 7017   0.897   0.162   3.036 -0.1122 -0.1704 -0.6313
 1737SOL     OW 7018   0.905   0.403   3.145  0.3962  0.1367 -0.2087
 1737SOL    HW2 7019   0.906   0.403   3.241  1.2129 -0.3900 -0.2117
 1737SOL    HW3 7020   0.983   0.453   3.120 -0.1420  0.7840 -0.6011
 1737SOL    MW4 7021   0.915   0.409   3.154  0.4330  0.1526 -0.2606
 1738SOL     OW 7022   1.146   0.494   3.051 -0.5199 -0.0520 -0.2976
 1738SOL    HW2 7023   1.219   0.434   3.069 -0.8989 -0.3566  0.2518
 1738SOL    HW3 7024   1.137   0.493   2.956 -0.0691 -0.3300 -0.3416
 1738SOL    MW4 7025   1.155   0.486   3.041 -0.5105 -0.1289 -0.2308
 1739SOL     OW 7026   1.100   0.748   3.153 -0.2060  0.5375  0.4622
 1739SOL    HW2 7027   1.122   0.749   3.246 -0.4775  0.7176  0.5246
 1739SOL    HW3 7028   1.131   0.663   3.122  0.5814  0.7926  0.5486
 1739SOL    MW4 7029   1.107   0.737   3.161 -0.1380  0.5950  0.4818
 1740SOL     OW 7030   0.887   0.886   3.035  0.1068  0.2985  0.2617
 1740SOL    HW2 7031   0.949   0.833   3.085 -1.8404  0.3481  2.7906
 1740SOL    HW3 7032   0.802   0.864   3.071 -1.1002  2.4020 -1.2103
 1740SOL    MW4 7033   0.884   0.876   3.046 -0.3093  0.5826  0.4010
 1741SOL     OW 7034   0.876   1.152   3.122 -0.2220 -0.3274 -0.2487
 1741SOL    HW2 7035   0.934   1.203   3.066 -0.3239  1.4346  1.1881
 1741SOL    HW3 7036   0.894   1.061   3.099  2.9489  0.1747  0.0213
 1741SOL    MW4 7037   0.886   1.147   3.112  0.1829 -0.0287 -0.0236
 1742SOL     OW 7038   1.087   1.304   3.007 -0.0911 -0.3157  0.1282
 1742SOL    HW2 7039   1.164   1.255   3.035 -0.0947 -1.1422 -1.2540
 1742SOL    HW3 7040   1.095   1.310   2.911 -0.5176  1.6768  0.1883
 1742SOL    MW4 7041   1.098   1.298   2.998 -0.1478 -0.1619 -0.0463
 1743SOL     OW 7042   1.122   1.547   3.130  0.5627 -0.0819 -0.1740
 1743SOL    HW2 7043   1.200   1.587   3.090  1.3102 -0.2674  1.0631
 1743SOL    HW3 7044   1.114   1.462   3.087  1.0433 -0.0584 -0.3172
 1743SOL    MW4 7045   1.131   1.541   3.119  0.7247 -0.1032 -0.0298
 1744SOL     OW 7046   0.890   1.679   3.035  0.1414 -0.6164  0.0422
 1744SOL    HW2 7047   0.967   1.624   3.046  0.0420 -1.2067 -1.9634
 1744SOL    HW3 7048   0.818   1.628   3.070  0.1108 -1.6271 -1.4478
 1744SOL    MW4 7049   0.891   1.665   3.041  0.1242 -0.8277 -0.4191
 1745SOL     OW 7050   0.871   1.951   3.110 -0.6165  0.8632  0.2155
 1745SOL    HW2 7051   0.870   1.943   3.206 -0.0590 -0.6340  0.1168
 1745SOL    HW3 7052   0.885   1.861   3.079 -2.0832  1.1399 -1.3034
 1745SOL    MW4 7053   0.873   1.938   3.119 -0.7364  0.7024  0.0024
 1746SOL     OW 7054   1.117   2.054   3.014 -0.2109  0.2145 -0.0278
 1746SOL    HW2 7055   1.031   2.015   3.030  0.1303 -0.4392  0.1971
 1746SOL    HW3 7056   1.120   2.068   2.920 -0.6195  0.3708 -0.0191
 1746SOL    MW4 7057   1.106   2.051   3.004 -0.2198  0.1490  0.0029
 1747SOL     OW 7058   1.119   2.314   3.084 -0.1831 -0.3121 -0.2933
 1747SOL    HW2 7059   1.039   2.346   3.043  0.1218  0.2302 -0.4588
 1747SOL    HW3 7060   1.118   2.219   3.067 -0.6386 -0.2624 -0.5484
 1747SOL    MW4 7061   1.108   2.305   3.077 -0.2030 -0.2339 -0.3486
 1748SOL     OW 7062   0.857   2.390   2.999 -0.2767 -0.2267  0.6506
 1748SOL    HW2 7063   0.783   2.336   3.026 -0.8052  0.0551 -0.2158
 1748SOL    HW3 7064   0.853   2.389   2.903 -1.6047  3.1852  0.6247
 1748SOL    MW4 7065   0.847   2.383   2.990 -0.5216  0.2608  0.5326
 1749SOL     OW 7066   0.914   2.667   3.062 -0.3887 -0.1174  0.3105
 1749SOL    HW2 7067   0.922   2.666   3.157  0.4274 -0.6955  0.2319
 1749SOL    HW3 7068   0.876   2.582   3.040  1.5824 -0.8990 -0.0797
 1749SOL    MW4 7069   0.910   2.656   3.072 -0.0210 -0.2968  0.2487
 1750SOL     OW 7070   1.162   2.814   3.006 -0.2194 -0.0526 -0.2631
 1750SOL    HW2 7071   1.157   2.902   3.044  0.8148 -0.0351 -0.1546
 1750SOL    HW3 7072   1.090   2.766   3.046 -0.7604  0.7374 -0.2929
 1750SOL    MW4 7073   1.152   2.819   3.016 -0.1543  0.0541 -0.2525
 1751SOL     OW 7074   1.149   3.082   3.067 -0.0059 -0.1836  0.3231
 1751SOL    HW2 7075   1.209   3.146   3.027 -1.1402  0.5301 -0.2793
 1751SOL    HW3 7076   1.061   3.118   3.050 -0.5784 -0.8649  1.7805
 1751SOL    MW4 7077   1.145   3.095   3.059 -0.2311 -0.1793  0.4356
 1752SOL     OW 7078   0.920   3.259   3.000 -0.4859  0.4088  0.3575
 1752SOL    HW2 7079   0.845   3.209   3.034  0.6413 -2.2534 -0.9047
 1752SOL    HW3 7080   0.919   3.242   2.906  1.8439  0.0970  0.3563
 1752SOL    MW4 7081   0.910   3.250   2.992 -0.0298  0.0165  0.1907
 1753SOL     OW 7082   0.919   3.495   3.122  0.1922  0.1537  0.3743
 1753SOL    HW2 7083   0.983   3.553   3.082  0.3577 -0.1945  0.1257
 1753SOL    HW3 7084   0.929   3.412   3.074  1.0664 -0.5762  1.7525
 1753SOL    MW4 7085   0.929   3.492   3.111  0.3294  0.0114  0.5233
 1754SOL     OW 7086   1.144   3.647   3.037  0.2927 -0.1762 -0.5369
 1754SOL    HW2 7087   1.212   3.598   3.083 -0.1291  1.1952  1.5999
 1754SOL    HW3 7088   1.151   3.736   3.072 -2.0354  0.1892 -0.9255
 1754SOL    MW4 7089   1.154   3.653   3.048 -0.0700  0.0529 -0.3064
 1755SOL     OW 7090   1.153   3.888   3.153  0.1515  0.0230 -0.3307
 1755SOL    HW2 7091   1.148   3.854   3.242  0.7875 -1.1764 -0.7520
 1755SOL    HW3 7092   1.064   3.920   3.135 -0.2167 -0.5742  0.3875
 1755SOL    MW4 7093   1.141   3.888   3.162  0.1869 -0.2141 -0.2913
 1756SOL     OW 7094   0.936   3.994   3.042  0.1286 -0.1128 -0.2336
 1756SOL    HW2 7095   0.852   3.958   3.070  1.1711 -0.2366  2.9373
 1756SOL    HW3 7096   0.929   3.999   2.946 -3.3235 -0.4350 -0.0738
 1756SOL    MW4 7097   0.924   3.990   3.033 -0.1893 -0.1719  0.2060
 1757SOL     OW 7098   0.937   4.270   3.108 -0.3480 -0.0293  0.1894
 1757SOL    HW2 7099   0.916   4.183   3.075  1.3386 -0.5300  0.4051
 1757SOL    HW3 7100   0.865   4.325   3.077  0.3636 -0.7722 -2.9914
 1757SOL    MW4 7101   0.925   4.266   3.100 -0.0315 -0.1936 -0.2017
 1758SOL     OW 7102   1.148   4.404   3.001  0.0582 -0.0853 -0.3435
 1758SOL    HW2 7103   1.080   4.350   3.041  2.0020 -1.4466  1.2726
 1758SOL    HW3 7104   1.130   4.493   3.031 -0.0241 -0.6969  1.5187
 1758SOL    MW4 7105   1.137   4.408   3.010  0.3037 -0.3462  0.1154
 1759SOL     OW 7106   1.576   4.635   3.103 -0.5651  0.5918 -0.2640
 1759SOL    HW2 7107   1.587   4.624   3.197  0.0461 -1.4867 -0.5554
 1759SOL    HW3 7108   1.606   4.552   3.065  0.8324  2.0174 -2.4053
 1759SOL    MW4 7109   1.582   4.623   3.110 -0.3002  0.5059 -0.5848
 1760SOL     OW 7110   1.118   4.661   3.089  0.3191 -0.3041 -0.2602
 1760SOL    HW2 7111   1.191   4.695   3.036  0.2851  0.3467  0.1067
 1760SOL    HW3 7112   1.047   4.723   3.073 -0.0976 -0.8365 -0.4719
 1760SOL    MW4 7113   1.119   4.674   3.080  0.2598 -0.2884 -0.2396
 1761SOL     OW 7114   1.352   0.342   3.138 -0.0806  0.4324  0.0549
 1761SOL    HW2 7115   1.357   0.248   3.119 -1.6560  0.0973  1.2322
 1761SOL    HW3 7116   1.378   0.349   3.230 -1.6082  0.9557  0.4508
 1761SOL    MW4 7117   1.356   0.330   3.148 -0.4901  0.4572  0.2625
 1762SOL     OW 7118   1.535   0.496   2.998  0.0148 -0.1031 -0.1982
 1762SOL    HW2 7119   1.515   0.588   3.017  0.0500 -0.3517  1.0865
 1762SOL    HW3 7120   1.462   0.447   3.036  0.4457 -0.6660 -0.0904
 1762SOL    MW4 7121   1.523   0.502   3.006  0.0763 -0.2102 -0.0143
 1763SOL     OW 7122   1.536   0.765   3.074  0.3308 -0.2699  0.1515
 1763SOL    HW2 7123   1.524   0.751   3.168  1.1885  0.6225  0.3944
 1763SOL    HW3 7124   1.455   0.809   3.047 -0.0491 -0.7953  0.4008
 1763SOL    MW4 7125   1.524   0.769   3.083  0.3940 -0.2214  0.2165
 1764SOL     OW 7126   1.290   0.882   3.027 -0.7651  0.1390 -0.2141
 1764SOL    HW2 7127   1.288   0.975   3.051  0.1864 -0.1770  1.1807
 1764SOL    HW3 7128   1.217   0.843   3.074 -0.0010 -0.1529  0.7528
 1764SOL    MW4 7129   1.280   0.889   3.036 -0.5387  0.0588  0.0975
 1765SOL     OW 7130   1.302   1.161   3.104 -0.3031  0.4716  0.3868
 1765SOL    HW2 7131   1.320   1.160   3.198  2.0409 -0.7691 -0.0170
 1765SOL    HW3 7132   1.384   1.191   3.065 -0.7153 -0.5657 -1.3377
 1765SOL    MW4 7133   1.315   1.165   3.111 -0.0483  0.1709  0.1061
 1766SOL     OW 7134   1.551   1.262   3.013  0.0727  0.1297  0.2360
 1766SOL    HW2 7135   1.632   1.233   3.055 -0.5214 -1.0683  0.5654
 1766SOL    HW3 7136   1.535   1.349   3.049  0.0139 -0.5500  1.8603
 1766SOL    MW4 7137   1.560   1.270   3.023 -0.0135 -0.1181  0.4940
 1767SOL     OW 7138   1.550   1.499   3.117  0.3453 -0.1874 -0.1939
 1767SOL    HW2 7139   1.480   1.552   3.078 -0.4526 -1.2969 -0.2911
 1767SOL    HW3 7140   1.524   1.491   3.209  0.8555  0.2088 -0.0130
 1767SOL    MW4 7141   1.537   1.505   3.124  0.3074 -0.2815 -0.1831
 1768SOL     OW 7142   1.340   1.672   3.015 -0.1629  0.3099 -0.1267
 1768SOL    HW2 7143   1.342   1.766   3.030  0.2009  0.4404 -0.9177
 1768SOL    HW3 7144   1.341   1.664   2.919 -0.7289 -0.4818 -0.0649
 1768SOL    MW4 7145   1.341   1.683   3.004 -0.1894  0.2228 -0.2229
 1769SOL     OW 7146   1.335   1.934   3.107 -0.1944  0.3467  0.2557
 1769SOL    HW2 7147   1.330   1.930   3.203 -0.3077  0.9544  0.2815
 1769SOL    HW3 7148   1.255   1.981   3.082  0.0772  0.6122 -0.1063
 1769SOL    MW4 7149   1.324   1.940   3.117 -0.1733  0.4619  0.2112
 1770SOL     OW 7150   1.569   2.051   2.972 -0.3925  0.2364 -0.8085
 1770SOL    HW2 7151   1.485   2.023   3.008 -0.1005 -1.0055 -1.0611
 1770SOL    HW3 7152   1.555   2.051   2.877 -0.4582  1.1928 -0.8042
 1770SOL    MW4 7153   1.556   2.047   2.964 -0.3628  0.1986 -0.8411
 1771SOL     OW 7154   1.575   2.298   3.111 -0.2664  0.2091 -0.2530
 1771SOL    HW2 7155   1.498   2.346   3.081 -1.1832 -0.0932  1.5109
 1771SOL    HW3 7156   1.570   2.213   3.067 -1.0223  0.1425 -0.0421
 1771SOL    MW4 7157   1.564   2.293   3.102 -0.4872  0.1602  0.0074
 1772SOL     OW 7158   1.356   2.450   2.991  0.2397 -0.2877  0.7896
 1772SOL    HW2 7159   1.276   2.414   3.029 -0.0462  0.1797  0.6362
 1772SOL    HW3 7160   1.349   2.431   2.898  0.2457 -0.1402  0.7580
 1772SOL    MW4 7161   1.345   2.443   2.984  0.2027 -0.2069  0.7648
 1773SOL     OW 7162   1.375   2.686   3.118  0.0529 -0.0573  0.3777
 1773SOL    HW2 7163   1.362   2.606   3.066  1.7739  0.4478 -0.8777
 1773SOL    HW3 7164   1.305   2.744   3.089  1.7964  0.7209 -2.4591
 1773SOL    MW4 7165   1.364   2.683   3.107  0.5101  0.1121 -0.1624
 1774SOL     OW 7166   1.571   2.807   2.955  0.0659  0.4552  0.2917
 1774SOL    HW2 7167   1.653   2.773   2.991  0.3074  0.4662 -0.2399
 1774SOL    HW3 7168   1.503   2.759   3.002  0.4094 -2.5168 -2.0292
 1774SOL    MW4 7169   1.573   2.796   2.966  0.1429  0.0646 -0.0846
 1775SOL     OW 7170   1.543   3.041   3.121 -0.0040  0.0179  0.2000
 1775SOL    HW2 7171   1.583   3.027   3.207  0.3269 -0.4331 -0.0263
 1775SOL    HW3 7172   1.552   2.957   3.076  0.2301  0.3820 -0.4434
 1775SOL    MW4 7173   1.549   3.028   3.126  0.0705  0.0062  0.0854
 1776SOL     OW 7174   1.365   3.227   2.983  0.3129 -0.1917  0.0416
 1776SOL    HW2 7175   1.419   3.165   3.032 -0.1573 -0.8693 -0.2918
 1776SOL    HW3 7176   1.393   3.217   2.892 -0.4271 -0.6066 -0.1442
 1776SOL    MW4 7177   1.376   3.218   2.978  0.1531 -0.3357 -0.0267
 1777SOL     OW 7178   1.342   3.478   3.098  0.2186 -0.0950  0.0570
 1777SOL    HW2 7179   1.351   3.469   3.193  0.0870 -0.2320  0.0574
 1777SOL    HW3 7180   1.332   3.389   3.066 -0.3829 -0.0048 -0.0158
 1777SOL    MW4 7181   1.342   3.465   3.106  0.1220 -0.1009  0.0472
 1778SOL     OW 7182   1.596   3.587   3.014  0.1550 -0.4513 -0.0994
 1778SOL    HW2 7183   1.509   3.554   3.038 -0.3801  0.1964 -1.0754
 1778SOL    HW3 7184   1.594   3.591   2.918  1.7744 -1.7515 -0.1860
 1778SOL    MW4 7185   1.584   3.583   3.004  0.2980 -0.5372 -0.2396
 1779SOL     OW 7186   1.603   3.827   3.119  0.0909  0.5195  0.2514
 1779SOL    HW2 7187   1.675   3.875   3.077 -0.1800  0.6341 -0.0844
 1779SOL    HW3 7188   1.607   3.740   3.080  0.0870  0.5068  0.2793
 1779SOL    MW4 7189   1.613   3.822   3.108  0.0546  0.5329  0.2108
 1780SOL     OW 7190   1.386   3.992   3.033 -0.4650  0.1530 -0.3514
 1780SOL    HW2 7191   1.449   3.925   3.058 -1.0329 -1.0600 -2.1220
 1780SOL    HW3 7192   1.304   3.966   3.075 -0.6246 -0.1263 -0.8358
 1780SOL    MW4 7193   1.383   3.980   3.042 -0.5609 -0.0441 -0.6490
 1781SOL     OW 7194   1.382   4.269   3.085  0.0273 -0.1483  0.0933
 1781SOL    HW2 7195   1.370   4.181   3.048  0.5876  0.3138 -1.2345
 1781SOL    HW3 7196   1.307   4.318   3.052  0.6860  0.3452 -0.6858
 1781SOL    MW4 7197   1.371   4.263   3.076  0.1881 -0.0219 -0.1848
 1782SOL     OW 7198   1.633   4.371   2.984 -0.3743  0.0671 -0.1002
 1782SOL    HW2 7199   1.698   4.322   3.035  0.1868  0.4935 -0.4150
 1782SOL    HW3 7200   1.551   4.323   3.000  0.0316 -0.5494  0.1860
 1782SOL    MW4 7201   1.630   4.358   2.993 -0.2466  0.0420 -0.1042
 1783SOL     OW 7202   1.782   0.160   3.040  0.3075 -0.0193 -0.5242
 1783SOL    HW2 7203   1.707   0.105   3.062  0.3069 -0.0085 -0.5002
 1783SOL    HW3 7204   1.795   0.147   2.946 -0.9373  1.4965 -0.9166
 1783SOL    MW4 7205   1.774   0.151   3.030  0.1432  0.1821 -0.5729
 1784SOL     OW 7206   1.820   0.101   2.780 -0.3225 -0.0268 -0.1938
 1784SOL    HW2 7207   1.743   0.058   2.742 -0.6677 -0.0280  0.4911
 1784SOL    HW3 7208   1.894   0.068   2.729 -0.8482  0.6070 -1.4152
 1784SOL    MW4 7209   1.819   0.091   2.768 -0.4374  0.0567 -0.2646
 1785SOL     OW 7210   1.753   0.422   3.135  0.3852 -0.6013 -0.6136
 1785SOL    HW2 7211   1.767   0.333   3.106  1.3338  0.1108 -2.4016
 1785SOL    HW3 7212   1.676   0.452   3.087 -0.5975 -0.7974  0.7990
 1785SOL    MW4 7213   1.745   0.414   3.125  0.3808 -0.5332 -0.6630
 1786SOL     OW 7214   1.980   0.536   3.015  0.0190 -0.4598 -0.0617
 1786SOL    HW2 7215   1.894   0.505   3.044  0.8618 -2.2362  0.6155
 1786SOL    HW3 7216   1.985   0.508   2.923 -0.2132 -0.1504 -0.1699
 1786SOL    MW4 7217   1.969   0.528   3.006  0.0995 -0.6534  0.0131
 1787SOL     OW 7218   2.017   0.795   3.130  0.0021 -0.0315  0.1190
 1787SOL    HW2 7219   1.936   0.832   3.097  0.0644  0.7760  0.8536
 1787SOL    HW3 7220   2.017   0.704   3.099 -1.4701 -0.2109  0.6160
 1787SOL    MW4 7221   2.006   0.788   3.122 -0.1838  0.0514  0.2816
 1788SOL     OW 7222   1.786   0.887   3.024 -0.0587  0.0255  0.0824
 1788SOL    HW2 7223   1.702   0.849   3.050 -1.3271  1.9242 -1.1157
 1788SOL    HW3 7224   1.787   0.881   2.928  0.3064  1.7595 -0.0419
 1788SOL    MW4 7225   1.775   0.881   3.015 -0.1779  0.5048 -0.0920
 1789SOL     OW 7226   1.759   1.153   3.143 -0.5086  0.0564 -0.2039
 1789SOL    HW2 7227   1.771   1.165   3.237 -1.2147  0.0265 -0.1058
 1789SOL    HW3 7228   1.759   1.058   3.130 -1.9592  0.0107 -0.0118
 1789SOL    MW4 7229   1.761   1.142   3.154 -0.7932  0.0463 -0.1657
 1790SOL     OW 7230   2.004   1.229   3.016 -0.4515 -0.1819 -0.0493
 1790SOL    HW2 7231   2.001   1.324   3.027  0.0276 -0.3276  1.4876
 1790SOL    HW3 7232   1.929   1.196   3.066 -0.6405 -0.6147 -0.6100
 1790SOL    MW4 7233   1.994   1.237   3.024 -0.4133 -0.2582  0.0794
 1791SOL     OW 7234   1.997   1.505   3.072  0.1200 -0.0773  0.4625
 1791SOL    HW2 7235   1.984   1.498   3.167  1.4516  0.1102  0.6780
 1791SOL    HW3 7236   1.917   1.545   3.039 -0.3357 -0.1047  1.5277
 1791SOL    MW4 7237   1.985   1.510   3.081  0.2356 -0.0561  0.6318
 1792SOL     OW 7238   1.768   1.646   2.993  0.4058 -0.2729  0.0085
 1792SOL    HW2 7239   1.770   1.731   3.038 -0.4861  0.2257 -0.8717
 1792SOL    HW3 7240   1.702   1.596   3.040  0.4119 -0.2213  0.0729
 1792SOL    MW4 7241   1.760   1.651   3.005  0.2890 -0.2004 -0.0987
 1793SOL     OW 7242   1.782   1.919   3.088  0.1044 -0.0943 -0.4753
 1793SOL    HW2 7243   1.862   1.958   3.053  0.8847 -0.4098  0.9507
 1793SOL    HW3 7244   1.711   1.972   3.050  1.0676  1.5217 -0.0817
 1793SOL    MW4 7245   1.783   1.931   3.078  0.3344  0.0774 -0.2351
 1794SOL     OW 7246   2.016   2.022   2.981 -0.3872 -0.4306  0.1393
 1794SOL    HW2 7247   2.089   1.973   3.020 -0.4629 -0.3623  0.3620
 1794SOL    HW3 7248   2.037   2.114   2.998  1.0102 -0.2120 -2.3778
 1794SOL    MW4 7249   2.029   2.028   2.988 -0.2129 -0.3927 -0.1636
 1795SOL     OW 7250   2.037   2.288   3.079  0.2947 -0.2046  0.6053
 1795SOL    HW2 7251   2.120   2.328   3.052  1.1433 -1.7929  0.8040
 1795SOL    HW3 7252   1.970   2.343   3.039  1.4615 -0.0209 -1.1631
 1795SOL    MW4 7253   2.039   2.301   3.070  0.5608 -0.3903  0.3982
 1796SOL     OW 7254   1.787   2.436   3.000 -0.7665  0.1401 -0.1080
 1796SOL    HW2 7255   1.797   2.522   3.041  0.0782 -0.5411  1.1599
 1796SOL    HW3 7256   1.719   2.394   3.052 -0.8579 -0.1151 -0.4419
 1796SOL    MW4 7257   1.780   2.442   3.013 -0.6672  0.0165  0.0155
 1797SOL     OW 7258   1.808   2.722   3.077 -0.1270 -0.3016 -0.3525
 1797SOL    HW2 7259   1.810   2.710   3.172 -1.2455 -0.8691 -0.3785
 1797SOL    HW3 7260   1.896   2.749   3.053  0.3946 -1.0018  0.7473
 1797SOL    MW4 7261   1.820   2.724   3.086 -0.2058 -0.4687 -0.2110
 1798SOL     OW 7262   2.069   2.825   3.021 -0.0893  0.3368 -0.1917
 1798SOL    HW2 7263   2.048   2.909   3.061  1.8999  1.3076 -1.1212
 1798SOL    HW3 7264   2.060   2.840   2.927 -0.1375 -0.6077 -0.3465
 1798SOL    MW4 7265   2.065   2.838   3.014  0.1669  0.3400 -0.3350
 1799SOL     OW 7266   2.018   3.072   3.111 -0.1396 -0.0106  0.3525
 1799SOL    HW2 7267   2.027   3.087   3.205 -1.4634  0.4804  0.4212
 1799SOL    HW3 7268   1.928   3.099   3.092 -0.2917 -1.3323 -0.8192
 1799SOL    MW4 7269   2.007   3.078   3.121 -0.3345 -0.1204  0.2069
 1800SOL     OW 7270   1.765   3.162   3.042 -0.2915  0.4468  0.4077
 1800SOL    HW2 7271   1.688   3.110   3.066  0.2104 -0.7331 -0.4384
 1800SOL    HW3 7272   1.751   3.184   2.950  0.7829 -0.5559 -0.0175
 1800SOL    MW4 7273   1.753   3.158   3.033 -0.0834  0.1588  0.2403
 1801SOL     OW 7274   1.802   3.437   3.125  0.2231  0.0038  0.0421
 1801SOL    HW2 7275   1.806   3.345   3.097  2.4812  0.1641 -0.2015
 1801SOL    HW3 7276   1.716   3.467   3.095  0.9527 -0.9626 -3.1800
 1801SOL    MW4 7277   1.791   3.428   3.118  0.6174 -0.1025 -0.4148
 1802SOL     OW 7278   2.005   3.558   2.973  0.4435 -0.0814 -0.2255
 1802SOL    HW2 7279   2.001   3.647   3.007  0.7850  0.5515 -1.8050
 1802SOL    HW3 7280   1.942   3.509   3.026  0.0677  1.1537  0.4852
 1802SOL    MW4 7281   1.996   3.563   2.984  0.4392  0.1647 -0.3400
 1803SOL     OW 7282   2.033   3.830   3.084  0.2328  0.3756  0.0305
 1803SOL    HW2 7283   2.040   3.843   3.179 -0.1250  0.6463  0.0243
 1803SOL    HW3 7284   1.953   3.877   3.060 -0.9150 -1.5867 -0.0594
 1803SOL    MW4 7285   2.023   3.838   3.093  0.0341  0.1523  0.0179
 1804SOL     OW 7286   1.816   3.952   2.994 -0.6975  0.1584  0.0828
 1804SOL    HW2 7287   1.830   4.042   3.025  1.0556  0.0021 -0.1998
 1804SOL    HW3 7288   1.800   3.962   2.900 -0.6083  0.1835  0.0701
 1804SOL    MW4 7289   1.816   3.966   2.986 -0.4544  0.1411  0.0439
 1805SOL     OW 7290   1.829   4.214   3.099  0.3950 -0.2490  0.5018
 1805SOL    HW2 7291   1.898   4.280   3.091  0.6112 -0.4715  0.5038
 1805SOL    HW3 7292   1.805   4.216   3.191 -0.0725  0.2968  0.3734
 1805SOL    MW4 7293   1.835   4.223   3.110  0.3619 -0.2065  0.4852
 1806SOL     OW 7294   2.001   0.007   3.105 -0.0853 -0.3837  0.3221
 1806SOL    HW2 7295   2.018   0.003   3.199  0.9893 -0.0417  0.1465
 1806SOL    HW3 7296   1.921   0.058   3.097  0.4440  0.5684  0.9858
 1806SOL    MW4 7297   1.993   0.013   3.116  0.1264 -0.2129  0.3867
 1807SOL     OW 7298   2.421   0.006   3.130  0.1282 -0.5057  0.8137
 1807SOL    HW2 7299   2.420  -0.085   3.101 -2.9239 -0.7728  1.5941
 1807SOL    HW3 7300   2.351   0.047   3.080 -0.6189  0.6530  2.7626
 1807SOL    MW4 7301   2.411  -0.001   3.119 -0.3729 -0.3877  1.1737
 1808SOL     OW 7302   2.227   0.143   3.000 -0.9096  0.2988 -0.4861
 1808SOL    HW2 7303   2.236   0.236   3.017 -0.0762  0.0986  0.2111
 1808SOL    HW3 7304   2.142   0.119   3.035 -0.9720  0.7284 -0.3509
 1808SOL    MW4 7305   2.217   0.152   3.007 -0.8078  0.3290 -0.3762
 1809SOL     OW 7306   2.223   0.407   3.097  0.0933  0.3211  0.3399
 1809SOL    HW2 7307   2.229   0.401   3.193 -0.0809  1.1088  0.4010
 1809SOL    HW3 7308   2.134   0.438   3.080  0.2480  0.5509 -0.0599
 1809SOL    MW4 7309   2.212   0.411   3.108  0.0904  0.4553  0.2954
 1810SOL     OW 7310   2.468   0.532   3.039 -0.1625 -0.1703 -0.0605
 1810SOL    HW2 7311   2.378   0.500   3.038 -0.2251  0.0248 -0.5773
 1810SOL    HW3 7312   2.493   0.539   2.947  1.0783 -2.1491  0.1115
 1810SOL    MW4 7313   2.460   0.529   3.027 -0.0069 -0.4055 -0.1061
 1811SOL     OW 7314   2.526   0.795   3.138 -0.6590 -0.3681 -0.4674
 1811SOL    HW2 7315   2.453   0.841   3.097 -0.0092  0.5499 -0.6196
 1811SOL    HW3 7316   2.517   0.705   3.109  0.1996  0.3928 -3.2487
 1811SOL    MW4 7317   2.515   0.789   3.129 -0.4601 -0.1466 -0.8543
 1812SOL     OW 7318   2.284   0.926   3.056 -0.0721  0.0657 -0.5176
 1812SOL    HW2 7319   2.278   1.019   3.081 -1.0777  0.6555 -2.8070
 1812SOL    HW3 7320   2.210   0.885   3.100  0.3750  0.3513  0.5110
 1812SOL    MW4 7321   2.274   0.933   3.065 -0.1459  0.1812 -0.6838
 1813SOL     OW 7322   2.254   1.213   3.141 -0.1950  0.0308 -0.1786
 1813SOL    HW2 7323   2.243   1.215   3.236 -0.4862  1.0038 -0.2205
 1813SOL    HW3 7324   2.166   1.229   3.107 -0.1107 -0.4213 -0.6138
 1813SOL    MW4 7325   2.241   1.216   3.149 -0.2227  0.0995 -0.2415
 1814SOL     OW 7326   2.489   1.271   3.002  0.0646 -0.0924  0.1876
 1814SOL    HW2 7327   2.405   1.260   3.045 -0.1583  0.2290 -0.1683
 1814SOL    HW3 7328   2.469   1.271   2.908  0.4000  0.4485  0.1131
 1814SOL    MW4 7329   2.476   1.269   2.995  0.0794  0.0215  0.1309
 1815SOL     OW 7330   2.472   1.512   3.157 -0.1547  0.0540 -0.0213
 1815SOL    HW2 7331   2.392   1.546   3.115 -0.6896 -0.8544  0.2365
 1815SOL    HW3 7332   2.492   1.432   3.108  0.4546  0.1384  0.0873
 1815SOL    MW4 7333   2.464   1.506   3.145 -0.1447 -0.0546  0.0269
 1816SOL     OW 7334   2.262   1.628   3.026  0.4579  0.4582 -0.2991
 1816SOL    HW2 7335   2.173   1.593   3.036 -0.0402  1.4486 -1.0920
 1816SOL    HW3 7336   2.272   1.640   2.932  1.3436  0.5891 -0.1865
 1816SOL    MW4 7337   2.251   1.625   3.015  0.5090  0.6062 -0.3889
 1817SOL     OW 7338   2.228   1.888   3.130  0.0918 -0.0279  0.1300
 1817SOL    HW2 7339   2.305   1.925   3.088  0.0662 -0.8051 -0.6102
 1817SOL    HW3 7340   2.231   1.795   3.109 -1.7190  0.1252 -0.9961
 1817SOL    MW4 7341   2.238   1.881   3.122 -0.1504 -0.1103 -0.1163
 1818SOL     OW 7342   2.463   2.008   3.002 -0.0264 -0.4998 -0.0156
 1818SOL    HW2 7343   2.540   1.955   3.023 -0.2706 -1.3354 -1.2337
 1818SOL    HW3 7344   2.474   2.031   2.910 -0.7483  0.2031  0.0672
 1818SOL    MW4 7345   2.475   2.004   2.993 -0.1538 -0.5174 -0.1655
 1819SOL     OW 7346   2.491   2.275   3.082 -0.0475 -0.1853  0.3302
 1819SOL    HW2 7347   2.491   2.288   3.177 -0.2672  1.1354  0.1509
 1819SOL    HW3 7348   2.498   2.180   3.072 -1.5930 -0.4770  1.6812
 1819SOL    MW4 7349   2.492   2.264   3.094 -0.2801 -0.0496  0.4849
 1820SOL     OW 7350   2.269   2.438   3.009  0.0188  0.1813  0.1026
 1820SOL    HW2 7351   2.269   2.522   3.056 -0.4427 -0.1167  0.6361
 1820SOL    HW3 7352   2.351   2.396   3.033  0.5473  0.7538 -0.6639
 1820SOL    MW4 7353   2.280   2.444   3.018  0.0274  0.2174  0.0718
 1821SOL     OW 7354   2.267   2.675   3.120 -0.2029  0.0777  0.0697
 1821SOL    HW2 7355   2.341   2.731   3.096  0.2830 -0.0136  1.2638
 1821SOL    HW3 7356   2.190   2.723   3.092  0.2734  0.6746 -0.2285
 1821SOL    MW4 7357   2.267   2.689   3.113 -0.0758  0.1445  0.1879
 1822SOL     OW 7358   2.490   2.804   3.028  0.8960 -0.1171  0.2961
 1822SOL    HW2 7359   2.472   2.891   3.065 -1.2620 -0.1608 -0.5800
 1822SOL    HW3 7360   2.476   2.815   2.934  2.4782 -0.9606 -0.0367
 1822SOL    MW4 7361   2.485   2.817   3.020  0.8202 -0.2341  0.1366
 1823SOL     OW 7362   2.442   3.065   3.104 -0.5946  0.0568  0.0154
 1823SOL    HW2 7363   2.513   3.122   3.075 -0.9248  0.5841  0.2302
 1823SOL    HW3 7364   2.363   3.103   3.066 -0.9360  0.2975  0.9410
 1823SOL    MW4 7365   2.441   3.077   3.096 -0.6831  0.1581  0.1659
 1824SOL     OW 7366   2.227   3.196   3.001 -0.0329 -0.2561 -0.3475
 1824SOL    HW2 7367   2.233   3.277   3.052  0.6873 -0.0198 -0.7935
 1824SOL    HW3 7368   2.148   3.153   3.033 -0.3424  0.5557 -0.0008
 1824SOL    MW4 7369   2.217   3.201   3.012  0.0212 -0.1180 -0.3607
 1825SOL     OW 7370   2.219   3.465   3.126 -0.0865  0.0967 -0.2942
 1825SOL    HW2 7371   2.288   3.514   3.081 -0.2251  0.2803 -0.3068
 1825SOL    HW3 7372   2.140   3.484   3.076 -0.2888  0.5081  0.1798
 1825SOL    MW4 7373   2.218   3.474   3.113 -0.1311  0.1752 -0.2334
 1826SOL     OW 7374   2.426   3.620   3.054 -0.0496  0.4597  0.2304
 1826SOL    HW2 7375   2.513   3.584   3.070  0.1770  0.1563 -1.6392
 1826SOL    HW3 7376   2.433   3.712   3.081  1.1228  0.6766 -0.8096
 1826SOL    MW4 7377   2.438   3.628   3.060  0.1352  0.4482 -0.1533
 1827SOL     OW 7378   2.440   3.873   3.160  0.0308 -0.2627  0.4349
 1827SOL    HW2 7379   2.438   3.855   3.254  0.2816 -1.2537  0.2587
 1827SOL    HW3 7380   2.522   3.920   3.147 -0.6587  1.0783  0.9145
 1827SOL    MW4 7381   2.451   3.876   3.171 -0.0272 -0.2165  0.4749
 1828SOL     OW 7382   2.254   3.994   3.011 -0.1203  0.1019  0.1846
 1828SOL    HW2 7383   2.326   3.944   3.049 -1.5219 -2.8724 -0.9515
 1828SOL    HW3 7384   2.175   3.956   3.049 -1.2878  0.6881 -1.5715
 1828SOL    MW4 7385   2.253   3.983   3.021 -0.4592 -0.2131 -0.1972
 1829SOL     OW 7386   2.034   4.412   3.016 -0.3812  0.2151 -0.2527
 1829SOL    HW2 7387   2.023   4.422   2.922  0.2158  0.1958 -0.3260
 1829SOL    HW3 7388   2.034   4.501   3.050  2.1328  0.3694 -0.5873
 1829SOL    MW4 7389   2.032   4.425   3.008  0.0293  0.2322 -0.3064
 1830SOL     OW 7390   2.446   4.400   3.057  0.6508  0.4155  0.2390
 1830SOL    HW2 7391   2.360   4.359   3.073  0.3294  1.1216  0.3379
 1830SOL    HW3 7392   2.454   4.401   2.962  1.2459 -1.0698  0.2551
 1830SOL    MW4 7393   2.436   4.395   3.047  0.6869  0.3128  0.2542
 1831SOL     OW 7394   2.913   4.659   3.120  0.2338  0.5023 -0.5321
 1831SOL    HW2 7395   2.995   4.677   3.073  0.7701 -1.3367 -0.3286
 1831SOL    HW3 7396   2.882   4.577   3.083 -0.9013  0.5829  0.2351
 1831SOL    MW4 7397   2.920   4.650   3.109  0.1550  0.2704 -0.4041
 1832SOL     OW 7398   2.672   0.123   3.020  0.0917  0.4219 -0.4748
 1832SOL    HW2 7399   2.745   0.074   3.056  0.3510  0.7804 -0.5097
 1832SOL    HW3 7400   2.594   0.080   3.056  0.3310  0.3560 -0.0310
 1832SOL    MW4 7401   2.671   0.111   3.030  0.1576  0.4605 -0.4208
 1833SOL     OW 7402   2.700   0.390   3.116  0.0747 -0.3869  0.4516
 1833SOL    HW2 7403   2.718   0.296   3.105  2.1588  0.4057 -3.8910
 1833SOL    HW3 7404   2.608   0.399   3.090  0.0285 -1.1160  0.3323
 1833SOL    MW4 7405   2.690   0.379   3.111  0.3438 -0.3785 -0.1371
 1834SOL     OW 7406   2.906   0.543   3.003  0.3645  0.0829 -0.0681
 1834SOL    HW2 7407   2.825   0.502   3.034  1.2656 -1.9312 -0.3484
 1834SOL    HW3 7408   2.906   0.527   2.909  1.8273 -1.2534  0.1479
 1834SOL    MW4 7409   2.895   0.536   2.995  0.6766 -0.3591 -0.0768
 1835SOL     OW 7410   2.977   0.780   3.123 -0.6419  0.3724  0.0606
 1835SOL    HW2 7411   2.959   0.767   3.216 -0.7298  1.0661  0.1409
 1835SOL    HW3 7412   2.959   0.695   3.083  0.2293 -0.1762  0.8021
 1835SOL    MW4 7413   2.973   0.767   3.130 -0.5388  0.3915  0.1688
 1836SOL     OW 7414   2.759   0.914   3.038  0.5229  0.3441 -0.2353
 1836SOL    HW2 7415   2.841   0.876   3.068  0.3895 -0.3185 -0.6909
 1836SOL    HW3 7416   2.691   0.867   3.086  0.4159  1.1417  0.4118
 1836SOL    MW4 7417   2.761   0.903   3.048  0.4911  0.3619 -0.2098
 1837SOL     OW 7418   2.728   1.187   3.096 -0.2394 -0.1343 -0.1723
 1837SOL    HW2 7419   2.737   1.092   3.094 -0.4685 -0.1388 -0.8889
 1837SOL    HW3 7420   2.648   1.205   3.048 -0.7838  0.3537  0.8865
 1837SOL    MW4 7421   2.718   1.177   3.090 -0.3414 -0.0706 -0.1271
 1838SOL     OW 7422   2.965   1.304   3.017 -0.0880 -0.9827  0.2902
 1838SOL    HW2 7423   2.968   1.393   3.053 -1.8040 -0.8491  0.1128
 1838SOL    HW3 7424   2.886   1.265   3.054 -0.4910 -1.7127 -1.2917
 1838SOL    MW4 7425   2.955   1.311   3.026 -0.3679 -1.0614  0.0582
 1839SOL     OW 7426   2.938   1.563   3.113 -0.2881 -0.1090 -0.3223
 1839SOL    HW2 7427   2.956   1.569   3.207 -2.2963  0.6772  0.0384
 1839SOL    HW3 7428   3.018   1.594   3.071  0.2806  0.4349  1.1435
 1839SOL    MW4 7429   2.951   1.568   3.120 -0.4780  0.0665 -0.0813
 1840SOL     OW 7430   2.691   1.652   3.039  0.1677  0.2316 -0.1582
 1840SOL    HW2 7431   2.764   1.604   3.078  0.2154  0.9111  0.6097
 1840SOL    HW3 7432   2.613   1.618   3.083  0.2814  1.4864  1.0608
 1840SOL    MW4 7433   2.690   1.641   3.050  0.1891  0.4867  0.1040
 1841SOL     OW 7434   2.710   1.929   3.104  0.1837  0.2560 -0.0441
 1841SOL    HW2 7435   2.783   1.976   3.064  0.6424  0.5993  1.1730
 1841SOL    HW3 7436   2.719   1.838   3.073  0.0568  0.6699 -1.3399
 1841SOL    MW4 7437   2.721   1.923   3.095  0.2275  0.3558 -0.0544
 1842SOL     OW 7438   2.929   2.062   3.005  0.0804  0.0352 -0.1274
 1842SOL    HW2 7439   2.938   2.151   3.038 -1.7690  0.2771 -0.2554
 1842SOL    HW3 7440   2.914   2.073   2.911 -2.0321 -0.3234  0.1618
 1842SOL    MW4 7441   2.928   2.075   2.997 -0.4423  0.0196 -0.1061
 1843SOL     OW 7442   2.901   2.323   3.100  0.2616  0.0593 -0.1320
 1843SOL    HW2 7443   2.881   2.344   3.192 -0.6446 -0.2318 -0.2589
 1843SOL    HW3 7444   2.835   2.371   3.050  2.1529  2.0587 -0.7709
 1843SOL    MW4 7445   2.890   2.333   3.106  0.3917  0.2847 -0.2329
 1844SOL     OW 7446   2.693   2.439   2.980  0.0461  0.2292 -0.1089
 1844SOL    HW2 7447   2.701   2.520   3.029  0.0369  0.5049 -0.5652
 1844SOL    HW3 7448   2.623   2.391   3.024  0.5061  0.1755  0.5663
 1844SOL    MW4 7449   2.685   2.443   2.992  0.1056  0.2587 -0.0801
 1845SOL     OW 7450   2.729   2.704   3.096 -0.1527  0.1805 -0.5971
 1845SOL    HW2 7451   2.744   2.718   3.190 -1.1564 -3.3438  0.1497
 1845SOL    HW3 7452   2.640   2.736   3.082 -1.1059 -1.9567  0.3287
 1845SOL    MW4 7453   2.719   2.710   3.107 -0.4110 -0.5665 -0.3762
 1846SOL     OW 7454   2.939   2.869   2.982 -0.0335  0.2886 -0.5447
 1846SOL    HW2 7455   3.019   2.840   3.026  0.1815  1.1644 -0.3560
 1846SOL    HW3 7456   2.872   2.806   3.010  1.1632 -2.0936 -2.8387
 1846SOL    MW4 7457   2.941   2.857   2.991  0.1531  0.0901 -0.8225
 1847SOL     OW 7458   2.923   3.115   3.113  0.0392  0.2259  0.4286
 1847SOL    HW2 7459   2.830   3.135   3.101 -0.3835 -1.1961  1.1892
 1847SOL    HW3 7460   2.935   3.032   3.067  0.1930 -1.2081  2.9243
 1847SOL    MW4 7461   2.912   3.107   3.105  0.0041 -0.1509  0.8583
 1848SOL     OW 7462   2.662   3.201   3.025 -0.3295  0.4569  0.2480
 1848SOL    HW2 7463   2.645   3.293   3.046 -0.7592  0.3888  0.1981
 1848SOL    HW3 7464   2.662   3.198   2.929 -2.1442  0.0712  0.2441
 1848SOL    MW4 7465   2.660   3.213   3.015 -0.6258  0.3967  0.2408
 1849SOL     OW 7466   2.662   3.485   3.098 -0.5391  0.2411  0.2819
 1849SOL    HW2 7467   2.676   3.500   3.192 -0.0104  1.1514  0.0680
 1849SOL    HW3 7468   2.743   3.515   3.057 -0.0030 -1.9379 -0.3199
 1849SOL    MW4 7469   2.675   3.491   3.105 -0.3984  0.0739  0.1740
 1850SOL     OW 7470   2.902   3.598   3.037  0.8699 -0.1138  0.0193
 1850SOL    HW2 7471   2.990   3.565   3.054  0.5907 -0.6830  0.3665
 1850SOL    HW3 7472   2.900   3.684   3.081  0.9414 -0.5209  0.8385
 1850SOL    MW4 7473   2.913   3.605   3.045  0.8423 -0.2429  0.1731
 1851SOL     OW 7474   2.895   3.854   3.136  0.5983 -0.1390  0.1425
 1851SOL    HW2 7475   2.904   3.843   3.231 -0.3513 -1.9402  0.0456
 1851SOL    HW3 7476   2.804   3.879   3.124 -0.1149 -2.9436 -0.5193
 1851SOL    MW4 7477   2.884   3.856   3.147  0.3791 -0.7465  0.0422
 1852SOL     OW 7478   2.659   3.997   3.049 -0.0709 -0.0790 -0.2362
 1852SOL    HW2 7479   2.694   4.083   3.071  0.1222 -0.0304 -0.7257
 1852SOL    HW3 7480   2.665   3.992   2.954  1.9901 -1.5087 -0.0590
 1852SOL    MW4 7481   2.664   4.008   3.040  0.2263 -0.2618 -0.2775
 1853SOL     OW 7482   2.678   4.269   3.139  0.5603  0.3000  0.2981
 1853SOL    HW2 7483   2.683   4.268   3.235  0.3040  1.1841  0.3180
 1853SOL    HW3 7484   2.587   4.290   3.119  1.0270  1.9159 -0.1477
 1853SOL    MW4 7485   2.666   4.271   3.149  0.5879  0.6294  0.2418
 1854SOL     OW 7486   2.883   4.394   3.028 -0.4653 -0.0008 -0.3494
 1854SOL    HW2 7487   2.957   4.349   3.069 -1.3667 -0.0148  1.2595
 1854SOL    HW3 7488   2.805   4.353   3.065 -1.3046  0.0382 -2.0141
 1854SOL    MW4 7489   2.883   4.383   3.038 -0.6950  0.0029 -0.3567
 1855SOL     OW 7490   3.386   0.002   3.151 -0.3717  0.0751  0.2995
 1855SOL    HW2 7491   3.461   0.052   3.118 -1.1808  1.2355  0.2172
 1855SOL    HW3 7492   3.382  -0.074   3.092 -0.8700  1.3579 -1.3770
 1855SOL    MW4 7493   3.396  -0.002   3.139 -0.5441  0.3977  0.0675
 1856SOL     OW 7494   3.147   0.105   3.010 -0.4477  0.1231  0.0712
 1856SOL    HW2 7495   3.136   0.182   3.065 -1.9542 -0.5839  0.7705
 1856SOL    HW3 7496   3.211   0.051   3.057  0.0118  0.5686 -0.0339
 1856SOL    MW4 7497   3.154   0.108   3.023 -0.5860  0.0886  0.1495
 1857SOL     OW 7498   3.125   0.363   3.136 -0.1166 -0.4360 -0.3864
 1857SOL    HW2 7499   3.200   0.410   3.100  0.1368  0.6125  1.4681
 1857SOL    HW3 7500   3.050   0.418   3.115  0.2575  1.2278  2.4002
 1857SOL    MW4 7501   3.125   0.376   3.128 -0.0336 -0.0781  0.2260
 1858SOL     OW 7502   3.345   0.526   3.051  0.0223 -0.0133  0.5542
 1858SOL    HW2 7503   3.426   0.479   3.067  0.3760  0.3630 -0.1199
 1858SOL    HW3 7504   3.333   0.521   2.956 -1.5317 -1.3844  0.8020
 1858SOL    MW4 7505   3.354   0.519   3.040 -0.1361 -0.1446  0.4981
 1859SOL     OW 7506   3.410   0.799   3.129  0.0449  0.2265  0.2202
 1859SOL    HW2 7507   3.415   0.804   3.224  0.8438  0.4260  0.1691
 1859SOL    HW3 7508   3.386   0.708   3.111 -2.1193  0.6843  0.6794
 1859SOL    MW4 7509   3.407   0.788   3.139 -0.1354  0.3132  0.2742
 1860SOL     OW 7510   3.197   0.926   3.005  0.0540  0.2618 -0.2287
 1860SOL    HW2 7511   3.277   0.881   3.029  0.5502  1.1075 -0.2644
 1860SOL    HW3 7512   3.127   0.876   3.048  0.4727 -1.2718 -1.3307
 1860SOL    MW4 7513   3.198   0.914   3.014  0.1745  0.1711 -0.3788
 1861SOL     OW 7514   3.150   1.161   3.151 -0.3118  0.2160 -0.0327
 1861SOL    HW2 7515   3.159   1.081   3.099 -0.0933  0.4967 -0.4303
 1861SOL    HW3 7516   3.081   1.211   3.107  1.0071  1.2019 -1.0349
 1861SOL    MW4 7517   3.142   1.157   3.138 -0.1090  0.3830 -0.2172
 1862SOL     OW 7518   3.390   1.245   3.008  0.0664  0.1618  0.0544
 1862SOL    HW2 7519   3.456   1.187   3.047 -0.4311 -0.2558  0.2732
 1862SOL    HW3 7520   3.311   1.231   3.060 -0.4518 -0.0002 -0.7638
 1862SOL    MW4 7521   3.389   1.235   3.020 -0.0677  0.0854 -0.0248
 1863SOL     OW 7522   3.410   1.518   3.103  0.6725  0.1902 -0.0681
 1863SOL    HW2 7523   3.388   1.493   3.193 -1.5780  0.4019 -0.5219
 1863SOL    HW3 7524   3.411   1.435   3.055 -0.6386  0.3093 -0.3297
 1863SOL    MW4 7525   3.407   1.504   3.108  0.2027  0.2338 -0.1628
 1864SOL     OW 7526   3.177   1.649   3.012 -0.6541  0.3293  0.3353
 1864SOL    HW2 7527   3.258   1.604   3.035 -1.4630 -1.3812 -0.0354
 1864SOL    HW3 7528   3.184   1.665   2.918  0.2056  2.2043  0.7042
 1864SOL    MW4 7529   3.189   1.645   3.003 -0.6475  0.3510  0.3347
 1865SOL     OW 7530   3.147   1.913   3.111 -0.7179  0.3005  0.2108
 1865SOL    HW2 7531   3.148   1.827   3.068  1.2669  0.3710  0.0854
 1865SOL    HW3 7532   3.074   1.959   3.070 -1.7879 -1.3037  0.2523
 1865SOL    MW4 7533   3.137   1.908   3.100 -0.5975  0.0981  0.1996
 1866SOL     OW 7534   3.372   2.030   3.000 -0.1171 -0.3842  0.0636
 1866SOL    HW2 7535   3.443   1.995   3.055 -1.6894 -1.2394  1.5746
 1866SOL    HW3 7536   3.293   1.989   3.034 -1.4869  1.3863 -0.9444
 1866SOL    MW4 7537   3.371   2.020   3.012 -0.5052 -0.2635  0.1299
 1867SOL     OW 7538   3.330   2.297   3.098  0.5128  0.4385 -0.0521
 1867SOL    HW2 7539   3.347   2.293   3.192 -2.3352 -0.0752  0.4741
 1867SOL    HW3 7540   3.346   2.208   3.068  2.1719  0.7731 -0.2256
 1867SOL    MW4 7541   3.335   2.285   3.107  0.3560  0.4148 -0.0057
 1868SOL     OW 7542   3.126   2.471   3.043  0.1686  0.1537 -0.1173
 1868SOL    HW2 7543   3.197   2.413   3.071 -0.5772 -1.1164 -0.7981
 1868SOL    HW3 7544   3.046   2.424   3.067 -0.4448  1.3791  0.2627
 1868SOL    MW4 7545   3.125   2.457   3.050 -0.0107  0.1478 -0.1571
 1869SOL     OW 7546   3.160   2.752   3.113 -0.4105  0.3606  0.1644
 1869SOL    HW2 7547   3.163   2.765   3.207  2.1461  0.6281  0.0747
 1869SOL    HW3 7548   3.161   2.657   3.102  0.6329  0.3358  0.4005
 1869SOL    MW4 7549   3.161   2.741   3.124  0.0644  0.3927  0.1833
 1870SOL     OW 7550   3.389   2.834   3.000  0.1522  0.0467  0.1007
 1870SOL    HW2 7551   3.407   2.918   3.041 -0.7609  0.7956 -1.0146
 1870SOL    HW3 7552   3.303   2.808   3.033 -0.1309  0.1612 -0.5385
 1870SOL    MW4 7553   3.380   2.842   3.010 -0.0057  0.1607 -0.1307
 1871SOL     OW 7554   3.374   3.129   3.099 -0.1000 -0.2662  0.1685
 1871SOL    HW2 7555   3.383   3.136   3.195 -0.1187 -0.4416  0.1824
 1871SOL    HW3 7556   3.282   3.145   3.083  0.0016  0.2947  0.1344
 1871SOL    MW4 7557   3.363   3.132   3.110 -0.0889 -0.2153  0.1659
 1872SOL     OW 7558   3.136   3.256   3.007  0.1847  0.4042 -0.2437
 1872SOL    HW2 7559   3.054   3.214   3.034  0.5302 -0.5768 -0.7109
 1872SOL    HW3 7560   3.132   3.260   2.912  1.4287 -1.2083 -0.3771
 1872SOL    MW4 7561   3.125   3.251   2.998  0.3943  0.0622 -0.3228
 1873SOL     OW 7562   3.168   3.500   3.119 -0.1734 -0.3725 -0.2167
 1873SOL    HW2 7563   3.248   3.534   3.079  1.2734 -1.8189  1.4250
 1873SOL    HW3 7564   3.152   3.417   3.074 -0.4757 -0.3387 -0.1748
 1873SOL    MW4 7565   3.176   3.493   3.107 -0.0224 -0.5593  0.0055
 1874SOL     OW 7566   3.381   3.627   2.986  0.2632 -0.4787 -0.0685
 1874SOL    HW2 7567   3.449   3.586   3.039 -0.4775 -2.4893 -0.6163
 1874SOL    HW3 7568   3.377   3.717   3.017  1.2963 -1.0579  1.8069
 1874SOL    MW4 7569   3.390   3.634   2.997  0.3016 -0.8206  0.1068
 1875SOL     OW 7570   3.328   3.894   3.110 -0.1999 -0.3751  0.4984
 1875SOL    HW2 7571   3.348   3.899   3.204  0.2154  1.0898  0.3454
 1875SOL    HW3 7572   3.241   3.931   3.102 -0.8055 -1.7814  0.4706
 1875SOL    MW4 7573   3.319   3.900   3.122 -0.2253 -0.3674  0.4745
 1876SOL     OW 7574   3.112   4.025   3.048  0.0926  0.1637  0.0481
 1876SOL    HW2 7575   3.044   3.968   3.085 -2.0069  1.7012 -1.2969
 1876SOL    HW3 7576   3.096   4.024   2.954  1.2609  1.4287 -0.1805
 1876SOL    MW4 7577   3.101   4.018   3.040 -0.0300  0.5341 -0.1595
 1877SOL     OW 7578   3.105   4.281   3.155 -0.2988  0.2364 -0.2035
 1877SOL    HW2 7579   3.130   4.268   3.247  0.1907  0.0960 -0.3520
 1877SOL    HW3 7580   3.108   4.194   3.117 -0.2320  0.3309 -0.4166
 1877SOL    MW4 7581   3.109   4.268   3.162 -0.2253  0.2303 -0.2511
 1878SOL     OW 7582   3.325   4.407   3.044 -0.2949 -0.4289 -0.1056
 1878SOL    HW2 7583   3.402   4.376   3.091  0.8730  1.4923 -0.6889
 1878SOL    HW3 7584   3.251   4.370   3.092  0.9029  0.1735  2.2883
 1878SOL    MW4 7585   3.325   4.398   3.056  0.0172 -0.0963  0.1330
 1879SOL     OW 7586   3.828   4.648   3.155 -0.2388 -0.1287  0.6244
 1879SOL    HW2 7587   3.825   4.559   3.120  1.6283  1.0608 -2.8161
 1879SOL    HW3 7588   3.745   4.688   3.130  0.6862  0.4015 -1.6886
 1879SOL    MW4 7589   3.817   4.642   3.147  0.1295  0.0987 -0.1347
 1880SOL     OW 7590   3.600   0.116   3.052 -0.1509 -0.2245 -0.2278
 1880SOL    HW2 7591   3.598   0.207   3.080  0.0105  0.1158 -1.3146
 1880SOL    HW3 7592   3.597   0.120   2.957  1.1635 -1.3070 -0.3298
 1880SOL    MW4 7593   3.599   0.128   3.044  0.0441 -0.3224 -0.3846
 1881SOL     OW 7594   3.573   0.383   3.114 -0.2532  0.3860 -0.0582
 1881SOL    HW2 7595   3.571   0.394   3.209 -2.7776  2.1455 -0.2434
 1881SOL    HW3 7596   3.659   0.414   3.088  0.8996 -1.1646  1.7408
 1881SOL    MW4 7597   3.584   0.388   3.123 -0.4342  0.4136  0.1547
 1882SOL     OW 7598   3.822   0.451   3.023  0.3656 -0.1147  0.1381
 1882SOL    HW2 7599   3.906   0.420   3.059  0.1092  0.0166  0.8662
 1882SOL    HW3 7600   3.819   0.543   3.048  0.7971  0.3346 -1.3975
 1882SOL    MW4 7601   3.833   0.459   3.031  0.3886 -0.0381  0.0315
 1883SOL     OW 7602   3.836   0.715   3.099  0.2203 -0.5250  0.0905
 1883SOL    HW2 7603   3.838   0.721   3.194  1.2857 -0.7473  0.0862
 1883SOL    HW3 7604   3.912   0.765   3.069  0.2810 -1.0143 -0.6068
 1883SOL    MW4 7605   3.846   0.722   3.107  0.3686 -0.6189 -0.0019
 1884SOL     OW 7606   3.628   0.892   2.974  0.4070  0.0836 -0.2204
 1884SOL    HW2 7607   3.698   0.852   3.026  0.4109  0.8596  0.3842
 1884SOL    HW3 7608   3.547   0.852   3.008  0.3679  0.9907  0.7576
 1884SOL    MW4 7609   3.626   0.881   2.986  0.4027  0.3057 -0.0114
 1885SOL     OW 7610   3.609   1.107   3.136 -0.3383  0.6458 -0.1539
 1885SOL    HW2 7611   3.673   1.161   3.090 -0.7632  0.2648 -1.2136
 1885SOL    HW3 7612   3.610   1.023   3.090 -1.4929  0.5910 -0.1040
 1885SOL    MW4 7613   3.618   1.103   3.124 -0.5465  0.5883 -0.2871
 1886SOL     OW 7614   3.824   1.271   3.056  0.3796  0.0172 -0.2104
 1886SOL    HW2 7615   3.802   1.361   3.082 -1.3667 -0.6615  0.7124
 1886SOL    HW3 7616   3.838   1.277   2.962  1.7953  1.5398  0.0605
 1886SOL    MW4 7617   3.823   1.284   3.047  0.3362  0.1286 -0.0529
 1887SOL     OW 7618   3.783   1.531   3.152 -0.2654  0.5749 -0.4224
 1887SOL    HW2 7619   3.782   1.525   3.247 -0.8855 -0.8524 -0.4990
 1887SOL    HW3 7620   3.694   1.558   3.129 -0.2668  0.4115 -0.6134
 1887SOL    MW4 7621   3.771   1.534   3.161 -0.3474  0.3650 -0.4573
 1888SOL     OW 7622   3.585   1.717   2.999  0.1904 -0.3045 -0.1402
 1888SOL    HW2 7623   3.514   1.657   3.022 -0.0942  0.0838  0.0096
 1888SOL    HW3 7624   3.600   1.702   2.906  0.9521 -1.4743  0.1704
 1888SOL    MW4 7625   3.577   1.707   2.990  0.2532 -0.4076 -0.0794
 1889SOL     OW 7626   3.602   1.952   3.129 -0.3931  0.0330  0.2574
 1889SOL    HW2 7627   3.593   1.935   3.223 -1.3323 -1.5274 -0.0934
 1889SOL    HW3 7628   3.568   1.873   3.087 -0.7987  1.0633 -1.4150
 1889SOL    MW4 7629   3.596   1.939   3.136 -0.5705 -0.0370 -0.0093
 1890SOL     OW 7630   3.830   2.061   2.986 -0.4500 -0.1027  0.5842
 1890SOL    HW2 7631   3.822   2.151   3.018  0.3632  0.5565 -0.9865
 1890SOL    HW3 7632   3.750   2.017   3.015 -0.9131  1.1742  1.2451
 1890SOL    MW4 7633   3.818   2.067   2.994 -0.4036  0.1526  0.4644
 1891SOL     OW 7634   3.809   2.306   3.103 -0.6191 -0.5061 -0.1570
 1891SOL    HW2 7635   3.800   2.317   3.197  0.0333 -0.0187 -0.1527
 1891SOL    HW3 7636   3.732   2.350   3.067  0.3260  1.3471  0.0340
 1891SOL    MW4 7637   3.797   2.314   3.110 -0.4082 -0.1974 -0.1311
 1892SOL     OW 7638   3.565   2.407   2.998  0.0712 -0.1102 -0.3697
 1892SOL    HW2 7639   3.565   2.498   3.028 -0.4184 -0.3404  0.3467
 1892SOL    HW3 7640   3.491   2.367   3.045 -0.9038 -0.3980 -2.1023
 1892SOL    MW4 7641   3.555   2.414   3.008 -0.1221 -0.1788 -0.5038
 1893SOL     OW 7642   3.591   2.657   3.096  0.1839  0.0795 -0.1382
 1893SOL    HW2 7643   3.673   2.701   3.078  0.1870  0.0819 -0.1160
 1893SOL    HW3 7644   3.527   2.700   3.039  0.4727 -0.8490 -1.1854
 1893SOL    MW4 7645   3.593   2.668   3.086  0.2224 -0.0427 -0.2735
 1894SOL     OW 7646   3.795   2.851   3.033  0.3183  0.1589  0.0494
 1894SOL    HW2 7647   3.783   2.942   3.058  0.1969  0.2841 -0.4469
 1894SOL    HW3 7648   3.807   2.854   2.938  0.3121 -0.3412  0.0314
 1894SOL    MW4 7649   3.795   2.863   3.024  0.3016  0.1097 -0.0184
 1895SOL     OW 7650   3.850   3.121   3.094 -0.0176 -0.1449  0.4125
 1895SOL    HW2 7651   3.928   3.166   3.061 -0.1867 -0.9760 -1.1782
 1895SOL    HW3 7652   3.777   3.177   3.068 -0.0789 -0.2393  0.3813
 1895SOL    MW4 7653   3.851   3.134   3.086 -0.0479 -0.2670  0.1986
 1896SOL     OW 7654   3.619   3.249   3.020 -0.3818  0.0925 -0.1070
 1896SOL    HW2 7655   3.545   3.200   3.057  0.0953 -1.1415 -0.7650
 1896SOL    HW3 7656   3.607   3.242   2.926  0.0674  0.6883 -0.2081
 1896SOL    MW4 7657   3.607   3.241   3.013 -0.2596  0.0083 -0.2072
 1897SOL     OW 7658   3.598   3.510   3.101 -0.0625  0.3283  0.1538
 1897SOL    HW2 7659   3.674   3.554   3.062 -0.1129 -0.2990 -0.6688
 1897SOL    HW3 7660   3.599   3.423   3.062 -1.2379  0.3408  0.0944
 1897SOL    MW4 7661   3.608   3.504   3.091 -0.2241  0.2472  0.0374
 1898SOL     OW 7662   3.820   3.646   3.020  0.1259 -0.0700 -0.4051
 1898SOL    HW2 7663   3.832   3.740   3.038  1.9439 -0.6947  1.9479
 1898SOL    HW3 7664   3.843   3.637   2.928  0.8531  1.6590 -0.4274
 1898SOL    MW4 7665   3.825   3.657   3.011  0.4616  0.0758 -0.0978
 1899SOL     OW 7666   3.818   3.922   3.080 -0.1338  0.0254 -0.2151
 1899SOL    HW2 7667   3.808   3.905   3.174 -0.0699  0.4755 -0.1251
 1899SOL    HW3 7668   3.735   3.964   3.055  0.2233  0.7694 -0.1594
 1899SOL    MW4 7669   3.806   3.925   3.090 -0.0782  0.1831 -0.1957
 1900SOL     OW 7670   3.551   4.050   3.025  0.1406  0.1308  0.0943
 1900SOL    HW2 7671   3.478   3.995   3.050  1.1190 -0.7686  1.0270
 1900SOL    HW3 7672   3.547   4.055   2.930 -0.0899 -1.3685  0.0210
 1900SOL    MW4 7673   3.541   4.044   3.016  0.2394 -0.1855  0.2079
 1901SOL     OW 7674   3.567   4.308   3.149 -0.1027 -0.1174 -0.0223
 1901SOL    HW2 7675   3.655   4.337   3.126 -1.1971  1.7361 -2.1023
 1901SOL    HW3 7676   3.557   4.224   3.105  0.5462 -0.2255  0.0360
 1901SOL    MW4 7677   3.577   4.301   3.140 -0.1614  0.1125 -0.2890
 1902SOL     OW 7678   3.822   4.386   3.055 -0.0676  0.1497  0.0131
 1902SOL    HW2 7679   3.906   4.347   3.080  0.2764  0.5517 -0.5088
 1902SOL    HW3 7680   3.826   4.393   2.960 -0.1654  1.3571  0.0875
 1902SOL    MW4 7681   3.834   4.382   3.046 -0.0353  0.3619 -0.0458
 1903SOL     OW 7682   4.243   4.616   3.061  0.6285 -0.2923  0.2159
 1903SOL    HW2 7683   4.247   4.623   3.157 -1.8076  0.1108  0.3338
 1903SOL    HW3 7684   4.273   4.527   3.042  1.8584 -0.1181  1.2952
 1903SOL    MW4 7685   4.247   4.605   3.071  0.4697 -0.2160  0.3738
 1904SOL     OW 7686   4.017   0.091   2.968 -0.3576  0.1612 -0.5100
 1904SOL    HW2 7687   4.096   0.046   2.998 -0.1346  0.1988 -1.0398
 1904SOL    HW3 7688   3.945   0.048   3.016 -0.1937 -1.0576 -1.3238
 1904SOL    MW4 7689   4.018   0.079   2.979 -0.3066  0.0054 -0.6874
 1905SOL     OW 7690   4.057   0.332   3.097 -0.0868 -0.4022  0.1805
 1905SOL    HW2 7691   4.141   0.375   3.083 -0.9962  1.1098 -0.8182
 1905SOL    HW3 7692   4.059   0.256   3.039 -0.2032  0.7675 -1.3928
 1905SOL    MW4 7693   4.068   0.327   3.087 -0.2217 -0.0484 -0.1590
 1906SOL     OW 7694   4.283   0.488   3.068  0.1682  0.1999  0.4591
 1906SOL    HW2 7695   4.277   0.582   3.088 -1.0939 -0.1109  1.6235
 1906SOL    HW3 7696   4.306   0.485   2.975  0.9098  1.6670  0.5837
 1906SOL    MW4 7697   4.285   0.500   3.059  0.1001  0.3525  0.6292
 1907SOL     OW 7698   4.299   0.758   3.092  0.0737  0.5088  0.7681
 1907SOL    HW2 7699   4.214   0.791   3.062 -0.5131 -0.2873  1.5215
 1907SOL    HW3 7700   4.362   0.825   3.064 -0.7050  0.7646 -0.4280
 1907SOL    MW4 7701   4.296   0.771   3.084 -0.1068  0.4375  0.7098
 1908SOL     OW 7702   4.056   0.876   3.019 -0.4432  0.2386 -0.3543
 1908SOL    HW2 7703   4.027   0.960   3.054 -0.2374  0.0642  0.2547
 1908SOL    HW3 7704   4.043   0.883   2.925 -2.9731 -0.0295 -0.0478
 1908SOL    MW4 7705   4.051   0.888   3.011 -0.7501  0.1803 -0.2334
 1909SOL     OW 7706   4.026   1.121   3.171 -0.2447 -0.3734  0.0199
 1909SOL    HW2 7707   4.039   1.126   3.266  0.6347  0.2270 -0.1221
 1909SOL    HW3 7708   3.959   1.187   3.152 -0.7181 -0.7765  0.2697
 1909SOL    MW4 7709   4.019   1.130   3.181 -0.1907 -0.3473  0.0341
 1910SOL     OW 7710   4.217   1.277   3.065 -0.3139  0.3068  0.5071
 1910SOL    HW2 7711   4.142   1.222   3.091 -1.8015  2.2330  0.4326
 1910SOL    HW3 7712   4.238   1.248   2.977 -2.3619  1.1570 -0.2864
 1910SOL    MW4 7713   4.210   1.266   3.057 -0.7806  0.6731  0.3927
 1911SOL     OW 7714   4.234   1.531   3.158  0.1620  0.4276  0.0500
 1911SOL    HW2 7715   4.165   1.583   3.115  0.3696  1.1847  0.6196
 1911SOL    HW3 7716   4.217   1.441   3.129 -2.2317  0.3081  1.6625
 1911SOL    MW4 7717   4.222   1.526   3.148 -0.1268  0.5115  0.3378
 1912SOL     OW 7718   4.037   1.650   2.995  0.4594  0.2456 -0.1108
 1912SOL    HW2 7719   4.021   1.736   3.033  0.3491 -0.3599  1.2219
 1912SOL    HW3 7720   3.956   1.602   3.009  0.1439  0.2424 -1.7891
 1912SOL    MW4 7721   4.024   1.655   3.002  0.4034  0.1653 -0.1564
 1913SOL     OW 7722   4.042   1.911   3.128  0.3718  0.2642  0.5755
 1913SOL    HW2 7723   4.118   1.961   3.098  0.3834  0.2583  0.5951
 1913SOL    HW3 7724   3.967   1.969   3.112  0.4197  0.4231  0.9181
 1913SOL    MW4 7725   4.042   1.925   3.122  0.3796  0.2843  0.6232
 1914SOL     OW 7726   4.293   2.073   3.032 -0.4690  0.0009 -0.0838
 1914SOL    HW2 7727   4.284   2.166   3.051 -1.9728 -0.4240  1.3815
 1914SOL    HW3 7728   4.293   2.068   2.936 -0.9355  1.4608 -0.1659
 1914SOL    MW4 7729   4.292   2.084   3.022 -0.7291  0.1373  0.0987
 1915SOL     OW 7730   4.264   2.336   3.106 -0.0168  0.3434 -0.1615
 1915SOL    HW2 7731   4.178   2.365   3.076 -0.4841 -1.0236 -0.1731
 1915SOL    HW3 7732   4.325   2.371   3.041 -0.7244 -0.0391 -1.0419
 1915SOL    MW4 7733   4.261   2.345   3.093 -0.1726  0.1123 -0.2792
 1916SOL     OW 7734   4.028   2.436   3.001 -0.0754  0.0100 -0.0460
 1916SOL    HW2 7735   4.029   2.526   3.036 -1.6283  0.3717 -0.8716
 1916SOL    HW3 7736   3.945   2.400   3.032 -0.6278 -0.2726 -1.8221
 1916SOL    MW4 7737   4.017   2.443   3.010 -0.3533  0.0200 -0.3891
 1917SOL     OW 7738   4.016   2.695   3.101 -0.3533  0.7481  0.1888
 1917SOL    HW2 7739   4.024   2.694   3.196 -0.5220  0.1640  0.1968
 1917SOL    HW3 7740   3.941   2.752   3.084 -0.5003  0.6227  0.4172
 1917SOL    MW4 7741   4.007   2.702   3.111 -0.3948  0.6547  0.2198
 1918SOL     OW 7742   4.256   2.823   3.029 -0.2718 -0.3014 -0.3794
 1918SOL    HW2 7743   4.180   2.774   3.061 -0.1338 -0.9963 -1.0939
 1918SOL    HW3 7744   4.331   2.773   3.061 -0.1338 -0.8619 -1.5614
 1918SOL    MW4 7745   4.256   2.810   3.038 -0.2360 -0.4668 -0.6294
 1919SOL     OW 7746   4.303   3.086   3.114 -0.3312  0.2756  0.8280
 1919SOL    HW2 7747   4.234   3.145   3.085 -1.3758 -0.5293  1.6531
 1919SOL    HW3 7748   4.278   3.001   3.080  1.2974  0.3257 -0.5685
 1919SOL    MW4 7749   4.291   3.083   3.106 -0.2537  0.1762  0.7524
 1920SOL     OW 7750   4.076   3.255   3.000  0.0208  0.4467 -0.6110
 1920SOL    HW2 7751   4.062   3.347   3.021  0.2830  0.5811 -1.0338
 1920SOL    HW3 7752   4.098   3.254   2.907 -1.6867 -0.2020 -1.0233
 1920SOL    MW4 7753   4.077   3.267   2.991 -0.1702  0.3788 -0.7212
 1921SOL     OW 7754   4.058   3.524   3.084 -0.2850 -0.1302 -0.4058
 1921SOL    HW2 7755   4.066   3.519   3.180  0.8866  0.2138 -0.4764
 1921SOL    HW3 7756   3.973   3.565   3.070  0.1900  1.2285  0.5244
 1921SOL    MW4 7757   4.048   3.528   3.095 -0.0677  0.0947 -0.2923
 1922SOL     OW 7758   4.290   3.625   2.981  0.4738 -0.2537 -0.3713
 1922SOL    HW2 7759   4.294   3.708   3.029  0.2371  0.4280 -1.5207
 1922SOL    HW3 7760   4.205   3.589   3.003  0.3826  0.0391 -0.2400
 1922SOL    MW4 7761   4.280   3.631   2.990  0.4306 -0.1249 -0.5054
 1923SOL     OW 7762   4.278   3.876   3.125 -0.3540 -0.7705  0.4356
 1923SOL    HW2 7763   4.212   3.916   3.069  0.6110  1.1222  0.6177
 1923SOL    HW3 7764   4.361   3.917   3.098  0.5052 -1.8407  1.3819
 1923SOL    MW4 7765   4.280   3.887   3.114 -0.1135 -0.6621  0.5844
 1924SOL     OW 7766   4.063   4.005   3.000 -0.6614  0.2973  0.2328
 1924SOL    HW2 7767   4.056   4.094   3.035  0.8866  0.9135 -0.9930
 1924SOL    HW3 7768   3.981   3.963   3.026 -1.5809  2.1959  0.4972
 1924SOL    MW4 7769   4.051   4.011   3.008 -0.5784  0.6285  0.1059
 1925SOL     OW 7770   4.052   4.254   3.128  0.2820 -0.1997 -0.5639
 1925SOL    HW2 7771   4.051   4.249   3.223  1.1938 -1.4479 -0.6022
 1925SOL    HW3 7772   4.139   4.286   3.105 -0.7505  2.4725 -0.9150
 1925SOL    MW4 7773   4.063   4.257   3.137  0.2661 -0.0119 -0.6154
 1926SOL     OW 7774   4.298   4.332   3.025 -0.1219 -0.4085 -0.4979
 1926SOL    HW2 7775   4.381   4.290   3.048 -0.0229 -1.1464 -2.1899
 1926SOL    HW3 7776   4.296   4.332   2.930 -2.5322 -1.3061 -0.4743
 1926SOL    MW4 7777   4.309   4.326   3.016 -0.4272 -0.6242 -0.7184
 1927SOL     OW 7778   0.175   4.628   3.407 -0.0152  0.0783  0.0469
 1927SOL    HW2 7779   0.258   4.671   3.430 -0.0391  0.2699 -0.2221
 1927SOL    HW3 7780   0.195   4.535   3.410  0.0467  0.1038  0.6039
 1927SOL    MW4 7781   0.189   4.622   3.411 -0.0102  0.1068  0.0851
 1928SOL     OW 7782   4.469   0.114   3.516  0.4043  0.5586 -0.0246
 1928SOL    HW2 7783   4.491   0.200   3.481  1.8422 -0.1738 -0.9236
 1928SOL    HW3 7784   4.543   0.058   3.493  0.1124 -0.6040  1.7502
 1928SOL    MW4 7785   4.482   0.118   3.508  0.5555  0.3085  0.0913
 1929SOL     OW 7786   0.041   0.350   3.387 -0.0243 -0.3462 -0.0893
 1929SOL    HW2 7787  -0.034   0.394   3.425  0.3785 -0.1586  0.4937
 1929SOL    HW3 7788   0.116   0.405   3.410  0.4086 -1.0172  0.1517
 1929SOL    MW4 7789   0.041   0.363   3.395  0.0859 -0.4100  0.0193
 1930SOL     OW 7790   0.256   0.491   3.489 -0.0357 -0.3100  0.8585
 1930SOL    HW2 7791   0.326   0.444   3.444 -2.2550 -0.9704 -1.9926
 1930SOL    HW3 7792   0.249   0.574   3.443  1.3146  1.3298  3.4922
 1930SOL    MW4 7793   0.265   0.496   3.477 -0.1503 -0.1808  0.8299
 1931SOL     OW 7794   0.200   0.754   3.395 -0.0068 -0.2996  0.3618
 1931SOL    HW2 7795   0.281   0.791   3.431 -1.1074  0.8670  1.6899
 1931SOL    HW3 7796   0.130   0.793   3.448 -1.4277 -1.4870 -0.6045
 1931SOL    MW4 7797   0.201   0.764   3.406 -0.3395 -0.3023  0.4096
 1932SOL     OW 7798   4.478   0.881   3.531 -0.4882  0.4204  0.1011
 1932SOL    HW2 7799   4.469   0.870   3.626  2.7845 -0.9144  0.3166
 1932SOL    HW3 7800   4.497   0.974   3.520  0.7730  0.2872  0.9488
 1932SOL    MW4 7801   4.479   0.892   3.542  0.1092  0.2267  0.2413
 1933SOL     OW 7802   0.022   1.140   3.461  0.2534  0.1020 -0.1020
 1933SOL    HW2 7803   0.118   1.140   3.465  0.3346 -0.0519 -1.8574
 1933SOL    HW3 7804   0.002   1.156   3.369 -1.4000 -0.6566  0.1193
 1933SOL    MW4 7805   0.032   1.142   3.449  0.0463 -0.0182 -0.3045
 1934SOL     OW 7806   0.299   1.215   3.500  0.4979 -0.4329 -0.1672
 1934SOL    HW2 7807   0.370   1.176   3.449  1.1028  0.3256  0.0771
 1934SOL    HW3 7808   0.295   1.306   3.469  0.8172  0.0085  1.0824
 1934SOL    MW4 7809   0.308   1.222   3.489  0.6198 -0.2745  0.0298
 1935SOL     OW 7810   0.269   1.485   3.440  0.2226  0.0740  0.0345
 1935SOL    HW2 7811   0.323   1.559   3.468  3.2988 -1.9310 -0.4775
 1935SOL    HW3 7812   0.260   1.496   3.346 -0.1856  0.3411  0.1030
 1935SOL    MW4 7813   0.275   1.496   3.431  0.5746 -0.1554 -0.0241
 1936SOL     OW 7814   0.058   1.656   3.488 -0.3870 -0.2568 -0.0225
 1936SOL    HW2 7815  -0.024   1.615   3.463 -0.4741  0.5148 -1.0192
 1936SOL    HW3 7816   0.124   1.587   3.477 -0.4302  0.0266 -2.3445
 1936SOL    MW4 7817   0.056   1.641   3.483 -0.4042 -0.1177 -0.4604
 1937SOL     OW 7818   4.482   1.929   3.410  0.1018 -0.1205  0.3540
 1937SOL    HW2 7819   4.513   1.845   3.444  0.2901 -0.6538 -1.0912
 1937SOL    HW3 7820   4.480   1.917   3.315 -0.3322  1.3567  0.1634
 1937SOL    MW4 7821   4.485   1.916   3.402  0.0694  0.0039  0.1383
 1938SOL     OW 7822   0.202   2.075   3.511 -0.4966 -0.3986  0.5195
 1938SOL    HW2 7823   0.206   2.071   3.607 -1.0236  0.1590  0.5711
 1938SOL    HW3 7824   0.119   2.032   3.489 -1.1799  0.9377  0.4282
 1938SOL    MW4 7825   0.191   2.069   3.521 -0.6563 -0.1488  0.5143
 1939SOL     OW 7826   0.221   2.325   3.399 -0.1317  0.4659  0.1348
 1939SOL    HW2 7827   0.147   2.380   3.425 -0.5569  0.5699 -1.2367
 1939SOL    HW3 7828   0.207   2.242   3.445 -2.4691 -0.3905 -2.0189
 1939SOL    MW4 7829   0.209   2.321   3.409 -0.4962  0.3667 -0.3304
 1940SOL     OW 7830   0.001   2.467   3.486  0.2476  0.0925 -0.0208
 1940SOL    HW2 7831   0.001   2.462   3.581  0.5528 -0.6497 -0.0650
 1940SOL    HW3 7832  -0.064   2.403   3.458  2.7725 -2.3668 -0.4641
 1940SOL    MW4 7833  -0.008   2.458   3.495  0.6210 -0.3297 -0.0854
 1941SOL     OW 7834   0.002   2.722   3.402  0.2752  0.0431  0.4854
 1941SOL    HW2 7835   0.085   2.756   3.435 -0.3721  1.6113  0.5392
 1941SOL    HW3 7836   0.002   2.630   3.428  1.9000  0.0768  0.6642
 1941SOL    MW4 7837   0.013   2.714   3.410  0.4044  0.2546  0.5159
 1942SOL     OW 7838   0.248   2.819   3.483 -0.6157  0.3122  0.0364
 1942SOL    HW2 7839   0.331   2.776   3.461  0.1372  0.4568  2.4918
 1942SOL    HW3 7840   0.252   2.903   3.438 -0.3574 -0.5143 -1.5384
 1942SOL    MW4 7841   0.259   2.824   3.474 -0.4822  0.2224  0.1526
 1943SOL     OW 7842   0.265   3.065   3.362 -0.2566 -0.3533 -0.3489
 1943SOL    HW2 7843   0.185   3.102   3.398 -0.7125 -1.2287 -0.4406
 1943SOL    HW3 7844   0.252   3.066   3.267  0.7499  1.5148 -0.4935
 1943SOL    MW4 7845   0.253   3.070   3.354 -0.1839 -0.2222 -0.3800
 1944SOL     OW 7846   0.026   3.198   3.469  0.2503 -0.0016  0.0308
 1944SOL    HW2 7847  -0.058   3.167   3.438  0.3333  0.4549 -0.6586
 1944SOL    HW3 7848   0.027   3.291   3.447  0.4969  0.2294  0.9940
 1944SOL    MW4 7849   0.015   3.206   3.462  0.2938  0.0894  0.0670
 1945SOL     OW 7850   0.001   3.457   3.405  0.0081  0.1655 -0.3081
 1945SOL    HW2 7851  -0.070   3.517   3.429  0.5094  0.1858  1.2143
 1945SOL    HW3 7852  -0.000   3.454   3.310  0.0285  2.6517 -0.4051
 1945SOL    MW4 7853  -0.009   3.464   3.396  0.0768  0.4961 -0.1202
 1946SOL     OW 7854   0.232   3.572   3.468  0.5300  0.2397 -0.2058
 1946SOL    HW2 7855   0.236   3.604   3.558  0.9906  0.5825 -0.3476
 1946SOL    HW3 7856   0.140   3.553   3.453  0.3351  0.9882  0.0577
 1946SOL    MW4 7857   0.221   3.574   3.478  0.5650  0.3836 -0.1895
 1947SOL     OW 7858   0.245   3.861   3.408 -0.1731 -0.0325 -0.0107
 1947SOL    HW2 7859   0.165   3.909   3.427 -0.0213 -0.3178  1.3714
 1947SOL    HW3 7860   0.223   3.769   3.424  0.1285 -0.2252 -0.6548
 1947SOL    MW4 7861   0.232   3.855   3.412 -0.1133 -0.0954  0.0868
 1948SOL     OW 7862   0.025   4.010   3.476  0.6422  0.3001 -0.4604
 1948SOL    HW2 7863   0.048   4.017   3.569  0.4487  1.4129 -0.4924
 1948SOL    HW3 7864   0.027   4.100   3.444  0.8007 -0.0882 -1.5629
 1948SOL    MW4 7865   0.028   4.023   3.484  0.6380  0.3958 -0.6104
 1949SOL     OW 7866   4.476   4.274   3.367 -0.7943  0.3539  0.2040
 1949SOL    HW2 7867   4.400   4.304   3.417  1.2179  2.0449  2.3822
 1949SOL    HW3 7868   4.551   4.310   3.414  1.4065 -1.8493 -1.4804
 1949SOL    MW4 7869   4.476   4.283   3.380 -0.2379  0.2861  0.2692
 1950SOL     OW 7870   0.211   4.346   3.476  0.4133 -0.5903 -0.2116
 1950SOL    HW2 7871   0.214   4.355   3.571 -0.2857  0.7780 -0.3121
 1950SOL    HW3 7872   0.294   4.305   3.453  1.0777  0.1263  0.8777
 1950SOL    MW4 7873   0.222   4.342   3.485  0.4088 -0.3147 -0.0813
 1951SOL     OW 7874   0.650   4.656   3.385  0.2641 -0.1733 -0.0037
 1951SOL    HW2 7875   0.725   4.704   3.419 -1.6434  2.9067  0.0422
 1951SOL    HW3 7876   0.647   4.679   3.292 -0.6070 -0.2808 -0.0083
 1951SOL    MW4 7877   0.659   4.665   3.377 -0.1025  0.2189  0.0017
 1952SOL     OW 7878   0.409   0.100   3.489  0.5095 -0.0954  0.1584
 1952SOL    HW2 7879   0.418   0.107   3.584  0.9705 -1.7337  0.2573
 1952SOL    HW3 7880   0.493   0.066   3.459  0.9178  1.8468 -1.0336
 1952SOL    MW4 7881   0.421   0.097   3.497  0.6242 -0.0553  0.0141
 1953SOL     OW 7882   0.460   0.356   3.362 -0.5518  0.0392  0.3510
 1953SOL    HW2 7883   0.536   0.396   3.404  0.9971 -1.0376 -1.3654
 1953SOL    HW3 7884   0.454   0.269   3.402  0.5203 -0.7344 -1.1386
 1953SOL    MW4 7885   0.469   0.350   3.373 -0.2060 -0.2049 -0.0720
 1954SOL     OW 7886   0.663   0.494   3.483  0.4150 -0.4457 -0.0103
 1954SOL    HW2 7887   0.670   0.501   3.578  1.4799  0.4254 -0.1452
 1954SOL    HW3 7888   0.748   0.459   3.456  0.5363  0.4294 -0.7569
 1954SOL    MW4 7889   0.675   0.490   3.492  0.5715 -0.2154 -0.1268
 1955SOL     OW 7890   0.673   0.750   3.387 -0.1949 -0.4857 -0.3385
 1955SOL    HW2 7891   0.599   0.798   3.425 -0.3217 -0.2053 -0.9268
 1955SOL    HW3 7892   0.657   0.659   3.410 -0.9080 -0.4744 -0.7487
 1955SOL    MW4 7893   0.661   0.745   3.395 -0.3057 -0.4473 -0.4702
 1956SOL     OW 7894   0.446   0.872   3.461  0.4001  0.3665  0.4595
 1956SOL    HW2 7895   0.479   0.888   3.549 -0.2938 -1.4865  1.0860
 1956SOL    HW3 7896   0.458   0.955   3.415  2.4579  0.8039  1.7490
 1956SOL    MW4 7897   0.452   0.885   3.467  0.5800  0.1797  0.7124
 1957SOL     OW 7898   0.484   1.101   3.341  0.1802 -0.1450  0.2540
 1957SOL    HW2 7899   0.554   1.161   3.367  0.9210 -1.3135  1.0119
 1957SOL    HW3 7900   0.465   1.125   3.250  0.8326  0.8782  0.3752
 1957SOL    MW4 7901   0.491   1.112   3.332  0.3640 -0.1642  0.3695
 1958SOL     OW 7902   0.658   1.265   3.474  0.4232  0.0875  0.2288
 1958SOL    HW2 7903   0.746   1.229   3.464  0.1188 -0.2786 -1.3064
 1958SOL    HW3 7904   0.667   1.359   3.455  0.5993  0.1808  0.7673
 1958SOL    MW4 7905   0.670   1.273   3.470  0.4062  0.0514  0.0973
 1959SOL     OW 7906   0.681   1.526   3.414 -0.0132 -0.1064  0.1278
 1959SOL    HW2 7907   0.760   1.561   3.455  0.1898 -1.4008  0.8614
 1959SOL    HW3 7908   0.609   1.571   3.459  0.2877  1.0570 -0.5284
 1959SOL    MW4 7909   0.682   1.536   3.426  0.0532 -0.1237  0.1380
 1960SOL     OW 7910   0.453   1.664   3.528  0.3743 -0.3709  0.0562
 1960SOL    HW2 7911   0.452   1.674   3.624 -1.3935  0.2672 -0.0010
 1960SOL    HW3 7912   0.451   1.754   3.495 -0.9662 -0.6060 -0.5564
 1960SOL    MW4 7913   0.452   1.678   3.537 -0.0359 -0.3178 -0.0322
 1961SOL     OW 7914   0.425   1.922   3.407 -0.0013  0.4895  0.0256
 1961SOL    HW2 7915   0.360   1.990   3.428 -2.2784 -1.7898  0.6064
 1961SOL    HW3 7916   0.424   1.918   3.311  0.2352  1.3493 -0.0205
 1961SOL    MW4 7917   0.416   1.931   3.397 -0.2705  0.3021  0.0963
 1962SOL     OW 7918   0.651   2.057   3.522 -0.0828  0.2358  0.3519
 1962SOL    HW2 7919   0.640   2.070   3.616  1.3963 -2.4712  0.9747
 1962SOL    HW3 7920   0.573   2.010   3.495 -1.0210  1.9769 -0.0149
 1962SOL    MW4 7921   0.640   2.052   3.531 -0.0114  0.1082  0.3858
 1963SOL     OW 7922   0.665   2.312   3.395 -0.1979 -0.0782  0.5775
 1963SOL    HW2 7923   0.732   2.368   3.434  0.2357 -1.2474  1.5386
 1963SOL    HW3 7924   0.679   2.227   3.435 -1.3098 -0.7025 -0.3426
 1963SOL    MW4 7925   0.676   2.308   3.405 -0.2874 -0.3147  0.5832
 1964SOL     OW 7926   0.446   2.440   3.537 -0.2276  0.6142  0.2991
 1964SOL    HW2 7927   0.516   2.384   3.503  0.0361  0.8070  0.5149
 1964SOL    HW3 7928   0.370   2.420   3.483 -0.3039 -0.4109  0.7686
 1964SOL    MW4 7929   0.445   2.430   3.526 -0.2029  0.5043  0.3896
 1965SOL     OW 7930   0.465   2.685   3.389 -0.1439 -0.1459  0.4184
 1965SOL    HW2 7931   0.483   2.597   3.423 -0.4449 -0.7867 -1.0424
 1965SOL    HW3 7932   0.465   2.675   3.294  0.0927  1.4977  0.2171
 1965SOL    MW4 7933   0.467   2.672   3.381 -0.1524 -0.0136  0.1991
 1966SOL     OW 7934   0.698   2.834   3.478 -0.4521 -0.1202  0.2004
 1966SOL    HW2 7935   0.776   2.787   3.448 -0.0439 -0.4582  1.7534
 1966SOL    HW3 7936   0.625   2.785   3.441  0.0351 -0.7137  0.0175
 1966SOL    MW4 7937   0.699   2.821   3.469 -0.3339 -0.2429  0.3810
 1967SOL     OW 7938   0.707   3.083   3.364  0.3079  0.1682 -0.0838
 1967SOL    HW2 7939   0.632   3.118   3.412  0.4790  0.5436 -0.0890
 1967SOL    HW3 7940   0.715   2.992   3.395 -0.0316  0.1861  0.0548
 1967SOL    MW4 7941   0.698   3.075   3.375  0.2857  0.2203 -0.0660
 1968SOL     OW 7942   0.489   3.195   3.477 -0.6736  0.1731  0.1315
 1968SOL    HW2 7943   0.465   3.204   3.569 -0.9237 -0.0527  0.0893
 1968SOL    HW3 7944   0.416   3.148   3.437 -0.6477  0.4230 -0.2198
 1968SOL    MW4 7945   0.476   3.190   3.484 -0.7032  0.1762  0.0796
 1969SOL     OW 7946   0.463   3.449   3.368  0.4092  0.1209 -0.0112
 1969SOL    HW2 7947   0.460   3.362   3.408 -0.3945 -0.4923 -1.3741
 1969SOL    HW3 7948   0.387   3.495   3.404  0.7857  0.2299  0.6437
 1969SOL    MW4 7949   0.453   3.444   3.378  0.3528  0.0544 -0.1047
 1970SOL     OW 7950   0.691   3.561   3.484  0.6067 -0.1308 -0.3651
 1970SOL    HW2 7951   0.765   3.505   3.462  0.1289 -0.6393 -0.6909
 1970SOL    HW3 7952   0.616   3.520   3.442 -0.0976 -0.3756  1.0881
 1970SOL    MW4 7953   0.691   3.548   3.476  0.4507 -0.2306 -0.2165
 1971SOL     OW 7954   0.696   3.814   3.391 -0.3745 -0.0110  0.9227
 1971SOL    HW2 7955   0.627   3.870   3.426  0.8649  1.1111  1.5737
 1971SOL    HW3 7956   0.691   3.735   3.445 -0.7278  0.3172  1.3766
 1971SOL    MW4 7957   0.686   3.811   3.403 -0.2576  0.1802  1.0686
 1972SOL     OW 7958   0.480   3.986   3.482  0.4462  0.4493 -0.1284
 1972SOL    HW2 7959   0.473   4.077   3.455 -0.6678  0.1680 -0.8488
 1972SOL    HW3 7960   0.392   3.950   3.469  0.5973 -0.4502  1.1717
 1972SOL    MW4 7961   0.467   3.993   3.477  0.3191  0.2935 -0.0517
 1973SOL     OW 7962   0.455   4.240   3.412 -0.2074 -0.1994  0.3866
 1973SOL    HW2 7963   0.521   4.304   3.438 -1.8629  1.2832  1.0552
 1973SOL    HW3 7964   0.452   4.246   3.317  0.4566 -0.1285  0.3660
 1973SOL    MW4 7965   0.463   4.249   3.403 -0.3382  0.0052  0.4721
 1974SOL     OW 7966   0.679   4.383   3.470  0.2703  0.3414  0.1782
 1974SOL    HW2 7967   0.755   4.339   3.434 -1.0214 -0.8488 -1.1599
 1974SOL    HW3 7968   0.689   4.475   3.444  0.6355 -0.0448 -1.0460
 1974SOL    MW4 7969   0.690   4.389   3.462  0.1480  0.1335 -0.1600
 1975SOL     OW 7970   1.357   0.110   3.506 -0.1027  0.2175 -0.1045
 1975SOL    HW2 7971   1.356   0.115   3.602 -0.1299  0.7346 -0.1275
 1975SOL    HW3 7972   1.392   0.195   3.479  1.9432 -0.7268 -0.4957
 1975SOL    MW4 7973   1.362   0.122   3.515  0.1637  0.1612 -0.1593
 1976SOL     OW 7974   0.904   0.089   3.494 -0.2211  0.1117  0.3098
 1976SOL    HW2 7975   0.910   0.114   3.586 -0.6783 -0.1564  0.4139
 1976SOL    HW3 7976   0.981   0.035   3.478  0.4596  1.0958  0.2402
 1976SOL    MW4 7977   0.915   0.085   3.504 -0.1916  0.2062  0.3142
 1977SOL     OW 7978   0.912   0.363   3.420 -0.0452  0.2579 -0.2381
 1977SOL    HW2 7979   0.997   0.400   3.442  0.0221  0.8484 -1.4547
 1977SOL    HW3 7980   0.916   0.273   3.453  1.1786  0.1672 -0.6161
 1977SOL    MW4 7981   0.923   0.356   3.427  0.1252  0.3239 -0.4487
 1978SOL     OW 7982   1.153   0.464   3.490 -0.2769 -0.3854  0.0548
 1978SOL    HW2 7983   1.149   0.451   3.585  1.4659 -0.5406  0.1245
 1978SOL    HW3 7984   1.161   0.559   3.480 -0.4525 -0.3695  0.0660
 1978SOL    MW4 7985   1.153   0.475   3.501 -0.0701 -0.4037  0.0656
 1979SOL     OW 7986   1.140   0.731   3.431 -0.1433 -0.3166 -0.0661
 1979SOL    HW2 7987   1.215   0.784   3.455 -0.8471  0.8800 -0.4667
 1979SOL    HW3 7988   1.064   0.786   3.452 -0.8530 -0.8067 -1.3129
 1979SOL    MW4 7989   1.140   0.745   3.437 -0.3299 -0.2234 -0.2835
 1980SOL     OW 7990   0.892   0.880   3.502 -0.3943 -0.3037 -0.0234
 1980SOL    HW2 7991   0.897   0.973   3.479  0.2108 -0.8778 -2.3914
 1980SOL    HW3 7992   0.810   0.851   3.462 -1.2320 -0.5149  1.8241
 1980SOL    MW4 7993   0.882   0.888   3.494 -0.4250 -0.4073 -0.0920
 1981SOL     OW 7994   0.902   1.141   3.403  0.1127 -0.2076 -0.2630
 1981SOL    HW2 7995   0.969   1.201   3.435  2.0708 -3.0124  1.0669
 1981SOL    HW3 7996   0.904   1.152   3.307  1.8885  0.3342 -0.1793
 1981SOL    MW4 7997   0.911   1.150   3.394  0.6054 -0.5062 -0.0768
 1982SOL     OW 7998   1.108   1.307   3.488 -0.0221 -0.4644 -0.0123
 1982SOL    HW2 7999   1.113   1.293   3.583 -3.5192 -0.7137  0.2135
 1982SOL    HW3 8000   1.131   1.399   3.476  0.5245 -0.4477  1.0801
 1982SOL    MW4 8001   1.112   1.317   3.499 -0.4114 -0.4951  0.1616
 1983SOL     OW 8002   1.117   1.567   3.409  0.0972 -0.0616 -0.1515
 1983SOL    HW2 8003   1.188   1.621   3.444 -0.6971  0.7942  0.1523
 1983SOL    HW3 8004   1.137   1.559   3.316  1.4172 -1.1120  0.1990
 1983SOL    MW4 8005   1.129   1.573   3.402  0.1665 -0.0871 -0.0651
 1984SOL     OW 8006   0.882   1.687   3.504  0.5599 -0.1743  0.2196
 1984SOL    HW2 8007   0.895   1.775   3.469  0.1017  0.0742  0.6679
 1984SOL    HW3 8008   0.958   1.638   3.474  0.8147  0.3731 -0.0377
 1984SOL    MW4 8009   0.893   1.692   3.496  0.5331 -0.0693  0.2449
 1985SOL     OW 8010   0.869   1.931   3.389 -0.2669 -0.1528  0.1593
 1985SOL    HW2 8011   0.948   1.985   3.401  0.4502 -1.3780  1.1569
 1985SOL    HW3 8012   0.802   1.975   3.442 -0.1571  0.7087 -0.4131
 1985SOL    MW4 8013   0.871   1.944   3.398 -0.1578 -0.2007  0.2158
 1986SOL     OW 8014   1.104   2.056   3.482 -0.0028 -0.3840  0.1684
 1986SOL    HW2 8015   1.182   2.011   3.450 -0.7109 -0.4585 -1.5305
 1986SOL    HW3 8016   1.116   2.147   3.454 -0.7223 -0.4925 -0.5230
 1986SOL    MW4 8017   1.116   2.062   3.474 -0.1911 -0.4082 -0.1469
 1987SOL     OW 8018   1.106   2.339   3.379 -0.1930 -0.3519 -0.0909
 1987SOL    HW2 8019   1.189   2.364   3.419 -0.3190  0.5756 -0.4112
 1987SOL    HW3 8020   1.126   2.330   3.286 -0.4749 -0.0377 -0.1818
 1987SOL    MW4 8021   1.120   2.341   3.372 -0.2470 -0.1881 -0.1452
 1988SOL     OW 8022   0.873   2.456   3.482 -0.0151 -0.3068  0.3366
 1988SOL    HW2 8023   0.883   2.458   3.578  2.0789 -1.0886  0.1685
 1988SOL    HW3 8024   0.949   2.407   3.452 -1.0081 -0.6227 -1.7031
 1988SOL    MW4 8025   0.884   2.450   3.491  0.1301 -0.4516  0.0453
 1989SOL     OW 8026   0.906   2.695   3.339  0.5297 -0.0908  0.1582
 1989SOL    HW2 8027   0.991   2.723   3.372 -0.0317 -0.1003  1.6212
 1989SOL    HW3 8028   0.889   2.611   3.383  0.8319 -1.2847 -1.9199
 1989SOL    MW4 8029   0.915   2.687   3.349  0.4955 -0.2496  0.0768
 1990SOL     OW 8030   1.149   2.797   3.412 -0.0374 -0.2079  0.2095
 1990SOL    HW2 8031   1.154   2.809   3.506 -0.3541 -3.2072  0.6625
 1990SOL    HW3 8032   1.225   2.742   3.390 -2.0865 -2.8529 -0.6209
 1990SOL    MW4 8033   1.159   2.791   3.421 -0.3495 -0.9527  0.1595
 1991SOL     OW 8034   1.156   3.075   3.337  0.3116 -0.3093 -0.6012
 1991SOL    HW2 8035   1.171   2.982   3.350 -0.9658 -0.4180  0.1744
 1991SOL    HW3 8036   1.169   3.088   3.243  0.6071 -1.2397 -0.6934
 1991SOL    MW4 8037   1.160   3.065   3.326  0.1820 -0.4466 -0.5109
 1992SOL     OW 8038   0.947   3.160   3.485 -0.2158  0.7727 -0.2200
 1992SOL    HW2 8039   1.003   3.118   3.420 -1.6271 -1.6421  0.0846
 1992SOL    HW3 8040   0.859   3.131   3.464 -0.7935  0.5131  2.3497
 1992SOL    MW4 8041   0.943   3.151   3.474 -0.4782  0.4199  0.1593
 1993SOL     OW 8042   0.927   3.426   3.420  0.2962  0.4753  0.4882
 1993SOL    HW2 8043   0.944   3.333   3.433  1.7247  0.7847  0.8779
 1993SOL    HW3 8044   0.948   3.442   3.328  0.3560  0.4871  0.5044
 1993SOL    MW4 8045   0.932   3.416   3.410  0.4926  0.5176  0.5419
 1994SOL     OW 8046   1.173   3.542   3.519  0.0327  0.4669 -0.2748
 1994SOL    HW2 8047   1.168   3.542   3.615 -0.1441 -1.5833 -0.2452
 1994SOL    HW3 8048   1.094   3.495   3.492  1.2447 -1.0171 -1.3068
 1994SOL    MW4 8049   1.162   3.536   3.528  0.1692  0.0005 -0.4070
 1995SOL     OW 8050   1.148   3.813   3.427  0.1618  0.0480 -0.3244
 1995SOL    HW2 8051   1.231   3.847   3.461  0.1432 -0.5866  0.3799
 1995SOL    HW3 8052   1.142   3.725   3.464 -0.3651 -0.2635 -1.1599
 1995SOL    MW4 8053   1.158   3.806   3.437  0.0898 -0.0770 -0.3417
 1996SOL     OW 8054   0.916   3.975   3.478  0.0690 -0.3003 -0.3223
 1996SOL    HW2 8055   0.988   3.923   3.440  1.3131  0.3091  1.1299
 1996SOL    HW3 8056   0.837   3.924   3.460  1.1261 -2.0888 -0.0378
 1996SOL    MW4 8057   0.915   3.962   3.471  0.3726 -0.4556 -0.0932
 1997SOL     OW 8058   0.909   4.223   3.394  0.0934 -0.5935  0.2351
 1997SOL    HW2 8059   0.917   4.131   3.420  1.0418 -0.9262 -1.1986
 1997SOL    HW3 8060   0.915   4.222   3.299 -0.8961  0.8595  0.1452
 1997SOL    MW4 8061   0.911   4.211   3.385  0.0880 -0.4454  0.0339
 1998SOL     OW 8062   1.144   4.365   3.471  0.5655 -0.0790  0.1959
 1998SOL    HW2 8063   1.054   4.338   3.450 -0.2349  1.8688  0.9885
 1998SOL    HW3 8064   1.153   4.451   3.430  1.6526  0.2960  1.2049
 1998SOL    MW4 8065   1.133   4.373   3.463  0.6033  0.2275  0.4337
 1999SOL     OW 8066   1.588   4.640   3.396  0.3713  0.4765 -0.2378
 1999SOL    HW2 8067   1.600   4.556   3.440 -1.6739 -0.9318 -2.2276
 1999SOL    HW3 8068   1.509   4.677   3.437  0.1221  0.4944 -0.7322
 1999SOL    MW4 8069   1.579   4.634   3.407  0.0687  0.2928 -0.5658
 2000SOL     OW 8070   1.327   0.117   3.787 -0.7476  0.2442  0.0464
 2000SOL    HW2 8071   1.411   0.079   3.816  0.0253  0.7439 -1.4452
 2000SOL    HW3 8072   1.319   0.198   3.836 -0.3876  0.1542  0.2603
 2000SOL    MW4 8073   1.337   0.122   3.797 -0.5981  0.2983 -0.1223
 2001SOL     OW 8074   1.402   0.366   3.413 -0.0640  0.1739  0.1276
 2001SOL    HW2 8075   1.463   0.431   3.450 -0.8387  1.8614 -1.4884
 2001SOL    HW3 8076   1.315   0.400   3.436 -0.4927  0.1592 -1.4390
 2001SOL    MW4 8077   1.399   0.379   3.421 -0.2228  0.3946 -0.2923
 2002SOL     OW 8078   1.572   0.539   3.544 -0.2568 -0.3864 -0.2162
 2002SOL    HW2 8079   1.565   0.527   3.639  1.4601  0.9998  0.1205
 2002SOL    HW3 8080   1.644   0.482   3.518  0.7573  0.9146 -0.3127
 2002SOL    MW4 8081   1.581   0.530   3.553  0.1034 -0.0318 -0.1845
 2003SOL     OW 8082   1.572   0.746   3.355  0.2405 -0.4572 -0.2837
 2003SOL    HW2 8083   1.491   0.780   3.394 -1.5683 -2.2216 -2.3673
 2003SOL    HW3 8084   1.593   0.669   3.407  0.1232 -0.4910 -0.2870
 2003SOL    MW4 8085   1.564   0.741   3.367 -0.0137 -0.6945 -0.5591
 2004SOL     OW 8086   1.377   0.888   3.485 -0.0164 -0.2893  0.3212
 2004SOL    HW2 8087   1.356   0.893   3.578 -1.1974  0.7182  0.0098
 2004SOL    HW3 8088   1.356   0.975   3.450 -1.6610 -1.2802 -1.2961
 2004SOL    MW4 8089   1.371   0.900   3.492 -0.3893 -0.2871  0.0665
 2005SOL     OW 8090   1.337   1.166   3.374  0.5373 -0.1779  0.0134
 2005SOL    HW2 8091   1.412   1.179   3.433  0.4657  0.6557 -0.0658
 2005SOL    HW3 8092   1.268   1.220   3.412 -0.1606 -1.2944  0.3261
 2005SOL    MW4 8093   1.338   1.175   3.387  0.4359 -0.2153  0.0443
 2006SOL     OW 8094   1.535   1.252   3.540 -0.2873 -0.2814 -0.2233
 2006SOL    HW2 8095   1.542   1.249   3.636  0.1937  1.6541 -0.1738
 2006SOL    HW3 8096   1.622   1.229   3.509 -0.6557 -1.7313 -0.2411
 2006SOL    MW4 8097   1.547   1.248   3.549 -0.2725 -0.2172 -0.2191
 2007SOL     OW 8098   1.506   1.504   3.399  0.0825 -0.0830 -0.2588
 2007SOL    HW2 8099   1.523   1.423   3.446  0.7687  0.8083  1.0680
 2007SOL    HW3 8100   1.584   1.557   3.413 -0.0114  0.4770 -1.8203
 2007SOL    MW4 8101   1.518   1.501   3.407  0.1607  0.1086 -0.2897
 2008SOL     OW 8102   1.343   1.692   3.514  0.3564  0.1903 -0.3753
 2008SOL    HW2 8103   1.352   1.667   3.606 -1.4608 -2.4188 -0.8520
 2008SOL    HW3 8104   1.401   1.632   3.467  0.6410  0.9591 -1.0249
 2008SOL    MW4 8105   1.352   1.681   3.520  0.1541 -0.0523 -0.5238
 2009SOL     OW 8106   1.323   1.941   3.387 -0.2818  0.1759  0.3605
 2009SOL    HW2 8107   1.406   1.983   3.411 -0.2320  0.0229  0.4593
 2009SOL    HW3 8108   1.321   1.861   3.439 -1.1817  0.9059  1.4426
 2009SOL    MW4 8109   1.334   1.936   3.397 -0.3940  0.2520  0.5164
 2010SOL     OW 8110   1.572   2.043   3.490 -0.1638  0.4005  0.2617
 2010SOL    HW2 8111   1.638   1.993   3.443 -0.0374 -0.9205  1.7887
 2010SOL    HW3 8112   1.587   2.134   3.465  0.7337 -0.1390 -1.1863
 2010SOL    MW4 8113   1.582   2.048   3.481 -0.0286  0.1550  0.2723
 2011SOL     OW 8114   1.594   2.298   3.411  0.3307  0.3861 -0.2182
 2011SOL    HW2 8115   1.507   2.317   3.447  0.2095 -0.9766  0.2303
 2011SOL    HW3 8116   1.580   2.295   3.316 -0.1064  0.1793 -0.1500
 2011SOL    MW4 8117   1.580   2.300   3.403  0.2570  0.1791 -0.1500
 2012SOL     OW 8118   1.345   2.390   3.496  0.1635 -0.0775  0.4156
 2012SOL    HW2 8119   1.318   2.393   3.587  1.1348  1.2144  0.6676
 2012SOL    HW3 8120   1.368   2.480   3.474  1.6497 -0.6751 -0.5732
 2012SOL    MW4 8121   1.344   2.402   3.505  0.4877  0.0143  0.3183
 2013SOL     OW 8122   1.398   2.657   3.398  0.0911 -0.4591 -0.1616
 2013SOL    HW2 8123   1.470   2.715   3.424  0.9271 -1.1973 -0.7899
 2013SOL    HW3 8124   1.391   2.670   3.303 -0.2007 -0.8395 -0.1934
 2013SOL    MW4 8125   1.407   2.667   3.389  0.1630 -0.6068 -0.2489
 2014SOL     OW 8126   1.611   2.809   3.470 -0.2240 -0.2883 -0.2798
 2014SOL    HW2 8127   1.696   2.778   3.438 -0.0201 -0.0098 -0.0044
 2014SOL    HW3 8128   1.606   2.900   3.442 -1.0288 -0.6934 -1.4960
 2014SOL    MW4 8129   1.621   2.817   3.462 -0.3031 -0.3052 -0.4039
 2015SOL     OW 8130   1.613   3.065   3.384  0.6947  0.6809  0.2486
 2015SOL    HW2 8131   1.682   3.120   3.421  2.0132  0.4244 -1.7462
 2015SOL    HW3 8132   1.532   3.104   3.416  1.7358  0.8968  2.7793
 2015SOL    MW4 8133   1.611   3.077   3.393  1.0059  0.6757  0.3195
 2016SOL     OW 8134   1.382   3.194   3.459 -0.2159  0.1870 -0.1495
 2016SOL    HW2 8135   1.360   3.186   3.551  1.0310 -0.5982  0.0958
 2016SOL    HW3 8136   1.304   3.165   3.412 -1.1974  1.5032  0.6413
 2016SOL    MW4 8137   1.369   3.189   3.465 -0.1810  0.2570 -0.0129
 2017SOL     OW 8138   1.387   3.453   3.363  0.2141  0.0576 -0.3170
 2017SOL    HW2 8139   1.390   3.366   3.402  0.2838 -0.1604 -0.8003
 2017SOL    HW3 8140   1.318   3.499   3.410  1.4311  0.3613  1.2129
 2017SOL    MW4 8141   1.378   3.448   3.374  0.3839  0.0687 -0.1788
 2018SOL     OW 8142   1.614   3.597   3.491 -0.0039 -0.1728  0.0533
 2018SOL    HW2 8143   1.585   3.590   3.582 -1.3659  0.2558 -0.3331
 2018SOL    HW3 8144   1.542   3.559   3.440  1.5559 -2.1262 -0.7442
 2018SOL    MW4 8145   1.600   3.591   3.497  0.0222 -0.3738 -0.1032
 2019SOL     OW 8146   1.606   3.885   3.401 -0.7638 -0.2688 -0.1185
 2019SOL    HW2 8147   1.622   3.800   3.440 -2.0012 -0.3811  0.1841
 2019SOL    HW3 8148   1.597   3.868   3.307  0.0828 -0.3042 -0.1978
 2019SOL    MW4 8149   1.607   3.872   3.394 -0.8154 -0.2885 -0.0889
 2020SOL     OW 8150   1.378   3.956   3.495 -0.4461 -0.7467 -0.0254
 2020SOL    HW2 8151   1.369   4.041   3.454  1.2795 -0.2979  0.5082
 2020SOL    HW3 8152   1.464   3.924   3.469  0.0544 -1.1269  1.9531
 2020SOL    MW4 8153   1.388   3.963   3.486 -0.1525 -0.7377  0.3061
 2021SOL     OW 8154   1.373   4.209   3.351  0.1268  0.4956  0.1396
 2021SOL    HW2 8155   1.286   4.247   3.364 -0.1236 -0.0719  0.1251
 2021SOL    HW3 8156   1.398   4.234   3.262 -1.1695 -1.6077 -0.8599
 2021SOL    MW4 8157   1.365   4.217   3.341 -0.0774  0.1435  0.0060
 2022SOL     OW 8158   1.567   4.360   3.481  0.0288 -0.4604  0.1985
 2022SOL    HW2 8159   1.570   4.375   3.576 -0.3995 -0.3154  0.1882
 2022SOL    HW3 8160   1.493   4.301   3.469 -1.5903  1.6176 -0.3255
 2022SOL    MW4 8161   1.558   4.354   3.492 -0.2413 -0.1674  0.1278
 2023SOL     OW 8162   2.032   0.014   3.388 -0.4217 -0.1562 -0.0039
 2023SOL    HW2 8163   2.111   0.045   3.433  0.9348 -2.8210 -0.3860
 2023SOL    HW3 8164   1.959   0.052   3.437  1.0545 -0.6039  2.6540
 2023SOL    MW4 8165   2.033   0.023   3.400 -0.0477 -0.5669  0.2964
 2024SOL     OW 8166   1.793   0.107   3.503  0.0064 -0.1332 -0.0752
 2024SOL    HW2 8167   1.792   0.095   3.598  1.7310  1.0886  0.1189
 2024SOL    HW3 8168   1.723   0.049   3.471 -0.1515 -1.0662  1.8616
 2024SOL    MW4 8169   1.784   0.098   3.511  0.2130 -0.0951  0.2058
 2025SOL     OW 8170   1.754   0.371   3.417 -0.1727  0.0444  0.6482
 2025SOL    HW2 8171   1.743   0.277   3.430  1.2523 -0.2935 -0.4785
 2025SOL    HW3 8172   1.743   0.384   3.322  1.6896  0.7044  0.5024
 2025SOL    MW4 8173   1.751   0.361   3.406  0.2609  0.0868  0.4802
 2026SOL     OW 8174   2.003   0.504   3.520 -0.0222 -0.7654  0.6340
 2026SOL    HW2 8175   1.983   0.584   3.472  0.4292  0.3594  2.2809
 2026SOL    HW3 8176   1.923   0.452   3.514 -0.3649 -0.1540 -0.3270
 2026SOL    MW4 8177   1.990   0.508   3.513 -0.0080 -0.5363  0.7243
 2027SOL     OW 8178   1.992   0.783   3.388  0.0948  0.4521 -0.1713
 2027SOL    HW2 8179   2.067   0.834   3.418 -1.9252  3.0304  0.6074
 2027SOL    HW3 8180   1.997   0.788   3.292  1.9104 -0.9672 -0.1969
 2027SOL    MW4 8181   2.003   0.790   3.379  0.0677  0.6050 -0.0718
 2028SOL     OW 8182   1.765   0.919   3.468 -0.2680 -0.0823 -0.2890
 2028SOL    HW2 8183   1.840   0.875   3.429 -0.1871 -0.3970  0.2052
 2028SOL    HW3 8184   1.689   0.870   3.435 -0.2337  0.0116 -0.5056
 2028SOL    MW4 8185   1.765   0.906   3.459 -0.2527 -0.1114 -0.2525
 2029SOL     OW 8186   1.779   1.172   3.419  0.3639 -0.1627 -0.3425
 2029SOL    HW2 8187   1.839   1.207   3.485  1.9791 -0.1552 -1.7831
 2029SOL    HW3 8188   1.776   1.078   3.437  1.0646 -0.2101 -0.4582
 2029SOL    MW4 8189   1.787   1.164   3.430  0.6696 -0.1681 -0.5479
 2030SOL     OW 8190   2.007   1.303   3.549  0.7535 -0.4885  0.3005
 2030SOL    HW2 8191   1.994   1.326   3.641 -1.9872  0.9530 -0.3752
 2030SOL    HW3 8192   1.994   1.386   3.502  1.1769 -1.3961 -1.4359
 2030SOL    MW4 8193   2.003   1.317   3.555  0.4478 -0.4181 -0.0174
 2031SOL     OW 8194   1.970   1.537   3.398 -0.4716  0.5509 -0.0216
 2031SOL    HW2 8195   2.038   1.594   3.433  1.2697 -0.4340 -1.7292
 2031SOL    HW3 8196   1.889   1.584   3.415  0.4951  1.3264  2.9205
 2031SOL    MW4 8197   1.968   1.550   3.405 -0.1141  0.5231  0.1414
 2032SOL     OW 8198   1.721   1.665   3.461  0.5464  0.2193 -0.2471
 2032SOL    HW2 8199   1.726   1.666   3.557  0.9294  2.0981 -0.2716
 2032SOL    HW3 8200   1.719   1.757   3.436  0.0854 -0.2550 -2.0424
 2032SOL    MW4 8201   1.721   1.677   3.471  0.5361  0.4047 -0.4871
 2033SOL     OW 8202   1.784   1.926   3.366 -0.2343  0.2549 -0.2981
 2033SOL    HW2 8203   1.861   1.976   3.392  0.2343 -0.9396  0.6326
 2033SOL    HW3 8204   1.799   1.906   3.273  0.8979 -0.5525  0.0490
 2033SOL    MW4 8205   1.796   1.930   3.357 -0.0231 -0.0093 -0.1297
 2034SOL     OW 8206   2.005   2.073   3.454 -0.0323 -0.3515 -0.2944
 2034SOL    HW2 8207   2.092   2.041   3.431 -0.4729 -1.3313 -0.6315
 2034SOL    HW3 8208   2.003   2.163   3.422  0.6011 -0.5656 -0.9392
 2034SOL    MW4 8209   2.016   2.081   3.447 -0.0069 -0.5090 -0.4239
 2035SOL     OW 8210   2.016   2.327   3.353 -0.1661 -0.2859 -0.1369
 2035SOL    HW2 8211   2.104   2.357   3.376 -0.8531  2.9466 -1.3595
 2035SOL    HW3 8212   2.022   2.304   3.260 -0.6149  0.0591 -0.2549
 2035SOL    MW4 8213   2.028   2.328   3.344 -0.3159  0.1862 -0.3135
 2036SOL     OW 8214   1.799   2.453   3.484 -0.2893 -0.3155 -0.4938
 2036SOL    HW2 8215   1.874   2.405   3.449  0.0384 -0.7632  0.7850
 2036SOL    HW3 8216   1.725   2.394   3.472 -0.0766 -0.7060  0.0618
 2036SOL    MW4 8217   1.799   2.439   3.478 -0.2180 -0.4261 -0.2522
 2037SOL     OW 8218   1.832   2.702   3.349  0.2710  0.0626 -0.3468
 2037SOL    HW2 8219   1.897   2.739   3.408 -0.9466  0.9872  0.4576
 2037SOL    HW3 8220   1.822   2.611   3.377  0.5855  0.1613  0.0849
 2037SOL    MW4 8221   1.839   2.695   3.360  0.1519  0.1976 -0.1836
 2038SOL     OW 8222   2.033   2.830   3.484  0.1084 -0.0846  0.2935
 2038SOL    HW2 8223   2.011   2.838   3.577  0.8567  0.5018  0.4301
 2038SOL    HW3 8224   2.035   2.921   3.453 -0.4287 -0.3021 -0.3583
 2038SOL    MW4 8225   2.031   2.843   3.493  0.1366 -0.0360  0.2255
 2039SOL     OW 8226   2.042   3.097   3.382 -0.0582  0.3444  0.4245
 2039SOL    HW2 8227   2.114   3.148   3.420  0.2972  0.1654 -0.0077
 2039SOL    HW3 8228   1.963   3.135   3.420  0.2720  0.4741  0.9858
 2039SOL    MW4 8229   2.041   3.108   3.392  0.0324  0.3376  0.4416
 2040SOL     OW 8230   1.827   3.212   3.501 -0.4952  0.3299 -0.0466
 2040SOL    HW2 8231   1.842   3.200   3.594 -1.3757 -0.4500 -0.0079
 2040SOL    HW3 8232   1.838   3.306   3.487  0.5043  0.3302  0.6766
 2040SOL    MW4 8233   1.830   3.223   3.511 -0.4793  0.2267  0.0541
 2041SOL     OW 8234   1.830   3.474   3.402 -0.1169  0.0041  0.2374
 2041SOL    HW2 8235   1.750   3.520   3.430 -0.0399  0.2729  0.0210
 2041SOL    HW3 8236   1.822   3.469   3.307  0.3061  0.3712  0.1833
 2041SOL    MW4 8237   1.818   3.479   3.394 -0.0510  0.0880  0.2017
 2042SOL     OW 8238   2.037   3.637   3.509 -0.2966  0.5630  0.3260
 2042SOL    HW2 8239   2.107   3.584   3.470  0.2111  0.6881  1.0687
 2042SOL    HW3 8240   1.956   3.591   3.484  0.0935 -0.0797  0.2289
 2042SOL    MW4 8241   2.035   3.624   3.500 -0.1781  0.4947  0.4113
 2043SOL     OW 8242   2.041   3.883   3.354 -0.6051 -0.1163  0.6536
 2043SOL    HW2 8243   1.963   3.921   3.395 -0.9811 -0.6433  0.4159
 2043SOL    HW3 8244   2.046   3.794   3.389 -0.7500 -0.4644 -0.2072
 2043SOL    MW4 8245   2.031   3.876   3.364 -0.6740 -0.2315  0.5085
 2044SOL     OW 8246   1.832   4.005   3.478 -0.6035  0.2482  0.6421
 2044SOL    HW2 8247   1.860   3.998   3.570 -1.3976  0.1575  0.8894
 2044SOL    HW3 8248   1.743   3.969   3.478  0.4084 -2.3342 -0.6906
 2044SOL    MW4 8249   1.824   4.000   3.490 -0.5747 -0.1047  0.4990
 2045SOL     OW 8250   1.790   4.233   3.356 -0.2991  0.0008 -0.7932
 2045SOL    HW2 8251   1.806   4.149   3.398  0.0261  0.4518 -0.0003
 2045SOL    HW3 8252   1.708   4.265   3.396 -0.0003  0.4199 -0.5033
 2045SOL    MW4 8253   1.781   4.226   3.367 -0.2168  0.1154 -0.6502
 2046SOL     OW 8254   2.225   4.277   3.408  0.2591 -0.0699 -0.4212
 2046SOL    HW2 8255   2.149   4.334   3.422  0.5930  0.2622  0.0279
 2046SOL    HW3 8256   2.219   4.252   3.316  0.1887  0.8108 -0.6606
 2046SOL    MW4 8257   2.214   4.282   3.397  0.2940  0.0896 -0.3936
 2047SOL     OW 8258   2.475   4.656   3.407  0.1376  0.2707  0.3089
 2047SOL    HW2 8259   2.468   4.565   3.436  0.2666 -0.0012 -0.4982
 2047SOL    HW3 8260   2.443   4.654   3.317  0.3598  0.9829  0.2168
 2047SOL    MW4 8261   2.470   4.643   3.399  0.1841  0.3287  0.1903
 2048SOL     OW 8262   2.260   0.119   3.500  0.3485 -0.1641  0.4014
 2048SOL    HW2 8263   2.264   0.201   3.451  0.7403 -0.4751 -0.0809
 2048SOL    HW3 8264   2.335   0.068   3.469 -0.3468 -1.0279  0.1146
 2048SOL    MW4 8265   2.270   0.123   3.489  0.3085 -0.3191  0.3004
 2049SOL     OW 8266   2.239   0.402   3.377  0.0160  0.4075  0.0366
 2049SOL    HW2 8267   2.312   0.458   3.403  0.9173 -1.2785  1.1647
 2049SOL    HW3 8268   2.169   0.424   3.438  0.1551  0.7893  0.0575
 2049SOL    MW4 8269   2.239   0.412   3.388  0.1533  0.2354  0.1884
 2050SOL     OW 8270   2.457   0.543   3.500 -0.1177 -0.0454  0.0350
 2050SOL    HW2 8271   2.531   0.500   3.456 -0.6782 -0.4471 -0.5214
 2050SOL    HW3 8272   2.457   0.632   3.464 -0.7904 -0.4804 -1.0484
 2050SOL    MW4 8273   2.467   0.549   3.489 -0.2804 -0.1559 -0.1814
 2051SOL     OW 8274   2.446   0.791   3.391 -0.4001  0.4469  0.1285
 2051SOL    HW2 8275   2.525   0.812   3.440 -0.3410  0.4240  0.0413
 2051SOL    HW3 8276   2.473   0.792   3.300 -0.5613  0.7065  0.0849
 2051SOL    MW4 8277   2.460   0.794   3.386 -0.4137  0.4781  0.1113
 2052SOL     OW 8278   2.224   0.917   3.477  0.2093 -0.0137 -0.2173
 2052SOL    HW2 8279   2.225   1.011   3.457 -1.1578 -0.2145 -1.2672
 2052SOL    HW3 8280   2.307   0.884   3.442 -0.3820  0.3678 -2.0152
 2052SOL    MW4 8281   2.235   0.925   3.470 -0.0491  0.0100 -0.5932
 2053SOL     OW 8282   2.218   1.198   3.421  0.0821 -0.1902  0.4730
 2053SOL    HW2 8283   2.300   1.247   3.431 -0.5122  1.1364 -0.9390
 2053SOL    HW3 8284   2.154   1.249   3.470 -0.0202 -0.9334  1.1179
 2053SOL    MW4 8285   2.221   1.212   3.429 -0.0100 -0.1130  0.3719
 2054SOL     OW 8286   2.454   1.312   3.489  0.1264 -0.2079  0.1792
 2054SOL    HW2 8287   2.456   1.312   3.585  1.3338  1.5693  0.1670
 2054SOL    HW3 8288   2.539   1.277   3.464  0.4041  0.7662 -0.2414
 2054SOL    MW4 8289   2.466   1.307   3.499  0.3223  0.1550  0.1221
 2055SOL     OW 8290   2.452   1.597   3.440 -0.3383  0.1794 -0.3507
 2055SOL    HW2 8291   2.455   1.507   3.471  4.9265  0.5376  0.6564
 2055SOL    HW3 8292   2.439   1.589   3.345  0.6446 -1.7373 -0.3558
 2055SOL    MW4 8293   2.451   1.584   3.431  0.4859 -0.0262 -0.2184
 2056SOL     OW 8294   2.188   1.694   3.517  0.0735 -0.1499  0.0805
 2056SOL    HW2 8295   2.171   1.694   3.612  1.1067  0.5716  0.2699
 2056SOL    HW3 8296   2.279   1.668   3.509 -0.1625 -0.7083 -0.7565
 2056SOL    MW4 8297   2.198   1.691   3.529  0.1786 -0.1284 -0.0055
 2057SOL     OW 8298   2.245   1.947   3.415  0.0200  0.4626 -0.3430
 2057SOL    HW2 8299   2.231   1.862   3.458  2.9541  0.4546  0.6536
 2057SOL    HW3 8300   2.246   1.926   3.322  2.2021 -0.8511 -0.0501
 2057SOL    MW4 8301   2.243   1.933   3.408  0.6950  0.2881 -0.1729
 2058SOL     OW 8302   2.484   2.084   3.457  0.0026  0.2199  0.5041
 2058SOL    HW2 8303   2.484   2.088   3.553 -2.6356  1.4080  0.4981
 2058SOL    HW3 8304   2.398   2.048   3.435  0.2036  0.8836 -1.4542
 2058SOL    MW4 8305   2.472   2.080   3.467 -0.3190  0.4637  0.2451
 2059SOL     OW 8306   2.519   2.328   3.350  0.3149  0.4005 -0.1251
 2059SOL    HW2 8307   2.578   2.382   3.403  0.9039  0.8297 -1.1991
 2059SOL    HW3 8308   2.514   2.245   3.397  1.1109  0.6489  0.4196
 2059SOL    MW4 8309   2.526   2.324   3.363  0.4976  0.4900 -0.1948
 2060SOL     OW 8310   2.259   2.407   3.440 -0.0621 -0.1940 -0.0500
 2060SOL    HW2 8311   2.255   2.502   3.432 -0.1211 -0.1513  0.4790
 2060SOL    HW3 8312   2.349   2.384   3.416  0.1824  0.0728  0.6092
 2060SOL    MW4 8313   2.271   2.416   3.436 -0.0374 -0.1533  0.1063
 2061SOL     OW 8314   2.271   2.692   3.395  0.0361  0.0493 -0.3016
 2061SOL    HW2 8315   2.194   2.744   3.417 -0.3366 -0.6777  0.1440
 2061SOL    HW3 8316   2.269   2.684   3.300 -0.8865 -0.6545 -0.2255
 2061SOL    MW4 8317   2.261   2.698   3.386 -0.1349 -0.1397 -0.2327
 2062SOL     OW 8318   2.495   2.839   3.495 -0.1191  0.0759  0.0319
 2062SOL    HW2 8319   2.504   2.915   3.437  0.0453  0.6429  0.7904
 2062SOL    HW3 8320   2.413   2.798   3.468  0.0312  0.2518 -0.7006
 2062SOL    MW4 8321   2.485   2.844   3.483 -0.0775  0.1738  0.0353
 2063SOL     OW 8322   2.476   3.095   3.388  0.4999 -0.2409 -0.0298
 2063SOL    HW2 8323   2.558   3.145   3.396  0.1394  0.5349 -1.0600
 2063SOL    HW3 8324   2.451   3.105   3.296  0.0872 -1.8162 -0.1079
 2063SOL    MW4 8325   2.484   3.103   3.377  0.3979 -0.3467 -0.1760
 2064SOL     OW 8326   2.256   3.240   3.495 -0.2006 -0.2699  0.4326
 2064SOL    HW2 8327   2.257   3.215   3.587 -1.0092 -0.2088  0.4665
 2064SOL    HW3 8328   2.325   3.187   3.455  0.9635  0.5918  1.2958
 2064SOL    MW4 8329   2.265   3.229   3.502 -0.1538 -0.1483  0.5507
 2065SOL     OW 8330   2.260   3.498   3.396  0.1947  0.3101 -0.1819
 2065SOL    HW2 8331   2.258   3.408   3.429 -0.0921  0.6778  0.8061
 2065SOL    HW3 8332   2.249   3.488   3.301  0.7332 -0.7307 -0.1498
 2065SOL    MW4 8333   2.258   3.485   3.388  0.2277  0.2213 -0.0472
 2066SOL     OW 8334   2.469   3.642   3.548  0.4290 -0.1144  0.7030
 2066SOL    HW2 8335   2.452   3.730   3.513  2.0924 -0.0849 -0.0618
 2066SOL    HW3 8336   2.399   3.588   3.511 -0.1727  0.7405  0.5776
 2066SOL    MW4 8337   2.457   3.646   3.538  0.5691  0.0021  0.5856
 2067SOL     OW 8338   2.421   3.896   3.483 -0.4243  0.1032  0.3263
 2067SOL    HW2 8339   2.505   3.933   3.509  0.2866 -1.2162 -0.0741
 2067SOL    HW3 8340   2.356   3.957   3.518  0.6145  0.0621  2.3529
 2067SOL    MW4 8341   2.423   3.909   3.491 -0.1936 -0.0763  0.5407
 2068SOL     OW 8342   2.195   4.041   3.546  0.3815 -0.3922 -0.3812
 2068SOL    HW2 8343   2.191   4.132   3.517  0.9739 -0.3250 -0.2514
 2068SOL    HW3 8344   2.144   3.993   3.480  0.6627 -0.0660 -0.8437
 2068SOL    MW4 8345   2.187   4.047   3.533  0.4971 -0.3400 -0.4253
 2069SOL     OW 8346   2.220   4.254   3.130  0.2464  0.6417 -0.2208
 2069SOL    HW2 8347   2.159   4.292   3.067 -1.4433 -0.9732  0.3858
 2069SOL    HW3 8348   2.247   4.171   3.090  0.8997  0.6468  0.1961
 2069SOL    MW4 8349   2.216   4.248   3.116  0.1097  0.4287 -0.0858
 2070SOL     OW 8350   2.476   4.387   3.483 -0.0096 -0.9377 -0.1882
 2070SOL    HW2 8351   2.474   4.392   3.578 -1.5905 -0.1376 -0.2547
 2070SOL    HW3 8352   2.396   4.340   3.459 -0.0472 -0.3848 -1.1711
 2070SOL    MW4 8353   2.465   4.381   3.492 -0.2232 -0.7591 -0.3266
 2071SOL     OW 8354   2.931   0.024   3.400 -0.2168  0.2760 -0.1981
 2071SOL    HW2 8355   2.861   0.075   3.439  0.4719  0.4610  0.8231
 2071SOL    HW3 8356   2.908   0.018   3.307 -1.7102  0.1015  0.1695
 2071SOL    MW4 8357   2.919   0.030   3.393 -0.3228  0.2774 -0.0150
 2072SOL     OW 8358   2.704   0.144   3.490 -0.0232  0.0042 -0.1548
 2072SOL    HW2 8359   2.668   0.233   3.480  0.4597  0.3187  0.7774
 2072SOL    HW3 8360   2.634   0.086   3.460 -0.7765  0.6659  0.2862
 2072SOL    MW4 8361   2.690   0.148   3.485 -0.0589  0.1330  0.0260
 2073SOL     OW 8362   2.651   0.396   3.388  0.1643 -0.1257 -0.1504
 2073SOL    HW2 8363   2.734   0.438   3.414 -0.8994  1.9833 -0.0787
 2073SOL    HW3 8364   2.662   0.379   3.294  1.3518 -1.5162  0.2078
 2073SOL    MW4 8365   2.664   0.399   3.379  0.1807 -0.0309 -0.0937
 2074SOL     OW 8366   2.901   0.504   3.502  0.4025 -0.5389 -0.3105
 2074SOL    HW2 8367   2.920   0.488   3.594  0.4216 -0.2174 -0.2554
 2074SOL    HW3 8368   2.908   0.599   3.493  0.1933 -0.5498 -0.5971
 2074SOL    MW4 8369   2.904   0.515   3.513  0.3777 -0.4979 -0.3412
 2075SOL     OW 8370   2.915   0.755   3.389 -0.2869 -0.2478 -0.3029
 2075SOL    HW2 8371   2.993   0.806   3.408 -1.3922  1.1404  0.6378
 2075SOL    HW3 8372   2.842   0.809   3.421 -1.7463 -0.8161 -2.5040
 2075SOL    MW4 8373   2.915   0.769   3.395 -0.6256 -0.1397 -0.4692
 2076SOL     OW 8374   2.693   0.894   3.459  0.2368 -0.1992 -0.3652
 2076SOL    HW2 8375   2.692   0.875   3.553 -0.3402 -1.1308 -0.5523
 2076SOL    HW3 8376   2.699   0.989   3.454 -1.2483 -0.0348  0.6200
 2076SOL    MW4 8377   2.694   0.904   3.471 -0.0353 -0.3005 -0.2599
 2077SOL     OW 8378   2.690   1.182   3.398  0.3126  0.2107 -0.1311
 2077SOL    HW2 8379   2.778   1.214   3.420  0.5548  0.3112 -1.2377
 2077SOL    HW3 8380   2.685   1.190   3.303 -0.8797  0.1512 -0.0719
 2077SOL    MW4 8381   2.701   1.188   3.389  0.1872  0.2162 -0.2694
 2078SOL     OW 8382   2.939   1.278   3.481  0.2924  0.1103 -0.0985
 2078SOL    HW2 8383   2.925   1.269   3.576  0.2520  0.1305 -0.1027
 2078SOL    HW3 8384   3.019   1.229   3.465  0.4368  0.3146 -0.0126
 2078SOL    MW4 8385   2.948   1.271   3.492  0.3061  0.1400 -0.0880
 2079SOL     OW 8386   2.927   1.558   3.395 -0.3136  0.4641 -0.2198
 2079SOL    HW2 8387   2.853   1.610   3.426  0.0781  1.3137 -0.6869
 2079SOL    HW3 8388   2.921   1.475   3.443 -1.4420  0.6096 -0.1053
 2079SOL    MW4 8389   2.916   1.554   3.405 -0.4108  0.5955 -0.2663
 2080SOL     OW 8390   2.699   1.698   3.516 -0.5660 -0.1723 -0.2262
 2080SOL    HW2 8391   2.700   1.787   3.480 -1.2722  0.5023  1.3645
 2080SOL    HW3 8392   2.617   1.661   3.485 -0.3260 -0.2244 -0.7976
 2080SOL    MW4 8393   2.688   1.705   3.507 -0.6275 -0.0901 -0.0918
 2081SOL     OW 8394   2.715   1.947   3.398  0.5252 -0.0532 -0.2614
 2081SOL    HW2 8395   2.626   1.978   3.411 -0.0013 -1.8029  0.4393
 2081SOL    HW3 8396   2.722   1.931   3.304  1.0930  2.9910 -0.7672
 2081SOL    MW4 8397   2.705   1.949   3.387  0.5302  0.1175 -0.2356
 2082SOL     OW 8398   2.923   2.093   3.496  0.2054 -0.2732  0.4228
 2082SOL    HW2 8399   2.926   2.072   3.589 -1.7415 -0.5673  0.4475
 2082SOL    HW3 8400   2.845   2.047   3.464  1.1129 -0.5461 -1.4427
 2082SOL    MW4 8401   2.913   2.084   3.504  0.0684 -0.3481  0.1800
 2083SOL     OW 8402   2.940   2.369   3.401 -0.1462  0.1295  0.3693
 2083SOL    HW2 8403   2.934   2.275   3.421  1.1740  0.3057  1.6224
 2083SOL    HW3 8404   2.865   2.408   3.447 -0.5977 -0.2713 -0.0134
 2083SOL    MW4 8405   2.929   2.362   3.410 -0.0317  0.0999  0.4842
 2084SOL     OW 8406   2.697   2.478   3.515  0.7247 -0.0765  0.1701
 2084SOL    HW2 8407   2.698   2.463   3.609  1.2580  0.4609  0.2527
 2084SOL    HW3 8408   2.709   2.572   3.505 -1.2500  0.1382 -0.3806
 2084SOL    MW4 8409   2.699   2.488   3.526  0.5343  0.0226  0.1085
 2085SOL     OW 8410   2.734   2.728   3.384 -0.4221  0.0725 -0.3359
 2085SOL    HW2 8411   2.796   2.785   3.429  0.4834 -1.8032  0.8433
 2085SOL    HW3 8412   2.648   2.753   3.418 -0.0324  0.7635  0.1324
 2085SOL    MW4 8413   2.731   2.739   3.394 -0.2511 -0.0837 -0.1187
 2086SOL     OW 8414   2.954   2.862   3.503 -0.1347  0.2887  0.4918
 2086SOL    HW2 8415   2.938   2.871   3.597  0.1606  1.1921  0.4647
 2086SOL    HW3 8416   2.963   2.952   3.472 -2.4333  0.1188 -0.7948
 2086SOL    MW4 8417   2.953   2.875   3.511 -0.3989  0.3855  0.3185
 2087SOL     OW 8418   2.914   3.128   3.403  0.0957  0.1549  0.2802
 2087SOL    HW2 8419   2.910   3.127   3.307 -0.3687  0.3429  0.2936
 2087SOL    HW3 8420   2.978   3.196   3.424  0.8755 -0.5151  0.0909
 2087SOL    MW4 8421   2.922   3.137   3.393  0.1373  0.0913  0.2570
 2088SOL     OW 8422   2.683   3.247   3.467 -0.3641 -0.1887  0.5917
 2088SOL    HW2 8423   2.678   3.245   3.562  1.1500  0.3358  0.6931
 2088SOL    HW3 8424   2.768   3.210   3.446 -0.4733  0.1600 -0.5320
 2088SOL    MW4 8425   2.693   3.242   3.477 -0.1788 -0.0734  0.4568
 2089SOL     OW 8426   2.645   3.505   3.371  0.2520 -0.2739  0.0433
 2089SOL    HW2 8427   2.645   3.417   3.409  0.3497 -0.1354  0.3683
 2089SOL    HW3 8428   2.590   3.557   3.430  1.3306  0.2129  0.6429
 2089SOL    MW4 8429   2.638   3.500   3.384  0.4070 -0.1915  0.1655
 2090SOL     OW 8430   2.886   3.589   3.493 -0.0608 -0.3113 -0.1865
 2090SOL    HW2 8431   2.897   3.681   3.468 -0.0207 -0.3573 -0.3350
 2090SOL    HW3 8432   2.800   3.566   3.459 -0.1871 -0.2505  0.0864
 2090SOL    MW4 8433   2.876   3.598   3.485 -0.0722 -0.3092 -0.1702
 2091SOL     OW 8434   2.900   3.853   3.419  0.0895 -0.7932  0.0648
 2091SOL    HW2 8435   2.978   3.887   3.463  0.3247 -0.1213 -0.8456
 2091SOL    HW3 8436   2.827   3.891   3.467  0.3359 -0.7845  0.4342
 2091SOL    MW4 8437   2.901   3.863   3.431  0.1531 -0.7033 -0.0064
 2092SOL     OW 8438   2.672   3.986   3.519 -0.0891 -0.0484 -0.0803
 2092SOL    HW2 8439   2.697   3.999   3.610 -0.1751 -1.3285  0.1347
 2092SOL    HW3 8440   2.677   4.073   3.479  0.7329  0.3675  0.9440
 2092SOL    MW4 8441   2.676   3.999   3.526  0.0081 -0.1624  0.0834
 2093SOL     OW 8442   2.706   4.247   3.441 -0.3945 -0.3024  0.2406
 2093SOL    HW2 8443   2.788   4.292   3.463 -0.1708 -0.3696 -0.4487
 2093SOL    HW3 8444   2.638   4.302   3.479  0.0314 -0.9898  2.0866
 2093SOL    MW4 8445   2.708   4.260   3.449 -0.3088 -0.4020  0.3932
 2094SOL     OW 8446   2.923   4.418   3.505 -0.0837 -0.1883 -0.1692
 2094SOL    HW2 8447   2.912   4.413   3.600 -0.8135  0.9737 -0.1832
 2094SOL    HW3 8448   2.932   4.511   3.486 -1.4735 -0.2845 -1.3969
 2094SOL    MW4 8449   2.923   4.430   3.515 -0.3633 -0.0472 -0.3328
 2095SOL     OW 8450   3.381   4.635   3.416  0.1607 -0.3038 -1.2453
 2095SOL    HW2 8451   3.311   4.680   3.463 -0.7491 -1.7542 -1.1778
 2095SOL    HW3 8452   3.359   4.647   3.323  0.3371  0.0162 -1.2484
 2095SOL    MW4 8453   3.369   4.643   3.410  0.0639 -0.4535 -1.2367
 2096SOL     OW 8454   3.158   0.118   3.524 -0.6035  0.0391  0.8056
 2096SOL    HW2 8455   3.175   0.211   3.506  0.4313 -0.3623 -0.3846
 2096SOL    HW3 8456   3.073   0.102   3.484 -1.0831  0.6172  1.5662
 2096SOL    MW4 8457   3.149   0.128   3.516 -0.5300  0.0624  0.7489
 2097SOL     OW 8458   3.145   0.396   3.420 -0.2880 -0.0754 -0.1932
 2097SOL    HW2 8459   3.065   0.443   3.445  0.0689  0.2940  0.2551
 2097SOL    HW3 8460   3.134   0.379   3.326 -0.9255 -0.0840 -0.1185
 2097SOL    MW4 8461   3.133   0.400   3.411 -0.3252 -0.0278 -0.1240
 2098SOL     OW 8462   3.381   0.521   3.488  0.2149 -0.3200  0.2302
 2098SOL    HW2 8463   3.371   0.534   3.582  1.2874 -1.0074  0.4558
 2098SOL    HW3 8464   3.298   0.484   3.460 -0.7801  1.5894  0.5701
 2098SOL    MW4 8465   3.369   0.518   3.497  0.2248 -0.1588  0.3049
 2099SOL     OW 8466   3.413   0.777   3.402 -0.1301 -0.6582 -0.4768
 2099SOL    HW2 8467   3.500   0.803   3.433 -0.7553  0.4343  0.3760
 2099SOL    HW3 8468   3.404   0.685   3.428  1.0739 -0.9989 -1.2427
 2099SOL    MW4 8469   3.423   0.768   3.409 -0.0536 -0.5590 -0.4652
 2100SOL     OW 8470   3.150   0.851   3.476 -0.1245 -0.0639  0.0123
 2100SOL    HW2 8471   3.153   0.944   3.452  0.2956 -0.3461 -1.0773
 2100SOL    HW3 8472   3.239   0.820   3.461 -0.3833 -0.7567 -0.1247
 2100SOL    MW4 8473   3.162   0.859   3.471 -0.1030 -0.1925 -0.1497
 2101SOL     OW 8474   3.174   1.111   3.417  0.7054  0.4924  0.4138
 2101SOL    HW2 8475   3.254   1.150   3.452  0.0256  1.3737  1.0044
 2101SOL    HW3 8476   3.175   1.134   3.324  1.0439  0.6608  0.4585
 2101SOL    MW4 8477   3.185   1.119   3.409  0.6602  0.6309  0.4976
 2102SOL     OW 8478   3.397   1.229   3.498 -0.3760 -0.2175 -0.0412
 2102SOL    HW2 8479   3.479   1.201   3.459  0.4535  0.7331  0.9960
 2102SOL    HW3 8480   3.388   1.321   3.473 -0.3121  0.1325  1.1779
 2102SOL    MW4 8481   3.407   1.237   3.489 -0.2582 -0.0458  0.2563
 2103SOL     OW 8482   3.366   1.481   3.403  0.2328  0.4974  0.2068
 2103SOL    HW2 8483   3.433   1.544   3.429 -0.7634  0.6953  2.4347
 2103SOL    HW3 8484   3.284   1.531   3.405 -0.3608 -0.4745  0.4653
 2103SOL    MW4 8485   3.364   1.496   3.407  0.0231  0.3952  0.5348
 2104SOL     OW 8486   3.167   1.681   3.477 -0.0590  0.0766  0.1618
 2104SOL    HW2 8487   3.154   1.775   3.464  0.3919  0.0241 -0.6900
 2104SOL    HW3 8488   3.083   1.642   3.454  0.0097  0.2001 -0.3143
 2104SOL    MW4 8489   3.154   1.688   3.472  0.0098  0.0859 -0.0134
 2105SOL     OW 8490   3.131   1.941   3.395 -0.0196  0.0520  0.1033
 2105SOL    HW2 8491   3.063   2.006   3.414 -1.0373 -1.1642  0.6863
 2105SOL    HW3 8492   3.123   1.925   3.301 -1.0040 -0.5937  0.2907
 2105SOL    MW4 8493   3.121   1.947   3.385 -0.2837 -0.1937  0.2048
 2106SOL     OW 8494   3.357   2.056   3.498  0.2360 -0.1873  0.3590
 2106SOL    HW2 8495   3.350   2.142   3.456  0.1327 -0.9256 -1.1589
 2106SOL    HW3 8496   3.276   2.011   3.474 -0.1321 -0.3950  1.9181
 2106SOL    MW4 8497   3.345   2.061   3.489  0.1738 -0.3121  0.3645
 2107SOL     OW 8498   3.364   2.301   3.387  0.1340  0.7257 -0.0387
 2107SOL    HW2 8499   3.444   2.339   3.423  0.4114  1.4320 -1.3592
 2107SOL    HW3 8500   3.296   2.366   3.406 -0.4521 -0.5082  2.3593
 2107SOL    MW4 8501   3.365   2.315   3.394  0.0935  0.6564  0.1035
 2108SOL     OW 8502   3.171   2.487   3.462 -0.4472 -0.4071 -0.0913
 2108SOL    HW2 8503   3.180   2.582   3.449  0.9910 -0.3581  0.9693
 2108SOL    HW3 8504   3.082   2.467   3.435 -0.8069  1.2771 -0.2460
 2108SOL    MW4 8505   3.161   2.497   3.457 -0.3049 -0.1783  0.0284
 2109SOL     OW 8506   3.179   2.757   3.384 -0.0835 -0.2318 -0.1767
 2109SOL    HW2 8507   3.251   2.805   3.424 -0.6188  0.4078  0.0237
 2109SOL    HW3 8508   3.100   2.796   3.422 -0.5518 -0.5492 -0.8217
 2109SOL    MW4 8509   3.178   2.768   3.394 -0.2160 -0.1895 -0.2356
 2110SOL     OW 8510   3.392   2.859   3.518 -0.5865 -0.2474  0.0771
 2110SOL    HW2 8511   3.467   2.823   3.470 -0.4914 -0.8382  0.6654
 2110SOL    HW3 8512   3.411   2.841   3.610 -0.9234  0.6031  0.3129
 2110SOL    MW4 8513   3.404   2.852   3.524 -0.6182 -0.2131  0.1860
 2111SOL     OW 8514   3.384   3.119   3.405 -0.0003 -0.3561 -0.1235
 2111SOL    HW2 8515   3.467   3.159   3.432  0.3516 -0.4362 -1.0585
 2111SOL    HW3 8516   3.381   3.035   3.451  0.8684 -0.7542 -0.7855
 2111SOL    MW4 8517   3.394   3.113   3.415  0.1607 -0.4191 -0.3343
 2112SOL     OW 8518   3.158   3.257   3.494 -0.0496  0.2468 -0.1847
 2112SOL    HW2 8519   3.158   3.350   3.473 -0.2585  0.2480 -0.1781
 2112SOL    HW3 8520   3.227   3.220   3.440  0.9311  0.6294  0.7843
 2112SOL    MW4 8521   3.167   3.264   3.484  0.0522  0.2973 -0.0558
 2113SOL     OW 8522   3.133   3.520   3.401  0.4910  0.1323 -0.3502
 2113SOL    HW2 8523   3.045   3.549   3.422  0.6357  0.4400 -0.1491
 2113SOL    HW3 8524   3.132   3.505   3.307 -0.0788 -0.9494 -0.1752
 2113SOL    MW4 8525   3.122   3.522   3.392  0.4349  0.0303 -0.3002
 2114SOL     OW 8526   3.361   3.660   3.475  0.0883  0.3031 -0.1879
 2114SOL    HW2 8527   3.345   3.754   3.469 -0.5301  0.5290  3.4146
 2114SOL    HW3 8528   3.277   3.620   3.452 -0.2845  0.7553  0.3426
 2114SOL    MW4 8529   3.348   3.667   3.471 -0.0424  0.3929  0.3574
 2115SOL     OW 8530   3.368   3.938   3.391 -0.3400  0.3776  0.8026
 2115SOL    HW2 8531   3.439   3.966   3.448 -0.8048  0.5961  1.2781
 2115SOL    HW3 8532   3.289   3.976   3.431 -0.4147  2.5709 -1.2945
 2115SOL    MW4 8533   3.367   3.947   3.404 -0.4110  0.6957  0.5889
 2116SOL     OW 8534   3.136   3.997   3.524 -0.2493  0.1901  0.1046
 2116SOL    HW2 8535   3.136   3.994   3.620  0.0426  2.6154  0.2237
 2116SOL    HW3 8536   3.118   4.089   3.504  0.2185 -0.2045 -2.1698
 2116SOL    MW4 8537   3.133   4.009   3.534 -0.1490  0.4578 -0.1795
 2117SOL     OW 8538   3.123   4.252   3.418 -0.3316 -0.0024 -0.4817
 2117SOL    HW2 8539   3.202   4.300   3.443  0.4305 -0.6633 -1.6096
 2117SOL    HW3 8540   3.051   4.304   3.455  0.6427  0.3320  0.9934
 2117SOL    MW4 8541   3.124   4.265   3.426 -0.1025 -0.0453 -0.4361
 2118SOL     OW 8542   3.349   4.378   3.506  0.1483  0.5973 -0.3765
 2118SOL    HW2 8543   3.314   4.377   3.595  1.4999  1.5150  0.1693
 2118SOL    HW3 8544   3.358   4.470   3.485  3.3320  0.4231 -0.0545
 2118SOL    MW4 8545   3.345   4.390   3.515  0.7467  0.6952 -0.2618
 2119SOL     OW 8546   3.863   4.634   3.432 -0.1393 -0.1894  0.1517
 2119SOL    HW2 8547   3.787   4.681   3.465  0.0011  1.0013 -1.1532
 2119SOL    HW3 8548   3.853   4.637   3.336  1.3411 -0.3492 -0.0194
 2119SOL    MW4 8549   3.852   4.641   3.423  0.0746 -0.0534 -0.0429
 2120SOL     OW 8550   3.613   0.093   3.478 -0.1797 -0.2781 -0.1969
 2120SOL    HW2 8551   3.611   0.185   3.454 -0.2737  0.2061  1.5606
 2120SOL    HW3 8552   3.528   0.059   3.451 -0.0957  0.1286 -0.9594
 2120SOL    MW4 8553   3.601   0.101   3.472 -0.1810 -0.1605 -0.0658
 2121SOL     OW 8554   3.603   0.369   3.393  0.1052  0.8013 -0.2943
 2121SOL    HW2 8555   3.681   0.410   3.431  0.4150 -0.3143  0.2984
 2121SOL    HW3 8556   3.532   0.432   3.409  0.9116  1.8961 -0.9963
 2121SOL    MW4 8557   3.604   0.383   3.400  0.2525  0.7986 -0.3088
 2122SOL     OW 8558   3.864   0.513   3.484  0.3926  0.4666  0.3576
 2122SOL    HW2 8559   3.845   0.483   3.573 -1.6040 -2.2091 -0.8854
 2122SOL    HW3 8560   3.928   0.449   3.451 -0.1246  0.4556 -0.6574
 2122SOL    MW4 8561   3.870   0.500   3.491  0.0608  0.1121  0.0596
 2123SOL     OW 8562   3.855   0.757   3.362 -0.1474  0.1358 -0.2364
 2123SOL    HW2 8563   3.927   0.818   3.376 -0.4416  0.1811  1.1119
 2123SOL    HW3 8564   3.873   0.684   3.421 -1.6119  0.5206  0.7200
 2123SOL    MW4 8565   3.867   0.756   3.371 -0.3796  0.1925  0.0677
 2124SOL     OW 8566   3.644   0.888   3.521 -0.1451  0.0529  0.2099
 2124SOL    HW2 8567   3.632   0.873   3.615  0.4305  0.0425  0.2872
 2124SOL    HW3 8568   3.718   0.832   3.497  0.0794  0.4912 -0.1275
 2124SOL    MW4 8569   3.652   0.879   3.530 -0.0396  0.1094  0.1757
 2125SOL     OW 8570   3.632   1.148   3.414  0.0115  0.0525  0.4758
 2125SOL    HW2 8571   3.631   1.056   3.442 -0.5874 -0.4655 -1.2004
 2125SOL    HW3 8572   3.630   1.144   3.318 -1.3514  1.8263  0.4098
 2125SOL    MW4 8573   3.631   1.135   3.405 -0.2472  0.2182  0.2458
 2126SOL     OW 8574   3.848   1.264   3.542  0.5567 -0.2174  0.0183
 2126SOL    HW2 8575   3.833   1.246   3.635 -0.3385 -0.8649 -0.2481
 2126SOL    HW3 8576   3.787   1.207   3.496  0.9081  0.1912 -0.9707
 2126SOL    MW4 8577   3.838   1.254   3.548  0.4849 -0.2491 -0.1473
 2127SOL     OW 8578   3.852   1.513   3.425 -0.2639 -0.5756  0.1309
 2127SOL    HW2 8579   3.939   1.547   3.446 -1.2323  1.0205  1.7527
 2127SOL    HW3 8580   3.853   1.423   3.456  1.5638 -1.3311 -2.0154
 2127SOL    MW4 8581   3.863   1.506   3.432 -0.1507 -0.4648  0.0615
 2128SOL     OW 8582   3.602   1.639   3.489  0.0059 -0.6715  0.1665
 2128SOL    HW2 8583   3.595   1.728   3.455 -0.8724 -0.8854 -0.2310
 2128SOL    HW3 8584   3.686   1.607   3.457  0.7017  0.2943  0.9926
 2128SOL    MW4 8585   3.612   1.647   3.481 -0.0184 -0.5723  0.2229
 2129SOL     OW 8586   3.572   1.897   3.399  0.3060  0.1238  0.0568
 2129SOL    HW2 8587   3.631   1.953   3.450 -0.6513  0.6137  0.6476
 2129SOL    HW3 8588   3.487   1.939   3.408 -0.6525 -2.0342  1.4687
 2129SOL    MW4 8589   3.569   1.910   3.407  0.0532 -0.0963  0.3209
 2130SOL     OW 8590   3.804   2.061   3.450  0.1879 -0.1706  0.5125
 2130SOL    HW2 8591   3.804   2.049   3.545  0.5115 -0.5147  0.4681
 2130SOL    HW3 8592   3.877   2.009   3.419  0.4804  0.4626  0.1353
 2130SOL    MW4 8593   3.813   2.053   3.458  0.2692 -0.1323  0.4568
 2131SOL     OW 8594   3.808   2.342   3.386  0.0629  0.2348  0.1642
 2131SOL    HW2 8595   3.896   2.372   3.412  1.4389 -1.7562 -2.0373
 2131SOL    HW3 8596   3.805   2.250   3.413 -1.4267  0.3311  0.3628
 2131SOL    MW4 8597   3.819   2.334   3.393  0.0479 -0.0153 -0.1001
 2132SOL     OW 8598   3.577   2.461   3.465 -0.0288 -0.3341 -0.0617
 2132SOL    HW2 8599   3.581   2.550   3.430 -0.5912 -1.2278 -2.5324
 2132SOL    HW3 8600   3.664   2.425   3.450  0.0485 -0.3667  0.4646
 2132SOL    MW4 8601   3.589   2.468   3.458 -0.0925 -0.4561 -0.3181
 2133SOL     OW 8602   3.576   2.721   3.366 -0.2306 -0.4879  0.3815
 2133SOL    HW2 8603   3.659   2.756   3.397 -0.4756  0.5519 -0.1078
 2133SOL    HW3 8604   3.595   2.689   3.278 -0.5045  0.3987 -0.0063
 2133SOL    MW4 8605   3.589   2.722   3.358 -0.2990 -0.2337  0.2658
 2134SOL     OW 8606   3.808   2.832   3.446  0.1011 -0.0912  0.7343
 2134SOL    HW2 8607   3.816   2.869   3.533 -1.4599 -0.3787  1.0055
 2134SOL    HW3 8608   3.820   2.907   3.387  1.1205  0.1063  1.1746
 2134SOL    MW4 8609   3.811   2.847   3.449  0.0296 -0.1030  0.8280
 2135SOL     OW 8610   3.828   3.121   3.382 -0.0725  0.2133  0.1395
 2135SOL    HW2 8611   3.906   3.166   3.415  1.2366 -1.4108 -0.6171
 2135SOL    HW3 8612   3.834   3.131   3.287 -1.1267  0.6067  0.1132
 2135SOL    MW4 8613   3.839   3.128   3.374 -0.0389  0.0510  0.0362
 2136SOL     OW 8614   3.606   3.248   3.484  0.2092  0.0136 -0.2895
 2136SOL    HW2 8615   3.617   3.335   3.446  0.3194 -0.0057 -0.3038
 2136SOL    HW3 8616   3.677   3.197   3.445 -0.5387 -0.3739 -1.1642
 2136SOL    MW4 8617   3.617   3.253   3.474  0.1249 -0.0398 -0.4067
 2137SOL     OW 8618   3.583   3.518   3.378 -0.4631  0.0430 -0.0341
 2137SOL    HW2 8619   3.504   3.566   3.405 -0.1256  1.5009 -1.4997
 2137SOL    HW3 8620   3.591   3.538   3.284  2.3419  0.9649  0.3584
 2137SOL    MW4 8621   3.574   3.527   3.369 -0.0484  0.3569 -0.1757
 2138SOL     OW 8622   3.827   3.609   3.506 -0.0378  0.0620  0.2367
 2138SOL    HW2 8623   3.835   3.574   3.595  0.1297 -2.7075 -0.8201
 2138SOL    HW3 8624   3.743   3.576   3.475 -0.8638  2.3825 -0.0922
 2138SOL    MW4 8625   3.817   3.600   3.514 -0.1249  0.0029  0.0541
 2139SOL     OW 8626   3.815   3.861   3.358 -0.2128  0.5470  0.0723
 2139SOL    HW2 8627   3.739   3.904   3.397  0.1892  0.5577  0.8407
 2139SOL    HW3 8628   3.813   3.772   3.393 -0.7581  0.0803 -1.1260
 2139SOL    MW4 8629   3.805   3.855   3.368 -0.2317  0.4871  0.0157
 2140SOL     OW 8630   3.615   4.022   3.503  0.5341 -0.0693 -0.0730
 2140SOL    HW2 8631   3.610   4.011   3.598  0.5599  1.1647  0.0714
 2140SOL    HW3 8632   3.619   4.116   3.490  0.1645 -0.2277 -1.3255
 2140SOL    MW4 8633   3.615   4.033   3.514  0.4888  0.0720 -0.2191
 2141SOL     OW 8634   3.583   4.279   3.421  0.0235  0.5169 -0.2028
 2141SOL    HW2 8635   3.505   4.317   3.460 -0.5750 -0.6075 -0.2905
 2141SOL    HW3 8636   3.566   4.279   3.327  0.6975  1.5150 -0.3368
 2141SOL    MW4 8637   3.571   4.284   3.414  0.0336  0.5002 -0.2322
 2142SOL     OW 8638   3.827   4.390   3.522 -0.3527  0.2024  0.0001
 2142SOL    HW2 8639   3.744   4.362   3.481 -1.3456  0.7635  1.6021
 2142SOL    HW3 8640   3.844   4.476   3.484 -0.9829  0.4824  0.3474
 2142SOL    MW4 8641   3.818   4.397   3.511 -0.5670  0.3133  0.2573
 2143SOL     OW 8642   4.302   4.651   3.341 -0.5698  0.3384 -0.4682
 2143SOL    HW2 8643   4.297   4.563   3.379 -0.8815  0.4351 -0.2798
 2143SOL    HW3 8644   4.362   4.698   3.398 -0.1416  0.1498 -0.7641
 2143SOL    MW4 8645   4.309   4.645   3.354 -0.5536  0.3262 -0.4823
 2144SOL     OW 8646   4.103   0.111   3.484  0.1028 -0.1025 -0.3576
 2144SOL    HW2 8647   4.180   0.068   3.448 -0.3993 -0.8362 -0.5624
 2144SOL    HW3 8648   4.029   0.058   3.454 -0.4196  0.0978  0.5530
 2144SOL    MW4 8649   4.103   0.099   3.475 -0.0324 -0.1729 -0.2644
 2145SOL     OW 8650   4.068   0.355   3.370 -0.1372 -0.5699 -0.1074
 2145SOL    HW2 8651   4.089   0.275   3.417  1.0668 -0.3918 -0.3213
 2145SOL    HW3 8652   4.068   0.330   3.278  2.0504  0.0264 -0.3112
 2145SOL    MW4 8653   4.071   0.341   3.364  0.3109 -0.4677 -0.1624
 2146SOL     OW 8654   4.302   0.476   3.449 -0.1022  0.3030  0.0415
 2146SOL    HW2 8655   4.304   0.571   3.438  1.3047  0.0665 -2.0083
 2146SOL    HW3 8656   4.220   0.449   3.408 -0.0850  0.5623 -0.1712
 2146SOL    MW4 8657   4.292   0.485   3.442  0.0854  0.3060 -0.2568
 2147SOL     OW 8658   4.265   0.775   3.392 -0.0472  0.1939 -0.0535
 2147SOL    HW2 8659   4.343   0.820   3.425 -0.6417  1.0106  0.2368
 2147SOL    HW3 8660   4.273   0.782   3.297  0.5849 -0.3286 -0.0443
 2147SOL    MW4 8661   4.277   0.782   3.384 -0.0424  0.2327 -0.0141
 2148SOL     OW 8662   4.042   0.913   3.515 -0.5527  0.0272  0.0108
 2148SOL    HW2 8663   4.071   1.004   3.524  1.0918 -0.4006 -0.6522
 2148SOL    HW3 8664   4.117   0.869   3.475 -0.5257 -2.0597  2.2779
 2148SOL    MW4 8665   4.056   0.920   3.511 -0.3314 -0.3046  0.2227
 2149SOL     OW 8666   4.086   1.166   3.449  0.1000  0.3193  0.7921
 2149SOL    HW2 8667   4.158   1.224   3.474  0.0757  0.7894 -0.2056
 2149SOL    HW3 8668   4.009   1.203   3.492 -0.4680  2.7540 -2.1319
 2149SOL    MW4 8669   4.086   1.178   3.458  0.0219  0.7025  0.2747
 2150SOL     OW 8670   4.305   1.293   3.569 -0.3911 -0.0199  0.1363
 2150SOL    HW2 8671   4.315   1.372   3.516 -0.0118 -0.0419  0.1792
 2150SOL    HW3 8672   4.381   1.239   3.548  0.2996  0.4196  1.4574
 2150SOL    MW4 8673   4.316   1.296   3.560 -0.2499  0.0353  0.3164
 2151SOL     OW 8674   4.315   1.532   3.400 -0.3852  0.0541  0.3099
 2151SOL    HW2 8675   4.237   1.568   3.442 -1.5423 -0.3637 -1.4463
 2151SOL    HW3 8676   4.293   1.528   3.307  1.1406 -1.5759 -0.0107
 2151SOL    MW4 8677   4.302   1.536   3.394 -0.3366 -0.2160  0.0362
 2152SOL     OW 8678   4.083   1.631   3.502 -0.0359  0.1346  0.0796
 2152SOL    HW2 8679   4.076   1.632   3.597 -0.4439 -0.7402  0.0578
 2152SOL    HW3 8680   4.058   1.720   3.476  2.4365  1.1254  0.9276
 2152SOL    MW4 8681   4.079   1.643   3.511  0.2370  0.1500  0.1886
 2153SOL     OW 8682   4.025   1.879   3.389 -0.3448  0.3120 -0.3759
 2153SOL    HW2 8683   4.098   1.935   3.418  0.3311 -0.3795 -0.7349
 2153SOL    HW3 8684   4.032   1.877   3.294 -0.8722  0.2843 -0.4165
 2153SOL    MW4 8685   4.036   1.887   3.381 -0.3252  0.2171 -0.4284
 2154SOL     OW 8686   4.236   2.035   3.468 -0.4798 -0.0455 -0.6800
 2154SOL    HW2 8687   4.263   2.126   3.456 -0.4913  0.0645  0.0834
 2154SOL    HW3 8688   4.311   1.983   3.440 -0.4978  0.1931 -1.1807
 2154SOL    MW4 8689   4.249   2.040   3.463 -0.4835  0.0005 -0.6454
 2155SOL     OW 8690   4.296   2.294   3.374 -0.2734 -0.1317  0.5449
 2155SOL    HW2 8691   4.231   2.358   3.402 -1.0750 -0.7286  0.0800
 2155SOL    HW3 8692   4.291   2.295   3.278  0.0527 -0.5251  0.5200
 2155SOL    MW4 8693   4.286   2.302   3.365 -0.3362 -0.2623  0.4799
 2156SOL     OW 8694   4.066   2.425   3.470 -0.0228  0.7767  0.0345
 2156SOL    HW2 8695   4.058   2.438   3.565 -0.4604  0.9286 -0.0207
 2156SOL    HW3 8696   4.062   2.514   3.434  0.7159  0.7641 -0.0878
 2156SOL    MW4 8697   4.064   2.438   3.478  0.0172  0.7951  0.0110
 2157SOL     OW 8698   4.039   2.690   3.389 -0.0274 -0.0779 -0.0337
 2157SOL    HW2 8699   4.114   2.735   3.426  0.2578  0.0800 -0.7992
 2157SOL    HW3 8700   3.963   2.730   3.431  0.2437  0.8227 -0.4130
 2157SOL    MW4 8701   4.039   2.701   3.399  0.0463  0.0615 -0.1845
 2158SOL     OW 8702   4.256   2.827   3.480  0.4111  0.0028  0.4983
 2158SOL    HW2 8703   4.274   2.834   3.574  0.4473  0.4166  0.4597
 2158SOL    HW3 8704   4.340   2.798   3.443 -0.3716 -3.0872  0.9529
 2158SOL    MW4 8705   4.270   2.824   3.488  0.3123 -0.3502  0.5534
 2159SOL     OW 8706   4.271   3.090   3.387 -0.0944 -0.2461 -0.2164
 2159SOL    HW2 8707   4.266   3.002   3.425 -0.1209 -0.4132 -0.6072
 2159SOL    HW3 8708   4.278   3.075   3.293  2.2709  0.1259 -0.1101
 2159SOL    MW4 8709   4.271   3.076   3.380  0.2136 -0.2191 -0.2539
 2160SOL     OW 8710   4.048   3.252   3.479 -0.3304  0.0913 -0.2488
 2160SOL    HW2 8711   4.065   3.328   3.423  2.7601  0.4835  1.1374
 2160SOL    HW3 8712   4.111   3.186   3.450 -0.1698 -0.4638  1.3185
 2160SOL    MW4 8713   4.059   3.253   3.468  0.0982  0.0696  0.1407
 2161SOL     OW 8714   4.065   3.499   3.354 -0.0877  0.0716  0.4179
 2161SOL    HW2 8715   4.137   3.547   3.395 -0.1553  0.5230  0.0231
 2161SOL    HW3 8716   3.986   3.533   3.397 -0.1006 -0.0288  0.4718
 2161SOL    MW4 8717   4.064   3.510   3.365 -0.0987  0.1178  0.3729
 2162SOL     OW 8718   4.277   3.646   3.503  0.2817 -0.0917 -0.4112
 2162SOL    HW2 8719   4.281   3.645   3.599  1.5511 -0.0236 -0.4607
 2162SOL    HW3 8720   4.265   3.738   3.481  0.5527 -0.0380 -0.3378
 2162SOL    MW4 8721   4.276   3.658   3.513  0.4845 -0.0756 -0.4079
 2163SOL     OW 8722   4.273   3.919   3.404 -0.1802  0.4322 -0.2820
 2163SOL    HW2 8723   4.361   3.954   3.421 -0.4333  0.6908  0.5017
 2163SOL    HW3 8724   4.266   3.916   3.309  0.8038  0.1173 -0.3504
 2163SOL    MW4 8725   4.284   3.923   3.394 -0.0839  0.4249 -0.1876
 2164SOL     OW 8726   4.030   4.011   3.520 -0.0785 -0.3261  0.7499
 2164SOL    HW2 8727   4.112   3.978   3.484  0.6703  2.1339  0.1244
 2164SOL    HW3 8728   3.963   3.954   3.482  1.1773 -1.3476 -0.0048
 2164SOL    MW4 8729   4.032   3.999   3.511  0.1855 -0.1361  0.5677
 2165SOL     OW 8730   4.036   4.257   3.400  0.2585 -0.0150  0.1436
 2165SOL    HW2 8731   4.037   4.174   3.446 -0.9737  0.3796  0.8868
 2165SOL    HW3 8732   3.975   4.312   3.449 -0.6217  0.6064 -1.5823
 2165SOL    MW4 8733   4.028   4.254   3.412 -0.0200  0.1187  0.0143
 2166SOL     OW 8734   4.256   4.418   3.467 -0.0936 -0.0755 -0.5276
 2166SOL    HW2 8735   4.222   4.440   3.554 -0.2275  0.0939 -0.6211
 2166SOL    HW3 8736   4.184   4.370   3.425  0.3436 -1.0345 -0.1849
 2166SOL    MW4 8737   4.242   4.414   3.473 -0.0534 -0.1798 -0.4947
 2167SOL     OW 8738   0.222   0.004   3.891  0.1949 -0.1671 -0.4810
 2167SOL    HW2 8739   0.226  -0.019   3.984  1.2793 -0.4089 -0.5873
 2167SOL    HW3 8740   0.131   0.033   3.878  0.3496  0.9959  0.9114
 2167SOL    MW4 8741   0.210   0.005   3.902  0.3584 -0.0455 -0.3111
 2168SOL     OW 8742   4.457   0.109   3.811  0.0760 -0.1598 -0.2051
 2168SOL    HW2 8743   4.446   0.202   3.831  0.8691 -0.4634  1.6449
 2168SOL    HW3 8744   4.471   0.107   3.716  2.0874  1.7881  0.0242
 2168SOL    MW4 8745   4.457   0.121   3.801  0.4458  0.0571  0.0694
 2169SOL     OW 8746   0.017   0.389   3.875  0.5927 -0.2994 -0.0668
 2169SOL    HW2 8747  -0.054   0.441   3.837 -0.6688 -2.3740 -0.6533
 2169SOL    HW3 8748   0.096   0.424   3.836 -0.2093  1.3175 -0.2746
 2169SOL    MW4 8749   0.018   0.400   3.865  0.3204 -0.3598 -0.1714
 2170SOL     OW 8750   0.263   0.509   3.783 -0.1097  0.3697  0.1344
 2170SOL    HW2 8751   0.262   0.600   3.811  1.7239 -0.0844  1.7849
 2170SOL    HW3 8752   0.269   0.513   3.688  1.7446  2.0049  0.2807
 2170SOL    MW4 8753   0.264   0.521   3.774  0.3769  0.5255  0.3717
 2171SOL     OW 8754   0.232   0.791   3.835 -0.2963  0.2642  0.2336
 2171SOL    HW2 8755   0.242   0.780   3.930  0.5858 -1.2084 -0.0261
 2171SOL    HW3 8756   0.139   0.812   3.824 -0.5395 -0.1359  1.3759
 2171SOL    MW4 8757   0.221   0.792   3.846 -0.2120  0.0172  0.3502
 2172SOL     OW 8758   4.439   0.902   3.819  0.2974  0.2746 -0.2854
 2172SOL    HW2 8759   4.363   0.863   3.861 -0.3290  0.5058 -1.1894
 2172SOL    HW3 8760   4.440   0.993   3.848  1.2442 -0.1656  1.1131
 2172SOL    MW4 8761   4.429   0.909   3.828  0.3395  0.2470 -0.2203
 2173SOL     OW 8762   4.486   1.158   3.914 -0.2791  0.3957  0.0261
 2173SOL    HW2 8763   4.405   1.202   3.890 -0.2082  0.8568  0.6170
 2173SOL    HW3 8764   4.551   1.192   3.854  0.0931  2.2324  1.4354
 2173SOL    MW4 8765   4.484   1.168   3.903 -0.2207  0.6989  0.2902
 2174SOL     OW 8766   0.233   1.233   3.767 -0.7571 -0.4192  0.5437
 2174SOL    HW2 8767   0.250   1.320   3.802  0.8841 -0.5832  0.1939
 2174SOL    HW3 8768   0.260   1.238   3.675 -1.4007 -1.0704  0.3142
 2174SOL    MW4 8769   0.239   1.245   3.760 -0.6255 -0.5269  0.4671
 2175SOL     OW 8770   0.445   1.674   3.813 -0.2001 -0.2417  0.2381
 2175SOL    HW2 8771   0.517   1.625   3.851 -0.1232 -1.4066 -1.3392
 2175SOL    HW3 8772   0.368   1.620   3.830 -0.3248 -0.2285 -0.2667
 2175SOL    MW4 8773   0.444   1.660   3.820 -0.2065 -0.3936 -0.0367
 2176SOL     OW 8774   0.009   1.632   3.788 -0.4933  0.1263 -0.1142
 2176SOL    HW2 8775   0.014   1.717   3.833  0.4750 -0.7265  1.4549
 2176SOL    HW3 8776   0.044   1.650   3.701 -0.5913  1.4123  0.0905
 2176SOL    MW4 8777   0.014   1.646   3.782 -0.3785  0.1833  0.1197
 2177SOL     OW 8778   0.011   1.905   3.858  0.4413 -0.3595 -0.5163
 2177SOL    HW2 8779   0.003   1.919   3.953 -0.6536 -2.7085 -0.2130
 2177SOL    HW3 8780  -0.074   1.930   3.823  0.6033 -0.1748 -0.7741
 2177SOL    MW4 8781  -0.001   1.910   3.866  0.3185 -0.6450 -0.5105
 2178SOL     OW 8782   0.219   2.074   3.799 -0.0504 -0.4733  0.0106
 2178SOL    HW2 8783   0.196   2.157   3.841  0.6897  0.0820 -0.6797
 2178SOL    HW3 8784   0.147   2.015   3.823 -0.6097  0.3751  0.4590
 2178SOL    MW4 8785   0.207   2.077   3.808 -0.0265 -0.2880 -0.0212
 2179SOL     OW 8786   0.188   2.329   3.911 -0.2510  0.3637  0.0135
 2179SOL    HW2 8787   0.266   2.367   3.870 -0.3697  1.3128  0.6477
 2179SOL    HW3 8788   0.115   2.362   3.859 -0.1732 -1.5137 -1.3357
 2179SOL    MW4 8789   0.189   2.339   3.899 -0.2564  0.2413 -0.0808
 2180SOL     OW 8790   4.479   2.444   3.767 -0.0685  0.3502 -0.2301
 2180SOL    HW2 8791   4.398   2.396   3.784  0.1383  0.0084 -0.2016
 2180SOL    HW3 8792   4.474   2.522   3.822 -0.3045  0.2465 -0.1071
 2180SOL    MW4 8793   4.468   2.448   3.776 -0.0725  0.2913 -0.2103
 2181SOL     OW 8794   4.461   2.696   3.898  0.0832  0.6468 -0.2014
 2181SOL    HW2 8795   4.492   2.687   3.988 -0.8671 -2.0235 -0.0767
 2181SOL    HW3 8796   4.536   2.731   3.850  1.7384 -1.1119  1.0094
 2181SOL    MW4 8797   4.475   2.699   3.903  0.1760  0.0622 -0.0253
 2182SOL     OW 8798   0.190   2.780   3.759 -0.3134 -0.0471 -0.4104
 2182SOL    HW2 8799   0.267   2.741   3.799 -0.3986 -0.4333 -0.6160
 2182SOL    HW3 8800   0.219   2.806   3.671  0.1584  1.7599  0.2707
 2182SOL    MW4 8801   0.204   2.778   3.753 -0.2624  0.1407 -0.3476
 2183SOL     OW 8802   0.214   3.040   3.815  0.2829  0.3646 -0.0421
 2183SOL    HW2 8803   0.205   3.039   3.910  0.6270 -0.8624 -0.0231
 2183SOL    HW3 8804   0.211   2.948   3.789  0.7316  0.6625 -1.1686
 2183SOL    MW4 8805   0.212   3.028   3.824  0.3875  0.2420 -0.1884
 2184SOL     OW 8806   0.022   3.232   3.756 -0.5853  0.0783  0.1484
 2184SOL    HW2 8807   0.083   3.173   3.800 -0.7406 -0.5242 -0.4274
 2184SOL    HW3 8808   0.035   3.214   3.663  1.0363  2.6192 -0.1594
 2184SOL    MW4 8809   0.031   3.222   3.750 -0.3918  0.3340  0.0315
 2185SOL     OW 8810   0.006   3.480   3.892 -0.4254 -0.0816  0.7200
 2185SOL    HW2 8811   0.078   3.530   3.853 -1.4026  1.4309  0.7952
 2185SOL    HW3 8812   0.013   3.393   3.853  0.3638  0.5676 -0.6253
 2185SOL    MW4 8813   0.016   3.475   3.882 -0.4502  0.2036  0.5524
 2186SOL     OW 8814   0.210   3.615   3.756 -0.3559 -0.2834 -0.4202
 2186SOL    HW2 8815   0.283   3.570   3.798 -0.1530 -0.1766 -0.6547
 2186SOL    HW3 8816   0.208   3.702   3.796 -0.8816 -0.5681  0.1873
 2186SOL    MW4 8817   0.219   3.620   3.767 -0.3985 -0.3068 -0.3710
 2187SOL     OW 8818   0.249   3.871   3.852 -0.1896  0.6727 -0.2283
 2187SOL    HW2 8819   0.246   3.884   3.947 -1.5544  1.4780 -0.3781
 2187SOL    HW3 8820   0.322   3.926   3.823  0.4116  0.2090  0.3799
 2187SOL    MW4 8821   0.259   3.880   3.861 -0.2903  0.7176 -0.1676
 2188SOL     OW 8822   0.009   4.024   3.771 -0.0795  0.3018  0.2001
 2188SOL    HW2 8823  -0.052   3.972   3.823  1.0025  0.1925  1.4005
 2188SOL    HW3 8824   0.096   3.996   3.801  0.5400  1.4484 -0.4711
 2188SOL    MW4 8825   0.013   4.014   3.782  0.1450  0.4392  0.2699
 2189SOL     OW 8826   4.461   4.270   3.866 -0.7183 -0.0173 -0.1019
 2189SOL    HW2 8827   4.528   4.328   3.830  0.7158 -0.7070  1.3778
 2189SOL    HW3 8828   4.480   4.185   3.825 -1.2500 -0.0126 -0.3593
 2189SOL    MW4 8829   4.473   4.266   3.856 -0.5994 -0.1073  0.0594
 2190SOL     OW 8830   0.210   4.412   3.759  0.2750 -0.0164 -0.4781
 2190SOL    HW2 8831   0.279   4.359   3.798 -0.1224  0.6426  1.1678
 2190SOL    HW3 8832   0.210   4.493   3.810  0.3091  1.2413 -2.4179
 2190SOL    MW4 8833   0.219   4.415   3.771  0.2270  0.2370 -0.5169
 2191SOL     OW 8834   0.694   0.003   3.837 -0.4101 -0.3707 -0.6376
 2191SOL    HW2 8835   0.690  -0.087   3.804  0.5655 -0.8232  0.4436
 2191SOL    HW3 8836   0.605   0.036   3.825 -1.0160 -1.7831 -0.2457
 2191SOL    MW4 8837   0.682  -0.005   3.831 -0.3613 -0.6170 -0.4435
 2192SOL     OW 8838   0.446   0.104   3.761 -0.0680  0.4089 -0.0757
 2192SOL    HW2 8839   0.450   0.195   3.792 -0.7355  0.2833  0.4078
 2192SOL    HW3 8840   0.373   0.066   3.811  0.5228 -0.5244  0.0732
 2192SOL    MW4 8841   0.437   0.111   3.772 -0.0781  0.2692  0.0079
 2193SOL     OW 8842   0.486   0.366   3.874  0.2863  0.2778 -0.0338
 2193SOL    HW2 8843   0.563   0.407   3.835  0.5731 -1.0492 -0.8962
 2193SOL    HW3 8844   0.412   0.415   3.838  0.6465  0.4198 -0.5862
 2193SOL    MW4 8845   0.486   0.378   3.864  0.3717  0.1214 -0.2205
 2194SOL     OW 8846   0.677   0.524   3.751 -0.4526  0.0361  0.2731
 2194SOL    HW2 8847   0.746   0.472   3.793 -0.8365  0.2634  1.1938
 2194SOL    HW3 8848   0.681   0.609   3.795 -1.6938 -0.1331  0.7365
 2194SOL    MW4 8849   0.687   0.528   3.762 -0.6670  0.0438  0.4559
 2195SOL     OW 8850   0.678   0.766   3.884  0.3263  0.2414 -0.2802
 2195SOL    HW2 8851   0.757   0.794   3.837  0.8731 -1.6729 -0.5434
 2195SOL    HW3 8852   0.607   0.815   3.843  1.1244  0.5153 -1.3662
 2195SOL    MW4 8853   0.679   0.776   3.872  0.5038  0.0249 -0.4585
 2196SOL     OW 8854   0.486   0.903   3.744 -0.4461  0.3861  0.2616
 2196SOL    HW2 8855   0.469   0.990   3.778 -1.9252  0.4399 -0.5714
 2196SOL    HW3 8856   0.402   0.858   3.750 -0.3701 -0.1018 -1.8229
 2196SOL    MW4 8857   0.473   0.908   3.749 -0.6312  0.3288 -0.1235
 2197SOL     OW 8858   0.454   1.148   3.874  0.2706 -0.1751 -0.2705
 2197SOL    HW2 8859   0.526   1.196   3.833  0.8407 -1.6590 -1.0676
 2197SOL    HW3 8860   0.376   1.175   3.825  0.2689  1.4573  0.6117
 2197SOL    MW4 8861   0.453   1.158   3.862  0.3456 -0.1556 -0.2594
 2198SOL     OW 8862   0.640   1.325   3.750  0.2786 -0.2795 -0.0253
 2198SOL    HW2 8863   0.708   1.268   3.786  1.2089  0.7437 -0.1101
 2198SOL    HW3 8864   0.643   1.310   3.655  1.0891  0.4904 -0.1326
 2198SOL    MW4 8865   0.650   1.316   3.742  0.5082 -0.0428 -0.0508
 2199SOL     OW 8866   0.658   1.551   3.910  0.1486 -0.2725  0.1237
 2199SOL    HW2 8867   0.732   1.600   3.875 -2.0801  1.7949 -1.8927
 2199SOL    HW3 8868   0.655   1.471   3.858  1.4071 -0.7364  0.7421
 2199SOL    MW4 8869   0.667   1.547   3.899  0.0205 -0.0610 -0.0610
 2200SOL     OW 8870   0.454   1.955   3.899 -0.1224  0.2617  0.4688
 2200SOL    HW2 8871   0.437   1.862   3.883  1.0374 -0.0226  0.8081
 2200SOL    HW3 8872   0.383   2.001   3.855  0.4428 -0.7001 -1.4767
 2200SOL    MW4 8873   0.443   1.949   3.891  0.1052  0.0974  0.2570
 2201SOL     OW 8874   0.881   1.933   3.893  0.3956  0.0385 -0.3848
 2201SOL    HW2 8875   0.805   1.982   3.861  0.8459  0.9543 -0.0567
 2201SOL    HW3 8876   0.869   1.845   3.857 -0.8176  0.1749 -0.3360
 2201SOL    MW4 8877   0.870   1.928   3.884  0.2949  0.1774 -0.3352
 2202SOL     OW 8878   0.457   1.949   4.178  0.4495 -0.0797  0.1381
 2202SOL    HW2 8879   0.447   1.855   4.191  2.1784 -0.2280  0.5530
 2202SOL    HW3 8880   0.441   1.963   4.085  1.9142 -1.0402 -0.2686
 2202SOL    MW4 8881   0.453   1.939   4.167  0.8709 -0.2260  0.1388
 2203SOL     OW 8882   0.692   2.369   3.887  0.2140 -0.5449 -0.4600
 2203SOL    HW2 8883   0.755   2.432   3.854  1.4602 -0.8783  1.2335
 2203SOL    HW3 8884   0.703   2.371   3.982 -2.5948 -0.3255 -0.0946
 2203SOL    MW4 8885   0.701   2.377   3.895  0.0078 -0.5600 -0.1884
 2204SOL     OW 8886   0.431   2.400   3.815 -0.2505  0.2042  0.5092
 2204SOL    HW2 8887   0.524   2.388   3.830 -0.1201  0.8368  0.1918
 2204SOL    HW3 8888   0.421   2.399   3.720 -0.4175  1.2430  0.5086
 2204SOL    MW4 8889   0.442   2.398   3.804 -0.2553  0.4249  0.4671
 2205SOL     OW 8890   0.429   2.685   3.878 -0.0567 -0.5018 -0.1385
 2205SOL    HW2 8891   0.514   2.714   3.845 -0.4670 -1.1162 -1.8077
 2205SOL    HW3 8892   0.424   2.593   3.851 -0.9828 -0.6426  0.5045
 2205SOL    MW4 8893   0.440   2.676   3.870 -0.2330 -0.6015 -0.2737
 2206SOL     OW 8894   0.660   2.823   3.759  0.3693 -0.3363 -0.2923
 2206SOL    HW2 8895   0.749   2.815   3.793  1.4115  0.9235 -2.6182
 2206SOL    HW3 8896   0.670   2.830   3.665 -2.2781 -1.0524 -0.6858
 2206SOL    MW4 8897   0.673   2.823   3.751  0.1574 -0.2644 -0.6511
 2207SOL     OW 8898   0.645   3.096   3.827 -0.3352 -0.3192 -0.1768
 2207SOL    HW2 8899   0.657   3.110   3.921 -0.6249  0.7650 -0.2892
 2207SOL    HW3 8900   0.639   3.001   3.817 -1.3057 -0.4028  1.0376
 2207SOL    MW4 8901   0.646   3.085   3.838 -0.5015 -0.1872 -0.0312
 2208SOL     OW 8902   0.414   3.203   3.741  0.2326 -0.2245  0.3074
 2208SOL    HW2 8903   0.498   3.163   3.765  0.4054 -0.2119 -0.2804
 2208SOL    HW3 8904   0.349   3.135   3.761  0.4026 -0.3262  0.5257
 2208SOL    MW4 8905   0.417   3.188   3.747  0.2778 -0.2363  0.2587
 2209SOL     OW 8906   0.411   3.452   3.869  0.4163  0.1362 -0.0747
 2209SOL    HW2 8907   0.490   3.493   3.835 -0.1874  0.7252 -0.7771
 2209SOL    HW3 8908   0.411   3.364   3.831  1.0058 -0.0430  0.3451
 2209SOL    MW4 8909   0.421   3.445   3.860  0.4144  0.1903 -0.1118
 2210SOL     OW 8910   0.640   3.559   3.771  0.4927  0.2874 -0.2051
 2210SOL    HW2 8911   0.653   3.651   3.792  0.1609  0.3725 -0.3766
 2210SOL    HW3 8912   0.666   3.552   3.679  2.0653 -0.1097  0.2421
 2210SOL    MW4 8913   0.645   3.570   3.762  0.6564  0.2460 -0.1688
 2211SOL     OW 8914   0.654   3.817   3.852  0.3032 -0.0663 -0.5874
 2211SOL    HW2 8915   0.656   3.824   3.948  0.8150  0.5816 -0.6433
 2211SOL    HW3 8916   0.732   3.863   3.823 -0.0594  0.0745 -1.3415
 2211SOL    MW4 8917   0.665   3.824   3.861  0.3229  0.0379 -0.6943
 2212SOL     OW 8918   0.485   4.004   3.744  0.0129  0.2516  0.1595
 2212SOL    HW2 8919   0.549   3.943   3.781  0.7298  0.0765 -1.3375
 2212SOL    HW3 8920   0.494   3.994   3.649  0.6564  3.2028 -0.1315
 2212SOL    MW4 8921   0.495   3.995   3.737  0.1923  0.6180 -0.0763
 2213SOL     OW 8922   0.462   4.265   3.821  0.1457  0.0857 -0.1571
 2213SOL    HW2 8923   0.543   4.312   3.799  0.2373  0.0271  0.0531
 2213SOL    HW3 8924   0.473   4.179   3.782  0.6057 -0.2518  0.7017
 2213SOL    MW4 8925   0.474   4.260   3.813  0.2185  0.0329 -0.0160
 2214SOL     OW 8926   0.691   4.394   3.755 -0.1613  0.0920  0.1485
 2214SOL    HW2 8927   0.772   4.362   3.795  1.7453  1.4876 -2.4698
 2214SOL    HW3 8928   0.707   4.388   3.661 -3.2231  0.1706 -0.4179
 2214SOL    MW4 8929   0.704   4.389   3.748 -0.3137  0.2871 -0.2716
 2215SOL     OW 8930   1.133   4.641   3.911 -0.0569 -0.2078 -0.1336
 2215SOL    HW2 8931   1.210   4.682   3.873  0.5760 -1.4659 -0.2254
 2215SOL    HW3 8932   1.126   4.556   3.867 -1.3577 -0.2012  0.0364
 2215SOL    MW4 8933   1.142   4.635   3.900 -0.1450 -0.3724 -0.1235
 2216SOL     OW 8934   0.941   0.132   3.769 -0.1460  0.0672 -0.2406
 2216SOL    HW2 8935   1.007   0.080   3.815 -0.1900 -0.5595 -0.8582
 2216SOL    HW3 8936   0.858   0.097   3.800 -0.1770  0.1004 -0.2864
 2216SOL    MW4 8937   0.939   0.120   3.779 -0.1559 -0.0111 -0.3281
 2217SOL     OW 8938   0.892   0.393   3.881 -0.2165  0.3648 -0.5231
 2217SOL    HW2 8939   0.920   0.396   3.972 -1.3543 -0.1418 -0.1578
 2217SOL    HW3 8940   0.911   0.304   3.853 -0.8232  0.2231 -0.4810
 2217SOL    MW4 8941   0.898   0.382   3.889 -0.4467  0.2793 -0.4692
 2218SOL     OW 8942   1.121   0.496   3.771  0.5069 -0.4708  0.0181
 2218SOL    HW2 8943   1.193   0.467   3.826  0.4346  1.4785  1.1876
 2218SOL    HW3 8944   1.045   0.450   3.804  0.9407 -1.3685 -0.2250
 2218SOL    MW4 8945   1.121   0.486   3.782  0.5546 -0.3321  0.1404
 2219SOL     OW 8946   1.107   0.755   3.872  0.3669 -0.4059 -0.1609
 2219SOL    HW2 8947   1.108   0.753   3.968  0.6865 -0.1809 -0.1564
 2219SOL    HW3 8948   1.112   0.663   3.846  0.4754 -0.4589  0.0395
 2219SOL    MW4 8949   1.108   0.743   3.882  0.4234 -0.3833 -0.1340
 2220SOL     OW 8950   0.891   0.893   3.773 -0.4938  0.0378 -0.2116
 2220SOL    HW2 8951   0.965   0.838   3.801 -0.0189  0.8647  0.1878
 2220SOL    HW3 8952   0.881   0.875   3.680  1.0288  0.8355 -0.5610
 2220SOL    MW4 8953   0.899   0.884   3.765 -0.2303  0.2522 -0.2048
 2221SOL     OW 8954   0.827   1.163   3.862 -0.4943 -0.1965 -0.0835
 2221SOL    HW2 8955   0.841   1.169   3.957 -0.1942 -1.0486 -0.0700
 2221SOL    HW3 8956   0.842   1.071   3.842  0.0385  0.0945 -1.0507
 2221SOL    MW4 8957   0.831   1.152   3.872 -0.3844 -0.2706 -0.2093
 2222SOL     OW 8958   1.086   1.263   3.757 -0.2595  0.2230 -0.2006
 2222SOL    HW2 8959   1.092   1.352   3.793  0.7595 -0.1141  0.4760
 2222SOL    HW3 8960   1.003   1.229   3.792 -0.4669  0.7635 -0.1571
 2222SOL    MW4 8961   1.076   1.270   3.766 -0.1526  0.2497 -0.1054
 2223SOL     OW 8962   1.070   1.524   3.855 -0.0877 -0.2284 -0.1733
 2223SOL    HW2 8963   1.086   1.503   3.947  1.4899 -2.1491 -0.8391
 2223SOL    HW3 8964   1.151   1.565   3.826 -0.9395  1.2732 -0.4782
 2223SOL    MW4 8965   1.083   1.526   3.863  0.0081 -0.2836 -0.3014
 2224SOL     OW 8966   0.859   1.674   3.782  0.6804  0.3326 -0.1974
 2224SOL    HW2 8967   0.927   1.608   3.796  0.0287 -0.3663 -0.2975
 2224SOL    HW3 8968   0.859   1.689   3.688  1.0130  0.6798 -0.1445
 2224SOL    MW4 8969   0.868   1.667   3.771  0.6382  0.2861 -0.2038
 2225SOL     OW 8970   0.898   1.959   4.332  0.4212 -0.1205  0.2694
 2225SOL    HW2 8971   0.937   1.968   4.419 -0.9720 -1.2552  1.0322
 2225SOL    HW3 8972   0.811   1.998   4.340  0.3791  0.0030 -0.6823
 2225SOL    MW4 8973   0.892   1.965   4.344  0.2318 -0.2539  0.2441
 2226SOL     OW 8974   1.108   2.055   3.769  0.3372 -0.3229 -0.1631
 2226SOL    HW2 8975   1.028   2.016   3.802  1.4497 -0.9103  1.9113
 2226SOL    HW3 8976   1.093   2.065   3.675 -2.4655  0.3443  0.3197
 2226SOL    MW4 8977   1.096   2.051   3.761  0.1143 -0.3123  0.1743
 2227SOL     OW 8978   1.098   2.315   3.918  0.1336 -0.2939 -1.0110
 2227SOL    HW2 8979   1.140   2.237   3.882  0.4905 -0.0072 -1.2271
 2227SOL    HW3 8980   1.045   2.283   3.991  1.1901 -0.5988 -0.3523
 2227SOL    MW4 8981   1.097   2.300   3.923  0.3202 -0.2964 -0.9527
 2228SOL     OW 8982   0.925   2.474   3.772  0.6757  0.0316 -0.2135
 2228SOL    HW2 8983   0.938   2.564   3.802 -0.3322 -0.4363  1.6937
 2228SOL    HW3 8984   0.998   2.425   3.811  0.3227 -0.2623  0.0871
 2228SOL    MW4 8985   0.937   2.479   3.781  0.4961 -0.0691  0.0777
 2229SOL     OW 8986   0.959   2.746   3.827  0.2374  0.0235 -0.1263
 2229SOL    HW2 8987   0.980   2.749   3.921  0.1808  2.1693 -0.1579
 2229SOL    HW3 8988   1.044   2.757   3.784  0.0044  1.2627 -0.2951
 2229SOL    MW4 8989   0.973   2.748   3.834  0.1992  0.4697 -0.1526
 2230SOL     OW 8990   1.190   2.814   3.696  0.2924 -0.1678 -0.0927
 2230SOL    HW2 8991   1.250   2.764   3.751  2.0758  0.8618 -1.0480
 2230SOL    HW3 8992   1.193   2.903   3.733  0.2638  0.1490 -0.8441
 2230SOL    MW4 8993   1.199   2.819   3.708  0.5239  0.0100 -0.3181
 2231SOL     OW 8994   1.117   3.048   3.834 -0.2898  0.1513  0.6738
 2231SOL    HW2 8995   1.193   3.096   3.801  0.9012 -1.8892  0.3663
 2231SOL    HW3 8996   1.042   3.100   3.805  0.8846  0.6764 -1.5817
 2231SOL    MW4 8997   1.117   3.061   3.826  0.0223 -0.0484  0.3357
 2232SOL     OW 8998   0.887   3.201   3.760  0.5766  0.3609 -0.1037
 2232SOL    HW2 8999   0.806   3.155   3.783  0.7210  0.6830  1.0800
 2232SOL    HW3 9000   0.899   3.183   3.667 -0.2593 -0.6170 -0.0342
 2232SOL    MW4 9001   0.878   3.192   3.751  0.4854  0.2744  0.0618
 2233SOL     OW 9002   0.888   3.484   3.842  0.4271 -0.0252 -0.1861
 2233SOL    HW2 9003   0.897   3.397   3.803  1.5098  0.2413 -0.5375
 2233SOL    HW3 9004   0.797   3.508   3.827 -0.0029 -1.3130  0.3498
 2233SOL    MW4 9005   0.877   3.476   3.835  0.5133 -0.1600 -0.1616
 2234SOL     OW 9006   1.143   3.599   3.806 -0.1821 -0.0881 -0.1587
 2234SOL    HW2 9007   1.132   3.694   3.811 -0.0159 -0.0613 -0.3065
 2234SOL    HW3 9008   1.063   3.564   3.845 -0.1548  0.1122  0.0814
 2234SOL    MW4 9009   1.131   3.607   3.812 -0.1566 -0.0582 -0.1466
 2235SOL     OW 9010   1.111   3.868   3.846 -0.1349  0.0352  0.0589
 2235SOL    HW2 9011   1.109   3.871   3.942  0.5845 -0.7841  0.1070
 2235SOL    HW3 9012   1.189   3.918   3.822 -0.0215 -0.2039 -0.0736
 2235SOL    MW4 9013   1.121   3.875   3.856 -0.0250 -0.1044  0.0477
 2236SOL     OW 9014   0.871   3.975   3.759 -0.1442  0.2526 -0.1328
 2236SOL    HW2 9015   0.947   3.934   3.800  0.1155  0.2657 -0.5937
 2236SOL    HW3 9016   0.890   3.971   3.665 -1.3531 -0.9757 -0.3227
 2236SOL    MW4 9017   0.884   3.969   3.752 -0.2695  0.0920 -0.2186
 2237SOL     OW 9018   0.909   4.259   3.838 -0.0964  0.4750 -0.4420
 2237SOL    HW2 9019   0.895   4.249   3.932 -0.1682  0.0664 -0.4960
 2237SOL    HW3 9020   0.919   4.170   3.805 -1.4199  0.5218 -1.0242
 2237SOL    MW4 9021   0.908   4.246   3.846 -0.2805  0.4268 -0.5262
 2238SOL     OW 9022   1.118   4.417   3.747  0.3120  0.2182  0.0868
 2238SOL    HW2 9023   1.053   4.350   3.767  0.2782  0.2093 -0.0486
 2238SOL    HW3 9024   1.134   4.407   3.653 -0.4286  1.0455 -0.1392
 2238SOL    MW4 9025   1.112   4.407   3.737  0.2099  0.3262  0.0391
 2239SOL     OW 9026   0.121   0.849   4.463 -0.0073 -0.3255  0.5688
 2239SOL    HW2 9027   0.061   0.912   4.504 -0.6289 -0.1284 -0.6118
 2239SOL    HW3 9028   0.097   0.851   4.371  0.0085 -2.2628  0.5189
 2239SOL    MW4 9029   0.110   0.858   4.457 -0.0872 -0.5551  0.4067
 2240SOL     OW 9030   1.776   0.122   3.777  0.0491 -0.3359  0.0250
 2240SOL    HW2 9031   1.770   0.208   3.819  0.3154 -0.9739  1.4077
 2240SOL    HW3 9032   1.851   0.080   3.818 -0.6220 -1.5760  0.0254
 2240SOL    MW4 9033   1.785   0.128   3.788 -0.0043 -0.5837  0.2074
 2241SOL     OW 9034   1.309   0.362   3.932 -0.3674  0.1647 -0.0702
 2241SOL    HW2 9035   1.325   0.331   4.021  0.4725 -0.1755 -0.3345
 2241SOL    HW3 9036   1.393   0.399   3.905 -0.3732 -0.5263 -1.0409
 2241SOL    MW4 9037   1.322   0.363   3.940 -0.2574  0.0287 -0.2332
 2242SOL     OW 9038   1.782   0.356   3.894  0.4585 -0.6929  0.3315
 2242SOL    HW2 9039   1.788   0.341   3.988  0.9235 -0.7227  0.2984
 2242SOL    HW3 9040   1.859   0.409   3.873 -0.0392 -0.0653  0.0908
 2242SOL    MW4 9041   1.793   0.361   3.904  0.4542 -0.6140  0.2954
 2243SOL     OW 9042   1.566   0.768   3.896 -0.1908 -0.3371  0.0615
 2243SOL    HW2 9043   1.493   0.812   3.852 -0.9063 -1.8113 -0.2629
 2243SOL    HW3 9044   1.645   0.810   3.859 -0.8174 -0.5522 -1.5580
 2243SOL    MW4 9045   1.567   0.779   3.885 -0.3681 -0.5599 -0.1948
 2244SOL     OW 9046   1.343   0.872   3.759 -0.1732  0.0645  0.1687
 2244SOL    HW2 9047   1.328   0.957   3.800  0.5252  0.2982 -0.0514
 2244SOL    HW3 9048   1.275   0.816   3.795  0.4628  0.2508  1.6936
 2244SOL    MW4 9049   1.332   0.876   3.769  0.0029  0.1199  0.3407
 2245SOL     OW 9050   1.330   1.129   3.843  0.0211 -0.1696  0.2444
 2245SOL    HW2 9051   1.327   1.129   3.938 -0.8043  1.0392  0.2280
 2245SOL    HW3 9052   1.251   1.177   3.816  0.4849 -0.0901 -1.0306
 2245SOL    MW4 9053   1.319   1.135   3.852 -0.0267  0.0004  0.0741
 2246SOL     OW 9054   1.544   1.310   3.826 -0.5861  0.1169  0.0623
 2246SOL    HW2 9055   1.627   1.264   3.842 -0.4105  0.6641  0.7737
 2246SOL    HW3 9056   1.477   1.244   3.838 -0.2582 -0.2985 -0.3670
 2246SOL    MW4 9057   1.546   1.295   3.829 -0.5196  0.1342  0.0994
 2247SOL     OW 9058   1.565   1.575   3.925 -0.3139  0.4888  0.0580
 2247SOL    HW2 9059   1.564   1.583   4.020 -0.2530  1.3505 -0.0100
 2247SOL    HW3 9060   1.561   1.481   3.908  3.3646  0.1167  0.9626
 2247SOL    MW4 9061   1.564   1.564   3.935  0.1796  0.5535  0.1683
 2248SOL     OW 9062   1.335   1.657   3.799 -0.1712 -0.1989 -0.1707
 2248SOL    HW2 9063   1.337   1.752   3.808  0.3558 -0.3450  1.5314
 2248SOL    HW3 9064   1.416   1.628   3.841 -0.0055 -1.3585 -1.2745
 2248SOL    MW4 9065   1.346   1.666   3.806 -0.0798 -0.3710 -0.0918
 2249SOL     OW 9066   1.334   1.934   3.838  0.1034  0.3035  0.0362
 2249SOL    HW2 9067   1.317   1.934   3.933  0.2845 -0.1331  0.0700
 2249SOL    HW3 9068   1.258   1.979   3.801  0.7920  1.8774  0.5226
 2249SOL    MW4 9069   1.321   1.940   3.846  0.2183  0.4536  0.1049
 2250SOL     OW 9070   1.556   2.069   3.767  0.0261 -0.0546  0.0526
 2250SOL    HW2 9071   1.492   2.011   3.807 -0.0662 -0.4290 -0.6271
 2250SOL    HW3 9072   1.557   2.044   3.675 -0.3356  1.3063 -0.3401
 2250SOL    MW4 9073   1.547   2.058   3.760 -0.0339  0.0758 -0.0887
 2251SOL     OW 9074   1.791   1.945   3.868  0.2174 -0.2503  0.4020
 2251SOL    HW2 9075   1.712   1.993   3.844  0.4967 -0.5501 -1.1941
 2251SOL    HW3 9076   1.819   1.983   3.951  0.0259  1.8454 -0.4845
 2251SOL    MW4 9077   1.784   1.956   3.876  0.2291 -0.0135  0.0741
 2252SOL     OW 9078   1.308   2.448   3.786 -0.1081 -0.3634  0.3794
 2252SOL    HW2 9079   1.380   2.402   3.830  0.4024  0.9674  0.9493
 2252SOL    HW3 9080   1.229   2.416   3.830  0.0712 -2.1229 -0.5095
 2252SOL    MW4 9081   1.307   2.438   3.798 -0.0170 -0.4201  0.3376
 2253SOL     OW 9082   1.360   2.703   3.872  0.2167  0.0828 -0.0467
 2253SOL    HW2 9083   1.340   2.702   3.965 -1.5000 -1.3829 -0.3991
 2253SOL    HW3 9084   1.362   2.610   3.847  0.4313  0.4648 -1.5125
 2253SOL    MW4 9085   1.358   2.690   3.881  0.0185 -0.0601 -0.2866
 2254SOL     OW 9086   1.601   2.804   3.763 -0.0759 -0.0690 -0.7429
 2254SOL    HW2 9087   1.516   2.780   3.801  0.0406  0.7212  0.0508
 2254SOL    HW3 9088   1.589   2.794   3.669 -0.4533 -1.8254 -0.5186
 2254SOL    MW4 9089   1.588   2.800   3.756 -0.1105 -0.1965 -0.6084
 2255SOL     OW 9090   1.575   3.069   3.822 -0.0359  0.2764  0.2845
 2255SOL    HW2 9091   1.585   3.066   3.917 -0.5049  0.1239  0.3270
 2255SOL    HW3 9092   1.584   2.977   3.794  1.0616  0.4275  0.0825
 2255SOL    MW4 9093   1.578   3.056   3.831  0.0471  0.2761  0.2635
 2256SOL     OW 9094   1.332   3.188   3.736  0.1744  0.1744  0.1158
 2256SOL    HW2 9095   1.334   3.270   3.785  2.1478  0.5215 -0.4950
 2256SOL    HW3 9096   1.409   3.139   3.767 -0.0908 -0.7665 -0.6676
 2256SOL    MW4 9097   1.343   3.192   3.747  0.3998  0.0961 -0.0682
 2257SOL     OW 9098   1.342   3.442   3.860  0.0557 -0.1081  0.4117
 2257SOL    HW2 9099   1.418   3.498   3.845  0.7067 -0.8414  0.9454
 2257SOL    HW3 9100   1.267   3.499   3.842  0.7142  0.7973  0.4772
 2257SOL    MW4 9101   1.342   3.457   3.856  0.2285 -0.0854  0.4907
 2258SOL     OW 9102   1.567   3.595   3.783  0.0416  0.0406  0.0739
 2258SOL    HW2 9103   1.644   3.556   3.826 -1.3961 -1.8385  1.0291
 2258SOL    HW3 9104   1.574   3.688   3.800  1.4989 -0.2546  1.1715
 2258SOL    MW4 9105   1.578   3.602   3.791  0.0441 -0.2463  0.3445
 2259SOL     OW 9106   1.620   3.861   3.861  0.5183  0.5388 -0.2641
 2259SOL    HW2 9107   1.610   3.843   3.955 -0.0158 -1.0442 -0.6116
 2259SOL    HW3 9108   1.541   3.909   3.837  1.3626  2.3202  0.3999
 2259SOL    MW4 9109   1.608   3.865   3.870  0.5592  0.5648 -0.2222
 2260SOL     OW 9110   1.378   3.974   3.773  0.0085  0.0386 -0.0265
 2260SOL    HW2 9111   1.367   4.066   3.796  2.1415  0.5692 -1.1030
 2260SOL    HW3 9112   1.375   3.972   3.677  0.4389 -0.9514 -0.0258
 2260SOL    MW4 9113   1.376   3.986   3.763  0.3467 -0.0219 -0.1683
 2261SOL     OW 9114   1.318   4.247   3.848 -0.1676  0.0240 -0.6717
 2261SOL    HW2 9115   1.379   4.313   3.816 -1.9913  1.1901 -1.8832
 2261SOL    HW3 9116   1.231   4.284   3.830 -1.2368 -1.2775  1.6223
 2261SOL    MW4 9117   1.314   4.260   3.841 -0.5493  0.0067 -0.5288
 2262SOL     OW 9118   1.552   4.401   3.766 -0.0845 -0.6545  0.2872
 2262SOL    HW2 9119   1.607   4.353   3.829 -0.3998 -0.8398  0.4230
 2262SOL    HW3 9120   1.547   4.490   3.801  0.3243 -0.5761  0.1492
 2262SOL    MW4 9121   1.559   4.406   3.779 -0.0720 -0.6685  0.2868
 2263SOL     OW 9122   2.010   4.355   3.771  0.1568  0.0262  0.1518
 2263SOL    HW2 9123   2.096   4.339   3.810  0.2232 -2.0058 -0.7912
 2263SOL    HW3 9124   2.028   4.377   3.680 -0.2888  0.2961  0.1242
 2263SOL    MW4 9125   2.024   4.356   3.764  0.1066 -0.2069  0.0236
 2264SOL     OW 9126   2.003   4.625   3.876  0.2058  0.4944  0.4708
 2264SOL    HW2 9127   2.084   4.647   3.830 -0.6295  1.3347 -0.6452
 2264SOL    HW3 9128   1.984   4.535   3.849  0.5950  0.4113  0.4685
 2264SOL    MW4 9129   2.011   4.616   3.866  0.1469  0.5941  0.3233
 2265SOL     OW 9130   1.550   0.492   3.812 -0.3352 -0.4097  0.4813
 2265SOL    HW2 9131   1.553   0.579   3.851 -1.8573 -0.3262  0.4463
 2265SOL    HW3 9132   1.633   0.451   3.838 -0.1042  0.6363  1.4323
 2265SOL    MW4 9133   1.562   0.498   3.821 -0.5056 -0.2607  0.6025
 2266SOL     OW 9134   2.047   0.479   3.802  0.2710  0.1413  0.0486
 2266SOL    HW2 9135   2.116   0.412   3.805  1.1026  0.9792 -0.0115
 2266SOL    HW3 9136   2.027   0.489   3.709 -0.3168 -0.4901  0.1070
 2266SOL    MW4 9137   2.054   0.471   3.790  0.3033  0.1685  0.0482
 2267SOL     OW 9138   2.028   0.747   3.862  0.5809  0.3064  0.0572
 2267SOL    HW2 9139   2.045   0.659   3.829  0.6629  0.6322 -0.7853
 2267SOL    HW3 9140   2.005   0.734   3.954  0.7772 -0.5747 -0.0113
 2267SOL    MW4 9141   2.027   0.734   3.870  0.6177  0.2331 -0.0627
 2268SOL     OW 9142   1.799   0.879   3.774  0.0041  0.0586 -0.1007
 2268SOL    HW2 9143   1.870   0.825   3.808  0.6460  0.4950 -0.7122
 2268SOL    HW3 9144   1.819   0.889   3.681 -0.0494  1.4067  0.0165
 2268SOL    MW4 9145   1.811   0.873   3.766  0.0818  0.2940 -0.1659
 2269SOL     OW 9146   1.781   1.151   3.877  0.1740  0.2699 -0.0642
 2269SOL    HW2 9147   1.762   1.125   3.967 -0.2015  0.3557 -0.1178
 2269SOL    HW3 9148   1.774   1.070   3.826 -0.2780  0.3382 -0.1176
 2269SOL    MW4 9149   1.777   1.137   3.882  0.0647  0.2902 -0.0782
 2270SOL     OW 9150   1.996   1.305   3.826 -0.2484 -0.3577 -0.1716
 2270SOL    HW2 9151   2.075   1.254   3.841 -0.3753 -1.0337 -1.7120
 2270SOL    HW3 9152   1.929   1.261   3.878  0.1244 -0.4588  0.2242
 2270SOL    MW4 9153   1.997   1.293   3.835 -0.2160 -0.4603 -0.3228
 2271SOL     OW 9154   2.003   1.558   3.930  0.1162  0.5984  0.1667
 2271SOL    HW2 9155   1.925   1.607   3.906 -0.6150 -0.0285  1.2469
 2271SOL    HW3 9156   1.996   1.476   3.880 -0.6105 -0.0308  1.2706
 2271SOL    MW4 9157   1.992   1.553   3.920 -0.0762  0.4327  0.4549
 2272SOL     OW 9158   1.759   1.680   3.745 -0.4441  0.0497  0.2219
 2272SOL    HW2 9159   1.768   1.769   3.779 -0.4167  0.1153  0.0434
 2272SOL    HW3 9160   1.702   1.636   3.808 -0.1380  0.0787  0.5201
 2272SOL    MW4 9161   1.752   1.686   3.758 -0.3999  0.0622  0.2375
 2273SOL     OW 9162   0.360   2.280   4.714  0.2420 -0.5625  0.3093
 2273SOL    HW2 9163   0.383   2.371   4.695 -0.3194 -0.0603  1.9410
 2273SOL    HW3 9164   0.443   2.237   4.734  0.4767 -0.3483 -0.2139
 2273SOL    MW4 9165   0.374   2.286   4.714  0.1989 -0.4678  0.4549
 2274SOL     OW 9166   2.006   2.049   3.727  0.4538  0.0266 -0.3393
 2274SOL    HW2 9167   1.923   2.012   3.759 -0.2295  2.2952  0.6518
 2274SOL    HW3 9168   1.998   2.047   3.632 -0.7426  0.2128 -0.2511
 2274SOL    MW4 9169   1.994   2.044   3.719  0.2060  0.3505 -0.1969
 2275SOL     OW 9170   1.876   2.333   4.130  0.5160  0.4067 -0.0465
 2275SOL    HW2 9171   1.934   2.356   4.203 -0.4521 -0.3271  0.9715
 2275SOL    HW3 9172   1.928   2.350   4.051  1.7840  0.6219  0.8290
 2275SOL    MW4 9173   1.890   2.338   4.129  0.5556  0.3383  0.2031
 2276SOL     OW 9174   1.768   2.442   3.767  0.5537 -0.5946  0.0691
 2276SOL    HW2 9175   1.781   2.450   3.672  2.1721 -0.3975  0.3006
 2276SOL    HW3 9176   1.806   2.521   3.804  0.7653 -1.1056  0.9598
 2276SOL    MW4 9177   1.775   2.453   3.759  0.7951 -0.6361  0.2172
 2277SOL     OW 9178   1.828   2.689   3.868  0.1448  0.3987  0.0936
 2277SOL    HW2 9179   1.795   2.686   3.957 -0.0963  2.0410  0.0737
 2277SOL    HW3 9180   1.752   2.715   3.815  0.3694 -0.2214 -0.5357
 2277SOL    MW4 9181   1.814   2.692   3.872  0.1427  0.5336  0.0081
 2278SOL     OW 9182   2.022   2.827   3.766  0.2808  0.4378  0.2413
 2278SOL    HW2 9183   2.100   2.778   3.790 -0.3307 -0.4293  0.5058
 2278SOL    HW3 9184   1.951   2.782   3.812 -0.3537  1.2952  0.1116
 2278SOL    MW4 9185   2.023   2.815   3.775  0.1166  0.4365  0.2592
 2279SOL     OW 9186   2.038   3.089   3.886 -0.5260 -0.0558  0.6960
 2279SOL    HW2 9187   2.117   3.127   3.850 -1.7057  1.5016 -0.3133
 2279SOL    HW3 9188   2.032   3.002   3.845 -1.1035  1.1368 -1.8649
 2279SOL    MW4 9189   2.048   3.082   3.876 -0.7579  0.3073  0.2251
 2280SOL     OW 9190   1.804   3.220   3.785  0.5686  0.2533 -0.0015
 2280SOL    HW2 9191   1.874   3.170   3.826  1.6964  1.3498 -0.5448
 2280SOL    HW3 9192   1.724   3.174   3.809  1.3516 -0.1850  1.8625
 2280SOL    MW4 9193   1.803   3.207   3.793  0.8206  0.3402  0.1726
 2281SOL     OW 9194   1.782   3.488   3.885 -0.2001 -0.4910  0.0655
 2281SOL    HW2 9195   1.860   3.534   3.852  0.0253  0.1862  1.5240
 2281SOL    HW3 9196   1.787   3.401   3.845 -1.3787  1.1436 -3.9014
 2281SOL    MW4 9197   1.793   3.483   3.875 -0.3258 -0.1860 -0.2656
 2282SOL     OW 9198   2.032   3.608   3.809  0.4622 -0.1363 -0.1080
 2282SOL    HW2 9199   2.098   3.546   3.841 -0.8506 -0.7190  1.5266
 2282SOL    HW3 9200   2.052   3.616   3.715  1.9671 -1.3940  0.0639
 2282SOL    MW4 9201   2.044   3.601   3.801  0.4873 -0.3788  0.1304
 2283SOL     OW 9202   2.019   3.839   3.943 -1.0220 -0.0822 -0.0225
 2283SOL    HW2 9203   2.095   3.887   3.912 -0.9931  0.0223  0.2134
 2283SOL    HW3 9204   2.021   3.756   3.894 -1.5542  0.5097 -1.0597
 2283SOL    MW4 9205   2.029   3.834   3.933 -1.0884  0.0098 -0.1280
 2284SOL     OW 9206   1.845   3.990   3.775  0.2007  0.3458  0.3235
 2284SOL    HW2 9207   1.919   3.946   3.818  0.5956 -0.3519 -1.0621
 2284SOL    HW3 9208   1.770   3.934   3.792  0.1172  0.6751  1.0922
 2284SOL    MW4 9209   1.845   3.977   3.783  0.2418  0.2971  0.2422
 2285SOL     OW 9210   1.760   4.232   3.858  0.2764 -0.3904 -0.0849
 2285SOL    HW2 9211   1.827   4.292   3.826 -0.4050  0.1089 -0.5851
 2285SOL    HW3 9212   1.789   4.145   3.830  0.9851 -0.2323  0.1625
 2285SOL    MW4 9213   1.772   4.228   3.850  0.2799 -0.3037 -0.1180
 2286SOL     OW 9214   2.003   4.409   3.486 -0.5167  0.2066  0.2603
 2286SOL    HW2 9215   1.922   4.375   3.447  0.7182 -1.4012 -0.9526
 2286SOL    HW3 9216   2.016   4.494   3.444 -0.3829 -0.5290 -1.2141
 2286SOL    MW4 9217   1.994   4.416   3.475 -0.3363 -0.1025 -0.0944
 2287SOL     OW 9218   2.467   4.610   3.885  0.3279 -0.2517 -0.0050
 2287SOL    HW2 9219   2.490   4.602   3.977 -1.2307 -0.6896  0.3680
 2287SOL    HW3 9220   2.543   4.652   3.844  0.5986  0.9157  1.6631
 2287SOL    MW4 9221   2.480   4.614   3.892  0.1581 -0.1554  0.2644
 2288SOL     OW 9222   2.226   0.030   3.763 -0.4335 -0.2996 -0.4405
 2288SOL    HW2 9223   2.306   0.010   3.812 -1.0435  0.4533  0.8907
 2288SOL    HW3 9224   2.255   0.040   3.672  0.9857 -0.0444  0.0272
 2288SOL    MW4 9225   2.240   0.029   3.757 -0.3269 -0.1666 -0.2034
 2289SOL     OW 9226   2.267   0.314   3.813  0.6206  0.1465 -0.1858
 2289SOL    HW2 9227   2.238   0.224   3.798  0.3449  0.5761 -2.5712
 2289SOL    HW3 9228   2.273   0.323   3.908 -1.0907 -1.8271  0.1319
 2289SOL    MW4 9229   2.264   0.303   3.823  0.3586 -0.0572 -0.4587
 2290SOL     OW 9230   2.493   0.463   3.766 -0.1002  0.0008 -0.0741
 2290SOL    HW2 9231   2.414   0.410   3.778 -0.4169  0.3696 -0.4672
 2290SOL    HW3 9232   2.491   0.488   3.673 -1.1426  2.5159  0.5682
 2290SOL    MW4 9233   2.482   0.460   3.755 -0.2794  0.3813 -0.0412
 2291SOL     OW 9234   2.470   0.727   3.874  0.1373  0.2427  0.3099
 2291SOL    HW2 9235   2.400   0.763   3.820  0.4771  0.4465 -0.0051
 2291SOL    HW3 9236   2.472   0.634   3.852  0.3788  0.3537 -0.1531
 2291SOL    MW4 9237   2.461   0.720   3.864  0.2139  0.2843  0.2069
 2292SOL     OW 9238   2.263   0.866   3.764  0.3436 -0.3062 -0.3694
 2292SOL    HW2 9239   2.186   0.828   3.807  0.5160 -0.5586 -0.2812
 2292SOL    HW3 9240   2.235   0.881   3.674  0.1868 -0.3852 -0.3348
 2292SOL    MW4 9241   2.249   0.863   3.758  0.3457 -0.3499 -0.3531
 2293SOL     OW 9242   2.237   1.137   3.855  0.1792  0.1654  0.3857
 2293SOL    HW2 9243   2.227   1.115   3.948  1.4015 -1.6040  0.1246
 2293SOL    HW3 9244   2.256   1.053   3.813  0.9086  1.1496 -1.2744
 2293SOL    MW4 9245   2.238   1.123   3.862  0.4365  0.0618  0.1321
 2294SOL     OW 9246   2.456   1.270   3.779 -0.3132  0.2988  0.1939
 2294SOL    HW2 9247   2.459   1.361   3.807  0.7342  0.0929  0.7842
 2294SOL    HW3 9248   2.371   1.238   3.808 -0.1733  0.7432  1.0936
 2294SOL    MW4 9249   2.445   1.277   3.786 -0.1569  0.3304  0.3903
 2295SOL     OW 9250   2.446   1.550   3.834 -0.7989 -0.8957 -0.2967
 2295SOL    HW2 9251   2.367   1.601   3.819 -1.4375 -0.7960  2.9293
 2295SOL    HW3 9252   2.516   1.602   3.796 -1.8152  1.0233  0.3998
 2295SOL    MW4 9253   2.445   1.564   3.827 -1.0171 -0.6293  0.2210
 2296SOL     OW 9254   2.217   1.686   3.796 -0.2662  0.0465  0.0204
 2296SOL    HW2 9255   2.217   1.775   3.830 -0.3249 -0.4436  1.3199
 2296SOL    HW3 9256   2.149   1.641   3.846 -1.2643 -0.3502 -1.6483
 2296SOL    MW4 9257   2.208   1.692   3.807 -0.4055 -0.0705 -0.0284
 2297SOL     OW 9258   2.238   1.945   3.844 -0.1307 -0.3353  0.4874
 2297SOL    HW2 9259   2.246   1.975   3.935  1.8320  2.0439 -0.4112
 2297SOL    HW3 9260   2.154   1.978   3.815 -0.0964  0.1839  0.9811
 2297SOL    MW4 9261   2.228   1.953   3.853  0.1328  0.0472  0.4339
 2298SOL     OW 9262   2.470   2.090   3.730  0.1460  0.1521 -0.0501
 2298SOL    HW2 9263   2.483   2.167   3.786 -0.2178 -0.0409  0.3015
 2298SOL    HW3 9264   2.389   2.050   3.763  0.9979 -1.0811  0.5833
 2298SOL    MW4 9265   2.461   2.095   3.742  0.2103 -0.0362  0.0796
 2299SOL     OW 9266   2.465   2.322   3.891 -0.0456  0.5744  0.0010
 2299SOL    HW2 9267   2.545   2.370   3.869 -0.6552  2.1397  1.0838
 2299SOL    HW3 9268   2.400   2.355   3.830  0.0467 -0.4784 -0.6789
 2299SOL    MW4 9269   2.467   2.333   3.880 -0.1140  0.6421  0.0541
 2300SOL     OW 9270   2.030   2.300   3.827  0.5630  0.0979  0.0678
 2300SOL    HW2 9271   2.027   2.213   3.788  0.7295  0.3824 -0.5890
 2300SOL    HW3 9272   1.947   2.341   3.802  0.1928 -0.1141  0.9470
 2300SOL    MW4 9273   2.019   2.294   3.819  0.5362  0.1078  0.0968
 2301SOL     OW 9274   2.252   2.451   3.736  0.2287  0.3635 -0.2059
 2301SOL    HW2 9275   2.251   2.435   3.642 -0.2771 -1.9572  0.1695
 2301SOL    HW3 9276   2.180   2.398   3.770  1.7925 -0.5592  1.7338
 2301SOL    MW4 9277   2.243   2.442   3.728  0.3684 -0.0644  0.0994
 2302SOL     OW 9278   2.471   2.881   3.772  0.0331 -0.0040 -0.7977
 2302SOL    HW2 9279   2.404   2.820   3.801 -0.9135  0.3676 -2.1168
 2302SOL    HW3 9280   2.464   2.880   3.676  1.5510  0.4414 -0.9251
 2302SOL    MW4 9281   2.461   2.873   3.763  0.1085  0.1037 -0.9882
 2303SOL     OW 9282   2.501   3.110   3.901 -0.4936  0.1433 -0.0677
 2303SOL    HW2 9283   2.508   3.102   3.996 -0.1515 -0.0499 -0.1102
 2303SOL    HW3 9284   2.498   3.020   3.869  0.4278  0.2030 -0.3176
 2303SOL    MW4 9285   2.501   3.097   3.909 -0.3269  0.1254 -0.1063
 2304SOL     OW 9286   2.272   3.202   3.777 -0.3233  0.4988  0.1232
 2304SOL    HW2 9287   2.269   3.292   3.809 -0.9778  0.6524 -0.3506
 2304SOL    HW3 9288   2.339   3.160   3.830 -1.7085  0.6151  1.9998
 2304SOL    MW4 9289   2.280   3.209   3.788 -0.5922  0.5343  0.3085
 2305SOL     OW 9290   2.230   3.450   3.884 -0.4808  0.2324  0.4525
 2305SOL    HW2 9291   2.250   3.440   3.977  0.0311  0.6666  0.3909
 2305SOL    HW3 9292   2.295   3.512   3.852  1.3535 -2.3138 -0.8886
 2305SOL    MW4 9293   2.241   3.457   3.892 -0.1712 -0.0463  0.2675
 2306SOL     OW 9294   2.438   3.633   3.815  0.2568  0.1910  0.3114
 2306SOL    HW2 9295   2.513   3.581   3.844 -0.6451 -1.7429 -0.7928
 2306SOL    HW3 9296   2.448   3.640   3.720  0.3085  1.9809  0.4255
 2306SOL    MW4 9297   2.449   3.627   3.807  0.1445  0.1719  0.1807
 2307SOL     OW 9298   2.515   3.904   3.877  0.1511  0.3019  0.1938
 2307SOL    HW2 9299   2.603   3.928   3.851  0.2078  0.2215  0.3079
 2307SOL    HW3 9300   2.505   3.813   3.848  0.6517 -0.1870  1.5348
 2307SOL    MW4 9301   2.525   3.895   3.870  0.2248  0.2265  0.3858
 2308SOL     OW 9302   2.264   3.991   3.817  0.4434 -0.3151  0.3140
 2308SOL    HW2 9303   2.356   3.965   3.825  0.7747  0.9781  0.9351
 2308SOL    HW3 9304   2.251   4.003   3.723  0.3832 -2.3103  0.0573
 2308SOL    MW4 9305   2.275   3.989   3.806  0.4795 -0.4077  0.3619
 2309SOL     OW 9306   2.240   4.263   3.898  0.0709 -0.0916  0.0559
 2309SOL    HW2 9307   2.256   4.265   3.993  1.0731  1.2844 -0.1192
 2309SOL    HW3 9308   2.239   4.170   3.876 -1.0738 -0.4529  1.5591
 2309SOL    MW4 9309   2.242   4.251   3.908  0.0522  0.0420  0.2310
 2310SOL     OW 9310   2.460   4.361   3.771 -0.0697 -0.0105 -0.0445
 2310SOL    HW2 9311   2.386   4.324   3.819 -0.9557  0.5287 -0.9696
 2310SOL    HW3 9312   2.463   4.453   3.797 -0.6376  0.3165 -1.1161
 2310SOL    MW4 9313   2.451   4.369   3.781 -0.2615  0.1035 -0.3078
 2311SOL     OW 9314   2.909   4.664   3.906  0.0857  0.1318  0.0039
 2311SOL    HW2 9315   2.897   4.698   3.994 -1.2112 -0.1399 -0.0618
 2311SOL    HW3 9316   2.993   4.699   3.878 -0.0925  1.2601  0.8676
 2311SOL    MW4 9317   2.918   4.673   3.914 -0.1090  0.2451  0.1092
 2312SOL     OW 9318   2.675   0.079   3.781 -0.4669  0.4828 -0.5597
 2312SOL    HW2 9319   2.753   0.044   3.822 -0.1778  2.5615  0.7388
 2312SOL    HW3 9320   2.702   0.101   3.691  0.6203  1.7382  0.0612
 2312SOL    MW4 9321   2.689   0.077   3.774 -0.2851  0.9227 -0.3066
 2313SOL     OW 9322   2.698   0.332   3.885  0.1422  0.2083 -0.2693
 2313SOL    HW2 9323   2.686   0.242   3.855 -0.0071  0.2367 -0.2926
 2313SOL    HW3 9324   2.626   0.381   3.845 -2.3376 -0.4652  3.1509
 2313SOL    MW4 9325   2.687   0.326   3.876 -0.2048  0.1232  0.1793
 2314SOL     OW 9326   2.910   0.479   3.789  0.0913  0.3877 -0.3385
 2314SOL    HW2 9327   2.995   0.435   3.797  0.0547 -0.0692 -2.2974
 2314SOL    HW3 9328   2.847   0.414   3.823  0.5367  0.9104  1.5718
 2314SOL    MW4 9329   2.913   0.465   3.795  0.1454  0.3963 -0.3448
 2315SOL     OW 9330   2.910   0.747   3.843  0.7471 -0.2912  0.1627
 2315SOL    HW2 9331   2.997   0.784   3.824  0.3850 -0.4750 -1.8555
 2315SOL    HW3 9332   2.920   0.653   3.827  0.5987 -0.5624  1.5444
 2315SOL    MW4 9333   2.923   0.740   3.839  0.6797 -0.3513  0.0789
 2316SOL     OW 9334   2.697   0.880   3.750 -0.1289 -0.1072  0.0074
 2316SOL    HW2 9335   2.775   0.825   3.760 -0.1473 -0.2827 -0.8038
 2316SOL    HW3 9336   2.627   0.830   3.795 -0.3948 -1.2894 -1.6786
 2316SOL    MW4 9337   2.698   0.866   3.757 -0.1664 -0.2863 -0.3219
 2317SOL     OW 9338   2.697   1.146   3.833 -0.0545 -0.0787 -0.1108
 2317SOL    HW2 9339   2.686   1.053   3.813 -1.1951  0.1676 -0.6808
 2317SOL    HW3 9340   2.613   1.185   3.810 -0.3245  0.7489  2.1488
 2317SOL    MW4 9341   2.684   1.139   3.827 -0.2403  0.0631  0.1123
 2318SOL     OW 9342   2.677   2.690   4.132 -0.2879 -0.1500  0.0384
 2318SOL    HW2 9343   2.752   2.724   4.180  0.3286 -1.2531 -0.1435
 2318SOL    HW3 9344   2.670   2.598   4.159 -0.3681 -0.5925 -1.4287
 2318SOL    MW4 9345   2.686   2.682   4.142 -0.2172 -0.3538 -0.1793
 2319SOL     OW 9346   2.935   1.279   3.757  0.3732  0.0664 -0.2314
 2319SOL    HW2 9347   2.857   1.230   3.784  0.8675 -0.5873  0.0367
 2319SOL    HW3 9348   2.924   1.366   3.794 -0.1156 -0.1019  0.0081
 2319SOL    MW4 9349   2.924   1.284   3.765  0.3738 -0.0422 -0.1647
 2320SOL     OW 9350   2.936   1.544   3.842 -0.0228  0.5716  0.0697
 2320SOL    HW2 9351   2.943   1.533   3.937 -0.4764  1.4500  0.2110
 2320SOL    HW3 9352   3.016   1.591   3.817  0.5743 -0.5198 -0.1373
 2320SOL    MW4 9353   2.948   1.549   3.851 -0.0038  0.5435  0.0610
 2321SOL     OW 9354   2.704   1.715   3.788  0.1538 -0.2533  0.1667
 2321SOL    HW2 9355   2.778   1.659   3.810  1.9030  1.9646  0.1393
 2321SOL    HW3 9356   2.716   1.734   3.695 -1.2225 -0.9564 -0.1673
 2321SOL    MW4 9357   2.716   1.710   3.779  0.2031 -0.0535  0.1192
 2322SOL     OW 9358   2.914   2.082   3.779 -0.7558 -0.5538 -0.3804
 2322SOL    HW2 9359   2.921   2.175   3.802  0.5911 -0.6925 -0.1468
 2322SOL    HW3 9360   2.838   2.051   3.827 -0.5903  0.1904  0.3821
 2322SOL    MW4 9361   2.905   2.090   3.788 -0.5565 -0.4740 -0.2491
 2323SOL     OW 9362   2.955   2.366   3.849  0.3035  0.0296  0.1773
 2323SOL    HW2 9363   3.040   2.408   3.834 -1.1901  2.6791 -1.4259
 2323SOL    HW3 9364   2.937   2.381   3.942  2.3778 -2.2096  0.9888
 2323SOL    MW4 9365   2.964   2.374   3.859  0.3800  0.0839  0.0730
 2324SOL     OW 9366   2.694   2.451   3.812 -0.1324 -0.4815  1.0384
 2324SOL    HW2 9367   2.707   2.546   3.813  0.7634 -0.6154  2.1938
 2324SOL    HW3 9368   2.782   2.414   3.811 -0.4656 -1.3137 -0.6419
 2324SOL    MW4 9369   2.707   2.459   3.812 -0.0582 -0.6089  0.9692
 2325SOL     OW 9370   2.686   2.726   3.856 -0.0409  0.0849  0.1594
 2325SOL    HW2 9371   2.607   2.777   3.843  0.2721  0.2799 -1.0423
 2325SOL    HW3 9372   2.696   2.720   3.951 -1.0977  0.6668  0.3063
 2325SOL    MW4 9373   2.677   2.732   3.866 -0.1390  0.1874  0.0203
 2326SOL     OW 9374   2.930   2.861   3.785  0.3482  0.1957  0.3546
 2326SOL    HW2 9375   2.932   2.950   3.820 -0.1731  0.1627  0.4581
 2326SOL    HW3 9376   2.843   2.828   3.806  0.6421 -0.4433  0.5722
 2326SOL    MW4 9377   2.919   2.869   3.792  0.3183  0.1070  0.3972
 2327SOL     OW 9378   2.916   3.131   3.860 -0.0690  0.2064  0.2112
 2327SOL    HW2 9379   2.998   3.167   3.827 -0.2710 -1.0284 -1.7547
 2327SOL    HW3 9380   2.848   3.174   3.809 -0.7081  1.6667  2.2522
 2327SOL    MW4 9381   2.918   3.141   3.849 -0.1800  0.2360  0.2213
 2328SOL     OW 9382   2.682   3.246   3.737 -0.1382 -0.6976 -0.1894
 2328SOL    HW2 9383   2.681   3.335   3.772 -1.4513  0.0087 -1.9328
 2328SOL    HW3 9384   2.623   3.198   3.794  0.7921 -0.5288  0.9309
 2328SOL    MW4 9385   2.674   3.252   3.749 -0.1886 -0.5820 -0.2716
 2329SOL     OW 9386   2.676   3.506   3.861  0.0550  0.3594  0.0657
 2329SOL    HW2 9387   2.674   3.505   3.956 -1.4375  0.3459  0.0414
 2329SOL    HW3 9388   2.758   3.550   3.839 -0.0433  1.2114  1.3555
 2329SOL    MW4 9389   2.687   3.512   3.870 -0.1547  0.4702  0.2325
 2330SOL     OW 9390   2.924   3.591   3.771  0.3778  0.2022 -0.3121
 2330SOL    HW2 9391   3.002   3.545   3.802 -0.4759 -1.3009 -0.3213
 2330SOL    HW3 9392   2.914   3.562   3.680  1.1275  2.2203 -1.0788
 2330SOL    MW4 9393   2.933   3.581   3.763  0.3641  0.2699 -0.4146
 2331SOL     OW 9394   2.951   3.834   3.903 -0.2379 -0.3068 -0.5228
 2331SOL    HW2 9395   2.916   3.821   3.992 -1.0261  0.1001 -0.7657
 2331SOL    HW3 9396   2.939   3.750   3.860  0.0191 -0.4658 -0.2865
 2331SOL    MW4 9397   2.945   3.821   3.909 -0.3083 -0.2742 -0.5238
 2332SOL     OW 9398   2.757   3.994   3.777 -0.1295  0.3636 -0.3094
 2332SOL    HW2 9399   2.730   4.078   3.815 -0.2356  0.1161  0.1618
 2332SOL    HW3 9400   2.841   3.974   3.818 -0.7111 -0.3813  0.5282
 2332SOL    MW4 9401   2.764   4.003   3.787 -0.2205  0.2327 -0.1366
 2333SOL     OW 9402   2.692   4.232   3.881  0.2449 -0.5856 -0.4535
 2333SOL    HW2 9403   2.750   4.306   3.864  1.1357 -1.2917 -0.5533
 2333SOL    HW3 9404   2.605   4.261   3.853  0.7849  0.0321 -1.4954
 2333SOL    MW4 9405   2.688   4.245   3.875  0.4337 -0.5975 -0.6039
 2334SOL     OW 9406   2.869   4.419   3.785  0.3288  0.2821 -0.3154
 2334SOL    HW2 9407   2.931   4.359   3.828  0.4932 -0.6591 -1.8230
 2334SOL    HW3 9408   2.887   4.504   3.825  2.3744 -0.0337 -0.4909
 2334SOL    MW4 9409   2.880   4.422   3.796  0.6204  0.1163 -0.5376
 2335SOL     OW 9410   3.348   4.596   3.857  0.4290  0.4768 -0.1362
 2335SOL    HW2 9411   3.349   4.561   3.946 -0.1510 -1.4411 -0.8599
 2335SOL    HW3 9412   3.438   4.627   3.843  0.9395 -0.6472  0.5725
 2335SOL    MW4 9413   3.360   4.595   3.867  0.4199  0.0753 -0.1383
 2336SOL     OW 9414   3.139   0.088   3.791  0.3451  0.4708  0.2081
 2336SOL    HW2 9415   3.213   0.041   3.829 -0.0027 -0.6788 -0.5073
 2336SOL    HW3 9416   3.158   0.092   3.697 -1.0089 -0.8071 -0.1376
 2336SOL    MW4 9417   3.151   0.082   3.783  0.1204  0.1505  0.0682
 2337SOL     OW 9418   3.162   0.352   3.843 -0.3933  0.0397 -0.3463
 2337SOL    HW2 9419   3.174   0.360   3.937  0.1639  1.2438 -0.5243
 2337SOL    HW3 9420   3.151   0.258   3.829 -0.0277 -0.1926  0.8622
 2337SOL    MW4 9421   3.162   0.340   3.853 -0.2713  0.1680 -0.2105
 2338SOL     OW 9422   3.372   0.503   3.773  0.1605  0.5666 -0.3662
 2338SOL    HW2 9423   3.432   0.429   3.783 -0.9272 -0.2169  0.5423
 2338SOL    HW3 9424   3.286   0.467   3.796 -0.4806  1.9637 -0.5254
 2338SOL    MW4 9425   3.368   0.489   3.777 -0.0672  0.6475 -0.2673
 2339SOL     OW 9426   3.334   0.755   3.871 -0.0905 -0.4516  0.6939
 2339SOL    HW2 9427   3.362   0.753   3.963  2.3564 -1.0532 -0.0137
 2339SOL    HW3 9428   3.361   0.670   3.836 -0.3830  0.0332 -0.7449
 2339SOL    MW4 9429   3.342   0.744   3.879  0.1936 -0.4670  0.4110
 2340SOL     OW 9430   3.126   0.875   3.750 -0.0750  0.0641  0.0101
 2340SOL    HW2 9431   3.205   0.844   3.794  0.5857  0.0294 -1.1773
 2340SOL    HW3 9432   3.154   0.893   3.660 -1.3360  0.4016 -0.3275
 2340SOL    MW4 9433   3.140   0.874   3.744 -0.1545  0.1041 -0.1912
 2341SOL     OW 9434   3.131   1.118   3.869  0.0237  0.4494 -0.0112
 2341SOL    HW2 9435   3.121   1.030   3.835 -0.7442  0.2881  0.5939
 2341SOL    HW3 9436   3.058   1.167   3.830  0.8690  0.9958 -0.9110
 2341SOL    MW4 9437   3.120   1.113   3.859  0.0339  0.5002 -0.0503
 2342SOL     OW 9438   3.377   1.243   3.784 -0.4987  0.5478  0.2317
 2342SOL    HW2 9439   3.292   1.215   3.817 -1.5562  2.2037 -1.0226
 2342SOL    HW3 9440   3.368   1.242   3.688  1.5606 -1.2721  0.0076
 2342SOL    MW4 9441   3.365   1.239   3.775 -0.3667  0.5263  0.0365
 2343SOL     OW 9442   3.389   1.524   3.856 -0.2608 -0.0292 -0.3553
 2343SOL    HW2 9443   3.395   1.433   3.829  0.3106  0.2542 -1.1884
 2343SOL    HW3 9444   3.309   1.556   3.813 -1.2703 -0.5186  1.1005
 2343SOL    MW4 9445   3.379   1.517   3.847 -0.3185 -0.0565 -0.2732
 2344SOL     OW 9446   3.173   1.689   3.752 -0.0168 -0.2778  0.2968
 2344SOL    HW2 9447   3.174   1.783   3.768 -1.7365 -0.2407  0.2753
 2344SOL    HW3 9448   3.158   1.680   3.658 -0.8307 -0.5646  0.4450
 2344SOL    MW4 9449   3.171   1.700   3.742 -0.3510 -0.3108  0.3135
 2345SOL     OW 9450   3.158   1.956   3.834 -0.1153 -0.0318  0.3913
 2345SOL    HW2 9451   3.147   1.949   3.929 -0.0653  0.8321  0.4652
 2345SOL    HW3 9452   3.077   1.996   3.803 -0.1328 -0.3147  0.0722
 2345SOL    MW4 9453   3.146   1.960   3.843 -0.1113  0.0448  0.3588
 2346SOL     OW 9454   3.403   2.042   3.764  0.1625 -0.3255  0.0891
 2346SOL    HW2 9455   3.319   2.002   3.786 -0.0473 -0.1077 -0.3140
 2346SOL    HW3 9456   3.402   2.048   3.668 -0.1763  1.4419  0.1959
 2346SOL    MW4 9457   3.392   2.037   3.754  0.0904 -0.0634  0.0501
 2347SOL     OW 9458   3.413   2.312   3.844  0.0518 -0.4297  0.6541
 2347SOL    HW2 9459   3.345   2.369   3.808  0.1037 -0.3555  0.6736
 2347SOL    HW3 9460   3.400   2.228   3.801  0.5083 -0.1645 -0.0001
 2347SOL    MW4 9461   3.403   2.309   3.834  0.1187 -0.3850  0.5703
 2348SOL     OW 9462   3.202   2.458   3.733  0.0515 -0.4678  0.0369
 2348SOL    HW2 9463   3.188   2.547   3.764 -2.1506 -1.1533  1.0704
 2348SOL    HW3 9464   3.175   2.460   3.641 -0.5264 -0.2118  0.2137
 2348SOL    MW4 9465   3.197   2.470   3.725 -0.3154 -0.5245  0.1967
 2349SOL     OW 9466   3.147   2.701   3.859  0.3104  0.1247 -0.0915
 2349SOL    HW2 9467   3.141   2.710   3.954  2.9432 -0.4169  0.1879
 2349SOL    HW3 9468   3.074   2.751   3.825  0.3004  1.7239  2.1762
 2349SOL    MW4 9469   3.137   2.709   3.867  0.6561  0.2644  0.2444
 2350SOL     OW 9470   3.391   2.821   3.795 -0.0626  0.1758  0.0666
 2350SOL    HW2 9471   3.320   2.786   3.849  0.2694 -0.0877  0.3313
 2350SOL    HW3 9472   3.470   2.779   3.828  0.0906 -0.3391 -0.9183
 2350SOL    MW4 9473   3.392   2.811   3.806  0.0014  0.0732 -0.0286
 2351SOL     OW 9474   3.395   3.088   3.847  0.7982  0.1296 -0.2559
 2351SOL    HW2 9475   3.387   2.997   3.818  0.8779  0.0562 -0.0446
 2351SOL    HW3 9476   3.307   3.125   3.833  0.6725 -0.0748 -0.0097
 2351SOL    MW4 9477   3.382   3.081   3.841  0.7920  0.0930 -0.1955
 2352SOL     OW 9478   3.161   3.214   3.765  0.3174  0.0330  0.0967
 2352SOL    HW2 9479   3.163   3.308   3.782 -1.1020 -0.0429  0.7944
 2352SOL    HW3 9480   3.141   3.207   3.672  1.7491  0.4297 -0.2400
 2352SOL    MW4 9481   3.158   3.225   3.755  0.3190  0.0753  0.1442
 2353SOL     OW 9482   3.158   3.493   3.850  0.4086 -0.3910 -0.1842
 2353SOL    HW2 9483   3.231   3.541   3.810 -0.5535  2.0524  0.9023
 2353SOL    HW3 9484   3.179   3.492   3.943 -0.2533 -0.9014 -0.0397
 2353SOL    MW4 9485   3.171   3.499   3.857  0.1945 -0.1359 -0.0219
 2354SOL     OW 9486   3.375   3.613   3.740  0.0892 -0.9171 -0.3988
 2354SOL    HW2 9487   3.366   3.699   3.782  0.4471 -1.4057  0.6672
 2354SOL    HW3 9488   3.366   3.632   3.646 -1.2064  0.0929 -0.0723
 2354SOL    MW4 9489   3.373   3.627   3.733 -0.0346 -0.8483 -0.2151
 2355SOL     OW 9490   3.370   3.843   3.880 -0.1779 -0.1573 -0.1023
 2355SOL    HW2 9491   3.449   3.871   3.835 -0.0920 -0.3194 -0.0540
 2355SOL    HW3 9492   3.305   3.910   3.858  0.2236  0.4800  0.6317
 2355SOL    MW4 9493   3.372   3.855   3.871 -0.1137 -0.0947  0.0010
 2356SOL     OW 9494   3.154   3.998   3.805 -0.4733  0.1017 -0.0598
 2356SOL    HW2 9495   3.128   4.088   3.826 -0.6191  0.4405 -1.5862
 2356SOL    HW3 9496   3.081   3.944   3.833 -1.4113  0.7143 -1.2705
 2356SOL    MW4 9497   3.141   4.003   3.812 -0.6163  0.2275 -0.4210
 2357SOL     OW 9498   3.065   4.240   3.863 -0.4046 -0.2306 -0.2097
 2357SOL    HW2 9499   3.082   4.245   3.957 -0.4022  1.5776 -0.2841
 2357SOL    HW3 9500   3.144   4.277   3.823 -1.4572  1.4417 -0.8059
 2357SOL    MW4 9501   3.078   4.246   3.870 -0.5429  0.2289 -0.2980
 2358SOL     OW 9502   3.311   4.333   3.772 -0.1067 -0.1150  0.7194
 2358SOL    HW2 9503   3.401   4.310   3.793  0.6763  0.5651 -1.7410
 2358SOL    HW3 9504   3.298   4.419   3.813  0.1727 -0.4343  1.4940
 2358SOL    MW4 9505   3.321   4.341   3.781  0.0334 -0.0672  0.4971
 2359SOL     OW 9506   3.830   4.651   3.899  0.0910  0.0404 -0.3164
 2359SOL    HW2 9507   3.911   4.692   3.867  0.5231 -1.1862 -0.8220
 2359SOL    HW3 9508   3.841   4.558   3.880 -1.5942 -0.0987 -0.7339
 2359SOL    MW4 9509   3.842   4.644   3.892 -0.0744 -0.1398 -0.4382
 2360SOL     OW 9510   3.595   0.060   3.758 -0.4717 -0.4054  0.0532
 2360SOL    HW2 9511   3.675   0.020   3.793 -1.0541 -1.2225  0.4667
 2360SOL    HW3 9512   3.608   0.059   3.663 -0.7392 -2.1969  0.0029
 2360SOL    MW4 9513   3.608   0.054   3.750 -0.5836 -0.7496  0.1013
 2361SOL     OW 9514   3.581   0.318   3.849 -0.0425 -0.1897 -0.1415
 2361SOL    HW2 9515   3.653   0.365   3.808  0.7646  0.3998  1.8910
 2361SOL    HW3 9516   3.587   0.228   3.815  1.2733  0.0046 -0.4230
 2361SOL    MW4 9517   3.591   0.312   3.839  0.2375 -0.0863  0.0899
 2362SOL     OW 9518   3.810   0.462   3.750  0.5759  0.1508  0.1760
 2362SOL    HW2 9519   3.893   0.435   3.791  0.0637  1.0112  1.8479
 2362SOL    HW3 9520   3.786   0.543   3.796 -1.4874 -0.4189  0.1618
 2362SOL    MW4 9521   3.818   0.469   3.762  0.2360  0.1892  0.3946
 2363SOL     OW 9522   3.760   0.714   3.881 -0.3524  0.1985  0.3243
 2363SOL    HW2 9523   3.836   0.770   3.861 -0.4144  0.0648 -0.3020
 2363SOL    HW3 9524   3.685   0.763   3.849 -0.4269 -0.1481 -0.0418
 2363SOL    MW4 9525   3.760   0.728   3.874 -0.3705  0.1351  0.1936
 2364SOL     OW 9526   3.569   0.883   3.794  0.0692  0.1346  0.1012
 2364SOL    HW2 9527   3.588   0.967   3.836  2.5661 -0.7236  0.7855
 2364SOL    HW3 9528   3.488   0.854   3.835 -0.3441  1.8113  0.5073
 2364SOL    MW4 9529   3.561   0.890   3.805  0.3440  0.2426  0.2451
 2365SOL     OW 9530   3.584   1.114   3.922  0.2010  0.4296 -0.0837
 2365SOL    HW2 9531   3.661   1.160   3.889 -0.5983  0.0439 -2.5147
 2365SOL    HW3 9532   3.510   1.150   3.873 -0.9781 -0.3508  1.0677
 2365SOL    MW4 9533   3.584   1.125   3.911 -0.0601  0.2757 -0.2525
 2366SOL     OW 9534   3.825   1.243   3.832  0.2863 -0.0943  0.0256
 2366SOL    HW2 9535   3.892   1.191   3.877  0.2514 -0.1078  0.0627
 2366SOL    HW3 9536   3.850   1.334   3.848  0.4745 -0.1002 -0.2331
 2366SOL    MW4 9537   3.837   1.248   3.840  0.3064 -0.0969 -0.0036
 2367SOL     OW 9538   3.852   1.531   3.887 -0.2648  0.7910  0.1634
 2367SOL    HW2 9539   3.830   1.525   3.980 -1.5060  2.0075 -0.0157
 2367SOL    HW3 9540   3.779   1.582   3.849  0.1982  0.2696 -1.4712
 2367SOL    MW4 9541   3.839   1.537   3.894 -0.3674  0.8829 -0.0763
 2368SOL     OW 9542   3.636   1.665   3.767  0.1901  0.0461  0.0613
 2368SOL    HW2 9543   3.561   1.615   3.800 -0.3774  0.6782 -0.2665
 2368SOL    HW3 9544   3.621   1.671   3.673  0.0389  1.1796  0.1484
 2368SOL    MW4 9545   3.624   1.659   3.759  0.0954  0.2789  0.0298
 2369SOL     OW 9546   3.621   1.913   3.930 -0.1520 -0.1475 -0.3459
 2369SOL    HW2 9547   3.546   1.934   3.875 -0.1860 -0.6721 -0.5066
 2369SOL    HW3 9548   3.650   1.827   3.899 -0.7259 -0.8502  1.0344
 2369SOL    MW4 9549   3.615   1.904   3.919 -0.2320 -0.3093 -0.1850
 2370SOL     OW 9550   3.788   2.061   3.723  0.4160 -0.1200  0.2960
 2370SOL    HW2 9551   3.864   2.009   3.751  0.2363  0.4947  1.9824
 2370SOL    HW3 9552   3.713   2.018   3.763  0.1712  0.8773  0.9257
 2370SOL    MW4 9553   3.788   2.049   3.732  0.3598  0.0927  0.6018
 2371SOL     OW 9554   3.847   2.299   3.861  0.2836  0.1535 -0.0187
 2371SOL    HW2 9555   3.768   2.344   3.832  0.6241  0.7240 -0.0603
 2371SOL    HW3 9556   3.845   2.215   3.816  0.0534  0.4445 -0.5470
 2371SOL    MW4 9557   3.836   2.294   3.852  0.2980  0.2670 -0.0939
 2372SOL     OW 9558   3.640   2.431   3.740  0.2057 -0.0717 -0.2962
 2372SOL    HW2 9559   3.561   2.389   3.775  0.3940 -0.5665 -0.4580
 2372SOL    HW3 9560   3.621   2.446   3.648  0.4950 -0.6563 -0.4500
 2372SOL    MW4 9561   3.627   2.427   3.733  0.2687 -0.2141 -0.3381
 2373SOL     OW 9562   3.648   2.690   3.850  0.0155  0.1441 -0.6443
 2373SOL    HW2 9563   3.641   2.597   3.829 -0.5128 -0.1938  0.9639
 2373SOL    HW3 9564   3.666   2.693   3.944 -1.8634  1.7012 -0.2953
 2373SOL    MW4 9565   3.649   2.678   3.859 -0.3018  0.3049 -0.3858
 2374SOL     OW 9566   3.817   2.872   3.732 -0.2296 -0.1216  0.2214
 2374SOL    HW2 9567   3.904   2.842   3.759 -0.6498 -0.3136  1.3966
 2374SOL    HW3 9568   3.757   2.807   3.768 -0.9108  0.3687 -0.0121
 2374SOL    MW4 9569   3.821   2.859   3.740 -0.3748 -0.0823  0.3457
 2375SOL     OW 9570   3.832   3.124   3.839 -0.5771  0.2624 -0.3081
 2375SOL    HW2 9571   3.759   3.179   3.809 -0.9415  0.0083  0.1197
 2375SOL    HW3 9572   3.817   3.040   3.795 -1.1199 -0.1158  0.5931
 2375SOL    MW4 9573   3.820   3.120   3.829 -0.6969  0.1788 -0.1328
 2376SOL     OW 9574   3.602   3.250   3.756  0.1563 -0.6276  0.3970
 2376SOL    HW2 9575   3.601   3.262   3.661 -0.5919 -0.5862  0.4071
 2376SOL    HW3 9576   3.533   3.187   3.774  0.3203 -0.6689  0.9146
 2376SOL    MW4 9577   3.593   3.243   3.746  0.0794 -0.6275  0.4668
 2377SOL     OW 9578   3.541   3.472   3.914  0.0643 -0.2039  0.1762
 2377SOL    HW2 9579   3.558   3.393   3.863  1.0896 -0.3134  0.6601
 2377SOL    HW3 9580   3.478   3.522   3.861  0.7822 -0.5080 -1.0021
 2377SOL    MW4 9581   3.535   3.468   3.900  0.2944 -0.2584  0.0846
 2378SOL     OW 9582   3.796   3.557   3.799  0.0133  0.1738  0.1072
 2378SOL    HW2 9583   3.818   3.642   3.838  1.3534 -0.0987 -0.0472
 2378SOL    HW3 9584   3.719   3.528   3.848  0.4506  0.7801  1.1651
 2378SOL    MW4 9585   3.789   3.565   3.810  0.2477  0.2177  0.2265
 2379SOL     OW 9586   3.817   3.814   3.895 -0.4417  0.0420 -0.4482
 2379SOL    HW2 9587   3.823   3.812   3.990  1.1316 -2.5493 -0.5692
 2379SOL    HW3 9588   3.887   3.873   3.868  0.4076 -0.7802 -0.0731
 2379SOL    MW4 9589   3.827   3.822   3.904 -0.1221 -0.4084 -0.4146
 2380SOL     OW 9590   3.600   3.980   3.779  0.2173 -0.2428 -0.1045
 2380SOL    HW2 9591   3.583   4.056   3.834  0.9039  0.2648 -0.5891
 2380SOL    HW3 9592   3.659   3.925   3.831  1.8843  0.8311 -0.8139
 2380SOL    MW4 9593   3.606   3.982   3.793  0.5276 -0.0341 -0.2625
 2381SOL     OW 9594   3.561   4.243   3.860  0.0484 -0.5880  0.6609
 2381SOL    HW2 9595   3.560   4.238   3.956 -0.0612  0.5629  0.7360
 2381SOL    HW3 9596   3.644   4.286   3.840  0.0854 -0.8628  0.2378
 2381SOL    MW4 9597   3.572   4.248   3.870  0.0389 -0.4721  0.6146
 2382SOL     OW 9598   3.799   4.376   3.788  0.6008 -0.6398  0.6876
 2382SOL    HW2 9599   3.869   4.314   3.808  1.4547 -0.1923 -0.7963
 2382SOL    HW3 9600   3.797   4.378   3.692 -1.8833 -1.1245  0.7146
 2382SOL    MW4 9601   3.808   4.368   3.778  0.3858 -0.6447  0.4954
 2383SOL     OW 9602   4.243   4.630   3.888  0.3314  0.0396  0.0405
 2383SOL    HW2 9603   4.259   4.624   3.982  0.5576  0.5854  0.0424
 2383SOL    HW3 9604   4.323   4.669   3.852  0.4841 -0.7373 -0.4622
 2383SOL    MW4 9605   4.256   4.635   3.896  0.3815  0.0095 -0.0257
 2384SOL     OW 9606   4.049   0.118   3.775 -0.2659  0.0890  0.1702
 2384SOL    HW2 9607   4.121   0.066   3.811 -0.9868 -0.5796  0.6495
 2384SOL    HW3 9608   4.059   0.112   3.680 -0.2411 -0.7756  0.2286
 2384SOL    MW4 9609   4.060   0.111   3.767 -0.3576 -0.1132  0.2413
 2385SOL     OW 9610   4.052   0.404   3.861  0.0411 -0.3351 -0.3927
 2385SOL    HW2 9611   4.069   0.413   3.955 -2.4152  0.7922 -0.0244
 2385SOL    HW3 9612   4.054   0.309   3.845  2.0913 -0.4516  0.4595
 2385SOL    MW4 9613   4.055   0.392   3.872 -0.0124 -0.2017 -0.2317
 2386SOL     OW 9614   4.288   0.537   3.726 -0.1326 -0.0737 -0.1187
 2386SOL    HW2 9615   4.197   0.520   3.752 -0.5744  0.3284 -1.3654
 2386SOL    HW3 9616   4.292   0.510   3.635  0.5031  1.7033 -0.6311
 2386SOL    MW4 9617   4.276   0.531   3.718 -0.1073  0.2138 -0.3507
 2387SOL     OW 9618   4.222   0.745   3.897 -0.5355  0.7180 -0.2598
 2387SOL    HW2 9619   4.144   0.777   3.852 -0.3513  0.1677 -0.9885
 2387SOL    HW3 9620   4.256   0.676   3.839 -1.4766 -1.4777  1.7602
 2387SOL    MW4 9621   4.216   0.740   3.883 -0.6351  0.3557 -0.0892
 2388SOL     OW 9622   3.994   0.848   3.788  0.1412 -0.0670 -0.4923
 2388SOL    HW2 9623   4.020   0.934   3.821  1.4418 -0.3134 -0.8652
 2388SOL    HW3 9624   3.998   0.856   3.693 -0.3882 -0.3449 -0.5383
 2388SOL    MW4 9625   3.998   0.861   3.780  0.2429 -0.1362 -0.5476
 2389SOL     OW 9626   4.047   1.081   3.924 -0.2542  0.0455  0.4170
 2389SOL    HW2 9627   4.036   1.100   4.018  1.6791  1.3830  0.3891
 2389SOL    HW3 9628   4.122   1.134   3.897 -0.6300 -0.5276 -1.8459
 2389SOL    MW4 9629   4.055   1.091   3.933 -0.0486  0.1463  0.1147
 2390SOL     OW 9630   4.241   1.258   3.847 -0.4170 -0.4452  0.2285
 2390SOL    HW2 9631   4.249   1.349   3.875 -3.0320 -0.3852  0.8993
 2390SOL    HW3 9632   4.270   1.258   3.756 -0.4748  1.0833  0.2017
 2390SOL    MW4 9633   4.246   1.270   3.839 -0.7696 -0.2357  0.3135
 2391SOL     OW 9634   4.266   1.525   3.946  0.2230 -0.3917  0.7153
 2391SOL    HW2 9635   4.202   1.564   3.887 -0.5751 -1.3209  0.9758
 2391SOL    HW3 9636   4.351   1.548   3.907 -0.2765 -0.1204 -0.2297
 2391SOL    MW4 9637   4.269   1.533   3.933  0.0520 -0.4785  0.6249
 2392SOL     OW 9638   4.074   1.651   3.773 -0.7930  0.0708 -0.9715
 2392SOL    HW2 9639   4.065   1.745   3.789 -0.6017 -0.0753 -0.0060
 2392SOL    HW3 9640   3.995   1.612   3.811 -0.0379 -0.3402  0.1937
 2392SOL    MW4 9641   4.062   1.658   3.780 -0.6685 -0.0027 -0.6902
 2393SOL     OW 9642   4.021   1.936   3.829 -0.0513  0.6315 -0.0312
 2393SOL    HW2 9643   4.028   1.948   3.923  1.7066  0.4148 -0.1071
 2393SOL    HW3 9644   4.104   1.969   3.794 -0.8093  1.0144 -1.5277
 2393SOL    MW4 9645   4.033   1.942   3.836  0.0806  0.6534 -0.2384
 2394SOL     OW 9646   4.283   2.036   3.754  0.2436 -0.1779 -0.0383
 2394SOL    HW2 9647   4.299   2.124   3.786 -1.3486  0.2736 -0.4693
 2394SOL    HW3 9648   4.281   2.045   3.659  1.6522 -0.9545 -0.1593
 2394SOL    MW4 9649   4.285   2.049   3.746  0.2193 -0.2210 -0.1109
 2395SOL     OW 9650   4.257   2.311   3.845 -0.0577  0.1126  0.4091
 2395SOL    HW2 9651   4.172   2.346   3.817 -0.3403 -0.2103  0.8562
 2395SOL    HW3 9652   4.248   2.301   3.940 -0.2929 -2.0051  0.1825
 2395SOL    MW4 9653   4.244   2.314   3.854 -0.1259 -0.2093  0.4385
 2396SOL     OW 9654   4.045   2.456   3.753  0.5295 -0.4266  0.4578
 2396SOL    HW2 9655   4.044   2.548   3.782  0.7311 -0.2777 -0.0096
 2396SOL    HW3 9656   3.975   2.414   3.804  1.5685 -0.4024  1.9459
 2396SOL    MW4 9657   4.036   2.463   3.764  0.6924 -0.4036  0.5927
 2397SOL     OW 9658   4.049   2.725   3.841  0.3891 -0.3841  0.1151
 2397SOL    HW2 9659   4.052   2.721   3.937  0.7774  1.8675  0.2181
 2397SOL    HW3 9660   4.135   2.757   3.816 -0.6754  1.7901 -0.8131
 2397SOL    MW4 9661   4.061   2.728   3.851  0.2995  0.1998  0.0062
 2398SOL     OW 9662   4.278   2.860   3.761  0.1893 -0.3374  0.1195
 2398SOL    HW2 9663   4.280   2.944   3.806  1.6518 -0.3030  0.0352
 2398SOL    HW3 9664   4.351   2.811   3.799  0.9618 -0.5998 -1.6244
 2398SOL    MW4 9665   4.288   2.864   3.772  0.4840 -0.3672 -0.1214
 2399SOL     OW 9666   4.281   3.118   3.868 -0.1066  0.5202  0.2134
 2399SOL    HW2 9667   4.201   3.154   3.829  0.0206  0.5111 -0.0573
 2399SOL    HW3 9668   4.352   3.159   3.819  0.0194 -0.7997 -0.7121
 2399SOL    MW4 9669   4.280   3.128   3.856 -0.0734  0.3450  0.0556
 2400SOL     OW 9670   4.076   3.240   3.758 -0.1321  0.4657  0.4209
 2400SOL    HW2 9671   3.994   3.199   3.786  0.2811 -0.6251  0.0318
 2400SOL    HW3 9672   4.068   3.247   3.662 -0.0002  0.8525  0.4370
 2400SOL    MW4 9673   4.064   3.236   3.749 -0.0601  0.3726  0.3715
 2401SOL     OW 9674   3.784   3.847   4.159  0.1727  0.0795 -0.3620
 2401SOL    HW2 9675   3.870   3.881   4.183  0.2470 -0.3488 -0.0112
 2401SOL    HW3 9676   3.775   3.766   4.210 -0.3287 -0.0115 -0.5905
 2401SOL    MW4 9677   3.794   3.841   4.169  0.1163  0.0112 -0.3462
 2402SOL     OW 9678   4.288   3.635   3.780 -0.4177 -0.4270 -0.0692
 2402SOL    HW2 9679   4.217   3.586   3.820 -0.1651  0.2135  1.1951
 2402SOL    HW3 9680   4.367   3.585   3.801 -0.4454 -0.9994 -1.2483
 2402SOL    MW4 9681   4.289   3.622   3.788 -0.3877 -0.4179 -0.0579
 2403SOL     OW 9682   4.293   3.877   3.900 -0.0175 -0.3299  0.7331
 2403SOL    HW2 9683   4.211   3.908   3.861 -0.1485 -0.1697  1.1228
 2403SOL    HW3 9684   4.303   3.787   3.868 -0.0350 -0.1424  0.2075
 2403SOL    MW4 9685   4.283   3.869   3.891 -0.0377 -0.2840  0.7153
 2404SOL     OW 9686   4.035   3.970   3.799  0.4107 -0.5071 -0.0921
 2404SOL    HW2 9687   4.014   4.058   3.831 -0.0209  0.3143 -2.5632
 2404SOL    HW3 9688   4.030   3.977   3.704 -0.8437 -3.5348 -0.2861
 2404SOL    MW4 9689   4.032   3.982   3.791  0.1879 -0.7980 -0.4439
 2405SOL     OW 9690   3.999   4.214   3.895  0.0347  0.3034  0.3300
 2405SOL    HW2 9691   4.021   4.232   3.986  0.2432 -0.8073  0.5088
 2405SOL    HW3 9692   4.066   4.259   3.844 -1.9088  3.6626  0.5859
 2405SOL    MW4 9693   4.011   4.222   3.900 -0.1936  0.5999  0.3872
 2406SOL     OW 9694   4.204   4.361   3.784 -0.0600 -0.3532  0.1580
 2406SOL    HW2 9695   4.201   4.442   3.835 -0.8876 -0.0281 -0.3967
 2406SOL    HW3 9696   4.288   4.321   3.808 -0.2040  0.0490  1.3806
 2406SOL    MW4 9697   4.215   4.367   3.794 -0.1884 -0.2575  0.2460
 2407SOL     OW 9698   1.205   3.024   4.430 -0.2213 -0.2461 -0.2591
 2407SOL    HW2 9699   1.180   2.942   4.473 -1.4357  0.2957  0.0613
 2407SOL    HW3 9700   1.290   3.046   4.469 -0.3197 -0.8688  0.3140
 2407SOL    MW4 9701   1.213   3.016   4.441 -0.3945 -0.2565 -0.1416
 2408SOL     OW 9702   3.794   3.852   4.781  0.5112 -0.0650  0.4545
 2408SOL    HW2 9703   3.800   3.940   4.744 -0.6956 -0.0055  0.3562
 2408SOL    HW3 9704   3.842   3.797   4.720 -0.1381  0.2726 -0.3685
 2408SOL    MW4 9705   3.801   3.857   4.768  0.2663 -0.0129  0.3333
 2409SOL     OW 9706   3.870   2.939   4.534 -0.0474 -0.3337  0.1003
 2409SOL    HW2 9707   3.861   3.034   4.537 -0.8296 -0.4508  1.9520
 2409SOL    HW3 9708   3.963   2.923   4.551  0.4297  0.1561 -1.9523
 2409SOL    MW4 9709   3.881   2.949   4.537 -0.0875 -0.2847  0.0739
 2410SOL     OW 9710   0.684   0.765   4.151  0.1228 -0.3759 -0.2573
 2410SOL    HW2 9711   0.756   0.827   4.164 -0.1596  0.0011 -0.4589
 2410SOL    HW3 9712   0.679   0.754   4.056  0.2900 -0.8526 -0.2134
 2410SOL    MW4 9713   0.693   0.772   4.140  0.1076 -0.3890 -0.2780
 2411SOL     OW 9714   2.487   3.591   4.200 -0.4060 -0.2810  0.0763
 2411SOL    HW2 9715   2.478   3.676   4.157 -0.3967  0.7397  2.0392
 2411SOL    HW3 9716   2.402   3.548   4.187 -0.9111  0.6352  0.3298
 2411SOL    MW4 9717   2.475   3.596   4.193 -0.4716 -0.0255  0.3686
 2412SOL     OW 9718   0.010   1.659   4.234  0.0664 -0.1195 -0.2302
 2412SOL    HW2 9719  -0.066   1.601   4.237 -0.2857  0.3823  0.7154
 2412SOL    HW3 9720   0.015   1.697   4.322  1.4275 -0.1679 -0.2649
 2412SOL    MW4 9721   0.001   1.656   4.246  0.1995 -0.0598 -0.1101
 2413SOL     OW 9722   0.680   4.470   4.474  0.3185  0.3393  0.4015
 2413SOL    HW2 9723   0.688   4.476   4.379  1.5533  0.2226  0.4918
 2413SOL    HW3 9724   0.587   4.486   4.491  0.4538  2.3687 -0.6477
 2413SOL    MW4 9725   0.669   4.473   4.464  0.4993  0.5918  0.2751
 2414SOL     OW 9726   1.802   0.070   4.539  0.4075  0.1952  0.2231
 2414SOL    HW2 9727   1.772  -0.018   4.517 -1.4705  1.2936 -1.8757
 2414SOL    HW3 9728   1.886   0.057   4.583 -0.4820 -2.6867  1.1265
 2414SOL    MW4 9729   1.809   0.057   4.542  0.0422 -0.0401  0.0653
 2415SOL     OW 9730   2.949   1.495   4.117 -0.1591  0.0049 -0.4659
 2415SOL    HW2 9731   2.882   1.552   4.154  1.8972  0.9839  1.9168
 2415SOL    HW3 9732   2.932   1.409   4.155 -0.8113 -0.0316 -0.8438
 2415SOL    MW4 9733   2.938   1.491   4.127  0.0262  0.1293 -0.2017
 2416SOL     OW 9734   0.245   1.532   4.129  0.1037 -0.1538 -0.0402
 2416SOL    HW2 9735   0.246   1.449   4.175 -0.6220 -0.4491 -0.5638
 2416SOL    HW3 9736   0.163   1.574   4.156  0.1928  0.1406 -0.2241
 2416SOL    MW4 9737   0.234   1.527   4.138  0.0197 -0.1539 -0.1335
 2417SOL     OW 9738   2.414   1.871   4.581 -0.1690  0.6417  0.0254
 2417SOL    HW2 9739   2.384   1.959   4.560  0.2157  1.1076  1.4249
 2417SOL    HW3 9740   2.342   1.814   4.554 -0.4109  1.3650 -0.9031
 2417SOL    MW4 9741   2.401   1.875   4.574 -0.1502  0.7987  0.0868
 2418SOL     OW 9742   2.913   4.005   4.365  0.1650 -0.3939  0.0685
 2418SOL    HW2 9743   2.877   4.092   4.382 -0.0233 -0.5236  0.3349
 2418SOL    HW3 9744   2.919   3.963   4.451 -0.2493 -0.8385 -0.1140
 2418SOL    MW4 9745   2.909   4.011   4.379  0.0854 -0.4697  0.0792
 2419SOL     OW 9746   0.172   2.309   4.185 -0.3634  0.4924  0.7465
 2419SOL    HW2 9747   0.191   2.217   4.201  1.3663  1.0777  2.1657
 2419SOL    HW3 9748   0.187   2.321   4.091  0.6543 -0.3899  0.7945
 2419SOL    MW4 9749   0.176   2.299   4.175 -0.0010  0.4530  0.9403
 2420SOL     OW 9750   1.439   0.464   4.596 -0.0848 -0.0740  0.8157
 2420SOL    HW2 9751   1.500   0.485   4.525 -0.1479  0.6801  0.9764
 2420SOL    HW3 9752   1.495   0.432   4.667  0.0455 -0.1797  0.6646
 2420SOL    MW4 9753   1.455   0.463   4.596 -0.0759  0.0116  0.8168
 2421SOL     OW 9754   1.013   1.575   4.506  0.2014  0.2136  0.3749
 2421SOL    HW2 9755   1.029   1.647   4.566 -0.0409  0.0991  0.5779
 2421SOL    HW3 9756   1.010   1.617   4.419 -0.6083  0.5464  0.5594
 2421SOL    MW4 9757   1.014   1.590   4.502  0.0626  0.2424  0.4263
 2422SOL     OW 9758   0.022   2.697   4.182  0.5121  0.4848  0.0296
 2422SOL    HW2 9759  -0.062   2.733   4.211  0.5386  0.4421  0.1590
 2422SOL    HW3 9760   0.011   2.602   4.191  0.2349  0.4272 -0.8710
 2422SOL    MW4 9761   0.009   2.689   4.187  0.4792  0.4716 -0.0720
 2423SOL     OW 9762   0.234   3.071   4.096 -0.0360 -0.0445  0.0888
 2423SOL    HW2 9763   0.249   2.984   4.135  1.4745  0.1290 -0.0886
 2423SOL    HW3 9764   0.160   3.106   4.145  1.2328 -0.2154  2.2010
 2423SOL    MW4 9765   0.226   3.064   4.108  0.3307 -0.0443  0.3443
 2424SOL     OW 9766   0.012   3.195   4.241  0.3182  0.2797  0.5242
 2424SOL    HW2 9767   0.016   3.190   4.337 -1.0681  0.0226  0.5757
 2424SOL    HW3 9768   0.002   3.288   4.222 -2.1861  0.1017  0.7690
 2424SOL    MW4 9769   0.011   3.206   4.251 -0.1951  0.2224  0.5636
 2425SOL     OW 9770   0.003   3.473   4.174  0.1717 -0.0076 -0.6338
 2425SOL    HW2 9771  -0.078   3.521   4.194 -0.5427 -0.5848 -2.0906
 2425SOL    HW3 9772  -0.003   3.453   4.081  1.4686 -1.0471 -0.5110
 2425SOL    MW4 9773  -0.009   3.477   4.165  0.2484 -0.2208 -0.8097
 2426SOL     OW 9774   0.213   3.641   4.249  0.0515 -0.0789 -0.4635
 2426SOL    HW2 9775   0.202   3.660   4.342 -0.4763  1.9207 -0.9097
 2426SOL    HW3 9776   0.138   3.587   4.226 -0.4654  0.4407  0.0064
 2426SOL    MW4 9777   0.202   3.636   4.258 -0.0864  0.2537 -0.4606
 2427SOL     OW 9778   0.215   3.890   4.138 -0.0653  0.4474  0.6803
 2427SOL    HW2 9779   0.220   3.800   4.171 -0.6640 -0.0699 -0.6201
 2427SOL    HW3 9780   0.132   3.923   4.171  0.3739  0.7047  1.5632
 2427SOL    MW4 9781   0.205   3.882   4.147 -0.0863  0.4127  0.6251
 2428SOL     OW 9782   4.484   4.018   4.262 -0.0155 -0.1585  0.0409
 2428SOL    HW2 9783   4.406   3.973   4.230 -0.4593 -0.2492  1.2188
 2428SOL    HW3 9784   4.472   4.021   4.357  0.1500  2.1907  0.0180
 2428SOL    MW4 9785   4.472   4.013   4.271 -0.0523  0.1397  0.1931
 2429SOL     OW 9786   0.461   1.121   4.576  0.1869 -0.5846 -0.2084
 2429SOL    HW2 9787   0.431   1.037   4.540  0.1268 -0.4029 -0.5874
 2429SOL    HW3 9788   0.386   1.180   4.564  0.1802 -0.5156  0.1857
 2429SOL    MW4 9789   0.447   1.118   4.569  0.1781 -0.5516 -0.2065
 2430SOL     OW 9790   4.050   0.133   4.270 -0.5125 -0.3270 -0.1539
 2430SOL    HW2 9791   4.030   0.159   4.360 -0.4938 -0.3567 -0.1406
 2430SOL    HW3 9792   4.074   0.215   4.226 -2.4096 -0.0050 -0.6314
 2430SOL    MW4 9793   4.051   0.147   4.276 -0.7606 -0.2884 -0.2151
 2431SOL     OW 9794   0.265   4.113   4.615 -0.5235  0.4745 -0.5008
 2431SOL    HW2 9795   0.333   4.057   4.577 -1.5736 -0.5996 -0.8240
 2431SOL    HW3 9796   0.286   4.201   4.583  1.1780  0.2841  0.0573
 2431SOL    MW4 9797   0.277   4.117   4.605 -0.4376  0.3080 -0.4702
 2432SOL     OW 9798   4.210   2.110   4.522  0.4316  0.6666 -0.2781
 2432SOL    HW2 9799   4.208   2.097   4.427 -0.2035  0.4452 -0.2380
 2432SOL    HW3 9800   4.118   2.118   4.547  0.6353  1.4919  0.2198
 2432SOL    MW4 9801   4.198   2.109   4.513  0.3753  0.7463 -0.2069
 2433SOL     OW 9802   0.470   0.353   4.158 -0.8977  0.2404 -0.0147
 2433SOL    HW2 9803   0.493   0.350   4.065  0.1036  1.0824  0.2001
 2433SOL    HW3 9804   0.403   0.422   4.164  0.0114  1.1240  0.0870
 2433SOL    MW4 9805   0.464   0.362   4.147 -0.6456  0.4681  0.0272
 2434SOL     OW 9806   1.154   4.323   4.244  0.0860  0.0101  0.8321
 2434SOL    HW2 9807   1.173   4.279   4.326  1.9171  0.0317  0.4422
 2434SOL    HW3 9808   1.230   4.307   4.189  0.0275  2.1592  0.0501
 2434SOL    MW4 9809   1.166   4.315   4.247  0.3200  0.2966  0.6771
 2435SOL     OW 9810   1.356   1.185   4.111 -0.4517 -0.0806 -0.1947
 2435SOL    HW2 9811   1.414   1.249   4.151  0.7911 -0.1922 -1.7964
 2435SOL    HW3 9812   1.361   1.109   4.169 -1.3106  0.9647  1.2725
 2435SOL    MW4 9813   1.364   1.183   4.124 -0.4009  0.0426 -0.2127
 2436SOL     OW 9814   0.203   2.057   4.280 -0.2668 -0.0385 -0.1535
 2436SOL    HW2 9815   0.231   2.072   4.371 -0.6891 -0.5768  0.0678
 2436SOL    HW3 9816   0.278   2.015   4.238 -0.3197 -0.4224  0.1329
 2436SOL    MW4 9817   0.216   2.053   4.287 -0.3295 -0.1602 -0.0868
 2437SOL     OW 9818   3.768   2.289   4.129 -0.1136 -0.1695  0.2924
 2437SOL    HW2 9819   3.783   2.272   4.036  0.4636 -0.0249  0.3568
 2437SOL    HW3 9820   3.797   2.209   4.173 -1.3749 -0.6498  0.2717
 2437SOL    MW4 9821   3.774   2.276   4.123 -0.2038 -0.2136  0.2980
 2438SOL     OW 9822   1.092   1.045   4.621  0.0033  0.0127  0.1538
 2438SOL    HW2 9823   1.050   1.052   4.706  0.7705 -0.2725  0.5556
 2438SOL    HW3 9824   1.092   1.134   4.586  1.4722  0.4763  1.3047
 2438SOL    MW4 9825   1.086   1.058   4.627  0.2984  0.0362  0.3586
 2439SOL     OW 9826   0.617   1.653   4.666  0.0104 -0.1304  0.2757
 2439SOL    HW2 9827   0.685   1.586   4.657  0.3641  0.0550  1.4181
 2439SOL    HW3 9828   0.568   1.626   4.744 -0.6949  0.2080 -0.0473
 2439SOL    MW4 9829   0.619   1.641   4.676 -0.0360 -0.0613  0.3839
 2440SOL     OW 9830   0.839   0.001   4.599 -0.0394  0.0357 -0.7869
 2440SOL    HW2 9831   0.775   0.058   4.642 -0.3529  1.0617 -2.5596
 2440SOL    HW3 9832   0.787  -0.063   4.551  0.3033 -0.9942  0.1988
 2440SOL    MW4 9833   0.824   0.000   4.598 -0.0356  0.0348 -0.8903
 2441SOL     OW 9834   3.837   3.218   4.612  0.0195 -0.1414 -0.0405
 2441SOL    HW2 9835   3.798   3.297   4.576 -0.5019 -0.3603  0.0473
 2441SOL    HW3 9836   3.784   3.197   4.689  0.8747  0.0944  0.6318
 2441SOL    MW4 9837   3.825   3.226   4.618  0.0634 -0.1392  0.0601
 2442SOL     OW 9838   3.512   3.748   4.826  0.0606 -0.7297  0.0359
 2442SOL    HW2 9839   3.602   3.779   4.829 -0.2439  0.1195  0.6541
 2442SOL    HW3 9840   3.463   3.811   4.879 -1.2030 -0.1389 -1.7516
 2442SOL    MW4 9841   3.517   3.761   4.833 -0.1466 -0.5395 -0.1187
 2443SOL     OW 9842   1.127   2.773   4.534  0.0816 -0.2026 -0.6949
 2443SOL    HW2 9843   1.179   2.699   4.502  0.3646 -0.5212  0.4663
 2443SOL    HW3 9844   1.038   2.738   4.543  0.1290 -0.2854 -0.5461
 2443SOL    MW4 9845   1.122   2.759   4.531  0.1252 -0.2553 -0.5221
 2444SOL     OW 9846   0.261   1.788   4.668  0.0035  0.1310 -0.0830
 2444SOL    HW2 9847   0.300   1.726   4.607 -1.7643 -0.8138 -0.2726
 2444SOL    HW3 9848   0.283   1.874   4.632  0.2268 -0.4098 -1.2472
 2444SOL    MW4 9849   0.269   1.791   4.656 -0.2003 -0.0648 -0.2618
 2445SOL     OW 9850   2.876   2.603   4.645  0.2150  0.0106  0.0598
 2445SOL    HW2 9851   2.824   2.550   4.585  0.1764  0.6453 -0.4730
 2445SOL    HW3 9852   2.813   2.666   4.681  0.7722  1.3144 -1.2079
 2445SOL    MW4 9853   2.861   2.605   4.642  0.2835  0.2663 -0.1779
 2446SOL     OW 9854   0.639   3.128   4.110  0.2866  0.2868 -0.3068
 2446SOL    HW2 9855   0.711   3.172   4.156 -0.0195  0.7096 -0.2287
 2446SOL    HW3 9856   0.561   3.151   4.160  0.3063 -1.5977  0.6171
 2446SOL    MW4 9857   0.639   3.137   4.122  0.2488  0.0937 -0.1745
 2447SOL     OW 9858   2.404   1.014   4.523  0.0828  0.1782  0.4441
 2447SOL    HW2 9859   2.494   0.983   4.526 -0.3549 -1.0058  1.7266
 2447SOL    HW3 9860   2.400   1.084   4.588 -0.0029  0.0047  0.6268
 2447SOL    MW4 9861   2.415   1.019   4.532  0.0141 -0.0008  0.6375
 2448SOL     OW 9862   0.428   3.218   4.244 -0.1127 -0.1545  0.2938
 2448SOL    HW2 9863   0.368   3.170   4.187 -0.7325  1.6433 -0.6171
 2448SOL    HW3 9864   0.419   3.309   4.216  1.1959  0.4634  1.8290
 2448SOL    MW4 9865   0.419   3.224   4.233 -0.0218  0.1643  0.3757
 2449SOL     OW 9866   0.420   3.488   4.163 -0.4079  0.4899 -0.1275
 2449SOL    HW2 9867   0.351   3.552   4.184 -1.6166 -0.5704 -0.7845
 2449SOL    HW3 9868   0.411   3.474   4.069  0.9015  0.5467 -0.2634
 2449SOL    MW4 9869   0.410   3.495   4.154 -0.3946  0.3576 -0.2317
 2450SOL     OW 9870   0.676   3.628   4.251  0.5225 -0.0662 -0.3330
 2450SOL    HW2 9871   0.601   3.587   4.209  0.4612  0.7050 -0.9876
 2450SOL    HW3 9872   0.749   3.569   4.233  0.3370 -0.1425 -0.8273
 2450SOL    MW4 9873   0.676   3.615   4.243  0.4898  0.0255 -0.4845
 2451SOL     OW 9874   0.711   3.850   4.111 -0.0832  0.5963  0.1178
 2451SOL    HW2 9875   0.638   3.896   4.152  0.5627  0.8682  0.9657
 2451SOL    HW3 9876   0.706   3.761   4.147  0.5682  0.8735  0.9008
 2451SOL    MW4 9877   0.701   3.844   4.121  0.0880  0.6688  0.3324
 2452SOL     OW 9878   0.472   3.988   4.193  0.3779  0.4994 -0.2700
 2452SOL    HW2 9879   0.483   4.074   4.151 -0.1281  1.0501  0.6895
 2452SOL    HW3 9880   0.378   3.973   4.191  0.1622  1.3576  2.2353
 2452SOL    MW4 9881   0.461   3.998   4.187  0.2827  0.6855  0.1864
 2453SOL     OW 9882   0.517   4.258   4.104 -0.6770 -0.0821 -0.3654
 2453SOL    HW2 9883   0.436   4.291   4.143  0.3587  1.6843  0.3690
 2453SOL    HW3 9884   0.499   4.255   4.010 -0.6145  3.3833 -0.5806
 2453SOL    MW4 9885   0.504   4.262   4.097 -0.5320  0.6080 -0.2971
 2454SOL     OW 9886   2.090   4.093   4.599 -0.5162  0.0157 -0.3110
 2454SOL    HW2 9887   2.129   4.024   4.545 -1.3915  0.8088 -1.9975
 2454SOL    HW3 9888   2.005   4.057   4.626 -0.1236 -0.3396  0.4786
 2454SOL    MW4 9889   2.084   4.079   4.595 -0.5801  0.0734 -0.4296
 2455SOL     OW 9890   1.716   3.241   4.486 -0.3153  0.0477  0.2030
 2455SOL    HW2 9891   1.747   3.224   4.397 -0.6693  0.2515  0.0405
 2455SOL    HW3 9892   1.707   3.336   4.490 -0.2051  0.0465  0.4889
 2455SOL    MW4 9893   1.719   3.252   4.475 -0.3473  0.0744  0.2189
 2456SOL     OW 9894   2.032   0.420   4.220  0.0758 -0.1181  0.1444
 2456SOL    HW2 9895   1.947   0.388   4.191 -1.0823  2.1382  0.9475
 2456SOL    HW3 9896   2.023   0.431   4.315  0.9643  1.0111  0.1118
 2456SOL    MW4 9897   2.020   0.417   4.229  0.0403  0.3286  0.2465
 2457SOL     OW 9898   0.935   0.376   4.150 -0.2791 -0.0297 -0.1227
 2457SOL    HW2 9899   0.934   0.294   4.199 -0.6452 -0.3997 -0.7454
 2457SOL    HW3 9900   0.854   0.420   4.177 -0.2147  0.0026  0.0142
 2457SOL    MW4 9901   0.924   0.371   4.160 -0.3189 -0.0743 -0.1864
 2458SOL     OW 9902   1.216   0.607   4.520  0.3117  0.2907 -0.3771
 2458SOL    HW2 9903   1.296   0.568   4.557  0.1433 -0.0457 -0.3676
 2458SOL    HW3 9904   1.197   0.555   4.442  1.0395  1.4205 -1.3228
 2458SOL    MW4 9905   1.224   0.595   4.515  0.3855  0.3954 -0.5007
 2459SOL     OW 9906   1.135   0.759   4.165 -0.5593  0.2982 -0.4493
 2459SOL    HW2 9907   1.167   0.671   4.184  1.7444  0.5389 -2.8619
 2459SOL    HW3 9908   1.201   0.817   4.203 -2.2389  1.0318  1.4252
 2459SOL    MW4 9909   1.148   0.755   4.172 -0.4770  0.4267 -0.5198
 2460SOL     OW 9910   3.929   3.697   4.588  0.5404  0.3932 -0.1627
 2460SOL    HW2 9911   3.945   3.787   4.561  1.3898  0.3352  0.1028
 2460SOL    HW3 9912   4.017   3.657   4.589  0.1881 -0.3883 -0.1362
 2460SOL    MW4 9913   3.943   3.703   4.584  0.6061  0.2825 -0.1245
 2461SOL     OW 9914   0.413   1.154   4.148 -0.0023 -0.4793 -0.1280
 2461SOL    HW2 9915   0.421   1.063   4.177  2.6819 -0.6168 -1.1761
 2461SOL    HW3 9916   0.420   1.150   4.052  1.0963  0.9015 -0.1255
 2461SOL    MW4 9917   0.415   1.141   4.139  0.4967 -0.3153 -0.2656
 2462SOL     OW 9918   0.684   0.987   4.726 -0.0416  0.0105 -0.2457
 2462SOL    HW2 9919   0.669   0.893   4.740 -0.3918  0.1547  0.3775
 2462SOL    HW3 9920   0.599   1.020   4.696  0.1417  0.0861 -0.6731
 2462SOL    MW4 9921   0.670   0.979   4.724 -0.0636  0.0395 -0.2203
 2463SOL     OW 9922   0.943   0.656   4.629 -0.5185  0.6316  0.6036
 2463SOL    HW2 9923   1.037   0.671   4.625 -0.1755 -1.5030 -0.0018
 2463SOL    HW3 9924   0.904   0.736   4.595  1.0943  1.2764  0.2341
 2463SOL    MW4 9925   0.950   0.669   4.624 -0.2605  0.4351  0.4749
 2464SOL     OW 9926   0.261   4.367   4.223  0.1041 -0.2439  0.2109
 2464SOL    HW2 9927   0.249   4.359   4.318  2.1430 -1.7289  0.3914
 2464SOL    HW3 9928   0.183   4.325   4.186 -0.2598 -0.4955  1.2372
 2464SOL    MW4 9929   0.249   4.360   4.231  0.3251 -0.4730  0.3700
 2465SOL     OW 9930   0.447   1.682   4.221 -0.4122  0.0379 -0.0862
 2465SOL    HW2 9931   0.527   1.633   4.205 -1.7498 -1.8486 -1.2170
 2465SOL    HW3 9932   0.378   1.631   4.178 -2.2011  1.7007  0.7029
 2465SOL    MW4 9933   0.449   1.669   4.213 -0.8247  0.0083 -0.1316
 2466SOL     OW 9934   3.159   1.676   4.189  0.2855 -0.5156 -0.9174
 2466SOL    HW2 9935   3.103   1.611   4.146 -1.1553 -0.2825  0.6078
 2466SOL    HW3 9936   3.248   1.645   4.171 -0.3299 -1.5539 -2.2997
 2466SOL    MW4 9937   3.164   1.663   4.181  0.0141 -0.6219 -0.8988
 2467SOL     OW 9938   0.243   4.374   4.508 -0.0264 -0.0108 -0.3570
 2467SOL    HW2 9939   0.174   4.409   4.563 -1.2673  0.4144 -2.1583
 2467SOL    HW3 9940   0.307   4.445   4.501 -0.9160  0.6961 -1.2615
 2467SOL    MW4 9941   0.243   4.388   4.515 -0.3075  0.1388 -0.7143
 2468SOL     OW 9942   0.389   2.480   4.357 -0.0636 -0.0680  0.2151
 2468SOL    HW2 9943   0.428   2.542   4.295 -1.4230 -0.1467 -0.7276
 2468SOL    HW3 9944   0.319   2.438   4.309 -0.2067 -1.1896  1.3665
 2468SOL    MW4 9945   0.385   2.482   4.343 -0.2618 -0.2265  0.2427
 2469SOL     OW 9946   1.969   4.282   4.411  0.1151  0.3259 -0.3638
 2469SOL    HW2 9947   1.995   4.216   4.476  0.5857  0.1413 -0.7369
 2469SOL    HW3 9948   1.930   4.231   4.340  0.7930  0.4185 -0.8061
 2469SOL    MW4 9949   1.968   4.267   4.410  0.2667  0.3133 -0.4711
 2470SOL     OW 9950   1.777   2.648   4.159 -0.2168 -0.1830 -0.1321
 2470SOL    HW2 9951   1.762   2.572   4.215 -1.1341  0.7103  0.8522
 2470SOL    HW3 9952   1.845   2.698   4.204  0.4938 -0.4774 -0.8542
 2470SOL    MW4 9953   1.784   2.644   4.172 -0.2441 -0.1037 -0.0973
 2471SOL     OW 9954   1.070   3.065   4.105  0.0369 -0.5791 -0.4388
 2471SOL    HW2 9955   1.164   3.073   4.122  0.0369 -0.8517 -0.3047
 2471SOL    HW3 9956   1.064   3.046   4.011  0.0258  1.1778 -0.8025
 2471SOL    MW4 9957   1.082   3.063   4.095  0.0354 -0.3831 -0.4687
 2472SOL     OW 9958   0.884   3.482   4.140 -0.0213  0.3513 -0.0693
 2472SOL    HW2 9959   0.876   3.391   4.168 -1.0765  0.3764 -0.2770
 2472SOL    HW3 9960   0.885   3.478   4.045  0.1097  0.5431 -0.0751
 2472SOL    MW4 9961   0.883   3.469   4.131 -0.1432  0.3800 -0.0978
 2473SOL     OW 9962   2.439   2.775   4.263 -0.1723 -0.4525 -0.4801
 2473SOL    HW2 9963   2.518   2.737   4.225  1.7182  1.6397  1.2468
 2473SOL    HW3 9964   2.422   2.723   4.341  0.1194 -0.2596 -0.2860
 2473SOL    MW4 9965   2.447   2.763   4.268  0.1156 -0.1507 -0.2265
 2474SOL     OW 9966   1.075   3.836   4.139 -0.1152  0.2503  0.0032
 2474SOL    HW2 9967   1.085   3.758   4.194 -1.1620 -0.1970 -0.4299
 2474SOL    HW3 9968   1.016   3.893   4.188  2.3339  1.7355  1.3224
 2474SOL    MW4 9969   1.069   3.833   4.152  0.0699  0.3872  0.1197
 2475SOL     OW 9970   3.513   3.203   4.536  0.0830 -0.2849  0.0968
 2475SOL    HW2 9971   3.418   3.194   4.547  0.1331  0.2923  1.0378
 2475SOL    HW3 9972   3.549   3.179   4.621  0.8506 -1.5669 -0.5848
 2475SOL    MW4 9973   3.505   3.199   4.548  0.1905 -0.3779  0.1307
 2476SOL     OW 9974   4.170   2.896   4.563  0.4678  0.0513 -0.2478
 2476SOL    HW2 9975   4.193   2.883   4.472 -1.8493  1.6487 -1.1177
 2476SOL    HW3 9976   4.182   2.990   4.578  0.8211 -0.1963  1.0855
 2476SOL    MW4 9977   4.174   2.907   4.553  0.2089  0.2294 -0.1869
 2477SOL     OW 9978   3.468   3.987   4.510 -0.0889 -0.6536  0.2912
 2477SOL    HW2 9979   3.402   4.055   4.522  0.3126  0.0380 -1.2788
 2477SOL    HW3 9980   3.420   3.905   4.523 -0.7059 -0.1113  1.5924
 2477SOL    MW4 9981   3.453   3.985   4.514 -0.1173 -0.4907  0.2561
 2478SOL     OW 9982   1.374   4.225   4.127 -0.1424  0.1968 -0.2288
 2478SOL    HW2 9983   1.364   4.218   4.032  0.8557  0.5779 -0.3679
 2478SOL    HW3 9984   1.352   4.138   4.160  1.1043 -0.3980 -0.9515
 2478SOL    MW4 9985   1.370   4.213   4.119  0.1538  0.1688 -0.3424
 2479SOL     OW 9986   3.699   0.166   4.582  0.6043  0.3452 -0.3187
 2479SOL    HW2 9987   3.632   0.143   4.646  0.6382  1.4823  0.1346
 2479SOL    HW3 9988   3.657   0.152   4.497 -0.0870  0.6692 -0.0338
 2479SOL    MW4 9989   3.685   0.161   4.579  0.5176  0.5380 -0.2213
 2480SOL     OW 9990   3.387   1.241   4.543  0.0789 -0.5641  0.3667
 2480SOL    HW2 9991   3.354   1.245   4.453 -0.0237 -1.2891  0.3667
 2480SOL    HW3 9992   3.405   1.332   4.566 -1.5361 -0.1934  0.2323
 2480SOL    MW4 9993   3.385   1.253   4.534 -0.1476 -0.6108  0.3490
 2481SOL     OW 9994   3.270   0.241   4.544  0.3700  0.1866 -0.6615
 2481SOL    HW2 9995   3.315   0.324   4.531 -1.4574  1.0478 -1.5497
 2481SOL    HW3 9996   3.195   0.262   4.599 -0.2163 -0.8424 -1.0525
 2481SOL    MW4 9997   3.266   0.255   4.550  0.0517  0.1644 -0.8307
 2482SOL     OW 9998   0.988   0.229   4.528  0.6804  0.2302 -0.3878
 2482SOL    HW2 9999   0.929   0.158   4.552  2.0479 -0.9303 -0.3421
 2482SOL    HW310000   0.935   0.308   4.534 -0.7761 -0.7480 -0.0784
 2482SOL    MW410001   0.973   0.230   4.532  0.6686 -0.0519 -0.3409
 2483SOL     OW10002   2.499   1.582   4.103 -0.2474 -0.2610 -0.3902
 2483SOL    HW210003   2.484   1.568   4.010 -1.1249 -0.3854 -0.2340
 2483SOL    HW310004   2.430   1.643   4.130 -0.1476 -0.4170  0.2324
 2483SOL    MW410005   2.488   1.588   4.094 -0.3500 -0.2980 -0.2875
 2484SOL     OW10006   0.896   1.162   4.135  0.1888  0.0012  0.2936
 2484SOL    HW210007   0.976   1.200   4.171  0.4443 -1.1580  0.9787
 2484SOL    HW310008   0.898   1.070   4.163 -1.3653 -0.0482  0.3235
 2484SOL    MW410009   0.907   1.155   4.144  0.0175 -0.1582  0.3877
 2485SOL     OW10010   2.658   2.433   4.219  0.1674  0.4548 -0.0672
 2485SOL    HW210011   2.564   2.428   4.200  0.3108  0.6586 -0.8526
 2485SOL    HW310012   2.663   2.439   4.314 -0.5341 -1.4824  0.1023
 2485SOL    MW410013   2.646   2.433   4.229  0.0937  0.2263 -0.1483
 2486SOL     OW10014   3.132   1.471   4.638  0.1361  0.0661  0.3177
 2486SOL    HW210015   3.104   1.535   4.573 -0.8064  0.5484  1.1973
 2486SOL    HW310016   3.227   1.485   4.646  0.3550 -0.3726 -1.3490
 2486SOL    MW410017   3.141   1.481   4.631  0.0408  0.0719  0.2141
 2487SOL     OW10018   3.093   2.180   4.603 -0.3163  0.1751  0.0182
 2487SOL    HW210019   3.097   2.198   4.697  0.6741  0.0239  0.0100
 2487SOL    HW310020   3.141   2.253   4.563  0.0561 -0.2476 -0.3041
 2487SOL    MW410021   3.100   2.192   4.610 -0.1364  0.0994 -0.0248
 2488SOL     OW10022   1.096   1.753   4.693  0.4419  0.0943  0.1939
 2488SOL    HW210023   1.075   1.674   4.743  1.5771 -0.3395 -0.0176
 2488SOL    HW310024   1.188   1.771   4.713  0.4796  0.7743 -0.5686
 2488SOL    MW410025   1.105   1.745   4.703  0.5966  0.1267  0.0653
 2489SOL     OW10026   0.228   1.296   4.283  0.1407 -0.0601  0.1469
 2489SOL    HW210027   0.307   1.254   4.249  0.0261 -0.6190  0.5608
 2489SOL    HW310028   0.236   1.288   4.378  0.1146  0.8534  0.2248
 2489SOL    MW410029   0.239   1.289   4.291  0.1222 -0.0135  0.2122
 2490SOL     OW10030   4.330   2.382   4.512  0.3738  0.0530 -0.2866
 2490SOL    HW210031   4.405   2.375   4.571 -0.0105 -0.6424  0.1285
 2490SOL    HW310032   4.292   2.294   4.511 -0.4503  0.4067 -0.4782
 2490SOL    MW410033   4.335   2.369   4.519  0.2146  0.0079 -0.2570
 2491SOL     OW10034   1.973   1.227   4.216  0.3890  0.0731 -0.1618
 2491SOL    HW210035   1.990   1.238   4.310  0.6695  1.1085 -0.3237
 2491SOL    HW310036   2.042   1.168   4.187 -0.4777 -1.2865  0.5325
 2491SOL    MW410037   1.985   1.221   4.225  0.3119  0.0305 -0.0916
 2492SOL     OW10038   0.609   2.316   4.371  0.5918 -0.3819  0.2368
 2492SOL    HW210039   0.533   2.365   4.399  0.5998 -0.1186 -0.1952
 2492SOL    HW310040   0.637   2.358   4.290  1.7681  0.1129  0.8817
 2492SOL    MW410041   0.603   2.328   4.364  0.7480 -0.2818  0.2642
 2493SOL     OW10042   1.686   2.116   4.328  0.2764 -0.7949  0.3622
 2493SOL    HW210043   1.746   2.112   4.254 -0.1302  2.0075 -0.1794
 2493SOL    HW310044   1.730   2.173   4.392 -1.4712  0.7745  0.2136
 2493SOL    MW410045   1.700   2.123   4.327 -0.0079 -0.2179  0.2708
 2494SOL     OW10046   2.676   1.973   3.902  0.0098  0.1780 -0.5193
 2494SOL    HW210047   2.681   1.878   3.889 -0.9429 -0.1300  1.0874
 2494SOL    HW310048   2.602   2.000   3.848 -0.2432 -0.1398 -0.3388
 2494SOL    MW410049   2.667   1.964   3.894 -0.1495  0.0955 -0.2835
 2495SOL     OW10050   2.043   3.099   4.155  0.2970 -0.3757 -0.0963
 2495SOL    HW210051   2.019   3.008   4.171 -1.1842  0.0351  0.0768
 2495SOL    HW310052   2.042   3.106   4.059  0.3095 -0.5141 -0.1078
 2495SOL    MW410053   2.040   3.088   4.144  0.1030 -0.3397 -0.0749
 2496SOL     OW10054   3.595   1.934   4.202 -0.2571  0.2210  0.3504
 2496SOL    HW210055   3.507   1.969   4.218 -0.1220  0.5648  0.3586
 2496SOL    HW310056   3.605   1.939   4.107 -0.7926 -1.1656  0.2045
 2496SOL    MW410057   3.584   1.940   4.191 -0.3099  0.0834  0.3324
 2497SOL     OW10058   1.350   3.406   4.142 -0.3083  0.1591 -0.0501
 2497SOL    HW210059   1.287   3.475   4.164 -1.1337 -0.3252 -0.8444
 2497SOL    HW310060   1.360   3.414   4.047  1.7919  1.0379  0.2110
 2497SOL    MW410061   1.343   3.416   4.132 -0.1401  0.2110 -0.1206
 2498SOL     OW10062   1.543   3.580   4.278  0.3344  0.0445 -0.7512
 2498SOL    HW210063   1.468   3.527   4.254  0.0656 -0.1645  0.4866
 2498SOL    HW310064   1.534   3.660   4.226 -1.0998  0.2912 -0.1467
 2498SOL    MW410065   1.532   3.584   4.268  0.1097  0.0498 -0.5078
 2499SOL     OW10066   2.158   3.874   4.466 -0.5273  0.3361 -0.1419
 2499SOL    HW210067   2.249   3.892   4.443  0.4565 -2.7665  1.0908
 2499SOL    HW310068   2.114   3.863   4.382  0.7565 -0.5158 -0.7195
 2499SOL    MW410069   2.164   3.875   4.452 -0.2282 -0.1857 -0.0558
 2500SOL     OW10070   0.369   0.493   4.471 -0.3374 -0.0567  0.0242
 2500SOL    HW210071   0.413   0.414   4.503 -1.2373 -0.4346  0.3678
 2500SOL    HW310072   0.410   0.565   4.519 -0.1031 -0.4024  0.3469
 2500SOL    MW410073   0.380   0.492   4.482 -0.4252 -0.1522  0.1121
 2501SOL     OW10074   3.971   0.567   4.619  0.0018  0.5333  0.7062
 2501SOL    HW210075   4.006   0.482   4.646  1.6389  1.1928  0.7091
 2501SOL    HW310076   3.876   0.554   4.619  0.2351 -1.4490  0.1995
 2501SOL    MW410077   3.963   0.554   4.622  0.2484  0.3587  0.6399
 2502SOL     OW10078   1.872   3.657   4.660  0.4032 -0.0424 -0.3048
 2502SOL    HW210079   1.946   3.604   4.690  1.0947  0.4531 -1.1017
 2502SOL    HW310080   1.810   3.594   4.622  0.7645 -0.3849 -0.3257
 2502SOL    MW410081   1.873   3.642   4.659  0.5422 -0.0224 -0.4134
 2503SOL     OW10082   1.413   0.306   4.192  0.0593  0.5105  0.1317
 2503SOL    HW210083   1.479   0.365   4.230  0.7313 -0.1874  0.0566
 2503SOL    HW310084   1.430   0.221   4.234  0.1556 -0.0236 -0.9718
 2503SOL    MW410085   1.424   0.303   4.203  0.1607  0.3479 -0.0238
 2504SOL     OW10086   2.504   0.464   4.235 -0.1536  0.0850  0.4062
 2504SOL    HW210087   2.500   0.559   4.225  0.2205 -0.0254 -0.9811
 2504SOL    HW310088   2.433   0.431   4.179  0.2641 -0.4763  0.1907
 2504SOL    MW410089   2.494   0.472   4.226 -0.0494 -0.0036  0.1941
 2505SOL     OW10090   0.209   3.691   4.530  0.5948 -0.0696 -0.2693
 2505SOL    HW210091   0.119   3.708   4.557  1.1123 -0.7246  1.9110
 2505SOL    HW310092   0.259   3.764   4.565  1.2246 -0.7670  0.3017
 2505SOL    MW410093   0.203   3.703   4.538  0.7461 -0.2482  0.0939
 2506SOL     OW10094   0.543   0.376   4.659 -0.3996  0.0190  0.0123
 2506SOL    HW210095   0.498   0.456   4.685 -0.1838 -0.0800  0.6984
 2506SOL    HW310096   0.629   0.405   4.629 -0.3216  0.0393  0.2612
 2506SOL    MW410097   0.548   0.390   4.658 -0.3608  0.0086  0.1354
 2507SOL     OW10098   2.033   1.297   4.474  0.5495  0.0739  0.1604
 2507SOL    HW210099   2.109   1.354   4.486  0.1690  0.4405  0.8760
 2507SOL    HW310100   1.957   1.354   4.486  0.1585 -0.7090  1.5956
 2507SOL    MW410101   2.033   1.312   4.477  0.4478  0.0190  0.4444
 2508SOL     OW10102   3.015   4.363   4.364 -0.0217  0.3874 -0.1747
 2508SOL    HW210103   2.933   4.320   4.391  0.0572  0.4915  0.2262
 2508SOL    HW310104   3.031   4.329   4.276  0.0533 -0.4317  0.1508
 2508SOL    MW410105   3.006   4.352   4.356 -0.0012  0.2933 -0.0787
 2509SOL     OW10106   2.978   3.605   4.497  0.4141  0.3055  0.0167
 2509SOL    HW210107   2.965   3.595   4.402 -0.3636 -1.1653  0.2479
 2509SOL    HW310108   3.064   3.566   4.513  0.0335 -0.5297  0.0662
 2509SOL    MW410109   2.987   3.598   4.487  0.2611  0.0012  0.0534
 2510SOL     OW10110   2.159   2.435   4.290  0.3127  0.6221  0.2366
 2510SOL    HW210111   2.131   2.363   4.347  0.8278  0.9363  0.8918
 2510SOL    HW310112   2.235   2.400   4.243 -0.6140  0.0749 -0.8870
 2510SOL    MW410113   2.165   2.421   4.291  0.2584  0.5913  0.1750
 2511SOL     OW10114   3.415   2.773   4.239  0.1210  0.3096  0.2866
 2511SOL    HW210115   3.330   2.733   4.218  0.5334  0.2140 -1.2655
 2511SOL    HW310116   3.412   2.858   4.195  0.4681  0.6969  1.0119
 2511SOL    MW410117   3.403   2.779   4.230  0.2210  0.3483  0.1769
 2512SOL     OW10118   0.788   0.446   4.526  0.2936  0.2292  0.2435
 2512SOL    HW210119   0.840   0.521   4.554  0.8870  0.3377 -1.0913
 2512SOL    HW310120   0.752   0.473   4.441 -2.3836  0.3707  1.3814
 2512SOL    MW410121   0.790   0.460   4.518  0.0187  0.2622  0.2170
 2513SOL     OW10122   2.201   1.089   4.126  0.6040  0.1958 -0.0007
 2513SOL    HW210123   2.269   1.132   4.178  1.0875  1.0708 -1.3414
 2513SOL    HW310124   2.205   0.997   4.154  0.5541  0.7081  1.8103
 2513SOL    MW410125   2.210   1.082   4.137  0.6609  0.3788  0.0610
 2514SOL     OW10126   2.265   1.986   4.138 -0.1772 -0.2182 -0.8756
 2514SOL    HW210127   2.171   1.987   4.159 -0.0052 -0.9148 -0.0882
 2514SOL    HW310128   2.293   1.896   4.155  0.7158  0.0748 -0.7751
 2514SOL    MW410129   2.256   1.974   4.143 -0.0365 -0.2714 -0.7586
 2515SOL     OW10130   4.067   0.392   4.146 -0.1110 -0.3835 -0.1640
 2515SOL    HW210131   4.132   0.446   4.191 -0.6851  0.5117 -0.3860
 2515SOL    HW310132   3.984   0.414   4.188 -0.1401 -2.2597  0.7800
 2515SOL    MW410133   4.065   0.402   4.157 -0.1907 -0.5130 -0.0687
 2516SOL     OW10134   1.819   1.684   4.297 -0.1667 -0.1617  0.7074
 2516SOL    HW210135   1.889   1.728   4.345  0.7209  2.0875 -2.5053
 2516SOL    HW310136   1.864   1.615   4.248 -0.5100 -0.0524  0.2356
 2516SOL    MW410137   1.834   1.680   4.297 -0.0949  0.1495  0.2217
 2517SOL     OW10138   0.519   0.093   4.683  0.3711  0.3761 -0.0813
 2517SOL    HW210139   0.468   0.069   4.760 -0.1425 -0.7185 -0.7508
 2517SOL    HW310140   0.518   0.189   4.682  1.4958  0.4231  1.9904
 2517SOL    MW410141   0.512   0.103   4.693  0.4517  0.2379  0.1035
 2518SOL     OW10142   1.607   3.052   4.106  0.0233 -0.1435  0.6552
 2518SOL    HW210143   1.527   3.088   4.144  0.3360  0.8484  0.4124
 2518SOL    HW310144   1.678   3.092   4.157  0.4223  0.6886 -0.5278
 2518SOL    MW410145   1.606   3.062   4.118  0.1172  0.0973  0.4673
 2519SOL     OW10146   2.278   3.177   4.293  0.0263  0.2998 -0.4242
 2519SOL    HW210147   2.253   3.190   4.384 -0.3764  1.7862 -0.7373
 2519SOL    HW310148   2.199   3.142   4.252  0.5327 -1.4211  0.0041
 2519SOL    MW410149   2.264   3.174   4.300  0.0401  0.2689 -0.4086
 2520SOL     OW10150   3.789   4.377   4.249 -0.0451  0.3951 -0.0165
 2520SOL    HW210151   3.866   4.327   4.221  0.7946  1.3689  0.5249
 2520SOL    HW310152   3.805   4.465   4.216 -1.1432  0.5110 -0.2696
 2520SOL    MW410153   3.801   4.382   4.241 -0.0792  0.5388  0.0215
 2521SOL     OW10154   2.045   3.545   4.291 -0.0397 -0.1903 -0.0710
 2521SOL    HW210155   2.044   3.639   4.275  0.6245 -0.0612  0.6126
 2521SOL    HW310156   1.955   3.517   4.273  0.1043  0.3170 -1.7005
 2521SOL    MW410157   2.033   3.554   4.287  0.0668 -0.1066 -0.1955
 2522SOL     OW10158   2.508   3.044   4.192  0.0258 -0.1131 -0.4286
 2522SOL    HW210159   2.497   2.951   4.213  0.8929 -0.0781  0.1949
 2522SOL    HW310160   2.441   3.088   4.243 -0.3338 -0.3826 -0.6608
 2522SOL    MW410161   2.498   3.037   4.201  0.0927 -0.1440 -0.3767
 2523SOL     OW10162   1.995   3.817   4.229 -0.3285 -0.2739 -0.4341
 2523SOL    HW210163   1.994   3.805   4.134 -1.4634  1.3389 -0.6439
 2523SOL    HW310164   1.912   3.861   4.249  0.3960  0.4236  1.1630
 2523SOL    MW410165   1.984   3.821   4.219 -0.3827  0.0308 -0.2513
 2524SOL     OW10166   3.922   2.146   4.539  0.0376  0.1192  0.3527
 2524SOL    HW210167   3.868   2.134   4.617 -0.2418  1.1283  0.3379
 2524SOL    HW310168   3.927   2.242   4.529  0.5587  0.0036 -0.5223
 2524SOL    MW410169   3.915   2.157   4.548  0.0691  0.2370  0.2356
 2525SOL     OW10170   3.228   2.615   4.606  0.1403 -0.3924 -0.3923
 2525SOL    HW210171   3.286   2.685   4.575  0.8456 -1.1430 -0.7824
 2525SOL    HW310172   3.224   2.626   4.701  1.2763 -0.6147 -0.3219
 2525SOL    MW410173   3.235   2.626   4.614  0.3834 -0.5209 -0.4344
 2526SOL     OW10174   1.328   3.952   4.196  0.1602 -0.1410 -0.2034
 2526SOL    HW210175   1.248   3.923   4.152  0.0485  0.5570 -0.4746
 2526SOL    HW310176   1.312   3.937   4.289 -0.5390  0.6007 -0.2046
 2526SOL    MW410177   1.315   3.946   4.202  0.0532  0.0489 -0.2394
 2527SOL     OW10178   4.278   1.836   4.590  0.1676  0.1949 -0.5195
 2527SOL    HW210179   4.262   1.929   4.577 -2.5256 -0.1101  0.2809
 2527SOL    HW310180   4.194   1.794   4.572  1.5151 -2.1783 -1.6196
 2527SOL    MW410181   4.265   1.843   4.586 -0.0100 -0.1584 -0.5589
 2528SOL     OW10182   2.567   4.590   4.129  0.1247 -0.4595  0.2333
 2528SOL    HW210183   2.651   4.636   4.139  0.4680 -1.2879  1.2368
 2528SOL    HW310184   2.589   4.497   4.134 -0.6261 -0.7334 -1.3742
 2528SOL    MW410185   2.581   4.584   4.131  0.0713 -0.6046  0.1535
 2529SOL     OW10186   2.273   0.345   4.088  0.4753  0.1210  0.0824
 2529SOL    HW210187   2.290   0.253   4.110  0.4441  0.3935  1.2895
 2529SOL    HW310188   2.190   0.364   4.131  1.2288  1.1407  1.1292
 2529SOL    MW410189   2.264   0.335   4.097  0.5705  0.2915  0.3796
 2530SOL     OW10190   0.696   0.504   4.259 -0.2264  0.3295 -0.3533
 2530SOL    HW210191   0.622   0.459   4.217 -1.6520  0.8229  1.5516
 2530SOL    HW310192   0.685   0.596   4.233 -0.3159  0.4077 -0.0441
 2530SOL    MW410193   0.684   0.510   4.250 -0.4264  0.4050 -0.0610
 2531SOL     OW10194   2.693   0.908   4.224 -0.4625  0.0438 -0.1556
 2531SOL    HW210195   2.701   0.981   4.164 -1.1763  0.3350  0.0857
 2531SOL    HW310196   2.615   0.861   4.194 -1.4601  0.8069  1.1677
 2531SOL    MW410197   2.683   0.911   4.212 -0.6883  0.1829  0.0510
 2532SOL     OW10198   3.163   3.953   4.712  0.3026  0.6434  0.4232
 2532SOL    HW210199   3.192   4.038   4.680 -0.7768  0.7117 -0.3861
 2532SOL    HW310200   3.216   3.889   4.664  0.6074  0.8367  0.5046
 2532SOL    MW410201   3.174   3.955   4.702  0.2005  0.6776  0.3276
 2533SOL     OW10202   1.107   1.535   4.137 -0.5326 -0.3124 -0.2840
 2533SOL    HW210203   1.035   1.586   4.174 -0.2458 -1.6065  2.1871
 2533SOL    HW310204   1.184   1.589   4.150 -0.6917  0.0117 -0.6709
 2533SOL    MW410205   1.107   1.549   4.144 -0.5158 -0.4402 -0.0091
 2534SOL     OW10206   1.549   4.268   4.506  0.2967 -0.3725 -0.0779
 2534SOL    HW210207   1.610   4.341   4.515  1.2158 -1.0703 -0.6061
 2534SOL    HW310208   1.479   4.302   4.449  0.5341  0.2085 -0.0225
 2534SOL    MW410209   1.548   4.282   4.499  0.4494 -0.3881 -0.1411
 2535SOL     OW10210   1.880   2.053   4.109  0.0200 -0.0060 -0.2696
 2535SOL    HW210211   1.905   2.146   4.106 -1.2012  0.4612  2.1513
 2535SOL    HW310212   1.945   2.013   4.167  0.3434 -0.5948 -1.0421
 2535SOL    MW410213   1.892   2.060   4.116 -0.0986 -0.0217 -0.0520
 2536SOL     OW10214   2.202   2.678   4.135  0.2123 -0.1966 -0.1389
 2536SOL    HW210215   2.284   2.710   4.171  0.2851  0.1322 -0.5909
 2536SOL    HW310216   2.178   2.604   4.191  0.5196  0.0674  0.3421
 2536SOL    MW410217   2.209   2.673   4.147  0.2625 -0.1187 -0.1354
 2537SOL     OW10218   2.678   0.909   4.509  0.1320 -0.0694  0.0414
 2537SOL    HW210219   2.729   0.978   4.551 -0.9624  0.8743 -0.1385
 2537SOL    HW310220   2.695   0.921   4.415  0.3807 -0.3957  0.0466
 2537SOL    MW410221   2.687   0.920   4.502  0.0207  0.0121  0.0186
 2538SOL     OW10222   3.405   1.536   4.142  0.4136  0.1458 -0.2605
 2538SOL    HW210223   3.384   1.452   4.182 -0.3520  1.0781  1.3554
 2538SOL    HW310224   3.387   1.523   4.049  1.2401 -1.7514 -0.1705
 2538SOL    MW410225   3.400   1.523   4.135  0.4220  0.0185 -0.0353
 2539SOL     OW10226   1.540   2.331   3.885 -0.0124 -0.5399 -0.1206
 2539SOL    HW210227   1.617   2.380   3.855  0.3920 -1.8280 -1.2364
 2539SOL    HW310228   1.553   2.243   3.850 -1.7271 -0.9117  0.1521
 2539SOL    MW410229   1.552   2.326   3.876 -0.1853 -0.7589 -0.2317
 2540SOL     OW10230   3.111   1.910   4.598  0.3624 -0.1428  0.1031
 2540SOL    HW210231   3.055   1.901   4.675  0.6494 -0.9020  0.2224
 2540SOL    HW310232   3.109   2.004   4.579 -0.2352 -0.0395  0.6392
 2540SOL    MW410233   3.103   1.921   4.606  0.3214 -0.2292  0.1898
 2541SOL     OW10234   3.056   0.335   4.702  0.0146 -0.6091 -0.5441
 2541SOL    HW210235   2.978   0.281   4.696  0.7116 -1.5125 -1.6888
 2541SOL    HW310236   3.038   0.410   4.646 -0.3871 -0.3614 -0.0866
 2541SOL    MW410237   3.044   0.338   4.694  0.0534 -0.6956 -0.6347
 2542SOL     OW10238   2.845   2.201   4.514 -0.5418  0.0172  0.0360
 2542SOL    HW210239   2.804   2.117   4.538 -1.6642  0.9824  1.5681
 2542SOL    HW310240   2.927   2.203   4.564 -0.7019 -0.0018  0.3024
 2542SOL    MW410241   2.850   2.190   4.524 -0.7114  0.1419  0.2732
 2543SOL     OW10242   2.937   3.031   4.125 -0.0407 -0.5922 -0.0853
 2543SOL    HW210243   2.882   3.091   4.175 -2.1456 -1.9592 -0.7034
 2543SOL    HW310244   2.932   3.063   4.035  0.4380 -0.5508 -0.1001
 2543SOL    MW410245   2.929   3.043   4.120 -0.2553 -0.7670 -0.1688
 2544SOL     OW10246   1.911   3.113   4.630  0.1234  0.2215 -0.1597
 2544SOL    HW210247   1.871   3.118   4.717  1.6583 -0.4180  0.5898
 2544SOL    HW310248   1.850   3.161   4.573 -1.3631 -0.1655  1.0837
 2544SOL    MW410249   1.897   3.120   4.634  0.1298  0.0861  0.1030
 2545SOL     OW10250   2.538   3.655   4.481  0.3172  0.0580  0.2701
 2545SOL    HW210251   2.524   3.639   4.387  0.8605 -2.1590  0.5312
 2545SOL    HW310252   2.452   3.642   4.521 -0.0386  1.5747  0.0262
 2545SOL    MW410253   2.525   3.651   4.474  0.3417 -0.0343  0.2732
 2546SOL     OW10254   2.528   1.689   4.782  0.2960  0.0002 -0.2234
 2546SOL    HW210255   2.533   1.770   4.833  0.7492  0.2695 -0.6988
 2546SOL    HW310256   2.492   1.716   4.698  0.4381 -0.3010 -0.3787
 2546SOL    MW410257   2.524   1.703   4.778  0.3746 -0.0041 -0.3066
 2547SOL     OW10258   2.541   3.863   4.152  0.2356  0.0258  0.3490
 2547SOL    HW210259   2.633   3.841   4.164  0.3897  0.0832 -0.7269
 2547SOL    HW310260   2.532   3.884   4.059 -1.1229 -1.2636  0.1599
 2547SOL    MW410261   2.552   3.863   4.142  0.0768 -0.1371  0.1822
 2548SOL     OW10262   2.377   3.991   4.334  0.0740 -0.0286 -0.0740
 2548SOL    HW210263   2.430   3.945   4.269 -0.3249  0.3432 -0.6639
 2548SOL    HW310264   2.440   4.031   4.393  0.4567 -2.5914  1.3592
 2548SOL    MW410265   2.392   3.990   4.333  0.0718 -0.3176  0.0372
 2549SOL     OW10266   2.335   4.231   4.165  0.0941  0.0212 -0.2394
 2549SOL    HW210267   2.328   4.145   4.206  0.7139 -0.5859 -1.3945
 2549SOL    HW310268   2.287   4.289   4.224 -1.3225 -1.3183 -0.0403
 2549SOL    MW410269   2.328   4.227   4.178 -0.0112 -0.2360 -0.3662
 2550SOL     OW10270   2.606   4.299   4.145 -0.1060 -0.5026 -0.0178
 2550SOL    HW210271   2.518   4.267   4.161 -0.2291  0.4716  1.3466
 2550SOL    HW310272   2.629   4.265   4.058 -1.2795 -1.9000  0.2047
 2550SOL    MW410273   2.597   4.290   4.136 -0.2770 -0.5589  0.1912
 2551SOL     OW10274   2.948   4.651   4.395 -0.2331 -0.0456 -0.3182
 2551SOL    HW210275   3.026   4.696   4.363 -0.5936  0.9827  0.2471
 2551SOL    HW310276   2.970   4.558   4.388  0.4174  0.2006 -1.7286
 2551SOL    MW410277   2.962   4.644   4.390 -0.1948  0.1225 -0.4296
 2552SOL     OW10278   2.507   0.213   4.590 -0.5461 -0.2423  0.1127
 2552SOL    HW210279   2.505   0.304   4.560 -2.9528 -0.5262 -0.6576
 2552SOL    HW310280   2.517   0.220   4.685  0.9838  0.7855 -0.1113
 2552SOL    MW410281   2.508   0.226   4.599 -0.6616 -0.1442 -0.0186
 2553SOL     OW10282   2.748   0.348   4.185  0.1241 -0.0049 -0.1796
 2553SOL    HW210283   2.666   0.384   4.218  0.4416  0.2599  0.3285
 2553SOL    HW310284   2.737   0.347   4.089  1.0052  3.7128 -0.4175
 2553SOL    MW410285   2.736   0.353   4.176  0.2825  0.5205 -0.1440
 2554SOL     OW10286   2.754   1.673   4.193 -0.3485  0.3172 -0.3589
 2554SOL    HW210287   2.670   1.638   4.163 -1.0690  1.3235  0.4498
 2554SOL    HW310288   2.757   1.650   4.286  0.0426  0.7376 -0.2669
 2554SOL    MW410289   2.744   1.665   4.201 -0.3922  0.5054 -0.2408
 2555SOL     OW10290   1.219   4.194   4.489 -0.3966  0.2626 -0.3382
 2555SOL    HW210291   1.265   4.268   4.528 -1.7521  1.1453 -0.3730
 2555SOL    HW310292   1.136   4.189   4.537  0.1280 -1.9244  0.3977
 2555SOL    MW410293   1.214   4.203   4.501 -0.5064  0.0906 -0.2456
 2556SOL     OW10294   3.678   0.935   4.557  0.3809  0.2880 -0.2141
 2556SOL    HW210295   3.696   1.028   4.572 -0.0446  0.3045  0.2129
 2556SOL    HW310296   3.756   0.890   4.590 -0.6332  0.3095  2.3687
 2556SOL    MW410297   3.690   0.941   4.563  0.1910  0.2930  0.1822
 2557SOL     OW10298   2.468   0.749   4.155 -0.3419 -0.0998  0.5271
 2557SOL    HW210299   2.464   0.749   4.059 -0.6462 -1.0874  0.5369
 2557SOL    HW310300   2.381   0.777   4.183 -0.4536 -0.4409  0.5213
 2557SOL    MW410301   2.456   0.753   4.146 -0.3967 -0.2751  0.5279
 2558SOL     OW10302   2.203   0.831   4.481  0.3065 -0.3468 -0.3002
 2558SOL    HW210303   2.137   0.900   4.483  0.6564  0.0241 -1.1493
 2558SOL    HW310304   2.287   0.878   4.477  0.5853 -0.8115  0.0556
 2558SOL    MW410305   2.206   0.846   4.481  0.3893 -0.3592 -0.3653
 2559SOL     OW10306   4.023   1.695   4.549 -0.2209  0.9183  0.5827
 2559SOL    HW210307   4.043   1.635   4.621 -2.0841 -0.8556 -0.3038
 2559SOL    HW310308   3.962   1.758   4.588 -0.9643  0.1622  0.6705
 2559SOL    MW410309   4.017   1.695   4.564 -0.5651  0.5846  0.4773
 2560SOL     OW10310   2.256   2.718   3.851 -0.1507 -0.1624 -0.1071
 2560SOL    HW210311   2.248   2.633   3.808  0.9561 -0.2643 -0.1214
 2560SOL    HW310312   2.248   2.699   3.944 -0.5874 -0.1938 -0.1507
 2560SOL    MW410313   2.254   2.704   3.857 -0.0622 -0.1798 -0.1147
 2561SOL     OW10314   2.845   1.191   4.470 -0.2867  0.4631  0.0878
 2561SOL    HW210315   2.922   1.195   4.526  1.0038  1.5353 -1.7094
 2561SOL    HW310316   2.793   1.267   4.495 -0.7331 -0.2000  1.2232
 2561SOL    MW410317   2.848   1.202   4.480 -0.1750  0.5171  0.0005
 2562SOL     OW10318   3.628   3.198   4.800  0.4675 -0.2179  0.1132
 2562SOL    HW210319   3.584   3.279   4.823  0.6435 -0.2807  0.6867
 2562SOL    HW310320   3.598   3.135   4.866  1.2089 -0.3238  0.3608
 2562SOL    MW410321   3.618   3.200   4.812  0.5887 -0.2403  0.2217
 2563SOL     OW10322   3.356   2.069   4.260  0.3249  0.1548  0.3472
 2563SOL    HW210323   3.378   2.151   4.216 -1.0343  1.1717  1.5095
 2563SOL    HW310324   3.277   2.038   4.217  0.8860 -0.5902 -0.1471
 2563SOL    MW410325   3.349   2.076   4.249  0.2193  0.1910  0.4358
 2564SOL     OW10326   2.900   2.789   4.246 -0.6209  0.2455  0.0667
 2564SOL    HW210327   2.910   2.879   4.216  1.1533  0.0184 -0.1162
 2564SOL    HW310328   2.920   2.792   4.339  2.1549 -0.3596 -0.4636
 2564SOL    MW410329   2.904   2.801   4.254 -0.0205  0.1357 -0.0272
 2565SOL     OW10330   2.693   1.956   4.522 -0.2578  0.1141  0.3449
 2565SOL    HW210331   2.602   1.943   4.551  0.0035  1.1422  1.6972
 2565SOL    HW310332   2.724   1.868   4.501 -1.3509 -0.3299  0.5355
 2565SOL    MW410333   2.685   1.943   4.523 -0.3676  0.1912  0.5484
 2566SOL     OW10334   2.764   3.203   4.266  0.2114 -0.1545  0.0857
 2566SOL    HW210335   2.763   3.220   4.361  2.1669 -2.6231  0.6048
 2566SOL    HW310336   2.681   3.160   4.249  0.4912 -1.0893  0.9930
 2566SOL    MW410337   2.753   3.200   4.276  0.5062 -0.6034  0.2737
 2567SOL     OW10338   1.030   2.012   4.115 -0.2587 -0.0665  0.3209
 2567SOL    HW210339   0.974   1.980   4.043 -1.1079  2.1685 -0.0378
 2567SOL    HW310340   0.988   1.978   4.194 -0.1947 -1.2369 -0.1244
 2567SOL    MW410341   1.017   2.003   4.116 -0.3624  0.0739  0.2151
 2568SOL     OW10342   1.336   4.465   4.459 -0.2884  0.5634  0.0939
 2568SOL    HW210343   1.369   4.534   4.401 -0.8162  0.5858 -0.1867
 2568SOL    HW310344   1.265   4.506   4.508 -0.1985  0.3915  0.3688
 2568SOL    MW410345   1.331   4.479   4.458 -0.3462  0.5441  0.0925
 2569SOL     OW10346   2.696   3.440   4.122  0.2027  0.1140  0.1963
 2569SOL    HW210347   2.719   3.360   4.170 -1.2181 -0.7980 -0.6068
 2569SOL    HW310348   2.633   3.485   4.179 -0.7439 -0.4867 -0.3660
 2569SOL    MW410349   2.690   3.435   4.136 -0.1097 -0.0856  0.0157
 2570SOL     OW10350   3.820   1.568   4.783  0.6980 -0.5219 -0.3804
 2570SOL    HW210351   3.821   1.656   4.747  1.0773 -0.5459 -0.4332
 2570SOL    HW310352   3.907   1.533   4.763  0.2384 -1.2314 -1.1557
 2570SOL    MW410353   3.832   1.575   4.776  0.6874 -0.6185 -0.4892
 2571SOL     OW10354   2.933   3.579   4.222  0.0289  0.2309 -0.8317
 2571SOL    HW210355   2.854   3.533   4.195 -0.7778  0.2175  1.4951
 2571SOL    HW310356   3.005   3.523   4.193 -0.8108 -0.2740 -1.9932
 2571SOL    MW410357   2.932   3.566   4.214 -0.1881  0.1624 -0.6781
 2572SOL     OW10358   4.070   0.289   4.670  0.0804  0.3856  0.2947
 2572SOL    HW210359   4.086   0.314   4.761  0.2066 -0.3123  0.4629
 2572SOL    HW310360   4.027   0.204   4.675 -1.0707  0.9271 -0.2632
 2572SOL    MW410361   4.067   0.281   4.682 -0.0548  0.3649  0.2432
 2573SOL     OW10362   3.332   3.752   4.598  0.4289 -0.3666  0.2336
 2573SOL    HW210363   3.286   3.667   4.595 -1.0211  0.2981  2.2752
 2573SOL    HW310364   3.392   3.744   4.672 -0.2945  0.6492  0.9449
 2573SOL    MW410365   3.334   3.740   4.607  0.1421 -0.1450  0.5965
 2574SOL     OW10366   2.835   0.151   4.613 -0.0757 -0.2345 -0.0417
 2574SOL    HW210367   2.856   0.082   4.550  0.6842  0.5559 -0.6738
 2574SOL    HW310368   2.752   0.188   4.583  0.2206  0.0543 -0.5049
 2574SOL    MW410369   2.827   0.147   4.601  0.0639 -0.0921 -0.1864
 2575SOL     OW10370   3.820   4.658   4.182  0.0852 -0.0542 -0.5447
 2575SOL    HW210371   3.893   4.716   4.204 -0.9495  1.7186 -1.6913
 2575SOL    HW310372   3.824   4.651   4.086 -1.2273  0.0542 -0.6140
 2575SOL    MW410373   3.830   4.665   4.172 -0.2248  0.1936 -0.7052
 2576SOL     OW10374   2.914   3.855   4.601  0.1131  0.5806  0.6200
 2576SOL    HW210375   2.981   3.882   4.664  0.3508  0.9274  0.2119
 2576SOL    HW310376   2.942   3.767   4.574  0.0520  0.4606  0.9331
 2576SOL    MW410377   2.927   3.847   4.606  0.1364  0.6106  0.6075
 2577SOL     OW10378   3.178   0.348   4.142 -0.2357 -0.2570 -0.3340
 2577SOL    HW210379   3.260   0.383   4.176 -0.6196 -0.4884  0.8757
 2577SOL    HW310380   3.110   0.399   4.188 -0.7661 -0.4790 -0.8683
 2577SOL    MW410381   3.180   0.360   4.153 -0.3562 -0.3169 -0.2446
 2578SOL     OW10382   3.624   0.358   4.154 -0.0996  0.3789  0.4321
 2578SOL    HW210383   3.603   0.326   4.066  1.0866  0.2052  0.2072
 2578SOL    HW310384   3.549   0.414   4.177  0.7552  2.5314 -1.7669
 2578SOL    MW410385   3.611   0.361   4.145  0.1695  0.6400  0.1121
 2579SOL     OW10386   4.262   1.259   4.300 -0.0867  0.1670  0.6946
 2579SOL    HW210387   4.258   1.347   4.264  0.0019 -0.6379 -1.3928
 2579SOL    HW310388   4.345   1.224   4.267 -1.0225 -1.3444 -0.1382
 2579SOL    MW410389   4.273   1.266   4.291 -0.1988 -0.1386  0.3095
 2580SOL     OW10390   2.177   3.201   4.549 -0.1576 -0.0997 -0.1766
 2580SOL    HW210391   2.108   3.142   4.578  0.3415 -0.2572  0.7228
 2580SOL    HW310392   2.137   3.288   4.550 -0.7780 -0.3640 -1.1260
 2580SOL    MW410393   2.163   3.205   4.553 -0.1738 -0.1554 -0.1826
 2581SOL     OW10394   2.046   4.639   4.139 -0.5907  0.0826  0.0309
 2581SOL    HW210395   2.128   4.687   4.150 -0.7915  0.2867  0.6350
 2581SOL    HW310396   2.033   4.635   4.045 -0.0381  0.3058 -0.0569
 2581SOL    MW410397   2.055   4.645   4.128 -0.5441  0.1388  0.0992
 2582SOL     OW10398   0.011   0.124   4.532 -0.0067 -0.2775 -0.1427
 2582SOL    HW210399   0.058   0.207   4.536  0.0915 -0.3568  0.3167
 2582SOL    HW310400  -0.081   0.149   4.518  0.0306 -0.0945 -0.0652
 2582SOL    MW410401   0.005   0.138   4.531  0.0113 -0.2638 -0.0720
 2583SOL     OW10402   3.384   0.756   4.133 -0.4726  0.1450 -0.2273
 2583SOL    HW210403   3.454   0.807   4.175 -0.2132 -0.3653 -0.0420
 2583SOL    HW310404   3.305   0.780   4.180 -0.0658 -1.0353  1.0994
 2583SOL    MW410405   3.383   0.766   4.144 -0.3848 -0.0781 -0.0281
 2584SOL     OW10406   0.630   2.186   4.717 -0.3129  0.0748 -0.3971
 2584SOL    HW210407   0.675   2.101   4.709  0.2315  0.3360 -0.1176
 2584SOL    HW310408   0.699   2.251   4.706 -0.2185  0.4804  2.1420
 2584SOL    MW410409   0.645   2.183   4.715 -0.2286  0.1628 -0.0253
 2585SOL     OW10410   3.450   0.480   4.507 -0.3367 -0.3826 -0.5868
 2585SOL    HW210411   3.402   0.537   4.566 -0.0674  1.2410 -1.9116
 2585SOL    HW310412   3.542   0.489   4.533 -0.2767 -0.0769 -0.8973
 2585SOL    MW410413   3.456   0.489   4.518 -0.2935 -0.1280 -0.8025
 2586SOL     OW10414   0.899   0.906   4.250  0.1695  0.7001 -0.5526
 2586SOL    HW210415   0.980   0.857   4.236  0.5730  1.3807 -0.5781
 2586SOL    HW310416   0.888   0.907   4.345  1.0263  1.9527 -0.4471
 2586SOL    MW410417   0.908   0.900   4.261  0.3357  0.9552 -0.5417
 2587SOL     OW10418   3.452   0.897   4.768  0.4362  0.3982  0.0525
 2587SOL    HW210419   3.516   0.938   4.710 -0.8724 -0.1740 -1.8641
 2587SOL    HW310420   3.371   0.946   4.752 -0.4087 -1.0118 -0.0596
 2587SOL    MW410421   3.449   0.909   4.758  0.1521  0.1367 -0.2155
 2588SOL     OW10422   1.357   1.878   4.741  0.3899 -0.2847  0.1646
 2588SOL    HW210423   1.366   1.958   4.690  0.6312  0.0581  0.7304
 2588SOL    HW310424   1.447   1.857   4.768  0.1026  0.3983  1.7219
 2588SOL    MW410425   1.370   1.886   4.738  0.3839 -0.1495  0.4444
 2589SOL     OW10426   4.017   0.900   4.319  0.3263  0.4592 -0.5359
 2589SOL    HW210427   3.945   0.853   4.277 -0.1240  0.6362  0.0396
 2589SOL    HW310428   4.096   0.864   4.278  0.0876 -2.0070  1.0162
 2589SOL    MW410429   4.018   0.889   4.308  0.2356  0.1571 -0.2556
 2590SOL     OW10430   0.739   0.708   4.816  0.5209  0.1342  0.1890
 2590SOL    HW210431   0.813   0.670   4.767  0.1875 -0.2682 -0.0010
 2590SOL    HW310432   0.772   0.718   4.905  0.8851  0.1696  0.0510
 2590SOL    MW410433   0.753   0.704   4.821  0.5249  0.0858  0.1459
 2591SOL     OW10434   0.385   0.852   4.510  0.4010 -0.0850 -0.0899
 2591SOL    HW210435   0.402   0.849   4.416  0.1473 -0.1708 -0.1332
 2591SOL    HW310436   0.290   0.841   4.518  0.6389 -2.1233  0.2765
 2591SOL    MW410437   0.375   0.850   4.499  0.3989 -0.3652 -0.0477
 2592SOL     OW10438   3.002   0.564   4.534 -0.0730  0.2181 -0.1063
 2592SOL    HW210439   2.997   0.527   4.446 -1.4713  1.6034 -0.6445
 2592SOL    HW310440   3.048   0.647   4.523  2.2114 -0.8885  0.9341
 2592SOL    MW410441   3.007   0.570   4.521  0.0439  0.2548 -0.0401
 2593SOL     OW10442   1.046   2.787   4.128  0.0123  0.1766 -0.3139
 2593SOL    HW210443   1.044   2.882   4.144 -1.0565 -0.1064  1.3211
 2593SOL    HW310444   1.129   2.758   4.166 -0.1987  0.2890  0.2403
 2593SOL    MW410445   1.057   2.796   4.135 -0.1566  0.1540 -0.0253
 2594SOL     OW10446   3.360   2.306   4.850  0.4388  0.4084  0.0341
 2594SOL    HW210447   3.285   2.257   4.882  1.0974 -0.3317  0.4511
 2594SOL    HW310448   3.410   2.243   4.798  0.6958  0.9317 -0.3621
 2594SOL    MW410449   3.357   2.291   4.847  0.5598  0.3798  0.0367
 2595SOL     OW10450   1.604   4.375   4.236  0.1861  0.4493 -0.1033
 2595SOL    HW210451   1.527   4.322   4.217  0.9735 -0.2379 -1.4614
 2595SOL    HW310452   1.598   4.448   4.175 -0.1916  1.2114  0.8454
 2595SOL    MW410453   1.593   4.377   4.225  0.2401  0.4592 -0.1574
 2596SOL     OW10454   3.585   3.424   4.190  0.2339 -0.0362 -0.4485
 2596SOL    HW210455   3.650   3.490   4.213 -0.7548  0.5464  0.7016
 2596SOL    HW310456   3.564   3.441   4.099  1.0928  0.2905 -0.5850
 2596SOL    MW410457   3.591   3.435   4.181  0.2167  0.0839 -0.3147
 2597SOL     OW10458   3.127   4.279   4.125 -0.3019 -0.0560 -0.0573
 2597SOL    HW210459   3.162   4.207   4.178 -0.9273  0.3030  0.8476
 2597SOL    HW310460   3.195   4.346   4.128  0.5671 -0.8452 -1.4381
 2597SOL    MW410461   3.141   4.278   4.132 -0.2699 -0.1125 -0.1202
 2598SOL     OW10462   2.175   0.744   4.737  0.0407 -0.0150  0.2860
 2598SOL    HW210463   2.178   0.827   4.785 -0.2159  0.0110  0.2616
 2598SOL    HW310464   2.198   0.768   4.647 -0.0454  0.0343  0.2764
 2598SOL    MW410465   2.178   0.758   4.731 -0.0045 -0.0051  0.2813
 2599SOL     OW10466   3.215   2.384   4.459 -0.2277  0.5527  0.0171
 2599SOL    HW210467   3.194   2.400   4.367 -0.7741 -0.3534 -0.0248
 2599SOL    HW310468   3.196   2.467   4.503  1.9418  1.5928 -0.9884
 2599SOL    MW410469   3.209   2.397   4.453 -0.0136  0.5705 -0.1206
 2600SOL     OW10470   4.110   1.479   4.734  0.1984  0.4023  0.1238
 2600SOL    HW210471   4.156   1.496   4.816 -0.2549  0.9731  0.2615
 2600SOL    HW310472   4.174   1.434   4.680 -0.0221 -1.4906  1.3962
 2600SOL    MW410473   4.124   1.475   4.738  0.1092  0.2278  0.3095
 2601SOL     OW10474   3.455   0.089   4.689  0.0496  0.4832 -0.2361
 2601SOL    HW210475   3.381   0.142   4.659 -1.5766 -1.4931  0.2362
 2601SOL    HW310476   3.446   0.006   4.643  1.3115 -0.2099  0.7242
 2601SOL    MW410477   3.444   0.085   4.679  0.0014  0.1310 -0.0472
 2602SOL     OW10478   1.842   3.950   4.686 -0.4222 -0.0016 -0.5395
 2602SOL    HW210479   1.859   3.960   4.780 -3.3150  0.8061 -0.0812
 2602SOL    HW310480   1.861   3.857   4.669  0.7715 -0.0027  0.6801
 2602SOL    MW410481   1.847   3.939   4.696 -0.6464  0.1049 -0.3185
 2603SOL     OW10482   4.385   1.009   4.552  0.6199  0.3790 -0.1130
 2603SOL    HW210483   4.309   0.962   4.586  1.1936 -0.8324 -0.4746
 2603SOL    HW310484   4.359   1.101   4.553 -1.0212 -0.0620 -0.6653
 2603SOL    MW410485   4.372   1.015   4.557  0.4797  0.1611 -0.2337
 2604SOL     OW10486   4.239   0.750   4.197  0.4140  0.2149 -0.3697
 2604SOL    HW210487   4.261   0.663   4.229  1.5357  0.5114 -0.3017
 2604SOL    HW310488   4.228   0.739   4.102 -0.4544 -0.1877 -0.2269
 2604SOL    MW410489   4.240   0.737   4.188  0.4478  0.2009 -0.3414
 2605SOL     OW10490   3.180   0.122   4.300 -0.0082  0.2177  0.6063
 2605SOL    HW210491   3.173   0.191   4.234  1.1685 -1.0566 -0.9024
 2605SOL    HW310492   3.218   0.166   4.377  0.5117  1.2910 -0.2500
 2605SOL    MW410493   3.184   0.137   4.302  0.2158  0.1912  0.2947
 2606SOL     OW10494   4.452   1.543   4.883  0.1694  0.4996 -0.3696
 2606SOL    HW210495   4.464   1.518   4.974 -0.5810  0.5446 -0.2561
 2606SOL    HW310496   4.472   1.636   4.880 -0.1882  0.5812 -0.1776
 2606SOL    MW410497   4.456   1.552   4.894  0.0229  0.5163 -0.3295
 2607SOL     OW10498   0.007   1.155   4.192 -0.0111 -0.5730  0.0451
 2607SOL    HW210499   0.029   1.161   4.099  1.2705  1.4634  0.4604
 2607SOL    HW310500   0.083   1.190   4.237 -1.8760  1.4178  1.7394
 2607SOL    MW410501   0.020   1.160   4.186 -0.0882 -0.0418  0.3233
 2608SOL     OW10502   3.993   2.444   4.226 -0.3313  0.0861 -0.0368
 2608SOL    HW210503   4.068   2.396   4.192 -0.1412  0.3662 -0.0126
 2608SOL    HW310504   3.919   2.412   4.175 -0.0664  0.4324 -0.6490
 2608SOL    MW410505   3.993   2.433   4.215 -0.2713  0.1686 -0.1144
 2609SOL     OW10506   0.810   2.382   4.586  0.2721  0.0466  0.1626
 2609SOL    HW210507   0.815   2.477   4.595 -0.9786  0.0190  1.3270
 2609SOL    HW310508   0.739   2.367   4.524 -0.1451 -0.1511  0.6860
 2609SOL    MW410509   0.801   2.392   4.579  0.0520  0.0167  0.3862
 2610SOL     OW10510   4.035   1.151   4.206  0.3042 -0.2730 -0.1864
 2610SOL    HW210511   4.121   1.182   4.235  0.1052 -0.5113  0.6606
 2610SOL    HW310512   4.024   1.066   4.248 -0.3932 -0.2045 -0.2187
 2610SOL    MW410513   4.045   1.144   4.215  0.1860 -0.2954 -0.0787
 2611SOL     OW10514   0.019   1.459   4.587 -0.2084  0.3897 -0.1540
 2611SOL    HW210515   0.002   1.464   4.681 -3.7701  1.2005 -0.7507
 2611SOL    HW310516   0.024   1.550   4.558  1.5360  0.1427 -0.6448
 2611SOL    MW410517   0.017   1.472   4.595 -0.4481  0.4642 -0.2980
 2612SOL     OW10518   3.160   4.407   4.607 -0.6082 -0.5591 -0.2832
 2612SOL    HW210519   3.123   4.420   4.519 -2.8154 -0.2108  0.6610
 2612SOL    HW310520   3.106   4.462   4.663  0.7253 -0.8717  1.3177
 2612SOL    MW410521   3.148   4.416   4.602 -0.7234 -0.5546  0.0525
 2613SOL     OW10522   2.758   3.162   4.604  0.0816 -0.5124  0.2256
 2613SOL    HW210523   2.851   3.142   4.615 -0.1498 -1.8845 -0.2201
 2613SOL    HW310524   2.756   3.257   4.594  1.5364 -0.5473 -0.6562
 2613SOL    MW410525   2.770   3.172   4.604  0.2429 -0.6979  0.0501
 2614SOL     OW10526   3.176   3.146   4.211 -0.3907  0.1246  0.4282
 2614SOL    HW210527   3.252   3.097   4.178 -0.1486 -0.1008  1.3005
 2614SOL    HW310528   3.101   3.090   4.191 -0.0058 -1.1832  2.4792
 2614SOL    MW410529   3.176   3.132   4.204 -0.3078 -0.0777  0.8140
 2615SOL     OW10530   3.587   3.162   4.276 -0.3077  0.4224 -0.3114
 2615SOL    HW210531   3.597   3.250   4.242 -0.2457  0.4863 -0.1284
 2615SOL    HW310532   3.586   3.173   4.372  2.4688 -0.0545 -0.1889
 2615SOL    MW410533   3.588   3.175   4.284  0.0668  0.3679 -0.2708
 2616SOL     OW10534   3.928   4.353   4.621 -0.0920 -0.1270  0.1582
 2616SOL    HW210535   3.875   4.331   4.698  0.5145  3.1242  1.5705
 2616SOL    HW310536   3.864   4.387   4.557 -0.2555 -0.4015  0.1727
 2616SOL    MW410537   3.912   4.354   4.622 -0.0334  0.2656  0.3467
 2617SOL     OW10538   3.137   0.842   4.245 -0.0187 -0.0795  0.4371
 2617SOL    HW210539   3.056   0.808   4.206 -0.4603  0.6586  0.6939
 2617SOL    HW310540   3.139   0.804   4.332  1.3990 -2.3963 -0.5862
 2617SOL    MW410541   3.127   0.833   4.251  0.1101 -0.2878  0.3362
 2618SOL     OW10542   3.486   2.370   4.455 -0.0339 -0.3003 -0.1239
 2618SOL    HW210543   3.511   2.394   4.366  1.6570  0.9621  0.6667
 2618SOL    HW310544   3.391   2.379   4.457  0.1132  1.8445 -1.1925
 2618SOL    MW410545   3.477   2.374   4.444  0.2086  0.1495 -0.1602
 2619SOL     OW10546   1.586   2.827   4.538 -0.0104 -0.4018  0.1638
 2619SOL    HW210547   1.680   2.828   4.556 -0.0267  0.6394  0.2000
 2619SOL    HW310548   1.580   2.797   4.448  0.3479 -0.7037  0.2386
 2619SOL    MW410549   1.598   2.823   4.529  0.0348 -0.3042  0.1788
 2620SOL     OW10550   0.799   1.471   4.627 -0.2273  0.2520  0.0203
 2620SOL    HW210551   0.772   1.388   4.589  1.5401 -0.6604  0.6562
 2620SOL    HW310552   0.875   1.498   4.575 -1.1635  1.7857 -0.5690
 2620SOL    MW410553   0.806   1.464   4.615 -0.1176  0.3338  0.0267
 2621SOL     OW10554   3.552   4.294   4.139  0.0464 -0.0665 -0.2528
 2621SOL    HW210555   3.536   4.211   4.185 -0.0081  1.1760  2.0329
 2621SOL    HW310556   3.634   4.326   4.175 -0.5181  1.4390 -0.2766
 2621SOL    MW410557   3.561   4.287   4.150 -0.0353  0.2956  0.0453
 2622SOL     OW10558   0.875   3.988   4.280  0.0375 -0.1421 -0.1515
 2622SOL    HW210559   0.813   3.941   4.225  1.4724  0.0582 -1.9710
 2622SOL    HW310560   0.891   4.071   4.234  1.1974  0.0614  0.6003
 2622SOL    MW410561   0.869   3.993   4.267  0.3799 -0.0887 -0.2923
 2623SOL     OW10562   3.677   4.368   4.515  0.9868 -0.4581 -0.2362
 2623SOL    HW210563   3.692   4.372   4.420  1.2629  1.0429 -0.1372
 2623SOL    HW310564   3.594   4.413   4.528  1.0122 -0.5568  0.2548
 2623SOL    MW410565   3.668   4.375   4.504  1.0264 -0.2728 -0.1583
 2624SOL     OW10566   3.391   1.967   4.509 -0.2830  0.2714  0.0540
 2624SOL    HW210567   3.307   1.951   4.551 -0.9373  1.7491 -0.6421
 2624SOL    HW310568   3.368   2.007   4.425  1.1205  1.0308  0.0256
 2624SOL    MW410569   3.377   1.970   4.503 -0.1841  0.5666 -0.0415
 2625SOL     OW10570   0.531   3.061   4.654 -0.2874  0.4979  0.0572
 2625SOL    HW210571   0.497   3.065   4.744 -0.3215 -1.1785  0.1306
 2625SOL    HW310572   0.472   3.118   4.605 -2.0370 -0.7999  0.5742
 2625SOL    MW410573   0.518   3.069   4.660 -0.5227  0.1056  0.1354
 2626SOL     OW10574   3.151   1.103   4.164  0.0208 -0.0337 -0.2706
 2626SOL    HW210575   3.146   1.094   4.069 -0.1888 -1.0921 -0.1552
 2626SOL    HW310576   3.152   1.014   4.198  1.1840  0.3180  0.6755
 2626SOL    MW410577   3.150   1.090   4.156  0.1466 -0.1268 -0.1307
 2627SOL     OW10578   1.709   0.691   4.309  0.2405  0.7912  0.1648
 2627SOL    HW210579   1.743   0.745   4.381 -1.4656  1.2814  0.6209
 2627SOL    HW310580   1.643   0.745   4.267 -0.3485 -0.3390 -0.3915
 2627SOL    MW410581   1.705   0.705   4.313 -0.0625  0.7068  0.1512
 2628SOL     OW10582   3.173   0.781   4.510 -0.3636  0.6935 -0.4606
 2628SOL    HW210583   3.226   0.728   4.568 -0.6376 -0.3249 -1.1215
 2628SOL    HW310584   3.186   0.871   4.540 -0.4046  0.1933  1.0821
 2628SOL    MW410585   3.181   0.786   4.521 -0.4053  0.4931 -0.3443
 2629SOL     OW10586   0.016   4.056   4.536  0.1317  0.0952  0.0204
 2629SOL    HW210587  -0.021   4.144   4.538 -0.7125 -0.2670  0.5108
 2629SOL    HW310588   0.109   4.069   4.554  0.5898  1.1675 -2.8426
 2629SOL    MW410589   0.023   4.070   4.539  0.0807  0.1888 -0.2933
 2630SOL     OW10590   0.227   1.487   3.855  0.2214 -0.4536  0.7775
 2630SOL    HW210591   0.148   1.540   3.842  0.6733  0.1560  0.4652
 2630SOL    HW310592   0.244   1.492   3.949 -0.4488 -1.0883  0.9451
 2630SOL    MW410593   0.219   1.495   3.866  0.1926 -0.4569  0.7584
 2631SOL     OW10594   3.856   2.858   4.247  0.1841  0.3761  0.2672
 2631SOL    HW210595   3.842   2.878   4.340  1.8659  1.3237  0.3401
 2631SOL    HW310596   3.891   2.939   4.210  0.3968 -0.2803 -0.9982
 2631SOL    MW410597   3.859   2.871   4.254  0.4339  0.4146  0.1097
 2632SOL     OW10598   0.309   2.878   4.580  0.3368  0.1831  0.2889
 2632SOL    HW210599   0.300   2.875   4.485 -0.9354 -0.1624  0.4222
 2632SOL    HW310600   0.337   2.968   4.598  1.6478 -0.0518 -0.4936
 2632SOL    MW410601   0.312   2.890   4.570  0.3419  0.1066  0.2031
 2633SOL     OW10602   4.221   3.630   4.556  0.4389 -0.5208  0.4033
 2633SOL    HW210603   4.242   3.540   4.582  0.0656 -0.7717 -0.1633
 2633SOL    HW310604   4.305   3.675   4.556  0.6878 -0.9889  0.2234
 2633SOL    MW410605   4.235   3.624   4.560  0.4220 -0.6158  0.3047
 2634SOL     OW10606   1.599   1.565   4.200 -0.3547  0.7681 -0.1235
 2634SOL    HW210607   1.670   1.618   4.237 -0.2593 -0.3046  1.2872
 2634SOL    HW310608   1.523   1.624   4.198  0.2638  1.5493 -0.4573
 2634SOL    MW410609   1.598   1.580   4.205 -0.2604  0.7297  0.0191
 2635SOL     OW10610   3.542   2.930   4.869 -0.3779 -0.1812 -0.0757
 2635SOL    HW210611   3.601   2.891   4.804 -0.7052  0.5849 -0.8326
 2635SOL    HW310612   3.516   2.857   4.924 -0.6131 -0.9512 -1.2009
 2635SOL    MW410613   3.546   2.915   4.868 -0.4520 -0.1819 -0.3242
 2636SOL     OW10614   3.820   1.536   4.154 -0.2843 -0.0162  0.1842
 2636SOL    HW210615   3.752   1.594   4.188 -0.2079  0.3289 -0.2499
 2636SOL    HW310616   3.808   1.454   4.202 -0.6938  0.2055  0.4583
 2636SOL    MW410617   3.810   1.533   4.165 -0.3281  0.0585  0.1631
 2637SOL     OW10618   4.014   3.980   4.233 -0.3198  0.1843  0.1128
 2637SOL    HW210619   4.104   3.947   4.233 -1.1202 -2.0703 -0.0617
 2637SOL    HW310620   3.989   3.983   4.326 -0.2044  0.4484  0.1367
 2637SOL    MW410621   4.023   3.976   4.245 -0.4101 -0.0782  0.0930
 2638SOL     OW10622   1.693   1.882   4.483 -0.0415 -0.0986  0.0829
 2638SOL    HW210623   1.784   1.853   4.478  0.5453  1.5788  0.4563
 2638SOL    HW310624   1.692   1.964   4.433 -1.5445 -0.5383 -0.6241
 2638SOL    MW410625   1.705   1.889   4.476 -0.1622  0.0646  0.0391
 2639SOL     OW10626   0.697   2.899   4.493  0.5909 -0.1678  0.3893
 2639SOL    HW210627   0.641   2.939   4.560  1.2805 -0.5874  1.2396
 2639SOL    HW310628   0.770   2.960   4.482  0.9827 -0.5645  0.7481
 2639SOL    MW410629   0.700   2.912   4.501  0.7336 -0.2754  0.5488
 2640SOL     OW10630   2.969   0.485   4.262 -0.5399 -0.0198 -0.0137
 2640SOL    HW210631   2.906   0.421   4.231 -1.2280 -0.0025  1.3094
 2640SOL    HW310632   2.950   0.564   4.211 -2.1278  0.2290  0.9179
 2640SOL    MW410633   2.958   0.487   4.251 -0.8404  0.0153  0.2842
 2641SOL     OW10634   4.063   3.488   3.859  0.5986 -0.1369  0.3851
 2641SOL    HW210635   4.065   3.405   3.812  0.1888  0.7967 -1.3319
 2641SOL    HW310636   3.979   3.527   3.835  1.2771  1.2752  0.2543
 2641SOL    MW410637   4.052   3.482   3.850  0.6337  0.1726  0.1411
 2642SOL     OW10638   0.400   3.467   4.571  0.0028 -0.4147  0.1017
 2642SOL    HW210639   0.319   3.519   4.571 -0.8903 -1.7872  0.7192
 2642SOL    HW310640   0.470   3.533   4.570 -1.1069  0.8045  0.5146
 2642SOL    MW410641   0.399   3.483   4.571 -0.2614 -0.4354  0.2379
 2643SOL     OW10642   4.268   3.884   4.162 -0.1834  0.2235  0.1676
 2643SOL    HW210643   4.254   3.791   4.180 -0.3390  0.4494  1.2557
 2643SOL    HW310644   4.263   3.890   4.067 -0.5566 -0.8230  0.1022
 2643SOL    MW410645   4.265   3.872   4.152 -0.2532  0.1154  0.3028
 2644SOL     OW10646   0.718   4.399   4.208  0.2147 -0.1574  0.1354
 2644SOL    HW210647   0.714   4.487   4.170  0.0577 -0.7596 -1.2613
 2644SOL    HW310648   0.643   4.353   4.170  0.5578 -1.0271  0.5067
 2644SOL    MW410649   0.708   4.404   4.198  0.2393 -0.3514 -0.0005
 2645SOL     OW10650   4.268   4.649   4.153  0.0958 -0.2494  0.3039
 2645SOL    HW210651   4.344   4.693   4.190 -0.1578  1.1232 -0.7547
 2645SOL    HW310652   4.193   4.698   4.186 -0.2962 -1.1287  0.7281
 2645SOL    MW410653   4.268   4.661   4.162  0.0110 -0.1841  0.2203
 2646SOL     OW10654   0.635   1.290   4.232 -0.0318 -0.3912  0.6043
 2646SOL    HW210655   0.567   1.229   4.204  1.0166 -1.3680  0.0945
 2646SOL    HW310656   0.714   1.260   4.186  0.5519  1.2504  0.4856
 2646SOL    MW410657   0.637   1.278   4.222  0.1836 -0.3034  0.5217
 2647SOL     OW10658   0.247   0.511   4.210  0.1571  0.0431  0.1044
 2647SOL    HW210659   0.276   0.485   4.297  0.7754 -0.3229 -0.2091
 2647SOL    HW310660   0.168   0.459   4.195  0.6783 -0.7172 -0.0058
 2647SOL    MW410661   0.240   0.501   4.220  0.3074 -0.1054  0.0491
 2648SOL     OW10662   4.155   4.163   4.615  0.1465 -0.1727 -0.4162
 2648SOL    HW210663   4.097   4.239   4.602 -0.9945 -0.6874  1.4989
 2648SOL    HW310664   4.244   4.199   4.608 -0.3760  0.9660 -1.4641
 2648SOL    MW410665   4.159   4.178   4.612 -0.0720 -0.0906 -0.3018
 2649SOL     OW10666   3.014   2.810   4.503 -0.0768  0.0025 -0.1177
 2649SOL    HW210667   3.104   2.777   4.501 -0.5677 -1.3593 -1.0123
 2649SOL    HW310668   2.965   2.743   4.551 -0.3438  1.4741  1.6953
 2649SOL    MW410669   3.020   2.797   4.509 -0.1769  0.0172  0.0033
 2650SOL     OW10670   0.922   1.684   4.261 -0.2483  0.2674 -0.0898
 2650SOL    HW210671   0.913   1.776   4.284  0.1013  0.1707  0.4615
 2650SOL    HW310672   0.834   1.657   4.234 -0.1854  0.9495 -0.9857
 2650SOL    MW410673   0.909   1.692   4.261 -0.1939  0.3446 -0.1349
 2651SOL     OW10674   3.750   3.468   4.545 -0.1309 -0.4548 -0.0042
 2651SOL    HW210675   3.825   3.518   4.578  0.3256 -0.6323 -0.7431
 2651SOL    HW310676   3.682   3.481   4.610  0.4749 -0.1062  0.5725
 2651SOL    MW410677   3.751   3.476   4.557  0.0093 -0.4320 -0.0257
 2652SOL     OW10678   3.596   0.138   4.300 -0.2270 -0.6293 -0.0821
 2652SOL    HW210679   3.606   0.224   4.259 -2.0041 -0.5369 -0.3494
 2652SOL    HW310680   3.651   0.080   4.248  1.4373  0.4294  0.4401
 2652SOL    MW410681   3.605   0.142   4.288 -0.2418 -0.4775 -0.0491
 2653SOL     OW10682   3.633   1.365   4.824  0.0242 -0.4151  0.4386
 2653SOL    HW210683   3.649   1.345   4.916 -0.9475  0.3852  0.7989
 2653SOL    HW310684   3.687   1.442   4.806 -1.2656  0.6393  0.9110
 2653SOL    MW410685   3.642   1.372   4.834 -0.2742 -0.1704  0.5484
 2654SOL     OW10686   2.743   3.451   4.540  0.0134  0.3674  0.3922
 2654SOL    HW210687   2.827   3.494   4.523 -0.0823  0.8819  1.2115
 2654SOL    HW310688   2.679   3.521   4.539 -0.3390  0.0447  0.3103
 2654SOL    MW410689   2.746   3.466   4.538 -0.0458  0.3927  0.4897
 2655SOL     OW10690   1.212   2.324   4.353  0.4024  0.2573 -0.0736
 2655SOL    HW210691   1.294   2.275   4.345  1.8345  2.3791  1.1229
 2655SOL    HW310692   1.168   2.285   4.428  0.3642 -0.7853 -0.6223
 2655SOL    MW410693   1.217   2.313   4.361  0.5863  0.3998  0.0124
 2656SOL     OW10694   2.461   0.460   4.508  0.1720  0.0757 -0.1451
 2656SOL    HW210695   2.527   0.520   4.543 -0.3858  0.4195  0.3371
 2656SOL    HW310696   2.478   0.458   4.414  1.6839 -0.8485  0.1335
 2656SOL    MW410697   2.472   0.468   4.500  0.2975 -0.0009 -0.0448
 2657SOL     OW10698   3.024   3.048   4.623  0.1228  0.4267 -0.3822
 2657SOL    HW210699   3.004   2.960   4.590  1.3027  0.0370 -0.0902
 2657SOL    HW310700   3.092   3.034   4.688  0.0077  1.5211 -0.0237
 2657SOL    MW410701   3.031   3.035   4.627  0.2635  0.5195 -0.2961
 2658SOL     OW10702   2.690   1.960   4.171 -0.0362  0.2594  0.4444
 2658SOL    HW210703   2.685   1.978   4.077  0.0264  0.1348  0.4167
 2658SOL    HW310704   2.692   1.864   4.177  1.4493  0.2784  0.4931
 2658SOL    MW410705   2.690   1.950   4.160  0.1681  0.2455  0.4468
 2659SOL     OW10706   4.028   4.253   4.167 -0.0009  0.1055 -0.4384
 2659SOL    HW210707   4.035   4.162   4.196 -1.1335  0.3111  0.5363
 2659SOL    HW310708   4.101   4.298   4.210 -1.3490  0.2997  1.7689
 2659SOL    MW410709   4.039   4.247   4.177 -0.3281  0.1583 -0.0186
 2660SOL     OW10710   4.201   0.796   4.665  0.0700  0.0616  0.6483
 2660SOL    HW210711   4.115   0.833   4.644  0.0329  0.6509  1.8204
 2660SOL    HW310712   4.183   0.709   4.700  0.0678 -0.5157 -0.7590
 2660SOL    MW410713   4.188   0.790   4.667  0.0653  0.0632  0.6170
 2661SOL     OW10714   1.756   3.938   4.294 -0.0411 -0.0796 -0.0106
 2661SOL    HW210715   1.771   4.023   4.253  0.7290  0.1559  0.7398
 2661SOL    HW310716   1.698   3.956   4.368 -0.4959 -0.3224 -0.3070
 2661SOL    MW410717   1.750   3.951   4.298  0.0005 -0.0806  0.0491
 2662SOL     OW10718   4.264   0.237   4.464 -0.4477 -0.4554 -0.5239
 2662SOL    HW210719   4.204   0.267   4.532 -1.2457 -1.8035 -0.6096
 2662SOL    HW310720   4.262   0.306   4.398 -0.2008  0.5356  0.4867
 2662SOL    MW410721   4.256   0.250   4.464 -0.5202 -0.5025 -0.4015
 2663SOL     OW10722   1.068   2.262   4.587  0.1401  0.7547  0.2498
 2663SOL    HW210723   0.990   2.316   4.576 -0.9174 -1.2267 -2.7873
 2663SOL    HW310724   1.034   2.175   4.606  1.4857 -0.4511 -2.5536
 2663SOL    MW410725   1.054   2.258   4.588  0.1781  0.3343 -0.5207
 2664SOL     OW10726   2.897   1.242   4.219 -0.2059  0.2203  0.1109
 2664SOL    HW210727   2.871   1.214   4.307  0.4113  0.1621  0.2776
 2664SOL    HW310728   2.984   1.203   4.206  0.0847  0.9514 -0.1793
 2664SOL    MW410729   2.905   1.233   4.229 -0.0861  0.3091  0.0949
 2665SOL     OW10730   1.901   0.626   4.649  0.1929  0.3729 -0.0392
 2665SOL    HW210731   1.976   0.662   4.697 -0.3049  0.7579  0.4612
 2665SOL    HW310732   1.852   0.703   4.621 -0.7151  0.0906  0.7668
 2665SOL    MW410733   1.904   0.641   4.652  0.0075  0.3865  0.1330
 2666SOL     OW10734   4.214   2.301   4.117 -0.0693 -0.2595 -0.0796
 2666SOL    HW210735   4.290   2.342   4.160  0.4827 -1.2391 -0.1136
 2666SOL    HW310736   4.212   2.212   4.152 -1.2326 -0.2365 -0.0573
 2666SOL    MW410737   4.224   2.295   4.128 -0.1502 -0.3855 -0.0815
 2667SOL     OW10738   1.602   4.636   4.126 -0.2671 -0.5040 -0.1447
 2667SOL    HW210739   1.534   4.668   4.185 -0.8503  1.0392 -1.6138
 2667SOL    HW310740   1.684   4.662   4.168 -0.5569 -2.0033  1.4176
 2667SOL    MW410741   1.604   4.644   4.139 -0.3823 -0.4983 -0.1326
 2668SOL     OW10742   3.819   0.752   4.188 -0.1379  0.3530 -0.3453
 2668SOL    HW210743   3.790   0.735   4.099 -0.4920 -1.2615  0.0481
 2668SOL    HW310744   3.741   0.786   4.233  0.3531  2.2966 -0.9313
 2668SOL    MW410745   3.805   0.754   4.182 -0.1199  0.3964 -0.3705
 2669SOL     OW10746   0.262   2.583   4.599  0.0284  0.2545  0.1912
 2669SOL    HW210747   0.276   2.675   4.620  0.2437  0.4583 -0.8265
 2669SOL    HW310748   0.294   2.573   4.510  0.3447 -0.8932  0.4165
 2669SOL    MW410749   0.268   2.594   4.590  0.0985  0.1302  0.0863
 2670SOL     OW10750   0.352   2.051   4.535 -0.2599 -0.0917  0.5093
 2670SOL    HW210751   0.344   2.138   4.574  0.1491 -0.3633  1.2213
 2670SOL    HW310752   0.432   2.056   4.483  0.1035 -0.2162  1.0444
 2670SOL    MW410753   0.362   2.063   4.533 -0.1580 -0.1438  0.6747
 2671SOL     OW10754   2.169   1.047   4.810 -0.0764  0.1608  0.5113
 2671SOL    HW210755   2.120   1.108   4.865  0.1194  0.7052  0.0951
 2671SOL    HW310756   2.241   1.100   4.775  0.3278 -0.4203  0.4715
 2671SOL    MW410757   2.172   1.062   4.812  0.0029  0.1559  0.4506
 2672SOL     OW10758   1.692   2.106   4.846 -0.6690 -0.2919  0.1306
 2672SOL    HW210759   1.663   2.170   4.780  0.0300  1.0476  1.0882
 2672SOL    HW310760   1.671   2.148   4.930 -0.5975 -1.5245  0.7742
 2672SOL    MW410761   1.685   2.120   4.848 -0.5673 -0.2775  0.3419
 2673SOL     OW10762   2.885   1.858   4.772  0.5644  0.3555 -0.1825
 2673SOL    HW210763   2.845   1.925   4.828  0.3223 -0.2376  0.3625
 2673SOL    HW310764   2.829   1.854   4.695  0.6367  0.8572 -0.2588
 2673SOL    MW410765   2.873   1.866   4.769  0.5419  0.3436 -0.1206
 2674SOL     OW10766   0.257   2.836   4.262 -0.2317  0.4868 -0.2471
 2674SOL    HW210767   0.175   2.790   4.278 -0.2655  0.7995  0.5203
 2674SOL    HW310768   0.311   2.773   4.215 -0.3884 -0.2371  0.5306
 2674SOL    MW410769   0.253   2.822   4.258 -0.2569  0.4325 -0.0434
 2675SOL     OW10770   0.873   2.671   4.544  0.1692 -0.2781  0.0270
 2675SOL    HW210771   0.880   2.639   4.454  0.0123 -0.1862 -0.0189
 2675SOL    HW310772   0.818   2.749   4.537  1.1104  0.3971  0.0481
 2675SOL    MW410773   0.866   2.677   4.531  0.2726 -0.1769  0.0234
 2676SOL     OW10774   0.106   0.411   4.571 -0.2303 -0.2976  0.0453
 2676SOL    HW210775   0.034   0.474   4.568  0.5149  0.6343  1.1435
 2676SOL    HW310776   0.182   0.461   4.541  0.1593 -0.9983 -0.1417
 2676SOL    MW410777   0.106   0.426   4.566 -0.0805 -0.2671  0.1659
 2677SOL     OW10778   1.131   1.270   4.230  0.0437  0.3933  0.0662
 2677SOL    HW210779   1.199   1.230   4.176 -0.7379  0.4480 -0.9864
 2677SOL    HW310780   1.120   1.358   4.193 -0.5056  0.4289  0.3064
 2677SOL    MW410781   1.138   1.276   4.218 -0.1320  0.4052 -0.0410
 2678SOL     OW10782   0.985   1.984   4.607 -0.2386  0.1273  0.0211
 2678SOL    HW210783   1.024   1.901   4.633 -1.5026 -0.9236 -1.3749
 2678SOL    HW310784   0.894   1.979   4.635 -0.3516  0.9995 -0.1674
 2678SOL    MW410785   0.978   1.973   4.614 -0.4203  0.1036 -0.1888
 2679SOL     OW10786   1.326   0.934   4.273 -0.5659 -0.8167 -0.1499
 2679SOL    HW210787   1.411   0.890   4.262 -0.4232 -0.6133  0.1431
 2679SOL    HW310788   1.321   0.954   4.366 -0.3518  0.3651 -0.3946
 2679SOL    MW410789   1.336   0.931   4.283 -0.5188 -0.6340 -0.1435
 2680SOL     OW10790   0.994   2.276   4.182 -0.0113  0.4715  0.7022
 2680SOL    HW210791   1.068   2.301   4.238  0.5151  0.9176 -0.1885
 2680SOL    HW310792   1.011   2.184   4.159  0.8596  0.9193 -0.4398
 2680SOL    MW410793   1.006   2.267   4.187  0.1730  0.5894  0.4339
 2681SOL     OW10794   1.518   2.539   4.561  0.7587 -0.5034 -0.0120
 2681SOL    HW210795   1.540   2.627   4.590  1.4368 -0.3221 -1.0229
 2681SOL    HW310796   1.433   2.548   4.519  0.5466 -0.4505  0.4275
 2681SOL    MW410797   1.510   2.552   4.559  0.8203 -0.4725 -0.0868
 2682SOL     OW10798   1.582   0.875   4.154 -0.1669  0.0710  0.3179
 2682SOL    HW210799   1.623   0.961   4.146 -1.8301  0.9975  1.5087
 2682SOL    HW310800   1.566   0.848   4.064  2.1237  0.1312 -0.1352
 2682SOL    MW410801   1.585   0.883   4.141 -0.0842  0.2012  0.4153
 2683SOL     OW10802   0.452   0.071   4.245  0.1609 -0.1554 -0.3800
 2683SOL    HW210803   0.444   0.164   4.223 -0.9379 -0.0342  0.4869
 2683SOL    HW310804   0.529   0.041   4.196  0.5757  1.2272 -0.5922
 2683SOL    MW410805   0.461   0.079   4.235  0.0706  0.0430 -0.2933
 2684SOL     OW10806   1.159   3.585   4.240  0.4016 -0.3700  0.3956
 2684SOL    HW210807   1.078   3.535   4.230  0.1953  0.1491 -0.5166
 2684SOL    HW310808   1.148   3.633   4.322 -0.8395  0.8485 -0.4645
 2684SOL    MW410809   1.147   3.585   4.250  0.2106 -0.1404  0.1621
 2685SOL     OW10810   1.470   2.456   4.132  0.1652 -0.6762  0.2601
 2685SOL    HW210811   1.540   2.453   4.196  1.3145  2.1008 -0.8007
 2685SOL    HW310812   1.503   2.405   4.058  1.2873  0.9351 -0.3891
 2685SOL    MW410813   1.484   2.449   4.130  0.4649 -0.0970  0.0348
 2686SOL     OW10814   1.588   2.819   4.261  0.6326  0.3050 -0.2106
 2686SOL    HW210815   1.589   2.899   4.209  0.0508  0.4164 -0.0602
 2686SOL    HW310816   1.639   2.756   4.210 -0.1263  0.3466 -1.0282
 2686SOL    MW410817   1.595   2.821   4.247  0.4559  0.3252 -0.2985
 2687SOL     OW10818   4.243   2.048   4.243  0.1684 -0.3471 -0.1787
 2687SOL    HW210819   4.172   1.994   4.210  0.4941  0.0113 -1.4996
 2687SOL    HW310820   4.322   1.997   4.225  0.5695  1.0057 -2.4006
 2687SOL    MW410821   4.244   2.034   4.236  0.2642 -0.1214 -0.6466
 2688SOL     OW10822   0.492   3.979   4.479 -0.1339 -0.0364  0.2895
 2688SOL    HW210823   0.560   4.043   4.500  0.5208 -1.1562  1.7237
 2688SOL    HW310824   0.485   3.981   4.384  0.5432  1.4791  0.2662
 2688SOL    MW410825   0.500   3.988   4.469  0.0418  0.0160  0.4754
 2689SOL     OW10826   4.240   2.826   4.292 -0.0215  0.4083 -0.1000
 2689SOL    HW210827   4.267   2.905   4.246  0.2216  0.2158 -0.2938
 2689SOL    HW310828   4.172   2.787   4.237 -2.2569  2.0182  1.4520
 2689SOL    MW410829   4.235   2.831   4.279 -0.2847  0.5953  0.0796
 2690SOL     OW10830   2.287   1.438   4.518  0.3436  0.0236 -0.4130
 2690SOL    HW210831   2.257   1.529   4.526 -0.4697 -0.1168 -1.6374
 2690SOL    HW310832   2.346   1.440   4.443 -1.0290 -0.7716 -1.5430
 2690SOL    MW410833   2.291   1.450   4.509  0.0548 -0.0998 -0.7238
 2691SOL     OW10834   1.670   2.455   4.352 -0.0007 -0.1334  0.3123
 2691SOL    HW210835   1.727   2.387   4.389  1.6396  1.3340  0.5741
 2691SOL    HW310836   1.619   2.486   4.426 -0.3348 -0.6763  0.3116
 2691SOL    MW410837   1.671   2.450   4.366  0.1717 -0.0114  0.3467
 2692SOL     OW10838   1.476   3.079   4.490 -0.0150  0.1154 -0.2769
 2692SOL    HW210839   1.555   3.132   4.482 -0.1072  0.3429  0.3584
 2692SOL    HW310840   1.509   2.991   4.509  0.0773  0.2422  0.1445
 2692SOL    MW410841   1.491   3.074   4.491 -0.0150  0.1621 -0.1373
 2693SOL     OW10842   2.767   4.260   4.388  0.3339  0.1234  0.3803
 2693SOL    HW210843   2.700   4.227   4.448 -0.5668  0.7677 -0.2555
 2693SOL    HW310844   2.717   4.292   4.313  1.2622  1.8541  0.4788
 2693SOL    MW410845   2.751   4.260   4.386  0.3376  0.4368  0.3095
 2694SOL     OW10846   3.234   3.205   4.492  0.4836 -0.5858  0.0773
 2694SOL    HW210847   3.164   3.149   4.526 -0.9455  0.8092 -0.4934
 2694SOL    HW310848   3.243   3.179   4.400  1.1604 -1.1807  0.3018
 2694SOL    MW410849   3.226   3.194   4.484  0.3843 -0.4804  0.0315
 2695SOL     OW10850   3.166   4.029   4.270  0.0435  0.3821 -0.0933
 2695SOL    HW210851   3.191   3.952   4.218 -0.4538  0.9699 -1.2132
 2695SOL    HW310852   3.076   4.011   4.298  1.2624 -1.2562  3.0600
 2695SOL    MW410853   3.158   4.017   4.267  0.1388  0.2437  0.1755
 2696SOL     OW10854   0.679   1.558   4.200  0.6420  0.0339 -0.3669
 2696SOL    HW210855   0.674   1.553   4.104  0.5859  0.0489 -0.3653
 2696SOL    HW310856   0.651   1.472   4.230 -0.9520  0.5487 -0.3153
 2696SOL    MW410857   0.674   1.546   4.191  0.4243  0.1038 -0.3600
 2697SOL     OW10858   3.654   2.709   4.118  0.0426 -0.3109  0.3707
 2697SOL    HW210859   3.579   2.730   4.173  1.5582  0.0478  2.3735
 2697SOL    HW310860   3.726   2.762   4.153  1.1712 -0.3740 -1.7167
 2697SOL    MW410861   3.654   2.719   4.130  0.3917 -0.2718  0.3600
 2698SOL     OW10862   1.553   1.016   4.591 -0.0134  0.2455 -0.2627
 2698SOL    HW210863   1.517   1.095   4.549 -1.0724  0.3806  0.8617
 2698SOL    HW310864   1.478   0.958   4.601  0.9077 -1.2498 -1.7739
 2698SOL    MW410865   1.538   1.019   4.587 -0.0316  0.0660 -0.3138
 2699SOL     OW10866   1.319   1.950   4.131 -0.3497 -0.3394 -0.4216
 2699SOL    HW210867   1.227   1.970   4.149 -0.4593 -0.3679 -0.9236
 2699SOL    HW310868   1.368   1.998   4.198 -0.5874  1.8011 -1.7165
 2699SOL    MW410869   1.313   1.959   4.142 -0.3955 -0.0608 -0.6590
 2700SOL     OW10870   0.670   2.106   3.798 -0.6529  0.1023  0.1876
 2700SOL    HW210871   0.591   2.067   3.836 -0.3244  0.4613  1.2438
 2700SOL    HW310872   0.675   2.193   3.836 -1.0392  0.9821 -1.6914
 2700SOL    MW410873   0.660   2.112   3.808 -0.6605  0.2658  0.0792
 2701SOL     OW10874   1.133   4.640   4.190 -0.1587 -0.3124  0.3538
 2701SOL    HW210875   1.146   4.633   4.095 -0.0353  0.4356  0.3137
 2701SOL    HW310876   1.115   4.550   4.218 -0.2555 -0.5307 -0.3875
 2701SOL    MW410877   1.132   4.627   4.181 -0.1552 -0.2422  0.2508
 2702SOL     OW10878   1.552   3.804   4.116 -0.3701 -0.0514  0.7094
 2702SOL    HW210879   1.613   3.847   4.176 -1.2151  0.8212  0.9553
 2702SOL    HW310880   1.468   3.846   4.133 -0.5980  0.2769 -1.1645
 2702SOL    MW410881   1.549   3.815   4.126 -0.5116  0.1070  0.4945
 2703SOL     OW10882   3.610   2.454   4.881  0.1264  0.1248  0.1709
 2703SOL    HW210883   3.527   2.411   4.860 -0.1282  0.2652  0.8862
 2703SOL    HW310884   3.645   2.481   4.796 -0.8353  0.5660 -0.0858
 2703SOL    MW410885   3.604   2.452   4.867 -0.0341  0.2015  0.2313
 2704SOL     OW10886   3.809   1.819   4.684  0.0514 -0.3283 -0.3051
 2704SOL    HW210887   3.729   1.792   4.641 -0.2333  0.1964 -0.1113
 2704SOL    HW310888   3.796   1.912   4.704  0.9273 -0.1007 -0.7718
 2704SOL    MW410889   3.797   1.828   4.681  0.1295 -0.2290 -0.3409
 2705SOL     OW10890   2.667   1.170   4.102  0.1208 -0.0513 -0.0725
 2705SOL    HW210891   2.745   1.217   4.132 -0.3997  1.3001 -0.8265
 2705SOL    HW310892   2.677   1.162   4.007 -0.8308  0.4585 -0.2260
 2705SOL    MW410893   2.678   1.175   4.094 -0.0734  0.1941 -0.1922
 2706SOL     OW10894   2.289   3.682   4.629 -0.0735 -0.4587 -0.0423
 2706SOL    HW210895   2.325   3.743   4.693  0.4609 -0.5828 -0.2287
 2706SOL    HW310896   2.229   3.736   4.577 -0.8470 -0.4571  0.8435
 2706SOL    MW410897   2.286   3.697   4.630 -0.1051 -0.4749  0.0496
 2707SOL     OW10898   4.488   4.274   4.156 -0.0851 -0.0404 -0.0064
 2707SOL    HW210899   4.468   4.192   4.201 -1.0872  0.8781  1.2508
 2707SOL    HW310900   4.475   4.255   4.064  0.3173 -1.4791  0.2284
 2707SOL    MW410901   4.484   4.261   4.150 -0.1642 -0.1087  0.1903
 2708SOL     OW10902   1.342   1.681   4.205  0.1464 -0.0287 -0.7400
 2708SOL    HW210903   1.324   1.769   4.171 -0.7473  0.0988  0.0601
 2708SOL    HW310904   1.372   1.695   4.295  0.1775 -0.5351 -0.6684
 2708SOL    MW410905   1.344   1.694   4.212  0.0327 -0.0788 -0.6247
 2709SOL     OW10906   4.477   1.928   4.125 -0.3856  0.2449 -0.2647
 2709SOL    HW210907   4.545   1.980   4.168 -0.9090  1.3621 -0.7560
 2709SOL    HW310908   4.490   1.839   4.158  1.3706  0.4224 -0.4357
 2709SOL    MW410909   4.488   1.923   4.135 -0.2232  0.4159 -0.3519
 2710SOL     OW10910   0.685   4.659   4.115 -0.2567 -0.1539  0.1014
 2710SOL    HW210911   0.690   4.672   4.020 -0.9148  0.9849  0.2078
 2710SOL    HW310912   0.756   4.712   4.151  1.6214 -2.5980  0.1051
 2710SOL    MW410913   0.695   4.668   4.107 -0.0957 -0.3261  0.1163
 2711SOL     OW10914   3.525   3.493   4.702  0.2133 -0.0531  0.6080
 2711SOL    HW210915   3.477   3.469   4.623  0.9367 -1.4146  0.5601
 2711SOL    HW310916   3.490   3.578   4.727 -1.4627 -0.5391 -0.0276
 2711SOL    MW410917   3.514   3.501   4.695  0.0875 -0.2968  0.5178
 2712SOL     OW10918   3.349   3.549   4.275  0.0203  0.1607  0.0151
 2712SOL    HW210919   3.338   3.637   4.239 -1.4353 -0.1426 -0.3075
 2712SOL    HW310920   3.438   3.523   4.248  0.5726  1.6316  0.3721
 2712SOL    MW410921   3.360   3.557   4.266 -0.0992  0.3147  0.0196
 2713SOL     OW10922   3.233   4.147   4.544  0.0924 -0.8177 -0.2837
 2713SOL    HW210923   3.197   4.136   4.456  1.5798  2.6123 -1.3872
 2713SOL    HW310924   3.198   4.230   4.574  0.8308 -1.2243  1.7882
 2713SOL    MW410925   3.223   4.156   4.536  0.3858 -0.4191 -0.1559
 2714SOL     OW10926   0.103   1.790   4.902  0.3509  0.2023 -0.2666
 2714SOL    HW210927   0.083   1.883   4.902  1.3598  0.4632  2.3520
 2714SOL    HW310928   0.164   1.778   4.829  1.1363  1.8130  0.1059
 2714SOL    MW410929   0.109   1.801   4.893  0.5876  0.4491  0.1283
 2715SOL     OW10930   2.299   0.087   4.156  0.0078 -0.1830 -0.7415
 2715SOL    HW210931   2.290   0.088   4.251 -2.0751  0.9486 -0.9157
 2715SOL    HW310932   2.378   0.036   4.139 -0.1278 -1.1733  1.5425
 2715SOL    MW410933   2.308   0.081   4.166 -0.2847 -0.1643 -0.4630
 2716SOL     OW10934   1.627   1.837   4.750 -0.1580 -0.1605  0.0081
 2716SOL    HW210935   1.657   1.917   4.794 -1.8595  0.3321  0.3025
 2716SOL    HW310936   1.657   1.847   4.660  0.2302  0.4924  0.1993
 2716SOL    MW410937   1.635   1.849   4.744 -0.3313 -0.0093  0.0720
 2717SOL     OW10938   0.238   0.762   4.107 -0.2458  0.0228  0.7838
 2717SOL    HW210939   0.151   0.790   4.136 -0.9937 -1.7376  0.2962
 2717SOL    HW310940   0.246   0.673   4.141  0.3007 -0.7705 -1.4125
 2717SOL    MW410941   0.227   0.754   4.116 -0.2724 -0.3141  0.4301
 2718SOL     OW10942   1.713   1.128   4.138  0.0230 -0.3671 -0.5813
 2718SOL    HW210943   1.649   1.177   4.190  0.2126 -1.1796  0.4393
 2718SOL    HW310944   1.798   1.154   4.175  0.2483  0.1754 -1.4682
 2718SOL    MW410945   1.716   1.138   4.150  0.0777 -0.4028 -0.5636
 2719SOL     OW10946   4.378   2.703   4.592  0.3243  0.4530  0.4032
 2719SOL    HW210947   4.312   2.771   4.606 -0.9785 -0.7766  0.3945
 2719SOL    HW310948   4.346   2.654   4.516  1.4199  0.0391  0.1955
 2719SOL    MW410949   4.365   2.705   4.584  0.2971  0.2360  0.3748
 2720SOL     OW10950   1.131   4.597   4.620 -0.4984  0.3894 -0.2025
 2720SOL    HW210951   1.038   4.578   4.605 -0.6227  1.4880 -0.8981
 2720SOL    HW310952   1.134   4.692   4.633  0.5176  0.3432 -0.0999
 2720SOL    MW410953   1.119   4.607   4.619 -0.3809  0.5288 -0.2809
 2721SOL     OW10954   0.446   0.886   4.238  0.1929  0.1573  0.1043
 2721SOL    HW210955   0.526   0.845   4.204  0.6528  2.3627 -1.5321
 2721SOL    HW310956   0.375   0.845   4.189  0.5932  0.8279 -1.0338
 2721SOL    MW410957   0.447   0.875   4.227  0.3064  0.5367 -0.2618
 2722SOL     OW10958   1.308   0.880   4.563 -0.2375  0.1272  0.1248
 2722SOL    HW210959   1.241   0.942   4.591  0.1018 -0.0837  1.4007
 2722SOL    HW310960   1.262   0.796   4.556 -0.4291  0.2767 -0.4420
 2722SOL    MW410961   1.293   0.877   4.565 -0.2180  0.1190  0.2184
 2723SOL     OW10962   1.133   1.320   4.509 -0.0435  0.3998 -0.1434
 2723SOL    HW210963   1.159   1.296   4.421 -0.0077  0.2562 -0.0944
 2723SOL    HW310964   1.081   1.400   4.498  0.1474  0.5062 -0.2721
 2723SOL    MW410965   1.129   1.327   4.496 -0.0136  0.3949 -0.1540
 2724SOL     OW10966   1.553   4.658   3.863  0.0613  0.5188  0.1578
 2724SOL    HW210967   1.563   4.653   3.958  0.7319  0.3108  0.0787
 2724SOL    HW310968   1.637   4.692   3.831  0.0252  0.1110 -0.3985
 2724SOL    MW410969   1.566   4.662   3.871  0.1450  0.4377  0.0739
 2725SOL     OW10970   3.630   2.798   4.618  0.3539 -0.5239  0.5022
 2725SOL    HW210971   3.651   2.705   4.616 -0.3190 -0.6571 -0.5413
 2725SOL    HW310972   3.713   2.842   4.602  0.5016 -0.9723  0.0174
 2725SOL    MW410973   3.643   2.792   4.616  0.2849 -0.6008  0.3004
 2726SOL     OW10974   2.704   0.629   4.543  0.0103 -0.8050 -0.1359
 2726SOL    HW210975   2.697   0.722   4.522 -1.1731 -1.0461 -0.8373
 2726SOL    HW310976   2.797   0.609   4.532  0.4727  0.5556  1.1542
 2726SOL    MW410977   2.715   0.639   4.539 -0.0846 -0.6572 -0.0587
 2727SOL     OW10978   4.027   1.920   4.139 -0.4916 -0.7423 -0.2412
 2727SOL    HW210979   3.964   1.981   4.175  0.9813  0.8058 -0.2158
 2727SOL    HW310980   4.031   1.848   4.202  0.3945  0.8605  1.5838
 2727SOL    MW410981   4.019   1.919   4.152 -0.1798 -0.3266  0.0029
 2728SOL     OW10982   2.407   3.886   4.793  0.2945 -0.3757 -0.2809
 2728SOL    HW210983   2.396   3.968   4.841  1.5471 -1.3269  1.7317
 2728SOL    HW310984   2.493   3.892   4.753  0.3467 -0.6588 -0.2169
 2728SOL    MW410985   2.417   3.898   4.794  0.4666 -0.5386 -0.0072
 2729SOL     OW10986   1.418   2.139   4.319 -0.2465 -0.4544 -0.3295
 2729SOL    HW210987   1.513   2.142   4.311 -0.2653 -0.5243 -0.5904
 2729SOL    HW310988   1.403   2.097   4.404 -0.0362  2.4364  1.1893
 2729SOL    MW410989   1.429   2.134   4.329 -0.2213 -0.0823 -0.1636
 2730SOL     OW10990   0.445   2.665   4.150  0.0603 -0.1846  0.0127
 2730SOL    HW210991   0.509   2.735   4.162  0.3119 -0.0855 -1.7900
 2730SOL    HW310992   0.439   2.653   4.055 -1.0922 -1.5826  0.2329
 2730SOL    MW410993   0.453   2.672   4.139 -0.0586 -0.3557 -0.1960
 2731SOL     OW10994   0.624   3.727   4.517 -0.0585  0.3212  0.3299
 2731SOL    HW210995   0.573   3.807   4.510 -0.7444 -0.1463 -0.0605
 2731SOL    HW310996   0.647   3.705   4.427  0.4952  0.3176  0.4721
 2731SOL    MW410997   0.620   3.734   4.504 -0.0760  0.2592  0.2975
 2732SOL     OW10998   3.527   2.171   4.649 -0.3499 -0.4503 -0.2568
 2732SOL    HW210999   3.482   2.107   4.594  0.6269 -1.6581  0.3300
 2732SOL    HW311000   3.528   2.252   4.597 -0.6670 -1.1959 -1.4218
 2732SOL    MW411001   3.521   2.174   4.635 -0.2630 -0.7081 -0.3333
 2733SOL     OW11002   0.894   3.804   4.628 -0.0357  0.2085 -0.2492
 2733SOL    HW211003   0.811   3.772   4.592 -0.7071  0.4684  1.0480
 2733SOL    HW311004   0.910   3.749   4.704  1.6177 -0.6330 -1.1693
 2733SOL    MW411005   0.885   3.793   4.633  0.0938  0.1316 -0.1993
 2734SOL     OW11006   0.030   1.734   4.519  0.3574 -0.1950  0.1079
 2734SOL    HW211007  -0.053   1.773   4.547  0.5332 -0.3699  0.8613
 2734SOL    HW311008   0.095   1.770   4.579  0.6803 -0.8426  0.1451
 2734SOL    MW411009   0.028   1.744   4.530  0.4232 -0.3034  0.2117
 2735SOL     OW11010   2.954   1.594   4.866 -0.0036 -0.1784 -0.3665
 2735SOL    HW211011   2.911   1.680   4.863 -0.6704 -0.4818  0.1462
 2735SOL    HW311012   3.003   1.589   4.785 -1.3658 -0.0305 -1.2185
 2735SOL    MW411013   2.955   1.605   4.855 -0.2713 -0.1988 -0.4115
 2736SOL     OW11014   3.657   1.213   4.574  0.0811 -0.0333 -0.2378
 2736SOL    HW211015   3.658   1.251   4.661 -1.1116 -0.8241  0.1292
 2736SOL    HW311016   3.568   1.226   4.542  0.4151 -0.0334 -1.2093
 2736SOL    MW411017   3.645   1.219   4.581 -0.0319 -0.1377 -0.3166
 2737SOL     OW11018   1.796   3.211   4.229 -0.0235 -0.2275  0.6105
 2737SOL    HW211019   1.878   3.181   4.189 -0.3663 -0.6696  0.2356
 2737SOL    HW311020   1.782   3.299   4.194 -0.5404 -0.7710 -0.5794
 2737SOL    MW411021   1.805   3.219   4.219 -0.1370 -0.3574  0.4044
 2738SOL     OW11022   0.631   2.854   4.205  0.1966  0.1986  0.2244
 2738SOL    HW211023   0.609   2.884   4.293 -1.5744  0.9435 -0.4479
 2738SOL    HW311024   0.636   2.934   4.153 -0.9956 -0.4033 -0.8258
 2738SOL    MW411025   0.629   2.868   4.210 -0.1944  0.2177 -0.0033
 2739SOL     OW11026   0.417   4.590   4.480 -0.8066  0.2846 -0.2392
 2739SOL    HW211027   0.420   4.627   4.392 -1.1624 -1.0892 -0.8411
 2739SOL    HW311028   0.444   4.662   4.537 -1.2395  1.3914 -1.4001
 2739SOL    MW411029   0.421   4.605   4.476 -0.9106  0.2489 -0.4716
 2740SOL     OW11030   4.416   2.430   4.255  0.2398  0.2761 -0.3331
 2740SOL    HW211031   4.492   2.380   4.225 -0.8323 -0.9755 -1.0073
 2740SOL    HW311032   4.404   2.402   4.346  0.6252  0.5327 -0.2012
 2740SOL    MW411033   4.424   2.420   4.263  0.1497  0.1450 -0.4053
 2741SOL     OW11034   1.822   0.059   4.256  0.1007  0.1458  0.3789
 2741SOL    HW211035   1.842   0.076   4.348  0.0425  3.1564 -0.1179
 2741SOL    HW311036   1.900   0.016   4.222  0.3241 -0.5334  1.6962
 2741SOL    MW411037   1.835   0.056   4.264  0.1225  0.4534  0.4873
 2742SOL     OW11038   4.290   3.362   4.604  0.0137 -0.4761 -0.0827
 2742SOL    HW211039   4.373   3.323   4.577  0.1064 -1.1099  1.0722
 2742SOL    HW311040   4.224   3.295   4.583  0.1615 -1.2401  1.8157
 2742SOL    MW411041   4.292   3.348   4.597  0.0458 -0.6607  0.3204
 2743SOL     OW11042   4.384   4.305   4.531 -0.4550  0.6677  0.2792
 2743SOL    HW211043   4.434   4.366   4.585 -1.4244  0.6336  1.2184
 2743SOL    HW311044   4.332   4.360   4.473  0.1137  0.7102 -0.1966
 2743SOL    MW411045   4.384   4.320   4.530 -0.5078  0.6690  0.3400
 2744SOL     OW11046   2.507   1.445   4.349  0.1319  0.2773  0.0835
 2744SOL    HW211047   2.495   1.492   4.266 -0.9747  0.7105  0.4886
 2744SOL    HW311048   2.496   1.353   4.326  0.1035  0.3751 -0.3025
 2744SOL    MW411049   2.504   1.439   4.335 -0.0176  0.3473  0.0863
 2745SOL     OW11050   0.267   1.335   4.549 -0.1751  0.8342  0.3281
 2745SOL    HW211051   0.180   1.373   4.561  0.2216  1.3171  1.7728
 2745SOL    HW311052   0.326   1.410   4.550  0.1394  0.6678 -2.2241
 2745SOL    MW411053   0.263   1.350   4.551 -0.0813  0.8759  0.1817
 2746SOL     OW11054   2.312   0.082   4.452  0.4989 -0.0523  0.7749
 2746SOL    HW211055   2.383   0.121   4.503  1.0715 -1.8362  1.3844
 2746SOL    HW311056   2.324  -0.012   4.463  0.7928 -0.5071 -2.8570
 2746SOL    MW411057   2.323   0.075   4.460  0.6130 -0.3478  0.3762
 2747SOL     OW11058   3.956   3.971   4.526 -0.0411 -0.1600 -0.2719
 2747SOL    HW211059   4.029   4.018   4.566 -0.0604 -1.0709  0.8574
 2747SOL    HW311060   3.878   4.019   4.551  0.1621  0.8602 -1.5446
 2747SOL    MW411061   3.955   3.983   4.534 -0.0167 -0.1454 -0.2909
 2748SOL     OW11062   2.040   1.972   4.322  0.1336  0.4472  0.0681
 2748SOL    HW211063   2.014   1.922   4.399  1.6823 -1.2593 -0.4789
 2748SOL    HW311064   2.054   2.061   4.355  1.0308 -0.3191  1.8149
 2748SOL    MW411065   2.038   1.977   4.336  0.4563  0.1211  0.2265
 2749SOL     OW11066   1.278   2.585   4.401  0.0796 -0.1891 -0.3040
 2749SOL    HW211067   1.242   2.499   4.383  1.0279 -0.5055 -0.7213
 2749SOL    HW311068   1.288   2.626   4.315  0.0302  0.1762 -0.1393
 2749SOL    MW411069   1.275   2.579   4.387  0.1984 -0.1826 -0.3376
 2750SOL     OW11070   1.599   4.003   4.547 -0.0778 -0.1111  0.2170
 2750SOL    HW211071   1.591   4.098   4.545  0.0359 -0.1303 -1.0666
 2750SOL    HW311072   1.658   3.986   4.621  1.1306  0.9008 -0.5088
 2750SOL    MW411073   1.606   4.013   4.557  0.0967  0.0200 -0.0482
 2751SOL     OW11074   2.614   3.876   4.614 -0.7418  0.2460  0.0658
 2751SOL    HW211075   2.709   3.872   4.626 -0.8404  0.6640  1.0988
 2751SOL    HW311076   2.592   3.795   4.569  0.2393  0.6452 -1.1530
 2751SOL    MW411077   2.624   3.865   4.610 -0.6254  0.3541  0.0415
 2752SOL     OW11078   1.724   0.352   4.582 -0.0735 -0.2451  0.2087
 2752SOL    HW211079   1.816   0.379   4.580 -0.2770  0.5155  0.7318
 2752SOL    HW311080   1.727   0.257   4.589  0.6695 -0.2515 -0.0908
 2752SOL    MW411081   1.736   0.343   4.583 -0.0023 -0.1456  0.2384
 2753SOL     OW11082   0.633   2.046   4.373 -0.0872 -0.4617  0.3520
 2753SOL    HW211083   0.582   2.011   4.300 -1.7380 -0.2230  1.3853
 2753SOL    HW311084   0.642   2.139   4.355 -2.5259  0.0546  1.6149
 2753SOL    MW411085   0.628   2.053   4.361 -0.6267 -0.3622  0.6557
 2754SOL     OW11086   3.077   1.683   4.459  0.3242  0.2934  0.3002
 2754SOL    HW211087   3.115   1.689   4.371  1.2521  0.1280  0.6798
 2754SOL    HW311088   3.082   1.772   4.494 -0.7329  0.5060 -0.0969
 2754SOL    MW411089   3.083   1.696   4.452  0.3073  0.2996  0.2980
 2755SOL     OW11090   3.687   2.521   4.612  0.0746  0.0703 -0.3498
 2755SOL    HW211091   3.770   2.505   4.567  0.2707  0.2811 -0.0649
 2755SOL    HW311092   3.620   2.484   4.554  0.3660 -0.0732 -0.5932
 2755SOL    MW411093   3.689   2.514   4.599  0.1390  0.0789 -0.3452
 2756SOL     OW11094   0.480   0.652   4.668  0.2642 -0.1840 -0.3107
 2756SOL    HW211095   0.459   0.733   4.622  0.6599 -0.1288 -0.3946
 2756SOL    HW311096   0.565   0.668   4.709  0.8565 -0.9160 -1.2176
 2756SOL    MW411097   0.489   0.665   4.667  0.3946 -0.2733 -0.4411
 2757SOL     OW11098   3.588   1.750   4.542 -0.1233 -0.5433 -0.2658
 2757SOL    HW211099   3.596   1.714   4.453  0.9062  0.4817 -0.6062
 2757SOL    HW311100   3.532   1.827   4.531 -0.7401 -0.9332  0.1333
 2757SOL    MW411101   3.582   1.756   4.529 -0.0687 -0.4594 -0.2584
 2758SOL     OW11102   2.540   4.147   4.503 -0.0788 -0.1198  0.3001
 2758SOL    HW211103   2.467   4.188   4.549  0.0218  0.6582 -0.2224
 2758SOL    HW311104   2.569   4.076   4.560 -1.8562 -1.0368  0.0913
 2758SOL    MW411105   2.534   4.143   4.516 -0.3002 -0.1378  0.2041
 2759SOL     OW11106   2.903   2.361   4.126 -0.3884  0.2770  0.3832
 2759SOL    HW211107   2.891   2.282   4.178  1.0915 -0.0844  0.2020
 2759SOL    HW311108   2.818   2.404   4.127 -0.6714 -0.3071  2.1559
 2759SOL    MW411109   2.890   2.356   4.133 -0.2306  0.1523  0.5932
 2760SOL     OW11110   0.933   3.079   4.490 -0.2148  0.4669 -0.2644
 2760SOL    HW211111   0.930   3.119   4.577 -1.2072 -0.5258  0.1763
 2760SOL    HW311112   1.026   3.063   4.474  0.0085  1.0388  0.4419
 2760SOL    MW411113   0.945   3.082   4.499 -0.3162  0.4113 -0.1130
 2761SOL     OW11114   2.263   3.432   4.169  0.3088 -0.2172 -0.1723
 2761SOL    HW211115   2.258   3.344   4.207 -0.7355 -0.4544 -0.8131
 2761SOL    HW311116   2.190   3.479   4.210 -0.0313 -0.0953 -0.9068
 2761SOL    MW411117   2.253   3.427   4.179  0.1264 -0.2325 -0.3538
 2762SOL     OW11118   3.240   3.488   4.526  0.4417 -0.1397 -0.3928
 2762SOL    HW211119   3.290   3.504   4.445  0.0699 -0.8194 -0.7630
 2762SOL    HW311120   3.224   3.393   4.525  0.6671 -0.1907  0.6160
 2762SOL    MW411121   3.245   3.477   4.515  0.4222 -0.2363 -0.3085
 2763SOL     OW11122   3.376   2.839   4.499 -0.1247 -0.5120 -0.1584
 2763SOL    HW211123   3.391   2.822   4.406  1.0433 -0.3290 -0.0081
 2763SOL    HW311124   3.460   2.822   4.541 -0.9316 -1.6688  1.0313
 2763SOL    MW411125   3.389   2.834   4.492 -0.0772 -0.6409  0.0186
 2764SOL     OW11126   3.208   1.050   4.659  0.0089  0.1570  0.2393
 2764SOL    HW211127   3.125   1.086   4.689 -0.5545  0.3195 -1.4921
 2764SOL    HW311128   3.259   1.126   4.630 -0.7238 -0.2949 -2.2901
 2764SOL    MW411129   3.204   1.065   4.659 -0.1621  0.1187 -0.3228
 2765SOL     OW11130   1.788   0.311   4.166  0.1789  0.1177 -0.0065
 2765SOL    HW211131   1.804   0.224   4.203  1.3287  0.2523 -0.1913
 2765SOL    HW311132   1.724   0.350   4.226  0.4100 -0.4789  0.6411
 2765SOL    MW411133   1.781   0.304   4.179  0.3611  0.0567  0.0548
 2766SOL     OW11134   2.042   1.499   4.203  0.4682  0.6250  0.2439
 2766SOL    HW211135   2.036   1.404   4.198 -1.8223  0.6701  1.3856
 2766SOL    HW311136   2.031   1.529   4.112  0.8678 -0.1642 -0.0678
 2766SOL    MW411137   2.040   1.491   4.190  0.2186  0.5269  0.3533
 2767SOL     OW11138   4.255   4.390   4.283  0.4653 -0.1093  0.4792
 2767SOL    HW211139   4.265   4.483   4.261 -1.5635 -0.0373 -0.2380
 2767SOL    HW311140   4.322   4.346   4.231 -0.3373  0.6881 -1.2797
 2767SOL    MW411141   4.265   4.397   4.274  0.0920  0.0052  0.1526
 2768SOL     OW11142   3.334   0.646   4.700 -0.3882  0.5069  0.3567
 2768SOL    HW211143   3.324   0.571   4.759  2.5398 -1.8313 -1.8919
 2768SOL    HW311144   3.385   0.709   4.750  0.7067 -0.7803  0.9155
 2768SOL    MW411145   3.339   0.644   4.714  0.1428  0.0287  0.1340
 2769SOL     OW11146   3.062   2.224   4.868  0.4808 -0.0512 -0.1979
 2769SOL    HW211147   2.980   2.177   4.885  1.2865 -1.0474  1.0231
 2769SOL    HW311148   3.035   2.314   4.851 -0.7632 -0.0360  1.7254
 2769SOL    MW411149   3.048   2.229   4.868  0.4232 -0.1807  0.2170
 2770SOL     OW11150   0.927   4.224   4.121 -0.1308 -0.1628 -0.2983
 2770SOL    HW211151   1.009   4.254   4.160 -0.8235  0.2051  0.9267
 2770SOL    HW311152   0.862   4.289   4.148 -0.3612  0.9376 -3.3817
 2770SOL    MW411153   0.929   4.236   4.130 -0.2526  0.0310 -0.5436
 2771SOL     OW11154   1.565   1.299   4.294  0.0194 -0.1929  0.1030
 2771SOL    HW211155   1.577   1.388   4.261  2.6591 -0.3627  0.4671
 2771SOL    HW311156   1.546   1.310   4.388  1.1052 -0.0363  0.3064
 2771SOL    MW411157   1.564   1.312   4.302  0.5109 -0.1947  0.1779
 2772SOL     OW11158   3.808   3.598   4.286  0.0563  0.4490  0.1792
 2772SOL    HW211159   3.794   3.561   4.373 -0.3436 -0.7027 -0.3632
 2772SOL    HW311160   3.874   3.542   4.246 -0.9970 -0.0784 -0.8786
 2772SOL    MW411161   3.815   3.585   4.292 -0.1352  0.2275 -0.0315
 2773SOL     OW11162   3.726   0.447   4.535  0.6726  0.1757 -0.0556
 2773SOL    HW211163   3.719   0.352   4.542  1.9306  0.1726  1.6280
 2773SOL    HW311164   3.761   0.462   4.447  2.2094 -1.0309  0.3291
 2773SOL    MW411165   3.730   0.436   4.524  1.0412  0.0162  0.2179
 2774SOL     OW11166   4.275   1.514   4.212 -0.0220 -0.1589 -0.1150
 2774SOL    HW211167   4.264   1.510   4.117  0.4256 -0.6493 -0.1463
 2774SOL    HW311168   4.201   1.566   4.242  0.1453  0.4714 -0.7891
 2774SOL    MW411169   4.263   1.520   4.203  0.0587 -0.1403 -0.2079
 2775SOL     OW11170   4.398   0.655   4.523 -0.0538  0.7936 -0.2149
 2775SOL    HW211171   4.450   0.732   4.501  0.3082  1.0308  1.4348
 2775SOL    HW311172   4.326   0.689   4.576 -0.4184  0.1023 -0.2559
 2775SOL    MW411173   4.395   0.669   4.527 -0.0539  0.7337 -0.0029
 2776SOL     OW11174   2.348   2.581   4.450  0.3508 -0.4122  0.0499
 2776SOL    HW211175   2.381   2.523   4.519 -2.0927 -1.3798  0.4655
 2776SOL    HW311176   2.289   2.526   4.399 -0.3099  1.1340 -0.8878
 2776SOL    MW411177   2.344   2.566   4.452 -0.0587 -0.3362 -0.0196
 2777SOL     OW11178   1.753   4.468   4.447  0.0872 -0.4059  0.4079
 2777SOL    HW211179   1.704   4.464   4.364  0.6091  0.4637  0.0534
 2777SOL    HW311180   1.823   4.403   4.437 -0.7129 -1.3348  0.7391
 2777SOL    MW411181   1.756   4.459   4.435  0.0504 -0.4139  0.4048
 2778SOL     OW11182   3.151   2.428   4.205  0.5898 -0.1551  0.0288
 2778SOL    HW211183   3.062   2.401   4.180  0.5412 -0.0503  0.0889
 2778SOL    HW311184   3.208   2.370   4.155  0.5156  1.0141 -1.4599
 2778SOL    MW411185   3.147   2.417   4.195  0.5736  0.0129 -0.1597
 2779SOL     OW11186   2.398   2.358   4.155 -0.3056 -0.1627 -0.2786
 2779SOL    HW211187   2.408   2.342   4.062 -2.6388 -0.5405 -0.4941
 2779SOL    HW311188   2.431   2.279   4.197  0.2185 -0.2222 -0.7992
 2779SOL    MW411189   2.404   2.346   4.148 -0.5443 -0.2203 -0.3753
 2780SOL     OW11190   3.227   2.560   4.880  0.0911  0.1596 -0.1108
 2780SOL    HW211191   3.273   2.488   4.836 -0.3073 -0.4904  0.5206
 2780SOL    HW311192   3.293   2.599   4.937  0.3726  0.4469 -0.6301
 2780SOL    MW411193   3.242   2.555   4.881  0.0758  0.1116 -0.0958
 2781SOL     OW11194   1.393   0.033   4.285  0.5079 -0.5003  0.2299
 2781SOL    HW211195   1.308  -0.001   4.256  1.4839 -0.5869 -2.6931
 2781SOL    HW311196   1.372   0.084   4.364 -2.5307  0.8071 -1.3227
 2781SOL    MW411197   1.379   0.035   4.292  0.2357 -0.3392 -0.3605
 2782SOL     OW11198   3.480   2.650   5.004 -0.2968 -0.1184  0.1847
 2782SOL    HW211199   3.530   2.578   4.966  0.8570  0.4177  0.6522
 2782SOL    HW311200   3.511   2.656   5.094  0.3674  1.6147 -0.1382
 2782SOL    MW411201   3.491   2.641   5.010 -0.0570  0.1810  0.2041
 2783SOL     OW11202   3.717   4.096   4.603 -0.3354 -0.4834  0.2375
 2783SOL    HW211203   3.630   4.062   4.581 -0.2175  0.3882 -1.6665
 2783SOL    HW311204   3.712   4.190   4.583  1.4444 -0.6652 -1.1816
 2783SOL    MW411205   3.705   4.104   4.598 -0.0849 -0.3924 -0.2012
 2784SOL     OW11206   0.401   1.600   4.507  0.1841  0.1250  0.0307
 2784SOL    HW211207   0.493   1.605   4.533 -0.2858  2.9068  1.3907
 2784SOL    HW311208   0.400   1.626   4.415  0.6444  1.3974  0.3711
 2784SOL    MW411209   0.413   1.604   4.499  0.1828  0.6599  0.2551
 2785SOL     OW11210   1.657   3.504   4.519  0.0747 -0.1341 -0.2850
 2785SOL    HW211211   1.624   3.546   4.439  1.0369 -0.5338 -0.8990
 2785SOL    HW311212   1.578   3.468   4.561 -0.5113  0.5882 -0.7431
 2785SOL    MW411213   1.642   3.505   4.514  0.1243 -0.0913 -0.4258
 2786SOL     OW11214   1.801   3.481   4.163 -0.2748 -0.0402  0.3228
 2786SOL    HW211215   1.789   3.485   4.068 -0.0809 -0.7414  0.2651
 2786SOL    HW311216   1.719   3.514   4.199 -0.2041  0.5939 -0.0944
 2786SOL    MW411217   1.789   3.486   4.155 -0.2400 -0.0489  0.2599
 2787SOL     OW11218   0.330   3.198   4.522 -0.4927 -0.0542 -0.0728
 2787SOL    HW211219   0.350   3.280   4.567 -0.8095 -0.2569  0.4393
 2787SOL    HW311220   0.361   3.212   4.433 -0.1051  0.4464  0.1375
 2787SOL    MW411221   0.337   3.211   4.516 -0.4833 -0.0150  0.0224
 2788SOL     OW11222   1.955   0.691   4.127 -0.0617  0.3073 -0.0405
 2788SOL    HW211223   1.869   0.697   4.170 -0.5830  0.0165 -1.0345
 2788SOL    HW311224   1.984   0.602   4.146  0.2775  0.5742  0.7508
 2788SOL    MW411225   1.947   0.680   4.135 -0.0857  0.3042 -0.0672
 2789SOL     OW11226   4.029   1.674   4.284 -0.3068 -0.1037 -0.2343
 2789SOL    HW211227   3.943   1.645   4.253 -0.7028 -0.3731  1.0796
 2789SOL    HW311228   4.022   1.669   4.380  0.9396  0.5503 -0.1135
 2789SOL    MW411229   4.017   1.669   4.293 -0.1945 -0.0529 -0.0453
 2790SOL     OW11230   1.328   3.949   4.472  0.6092  0.1526 -0.3366
 2790SOL    HW211231   1.419   3.945   4.504  0.8960  1.9013 -0.8565
 2790SOL    HW311232   1.303   4.040   4.485 -1.6833 -0.6892  1.3524
 2790SOL    MW411233   1.337   3.960   4.478  0.3445  0.2723 -0.1826
 2791SOL     OW11234   3.430   1.504   4.674 -0.5550 -0.4073 -0.6170
 2791SOL    HW211235   3.496   1.470   4.734 -1.0637  0.2897  0.3498
 2791SOL    HW311236   3.472   1.579   4.632 -0.9244  0.4107  0.4451
 2791SOL    MW411237   3.444   1.509   4.676 -0.6709 -0.2075 -0.3490
 2792SOL     OW11238   3.409   0.496   4.232 -0.0256 -0.1956 -0.3282
 2792SOL    HW211239   3.397   0.583   4.194  0.3546 -0.4723 -1.0924
 2792SOL    HW311240   3.425   0.513   4.325 -2.0377  0.4212 -0.0629
 2792SOL    MW411241   3.410   0.510   4.239 -0.2410 -0.1507 -0.3943
 2793SOL     OW11242   2.831   3.844   4.153 -0.2415  0.4123 -0.2146
 2793SOL    HW211243   2.841   3.908   4.223 -2.9710 -1.0827  1.6223
 2793SOL    HW311244   2.867   3.763   4.189 -1.6302 -0.3545 -0.5341
 2793SOL    MW411245   2.837   3.842   4.167 -0.7851  0.1137 -0.0138
 2794SOL     OW11246   2.923   2.105   4.258  0.2372  0.1192 -0.6139
 2794SOL    HW211247   2.865   2.037   4.225  1.7718 -1.2280 -0.5780
 2794SOL    HW311248   2.898   2.116   4.350 -1.2829  0.9803 -1.1096
 2794SOL    MW411249   2.912   2.098   4.266  0.2389  0.0553 -0.6742
 2795SOL     OW11250   3.849   0.475   4.282  0.2229 -0.1596  0.7275
 2795SOL    HW211251   3.840   0.565   4.250  1.0395 -0.4323 -0.2923
 2795SOL    HW311252   3.777   0.428   4.240 -1.3738  0.4068  2.7622
 2795SOL    MW411253   3.838   0.480   4.272  0.1202 -0.1208  0.8616
 2796SOL     OW11254   0.688   1.923   4.620 -0.2100 -0.2439  0.0266
 2796SOL    HW211255   0.651   1.947   4.535  2.2100 -0.0057 -1.0131
 2796SOL    HW311256   0.677   1.828   4.625  0.7258 -0.4241 -1.1207
 2796SOL    MW411257   0.682   1.914   4.609  0.2328 -0.2363 -0.2618
 2797SOL     OW11258   3.794   1.276   4.290 -0.1745 -0.1925 -0.2091
 2797SOL    HW211259   3.881   1.236   4.281 -1.0517 -1.8099 -1.8228
 2797SOL    HW311260   3.784   1.290   4.385  1.9132  0.1927 -0.0265
 2797SOL    MW411261   3.804   1.273   4.302 -0.0145 -0.3551 -0.3982
 2798SOL     OW11262   3.947   0.849   4.571  0.0047  0.0491 -0.2273
 2798SOL    HW211263   3.954   0.753   4.571 -1.4865 -0.1174 -2.7078
 2798SOL    HW311264   3.967   0.874   4.480 -2.4732  1.8392 -0.3191
 2798SOL    MW411265   3.951   0.839   4.559 -0.5193  0.2633 -0.5665
 2799SOL     OW11266   2.209   0.388   4.652 -0.1193 -0.2558 -0.2638
 2799SOL    HW211267   2.286   0.428   4.612  0.3326 -2.3158 -1.5332
 2799SOL    HW311268   2.158   0.462   4.686  1.5628  1.2410 -0.9433
 2799SOL    MW411269   2.212   0.403   4.651  0.1621 -0.3301 -0.5207
 2800SOL     OW11270   3.395   4.635   4.310 -0.5858 -0.2713 -0.0163
 2800SOL    HW211271   3.473   4.690   4.314 -0.0214 -1.0835  0.4490
 2800SOL    HW311272   3.322   4.696   4.305 -0.1479  0.6074  3.0413
 2800SOL    MW411273   3.396   4.650   4.310 -0.4535 -0.2623  0.4487
 2801SOL     OW11274   0.872   3.222   4.247 -0.0195 -0.1174  0.1814
 2801SOL    HW211275   0.938   3.171   4.202 -0.0596 -1.3154  1.4342
 2801SOL    HW311276   0.894   3.214   4.340  0.0414  2.2472  0.4172
 2801SOL    MW411277   0.883   3.215   4.254 -0.0168  0.0362  0.3781
 2802SOL     OW11278   2.703   2.435   4.493  0.7099 -0.0529  0.3132
 2802SOL    HW211279   2.751   2.352   4.500  0.0025 -0.3222  2.2984
 2802SOL    HW311280   2.617   2.417   4.532  0.0290  1.2188 -0.5585
 2802SOL    MW411281   2.698   2.422   4.499  0.5269  0.0794  0.4601
 2803SOL     OW11282   2.475   2.117   4.273 -0.0885 -0.0531 -0.0143
 2803SOL    HW211283   2.558   2.072   4.255  0.8849  0.6842  2.3502
 2803SOL    HW311284   2.409   2.067   4.226  1.4736 -1.7189 -0.4807
 2803SOL    MW411285   2.477   2.105   4.265  0.2460 -0.1755  0.2360
 2804SOL     OW11286   0.042   3.225   4.511  0.1334  0.0764 -0.0120
 2804SOL    HW211287   0.137   3.227   4.521 -0.0652  1.6871  1.8206
 2804SOL    HW311288   0.016   3.138   4.541  0.8232  0.4390  1.7019
 2804SOL    MW411289   0.051   3.214   4.516  0.1982  0.3369  0.4559
 2805SOL     OW11290   2.257   1.690   4.235 -0.0346 -0.4650  0.6915
 2805SOL    HW211291   2.251   1.708   4.329  2.3524 -1.7992  1.1488
 2805SOL    HW311292   2.189   1.625   4.219  0.0388 -0.8089  1.6868
 2805SOL    MW411293   2.247   1.684   4.245  0.2899 -0.6863  0.8836
 2806SOL     OW11294   2.823   1.354   4.889  0.1330 -0.1438  0.1105
 2806SOL    HW211295   2.840   1.327   4.979  0.8644 -0.5861 -0.1567
 2806SOL    HW311296   2.862   1.441   4.882  0.1071 -0.1244  0.2135
 2806SOL    MW411297   2.831   1.362   4.900  0.2255 -0.1996  0.0887
 2807SOL     OW11298   1.996   2.829   4.231  0.1392 -0.0788 -0.1575
 2807SOL    HW211299   2.036   2.858   4.313  0.6611 -0.2327 -0.3559
 2807SOL    HW311300   2.067   2.789   4.182 -0.2647 -0.3728 -0.5096
 2807SOL    MW411301   2.010   2.828   4.235  0.1552 -0.1378 -0.2303
 2808SOL     OW11302   3.928   2.430   4.512 -0.0901  0.6255  0.0760
 2808SOL    HW211303   4.002   2.474   4.556  0.9588 -0.6756 -0.3773
 2808SOL    HW311304   3.950   2.432   4.419 -0.7064  0.3657 -0.0794
 2808SOL    MW411305   3.941   2.436   4.506 -0.0329  0.4196 -0.0043
 2809SOL     OW11306   4.484   0.876   4.203  0.1924 -0.2428  0.0310
 2809SOL    HW211307   4.393   0.845   4.202 -0.0290  0.3015  1.8689
 2809SOL    HW311308   4.476   0.971   4.207  0.8501 -0.2095  0.5737
 2809SOL    MW411309   4.471   0.884   4.203  0.2503 -0.1667  0.3448
 2810SOL     OW11310   3.340   3.826   4.169  0.2376 -0.0371 -0.4552
 2810SOL    HW211311   3.403   3.891   4.202  1.1858 -1.6440  0.9960
 2810SOL    HW311312   3.344   3.835   4.074  2.0744  0.4450 -0.3573
 2810SOL    MW411313   3.349   3.836   4.161  0.6051 -0.1855 -0.2508
 2811SOL     OW11314   4.095   3.222   4.260  0.0950  0.2500  0.0606
 2811SOL    HW211315   4.162   3.170   4.216 -1.2124 -0.5589 -1.0064
 2811SOL    HW311316   4.013   3.194   4.220 -1.0752 -0.0882  2.6414
 2811SOL    MW411317   4.093   3.212   4.249 -0.2322  0.0989  0.2608
 2812SOL     OW11318   2.792   1.691   4.472 -0.2140  0.1915 -0.1741
 2812SOL    HW211319   2.763   1.604   4.499 -0.2724  0.3628  0.3202
 2812SOL    HW311320   2.887   1.684   4.466 -0.1983  0.1613  0.1100
 2812SOL    MW411321   2.801   1.679   4.475 -0.2198  0.2102 -0.0715
 2813SOL     OW11322   1.306   0.215   4.493  0.0233 -0.2223 -0.0018
 2813SOL    HW211323   1.212   0.233   4.499 -0.0851 -0.3350 -1.2589
 2813SOL    HW311324   1.348   0.297   4.520 -0.4325 -0.2402  0.7670
 2813SOL    MW411325   1.299   0.228   4.497 -0.0510 -0.2396 -0.0663
 2814SOL     OW11326   0.023   0.117   4.246 -0.2327 -0.4173  0.4386
 2814SOL    HW211327   0.091   0.052   4.227 -1.1649 -1.4382  0.5076
 2814SOL    HW311328   0.029   0.131   4.340  0.4983  0.2035  0.3025
 2814SOL    MW411329   0.032   0.110   4.256 -0.2592 -0.4701  0.4296
 2815SOL     OW11330   0.714   1.242   4.506  0.0616  0.3819  0.2231
 2815SOL    HW211331   0.632   1.199   4.531 -1.4328  2.3293 -1.1282
 2815SOL    HW311332   0.701   1.267   4.415  2.2464  0.5915 -0.0581
 2815SOL    MW411333   0.701   1.240   4.497  0.1527  0.6665  0.0081
 2816SOL     OW11334   3.586   0.878   4.288  0.7709  0.3794 -0.6214
 2816SOL    HW211335   3.578   0.968   4.258  0.4390  0.3078 -0.7466
 2816SOL    HW311336   3.622   0.886   4.377  2.0988  0.5742 -1.1546
 2816SOL    MW411337   3.590   0.891   4.296  0.9024  0.3957 -0.7086
 2817SOL     OW11338   2.717   1.436   4.529  0.1181 -0.3841 -0.0170
 2817SOL    HW211339   2.644   1.425   4.468  0.1484 -0.4033 -0.0494
 2817SOL    HW311340   2.679   1.420   4.615  0.2404 -1.0778 -0.0954
 2817SOL    MW411341   2.702   1.433   4.532  0.1383 -0.4781 -0.0315
 2818SOL     OW11342   3.603   1.668   4.270 -0.2386  0.2285 -0.2279
 2818SOL    HW211343   3.597   1.760   4.247  0.0828  0.3873  0.3072
 2818SOL    HW311344   3.527   1.627   4.229 -0.6500  0.8199 -0.0497
 2818SOL    MW411345   3.592   1.675   4.262 -0.2506  0.3275 -0.1335
 2819SOL     OW11346   2.436   1.182   4.280 -0.2818 -0.2876  0.5514
 2819SOL    HW211347   2.513   1.161   4.227 -0.7250  0.2875 -0.3199
 2819SOL    HW311348   2.433   1.113   4.346  1.4292  0.1102  1.0691
 2819SOL    MW411349   2.446   1.170   4.282 -0.1147 -0.1593  0.5045
 2820SOL     OW11350   3.364   1.286   4.259  0.1157 -0.0285  0.4480
 2820SOL    HW211351   3.310   1.227   4.205  0.1897  0.0015  0.3401
 2820SOL    HW311352   3.452   1.249   4.253  0.5081  1.1089 -1.0743
 2820SOL    MW411353   3.368   1.273   4.251  0.1771  0.1255  0.2327
 2821SOL     OW11354   2.095   3.463   4.565 -0.0266 -0.7624 -0.2245
 2821SOL    HW211355   2.058   3.501   4.485 -1.0965 -0.1084  0.5755
 2821SOL    HW311356   2.174   3.515   4.581 -0.3894 -0.1885 -0.2632
 2821SOL    MW411357   2.100   3.475   4.557 -0.2158 -0.6003 -0.1240
 2822SOL     OW11358   2.198   4.507   4.593  0.1302  0.0416  0.3125
 2822SOL    HW211359   2.141   4.582   4.613 -1.1836 -0.9750  0.4765
 2822SOL    HW311360   2.174   4.483   4.503  1.5004  0.6440 -0.2186
 2822SOL    MW411361   2.187   4.514   4.584  0.1376 -0.0129  0.2646
 2823SOL     OW11362   2.910   0.736   4.124 -0.0207  0.0289 -0.2182
 2823SOL    HW211363   2.830   0.780   4.152 -1.1761 -1.0632 -1.6818
 2823SOL    HW311364   2.899   0.726   4.029  1.8439 -0.1410 -0.4205
 2823SOL    MW411365   2.898   0.740   4.115  0.0730 -0.1376 -0.4377
 2824SOL     OW11366   2.014   1.035   4.568 -0.6141 -0.1129 -0.0563
 2824SOL    HW211367   2.065   1.031   4.648  1.0467  0.0875 -1.0881
 2824SOL    HW311368   2.030   1.123   4.533 -1.0135 -0.3269 -0.8063
 2824SOL    MW411369   2.023   1.046   4.574 -0.4475 -0.1147 -0.2913
 2825SOL     OW11370   0.031   4.520   4.652 -0.1874  0.3311 -0.2340
 2825SOL    HW211371   0.047   4.606   4.613  1.2547  0.7085  1.1393
 2825SOL    HW311372  -0.020   4.539   4.731  1.4953  0.0854  0.9233
 2825SOL    MW411373   0.026   4.534   4.657  0.2248  0.3486  0.0997
 2826SOL     OW11374   4.282   3.057   4.156 -0.3886  0.2200 -0.3928
 2826SOL    HW211375   4.358   3.114   4.168 -0.0360 -0.2895 -0.1953
 2826SOL    HW311376   4.268   3.056   4.061 -0.0481  0.1833 -0.4438
 2826SOL    MW411377   4.290   3.064   4.145 -0.2971  0.1478 -0.3734
 2827SOL     OW11378   1.985   0.427   4.487 -0.3513  0.2556 -0.3354
 2827SOL    HW211379   1.957   0.501   4.541 -1.7070  0.0131 -0.6849
 2827SOL    HW311380   2.062   0.393   4.531 -1.5333 -0.0406  1.5457
 2827SOL    MW411381   1.991   0.432   4.500 -0.6862  0.1845 -0.1335
 2828SOL     OW11382   4.104   3.167   4.540  0.2879 -0.0493 -0.1086
 2828SOL    HW211383   4.095   3.195   4.448 -0.2664  0.8720  0.2175
 2828SOL    HW311384   4.026   3.203   4.583  0.1106 -1.2073  0.5468
 2828SOL    MW411385   4.092   3.176   4.533  0.1917 -0.0806  0.0205
 2829SOL     OW11386   2.999   1.234   4.707  0.2774  0.2604 -0.1422
 2829SOL    HW211387   3.054   1.309   4.688 -0.7636  1.2657  0.7416
 2829SOL    HW311388   2.933   1.267   4.768 -1.2689 -0.9172 -1.1237
 2829SOL    MW411389   2.997   1.248   4.713 -0.0639  0.2376 -0.1550
 2830SOL     OW11390   3.149   3.428   4.139  0.1620 -0.1386 -0.4729
 2830SOL    HW211391   3.162   3.334   4.150  0.0621 -0.0350  0.5768
 2830SOL    HW311392   3.230   3.467   4.171  1.0304  0.0460 -2.8041
 2830SOL    MW411393   3.161   3.421   4.145  0.2630 -0.1004 -0.6423
 2831SOL     OW11394   2.182   4.444   4.302  0.1010 -0.1996  0.3124
 2831SOL    HW211395   2.149   4.507   4.238  0.8289  0.3764  0.4915
 2831SOL    HW311396   2.107   4.387   4.321  0.2796 -1.3131 -2.1656
 2831SOL    MW411397   2.168   4.445   4.296  0.2205 -0.2704  0.0091
 2832SOL     OW11398   1.434   1.751   4.449 -0.2213 -0.1471  0.1373
 2832SOL    HW211399   1.507   1.808   4.470  0.2246 -0.6627  0.0008
 2832SOL    HW311400   1.388   1.739   4.533  0.6327 -0.9064  0.5105
 2832SOL    MW411401   1.437   1.757   4.463 -0.0498 -0.3153  0.1683
 2833SOL     OW11402   2.575   1.395   4.774  0.0116  0.2822 -0.4771
 2833SOL    HW211403   2.647   1.375   4.835 -0.7635 -0.9153  0.0692
 2833SOL    HW311404   2.559   1.488   4.786  1.4613  0.5467 -0.5780
 2833SOL    MW411405   2.582   1.404   4.784  0.1004  0.1591 -0.4182
 2834SOL     OW11406   3.145   1.952   4.125 -0.0809  0.5106  0.2825
 2834SOL    HW211407   3.147   1.862   4.157  2.3844  0.9888  1.6001
 2834SOL    HW311408   3.059   1.985   4.151 -0.7475 -1.2516  0.3733
 2834SOL    MW411409   3.134   1.944   4.133  0.1562  0.3413  0.4687
 2835SOL     OW11410   1.367   2.124   4.604  0.0162  0.0726  0.2948
 2835SOL    HW211411   1.290   2.177   4.624  0.5712  1.8213 -1.9322
 2835SOL    HW311412   1.441   2.173   4.641  0.2010 -0.9036  1.2348
 2835SOL    MW411413   1.367   2.138   4.611  0.1137  0.1748  0.1249
 2836SOL     OW11414   2.798   0.070   4.173 -0.0798 -0.4317  0.3522
 2836SOL    HW211415   2.793   0.165   4.183 -0.1914 -0.2752 -1.0287
 2836SOL    HW311416   2.854   0.041   4.245  0.3484  0.7292  0.4970
 2836SOL    MW411417   2.805   0.079   4.184 -0.0379 -0.2578  0.1893
 2837SOL     OW11418   3.840   2.071   4.286 -0.4025  0.3319 -0.2988
 2837SOL    HW211419   3.864   2.063   4.378 -0.1609 -0.6263 -0.4374
 2837SOL    HW311420   3.757   2.024   4.279  0.7802 -1.7467 -1.0300
 2837SOL    MW411421   3.832   2.064   4.297 -0.2146 -0.0689 -0.4134
 2838SOL     OW11422   3.350   4.482   4.098 -0.2137  0.0962  0.2889
 2838SOL    HW211423   3.413   4.411   4.105 -1.9365 -1.3634  1.4516
 2838SOL    HW311424   3.370   4.539   4.172  0.1370 -0.0491  0.3052
 2838SOL    MW411425   3.361   4.480   4.109 -0.3948 -0.1159  0.4439
 2839SOL     OW11426   2.199   0.805   4.215 -0.4559 -0.0927 -0.2629
 2839SOL    HW211427   2.209   0.791   4.309  0.9592 -0.1537 -0.4005
 2839SOL    HW311428   2.111   0.773   4.194 -0.6044 -0.4958  0.9565
 2839SOL    MW411429   2.189   0.799   4.225 -0.2887 -0.1540 -0.1202
 2840SOL     OW11430   3.864   2.316   4.887  0.1358  0.1731 -0.0874
 2840SOL    HW211431   3.918   2.370   4.830 -0.5095 -0.1755 -1.0538
 2840SOL    HW311432   3.788   2.371   4.908  0.9546  0.7393  1.4387
 2840SOL    MW411433   3.861   2.330   4.882  0.1588  0.2017 -0.0138
 2841SOL     OW11434   2.308   4.258   4.661 -0.0629 -0.0327  0.2215
 2841SOL    HW211435   2.253   4.336   4.650  0.4985  0.2879 -0.3522
 2841SOL    HW311436   2.248   4.184   4.658 -0.6660  0.4100  1.2700
 2841SOL    MW411437   2.293   4.259   4.659 -0.0684  0.0677  0.2842
 2842SOL     OW11438   1.332   3.133   4.180 -0.4288 -0.4649  0.9880
 2842SOL    HW211439   1.320   3.227   4.176  1.0872 -0.2861  0.3820
 2842SOL    HW311440   1.316   3.110   4.271 -0.2838  0.4568  1.2433
 2842SOL    MW411441   1.328   3.142   4.191 -0.2096 -0.3197  0.9422
 2843SOL     OW11442   4.257   1.300   4.571  0.3001  0.0108  0.0333
 2843SOL    HW211443   4.340   1.346   4.555 -0.9887  1.3655 -3.0554
 2843SOL    HW311444   4.223   1.281   4.484 -1.3016 -3.0761  1.2708
 2843SOL    MW411445   4.264   1.304   4.557 -0.0811 -0.2176 -0.2108
 2844SOL     OW11446   3.856   3.120   4.138 -0.0569 -0.0156  0.2384
 2844SOL    HW211447   3.774   3.136   4.185 -0.5427  1.5642 -1.1062
 2844SOL    HW311448   3.832   3.119   4.046  1.4059  0.3553 -0.1700
 2844SOL    MW411449   3.842   3.122   4.132  0.0722  0.2420  0.0072
 2845SOL     OW11450   0.959   4.066   4.548  0.0988  0.3113 -0.0341
 2845SOL    HW211451   0.934   3.992   4.603  0.0469 -0.5260 -1.1719
 2845SOL    HW311452   0.933   4.040   4.460  3.2754  0.1872 -0.9891
 2845SOL    MW411453   0.952   4.053   4.544  0.5111  0.1845 -0.3104
 2846SOL     OW11454   4.366   2.502   4.848 -0.2262 -0.3219  0.2103
 2846SOL    HW211455   4.350   2.577   4.791  1.2314  2.0378  2.7397
 2846SOL    HW311456   4.431   2.449   4.802  0.3389  1.1333 -0.6837
 2846SOL    MW411457   4.373   2.505   4.835  0.0405  0.1812  0.4258
 2847SOL     OW11458   4.281   0.495   4.300  0.3279 -0.0737  0.5215
 2847SOL    HW211459   4.358   0.456   4.260  0.0897 -0.7897  0.7418
 2847SOL    HW311460   4.315   0.555   4.366  0.7176  0.8356 -0.4964
 2847SOL    MW411461   4.295   0.497   4.303  0.3481 -0.0482  0.4158
 2848SOL     OW11462   1.592   2.291   4.650  0.7165 -0.0815 -0.0142
 2848SOL    HW211463   1.663   2.287   4.587  1.3127  1.0653  0.5627
 2848SOL    HW311464   1.549   2.374   4.633  0.8023  0.1774  0.9969
 2848SOL    MW411465   1.595   2.301   4.640  0.8066  0.1035  0.1950
 2849SOL     OW11466   3.267   2.952   4.734 -0.1810 -0.3513  0.5570
 2849SOL    HW211467   3.291   2.936   4.643 -1.6630 -2.2246  0.4777
 2849SOL    HW311468   3.351   2.953   4.781  0.5720  0.3165 -0.7534
 2849SOL    MW411469   3.281   2.950   4.728 -0.2770 -0.5107  0.3738
 2850SOL     OW11470   0.931   1.033   4.837  0.1220 -0.7988  0.0791
 2850SOL    HW211471   0.936   1.127   4.854  1.1094 -0.8711  0.2184
 2850SOL    HW311472   0.844   1.020   4.801 -0.2713  0.0699  0.7006
 2850SOL    MW411473   0.921   1.044   4.834  0.2004 -0.6938  0.1793
 2851SOL     OW11474   0.952   1.316   4.841  0.3183 -0.0250 -0.0789
 2851SOL    HW211475   1.023   1.379   4.831  0.0335  0.1846 -0.7723
 2851SOL    HW311476   0.879   1.354   4.792  0.0117 -0.6844 -0.1350
 2851SOL    MW411477   0.952   1.329   4.834  0.2403 -0.0844 -0.1779
 2852SOL     OW11478   3.772   2.076   4.754 -0.3884 -0.0677  0.0346
 2852SOL    HW211479   3.807   2.128   4.827 -1.2409  0.4599  0.0717
 2852SOL    HW311480   3.693   2.123   4.726  0.6079  0.4134 -2.0551
 2852SOL    MW411481   3.766   2.089   4.760 -0.3693  0.0656 -0.2360
 2853SOL     OW11482   0.862   0.913   4.526 -0.2343  0.0354 -0.0899
 2853SOL    HW211483   0.795   0.959   4.577  0.5812  0.7010  0.4025
 2853SOL    HW311484   0.943   0.958   4.547  0.4444 -1.0412 -0.3401
 2853SOL    MW411485   0.864   0.925   4.535 -0.0371 -0.0188 -0.0582
 2854SOL     OW11486   3.980   0.029   4.674  0.3179 -0.3207 -0.3907
 2854SOL    HW211487   3.893   0.066   4.660  0.6466  0.0853 -1.4769
 2854SOL    HW311488   3.972  -0.063   4.649  0.1810 -0.3037 -0.4094
 2854SOL    MW411489   3.968   0.022   4.669  0.3433 -0.2649 -0.5369
 2855SOL     OW11490   0.221   4.628   4.176 -0.0285 -0.0152  0.0658
 2855SOL    HW211491   0.225   4.534   4.189  0.2744 -0.3422 -2.1455
 2855SOL    HW311492   0.306   4.661   4.203  0.1418 -0.4853  0.0909
 2855SOL    MW411493   0.232   4.620   4.181  0.0340 -0.1206 -0.2227
 2856SOL     OW11494   3.404   3.027   4.118 -0.3802 -0.0682  0.1639
 2856SOL    HW211495   3.413   3.056   4.028  0.8219  0.7259  0.5171
 2856SOL    HW311496   3.462   3.085   4.168 -1.7780  0.1618  1.5850
 2856SOL    MW411497   3.413   3.039   4.113 -0.4060  0.0668  0.3982
 2857SOL     OW11498   2.468   2.361   4.613 -0.2259 -0.5361  0.0649
 2857SOL    HW211499   2.460   2.349   4.708  0.9908 -1.6487  0.0433
 2857SOL    HW311500   2.425   2.283   4.577  0.0264 -0.5161 -0.2730
 2857SOL    MW411501   2.461   2.349   4.621 -0.0324 -0.6804  0.0167
 2858SOL     OW11502   2.340   2.131   4.514 -0.0771 -0.1964  0.0300
 2858SOL    HW211503   2.394   2.133   4.435 -0.4861 -1.2446 -0.2862
 2858SOL    HW311504   2.251   2.146   4.481 -0.0557  1.0107  0.4888
 2858SOL    MW411505   2.335   2.134   4.499 -0.1280 -0.1755  0.0486
 2859SOL     OW11506   0.011   2.949   4.562  0.0982  0.0260 -0.0492
 2859SOL    HW211507  -0.026   2.862   4.546 -0.2421  0.0369  0.6859
 2859SOL    HW311508   0.093   2.933   4.609 -0.2139  0.1228  0.5353
 2859SOL    MW411509   0.017   2.935   4.566  0.0124  0.0403  0.1245
 2860SOL     OW11510   0.694   4.170   4.531 -0.1100  0.2912 -0.0506
 2860SOL    HW211511   0.686   4.265   4.534  2.3933  0.5244  0.3728
 2860SOL    HW311512   0.786   4.154   4.509 -0.6178 -2.0314 -0.6591
 2860SOL    MW411513   0.705   4.180   4.529  0.1533  0.0157 -0.0749
 2861SOL     OW11514   1.133   3.732   4.486 -0.2979 -0.0202  0.2281
 2861SOL    HW211515   1.051   3.765   4.522  0.5709  0.0805  2.2357
 2861SOL    HW311516   1.197   3.801   4.505  0.9571 -1.6076  1.9529
 2861SOL    MW411517   1.131   3.745   4.493 -0.0178 -0.2165  0.7205
 2862SOL     OW11518   1.202   0.491   4.262 -0.4202  0.1645  0.3760
 2862SOL    HW211519   1.263   0.420   4.244  0.7376  0.6356  2.2758
 2862SOL    HW311520   1.116   0.453   4.244  0.2365 -1.4186  0.4585
 2862SOL    MW411521   1.199   0.477   4.257 -0.1807  0.0178  0.6380
 2863SOL     OW11522   1.620   0.442   4.342  0.2039  0.6055 -0.2546
 2863SOL    HW211523   1.663   0.527   4.335 -0.0003  0.7200 -0.1402
 2863SOL    HW311524   1.660   0.402   4.419 -0.0944  0.8299  0.0191
 2863SOL    MW411525   1.631   0.448   4.351  0.1376  0.6502 -0.2036
 2864SOL     OW11526   0.909   0.118   4.261  0.0377  0.3014 -0.3912
 2864SOL    HW211527   0.909   0.127   4.357 -1.3960  1.3622 -0.4771
 2864SOL    HW311528   0.995   0.081   4.241  1.1151  1.8883  1.1328
 2864SOL    MW411529   0.920   0.114   4.271 -0.0093  0.6507 -0.2012
 2865SOL     OW11530   3.587   1.134   4.193  0.4350  0.4808  0.2079
 2865SOL    HW211531   3.656   1.198   4.204 -0.4200  1.5601 -0.6377
 2865SOL    HW311532   3.583   1.118   4.099  0.0907 -0.1998  0.3327
 2865SOL    MW411533   3.595   1.140   4.182  0.2768  0.5335  0.1125
 2866SOL     OW11534   3.313   0.396   4.815  0.1893 -0.1232 -0.0422
 2866SOL    HW211535   3.218   0.383   4.806  0.0898  0.5676  0.0242
 2866SOL    HW311536   3.350   0.309   4.800 -0.4115 -0.2754 -0.6566
 2866SOL    MW411537   3.305   0.383   4.812  0.0970 -0.0521 -0.1149
 2867SOL     OW11538   3.444   4.498   4.563  0.2703 -0.1243 -0.1875
 2867SOL    HW211539   3.408   4.530   4.479  1.1370 -0.9047 -0.8664
 2867SOL    HW311540   3.371   4.449   4.602 -0.2443  0.5177 -0.3371
 2867SOL    MW411541   3.429   4.496   4.557  0.3169 -0.1421 -0.2971
 2868SOL     OW11542   4.128   2.458   4.707 -0.3366  0.0230 -0.1702
 2868SOL    HW211543   4.182   2.470   4.785  0.8565  0.5130 -1.0558
 2868SOL    HW311544   4.190   2.432   4.638 -1.4958 -1.2907 -0.7497
 2868SOL    MW411545   4.143   2.456   4.708 -0.3319 -0.0858 -0.3638
 2869SOL     OW11546   0.010   0.375   4.163 -0.1514 -0.5576 -0.1537
 2869SOL    HW211547  -0.012   0.377   4.070 -0.4407 -0.7113 -0.0882
 2869SOL    HW311548   0.018   0.282   4.184  1.4867 -0.4808 -0.3970
 2869SOL    MW411549   0.008   0.363   4.154  0.0266 -0.5677 -0.1769
 2870SOL     OW11550   0.840   2.665   4.236 -0.2043 -0.1214  0.2105
 2870SOL    HW211551   0.773   2.732   4.224 -1.5677 -1.5834 -0.4837
 2870SOL    HW311552   0.919   2.702   4.196 -1.4338  0.2881 -1.9090
 2870SOL    MW411553   0.841   2.678   4.229 -0.5464 -0.2601 -0.1607
 2871SOL     OW11554   3.389   2.298   4.108  0.0287 -0.1719 -0.4599
 2871SOL    HW211555   3.399   2.302   4.013  0.3806 -0.4914 -0.4369
 2871SOL    HW311556   3.460   2.352   4.142 -1.0225  1.2039 -0.4157
 2871SOL    MW411557   3.400   2.305   4.100 -0.0637 -0.0327 -0.4511
 2872SOL     OW11558   0.754   2.409   4.150  0.2562 -0.1272 -0.4528
 2872SOL    HW211559   0.837   2.367   4.173  0.6229  0.4040 -0.7849
 2872SOL    HW311560   0.764   2.499   4.181 -0.6871 -0.3886  0.6301
 2872SOL    MW411561   0.767   2.415   4.157  0.1801 -0.0918 -0.3538
 2873SOL     OW11562   3.149   2.713   4.137  0.0810  0.0139 -0.1338
 2873SOL    HW211563   3.073   2.735   4.190 -0.8897  0.0460 -1.4982
 2873SOL    HW311564   3.150   2.617   4.135  0.4708  0.0045  0.4278
 2873SOL    MW411565   3.140   2.703   4.144  0.0043  0.0172 -0.2398
 2874SOL     OW11566   3.584   2.469   4.227 -0.3290 -0.1655  0.6408
 2874SOL    HW211567   3.644   2.403   4.192 -0.2664 -0.4791  1.3433
 2874SOL    HW311568   3.618   2.553   4.194  0.2672 -0.3767  0.7136
 2874SOL    MW411569   3.596   2.472   4.218 -0.2420 -0.2346  0.7429
 2875SOL     OW11570   2.952   2.473   4.853 -0.6423 -0.5216  0.3373
 2875SOL    HW211571   2.923   2.523   4.777  0.3882 -1.6404 -0.8143
 2875SOL    HW311572   3.028   2.520   4.886 -1.7392  0.5604  1.3293
 2875SOL    MW411573   2.958   2.486   4.847 -0.6511 -0.5264  0.3166
 2876SOL     OW11574   1.356   2.708   4.159  0.3580 -0.1327 -0.1676
 2876SOL    HW211575   1.425   2.761   4.200  0.7137  0.9335 -2.1017
 2876SOL    HW311576   1.395   2.621   4.152 -0.2954 -0.7719  3.2048
 2876SOL    MW411577   1.370   2.704   4.164  0.3188 -0.0765  0.0224
 2877SOL     OW11578   0.074   2.389   4.663 -0.5135  0.3531 -0.2582
 2877SOL    HW211579   0.128   2.467   4.646 -1.5608  1.2064  0.3160
 2877SOL    HW311580   0.138   2.320   4.683  0.4912  0.7322 -2.0140
 2877SOL    MW411581   0.090   2.390   4.663 -0.5191  0.5157 -0.4139
 2878SOL     OW11582   4.430   3.787   4.597  0.3072  0.0884 -0.1190
 2878SOL    HW211583   4.437   3.878   4.570 -0.5349  0.1181 -0.2438
 2878SOL    HW311584   4.384   3.790   4.681 -0.3563 -0.2630 -0.4617
 2878SOL    MW411585   4.425   3.799   4.604  0.1082  0.0458 -0.1807
 2879SOL     OW11586   2.361   1.233   4.693 -0.5396  0.7068  0.0964
 2879SOL    HW211587   2.332   1.306   4.638  0.1197  0.6474 -0.3434
 2879SOL    HW311588   2.440   1.266   4.737  0.3220 -0.0536 -0.8453
 2879SOL    MW411589   2.368   1.247   4.692 -0.3390  0.5987 -0.0858
 2880SOL     OW11590   1.807   4.196   4.183 -0.0117 -0.2980 -0.1406
 2880SOL    HW211591   1.833   4.228   4.096  0.2004 -0.3392 -0.0922
 2880SOL    HW311592   1.731   4.249   4.206  0.0000 -0.2090 -0.3014
 2880SOL    MW411593   1.800   4.207   4.174  0.0178 -0.2918 -0.1554
 2881SOL     OW11594   4.053   2.708   4.125 -0.0635  0.2863 -0.7302
 2881SOL    HW211595   3.985   2.764   4.163  1.0800  0.2949  1.4081
 2881SOL    HW311596   4.033   2.621   4.160  0.3462  0.0722 -1.0375
 2881SOL    MW411597   4.041   2.704   4.135  0.1421  0.2592 -0.4888
 2882SOL     OW11598   2.095   0.109   4.607  0.1392  0.2448  0.1862
 2882SOL    HW211599   2.173   0.111   4.551  0.1504  0.2784  0.2029
 2882SOL    HW311600   2.104   0.186   4.663  0.7135 -0.4194  1.0285
 2882SOL    MW411601   2.107   0.119   4.607  0.2162  0.1616  0.2995
 2883SOL     OW11602   3.550   4.001   4.236  0.2235 -0.1844 -0.0022
 2883SOL    HW211603   3.634   3.961   4.213 -0.5296 -2.0512  0.3902
 2883SOL    HW311604   3.543   3.989   4.331 -0.5380 -0.1396 -0.0490
 2883SOL    MW411605   3.561   3.994   4.246  0.0238 -0.4244  0.0434
 2884SOL     OW11606   4.252   3.610   4.241  0.0731  0.7940 -0.0752
 2884SOL    HW211607   4.240   3.604   4.336  0.2447  0.4391 -0.0759
 2884SOL    HW311608   4.180   3.557   4.205 -0.2412  1.2739 -0.1528
 2884SOL    MW411609   4.241   3.602   4.249  0.0548  0.8101 -0.0854
 2885SOL     OW11610   1.787   0.858   4.552  0.0056 -0.2221 -0.1425
 2885SOL    HW211611   1.860   0.917   4.567 -0.1663  0.0353 -0.3165
 2885SOL    HW311612   1.709   0.910   4.572 -0.1725 -0.2263 -0.8062
 2885SOL    MW411613   1.786   0.872   4.557 -0.0405 -0.1886 -0.2527
 2886SOL     OW11614   4.031   3.463   4.152 -0.0034 -0.3153 -0.2774
 2886SOL    HW211615   4.048   3.378   4.192 -0.1779 -0.2369 -0.0365
 2886SOL    HW311616   4.023   3.445   4.059  0.2800 -0.5173 -0.2641
 2886SOL    MW411617   4.032   3.449   4.145  0.0105 -0.3316 -0.2441
 2887NA      NA11618   0.105   0.868   0.655  0.1691 -0.0277 -0.1412
 2888NA      NA11619   1.911   3.617   0.497 -0.0440 -0.1114 -0.3356
   4.49070   4.66690  10.00000
