Great Red Oystrich Makes All Chemists Sane
   99
    1U      O5'    1   1.760   1.925   5.025
    1U      H5T    2   1.772   1.833   5.063
    1U      C5'    3   1.681   2.003   5.115
    1U     H5'1    4   1.729   2.005   5.203
    1U     H5'2    5   1.594   1.956   5.126
    1U      C4'    6   1.658   2.145   5.064
    1U      H4'    7   1.584   2.181   5.121
    1U      O4'    8   1.777   2.226   5.079
    1U      C1'    9   1.779   2.322   4.971
    1U      H1'   10   1.786   2.415   5.008
    1U       N1   11   1.901   2.307   4.891
    1U       C6   12   1.982   2.195   4.901
    1U       H6   13   1.957   2.123   4.965
    1U       C5   14   2.092   2.181   4.828
    1U       H5   15   2.149   2.099   4.837
    1U       C4   16   2.129   2.287   4.734
    1U       O4   17   2.228   2.277   4.662
    1U       N3   18   2.046   2.395   4.731
    1U       H3   19   2.071   2.470   4.670
    1U       C2   20   1.931   2.411   4.804
    1U       O2   21   1.861   2.510   4.789
    1U      C3'   22   1.622   2.154   4.917
    1U      H3'   23   1.668   2.089   4.857
    1U      C2'   24   1.649   2.301   4.890
    1U     H2'1   25   1.651   2.329   4.794
    1U      O2'   26   1.542   2.381   4.941
    1U     HO'2   27   1.460   2.365   4.887
    1U      O3'   28   1.487   2.119   4.892
    2RG3      P   29   1.460   1.998   4.792
    2RG3    O1P   30   1.508   2.038   4.648
    2RG3    O2P   31   1.304   1.975   4.790
    2RG3    O5'   32   1.537   1.870   4.847
    2RG3    C5'   33   1.539   1.749   4.772
    2RG3   H5'1   34   1.593   1.683   4.824
    2RG3   H5'2   35   1.585   1.769   4.686
    2RG3    C4'   36   1.400   1.693   4.745
    2RG3    H4'   37   1.353   1.756   4.684
    2RG3    O4'   38   1.413   1.565   4.680
    2RG3    C1'   39   1.328   1.471   4.749
    2RG3    H1'   40   1.238   1.466   4.705
    2RG3     N9   41   1.371   1.333   4.733
    2RG3     C8   42   1.505   1.304   4.781
    2RG3     H8   43   1.554   1.354   4.853
    2RG3     N7   44   1.557   1.188   4.706
    2RG3     C5   45   1.446   1.156   4.615
    2RG3     C6   46   1.474   1.105   4.473
    2RG3     O6   47   1.498   0.965   4.475
    2RG3     N1   48   1.363   1.131   4.382
    2RG3     H1   49   1.372   1.134   4.282
    2RG3     C2   50   1.240   1.152   4.453
    2RG3     N2   51   1.143   1.184   4.354
    2RG3    H21   52   1.169   1.188   4.258
    2RG3    H22   53   1.049   1.203   4.381
    2RG3     N3   54   1.244   1.271   4.533
    2RG3     C4   55   1.375   1.289   4.595
    2RG3    C3'   56   1.317   1.672   4.873
    2RG3    H3'   57   1.345   1.727   4.952
    2RG3    C2'   58   1.325   1.522   4.895
    2RG3   H2'1   59   1.399   1.488   4.954
    2RG3    O2'   60   1.216   1.475   4.972
    2RG3   HO'2   61   1.222   1.513   5.064
    2RG3    O3'   62   1.180   1.710   4.849
    2RG3    H3T   63   1.126   1.696   4.932
    3RG35     P   64   1.113   1.614   5.120
    3RG35   O1P   65   1.195   1.702   5.034
    3RG35   O2P   66   1.094   1.666   5.254
    3RG35   O5'   67   0.968   1.610   5.064
    3RG35   C5'   68   0.924   1.541   4.947
    3RG35  H5'1   69   0.963   1.449   4.952
    3RG35  H5'2   70   0.964   1.590   4.869
    3RG35   C4'   71   0.766   1.534   4.934
    3RG35   H4'   72   0.748   1.479   4.852
    3RG35   O4'   73   0.711   1.474   5.052
    3RG35   C1'   74   0.567   1.496   5.046
    3RG35   H1'   75   0.517   1.421   5.002
    3RG35    N9   76   0.517   1.505   5.188
    3RG35    C8   77   0.541   1.607   5.280
    3RG35    H8   78   0.586   1.693   5.257
    3RG35    N7   79   0.498   1.576   5.399
    3RG35    C5   80   0.439   1.454   5.383
    3RG35    C6   81   0.376   1.369   5.482
    3RG35    O6   82   0.364   1.382   5.601
    3RG35    N1   83   0.311   1.260   5.423
    3RG35    H1   84   0.246   1.209   5.479
    3RG35    C2   85   0.330   1.219   5.297
    3RG35    N2   86   0.293   1.096   5.262
    3RG35   H21   87   0.251   1.035   5.330
    3RG35   H22   88   0.307   1.064   5.168
    3RG35    N3   89   0.398   1.289   5.207
    3RG35    C4   90   0.434   1.414   5.252
    3RG35   C3'   91   0.690   1.669   4.926
    3RG35   H3'   92   0.728   1.746   4.978
    3RG35   C2'   93   0.548   1.622   4.964
    3RG35  H2'1   94   0.494   1.691   5.011
    3RG35   O2'   95   0.474   1.590   4.845
    3RG35  HO'2   96   0.461   1.673   4.790
    3RG35   O3'   97   0.698   1.733   4.801
    3RG35   H3T   98   0.647   1.819   4.804
    3RG35   O3P   99   1.150   1.472   5.123
   4.49070   4.66690  10.00000
