Great Red Oystrich Makes All Chemists Sane in water
11622
    1U      O5'    1   2.290   2.449   4.286 -0.6224  0.2666 -0.2344
    1U      H5T    2   2.344   2.438   4.207 -1.8921 -1.7456 -0.7678
    1U      C5'    3   2.366   2.503   4.392  0.2815 -0.1315 -0.6072
    1U     H5'1    4   2.441   2.429   4.418  0.9251  0.6648 -0.1616
    1U     H5'2    5   2.302   2.510   4.480 -0.4832 -1.0634 -1.1232
    1U      C4'    6   2.430   2.640   4.348  0.0796 -0.1597  0.1722
    1U      H4'    7   2.390   2.671   4.252 -0.8533  0.2584  0.6677
    1U      O4'    8   2.413   2.748   4.444  0.1558  0.3921 -0.2403
    1U      C1'    9   2.519   2.838   4.425 -0.2781 -0.2095 -0.4547
    1U      H1'   10   2.477   2.917   4.363 -0.0030 -1.0978 -1.7894
    1U       N1   11   2.569   2.906   4.551  0.2846 -0.7635 -0.1875
    1U       C6   12   2.600   2.839   4.669  0.6123 -0.1922  0.1022
    1U       H6   13   2.580   2.733   4.679  2.1235 -0.5163 -0.4799
    1U       C5   14   2.634   2.911   4.781  0.3012 -0.1054  0.1732
    1U       H5   15   2.643   2.859   4.875  0.0851  1.0905  0.8355
    1U       C4   16   2.647   3.054   4.784 -0.0890 -0.2617  0.1414
    1U       O4   17   2.667   3.124   4.881  0.1157 -0.0224 -0.2426
    1U       N3   18   2.615   3.111   4.662 -0.5475 -0.6845 -0.3050
    1U       H3   19   2.613   3.212   4.661 -0.4616 -0.6830  0.8034
    1U       C2   20   2.573   3.048   4.545  0.2519 -0.7808 -0.4308
    1U       O2   21   2.526   3.111   4.448  0.1918 -1.0799 -0.7668
    1U      C3'   22   2.585   2.632   4.348 -0.3223  0.5011 -0.2830
    1U      H3'   23   2.612   2.595   4.447  1.3129  0.1354 -0.8606
    1U      C2'   24   2.631   2.775   4.340 -0.4110  0.4928 -0.2381
    1U     H2'1   25   2.723   2.778   4.398 -1.5335  0.4534  1.5823
    1U      O2'   26   2.644   2.809   4.203  0.1138  0.7687 -0.6812
    1U     HO'2   27   2.688   2.732   4.167 -0.5091  0.2312 -0.3872
    1U      O3'   28   2.666   2.552   4.265  0.2692  0.8433 -0.1988
    2RG3      P   29   2.622   2.513   4.124  0.2403  1.2644  0.0853
    2RG3    O1P   30   2.751   2.501   4.055  0.8567  0.6337 -0.6206
    2RG3    O2P   31   2.492   2.574   4.075  0.2628  1.6859  0.3344
    2RG3    O5'   32   2.583   2.373   4.194 -0.2600 -0.1274  0.3950
    2RG3    C5'   33   2.627   2.250   4.123  1.1265 -0.3765 -0.0911
    2RG3   H5'1   34   2.590   2.273   4.023  2.7161 -2.9752 -1.3228
    2RG3   H5'2   35   2.734   2.249   4.102 -0.7778  4.1641-10.6115
    2RG3    C4'   36   2.546   2.107   4.110 -0.6348 -0.5106 -0.1819
    2RG3    H4'   37   2.497   2.124   4.014 -1.7290  0.9933  0.5778
    2RG3    O4'   38   2.640   2.003   4.144  1.4191 -0.1739 -0.1127
    2RG3    C1'   39   2.603   1.923   4.244 -1.9099  0.0172 -0.4147
    2RG3    H1'   40   2.549   1.850   4.184  1.2845 -3.5827  1.0656
    2RG3     N9   41   2.696   1.895   4.335 -0.4992  1.0162 -1.0035
    2RG3     C8   42   2.774   1.982   4.436  2.9355 -0.2324  2.3555
    2RG3     H8   43   2.797   2.083   4.406-11.7863 -0.3056 -9.3081
    2RG3     N7   44   2.860   1.915   4.497 -2.2005 -0.6446 -1.7029
    2RG3     C5   45   2.822   1.785   4.451  2.1790  1.3265  0.5295
    2RG3     C6   46   2.856   1.643   4.517  2.5150 -2.2388 -0.6606
    2RG3     O6   47   2.929   1.617   4.609  0.2432 -0.3937  0.0597
    2RG3     N1   48   2.825   1.532   4.457 -1.4413  1.5720  0.2905
    2RG3     H1   49   2.911   1.478   4.454 -2.8224 -0.2534 -8.6444
    2RG3     C2   50   2.730   1.545   4.366 -0.6814 -0.9489  0.2398
    2RG3     N2   51   2.739   1.466   4.271  6.6103 -0.4508  3.9688
    2RG3    H21   52   2.763   1.561   4.246 -7.3652  1.5769 -1.3992
    2RG3    H22   53   2.786   1.490   4.185-62.0698 10.4862-30.6964
    2RG3     N3   54   2.725   1.654   4.276 -0.3367 -0.7428  0.3575
    2RG3     C4   55   2.725   1.767   4.361 -0.6430 -0.2962  1.0834
    2RG3    C3'   56   2.418   2.064   4.216  1.6116 -0.5661  0.8700
    2RG3    H3'   57   2.342   2.118   4.274  2.4116  2.0019 -0.4998
    2RG3    C2'   58   2.491   1.981   4.325  0.1691  1.7099  0.0564
    2RG3   H2'1   59   2.478   2.050   4.407 -2.7865  9.0201 -6.5675
    2RG3    O2'   60   2.377   1.933   4.414  0.4007 -1.1620  0.0909
    2RG3   HO'2   61   2.301   1.879   4.391 -2.9053 -0.0826  8.2853
    2RG3    O3'   62   2.330   1.991   4.105 -1.3039 -0.5925 -1.5104
    2RG3    H3T   63   2.328   2.063   4.041  4.6528  4.8146  4.4162
    3RG35     P   64   1.041   1.989   6.389  0.0874  0.0192 -0.2082
    3RG35   O1P   65   0.935   1.966   6.290  0.1646  0.0397 -0.2132
    3RG35   O2P   66   1.129   2.105   6.361  0.0991  0.0413 -0.1637
    3RG35   O5'   67   0.957   2.035   6.521  0.0588 -0.0036 -0.1726
    3RG35   C5'   68   0.997   2.004   6.655  0.0738 -0.0770 -0.1513
    3RG35  H5'1   69   1.062   1.917   6.656  0.0302 -0.1052 -0.2514
    3RG35  H5'2   70   0.907   1.974   6.709  0.0149 -0.1525 -0.3144
    3RG35   C4'   71   1.062   2.120   6.734 -0.0555 -0.0702 -0.1960
    3RG35   H4'   72   0.984   2.179   6.781 -0.0934  0.0849 -0.4003
    3RG35   O4'   73   1.152   2.066   6.830  0.0058 -0.0803 -0.1201
    3RG35   C1'   74   1.284   2.071   6.776 -0.0244  0.0138 -0.1000
    3RG35   H1'   75   1.341   2.146   6.832 -0.0723  0.0549 -0.1026
    3RG35    N9   76   1.353   1.940   6.785  0.0605  0.0151 -0.0851
    3RG35    C8   77   1.335   1.825   6.711  0.0562 -0.0112 -0.0783
    3RG35    H8   78   1.264   1.818   6.631  0.1237  0.0987 -0.1629
    3RG35    N7   79   1.412   1.726   6.750  0.0384 -0.0643 -0.1214
    3RG35    C5   80   1.487   1.779   6.854 -0.0660  0.0058 -0.0432
    3RG35    C6   81   1.590   1.722   6.938 -0.0458 -0.0229 -0.0011
    3RG35    O6   82   1.641   1.611   6.940  0.0039 -0.0146 -0.1063
    3RG35    N1   83   1.641   1.810   7.030 -0.0307  0.0293  0.0247
    3RG35    H1   84   1.714   1.772   7.089 -0.0466  0.1373  0.1339
    3RG35    C2   85   1.598   1.937   7.042 -0.1230 -0.0029 -0.0778
    3RG35    N2   86   1.656   2.011   7.132 -0.1184 -0.0206  0.0181
    3RG35   H21   87   1.729   1.976   7.193 -0.2064  0.0116  0.1206
    3RG35   H22   88   1.621   2.106   7.136 -0.1569 -0.0331 -0.0464
    3RG35    N3   89   1.505   1.996   6.969 -0.1621 -0.0287 -0.0111
    3RG35    C4   90   1.452   1.911   6.876 -0.0513 -0.0377 -0.0873
    3RG35   C3'   91   1.149   2.212   6.649 -0.0183  0.0323 -0.1018
    3RG35   H3'   92   1.101   2.236   6.554  0.0351  0.1151 -0.1341
    3RG35   C2'   93   1.273   2.123   6.633  0.0153  0.0181 -0.0681
    3RG35  H2'1   94   1.250   2.041   6.565  0.0596  0.2052 -0.2680
    3RG35   O2'   95   1.382   2.198   6.582 -0.0027  0.0180 -0.0364
    3RG35  HO'2   96   1.366   2.194   6.487  0.1631  0.3531 -0.0466
    3RG35   O3'   97   1.187   2.333   6.715 -0.0561 -0.0509 -0.0173
    3RG35   H3T   98   1.273   2.350   6.675 -0.1821  0.2149 -0.1255
    3RG35   O3P   99   1.114   1.869   6.433  0.0601  0.0146 -0.2721
    7SOL     OW  100   3.860   0.707   0.779  0.2231  0.3423 -0.2693
    7SOL    HW2  101   3.858   0.737   0.870  0.9347 -0.0241 -0.1240
    7SOL    HW3  102   3.849   0.612   0.785  1.0482  0.2245 -0.5087
    7SOL    MW4  103   3.859   0.699   0.792  0.4053  0.2742 -0.2801
    8SOL     OW  104   3.498   0.009   0.724 -0.0104 -0.1817 -0.3195
    8SOL    HW2  105   3.488   0.075   0.655 -1.8175 -1.3699 -1.1917
    8SOL    HW3  106   3.585   0.026   0.761 -0.2156  2.2740 -0.9594
    8SOL    MW4  107   3.508   0.020   0.720 -0.2623 -0.0145 -0.5186
    9SOL     OW  108   2.754   0.661   0.784 -0.1213 -0.0315 -0.1495
    9SOL    HW2  109   2.727   0.570   0.786  0.7722 -0.3142 -0.9058
    9SOL    HW3  110   2.797   0.676   0.868 -0.2609 -0.3061 -0.0288
    9SOL    MW4  111   2.756   0.651   0.795 -0.0477 -0.1132 -0.2325
   10SOL     OW  112   3.276   1.843   0.219 -0.2115  0.0800 -0.0706
   10SOL    HW2  113   3.325   1.816   0.141 -0.5385 -0.3768 -0.1270
   10SOL    HW3  114   3.341   1.843   0.289 -0.1029 -0.4589 -0.1611
   10SOL    MW4  115   3.291   1.839   0.218 -0.2384 -0.0477 -0.0894
   11SOL     OW  116   1.107   1.391   0.737 -0.0024 -0.0768  0.1450
   11SOL    HW2  117   1.141   1.318   0.686 -1.5075 -0.2690 -0.5559
   11SOL    HW3  118   1.062   1.349   0.810  0.1157  0.1910  0.3599
   11SOL    MW4  119   1.106   1.376   0.740 -0.1788 -0.0715  0.0834
   12SOL     OW  120   1.025   1.634   0.882  0.2167 -0.1222  0.1635
   12SOL    HW2  121   1.061   1.576   0.814 -0.0600 -1.2285  0.9581
   12SOL    HW3  122   0.932   1.610   0.887  0.2905 -0.2224  1.0925
   12SOL    MW4  123   1.018   1.623   0.874  0.1907 -0.2742  0.3874
   13SOL     OW  124   1.041   1.882   0.764 -0.1181 -0.2458  0.2346
   13SOL    HW2  125   1.119   1.863   0.712 -0.5233 -0.6093 -0.2294
   13SOL    HW3  126   1.027   1.804   0.817 -0.3140 -0.3024  0.1109
   13SOL    MW4  127   1.049   1.869   0.764 -0.1907 -0.2980  0.1550
   14SOL     OW  128   1.137   1.252   0.314 -0.0074 -0.0681  0.0295
   14SOL    HW2  129   1.141   1.340   0.351 -0.1642  0.2106 -0.6292
   14SOL    HW3  130   1.052   1.249   0.270  0.0627 -0.5363 -0.0506
   14SOL    MW4  131   1.126   1.263   0.313 -0.0119 -0.0954 -0.0685
   15SOL     OW  132   1.646   1.172   0.187  0.0832 -0.1458  0.0986
   15SOL    HW2  133   1.563   1.124   0.192  0.1811 -0.3512 -0.1580
   15SOL    HW3  134   1.621   1.263   0.172 -0.1062 -0.1053  0.6068
   15SOL    MW4  135   1.632   1.177   0.186  0.0715 -0.1550  0.1326
   16SOL     OW  136   0.619   2.512   0.907  0.6449  0.1308  0.2599
   16SOL    HW2  137   0.656   2.535   0.822  0.5077  1.6483  0.6101
   16SOL    HW3  138   0.626   2.416   0.911 -0.0750  0.0050 -1.7644
   16SOL    MW4  139   0.625   2.502   0.897  0.5305  0.3338  0.0358
   17SOL     OW  140   3.496   1.752   0.049 -0.1616  0.2903 -0.7865
   17SOL    HW2  141   3.577   1.790   0.082  0.6164 -0.2294 -2.1172
   17SOL    HW3  142   3.485   1.672   0.099  0.0903  0.3890 -0.5555
   17SOL    MW4  143   3.505   1.747   0.060 -0.0238  0.2265 -0.9317
   18SOL     OW  144   3.707   1.892   0.550 -0.2095 -0.7777  0.3682
   18SOL    HW2  145   3.752   1.931   0.474 -0.7085 -1.4043 -0.2419
   18SOL    HW3  146   3.666   1.967   0.594  1.0628 -0.2761  0.6901
   18SOL    MW4  147   3.708   1.907   0.545 -0.1192 -0.7868  0.3338
   19SOL     OW  148   3.210   2.373   9.935  0.3791 -0.3381  0.6310
   19SOL    HW2  149   3.175   2.426  10.007 -0.2347 -0.0291  0.1017
   19SOL    HW3  150   3.304   2.369   9.951  0.6416  2.6094 -0.4291
   19SOL    MW4  151   3.217   2.379   9.947  0.3338  0.1192  0.3815
   20SOL     OW  152   3.616   2.868   0.210 -0.5193 -0.7417 -0.3521
   20SOL    HW2  153   3.682   2.900   0.272 -0.3779 -0.0352 -0.8803
   20SOL    HW3  154   3.537   2.917   0.232 -0.1628  0.3701 -1.4446
   20SOL    MW4  155   3.614   2.879   0.221 -0.4530 -0.5007 -0.5662
   21SOL     OW  156   0.059   4.251   1.433 -0.4776 -0.1007  0.2642
   21SOL    HW2  157   0.147   4.268   1.397 -0.2629  0.5401  1.0609
   21SOL    HW3  158   0.000   4.267   1.359  0.1223 -1.0215 -0.4265
   21SOL    MW4  159   0.063   4.256   1.418 -0.3673 -0.1907  0.2742
   22SOL     OW  160   4.145   3.598   1.201 -0.1436 -0.2494  0.5786
   22SOL    HW2  161   4.233   3.572   1.174  0.4551  0.6443  1.7885
   22SOL    HW3  162   4.093   3.518   1.193  0.3089 -0.2484 -2.2312
   22SOL    MW4  163   4.149   3.584   1.196 -0.0477 -0.1192  0.3695
   23SOL     OW  164   3.618   2.039   9.972  1.0766 -0.0999 -0.2161
   23SOL    HW2  165   3.690   1.986  10.006  0.5285 -0.1328  0.9244
   23SOL    HW3  166   3.559   2.050  10.046 -0.4071 -0.6692 -1.3000
   23SOL    MW4  167   3.620   2.033   9.986  0.7868 -0.1669 -0.1907
   24SOL     OW  168   1.745   3.498   1.645  0.4787 -0.2562  0.0986
   24SOL    HW2  169   1.730   3.436   1.716  2.0363 -0.4172  0.3013
   24SOL    HW3  170   1.663   3.500   1.596 -0.1258 -1.1946  1.0776
   24SOL    MW4  171   1.732   3.490   1.648  0.6080 -0.4053  0.2623
   25SOL     OW  172   4.053   3.796   1.036 -0.1396 -0.4879  0.7401
   25SOL    HW2  173   4.100   3.737   1.096  0.6553 -0.1268  0.4708
   25SOL    HW3  174   4.114   3.868   1.021 -0.2371 -0.7042 -0.7289
   25SOL    MW4  175   4.068   3.798   1.042 -0.0477 -0.4530  0.5126
   26SOL     OW  176   4.424   3.583   1.095 -0.5564 -0.2853  0.0432
   26SOL    HW2  177   4.392   3.671   1.117 -1.1320 -0.7335  1.1081
   26SOL    HW3  178   4.490   3.598   1.027 -2.0719  0.8210 -1.1436
   26SOL    MW4  179   4.428   3.597   1.088 -0.9060 -0.2146  0.0358
   27SOL     OW  180   1.606   0.014   0.535  0.0662 -0.4069  0.5813
   27SOL    HW2  181   1.514   0.014   0.559  0.0668 -1.0481  0.5997
   27SOL    HW3  182   1.613   0.082   0.468 -0.3277 -0.0403  0.9168
   27SOL    MW4  183   1.595   0.023   0.529  0.0119 -0.4433  0.6258
   28SOL     OW  184   0.213   1.116   1.068  0.2252  0.5985  0.3665
   28SOL    HW2  185   0.280   1.061   1.109 -0.8051 -0.8685  0.0822
   28SOL    HW3  186   0.238   1.119   0.976  0.1571  0.4077  0.3337
   28SOL    MW4  187   0.225   1.109   1.061  0.0805  0.3815  0.3219
   29SOL     OW  188   0.617   1.284   1.158  0.0484 -0.0230 -0.3895
   29SOL    HW2  189   0.597   1.266   1.250 -0.0901 -0.4743 -0.5165
   29SOL    HW3  190   0.532   1.304   1.118  0.2619  1.4508 -0.1291
   29SOL    MW4  191   0.603   1.285   1.165  0.0536  0.1192 -0.3695
   30SOL     OW  192   0.503   2.709   0.531  0.1171  0.8021  1.2069
   30SOL    HW2  193   0.418   2.734   0.566  0.0670  0.7196  1.1429
   30SOL    HW3  194   0.488   2.625   0.489  0.1567  0.9513  0.8696
   30SOL    MW4  195   0.490   2.701   0.530  0.1162  0.7868  1.1563
   31SOL     OW  196   3.983   0.723   1.262 -0.1180  0.1572  0.0964
   31SOL    HW2  197   3.991   0.639   1.308  2.1542  1.0220  1.2729
   31SOL    HW3  198   3.963   0.787   1.331  0.6367  1.0071 -0.4696
   31SOL    MW4  199   3.981   0.720   1.277  0.2623  0.3815  0.1788
   32SOL     OW  200   0.850   0.955   0.480 -0.3495  0.5185  0.5537
   32SOL    HW2  201   0.932   0.937   0.434  0.1813  1.5488  1.0987
   32SOL    HW3  202   0.806   1.021   0.427 -0.3647  0.6997  0.7962
   32SOL    MW4  203   0.855   0.961   0.467 -0.2801  0.6735  0.6586
   33SOL     OW  204   3.550   1.062   0.584 -0.5572  0.1686 -0.4972
   33SOL    HW2  205   3.601   1.064   0.504  0.4438 -0.6628  0.1409
   33SOL    HW3  206   3.557   0.972   0.615 -0.9371  0.5179  0.5701
   33SOL    MW4  207   3.557   1.050   0.578 -0.4768  0.1192 -0.2682
   34SOL     OW  208   1.734   0.716   0.757 -0.3911 -0.0974 -0.0049
   34SOL    HW2  209   1.674   0.708   0.683 -0.4832  1.0444 -0.0423
   34SOL    HW3  210   1.798   0.781   0.729 -0.1900  0.0330  0.7376
   34SOL    MW4  211   1.734   0.723   0.743 -0.3815  0.0715  0.0954
   35SOL     OW  212   1.200   1.184   0.572  0.3692 -0.2662 -0.1341
   35SOL    HW2  213   1.285   1.228   0.569  0.5199 -0.5579 -0.0718
   35SOL    HW3  214   1.158   1.206   0.489  0.6242 -0.3509 -0.2796
   35SOL    MW4  215   1.205   1.193   0.561  0.4292 -0.3099 -0.1431
   36SOL     OW  216   1.142   1.505   0.442  0.4820 -0.0005 -0.2457
   36SOL    HW2  217   1.067   1.547   0.483  1.6148  0.7894  0.9973
   36SOL    HW3  218   1.191   1.577   0.401  1.0888 -0.3881 -0.2249
   36SOL    MW4  219   1.139   1.520   0.442  0.7033  0.0715 -0.0775
   37SOL     OW  220   0.220   2.716   0.580 -0.0280  0.7224 -0.0259
   37SOL    HW2  221   0.182   2.662   0.648 -1.6373  1.4664 -0.3516
   37SOL    HW3  222   0.214   2.663   0.500 -0.8429  1.0669 -0.1846
   37SOL    MW4  223   0.214   2.702   0.578 -0.3472  0.8583 -0.0894
   38SOL     OW  224   4.208   2.523   0.252 -0.5039 -0.4466  0.2109
   38SOL    HW2  225   4.274   2.588   0.226 -1.3497 -0.0492 -0.8636
   38SOL    HW3  226   4.191   2.473   0.172 -1.8942 -0.2310  0.3576
   38SOL    MW4  227   4.215   2.525   0.238 -0.8106 -0.3576  0.0879
   39SOL     OW  228   0.819   2.053   0.881 -0.1190  0.1090 -0.0974
   39SOL    HW2  229   0.829   1.962   0.852  0.0249  0.0612  0.1319
   39SOL    HW3  230   0.790   2.045   0.972 -0.0656  0.2737 -0.0548
   39SOL    MW4  231   0.816   2.040   0.889 -0.0954  0.1192 -0.0656
   40SOL     OW  232   2.933   1.910   0.126 -0.7761  0.2211 -0.0976
   40SOL    HW2  233   2.972   1.825   0.103  0.1188  0.7740 -0.5888
   40SOL    HW3  234   2.900   1.945   0.043 -2.7935 -0.4785  0.4066
   40SOL    MW4  235   2.934   1.903   0.112 -0.9298  0.2027 -0.0961
   41SOL     OW  236   3.392   1.537   0.213 -0.1428 -0.4217  0.1699
   41SOL    HW2  237   3.331   1.555   0.285 -1.0317 -0.4202 -0.5923
   41SOL    HW3  238   3.341   1.489   0.149  0.9209 -1.2090 -0.0788
   41SOL    MW4  239   3.377   1.533   0.214 -0.1192 -0.5245  0.0373
   42SOL     OW  240   2.933   1.159   0.900 -0.4349 -0.7267 -0.0609
   42SOL    HW2  241   2.961   1.179   0.811  0.0448 -0.0852  0.2320
   42SOL    HW3  242   2.972   1.228   0.954 -1.5867 -0.5119  0.4974
   42SOL    MW4  243   2.942   1.171   0.896 -0.5245 -0.6080  0.0477
   43SOL     OW  244   3.623   2.403   0.513 -0.0810  0.3536 -0.1174
   43SOL    HW2  245   3.593   2.492   0.495 -1.0707 -0.0286 -0.2818
   43SOL    HW3  246   3.666   2.375   0.432  0.8241  0.9205  0.1563
   43SOL    MW4  247   3.625   2.411   0.500 -0.0954  0.3815 -0.0954
   44SOL     OW  248   2.946   2.116   9.610 -0.2058  0.0686  0.0404
   44SOL    HW2  249   2.922   2.089   9.699  1.8630  1.3986  0.9316
   44SOL    HW3  250   2.863   2.142   9.570 -1.0654  0.2567  1.7310
   44SOL    MW4  251   2.932   2.116   9.616 -0.0715  0.2623  0.3815
   45SOL     OW  252   2.974   1.786   0.470  0.1375 -0.4924  0.1898
   45SOL    HW2  253   2.946   1.874   0.447  0.1390 -0.4770  0.2491
   45SOL    HW3  254   2.908   1.756   0.534  0.2781 -0.4466  0.3481
   45SOL    MW4  255   2.961   1.793   0.476  0.1431 -0.4649  0.2205
   46SOL     OW  256   2.864   2.058   9.882  0.1641 -0.0929 -0.1053
   46SOL    HW2  257   2.915   2.118   9.938 -0.1053  0.0462 -0.0300
   46SOL    HW3  258   2.773   2.081   9.900  0.0127 -1.9946  1.4888
   46SOL    MW4  259   2.859   2.069   9.892  0.1431 -0.2861  0.0954
   47SOL     OW  260   0.338   0.382   1.073 -0.0563  0.2129 -0.4086
   47SOL    HW2  261   0.277   0.320   1.113  1.2504 -0.9260 -0.2240
   47SOL    HW3  262   0.342   0.455   1.136 -1.1036  0.2115 -0.3373
   47SOL    MW4  263   0.330   0.384   1.087 -0.0238  0.0596 -0.3815
   48SOL     OW  264   4.371   3.834   1.202 -0.3351  0.3114 -0.3466
   48SOL    HW2  265   4.456   3.808   1.239 -0.2128 -0.2541 -1.1062
   48SOL    HW3  266   4.320   3.864   1.277  0.6927  1.0952  0.0384
   48SOL    MW4  267   4.376   3.834   1.217 -0.1431  0.3338 -0.3934
   49SOL     OW  268   4.281   4.004   0.999 -0.1943 -0.3656  0.0223
   49SOL    HW2  269   4.303   3.960   1.081  1.4376  0.1180 -0.1476
   49SOL    HW3  270   4.364   4.043   0.970 -0.8586 -0.2583 -1.6722
   49SOL    MW4  271   4.295   4.004   1.006 -0.0477 -0.3338 -0.2265
   50SOL     OW  272   1.968   3.439   1.500  0.2738 -0.1057 -1.1939
   50SOL    HW2  273   1.882   3.448   1.542  0.3199  1.0289 -1.2967
   50SOL    HW3  274   2.022   3.393   1.564  0.1851  1.0336 -0.2856
   50SOL    MW4  275   1.964   3.434   1.514  0.2623  0.1907 -1.0967
   51SOL     OW  276   0.310   3.094   0.964 -0.5103 -0.9359  0.1414
   51SOL    HW2  277   0.321   3.016   0.911  3.2818 -1.6914  2.0100
   51SOL    HW3  278   0.356   3.163   0.916  0.0889 -0.8894  0.7941
   51SOL    MW4  279   0.317   3.093   0.951  0.0715 -1.0014  0.4828
   52SOL     OW  280   3.513   2.365   9.585 -0.5996 -0.5136  0.0233
   52SOL    HW2  281   3.481   2.439   9.533  0.6927 -0.2577 -0.4168
   52SOL    HW3  282   3.583   2.402   9.638 -1.0128 -1.0613  0.8542
   52SOL    MW4  283   3.518   2.380   9.585 -0.5007 -0.5484  0.0000
   53SOL     OW  284   0.082   0.371   1.238 -0.5853 -0.1393  0.0727
   53SOL    HW2  285   0.088   0.465   1.219  0.2827 -0.0299  0.8416
   53SOL    HW3  286   0.144   0.358   1.311 -0.0802 -1.4592 -0.6055
   53SOL    MW4  287   0.091   0.382   1.245 -0.4038 -0.2980  0.0834
   54SOL     OW  288   0.291   1.537   1.225 -0.1490 -0.3382 -0.7874
   54SOL    HW2  289   0.222   1.532   1.291 -0.2137  0.3088 -0.7995
   54SOL    HW3  290   0.257   1.598   1.160  0.4854  0.1024 -0.7238
   54SOL    MW4  291   0.277   1.544   1.226 -0.0745 -0.1907 -0.7749
   55SOL     OW  292   1.183   0.465   0.401  0.2151 -0.2818  0.6232
   55SOL    HW2  293   1.091   0.457   0.376  0.2728  0.0565  0.2733
   55SOL    HW3  294   1.206   0.555   0.378  0.7388 -0.4876  0.3400
   55SOL    MW4  295   1.173   0.476   0.394  0.2980 -0.2652  0.5364
   56SOL     OW  296   0.898   1.359   1.159 -0.0030  0.5421  0.2115
   56SOL    HW2  297   0.966   1.423   1.180  0.4269 -0.1308  0.8344
   56SOL    HW3  298   0.930   1.314   1.080  0.1720  0.3630  0.3896
   56SOL    MW4  299   0.912   1.361   1.151  0.0775  0.4292  0.3219
   57SOL     OW  300   1.480   0.372   0.335  0.5927  0.0822 -0.5330
   57SOL    HW2  301   1.489   0.340   0.425 -0.0490  0.0339 -0.4793
   57SOL    HW3  302   1.385   0.383   0.324  0.7047  0.3333 -1.1317
   57SOL    MW4  303   1.468   0.369   0.346  0.5245  0.1103 -0.6020
   58SOL     OW  304   1.504   1.113   0.489 -0.6564  0.2282 -0.1563
   58SOL    HW2  305   1.503   1.089   0.582 -0.4073 -0.4669 -0.3309
   58SOL    HW3  306   1.528   1.206   0.489 -0.0561  0.0786  0.4345
   58SOL    MW4  307   1.507   1.122   0.502 -0.5364  0.1192 -0.1013
   59SOL     OW  308   1.785   1.095   0.394 -0.1873 -0.3619  0.1194
   59SOL    HW2  309   1.748   1.128   0.312  0.1819 -0.2455  0.0019
   59SOL    HW3  310   1.715   1.041   0.431 -0.3517 -0.3638 -0.2370
   59SOL    MW4  311   1.770   1.092   0.388 -0.1550 -0.3338  0.0566
   60SOL     OW  312   0.346   1.058   0.767  0.2159 -0.6884  0.0079
   60SOL    HW2  313   0.416   1.113   0.803 -0.0031 -0.5600  0.2252
   60SOL    HW3  314   0.276   1.120   0.745  0.5775 -0.7247 -1.1972
   60SOL    MW4  315   0.346   1.074   0.769  0.2354 -0.6795 -0.1192
   61SOL     OW  316   0.567   1.237   0.807 -0.1506  0.1445 -0.0989
   61SOL    HW2  317   0.599   1.221   0.718  0.7616  0.0326  0.2517
   61SOL    HW3  318   0.507   1.311   0.798 -0.1247  0.0689 -0.8351
   61SOL    MW4  319   0.563   1.245   0.794 -0.0298  0.1192 -0.1490
   62SOL     OW  320   0.904   2.112   0.607  0.2346  1.1484 -0.1349
   62SOL    HW2  321   0.827   2.143   0.656  0.7579  2.0141  0.1646
   62SOL    HW3  322   0.938   2.040   0.659 -1.3113 -0.2619 -1.1018
   62SOL    MW4  323   0.898   2.107   0.620  0.0954  1.0967 -0.2265
   63SOL     OW  324   1.288   1.783   0.664 -0.7013 -0.1041 -0.3347
   63SOL    HW2  325   1.367   1.757   0.710 -1.1241 -0.1477  0.3672
   63SOL    HW3  326   1.318   1.840   0.594 -0.0650 -0.0850 -0.0403
   63SOL    MW4  327   1.302   1.787   0.661 -0.6676 -0.1073 -0.2086
   64SOL     OW  328   0.500   2.792   0.932 -0.0692  0.3142 -0.0628
   64SOL    HW2  329   0.576   2.756   0.886 -0.7666 -1.7682  0.4241
   64SOL    HW3  330   0.507   2.758   1.021 -0.5862  1.6000  0.4610
   64SOL    MW4  331   0.511   2.783   0.937 -0.2265  0.1907  0.0715
   65SOL     OW  332   3.429   1.902   9.778 -0.1534  0.1704 -0.4245
   65SOL    HW2  333   3.503   1.950   9.814 -0.1745 -0.2286  0.2512
   65SOL    HW3  334   3.434   1.815   9.819 -0.2331 -0.2501 -1.2694
   65SOL    MW4  335   3.440   1.897   9.788 -0.1669  0.0596 -0.3815
   66SOL     OW  336   0.236   2.556   0.886 -0.1575 -0.2506 -0.7288
   66SOL    HW2  337   0.172   2.627   0.885  0.6763  0.5722 -0.0757
   66SOL    HW3  338   0.321   2.601   0.891  0.3900 -1.2530 -0.6026
   66SOL    MW4  339   0.239   2.572   0.887  0.0238 -0.2623 -0.6258
   67SOL     OW  340   2.206   2.973   0.698  0.5087 -0.2244  0.5027
   67SOL    HW2  341   2.160   2.925   0.629  1.3854 -0.3817  0.0196
   67SOL    HW3  342   2.147   3.045   0.720 -0.0040 -0.4616 -0.0479
   67SOL    MW4  343   2.192   2.976   0.692  0.5484 -0.2623  0.3636
   68SOL     OW  344   3.222   2.049   9.861 -0.5283  0.1690 -0.1663
   68SOL    HW2  345   3.293   1.987   9.846 -0.3429 -0.0815  1.5905
   68SOL    HW3  346   3.219   2.059   9.957 -3.3409 -0.2905 -0.1796
   68SOL    MW4  347   3.231   2.042   9.872 -0.8821  0.0715  0.0000
   69SOL     OW  348   1.508   2.208   1.199  0.3722 -0.1498 -0.0215
   69SOL    HW2  349   1.593   2.167   1.216  0.4300 -0.4156 -1.0581
   69SOL    HW3  350   1.496   2.200   1.104 -0.4667  0.5556  0.0220
   69SOL    MW4  351   1.518   2.202   1.189  0.2742 -0.0954 -0.1550
   70SOL     OW  352   3.304   2.186   9.510 -0.3991  1.2997 -0.2056
   70SOL    HW2  353   3.399   2.193   9.506 -0.1799  0.0111  3.1865
   70SOL    HW3  354   3.283   2.115   9.449  1.0892 -0.7496  1.6025
   70SOL    MW4  355   3.314   2.177   9.502 -0.1669  0.8583  0.4768
   71SOL     OW  356   3.446   2.375   0.065 -0.0913  0.7108 -0.2131
   71SOL    HW2  357   3.469   2.303   0.124 -4.5951  0.7361  1.6148
   71SOL    HW3  358   3.470   2.454   0.113 -0.5688  0.6220  0.1743
   71SOL    MW4  359   3.452   2.376   0.079 -0.7629  0.7153  0.0790
   72SOL     OW  360   1.527   2.282   1.501  0.3054  0.2591  0.0488
   72SOL    HW2  361   1.480   2.263   1.419  0.4720 -0.8159  0.2002
   72SOL    HW3  362   1.618   2.258   1.482  0.5073  0.8947  0.2249
   72SOL    MW4  363   1.532   2.276   1.488  0.3576  0.2146  0.0954
   73SOL     OW  364   2.674   3.973   0.938  0.3661 -0.3984  0.4289
   73SOL    HW2  365   2.579   3.977   0.929  0.2371  0.3034  2.1927
   73SOL    HW3  366   2.707   3.985   0.849 -1.1896  0.1646 -0.0624
   73SOL    MW4  367   2.666   3.975   0.925  0.1669 -0.2384  0.5960
   74SOL     OW  368   1.429   3.734   1.379 -0.2311 -0.1335 -0.3713
   74SOL    HW2  369   1.378   3.815   1.376  0.1086  0.0240 -1.5161
   74SOL    HW3  370   1.368   3.665   1.355 -0.2473 -0.1204 -0.3344
   74SOL    MW4  371   1.414   3.736   1.376 -0.1907 -0.1192 -0.5245
   75SOL     OW  372   2.136   2.831   0.926  0.0914 -0.1360  0.1175
   75SOL    HW2  373   2.168   2.883   0.852  0.1922 -0.2848  0.0744
   75SOL    HW3  374   2.064   2.780   0.890  0.2737 -0.3400  0.0680
   75SOL    MW4  375   2.131   2.831   0.912  0.1431 -0.1907  0.1073
   76SOL     OW  376   2.062   4.342   0.747  0.5073 -0.0073  0.0676
   76SOL    HW2  377   2.068   4.431   0.714  0.6395 -0.1941 -0.2745
   76SOL    HW3  378   2.086   4.286   0.673 -0.5000 -0.4033  0.0155
   76SOL    MW4  379   2.066   4.346   0.733  0.3815 -0.0477  0.0179
   77SOL     OW  380   0.841   1.171   0.307 -0.3855 -0.1380  0.2328
   77SOL    HW2  381   0.912   1.107   0.297 -1.3351 -1.2144  0.5215
   77SOL    HW3  382   0.866   1.221   0.385  1.0189  0.6997 -0.7625
   77SOL    MW4  383   0.854   1.169   0.316 -0.3278 -0.1788  0.1401
   78SOL     OW  384   0.370   1.345   1.065  0.4918  0.1397 -1.1335
   78SOL    HW2  385   0.336   1.410   1.126 -0.0837  0.3603 -1.6891
   78SOL    HW3  386   0.311   1.271   1.073  0.8794 -0.1325 -0.8186
   78SOL    MW4  387   0.358   1.344   1.074  0.4679  0.1431 -1.1683
   79SOL     OW  388   1.063   0.987   0.291 -0.1727 -0.6599  0.2982
   79SOL    HW2  389   1.127   1.058   0.287 -0.2820 -0.5402  0.7322
   79SOL    HW3  390   1.112   0.909   0.263 -0.0239 -0.4579  0.0219
   79SOL    MW4  391   1.078   0.986   0.287 -0.1788 -0.6139  0.3219
   80SOL     OW  392   1.464   1.152   0.767  0.2113 -0.3494  0.0387
   80SOL    HW2  393   1.502   1.207   0.835  0.2631 -0.1500 -0.1334
   80SOL    HW3  394   1.374   1.136   0.796  0.3228 -0.4868  0.2758
   80SOL    MW4  395   1.457   1.157   0.779  0.2384 -0.3457  0.0536
   81SOL     OW  396   1.220   0.901   0.575 -0.4182 -0.2099 -0.5091
   81SOL    HW2  397   1.168   0.876   0.652 -0.0747  0.2339 -0.1318
   81SOL    HW3  398   1.213   0.996   0.572  0.3561 -0.1543 -0.4830
   81SOL    MW4  399   1.212   0.910   0.585 -0.2623 -0.1490 -0.4530
   82SOL     OW  400   1.708   1.329   0.535  0.3756  0.2701  0.1099
   82SOL    HW2  401   1.666   1.378   0.465 -0.4831  0.0376  0.4758
   82SOL    HW3  402   1.744   1.251   0.492 -0.3884  0.0011 -0.0336
   82SOL    MW4  403   1.707   1.325   0.520  0.1788  0.2027  0.1371
   83SOL     OW  404   1.739   1.064   0.830  0.0488 -0.2402  0.1227
   83SOL    HW2  405   1.675   0.998   0.855  0.8082 -1.2035 -0.4396
   83SOL    HW3  406   1.790   1.080   0.910 -0.3149 -0.1118  0.3352
   83SOL    MW4  407   1.737   1.057   0.844  0.0954 -0.3576  0.0775
   84SOL     OW  408   1.542   1.510   0.751  0.0626 -0.4523  0.1321
   84SOL    HW2  409   1.489   1.462   0.688  0.1819 -0.1180 -0.2382
   84SOL    HW3  410   1.501   1.492   0.836 -0.9609  0.2350 -0.2119
   84SOL    MW4  411   1.530   1.501   0.754 -0.0477 -0.3099  0.0298
   85SOL     OW  412   0.988   2.255   0.985 -0.5143  0.0117  0.0204
   85SOL    HW2  413   1.000   2.306   0.905 -0.6440  0.2642  0.1836
   85SOL    HW3  414   0.925   2.187   0.962  0.8815 -1.0806 -0.6268
   85SOL    MW4  415   0.981   2.253   0.972 -0.3457 -0.1192 -0.0477
   86SOL     OW  416   1.206   2.052   0.927  0.0203 -0.2389  0.1168
   86SOL    HW2  417   1.163   2.130   0.962 -0.0659 -0.4079  0.4403
   86SOL    HW3  418   1.134   1.997   0.894  0.0931 -0.1819 -0.1244
   86SOL    MW4  419   1.191   2.055   0.927  0.0238 -0.2623  0.1252
   87SOL     OW  420   1.130   1.522   1.117  0.0933 -0.2540  0.4206
   87SOL    HW2  421   1.130   1.592   1.182 -0.4151 -1.0841  1.2894
   87SOL    HW3  422   1.084   1.560   1.042  0.6402  0.6775  0.5313
   87SOL    MW4  423   1.124   1.536   1.116  0.1073 -0.2503  0.5364
   88SOL     OW  424   3.699   2.311   0.281 -0.5873 -0.6433  0.6343
   88SOL    HW2  425   3.630   2.244   0.279 -0.5596 -0.6775  1.5032
   88SOL    HW3  426   3.661   2.386   0.237 -1.3307 -0.5316  1.4841
   88SOL    MW4  427   3.685   2.312   0.275 -0.6914 -0.6437  0.8613
   89SOL     OW  428   1.308   2.016   1.310 -0.1892 -0.1847  0.0903
   89SOL    HW2  429   1.400   2.033   1.331 -0.1645  0.0326 -0.1709
   89SOL    HW3  430   1.281   2.093   1.259 -0.3355 -0.5676 -0.4106
   89SOL    MW4  431   1.316   2.029   1.306 -0.2027 -0.1907 -0.0119
   90SOL     OW  432   1.778   2.121   1.237 -0.3959 -0.2807 -0.4030
   90SOL    HW2  433   1.804   2.201   1.281 -0.2005 -0.1904 -0.7371
   90SOL    HW3  434   1.821   2.051   1.286  0.2235 -0.1504 -0.7126
   90SOL    MW4  435   1.787   2.122   1.249 -0.2861 -0.2623 -0.5007
   91SOL     OW  436   1.418   1.936   0.457 -0.7377 -0.1863 -0.0296
   91SOL    HW2  437   1.503   1.909   0.492 -0.4591 -0.3877 -0.8657
   91SOL    HW3  438   1.404   2.024   0.492 -0.3656 -0.3243  0.4473
   91SOL    MW4  439   1.427   1.944   0.466 -0.6557 -0.2384 -0.0775
   92SOL     OW  440   3.866   1.910   0.088 -0.3060 -0.4762  0.0161
   92SOL    HW2  441   3.884   1.950   0.174 -0.9939  0.9338 -0.4975
   92SOL    HW3  442   3.949   1.918   0.041  0.2235 -1.6834  0.7151
   92SOL    MW4  443   3.879   1.917   0.093 -0.3338 -0.4411  0.0402
   93SOL     OW  444   0.685   3.276   1.202 -0.7145  0.3635  0.7590
   93SOL    HW2  445   0.772   3.316   1.202 -1.5765  2.2052  1.3375
   93SOL    HW3  446   0.696   3.194   1.153  1.3077  0.6842  0.6470
   93SOL    MW4  447   0.698   3.270   1.195 -0.5603  0.6676  0.8225
   94SOL     OW  448   1.400   2.560   1.550 -0.0298  0.0628  0.3430
   94SOL    HW2  449   1.384   2.566   1.455  1.0096 -0.3765  0.1350
   94SOL    HW3  450   1.403   2.466   1.567  2.2401  0.1771  0.4232
   94SOL    MW4  451   1.398   2.548   1.540  0.3934  0.0238  0.3219
   95SOL     OW  452   1.952   0.877   0.666  0.1049  0.1207  0.0452
   95SOL    HW2  453   2.009   0.801   0.674  0.1562  0.1275 -0.1004
   95SOL    HW3  454   1.985   0.924   0.589 -0.3238 -0.0644 -0.2449
   95SOL    MW4  455   1.964   0.873   0.657  0.0477  0.0954 -0.0060
   96SOL     OW  456   1.869   0.778   1.539  0.7974 -0.4288  0.0183
   96SOL    HW2  457   1.792   0.764   1.594  2.0528  2.3514  2.4744
   96SOL    HW3  458   1.835   0.822   1.461 -0.4188 -0.9809  0.2428
   96SOL    MW4  459   1.854   0.782   1.536  0.8106 -0.1371  0.3695
   97SOL     OW  460   2.936   3.667   0.255  0.5105 -0.3022  0.1112
   97SOL    HW2  461   2.846   3.670   0.286  0.7021 -2.3440  0.7241
   97SOL    HW3  462   2.930   3.639   0.164  0.4416  1.1351 -0.3292
   97SOL    MW4  463   2.924   3.664   0.247  0.5484 -0.4053  0.1356
   98SOL     OW  464   1.425   0.631   0.943  0.0868 -0.3319 -0.1830
   98SOL    HW2  465   1.371   0.601   1.015  0.4313 -1.1153 -0.2682
   98SOL    HW3  466   1.514   0.606   0.968  0.3160  0.2720 -0.4132
   98SOL    MW4  467   1.430   0.624   0.956  0.1550 -0.3576 -0.2205
   99SOL     OW  468   0.977   4.002   1.524 -0.1967  0.4576 -0.3623
   99SOL    HW2  469   0.905   4.018   1.585 -0.7342  1.5785 -1.2663
   99SOL    HW3  470   0.961   4.064   1.452  1.5101  0.5122 -0.6969
   99SOL    MW4  471   0.965   4.012   1.522 -0.0477  0.6199 -0.5126
  100SOL     OW  472   1.780   4.577   0.745  1.1835  0.1946  0.3453
  100SOL    HW2  473   1.778   4.481   0.743  0.7062  0.1349  1.7025
  100SOL    HW3  474   1.732   4.604   0.667  0.9784 -0.6777  0.1686
  100SOL    MW4  475   1.773   4.568   0.734  1.0967  0.0477  0.5007
  101SOL     OW  476   0.369   3.982   4.863 -0.9544  0.1042 -0.0386
  101SOL    HW2  477   0.450   3.974   4.813  0.0825 -1.5101  1.8894
  101SOL    HW3  478   0.399   3.986   4.954 -2.9755  0.1800  0.6040
  101SOL    MW4  479   0.384   3.981   4.869 -1.0818 -0.0954  0.2861
  102SOL     OW  480   2.051   1.820   0.876  0.2783  0.7084 -0.2425
  102SOL    HW2  481   2.033   1.737   0.921 -0.0336  0.8212 -0.1649
  102SOL    HW3  482   2.013   1.808   0.789  0.4856  0.6522 -0.3343
  102SOL    MW4  483   2.044   1.807   0.870  0.2623  0.7272 -0.2444
  103SOL     OW  484   2.098   1.319   0.391 -1.1001  0.5960  0.1414
  103SOL    HW2  485   2.170   1.348   0.446 -1.0658  0.3648  0.1979
  103SOL    HW3  486   2.119   1.354   0.304 -0.0769 -0.8710 -0.1967
  103SOL    MW4  487   2.110   1.327   0.386 -0.9775  0.3695  0.1073
  104SOL     OW  488   2.057   1.036   0.457 -0.3199 -0.2739  0.4500
  104SOL    HW2  489   1.970   1.042   0.416 -0.5308  0.6589  1.0207
  104SOL    HW3  490   2.106   1.109   0.419  0.4307 -1.2389 -0.4117
  104SOL    MW4  491   2.052   1.047   0.446 -0.2623 -0.2861  0.4113
  105SOL     OW  492   1.678   0.579   0.372 -0.0104  0.1128  0.0373
  105SOL    HW2  493   1.619   0.506   0.356  0.6863 -0.2345 -0.9367
  105SOL    HW3  494   1.742   0.575   0.301  1.0994  0.5652  1.0206
  105SOL    MW4  495   1.679   0.569   0.361  0.2265  0.1252  0.0358
  106SOL     OW  496   1.890   1.474   0.819  0.2542  0.1007  0.1155
  106SOL    HW2  497   1.836   1.544   0.854  1.2179  0.3697  1.0703
  106SOL    HW3  498   1.915   1.503   0.731 -0.2037  0.4836  0.1184
  106SOL    MW4  499   1.886   1.487   0.812  0.3219  0.1788  0.2444
  107SOL     OW  500   1.689   1.708   0.436 -0.1412  0.4356 -0.4310
  107SOL    HW2  501   1.666   1.732   0.526 -0.5842 -0.3931 -0.3321
  107SOL    HW3  502   1.762   1.766   0.413 -0.3564  0.9804  0.2901
  107SOL    MW4  503   1.696   1.719   0.445 -0.2384  0.4053 -0.3219
  108SOL     OW  504   1.721   1.517   1.115 -0.0898  0.0679  0.0233
  108SOL    HW2  505   1.646   1.563   1.153  0.5724  0.9153  0.2774
  108SOL    HW3  506   1.742   1.449   1.179 -0.4826 -0.0016  0.0782
  108SOL    MW4  507   1.714   1.514   1.128 -0.0477  0.1788  0.0596
  109SOL     OW  508   1.466   2.524   0.688  0.6636  0.7419 -0.2581
  109SOL    HW2  509   1.537   2.460   0.693  1.0653  1.1277 -0.8915
  109SOL    HW3  510   1.386   2.473   0.702  1.1239  0.4158  1.2535
  109SOL    MW4  511   1.465   2.509   0.690  0.7749  0.7391 -0.1371
  110SOL     OW  512   1.548   1.494   0.356 -0.2748 -0.2008  0.0773
  110SOL    HW2  513   1.473   1.534   0.312 -0.1195  0.0212 -0.0066
  110SOL    HW3  514   1.606   1.567   0.377  0.3612 -0.4909 -0.7455
  110SOL    MW4  515   1.546   1.509   0.353 -0.1669 -0.2146 -0.0417
  111SOL     OW  516   2.326   1.669   1.355 -0.7258  0.0438  0.7768
  111SOL    HW2  517   2.257   1.732   1.335 -0.6271  0.0900  0.5947
  111SOL    HW3  518   2.346   1.684   1.447 -0.0595  0.9357  0.4822
  111SOL    MW4  519   2.320   1.679   1.364 -0.6437  0.1669  0.7153
  112SOL     OW  520   0.992   2.373   0.718  0.1040  0.1002 -0.0443
  112SOL    HW2  521   0.994   2.437   0.647 -0.6075  1.1209  0.8890
  112SOL    HW3  522   0.948   2.297   0.681 -0.7454  0.8328 -0.5678
  112SOL    MW4  523   0.987   2.372   0.704 -0.1073  0.3338  0.0060
  113SOL     OW  524   1.812   2.048   0.969 -0.1319 -0.0951  0.1142
  113SOL    HW2  525   1.836   2.136   0.938 -1.0223  0.1339 -0.0269
  113SOL    HW3  526   1.792   2.060   1.062 -0.2282 -0.1340  0.1045
  113SOL    MW4  527   1.812   2.061   0.977 -0.2623 -0.0715  0.0954
  114SOL     OW  528   2.528   3.438   0.469  0.0290  0.5346  0.2391
  114SOL    HW2  529   2.474   3.363   0.493  0.5930 -0.0944 -0.5006
  114SOL    HW3  530   2.589   3.403   0.404  0.2438  1.6299 -0.1657
  114SOL    MW4  531   2.529   3.423   0.463  0.1192  0.5722  0.0894
  115SOL     OW  532   1.514   2.767   0.812 -0.0253  0.2847 -0.0019
  115SOL    HW2  533   1.480   2.694   0.761 -0.2876  0.3043  0.1447
  115SOL    HW3  534   1.590   2.731   0.858  0.2705  0.2861 -0.4830
  115SOL    MW4  535   1.520   2.752   0.812 -0.0238  0.2861 -0.0477
  116SOL     OW  536   2.894   3.910   0.444  0.4387 -0.3226 -0.4064
  116SOL    HW2  537   2.950   3.844   0.403  0.3417 -0.1175 -0.8216
  116SOL    HW3  538   2.825   3.926   0.379  0.6630  0.4642 -0.4551
  116SOL    MW4  539   2.892   3.903   0.430  0.4530 -0.1907 -0.4679
  117SOL     OW  540   1.793   2.047   0.677 -0.3224  0.2582 -0.2009
  117SOL    HW2  541   1.853   1.985   0.635 -0.3028 -0.1998  0.5074
  117SOL    HW3  542   1.801   2.028   0.771 -0.9532  0.7688 -0.0424
  117SOL    MW4  543   1.802   2.036   0.684 -0.3934  0.2623 -0.0834
  118SOL     OW  544   2.933   1.527   0.288  0.0172  0.1924 -0.8124
  118SOL    HW2  545   3.019   1.530   0.328 -0.3392  0.2529 -0.0010
  118SOL    HW3  546   2.897   1.615   0.302  0.1563  0.4082 -1.8189
  118SOL    MW4  547   2.939   1.539   0.295  0.0000  0.2265 -0.8404
  119SOL     OW  548   1.427   2.979   1.373 -0.5429  0.0877 -0.5773
  119SOL    HW2  549   1.425   2.953   1.465  0.9241  2.0682  0.0010
  119SOL    HW3  550   1.484   2.913   1.331 -2.0747 -1.4398 -0.2768
  119SOL    MW4  551   1.434   2.967   1.379 -0.5484  0.1669 -0.4649
  120SOL     OW  552   0.845   2.759   1.181 -0.2952 -0.2474  0.1955
  120SOL    HW2  553   0.857   2.669   1.150 -0.2342 -0.3036  0.3484
  120SOL    HW3  554   0.867   2.814   1.105 -1.1537 -0.4084 -0.1708
  120SOL    MW4  555   0.850   2.754   1.167 -0.4053 -0.2623  0.1669
  121SOL     OW  556   1.775   2.809   0.659  0.1415 -0.0459  0.4241
  121SOL    HW2  557   1.681   2.789   0.658  0.1006  0.1605  0.8013
  121SOL    HW3  558   1.780   2.902   0.637  0.2192  0.0005  0.6088
  121SOL    MW4  559   1.763   2.819   0.656  0.1311 -0.0238  0.4947
  122SOL     OW  560   2.668   3.994   0.297  0.1730 -0.9398  0.0730
  122SOL    HW2  561   2.601   4.003   0.230  0.3224 -0.7183 -0.0533
  122SOL    HW3  562   2.677   4.083   0.333  1.5771 -0.5812 -1.0783
  122SOL    MW4  563   2.660   4.007   0.293  0.3815 -0.8583 -0.0983
  123SOL     OW  564   2.087   0.152   1.373 -0.0202 -0.0024 -0.1360
  123SOL    HW2  565   2.032   0.211   1.321 -0.1249  0.0077  0.0144
  123SOL    HW3  566   2.047   0.153   1.460  0.0166 -0.2523 -0.1089
  123SOL    MW4  567   2.074   0.160   1.377 -0.0238 -0.0328 -0.1073
  124SOL     OW  568   1.513   0.890   0.900 -0.3584 -0.6391 -0.3262
  124SOL    HW2  569   1.474   0.955   0.958 -0.5874 -0.5521 -0.5718
  124SOL    HW3  570   1.483   0.806   0.933 -0.4448 -0.5971 -0.2972
  124SOL    MW4  571   1.504   0.888   0.912 -0.4053 -0.6199 -0.3576
  125SOL     OW  572   1.941   1.181   0.685 -0.3285  0.5701  0.1958
  125SOL    HW2  573   1.985   1.147   0.607 -1.8075  1.1585 -0.8711
  125SOL    HW3  574   1.898   1.104   0.723  0.3747  0.2678  0.4145
  125SOL    MW4  575   1.941   1.166   0.680 -0.4411  0.6199  0.0834
  126SOL     OW  576   1.163   3.611   1.343 -0.5312 -0.2322 -0.0379
  126SOL    HW2  577   1.076   3.627   1.380 -1.0196  0.2011 -1.3935
  126SOL    HW3  578   1.158   3.645   1.253  1.7425  1.8287  0.6265
  126SOL    MW4  579   1.151   3.617   1.336 -0.2861  0.0954 -0.1311
  127SOL     OW  580   1.259   2.384   0.784  1.0184  0.1054  0.2153
  127SOL    HW2  581   1.295   2.298   0.764 -0.0725  0.2200 -2.0471
  127SOL    HW3  582   1.166   2.378   0.762  0.9541  1.9188 -0.0773
  127SOL    MW4  583   1.251   2.372   0.779  0.8583  0.3815 -0.1252
  128SOL     OW  584   1.347   1.694   0.314 -0.1653 -0.5014 -0.0261
  128SOL    HW2  585   1.366   1.778   0.357 -0.0570 -0.5503  0.0405
  128SOL    HW3  586   1.346   1.716   0.220  1.4584 -0.7281 -0.1025
  128SOL    MW4  587   1.349   1.708   0.307  0.0596 -0.5245 -0.0268
  129SOL     OW  588   2.476   1.157   1.566 -0.0352  0.2945  0.2426
  129SOL    HW2  589   2.493   1.247   1.539  0.1210  0.2298  0.1292
  129SOL    HW3  590   2.390   1.136   1.529 -0.1833  0.4945  0.5208
  129SOL    MW4  591   2.467   1.166   1.557 -0.0238  0.3099  0.2623
  130SOL     OW  592   2.168   1.426   1.442  0.0397  0.0559  0.5389
  130SOL    HW2  593   2.219   1.490   1.392 -0.0329 -0.0013  0.3913
  130SOL    HW3  594   2.085   1.471   1.459  0.1209  0.1337  0.7490
  130SOL    MW4  595   2.164   1.441   1.437  0.0477  0.0596  0.5484
  131SOL     OW  596   1.762   1.329   1.306  0.2515 -0.7295  0.0091
  131SOL    HW2  597   1.774   1.397   1.372 -0.2818  0.3707 -1.0253
  131SOL    HW3  598   1.845   1.281   1.305  0.1999 -0.8184  1.5863
  131SOL    MW4  599   1.774   1.331   1.315  0.1669 -0.5960  0.0834
  132SOL     OW  600   1.957   1.884   1.173 -0.5033  0.6087 -0.4356
  132SOL    HW2  601   1.977   1.795   1.143 -0.4434  0.6178 -0.4163
  132SOL    HW3  602   1.959   1.937   1.093  0.3840  0.7513 -0.3305
  132SOL    MW4  603   1.960   1.879   1.158 -0.3815  0.6199 -0.4172
  133SOL     OW  604   2.970   0.880   0.534  0.1682  0.0803 -0.6038
  133SOL    HW2  605   2.877   0.859   0.547  0.2361 -0.0172 -0.4320
  133SOL    HW3  606   2.975   0.974   0.552 -0.0422  0.2714 -1.5445
  133SOL    MW4  607   2.958   0.890   0.538  0.1669  0.0954 -0.7033
  134SOL     OW  608   2.032   1.208   1.313 -0.1042  0.0568 -0.0666
  134SOL    HW2  609   2.067   1.274   1.372 -0.3454 -0.1037  0.2625
  134SOL    HW3  610   2.047   1.244   1.225 -0.3443  0.5985  0.1128
  134SOL    MW4  611   2.039   1.221   1.309 -0.1907  0.1192  0.0000
  135SOL     OW  612   3.292   0.470   0.405  1.2187 -0.2476  0.6323
  135SOL    HW2  613   3.290   0.526   0.327  2.6678  0.1877  0.9165
  135SOL    HW3  614   3.216   0.498   0.456  2.0441  1.5345  0.8425
  135SOL    MW4  615   3.282   0.481   0.402  1.5020  0.0447  0.6974
  136SOL     OW  616   2.158   1.886   1.374  0.1302  0.0830  0.3820
  136SOL    HW2  617   2.219   1.950   1.339  0.4630  0.2151  1.2274
  136SOL    HW3  618   2.081   1.893   1.317  0.2657  1.0649  0.3009
  136SOL    MW4  619   2.156   1.896   1.362  0.1669  0.2265  0.4888
  137SOL     OW  620   1.892   1.536   1.449 -0.2265 -0.1775  0.5985
  137SOL    HW2  621   1.870   1.625   1.423  0.5254  0.0332  0.6708
  137SOL    HW3  622   1.857   1.528   1.538 -1.4292 -0.3964  0.0948
  137SOL    MW4  623   1.885   1.547   1.457 -0.2742 -0.1788  0.5364
  138SOL     OW  624   2.293   1.940   0.803 -0.0065  0.2916 -0.0206
  138SOL    HW2  625   2.272   1.990   0.724 -0.3407  0.8908  0.4435
  138SOL    HW3  626   2.209   1.907   0.835  0.0881  0.3855  0.3161
  138SOL    MW4  627   2.279   1.942   0.797 -0.0477  0.3934  0.0834
  139SOL     OW  628   2.353   1.543   1.082  0.5163 -0.2524  0.3313
  139SOL    HW2  629   2.269   1.500   1.063  0.1123  0.4104  0.5886
  139SOL    HW3  630   2.380   1.579   0.997 -0.3087  1.0031  0.5912
  139SOL    MW4  631   2.345   1.542   1.068  0.3576  0.0000  0.4053
  140SOL     OW  632   1.875   2.311   0.916 -0.0177 -0.1649 -0.1735
  140SOL    HW2  633   1.969   2.314   0.933  0.0261 -0.4423 -0.3407
  140SOL    HW3  634   1.835   2.349   0.995  0.2249 -0.1218 -0.0772
  140SOL    MW4  635   1.882   2.316   0.929  0.0119 -0.1907 -0.1788
  141SOL     OW  636   1.177   2.724   1.578  0.2048 -0.0332  0.1340
  141SOL    HW2  637   1.108   2.690   1.635 -1.2274  0.7599 -1.1131
  141SOL    HW3  638   1.245   2.657   1.579 -0.7409 -0.9438  1.1225
  141SOL    MW4  639   1.177   2.711   1.585 -0.1073 -0.0238  0.0834
  142SOL     OW  640   2.842   3.507   0.554  0.2999 -0.5879 -0.0067
  142SOL    HW2  641   2.795   3.585   0.524  0.4084 -0.4761  0.0791
  142SOL    HW3  642   2.919   3.542   0.600 -0.5130 -0.7102  1.4144
  142SOL    MW4  643   2.846   3.522   0.556  0.1907 -0.5960  0.1907
  143SOL     OW  644   3.080   4.119   1.228  0.7717 -0.2922  0.4636
  143SOL    HW2  645   3.011   4.129   1.163  0.8171 -0.5561  0.3717
  143SOL    HW3  646   3.040   4.149   1.310  0.2633 -1.3577  0.5875
  143SOL    MW4  647   3.066   4.124   1.230  0.7391 -0.4768  0.4649
  144SOL     OW  648   3.283   4.389   0.827  0.5823  0.1901 -0.8694
  144SOL    HW2  649   3.267   4.377   0.921 -0.5877  1.2927 -0.9219
  144SOL    HW3  650   3.281   4.300   0.791  1.2297 -0.2633  0.2187
  144SOL    MW4  651   3.281   4.375   0.834  0.5245  0.3338 -0.7272
  145SOL     OW  652   1.705   4.623   1.211 -0.3577  0.8258 -0.1536
  145SOL    HW2  653   1.647   4.549   1.191 -0.8473  1.1751 -0.1288
  145SOL    HW3  654   1.770   4.587   1.271 -0.0370  0.1825 -0.8937
  145SOL    MW4  655   1.706   4.609   1.216 -0.3815  0.7629 -0.2623
  146SOL     OW  656   1.171   3.980   1.727  0.9206  0.3913  0.6805
  146SOL    HW2  657   1.228   3.907   1.703  0.9106  0.4378  0.5503
  146SOL    HW3  658   1.114   3.992   1.652  0.7820  0.4031  0.7785
  146SOL    MW4  659   1.171   3.972   1.714  0.8941  0.4053  0.6795
  147SOL     OW  660   1.893   0.486   1.478 -0.0984 -0.1655  0.3308
  147SOL    HW2  661   1.873   0.579   1.483 -0.8969 -0.2641 -1.0380
  147SOL    HW3  662   1.856   0.458   1.395  1.1877 -1.4722  0.2150
  147SOL    MW4  663   1.885   0.494   1.468 -0.0358 -0.3517  0.1431
  148SOL     OW  664   2.163   1.290   0.807  0.0103  1.1372 -0.2573
  148SOL    HW2  665   2.219   1.214   0.819 -0.5213  0.8798  0.8265
  148SOL    HW3  666   2.079   1.254   0.777 -0.5056  1.2350  1.1378
  148SOL    MW4  667   2.159   1.275   0.805 -0.1192  1.1086  0.0656
  149SOL     OW  668   2.925   4.369   0.718 -0.2945 -0.0629  0.7545
  149SOL    HW2  669   2.850   4.406   0.672 -0.1549 -0.8260 -0.0871
  149SOL    HW3  670   2.899   4.370   0.810 -1.4132 -0.4924  0.4573
  149SOL    MW4  671   2.911   4.374   0.724 -0.4053 -0.1907  0.6080
  150SOL     OW  672   2.690   2.641   0.362 -0.1547  0.1615  0.3954
  150SOL    HW2  673   2.623   2.602   0.306  0.7786 -1.1148  0.1993
  150SOL    HW3  674   2.652   2.642   0.449 -0.4276 -0.5245  0.2696
  150SOL    MW4  675   2.677   2.636   0.366 -0.0477 -0.0715  0.3487
  151SOL     OW  676   2.890   2.482   0.261  0.0747  0.2271 -0.3261
  151SOL    HW2  677   2.825   2.544   0.294  0.7107  0.9208 -0.3578
  151SOL    HW3  678   2.974   2.525   0.273  0.5206 -0.7350 -0.1350
  151SOL    MW4  679   2.892   2.496   0.267  0.2146  0.1907 -0.3040
  152SOL     OW  680   2.160   1.194   1.723  0.0392  0.0292 -0.0076
  152SOL    HW2  681   2.178   1.156   1.637  0.4333  0.1700  0.0030
  152SOL    HW3  682   2.177   1.123   1.785  0.3747  0.0957 -0.0175
  152SOL    MW4  683   2.165   1.180   1.720  0.1431  0.0477 -0.0119
  153SOL     OW  684   1.921   1.517   0.552 -0.2391  0.4056  0.5549
  153SOL    HW2  685   1.836   1.475   0.540  0.0153 -0.3112  1.2761
  153SOL    HW3  686   1.982   1.464   0.500  0.0944 -0.1540  1.5061
  153SOL    MW4  687   1.918   1.505   0.543 -0.1431  0.2384  0.7749
  154SOL     OW  688   2.545   0.401   1.158  0.0907  0.1138  0.0366
  154SOL    HW2  689   2.594   0.353   1.225 -0.1295  0.2660  0.3082
  154SOL    HW3  690   2.532   0.488   1.196  0.4209  0.3614 -0.4220
  154SOL    MW4  691   2.549   0.406   1.172  0.1192  0.1699  0.0000
  155SOL     OW  692   2.451   1.433   1.550  0.3498  0.1731 -0.0052
  155SOL    HW2  693   2.357   1.445   1.560  0.3048 -0.4270  0.3715
  155SOL    HW3  694   2.466   1.437   1.456 -0.0228  0.4349 -0.0619
  155SOL    MW4  695   2.441   1.436   1.539  0.2861  0.1311  0.0477
  156SOL     OW  696   2.493   1.317   0.640  0.1424  0.2492  0.0861
  156SOL    HW2  697   2.493   1.321   0.736  0.0649  0.2721  0.0822
  156SOL    HW3  698   2.585   1.325   0.616  0.1256  0.7123  0.1401
  156SOL    MW4  699   2.505   1.318   0.650  0.1192  0.3099  0.0954
  157SOL     OW  700   2.119   1.355   1.094 -0.2172  0.2057  0.2255
  157SOL    HW2  701   2.094   1.324   1.007  0.4295  0.2082  0.0350
  157SOL    HW3  702   2.203   1.313   1.111  0.1472  0.9962  0.4276
  157SOL    MW4  703   2.127   1.345   1.085 -0.0715  0.3099  0.2265
  158SOL     OW  704   2.242   1.453   0.600  0.4307  0.3163 -0.4073
  158SOL    HW2  705   2.203   1.412   0.676  0.1753  2.0462  0.4023
  158SOL    HW3  706   2.334   1.426   0.602  0.1035 -0.8999 -0.3424
  158SOL    MW4  707   2.249   1.444   0.610  0.3576  0.3815 -0.2921
  159SOL     OW  708   2.364   1.219   1.144  0.1847 -0.1903  0.4582
  159SOL    HW2  709   2.403   1.265   1.218 -0.7912 -0.2122  0.9817
  159SOL    HW3  710   2.426   1.233   1.072  0.7670  0.4482  1.0758
  159SOL    MW4  711   2.377   1.227   1.144  0.1669 -0.1073  0.6080
  160SOL     OW  712   3.079   0.562   0.533  0.6496  0.5211  0.4234
  160SOL    HW2  713   3.122   0.638   0.572  0.9747  0.0647  0.9291
  160SOL    HW3  714   2.993   0.560   0.574  0.3179  1.1540 -0.2490
  160SOL    MW4  715   3.073   0.572   0.543  0.6437  0.5484  0.3994
  161SOL     OW  716   3.040   2.381   0.522  0.0119 -0.2770 -0.1320
  161SOL    HW2  717   2.949   2.364   0.497  0.1994 -0.0024 -0.9537
  161SOL    HW3  718   3.072   2.297   0.554 -0.2248 -0.6128 -0.7609
  161SOL    MW4  719   3.032   2.367   0.523  0.0000 -0.2861 -0.3159
  162SOL     OW  720   2.418   1.677   0.823  0.1710 -0.2453  0.5662
  162SOL    HW2  721   2.364   1.753   0.844  0.4224  0.1414 -0.2359
  162SOL    HW3  722   2.506   1.713   0.810  0.2337 -0.6360 -0.0582
  162SOL    MW4  723   2.423   1.692   0.824  0.2623 -0.2384  0.3755
  163SOL     OW  724   2.153   0.694   0.703  0.1148  0.0730  0.2970
  163SOL    HW2  725   2.217   0.729   0.642 -0.5616 -0.1528 -0.5200
  163SOL    HW3  726   2.190   0.609   0.729  0.8443  0.5718  0.9202
  163SOL    MW4  727   2.166   0.687   0.699  0.1431  0.1073  0.2682
  164SOL     OW  728   1.668   2.318   0.729 -0.4749 -0.3928  0.3642
  164SOL    HW2  729   1.738   2.324   0.794 -0.6423  0.0355  0.4980
  164SOL    HW3  730   1.691   2.241   0.676 -0.4993 -0.8972  1.1129
  164SOL    MW4  731   1.680   2.308   0.731 -0.5007 -0.4053  0.4709
  165SOL     OW  732   2.257   2.357   0.715 -0.1791  0.0396 -0.1615
  165SOL    HW2  733   2.322   2.293   0.686 -0.5080 -0.3722  0.0342
  165SOL    HW3  734   2.309   2.432   0.744  0.2108 -0.6416  0.8406
  165SOL    MW4  735   2.273   2.359   0.715 -0.1907 -0.0954 -0.0060
  166SOL     OW  736   2.477   2.205   0.616 -0.0547  0.0253 -0.1243
  166SOL    HW2  737   2.522   2.137   0.567  0.8999  1.0729 -0.6777
  166SOL    HW3  738   2.511   2.287   0.580 -0.9250  0.8158  0.7656
  166SOL    MW4  739   2.488   2.207   0.605 -0.0238  0.2384 -0.0834
  167SOL     OW  740   3.115   2.599   0.359 -0.0887 -0.4296  0.4455
  167SOL    HW2  741   3.102   2.682   0.404  0.3048 -0.4124  0.5473
  167SOL    HW3  742   3.100   2.532   0.426  0.2737 -0.4459  0.5200
  167SOL    MW4  743   3.111   2.601   0.374  0.0000 -0.4292  0.4679
  168SOL     OW  744   2.248   4.650   0.926  0.2089 -0.4597  0.5861
  168SOL    HW2  745   2.286   4.729   0.964 -0.5538 -0.1851  0.7307
  168SOL    HW3  746   2.232   4.592   1.001  0.3929 -0.6056  0.5329
  168SOL    MW4  747   2.251   4.653   0.941  0.1431 -0.4768  0.6020
  169SOL     OW  748   2.516   0.044   0.579  0.0891 -0.6097  0.4394
  169SOL    HW2  749   2.447   0.111   0.583  0.4240 -0.2758  0.4186
  169SOL    HW3  750   2.504  -0.007   0.659  0.0749 -0.3019  0.6289
  169SOL    MW4  751   2.505   0.046   0.590  0.1431 -0.5215  0.4649
  170SOL     OW  752   3.871   0.408   0.759 -0.0620  0.1062  0.5774
  170SOL    HW2  753   3.834   0.386   0.845  0.5198 -0.2887  0.7237
  170SOL    HW3  754   3.800   0.388   0.698 -0.5132  0.4597  0.9689
  170SOL    MW4  755   3.857   0.402   0.762 -0.0477  0.1013  0.6437
  171SOL     OW  756   3.376   4.140   1.052  0.1068 -0.0541  0.4161
  171SOL    HW2  757   3.450   4.154   0.993 -0.1908  0.3247  0.1411
  171SOL    HW3  758   3.330   4.065   1.015 -0.0846  0.1524  0.2337
  171SOL    MW4  759   3.380   4.132   1.039  0.0477  0.0477  0.3576
  172SOL     OW  760   2.949   3.566   0.915  0.3279 -0.2306  0.6750
  172SOL    HW2  761   2.856   3.570   0.934  0.3104 -1.1077  0.7332
  172SOL    HW3  762   2.965   3.637   0.853 -0.3274 -0.0308  0.7557
  172SOL    MW4  763   2.939   3.576   0.910  0.2146 -0.3338  0.6914
  173SOL     OW  764   4.045   0.217   0.899 -0.2622  0.5291  0.2202
  173SOL    HW2  765   3.987   0.269   0.843 -0.0521  0.7743  0.1838
  173SOL    HW3  766   4.128   0.212   0.850 -0.0744  0.6989  0.5479
  173SOL    MW4  767   4.048   0.223   0.885 -0.2861  0.5826  0.2563
  174SOL     OW  768   3.175   4.648   0.782 -0.4447  0.1942  0.0560
  174SOL    HW2  769   3.103   4.653   0.844 -0.6946 -2.0629 -0.0161
  174SOL    HW3  770   3.248   4.614   0.832 -0.0108  0.5716 -0.3642
  174SOL    MW4  771   3.175   4.644   0.797 -0.4053 -0.0477 -0.0060
  175SOL     OW  772   2.867   4.135   1.060  0.2042 -0.3118 -0.3805
  175SOL    HW2  773   2.801   4.075   1.025 -0.1252  0.7963 -1.6930
  175SOL    HW3  774   2.838   4.222   1.034  1.4403  0.2950  0.3104
  175SOL    MW4  775   2.855   4.139   1.052  0.3576 -0.0954 -0.4649
  176SOL     OW  776   3.127   4.302   0.454 -0.2556 -0.4643 -0.0589
  176SOL    HW2  777   3.190   4.299   0.382  0.5108  0.1953  0.6000
  176SOL    HW3  778   3.152   4.230   0.512 -1.1192 -1.2224 -0.6359
  176SOL    MW4  779   3.139   4.292   0.452 -0.2861 -0.4768 -0.0507
  177SOL     OW  780   3.263   3.922   0.929  0.3074 -0.5398 -0.4481
  177SOL    HW2  781   3.177   3.955   0.903  1.0480  1.5706 -0.1698
  177SOL    HW3  782   3.245   3.864   1.003 -0.9348 -0.4427 -0.6613
  177SOL    MW4  783   3.249   3.918   0.935  0.2861 -0.2384 -0.4411
  178SOL     OW  784   1.613   1.301   0.963  0.5174  0.3336  0.0077
  178SOL    HW2  785   1.637   1.379   1.013 -0.9532  0.6642  0.1850
  178SOL    HW3  786   1.623   1.229   1.025 -1.2178  0.7360  0.7547
  178SOL    MW4  787   1.617   1.302   0.978  0.0954  0.4292  0.1311
  179SOL     OW  788   3.426   0.568   0.640  0.5197 -0.8326  0.0756
  179SOL    HW2  789   3.369   0.645   0.648  0.9981 -0.5321  0.4514
  179SOL    HW3  790   3.402   0.529   0.556  0.2114 -0.3652 -0.0453
  179SOL    MW4  791   3.415   0.573   0.630  0.5484 -0.7331  0.1192
  180SOL     OW  792   2.233   0.509   1.341  0.2424  0.1735 -0.3676
  180SOL    HW2  793   2.250   0.415   1.348 -0.0898  0.0256 -1.6865
  180SOL    HW3  794   2.320   0.549   1.339  0.3849 -0.1450 -0.4193
  180SOL    MW4  795   2.247   0.502   1.342  0.2146  0.1132 -0.5484
  181SOL     OW  796   2.424   1.048   0.598  0.1456 -0.2989  0.4806
  181SOL    HW2  797   2.436   1.143   0.604 -0.0340 -0.2659  0.2761
  181SOL    HW3  798   2.510   1.012   0.620  0.8149  0.0019 -1.7378
  181SOL    MW4  799   2.437   1.056   0.602  0.2146 -0.2503  0.1609
  182SOL     OW  800   1.978   1.796   0.600 -0.2518  0.4350  0.1090
  182SOL    HW2  801   2.072   1.796   0.585 -0.0667 -0.1829  1.2319
  182SOL    HW3  802   1.949   1.708   0.577 -0.4353  0.3569  0.6168
  182SOL    MW4  803   1.986   1.785   0.595 -0.2503  0.3338  0.3219
  183SOL     OW  804   2.538   1.281   0.930 -0.5137  0.3355  0.4039
  183SOL    HW2  805   2.595   1.324   0.994 -0.0046 -0.5951  0.5629
  183SOL    HW3  806   2.579   1.195   0.916 -0.9412  0.3062 -0.7242
  183SOL    MW4  807   2.551   1.275   0.936 -0.5245  0.2146  0.2742
  184SOL     OW  808   2.673   1.031   0.881 -0.8063 -0.3134 -0.1009
  184SOL    HW2  809   2.676   0.982   0.799  0.8744 -0.2877 -0.0506
  184SOL    HW3  810   2.762   1.062   0.894 -1.2178  0.2165  1.4379
  184SOL    MW4  811   2.685   1.029   0.872 -0.6437 -0.2384  0.1132
  185SOL     OW  812   2.071   0.601   1.000 -0.3277 -0.1110 -0.3786
  185SOL    HW2  813   2.074   0.609   0.904  0.1460 -0.2848 -0.3848
  185SOL    HW3  814   2.157   0.631   1.028 -0.8576  0.9827  0.0552
  185SOL    MW4  815   2.083   0.606   0.991 -0.3338  0.0060 -0.3278
  186SOL     OW  816   2.616   0.880   1.108 -1.0041 -0.5052  0.5141
  186SOL    HW2  817   2.640   0.921   1.024 -0.9360 -0.6254  0.4662
  186SOL    HW3  818   2.619   0.952   1.171 -2.0824 -0.1962  0.2103
  186SOL    MW4  819   2.620   0.895   1.105 -1.1444 -0.4828  0.4649
  187SOL     OW  820   3.229   1.947   0.891  0.1529 -0.0546  0.3818
  187SOL    HW2  821   3.198   1.967   0.803  0.1679 -0.1149  0.3736
  187SOL    HW3  822   3.198   2.020   0.944  0.8102  0.3573  0.1935
  187SOL    MW4  823   3.221   1.959   0.886  0.2623 -0.0119  0.3517
  188SOL     OW  824   3.308   3.444   0.321  0.8930  0.0855  0.3318
  188SOL    HW2  825   3.233   3.391   0.347  0.1078  1.4293  0.8703
  188SOL    HW3  826   3.271   3.531   0.306  2.1379  0.4986 -0.4728
  188SOL    MW4  827   3.293   3.449   0.323  0.9537  0.3338  0.2950
  189SOL     OW  828   2.153   2.335   0.967  0.5412 -0.1733 -0.0932
  189SOL    HW2  829   2.178   2.341   0.875  0.1153 -0.6444 -0.2478
  189SOL    HW3  830   2.162   2.424   1.001  0.4404  0.0691 -0.6943
  189SOL    MW4  831   2.157   2.347   0.959  0.4768 -0.1669 -0.1967
  190SOL     OW  832   3.565   2.086   0.714  0.7033  0.1627 -0.4717
  190SOL    HW2  833   3.482   2.133   0.708  0.3263 -0.4248  0.0719
  190SOL    HW3  834   3.545   2.009   0.768  1.2714 -0.6324 -1.3552
  190SOL    MW4  835   3.551   2.082   0.721  0.7153 -0.0477 -0.5245
  191SOL     OW  836   3.474   3.038   1.062 -0.1251 -0.4085  0.4676
  191SOL    HW2  837   3.392   3.067   1.022  0.1861  0.2040  0.2752
  191SOL    HW3  838   3.450   3.017   1.153 -0.6080 -0.8039  0.2351
  191SOL    MW4  839   3.460   3.039   1.069 -0.1431 -0.4053  0.4172
  192SOL     OW  840   2.700   4.207   0.491  0.2307 -0.2403 -0.3037
  192SOL    HW2  841   2.644   4.269   0.536  0.0728  0.3891 -1.4035
  192SOL    HW3  842   2.763   4.261   0.443  0.0054 -0.9426 -1.3840
  192SOL    MW4  843   2.701   4.222   0.490  0.1669 -0.2384 -0.5901
  193SOL     OW  844   2.844   4.402   0.978 -0.4798 -0.6384  0.1345
  193SOL    HW2  845   2.900   4.414   1.055  0.6182  0.0049 -0.7546
  193SOL    HW3  846   2.833   4.490   0.942 -0.1557 -1.0535 -1.0440
  193SOL    MW4  847   2.850   4.415   0.983 -0.2861 -0.6199 -0.1431
  194SOL     OW  848   4.282   0.193   1.583  0.1286  0.5200  0.3244
  194SOL    HW2  849   4.275   0.248   1.505 -1.2068 -0.5141 -0.2844
  194SOL    HW3  850   4.306   0.107   1.550 -2.0359 -0.3161  0.9345
  194SOL    MW4  851   4.284   0.189   1.568 -0.3338  0.2742  0.3219
  195SOL     OW  852   3.851   3.042   1.196 -0.0762 -0.9070  0.3542
  195SOL    HW2  853   3.799   3.112   1.157  1.0574 -0.1789  0.1497
  195SOL    HW3  854   3.900   3.085   1.266  0.1590 -1.6270  0.6216
  195SOL    MW4  855   3.850   3.057   1.200  0.1192 -0.9060  0.3695
  196SOL     OW  856   3.908   3.664   0.820  0.3390 -0.1870  0.6651
  196SOL    HW2  857   3.933   3.736   0.877  0.5366 -0.4185  0.8662
  196SOL    HW3  858   3.931   3.692   0.732 -0.2685  0.2907  0.6579
  196SOL    MW4  859   3.914   3.677   0.816  0.2861 -0.1431  0.6855
  197SOL     OW  860   2.983   4.650   0.550 -0.4966  0.2260 -0.3016
  197SOL    HW2  861   3.001   4.727   0.605 -1.7966  0.7837 -0.6119
  197SOL    HW3  862   2.989   4.683   0.461  0.3200 -0.3406 -0.4532
  197SOL    MW4  863   2.986   4.665   0.546 -0.5722  0.2384 -0.3576
  198SOL     OW  864   2.360   4.168   1.029  0.1089 -0.5094 -0.2423
  198SOL    HW2  865   2.367   4.240   0.966 -1.0276 -1.0495 -0.9816
  198SOL    HW3  866   2.404   4.200   1.107  0.4734  0.6306 -0.8950
  198SOL    MW4  867   2.367   4.182   1.031  0.0000 -0.4292 -0.4411
  199SOL     OW  868   3.070   4.524   0.246 -1.0255 -0.2084 -0.0528
  199SOL    HW2  869   3.076   4.595   0.181 -1.3477 -0.6650 -0.6152
  199SOL    HW3  870   3.135   4.546   0.312 -1.2016  0.7459 -0.1543
  199SOL    MW4  871   3.079   4.536   0.246 -1.0967 -0.0954 -0.1401
  200SOL     OW  872   3.245   0.791   0.593 -0.0370 -0.2075  0.4007
  200SOL    HW2  873   3.169   0.826   0.547  0.3979  0.6738  0.2860
  200SOL    HW3  874   3.260   0.852   0.664  0.2180 -0.6837  0.7569
  200SOL    MW4  875   3.237   0.804   0.596  0.0477 -0.1609  0.4351
  201SOL     OW  876   3.588   0.347   0.732  0.1662 -0.5567  0.0648
  201SOL    HW2  877   3.540   0.426   0.707  0.0212 -1.1841 -1.6376
  201SOL    HW3  878   3.621   0.312   0.649  1.6046 -1.3960  0.9957
  201SOL    MW4  879   3.586   0.353   0.718  0.3338 -0.7480 -0.0358
  202SOL     OW  880   3.472   1.397   0.769 -0.1923  0.6341 -0.0030
  202SOL    HW2  881   3.546   1.338   0.778 -0.2909  0.6591  0.8067
  202SOL    HW3  882   3.509   1.476   0.731  0.2843  0.8406  0.9000
  202SOL    MW4  883   3.486   1.400   0.765 -0.1431  0.6557  0.2205
  203SOL     OW  884   3.611   0.783   0.674  0.5371 -0.1879 -0.1162
  203SOL    HW2  885   3.571   0.699   0.653  2.3953 -0.8994 -0.8271
  203SOL    HW3  886   3.701   0.761   0.699  0.2757  1.3295  2.2057
  203SOL    MW4  887   3.618   0.769   0.674  0.7153 -0.0775  0.0894
  204SOL     OW  888   0.252   1.609   0.569 -0.5831  0.6628 -0.3336
  204SOL    HW2  889   0.298   1.580   0.647  0.6735  0.8214 -0.9956
  204SOL    HW3  890   0.284   1.551   0.499 -0.0422  1.9042 -1.1291
  204SOL    MW4  891   0.262   1.598   0.570 -0.3427  0.8345 -0.5364
  205SOL     OW  892   0.206   1.890   0.588  1.2324  0.3637  0.2297
  205SOL    HW2  893   0.117   1.895   0.622  0.9355 -0.4056 -0.4286
  205SOL    HW3  894   0.225   1.797   0.582  0.8697  0.4808 -2.7853
  205SOL    MW4  895   0.197   1.879   0.591  1.1444  0.2861 -0.2563
  206SOL     OW  896   0.518   2.226   0.399  0.2233  0.8447  0.5198
  206SOL    HW2  897   0.465   2.147   0.388  0.8055  0.4596  0.2612
  206SOL    HW3  898   0.606   2.201   0.372 -0.1748  2.3019 -2.1589
  206SOL    MW4  899   0.522   2.212   0.394  0.2444  0.9537  0.1371
  207SOL     OW  900   4.460   1.918   0.739  0.7317  0.1755 -0.6376
  207SOL    HW2  901   4.401   1.957   0.803  0.5693 -0.6079 -0.3230
  207SOL    HW3  902   4.477   1.829   0.772  2.2497  0.4726 -0.6154
  207SOL    MW4  903   4.455   1.911   0.752  0.9060  0.1073 -0.5901
  208SOL     OW  904   2.389   0.780   0.556 -0.3523  0.1899  0.2181
  208SOL    HW2  905   2.421   0.756   0.643  0.2457 -0.5794 -0.2235
  208SOL    HW3  906   2.381   0.876   0.560 -0.3647  0.1569  1.1204
  208SOL    MW4  907   2.392   0.790   0.568 -0.2623  0.0834  0.2742
  209SOL     OW  908   0.208   1.694   1.027 -0.9174  0.1446  0.0051
  209SOL    HW2  909   0.169   1.770   1.071 -1.3502  0.0291 -0.1847
  209SOL    HW3  910   0.141   1.665   0.966 -0.0169  0.7661 -1.2835
  209SOL    MW4  911   0.194   1.700   1.025 -0.8553  0.2027 -0.2027
  210SOL     OW  912   3.285   2.858   0.729 -0.1119 -0.3372 -0.3572
  210SOL    HW2  913   3.334   2.844   0.811 -0.8878  0.1885  0.1857
  210SOL    HW3  914   3.353   2.877   0.664  0.3138  1.5419  0.6417
  210SOL    MW4  915   3.301   2.859   0.731 -0.1431 -0.0238 -0.1490
  211SOL     OW  916   3.003   1.219   0.640 -0.4180 -0.3377 -0.2878
  211SOL    HW2  917   2.993   1.300   0.589  0.0116  0.5712  1.0844
  211SOL    HW3  918   3.094   1.193   0.626 -0.4562 -0.3672 -0.3700
  211SOL    MW4  919   3.014   1.226   0.632 -0.3815 -0.2265 -0.1192
  212SOL     OW  920   2.861   2.768   0.721 -0.2078  0.1246 -0.6029
  212SOL    HW2  921   2.894   2.682   0.746 -0.2189  0.0617 -0.7703
  212SOL    HW3  922   2.913   2.793   0.645 -1.0949 -0.3023 -1.3558
  212SOL    MW4  923   2.872   2.760   0.714 -0.3338  0.0715 -0.7272
  213SOL     OW  924   2.789   2.295   0.439  0.2539 -0.6701 -0.2982
  213SOL    HW2  925   2.810   2.362   0.374  0.7595 -0.2812  0.2632
  213SOL    HW3  926   2.827   2.215   0.402  1.0575 -0.3478 -0.1875
  213SOL    MW4  927   2.797   2.293   0.425  0.4292 -0.5484 -0.2086
  214SOL     OW  928   3.098   2.835   0.514 -0.0949  0.0611 -0.0406
  214SOL    HW2  929   3.136   2.902   0.457 -0.8299  0.1662 -0.4151
  214SOL    HW3  930   3.161   2.824   0.585 -0.4614  1.8278  0.5352
  214SOL    MW4  931   3.111   2.842   0.516 -0.2384  0.2861 -0.0179
  215SOL     OW  932   3.316   2.371   0.315 -0.8805 -0.5039  0.7318
  215SOL    HW2  933   3.311   2.318   0.395 -1.2465 -1.0249  0.3525
  215SOL    HW3  934   3.258   2.445   0.332 -0.8093 -0.5044  1.0518
  215SOL    MW4  935   3.308   2.374   0.328 -0.9298 -0.5722  0.7242
  216SOL     OW  936   3.453   3.437   0.571  0.4540 -0.9343  0.5754
  216SOL    HW2  937   3.412   3.452   0.486  0.6578 -0.9712  0.4677
  216SOL    HW3  938   3.430   3.347   0.594 -1.5550 -0.1501  1.6116
  216SOL    MW4  939   3.444   3.427   0.563  0.2384 -0.8106  0.6914
  217SOL     OW  940   4.165   0.931   1.000  0.6799  0.6515  0.3284
  217SOL    HW2  941   4.243   0.880   1.024  0.9087  1.3009  0.9556
  217SOL    HW3  942   4.092   0.869   1.008  1.2395 -0.1556 -0.9449
  217SOL    MW4  943   4.166   0.916   1.004  0.7629  0.6258  0.2384
  218SOL     OW  944   2.920   2.502   0.763 -0.0051 -0.4585  0.0131
  218SOL    HW2  945   2.846   2.442   0.776  0.4278 -0.9522  0.0146
  218SOL    HW3  946   2.967   2.466   0.688 -0.6600  0.7532 -0.9574
  218SOL    MW4  947   2.916   2.489   0.755  0.0000 -0.3576 -0.1192
  219SOL     OW  948   3.944   4.565   0.968  0.2942 -0.3256 -0.2851
  219SOL    HW2  949   3.987   4.649   0.986 -0.7435  0.3374 -0.9601
  219SOL    HW3  950   3.915   4.534   1.054  0.2763  0.2110 -0.0845
  219SOL    MW4  951   3.946   4.572   0.982  0.1669 -0.1907 -0.3397
  220SOL     OW  952   4.197   3.503   1.505 -0.6387 -0.4790  0.3422
  220SOL    HW2  953   4.263   3.500   1.435 -1.4835 -0.2847 -0.4378
  220SOL    HW3  954   4.242   3.546   1.578  0.0372 -0.2714 -0.2108
  220SOL    MW4  955   4.212   3.508   1.506 -0.6199 -0.4292  0.1669
  221SOL     OW  956   2.552   4.359   1.163 -0.7615  0.0025  0.0144
  221SOL    HW2  957   2.588   4.273   1.186  0.0789  0.4611  0.2989
  221SOL    HW3  958   2.609   4.391   1.093 -0.3018  0.9546  0.8208
  221SOL    MW4  959   2.564   4.352   1.157 -0.5960  0.1431  0.1669
  222SOL     OW  960   2.713   4.487   0.553 -0.5305 -0.6344 -0.0977
  222SOL    HW2  961   2.648   4.557   0.547  0.0306 -0.0638  0.2933
  222SOL    HW3  962   2.797   4.531   0.541 -0.1732 -1.1982  0.2308
  222SOL    MW4  963   2.715   4.502   0.551 -0.3815 -0.5722  0.0000
  223SOL     OW  964   3.759   1.554   0.910 -0.2425 -0.1770 -0.3252
  223SOL    HW2  965   3.799   1.502   0.980 -0.6492 -1.4211 -1.0352
  223SOL    HW3  966   3.833   1.602   0.872  0.1572 -0.3231  0.2424
  223SOL    MW4  967   3.774   1.554   0.914 -0.2384 -0.3457 -0.3517
  224SOL     OW  968   4.014   1.634   0.788 -0.0488 -0.0961 -0.2178
  224SOL    HW2  969   4.087   1.641   0.850  0.7906 -0.0086 -1.2313
  224SOL    HW3  970   3.979   1.723   0.781 -0.2169 -0.1302  0.2393
  224SOL    MW4  971   4.019   1.647   0.795  0.0477 -0.0834 -0.2861
  225SOL     OW  972   3.477   2.096   0.204  0.0880 -0.1348  0.1755
  225SOL    HW2  973   3.479   2.030   0.273  0.2622 -0.5767 -0.2480
  225SOL    HW3  974   3.391   2.085   0.163  0.5898 -0.8857 -0.6564
  225SOL    MW4  975   3.466   2.086   0.208  0.1907 -0.2861  0.0089
  226SOL     OW  976   3.271   1.127   0.620  0.2420 -0.7148  0.3227
  226SOL    HW2  977   3.279   1.073   0.699  0.0272 -1.0744  0.0995
  226SOL    HW3  978   3.359   1.131   0.585  0.4129 -0.2971  0.7698
  226SOL    MW4  979   3.283   1.120   0.626  0.2384 -0.7033  0.3517
  227SOL     OW  980   0.010   1.422   0.698 -0.0461 -0.2496 -0.0336
  227SOL    HW2  981  -0.080   1.437   0.669  0.4605  0.1470 -1.4052
  227SOL    HW3  982   0.063   1.481   0.644  0.9649  0.1009  1.3534
  227SOL    MW4  983   0.005   1.432   0.687  0.1504 -0.1550 -0.0298
  228SOL     OW  984   4.159   3.860   0.611  0.4748  0.3956  0.0027
  228SOL    HW2  985   4.068   3.888   0.620  0.5049  0.3084  0.0974
  228SOL    HW3  986   4.160   3.808   0.531  0.0989 -1.2211  1.0514
  228SOL    MW4  987   4.147   3.857   0.602  0.4292  0.1907  0.1550
  229SOL     OW  988   0.396   2.453   0.465 -0.2630  0.5749 -0.0295
  229SOL    HW2  989   0.367   2.416   0.548 -0.4184  0.3123 -0.2103
  229SOL    HW3  990   0.442   2.382   0.421  0.5908  1.0011  0.2061
  229SOL    MW4  991   0.398   2.439   0.470 -0.1699  0.6199 -0.0238
  230SOL     OW  992   0.173   2.544   0.312 -0.4964  0.8894 -0.0400
  230SOL    HW2  993   0.251   2.498   0.343 -0.5103  0.0392 -1.2645
  230SOL    HW3  994   0.101   2.484   0.331 -0.5640  0.5858 -1.2982
  230SOL    MW4  995   0.174   2.530   0.319 -0.5066  0.7153 -0.3725
  231SOL     OW  996   3.186   1.494   0.655 -0.6974 -0.3101 -0.2511
  231SOL    HW2  997   3.203   1.421   0.714 -0.7439 -0.4419 -0.3982
  231SOL    HW3  998   3.189   1.572   0.711 -0.4532 -0.3971 -0.1297
  231SOL    MW4  999   3.189   1.495   0.670 -0.6676 -0.3457 -0.2503
  232SOL     OW 1000   3.498   1.837   0.830  0.0974  0.3604 -0.1365
  232SOL    HW2 1001   3.521   1.761   0.776  0.5056  0.7583 -0.5358
  232SOL    HW3 1002   3.405   1.853   0.812 -0.3258 -0.8451  0.9470
  232SOL    MW4 1003   3.489   1.829   0.820  0.0715  0.2503 -0.0477
  233SOL     OW 1004   0.357   1.978   0.352  1.2283  0.4091 -0.1567
  233SOL    HW2 1005   0.300   1.955   0.426  1.2012  0.0299 -0.2952
  233SOL    HW3 1006   0.364   1.897   0.301  1.8190  0.4804 -0.1946
  233SOL    MW4 1007   0.350   1.965   0.355  1.2994  0.3576 -0.1818
  234SOL     OW 1008   3.079   1.676   0.087 -0.3975 -0.1686 -0.4093
  234SOL    HW2 1009   3.134   1.717   0.155  0.4345  0.0548 -1.2113
  234SOL    HW3 1010   3.026   1.612   0.135  0.3058 -0.1191  0.4248
  234SOL    MW4 1011   3.079   1.673   0.103 -0.1907 -0.1311 -0.4061
  235SOL     OW 1012   3.805   1.846   0.791  0.1204 -0.0857 -0.2466
  235SOL    HW2 1013   3.876   1.907   0.809 -0.5145  0.7740 -0.7258
  235SOL    HW3 1014   3.782   1.862   0.699  0.2446 -1.3621 -0.5136
  235SOL    MW4 1015   3.811   1.856   0.781  0.0477 -0.1431 -0.3457
  236SOL     OW 1016   2.885   2.033   0.375 -0.0219 -0.4400  0.5010
  236SOL    HW2 1017   2.796   2.009   0.404  0.5174 -1.2780  1.4504
  236SOL    HW3 1018   2.888   2.006   0.284 -0.5414 -0.9719  0.6421
  236SOL    MW4 1019   2.873   2.026   0.367  0.0000 -0.6199  0.6437
  237SOL     OW 1020   3.216   1.848   0.590  0.6679  0.0907  0.2107
  237SOL    HW2 1021   3.212   1.925   0.533  0.8962 -0.0943 -0.0518
  237SOL    HW3 1022   3.136   1.799   0.569  1.0267 -0.2321 -0.3478
  237SOL    MW4 1023   3.205   1.852   0.580  0.7629  0.0358  0.0954
  238SOL     OW 1024   0.365   4.138   0.913 -0.3449  0.4240  0.9427
  238SOL    HW2 1025   0.427   4.210   0.928 -0.9614  1.0610  0.6911
  238SOL    HW3 1026   0.419   4.066   0.881  0.1359  1.1213  0.2302
  238SOL    MW4 1027   0.380   4.138   0.911 -0.3606  0.6199  0.8106
  239SOL     OW 1028   3.931   1.118   0.880  0.4667  0.1361  0.0319
  239SOL    HW2 1029   3.877   1.057   0.931  0.2426  0.7023  0.4836
  239SOL    HW3 1030   4.004   1.065   0.849  0.2487 -0.3714  0.4296
  239SOL    MW4 1031   3.933   1.103   0.883  0.4292  0.1431  0.1371
  240SOL     OW 1032   2.929   2.237   0.102  0.0656  0.3944 -0.3851
  240SOL    HW2 1033   3.024   2.226   0.103 -0.0269 -0.4300  0.0583
  240SOL    HW3 1034   2.914   2.323   0.141  0.6259  0.1903  0.3361
  240SOL    MW4 1035   2.940   2.247   0.108  0.1431  0.2623 -0.2317
  241SOL     OW 1036   0.001   4.249   1.764  0.3334 -0.1890  0.8653
  241SOL    HW2 1037  -0.038   4.275   1.680 -1.2796 -0.1135  1.6476
  241SOL    HW3 1038   0.095   4.253   1.748  0.0437  0.4662 -0.7649
  241SOL    MW4 1039   0.008   4.253   1.750  0.0813 -0.0477  0.7510
  242SOL     OW 1040   3.417   3.949   0.686 -0.3784  0.6492  0.0240
  242SOL    HW2 1041   3.420   3.871   0.742 -1.2861  0.7669  0.2533
  242SOL    HW3 1042   3.482   3.932   0.618 -0.5038 -0.2765  0.1277
  242SOL    MW4 1043   3.426   3.936   0.685 -0.5245  0.5245  0.0656
  243SOL     OW 1044   4.486   1.662   0.852  0.5936 -0.0397  0.3042
  243SOL    HW2 1045   4.493   1.578   0.807 -1.5713 -0.3045  0.4673
  243SOL    HW3 1046   4.406   1.655   0.904  0.7971  1.7265  1.0162
  243SOL    MW4 1047   4.476   1.650   0.853  0.3338  0.1669  0.4232
  244SOL     OW 1048   4.271   4.286   1.532  0.6969 -0.3588  0.5365
  244SOL    HW2 1049   4.284   4.267   1.439 -2.4897 -1.8431  0.3988
  244SOL    HW3 1050   4.244   4.377   1.535 -1.2613 -0.9391 -0.0843
  244SOL    MW4 1051   4.269   4.295   1.520  0.0000 -0.6199  0.4292
  245SOL     OW 1052   4.354   1.362   0.976 -0.4943  0.1230 -0.3617
  245SOL    HW2 1053   4.271   1.322   0.998  0.0166 -0.8475 -0.3740
  245SOL    HW3 1054   4.340   1.400   0.889 -0.5614 -0.9597 -0.8132
  245SOL    MW4 1055   4.341   1.362   0.967 -0.4768 -0.1550 -0.4232
  246SOL     OW 1056   0.581   1.146   0.508 -0.0029  0.6067  0.2351
  246SOL    HW2 1057   0.544   1.062   0.535 -0.8393  0.9673  0.1962
  246SOL    HW3 1058   0.596   1.137   0.414  1.5080 -0.0762  0.5481
  246SOL    MW4 1059   0.578   1.134   0.499  0.0834  0.5603  0.2742
  247SOL     OW 1060   0.101   0.249   1.860 -0.4685 -0.5682  0.3875
  247SOL    HW2 1061   0.120   0.336   1.896 -0.2881 -1.0575  1.4967
  247SOL    HW3 1062   0.101   0.261   1.765 -0.2269  0.5929  0.5412
  247SOL    MW4 1063   0.104   0.262   1.852 -0.4128 -0.4768  0.5722
  248SOL     OW 1064   4.118   0.537   1.469 -0.2163  0.7702 -0.0111
  248SOL    HW2 1065   4.121   0.488   1.551 -1.0565  1.7953  0.6128
  248SOL    HW3 1066   4.070   0.480   1.409  1.1570 -0.3738 -0.0537
  248SOL    MW4 1067   4.112   0.523   1.472 -0.2384  0.7510  0.0596
  249SOL     OW 1068   3.851   1.155   1.184 -0.1889  0.1243  0.1045
  249SOL    HW2 1069   3.905   1.231   1.162 -0.0940 -0.1770 -0.5836
  249SOL    HW3 1070   3.782   1.191   1.240  0.4240  0.5766  0.6136
  249SOL    MW4 1071   3.849   1.170   1.189 -0.0715  0.1431  0.0715
  250SOL     OW 1072   4.073   1.363   1.323 -0.1001  0.1719  0.0564
  250SOL    HW2 1073   4.099   1.287   1.375 -0.4151 -0.5891 -0.8865
  250SOL    HW3 1074   4.156   1.406   1.302  0.0518  0.7069  1.5994
  250SOL    MW4 1075   4.088   1.358   1.327 -0.0954  0.1431  0.1431
  251SOL     OW 1076   0.406   0.289   0.750 -0.7090  0.3939 -0.2342
  251SOL    HW2 1077   0.468   0.300   0.822 -0.8237 -0.5346  0.0033
  251SOL    HW3 1078   0.461   0.286   0.672 -0.5668  1.1579 -0.1675
  251SOL    MW4 1079   0.421   0.290   0.749 -0.7033  0.3695 -0.1848
  252SOL     OW 1080   0.307   0.687   0.905  0.1416  0.1944  0.1140
  252SOL    HW2 1081   0.274   0.660   0.819 -1.1469  0.3236  0.5658
  252SOL    HW3 1082   0.255   0.765   0.926  2.1021  1.5545 -0.0665
  252SOL    MW4 1083   0.295   0.694   0.896  0.2325  0.3934  0.1490
  253SOL     OW 1084   0.388   2.261   1.001 -0.2107  0.3536  0.3599
  253SOL    HW2 1085   0.364   2.189   1.059 -0.4188 -0.2651 -0.4765
  253SOL    HW3 1086   0.477   2.285   1.029  0.2126 -0.8545  0.0118
  253SOL    MW4 1087   0.397   2.255   1.013 -0.1818  0.0954  0.2146
  254SOL     OW 1088   0.915   1.618   0.563  0.1575  0.0620  0.5661
  254SOL    HW2 1089   0.823   1.617   0.538  0.1074 -0.0332  0.7526
  254SOL    HW3 1090   0.923   1.692   0.623  0.0945 -0.2566  0.9672
  254SOL    MW4 1091   0.904   1.627   0.568  0.1431  0.0000  0.6437
  255SOL     OW 1092   4.109   2.207   0.908 -0.4946  0.2405 -0.1112
  255SOL    HW2 1093   4.184   2.162   0.948 -0.3671  0.3491 -0.2370
  255SOL    HW3 1094   4.148   2.280   0.860 -0.6540  0.0211 -0.5984
  255SOL    MW4 1095   4.124   2.211   0.907 -0.4768  0.2146 -0.1848
  256SOL     OW 1096   4.248   2.284   0.578 -0.9324 -0.1221  0.1892
  256SOL    HW2 1097   4.320   2.327   0.532  0.5447  0.7588  3.3987
  256SOL    HW3 1098   4.214   2.350   0.638 -2.7938 -1.3217  0.4671
  256SOL    MW4 1099   4.253   2.298   0.580 -0.9537 -0.1669  0.6497
  257SOL     OW 1100   4.136   2.232   0.096  0.1245  0.2246  0.3221
  257SOL    HW2 1101   4.046   2.236   0.064  0.4057  1.4425 -0.2955
  257SOL    HW3 1102   4.127   2.218   0.191 -0.7040 -0.4130  0.1561
  257SOL    MW4 1103   4.123   2.231   0.104  0.0954  0.3099  0.2183
  258SOL     OW 1104   3.286   1.939   9.380 -0.9948  0.8744 -0.0691
  258SOL    HW2 1105   3.305   1.931   9.286 -0.1718  0.4266  0.1898
  258SOL    HW3 1106   3.286   1.848   9.411  1.1801  1.2263  0.8653
  258SOL    MW4 1107   3.288   1.926   9.371 -0.6199  0.8702  0.0954
  259SOL     OW 1108   4.422   2.390   0.381 -0.3661  0.2627  0.5250
  259SOL    HW2 1109   4.431   2.314   0.324  0.7167  0.4928  0.3809
  259SOL    HW3 1110   4.342   2.433   0.350 -0.9420 -0.7654  0.4254
  259SOL    MW4 1111   4.413   2.386   0.369 -0.3338  0.1669  0.4917
  260SOL     OW 1112   3.197   2.155   0.121 -0.3476 -0.6719 -0.1352
  260SOL    HW2 1113   3.179   2.105   0.201 -0.5381 -0.5380 -0.1026
  260SOL    HW3 1114   3.246   2.231   0.151 -2.0156  0.3140  0.1043
  260SOL    MW4 1115   3.201   2.158   0.135 -0.6199 -0.5245 -0.0983
  261SOL     OW 1116   3.471   2.918   0.522 -0.0370  0.1341 -0.1156
  261SOL    HW2 1117   3.545   2.975   0.546 -0.0946  0.0508  0.2324
  261SOL    HW3 1118   3.512   2.833   0.504 -0.3023 -0.4889  2.2407
  261SOL    MW4 1119   3.486   2.914   0.523 -0.0715  0.0238  0.2444
  262SOL     OW 1120   3.783   3.341   0.691 -0.2514  0.1617  0.1884
  262SOL    HW2 1121   3.771   3.411   0.626  0.0704 -0.2528 -0.3428
  262SOL    HW3 1122   3.744   3.264   0.651  0.7821 -0.3212  0.1001
  262SOL    MW4 1123   3.776   3.340   0.677 -0.0954  0.0715  0.1132
  263SOL     OW 1124   3.979   3.451   0.979 -0.3616  0.0084  0.0072
  263SOL    HW2 1125   3.887   3.427   0.988 -0.5223  0.0435 -1.6615
  263SOL    HW3 1126   3.978   3.532   0.929  0.5991 -0.0029 -0.0218
  263SOL    MW4 1127   3.967   3.458   0.974 -0.2623  0.0238 -0.2205
  264SOL     OW 1128   3.674   3.456   0.944 -0.5343  0.1467  0.1744
  264SOL    HW2 1129   3.714   3.434   0.860 -0.0460  1.0549  0.1576
  264SOL    HW3 1130   3.679   3.375   0.995 -0.3322 -0.2637 -0.4966
  264SOL    MW4 1131   3.680   3.442   0.940 -0.4530  0.2146  0.0834
  265SOL     OW 1132   0.421   4.327   1.893  0.6159  0.4324  0.0496
  265SOL    HW2 1133   0.351   4.389   1.914  0.4517 -0.4362  2.1586
  265SOL    HW3 1134   0.455   4.356   1.808 -0.5466  2.4247  0.2788
  265SOL    MW4 1135   0.417   4.339   1.884  0.4381  0.5245  0.3695
  266SOL     OW 1136   0.123   3.979   1.486 -0.2376 -0.0457  0.1969
  266SOL    HW2 1137   0.076   3.931   1.555 -0.2663  0.7011  0.6835
  266SOL    HW3 1138   0.070   4.058   1.471  0.7324  0.7048  0.5999
  266SOL    MW4 1139   0.110   3.983   1.493 -0.1140  0.1431  0.3219
  267SOL     OW 1140   4.230   0.021   1.185  0.6029 -0.0980  0.2746
  267SOL    HW2 1141   4.282   0.096   1.154 -0.7804  0.4605 -0.6785
  267SOL    HW3 1142   4.246  -0.047   1.119 -0.9381  0.5957 -0.7488
  267SOL    MW4 1143   4.239   0.022   1.172  0.2384  0.0702  0.0119
  268SOL     OW 1144   0.031   1.151   1.269 -0.3339  0.4562 -0.1457
  268SOL    HW2 1145  -0.011   1.065   1.280 -1.7124  0.9150 -1.7083
  268SOL    HW3 1146   0.093   1.138   1.198 -0.4867  0.7224 -0.3158
  268SOL    MW4 1147   0.033   1.138   1.261 -0.5364  0.5484 -0.3695
  269SOL     OW 1148   0.117   0.628   0.707 -0.6190  0.6009  0.5179
  269SOL    HW2 1149   0.122   0.547   0.758 -1.3361  0.9924  1.2101
  269SOL    HW3 1150   0.139   0.602   0.617 -1.6799 -0.5010  0.5878
  269SOL    MW4 1151   0.120   0.614   0.702 -0.8538  0.5126  0.6199
  270SOL     OW 1152   4.399   1.398   1.262 -1.1417 -0.3422  0.1179
  270SOL    HW2 1153   4.403   1.409   1.167  0.3621  0.0756  0.2399
  270SOL    HW3 1154   4.434   1.310   1.277 -2.3244 -0.7996  0.2200
  270SOL    MW4 1155   4.404   1.388   1.251 -1.0967 -0.3457  0.1431
  271SOL     OW 1156   0.899   0.582   0.376  0.1866 -0.2058 -0.0245
  271SOL    HW2 1157   0.816   0.624   0.354  0.5108  0.2474 -0.3688
  271SOL    HW3 1158   0.928   0.628   0.455  0.4424  0.0811 -0.2872
  271SOL    MW4 1159   0.892   0.594   0.384  0.2623 -0.1073 -0.1043
  272SOL     OW 1160   0.093   0.086   0.673 -0.2854  0.7554  0.3037
  272SOL    HW2 1161   0.180   0.053   0.696 -0.0052  1.4887  0.3101
  272SOL    HW3 1162   0.085   0.168   0.722 -1.2649  0.3284  0.8637
  272SOL    MW4 1163   0.104   0.093   0.683 -0.3777  0.7965  0.3755
  273SOL     OW 1164   0.292   4.632   0.843 -0.0190  0.8951 -0.9162
  273SOL    HW2 1165   0.384   4.656   0.832  0.0837  0.4653 -1.0315
  273SOL    HW3 1166   0.293   4.536   0.849 -0.3975  0.9963 -0.2433
  273SOL    MW4 1167   0.304   4.622   0.843 -0.0596  0.8583 -0.8464
  274SOL     OW 1168   0.685   0.495   1.216  0.0659 -0.4090 -0.0733
  274SOL    HW2 1169   0.714   0.571   1.165 -1.0744 -0.5824 -0.9839
  274SOL    HW3 1170   0.631   0.445   1.155  0.0143 -1.4440  0.8327
  274SOL    MW4 1171   0.681   0.498   1.201 -0.0894 -0.5692 -0.0715
  275SOL     OW 1172   0.995   1.245   0.926 -0.4987 -0.1047  0.0834
  275SOL    HW2 1173   0.936   1.192   0.872 -0.2453  1.0513 -1.3236
  275SOL    HW3 1174   1.078   1.198   0.924 -0.7883 -0.6111  0.2881
  275SOL    MW4 1175   0.998   1.232   0.918 -0.5007 -0.0238 -0.0775
  276SOL     OW 1176   0.615   1.413   0.556 -0.0300  0.3549 -0.0153
  276SOL    HW2 1177   0.586   1.328   0.521 -0.7800  0.5763  0.0874
  276SOL    HW3 1178   0.711   1.406   0.558 -0.0210 -0.0550 -1.1419
  276SOL    MW4 1179   0.624   1.401   0.551 -0.1311  0.3457 -0.1490
  277SOL     OW 1180   0.850   1.093   0.725  0.0854  0.3804 -0.6321
  277SOL    HW2 1181   0.777   1.075   0.784 -0.0625  0.4896 -0.7884
  277SOL    HW3 1182   0.836   1.033   0.651  0.2459  0.2936 -0.5855
  277SOL    MW4 1183   0.839   1.083   0.723  0.0954  0.3815 -0.6437
  278SOL     OW 1184   0.874   1.100   1.256  0.3028  0.1688 -0.1366
  278SOL    HW2 1185   0.824   1.068   1.181 -0.1143  0.8054 -0.1153
  278SOL    HW3 1186   0.882   1.194   1.242  1.3524  0.0969 -0.0183
  278SOL    MW4 1187   0.869   1.108   1.244  0.3874  0.2503 -0.1073
  279SOL     OW 1188   0.722   1.713   0.885 -0.1895  0.5826  0.6105
  279SOL    HW2 1189   0.725   1.617   0.889 -0.3863  0.5456 -0.1393
  279SOL    HW3 1190   0.629   1.733   0.877 -0.1466  0.8442  0.6413
  279SOL    MW4 1191   0.710   1.703   0.885 -0.2086  0.6199  0.5126
  280SOL     OW 1192   0.284   2.280   0.727  0.8305 -0.3932 -0.1229
  280SOL    HW2 1193   0.263   2.365   0.764  1.2210 -0.5683  0.4587
  280SOL    HW3 1194   0.343   2.240   0.791  1.1407 -0.8859 -0.6904
  280SOL    MW4 1195   0.289   2.286   0.740  0.9209 -0.4768 -0.1192
  281SOL     OW 1196   0.744   1.445   0.902  0.0823  0.0848 -0.0116
  281SOL    HW2 1197   0.772   1.413   0.988  0.2491 -0.0759 -0.1148
  281SOL    HW3 1198   0.682   1.379   0.870  0.6467 -0.2827 -0.3630
  281SOL    MW4 1199   0.739   1.432   0.909  0.1788  0.0119 -0.0715
  282SOL     OW 1200   0.867   2.490   1.085 -0.3082 -0.0313  0.4225
  282SOL    HW2 1201   0.810   2.497   1.008 -0.8800  0.3605  0.8870
  282SOL    HW3 1202   0.923   2.414   1.067 -0.6912 -0.1527 -0.1764
  282SOL    MW4 1203   0.867   2.481   1.072 -0.4351  0.0000  0.4053
  283SOL     OW 1204   0.575   2.692   1.199  0.1182  0.6805  0.0112
  283SOL    HW2 1205   0.669   2.712   1.207  0.3051  0.0729 -0.6755
  283SOL    HW3 1206   0.532   2.760   1.250  0.9541  0.7160  0.6666
  283SOL    MW4 1207   0.582   2.704   1.206  0.2563  0.5960  0.0000
  284SOL     OW 1208   3.896   2.579   0.148 -0.2971 -0.2823  0.2743
  284SOL    HW2 1209   3.929   2.647   0.090  0.5367 -1.3846 -0.5331
  284SOL    HW3 1210   3.963   2.572   0.217 -0.6840  0.1660  0.7093
  284SOL    MW4 1211   3.909   2.587   0.150 -0.2384 -0.3815  0.2250
  285SOL     OW 1212   4.182   2.461   0.804 -0.4968 -0.0974 -0.5008
  285SOL    HW2 1213   4.164   2.534   0.863 -0.3415 -0.1395 -0.4177
  285SOL    HW3 1214   4.271   2.477   0.772 -0.5690 -0.0572 -0.7513
  285SOL    MW4 1215   4.191   2.473   0.808 -0.4768 -0.0954 -0.5245
  286SOL     OW 1216   3.816   2.055   0.350  0.0900 -0.6655  0.1827
  286SOL    HW2 1217   3.783   2.127   0.295  0.3843 -1.1546 -0.6290
  286SOL    HW3 1218   3.895   2.090   0.390  0.4840 -0.6973 -0.5643
  286SOL    MW4 1219   3.822   2.069   0.348  0.2146 -0.7153 -0.0238
  287SOL     OW 1220   1.111   2.789   1.291  0.5433  0.2164 -1.0808
  287SOL    HW2 1221   1.126   2.771   1.384  0.8136  0.0827 -1.1522
  287SOL    HW3 1222   1.020   2.765   1.276  0.4895  0.2957 -0.8318
  287SOL    MW4 1223   1.101   2.783   1.301  0.5841  0.1907 -1.0490
  288SOL     OW 1224   3.505   2.645   0.461 -0.6067 -0.1700  0.1015
  288SOL    HW2 1225   3.458   2.620   0.382 -0.7984  0.6458 -0.0169
  288SOL    HW3 1226   3.443   2.630   0.533 -0.5158 -0.4612  0.0788
  288SOL    MW4 1227   3.491   2.639   0.460 -0.6199 -0.0954  0.0834
  289SOL     OW 1228   4.371   4.649   1.424  0.2532  0.8380  0.4854
  289SOL    HW2 1229   4.325   4.651   1.340 -0.2698 -0.6696  0.6999
  289SOL    HW3 1230   4.418   4.566   1.423  0.6307  1.0898  1.5706
  289SOL    MW4 1231   4.371   4.638   1.412  0.2384  0.7153  0.6437
  290SOL     OW 1232   4.417   2.704   0.251 -0.9200 -0.2697  0.2601
  290SOL    HW2 1233   4.503   2.668   0.272 -0.6571  0.4582  0.6808
  290SOL    HW3 1234   4.434   2.794   0.224 -1.5335 -0.0805  0.4917
  290SOL    MW4 1235   4.430   2.711   0.250 -0.9537 -0.1431  0.3442
  291SOL     OW 1236   1.003   2.737   0.671  0.4035  0.2189  0.0218
  291SOL    HW2 1237   0.914   2.713   0.694  0.4611  0.1615  0.1812
  291SOL    HW3 1238   1.035   2.789   0.744  0.3548  0.6068 -0.2204
  291SOL    MW4 1239   0.995   2.741   0.683  0.4053  0.2623  0.0119
  292SOL     OW 1240   0.215   0.138   1.045  0.5150  0.1878 -0.3044
  292SOL    HW2 1241   0.244   0.075   0.979  1.4465  0.8142 -0.4695
  292SOL    HW3 1242   0.204   0.086   1.125 -1.2094 -0.6925 -1.1002
  292SOL    MW4 1243   0.217   0.123   1.047  0.4098  0.1535 -0.4292
  293SOL     OW 1244   0.661   0.769   0.379  0.1536  0.7096  0.0198
  293SOL    HW2 1245   0.730   0.822   0.418  0.1649  0.7973 -0.1015
  293SOL    HW3 1246   0.582   0.793   0.427 -0.1042  1.9000 -0.9964
  293SOL    MW4 1247   0.660   0.779   0.390  0.1252  0.8821 -0.1281
  294SOL     OW 1248   0.268   0.409   1.454  0.3630 -0.3465  0.1686
  294SOL    HW2 1249   0.278   0.503   1.466  1.3091 -0.3323 -0.7536
  294SOL    HW3 1250   0.199   0.384   1.516  0.2523  0.9148  0.5315
  294SOL    MW4 1251   0.260   0.418   1.464  0.4709 -0.1788  0.0954
  295SOL     OW 1252   1.792   0.387   0.587  0.4183  0.3692  0.0414
  295SOL    HW2 1253   1.701   0.358   0.595  0.0889  1.4651  0.1958
  295SOL    HW3 1254   1.787   0.473   0.547  1.3186  0.9587  1.2082
  295SOL    MW4 1255   1.780   0.394   0.583  0.5007  0.5901  0.2146
  296SOL     OW 1256   0.136   0.341   0.793 -0.6096  0.5101  0.2386
  296SOL    HW2 1257   0.225   0.331   0.759 -0.6707  0.3199  0.1306
  296SOL    HW3 1258   0.146   0.330   0.888 -0.9027 -2.1667 -0.0304
  296SOL    MW4 1259   0.149   0.338   0.801 -0.6557  0.1311  0.1907
  297SOL     OW 1260   1.038   0.871   0.801  0.0102 -0.1973  0.0928
  297SOL    HW2 1261   1.002   0.805   0.742  0.0095 -0.9098  0.8953
  297SOL    HW3 1262   0.974   0.943   0.797 -0.5578 -0.6922  0.0643
  297SOL    MW4 1263   1.025   0.872   0.793 -0.0596 -0.3576  0.1907
  298SOL     OW 1264   1.145   1.309   1.510 -0.1337 -0.3916  0.3815
  298SOL    HW2 1265   1.174   1.267   1.429  1.4336  0.3931  0.5294
  298SOL    HW3 1266   1.180   1.254   1.580 -0.7732 -0.6269  0.5210
  298SOL    MW4 1267   1.153   1.296   1.508 -0.0119 -0.3219  0.4292
  299SOL     OW 1268   1.571   1.611   1.555 -0.0221  0.2061  0.0999
  299SOL    HW2 1269   1.624   1.558   1.616 -0.3902  0.6717  0.8204
  299SOL    HW3 1270   1.482   1.577   1.565 -0.0094 -0.0262 -0.5099
  299SOL    MW4 1271   1.567   1.599   1.565 -0.0715  0.2265  0.1073
  300SOL     OW 1272   0.889   1.311   0.548  0.1485  0.2931 -0.1889
  300SOL    HW2 1273   0.942   1.379   0.588  0.3290  0.5139 -0.7970
  300SOL    HW3 1274   0.878   1.245   0.617  0.5205  0.6383  0.1818
  300SOL    MW4 1275   0.894   1.311   0.562  0.2146  0.3695 -0.2205
  301SOL     OW 1276   1.321   1.408   0.946 -0.2843 -0.0540 -0.1401
  301SOL    HW2 1277   1.269   1.389   0.867  0.0299 -0.4411 -0.2512
  301SOL    HW3 1278   1.261   1.454   1.004 -0.6030 -0.0616 -0.4688
  301SOL    MW4 1279   1.306   1.411   0.943 -0.2742 -0.1073 -0.1967
  302SOL     OW 1280   1.415   1.344   1.219 -0.3668 -0.1774 -0.1752
  302SOL    HW2 1281   1.438   1.436   1.231 -0.8297 -0.1547  0.4459
  302SOL    HW3 1282   1.367   1.341   1.137 -1.0241  0.2560  0.1834
  302SOL    MW4 1283   1.412   1.356   1.210 -0.5126 -0.1192 -0.0596
  303SOL     OW 1284   1.196   2.049   1.580  0.4146 -0.2543 -0.0077
  303SOL    HW2 1285   1.236   2.050   1.493 -0.2904 -0.2431 -0.3306
  303SOL    HW3 1286   1.164   1.959   1.591 -0.6586  0.1038 -0.2902
  303SOL    MW4 1287   1.197   2.037   1.570  0.1907 -0.2146 -0.0715
  304SOL     OW 1288   0.733   2.046   1.128  0.3590  0.2261 -0.4129
  304SOL    HW2 1289   0.676   1.972   1.151  0.1800  0.1787 -1.0866
  304SOL    HW3 1290   0.677   2.123   1.136  0.3080  0.2266 -0.6398
  304SOL    MW4 1291   0.718   2.046   1.132  0.3278  0.2384 -0.5484
  305SOL     OW 1292   1.346   2.136   0.683 -0.2445  0.1074  0.1551
  305SOL    HW2 1293   1.425   2.153   0.734 -0.0680  0.2941 -0.1738
  305SOL    HW3 1294   1.283   2.100   0.746 -0.5189  1.7206  0.8095
  305SOL    MW4 1295   1.348   2.134   0.698 -0.2623  0.3576  0.1967
  306SOL     OW 1296   1.653   1.800   0.963 -0.1071  0.5441 -0.3556
  306SOL    HW2 1297   1.711   1.876   0.966 -0.9548  1.1615 -0.3267
  306SOL    HW3 1298   1.569   1.832   0.994 -0.4760 -0.4169 -0.3556
  306SOL    MW4 1299   1.650   1.814   0.968 -0.2623  0.5007 -0.3517
  307SOL     OW 1300   3.873   2.305   0.020 -0.4397 -1.0770  0.2856
  307SOL    HW2 1301   3.782   2.289  -0.007 -0.4959 -2.0963  1.0101
  307SOL    HW3 1302   3.866   2.375   0.085 -0.7714 -1.1513  0.3357
  307SOL    MW4 1303   3.860   2.312   0.025 -0.5007 -1.2398  0.3804
  308SOL     OW 1304   1.481   2.234   0.924  0.2206  0.2518  0.0670
  308SOL    HW2 1305   1.556   2.270   0.877 -0.1763  0.7904 -0.1445
  308SOL    HW3 1306   1.429   2.311   0.948  0.0588 -0.0443  0.7721
  308SOL    MW4 1307   1.484   2.249   0.921  0.1311  0.2861  0.1311
  309SOL     OW 1308   1.353   2.612   1.281 -0.5131  0.1926  0.3080
  309SOL    HW2 1309   1.276   2.668   1.271  0.0879  0.8361 -0.9144
  309SOL    HW3 1310   1.358   2.564   1.199  0.2885 -0.0156  0.4686
  309SOL    MW4 1311   1.344   2.613   1.269 -0.3219  0.2623  0.1669
  310SOL     OW 1312   2.237   2.592   1.052  0.1480 -0.6224  0.2816
  310SOL    HW2 1313   2.199   2.669   1.010  1.3414  0.1658  0.6124
  310SOL    HW3 1314   2.319   2.578   1.005  0.1912 -1.3840  0.5714
  310SOL    MW4 1315   2.243   2.600   1.040  0.3099 -0.6199  0.3576
  311SOL     OW 1316   0.950   4.411   1.639  0.1228  0.8730  0.1880
  311SOL    HW2 1317   0.912   4.383   1.556 -0.3096  0.6598  0.4527
  311SOL    HW3 1318   0.968   4.330   1.686  0.0739  1.0036  0.4373
  311SOL    MW4 1319   0.947   4.397   1.634  0.0596  0.9060  0.2623
  312SOL     OW 1320   1.720   2.712   1.008 -0.0403 -0.7281 -0.3858
  312SOL    HW2 1321   1.789   2.691   0.946  0.3490  0.0151 -0.1992
  312SOL    HW3 1322   1.766   2.733   1.089 -0.5030 -0.1632 -0.2815
  312SOL    MW4 1323   1.735   2.712   1.011 -0.0477 -0.5484 -0.3457
  313SOL     OW 1324   1.549   3.822   1.101 -0.1119  0.5335 -0.4863
  313SOL    HW2 1325   1.570   3.738   1.060 -3.0369 -0.0169 -0.9267
  313SOL    HW3 1326   1.535   3.800   1.194  0.9245  0.8088 -0.2517
  313SOL    MW4 1327   1.550   3.808   1.108 -0.3576  0.5007 -0.5007
  314SOL     OW 1328   1.902   3.350   1.249 -0.1958 -0.1503 -0.6028
  314SOL    HW2 1329   1.937   3.382   1.333 -0.1140  0.8220 -1.0080
  314SOL    HW3 1330   1.846   3.276   1.273  1.1482 -0.9013  0.1560
  314SOL    MW4 1331   1.899   3.344   1.263 -0.0119 -0.1192 -0.5603
  315SOL     OW 1332   1.676   3.483   1.308  0.1268 -0.1208 -0.4996
  315SOL    HW2 1333   1.689   3.574   1.334  1.2648 -0.6990  0.9591
  315SOL    HW3 1334   1.762   3.455   1.276 -0.1911 -0.7682 -0.7361
  315SOL    MW4 1335   1.689   3.491   1.307  0.2384 -0.2861 -0.3338
  316SOL     OW 1336   3.253   3.026   0.376 -0.4467  0.3579 -0.2621
  316SOL    HW2 1337   3.321   2.996   0.437 -0.2947  0.0832 -0.5549
  316SOL    HW3 1338   3.300   3.077   0.310 -0.7423  1.5625  0.4744
  316SOL    MW4 1339   3.268   3.029   0.375 -0.4768  0.4530 -0.2027
  317SOL     OW 1340   2.332   0.233   1.015  0.0683 -0.7437  0.1650
  317SOL    HW2 1341   2.350   0.274   0.930  1.3873 -0.6015  0.5200
  317SOL    HW3 1342   2.239   0.250   1.030  0.0331 -0.0932 -0.8814
  317SOL    MW4 1343   2.322   0.241   1.006  0.2623 -0.6393  0.0834
  318SOL     OW 1344   2.074   0.310   1.093  0.4398  0.4676 -0.0191
  318SOL    HW2 1345   2.010   0.301   1.022 -0.6571  0.8385  0.9204
  318SOL    HW3 1346   2.079   0.404   1.109  0.6819  0.3810  0.4107
  318SOL    MW4 1347   2.066   0.321   1.086  0.3099  0.5066  0.1550
  319SOL     OW 1348   1.478   0.827   0.621  0.1297 -0.1377 -0.4037
  319SOL    HW2 1349   1.498   0.852   0.711  0.4475  0.8196 -0.7341
  319SOL    HW3 1350   1.390   0.863   0.606 -0.2430 -0.9795 -0.2152
  319SOL    MW4 1351   1.469   0.835   0.631  0.1311 -0.1192 -0.4292
  320SOL     OW 1352   1.117   0.430   0.664 -0.3001 -0.7180  0.0934
  320SOL    HW2 1353   1.196   0.477   0.691 -0.8160  0.1056  0.1339
  320SOL    HW3 1354   1.131   0.411   0.571 -0.2862 -0.1331 -0.0263
  320SOL    MW4 1355   1.129   0.434   0.656 -0.3576 -0.5305  0.0775
  321SOL     OW 1356   1.336   0.587   0.672  0.1399 -0.0503 -0.0983
  321SOL    HW2 1357   1.363   0.601   0.762  0.5025 -0.0614 -0.2003
  321SOL    HW3 1358   1.368   0.664   0.625  0.6786 -0.4343 -0.3648
  321SOL    MW4 1359   1.344   0.599   0.677  0.2623 -0.1073 -0.1490
  322SOL     OW 1360   1.222   1.099   0.885 -0.1459  0.7556 -0.0718
  322SOL    HW2 1361   1.182   1.015   0.862 -0.6505  0.8680  0.3741
  322SOL    HW3 1362   1.271   1.081   0.965 -0.2906  0.8829  0.0583
  322SOL    MW4 1363   1.223   1.085   0.892 -0.2265  0.7868  0.0060
  323SOL     OW 1364   1.811   1.063   1.790  0.1953 -0.3879 -0.3188
  323SOL    HW2 1365   1.750   1.134   1.772  0.1961 -0.0371  1.0519
  323SOL    HW3 1366   1.767   0.984   1.759 -0.5945 -0.0484 -0.0669
  323SOL    MW4 1367   1.797   1.062   1.784  0.1073 -0.2980 -0.1073
  324SOL     OW 1368   1.384   1.400   0.555  0.3807 -0.2122 -0.0990
  324SOL    HW2 1369   1.437   1.430   0.481  0.9426 -0.5523  0.1662
  324SOL    HW3 1370   1.299   1.443   0.543  0.5785 -0.0003 -0.7424
  324SOL    MW4 1371   1.379   1.410   0.544  0.4768 -0.2384 -0.1490
  325SOL     OW 1372   1.318   1.618   1.864  0.5286 -0.0668 -0.1316
  325SOL    HW2 1373   1.301   1.562   1.789  0.2242  1.1504 -0.9876
  325SOL    HW3 1374   1.368   1.692   1.828  0.0936  0.6951  0.7991
  325SOL    MW4 1375   1.322   1.620   1.850  0.4172  0.1788 -0.1311
  326SOL     OW 1376   1.649   1.699   1.953  0.7440 -0.0199 -0.0812
  326SOL    HW2 1377   1.587   1.696   1.880  0.6274  0.3769  0.0050
  326SOL    HW3 1378   1.604   1.750   2.021  0.9257 -0.2582  0.2012
  326SOL    MW4 1379   1.635   1.705   1.952  0.7629 -0.0119 -0.0358
  327SOL     OW 1380   1.621   2.061   1.681 -0.5230 -0.5156  0.2362
  327SOL    HW2 1381   1.602   2.150   1.710 -1.1581 -0.3859 -0.5162
  327SOL    HW3 1382   1.684   2.028   1.746 -0.3782  0.4431  0.5914
  327SOL    MW4 1383   1.627   2.068   1.694 -0.5841 -0.3815  0.1788
  328SOL     OW 1384   1.486   1.799   1.743  0.4297  0.6329  0.5223
  328SOL    HW2 1385   1.512   1.745   1.668  0.2490  1.5973 -0.2424
  328SOL    HW3 1386   1.511   1.888   1.718  0.1943  0.9783  1.5433
  328SOL    MW4 1387   1.493   1.803   1.730  0.3695  0.8106  0.5484
  329SOL     OW 1388   1.586   1.776   0.685 -0.0474 -0.6575 -0.2022
  329SOL    HW2 1389   1.616   1.815   0.767 -0.1828 -0.5279 -0.2097
  329SOL    HW3 1390   1.568   1.685   0.707 -0.5027 -0.5033  0.0125
  329SOL    MW4 1391   1.588   1.769   0.699 -0.1192 -0.6199 -0.1729
  330SOL     OW 1392   1.257   2.604   1.946  0.5364  0.2052 -0.3586
  330SOL    HW2 1393   1.327   2.660   1.914  0.5310  0.1360 -0.5188
  330SOL    HW3 1394   1.182   2.662   1.957  0.6244  0.2970 -0.2417
  330SOL    MW4 1395   1.257   2.619   1.943  0.5484  0.2384 -0.3695
  331SOL     OW 1396   1.242   3.090   1.158  0.2494  0.6188 -0.2925
  331SOL    HW2 1397   1.241   3.011   1.104 -0.3775  0.9238 -0.7384
  331SOL    HW3 1398   1.283   3.062   1.240 -0.2798 -0.2543 -0.3246
  331SOL    MW4 1399   1.248   3.076   1.161  0.0954  0.5484 -0.3695
  332SOL     OW 1400   1.574   2.759   1.287 -0.0425  0.1838 -0.3923
  332SOL    HW2 1401   1.572   2.791   1.197 -1.3979  0.6588 -0.2063
  332SOL    HW3 1402   1.497   2.704   1.295  0.0603  0.2137  0.5083
  332SOL    MW4 1403   1.564   2.756   1.276 -0.2027  0.2861 -0.2503
  333SOL     OW 1404   1.713   2.438   1.101  0.2010 -0.7481  0.4478
  333SOL    HW2 1405   1.638   2.387   1.133  0.6041 -1.0856  0.8829
  333SOL    HW3 1406   1.678   2.527   1.089 -0.5151 -1.1638 -0.3099
  333SOL    MW4 1407   1.698   2.443   1.104  0.1550 -0.8583  0.4053
  334SOL     OW 1408   1.937   2.663   0.823  0.2859  0.2253  0.7061
  334SOL    HW2 1409   1.941   2.571   0.797  0.8430  0.1195  1.2471
  334SOL    HW3 1410   1.881   2.705   0.758  0.3074 -0.4305  0.2563
  334SOL    MW4 1411   1.930   2.657   0.811  0.3576  0.1431  0.7153
  335SOL     OW 1412   2.979   3.785   0.735 -0.1643  0.6365  0.8414
  335SOL    HW2 1413   2.974   3.872   0.774  1.3990  0.7411  0.8035
  335SOL    HW3 1414   3.059   3.786   0.683  0.0230 -0.9613  1.0986
  335SOL    MW4 1415   2.989   3.797   0.733  0.0715  0.4530  0.8702
  336SOL     OW 1416   2.529   3.922   0.513  0.2480 -0.1204  0.0593
  336SOL    HW2 1417   2.587   3.930   0.588 -0.6331  0.3145  0.6728
  336SOL    HW3 1418   2.580   3.956   0.439  1.2136 -0.9460  0.3678
  336SOL    MW4 1419   2.544   3.927   0.513  0.2623 -0.1907  0.1848
  337SOL     OW 1420   1.537   4.132   1.155  0.1376  0.8042 -0.1762
  337SOL    HW2 1421   1.627   4.099   1.151  0.0548  0.5246  0.3580
  337SOL    HW3 1422   1.482   4.055   1.144 -0.0178  0.9424 -0.5403
  337SOL    MW4 1423   1.542   4.118   1.153  0.0954  0.7629 -0.1550
  338SOL     OW 1424   2.128   4.458   1.422  0.4525 -0.3596  0.0738
  338SOL    HW2 1425   2.161   4.369   1.416  0.3848 -0.4507  0.4756
  338SOL    HW3 1426   2.152   4.499   1.338 -0.0157 -0.9816 -0.3467
  338SOL    MW4 1427   2.135   4.452   1.410  0.4053 -0.5245  0.0715
  339SOL     OW 1428   3.395   4.619   1.387  0.1465 -0.6995  0.3790
  339SOL    HW2 1429   3.419   4.536   1.347 -0.6110 -0.3928 -0.8259
  339SOL    HW3 1430   3.306   4.605   1.421  0.4347 -0.7618  1.1678
  339SOL    MW4 1431   3.386   4.606   1.386  0.0715 -0.6676  0.3338
  340SOL     OW 1432   2.133   4.525   1.151 -0.1282  0.2019  0.1899
  340SOL    HW2 1433   2.082   4.447   1.127  0.6791 -0.5467  0.9192
  340SOL    HW3 1434   2.068   4.594   1.163 -0.8221 -0.2908 -0.7217
  340SOL    MW4 1435   2.118   4.524   1.149 -0.0954  0.0954  0.1669
  341SOL     OW 1436   1.773   0.413   1.237 -0.2297 -0.3611  0.2085
  341SOL    HW2 1437   1.822   0.364   1.170  0.3047 -0.6091  0.7759
  341SOL    HW3 1438   1.774   0.503   1.205 -1.3514 -0.7594 -0.9356
  341SOL    MW4 1439   1.780   0.418   1.224 -0.3099 -0.4470  0.1311
  342SOL     OW 1440   1.405   1.035   0.236  0.0832 -0.0835 -0.5022
  342SOL    HW2 1441   1.442   0.948   0.223 -0.2979 -0.3426  0.1628
  342SOL    HW3 1442   1.429   1.058   0.325  0.0495  0.4394 -0.6306
  342SOL    MW4 1443   1.413   1.026   0.246  0.0238 -0.0596 -0.4321
  343SOL     OW 1444   2.120   0.755   1.398  0.0833  0.1377  0.2603
  343SOL    HW2 1445   2.046   0.739   1.457  0.4904 -0.5858  0.5917
  343SOL    HW3 1446   2.162   0.670   1.390  0.8363  0.5435  0.0633
  343SOL    MW4 1447   2.116   0.742   1.405  0.2623  0.0894  0.2742
  344SOL     OW 1448   1.633   1.121   1.163 -0.5411 -0.2925 -0.0672
  344SOL    HW2 1449   1.685   1.050   1.201  0.2465  0.5055  0.3115
  344SOL    HW3 1450   1.645   1.195   1.222 -2.3877 -0.2141  0.2326
  344SOL    MW4 1451   1.641   1.121   1.176 -0.6676 -0.1669  0.0119
  345SOL     OW 1452   2.042   0.875   1.768  0.1066 -0.1919  0.2470
  345SOL    HW2 1453   2.002   0.823   1.698  0.2554 -0.0742  0.0650
  345SOL    HW3 1454   1.991   0.955   1.770 -0.9787 -0.9154  1.4068
  345SOL    MW4 1455   2.030   0.878   1.759  0.0000 -0.2682  0.3815
  346SOL     OW 1456   1.460   1.206   1.479 -0.0521  0.5927  0.5998
  346SOL    HW2 1457   1.531   1.149   1.449 -0.3274  0.2522  0.6042
  346SOL    HW3 1458   1.428   1.249   1.400 -0.8224 -0.3856  0.3898
  346SOL    MW4 1459   1.466   1.205   1.465 -0.1788  0.4172  0.5603
  347SOL     OW 1460   1.776   1.493   1.705  0.2891 -0.1050  0.0316
  347SOL    HW2 1461   1.797   1.585   1.722  0.4762 -0.2152  0.3716
  347SOL    HW3 1462   1.846   1.444   1.749 -0.1730 -0.4302  0.4325
  347SOL    MW4 1463   1.788   1.498   1.713  0.2384 -0.1550  0.1311
  348SOL     OW 1464   1.611   1.237   1.717  0.4630  0.4837  0.2329
  348SOL    HW2 1465   1.641   1.328   1.725  0.5048  0.5427 -0.7100
  348SOL    HW3 1466   1.554   1.238   1.640 -0.0462 -0.1578  0.6127
  348SOL    MW4 1467   1.608   1.249   1.708  0.4053  0.4053  0.1669
  349SOL     OW 1468   1.723   1.450   2.054  0.0138 -0.2257 -0.4004
  349SOL    HW2 1469   1.819   1.454   2.059 -0.0040 -0.3977  0.0816
  349SOL    HW3 1470   1.697   1.536   2.020  0.3852 -0.5365 -1.4779
  349SOL    MW4 1471   1.732   1.462   2.050  0.0596 -0.2861 -0.5007
  350SOL     OW 1472   1.861   2.259   1.661  0.2958  0.2086 -0.4443
  350SOL    HW2 1473   1.858   2.170   1.626  0.0819 -0.0100  0.1664
  350SOL    HW3 1474   1.825   2.251   1.749 -0.3474  0.9962 -0.6293
  350SOL    MW4 1475   1.856   2.247   1.668  0.1788  0.2623 -0.3815
  351SOL     OW 1476   1.858   2.336   1.390  0.1188  0.5240 -0.1591
  351SOL    HW2 1477   1.868   2.311   1.481  0.7981  0.8207 -0.1425
  351SOL    HW3 1478   1.816   2.422   1.393 -0.7930  0.0459 -0.1502
  351SOL    MW4 1479   1.854   2.344   1.402  0.0954  0.5007 -0.1550
  352SOL     OW 1480   1.550   1.972   1.432  0.3027  0.4508 -0.6860
  352SOL    HW2 1481   1.620   1.909   1.418  0.6649  0.7109 -0.0638
  352SOL    HW3 1482   1.568   2.009   1.519 -0.4791  0.6581 -0.6128
  352SOL    MW4 1483   1.561   1.968   1.442  0.2503  0.5245 -0.6080
  353SOL     OW 1484   1.592   2.314   1.777  0.3620  0.2003 -0.1502
  353SOL    HW2 1485   1.516   2.325   1.834  1.0706  0.4073  0.7640
  353SOL    HW3 1486   1.559   2.334   1.690 -0.7386 -0.0924  0.1931
  353SOL    MW4 1487   1.577   2.318   1.773  0.2980  0.1669  0.0119
  354SOL     OW 1488   2.160   1.984   1.639 -0.4099  0.0171  0.6156
  354SOL    HW2 1489   2.166   1.946   1.551 -0.1416 -0.0480  0.6468
  354SOL    HW3 1490   2.167   2.078   1.625  0.6867 -0.0811  0.6693
  354SOL    MW4 1491   2.162   1.991   1.625 -0.1907 -0.0119  0.6318
  355SOL     OW 1492   2.316   2.096   1.280 -0.1620  0.1198  0.2522
  355SOL    HW2 1493   2.381   2.121   1.215 -0.2195 -0.1650  0.1036
  355SOL    HW3 1494   2.247   2.162   1.270  0.2945  0.6499  0.7211
  355SOL    MW4 1495   2.315   2.108   1.270 -0.1192  0.1431  0.2861
  356SOL     OW 1496   1.723   2.574   1.470  0.4521 -0.0929 -0.1973
  356SOL    HW2 1497   1.698   2.631   1.397  0.0743 -0.2749 -0.2027
  356SOL    HW3 1498   1.646   2.573   1.526  0.5073 -0.4909 -0.1309
  356SOL    MW4 1499   1.710   2.581   1.467  0.4053 -0.1669 -0.1788
  357SOL     OW 1500   2.120   2.306   1.298  0.1760 -0.6782  0.3241
  357SOL    HW2 1501   2.025   2.293   1.306  0.1668 -1.1294 -0.4785
  357SOL    HW3 1502   2.132   2.401   1.300 -0.2791 -0.6613  0.5634
  357SOL    MW4 1503   2.109   2.317   1.299  0.1192 -0.7391  0.2623
  358SOL     OW 1504   2.938   3.504   1.461 -0.7417 -0.1434  0.4843
  358SOL    HW2 1505   2.959   3.453   1.383 -0.3570  0.0048  0.4855
  358SOL    HW3 1506   3.023   3.518   1.504 -0.9006  0.0396  0.7408
  358SOL    MW4 1507   2.952   3.499   1.457 -0.7153 -0.0954  0.5245
  359SOL     OW 1508   3.223   4.150   0.682  0.0987  0.2931 -0.2308
  359SOL    HW2 1509   3.150   4.110   0.730  1.3400  1.1976  2.4823
  359SOL    HW3 1510   3.294   4.087   0.689  0.5812  0.7928 -0.0434
  359SOL    MW4 1511   3.223   4.136   0.689  0.3338  0.4768  0.1490
  360SOL     OW 1512   1.120   4.034   1.166 -0.4813  0.6871 -0.9821
  360SOL    HW2 1513   1.074   3.965   1.215  0.3363  0.5703 -0.3450
  360SOL    HW3 1514   1.206   4.039   1.207 -0.2600  1.5576 -1.5350
  360SOL    MW4 1515   1.125   4.025   1.178 -0.3338  0.7629 -0.9656
  361SOL     OW 1516   2.644   3.683   0.400  0.7191  0.3883  0.1671
  361SOL    HW2 1517   2.608   3.764   0.434 -0.5026  0.3021 -0.9449
  361SOL    HW3 1518   2.580   3.616   0.425  1.5646 -0.1821  0.8489
  361SOL    MW4 1519   2.631   3.685   0.407  0.6676  0.2861  0.1103
  362SOL     OW 1520   2.763   4.015   0.667  0.5492 -0.4591  0.1516
  362SOL    HW2 1521   2.741   4.092   0.614 -0.1568 -0.3346  0.6315
  362SOL    HW3 1522   2.810   3.958   0.606 -0.3191 -0.3641 -0.6318
  362SOL    MW4 1523   2.767   4.018   0.652  0.3338 -0.4292  0.1132
  363SOL     OW 1524   3.432   4.367   1.252  0.1756  0.5983  0.1609
  363SOL    HW2 1525   3.404   4.310   1.323  0.5022  0.5925  0.3118
  363SOL    HW3 1526   3.367   4.353   1.183  0.2688  0.0269  0.2126
  363SOL    MW4 1527   3.420   4.358   1.252  0.2384  0.5722  0.1788
  364SOL     OW 1528   3.180   4.354   1.106 -0.2492 -0.7651 -0.4778
  364SOL    HW2 1529   3.177   4.266   1.142  1.0810 -0.3285  0.6248
  364SOL    HW3 1530   3.125   4.406   1.165  1.1799 -0.3277  0.4239
  364SOL    MW4 1531   3.172   4.349   1.119  0.1192 -0.6199 -0.2146
  365SOL     OW 1532   1.902   1.156   1.026 -0.4869  0.5306  0.2280
  365SOL    HW2 1533   1.967   1.087   1.042 -1.1945 -0.2430 -0.2334
  365SOL    HW3 1534   1.839   1.146   1.097 -0.6962  0.5939  0.0527
  365SOL    MW4 1535   1.903   1.146   1.038 -0.6080  0.4292  0.1431
  366SOL     OW 1536   2.455   0.318   1.590 -0.2898  0.2920 -0.0244
  366SOL    HW2 1537   2.432   0.306   1.682 -1.5553  0.2418 -0.3625
  366SOL    HW3 1538   2.386   0.273   1.542 -0.5975  1.8692 -1.0686
  366SOL    MW4 1539   2.443   0.311   1.596 -0.5007  0.4947 -0.2146
  367SOL     OW 1540   2.607   0.101   1.081  0.1551  0.5049  0.0220
  367SOL    HW2 1541   2.554   0.180   1.083  0.0632  0.4566 -1.0990
  367SOL    HW3 1542   2.657   0.107   0.999  0.3336 -0.4597  0.0568
  367SOL    MW4 1543   2.607   0.112   1.070  0.1669  0.3710 -0.1192
  368SOL     OW 1544   2.686   0.902   1.710 -0.0637 -0.4581 -0.1960
  368SOL    HW2 1545   2.625   0.893   1.637  0.5545 -0.5274 -0.7230
  368SOL    HW3 1546   2.652   0.845   1.778 -1.2686  0.4495 -0.0425
  368SOL    MW4 1547   2.674   0.893   1.709 -0.1192 -0.3457 -0.2503
  369SOL     OW 1548   1.979   1.613   1.058 -0.1614  0.3542 -0.2533
  369SOL    HW2 1549   1.886   1.593   1.070 -0.1929  1.4613  1.3721
  369SOL    HW3 1550   2.023   1.529   1.073 -0.7417  0.2745  0.9337
  369SOL    MW4 1551   1.973   1.599   1.062 -0.2503  0.4888  0.1192
  370SOL     OW 1552   2.038   1.431   1.803  0.2152  0.0289 -0.0342
  370SOL    HW2 1553   2.039   1.435   1.898 -0.9448 -0.1043 -0.0273
  370SOL    HW3 1554   2.066   1.342   1.782  0.3411  0.0156  0.1825
  370SOL    MW4 1555   2.042   1.420   1.812  0.0954  0.0000  0.0000
  371SOL     OW 1556   2.315   1.503   1.789 -0.3928 -0.0178  0.0717
  371SOL    HW2 1557   2.372   1.426   1.793 -0.2848  0.0509 -0.2353
  371SOL    HW3 1558   2.228   1.470   1.810 -0.2860 -0.1590  0.4229
  371SOL    MW4 1559   2.311   1.489   1.792 -0.3576 -0.0119  0.0715
  372SOL     OW 1560   1.828   1.762   1.676  0.1504  0.6767  0.6218
  372SOL    HW2 1561   1.799   1.815   1.750  0.1090 -0.9399  1.7517
  372SOL    HW3 1562   1.923   1.757   1.686  0.1840  0.7682  0.3508
  372SOL    MW4 1563   1.837   1.769   1.687  0.1550  0.4768  0.7391
  373SOL     OW 1564   2.339   1.729   1.627 -0.0487 -0.3784 -0.0534
  373SOL    HW2 1565   2.343   1.653   1.685 -0.0760  0.0917  0.5622
  373SOL    HW3 1566   2.260   1.776   1.656 -0.1259 -0.2210 -0.6031
  373SOL    MW4 1567   2.329   1.725   1.639 -0.0477 -0.2980 -0.0477
  374SOL     OW 1568   2.603   1.821   1.587  0.0682 -0.0960 -0.1274
  374SOL    HW2 1569   2.511   1.820   1.613  0.3626  0.7209  0.8666
  374SOL    HW3 1570   2.631   1.730   1.598 -0.3010 -0.1094  0.6672
  374SOL    MW4 1571   2.594   1.809   1.592  0.0954  0.0119  0.1073
  375SOL     OW 1572   2.596   2.014   1.376  0.5974 -0.5525  0.0323
  375SOL    HW2 1573   2.676   2.054   1.409  0.5393 -0.4315 -0.0073
  375SOL    HW3 1574   2.574   1.948   1.441  0.8366 -0.7461 -0.0984
  375SOL    MW4 1575   2.604   2.010   1.389  0.6199 -0.5484  0.0000
  376SOL     OW 1576   1.883   2.035   1.509  0.0567  0.2561  0.0455
  376SOL    HW2 1577   1.829   1.958   1.528  0.1770  0.2548  0.3446
  376SOL    HW3 1578   1.970   2.011   1.540  0.0543  0.6113  0.3370
  376SOL    MW4 1579   1.887   2.021   1.516  0.0715  0.3099  0.1311
  377SOL     OW 1580   2.527   1.797   1.167 -0.2728 -0.3245  0.5035
  377SOL    HW2 1581   2.531   1.857   1.241 -1.3066  0.8624 -0.4160
  377SOL    HW3 1582   2.450   1.742   1.184 -0.7501  0.2161  0.1166
  377SOL    MW4 1583   2.518   1.797   1.179 -0.4530 -0.1073  0.3219
  378SOL     OW 1584   2.515   2.033   0.938  0.7831  0.0436  0.2158
  378SOL    HW2 1585   2.542   1.982   1.014  0.7284  0.4300  0.4872
  378SOL    HW3 1586   2.426   2.003   0.919  0.6812  0.1453  0.4782
  378SOL    MW4 1587   2.507   2.022   0.945  0.7391  0.0954  0.2861
  379SOL     OW 1588   2.423   2.262   1.071  0.2837  0.0636  0.0270
  379SOL    HW2 1589   2.338   2.286   1.033  0.0347 -0.7045  0.0994
  379SOL    HW3 1590   2.460   2.199   1.010  1.4216  1.4553 -0.7190
  379SOL    MW4 1591   2.417   2.257   1.058  0.3815  0.1669 -0.0596
  380SOL     OW 1592   2.662   2.859   1.073  0.0758 -0.3140  0.2478
  380SOL    HW2 1593   2.599   2.900   1.015  0.8369  0.3368 -0.1318
  380SOL    HW3 1594   2.610   2.827   1.147 -0.4163  2.0425  0.9238
  380SOL    MW4 1595   2.647   2.860   1.075  0.0954  0.0715  0.2861
  381SOL     OW 1596   2.762   3.117   1.100  0.0871 -0.2766  0.3076
  381SOL    HW2 1597   2.731   3.027   1.091  1.2969 -0.7078  0.2707
  381SOL    HW3 1598   2.683   3.168   1.118 -0.5903 -1.3757  0.3755
  381SOL    MW4 1599   2.748   3.112   1.101  0.1669 -0.4768  0.3219
  382SOL     OW 1600   2.962   2.950   0.909  0.2026 -0.1514  0.5366
  382SOL    HW2 1601   2.938   2.902   0.830  0.4566 -0.2685  0.5342
  382SOL    HW3 1602   2.889   3.010   0.924 -0.0124 -0.3769  0.3808
  382SOL    MW4 1603   2.949   2.952   0.901  0.1907 -0.1669  0.5186
  383SOL     OW 1604   3.198   3.069   1.003  0.8575  0.0672  0.0878
  383SOL    HW2 1605   3.176   3.162   0.996  0.0596 -0.0355  1.3128
  383SOL    HW3 1606   3.119   3.024   0.974  1.1435 -0.2179 -0.2419
  383SOL    MW4 1607   3.185   3.075   0.998  0.8106  0.0000  0.1967
  384SOL     OW 1608   3.018   4.052   0.818  0.7298 -0.3129 -0.3897
  384SOL    HW2 1609   2.943   4.062   0.760  1.1523  1.2426 -0.6564
  384SOL    HW3 1610   2.992   4.095   0.899  0.9167 -0.8309 -0.0601
  384SOL    MW4 1611   3.005   4.059   0.821  0.8106 -0.2384 -0.3815
  385SOL     OW 1612   2.903   3.757   1.302 -0.3953  0.0509  0.0404
  385SOL    HW2 1613   2.985   3.780   1.257 -0.5894 -0.8829 -0.7449
  385SOL    HW3 1614   2.929   3.687   1.362 -0.5102  0.1831  0.2349
  385SOL    MW4 1615   2.918   3.751   1.304 -0.4530 -0.0954 -0.0358
  386SOL     OW 1616   3.166   3.853   1.222  0.1561 -0.4640  0.0033
  386SOL    HW2 1617   3.127   3.940   1.227  0.3101 -0.4457  0.5278
  386SOL    HW3 1618   3.258   3.866   1.242  0.3251 -0.6394 -0.5310
  386SOL    MW4 1619   3.173   3.866   1.225  0.2146 -0.4768  0.0000
  387SOL     OW 1620   2.682   4.400   1.421 -0.3228 -0.3451  0.6010
  387SOL    HW2 1621   2.620   4.424   1.353 -0.2169 -0.0812  0.5593
  387SOL    HW3 1622   2.650   4.444   1.500  0.6346  0.9811  0.2347
  387SOL    MW4 1623   2.670   4.409   1.423 -0.1907 -0.0954  0.5484
  388SOL     OW 1624   3.436   3.948   1.272  0.0879 -0.6265  0.5199
  388SOL    HW2 1625   3.492   3.907   1.206 -2.8915 -1.6406 -1.4390
  388SOL    HW3 1626   3.420   4.037   1.239  0.5325 -0.3128  1.0227
  388SOL    MW4 1627   3.441   3.955   1.259 -0.2623 -0.7153  0.3338
  389SOL     OW 1628   3.115   4.631   1.456 -0.2660  0.5083  0.1627
  389SOL    HW2 1629   3.092   4.691   1.386 -0.5547  0.1141 -0.1178
  389SOL    HW3 1630   3.066   4.551   1.437  0.7915 -0.0533  0.0774
  389SOL    MW4 1631   3.106   4.629   1.445 -0.1669  0.3338  0.1192
  390SOL     OW 1632   2.529   4.586   0.838 -0.3843  0.4396 -0.1499
  390SOL    HW2 1633   2.476   4.628   0.905  0.5649 -0.3284  1.0309
  390SOL    HW3 1634   2.483   4.505   0.817 -0.9409  0.8372 -0.7115
  390SOL    MW4 1635   2.516   4.581   0.844 -0.3338  0.3815 -0.0715
  391SOL     OW 1636   2.741   0.095   0.843  0.2911 -0.0053 -0.0456
  391SOL    HW2 1637   2.670   0.047   0.801  0.2527  0.0465 -0.0115
  391SOL    HW3 1638   2.747   0.177   0.794 -0.0264  0.2212  0.2967
  391SOL    MW4 1639   2.733   0.099   0.831  0.2384  0.0313  0.0060
  392SOL     OW 1640   1.852   0.619   1.810 -0.1602  0.1479  0.0962
  392SOL    HW2 1641   1.896   0.546   1.767 -0.7561  0.0438 -0.3354
  392SOL    HW3 1642   1.919   0.657   1.866 -0.2851 -1.6556  1.4575
  392SOL    MW4 1643   1.867   0.614   1.811 -0.2623 -0.1013  0.2146
  393SOL     OW 1644   2.481   0.871   1.525  0.2819  0.2697  0.0933
  393SOL    HW2 1645   2.427   0.859   1.603  0.8565  0.3494  0.5037
  393SOL    HW3 1646   2.494   0.965   1.519 -0.5500  0.3472 -0.6384
  393SOL    MW4 1647   2.476   0.882   1.535  0.2623  0.2921  0.0596
  394SOL     OW 1648   1.921   0.716   1.211  0.4791  0.0200  0.2417
  394SOL    HW2 1649   1.999   0.719   1.266  0.0194  0.3430  0.8574
  394SOL    HW3 1650   1.952   0.685   1.126  1.2264 -0.1066  0.5685
  394SOL    MW4 1651   1.935   0.712   1.207  0.5126  0.0477  0.3576
  395SOL     OW 1652   1.830   0.975   1.297 -0.3846  0.3059  0.2575
  395SOL    HW2 1653   1.914   1.014   1.317 -0.4710  0.1258  0.9884
  395SOL    HW3 1654   1.851   0.896   1.248 -0.1237  0.2869  0.3879
  395SOL    MW4 1655   1.844   0.970   1.293 -0.3695  0.2742  0.3695
  396SOL     OW 1656   2.757   1.278   1.529 -0.1967 -0.2299 -0.1137
  396SOL    HW2 1657   2.765   1.231   1.612 -1.2704 -1.1578 -0.5259
  396SOL    HW3 1658   2.713   1.216   1.470 -0.2248  0.7333 -1.1051
  396SOL    MW4 1659   2.752   1.263   1.532 -0.3338 -0.2265 -0.2980
  397SOL     OW 1660   2.843   0.983   1.463 -0.4660  0.1724  0.0959
  397SOL    HW2 1661   2.813   0.950   1.548 -0.4445 -1.3049 -0.4704
  397SOL    HW3 1662   2.926   1.026   1.483 -0.1390 -0.7331  0.7288
  397SOL    MW4 1663   2.850   0.985   1.477 -0.4053 -0.1431  0.0954
  398SOL     OW 1664   2.666   1.541   1.667  0.0506 -0.1481  0.3155
  398SOL    HW2 1665   2.585   1.506   1.629  0.5998 -1.1443  0.0192
  398SOL    HW3 1666   2.729   1.469   1.657  1.0040  0.7065  0.3812
  398SOL    MW4 1667   2.663   1.527   1.660  0.2384 -0.1669  0.2861
  399SOL     OW 1668   3.023   1.499   1.599  0.4402  0.6165  0.0494
  399SOL    HW2 1669   2.964   1.496   1.524 -0.4492  0.5517  0.7768
  399SOL    HW3 1670   3.015   1.588   1.633  0.0267  0.3058  0.7491
  399SOL    MW4 1671   3.014   1.510   1.593  0.2623  0.5484  0.2384
  400SOL     OW 1672   2.500   1.419   1.292 -0.3613  0.2336  0.0016
  400SOL    HW2 1673   2.445   1.475   1.238 -0.0840  0.7057  0.2404
  400SOL    HW3 1674   2.579   1.471   1.309 -0.0039 -0.2946  0.0278
  400SOL    MW4 1675   2.503   1.433   1.287 -0.2861  0.2265  0.0238
  401SOL     OW 1676   2.657   1.875   0.759  0.3292 -0.0648 -0.1080
  401SOL    HW2 1677   2.741   1.858   0.802  0.3044 -0.2226 -0.0758
  401SOL    HW3 1678   2.610   1.933   0.819 -0.0596 -0.9816  0.4610
  401SOL    MW4 1679   2.662   1.881   0.773  0.2384 -0.2146 -0.0238
  402SOL     OW 1680   2.658   2.015   0.517  0.3424 -1.0188 -0.1799
  402SOL    HW2 1681   2.703   2.081   0.569 -0.9109 -0.5013  0.2472
  402SOL    HW3 1682   2.635   1.946   0.579  1.9299 -2.0276 -0.6875
  402SOL    MW4 1683   2.661   2.014   0.532  0.3815 -1.0967 -0.1907
  403SOL     OW 1684   2.955   2.103   0.682  0.3962 -0.5791 -0.4165
  403SOL    HW2 1685   2.955   2.023   0.735  1.5748 -0.2766  0.0236
  403SOL    HW3 1686   2.884   2.156   0.718  0.9008 -0.5783  0.5699
  403SOL    MW4 1687   2.946   2.099   0.694  0.6199 -0.5484 -0.2265
  404SOL     OW 1688   2.738   2.225   0.799 -0.1997 -0.1313  0.2958
  404SOL    HW2 1689   2.648   2.202   0.777 -0.4994 -0.4313  1.9211
  404SOL    HW3 1690   2.750   2.193   0.889  1.4234  0.1451  0.1869
  404SOL    MW4 1691   2.728   2.218   0.808 -0.0238 -0.1431  0.4947
  405SOL     OW 1692   2.448   2.556   0.843  0.4092 -0.5354  0.5054
  405SOL    HW2 1693   2.528   2.538   0.892  0.3187 -0.2070  0.7609
  405SOL    HW3 1694   2.478   2.600   0.764  0.5924 -1.5952 -0.0174
  405SOL    MW4 1695   2.463   2.559   0.839  0.4292 -0.6199  0.4768
  406SOL     OW 1696   3.257   3.223   0.704  0.1299  0.6076 -0.0763
  406SOL    HW2 1697   3.209   3.270   0.773 -0.5530  1.2000 -0.9592
  406SOL    HW3 1698   3.263   3.133   0.736 -1.9130  0.4505 -0.1368
  406SOL    MW4 1699   3.251   3.218   0.717 -0.2384  0.6437 -0.1967
  407SOL     OW 1700   3.031   3.580   1.741 -0.1243 -0.0587 -0.0554
  407SOL    HW2 1701   2.948   3.536   1.725  0.3117 -1.1956  0.9551
  407SOL    HW3 1702   3.097   3.523   1.701  0.2820  0.3640  0.0341
  407SOL    MW4 1703   3.029   3.567   1.733  0.0000 -0.1431  0.0715
  408SOL     OW 1704   2.599   2.675   0.628 -0.3075 -0.3224  0.4359
  408SOL    HW2 1705   2.684   2.683   0.670 -0.0438  0.0764 -0.2024
  408SOL    HW3 1706   2.580   2.763   0.595 -0.6127 -0.6212 -0.1561
  408SOL    MW4 1707   2.607   2.688   0.629 -0.3099 -0.3099  0.2742
  409SOL     OW 1708   3.110   3.498   0.648  0.2668 -0.0048  0.8441
  409SOL    HW2 1709   3.077   3.443   0.718 -0.1285 -0.4675  0.3055
  409SOL    HW3 1710   3.120   3.439   0.573  0.6083  0.4867  0.5008
  409SOL    MW4 1711   3.107   3.483   0.647  0.2623  0.0000  0.7331
  410SOL     OW 1712   3.318   3.518   0.834  0.1757  0.2809  0.3502
  410SOL    HW2 1713   3.256   3.526   0.762  1.2148  0.2683 -0.5536
  410SOL    HW3 1714   3.373   3.443   0.811 -0.4252 -0.6227  1.8788
  410SOL    MW4 1715   3.317   3.509   0.822  0.2146  0.1669  0.4351
  411SOL     OW 1716   3.571   4.140   0.832  0.4138  0.3510  0.0956
  411SOL    HW2 1717   3.642   4.081   0.857 -0.7883 -0.8385  0.8569
  411SOL    HW3 1718   3.511   4.085   0.781 -0.3143  1.0737  0.1237
  411SOL    MW4 1719   3.573   4.125   0.828  0.1431  0.2861  0.1967
  412SOL     OW 1720   3.449   4.399   0.551 -0.0844  0.2681 -0.0477
  412SOL    HW2 1721   3.532   4.402   0.598  0.8136  0.6837 -1.6392
  412SOL    HW3 1722   3.461   4.332   0.484 -0.8335  0.7381 -0.6665
  412SOL    MW4 1723   3.461   4.390   0.548 -0.0954  0.3815 -0.3397
  413SOL     OW 1724   2.903   0.351   0.849  0.0491  0.6552 -0.4521
  413SOL    HW2 1725   2.925   0.348   0.942  1.3569  1.3498 -0.7398
  413SOL    HW3 1726   2.975   0.304   0.806 -0.3403  0.6755 -1.1533
  413SOL    MW4 1727   2.915   0.344   0.855  0.1431  0.7510 -0.5901
  414SOL     OW 1728   3.395   4.660   0.979  0.0472  0.5583  0.1136
  414SOL    HW2 1729   3.446   4.677   1.058  0.8640  0.9439 -0.4992
  414SOL    HW3 1730   3.460   4.657   0.909 -0.7759  0.8641 -0.6407
  414SOL    MW4 1731   3.410   4.662   0.980  0.0477  0.6676 -0.0656
  415SOL     OW 1732   2.869   4.310   0.308 -0.2855 -0.7870 -0.1723
  415SOL    HW2 1733   2.888   4.377   0.242 -1.7242  0.0798  0.3344
  415SOL    HW3 1734   2.954   4.294   0.350  0.2738 -0.0474 -0.9820
  415SOL    MW4 1735   2.883   4.317   0.305 -0.4053 -0.6199 -0.2146
  416SOL     OW 1736   2.795   4.660   1.269  0.1297  0.3461  0.1552
  416SOL    HW2 1737   2.770   4.682   1.359  0.0360 -0.8849  0.4360
  416SOL    HW3 1738   2.730   4.704   1.214  0.6931  1.7193  0.6534
  416SOL    MW4 1739   2.783   4.669   1.274  0.2146  0.3815  0.2742
  417SOL     OW 1740   2.284   0.485   0.809  0.6453  0.2569  0.4097
  417SOL    HW2 1741   2.280   0.491   0.904  0.6584  0.2955  0.4107
  417SOL    HW3 1742   2.363   0.532   0.785  0.1855  1.0225  0.3210
  417SOL    MW4 1743   2.294   0.492   0.818  0.5722  0.3636  0.3994
  418SOL     OW 1744   2.668   0.886   0.636 -0.0088  0.2583  0.1953
  418SOL    HW2 1745   2.621   0.844   0.564  0.8703  0.2551 -0.3537
  418SOL    HW3 1746   2.691   0.814   0.694  0.3053  0.1351 -0.0846
  418SOL    MW4 1747   2.664   0.871   0.634  0.1669  0.2384  0.0894
  419SOL     OW 1748   3.391   0.607   1.272 -0.0049 -0.5315 -0.0699
  419SOL    HW2 1749   3.309   0.625   1.226  0.1316 -1.2211 -0.5889
  419SOL    HW3 1750   3.441   0.552   1.211  0.8111 -0.1511  0.2614
  419SOL    MW4 1751   3.387   0.602   1.258  0.1192 -0.5782 -0.0954
  420SOL     OW 1752   2.254   1.731   0.569 -0.4198  0.3589  0.2882
  420SOL    HW2 1753   2.313   1.751   0.642 -0.2343  1.2236 -0.1201
  420SOL    HW3 1754   2.244   1.635   0.572  0.4483  0.2678  0.7818
  420SOL    MW4 1755   2.261   1.721   0.579 -0.2861  0.4649  0.2980
  421SOL     OW 1756   2.234   1.066   1.485  0.0070 -0.0926  0.4470
  421SOL    HW2 1757   2.232   0.972   1.467 -0.4936 -0.2631  1.3741
  421SOL    HW3 1758   2.170   1.103   1.424 -0.0732 -0.4134  0.3234
  421SOL    MW4 1759   2.225   1.058   1.474 -0.0715 -0.1669  0.5484
  422SOL     OW 1760   2.346   0.939   1.102 -0.2986  0.2449 -0.2803
  422SOL    HW2 1761   2.438   0.913   1.098 -0.1439  0.6779  0.0199
  422SOL    HW3 1762   2.348   1.031   1.128 -0.8108  0.2065 -0.1185
  422SOL    MW4 1763   2.358   0.948   1.105 -0.3576  0.2921 -0.2265
  423SOL     OW 1764   2.682   1.099   1.281 -1.2451  0.0063 -0.3261
  423SOL    HW2 1765   2.760   1.068   1.328 -1.6923 -0.6546 -0.0611
  423SOL    HW3 1766   2.714   1.173   1.230 -0.7478  0.6262  0.8759
  423SOL    MW4 1767   2.697   1.105   1.280 -1.2398  0.0000 -0.1311
  424SOL     OW 1768   2.955   1.344   1.344 -0.0566 -0.4205 -0.2312
  424SOL    HW2 1769   2.897   1.319   1.416  0.4747 -0.4947  0.1759
  424SOL    HW3 1770   2.897   1.352   1.268 -0.5212 -0.8009  0.1157
  424SOL    MW4 1771   2.940   1.342   1.344 -0.0715 -0.4768 -0.1192
  425SOL     OW 1772   2.999   1.473   1.017 -0.2773 -0.2602 -0.3404
  425SOL    HW2 1773   3.051   1.491   0.939  0.5083 -1.1780 -0.0127
  425SOL    HW3 1774   3.038   1.527   1.086 -1.1611  0.7582 -0.6409
  425SOL    MW4 1775   3.011   1.483   1.016 -0.2623 -0.2503 -0.3338
  426SOL     OW 1776   2.770   1.367   1.125 -0.1633 -0.9296  0.7417
  426SOL    HW2 1777   2.732   1.445   1.165 -1.2265 -0.8942 -0.3527
  426SOL    HW3 1778   2.838   1.401   1.067 -0.0090 -0.8568  0.9618
  426SOL    MW4 1779   2.774   1.382   1.123 -0.2623 -0.9060  0.6318
  427SOL     OW 1780   2.931   1.859   0.833  0.3601 -0.3171 -0.2725
  427SOL    HW2 1781   2.933   1.844   0.928  0.4851  1.2067 -0.0336
  427SOL    HW3 1782   3.004   1.807   0.799  0.1263 -1.0794  0.4350
  427SOL    MW4 1783   2.941   1.850   0.841  0.3338 -0.2146 -0.1490
  428SOL     OW 1784   3.310   2.559   1.041 -0.1211  0.3854 -0.3570
  428SOL    HW2 1785   3.385   2.499   1.040 -0.2805  0.1848 -0.6808
  428SOL    HW3 1786   3.242   2.513   0.991 -0.0932  1.0001 -0.9580
  428SOL    MW4 1787   3.311   2.545   1.035 -0.1431  0.4292 -0.4649
  429SOL     OW 1788   3.469   2.770   0.926 -0.7023 -0.6495 -0.5703
  429SOL    HW2 1789   3.424   2.711   0.987  0.0002 -0.8823 -0.2808
  429SOL    HW3 1790   3.486   2.849   0.977  0.1480 -0.9609 -0.3644
  429SOL    MW4 1791   3.466   2.773   0.941 -0.5007 -0.6914 -0.4947
  430SOL     OW 1792   3.681   3.221   1.089  0.7780 -0.4652  0.2248
  430SOL    HW2 1793   3.636   3.266   1.160  0.6846 -0.7728  0.3704
  430SOL    HW3 1794   3.620   3.153   1.060  0.5627  0.1002 -0.5960
  430SOL    MW4 1795   3.667   3.218   1.095  0.7391 -0.4292  0.1311
  431SOL     OW 1796   3.692   2.995   1.406 -0.1526 -0.3582  0.4060
  431SOL    HW2 1797   3.608   2.962   1.374 -0.4631  1.2271 -0.4320
  431SOL    HW3 1798   3.742   3.014   1.326  0.1875  0.7229  0.8827
  431SOL    MW4 1799   3.687   2.993   1.391 -0.1431  0.0000  0.3576
  432SOL     OW 1800   3.134   3.267   0.453 -0.1621  0.1908 -0.1049
  432SOL    HW2 1801   3.145   3.184   0.406  1.1182  0.6442 -0.5737
  432SOL    HW3 1802   3.167   3.249   0.541 -1.2553 -0.2279  0.2129
  432SOL    MW4 1803   3.140   3.254   0.458 -0.1431  0.1907 -0.1252
  433SOL     OW 1804   3.317   3.580   1.376 -0.0601 -0.6775  0.5370
  433SOL    HW2 1805   3.281   3.590   1.289  0.6561 -1.2795  0.1650
  433SOL    HW3 1806   3.282   3.653   1.426 -1.0547 -0.8249 -0.0184
  433SOL    MW4 1807   3.308   3.591   1.371 -0.0715 -0.7868  0.4172
  434SOL     OW 1808   3.833   2.920   0.390  0.2992 -0.5539  0.4692
  434SOL    HW2 1809   3.904   2.958   0.441  0.4786 -0.4889  0.2024
  434SOL    HW3 1810   3.852   2.826   0.389 -1.1376 -0.8962  2.7795
  434SOL    MW4 1811   3.845   2.912   0.397  0.1431 -0.5960  0.7391
  435SOL     OW 1812   4.313   0.190   0.782  0.2251  0.9942  0.6082
  435SOL    HW2 1813   4.357   0.198   0.866 -0.5515  0.6962  1.0527
  435SOL    HW3 1814   4.335   0.102   0.751  0.2477  0.9788  0.6664
  435SOL    MW4 1815   4.322   0.179   0.789  0.0954  0.9522  0.6735
  436SOL     OW 1816   3.505   4.177   0.386  0.2200  0.7058 -0.0629
  436SOL    HW2 1817   3.573   4.119   0.421 -0.1021  0.6059  0.3946
  436SOL    HW3 1818   3.442   4.119   0.345  0.8211  0.8605 -1.2093
  436SOL    MW4 1819   3.506   4.162   0.385  0.2623  0.6676 -0.1520
  437SOL     OW 1820   3.605   4.434   0.779  0.2028  0.2953 -0.4847
  437SOL    HW2 1821   3.543   4.501   0.749  2.4814  1.3943 -2.8217
  437SOL    HW3 1822   3.550   4.361   0.807 -2.1889  1.7473 -1.3664
  437SOL    MW4 1823   3.589   4.433   0.778  0.1669  0.6199 -0.9120
  438SOL     OW 1824   3.268   4.582   0.439 -0.3154 -0.8050 -0.3510
  438SOL    HW2 1825   3.341   4.526   0.464 -0.0965 -0.1428  0.4815
  438SOL    HW3 1826   3.300   4.671   0.449 -0.3785 -0.5722 -2.5721
  438SOL    MW4 1827   3.282   4.586   0.444 -0.3099 -0.6676 -0.5335
  439SOL     OW 1828   3.452   0.141   0.481 -0.4915  0.0512  0.2763
  439SOL    HW2 1829   3.538   0.178   0.464 -0.2668 -0.6720 -0.1064
  439SOL    HW3 1830   3.391   0.205   0.444 -0.2317  2.4813  4.0728
  439SOL    MW4 1831   3.455   0.154   0.474 -0.4292  0.2772  0.7272
  440SOL     OW 1832   3.730   0.258   0.482 -0.9239  0.2962  0.0727
  440SOL    HW2 1833   3.755   0.170   0.454  0.2150  0.2586  1.2187
  440SOL    HW3 1834   3.806   0.312   0.462 -1.4715  0.9489 -0.2499
  440SOL    MW4 1835   3.743   0.253   0.475 -0.8583  0.3785  0.1818
  441SOL     OW 1836   3.107   0.237   0.681 -1.2654 -0.1325 -0.1754
  441SOL    HW2 1837   3.154   0.164   0.721 -1.7392 -1.3004 -1.7564
  441SOL    HW3 1838   3.157   0.314   0.705 -0.8051 -0.9804  1.5599
  441SOL    MW4 1839   3.119   0.237   0.689 -1.2875 -0.3979 -0.1609
  442SOL     OW 1840   3.529   0.468   1.063  0.1855  0.1043 -0.4185
  442SOL    HW2 1841   3.516   0.533   0.995  0.6586  0.2733 -0.3417
  442SOL    HW3 1842   3.446   0.420   1.067 -0.3706  1.0994 -0.0523
  442SOL    MW4 1843   3.516   0.470   1.055  0.1669  0.2563 -0.3576
  443SOL     OW 1844   3.479   1.558   0.997 -0.7365  0.6605  0.1367
  443SOL    HW2 1845   3.471   1.489   0.932 -1.0746  0.2755  0.5732
  443SOL    HW3 1846   3.569   1.588   0.991 -0.6850  0.3943 -0.2562
  443SOL    MW4 1847   3.490   1.553   0.988 -0.7868  0.5722  0.1490
  444SOL     OW 1848   4.230   1.427   0.733  0.6478 -0.5046 -0.2571
  444SOL    HW2 1849   4.156   1.487   0.745  0.3235 -0.8765 -0.2603
  444SOL    HW3 1850   4.189   1.341   0.722  0.9476 -0.4664 -1.9371
  444SOL    MW4 1851   4.215   1.424   0.733  0.6199 -0.5603 -0.4828
  445SOL     OW 1852   3.284   0.918   0.837  0.0751 -0.0183  0.0954
  445SOL    HW2 1853   3.339   0.845   0.864  0.5729  0.2019 -0.3570
  445SOL    HW3 1854   3.213   0.920   0.901  0.2580 -0.6742  0.3305
  445SOL    MW4 1855   3.282   0.909   0.849  0.1669 -0.0775  0.0656
  446SOL     OW 1856   3.231   1.308   0.873 -0.5430  0.2546 -0.0512
  446SOL    HW2 1857   3.247   1.279   0.963 -0.0546  0.2400 -0.1448
  446SOL    HW3 1858   3.318   1.311   0.833 -0.7377  0.3173 -0.5004
  446SOL    MW4 1859   3.245   1.305   0.879 -0.5245  0.2623 -0.1192
  447SOL     OW 1860   3.038   0.921   0.996 -0.2649 -0.0775  0.3212
  447SOL    HW2 1861   3.058   0.943   1.087 -0.3938 -0.4058  0.4262
  447SOL    HW3 1862   2.998   1.000   0.960  0.6861  0.3880  0.2818
  447SOL    MW4 1863   3.036   0.934   1.003 -0.1669 -0.0596  0.3338
  448SOL     OW 1864   2.868   0.705   1.026 -0.1155 -0.3025  0.5499
  448SOL    HW2 1865   2.812   0.726   1.100  0.8143 -0.5005  1.3076
  448SOL    HW3 1866   2.917   0.786   1.009 -0.2854 -0.2632  0.1702
  448SOL    MW4 1867   2.867   0.718   1.033 -0.0238 -0.3278  0.6080
  449SOL     OW 1868   3.217   1.276   1.150  0.1226 -0.3122 -0.1009
  449SOL    HW2 1869   3.299   1.312   1.185  0.7596 -0.2680 -1.5704
  449SOL    HW3 1870   3.159   1.351   1.142  0.5265 -0.0891 -0.6236
  449SOL    MW4 1871   3.221   1.290   1.154  0.2861 -0.2861 -0.3695
  450SOL     OW 1872   3.205   1.587   0.394  0.0766 -0.7935 -0.9065
  450SOL    HW2 1873   3.208   1.680   0.417 -0.2107 -0.5358 -1.9060
  450SOL    HW3 1874   3.203   1.542   0.479 -0.0545  0.1192 -0.4198
  450SOL    MW4 1875   3.205   1.593   0.408  0.0238 -0.6318 -0.9745
  451SOL     OW 1876   3.471   1.906   0.422 -0.2651 -0.4308  0.1808
  451SOL    HW2 1877   3.550   1.875   0.466  0.7893  1.8915 -0.0058
  451SOL    HW3 1878   3.415   1.938   0.493 -0.2213 -0.3381  0.1598
  451SOL    MW4 1879   3.474   1.906   0.437 -0.0954 -0.1073  0.1520
  452SOL     OW 1880   3.174   2.041   0.396 -0.1532 -0.1266  0.2669
  452SOL    HW2 1881   3.177   1.971   0.331  1.0386  0.1203  0.0556
  452SOL    HW3 1882   3.081   2.057   0.411 -0.4683 -1.1349 -0.4018
  452SOL    MW4 1883   3.163   2.034   0.390 -0.0238 -0.2146  0.1490
  453SOL     OW 1884   3.428   3.189   0.244  0.2730  0.2005 -0.5251
  453SOL    HW2 1885   3.405   3.280   0.263  0.3714  0.0957  0.1734
  453SOL    HW3 1886   3.486   3.193   0.168  0.3873  0.7453 -0.4044
  453SOL    MW4 1887   3.432   3.201   0.236  0.2623  0.2623 -0.4172
  454SOL     OW 1888   3.302   2.582   0.673 -0.1698  0.5639 -0.5761
  454SOL    HW2 1889   3.377   2.556   0.726 -0.4478  0.7702 -0.0440
  454SOL    HW3 1890   3.287   2.674   0.697  1.3765  1.4010 -3.0292
  454SOL    MW4 1891   3.310   2.591   0.683 -0.0238  0.6914 -0.8225
  455SOL     OW 1892   3.796   2.958   0.788 -0.7197  0.0057  0.1103
  455SOL    HW2 1893   3.854   2.992   0.856  0.2040 -0.8418 -0.2364
  455SOL    HW3 1894   3.774   2.869   0.817 -1.7515  0.2839  0.1941
  455SOL    MW4 1895   3.801   2.951   0.801 -0.7153 -0.0715  0.0715
  456SOL     OW 1896   3.388   3.007   1.353 -0.4897 -0.7892  0.3492
  456SOL    HW2 1897   3.350   3.085   1.312  1.1967  0.7236  1.6563
  456SOL    HW3 1898   3.344   3.001   1.438  0.0259 -0.7374  0.6176
  456SOL    MW4 1899   3.377   3.017   1.359 -0.2146 -0.5960  0.5603
  457SOL     OW 1900   4.020   2.977   0.991 -0.7311 -0.3363 -0.2377
  457SOL    HW2 1901   3.955   3.003   1.057 -0.4696  0.1055 -0.1386
  457SOL    HW3 1902   4.035   3.057   0.940 -0.9044 -0.6868 -0.8044
  457SOL    MW4 1903   4.013   2.991   0.993 -0.7153 -0.3099 -0.2980
  458SOL     OW 1904   4.428   3.469   1.350 -1.0098  0.0279 -0.8691
  458SOL    HW2 1905   4.436   3.508   1.263 -0.1787  0.8676 -0.4365
  458SOL    HW3 1906   4.451   3.377   1.337  1.7515  0.7245 -1.0539
  458SOL    MW4 1907   4.432   3.462   1.337 -0.4768  0.2146 -0.8464
  459SOL     OW 1908   4.151   4.128   0.671  0.5889  0.3774 -0.1164
  459SOL    HW2 1909   4.138   4.124   0.766 -0.0503 -0.8860 -0.2629
  459SOL    HW3 1910   4.178   4.040   0.647 -1.3507  0.1001 -1.4107
  459SOL    MW4 1911   4.153   4.116   0.681  0.2384  0.1907 -0.3099
  460SOL     OW 1912   4.287   4.460   1.040  0.5129  0.1484  0.2617
  460SOL    HW2 1913   4.346   4.484   0.968  1.6008 -0.3517  1.0091
  460SOL    HW3 1914   4.222   4.403   1.000  1.2232 -0.2910 -0.3226
  460SOL    MW4 1915   4.286   4.456   1.025  0.7629  0.0477  0.2742
  461SOL     OW 1916   3.778   4.172   1.047 -0.5646 -0.3365  0.0131
  461SOL    HW2 1917   3.809   4.213   0.966 -0.9747 -0.3937 -0.1771
  461SOL    HW3 1918   3.729   4.242   1.091  0.6405  0.0692  0.7291
  461SOL    MW4 1919   3.776   4.187   1.042 -0.4530 -0.2861  0.0834
  462SOL     OW 1920   3.340   0.246   0.856 -0.5922 -0.2045 -0.5202
  462SOL    HW2 1921   3.429   0.271   0.833 -0.7943 -0.5179 -1.7427
  462SOL    HW3 1922   3.347   0.154   0.882 -0.5546 -0.2118 -0.5541
  462SOL    MW4 1923   3.353   0.237   0.856 -0.5960 -0.2459 -0.6855
  463SOL     OW 1924   3.877   0.843   1.018  0.3543 -0.2412 -0.7860
  463SOL    HW2 1925   3.784   0.856   1.037  0.4044  0.6952 -1.2285
  463SOL    HW3 1926   3.913   0.801   1.096 -0.5183 -0.8884 -0.7326
  463SOL    MW4 1927   3.869   0.839   1.031  0.2384 -0.1967 -0.8345
  464SOL     OW 1928   3.876   4.289   0.822 -0.0390  0.0869 -0.4513
  464SOL    HW2 1929   3.800   4.347   0.822  0.3329  0.5940  0.1591
  464SOL    HW3 1930   3.937   4.329   0.884  0.2812 -0.9296 -0.1575
  464SOL    MW4 1931   3.874   4.302   0.830  0.0477  0.0477 -0.3338
  465SOL     OW 1932   3.762   0.324   1.001  0.1733 -0.6415  0.2051
  465SOL    HW2 1933   3.683   0.368   1.029 -0.4810 -0.7158 -1.4949
  465SOL    HW3 1934   3.805   0.297   1.083 -1.1184  0.1265  1.1191
  465SOL    MW4 1935   3.758   0.326   1.016 -0.0954 -0.5484  0.0954
  466SOL     OW 1936   3.957   0.981   1.388  0.2781  0.1785  0.1091
  466SOL    HW2 1937   3.915   1.018   1.311  1.3676 -0.1428 -0.6570
  466SOL    HW3 1938   3.967   1.055   1.448 -0.8942  0.3673  0.0793
  466SOL    MW4 1939   3.953   0.996   1.386  0.2623  0.1609  0.0119
  467SOL     OW 1940   0.091   1.176   0.814 -0.2684 -0.2641  0.1672
  467SOL    HW2 1941   0.023   1.161   0.880 -1.2690 -1.8036 -1.2237
  467SOL    HW3 1942   0.070   1.263   0.778 -1.4330 -0.6735 -0.1719
  467SOL    MW4 1943   0.079   1.186   0.818 -0.5536 -0.5245 -0.0596
  468SOL     OW 1944   0.345   1.434   0.798 -0.6962  0.0965 -0.9418
  468SOL    HW2 1945   0.387   1.519   0.812 -0.2592 -0.0830 -1.1260
  468SOL    HW3 1946   0.329   1.401   0.887 -1.3839  0.6275 -0.8693
  468SOL    MW4 1947   0.348   1.441   0.812 -0.7302  0.1431 -0.9596
  469SOL     OW 1948   0.409   1.971   0.779  0.4026 -0.2917  0.0699
  469SOL    HW2 1949   0.358   2.011   0.849 -0.5220  0.2113 -0.8901
  469SOL    HW3 1950   0.349   1.968   0.705  1.1840 -1.4249 -0.4970
  469SOL    MW4 1951   0.395   1.976   0.779  0.3815 -0.3576 -0.1252
  470SOL     OW 1952   0.676   2.279   0.718  0.6265  0.1547  0.3802
  470SOL    HW2 1953   0.629   2.299   0.637  0.3632 -0.8045  0.3086
  470SOL    HW3 1954   0.632   2.202   0.754  0.2242  1.0535  1.8371
  470SOL    MW4 1955   0.664   2.271   0.712  0.5364  0.1431  0.5603
  471SOL     OW 1956   0.049   2.249   1.093  0.0923 -0.0179  0.1773
  471SOL    HW2 1957   0.088   2.206   1.016  0.2498  0.9772 -0.2814
  471SOL    HW3 1958   0.098   2.330   1.103  0.4720 -0.4564  1.6943
  471SOL    MW4 1959   0.061   2.254   1.084  0.1635  0.0477  0.3219
  472SOL     OW 1960   3.440   1.433   1.246 -0.0657 -0.3214  0.4152
  472SOL    HW2 1961   3.372   1.491   1.281 -2.2594 -2.0966 -0.9273
  472SOL    HW3 1962   3.455   1.467   1.158 -0.0524 -0.6602  0.2993
  472SOL    MW4 1963   3.433   1.445   1.239 -0.3576 -0.5841  0.2146
  473SOL     OW 1964   3.945   2.490   0.425  0.0282 -0.1884 -0.9339
  473SOL    HW2 1965   3.972   2.512   0.514  0.4463  0.2744 -1.1921
  473SOL    HW3 1966   3.849   2.486   0.429  0.1985 -3.0352  0.2219
  473SOL    MW4 1967   3.936   2.492   0.437  0.1192 -0.5007 -0.8166
  474SOL     OW 1968   3.615   1.623   0.682 -1.2685 -0.4888 -0.2009
  474SOL    HW2 1969   3.680   1.619   0.751  0.1383  1.0487 -1.4235
  474SOL    HW3 1970   3.662   1.658   0.606 -2.4890 -3.1997 -2.2103
  474SOL    MW4 1971   3.630   1.627   0.681 -1.2398 -0.6437 -0.6258
  475SOL     OW 1972   3.907   2.534   0.710  0.1401  0.4751 -0.3902
  475SOL    HW2 1973   3.869   2.446   0.715 -0.4442  0.7642  0.5745
  475SOL    HW3 1974   3.996   2.524   0.744  0.7051 -0.1156 -2.0459
  475SOL    MW4 1975   3.914   2.521   0.715  0.1669  0.4053 -0.4828
  476SOL     OW 1976   4.080   2.238   0.365  0.0785 -0.4103 -0.4346
  476SOL    HW2 1977   4.042   2.325   0.378  1.3152  0.2815 -1.6007
  476SOL    HW3 1978   4.141   2.227   0.438 -1.2819 -0.9537  0.6696
  476SOL    MW4 1979   4.083   2.248   0.377  0.0954 -0.3815 -0.4411
  477SOL     OW 1980   3.375   2.292   0.604 -0.4782  0.4429  0.1054
  477SOL    HW2 1981   3.462   2.326   0.584 -0.6631  1.4375  0.9162
  477SOL    HW3 1982   3.327   2.367   0.639 -0.9971 -0.5772  1.5877
  477SOL    MW4 1983   3.380   2.307   0.606 -0.5722  0.4292  0.4113
  478SOL     OW 1984   4.159   2.672   0.967 -0.2649 -0.0802  0.3250
  478SOL    HW2 1985   4.096   2.744   0.958  1.3375  1.4372  1.0797
  478SOL    HW3 1986   4.123   2.617   1.036 -1.6414 -0.0520 -0.3598
  478SOL    MW4 1987   4.146   2.674   0.975 -0.2861  0.0954  0.3338
  479SOL     OW 1988   3.663   3.605   0.556  0.5222 -0.3576  0.5761
  479SOL    HW2 1989   3.590   3.544   0.562  0.6950 -0.5711  0.8545
  479SOL    HW3 1990   3.660   3.654   0.639  0.0041  0.4393  0.0852
  479SOL    MW4 1991   3.653   3.603   0.568  0.4768 -0.2861  0.5484
  480SOL     OW 1992   3.524   3.714   0.805  0.1290 -0.0308  0.2361
  480SOL    HW2 1993   3.589   3.661   0.850  0.6533  0.3549 -0.0848
  480SOL    HW3 1994   3.444   3.662   0.808  0.5006 -0.5335  0.5154
  480SOL    MW4 1995   3.522   3.700   0.811  0.2623 -0.0477  0.2325
  481SOL     OW 1996   4.366   2.934   0.720 -0.4863 -0.6006 -0.0448
  481SOL    HW2 1997   4.428   2.955   0.650  0.2681  0.1529  0.8729
  481SOL    HW3 1998   4.370   3.009   0.779 -1.6526 -0.9555  0.4690
  481SOL    MW4 1999   4.375   2.947   0.718 -0.5245 -0.5484  0.1431
  482SOL     OW 2000   4.077   3.274   1.608 -0.7169  0.2982 -0.1096
  482SOL    HW2 2001   4.119   3.250   1.691  1.1294 -2.9165 -1.9418
  482SOL    HW3 2002   4.123   3.353   1.580  0.7833 -0.3922  0.3712
  482SOL    MW4 2003   4.089   3.281   1.616 -0.2861 -0.1907 -0.2861
  483SOL     OW 2004   4.446   0.890   1.362  0.0813  0.6494  0.3057
  483SOL    HW2 2005   4.359   0.913   1.330 -0.8819 -1.5744  1.4271
  483SOL    HW3 2006   4.444   0.912   1.455  0.0892 -1.2576  0.7585
  483SOL    MW4 2007   4.434   0.896   1.370 -0.0477  0.1073  0.5245
  484SOL     OW 2008   4.436   4.582   0.806 -0.0261  0.7060  0.3018
  484SOL    HW2 2009   4.405   4.513   0.747 -0.9109  1.7514 -0.4467
  484SOL    HW3 2010   4.494   4.635   0.752 -1.6216  2.2521  0.1130
  484SOL    MW4 2011   4.439   4.580   0.791 -0.3338  1.0490  0.1788
  485SOL     OW 2012   3.678   1.215   0.773 -0.1711  0.1561 -0.2361
  485SOL    HW2 2013   3.769   1.184   0.780  0.1814  0.9270 -1.1247
  485SOL    HW3 2014   3.637   1.156   0.710 -0.1026  0.1679 -0.2863
  485SOL    MW4 2015   3.685   1.203   0.766 -0.1192  0.2623 -0.3636
  486SOL     OW 2016   0.573   1.564   1.259  0.7529  0.2602 -0.6728
  486SOL    HW2 2017   0.480   1.548   1.275  1.1704 -1.3565  0.1606
  486SOL    HW3 2018   0.604   1.486   1.213  1.5625  1.0345 -1.4412
  486SOL    MW4 2019   0.565   1.552   1.255  0.9120  0.1550 -0.6676
  487SOL     OW 2020   4.393   0.602   1.737  0.3942  0.0065  0.3526
  487SOL    HW2 2021   4.348   0.521   1.759  0.1772  0.1444  0.4933
  487SOL    HW3 2022   4.411   0.594   1.643 -0.8796  0.4144  0.0743
  487SOL    MW4 2023   4.389   0.591   1.727  0.1431  0.0775  0.3219
  488SOL     OW 2024   0.198   1.036   1.827  0.3341  0.5388  0.4450
  488SOL    HW2 2025   0.264   1.054   1.760 -0.6981 -0.0866 -0.7260
  488SOL    HW3 2026   0.173   0.945   1.813 -1.2256  0.9477  0.5188
  488SOL    MW4 2027   0.203   1.026   1.817 -0.0075  0.5007  0.2980
  489SOL     OW 2028   0.532   0.073   1.020 -0.2854 -0.6863 -0.5186
  489SOL    HW2 2029   0.455   0.130   1.016 -0.1963 -0.5892 -0.8490
  489SOL    HW3 2030   0.586   0.111   1.089 -0.6949 -0.9578 -0.0512
  489SOL    MW4 2031   0.529   0.085   1.029 -0.3278 -0.7093 -0.4888
  490SOL     OW 2032   0.478   0.831   1.648  0.5952  0.0233  0.1064
  490SOL    HW2 2033   0.391   0.804   1.619  0.6533  0.4016 -0.4162
  490SOL    HW3 2034   0.538   0.776   1.598  0.7000  0.8508 -0.6866
  490SOL    MW4 2035   0.475   0.820   1.637  0.6169  0.1788 -0.0715
  491SOL     OW 2036   0.588   0.421   0.957  0.1050 -0.3665  0.0465
  491SOL    HW2 2037   0.618   0.485   0.893 -0.4951 -0.8784 -0.7375
  491SOL    HW3 2038   0.497   0.446   0.976  0.1913 -0.3685  0.5052
  491SOL    MW4 2039   0.580   0.433   0.951  0.0358 -0.4351  0.0060
  492SOL     OW 2040   0.487   0.897   0.596 -0.0303 -0.3945 -0.5809
  492SOL    HW2 2041   0.413   0.941   0.638  0.4481  0.1533 -0.3185
  492SOL    HW3 2042   0.530   0.849   0.667 -0.0364 -0.5955 -0.7167
  492SOL    MW4 2043   0.482   0.896   0.611  0.0298 -0.3517 -0.5662
  493SOL     OW 2044   0.536   1.865   1.196 -0.1541 -0.4095  0.2134
  493SOL    HW2 2045   0.461   1.918   1.171 -0.9396 -1.7361 -0.2263
  493SOL    HW3 2046   0.503   1.775   1.198  1.5376 -1.0283 -0.4013
  493SOL    MW4 2047   0.522   1.860   1.193 -0.0417 -0.6676  0.0715
  494SOL     OW 2048   0.699   1.505   1.498  0.1283 -0.1835 -0.2299
  494SOL    HW2 2049   0.650   1.524   1.419  0.2467 -0.1141 -0.2867
  494SOL    HW3 2050   0.663   1.564   1.564  0.2791 -0.0015 -0.3076
  494SOL    MW4 2051   0.688   1.515   1.496  0.1609 -0.1431 -0.2503
  495SOL     OW 2052   0.329   2.266   1.760  0.1959  0.2827  0.4505
  495SOL    HW2 2053   0.293   2.178   1.774  0.0282  0.2940  0.0432
  495SOL    HW3 2054   0.414   2.251   1.719  0.5391  0.2824  1.1683
  495SOL    MW4 2055   0.335   2.252   1.757  0.2176  0.2861  0.5007
  496SOL     OW 2056   0.276   1.860   1.474  0.6246 -0.1539  0.5388
  496SOL    HW2 2057   0.195   1.894   1.513  1.4265  0.3443  1.7790
  496SOL    HW3 2058   0.337   1.934   1.477  0.8013 -0.1960 -1.3582
  496SOL    MW4 2059   0.273   1.874   1.479  0.7510 -0.0954  0.4530
  497SOL     OW 2060   0.263   2.503   1.658 -0.4095  0.2082 -0.1365
  497SOL    HW2 2061   0.348   2.518   1.618 -0.2663 -0.2322  0.0234
  497SOL    HW3 2062   0.270   2.416   1.697 -1.1870 -0.1331 -0.7764
  497SOL    MW4 2063   0.275   2.493   1.658 -0.4947  0.1192 -0.1907
  498SOL     OW 2064   0.643   1.924   1.486  0.1581 -0.2932 -0.1167
  498SOL    HW2 2065   0.615   1.875   1.409  1.4855 -0.5682 -0.4249
  498SOL    HW3 2066   0.653   2.014   1.456  0.3286 -0.3437 -0.1946
  498SOL    MW4 2067   0.641   1.929   1.472  0.3576 -0.3219 -0.1788
  499SOL     OW 2068   0.375   2.130   1.417 -0.1260  0.3274 -0.2858
  499SOL    HW2 2069   0.459   2.176   1.408 -0.7278  1.5161  0.2376
  499SOL    HW3 2070   0.310   2.199   1.428 -0.9522 -0.6677  1.0875
  499SOL    MW4 2071   0.378   2.145   1.417 -0.3129  0.3576 -0.0477
  500SOL     OW 2072   0.466   2.459   1.282  0.5106 -0.1719 -0.2672
  500SOL    HW2 2073   0.503   2.541   1.249  0.8071 -0.4974 -0.7456
  500SOL    HW3 2074   0.377   2.457   1.245  0.4667 -0.0061 -0.1715
  500SOL    MW4 2075   0.459   2.470   1.273  0.5424 -0.1907 -0.3099
  501SOL     OW 2076   3.629   2.562   0.179 -0.1116 -0.6157 -0.3148
  501SOL    HW2 2077   3.609   2.655   0.193  0.2201 -0.4399 -1.0083
  501SOL    HW3 2078   3.722   2.560   0.159  0.0642 -1.1951  0.5834
  501SOL    MW4 2079   3.638   2.574   0.178 -0.0477 -0.6676 -0.2876
  502SOL     OW 2080   4.059   2.979   0.567 -0.6839 -0.3423 -0.1755
  502SOL    HW2 2081   4.037   3.035   0.642 -1.6341 -1.4614  0.3694
  502SOL    HW3 2082   4.134   2.927   0.597 -0.5685 -0.1821 -0.2425
  502SOL    MW4 2083   4.066   2.979   0.581 -0.8106 -0.5007 -0.1132
  503SOL     OW 2084   3.625   3.911   0.504  0.0346  0.3694  0.0937
  503SOL    HW2 2085   3.710   3.930   0.543  0.5713  0.5218 -1.1882
  503SOL    HW3 2086   3.629   3.818   0.481  0.1072  0.6051 -0.7328
  503SOL    MW4 2087   3.636   3.901   0.506  0.0954  0.4053 -0.1907
  504SOL     OW 2088   4.461   3.189   1.334  0.1729 -0.5862 -0.0940
  504SOL    HW2 2089   4.507   3.206   1.252 -2.0101  1.4896 -0.8981
  504SOL    HW3 2090   4.368   3.191   1.310 -0.4312 -0.5723  2.2986
  504SOL    MW4 2091   4.455   3.192   1.320 -0.2384 -0.3338  0.1192
  505SOL     OW 2092   4.403   0.552   1.005  0.2434  0.0953  0.7108
  505SOL    HW2 2093   4.396   0.529   0.912  1.1827 -0.2461  0.7274
  505SOL    HW3 2094   4.347   0.488   1.050 -0.5625  0.5259  0.3212
  505SOL    MW4 2095   4.395   0.540   0.999  0.2384  0.1132  0.6616
  506SOL     OW 2096   4.154   0.382   1.099 -0.0012  0.1170  0.4992
  506SOL    HW2 2097   4.121   0.319   1.034  1.1872  0.8242 -0.7999
  506SOL    HW3 2098   4.120   0.466   1.070  0.4606  0.4164  0.8778
  506SOL    MW4 2099   4.145   0.384   1.086  0.2861  0.2503  0.3695
  507SOL     OW 2100   0.673   3.921   1.207 -0.2006 -0.1068  0.3037
  507SOL    HW2 2101   0.595   3.977   1.210  2.2772  3.3797 -1.2670
  507SOL    HW3 2102   0.681   3.895   1.116 -0.0930 -1.2811  0.6578
  507SOL    MW4 2103   0.664   3.925   1.196  0.1371  0.2146  0.1311
  508SOL     OW 2104   3.945   0.226   1.208 -0.6075 -0.9492  0.5013
  508SOL    HW2 2105   3.918   0.264   1.292 -0.8149  0.5249 -0.2137
  508SOL    HW3 2106   4.029   0.269   1.189 -0.7481 -1.0481 -0.2127
  508SOL    MW4 2107   3.953   0.237   1.217 -0.6437 -0.7704  0.3099
  509SOL     OW 2108   4.420   0.586   1.463 -0.5851  0.7379 -0.8207
  509SOL    HW2 2109   4.332   0.550   1.450 -1.0665  1.6146 -0.2364
  509SOL    HW3 2110   4.426   0.658   1.400 -0.5919  1.1550 -0.3444
  509SOL    MW4 2111   4.409   0.591   1.453 -0.6676  0.9120 -0.6795
  510SOL     OW 2112   4.202   1.019   1.258  0.2744  0.0272  0.2524
  510SOL    HW2 2113   4.117   0.994   1.295 -0.7595  0.2837 -2.1242
  510SOL    HW3 2114   4.208   0.972   1.175  2.5282  0.0619  0.3759
  510SOL    MW4 2115   4.192   1.009   1.252  0.4768  0.0596 -0.0477
  511SOL     OW 2116   0.105   0.275   0.438 -1.0857  0.8949  0.0784
  511SOL    HW2 2117   0.085   0.225   0.359 -2.0425  1.7814 -0.2430
  511SOL    HW3 2118   0.100   0.211   0.509  0.2048  0.0026 -0.6128
  511SOL    MW4 2119   0.102   0.260   0.437 -1.0408  0.8941 -0.0536
  512SOL     OW 2120   0.797   4.405   1.402 -0.1183  0.4900 -0.1978
  512SOL    HW2 2121   0.833   4.451   1.326 -1.3146  1.0221 -0.4088
  512SOL    HW3 2122   0.792   4.313   1.373 -0.4789  0.6355 -0.7620
  512SOL    MW4 2123   0.801   4.399   1.388 -0.3219  0.6199 -0.2861
  513SOL     OW 2124   0.851   4.525   1.159 -0.5467  0.0667 -1.1770
  513SOL    HW2 2125   0.787   4.490   1.097 -0.0957 -0.5108 -1.3145
  513SOL    HW3 2126   0.895   4.595   1.111 -0.6947  0.0951 -1.2700
  513SOL    MW4 2127   0.848   4.530   1.145 -0.5007 -0.0477 -1.2279
  514SOL     OW 2128   0.607   0.614   1.506 -0.0421  0.7711  0.4995
  514SOL    HW2 2129   0.581   0.539   1.453 -0.7000  0.7631  0.8333
  514SOL    HW3 2130   0.607   0.581   1.596  0.0028  1.0762  0.6143
  514SOL    MW4 2131   0.604   0.599   1.511 -0.1192  0.7987  0.5603
  515SOL     OW 2132   1.215   0.989   1.424  0.1459 -0.1517  0.5671
  515SOL    HW2 2133   1.253   0.941   1.350 -1.3717 -0.9847  0.3292
  515SOL    HW3 2134   1.124   0.959   1.427 -0.2819  1.2723  1.6343
  515SOL    MW4 2135   1.208   0.979   1.414 -0.1192 -0.0715  0.6914
  516SOL     OW 2136   0.557   0.788   0.877 -0.3031  0.3914 -0.6629
  516SOL    HW2 2137   0.470   0.757   0.904 -1.0024  2.3663 -0.6314
  516SOL    HW3 2138   0.616   0.756   0.946 -1.0942 -0.4693 -0.3902
  516SOL    MW4 2139   0.553   0.780   0.890 -0.5066  0.5364 -0.6258
  517SOL     OW 2140   0.534   1.267   1.438  0.0754 -0.2356 -0.0037
  517SOL    HW2 2141   0.579   1.333   1.491  0.4177 -0.0422 -0.5427
  517SOL    HW3 2142   0.579   1.185   1.459  0.4346 -0.1050 -0.2446
  517SOL    MW4 2143   0.546   1.265   1.448  0.1729 -0.2027 -0.0954
  518SOL     OW 2144   0.661   1.217   2.035 -0.3031 -0.0587  0.2508
  518SOL    HW2 2145   0.674   1.123   2.023 -0.3646 -0.1261  0.7109
  518SOL    HW3 2146   0.698   1.257   1.956  0.3221 -0.4264  0.3299
  518SOL    MW4 2147   0.667   1.210   2.023 -0.2325 -0.1073  0.3338
  519SOL     OW 2148   0.686   1.053   1.500 -0.4908 -0.6699  0.0677
  519SOL    HW2 2149   0.765   1.104   1.482 -0.3451 -1.0771 -0.5163
  519SOL    HW3 2150   0.704   1.009   1.583 -0.0323 -0.9152 -0.1720
  519SOL    MW4 2151   0.699   1.054   1.508 -0.4113 -0.7629 -0.0358
  520SOL     OW 2152   0.968   1.618   1.490  0.1273  0.6143 -0.3065
  520SOL    HW2 2153   0.876   1.594   1.497  0.2775 -0.1753 -1.0870
  520SOL    HW3 2154   0.977   1.653   1.402  0.5951  0.6012 -0.2703
  520SOL    MW4 2155   0.957   1.619   1.480  0.2086  0.5126 -0.4172
  521SOL     OW 2156   1.334   1.762   1.442  0.7079  0.0231  0.3882
  521SOL    HW2 2157   1.365   1.845   1.406  0.9411  0.3204  1.2925
  521SOL    HW3 2158   1.271   1.788   1.510  0.0667 -0.5619  0.0088
  521SOL    MW4 2159   1.330   1.776   1.447  0.6318 -0.0119  0.4530
  522SOL     OW 2160   0.886   2.316   1.744  0.3011  0.0942 -0.0321
  522SOL    HW2 2161   0.973   2.295   1.710  0.0140 -0.7212 -0.2864
  522SOL    HW3 2162   0.826   2.281   1.679 -0.2207 -0.1068  0.5523
  522SOL    MW4 2163   0.890   2.309   1.731  0.1967 -0.0238 -0.0119
  523SOL     OW 2164   0.863   2.479   1.406  0.0650  0.1318  0.3527
  523SOL    HW2 2165   0.850   2.570   1.432 -0.1110 -0.0108  0.8851
  523SOL    HW3 2166   0.775   2.445   1.394  0.1322  0.0191  0.3226
  523SOL    MW4 2167   0.850   2.487   1.408  0.0596  0.0954  0.4292
  524SOL     OW 2168   1.037   1.765   1.262  0.5739  0.5710 -0.2822
  524SOL    HW2 2169   1.053   1.859   1.258  0.8385  0.5004 -0.7924
  524SOL    HW3 2170   0.952   1.752   1.219  0.8200  0.5035 -0.7418
  524SOL    MW4 2171   1.028   1.775   1.256  0.6437  0.5484 -0.4172
  525SOL     OW 2172   0.635   2.306   1.122 -0.0174 -0.0032  0.4127
  525SOL    HW2 2173   0.716   2.356   1.129 -0.3088  0.6380 -0.8267
  525SOL    HW3 2174   0.579   2.341   1.191  0.9701 -0.8229  1.6425
  525SOL    MW4 2175   0.638   2.317   1.132  0.0775 -0.0238  0.4172
  526SOL     OW 2176   0.921   2.998   1.391  0.4494  0.3754 -0.1985
  526SOL    HW2 2177   0.981   2.937   1.349 -0.5930  0.0752 -1.2854
  526SOL    HW3 2178   0.863   2.942   1.444  0.1526  0.5393 -0.3783
  526SOL    MW4 2179   0.922   2.982   1.393  0.2742  0.3815 -0.3576
  527SOL     OW 2180   4.434   2.532   0.681  0.1415 -0.7900 -0.0017
  527SOL    HW2 2181   4.455   2.574   0.597 -0.4825 -0.5375 -0.0278
  527SOL    HW3 2182   4.454   2.599   0.747  0.3901 -0.9010  0.0378
  527SOL    MW4 2183   4.440   2.546   0.679  0.0954 -0.7629  0.0000
  528SOL     OW 2184   4.279   2.889   1.377 -0.5269 -0.0600  0.3447
  528SOL    HW2 2185   4.241   2.975   1.360 -0.8536 -0.4033 -0.7859
  528SOL    HW3 2186   4.373   2.904   1.384 -0.5347  0.2171 -0.6257
  528SOL    MW4 2187   4.286   2.902   1.376 -0.5722 -0.0954  0.0715
  529SOL     OW 2188   4.432   3.172   0.874 -0.0460 -0.7459 -0.3408
  529SOL    HW2 2189   4.389   3.115   0.938 -0.7910 -0.2934 -0.4037
  529SOL    HW3 2190   4.370   3.244   0.861  0.8608  0.0929 -0.2045
  529SOL    MW4 2191   4.418   3.174   0.880 -0.0477 -0.5484 -0.3278
  530SOL     OW 2192   0.716   2.634   0.678  0.6693  0.6584  0.8295
  530SOL    HW2 2193   0.644   2.669   0.626  0.4606  1.0068  1.3483
  530SOL    HW3 2194   0.765   2.579   0.617 -0.2887  0.0491  0.5907
  530SOL    MW4 2195   0.713   2.631   0.663  0.5066  0.6199  0.8643
  531SOL     OW 2196   4.376   4.283   1.236 -0.6694  0.1268  0.1948
  531SOL    HW2 2197   4.405   4.209   1.183  0.2856  1.1424 -0.6475
  531SOL    HW3 2198   4.358   4.353   1.173  0.2640  1.2510  1.1333
  531SOL    MW4 2199   4.378   4.282   1.221 -0.4292  0.4292  0.2027
  532SOL     OW 2200   4.408   3.590   1.679 -0.5026 -0.7703  0.9975
  532SOL    HW2 2201   4.481   3.545   1.637 -0.6181 -1.2216  1.2514
  532SOL    HW3 2202   4.420   3.682   1.655 -0.5702 -1.0369 -0.0545
  532SOL    MW4 2203   4.419   3.596   1.670 -0.5245 -0.8821  0.9060
  533SOL     OW 2204   0.422   3.733   1.324 -0.6961 -0.2548 -0.5455
  533SOL    HW2 2205   0.474   3.753   1.246 -0.5313  1.9070  0.1175
  533SOL    HW3 2206   0.455   3.793   1.391 -1.6825 -1.2602  0.8507
  533SOL    MW4 2207   0.433   3.743   1.323 -0.8047 -0.0954 -0.2742
  534SOL     OW 2208   0.137   0.632   1.176 -0.4066 -0.3223  0.4906
  534SOL    HW2 2209   0.066   0.690   1.147 -0.3001 -0.2062  0.4682
  534SOL    HW3 2210   0.195   0.625   1.100 -1.0879 -1.4802  0.0777
  534SOL    MW4 2211   0.135   0.638   1.162 -0.4843 -0.4530  0.4292
  535SOL     OW 2212   1.055   0.721   1.033 -0.6441  0.3308 -0.6495
  535SOL    HW2 2213   1.074   0.630   1.012 -0.9881  0.2420 -0.5548
  535SOL    HW3 2214   1.048   0.764   0.948 -1.5902  0.0614 -0.6970
  535SOL    MW4 2215   1.057   0.715   1.019 -0.8225  0.2861 -0.6318
  536SOL     OW 2216   0.970   0.664   0.622  0.5407 -0.4414 -0.4636
  536SOL    HW2 2217   0.893   0.623   0.661  0.5928  0.1317  0.2559
  536SOL    HW3 2218   1.037   0.596   0.623  0.2948 -0.6789 -0.3009
  536SOL    MW4 2219   0.969   0.650   0.627  0.5126 -0.3994 -0.3457
  537SOL     OW 2220   0.764   0.725   1.072 -0.3891 -0.6058 -0.9226
  537SOL    HW2 2221   0.858   0.732   1.058 -0.5107  0.4172 -1.3103
  537SOL    HW3 2222   0.744   0.796   1.134 -0.9798 -0.4855 -1.2720
  537SOL    MW4 2223   0.774   0.735   1.078 -0.4828 -0.4649 -1.0252
  538SOL     OW 2224   1.370   1.043   1.099 -0.0691  0.3346 -0.2722
  538SOL    HW2 2225   1.352   0.967   1.154  0.4849 -0.1497 -0.7517
  538SOL    HW3 2226   1.440   1.090   1.144  0.1178  0.1312 -0.3857
  538SOL    MW4 2227   1.377   1.039   1.112  0.0238  0.2265 -0.3457
  539SOL     OW 2228   1.253   1.494   2.093 -0.1097 -0.3240  0.2535
  539SOL    HW2 2229   1.291   1.529   2.012  0.6575 -0.1896  0.7029
  539SOL    HW3 2230   1.233   1.403   2.072 -0.8898  0.0077 -0.4190
  539SOL    MW4 2231   1.255   1.487   2.079 -0.1073 -0.2623  0.2384
  540SOL     OW 2232   1.218   1.100   1.675 -0.2436 -0.2966  0.3372
  540SOL    HW2 2233   1.126   1.078   1.690 -0.1979 -0.4834  0.3342
  540SOL    HW3 2234   1.236   1.067   1.587 -0.2516 -0.0309  0.2118
  540SOL    MW4 2235   1.208   1.093   1.665 -0.2384 -0.2861  0.3219
  541SOL     OW 2236   0.954   0.877   1.417  0.3204 -0.3282 -0.4638
  541SOL    HW2 2237   0.923   0.903   1.503  0.4715 -0.4290 -0.3816
  541SOL    HW3 2238   0.920   0.944   1.358 -0.8761 -0.9774 -0.5149
  541SOL    MW4 2239   0.946   0.890   1.420  0.1907 -0.4292 -0.4649
  542SOL     OW 2240   0.937   1.029   1.682 -0.3502  0.2316  0.2060
  542SOL    HW2 2241   0.914   1.020   1.774 -1.9654  0.4616 -0.1959
  542SOL    HW3 2242   0.902   1.115   1.657  0.4346  0.3214 -0.5237
  542SOL    MW4 2243   0.929   1.039   1.691 -0.4590  0.2861  0.0596
  543SOL     OW 2244   1.137   1.792   1.629  0.8496 -0.1141 -0.1201
  543SOL    HW2 2245   1.068   1.753   1.574  0.4960 -1.0024  0.9328
  543SOL    HW3 2246   1.124   1.752   1.715  1.1845  1.5121  0.6867
  543SOL    MW4 2247   1.126   1.782   1.633  0.8464 -0.0238  0.1311
  544SOL     OW 2248   0.862   1.293   1.545 -0.6302 -0.1058  0.0556
  544SOL    HW2 2249   0.951   1.319   1.521 -0.5463 -0.1156  0.3628
  544SOL    HW3 2250   0.808   1.370   1.525 -0.7311 -0.5227 -1.2604
  544SOL    MW4 2251   0.867   1.307   1.539 -0.6318 -0.1550 -0.0715
  545SOL     OW 2252   1.318   1.523   1.595  0.2440  0.1235 -0.1276
  545SOL    HW2 2253   1.291   1.601   1.546  0.0488  0.4081  0.4493
  545SOL    HW3 2254   1.266   1.452   1.557  0.2115  0.3097 -0.4593
  545SOL    MW4 2255   1.308   1.524   1.584  0.2146  0.1788 -0.0954
  546SOL     OW 2256   1.742   1.772   1.381  0.0803  0.0301 -0.0240
  546SOL    HW2 2257   1.681   1.709   1.420 -0.3624  0.6791  0.3176
  546SOL    HW3 2258   1.726   1.766   1.287 -0.4980  0.2078  0.0719
  546SOL    MW4 2259   1.732   1.763   1.374 -0.0596  0.1431  0.0358
  547SOL     OW 2260   1.406   1.888   1.066 -0.1256 -0.0997  0.1247
  547SOL    HW2 2261   1.379   1.925   1.150 -0.1439 -0.3897  0.2554
  547SOL    HW3 2262   1.358   1.939   1.001  0.1726  0.3949  0.2816
  547SOL    MW4 2263   1.396   1.900   1.069 -0.0834 -0.0596  0.1669
  548SOL     OW 2264   0.360   2.959   1.197 -0.9482 -0.6549  0.7183
  548SOL    HW2 2265   0.376   3.013   1.120 -0.2840 -0.4163  1.0146
  548SOL    HW3 2266   0.415   2.997   1.265 -1.0864 -1.2156  1.1456
  548SOL    MW4 2267   0.369   2.971   1.196 -0.8792 -0.6914  0.8106
  549SOL     OW 2268   1.438   2.871   1.056 -0.1729  0.2529 -0.1377
  549SOL    HW2 2269   1.454   2.813   0.981 -0.3184  0.8213 -0.5901
  549SOL    HW3 2270   1.438   2.959   1.018 -2.0275  0.4039  0.1862
  549SOL    MW4 2271   1.440   2.875   1.041 -0.4411  0.3576 -0.1550
  550SOL     OW 2272   1.680   3.090   0.628  0.0852 -0.0601 -0.5041
  550SOL    HW2 2273   1.584   3.089   0.633  0.0507  0.7133 -0.9529
  550SOL    HW3 2274   1.709   3.099   0.718 -0.2749  0.6997 -0.4722
  550SOL    MW4 2275   1.671   3.091   0.640  0.0358  0.1431 -0.5662
  551SOL     OW 2276   2.616   3.127   0.721  0.6668  0.1108 -0.4639
  551SOL    HW2 2277   2.587   3.085   0.802  0.1272  0.8034 -0.3279
  551SOL    HW3 2278   2.538   3.171   0.687  0.8788 -0.2166 -1.3942
  551SOL    MW4 2279   2.602   3.128   0.727  0.5960  0.1669 -0.5722
  552SOL     OW 2280   0.315   3.450   1.055 -0.9401  0.3642 -0.0080
  552SOL    HW2 2281   0.228   3.411   1.053 -1.4922  1.6245 -1.2480
  552SOL    HW3 2282   0.343   3.445   1.147 -1.7942 -1.2099  0.1546
  552SOL    MW4 2283   0.307   3.444   1.067 -1.1235  0.3099 -0.1431
  553SOL     OW 2284   2.380   3.234   0.606  0.4409  0.1209  0.1989
  553SOL    HW2 2285   2.295   3.276   0.611  0.9753  1.2874 -0.6175
  553SOL    HW3 2286   2.361   3.140   0.604 -0.8553  0.4055 -0.7773
  553SOL    MW4 2287   2.366   3.227   0.606  0.3338  0.2861 -0.0417
  554SOL     OW 2288   1.814   0.340   0.975 -0.4035 -0.3144  0.4797
  554SOL    HW2 2289   1.793   0.247   0.975  0.2827 -0.4717 -0.2596
  554SOL    HW3 2290   1.864   0.354   0.894 -0.4308  0.6767  0.6305
  554SOL    MW4 2291   1.818   0.330   0.964 -0.3219 -0.2056  0.3994
  555SOL     OW 2292   2.312   0.224   0.718  0.7007  0.0305  0.2331
  555SOL    HW2 2293   2.232   0.175   0.698  0.9113 -0.2052 -0.0891
  555SOL    HW3 2294   2.282   0.314   0.732  0.2245 -0.2601  1.1500
  555SOL    MW4 2295   2.297   0.230   0.717  0.6437 -0.0387  0.3099
  556SOL     OW 2296   1.684   0.592   1.013 -0.0429 -0.0601  0.0699
  556SOL    HW2 2297   1.719   0.506   0.991  0.0090 -0.2751  1.0432
  556SOL    HW3 2298   1.704   0.646   0.937  0.3392 -0.7705 -0.3341
  556SOL    MW4 2299   1.691   0.588   1.000  0.0238 -0.1848  0.1550
  557SOL     OW 2300   1.549   0.816   0.334 -0.1161 -0.0129 -0.2808
  557SOL    HW2 2301   1.537   0.834   0.427 -1.1161 -1.0824 -0.1888
  557SOL    HW3 2302   1.591   0.730   0.331 -0.2948 -0.0777 -0.8344
  557SOL    MW4 2303   1.553   0.807   0.346 -0.2742 -0.1609 -0.3427
  558SOL     OW 2304   1.507   0.334   0.618  0.6294 -0.4665 -0.4605
  558SOL    HW2 2305   1.510   0.290   0.703  1.5071 -0.6169 -0.5739
  558SOL    HW3 2306   1.448   0.408   0.631  0.5447 -0.6524  0.1865
  558SOL    MW4 2307   1.499   0.338   0.631  0.7391 -0.5096 -0.3874
  559SOL     OW 2308   1.173   0.136   1.221 -0.5072 -0.4982 -0.5949
  559SOL    HW2 2309   1.101   0.141   1.284  0.7205 -1.2271  0.8648
  559SOL    HW3 2310   1.240   0.194   1.258 -0.1158 -0.2579 -1.6656
  559SOL    MW4 2311   1.172   0.145   1.235 -0.2742 -0.5618 -0.5364
  560SOL     OW 2312   1.263   0.800   1.211 -0.3353  0.5826 -0.1817
  560SOL    HW2 2313   1.240   0.744   1.285  0.4650  0.1613 -0.2567
  560SOL    HW3 2314   1.194   0.785   1.147 -0.5403  0.2988  0.1249
  560SOL    MW4 2315   1.251   0.791   1.212 -0.2623  0.4947 -0.1550
  561SOL     OW 2316   1.499   0.435   1.406 -0.5189 -0.0749  0.3597
  561SOL    HW2 2317   1.510   0.444   1.311  1.2796 -2.3269  0.3369
  561SOL    HW3 2318   1.524   0.520   1.441  0.5533  0.1851 -1.0333
  561SOL    MW4 2319   1.504   0.447   1.398 -0.1431 -0.3368  0.1788
  562SOL     OW 2320   1.859   1.003   2.049  0.2380 -0.1938  0.4608
  562SOL    HW2 2321   1.834   1.019   1.958  0.2310  0.6146  0.5975
  562SOL    HW3 2322   1.803   0.930   2.077 -0.2524  0.0210 -0.0003
  562SOL    MW4 2323   1.848   0.995   2.041  0.1669 -0.0536  0.4053
  563SOL     OW 2324   1.272   1.224   1.942  0.3545  0.1123  0.1597
  563SOL    HW2 2325   1.366   1.223   1.961  0.6341 -0.0778 -1.2560
  563SOL    HW3 2326   1.265   1.188   1.854 -1.0261  0.2026  0.2205
  563SOL    MW4 2327   1.283   1.219   1.933  0.2146  0.0834 -0.0238
  564SOL     OW 2328   1.353   1.529   2.355  0.0048 -0.5830  0.4219
  564SOL    HW2 2329   1.435   1.480   2.347  0.5786  0.3875  0.3788
  564SOL    HW3 2330   1.310   1.518   2.271 -0.3816 -1.9289  0.8032
  564SOL    MW4 2331   1.358   1.521   2.343  0.0358 -0.6318  0.4768
  565SOL     OW 2332   1.264   1.979   1.958 -0.2968  0.3927  0.5107
  565SOL    HW2 2333   1.211   1.912   2.000 -0.2852  0.5366  0.7697
  565SOL    HW3 2334   1.273   1.949   1.867  0.3692 -0.3446  0.8183
  565SOL    MW4 2335   1.258   1.966   1.951 -0.2027  0.3219  0.5960
  566SOL     OW 2336   1.168   2.307   1.670  0.1077 -0.0943  0.1747
  566SOL    HW2 2337   1.173   2.313   1.766  0.0184 -0.4829  0.1992
  566SOL    HW3 2338   1.190   2.216   1.650 -0.4605 -0.1702 -0.1280
  566SOL    MW4 2339   1.171   2.296   1.680  0.0238 -0.1669  0.1431
  567SOL     OW 2340   1.368   2.358   1.939  0.1265  0.1795 -0.2323
  567SOL    HW2 2341   1.436   2.361   2.006  0.0333  0.2187 -0.0982
  567SOL    HW3 2342   1.336   2.448   1.934  0.4980  0.2473 -0.7164
  567SOL    MW4 2343   1.373   2.371   1.947  0.1550  0.1669 -0.2623
  568SOL     OW 2344   1.017   2.299   2.211 -0.6838 -0.4572  0.4835
  568SOL    HW2 2345   1.093   2.249   2.180 -0.4951  0.9315 -1.3571
  568SOL    HW3 2346   0.949   2.282   2.146 -1.5715 -0.7752  1.4951
  568SOL    MW4 2347   1.018   2.290   2.198 -0.7629 -0.3338  0.3815
  569SOL     OW 2348   1.125   2.394   1.400  0.5587 -0.3525 -0.3801
  569SOL    HW2 2349   1.034   2.426   1.405  0.6134 -0.3366  0.4038
  569SOL    HW3 2350   1.151   2.382   1.492  1.1399 -0.9948 -0.6270
  569SOL    MW4 2351   1.116   2.397   1.413  0.6557 -0.4530 -0.3099
  570SOL     OW 2352   1.733   2.652   2.069 -0.2567 -0.6411 -0.9070
  570SOL    HW2 2353   1.753   2.746   2.068 -0.6096 -0.5596 -0.3499
  570SOL    HW3 2354   1.644   2.647   2.104  0.2349 -1.2684  0.2636
  570SOL    MW4 2355   1.724   2.664   2.074 -0.2503 -0.7153 -0.6914
  571SOL     OW 2356   1.713   3.029   1.683 -0.3494  1.0302  0.1735
  571SOL    HW2 2357   1.733   3.095   1.617 -0.6566  0.7829 -0.1844
  571SOL    HW3 2358   1.763   2.952   1.656  0.3202  1.2342  0.8068
  571SOL    MW4 2359   1.722   3.028   1.671 -0.3099  1.0490  0.2265
  572SOL     OW 2360   1.354   2.457   1.055  0.4951  0.6569 -0.1899
  572SOL    HW2 2361   1.317   2.464   0.967  0.0058 -0.2742 -0.0702
  572SOL    HW3 2362   1.303   2.388   1.097  0.7206  1.1130  0.8225
  572SOL    MW4 2363   1.342   2.449   1.049  0.4530  0.6199 -0.0358
  573SOL     OW 2364   1.435   3.108   0.931 -0.2085 -0.0699  0.2371
  573SOL    HW2 2365   1.357   3.143   0.973 -0.2082 -0.0368  0.2309
  573SOL    HW3 2366   1.508   3.150   0.977 -0.1875 -0.9841  1.0319
  573SOL    MW4 2367   1.434   3.118   0.942 -0.2146 -0.1907  0.3397
  574SOL     OW 2368   2.030   3.152   0.819 -0.1484  0.1215 -0.4077
  574SOL    HW2 2369   2.065   3.159   0.907 -0.8275  0.5527 -0.1529
  574SOL    HW3 2370   1.942   3.117   0.831 -0.0757 -0.2048 -0.9698
  574SOL    MW4 2371   2.023   3.148   0.832 -0.2384  0.1192 -0.4411
  575SOL     OW 2372   2.806   3.376   0.317  0.0383  0.0116  0.4211
  575SOL    HW2 2373   2.822   3.417   0.401  0.4531  0.6320  0.0282
  575SOL    HW3 2374   2.882   3.320   0.302 -0.3132 -0.5903  0.7323
  575SOL    MW4 2375   2.818   3.374   0.326  0.0477 -0.0238  0.4113
  576SOL     OW 2376   1.774   3.058   0.888  0.0683  0.1778 -0.4040
  576SOL    HW2 2377   1.744   3.109   0.963  0.1566  0.7913 -0.7946
  576SOL    HW3 2378   1.746   2.968   0.908 -0.6556  0.4869 -0.0738
  576SOL    MW4 2379   1.766   3.053   0.901 -0.0119  0.3099 -0.4172
  577SOL     OW 2380   1.311   4.216   1.711 -0.1390 -0.1936  0.3011
  577SOL    HW2 2381   1.278   4.250   1.628  0.0387 -0.4693  0.1129
  577SOL    HW3 2382   1.263   4.133   1.724 -0.6406  0.1916  0.7941
  577SOL    MW4 2383   1.300   4.209   1.702 -0.1907 -0.1907  0.3219
  578SOL     OW 2384   2.375   4.353   0.822  0.2543  0.5011 -0.1007
  578SOL    HW2 2385   2.410   4.282   0.768 -0.1242 -0.6838  1.2738
  578SOL    HW3 2386   2.280   4.350   0.808  0.1423  0.1389  0.7951
  578SOL    MW4 2387   2.367   4.343   0.813  0.1907  0.3338  0.1967
  579SOL     OW 2388   1.216   4.480   1.162 -1.0426  0.0955 -0.5192
  579SOL    HW2 2389   1.261   4.547   1.111  0.0283  0.6529  1.1504
  579SOL    HW3 2390   1.206   4.518   1.249 -0.5742 -1.9156  0.3772
  579SOL    MW4 2391   1.221   4.494   1.167 -0.8225 -0.0954 -0.1907
  580SOL     OW 2392   1.373   3.813   0.883 -1.0296 -0.0825  0.2362
  580SOL    HW2 2393   1.366   3.883   0.819 -2.2826 -0.5643 -0.1709
  580SOL    HW3 2394   1.434   3.846   0.949  0.2171  0.4471 -1.1683
  580SOL    MW4 2395   1.380   3.827   0.884 -1.0252 -0.0715 -0.0060
  581SOL     OW 2396   1.225   0.745   0.335  0.0369 -0.0585 -0.4570
  581SOL    HW2 2397   1.218   0.798   0.415  0.5305 -0.6055 -0.0573
  581SOL    HW3 2398   1.317   0.752   0.310 -0.0636 -0.1037 -0.8263
  581SOL    MW4 2399   1.236   0.753   0.342  0.0954 -0.1371 -0.4530
  582SOL     OW 2400   1.512   0.209   0.870 -0.2911  0.2144 -0.1970
  582SOL    HW2 2401   1.591   0.157   0.886 -1.0000 -0.6039  0.5542
  582SOL    HW3 2402   1.498   0.257   0.952 -0.6580  0.2448 -0.2807
  582SOL    MW4 2403   1.520   0.209   0.883 -0.4411  0.1103 -0.1132
  583SOL     OW 2404   1.693   0.786   2.117  0.0289  0.1271  0.2620
  583SOL    HW2 2405   1.708   0.765   2.209 -0.1872  0.0674  0.2872
  583SOL    HW3 2406   1.688   0.700   2.074  0.3910  0.1478  0.1574
  583SOL    MW4 2407   1.694   0.772   2.123  0.0477  0.1252  0.2623
  584SOL     OW 2408   1.501   0.294   1.146 -0.6513  0.2876 -0.4644
  584SOL    HW2 2409   1.589   0.327   1.163 -0.1504 -0.2981 -1.9875
  584SOL    HW3 2410   1.494   0.215   1.200 -0.6747  0.9995  0.5685
  584SOL    MW4 2411   1.512   0.288   1.155 -0.5841  0.3040 -0.5364
  585SOL     OW 2412   2.319   0.869   1.766  0.8071  0.2490 -0.0765
  585SOL    HW2 2413   2.343   0.940   1.825  1.3079 -0.2440  0.3411
  585SOL    HW3 2414   2.224   0.878   1.756  0.9916  1.3979 -0.6229
  585SOL    MW4 2415   2.310   0.879   1.773  0.8821  0.3397 -0.0834
  586SOL     OW 2416   2.482   1.276   1.817  0.4669  0.0325 -0.0131
  586SOL    HW2 2417   2.474   1.238   1.729  0.2722  0.3901 -0.1550
  586SOL    HW3 2418   2.422   1.226   1.871  0.9011 -0.4384  0.0018
  586SOL    MW4 2419   2.473   1.264   1.812  0.5245  0.0119 -0.0238
  587SOL     OW 2420   2.349   1.605   2.056 -0.2598 -0.3384 -0.1460
  587SOL    HW2 2421   2.344   1.591   1.962 -0.0519 -0.5679 -0.1162
  587SOL    HW3 2422   2.363   1.517   2.092  0.0877 -0.1803  0.0805
  587SOL    MW4 2423   2.350   1.591   2.048 -0.1907 -0.3338 -0.1192
  588SOL     OW 2424   1.593   1.187   2.043 -0.4445  0.0886  0.0622
  588SOL    HW2 2425   1.664   1.134   2.080 -1.3305 -0.4697  0.9308
  588SOL    HW3 2426   1.625   1.277   2.050  0.4425 -0.2103 -0.1564
  588SOL    MW4 2427   1.607   1.192   2.049 -0.4530 -0.0477  0.1669
  589SOL     OW 2428   1.720   1.658   2.287 -0.1424  0.0055  0.4187
  589SOL    HW2 2429   1.635   1.695   2.311 -0.6554 -0.0275 -1.4069
  589SOL    HW3 2430   1.700   1.572   2.252  0.5532  0.4617 -1.0849
  589SOL    MW4 2431   1.706   1.651   2.286 -0.1073  0.0715 -0.0238
  590SOL     OW 2432   1.572   2.111   2.259 -0.1291  0.1116 -0.0992
  590SOL    HW2 2433   1.667   2.126   2.259 -0.4042  1.8938 -0.9138
  590SOL    HW3 2434   1.560   2.040   2.197  0.7082 -0.3276  0.2484
  590SOL    MW4 2435   1.583   2.104   2.251 -0.0596  0.3099 -0.1431
  591SOL     OW 2436   2.058   2.475   1.658  0.3673  0.0230  0.1540
  591SOL    HW2 2437   2.090   2.444   1.743 -0.7096  0.6544  0.7781
  591SOL    HW3 2438   1.975   2.430   1.646  0.2658  0.3146 -0.3350
  591SOL    MW4 2439   2.051   2.465   1.668  0.1907  0.1669  0.1788
  592SOL     OW 2440   1.594   2.350   2.103  0.0304 -0.5116 -0.5789
  592SOL    HW2 2441   1.573   2.430   2.150  1.1387 -0.1029 -0.7805
  592SOL    HW3 2442   1.576   2.280   2.165  0.8219 -0.0113  0.1937
  592SOL    MW4 2443   1.589   2.351   2.117  0.2980 -0.3815 -0.5245
  593SOL     OW 2444   1.513   1.897   2.092  0.2943 -0.0366  0.3127
  593SOL    HW2 2445   1.480   1.862   2.174 -0.7102  0.2389  0.0399
  593SOL    HW3 2446   1.434   1.923   2.044  0.8311 -1.2089 -1.1937
  593SOL    MW4 2447   1.498   1.896   2.096  0.2384 -0.1550  0.0954
  594SOL     OW 2448   2.176   2.254   1.565  0.2553 -0.0950  0.1448
  594SOL    HW2 2449   2.157   2.263   1.471 -0.6860 -0.7406  0.2617
  594SOL    HW3 2450   2.140   2.334   1.604 -0.0996 -0.2096  0.0559
  594SOL    MW4 2451   2.169   2.266   1.558  0.0715 -0.2146  0.1431
  595SOL     OW 2452   1.877   2.793   1.590  0.0183  0.6770  0.3122
  595SOL    HW2 2453   1.829   2.718   1.556 -0.0812  0.6672  0.3741
  595SOL    HW3 2454   1.904   2.766   1.678  0.1908  0.6017  0.2370
  595SOL    MW4 2455   1.874   2.780   1.597  0.0358  0.6676  0.3099
  596SOL     OW 2456   2.028   3.136   1.546  0.7546 -0.3725 -0.3007
  596SOL    HW2 2457   2.005   3.084   1.623  0.9989 -0.7679 -0.4888
  596SOL    HW3 2458   1.945   3.176   1.518  0.4099 -1.4186 -0.7445
  596SOL    MW4 2459   2.014   3.135   1.553  0.7391 -0.5484 -0.3934
  597SOL     OW 2460   2.140   2.803   1.480  0.0814  0.3118  0.0900
  597SOL    HW2 2461   2.145   2.875   1.417  0.7194  0.7960  0.6904
  597SOL    HW3 2462   2.048   2.798   1.505 -0.1661  0.1171 -0.8791
  597SOL    MW4 2463   2.129   2.812   1.475  0.1431  0.3576  0.0358
  598SOL     OW 2464   2.924   2.718   1.034  0.2486  0.0086 -0.2075
  598SOL    HW2 2465   2.855   2.746   1.094  0.3585  0.2344 -0.1537
  598SOL    HW3 2466   2.948   2.798   0.986  0.6257 -0.0102 -0.0707
  598SOL    MW4 2467   2.918   2.732   1.035  0.3099  0.0477 -0.1669
  599SOL     OW 2468   2.404   2.999   1.416  0.4411  0.0808 -0.4538
  599SOL    HW2 2469   2.430   2.908   1.428  1.2641  0.1740 -1.3001
  599SOL    HW3 2470   2.480   3.042   1.379 -0.1520  0.9177 -0.7589
  599SOL    MW4 2471   2.417   2.993   1.413  0.4530  0.1669 -0.6080
  600SOL     OW 2472   1.933   2.792   1.199 -0.4522 -0.3433  0.3178
  600SOL    HW2 2473   2.012   2.840   1.175 -0.2554 -1.1439 -0.6335
  600SOL    HW3 2474   1.965   2.716   1.247 -0.6859 -0.4229  0.3447
  600SOL    MW4 2475   1.947   2.789   1.202 -0.4649 -0.4292  0.2027
  601SOL     OW 2476   3.074   3.308   0.908  1.4250 -0.2324 -0.0043
  601SOL    HW2 2477   3.060   3.402   0.924  2.3462 -0.0363 -0.3378
  601SOL    HW3 2478   3.001   3.282   0.852  0.5969  0.0201  0.9982
  601SOL    MW4 2479   3.062   3.317   0.903  1.4305 -0.1669  0.0834
  602SOL     OW 2480   2.447   4.128   0.667 -0.0884  0.1672 -0.2392
  602SOL    HW2 2481   2.423   4.072   0.741 -1.1538  0.7238 -0.1270
  602SOL    HW3 2482   2.457   4.068   0.594  0.9209 -0.4570  0.3774
  602SOL    MW4 2483   2.445   4.113   0.667 -0.1192  0.1431 -0.1490
  603SOL     OW 2484   3.223   3.592   1.085  0.0432 -0.2276  0.2786
  603SOL    HW2 2485   3.131   3.595   1.059  0.1994  1.9024  0.0740
  603SOL    HW3 2486   3.268   3.555   1.009 -0.3176  0.9108 -0.5029
  603SOL    MW4 2487   3.217   3.587   1.072  0.0238  0.2146  0.1550
  604SOL     OW 2488   2.683   3.667   0.878 -0.0885 -0.4637 -0.1132
  604SOL    HW2 2489   2.633   3.605   0.932 -0.0322  0.5504  1.0881
  604SOL    HW3 2490   2.670   3.751   0.921  2.0871 -0.0894 -0.2259
  604SOL    MW4 2491   2.674   3.670   0.891  0.1907 -0.2861  0.0298
  605SOL     OW 2492   2.336   0.245   1.323 -0.4568  0.0127  0.1564
  605SOL    HW2 2493   2.368   0.252   1.233  0.7170 -0.7223  0.5273
  605SOL    HW3 2494   2.249   0.206   1.314 -0.5824  0.5104 -0.7189
  605SOL    MW4 2495   2.329   0.241   1.310 -0.3099 -0.0179  0.0834
  606SOL     OW 2496   1.529   0.218   1.566 -0.0816  0.1207 -0.0386
  606SOL    HW2 2497   1.594   0.250   1.630 -0.2014  0.3529 -0.0170
  606SOL    HW3 2498   1.507   0.295   1.514 -0.3340  0.0387 -0.0455
  606SOL    MW4 2499   1.535   0.233   1.568 -0.1311  0.1401 -0.0238
  607SOL     OW 2500   1.932   0.250   1.616 -0.0073  0.0282  0.2168
  607SOL    HW2 2501   1.895   0.321   1.563 -0.3597 -0.8782 -0.7552
  607SOL    HW3 2502   1.998   0.293   1.670 -0.1791  1.0939 -0.4096
  607SOL    MW4 2503   1.936   0.265   1.616 -0.0834  0.0507  0.0000
  608SOL     OW 2504   2.084   0.445   1.746 -0.0265 -0.1545  0.2241
  608SOL    HW2 2505   2.160   0.455   1.803  0.2636 -0.7315 -0.0084
  608SOL    HW3 2506   2.117   0.463   1.658 -0.4462  0.9351  0.2820
  608SOL    MW4 2507   2.098   0.449   1.742 -0.0715 -0.0894  0.2146
  609SOL     OW 2508   2.750   1.163   1.784  0.6083 -0.1448 -0.4771
  609SOL    HW2 2509   2.666   1.199   1.813  0.8307  0.4349 -0.5321
  609SOL    HW3 2510   2.732   1.071   1.766  0.0828 -0.1321  0.0175
  609SOL    MW4 2511   2.737   1.156   1.786  0.5722 -0.0715 -0.4172
  610SOL     OW 2512   2.469   0.677   0.791 -0.2002  0.3331 -0.2102
  610SOL    HW2 2513   2.561   0.656   0.806 -0.2302  0.3461  0.0582
  610SOL    HW3 2514   2.433   0.691   0.878 -0.8532 -1.4257 -0.1806
  610SOL    MW4 2515   2.476   0.676   0.804 -0.2861  0.1013 -0.1729
  611SOL     OW 2516   2.323   0.673   1.037 -0.2473  0.1742  0.1812
  611SOL    HW2 2517   2.313   0.767   1.053 -1.0957  0.2740 -0.9823
  611SOL    HW3 2518   2.360   0.640   1.119  1.6877  1.8063 -0.0236
  611SOL    MW4 2519   2.326   0.681   1.050 -0.0954  0.3994  0.0000
  612SOL     OW 2520   2.063   1.577   2.069  0.4896 -0.3295  0.5027
  612SOL    HW2 2521   2.040   1.668   2.087  0.1692 -0.5009  0.9040
  612SOL    HW3 2522   2.159   1.576   2.069  0.5011 -0.0261  0.7320
  612SOL    MW4 2523   2.073   1.589   2.072  0.4292 -0.2980  0.6199
  613SOL     OW 2524   1.778   1.937   1.882  0.0984  0.3615  0.4888
  613SOL    HW2 2525   1.801   2.001   1.950  0.3867  0.6218  0.1350
  613SOL    HW3 2526   1.720   1.874   1.927  0.1851  0.6025  0.9401
  613SOL    MW4 2527   1.773   1.937   1.897  0.1431  0.4172  0.5126
  614SOL     OW 2528   2.908   1.201   2.032 -0.2720 -0.5038 -0.0251
  614SOL    HW2 2529   2.837   1.152   1.991  0.1636 -0.0789 -1.2666
  614SOL    HW3 2530   2.919   1.278   1.977  0.6978 -0.2229  0.5703
  614SOL    MW4 2531   2.900   1.204   2.020 -0.0715 -0.4053 -0.0954
  615SOL     OW 2532   2.087   1.710   1.785  0.0223 -0.2654  0.2407
  615SOL    HW2 2533   2.074   1.618   1.763 -0.0212 -0.1721 -0.1522
  615SOL    HW3 2534   2.079   1.713   1.880  0.4807 -0.7375  0.2923
  615SOL    MW4 2535   2.084   1.698   1.794  0.0715 -0.3219  0.2027
  616SOL     OW 2536   2.120   2.083   1.931 -0.5507  0.5931  0.4190
  616SOL    HW2 2537   2.210   2.078   1.962 -0.3242  0.2288 -0.3198
  616SOL    HW3 2538   2.120   2.031   1.850 -1.5455  0.2298  0.6624
  616SOL    MW4 2539   2.132   2.076   1.924 -0.6676  0.5007  0.3457
  617SOL     OW 2540   2.449   2.204   1.545  0.4952  0.0180  0.3873
  617SOL    HW2 2541   2.353   2.214   1.538  0.5026 -0.2916 -0.1382
  617SOL    HW3 2542   2.472   2.140   1.478  1.1617  0.5655  0.0971
  617SOL    MW4 2543   2.439   2.197   1.535  0.5960  0.0477  0.2861
  618SOL     OW 2544   2.727   2.033   1.130  0.2950 -0.6606 -0.4821
  618SOL    HW2 2545   2.751   2.125   1.128  0.1029 -0.6089 -0.3919
  618SOL    HW3 2546   2.687   2.020   1.216  0.7122 -0.8974 -0.3124
  618SOL    MW4 2547   2.725   2.043   1.141  0.3099 -0.7153 -0.4530
  619SOL     OW 2548   2.530   2.504   1.189  0.6044 -0.1691  0.1350
  619SOL    HW2 2549   2.529   2.489   1.284  0.1067 -0.3867  0.0896
  619SOL    HW3 2550   2.494   2.424   1.151  1.3345 -0.2783 -0.2932
  619SOL    MW4 2551   2.525   2.492   1.197  0.6199 -0.2146  0.0596
  620SOL     OW 2552   2.103   2.589   1.304 -0.1381  0.1382  0.4135
  620SOL    HW2 2553   2.136   2.647   1.372  0.0880  0.3543  0.1200
  620SOL    HW3 2554   2.162   2.604   1.229 -0.5319  0.1060  0.0882
  620SOL    MW4 2555   2.115   2.598   1.303 -0.1431  0.1669  0.3338
  621SOL     OW 2556   2.697   2.533   0.969  0.1686  0.7769 -0.1552
  621SOL    HW2 2557   2.643   2.545   1.048  0.5994  0.6900  0.1534
  621SOL    HW3 2558   2.761   2.604   0.973  0.7805  0.1851  0.0684
  621SOL    MW4 2559   2.698   2.544   0.980  0.3338  0.6676 -0.0834
  622SOL     OW 2560   3.003   3.353   1.239  0.3450  0.0315  0.7134
  622SOL    HW2 2561   2.982   3.272   1.286  0.0860  0.0832  0.7174
  622SOL    HW3 2562   2.969   3.339   1.150  0.5040  0.0511  0.6521
  622SOL    MW4 2563   2.996   3.341   1.233  0.3099  0.0238  0.7033
  623SOL     OW 2564   2.919   3.279   1.640 -0.6722 -0.0775  0.6889
  623SOL    HW2 2565   2.840   3.227   1.624 -1.3040  0.5117  1.9073
  623SOL    HW3 2566   2.917   3.346   1.572 -1.3054  0.0308  0.8180
  623SOL    MW4 2567   2.908   3.281   1.629 -0.8345  0.0238  0.8583
  624SOL     OW 2568   2.409   3.184   1.665  0.6857  0.3837 -0.0684
  624SOL    HW2 2569   2.388   3.229   1.583 -0.7045  1.2492  0.7635
  624SOL    HW3 2570   2.355   3.105   1.662  0.5661  0.4633  0.0512
  624SOL    MW4 2571   2.399   3.179   1.653  0.5007  0.5007  0.0715
  625SOL     OW 2572   2.533   3.456   0.981 -0.6445  0.1911 -0.0366
  625SOL    HW2 2573   2.472   3.517   1.023 -1.2675 -0.1032 -0.5554
  625SOL    HW3 2574   2.507   3.456   0.889 -0.1337 -0.2716 -0.1744
  625SOL    MW4 2575   2.521   3.464   0.975 -0.6437  0.0715 -0.1192
  626SOL     OW 2576   2.635   3.715   1.498 -0.2121  1.0708  0.4752
  626SOL    HW2 2577   2.645   3.702   1.404 -1.1070  0.2761  0.5011
  626SOL    HW3 2578   2.692   3.649   1.538 -1.0849  0.3870  0.5298
  626SOL    MW4 2579   2.644   3.705   1.491 -0.4530  0.8821  0.4768
  627SOL     OW 2580   2.644   4.109   1.226 -0.0604 -0.4471 -0.1471
  627SOL    HW2 2581   2.739   4.116   1.216 -0.2113  0.0461 -1.1419
  627SOL    HW3 2582   2.629   4.118   1.320  0.8488  0.0427 -0.0386
  627SOL    MW4 2583   2.655   4.111   1.237  0.0238 -0.3338 -0.2623
  628SOL     OW 2584   2.949   4.419   1.268 -0.0398 -0.0969  0.1002
  628SOL    HW2 2585   2.914   4.346   1.318  1.0005 -0.7152 -0.0538
  628SOL    HW3 2586   2.876   4.480   1.260 -0.6683 -0.8199  0.7661
  628SOL    MW4 2587   2.935   4.417   1.273  0.0000 -0.2861  0.1788
  629SOL     OW 2588   2.603   4.608   1.757  0.0843  0.4106 -0.2316
  629SOL    HW2 2589   2.636   4.636   1.672 -1.7574 -0.4309 -1.2201
  629SOL    HW3 2590   2.663   4.537   1.783  0.4705  0.4556 -0.9422
  629SOL    MW4 2591   2.615   4.602   1.749 -0.0954  0.2861 -0.4411
  630SOL     OW 2592   3.328   4.254   1.500 -0.2407  0.4106 -0.1540
  630SOL    HW2 2593   3.252   4.300   1.535 -0.4120 -0.2010  0.3395
  630SOL    HW3 2594   3.403   4.304   1.531 -0.4194  0.2760  0.5161
  630SOL    MW4 2595   3.328   4.267   1.509 -0.2861  0.3338 -0.0119
  631SOL     OW 2596   3.628   0.253   1.319 -0.2653  0.4426  0.5069
  631SOL    HW2 2597   3.536   0.265   1.342 -0.0392  0.2084  1.4809
  631SOL    HW3 2598   3.631   0.170   1.273 -0.3947  0.0356  1.2387
  631SOL    MW4 2599   3.617   0.244   1.316 -0.2384  0.3606  0.7272
  632SOL     OW 2600   2.967   0.003   0.974  0.5020 -0.6532  0.1481
  632SOL    HW2 2601   2.995   0.038   1.059  1.4123 -1.6617  0.2810
  632SOL    HW3 2602   2.890   0.054   0.951 -0.2100 -0.8912  1.9734
  632SOL    MW4 2603   2.961   0.014   0.982  0.5245 -0.8176  0.3994
  633SOL     OW 2604   2.644   0.434   0.881  0.0010  0.1188 -0.6347
  633SOL    HW2 2605   2.730   0.395   0.863 -0.2398 -0.0556 -1.3833
  633SOL    HW3 2606   2.629   0.416   0.974  0.6282 -0.1458 -0.5778
  633SOL    MW4 2607   2.653   0.427   0.891  0.0477  0.0596 -0.7153
  634SOL     OW 2608   3.032   0.345   1.442 -0.0899 -0.2059 -0.4690
  634SOL    HW2 2609   3.055   0.293   1.366  1.6172  1.2946 -0.9766
  634SOL    HW3 2610   3.067   0.296   1.516 -0.1070 -0.7074 -0.7913
  634SOL    MW4 2611   3.040   0.332   1.442  0.1431 -0.0715 -0.5722
  635SOL     OW 2612   3.272   0.364   1.092 -0.7288  0.5276  0.2676
  635SOL    HW2 2613   3.291   0.308   1.017 -0.7181  0.8129  0.0570
  635SOL    HW3 2614   3.292   0.310   1.168  0.0318  0.5185  0.0516
  635SOL    MW4 2615   3.277   0.350   1.092 -0.6437  0.5662  0.1907
  636SOL     OW 2616   2.073   0.942   1.047 -0.3262  0.4060  0.6473
  636SOL    HW2 2617   2.167   0.935   1.063 -0.4516  0.4402  1.2948
  636SOL    HW3 2618   2.055   0.876   0.981  0.2722  0.8568  0.0277
  636SOL    MW4 2619   2.083   0.933   1.040 -0.2861  0.4709  0.6557
  637SOL     OW 2620   2.468   0.658   1.311 -0.2373  0.2012  0.3366
  637SOL    HW2 2621   2.563   0.660   1.313 -0.2107  0.8186 -0.4630
  637SOL    HW3 2622   2.441   0.720   1.379 -0.0797 -0.1843  0.7497
  637SOL    MW4 2623   2.477   0.667   1.320 -0.2146  0.2384  0.2742
  638SOL     OW 2624   2.745   0.695   1.311 -0.1182 -0.3857 -0.3547
  638SOL    HW2 2625   2.826   0.668   1.353 -0.5504  0.5753  1.1293
  638SOL    HW3 2626   2.753   0.790   1.303 -0.4073 -0.4776 -1.6743
  638SOL    MW4 2627   2.756   0.704   1.316 -0.1907 -0.2742 -0.3457
  639SOL     OW 2628   2.933   1.422   1.855  0.0497  0.4725  0.0452
  639SOL    HW2 2629   2.963   1.494   1.910  0.2766  0.3872  0.0414
  639SOL    HW3 2630   2.977   1.435   1.771  0.1408  0.3090  0.0542
  639SOL    MW4 2631   2.942   1.433   1.851  0.0715  0.4411  0.0477
  640SOL     OW 2632   2.656   1.469   1.953  0.3921 -0.4528  0.2643
  640SOL    HW2 2633   2.737   1.437   1.915  0.8079  0.4669  0.3806
  640SOL    HW3 2634   2.600   1.490   1.879  0.3630 -0.8436  0.1738
  640SOL    MW4 2635   2.659   1.467   1.938  0.4292 -0.3934  0.2623
  641SOL     OW 2636   2.702   1.595   1.269  0.0745 -0.2381 -0.1963
  641SOL    HW2 2637   2.656   1.665   1.221  0.2162 -0.4546 -0.6339
  641SOL    HW3 2638   2.782   1.635   1.300 -0.2856  0.0338  0.3223
  641SOL    MW4 2639   2.706   1.609   1.267  0.0238 -0.2265 -0.2027
  642SOL     OW 2640   2.941   1.694   1.350  0.3596  0.0045 -0.3127
  642SOL    HW2 2641   2.936   1.748   1.429  0.5076  0.1438 -0.4081
  642SOL    HW3 2642   2.948   1.757   1.278 -0.8757 -0.1105 -0.5238
  642SOL    MW4 2643   2.942   1.710   1.351  0.2146  0.0119 -0.3576
  643SOL     OW 2644   2.945   1.859   1.116  0.6001 -0.2799 -0.2521
  643SOL    HW2 2645   3.018   1.921   1.108  0.2189  0.1161 -0.6304
  643SOL    HW3 2646   2.867   1.915   1.119  0.3385 -0.7073  0.3424
  643SOL    MW4 2647   2.944   1.875   1.115  0.5007 -0.2742 -0.2265
  644SOL     OW 2648   3.089   2.403   0.969  0.0556  0.2129  0.1403
  644SOL    HW2 2649   3.046   2.436   1.049  0.1506  0.3967  0.1231
  644SOL    HW3 2650   3.042   2.446   0.898  0.3722  0.5734  0.1291
  644SOL    MW4 2651   3.077   2.413   0.970  0.0954  0.2861  0.1311
  645SOL     OW 2652   3.054   2.841   1.246 -0.2582 -0.0727  0.2759
  645SOL    HW2 2653   3.033   2.776   1.178  0.6321 -0.4835  0.4082
  645SOL    HW3 2654   3.140   2.875   1.220  0.2974 -0.5633  1.4613
  645SOL    MW4 2655   3.062   2.837   1.233 -0.0954 -0.2146  0.4530
  646SOL     OW 2656   2.985   3.103   1.369 -0.1878 -0.1727  0.1513
  646SOL    HW2 2657   3.040   3.070   1.440  0.5317  0.6942 -0.0043
  646SOL    HW3 2658   2.984   3.032   1.305  0.4801 -0.2812  0.2850
  646SOL    MW4 2659   2.992   3.089   1.370  0.0000 -0.0715  0.1431
  647SOL     OW 2660   3.196   3.058   1.592  0.0693 -0.0259 -0.1022
  647SOL    HW2 2661   3.110   3.024   1.616 -0.2774  0.4519 -0.5650
  647SOL    HW3 2662   3.182   3.152   1.580  1.0576  0.3420  1.6862
  647SOL    MW4 2663   3.182   3.066   1.593  0.1669  0.0715  0.0715
  648SOL     OW 2664   2.617   3.909   1.699  0.1559  0.4317  0.0956
  648SOL    HW2 2665   2.690   3.953   1.656 -0.0624  0.8778  0.1305
  648SOL    HW3 2666   2.591   3.841   1.638  0.2944  0.5814 -0.1147
  648SOL    MW4 2667   2.623   3.906   1.686  0.1669  0.4768  0.0596
  649SOL     OW 2668   3.265   3.236   1.249  0.0218 -0.2262  0.3056
  649SOL    HW2 2669   3.330   3.305   1.242  0.6834 -0.8246  0.3961
  649SOL    HW3 2670   3.181   3.281   1.243  0.4457  0.7575  1.8919
  649SOL    MW4 2671   3.262   3.251   1.247  0.1431 -0.1907  0.5364
  650SOL     OW 2672   2.876   4.204   1.420  0.2963 -0.3338 -0.2072
  650SOL    HW2 2673   2.861   4.124   1.471 -0.5857 -0.3602 -0.4990
  650SOL    HW3 2674   2.799   4.258   1.439 -0.0718 -0.3150 -1.6358
  650SOL    MW4 2675   2.864   4.200   1.429  0.1431 -0.3338 -0.4411
  651SOL     OW 2676   3.891   3.922   0.647 -0.0156 -0.3362  0.7055
  651SOL    HW2 2677   3.896   4.014   0.619  0.2770 -0.5071  0.2767
  651SOL    HW3 2678   3.848   3.925   0.732  0.0665  0.2030  0.7284
  651SOL    MW4 2679   3.886   3.935   0.654  0.0238 -0.2861  0.6557
  652SOL     OW 2680   3.364   3.984   1.558 -0.5961  0.6554  0.8256
  652SOL    HW2 2681   3.434   3.944   1.506 -0.3024  0.4222  1.3702
  652SOL    HW3 2682   3.364   4.076   1.531  1.1131  1.0484  2.1441
  652SOL    MW4 2683   3.373   3.991   1.548 -0.3338  0.6676  1.0729
  653SOL     OW 2684   3.693   4.398   1.204 -0.5467 -0.1587  0.2257
  653SOL    HW2 2685   3.734   4.387   1.289 -0.7716  1.6838  0.5549
  653SOL    HW3 2686   3.599   4.388   1.220 -0.5911 -0.0976  0.1748
  653SOL    MW4 2687   3.686   4.396   1.217 -0.6199  0.0954  0.2742
  654SOL     OW 2688   2.951   4.635   1.748 -0.6430 -0.2800  0.2924
  654SOL    HW2 2689   3.038   4.594   1.746  0.1856  1.3510  1.5248
  654SOL    HW3 2690   2.918   4.624   1.658  0.3531 -1.9864  0.1560
  654SOL    MW4 2691   2.959   4.628   1.736 -0.4292 -0.2861  0.4411
  655SOL     OW 2692   3.642   0.018   1.148 -0.3679  0.3851 -0.4867
  655SOL    HW2 2693   3.667   0.020   1.055  0.6721  1.5767 -0.2032
  655SOL    HW3 2694   3.659  -0.072   1.175  1.3074  0.5674 -0.9512
  655SOL    MW4 2695   3.648   0.007   1.139  0.0238  0.5674 -0.5126
  656SOL     OW 2696   3.605   0.003   1.649 -0.1586  0.1440  0.3754
  656SOL    HW2 2697   3.562   0.080   1.613 -0.9724 -0.6536 -0.3692
  656SOL    HW3 2698   3.681  -0.012   1.592 -1.4652 -1.1496 -1.0059
  656SOL    MW4 2699   3.610   0.011   1.637 -0.4292 -0.1311  0.1073
  657SOL     OW 2700   3.130   0.217   0.411  0.2479  0.3788  0.0532
  657SOL    HW2 2701   3.121   0.224   0.506 -1.1033 -0.1803 -0.0408
  657SOL    HW3 2702   3.167   0.302   0.384 -1.0962  1.2065  0.8414
  657SOL    MW4 2703   3.134   0.229   0.420 -0.1192  0.4157  0.1431
  658SOL     OW 2704   3.801   0.500   1.655 -0.4956  0.5505 -0.0491
  658SOL    HW2 2705   3.861   0.564   1.694 -1.1554  0.3881  1.2430
  658SOL    HW3 2706   3.750   0.551   1.592 -0.8009  1.2465  0.7700
  658SOL    MW4 2707   3.802   0.516   1.652 -0.6437  0.6139  0.2265
  659SOL     OW 2708   3.652   0.638   1.463  0.4489 -0.1090  0.0848
  659SOL    HW2 2709   3.578   0.653   1.522  0.6081  1.0386  0.0076
  659SOL    HW3 2710   3.611   0.624   1.377  0.3527  0.9504 -0.0413
  659SOL    MW4 2711   3.637   0.638   1.459  0.4530  0.1907  0.0477
  660SOL     OW 2712   3.277   0.467   1.489  0.6791  0.3703 -0.6585
  660SOL    HW2 2713   3.184   0.448   1.475  0.3815  1.6902 -0.3525
  660SOL    HW3 2714   3.302   0.519   1.413  1.2619 -0.3543 -0.9538
  660SOL    MW4 2715   3.268   0.471   1.477  0.7153  0.4470 -0.6557
  661SOL     OW 2716   3.140   0.656   1.179 -0.1154  0.3710 -0.1990
  661SOL    HW2 2717   3.074   0.661   1.109  0.7204  0.5016 -0.9934
  661SOL    HW3 2718   3.089   0.655   1.260 -1.1375 -1.0879 -0.8540
  661SOL    MW4 2719   3.125   0.657   1.180 -0.1192  0.1907 -0.3815
  662SOL     OW 2720   3.388   0.942   1.262 -0.2840 -0.2650  0.0052
  662SOL    HW2 2721   3.450   0.996   1.311 -0.8099  0.3005  0.0518
  662SOL    HW3 2722   3.352   0.882   1.327 -0.0427 -0.3629  0.0506
  662SOL    MW4 2723   3.391   0.941   1.277 -0.3099 -0.2027  0.0119
  663SOL     OW 2724   3.079   1.096   1.516 -0.2700 -0.7595  0.3048
  663SOL    HW2 2725   3.097   1.059   1.429 -1.6502  0.1438 -0.3443
  663SOL    HW3 2726   3.114   1.185   1.512 -0.4430 -0.6619  0.6606
  663SOL    MW4 2727   3.086   1.103   1.504 -0.4768 -0.6318  0.2742
  664SOL     OW 2728   3.213   1.333   1.482  0.3018 -0.3753  0.3229
  664SOL    HW2 2729   3.155   1.398   1.522  0.7903 -0.1108  0.5908
  664SOL    HW3 2730   3.179   1.322   1.393 -0.7700 -0.9863  0.8119
  664SOL    MW4 2731   3.201   1.340   1.475  0.2384 -0.4172  0.4172
  665SOL     OW 2732   3.173   1.556   1.230  0.2028  0.0710 -0.5031
  665SOL    HW2 2733   3.205   1.636   1.190  1.5208 -0.1852  0.0888
  665SOL    HW3 2734   3.100   1.584   1.286  0.5584  0.8489 -0.3872
  665SOL    MW4 2735   3.168   1.570   1.232  0.4053  0.1431 -0.4053
  666SOL     OW 2736   3.213   1.989   1.431  0.7276  0.2599  0.3016
  666SOL    HW2 2737   3.209   1.930   1.506 -0.5191  0.7340  0.6080
  666SOL    HW3 2738   3.247   1.935   1.360  0.1579 -0.6632  0.7441
  666SOL    MW4 2739   3.217   1.974   1.431  0.5007  0.1907  0.3934
  667SOL     OW 2740   3.199   1.679   0.859 -0.0323 -0.4595 -0.3505
  667SOL    HW2 2741   3.280   1.634   0.884 -0.3540 -0.9387 -0.2659
  667SOL    HW3 2742   3.218   1.772   0.873  0.4872 -0.5727 -0.4085
  667SOL    MW4 2743   3.212   1.685   0.864 -0.0238 -0.5364 -0.3457
  668SOL     OW 2744   3.097   2.118   1.070  0.6508  0.1858  0.4598
  668SOL    HW2 2745   3.060   2.134   1.157 -0.1129  0.6019  0.0827
  668SOL    HW3 2746   3.080   2.199   1.022  0.7753 -0.1507 -0.1462
  668SOL    MW4 2747   3.090   2.131   1.075  0.5722  0.1907  0.3338
  669SOL     OW 2748   3.243   2.385   1.275  0.0478 -0.0291 -0.0440
  669SOL    HW2 2749   3.177   2.443   1.313 -0.2641 -0.3762 -0.0348
  669SOL    HW3 2750   3.259   2.421   1.187 -0.1873  0.0200 -0.0594
  669SOL    MW4 2751   3.237   2.398   1.268 -0.0477 -0.0715 -0.0477
  670SOL     OW 2752   3.528   2.433   1.358  0.2052 -0.6024 -0.1813
  670SOL    HW2 2753   3.510   2.527   1.353  0.4440 -0.5404  0.0585
  670SOL    HW3 2754   3.449   2.391   1.323 -0.2850 -0.3066  0.5869
  670SOL    MW4 2755   3.515   2.440   1.352  0.2146 -0.5722 -0.0477
  671SOL     OW 2756   3.494   2.710   1.365  0.2212 -0.0795  0.1128
  671SOL    HW2 2757   3.547   2.709   1.445 -0.0227 -1.0326  0.2705
  671SOL    HW3 2758   3.408   2.742   1.394 -0.1416 -1.3357  0.4005
  671SOL    MW4 2759   3.489   2.714   1.380  0.1431 -0.3576  0.1669
  672SOL     OW 2760   3.270   2.767   1.542 -0.3744  0.1270 -0.2864
  672SOL    HW2 2761   3.326   2.740   1.615  0.3876  1.1143 -0.5126
  672SOL    HW3 2762   3.251   2.859   1.560 -0.3334  0.3194 -1.2719
  672SOL    MW4 2763   3.275   2.775   1.554 -0.2861  0.2623 -0.4530
  673SOL     OW 2764   2.859   3.958   1.542  0.1113 -0.1760  0.1574
  673SOL    HW2 2765   2.920   3.943   1.614 -0.3045  0.3835  0.6494
  673SOL    HW3 2766   2.882   3.891   1.477  0.1661 -0.9403  1.0219
  673SOL    MW4 2767   2.870   3.947   1.543  0.0715 -0.2146  0.3219
  674SOL     OW 2768   3.568   3.818   1.053  0.3855  0.3102  0.4084
  674SOL    HW2 2769   3.519   3.800   0.973 -0.6792  1.3556  0.8195
  674SOL    HW3 2770   3.557   3.740   1.107  0.2734  0.0285 -0.0403
  674SOL    MW4 2771   3.560   3.806   1.050  0.2146  0.4053  0.4053
  675SOL     OW 2772   4.221   3.319   0.996  0.2567 -0.2196 -0.1524
  675SOL    HW2 2773   4.139   3.368   0.998  0.1977 -0.2580 -0.7755
  675SOL    HW3 2774   4.227   3.278   1.082 -0.1862  0.0280 -0.0011
  675SOL    MW4 2775   4.211   3.320   1.007  0.1907 -0.1907 -0.2265
  676SOL     OW 2776   3.871   4.208   0.538 -0.0012 -0.4116 -1.2736
  676SOL    HW2 2777   3.966   4.225   0.535 -0.0828  0.2843 -0.3514
  676SOL    HW3 2778   3.844   4.243   0.623 -1.1750 -0.1733 -1.7592
  676SOL    MW4 2779   3.880   4.215   0.549 -0.1669 -0.3338 -1.2100
  677SOL     OW 2780   3.567   3.623   1.234 -0.7136 -0.4443  0.3278
  677SOL    HW2 2781   3.524   3.656   1.312  0.0935 -1.3017  1.1442
  677SOL    HW3 2782   3.661   3.634   1.252 -0.4533 -2.5826  0.3635
  677SOL    MW4 2783   3.574   3.629   1.247 -0.5484 -0.8345  0.4411
  678SOL     OW 2784   3.429   4.634   1.863 -0.2608 -0.4652  0.0163
  678SOL    HW2 2785   3.499   4.599   1.918 -0.5570 -0.2616  0.5287
  678SOL    HW3 2786   3.473   4.660   1.782  0.1134 -1.0116  0.0576
  678SOL    MW4 2787   3.444   4.633   1.860 -0.2623 -0.5722  0.1073
  679SOL     OW 2788   3.714   0.052   0.876  0.7456 -0.6679 -0.1359
  679SOL    HW2 2789   3.790  -0.003   0.895  1.4267  0.2577 -0.3262
  679SOL    HW3 2790   3.739   0.139   0.909 -0.1228 -0.3269 -0.3992
  679SOL    MW4 2791   3.727   0.056   0.883  0.6914 -0.4970 -0.1907
  680SOL     OW 2792   3.525   0.429   1.763  0.0739  0.6263 -0.3080
  680SOL    HW2 2793   3.614   0.452   1.738 -0.2321  1.6527 -0.4641
  680SOL    HW3 2794   3.536   0.362   1.831  0.9435  0.9275 -0.1610
  680SOL    MW4 2795   3.538   0.423   1.769  0.1431  0.8047 -0.3099
  681SOL     OW 2796   3.871   0.365   1.428  0.1871 -0.2906 -0.0997
  681SOL    HW2 2797   3.848   0.401   1.513 -0.0544  0.5430 -0.5289
  681SOL    HW3 2798   3.788   0.333   1.392 -0.0967  1.5126 -1.0472
  681SOL    MW4 2799   3.857   0.365   1.434  0.1192  0.0566 -0.2742
  682SOL     OW 2800   3.634   0.898   1.804  0.0412  0.2431  0.0899
  682SOL    HW2 2801   3.710   0.880   1.859 -0.2048  0.7155  0.5901
  682SOL    HW3 2802   3.662   0.876   1.716  0.5610 -0.2380  0.3794
  682SOL    MW4 2803   3.648   0.893   1.800  0.0715  0.2444  0.1907
  683SOL     OW 2804   3.454   0.700   0.896 -0.1611  0.1316 -0.4921
  683SOL    HW2 2805   3.516   0.718   0.825  0.2864  0.7045  0.0283
  683SOL    HW3 2806   3.497   0.737   0.974 -0.3516 -1.0117  0.1549
  683SOL    MW4 2807   3.468   0.707   0.897 -0.1192  0.0596 -0.3338
  684SOL     OW 2808   3.726   0.878   1.548  0.6182  0.4145 -0.2862
  684SOL    HW2 2809   3.809   0.906   1.510  0.3096  0.5029 -0.9261
  684SOL    HW3 2810   3.708   0.793   1.508  0.4527  0.3523 -0.1023
  684SOL    MW4 2811   3.734   0.871   1.538  0.5484  0.4172 -0.3338
  685SOL     OW 2812   3.586   0.815   1.109  0.0434  0.5332 -0.1450
  685SOL    HW2 2813   3.584   0.901   1.067 -0.7685  0.0679 -1.0764
  685SOL    HW3 2814   3.518   0.819   1.176 -1.9260 -0.3592 -2.0775
  685SOL    MW4 2815   3.577   0.826   1.113 -0.3099  0.3517 -0.5245
  686SOL     OW 2816   3.645   1.061   0.996 -0.4114  0.4893 -0.2797
  686SOL    HW2 2817   3.645   1.121   0.921  0.1015  0.8967  0.0284
  686SOL    HW3 2818   3.695   1.108   1.063 -0.6344  0.0076  0.1999
  686SOL    MW4 2819   3.652   1.076   0.995 -0.3576  0.4888 -0.1729
  687SOL     OW 2820   3.667   1.299   1.346 -0.1620  0.0465 -0.4321
  687SOL    HW2 2821   3.598   1.357   1.312  0.5027  1.1513  0.1309
  687SOL    HW3 2822   3.619   1.222   1.377 -1.3202  1.4980  1.4415
  687SOL    MW4 2823   3.651   1.297   1.345 -0.2384  0.3815 -0.1073
  688SOL     OW 2824   3.114   1.028   1.249 -0.6842 -0.0332  0.1916
  688SOL    HW2 2825   3.137   1.115   1.217 -0.2232 -0.0814  0.4371
  688SOL    HW3 2826   3.196   0.978   1.245 -1.0145 -0.5414 -0.1668
  688SOL    MW4 2827   3.128   1.033   1.244 -0.6676 -0.1073  0.1788
  689SOL     OW 2828   3.477   1.800   1.527  0.6340  0.2199  0.7898
  689SOL    HW2 2829   3.479   1.788   1.432  0.0539 -0.5352  0.8747
  689SOL    HW3 2830   3.444   1.717   1.561  0.3753  0.6650  1.6158
  689SOL    MW4 2831   3.473   1.788   1.519  0.5245  0.1907  0.9179
  690SOL     OW 2832   3.275   1.818   1.163 -0.1913 -0.2286  0.6607
  690SOL    HW2 2833   3.278   1.870   1.082 -0.1043 -1.0329  0.1247
  690SOL    HW3 2834   3.367   1.800   1.182 -0.2246 -0.5067  0.6006
  690SOL    MW4 2835   3.288   1.823   1.155 -0.1907 -0.3815  0.5841
  691SOL     OW 2836   3.802   2.269   0.752  0.7027  0.6961 -0.1592
  691SOL    HW2 2837   3.816   2.216   0.831 -0.2788  1.0210  0.2321
  691SOL    HW3 2838   3.725   2.231   0.711  0.3896  1.3627 -0.2205
  691SOL    MW4 2839   3.794   2.257   0.757  0.5245  0.8106 -0.1132
  692SOL     OW 2840   3.542   2.495   0.790 -0.2871  0.1308  0.2302
  692SOL    HW2 2841   3.553   2.464   0.880  1.1525  0.5362  0.1966
  692SOL    HW3 2842   3.620   2.464   0.744 -0.5277  0.8461 -0.6410
  692SOL    MW4 2843   3.553   2.487   0.796 -0.1192  0.2861  0.1132
  693SOL     OW 2844   3.767   2.705   0.902  0.1457  0.2498 -0.0517
  693SOL    HW2 2845   3.808   2.654   0.832  0.2720 -0.2053  0.3489
  693SOL    HW3 2846   3.673   2.696   0.887  0.1594 -1.0616  0.6671
  693SOL    MW4 2847   3.760   2.697   0.891  0.1669  0.0238  0.0834
  694SOL     OW 2848   3.886   2.650   1.180 -0.0359 -0.3295  0.0724
  694SOL    HW2 2849   3.925   2.565   1.157 -0.6485 -0.7516  0.4712
  694SOL    HW3 2850   3.851   2.683   1.097  0.3433 -0.4182 -0.1028
  694SOL    MW4 2851   3.887   2.643   1.166 -0.0477 -0.3815  0.0954
  695SOL     OW 2852   3.858   2.775   1.437 -0.0170  0.2189  0.1246
  695SOL    HW2 2853   3.871   2.731   1.352  0.4490 -0.8896  0.7491
  695SOL    HW3 2854   3.815   2.857   1.415 -0.7006 -0.4551 -1.0742
  695SOL    MW4 2855   3.854   2.780   1.423 -0.0477 -0.0238  0.0477
  696SOL     OW 2856   3.649   2.702   1.609  0.1173 -0.0966 -0.2220
  696SOL    HW2 2857   3.616   2.791   1.624 -0.3525 -0.0719 -1.3990
  696SOL    HW3 2858   3.721   2.714   1.547 -0.1238 -0.5315 -0.5851
  696SOL    MW4 2859   3.654   2.715   1.603  0.0477 -0.1669 -0.4172
  697SOL     OW 2860   3.414   3.258   1.718 -1.0071  0.1647  0.1994
  697SOL    HW2 2861   3.482   3.282   1.654 -1.7520 -0.1859 -0.7381
  697SOL    HW3 2862   3.424   3.164   1.730 -1.7758 -0.0044 -0.4554
  697SOL    MW4 2863   3.424   3.249   1.711 -1.1921  0.0954  0.0000
  698SOL     OW 2864   4.202   3.174   1.275  0.2507  0.0580 -0.0664
  698SOL    HW2 2865   4.169   3.114   1.209  0.3245  0.4751 -0.4985
  698SOL    HW3 2866   4.124   3.214   1.313  0.2638  1.1087 -1.1380
  698SOL    MW4 2867   4.188   3.171   1.271  0.2384  0.2384 -0.2623
  699SOL     OW 2868   3.869   3.446   1.641 -0.1642  0.6537  0.0943
  699SOL    HW2 2869   3.805   3.408   1.582  0.6209 -0.2559 -0.1857
  699SOL    HW3 2870   3.945   3.387   1.636 -0.0147  0.6393  1.9048
  699SOL    MW4 2871   3.871   3.433   1.633 -0.0477  0.5484  0.2980
  700SOL     OW 2872   4.032   3.171   0.796 -0.1669 -0.8539  0.1478
  700SOL    HW2 2873   4.106   3.223   0.826  0.1017 -1.1852  0.1574
  700SOL    HW3 2874   3.964   3.235   0.774 -0.1280 -0.5916  0.9934
  700SOL    MW4 2875   4.033   3.186   0.797 -0.0954 -0.8821  0.2563
  701SOL     OW 2876   3.803   4.623   1.489 -0.7096 -0.3093 -0.6861
  701SOL    HW2 2877   3.814   4.528   1.492  0.4060 -0.1260 -0.6905
  701SOL    HW3 2878   3.870   4.657   1.548 -0.6971  0.4930 -1.1309
  701SOL    MW4 2879   3.814   4.615   1.497 -0.5245 -0.1431 -0.7510
  702SOL     OW 2880   3.995   4.555   1.282 -0.1425 -0.0137 -0.9585
  702SOL    HW2 2881   4.065   4.614   1.253  0.7154 -1.2989 -1.4216
  702SOL    HW3 2882   3.930   4.612   1.323  0.6499  1.3180 -1.5952
  702SOL    MW4 2883   3.996   4.570   1.283  0.0954  0.0000 -1.1086
  703SOL     OW 2884   4.218   1.153   1.493  0.1663  0.1144 -0.0920
  703SOL    HW2 2885   4.222   1.094   1.418 -1.2260 -1.3344  0.9871
  703SOL    HW3 2886   4.301   1.201   1.490  0.8610 -1.1957 -1.5335
  703SOL    MW4 2887   4.229   1.152   1.483  0.0477 -0.2503 -0.1431
  704SOL     OW 2888   4.113   1.257   1.046 -0.1721  0.5347 -0.2051
  704SOL    HW2 2889   4.143   1.194   1.111 -0.2634  0.1582 -0.5603
  704SOL    HW3 2890   4.058   1.206   0.986  0.0785  0.8285 -0.7114
  704SOL    MW4 2891   4.110   1.242   1.046 -0.1431  0.5245 -0.3219
  705SOL     OW 2892   4.303   0.969   1.777  0.3574  0.1882  0.2349
  705SOL    HW2 2893   4.358   0.989   1.701  0.0016  0.0129 -0.0592
  705SOL    HW3 2894   4.222   1.017   1.760  0.7591  1.0150  1.0154
  705SOL    MW4 2895   4.300   0.978   1.764  0.3815  0.2742  0.2980
  706SOL     OW 2896   0.275   0.690   1.412 -0.3297 -0.4898  0.3668
  706SOL    HW2 2897   0.215   0.671   1.340 -1.4938  0.1716  1.1716
  706SOL    HW3 2898   0.279   0.785   1.416  0.1513 -0.5210  0.8216
  706SOL    MW4 2899   0.268   0.700   1.403 -0.4202 -0.4053  0.5364
  707SOL     OW 2900   0.732   1.041   1.013  0.3203 -0.1635 -0.3818
  707SOL    HW2 2901   0.671   0.973   0.984  0.3316  0.2740 -1.4435
  707SOL    HW3 2902   0.676   1.110   1.049  0.3146 -0.7866  0.7814
  707SOL    MW4 2903   0.717   1.041   1.014  0.3159 -0.1907 -0.3695
  708SOL     OW 2904   4.239   1.662   1.015 -0.0021  0.3584 -0.4980
  708SOL    HW2 2905   4.278   1.703   1.092  0.2190  0.1352 -0.4934
  708SOL    HW3 2906   4.157   1.625   1.046  0.2015  0.0024 -0.2857
  708SOL    MW4 2907   4.233   1.662   1.029  0.0477  0.2861 -0.4649
  709SOL     OW 2908   0.440   1.696   0.837  0.5356  0.3324  0.4516
  709SOL    HW2 2909   0.376   1.697   0.908  0.8030  0.5457  0.6791
  709SOL    HW3 2910   0.436   1.783   0.798  1.7521  0.8143  1.4059
  709SOL    MW4 2911   0.431   1.707   0.841  0.7331  0.4292  0.6080
  710SOL     OW 2912   0.338   2.056   1.162  0.3764  0.1605 -0.0872
  710SOL    HW2 2913   0.343   2.078   1.255  0.0062  0.6532 -0.1813
  710SOL    HW3 2914   0.248   2.029   1.149  0.6310 -0.6356 -0.1398
  710SOL    MW4 2915   0.327   2.055   1.173  0.3606  0.1192 -0.1073
  711SOL     OW 2916   0.150   2.091   0.894 -0.2988 -0.4949  0.1664
  711SOL    HW2 2917   0.091   2.032   0.848 -0.4461 -0.1441 -0.1119
  711SOL    HW3 2918   0.163   2.164   0.834 -0.2728 -0.1751  0.5770
  711SOL    MW4 2919   0.144   2.093   0.880 -0.3144 -0.4053  0.1788
  712SOL     OW 2920   3.521   1.769   1.252 -0.3846  0.4065  0.1312
  712SOL    HW2 2921   3.584   1.699   1.268 -1.2163 -0.3093  0.2591
  712SOL    HW3 2922   3.568   1.831   1.196  0.5439  0.0624  0.5442
  712SOL    MW4 2923   3.536   1.768   1.247 -0.3815  0.2742  0.2146
  713SOL     OW 2924   4.316   2.010   0.972  0.4393 -0.5409 -0.6782
  713SOL    HW2 2925   4.385   1.969   1.026  1.2945  0.6472 -0.8727
  713SOL    HW3 2926   4.234   1.975   1.007  1.0783 -1.1834  0.2388
  713SOL    MW4 2927   4.315   2.000   0.984  0.6676 -0.4888 -0.5841
  714SOL     OW 2928   4.264   2.120   1.421  0.1413  0.1734 -0.2498
  714SOL    HW2 2929   4.349   2.115   1.377  0.3792  0.6126  0.1119
  714SOL    HW3 2930   4.223   2.199   1.386  0.1476  0.3564  0.0941
  714SOL    MW4 2931   4.270   2.130   1.411  0.1907  0.2384 -0.1550
  715SOL     OW 2932   0.024   2.103   1.316 -0.2430 -0.1780 -0.2667
  715SOL    HW2 2933   0.074   2.151   1.382  0.0869 -0.4740 -0.3250
  715SOL    HW3 2934   0.019   2.163   1.241 -1.4571  0.5057  0.3773
  715SOL    MW4 2935   0.030   2.117   1.315 -0.3597 -0.1431 -0.1788
  716SOL     OW 2936   3.632   1.945   1.057 -0.5848  0.9432  0.1731
  716SOL    HW2 2937   3.712   1.991   1.032 -0.2168  0.8317  1.1704
  716SOL    HW3 2938   3.606   1.898   0.977  0.6846  0.4527  0.0379
  716SOL    MW4 2939   3.639   1.945   1.043 -0.3576  0.8464  0.2861
  717SOL     OW 2940   4.068   1.950   0.765 -0.0096  0.0064 -0.2592
  717SOL    HW2 2941   4.146   1.904   0.734 -0.1298 -0.5522  0.3142
  717SOL    HW3 2942   4.100   2.035   0.795  0.1197  0.4975 -1.7772
  717SOL    MW4 2943   4.083   1.955   0.765  0.0000  0.0119 -0.3815
  718SOL     OW 2944   4.487   2.665   1.202  0.8578 -0.0386 -0.1733
  718SOL    HW2 2945   4.438   2.646   1.122  0.1017 -0.3721  0.3730
  718SOL    HW3 2946   4.425   2.646   1.273  1.7452 -0.2911  0.5067
  718SOL    MW4 2947   4.473   2.660   1.201  0.9060 -0.1192 -0.0238
  719SOL     OW 2948   4.319   2.996   1.032 -0.6613  0.4842 -0.1624
  719SOL    HW2 2949   4.258   2.923   1.027 -0.0258 -0.1617  1.2279
  719SOL    HW3 2950   4.398   2.958   1.070 -0.3220  1.8592  0.4626
  719SOL    MW4 2951   4.322   2.981   1.036 -0.5245  0.5722  0.0954
  720SOL     OW 2952   3.687   3.095   0.578  0.1087 -0.1328 -0.5232
  720SOL    HW2 2953   3.741   3.063   0.506  1.0804  1.7584 -0.5935
  720SOL    HW3 2954   3.720   3.048   0.655  1.0402  0.1716 -0.7604
  720SOL    MW4 2955   3.698   3.084   0.578  0.3338  0.1431 -0.5603
  721SOL     OW 2956   0.151   3.487   1.573 -0.6555 -0.1129 -0.2491
  721SOL    HW2 2957   0.140   3.503   1.480  0.4816  2.0655 -0.0209
  721SOL    HW3 2958   0.238   3.447   1.580 -0.8557 -0.5580 -0.1711
  721SOL    MW4 2959   0.161   3.484   1.562 -0.5320  0.0954 -0.2146
  722SOL     OW 2960   4.405   3.005   1.686 -0.1703 -0.0850  0.2315
  722SOL    HW2 2961   4.397   3.096   1.714 -0.0576 -0.2275  0.7587
  722SOL    HW3 2962   4.456   2.963   1.755 -0.7263 -0.6447  0.2856
  722SOL    MW4 2963   4.411   3.011   1.699 -0.2384 -0.1907  0.3219
  723SOL     OW 2964   4.326   0.308   1.322  0.0428 -0.0975  0.1184
  723SOL    HW2 2965   4.273   0.337   1.249  0.6482 -0.4375 -0.4458
  723SOL    HW3 2966   4.413   0.343   1.304  0.3191 -0.7118  0.3164
  723SOL    MW4 2967   4.331   0.316   1.310  0.1907 -0.2235  0.0834
  724SOL     OW 2968   3.982   4.126   1.259  0.0638  0.0002 -0.0157
  724SOL    HW2 2969   3.922   4.107   1.187 -0.1592  0.0188  0.1965
  724SOL    HW3 2970   3.927   4.165   1.327  0.2066 -0.6403  0.4304
  724SOL    MW4 2971   3.967   4.129   1.258  0.0715 -0.0477  0.0715
  725SOL     OW 2972   4.469   4.471   1.907  0.6759 -0.1950  0.0154
  725SOL    HW2 2973   4.413   4.541   1.873  0.6455 -0.6860 -1.0261
  725SOL    HW3 2974   4.445   4.394   1.856  1.9154 -0.4780 -0.1282
  725SOL    MW4 2975   4.458   4.470   1.896  0.8583 -0.2861 -0.1431
  726SOL     OW 2976   3.973   0.691   1.764 -0.1749  0.3497  0.1941
  726SOL    HW2 2977   4.016   0.647   1.838  0.2707  0.6477  0.1208
  726SOL    HW3 2978   4.045   0.722   1.709 -0.5003 -0.3963 -0.6516
  726SOL    MW4 2979   3.988   0.689   1.767 -0.1431  0.2921  0.0715
  727SOL     OW 2980   4.300   0.347   1.844 -0.4051  0.5406  0.3244
  727SOL    HW2 2981   4.317   0.406   1.917  0.3131 -0.6232  1.1078
  727SOL    HW3 2982   4.373   0.284   1.847 -0.8710 -0.0014 -0.9067
  727SOL    MW4 2983   4.312   0.347   1.854 -0.3815  0.3159  0.2742
  728SOL     OW 2984   0.026   1.054   1.603 -0.3355  0.3893 -0.3265
  728SOL    HW2 2985   0.013   1.144   1.574 -0.2789 -0.2962 -2.4912
  728SOL    HW3 2986   0.079   1.062   1.683 -0.1126  2.2386 -0.6756
  728SOL    MW4 2987   0.032   1.067   1.610 -0.2984  0.5603 -0.6676
  729SOL     OW 2988   0.236   0.961   1.389  0.0142 -0.2940  0.1865
  729SOL    HW2 2989   0.241   1.030   1.455 -0.6364 -0.8920  0.8809
  729SOL    HW3 2990   0.142   0.944   1.379  0.0072  1.2809 -2.4137
  729SOL    MW4 2991   0.224   0.968   1.396 -0.0715 -0.1609 -0.0596
  730SOL     OW 2992   0.405   1.015   2.021 -0.5907  0.2155  0.5272
  730SOL    HW2 2993   0.325   1.013   1.969 -0.1129 -0.2460 -0.1933
  730SOL    HW3 2994   0.458   0.942   1.988  0.4128  0.9296  0.5248
  730SOL    MW4 2995   0.402   1.005   2.010 -0.3964  0.2503  0.4292
  731SOL     OW 2996   0.189   1.241   2.173  0.1904  0.6654 -0.0608
  731SOL    HW2 2997   0.245   1.267   2.100  0.3893  0.4801  0.0609
  731SOL    HW3 2998   0.148   1.159   2.144  0.9647  0.1176  0.4307
  731SOL    MW4 2999   0.191   1.233   2.160  0.3174  0.5722  0.0000
  732SOL     OW 3000   0.416   0.966   1.179 -0.1251  0.2817 -0.3518
  732SOL    HW2 3001   0.489   0.906   1.196 -1.0982 -0.8933 -0.3531
  732SOL    HW3 3002   0.355   0.952   1.252 -0.8340  0.5374 -0.8959
  732SOL    MW4 3003   0.417   0.957   1.191 -0.3457  0.1609 -0.4292
  733SOL     OW 3004   0.085   1.591   1.427  0.1701 -0.0878 -0.2583
  733SOL    HW2 3005   0.008   1.624   1.473  0.4588 -0.5689  0.5673
  733SOL    HW3 3006   0.153   1.585   1.495  0.8486  0.0294 -0.9205
  733SOL    MW4 3007   0.084   1.595   1.442  0.2973 -0.1192 -0.2384
  734SOL     OW 3008   0.314   1.146   1.583  0.3164 -0.3303  0.0275
  734SOL    HW2 3009   0.260   1.223   1.600  0.5956 -0.2959  0.7105
  734SOL    HW3 3010   0.389   1.180   1.534  1.0627  0.0306  1.4180
  734SOL    MW4 3011   0.317   1.160   1.579  0.4530 -0.2623  0.3099
  735SOL     OW 3012   0.499   1.387   1.729  0.4145  0.2807 -0.4346
  735SOL    HW2 3013   0.457   1.386   1.815 -0.3149 -0.5890 -0.7856
  735SOL    HW3 3014   0.440   1.438   1.674  0.2393 -0.2288 -0.7187
  735SOL    MW4 3015   0.486   1.393   1.733  0.2921  0.1073 -0.5126
  736SOL     OW 3016   0.334   1.603   1.562  0.2037 -0.6200 -0.2698
  736SOL    HW2 3017   0.324   1.617   1.656  0.3271 -0.6185 -0.2576
  736SOL    HW3 3018   0.330   1.690   1.524  1.1137 -0.5326 -0.1716
  736SOL    MW4 3019   0.332   1.616   1.569  0.3397 -0.6080 -0.2623
  737SOL     OW 3020   0.580   2.198   1.672  0.0673 -0.3125  0.0951
  737SOL    HW2 3021   0.569   2.111   1.710 -0.0838 -0.4101 -0.1507
  737SOL    HW3 3022   0.597   2.255   1.747  0.4339 -0.5954  0.2447
  737SOL    MW4 3023   0.581   2.194   1.687  0.0954 -0.3815  0.0834
  738SOL     OW 3024   0.827   1.868   1.693  0.2753 -0.3519  0.2464
  738SOL    HW2 3025   0.784   1.916   1.763  0.4019 -1.0944  0.8177
  738SOL    HW3 3026   0.762   1.866   1.622 -0.0684 -0.1302  0.5592
  738SOL    MW4 3027   0.813   1.874   1.693  0.2444 -0.4292  0.3695
  739SOL     OW 3028   0.806   2.738   1.524  0.2249  0.4997 -0.2681
  739SOL    HW2 3029   0.720   2.706   1.553  0.7045  0.6256  1.2614
  739SOL    HW3 3030   0.867   2.706   1.590  1.2774  0.9598 -1.0226
  739SOL    MW4 3031   0.803   2.729   1.537  0.4232  0.5722 -0.1550
  740SOL     OW 3032   0.006   2.745   0.861 -0.4227 -0.2802 -0.1315
  740SOL    HW2 3033   0.033   2.792   0.940 -0.0078 -0.1749 -0.3386
  740SOL    HW3 3034  -0.043   2.810   0.810 -0.5096 -0.3127 -0.0627
  740SOL    MW4 3035   0.003   2.760   0.865 -0.3806 -0.2623 -0.1490
  741SOL     OW 3036   0.390   3.329   1.589 -0.3819 -0.3147  0.3399
  741SOL    HW2 3037   0.476   3.292   1.572 -1.0548 -2.1749  0.9273
  741SOL    HW3 3038   0.354   3.274   1.659 -0.5315  2.8066  2.6809
  741SOL    MW4 3039   0.396   3.317   1.596 -0.4888 -0.1669  0.7272
  742SOL     OW 3040   0.066   2.958   1.444  0.0690 -0.1900  0.0133
  742SOL    HW2 3041   0.014   2.959   1.525  1.3027  0.7387  0.7878
  742SOL    HW3 3042   0.034   3.034   1.395 -0.0821 -0.2623 -0.0034
  742SOL    MW4 3043   0.055   2.968   1.448  0.2120 -0.0715  0.1073
  743SOL     OW 3044   0.463   3.644   0.893 -0.3566  0.7268  1.1772
  743SOL    HW2 3045   0.369   3.655   0.881 -0.3881  0.3913  1.1668
  743SOL    HW3 3046   0.471   3.582   0.966 -0.1647 -2.8931 -1.9014
  743SOL    MW4 3047   0.451   3.637   0.901 -0.3368  0.1907  0.7749
  744SOL     OW 3048   4.111   2.888   1.600  0.1751 -0.2733  0.1914
  744SOL    HW2 3049   4.074   2.803   1.577  0.8864 -0.3779 -0.4755
  744SOL    HW3 3050   4.195   2.891   1.553  0.5957  0.4165  0.9410
  744SOL    MW4 3051   4.117   2.877   1.591  0.3338 -0.1907  0.2027
  745SOL     OW 3052   0.402   3.461   1.922 -0.6658 -0.8148  0.7557
  745SOL    HW2 3053   0.344   3.534   1.900 -1.1727 -2.1588 -2.4108
  745SOL    HW3 3054   0.489   3.501   1.926 -0.9413 -0.0333 -1.0301
  745SOL    MW4 3055   0.406   3.476   1.920 -0.7749 -0.8821  0.1073
  746SOL     OW 3056   0.138   3.734   1.330 -0.2937 -0.0779 -0.5159
  746SOL    HW2 3057   0.144   3.811   1.387 -0.8213  0.5324 -1.2955
  746SOL    HW3 3058   0.229   3.709   1.314 -0.1068  0.6238 -0.5973
  746SOL    MW4 3059   0.151   3.741   1.335 -0.3383  0.0715 -0.6199
  747SOL     OW 3060   0.073   3.658   2.175  0.2189 -0.1331  0.1670
  747SOL    HW2 3061  -0.002   3.715   2.193  0.5113  0.5546 -0.8005
  747SOL    HW3 3062   0.051   3.612   2.095  0.4665 -0.6082  0.3637
  747SOL    MW4 3063   0.060   3.659   2.167  0.2883 -0.0954  0.0477
  748SOL     OW 3064   3.967   3.077   1.455  0.3052 -0.5403 -0.2664
  748SOL    HW2 3065   4.015   2.999   1.483 -0.5854 -0.5411  1.2740
  748SOL    HW3 3066   4.007   3.149   1.504 -0.6254 -0.3733  0.2723
  748SOL    MW4 3067   3.979   3.076   1.465  0.0715 -0.5245  0.0119
  749SOL     OW 3068   0.055   0.278   1.579  0.1620  0.2360  0.2166
  749SOL    HW2 3069   0.079   0.210   1.516 -0.5772  1.5304 -1.4639
  749SOL    HW3 3070  -0.040   0.270   1.587 -0.0154  1.5398 -0.4976
  749SOL    MW4 3071   0.046   0.268   1.572  0.0387  0.5811 -0.0954
  750SOL     OW 3072   4.351   0.494   0.740 -0.5101 -0.0889  1.2387
  750SOL    HW2 3073   4.358   0.400   0.723 -2.9610 -0.0554 -0.1029
  750SOL    HW3 3074   4.418   0.534   0.685 -0.6448 -0.9197  0.5108
  750SOL    MW4 3075   4.361   0.487   0.730 -0.8583 -0.1967  0.9656
  751SOL     OW 3076   0.713   0.221   0.761 -0.2794  0.3055 -1.2477
  751SOL    HW2 3077   0.696   0.224   0.855 -1.1996 -0.4773 -1.3961
  751SOL    HW3 3078   0.800   0.181   0.754 -0.2723  0.2180 -0.7352
  751SOL    MW4 3079   0.722   0.216   0.773 -0.3994  0.1922 -1.1981
  752SOL     OW 3080   0.958   0.123   1.405  0.0066 -0.9818 -0.3065
  752SOL    HW2 3081   0.942   0.179   1.481 -0.7855 -1.3420 -0.2140
  752SOL    HW3 3082   0.877   0.126   1.355  0.3057 -1.2519 -0.8192
  752SOL    MW4 3083   0.945   0.131   1.408 -0.0596 -1.0654 -0.3695
  753SOL     OW 3084   0.694   0.136   1.250 -0.0509 -0.4698 -0.4220
  753SOL    HW2 3085   0.662   0.198   1.316  0.4928 -0.3995 -0.2156
  753SOL    HW3 3086   0.650   0.054   1.271 -0.4418 -0.2592 -0.4105
  753SOL    MW4 3087   0.684   0.134   1.262 -0.0298 -0.4306 -0.3934
  754SOL     OW 3088   0.913   0.547   1.513  0.2802  0.3190  0.1000
  754SOL    HW2 3089   0.900   0.627   1.565 -0.7521  0.6200 -0.6045
  754SOL    HW3 3090   0.835   0.543   1.457  1.2133 -0.1966 -1.1611
  754SOL    MW4 3091   0.901   0.557   1.513  0.2682  0.2861 -0.1550
  755SOL     OW 3092   0.658   0.858   1.296 -0.4038 -0.7069  0.2040
  755SOL    HW2 3093   0.668   0.928   1.360 -1.2618 -1.2210  0.8929
  755SOL    HW3 3094   0.658   0.778   1.349  0.4311 -1.2283 -0.5828
  755SOL    MW4 3095   0.660   0.857   1.312 -0.4053 -0.8464  0.1907
  756SOL     OW 3096   0.434   0.615   1.200  0.3007 -0.7893  0.4414
  756SOL    HW2 3097   0.394   0.637   1.284  1.4530 -1.7544  1.2574
  756SOL    HW3 3098   0.519   0.578   1.223  0.5447 -1.2456 -1.1379
  756SOL    MW4 3099   0.440   0.613   1.214  0.4858 -0.9716  0.3457
  757SOL     OW 3100   0.352   1.293   1.946  0.6572  0.2750  0.4339
  757SOL    HW2 3101   0.417   1.227   1.972  1.6909  1.4195  0.7521
  757SOL    HW3 3102   0.288   1.244   1.894  1.4377 -0.9957  0.6461
  757SOL    MW4 3103   0.353   1.277   1.943  0.8941  0.2623  0.5007
  758SOL     OW 3104   1.014   1.223   2.098  0.5687  0.2411  0.8569
  758SOL    HW2 3105   0.976   1.307   2.073  0.7899  0.0414 -0.1298
  758SOL    HW3 3106   0.940   1.162   2.100  0.4865  0.3575  1.1803
  758SOL    MW4 3107   0.999   1.226   2.095  0.5841  0.2265  0.7629
  759SOL     OW 3108   0.875   1.469   1.983  0.1757  0.0485  0.3170
  759SOL    HW2 3109   0.915   1.549   1.948  0.6031 -0.6324 -0.7394
  759SOL    HW3 3110   0.849   1.419   1.906  0.5955 -1.1855  0.9765
  759SOL    MW4 3111   0.877   1.473   1.968  0.2861 -0.1907  0.2742
  760SOL     OW 3112   0.755   1.297   1.790  0.1097 -0.3126  0.7399
  760SOL    HW2 3113   0.806   1.295   1.710  0.4789  0.2553  0.9617
  760SOL    HW3 3114   0.669   1.331   1.764  0.2519 -0.0591  0.6004
  760SOL    MW4 3115   0.750   1.301   1.776  0.1729 -0.2027  0.7391
  761SOL     OW 3116   0.609   1.666   1.700  0.4744 -0.6306 -0.1051
  761SOL    HW2 3117   0.575   1.600   1.759  0.0780 -0.5504 -0.2476
  761SOL    HW3 3118   0.677   1.712   1.751  0.1305 -0.5561  0.2831
  761SOL    MW4 3119   0.614   1.664   1.714  0.3695 -0.6080 -0.0834
  762SOL     OW 3120   0.926   2.087   1.514  0.1749  0.1513  0.3503
  762SOL    HW2 3121   0.886   2.015   1.563 -0.0206 -0.1501 -0.2221
  762SOL    HW3 3122   1.017   2.088   1.545  0.1585 -0.2907  0.4115
  762SOL    MW4 3123   0.933   2.077   1.524  0.1431  0.0238  0.2861
  763SOL     OW 3124   0.913   3.821   1.327 -0.5582  0.1160  0.4417
  763SOL    HW2 3125   0.961   3.868   1.396  2.7441 -1.3562 -0.8504
  763SOL    HW3 3126   0.823   3.852   1.335  1.6340  6.5814 -0.3826
  763SOL    MW4 3127   0.907   3.831   1.337  0.1669  0.7868  0.1669
  764SOL     OW 3128   0.664   2.202   1.422  0.2097  0.0773  0.4810
  764SOL    HW2 3129   0.758   2.192   1.435  0.1247 -0.9283  0.3251
  764SOL    HW3 3130   0.629   2.214   1.510  0.3131 -0.9500  0.6698
  764SOL    MW4 3131   0.672   2.202   1.435  0.2146 -0.1907  0.4768
  765SOL     OW 3132   0.195   2.466   1.182 -0.0089 -0.0028 -0.0168
  765SOL    HW2 3133   0.233   2.485   1.096  0.2905  0.1314  0.1412
  765SOL    HW3 3134   0.130   2.535   1.195  0.6596  0.5471  0.3174
  765SOL    MW4 3135   0.191   2.478   1.172  0.1192  0.0715  0.0477
  766SOL     OW 3136   1.019   2.044   1.249  0.1237 -0.0921  0.2213
  766SOL    HW2 3137   0.993   2.059   1.340  0.1983  0.0677  0.2200
  766SOL    HW3 3138   0.936   2.040   1.201  0.1203  0.7893  0.1482
  766SOL    MW4 3139   1.005   2.045   1.255  0.1311  0.0477  0.2146
  767SOL     OW 3140   0.894   2.541   0.481 -0.1367 -0.1737  0.1337
  767SOL    HW2 3141   0.933   2.508   0.400 -0.9739  1.1749 -0.8233
  767SOL    HW3 3142   0.926   2.631   0.489 -0.5794 -0.0890  0.9488
  767SOL    MW4 3143   0.903   2.549   0.471 -0.3099  0.0238  0.1132
  768SOL     OW 3144   0.044   4.107   1.020 -0.3720  0.3612  0.8884
  768SOL    HW2 3145   0.118   4.130   0.965 -0.4866 -0.6983  0.2664
  768SOL    HW3 3146   0.063   4.018   1.052 -1.7304 -0.1766  0.1815
  768SOL    MW4 3147   0.056   4.098   1.017 -0.5662  0.1907  0.7033
  769SOL     OW 3148   0.007   3.541   1.943 -0.1870  0.2534  0.8444
  769SOL    HW2 3149   0.000   3.569   1.852 -0.7079  0.1268  0.8532
  769SOL    HW3 3150  -0.082   3.520   1.969  0.1836 -1.3059  0.8810
  769SOL    MW4 3151  -0.005   3.542   1.935 -0.2384  0.0238  0.8464
  770SOL     OW 3152   4.428   0.200   1.041 -0.0658  0.7210 -0.7640
  770SOL    HW2 3153   4.515   0.166   1.025 -0.2450  0.7337 -1.5989
  770SOL    HW3 3154   4.440   0.268   1.108  0.6836  1.2400 -1.4278
  770SOL    MW4 3155   4.441   0.205   1.047  0.0477  0.7913 -0.9537
  771SOL     OW 3156   0.336   4.295   1.336  0.3060 -0.1877  0.3516
  771SOL    HW2 3157   0.389   4.374   1.325  0.9040 -0.5809  0.4662
  771SOL    HW3 3158   0.392   4.235   1.384 -0.1763 -0.6916  0.3187
  771SOL    MW4 3159   0.350   4.297   1.341  0.3219 -0.3338  0.3695
  772SOL     OW 3160   4.401   0.815   1.080 -0.8455  0.7937  1.0833
  772SOL    HW2 3161   4.465   0.844   1.015 -0.3468 -0.5348  0.9538
  772SOL    HW3 3162   4.379   0.726   1.054 -1.4104  0.6257  2.1369
  772SOL    MW4 3163   4.407   0.808   1.068 -0.8583  0.5901  1.2040
  773SOL     OW 3164   4.120   0.613   0.938  0.4803  0.0343 -0.6181
  773SOL    HW2 3165   4.062   0.646   0.869  1.0421  0.6984 -0.7261
  773SOL    HW3 3166   4.198   0.582   0.891  0.9214  0.5568 -0.3197
  773SOL    MW4 3167   4.122   0.613   0.923  0.5722  0.1967 -0.5960
  774SOL     OW 3168   0.100   0.872   0.875 -0.1519  0.8076  1.1423
  774SOL    HW2 3169   0.157   0.940   0.837  0.0007  0.6950  1.1690
  774SOL    HW3 3170   0.093   0.807   0.805 -0.4984  0.9627  1.0293
  774SOL    MW4 3171   0.107   0.873   0.860 -0.1766  0.8106  1.1325
  775SOL     OW 3172   1.001   0.175   0.788 -0.1051  0.1827 -0.7289
  775SOL    HW2 3173   1.040   0.261   0.807 -1.1663  0.6250 -0.5185
  775SOL    HW3 3174   1.024   0.122   0.864 -0.2953  0.5700 -0.3972
  775SOL    MW4 3175   1.010   0.180   0.801 -0.2742  0.2906 -0.6557
  776SOL     OW 3176   0.799   0.499   0.750  0.1564  0.4873 -0.0275
  776SOL    HW2 3177   0.858   0.486   0.824 -1.1998  0.2689  1.0016
  776SOL    HW3 3178   0.789   0.411   0.712  0.9923  0.6271 -0.5766
  776SOL    MW4 3179   0.805   0.485   0.755  0.0894  0.4798  0.0417
  777SOL     OW 3180   0.880   0.312   1.100  0.5405  0.2747  0.0215
  777SOL    HW2 3181   0.837   0.233   1.131  0.3072  0.1001 -0.7413
  777SOL    HW3 3182   0.833   0.384   1.144 -0.5511  0.0879 -0.8364
  777SOL    MW4 3183   0.868   0.311   1.110  0.3636  0.2265 -0.1788
  778SOL     OW 3184   1.584   0.703   1.489  0.2126 -0.3776  0.1853
  778SOL    HW2 3185   1.575   0.730   1.580 -0.8905 -0.3084  0.0369
  778SOL    HW3 3186   1.510   0.743   1.444 -0.0167 -1.5481 -0.4977
  778SOL    MW4 3187   1.573   0.712   1.495  0.0358 -0.5305  0.0715
  779SOL     OW 3188   1.094   0.485   1.753 -0.2301 -0.0875  0.6003
  779SOL    HW2 3189   1.040   0.554   1.715 -1.5773 -1.3714  0.2277
  779SOL    HW3 3190   1.179   0.494   1.710 -0.8721  0.3784 -0.5488
  779SOL    MW4 3191   1.098   0.495   1.742 -0.4888 -0.1997  0.4053
  780SOL     OW 3192   1.111   0.958   1.941 -0.1926 -0.3221 -0.0727
  780SOL    HW2 3193   1.183   0.902   1.913  0.0062 -0.7689  1.2957
  780SOL    HW3 3194   1.149   1.046   1.947 -0.1452 -0.2925 -0.8572
  780SOL    MW4 3195   1.126   0.963   1.938 -0.1669 -0.3755  0.0000
  781SOL     OW 3196   1.204   1.176   2.310  0.3501  0.1725  0.7995
  781SOL    HW2 3197   1.166   1.185   2.223  0.8414  0.4645  0.6434
  781SOL    HW3 3198   1.172   1.252   2.358  0.1717  0.0564  0.8747
  781SOL    MW4 3199   1.195   1.187   2.305  0.3934  0.2027  0.8106
  782SOL     OW 3200   1.137   1.773   2.090  0.0214 -0.0055  0.3187
  782SOL    HW2 3201   1.140   1.776   2.186 -0.3710  0.9190  0.3137
  782SOL    HW3 3202   1.162   1.683   2.068 -0.6374 -0.4451  1.3349
  782SOL    MW4 3203   1.140   1.761   2.100 -0.1192  0.0596  0.4530
  783SOL     OW 3204   0.979   1.692   1.871  0.1349 -0.0434 -0.4386
  783SOL    HW2 3205   0.931   1.755   1.816  0.7156 -0.7402 -1.7591
  783SOL    HW3 3206   1.012   1.744   1.944 -0.3932  0.9866 -0.9179
  783SOL    MW4 3207   0.977   1.707   1.873  0.1431  0.0000 -0.6795
  784SOL     OW 3208   0.818   2.251   2.013 -0.1168 -0.3248 -0.2509
  784SOL    HW2 3209   0.871   2.259   1.934 -0.1210  1.0068 -0.1206
  784SOL    HW3 3210   0.737   2.297   1.992 -0.0432  0.1907  0.5944
  784SOL    MW4 3211   0.814   2.258   2.000 -0.1073 -0.0954 -0.1073
  785SOL     OW 3212   0.875   3.439   1.460 -0.4390  1.1961 -0.1302
  785SOL    HW2 3213   0.940   3.464   1.525 -0.6780  0.1264  0.4927
  785SOL    HW3 3214   0.923   3.385   1.398 -0.9641 -0.4398  0.8897
  785SOL    MW4 3215   0.890   3.435   1.460 -0.5424  0.8345  0.0834
  786SOL     OW 3216   1.498   1.630   1.238  0.1623 -0.0891 -0.0806
  786SOL    HW2 3217   1.451   1.658   1.316  0.4840  0.4855 -0.0961
  786SOL    HW3 3218   1.463   1.685   1.168  0.4971 -0.0085 -0.1887
  786SOL    MW4 3219   1.487   1.641   1.239  0.2623  0.0000 -0.1073
  787SOL     OW 3220   1.474   2.759   1.889  0.2970  0.2587 -0.2590
  787SOL    HW2 3221   1.477   2.838   1.943 -0.7657  0.6606 -0.8222
  787SOL    HW3 3222   1.470   2.791   1.799  0.6356 -0.4278 -0.5202
  787SOL    MW4 3223   1.474   2.774   1.884  0.2027  0.2146 -0.3815
  788SOL     OW 3224   1.404   2.887   1.647  0.7294  0.0658  0.5604
  788SOL    HW2 3225   1.338   2.820   1.630  0.1956  1.0242 -1.2600
  788SOL    HW3 3226   1.355   2.963   1.675  1.1662  0.3178  0.7119
  788SOL    MW4 3227   1.389   2.888   1.648  0.7153  0.2384  0.3457
  789SOL     OW 3228   1.006   3.265   1.264 -0.0171  0.8408  0.5574
  789SOL    HW2 3229   1.093   3.254   1.226  0.1551  0.0245  1.1766
  789SOL    HW3 3230   0.988   3.181   1.306 -1.1022  0.9820  0.4146
  789SOL    MW4 3231   1.015   3.253   1.264 -0.1311  0.7629  0.6199
  790SOL     OW 3232   0.797   1.687   1.148  0.4312  0.3266  0.2818
  790SOL    HW2 3233   0.769   1.709   1.059  0.0993 -1.4214 -0.0244
  790SOL    HW3 3234   0.715   1.671   1.195  0.7055 -0.9236  0.3478
  790SOL    MW4 3235   0.782   1.688   1.143  0.4172 -0.0596  0.2623
  791SOL     OW 3236   0.094   3.275   1.102 -1.2009 -0.2654  0.1345
  791SOL    HW2 3237   0.030   3.279   1.031 -0.6201 -0.0978 -0.3854
  791SOL    HW3 3238   0.155   3.207   1.075  0.1842  1.2096 -0.5020
  791SOL    MW4 3239   0.093   3.267   1.089 -0.9410 -0.0477 -0.0238
  792SOL     OW 3240   0.268   3.619   2.381 -0.5913 -0.4091  0.3019
  792SOL    HW2 3241   0.286   3.707   2.413 -1.0562 -0.6323  1.1513
  792SOL    HW3 3242   0.223   3.632   2.298 -0.6324  0.1634  0.4095
  792SOL    MW4 3243   0.265   3.632   2.374 -0.6586 -0.3576  0.4292
  793SOL     OW 3244   0.560   3.915   0.885 -0.6737  0.4673 -0.6317
  793SOL    HW2 3245   0.630   3.924   0.821 -0.7224  0.4873 -0.6873
  793SOL    HW3 3246   0.543   3.821   0.890 -0.8783  0.5023 -0.8662
  793SOL    MW4 3247   0.567   3.904   0.877 -0.7033  0.4768 -0.6676
  794SOL     OW 3248   1.380   3.414   1.028 -0.4473  0.1853  0.3651
  794SOL    HW2 3249   1.456   3.470   1.016 -0.7767  0.6757  0.6076
  794SOL    HW3 3250   1.316   3.446   0.964 -0.8447  0.4677  0.8826
  794SOL    MW4 3251   1.381   3.426   1.018 -0.5364  0.3099  0.4649
  795SOL     OW 3252   1.274   0.449   1.124 -0.6632  0.0322 -0.4601
  795SOL    HW2 3253   1.351   0.393   1.123 -0.8119 -0.1732  0.1246
  795SOL    HW3 3254   1.235   0.435   1.210 -1.2036  0.3579 -0.6662
  795SOL    MW4 3255   1.279   0.440   1.135 -0.7629  0.0477 -0.4172
  796SOL     OW 3256   0.185   3.652   0.928 -0.8247  0.5298 -0.1982
  796SOL    HW2 3257   0.236   3.600   0.990 -0.2641  1.1476 -0.1238
  796SOL    HW3 3258   0.169   3.735   0.972 -0.8067  0.8112 -0.7339
  796SOL    MW4 3259   0.190   3.656   0.942 -0.7480  0.6437 -0.2563
  797SOL     OW 3260   1.994   0.291   0.766 -0.1528  0.1181  0.5411
  797SOL    HW2 3261   1.936   0.316   0.694 -0.7953  1.1859  1.4351
  797SOL    HW3 3262   2.032   0.207   0.738 -0.3626  0.5617 -1.0602
  797SOL    MW4 3263   1.991   0.283   0.753 -0.2623  0.3189  0.4411
  798SOL     OW 3264   2.102   0.037   0.702 -0.8426  0.1909  0.6700
  798SOL    HW2 3265   2.015  -0.002   0.710 -0.9540  0.2724  0.0470
  798SOL    HW3 3266   2.148   0.009   0.781 -0.9281 -1.1073  0.2549
  798SOL    MW4 3267   2.097   0.028   0.714 -0.8345  0.0324  0.5305
  799SOL     OW 3268   1.197   4.315   1.481  0.5783 -0.5527  0.0465
  799SOL    HW2 3269   1.290   4.316   1.457  0.7141  0.4921  0.5780
  799SOL    HW3 3270   1.179   4.405   1.509 -0.7211 -0.6442 -0.5370
  799SOL    MW4 3271   1.207   4.327   1.481  0.4292 -0.4768  0.0477
  800SOL     OW 3272   1.071   0.428   0.949 -0.2253  0.5259 -0.5330
  800SOL    HW2 3273   1.154   0.420   0.997 -0.2193  0.4958 -0.5500
  800SOL    HW3 3274   1.010   0.372   0.997 -0.2528  0.6046 -0.4678
  800SOL    MW4 3275   1.074   0.420   0.962 -0.2265  0.5305 -0.5186
  801SOL     OW 3276   1.173   0.637   1.412  0.6899  0.7369 -0.1587
  801SOL    HW2 3277   1.078   0.643   1.418  0.6856  1.0681 -0.8476
  801SOL    HW3 3278   1.192   0.544   1.423  0.2354  0.5376 -1.0966
  801SOL    MW4 3279   1.163   0.625   1.415  0.6318  0.7570 -0.3576
  802SOL     OW 3280   1.512   0.961   1.902  0.3756 -0.0342 -0.2067
  802SOL    HW2 3281   1.468   0.924   1.979  0.0550 -0.3197 -0.5325
  802SOL    HW3 3282   1.533   1.051   1.927 -0.6332  0.1892 -0.1383
  802SOL    MW4 3283   1.509   0.968   1.916  0.2146 -0.0417 -0.2384
  803SOL     OW 3284   1.981   1.253   2.061  0.0907  0.4133 -0.1363
  803SOL    HW2 3285   1.955   1.268   2.152  0.4098  0.1251 -0.0049
  803SOL    HW3 3286   1.950   1.165   2.041  0.4352  0.3034 -0.1686
  803SOL    MW4 3287   1.974   1.244   2.070  0.1907  0.3695 -0.1431
  804SOL     OW 3288   1.323   0.837   1.720  0.1186 -0.4386  0.0028
  804SOL    HW2 3289   1.272   0.914   1.693 -0.0096 -0.2710  0.7470
  804SOL    HW3 3290   1.397   0.873   1.769  0.3801 -0.7461 -0.1566
  804SOL    MW4 3291   1.326   0.852   1.723  0.1431 -0.4590  0.0954
  805SOL     OW 3292   1.466   1.799   2.360  0.2089 -0.0941  0.0296
  805SOL    HW2 3293   1.472   1.848   2.442 -0.2514 -0.2561  0.1586
  805SOL    HW3 3294   1.402   1.730   2.378  0.2167 -0.2182 -0.4704
  805SOL    MW4 3295   1.459   1.796   2.373  0.1431 -0.1311  0.0000
  806SOL     OW 3296   1.602   1.396   2.338 -0.2114 -0.1699  0.5060
  806SOL    HW2 3297   1.554   1.315   2.353 -0.6259 -0.0100  0.0054
  806SOL    HW3 3298   1.636   1.420   2.424 -0.6029 -0.5420  0.7765
  806SOL    MW4 3299   1.601   1.388   2.351 -0.3219 -0.2027  0.4768
  807SOL     OW 3300   1.119   2.222   1.947  0.2894 -0.0886 -0.0204
  807SOL    HW2 3301   1.148   2.130   1.942 -0.8922 -0.4802  0.0366
  807SOL    HW3 3302   1.199   2.271   1.967  0.8622 -1.1723  0.2590
  807SOL    MW4 3303   1.134   2.216   1.949  0.2146 -0.2861  0.0119
  808SOL     OW 3304   0.881   1.977   1.999  0.0461 -0.3348 -0.1235
  808SOL    HW2 3305   0.854   2.069   2.003 -1.1087 -0.6988  0.2747
  808SOL    HW3 3306   0.906   1.956   2.089 -0.3760 -0.6228 -0.0609
  808SOL    MW4 3307   0.881   1.987   2.011 -0.1669 -0.4172 -0.0715
  809SOL     OW 3308   0.896   2.536   2.158  0.0706  0.0644  0.0764
  809SOL    HW2 3309   0.957   2.604   2.130 -0.6255  1.3733  1.6405
  809SOL    HW3 3310   0.951   2.462   2.185  0.9069  1.0179  0.9153
  809SOL    MW4 3311   0.911   2.535   2.158  0.0894  0.3576  0.4053
  810SOL     OW 3312   1.742   2.554   1.820  0.2602  0.5213 -0.0425
  810SOL    HW2 3313   1.695   2.472   1.807 -0.6151  0.9891  0.0402
  810SOL    HW3 3314   1.707   2.589   1.902  1.4979  0.3782  0.5463
  810SOL    MW4 3315   1.731   2.548   1.830  0.2980  0.5484  0.0358
  811SOL     OW 3316   1.839   2.583   2.304  0.7180 -0.6889  0.0744
  811SOL    HW2 3317   1.885   2.665   2.323  0.1344  0.0752 -1.7308
  811SOL    HW3 3318   1.806   2.595   2.215  0.6639 -2.8999 -0.1897
  811SOL    MW4 3319   1.841   2.596   2.295  0.6437 -0.8583 -0.2146
  812SOL     OW 3320   1.196   2.253   1.182  0.2298  0.2256  0.3520
  812SOL    HW2 3321   1.117   2.201   1.167 -0.8231  1.8037  0.3585
  812SOL    HW3 3322   1.176   2.304   1.261  1.1143  0.8951  0.1650
  812SOL    MW4 3323   1.183   2.253   1.191  0.2027  0.5484  0.3338
  813SOL     OW 3324   2.112   3.349   1.722  0.5884  0.1991 -0.8526
  813SOL    HW2 3325   2.040   3.350   1.786  1.3405  0.9499 -0.0354
  813SOL    HW3 3326   2.104   3.264   1.678 -0.3881 -0.0046 -0.3039
  813SOL    MW4 3327   2.101   3.338   1.725  0.5484  0.2861 -0.6795
  814SOL     OW 3328   2.076   3.479   1.002  0.2754 -0.0610 -0.3951
  814SOL    HW2 3329   2.010   3.524   1.055  0.2168  0.3489 -0.8425
  814SOL    HW3 3330   2.084   3.392   1.041  0.8196  0.5104  0.8102
  814SOL    MW4 3331   2.068   3.474   1.014  0.3338  0.0715 -0.3099
  815SOL     OW 3332   1.914   3.420   0.771 -0.6174 -0.5146 -0.3249
  815SOL    HW2 3333   1.929   3.326   0.758 -0.0950 -0.4596 -0.3091
  815SOL    HW3 3334   1.976   3.444   0.840 -0.2386 -0.0293 -0.8573
  815SOL    MW4 3335   1.924   3.411   0.778 -0.5007 -0.4292 -0.3994
  816SOL     OW 3336   2.891   3.262   0.700  0.9700 -0.1660 -0.0320
  816SOL    HW2 3337   2.814   3.206   0.710  0.7261 -0.0057 -1.3357
  816SOL    HW3 3338   2.861   3.337   0.648  1.4957  0.9277  1.2211
  816SOL    MW4 3339   2.877   3.265   0.695  1.0014  0.0000 -0.0417
  817SOL     OW 3340   1.297   3.363   1.283  0.1423 -0.1656  0.1509
  817SOL    HW2 3341   1.318   3.373   1.190  1.3497  1.3180  0.5820
  817SOL    HW3 3342   1.228   3.428   1.298 -0.3009 -0.6701  0.2126
  817SOL    MW4 3343   1.291   3.373   1.272  0.2503 -0.0477  0.2146
  818SOL     OW 3344   2.137   3.387   0.594  0.3089 -0.1045 -0.5327
  818SOL    HW2 3345   2.053   3.393   0.639  0.5310 -0.3125 -0.1055
  818SOL    HW3 3346   2.161   3.477   0.574  0.3491 -0.0110 -0.0022
  818SOL    MW4 3347   2.129   3.400   0.597  0.3815 -0.1192 -0.4053
  819SOL     OW 3348   1.169   3.704   1.088 -0.5520 -0.2272  0.2122
  819SOL    HW2 3349   1.137   3.794   1.090 -1.3297 -0.5241  0.1039
  819SOL    HW3 3350   1.246   3.707   1.031 -1.3574  0.1194 -0.8641
  819SOL    MW4 3351   1.175   3.716   1.080 -0.7629 -0.2146  0.0715
  820SOL     OW 3352   1.770   0.078   0.963 -0.0344  0.4247  0.1020
  820SOL    HW2 3353   1.771   0.015   0.891  2.1173 -1.1382  1.4521
  820SOL    HW3 3354   1.747   0.026   1.040 -0.7009  1.7627  0.7929
  820SOL    MW4 3355   1.767   0.063   0.964  0.1669  0.3949  0.3755
  821SOL     OW 3356   1.495   4.417   1.193 -0.2182 -0.0381  0.0012
  821SOL    HW2 3357   1.520   4.331   1.159  0.7609 -0.1816  0.9160
  821SOL    HW3 3358   1.400   4.419   1.187 -0.1799 -0.8634 -0.9399
  821SOL    MW4 3359   1.486   4.406   1.188 -0.0834 -0.2384  0.0119
  822SOL     OW 3360   1.043   4.661   1.012 -0.5723 -0.1568 -0.5277
  822SOL    HW2 3361   1.075   4.578   1.049 -0.7937 -0.2255 -0.3872
  822SOL    HW3 3362   1.080   4.729   1.068 -1.0945 -0.2631 -0.1184
  822SOL    MW4 3363   1.052   4.659   1.024 -0.6676 -0.2384 -0.4530
  823SOL     OW 3364   1.748   4.589   1.614 -0.1831 -0.5928  0.1261
  823SOL    HW2 3365   1.716   4.675   1.587  0.0025 -0.4634  0.3643
  823SOL    HW3 3366   1.836   4.606   1.650 -0.2725 -0.8826  0.4472
  823SOL    MW4 3367   1.756   4.603   1.615 -0.1788 -0.5722  0.2146
  824SOL     OW 3368   1.354   0.549   1.680 -0.6926  0.6312  0.2939
  824SOL    HW2 3369   1.387   0.525   1.767  0.1985  0.5353 -0.0680
  824SOL    HW3 3370   1.339   0.644   1.686 -0.6622  0.6191  0.5778
  824SOL    MW4 3371   1.357   0.559   1.692 -0.5722  0.6199  0.2861
  825SOL     OW 3372   1.385   0.819   2.110  0.0889 -0.1176  0.0291
  825SOL    HW2 3373   1.468   0.776   2.131  0.0645  0.1354  0.6086
  825SOL    HW3 3374   1.336   0.754   2.060  0.0717 -0.7738  0.8964
  825SOL    MW4 3375   1.389   0.805   2.106  0.0834 -0.1788  0.1907
  826SOL     OW 3376   2.329   1.074   1.959 -0.2347  0.2282 -0.0041
  826SOL    HW2 3377   2.279   1.013   2.014 -0.4007  0.5371  0.1978
  826SOL    HW3 3378   2.300   1.161   1.988 -0.2405  0.3802 -0.5168
  826SOL    MW4 3379   2.319   1.078   1.970 -0.2623  0.2861 -0.0477
  827SOL     OW 3380   2.003   0.871   2.362  0.4585 -0.0621  0.3896
  827SOL    HW2 3381   1.916   0.910   2.363  0.4109 -0.1640  0.2758
  827SOL    HW3 3382   2.054   0.925   2.302  0.3726 -0.1935  0.2008
  827SOL    MW4 3383   1.998   0.883   2.354  0.4530 -0.0894  0.3338
  828SOL     OW 3384   2.252   1.307   2.072  0.1820  0.1455 -0.2014
  828SOL    HW2 3385   2.269   1.284   2.163 -0.1039  0.2907 -0.1219
  828SOL    HW3 3386   2.157   1.294   2.062  0.3433 -0.5017 -0.6868
  828SOL    MW4 3387   2.242   1.302   2.083  0.1907  0.0834 -0.2861
  829SOL     OW 3388   1.860   1.289   2.315 -0.1886 -0.0157 -0.1772
  829SOL    HW2 3389   1.917   1.361   2.345 -0.8915 -0.2635  1.7936
  829SOL    HW3 3390   1.774   1.330   2.303 -0.4510 -0.4000  0.4127
  829SOL    MW4 3391   1.856   1.304   2.318 -0.3219 -0.1073  0.1431
  830SOL     OW 3392   2.030   1.512   2.336  0.1581  0.7108  0.4402
  830SOL    HW2 3393   2.032   1.540   2.245 -0.5456 -0.3821  0.1110
  830SOL    HW3 3394   1.985   1.583   2.382  0.1476  1.0618 -0.1295
  830SOL    MW4 3395   2.025   1.525   2.330  0.0715  0.6199  0.3338
  831SOL     OW 3396   1.839   2.041   2.147 -0.0652  0.0755  0.2083
  831SOL    HW2 3397   1.906   1.977   2.125 -0.5815 -0.6845  0.8916
  831SOL    HW3 3398   1.862   2.119   2.095  1.2895 -0.1832  0.4359
  831SOL    MW4 3399   1.851   2.043   2.137  0.0358 -0.0715  0.3338
  832SOL     OW 3400   1.829   2.263   1.955 -0.0073  0.1870 -0.2116
  832SOL    HW2 3401   1.892   2.318   2.001  0.0406 -0.1975  0.1830
  832SOL    HW3 3402   1.744   2.300   1.979  0.0804  0.9570 -1.0555
  832SOL    MW4 3403   1.826   2.275   1.964  0.0000  0.2384 -0.2742
  833SOL     OW 3404   1.994   2.682   1.827 -0.0440  0.5335 -0.3198
  833SOL    HW2 3405   2.011   2.623   1.753  0.5544  0.4286 -0.0954
  833SOL    HW3 3406   1.907   2.657   1.858 -0.0016  0.1088 -0.5477
  833SOL    MW4 3407   1.985   2.671   1.821  0.0477  0.4530 -0.3219
  834SOL     OW 3408   2.234   2.765   1.933  0.4339  0.4866 -0.5493
  834SOL    HW2 3409   2.295   2.703   1.893  0.1656 -0.7024  0.9253
  834SOL    HW3 3410   2.149   2.741   1.896  0.4091  0.3339 -0.4212
  834SOL    MW4 3411   2.231   2.754   1.923  0.3815  0.3099 -0.3338
  835SOL     OW 3412   2.237   2.961   1.713 -0.5890  0.7586 -0.1103
  835SOL    HW2 3413   2.251   2.898   1.784  0.9547  0.9755 -0.2478
  835SOL    HW3 3414   2.208   2.907   1.640 -1.5136  0.4887  0.4608
  835SOL    MW4 3415   2.235   2.946   1.713 -0.5245  0.7629 -0.0477
  836SOL     OW 3416   1.932   2.867   2.299  0.3185 -0.8021 -0.1072
  836SOL    HW2 3417   1.840   2.894   2.293  0.1849 -1.2225  0.0890
  836SOL    HW3 3418   1.974   2.937   2.350  0.5158  0.3555 -1.8395
  836SOL    MW4 3419   1.926   2.880   2.305  0.3338 -0.7153 -0.3338
  837SOL     OW 3420   2.073   3.663   1.610  0.3948  0.0462 -0.6176
  837SOL    HW2 3421   2.011   3.687   1.678 -0.3575  0.8155 -1.6157
  837SOL    HW3 3422   2.030   3.594   1.560  0.3806  0.4695 -1.2309
  837SOL    MW4 3423   2.059   3.657   1.612  0.3099  0.2146 -0.8345
  838SOL     OW 3424   1.989   3.025   1.799 -0.8180  0.3797 -0.2668
  838SOL    HW2 3425   2.002   3.090   1.868 -0.7167  0.6345 -0.5615
  838SOL    HW3 3426   2.078   2.997   1.775 -0.8385  0.8018 -0.8179
  838SOL    MW4 3427   2.003   3.030   1.805 -0.8106  0.4530 -0.3695
  839SOL     OW 3428   2.155   3.040   1.304  0.0626  0.1785 -0.2663
  839SOL    HW2 3429   2.106   3.081   1.375 -0.0716  0.8989 -0.8273
  839SOL    HW3 3430   2.246   3.043   1.332 -0.0756 -0.4009  0.3580
  839SOL    MW4 3431   2.161   3.046   1.317  0.0238  0.1669 -0.2503
  840SOL     OW 3432   2.482   3.010   0.942  0.5959 -0.0955  0.0562
  840SOL    HW2 3433   2.474   3.090   0.993 -0.0302  0.4827 -0.9698
  840SOL    HW3 3434   2.393   2.975   0.936  0.5902  0.0670 -1.0018
  840SOL    MW4 3435   2.469   3.016   0.948  0.5007  0.0000 -0.2205
  841SOL     OW 3436   2.491   3.226   1.137  0.1645 -0.1321 -0.4367
  841SOL    HW2 3437   2.447   3.255   1.217 -0.4635 -1.3156 -0.3880
  841SOL    HW3 3438   2.508   3.307   1.089  0.4350  0.5601  0.8122
  841SOL    MW4 3439   2.488   3.241   1.141  0.1431 -0.2146 -0.2742
  842SOL     OW 3440   2.244   3.652   0.594  0.1532 -0.2217 -0.0115
  842SOL    HW2 3441   2.212   3.731   0.638  0.0728 -0.7671  0.9860
  842SOL    HW3 3442   2.325   3.630   0.641 -0.1059 -1.0632  0.0472
  842SOL    MW4 3443   2.251   3.660   0.606  0.0954 -0.4053  0.1192
  843SOL     OW 3444   1.760   4.188   1.413 -0.1196  0.1582 -0.5751
  843SOL    HW2 3445   1.783   4.127   1.343 -0.8794  1.3098 -1.8191
  843SOL    HW3 3446   1.782   4.274   1.377  0.3418  0.6260  0.9231
  843SOL    MW4 3447   1.766   4.191   1.399 -0.1669  0.3815 -0.5364
  844SOL     OW 3448   1.862   4.476   1.381  0.2737  0.3030 -0.5961
  844SOL    HW2 3449   1.820   4.516   1.457  0.8017 -1.4398  0.5869
  844SOL    HW3 3450   1.955   4.476   1.401  0.4353  0.0414 -1.3702
  844SOL    MW4 3451   1.869   4.481   1.393  0.3695  0.0477 -0.5364
  845SOL     OW 3452   1.184   0.191   1.624 -0.0170  0.6271 -0.4014
  845SOL    HW2 3453   1.256   0.206   1.685  0.6783  1.7332 -1.5143
  845SOL    HW3 3454   1.182   0.096   1.612  0.4634  0.4931  0.5837
  845SOL    MW4 3455   1.193   0.180   1.630  0.1192  0.7540 -0.4172
  846SOL     OW 3456   1.699   0.285   1.768  0.1306  0.5004 -0.4033
  846SOL    HW2 3457   1.782   0.257   1.730 -0.5133 -0.5185 -1.0355
  846SOL    HW3 3458   1.676   0.214   1.829 -0.3023  0.7530 -0.2750
  846SOL    MW4 3459   1.707   0.272   1.771  0.0000  0.3994 -0.4768
  847SOL     OW 3460   2.726   0.039   1.526 -0.1654  0.6269 -0.0817
  847SOL    HW2 3461   2.639   0.038   1.487 -0.5162 -0.4547  0.7032
  847SOL    HW3 3462   2.739   0.130   1.552 -0.6696  0.9860 -1.0497
  847SOL    MW4 3463   2.716   0.051   1.525 -0.2861  0.5316 -0.1192
  848SOL     OW 3464   2.595   0.664   1.833 -0.0375 -0.7128  0.2305
  848SOL    HW2 3465   2.502   0.640   1.836  0.0031 -0.9893  0.1583
  848SOL    HW3 3466   2.633   0.606   1.767  0.0027 -0.1157 -0.2502
  848SOL    MW4 3467   2.588   0.654   1.825 -0.0477 -0.6735  0.1550
  849SOL     OW 3468   2.314   0.610   1.869 -0.2573 -0.1591 -0.1859
  849SOL    HW2 3469   2.265   0.617   1.951 -0.9812 -0.6645 -0.5761
  849SOL    HW3 3470   2.302   0.694   1.825  0.7199  0.3733  0.5489
  849SOL    MW4 3471   2.306   0.622   1.874 -0.2384 -0.1550 -0.1550
  850SOL     OW 3472   2.993   0.365   1.110  0.0355 -0.2740  0.2563
  850SOL    HW2 3473   3.085   0.387   1.094  0.0005 -0.6241 -0.2612
  850SOL    HW3 3474   2.956   0.444   1.151  0.5695 -0.1891  0.5867
  850SOL    MW4 3475   3.000   0.378   1.113  0.0954 -0.3070  0.2384
  851SOL     OW 3476   2.636   0.841   2.325 -0.0669 -0.1712 -0.0450
  851SOL    HW2 3477   2.579   0.904   2.283 -0.5875 -0.2056  0.6282
  851SOL    HW3 3478   2.606   0.755   2.295 -0.3661 -0.1904  0.3212
  851SOL    MW4 3479   2.625   0.838   2.316 -0.1669 -0.1729  0.0954
  852SOL     OW 3480   2.519   1.059   2.203  0.3831 -0.0237  0.7337
  852SOL    HW2 3481   2.566   1.142   2.214  0.0768  0.0721  1.4602
  852SOL    HW3 3482   2.472   1.069   2.121 -0.7483  1.0404  1.5106
  852SOL    MW4 3483   2.519   1.072   2.194  0.1907  0.1311  0.9537
  853SOL     OW 3484   2.663   1.296   2.196  0.0686  0.2072  0.1284
  853SOL    HW2 3485   2.672   1.358   2.268  0.1442 -0.0210  0.3206
  853SOL    HW3 3486   2.661   1.350   2.117 -0.6187  0.4784  0.3681
  853SOL    MW4 3487   2.664   1.311   2.195 -0.0238  0.2027  0.1907
  854SOL     OW 3488   2.948   1.091   2.302  0.2462 -0.1911  0.5534
  854SOL    HW2 3489   2.865   1.084   2.349  0.4801  0.6273  1.1719
  854SOL    HW3 3490   2.928   1.145   2.226 -0.1580 -1.3262 -0.1726
  854SOL    MW4 3491   2.934   1.097   2.298  0.2384 -0.2384  0.5245
  855SOL     OW 3492   2.537   1.713   2.223  0.1669 -0.6439 -0.0747
  855SOL    HW2 3493   2.604   1.733   2.157 -0.0358 -0.0876 -0.1304
  855SOL    HW3 3494   2.460   1.689   2.171  0.1858 -0.7876 -0.0277
  855SOL    MW4 3495   2.536   1.713   2.207  0.1431 -0.5960 -0.0715
  856SOL     OW 3496   2.033   1.850   2.093 -0.4741  0.1395 -0.3683
  856SOL    HW2 3497   2.089   1.849   2.171 -0.0640  0.2170 -0.6471
  856SOL    HW3 3498   2.072   1.916   2.036 -1.3030  0.7305 -0.2234
  856SOL    MW4 3499   2.046   1.859   2.096 -0.5484  0.2384 -0.3815
  857SOL     OW 3500   2.387   2.552   1.843 -0.3752  0.5294 -0.0261
  857SOL    HW2 3501   2.314   2.490   1.838  0.5823 -0.6320 -0.0055
  857SOL    HW3 3502   2.421   2.556   1.753  1.6170 -1.4933  0.6417
  857SOL    MW4 3503   2.382   2.545   1.831  0.0000  0.1192  0.0596
  858SOL     OW 3504   2.525   2.075   1.766  0.7576 -0.2033 -0.0935
  858SOL    HW2 3505   2.468   2.096   1.840  1.0721 -0.5627  0.2486
  858SOL    HW3 3506   2.489   2.125   1.693 -0.4151 -0.9393 -0.0402
  858SOL    MW4 3507   2.512   2.084   1.766  0.6437 -0.3338 -0.0596
  859SOL     OW 3508   2.452   2.478   1.468 -0.1753  0.3305  0.0706
  859SOL    HW2 3509   2.535   2.497   1.512 -0.1796  0.5079 -0.0398
  859SOL    HW3 3510   2.442   2.383   1.475 -0.0616  0.3347  0.2307
  859SOL    MW4 3511   2.462   2.468   1.474 -0.1669  0.3576  0.0715
  860SOL     OW 3512   2.550   2.745   1.411  0.1774 -0.5496 -0.5632
  860SOL    HW2 3513   2.494   2.668   1.423  0.2163 -0.6532 -1.2013
  860SOL    HW3 3514   2.583   2.764   1.499 -0.5665 -0.6964 -0.2370
  860SOL    MW4 3515   2.547   2.737   1.424  0.0715 -0.5960 -0.5960
  861SOL     OW 3516   2.405   2.567   2.219  0.4660  0.1291 -0.1118
  861SOL    HW2 3517   2.431   2.647   2.173  0.6023 -0.4210 -0.9484
  861SOL    HW3 3518   2.444   2.496   2.168  0.5627 -0.4969  0.8133
  861SOL    MW4 3519   2.414   2.568   2.206  0.5007 -0.0477 -0.0954
  862SOL     OW 3520   2.805   2.685   1.296  0.2422 -0.6234  0.2759
  862SOL    HW2 3521   2.873   2.742   1.333  0.4633 -0.2465 -0.6648
  862SOL    HW3 3522   2.726   2.706   1.345  0.3512  0.4175  0.0022
  862SOL    MW4 3523   2.804   2.695   1.307  0.2623 -0.4292  0.1073
  863SOL     OW 3524   2.700   2.910   1.580  0.0099 -0.2421 -0.6253
  863SOL    HW2 3525   2.680   2.971   1.509 -0.1974 -0.8507 -1.0812
  863SOL    HW3 3526   2.685   2.960   1.660  0.0299  0.3626 -1.0011
  863SOL    MW4 3527   2.695   2.924   1.582 -0.0238 -0.2384 -0.7391
  864SOL     OW 3528   2.669   3.111   1.768  0.3777 -0.1895  0.5953
  864SOL    HW2 3529   2.643   3.094   1.858  0.2237  1.8196  0.9171
  864SOL    HW3 3530   2.588   3.136   1.723  0.5101 -0.8822 -0.0316
  864SOL    MW4 3531   2.655   3.112   1.774  0.3815 -0.0238  0.5603
  865SOL     OW 3532   2.476   3.569   0.725  0.2329 -0.3380  0.1492
  865SOL    HW2 3533   2.552   3.611   0.764  0.3580 -0.1833 -0.2294
  865SOL    HW3 3534   2.510   3.526   0.646 -0.3480  0.9753 -0.8179
  865SOL    MW4 3535   2.490   3.569   0.720  0.1669 -0.1669 -0.0298
  866SOL     OW 3536   2.663   3.621   1.223 -0.3818  0.3100  0.5593
  866SOL    HW2 3537   2.756   3.645   1.228 -0.3450  0.1706  0.8292
  866SOL    HW3 3538   2.620   3.701   1.191 -0.2104  0.4887  0.8049
  866SOL    MW4 3539   2.670   3.635   1.219 -0.3576  0.3099  0.6318
  867SOL     OW 3540   2.376   3.931   0.882  0.0397  0.0497 -0.2719
  867SOL    HW2 3541   2.393   3.845   0.921 -1.3008  0.2716  0.8366
  867SOL    HW3 3542   2.368   3.990   0.957 -0.3029  0.9015 -0.9927
  867SOL    MW4 3543   2.377   3.928   0.897 -0.1907  0.1669 -0.2205
  868SOL     OW 3544   2.095   4.084   1.182  0.2374 -0.4901  0.0287
  868SOL    HW2 3545   2.150   4.126   1.248 -0.1037 -1.0454  0.6367
  868SOL    HW3 3546   2.099   4.144   1.107  0.2794  0.2819  0.6772
  868SOL    MW4 3547   2.103   4.097   1.181  0.2146 -0.4292  0.2027
  869SOL     OW 3548   2.478   0.002   1.432 -0.0531 -0.2870 -0.0301
  869SOL    HW2 3549   2.422  -0.050   1.489  0.0191  0.0993  0.3853
  869SOL    HW3 3550   2.419   0.065   1.392  0.2050  0.4470  0.7629
  869SOL    MW4 3551   2.463   0.003   1.434  0.0000 -0.1335  0.1431
  870SOL     OW 3552   2.311   4.533   1.605  0.0350  0.5380 -0.2193
  870SOL    HW2 3553   2.267   4.586   1.671 -0.7579  0.7316 -0.9166
  870SOL    HW3 3554   2.243   4.513   1.540  0.5374 -0.6109 -0.3777
  870SOL    MW4 3555   2.296   4.538   1.605 -0.0238  0.3815 -0.3338
  871SOL     OW 3556   3.155   0.193   1.621 -0.0267 -0.4005  0.2188
  871SOL    HW2 3557   3.098   0.190   1.698 -1.6839  1.1633 -0.9736
  871SOL    HW3 3558   3.144   0.108   1.579 -1.5336 -0.0595 -0.0641
  871SOL    MW4 3559   3.146   0.182   1.625 -0.4292 -0.1475  0.0238
  872SOL     OW 3560   3.327   0.241   1.334 -0.1309  0.2417  0.2525
  872SOL    HW2 3561   3.343   0.287   1.416  0.1734  1.2421 -0.3639
  872SOL    HW3 3562   3.348   0.150   1.352  0.2632  0.5230  1.1871
  872SOL    MW4 3563   3.332   0.235   1.347 -0.0477  0.4113  0.2980
  873SOL     OW 3564   3.022   0.138   1.260  0.0293  0.2325 -0.3256
  873SOL    HW2 3565   2.936   0.100   1.275  0.4118 -0.3364  0.4659
  873SOL    HW3 3566   3.005   0.215   1.205 -0.7593 -0.9903 -1.8058
  873SOL    MW4 3567   3.008   0.143   1.255  0.0000 -0.0045 -0.4292
  874SOL     OW 3568   2.807   0.430   1.563  0.2975 -0.4008  0.0678
  874SOL    HW2 3569   2.819   0.516   1.603  0.1128 -0.3418  0.0034
  874SOL    HW3 3570   2.892   0.410   1.522 -0.4757  0.8309 -2.0749
  874SOL    MW4 3571   2.820   0.439   1.563  0.1669 -0.2265 -0.2146
  875SOL     OW 3572   2.860   0.677   1.677  0.1566  0.1359 -0.0516
  875SOL    HW2 3573   2.888   0.665   1.767  0.0108 -0.0980 -0.0354
  875SOL    HW3 3574   2.802   0.753   1.680 -0.4863 -0.3581  0.1785
  875SOL    MW4 3575   2.856   0.686   1.689  0.0715  0.0358 -0.0238
  876SOL     OW 3576   2.817   0.883   2.112  0.4687 -0.1051  0.4084
  876SOL    HW2 3577   2.761   0.872   2.188  0.9007 -0.4903  0.6853
  876SOL    HW3 3578   2.880   0.951   2.138 -0.6033  1.1668 -0.3284
  876SOL    MW4 3579   2.818   0.890   2.125  0.4053  0.0179  0.3815
  877SOL     OW 3580   3.106   0.885   2.395 -0.6735 -0.4474  0.3914
  877SOL    HW2 3581   3.164   0.870   2.321 -0.5578 -0.8649  0.5454
  877SOL    HW3 3582   3.054   0.962   2.370  0.5319  0.4182  0.5802
  877SOL    MW4 3583   3.107   0.893   2.382 -0.5007 -0.3934  0.4292
  878SOL     OW 3584   3.031   1.614   2.008  0.1951  0.2317  0.3419
  878SOL    HW2 3585   3.104   1.614   1.946  0.0705  0.6250  0.1688
  878SOL    HW3 3586   3.058   1.554   2.077  0.5884  0.2329  0.1745
  878SOL    MW4 3587   3.044   1.606   2.009  0.2623  0.2742  0.2861
  879SOL     OW 3588   3.071   1.854   2.149  0.3310  0.3285  0.5893
  879SOL    HW2 3589   2.999   1.871   2.209 -0.0603  0.8701 -0.0776
  879SOL    HW3 3590   3.039   1.783   2.092  0.1765  0.8735  0.0277
  879SOL    MW4 3591   3.057   1.847   2.149  0.2384  0.4768  0.4053
  880SOL     OW 3592   2.735   1.739   2.059 -0.4948 -0.4155  0.1107
  880SOL    HW2 3593   2.746   1.785   1.975  0.6447 -0.2348  0.3552
  880SOL    HW3 3594   2.728   1.647   2.035 -1.7657 -0.2087 -0.3303
  880SOL    MW4 3595   2.735   1.733   2.044 -0.5245 -0.3695  0.0715
  881SOL     OW 3596   2.760   1.859   1.810  0.2588 -0.1355 -0.2497
  881SOL    HW2 3597   2.758   1.951   1.835  0.3371 -0.1967 -0.0108
  881SOL    HW3 3598   2.693   1.851   1.742  0.4063  0.1403 -0.3939
  881SOL    MW4 3599   2.751   1.870   1.804  0.3099 -0.0954 -0.2265
  882SOL     OW 3600   2.935   1.839   1.594 -0.2625  0.0480  0.0993
  882SOL    HW2 3601   2.911   1.924   1.557 -0.4180 -0.4226 -0.9088
  882SOL    HW3 3602   2.880   1.831   1.672 -1.3063  0.2504 -0.5970
  882SOL    MW4 3603   2.924   1.849   1.599 -0.4292  0.0000 -0.1311
  883SOL     OW 3604   2.828   2.078   1.491  0.4986 -0.5908  0.0698
  883SOL    HW2 3605   2.807   2.137   1.563  0.6533 -0.9039  0.3685
  883SOL    HW3 3606   2.886   2.128   1.434 -0.4401  0.0208 -0.3657
  883SOL    MW4 3607   2.833   2.092   1.493  0.4053 -0.5722  0.0477
  884SOL     OW 3608   2.809   2.296   1.093 -0.3137 -0.1272  0.0842
  884SOL    HW2 3609   2.858   2.343   1.160  0.7392 -0.0756 -0.7114
  884SOL    HW3 3610   2.767   2.364   1.041  0.0209 -0.1330 -0.1744
  884SOL    MW4 3611   2.810   2.311   1.095 -0.1431 -0.0954 -0.0477
  885SOL     OW 3612   2.684   2.524   1.615  0.5812 -0.2598  0.1111
  885SOL    HW2 3613   2.698   2.435   1.648 -1.6003 -0.5393  0.2249
  885SOL    HW3 3614   2.686   2.579   1.693  0.0090 -0.4383  0.2415
  885SOL    MW4 3615   2.686   2.520   1.630  0.2146 -0.3099  0.1311
  886SOL     OW 3616   2.963   2.470   1.273  0.1698  0.0349  0.0529
  886SOL    HW2 3617   2.960   2.434   1.361 -0.6012  0.0121  0.0107
  886SOL    HW3 3618   2.902   2.544   1.275 -0.5825 -0.5592 -0.7113
  886SOL    MW4 3619   2.954   2.475   1.285 -0.0477 -0.0477 -0.0477
  887SOL     OW 3620   2.662   3.112   1.382  0.4797  0.2078 -0.3449
  887SOL    HW2 3621   2.644   3.205   1.373  0.4955  0.1376 -1.1929
  887SOL    HW3 3622   2.726   3.093   1.313  3.2582  0.3313  2.2457
  887SOL    MW4 3623   2.668   3.122   1.371  0.8583  0.2384 -0.1192
  888SOL     OW 3624   2.391   3.327   1.390 -0.1008 -0.7975 -0.0570
  888SOL    HW2 3625   2.484   3.351   1.386 -0.1925 -0.4260 -0.6154
  888SOL    HW3 3626   2.345   3.411   1.392 -0.4123 -0.9907  0.5577
  888SOL    MW4 3627   2.397   3.341   1.389 -0.1669 -0.7629 -0.0596
  889SOL     OW 3628   3.038   4.323   1.605 -0.1812  0.0799  0.8218
  889SOL    HW2 3629   2.963   4.333   1.663 -0.2637  0.1206  0.7127
  889SOL    HW3 3630   3.004   4.278   1.528 -0.1211  0.1712  0.7381
  889SOL    MW4 3631   3.024   4.318   1.603 -0.1907  0.1431  0.7987
  890SOL     OW 3632   3.206   3.760   1.563 -0.5638 -0.2214  0.1951
  890SOL    HW2 3633   3.130   3.773   1.620 -0.7474 -0.8304  0.1009
  890SOL    HW3 3634   3.249   3.845   1.559 -0.3409 -0.2685  1.5714
  890SOL    MW4 3635   3.201   3.773   1.570 -0.5722 -0.3099  0.3576
  891SOL     OW 3636   3.588   3.529   2.141 -0.0523 -0.2773  0.3032
  891SOL    HW2 3637   3.645   3.593   2.099 -1.1795 -0.0017 -0.7305
  891SOL    HW3 3638   3.524   3.505   2.074 -1.1708 -0.6359  1.4729
  891SOL    MW4 3639   3.587   3.534   2.127 -0.3338 -0.2861  0.3338
  892SOL     OW 3640   3.300   4.008   1.815  0.0825  0.2727  0.5902
  892SOL    HW2 3641   3.311   4.102   1.829  0.0769  0.2682  0.8634
  892SOL    HW3 3642   3.334   3.993   1.727 -1.1501  0.7800  0.0365
  892SOL    MW4 3643   3.306   4.019   1.805 -0.0715  0.3338  0.5603
  893SOL     OW 3644   2.346   4.600   1.892 -0.1090  1.1527  0.3024
  893SOL    HW2 3645   2.419   4.601   1.831 -0.4271  0.4039 -0.0682
  893SOL    HW3 3646   2.382   4.565   1.974  0.5539  3.2205  0.8975
  893SOL    MW4 3647   2.360   4.595   1.895 -0.0715  1.2875  0.3338
  894SOL     OW 3648   2.839   4.377   1.790  0.2047 -0.2893  0.2415
  894SOL    HW2 3649   2.847   4.347   1.880  0.2582 -0.3287  0.2162
  894SOL    HW3 3650   2.886   4.461   1.789 -0.1203 -0.1123  0.3380
  894SOL    MW4 3651   2.846   4.384   1.801  0.1669 -0.2861  0.2503
  895SOL     OW 3652   3.391   0.637   1.887  0.4857  0.6190 -0.4628
  895SOL    HW2 3653   3.432   0.556   1.856  0.0287  0.4816 -0.6950
  895SOL    HW3 3654   3.319   0.607   1.943  0.4759  0.8504 -0.3576
  895SOL    MW4 3655   3.386   0.623   1.890  0.4292  0.6318 -0.4888
  896SOL     OW 3656   3.435   0.221   1.611  0.2032 -0.4672 -0.2573
  896SOL    HW2 3657   3.460   0.300   1.658 -0.0455  0.2581 -1.3490
  896SOL    HW3 3658   3.339   0.217   1.619  0.2074 -0.7444 -0.0140
  896SOL    MW4 3659   3.425   0.231   1.618  0.1669 -0.4098 -0.3695
  897SOL     OW 3660   3.429   0.680   1.604  0.6319 -0.1294 -0.2560
  897SOL    HW2 3661   3.425   0.693   1.699 -1.1047  0.8882 -0.4627
  897SOL    HW3 3662   3.384   0.597   1.590  0.0812  0.1742 -0.2812
  897SOL    MW4 3663   3.422   0.671   1.615  0.3099  0.0358 -0.2861
  898SOL     OW 3664   3.468   0.938   2.030  0.3010 -0.3204  0.9134
  898SOL    HW2 3665   3.459   1.024   1.989  0.8956 -0.4563  0.5054
  898SOL    HW3 3666   3.498   0.880   1.960 -0.0721 -0.8650  1.2024
  898SOL    MW4 3667   3.471   0.942   2.016  0.3576 -0.4113  0.9060
  899SOL     OW 3668   3.231   0.840   1.486  0.1725 -0.6564 -0.3127
  899SOL    HW2 3669   3.243   0.926   1.525 -1.4526 -0.2709 -0.6606
  899SOL    HW3 3670   3.300   0.786   1.525  0.2231  0.4194  1.0453
  899SOL    MW4 3671   3.242   0.844   1.496 -0.0477 -0.4709 -0.1788
  900SOL     OW 3672   3.004   0.676   1.430  0.1428 -0.0981 -0.0883
  900SOL    HW2 3673   3.080   0.734   1.439 -0.4454  0.7461 -0.5209
  900SOL    HW3 3674   2.964   0.675   1.517 -0.5345  1.1207 -0.3539
  900SOL    MW4 3675   3.008   0.684   1.442  0.0000  0.1788 -0.1788
  901SOL     OW 3676   3.370   1.080   1.584 -0.4581 -0.3121  0.0767
  901SOL    HW2 3677   3.391   1.105   1.675  0.4137  0.4922 -0.3384
  901SOL    HW3 3678   3.306   1.145   1.556  0.2722  0.2239 -0.3420
  901SOL    MW4 3679   3.364   1.092   1.593 -0.2384 -0.1311 -0.0477
  902SOL     OW 3680   3.405   1.530   1.566 -0.3727  0.2771  0.0821
  902SOL    HW2 3681   3.486   1.486   1.588 -0.6468 -0.0867  0.3452
  902SOL    HW3 3682   3.355   1.465   1.517 -0.7923  0.2700  0.5067
  902SOL    MW4 3683   3.409   1.516   1.563 -0.4768  0.2265  0.1669
  903SOL     OW 3684   3.228   1.612   1.819  0.2295  0.2510  0.2845
  903SOL    HW2 3685   3.299   1.642   1.876 -0.6071 -0.0795  1.4855
  903SOL    HW3 3686   3.272   1.565   1.748  1.1153 -1.2010  1.7946
  903SOL    MW4 3687   3.243   1.610   1.818  0.2146  0.0119  0.6557
  904SOL     OW 3688   3.192   1.852   1.676 -0.1781 -0.0834 -0.4284
  904SOL    HW2 3689   3.206   1.775   1.731  0.1840  0.1980 -0.1359
  904SOL    HW3 3690   3.098   1.853   1.660 -0.2243 -0.2911  0.0109
  904SOL    MW4 3691   3.181   1.842   1.681 -0.1192 -0.0715 -0.3219
  905SOL     OW 3692   3.255   2.095   1.823  0.4029 -0.1824 -0.1051
  905SOL    HW2 3693   3.243   2.004   1.796 -0.2491 -0.1609  0.1059
  905SOL    HW3 3694   3.184   2.142   1.780 -0.2102 -0.0091  1.1031
  905SOL    MW4 3695   3.244   2.089   1.813  0.2384 -0.1431  0.0834
  906SOL     OW 3696   3.400   2.149   1.580  0.4176  0.2812 -0.3413
  906SOL    HW2 3697   3.369   2.131   1.668  1.5957 -0.8524 -0.1681
  906SOL    HW3 3698   3.340   2.100   1.523 -0.5240  1.3247 -0.2135
  906SOL    MW4 3699   3.388   2.140   1.584  0.4768  0.2384 -0.3099
  907SOL     OW 3700   3.278   2.406   1.584  0.0277  0.1046  0.2139
  907SOL    HW2 3701   3.339   2.473   1.554 -0.1488  0.2207  0.1253
  907SOL    HW3 3702   3.322   2.323   1.566 -0.1589  0.1648 -0.5630
  907SOL    MW4 3703   3.292   2.404   1.578 -0.0238  0.1192  0.0954
  908SOL     OW 3704   3.037   2.177   1.336  0.3792 -0.0538 -0.1427
  908SOL    HW2 3705   3.094   2.253   1.323  0.4493 -0.0930 -0.2563
  908SOL    HW3 3706   3.096   2.108   1.368  0.2408  0.1029  0.4401
  908SOL    MW4 3707   3.052   2.178   1.338  0.4053 -0.0238 -0.0834
  909SOL     OW 3708   3.017   2.191   1.738  0.4189 -0.1583 -0.4719
  909SOL    HW2 3709   3.009   2.248   1.814 -0.9408  0.0715 -0.7621
  909SOL    HW3 3710   3.003   2.249   1.663  0.3063 -0.6304 -0.8191
  909SOL    MW4 3711   3.014   2.206   1.738  0.2384 -0.1907 -0.5484
  910SOL     OW 3712   3.004   2.389   1.542  0.3329 -0.1638 -0.0955
  910SOL    HW2 3713   2.975   2.472   1.579  0.2655 -0.0879 -0.3287
  910SOL    HW3 3714   3.100   2.393   1.548  0.3006 -0.5089  0.8344
  910SOL    MW4 3715   3.013   2.400   1.548  0.3338 -0.1907 -0.0119
  911SOL     OW 3716   2.971   2.919   1.622  0.0300 -0.7936 -0.0289
  911SOL    HW2 3717   2.883   2.921   1.585 -0.3195  0.0972  0.7853
  911SOL    HW3 3718   2.989   2.826   1.635  0.1192 -1.0675 -2.2995
  911SOL    MW4 3719   2.962   2.907   1.619 -0.0477 -0.6914 -0.2146
  912SOL     OW 3720   3.152   3.589   1.989  0.2588  0.0058  0.2879
  912SOL    HW2 3721   3.102   3.579   1.907 -0.3128  0.3171  0.5841
  912SOL    HW3 3722   3.243   3.578   1.963  0.1207  0.6642 -0.4723
  912SOL    MW4 3723   3.157   3.586   1.975  0.1431  0.0954  0.2384
  913SOL     OW 3724   3.394   3.718   1.794 -0.1930  0.6079  0.9347
  913SOL    HW2 3725   3.331   3.725   1.722  0.4028  1.9937  0.5290
  913SOL    HW3 3726   3.445   3.640   1.773  0.4103  1.3832 -0.4690
  913SOL    MW4 3727   3.392   3.709   1.782 -0.0238  0.9060  0.6914
  914SOL     OW 3728   3.195   3.423   1.578 -0.7787 -0.0298  0.2518
  914SOL    HW2 3729   3.259   3.376   1.632 -0.3558  1.0249  0.6839
  914SOL    HW3 3730   3.247   3.459   1.506 -1.0132  0.1432  0.1580
  914SOL    MW4 3731   3.211   3.421   1.576 -0.7391  0.1192  0.2861
  915SOL     OW 3732   3.549   3.353   1.289 -0.2250 -0.4973 -0.8529
  915SOL    HW2 3733   3.570   3.339   1.381 -0.8228 -0.3306 -0.6964
  915SOL    HW3 3734   3.553   3.448   1.278 -0.7785 -0.4646 -0.8666
  915SOL    MW4 3735   3.553   3.364   1.300 -0.3576 -0.4768 -0.8464
  916SOL     OW 3736   3.766   3.943   0.888  0.5475 -0.2245  0.4097
  916SOL    HW2 3737   3.810   4.000   0.952 -0.6175  0.8398  0.2403
  916SOL    HW3 3738   3.703   3.893   0.941  0.8505 -0.6310  0.3874
  916SOL    MW4 3739   3.764   3.944   0.904  0.4292 -0.1192  0.3874
  917SOL     OW 3740   3.615   3.916   1.822 -0.4388  0.2502  0.0766
  917SOL    HW2 3741   3.529   3.878   1.806 -0.3014  0.3793 -0.9555
  917SOL    HW3 3742   3.664   3.900   1.741  0.7410 -0.3642  0.9181
  917SOL    MW4 3743   3.610   3.909   1.809 -0.2623  0.2146  0.0596
  918SOL     OW 3744   3.322   0.268   1.940 -0.5100  0.2340 -0.2061
  918SOL    HW2 3745   3.295   0.268   2.031  0.1696  0.9965 -0.0068
  918SOL    HW3 3746   3.349   0.178   1.922 -0.5177  0.1226  0.3893
  918SOL    MW4 3747   3.322   0.256   1.949 -0.4292  0.3219 -0.1073
  919SOL     OW 3748   3.961   0.070   2.159  0.1023  0.4835  0.2044
  919SOL    HW2 3749   3.899   0.106   2.222  0.0128 -0.1021  0.4577
  919SOL    HW3 3750   3.914   0.072   2.075  0.3204  1.5842  0.1106
  919SOL    MW4 3751   3.947   0.075   2.156  0.0954  0.5521  0.2384
  920SOL     OW 3752   3.852   0.736   2.229  0.5260 -0.3507 -0.0577
  920SOL    HW2 3753   3.780   0.672   2.226 -0.1412  0.4141 -0.8564
  920SOL    HW3 3754   3.862   0.765   2.139  1.9055 -0.4940  0.0720
  920SOL    MW4 3755   3.844   0.731   2.217  0.6199 -0.2682 -0.1431
  921SOL     OW 3756   3.685   0.956   2.207  0.3323 -0.1694  0.4458
  921SOL    HW2 3757   3.738   0.876   2.211 -0.5057 -0.7048  0.7547
  921SOL    HW3 3758   3.623   0.939   2.136  0.3897  0.3526  0.2938
  921SOL    MW4 3759   3.684   0.943   2.198  0.2146 -0.1729  0.4530
  922SOL     OW 3760   3.762   1.194   1.774 -0.0152  0.7276  0.0719
  922SOL    HW2 3761   3.716   1.175   1.856 -0.8796  1.1336 -0.2950
  922SOL    HW3 3762   3.737   1.122   1.715 -0.1160  0.8914 -0.0823
  922SOL    MW4 3763   3.752   1.182   1.777 -0.1431  0.8106  0.0000
  923SOL     OW 3764   4.058   1.181   1.797  0.0199  0.4265 -0.2833
  923SOL    HW2 3765   3.965   1.188   1.779  0.0877  1.6865  0.0697
  923SOL    HW3 3766   4.063   1.142   1.884 -0.1432  1.2618  0.1082
  923SOL    MW4 3767   4.047   1.177   1.806  0.0477  0.7033 -0.1907
  924SOL     OW 3768   3.575   1.075   1.428 -0.6715 -0.1488 -0.2696
  924SOL    HW2 3769   3.503   1.086   1.491 -0.8046 -0.0835 -0.4448
  924SOL    HW3 3770   3.624   0.999   1.460 -1.3379 -0.7265 -0.6700
  924SOL    MW4 3771   3.572   1.067   1.441 -0.7629 -0.2027 -0.3338
  925SOL     OW 3772   3.630   1.413   1.696 -0.2304  0.1937 -0.6638
  925SOL    HW2 3773   3.689   1.472   1.650  0.3423  0.4178  0.4093
  925SOL    HW3 3774   3.681   1.333   1.708  0.0742  0.6202  0.8232
  925SOL    MW4 3775   3.644   1.410   1.691 -0.1192  0.2742 -0.3338
  926SOL     OW 3776   3.894   1.240   1.509 -0.2363 -0.1582  0.0124
  926SOL    HW2 3777   3.953   1.315   1.507  0.9356 -1.1223 -1.4237
  926SOL    HW3 3778   3.815   1.270   1.464  0.2188  0.2473 -0.5287
  926SOL    MW4 3779   3.891   1.254   1.503  0.0000 -0.2384 -0.2503
  927SOL     OW 3780   3.800   1.591   1.564 -0.3588 -0.2883  0.1807
  927SOL    HW2 3781   3.887   1.602   1.602 -0.4702 -0.3544  0.5012
  927SOL    HW3 3782   3.759   1.677   1.571 -0.0318 -0.0793 -0.6627
  927SOL    MW4 3783   3.806   1.604   1.570 -0.3099 -0.2742  0.1192
  928SOL     OW 3784   3.722   1.882   1.633  0.0444  0.0967  0.5004
  928SOL    HW2 3785   3.739   1.862   1.725  0.3444  0.7085  0.5799
  928SOL    HW3 3786   3.629   1.860   1.620 -0.0827  0.3303  1.0353
  928SOL    MW4 3787   3.712   1.877   1.643  0.0715  0.2146  0.5841
  929SOL     OW 3788   3.597   2.080   1.390 -0.0360  0.1672 -0.4196
  929SOL    HW2 3789   3.602   1.986   1.406 -1.1579  0.2918  0.6895
  929SOL    HW3 3790   3.544   2.114   1.462  0.1790  1.6290 -0.9502
  929SOL    MW4 3791   3.591   2.072   1.401 -0.1431  0.3815 -0.3457
  930SOL     OW 3792   3.461   2.147   1.126 -0.3278 -0.2564 -0.7656
  930SOL    HW2 3793   3.499   2.073   1.079  0.6454 -0.2692  0.0224
  930SOL    HW3 3794   3.477   2.128   1.218 -0.7371  0.5667 -0.5324
  930SOL    MW4 3795   3.468   2.135   1.132 -0.2623 -0.1431 -0.6318
  931SOL     OW 3796   3.808   2.423   1.451  0.2567  0.2895 -0.7601
  931SOL    HW2 3797   3.715   2.432   1.433  0.2131 -0.3756 -0.8098
  931SOL    HW3 3798   3.813   2.406   1.546  0.1315 -2.7912 -1.3148
  931SOL    MW4 3799   3.797   2.422   1.461  0.2384 -0.2146 -0.8464
  932SOL     OW 3800   3.532   2.413   1.059  0.2199  0.0505 -0.0614
  932SOL    HW2 3801   3.573   2.442   1.140 -1.2076 -0.5024  0.8686
  932SOL    HW3 3802   3.517   2.319   1.072 -0.5218  0.0587 -0.7461
  932SOL    MW4 3803   3.535   2.404   1.071 -0.0715  0.0000 -0.0358
  933SOL     OW 3804   3.398   2.657   1.758  0.4889 -0.1053  0.3030
  933SOL    HW2 3805   3.482   2.633   1.720  0.4782  0.2100  0.0362
  933SOL    HW3 3806   3.357   2.573   1.780  0.5930 -0.3277 -0.2349
  933SOL    MW4 3807   3.404   2.643   1.756  0.4768 -0.0954  0.2027
  934SOL     OW 3808   3.872   2.101   0.999 -0.3456 -1.3425  0.0701
  934SOL    HW2 3809   3.859   2.137   1.087 -0.9879  0.3866 -0.7418
  934SOL    HW3 3810   3.959   2.130   0.973 -0.2916 -1.6112  0.0110
  934SOL    MW4 3811   3.881   2.110   1.007 -0.4292 -1.1444 -0.0358
  935SOL     OW 3812   3.433   2.657   2.029 -0.0088  0.4401  0.1119
  935SOL    HW2 3813   3.441   2.745   2.065  1.8790  0.1274  0.4823
  935SOL    HW3 3814   3.429   2.670   1.934 -0.3936  0.9397  0.1938
  935SOL    MW4 3815   3.434   2.670   2.021  0.2146  0.4768  0.1669
  936SOL     OW 3816   3.033   2.652   1.638 -0.4317 -0.3616 -0.1314
  936SOL    HW2 3817   3.048   2.640   1.732 -0.6084 -0.0130 -0.0521
  936SOL    HW3 3818   3.119   2.671   1.602 -0.2297 -1.1940 -0.1034
  936SOL    MW4 3819   3.046   2.653   1.646 -0.4292 -0.4292 -0.1192
  937SOL     OW 3820   3.143   3.013   1.874 -0.0045 -0.0875  0.4619
  937SOL    HW2 3821   3.068   3.062   1.908  0.1976  0.6079 -0.0865
  937SOL    HW3 3822   3.172   3.064   1.798  0.1842 -1.1151 -0.1541
  937SOL    MW4 3823   3.137   3.026   1.868  0.0477 -0.1192  0.2980
  938SOL     OW 3824   3.401   3.436   1.970 -0.0498  0.0770  0.4240
  938SOL    HW2 3825   3.401   3.370   1.900 -0.1570  0.4129  0.1084
  938SOL    HW3 3826   3.336   3.404   2.032 -0.6172  0.2687 -0.0579
  938SOL    MW4 3827   3.392   3.423   1.969 -0.1431  0.1431  0.3219
  939SOL     OW 3828   3.488   3.416   2.402 -0.4471  0.2099  0.7475
  939SOL    HW2 3829   3.441   3.340   2.436 -1.6865  0.6962  0.0329
  939SOL    HW3 3830   3.529   3.386   2.321 -0.9810  0.3271  0.4440
  939SOL    MW4 3831   3.488   3.402   2.396 -0.6914  0.2861  0.5960
  940SOL     OW 3832   3.644   3.264   1.550 -0.3974  0.1493 -0.3758
  940SOL    HW2 3833   3.692   3.241   1.629 -0.8530  1.1853  0.2166
  940SOL    HW3 3834   3.650   3.186   1.495 -0.1135 -0.6173  0.7178
  940SOL    MW4 3835   3.651   3.251   1.553 -0.4053  0.1907 -0.1431
  941SOL     OW 3836   3.879   4.346   1.418 -0.5788  0.2837 -0.1923
  941SOL    HW2 3837   3.927   4.409   1.364  0.1321  0.8748  1.1045
  941SOL    HW3 3838   3.942   4.319   1.484 -1.0100 -1.4659 -0.4991
  941SOL    MW4 3839   3.894   4.351   1.419 -0.5245  0.1431 -0.0596
  942SOL     OW 3840   3.838   3.723   1.661 -0.7408  0.2330 -0.5337
  942SOL    HW2 3841   3.833   3.627   1.660 -1.8313  0.3208 -0.3970
  942SOL    HW3 3842   3.896   3.744   1.588 -0.0279 -0.5373 -0.2033
  942SOL    MW4 3843   3.845   3.713   1.651 -0.7868  0.1431 -0.4649
  943SOL     OW 3844   4.402   0.806   1.967  0.1069 -0.3483  0.0205
  943SOL    HW2 3845   4.483   0.782   1.923  0.4525  0.6698  0.1356
  943SOL    HW3 3846   4.349   0.850   1.900 -0.2367 -0.7586  0.0203
  943SOL    MW4 3847   4.406   0.809   1.953  0.0954 -0.2623  0.0477
  944SOL     OW 3848   3.843   0.082   1.911 -0.0173 -0.3256  0.0112
  944SOL    HW2 3849   3.768   0.140   1.899 -0.5187 -1.0238 -0.3364
  944SOL    HW3 3850   3.886   0.080   1.825  1.4516  1.5918  0.7088
  944SOL    MW4 3851   3.839   0.090   1.898  0.1192 -0.1639  0.0596
  945SOL     OW 3852   3.861   0.843   1.957 -0.2202 -0.3833 -0.0717
  945SOL    HW2 3853   3.940   0.893   1.978  0.6221 -1.3073 -1.2083
  945SOL    HW3 3854   3.886   0.785   1.886 -1.8444 -0.9351 -0.1977
  945SOL    MW4 3855   3.875   0.842   1.951 -0.3338 -0.5722 -0.2265
  946SOL     OW 3856   4.451   1.321   1.529 -0.3746  0.8868 -0.0908
  946SOL    HW2 3857   4.468   1.367   1.447 -1.1011  0.7967 -0.2768
  946SOL    HW3 3858   4.519   1.353   1.588  0.2968  0.8025 -0.7640
  946SOL    MW4 3859   4.463   1.331   1.526 -0.3815  0.8583 -0.1907
  947SOL     OW 3860   4.228   1.448   1.641  0.1146  0.7309 -0.2951
  947SOL    HW2 3861   4.161   1.386   1.669  0.4538  0.9574  1.1105
  947SOL    HW3 3862   4.293   1.394   1.597 -0.2592  0.2855 -0.2396
  947SOL    MW4 3863   4.228   1.433   1.639  0.0477  0.7033 -0.1073
  948SOL     OW 3864   3.983   1.543   1.101 -0.1013  0.4634 -0.0314
  948SOL    HW2 3865   4.011   1.459   1.138  0.1398  0.2543 -0.6540
  948SOL    HW3 3866   3.918   1.576   1.162 -0.6320 -0.4778 -0.0771
  948SOL    MW4 3867   3.978   1.536   1.114 -0.1192  0.3099 -0.1311
  949SOL     OW 3868   4.354   1.735   1.258  0.1136  0.1185 -0.6956
  949SOL    HW2 3869   4.402   1.655   1.280 -0.0290  0.0311 -0.7227
  949SOL    HW3 3870   4.314   1.763   1.340  1.0682  0.7505 -0.4392
  949SOL    MW4 3871   4.355   1.729   1.272  0.1907  0.1907 -0.6557
  950SOL     OW 3872   0.047   1.898   1.139  0.0480 -0.0428 -0.2131
  950SOL    HW2 3873  -0.010   1.833   1.180 -0.6822  0.5788 -0.2157
  950SOL    HW3 3874   0.046   1.972   1.200  0.5181  0.1235 -0.4133
  950SOL    MW4 3875   0.039   1.899   1.152  0.0153  0.0596 -0.2384
  951SOL     OW 3876   3.875   1.883   1.296  0.0627 -0.1308  0.4014
  951SOL    HW2 3877   3.941   1.881   1.364  1.0288 -0.3863 -0.5208
  951SOL    HW3 3878   3.854   1.976   1.284  0.4035 -0.0299  0.5417
  951SOL    MW4 3879   3.881   1.895   1.303  0.2146 -0.1311  0.3099
  952SOL     OW 3880   3.764   1.623   1.278 -0.4927 -0.0949  0.0319
  952SOL    HW2 3881   3.800   1.711   1.284 -1.5823  0.3633 -0.1671
  952SOL    HW3 3882   3.781   1.583   1.363  0.9578 -0.0580 -0.2383
  952SOL    MW4 3883   3.771   1.629   1.290 -0.4530 -0.0238 -0.0238
  953SOL     OW 3884   3.717   2.168   1.667  0.0995  0.3127 -0.4936
  953SOL    HW2 3885   3.696   2.077   1.643 -1.4569  0.7202 -0.7267
  953SOL    HW3 3886   3.791   2.191   1.610  0.0899 -0.6015 -0.8915
  953SOL    MW4 3887   3.724   2.159   1.656 -0.0954  0.2384 -0.5722
  954SOL     OW 3888   0.519   2.531   1.551 -0.1228 -0.6154  0.1709
  954SOL    HW2 3889   0.504   2.625   1.550 -0.3360 -0.6747 -0.5657
  954SOL    HW3 3890   0.500   2.503   1.461 -0.4655 -1.4464  0.5034
  954SOL    MW4 3891   0.514   2.539   1.539 -0.1907 -0.7391  0.1073
  955SOL     OW 3892   0.077   2.883   1.098 -0.3313 -0.6705 -0.3351
  955SOL    HW2 3893   0.159   2.920   1.130 -0.5502 -0.4403 -0.0672
  955SOL    HW3 3894   0.061   2.808   1.155 -0.6758 -0.2795  0.0607
  955SOL    MW4 3895   0.086   2.878   1.110 -0.4046 -0.5960 -0.2503
  956SOL     OW 3896   4.084   1.934   1.094  0.1949 -0.2833 -0.3779
  956SOL    HW2 3897   4.011   1.970   1.042  0.4430  0.6404 -0.1231
  956SOL    HW3 3898   4.042   1.901   1.173  0.1336  0.6770 -0.0211
  956SOL    MW4 3899   4.069   1.934   1.098  0.1907 -0.0358 -0.2980
  957SOL     OW 3900   4.038   2.428   1.108  0.1205  0.5154 -0.0844
  957SOL    HW2 3901   4.047   2.353   1.049  0.8056  0.1584  0.4828
  957SOL    HW3 3902   4.071   2.397   1.192  1.1228  1.7011 -0.0373
  957SOL    MW4 3903   4.044   2.414   1.111  0.3815  0.6199  0.0000
  958SOL     OW 3904   0.181   2.323   1.425  0.2638  0.2096 -0.0599
  958SOL    HW2 3905   0.192   2.391   1.491  1.0785  0.4504 -0.4470
  958SOL    HW3 3906   0.189   2.369   1.341 -0.5841 -0.1165 -0.3263
  958SOL    MW4 3907   0.184   2.338   1.423  0.2608  0.2146 -0.1431
  959SOL     OW 3908   3.778   3.045   1.694 -0.6556 -0.0831  0.0184
  959SOL    HW2 3909   3.797   3.122   1.748 -0.6043  0.9402 -1.4524
  959SOL    HW3 3910   3.835   3.054   1.618 -0.9228 -1.3347 -0.3719
  959SOL    MW4 3911   3.788   3.056   1.691 -0.6914 -0.1192 -0.2384
  960SOL     OW 3912   3.875   2.819   1.801  0.1067 -0.0480  0.5110
  960SOL    HW2 3913   3.820   2.753   1.760  0.7236  0.3576 -0.9492
  960SOL    HW3 3914   3.853   2.900   1.755  0.7378  0.3856  0.9935
  960SOL    MW4 3915   3.865   2.821   1.790  0.2623  0.0954  0.3815
  961SOL     OW 3916   3.519   2.950   1.680 -0.1808  0.0781  0.1161
  961SOL    HW2 3917   3.504   2.941   1.774  0.5882  1.0012  0.3299
  961SOL    HW3 3918   3.601   2.999   1.674  0.8651 -1.9103 -1.0542
  961SOL    MW4 3919   3.528   2.955   1.692  0.0477 -0.0477  0.0000
  962SOL     OW 3920   3.668   3.255   2.157  0.4145 -0.1917  1.0295
  962SOL    HW2 3921   3.628   3.193   2.096  0.9504 -0.8279  1.3015
  962SOL    HW3 3922   3.639   3.341   2.125 -1.0131 -0.6395  1.1276
  962SOL    MW4 3923   3.659   3.258   2.145  0.3099 -0.3099  1.0967
  963SOL     OW 3924   3.591   3.518   1.763 -1.1250  0.1122  0.5485
  963SOL    HW2 3925   3.586   3.432   1.805 -2.4794  0.8371  1.9014
  963SOL    HW3 3926   3.658   3.565   1.812 -0.8385  0.0460  0.2075
  963SOL    MW4 3927   3.599   3.513   1.775 -1.2398  0.2146  0.6914
  964SOL     OW 3928   3.976   3.373   1.313 -0.6929 -0.6049 -0.7814
  964SOL    HW2 3929   4.019   3.419   1.385 -0.9203 -0.3731 -0.8056
  964SOL    HW3 3930   3.909   3.434   1.282 -1.3500 -1.1600 -0.4383
  964SOL    MW4 3931   3.973   3.387   1.318 -0.8106 -0.6437 -0.7272
  965SOL     OW 3932   4.121   4.216   0.996  0.1244  0.3201 -0.8433
  965SOL    HW2 3933   4.182   4.143   0.994 -0.1156  0.0794 -0.5314
  965SOL    HW3 3934   4.081   4.212   1.083 -0.6167  0.1508 -1.2195
  965SOL    MW4 3935   4.124   4.206   1.007  0.0000  0.2861 -0.8464
  966SOL     OW 3936   0.146   0.016   1.340 -0.0903  0.2854 -0.1047
  966SOL    HW2 3937   0.053   0.030   1.354 -0.1141  0.1667 -0.1374
  966SOL    HW3 3938   0.170  -0.053   1.402  0.2004  1.0953  0.6572
  966SOL    MW4 3939   0.137   0.009   1.350 -0.0551  0.3766 -0.0119
  967SOL     OW 3940   4.017   3.733   1.432 -0.3802 -0.2789  0.1900
  967SOL    HW2 3941   4.075   3.657   1.427 -0.0143  0.1145 -1.2510
  967SOL    HW3 3942   4.074   3.808   1.416 -1.1421  0.1771 -0.2467
  967SOL    MW4 3943   4.032   3.733   1.429 -0.4292 -0.1907 -0.0715
  968SOL     OW 3944   4.082   0.546   1.986 -0.5158  1.0059  0.3127
  968SOL    HW2 3945   4.134   0.593   2.051 -2.7640  1.9902  1.3785
  968SOL    HW3 3946   4.107   0.454   1.996 -0.5710  1.2172  2.2751
  968SOL    MW4 3947   4.092   0.540   1.996 -0.8583  1.1683  0.7153
  969SOL     OW 3948   4.394   0.509   2.070  0.4120 -0.1292  0.1922
  969SOL    HW2 3949   4.352   0.504   2.156 -0.6221  0.3737 -0.2600
  969SOL    HW3 3950   4.387   0.601   2.045  0.6821 -0.2864 -0.4505
  969SOL    MW4 3951   4.387   0.520   2.078  0.3338 -0.0894  0.0477
  970SOL     OW 3952   0.239   0.769   2.157  0.0528  0.4150 -0.0093
  970SOL    HW2 3953   0.182   0.846   2.158  1.7442  1.6791 -0.8655
  970SOL    HW3 3954   0.288   0.774   2.239  0.6432  0.6140 -0.3816
  970SOL    MW4 3955   0.238   0.780   2.168  0.3561  0.6080 -0.1431
  971SOL     OW 3956   0.165   1.101   2.449 -0.0586  0.2694  0.2434
  971SOL    HW2 3957   0.188   1.011   2.471  0.1594  0.3562  0.3154
  971SOL    HW3 3958   0.204   1.115   2.362  0.4897  0.4993  0.4782
  971SOL    MW4 3959   0.173   1.091   2.440  0.0432  0.3219  0.2861
  972SOL     OW 3960   4.243   1.044   2.310 -0.5020 -0.0502  0.6015
  972SOL    HW2 3961   4.223   1.125   2.263  0.3064 -0.2123 -0.0326
  972SOL    HW3 3962   4.295   1.071   2.385 -0.1994  0.0308  0.3249
  972SOL    MW4 3963   4.247   1.058   2.314 -0.3338 -0.0596  0.4768
  973SOL     OW 3964   0.136   1.354   1.734  0.0092 -0.2238  0.1808
  973SOL    HW2 3965   0.196   1.419   1.771  1.4620 -1.9885  0.9107
  973SOL    HW3 3966   0.051   1.374   1.773  0.4409  1.3169  0.3056
  973SOL    MW4 3967   0.133   1.365   1.744  0.2563 -0.2623  0.2861
  974SOL     OW 3968   0.380   1.423   2.392  0.0326  0.1688  0.4377
  974SOL    HW2 3969   0.295   1.443   2.353  0.1135 -0.1754  0.1010
  974SOL    HW3 3970   0.359   1.371   2.470 -0.0597 -0.0497  0.2796
  974SOL    MW4 3971   0.366   1.419   2.397  0.0328  0.0954  0.3576
  975SOL     OW 3972   0.288   1.581   1.831  0.1046 -0.2251 -0.5956
  975SOL    HW2 3973   0.362   1.560   1.888 -0.3118  0.0947  0.0603
  975SOL    HW3 3974   0.236   1.644   1.881 -0.2569  0.0389 -1.3294
  975SOL    MW4 3975   0.291   1.587   1.845  0.0000 -0.1550 -0.5960
  976SOL     OW 3976   0.115   1.755   1.975 -0.4750  0.2127 -0.4337
  976SOL    HW2 3977   0.110   1.763   2.070 -1.0328  1.6895 -0.6066
  976SOL    HW3 3978   0.024   1.743   1.947 -0.3651  0.3321 -0.8577
  976SOL    MW4 3979   0.102   1.754   1.984 -0.5342  0.4292 -0.5245
  977SOL     OW 3980   0.254   1.981   1.769  0.4767  0.8040  0.1236
  977SOL    HW2 3981   0.190   1.970   1.699 -0.0981  2.1736  0.4426
  977SOL    HW3 3982   0.231   1.913   1.833  0.2429  0.3733 -0.4165
  977SOL    MW4 3983   0.243   1.970   1.768  0.3695  0.9418  0.0834
  978SOL     OW 3984   0.526   1.938   1.778 -0.1233 -0.0576 -0.0097
  978SOL    HW2 3985   0.541   1.866   1.716  0.1829  0.7603 -0.9012
  978SOL    HW3 3986   0.431   1.950   1.780 -0.1596 -0.4214  0.0712
  978SOL    MW4 3987   0.516   1.930   1.770 -0.0894  0.0000 -0.1192
  979SOL     OW 3988   0.400   3.390   1.313 -1.1440 -0.0892 -0.0161
  979SOL    HW2 3989   0.352   3.314   1.346 -2.9735 -1.0757 -4.8487
  979SOL    HW3 3990   0.486   3.356   1.290 -0.5517  0.1491  1.7867
  979SOL    MW4 3991   0.405   3.375   1.314 -1.3053 -0.1669 -0.4172
  980SOL     OW 3992   0.467   2.793   1.546  0.6432  0.1193  0.3227
  980SOL    HW2 3993   0.518   2.850   1.489  0.5826  0.7753  0.9023
  980SOL    HW3 3994   0.388   2.844   1.566  0.4364 -0.2874  0.5923
  980SOL    MW4 3995   0.463   2.808   1.541  0.6050  0.1669  0.4172
  981SOL     OW 3996   0.297   3.011   1.577 -0.3589 -0.5792  0.1538
  981SOL    HW2 3997   0.261   3.066   1.647 -0.9610  0.4601 -0.9449
  981SOL    HW3 3998   0.222   2.993   1.521  0.3613 -0.4223 -0.8659
  981SOL    MW4 3999   0.282   3.016   1.579 -0.3427 -0.4530 -0.1192
  982SOL     OW 4000   1.225   3.501   1.627 -0.3855 -0.1458 -0.2634
  982SOL    HW2 4001   1.226   3.486   1.532  0.8524 -0.7835 -0.1671
  982SOL    HW3 4002   1.242   3.594   1.637 -0.6752 -0.0420 -0.6901
  982SOL    MW4 4003   1.227   3.511   1.615 -0.2503 -0.2384 -0.3219
  983SOL     OW 4004   4.251   3.286   1.821  0.5064  0.0849  0.1478
  983SOL    HW2 4005   4.182   3.281   1.887 -0.0470  0.3532 -0.4492
  983SOL    HW3 4006   4.285   3.375   1.828  0.9023 -0.0689  0.4808
  983SOL    MW4 4007   4.247   3.297   1.831  0.4768  0.0954  0.1073
  984SOL     OW 4008   0.103   3.107   2.510  0.0619  0.5598  0.2183
  984SOL    HW2 4009   0.009   3.118   2.519 -0.0187  0.4600 -0.5051
  984SOL    HW3 4010   0.127   3.159   2.433  0.5094  0.1653  0.0760
  984SOL    MW4 4011   0.094   3.115   2.501  0.1103  0.5007  0.0954
  985SOL     OW 4012   3.822   3.143   2.456 -0.6236  0.4946 -0.6414
  985SOL    HW2 4013   3.819   3.238   2.446  0.7151  0.4441 -1.8158
  985SOL    HW3 4014   3.851   3.111   2.371 -0.6134 -0.9091 -0.1072
  985SOL    MW4 4015   3.826   3.151   2.443 -0.4292  0.3099 -0.7153
  986SOL     OW 4016   3.765   3.282   1.828 -0.1463  0.3474  0.1064
  986SOL    HW2 4017   3.830   3.266   1.895  0.2892 -0.3370 -0.4688
  986SOL    HW3 4018   3.802   3.352   1.773 -0.0834  0.3114  0.0758
  986SOL    MW4 4019   3.778   3.289   1.829 -0.0954  0.2623  0.0119
  987SOL     OW 4020   0.487   4.069   1.452  0.1228 -0.1702  0.1108
  987SOL    HW2 4021   0.576   4.079   1.486  0.0385 -0.4551  0.4076
  987SOL    HW3 4022   0.431   4.091   1.526 -0.0691  0.4237 -0.2336
  987SOL    MW4 4023   0.491   4.073   1.467  0.0894 -0.1431  0.1192
  988SOL     OW 4024   3.884   3.672   2.428  0.0505 -0.4116  0.0128
  988SOL    HW2 4025   3.888   3.589   2.382  0.9960 -1.2354  1.6064
  988SOL    HW3 4026   3.803   3.667   2.480  0.8652 -0.9236  1.2458
  988SOL    MW4 4027   3.874   3.661   2.429  0.2861 -0.5960  0.3815
  989SOL     OW 4028   4.231   3.533   2.001 -0.0564 -0.5585 -0.3145
  989SOL    HW2 4029   4.196   3.621   2.015  0.0828 -0.2737 -1.8653
  989SOL    HW3 4030   4.185   3.479   2.067 -0.0913  0.6527  0.6735
  989SOL    MW4 4031   4.220   3.538   2.012  0.0000 -0.3576 -0.4053
  990SOL     OW 4032   0.280   4.191   1.600 -0.2624 -0.1067 -0.8371
  990SOL    HW2 4033   0.234   4.127   1.545 -0.4691 -0.3711 -0.3767
  990SOL    HW3 4034   0.307   4.140   1.677 -1.0851  0.5546 -0.1199
  990SOL    MW4 4035   0.278   4.176   1.603 -0.4023 -0.0954 -0.6795
  991SOL     OW 4036   4.300   4.665   1.831 -0.6723 -0.2348 -0.0244
  991SOL    HW2 4037   4.280   4.690   1.921 -0.1630 -0.1811  0.0524
  991SOL    HW3 4038   4.293   4.747   1.782 -0.6915 -0.2366  0.0012
  991SOL    MW4 4039   4.296   4.679   1.836 -0.5722 -0.2384 -0.0119
  992SOL     OW 4040   4.321   0.047   2.118  0.6832  0.1274  0.4093
  992SOL    HW2 4041   4.287   0.079   2.201 -0.0231 -1.8805  0.9197
  992SOL    HW3 4042   4.390  -0.014   2.142  1.0544  0.2838 -0.5194
  992SOL    MW4 4043   4.325   0.043   2.132  0.6199 -0.1188  0.3576
  993SOL     OW 4044   0.126   0.766   1.796  0.3685  0.5207  0.0131
  993SOL    HW2 4045   0.053   0.713   1.763  0.8225 -0.0851 -0.0061
  993SOL    HW3 4046   0.189   0.703   1.829  0.7410  1.0614  0.3367
  993SOL    MW4 4047   0.124   0.751   1.796  0.4776  0.5186  0.0358
  994SOL     OW 4048   0.559   0.825   1.904 -0.1089  0.4411 -0.1039
  994SOL    HW2 4049   0.572   0.732   1.924 -0.4538  0.5334  0.5442
  994SOL    HW3 4050   0.529   0.826   1.813 -0.1874 -0.0955 -0.0898
  994SOL    MW4 4051   0.557   0.813   1.895 -0.1669  0.3874 -0.0119
  995SOL     OW 4052   0.786   0.980   1.919  0.2887 -0.2008 -0.3451
  995SOL    HW2 4053   0.813   0.948   2.005  0.0861 -0.3208 -0.3181
  995SOL    HW3 4054   0.705   0.932   1.900 -0.8300  1.3721  0.3569
  995SOL    MW4 4055   0.779   0.970   1.928  0.1132 -0.0119 -0.2384
  996SOL     OW 4056   0.411   1.012   2.294 -0.1153 -0.1992  0.2414
  996SOL    HW2 4057   0.456   1.096   2.303 -1.8111  0.6244  1.0587
  996SOL    HW3 4058   0.408   0.996   2.200  0.9575  0.2700  0.1342
  996SOL    MW4 4059   0.416   1.021   2.283 -0.1997 -0.0238  0.3338
  997SOL     OW 4060   0.553   1.237   2.288  0.2741  0.7407  0.4532
  997SOL    HW2 4061   0.500   1.313   2.313  0.4011  0.6011  1.1370
  997SOL    HW3 4062   0.572   1.250   2.195 -1.1815  0.6466  0.1274
  997SOL    MW4 4063   0.549   1.249   2.279  0.0954  0.7033  0.5007
  998SOL     OW 4064   0.796   1.276   2.393  0.0577 -0.3364 -0.1371
  998SOL    HW2 4065   0.794   1.251   2.486 -0.1702  0.7530  0.1484
  998SOL    HW3 4066   0.709   1.251   2.360  0.3997 -1.3701 -0.2384
  998SOL    MW4 4067   0.784   1.270   2.401  0.0715 -0.3219 -0.1192
  999SOL     OW 4068   0.755   1.508   2.231  0.0292  0.0298  0.0555
  999SOL    HW2 4069   0.765   1.423   2.275 -0.3467  0.1979  0.4435
  999SOL    HW3 4070   0.789   1.494   2.143 -0.0163 -0.5359  0.1146
  999SOL    MW4 4071   0.761   1.495   2.225 -0.0238 -0.0238  0.0954
 1000SOL     OW 4072   0.531   1.549   1.975  0.0646 -0.5584 -0.4746
 1000SOL    HW2 4073   0.579   1.629   1.999  0.2804 -0.2598 -1.8917
 1000SOL    HW3 4074   0.577   1.479   2.022  0.9703 -0.0728 -0.6287
 1000SOL    MW4 4075   0.544   1.550   1.985  0.2086 -0.4530 -0.6795
 1001SOL     OW 4076   0.682   1.787   1.966 -0.4432 -0.0172  0.2304
 1001SOL    HW2 4077   0.618   1.844   1.924  0.1002 -0.2342 -0.9211
 1001SOL    HW3 4078   0.754   1.845   1.990 -0.0060 -0.1620 -0.6967
 1001SOL    MW4 4079   0.683   1.802   1.964 -0.3099 -0.0715 -0.0596
 1002SOL     OW 4080   1.522   3.333   1.744  0.6523  0.5714  0.8856
 1002SOL    HW2 4081   1.433   3.328   1.776  0.7187 -1.5825  0.6835
 1002SOL    HW3 4082   1.515   3.321   1.649  1.1734  0.3274  0.8641
 1002SOL    MW4 4083   1.510   3.331   1.736  0.7391  0.2384  0.8464
 1003SOL     OW 4084   1.642   3.170   1.935  0.4683  0.7413  0.1426
 1003SOL    HW2 4085   1.589   3.230   1.882 -0.0098  0.4869  0.3118
 1003SOL    HW3 4086   1.669   3.102   1.873  1.8355  1.6514 -0.2845
 1003SOL    MW4 4087   1.638   3.169   1.919  0.5841  0.8345  0.1073
 1004SOL     OW 4088   0.591   3.654   1.844 -1.4364  0.3934 -0.5097
 1004SOL    HW2 4089   0.601   3.659   1.749 -2.9007 -1.5392 -0.7828
 1004SOL    HW3 4090   0.585   3.745   1.873  0.1513  0.9926 -2.1512
 1004SOL    MW4 4091   0.591   3.666   1.835 -1.4186  0.1907 -0.7749
 1005SOL     OW 4092   0.655   3.605   1.248 -0.3506  0.4061  0.3229
 1005SOL    HW2 4093   0.703   3.582   1.327 -6.0995  4.5167  5.0387
 1005SOL    HW3 4094   0.612   3.524   1.221  4.1745 -1.7449 -0.4253
 1005SOL    MW4 4095   0.656   3.591   1.255 -0.5126  0.6676  0.8464
 1006SOL     OW 4096   1.657   3.195   1.105  0.2012 -0.3801 -0.0089
 1006SOL    HW2 4097   1.603   3.259   1.151  0.8547  0.1305  0.0498
 1006SOL    HW3 4098   1.652   3.116   1.159 -0.6646 -0.4195 -0.1334
 1006SOL    MW4 4099   1.649   3.193   1.118  0.1669 -0.3576 -0.0119
 1007SOL     OW 4100   0.944   3.474   1.787  0.2143 -0.1163 -0.2868
 1007SOL    HW2 4101   1.028   3.499   1.824  0.1658  0.1109 -0.3511
 1007SOL    HW3 4102   0.887   3.463   1.864  0.2171  0.0184 -0.2658
 1007SOL    MW4 4103   0.947   3.476   1.802  0.2086 -0.0715 -0.2980
 1008SOL     OW 4104   4.331   3.153   2.217 -0.8500  0.4176 -0.0370
 1008SOL    HW2 4105   4.392   3.226   2.208 -1.5922  1.0720  0.0325
 1008SOL    HW3 4106   4.361   3.089   2.152 -0.3139  0.9204 -0.3065
 1008SOL    MW4 4107   4.343   3.154   2.207 -0.9060  0.5960 -0.0954
 1009SOL     OW 4108   0.202   3.351   2.022 -0.8781 -0.9665  0.4035
 1009SOL    HW2 4109   0.137   3.413   1.990 -0.5011 -0.2493  1.0368
 1009SOL    HW3 4110   0.286   3.384   1.989 -0.4746 -0.1735  2.1843
 1009SOL    MW4 4111   0.205   3.364   2.013 -0.7764 -0.7629  0.7391
 1010SOL     OW 4112   0.363   3.365   2.402  0.3176 -0.2066 -0.5490
 1010SOL    HW2 4113   0.340   3.454   2.373  0.0750 -0.4497 -1.0135
 1010SOL    HW3 4114   0.324   3.308   2.336  0.7809 -0.6815 -0.4001
 1010SOL    MW4 4115   0.355   3.369   2.389  0.3457 -0.3099 -0.5960
 1011SOL     OW 4116   4.435   3.425   2.266 -0.0619 -0.0569 -0.2605
 1011SOL    HW2 4117   4.472   3.504   2.225  0.9319 -0.3415  0.0502
 1011SOL    HW3 4118   4.475   3.423   2.353 -0.8327 -0.3496  0.0912
 1011SOL    MW4 4119   4.445   3.435   2.272 -0.0477 -0.1192 -0.1669
 1012SOL     OW 4120   4.361   3.827   2.245 -0.1956  0.5208  0.8478
 1012SOL    HW2 4121   4.395   3.916   2.236  0.9722  0.0495  0.5010
 1012SOL    HW3 4122   4.319   3.826   2.331 -1.7883  1.9092  0.0743
 1012SOL    MW4 4123   4.360   3.838   2.255 -0.2384  0.6199  0.6914
 1013SOL     OW 4124   4.253   3.957   1.395 -1.0279  0.1791 -0.0450
 1013SOL    HW2 4125   4.196   4.031   1.373  0.1870  0.7596 -1.1297
 1013SOL    HW3 4126   4.272   3.969   1.488 -3.3647 -0.4596  0.5028
 1013SOL    MW4 4127   4.248   3.969   1.404 -1.1921  0.1669 -0.1192
 1014SOL     OW 4128   0.164   3.870   1.085 -0.4584  0.5596  0.1390
 1014SOL    HW2 4129   0.241   3.925   1.099  0.0575 -0.4480  1.2995
 1014SOL    HW3 4130   0.155   3.821   1.167 -4.1674  2.9264  1.1183
 1014SOL    MW4 4131   0.173   3.871   1.098 -0.8792  0.7391  0.4292
 1015SOL     OW 4132   0.538   0.190   1.788  0.2351 -0.0746 -0.4785
 1015SOL    HW2 4133   0.565   0.279   1.810 -0.5139 -0.0840  0.4742
 1015SOL    HW3 4134   0.619   0.139   1.790  0.6547  0.5702 -0.9389
 1015SOL    MW4 4135   0.552   0.195   1.791  0.1848  0.0089 -0.4053
 1016SOL     OW 4136   0.597   0.249   1.475 -0.3854 -0.0716 -0.7618
 1016SOL    HW2 4137   0.517   0.246   1.528 -0.8195  1.1312 -1.3342
 1016SOL    HW3 4138   0.668   0.241   1.537 -0.9489 -0.4304 -0.1791
 1016SOL    MW4 4139   0.596   0.248   1.490 -0.5126  0.0402 -0.7629
 1017SOL     OW 4140   0.941   0.731   1.723 -0.0697  0.0624 -0.0938
 1017SOL    HW2 4141   0.919   0.709   1.814  0.4793  0.2221  0.0653
 1017SOL    HW3 4142   0.973   0.821   1.727 -1.0747  0.4485 -0.6163
 1017SOL    MW4 4143   0.942   0.740   1.736 -0.1311  0.1311 -0.1550
 1018SOL     OW 4144   0.755   0.635   2.265 -0.1465  0.6315  0.0933
 1018SOL    HW2 4145   0.661   0.621   2.277 -0.0121  0.5738  1.0744
 1018SOL    HW3 4146   0.790   0.547   2.249 -0.2575  0.6441 -0.2295
 1018SOL    MW4 4147   0.747   0.622   2.265 -0.1371  0.6199  0.1669
 1019SOL     OW 4148   0.904   0.630   1.989 -0.0393 -0.7685 -0.0075
 1019SOL    HW2 4149   0.997   0.654   1.995 -0.2923  0.2402 -0.1084
 1019SOL    HW3 4150   0.870   0.644   2.078 -0.3200 -0.2170 -0.2050
 1019SOL    MW4 4151   0.912   0.635   2.002 -0.1132 -0.5662 -0.0715
 1020SOL     OW 4152   0.749   0.906   2.196 -0.0080  0.4783  0.2088
 1020SOL    HW2 4153   0.748   0.816   2.229  0.6730  0.1954 -0.5240
 1020SOL    HW3 4154   0.802   0.954   2.260  1.7401 -0.1719 -0.7220
 1020SOL    MW4 4155   0.756   0.900   2.209  0.3159  0.3576  0.0000
 1021SOL     OW 4156   0.945   1.057   2.335  0.4043 -0.3124  0.3446
 1021SOL    HW2 4157   0.895   1.138   2.345  0.0201 -0.5218  0.1278
 1021SOL    HW3 4158   1.036   1.085   2.331  0.2370  0.1509 -0.2020
 1021SOL    MW4 4159   0.950   1.071   2.336  0.3338 -0.2861  0.2146
 1022SOL     OW 4160   1.199   1.296   2.723  0.2923 -0.2475  0.4700
 1022SOL    HW2 4161   1.196   1.328   2.633  0.2219 -0.8634  0.2641
 1022SOL    HW3 4162   1.172   1.204   2.717 -0.7647 -0.0000  1.2790
 1022SOL    MW4 4163   1.195   1.288   2.710  0.1550 -0.2980  0.5722
 1023SOL     OW 4164   1.148   1.400   2.472  0.0327 -0.1952  0.1161
 1023SOL    HW2 4165   1.066   1.447   2.456  0.4805  0.2440 -0.8734
 1023SOL    HW3 4166   1.216   1.459   2.440  0.6815 -1.0118 -0.0070
 1023SOL    MW4 4167   1.146   1.414   2.466  0.1907 -0.2384  0.0000
 1024SOL     OW 4168   0.934   1.576   2.431  0.2240 -0.1583 -0.0357
 1024SOL    HW2 4169   0.994   1.638   2.391 -0.4117 -0.1800 -1.0266
 1024SOL    HW3 4170   0.868   1.560   2.365 -0.2151 -1.0457  0.6021
 1024SOL    MW4 4171   0.934   1.582   2.417  0.0834 -0.2861 -0.0715
 1025SOL     OW 4172   0.507   2.193   2.113 -0.3725 -0.2715 -0.0333
 1025SOL    HW2 4173   0.577   2.191   2.179 -0.7072  0.5194  0.3588
 1025SOL    HW3 4174   0.542   2.247   2.042 -1.1220  1.2307  0.7807
 1025SOL    MW4 4175   0.521   2.200   2.113 -0.5186  0.0238  0.1192
 1026SOL     OW 4176   0.687   2.129   2.328 -0.2049  0.0241  0.3698
 1026SOL    HW2 4177   0.776   2.098   2.308 -0.6963 -1.4491  0.3853
 1026SOL    HW3 4178   0.700   2.197   2.394  1.0071  0.8867 -0.8007
 1026SOL    MW4 4179   0.700   2.134   2.334 -0.1073 -0.0715  0.2146
 1027SOL     OW 4180   0.957   2.613   1.720  0.4647  0.5745 -0.6512
 1027SOL    HW2 4181   0.945   2.518   1.722 -0.3895  0.6915 -0.2822
 1027SOL    HW3 4182   0.904   2.645   1.793  1.2574  1.2819 -0.3980
 1027SOL    MW4 4183   0.948   2.605   1.730  0.4470  0.6914 -0.5722
 1028SOL     OW 4184   1.994   3.154   2.055  0.4588 -0.3039  0.2136
 1028SOL    HW2 4185   1.930   3.082   2.061  0.6680 -0.6036 -1.2825
 1028SOL    HW3 4186   1.948   3.223   2.007  0.5014  0.3144  1.0367
 1028SOL    MW4 4187   1.979   3.154   2.050  0.4888 -0.2861  0.1431
 1029SOL     OW 4188   1.768   3.190   1.461  0.3484 -0.1174  0.1143
 1029SOL    HW2 4189   1.680   3.227   1.463  0.6903  0.6818  0.3651
 1029SOL    HW3 4190   1.760   3.112   1.406 -0.0896  1.0474 -1.4751
 1029SOL    MW4 4191   1.755   3.184   1.454  0.3338  0.1431 -0.0596
 1030SOL     OW 4192   2.077   3.202   1.098  0.4444 -0.0120 -0.7617
 1030SOL    HW2 4193   2.121   3.148   1.163  0.0007 -0.4989 -0.8487
 1030SOL    HW3 4194   2.004   3.242   1.144  0.7003  0.3863 -0.7160
 1030SOL    MW4 4195   2.074   3.200   1.112  0.4053 -0.0238 -0.7749
 1031SOL     OW 4196   1.754   2.976   1.290 -0.1525  0.1396 -0.9388
 1031SOL    HW2 4197   1.705   2.904   1.329  0.0069  0.0292 -0.8989
 1031SOL    HW3 4198   1.833   2.936   1.256  1.1640  0.7611  1.4319
 1031SOL    MW4 4199   1.758   2.962   1.291  0.0477  0.1907 -0.6318
 1032SOL     OW 4200   0.729   4.075   1.593  0.6726  0.8088 -0.3019
 1032SOL    HW2 4201   0.692   3.999   1.640  0.1470  0.4656 -1.3039
 1032SOL    HW3 4202   0.755   4.135   1.663 -0.2563  0.3669  0.4685
 1032SOL    MW4 4203   0.727   4.073   1.609  0.4828  0.6676 -0.3338
 1033SOL     OW 4204   0.247   4.501   1.969 -0.2649 -0.2189 -0.0861
 1033SOL    HW2 4205   0.158   4.487   1.935 -0.2830 -1.3634  0.4331
 1033SOL    HW3 4206   0.279   4.578   1.923 -1.0996 -0.5147 -1.1506
 1033SOL    MW4 4207   0.239   4.509   1.959 -0.3755 -0.4292 -0.1550
 1034SOL     OW 4208   0.668   4.438   1.753 -0.4869  0.1853  0.2742
 1034SOL    HW2 4209   0.696   4.516   1.801 -1.1556 -0.2023  1.2777
 1034SOL    HW3 4210   0.719   4.440   1.672  0.1343  1.2033  0.6724
 1034SOL    MW4 4211   0.678   4.448   1.748 -0.4888  0.2861  0.4649
 1035SOL     OW 4212   1.604   3.566   1.031 -0.5250  0.1297 -0.6597
 1035SOL    HW2 4213   1.677   3.546   0.972 -0.6647 -0.1599 -0.7527
 1035SOL    HW3 4214   1.641   3.558   1.119 -0.5464 -0.4271 -0.6990
 1035SOL    MW4 4215   1.618   3.562   1.035 -0.5603  0.0238 -0.6795
 1036SOL     OW 4216   0.157   4.481   1.546 -0.6671 -0.2086 -0.6507
 1036SOL    HW2 4217   0.243   4.455   1.577 -1.1565 -0.1735  0.7216
 1036SOL    HW3 4218   0.120   4.403   1.506  0.2478 -0.0348 -1.8068
 1036SOL    MW4 4219   0.163   4.468   1.545 -0.6109 -0.1431 -0.6318
 1037SOL     OW 4220   0.145   0.544   0.452 -0.8600  0.4048  0.6093
 1037SOL    HW2 4221   0.189   0.568   0.370 -0.2303  1.0567  1.1467
 1037SOL    HW3 4222   0.135   0.449   0.446 -0.2400  0.3696  0.0573
 1037SOL    MW4 4223   0.149   0.535   0.440 -0.6959  0.4828  0.6109
 1038SOL     OW 4224   0.765   0.016   1.834 -0.1379  0.0782  0.1021
 1038SOL    HW2 4225   0.850   0.056   1.813  0.0313 -0.9652 -1.1665
 1038SOL    HW3 4226   0.755   0.031   1.928  0.2451  2.5250 -0.2426
 1038SOL    MW4 4227   0.775   0.023   1.844 -0.0656  0.2636 -0.0954
 1039SOL     OW 4228   0.869   0.290   1.634  0.3762 -0.8015 -0.8026
 1039SOL    HW2 4229   0.902   0.376   1.610  0.2927 -0.9771 -1.5276
 1039SOL    HW3 4230   0.911   0.272   1.719  0.9470 -0.3377 -0.9827
 1039SOL    MW4 4231   0.879   0.299   1.642  0.4411 -0.7659 -0.9179
 1040SOL     OW 4232   0.723   0.391   1.958 -0.2517 -0.4042 -0.2935
 1040SOL    HW2 4233   0.739   0.398   2.052 -0.0985  0.8229 -0.4142
 1040SOL    HW3 4234   0.795   0.442   1.918  0.0630 -1.4722 -1.0887
 1040SOL    MW4 4235   0.735   0.399   1.965 -0.1907 -0.3815 -0.4172
 1041SOL     OW 4236   0.817   0.619   2.532 -0.3674 -0.2701  0.3923
 1041SOL    HW2 4237   0.802   0.643   2.440  0.5818 -0.6560  0.1383
 1041SOL    HW3 4238   0.912   0.605   2.537 -0.5544 -1.2305  1.2132
 1041SOL    MW4 4239   0.828   0.620   2.520 -0.2623 -0.4470  0.4768
 1042SOL     OW 4240   1.044   1.048   2.662 -0.1655  0.4136  0.0228
 1042SOL    HW2 4241   1.092   1.004   2.592 -0.2060  1.0142 -0.3619
 1042SOL    HW3 4242   0.956   1.012   2.657 -0.2061  0.5844 -0.3310
 1042SOL    MW4 4243   1.039   1.037   2.652 -0.1788  0.5245 -0.0715
 1043SOL     OW 4244   1.449   1.201   2.463  0.4811 -0.3913  0.3223
 1043SOL    HW2 4245   1.450   1.124   2.519 -0.3064 -0.0128  0.8598
 1043SOL    HW3 4246   1.372   1.191   2.408  0.6827 -0.2269  0.0282
 1043SOL    MW4 4247   1.439   1.190   2.463  0.4053 -0.3219  0.3576
 1044SOL     OW 4248   1.090   0.826   2.248  0.2493 -0.1385  0.9089
 1044SOL    HW2 4249   1.025   0.896   2.254 -1.2456 -1.5062  0.6674
 1044SOL    HW3 4250   1.144   0.850   2.172 -0.4368  0.6062  0.6700
 1044SOL    MW4 4251   1.089   0.839   2.238 -0.0358 -0.2265  0.8345
 1045SOL     OW 4252   1.467   1.339   2.713  0.0670  0.1212  0.3993
 1045SOL    HW2 4253   1.465   1.307   2.623  1.4765 -0.1580  0.4682
 1045SOL    HW3 4254   1.377   1.327   2.744 -0.6510  1.0704 -1.2703
 1045SOL    MW4 4255   1.455   1.333   2.705  0.1669  0.2146  0.2146
 1046SOL     OW 4256   1.752   1.221   2.702 -0.3235 -0.0019 -0.0491
 1046SOL    HW2 4257   1.740   1.306   2.660 -0.5924  0.1135  0.2589
 1046SOL    HW3 4258   1.682   1.216   2.767  0.3676  0.0049  0.6875
 1046SOL    MW4 4259   1.741   1.231   2.705 -0.2742  0.0238  0.0954
 1047SOL     OW 4260   1.698   1.481   2.574 -0.3240  0.1177  0.1116
 1047SOL    HW2 4261   1.784   1.522   2.578  0.0337 -0.7471  1.3110
 1047SOL    HW3 4262   1.637   1.551   2.599  0.0934  0.5605 -0.0756
 1047SOL    MW4 4263   1.701   1.496   2.578 -0.2265  0.0596  0.2623
 1048SOL     OW 4264   1.527   1.687   2.666  0.2127  0.7639 -0.1701
 1048SOL    HW2 4265   1.432   1.680   2.653  0.1065  0.0932  0.9836
 1048SOL    HW3 4266   1.542   1.647   2.752  1.4138  1.8093  0.1205
 1048SOL    MW4 4267   1.516   1.681   2.676  0.3576  0.8106  0.0000
 1049SOL     OW 4268   1.136   1.770   2.369 -0.1928 -0.0644 -0.2292
 1049SOL    HW2 4269   1.175   1.767   2.456 -0.5223 -0.8581 -0.1169
 1049SOL    HW3 4270   1.066   1.836   2.376 -0.3043 -0.2322  0.1186
 1049SOL    MW4 4271   1.132   1.779   2.381 -0.2384 -0.1907 -0.1669
 1050SOL     OW 4272   1.214   2.078   2.540 -0.5681  0.8453 -0.3427
 1050SOL    HW2 4273   1.306   2.071   2.566 -0.5897  0.8169 -0.2487
 1050SOL    HW3 4274   1.217   2.091   2.445 -0.4078  1.3624 -0.2502
 1050SOL    MW4 4275   1.227   2.079   2.531 -0.5484  0.8821 -0.3338
 1051SOL     OW 4276   1.298   2.791   2.222  0.1472 -0.5122 -0.4360
 1051SOL    HW2 4277   1.363   2.729   2.190  0.4284 -0.1258 -0.6931
 1051SOL    HW3 4278   1.336   2.877   2.202 -0.2169 -0.3026 -0.0706
 1051SOL    MW4 4279   1.312   2.794   2.215  0.1311 -0.4292 -0.4053
 1052SOL     OW 4280   0.748   2.572   1.916  0.6565 -0.1476 -0.4993
 1052SOL    HW2 4281   0.716   2.660   1.939 -0.0371 -0.4953 -0.1162
 1052SOL    HW3 4282   0.805   2.548   1.988 -0.2608 -0.5761  0.0842
 1052SOL    MW4 4283   0.751   2.581   1.928  0.4470 -0.2384 -0.3576
 1053SOL     OW 4284   1.920   3.887   1.518  0.3591 -0.0392 -0.3672
 1053SOL    HW2 4285   1.857   3.881   1.589 -0.3912 -0.3509 -1.0697
 1053SOL    HW3 4286   1.982   3.817   1.534 -0.6616 -1.0568 -0.8612
 1053SOL    MW4 4287   1.920   3.877   1.530  0.1192 -0.1907 -0.5245
 1054SOL     OW 4288   1.735   3.471   2.104  1.0873  0.0536  0.5615
 1054SOL    HW2 4289   1.672   3.401   2.122  1.1613  0.1298  1.1274
 1054SOL    HW3 4290   1.706   3.544   2.158  0.1353  0.9569 -1.1812
 1054SOL    MW4 4291   1.723   3.471   2.114  0.9775  0.1669  0.4053
 1055SOL     OW 4292   2.327   3.632   1.050  0.0631  0.3798  0.2681
 1055SOL    HW2 4293   2.278   3.703   1.092 -0.6456  1.0741 -1.6903
 1055SOL    HW3 4294   2.260   3.568   1.025  0.4532  0.0092  0.1087
 1055SOL    MW4 4295   2.312   3.633   1.052  0.0238  0.4292 -0.0119
 1056SOL     OW 4296   1.864   3.321   1.880  0.3820 -0.0557  0.2345
 1056SOL    HW2 4297   1.843   3.393   1.939  1.8883  0.5008  0.0811
 1056SOL    HW3 4298   1.786   3.265   1.883 -1.1835  2.0363 -0.3342
 1056SOL    MW4 4299   1.851   3.323   1.888  0.3695  0.2861  0.1550
 1057SOL     OW 4300   1.954   4.262   0.985 -0.4749  0.5908  0.1356
 1057SOL    HW2 4301   1.993   4.290   0.902 -0.3741  1.0074  0.3315
 1057SOL    HW3 4302   1.906   4.182   0.963  0.1085  0.3158 -0.1991
 1057SOL    MW4 4303   1.953   4.255   0.971 -0.3934  0.5722  0.1252
 1058SOL     OW 4304   2.165   3.831   1.146  0.2403 -0.0584 -0.9238
 1058SOL    HW2 4305   2.220   3.823   1.225  0.4594  0.6966 -1.0142
 1058SOL    HW3 4306   2.140   3.923   1.143 -1.0793 -0.4468 -0.8790
 1058SOL    MW4 4307   2.169   3.842   1.156  0.0715 -0.0238 -0.9298
 1059SOL     OW 4308   1.458   4.287   1.434 -0.4729  0.4413 -0.3116
 1059SOL    HW2 4309   1.489   4.336   1.357  0.0584  0.9516  0.2347
 1059SOL    HW3 4310   1.530   4.291   1.497 -0.4227 -1.0861 -0.2633
 1059SOL    MW4 4311   1.471   4.294   1.432 -0.3815  0.2384 -0.2265
 1060SOL     OW 4312   0.564   4.537   1.349 -0.3388  0.0009 -0.4838
 1060SOL    HW2 4313   0.517   4.564   1.428  0.8841  0.4922  0.0816
 1060SOL    HW3 4314   0.635   4.481   1.382 -0.1294 -0.1781 -1.3120
 1060SOL    MW4 4315   0.567   4.533   1.364 -0.1550  0.0000 -0.5245
 1061SOL     OW 4316   1.136   4.587   1.545 -0.3131  0.2660 -0.1399
 1061SOL    HW2 4317   1.094   4.655   1.492 -0.2647  0.2506 -0.2271
 1061SOL    HW3 4318   1.063   4.542   1.587 -0.2815  0.9123  0.5484
 1061SOL    MW4 4319   1.121   4.590   1.543 -0.3099  0.3338 -0.0596
 1062SOL     OW 4320   1.033   0.189   1.861 -0.0226 -0.1995  0.0748
 1062SOL    HW2 4321   1.059   0.247   1.932 -0.0877 -0.9918  0.7454
 1062SOL    HW3 4322   1.088   0.215   1.787  0.1299  0.5495  0.4467
 1062SOL    MW4 4323   1.044   0.200   1.860 -0.0119 -0.2056  0.2146
 1063SOL     OW 4324   1.233   0.373   1.402 -0.2722  0.5112 -0.3907
 1063SOL    HW2 4325   1.320   0.406   1.422 -0.5921  0.8520  0.4988
 1063SOL    HW3 4326   1.210   0.318   1.477 -0.2775 -0.6434 -1.2561
 1063SOL    MW4 4327   1.241   0.370   1.415 -0.3099  0.4023 -0.3934
 1064SOL     OW 4328   1.186   0.664   1.970 -0.9549  0.3992  0.5522
 1064SOL    HW2 4329   1.176   0.584   2.022 -1.4050  0.4293  0.5295
 1064SOL    HW3 4330   1.176   0.635   1.879 -0.1471  0.3442  0.4820
 1064SOL    MW4 4331   1.184   0.650   1.965 -0.9060  0.3934  0.5484
 1065SOL     OW 4332   1.187   0.823   2.503 -0.1178  0.2639  0.1294
 1065SOL    HW2 4333   1.183   0.730   2.524  0.0587  0.3942  0.7278
 1065SOL    HW3 4334   1.173   0.827   2.408 -0.5956 -0.3580  0.1438
 1065SOL    MW4 4335   1.184   0.811   2.493 -0.1669  0.2027  0.1907
 1066SOL     OW 4336   1.745   0.691   2.378  0.1123 -0.2297  0.2981
 1066SOL    HW2 4337   1.717   0.747   2.451  0.6893  0.2173  0.1666
 1066SOL    HW3 4338   1.682   0.619   2.379 -0.2134  0.0539  0.9058
 1066SOL    MW4 4339   1.733   0.689   2.388  0.1431 -0.1371  0.3576
 1067SOL     OW 4340   1.652   0.843   2.589 -0.1456 -0.1694  0.8095
 1067SOL    HW2 4341   1.710   0.807   2.656 -0.3640 -0.5171  0.8202
 1067SOL    HW3 4342   1.696   0.923   2.560  0.2816 -0.3592  0.9146
 1067SOL    MW4 4343   1.665   0.849   2.594 -0.1192 -0.2384  0.8345
 1068SOL     OW 4344   1.403   0.958   2.629  0.1280 -0.1016  0.7247
 1068SOL    HW2 4345   1.485   0.910   2.613 -0.2571 -0.7197  0.5494
 1068SOL    HW3 4346   1.337   0.909   2.581 -0.5206 -0.1822  1.7299
 1068SOL    MW4 4347   1.405   0.945   2.620  0.0000 -0.1907  0.8345
 1069SOL     OW 4348   1.784   1.074   2.489  0.2627 -0.3825  0.1897
 1069SOL    HW2 4349   1.765   1.116   2.572 -0.0901  0.7054 -0.4352
 1069SOL    HW3 4350   1.796   1.147   2.427 -0.6201 -1.2160 -0.9575
 1069SOL    MW4 4351   1.783   1.089   2.492  0.0954 -0.3576 -0.0477
 1070SOL     OW 4352   2.118   1.680   2.650 -0.2863 -0.2336  0.8393
 1070SOL    HW2 4353   2.190   1.669   2.587 -0.0966 -0.4272  1.0699
 1070SOL    HW3 4354   2.041   1.698   2.595 -0.3189 -1.5393  0.5022
 1070SOL    MW4 4355   2.117   1.681   2.634 -0.2861 -0.4292  0.8106
 1071SOL     OW 4356   1.891   2.005   2.429 -0.2442  0.1080  0.0135
 1071SOL    HW2 4357   1.909   1.911   2.434 -1.6644 -0.1860 -0.2328
 1071SOL    HW3 4358   1.885   2.023   2.335  0.3968  0.5224  0.0510
 1071SOL    MW4 4359   1.893   1.995   2.417 -0.3457  0.1431  0.0000
 1072SOL     OW 4360   1.886   1.740   2.489 -0.0858  0.3824  0.1066
 1072SOL    HW2 4361   1.834   1.772   2.564 -0.1027  0.4913  0.0578
 1072SOL    HW3 4362   1.821   1.720   2.422 -0.0493  0.5201  0.0339
 1072SOL    MW4 4363   1.870   1.742   2.490 -0.0715  0.4053  0.1192
 1073SOL     OW 4364   1.589   1.922   2.869  0.4481  0.3798 -0.3235
 1073SOL    HW2 4365   1.529   1.876   2.812  0.1185  0.9629 -0.4410
 1073SOL    HW3 4366   1.631   1.987   2.813  1.9364 -0.6961 -0.4702
 1073SOL    MW4 4367   1.587   1.924   2.854  0.6199  0.3219 -0.3576
 1074SOL     OW 4368   1.786   2.574   2.601  0.4278  0.5965 -0.0551
 1074SOL    HW2 4369   1.783   2.489   2.645  1.0709  0.1711 -0.8096
 1074SOL    HW3 4370   1.819   2.555   2.513 -1.6162  1.3126 -0.9833
 1074SOL    MW4 4371   1.790   2.560   2.595  0.2503  0.6437 -0.2623
 1075SOL     OW 4372   1.859   2.896   2.021  0.0693  0.4148  0.3858
 1075SOL    HW2 4373   1.932   2.874   2.078 -0.7194  0.0658  1.2979
 1075SOL    HW3 4374   1.899   2.920   1.937  1.2250  0.5862  1.0073
 1075SOL    MW4 4375   1.874   2.896   2.017  0.1192  0.4053  0.5722
 1076SOL     OW 4376   2.283   3.118   2.078  0.5320  0.0779 -0.2056
 1076SOL    HW2 4377   2.298   3.127   2.172  1.8483  0.8313 -0.4918
 1076SOL    HW3 4378   2.189   3.125   2.067  0.3982  0.1193  1.0349
 1076SOL    MW4 4379   2.273   3.120   2.089  0.6676  0.1907 -0.0715
 1077SOL     OW 4380   2.221   2.865   2.197  0.1743 -0.0174 -0.3209
 1077SOL    HW2 4381   2.256   2.952   2.177 -0.1295  0.4146  0.9573
 1077SOL    HW3 4382   2.232   2.815   2.116  0.8076  1.0944 -0.9153
 1077SOL    MW4 4383   2.227   2.870   2.184  0.2146  0.1907 -0.2384
 1078SOL     OW 4384   2.529   2.768   2.069 -0.0371 -0.1664  0.4143
 1078SOL    HW2 4385   2.518   2.862   2.056 -0.1641 -0.0545  1.1894
 1078SOL    HW3 4386   2.524   2.730   1.982 -0.5960  0.4767  0.1374
 1078SOL    MW4 4387   2.527   2.775   2.056 -0.1192 -0.0715  0.4530
 1079SOL     OW 4388   2.701   3.494   1.656 -0.2356  0.4883  0.3069
 1079SOL    HW2 4389   2.611   3.513   1.679 -0.2286  1.2203 -0.1730
 1079SOL    HW3 4390   2.728   3.426   1.718 -0.8236  0.9845  1.0714
 1079SOL    MW4 4391   2.693   3.488   1.667 -0.3099  0.6676  0.3338
 1080SOL     OW 4392   2.313   3.594   1.468  0.3947 -0.3942  0.2102
 1080SOL    HW2 4393   2.381   3.600   1.535  0.5242 -0.6557  0.1179
 1080SOL    HW3 4394   2.231   3.609   1.515  0.6510  1.4020  0.0850
 1080SOL    MW4 4395   2.311   3.597   1.483  0.4530 -0.1907  0.1907
 1081SOL     OW 4396   2.124   3.856   0.815 -0.4214  0.2164 -0.3406
 1081SOL    HW2 4397   2.131   3.774   0.864 -1.6523 -0.0239 -0.5952
 1081SOL    HW3 4398   2.210   3.898   0.827 -0.2764 -0.4572  0.9440
 1081SOL    MW4 4399   2.137   3.851   0.823 -0.5484  0.0954 -0.2086
 1082SOL     OW 4400   2.762   3.720   1.865  0.1580  0.9720  0.1383
 1082SOL    HW2 4401   2.720   3.782   1.804  0.0496  0.5099 -0.2285
 1082SOL    HW3 4402   2.756   3.636   1.820 -0.6324  0.4752  1.1537
 1082SOL    MW4 4403   2.756   3.717   1.851  0.0477  0.8345  0.2265
 1083SOL     OW 4404   2.537   4.108   1.469 -0.1882  0.1937 -0.4659
 1083SOL    HW2 4405   2.499   4.167   1.536 -0.2246  0.2175 -0.4840
 1083SOL    HW3 4406   2.539   4.023   1.512 -0.6823  0.1017 -0.6493
 1083SOL    MW4 4407   2.532   4.105   1.484 -0.2384  0.1907 -0.4888
 1084SOL     OW 4408   1.301   4.002   1.401  0.4971  0.6009 -0.1231
 1084SOL    HW2 4409   1.393   4.027   1.401  1.0331 -1.3416  1.0322
 1084SOL    HW3 4410   1.254   4.083   1.421  1.9301  1.8208 -1.7222
 1084SOL    MW4 4411   1.307   4.016   1.404  0.7629  0.4768 -0.1907
 1085SOL     OW 4412   1.482   0.081   1.319 -0.0372  0.9914  0.2069
 1085SOL    HW2 4413   1.501   0.087   1.413 -0.1997 -0.0120  0.2909
 1085SOL    HW3 4414   1.556   0.034   1.282 -1.5410 -1.4578  0.3071
 1085SOL    MW4 4415   1.494   0.076   1.326 -0.2503  0.5357  0.2265
 1086SOL     OW 4416   1.408   0.430   1.940 -0.3830 -0.4181 -0.8638
 1086SOL    HW2 4417   1.498   0.442   1.970 -0.2695  0.5544 -1.5533
 1086SOL    HW3 4418   1.407   0.344   1.898  0.6241  0.3199 -2.3533
 1086SOL    MW4 4419   1.420   0.420   1.938 -0.2384 -0.1907 -1.1325
 1087SOL     OW 4420   1.664   0.808   1.742  0.6039 -0.1234 -0.2545
 1087SOL    HW2 4421   1.716   0.740   1.783  0.7626 -0.1020 -0.4187
 1087SOL    HW3 4422   1.616   0.849   1.814  0.8829 -0.0796 -0.1092
 1087SOL    MW4 4423   1.664   0.805   1.757  0.6676 -0.1192 -0.2623
 1088SOL     OW 4424   1.542   0.493   2.383 -0.0873  0.2048  0.0582
 1088SOL    HW2 4425   1.588   0.411   2.367 -0.2421  0.1264 -0.0167
 1088SOL    HW3 4426   1.469   0.492   2.321 -0.3188  0.2299  0.3489
 1088SOL    MW4 4427   1.538   0.482   2.372 -0.1311  0.1997  0.0715
 1089SOL     OW 4428   2.137   0.947   2.137  0.2396 -0.2710  0.0798
 1089SOL    HW2 4429   2.050   0.955   2.098  0.1891 -0.0357  0.2330
 1089SOL    HW3 4430   2.157   0.853   2.132 -0.1589 -0.3697  0.3651
 1089SOL    MW4 4431   2.128   0.935   2.131  0.1907 -0.2444  0.1431
 1090SOL     OW 4432   2.058   0.706   2.587 -0.1768  0.0673  0.7359
 1090SOL    HW2 4433   2.136   0.741   2.630 -0.2274  0.0101  0.8678
 1090SOL    HW3 4434   2.040   0.768   2.516  0.1242 -0.0427  0.5636
 1090SOL    MW4 4435   2.066   0.719   2.583 -0.1431  0.0477  0.7391
 1091SOL     OW 4436   2.383   1.017   2.442 -0.2402  0.1619 -0.1262
 1091SOL    HW2 4437   2.372   0.926   2.411 -0.1310  0.2195 -0.3375
 1091SOL    HW3 4438   2.441   1.057   2.377  0.1314  0.2168  0.2785
 1091SOL    MW4 4439   2.389   1.010   2.429 -0.1907  0.1788 -0.0954
 1092SOL     OW 4440   2.246   1.235   2.334  0.1807  0.2619  0.2879
 1092SOL    HW2 4441   2.177   1.268   2.390 -0.0254 -0.1758  0.2887
 1092SOL    HW3 4442   2.273   1.153   2.375  0.0369 -0.0533 -0.2647
 1092SOL    MW4 4443   2.241   1.229   2.347  0.1192  0.1669  0.2146
 1093SOL     OW 4444   2.292   1.611   2.429  0.2458 -0.1245  0.6993
 1093SOL    HW2 4445   2.355   1.545   2.459  0.2727 -0.3016  0.2540
 1093SOL    HW3 4446   2.225   1.560   2.383 -0.0123  0.0881  0.8044
 1093SOL    MW4 4447   2.291   1.595   2.427  0.1907 -0.1311  0.6676
 1094SOL     OW 4448   2.726   1.062   2.469  0.3127  0.4640  0.6958
 1094SOL    HW2 4449   2.665   0.999   2.430  0.0747  0.6546  0.7344
 1094SOL    HW3 4450   2.671   1.136   2.493  0.6249  0.7833  0.4143
 1094SOL    MW4 4451   2.711   1.063   2.467  0.3338  0.5364  0.6437
 1095SOL     OW 4452   2.702   1.516   2.340  0.2142  0.2068 -0.1473
 1095SOL    HW2 4453   2.664   1.531   2.427  0.0014 -0.2300 -0.1764
 1095SOL    HW3 4454   2.653   1.575   2.283 -0.9304 -0.9610 -0.3505
 1095SOL    MW4 4455   2.690   1.526   2.344  0.0477 -0.0119 -0.1907
 1096SOL     OW 4456   2.145   1.909   2.803  0.2425  0.5421 -0.2559
 1096SOL    HW2 4457   2.114   1.971   2.737 -1.2078 -0.6627 -0.7199
 1096SOL    HW3 4458   2.139   1.824   2.761 -1.0230 -0.2585  1.5537
 1096SOL    MW4 4459   2.140   1.906   2.789 -0.1192  0.2861 -0.0715
 1097SOL     OW 4460   1.497   2.032   2.519 -0.3295 -0.0638 -0.3763
 1097SOL    HW2 4461   1.515   2.067   2.432 -0.6053  0.2580 -0.3196
 1097SOL    HW3 4462   1.580   2.042   2.566 -0.3853  0.4191 -0.3753
 1097SOL    MW4 4463   1.510   2.038   2.514 -0.3695  0.0477 -0.4053
 1098SOL     OW 4464   2.041   2.105   2.626 -0.3277  0.1792 -0.0125
 1098SOL    HW2 4465   2.119   2.140   2.585 -0.3903  1.3274  0.8132
 1098SOL    HW3 4466   1.989   2.069   2.554  0.1546  1.0076 -0.7628
 1098SOL    MW4 4467   2.044   2.105   2.611 -0.2623  0.4530  0.0000
 1099SOL     OW 4468   2.167   2.371   1.885 -0.1892  0.0734 -0.4401
 1099SOL    HW2 4469   2.141   2.279   1.879 -0.7265  0.1857 -0.3227
 1099SOL    HW3 4470   2.129   2.400   1.968 -0.4455  0.5202 -0.7306
 1099SOL    MW4 4471   2.158   2.363   1.895 -0.2861  0.1431 -0.4649
 1100SOL     OW 4472   2.024   2.378   2.132 -0.0848  0.0870 -0.3202
 1100SOL    HW2 4473   2.046   2.303   2.187  0.6481  0.2375 -0.3958
 1100SOL    HW3 4474   1.987   2.442   2.193  0.6036  0.1910  0.0327
 1100SOL    MW4 4475   2.022   2.377   2.147  0.0954  0.1192 -0.2861
 1101SOL     OW 4476   2.188   2.656   2.390  0.4362  0.3462  0.3458
 1101SOL    HW2 4477   2.152   2.731   2.343  0.6176  0.9801  1.1724
 1101SOL    HW3 4478   2.245   2.613   2.326 -0.7745  0.1316 -0.5853
 1101SOL    MW4 4479   2.191   2.660   2.375  0.2861  0.4053  0.3099
 1102SOL     OW 4480   2.536   3.021   2.309  0.2097 -0.3189  0.2542
 1102SOL    HW2 4481   2.561   2.937   2.349  0.0308  0.1438  1.2557
 1102SOL    HW3 4482   2.593   3.085   2.351 -0.5943  0.2618  0.4688
 1102SOL    MW4 4483   2.547   3.018   2.320  0.0954 -0.1669  0.4292
 1103SOL     OW 4484   2.703   2.735   2.409  0.3431  0.1502  0.1484
 1103SOL    HW2 4485   2.721   2.714   2.318 -0.8913  0.8090 -0.2311
 1103SOL    HW3 4486   2.639   2.670   2.437  0.2889  0.2823  0.3450
 1103SOL    MW4 4487   2.697   2.724   2.401  0.1669  0.2623  0.1192
 1104SOL     OW 4488   2.774   2.681   2.136 -0.0685  0.2999 -0.2804
 1104SOL    HW2 4489   2.827   2.760   2.143 -1.0049  0.9145 -0.0179
 1104SOL    HW3 4490   2.685   2.712   2.121 -0.4762 -0.6865  0.0838
 1104SOL    MW4 4491   2.770   2.695   2.135 -0.2623  0.2384 -0.1907
 1105SOL     OW 4492   2.522   3.879   1.156 -0.1060 -0.4553  0.6838
 1105SOL    HW2 4493   2.454   3.871   1.223 -1.1350 -1.0795 -0.4299
 1105SOL    HW3 4494   2.565   3.962   1.177 -1.3039  0.0035  1.3051
 1105SOL    MW4 4495   2.518   3.889   1.168 -0.3815 -0.5007  0.6199
 1106SOL     OW 4496   3.070   4.160   1.943  0.0331 -0.2274  0.3402
 1106SOL    HW2 4497   3.119   4.198   1.870 -0.4571  0.2592  0.2687
 1106SOL    HW3 4498   3.024   4.085   1.904  0.3817 -0.3953  0.3462
 1106SOL    MW4 4499   3.070   4.155   1.928  0.0000 -0.1907  0.3457
 1107SOL     OW 4500   3.547   4.333   2.213 -0.0897  0.0708 -0.0547
 1107SOL    HW2 4501   3.477   4.328   2.277 -0.5370  0.0004 -0.5211
 1107SOL    HW3 4502   3.581   4.243   2.209  0.8988  0.4103  1.2153
 1107SOL    MW4 4503   3.542   4.320   2.221 -0.0238  0.0954  0.0477
 1108SOL     OW 4504   2.237   4.213   1.389 -0.1744 -0.6055  0.1644
 1108SOL    HW2 4505   2.332   4.201   1.388  0.1890  1.8878  1.5491
 1108SOL    HW3 4506   2.205   4.150   1.453  0.5977 -1.2977 -0.1347
 1108SOL    MW4 4507   2.245   4.203   1.397  0.0000 -0.3815  0.3099
 1109SOL     OW 4508   1.924   4.232   1.638 -0.2508 -0.5066  0.2264
 1109SOL    HW2 4509   1.866   4.237   1.714  0.0748 -0.8360  0.5021
 1109SOL    HW3 4510   1.867   4.209   1.565 -0.8005  1.2591  0.1117
 1109SOL    MW4 4511   1.909   4.230   1.638 -0.2623 -0.2861  0.2623
 1110SOL     OW 4512   1.686   0.516   2.023 -0.2276 -0.0787  0.3338
 1110SOL    HW2 4513   1.752   0.509   2.092 -0.1948  1.0532  0.4127
 1110SOL    HW3 4514   1.736   0.519   1.942 -0.2380 -0.7006  0.3035
 1110SOL    MW4 4515   1.701   0.515   2.022 -0.2146 -0.0119  0.3338
 1111SOL     OW 4516   2.653   0.299   1.395 -0.1693  0.0805  0.1243
 1111SOL    HW2 4517   2.568   0.302   1.439  0.3281 -0.0370  1.1212
 1111SOL    HW3 4518   2.712   0.343   1.456  0.4900  0.2080 -0.5821
 1111SOL    MW4 4519   2.649   0.305   1.409  0.0000  0.0805  0.1550
 1112SOL     OW 4520   2.139   0.677   2.101 -0.1574 -0.6295 -0.1733
 1112SOL    HW2 4521   2.050   0.656   2.128 -0.2492 -0.0132  0.0700
 1112SOL    HW3 4522   2.194   0.615   2.149 -0.3534 -0.0839  0.7199
 1112SOL    MW4 4523   2.135   0.666   2.111 -0.1907 -0.4709 -0.0238
 1113SOL     OW 4524   2.319   0.767   2.381  0.5906 -0.0898 -0.3548
 1113SOL    HW2 4525   2.378   0.694   2.364 -0.4151 -1.0894  0.4779
 1113SOL    HW3 4526   2.233   0.735   2.354 -0.1411  0.1525  1.7792
 1113SOL    MW4 4527   2.315   0.753   2.375  0.3815 -0.1907  0.0238
 1114SOL     OW 4528   2.557   0.570   2.309 -0.2904  0.3275  0.0464
 1114SOL    HW2 4529   2.528   0.491   2.354  0.6293  0.4308  0.8222
 1114SOL    HW3 4530   2.546   0.550   2.216 -2.9594  0.4377  0.3887
 1114SOL    MW4 4531   2.552   0.557   2.303 -0.5007  0.3576  0.1669
 1115SOL     OW 4532   2.575   0.498   2.045  0.4150  0.3556 -0.4420
 1115SOL    HW2 4533   2.591   0.567   1.981  0.7067  0.3561 -0.3885
 1115SOL    HW3 4534   2.653   0.443   2.041  0.2256  0.1028 -0.4358
 1115SOL    MW4 4535   2.588   0.500   2.036  0.4292  0.3219 -0.4292
 1116SOL     OW 4536   2.588   0.685   2.575  0.1741 -0.3474  0.1211
 1116SOL    HW2 4537   2.599   0.759   2.634  0.6499  0.2101 -0.6606
 1116SOL    HW3 4538   2.604   0.722   2.488  0.0844 -1.3048 -0.2796
 1116SOL    MW4 4539   2.592   0.700   2.571  0.2146 -0.3994 -0.0477
 1117SOL     OW 4540   2.794   0.887   2.671 -0.6714 -0.2798  0.3784
 1117SOL    HW2 4541   2.774   0.955   2.607  0.4860  1.0719  1.4779
 1117SOL    HW3 4542   2.837   0.818   2.620 -0.7507  0.3169 -0.5187
 1117SOL    MW4 4543   2.797   0.887   2.655 -0.5245 -0.0238  0.4053
 1118SOL     OW 4544   3.177   1.435   2.161  0.5532  0.2484 -0.5605
 1118SOL    HW2 4545   3.198   1.350   2.122  0.2143 -0.1954  0.2314
 1118SOL    HW3 4546   3.178   1.419   2.255 -1.1075  0.7636 -0.4608
 1118SOL    MW4 4547   3.180   1.422   2.168  0.2861  0.2503 -0.4530
 1119SOL     OW 4548   2.986   1.285   2.505 -0.0970  0.4803 -0.1501
 1119SOL    HW2 4549   2.993   1.373   2.468  1.8970  0.0994 -0.6264
 1119SOL    HW3 4550   2.980   1.227   2.429 -0.2988  0.0981  0.1177
 1119SOL    MW4 4551   2.986   1.289   2.490  0.1431  0.3815 -0.1669
 1120SOL     OW 4552   2.369   1.847   2.538 -1.0492  0.3280  0.7486
 1120SOL    HW2 4553   2.442   1.885   2.489 -1.4519  0.7656  0.5125
 1120SOL    HW3 4554   2.357   1.760   2.499 -0.2927  0.0447  1.1585
 1120SOL    MW4 4555   2.377   1.840   2.526 -1.0014  0.3457  0.7629
 1121SOL     OW 4556   2.175   1.876   2.327 -0.7929  0.1557  0.1076
 1121SOL    HW2 4557   2.178   1.970   2.308 -0.6546  0.1977  0.3120
 1121SOL    HW3 4558   2.245   1.861   2.389 -0.7736 -0.1016  0.0394
 1121SOL    MW4 4559   2.184   1.886   2.333 -0.7629  0.1192  0.1192
 1122SOL     OW 4560   2.770   2.164   1.976 -0.0605 -0.7918  0.3100
 1122SOL    HW2 4561   2.715   2.134   2.047 -0.4687 -0.6732  0.0243
 1122SOL    HW3 4562   2.859   2.157   2.009 -0.2377 -0.6610  0.8867
 1122SOL    MW4 4563   2.775   2.159   1.989 -0.1192 -0.7391  0.3576
 1123SOL     OW 4564   2.734   2.263   1.702  0.2372 -0.5204  0.1294
 1123SOL    HW2 4565   2.659   2.208   1.726  0.0227 -0.1947  0.1940
 1123SOL    HW3 4566   2.799   2.246   1.771 -0.0894 -0.1385  0.5127
 1123SOL    MW4 4567   2.733   2.254   1.714  0.1669 -0.4530  0.1907
 1124SOL     OW 4568   2.166   2.137   2.250 -0.3767  0.0816  0.0609
 1124SOL    HW2 4569   2.239   2.151   2.190 -0.3809 -0.1495  0.0124
 1124SOL    HW3 4570   2.198   2.171   2.334 -0.2641  0.0036  0.0484
 1124SOL    MW4 4571   2.180   2.143   2.253 -0.3576  0.0238  0.0477
 1125SOL     OW 4572   2.519   2.482   2.462 -0.1332 -0.0414  0.5196
 1125SOL    HW2 4573   2.586   2.422   2.430 -0.1854  0.1282  0.1528
 1125SOL    HW3 4574   2.474   2.513   2.383 -0.3447  0.2346  0.7505
 1125SOL    MW4 4575   2.522   2.478   2.448 -0.1907  0.0000  0.5007
 1126SOL     OW 4576   2.954   2.365   2.211  0.1476 -0.1092  0.6805
 1126SOL    HW2 4577   3.017   2.432   2.237  0.1281  0.1775 -0.0941
 1126SOL    HW3 4578   2.980   2.339   2.123 -1.6527  1.0382 -0.1864
 1126SOL    MW4 4579   2.966   2.370   2.203 -0.0954  0.0954  0.4292
 1127SOL     OW 4580   2.381   2.136   2.037 -0.4220 -0.6443  0.2289
 1127SOL    HW2 4581   2.445   2.097   2.097 -0.2175  0.1257  0.5181
 1127SOL    HW3 4582   2.406   2.228   2.032 -1.0546 -0.5250 -0.2841
 1127SOL    MW4 4583   2.393   2.143   2.045 -0.4768 -0.5484  0.2146
 1128SOL     OW 4584   2.513   2.389   2.038 -0.8983 -0.7895  0.3353
 1128SOL    HW2 4585   2.604   2.368   2.018 -0.7119 -0.4215  0.8533
 1128SOL    HW3 4586   2.483   2.441   1.963 -0.8106 -1.1745  0.0014
 1128SOL    MW4 4587   2.521   2.393   2.025 -0.8583 -0.7629  0.3576
 1129SOL     OW 4588   2.646   3.390   1.360 -0.3220  0.5898 -0.1745
 1129SOL    HW2 4589   2.656   3.462   1.298  2.8638 -0.0907 -0.5206
 1129SOL    HW3 4590   2.678   3.425   1.443 -0.5939  0.2532  0.0814
 1129SOL    MW4 4591   2.652   3.404   1.363  0.0715  0.4530 -0.1907
 1130SOL     OW 4592   3.391   3.867   2.136  0.6837  0.5830  0.0825
 1130SOL    HW2 4593   3.332   3.939   2.160 -0.3345 -0.2648  0.0345
 1130SOL    HW3 4594   3.374   3.852   2.044  1.4012  0.6531 -0.0478
 1130SOL    MW4 4595   3.381   3.874   2.127  0.6437  0.4530  0.0715
 1131SOL     OW 4596   3.643   4.071   2.132  0.7715  0.3484 -0.3832
 1131SOL    HW2 4597   3.688   4.043   2.212  0.2559  0.3312 -0.1028
 1131SOL    HW3 4598   3.572   4.008   2.121  1.0092  0.1457 -0.9784
 1131SOL    MW4 4599   3.640   4.059   2.141  0.7391  0.2861 -0.4292
 1132SOL     OW 4600   3.486   0.018   2.311 -0.4776  0.4941 -0.3736
 1132SOL    HW2 4601   3.499  -0.006   2.403 -0.1616  1.5171 -0.1604
 1132SOL    HW3 4602   3.512  -0.060   2.262  0.8760  0.5263  0.3251
 1132SOL    MW4 4603   3.491   0.004   2.317 -0.2384  0.6388 -0.2623
 1133SOL     OW 4604   1.995   4.608   1.734 -0.1103  0.5699  0.1623
 1133SOL    HW2 4605   2.006   4.657   1.815  0.5251  0.1966  0.3022
 1133SOL    HW3 4606   2.032   4.522   1.752 -0.2829  0.3653 -0.3948
 1133SOL    MW4 4607   2.001   4.603   1.747 -0.0477  0.5245  0.0954
 1134SOL     OW 4608   3.338   4.267   1.855  0.4543 -0.1656 -0.0448
 1134SOL    HW2 4609   3.423   4.297   1.824  0.6876 -0.8580 -0.0981
 1134SOL    HW3 4610   3.325   4.314   1.937 -0.2784  2.0030 -1.3408
 1134SOL    MW4 4611   3.347   4.277   1.862  0.3815  0.0954 -0.2265
 1135SOL     OW 4612   2.585   0.120   1.970 -0.5181  0.2755  0.5014
 1135SOL    HW2 4613   2.565   0.052   1.906 -0.4900  0.5734  0.1598
 1135SOL    HW3 4614   2.680   0.115   1.980 -0.5996 -0.1539  0.9507
 1135SOL    MW4 4615   2.595   0.111   1.963 -0.5245  0.2585  0.5126
 1136SOL     OW 4616   2.404   0.301   1.873 -0.2683  0.5491 -0.5173
 1136SOL    HW2 4617   2.427   0.383   1.917 -0.0314  0.7304 -0.9748
 1136SOL    HW3 4618   2.471   0.239   1.901  0.0740  0.7469 -0.8600
 1136SOL    MW4 4619   2.416   0.304   1.882 -0.1907  0.5960 -0.6199
 1137SOL     OW 4620   2.850   0.071   1.986 -0.3753  0.0556  0.3671
 1137SOL    HW2 4621   2.884   0.046   1.899 -1.3305 -0.2653  0.0807
 1137SOL    HW3 4622   2.880   0.161   1.998 -0.1139  0.0561 -0.2408
 1137SOL    MW4 4623   2.858   0.079   1.976 -0.4768  0.0127  0.2623
 1138SOL     OW 4624   2.923   0.661   1.960 -0.3254 -0.7316  0.4818
 1138SOL    HW2 4625   2.886   0.733   2.012 -0.0828 -0.4050  0.1914
 1138SOL    HW3 4626   3.013   0.652   1.992 -0.3560 -0.9140  0.5185
 1138SOL    MW4 4627   2.930   0.669   1.971 -0.3099 -0.7153  0.4530
 1139SOL     OW 4628   3.197   1.173   2.026 -0.0731  0.6649  0.4382
 1139SOL    HW2 4629   3.215   1.082   2.050 -0.8418  0.6228  0.8570
 1139SOL    HW3 4630   3.101   1.176   2.017 -0.0341  1.4269  0.3249
 1139SOL    MW4 4631   3.187   1.161   2.028 -0.1907  0.7629  0.5007
 1140SOL     OW 4632   2.838   0.380   2.067 -0.5391 -0.1539 -0.2286
 1140SOL    HW2 4633   2.860   0.472   2.054  0.9318 -0.6125 -0.9055
 1140SOL    HW3 4634   2.851   0.364   2.161  1.3055 -0.2366 -0.5137
 1140SOL    MW4 4635   2.842   0.390   2.078 -0.0954 -0.2265 -0.3338
 1141SOL     OW 4636   3.414   1.216   1.840  0.0051  0.0777  0.2887
 1141SOL    HW2 4637   3.326   1.213   1.880  0.7276  1.3439  2.0297
 1141SOL    HW3 4638   3.422   1.306   1.807  0.2372 -0.3531 -0.8164
 1141SOL    MW4 4639   3.403   1.228   1.841  0.0954  0.1788  0.3695
 1142SOL     OW 4640   3.628   1.228   2.025 -0.3742  0.0315  0.4132
 1142SOL    HW2 4641   3.598   1.201   2.111 -0.4446 -1.6849 -0.1616
 1142SOL    HW3 4642   3.548   1.238   1.973 -0.1540 -1.9135 -0.3208
 1142SOL    MW4 4643   3.614   1.226   2.029 -0.3815 -0.4530  0.2146
 1143SOL     OW 4644   3.426   1.698   1.987  0.1198  1.0228  0.0936
 1143SOL    HW2 4645   3.500   1.636   1.985 -0.4492  0.3571 -0.6333
 1143SOL    HW3 4646   3.389   1.687   2.074  0.5305  0.9316  0.2479
 1143SOL    MW4 4647   3.431   1.688   1.998  0.1192  0.9298  0.0238
 1144SOL     OW 4648   3.294   1.681   2.227  0.3646 -0.0275 -0.0954
 1144SOL    HW2 4649   3.249   1.597   2.214  0.3396 -0.0827  0.3163
 1144SOL    HW3 4650   3.226   1.747   2.212  0.0584 -0.1199  0.8384
 1144SOL    MW4 4651   3.279   1.679   2.223  0.3099 -0.0477  0.0715
 1145SOL     OW 4652   3.054   2.115   2.026  0.1218  0.1970  0.1793
 1145SOL    HW2 4653   3.057   2.026   2.061 -0.6201 -0.0346 -0.2564
 1145SOL    HW3 4654   3.125   2.118   1.962  0.5514  0.1133  0.6818
 1145SOL    MW4 4655   3.064   2.104   2.022  0.0715  0.1431  0.1907
 1146SOL     OW 4656   3.443   1.894   2.365  0.5708  0.2721  0.1042
 1146SOL    HW2 4657   3.384   1.820   2.350  0.1576  0.8212 -0.9435
 1146SOL    HW3 4658   3.497   1.898   2.286  0.7420  0.9375  0.2763
 1146SOL    MW4 4659   3.443   1.885   2.352  0.5484  0.4292 -0.0238
 1147SOL     OW 4660   3.672   2.145   2.305  0.5423  0.4689  0.4354
 1147SOL    HW2 4661   3.603   2.149   2.371  0.5419 -0.2427  0.4382
 1147SOL    HW3 4662   3.655   2.220   2.247  0.4059  0.9546  1.0657
 1147SOL    MW4 4663   3.661   2.156   2.306  0.5245  0.4530  0.5484
 1148SOL     OW 4664   3.590   1.878   2.105  0.5716  0.4670  0.5365
 1148SOL    HW2 4665   3.571   1.966   2.071  0.4170  0.2390  0.0296
 1148SOL    HW3 4666   3.528   1.821   2.060  0.6630  0.1039  0.8127
 1148SOL    MW4 4667   3.579   1.882   2.094  0.5722  0.3695  0.5007
 1149SOL     OW 4668   3.485   2.104   1.996 -0.2692  0.3746  0.9556
 1149SOL    HW2 4669   3.433   2.140   2.067  0.9867  0.0691  2.0316
 1149SOL    HW3 4670   3.426   2.105   1.920 -1.7484  0.3019  2.1220
 1149SOL    MW4 4671   3.470   2.109   1.995 -0.2861  0.3338  1.2517
 1150SOL     OW 4672   3.303   2.385   1.850 -0.1974  0.0979  0.1563
 1150SOL    HW2 4673   3.398   2.373   1.855 -0.3353 -1.1561 -0.3313
 1150SOL    HW3 4674   3.284   2.388   1.756 -0.6991 -0.1193  0.2506
 1150SOL    MW4 4675   3.313   2.384   1.838 -0.2861 -0.0954  0.0954
 1151SOL     OW 4676   3.042   2.390   1.928 -0.1945  0.5462 -0.0171
 1151SOL    HW2 4677   3.031   2.483   1.947  1.0315  0.5565  0.6752
 1151SOL    HW3 4678   3.135   2.380   1.906 -0.5499 -0.3084 -1.1449
 1151SOL    MW4 4679   3.053   2.401   1.927 -0.0954  0.4530 -0.0715
 1152SOL     OW 4680   3.120   2.805   2.336 -0.3487  0.5555 -0.2202
 1152SOL    HW2 4681   3.059   2.746   2.382  0.0298 -0.1274 -0.5911
 1152SOL    HW3 4682   3.169   2.747   2.278  0.1576  1.2554 -0.4617
 1152SOL    MW4 4683   3.118   2.789   2.335 -0.2623  0.5722 -0.3099
 1153SOL     OW 4684   2.663   2.675   1.843  0.2182 -0.3070  0.4117
 1153SOL    HW2 4685   2.704   2.633   1.918  0.5670 -0.2608  0.2652
 1153SOL    HW3 4686   2.713   2.756   1.830 -0.1787 -0.0368  0.4812
 1153SOL    MW4 4687   2.675   2.680   1.851  0.2146 -0.2861  0.4172
 1154SOL     OW 4688   3.214   3.362   2.169  0.2272  0.1230 -0.5216
 1154SOL    HW2 4689   3.119   3.360   2.158  0.4176  0.2565 -2.0928
 1154SOL    HW3 4690   3.231   3.435   2.228 -0.6610 -0.0298 -0.0471
 1154SOL    MW4 4691   3.204   3.371   2.175  0.1192  0.1192 -0.6437
 1155SOL     OW 4692   3.330   3.637   2.286 -0.2673 -0.0532  0.7061
 1155SOL    HW2 4693   3.345   3.705   2.220 -0.1606  0.0037  0.7713
 1155SOL    HW3 4694   3.413   3.590   2.292 -0.0523  0.3936  1.3274
 1155SOL    MW4 4695   3.343   3.640   2.278 -0.2384  0.0238  0.7868
 1156SOL     OW 4696   3.920   4.110   1.956  0.1341  0.4531 -0.2311
 1156SOL    HW2 4697   3.905   4.024   1.995  2.1145  1.1680  2.2363
 1156SOL    HW3 4698   3.840   4.160   1.975 -1.0017 -0.8665 -1.6585
 1156SOL    MW4 4699   3.907   4.105   1.963  0.2623  0.3815 -0.0715
 1157SOL     OW 4700   3.200   4.515   1.804 -0.1790  0.1936 -0.0933
 1157SOL    HW2 4701   3.279   4.567   1.816 -0.2371  0.3244 -0.2486
 1157SOL    HW3 4702   3.230   4.424   1.801  0.0831  0.3024 -0.8152
 1157SOL    MW4 4703   3.214   4.510   1.805 -0.1669  0.2861 -0.2146
 1158SOL     OW 4704   3.080   4.645   2.089 -0.0843 -0.0700 -0.6707
 1158SOL    HW2 4705   2.986   4.660   2.082 -0.0936  0.0619 -0.3723
 1158SOL    HW3 4706   3.117   4.677   2.007 -0.2089  0.9907 -0.3374
 1158SOL    MW4 4707   3.073   4.651   2.078 -0.0954  0.1431 -0.5960
 1159SOL     OW 4708   3.629   0.260   1.948 -0.2134  0.3623  0.4898
 1159SOL    HW2 4709   3.570   0.264   2.023 -0.5118  1.5073  0.1853
 1159SOL    HW3 4710   3.701   0.318   1.972 -0.5996  1.2006 -0.3539
 1159SOL    MW4 4711   3.631   0.268   1.961 -0.2861  0.6199  0.3457
 1160SOL     OW 4712   3.618   0.602   2.222  0.5804 -0.2235 -0.0392
 1160SOL    HW2 4713   3.615   0.535   2.154  1.4626  0.1986 -0.5219
 1160SOL    HW3 4714   3.526   0.625   2.238  0.3630 -0.3643 -1.0755
 1160SOL    MW4 4715   3.605   0.596   2.215  0.6437 -0.1907 -0.2146
 1161SOL     OW 4716   3.206   0.880   2.091 -0.5708  0.6815  0.5511
 1161SOL    HW2 4717   3.175   0.812   2.031  0.2689  1.0214 -0.2699
 1161SOL    HW3 4718   3.301   0.878   2.082 -0.5588  1.9080  0.5854
 1161SOL    MW4 4719   3.215   0.871   2.082 -0.4292  0.8881  0.4530
 1162SOL     OW 4720   3.577   0.574   2.628 -0.4447  0.1835  0.5050
 1162SOL    HW2 4721   3.509   0.632   2.663  0.5157  0.2983  2.1721
 1162SOL    HW3 4722   3.623   0.628   2.564 -1.3837  0.3680 -0.0112
 1162SOL    MW4 4723   3.574   0.589   2.624 -0.4768  0.2265  0.6437
 1163SOL     OW 4724   4.090   0.979   2.037 -0.1359  0.2261  0.0984
 1163SOL    HW2 4725   4.041   1.014   2.111  0.7962 -0.1269  0.8804
 1163SOL    HW3 4726   4.182   0.988   2.061  0.1129  0.2557 -1.0989
 1163SOL    MW4 4727   4.096   0.985   2.050  0.0000  0.1848  0.0477
 1164SOL     OW 4728   3.929   1.096   2.231  0.8419  0.1640  0.5617
 1164SOL    HW2 4729   3.924   1.171   2.172 -0.2624 -0.1199  0.3127
 1164SOL    HW3 4730   3.844   1.052   2.221  0.8635 -0.1648  2.0043
 1164SOL    MW4 4731   3.917   1.100   2.222  0.6914  0.0715  0.7391
 1165SOL     OW 4732   3.890   1.321   2.066  0.2554  0.0570  0.0545
 1165SOL    HW2 4733   3.873   1.371   2.146 -0.1546 -0.1321  0.0709
 1165SOL    HW3 4734   3.803   1.295   2.036  0.4436 -0.2921 -0.1814
 1165SOL    MW4 4735   3.876   1.325   2.073  0.2384 -0.0119  0.0477
 1166SOL     OW 4736   4.087   1.491   1.943 -0.1729  0.7786 -0.1369
 1166SOL    HW2 4737   4.096   1.551   2.017  0.7834 -0.8223  1.0454
 1166SOL    HW3 4738   4.011   1.437   1.965  0.2856  0.1463 -0.2332
 1166SOL    MW4 4739   4.078   1.492   1.956  0.0000  0.4888  0.0119
 1167SOL     OW 4740   4.012   1.660   1.725 -0.1923  0.2387 -0.5128
 1167SOL    HW2 4741   3.938   1.701   1.771  0.0938  0.0414  0.0723
 1167SOL    HW3 4742   4.045   1.594   1.785  1.2390  1.1691 -0.2918
 1167SOL    MW4 4743   4.006   1.657   1.739  0.0000  0.3338 -0.4053
 1168SOL     OW 4744   3.664   1.543   1.954 -0.7141  0.1693 -0.2724
 1168SOL    HW2 4745   3.726   1.614   1.938 -0.7393  0.4382  0.8490
 1168SOL    HW3 4746   3.668   1.489   1.875 -0.7257  1.4336 -1.1475
 1168SOL    MW4 4747   3.673   1.545   1.941 -0.7153  0.3695 -0.2503
 1169SOL     OW 4748   3.798   1.811   1.909  0.5568  0.1094  0.2286
 1169SOL    HW2 4749   3.874   1.865   1.930  0.8498 -0.0728 -0.4919
 1169SOL    HW3 4750   3.734   1.832   1.978  0.9524  0.8312  0.3931
 1169SOL    MW4 4751   3.799   1.821   1.921  0.6199  0.1788  0.1550
 1170SOL     OW 4752   3.859   1.966   2.435  0.0981  0.3477  0.8872
 1170SOL    HW2 4753   3.829   2.018   2.360 -0.5705  0.1471  1.0241
 1170SOL    HW3 4754   3.779   1.933   2.475  0.4436  0.4161  1.6647
 1170SOL    MW4 4755   3.845   1.969   2.430  0.0477  0.3338  1.0252
 1171SOL     OW 4756   3.828   2.191   1.252  0.4333  0.2301 -0.3546
 1171SOL    HW2 4757   3.850   2.269   1.304 -0.3274  0.8057 -0.8849
 1171SOL    HW3 4758   3.745   2.161   1.289 -0.0187  0.5396 -1.1517
 1171SOL    MW4 4759   3.820   2.197   1.264  0.2861  0.3576 -0.5364
 1172SOL     OW 4760   3.800   2.496   1.872 -0.8115  0.0405 -0.3966
 1172SOL    HW2 4761   3.829   2.406   1.890 -1.5253 -0.3066 -0.9779
 1172SOL    HW3 4762   3.763   2.526   1.955 -0.9460 -0.3664 -0.3036
 1172SOL    MW4 4763   3.799   2.488   1.886 -0.9298 -0.0477 -0.4649
 1173SOL     OW 4764   3.569   2.418   1.739 -0.5466  0.0327  0.0075
 1173SOL    HW2 4765   3.645   2.453   1.786 -0.3252 -0.0761 -0.3262
 1173SOL    HW3 4766   3.595   2.330   1.712 -0.2232  0.5722 -1.4732
 1173SOL    MW4 4767   3.583   2.411   1.742 -0.4768  0.0715 -0.2265
 1174SOL     OW 4768   4.099   2.572   1.544 -0.5820 -0.0277 -0.2582
 1174SOL    HW2 4769   4.081   2.599   1.635  0.1491  1.1471 -0.4758
 1174SOL    HW3 4770   4.016   2.586   1.498 -0.8853 -0.6129  0.1549
 1174SOL    MW4 4771   4.086   2.577   1.550 -0.5245  0.0715 -0.2265
 1175SOL     OW 4772   3.750   2.892   2.039 -0.5331  0.3220  0.0313
 1175SOL    HW2 4773   3.784   2.832   2.106 -1.0422  1.1160  0.9607
 1175SOL    HW3 4774   3.791   2.863   1.958 -0.6707 -1.2460  0.5010
 1175SOL    MW4 4775   3.760   2.880   2.037 -0.5960  0.2384  0.2384
 1176SOL     OW 4776   3.059   2.680   1.916 -0.5264  0.1698 -0.4366
 1176SOL    HW2 4777   3.143   2.720   1.938 -0.0307  0.0704 -2.1677
 1176SOL    HW3 4778   2.999   2.753   1.910 -0.5397  0.2402  0.7283
 1176SOL    MW4 4779   3.062   2.695   1.918 -0.4530  0.2146 -0.5126
 1177SOL     OW 4780   2.850   2.877   1.858 -0.4720 -0.1426 -0.0643
 1177SOL    HW2 4781   2.851   2.957   1.911 -0.6549  0.1716 -0.5343
 1177SOL    HW3 4782   2.901   2.899   1.780 -1.1730 -0.2697 -0.5523
 1177SOL    MW4 4783   2.857   2.890   1.855 -0.5722 -0.1192 -0.1788
 1178SOL     OW 4784   3.452   2.959   2.219 -0.6292  0.5166  0.1339
 1178SOL    HW2 4785   3.478   3.030   2.277 -1.1897  0.1212  0.9000
 1178SOL    HW3 4786   3.496   2.882   2.255 -0.4836  0.3896 -0.4001
 1178SOL    MW4 4787   3.461   2.958   2.232 -0.6914  0.4530  0.1431
 1179SOL     OW 4788   3.654   3.586   2.550  0.4783  0.2095 -0.5663
 1179SOL    HW2 4789   3.580   3.604   2.608  0.0008  0.3820 -1.2440
 1179SOL    HW3 4790   3.619   3.528   2.483  0.8205  0.8091 -1.2420
 1179SOL    MW4 4791   3.640   3.581   2.549  0.4530  0.3099 -0.7629
 1180SOL     OW 4792   3.625   4.216   1.758 -0.2976  0.6684 -0.1775
 1180SOL    HW2 4793   3.593   4.128   1.778  0.7855  0.1835 -0.7215
 1180SOL    HW3 4794   3.627   4.261   1.842 -0.9495  0.1900  0.0883
 1180SOL    MW4 4795   3.621   4.210   1.771 -0.2384  0.5245 -0.2146
 1181SOL     OW 4796   4.331   4.368   0.649  0.5657  0.9654  0.5710
 1181SOL    HW2 4797   4.271   4.298   0.675  0.4437  1.2580  1.2068
 1181SOL    HW3 4798   4.312   4.381   0.556  0.6196  0.1176  0.4396
 1181SOL    MW4 4799   4.320   4.360   0.640  0.5722  0.8583  0.6378
 1182SOL     OW 4800   3.570   4.420   1.527 -0.4112 -0.4998 -0.2663
 1182SOL    HW2 4801   3.613   4.378   1.601 -0.2187 -0.6622 -0.4442
 1182SOL    HW3 4802   3.568   4.513   1.550  1.2506 -0.3613 -0.8776
 1182SOL    MW4 4803   3.575   4.427   1.540 -0.1669 -0.4768 -0.3695
 1183SOL     OW 4804   3.917   4.453   2.067 -0.4125 -0.2301  0.0057
 1183SOL    HW2 4805   3.913   4.545   2.092 -0.8637 -0.4391  0.6260
 1183SOL    HW3 4806   3.974   4.452   1.990  1.3741  0.2830  1.2939
 1183SOL    MW4 4807   3.924   4.465   2.060 -0.1907 -0.2384  0.2623
 1184SOL     OW 4808   4.252   0.525   2.307 -0.5181  0.0603 -0.1370
 1184SOL    HW2 4809   4.174   0.470   2.311 -0.2935 -0.2953 -0.2758
 1184SOL    HW3 4810   4.218   0.611   2.279 -0.8368 -0.1316 -0.3303
 1184SOL    MW4 4811   4.237   0.529   2.304 -0.5245 -0.0119 -0.1669
 1185SOL     OW 4812   4.150   0.744   2.203 -0.1674 -0.2596  0.1479
 1185SOL    HW2 4813   4.059   0.747   2.232 -0.6343 -0.3414 -1.2371
 1185SOL    HW3 4814   4.180   0.835   2.209  0.4575 -0.7032  3.2032
 1185SOL    MW4 4815   4.142   0.757   2.208 -0.1431 -0.3338  0.3576
 1186SOL     OW 4816   4.386   1.165   1.971 -0.7713  0.4209  0.2734
 1186SOL    HW2 4817   4.443   1.119   2.033  1.0330  1.4929 -0.5269
 1186SOL    HW3 4818   4.367   1.100   1.903 -0.6933 -0.0254  0.6849
 1186SOL    MW4 4819   4.391   1.150   1.970 -0.5245  0.5007  0.2146
 1187SOL     OW 4820   4.397   1.437   1.861  0.5082  0.2424 -0.8147
 1187SOL    HW2 4821   4.384   1.357   1.910  0.8265  0.5871 -0.1668
 1187SOL    HW3 4822   4.319   1.445   1.806  0.0225  0.1133 -0.0794
 1187SOL    MW4 4823   4.385   1.428   1.860  0.5245  0.2623 -0.6318
 1188SOL     OW 4824   4.204   1.265   2.149 -0.3719  0.4924  0.4359
 1188SOL    HW2 4825   4.263   1.233   2.081 -0.8471 -0.4246  0.4301
 1188SOL    HW3 4826   4.160   1.340   2.110  0.4054  0.8306  0.2199
 1188SOL    MW4 4827   4.206   1.270   2.135 -0.3338  0.4053  0.4053
 1189SOL     OW 4828   4.343   1.693   1.550  0.7991  0.3769 -1.3515
 1189SOL    HW2 4829   4.283   1.621   1.570  0.1818  0.7730 -1.7557
 1189SOL    HW3 4830   4.367   1.729   1.635  0.9798 -0.2091 -1.1530
 1189SOL    MW4 4831   4.339   1.688   1.563  0.8106  0.3457 -1.3709
 1190SOL     OW 4832   4.355   1.726   1.843 -0.0186  0.0269 -0.9219
 1190SOL    HW2 4833   4.303   1.751   1.919  0.7504  0.5806 -0.6014
 1190SOL    HW3 4834   4.360   1.631   1.848  0.2187  0.0815 -0.1591
 1190SOL    MW4 4835   4.349   1.717   1.854  0.1431  0.1192 -0.7868
 1191SOL     OW 4836   4.174   1.932   1.735  0.4031 -0.2164 -0.4028
 1191SOL    HW2 4837   4.259   1.973   1.750  0.6705 -0.6876 -0.5302
 1191SOL    HW3 4838   4.194   1.838   1.731 -0.0100 -0.2498 -1.2618
 1191SOL    MW4 4839   4.188   1.925   1.737  0.3815 -0.2861 -0.5245
 1192SOL     OW 4840   4.017   1.958   1.966  0.3549  0.4297  0.3924
 1192SOL    HW2 4841   4.072   1.908   2.026  0.7539 -0.0410 -0.3414
 1192SOL    HW3 4842   4.064   1.957   1.883 -0.9384 -0.3240 -0.3566
 1192SOL    MW4 4843   4.031   1.951   1.963  0.2384  0.2623  0.2027
 1193SOL     OW 4844   3.902   2.222   1.872 -0.0518 -0.1721 -0.2875
 1193SOL    HW2 4845   3.935   2.144   1.917 -0.2329 -0.4265 -0.5907
 1193SOL    HW3 4846   3.828   2.190   1.820 -0.2446  0.2452 -0.2652
 1193SOL    MW4 4847   3.896   2.208   1.871 -0.1192 -0.1669 -0.3219
 1194SOL     OW 4848   0.040   1.992   1.596  0.7161 -0.4518 -0.5456
 1194SOL    HW2 4849   0.012   2.029   1.680  0.9115 -0.2931 -0.5468
 1194SOL    HW3 4850  -0.028   2.019   1.534 -0.0934 -1.6388 -0.1861
 1194SOL    MW4 4851   0.027   2.000   1.599  0.6348 -0.5960 -0.5007
 1195SOL     OW 4852   3.979   2.247   1.590 -0.1422  0.4784 -0.1984
 1195SOL    HW2 4853   3.998   2.227   1.681 -0.7814  0.9973  0.0307
 1195SOL    HW3 4854   4.031   2.184   1.540  0.4873  0.4454  0.4832
 1195SOL    MW4 4855   3.988   2.236   1.595 -0.1431  0.5245 -0.0715
 1196SOL     OW 4856   4.127   2.350   1.345  0.1601  0.2392 -0.4258
 1196SOL    HW2 4857   4.206   2.403   1.352 -0.5821  1.3466 -0.5558
 1196SOL    HW3 4858   4.082   2.362   1.429 -0.1861  0.1876 -0.6235
 1196SOL    MW4 4859   4.131   2.359   1.357  0.0000  0.3815 -0.4649
 1197SOL     OW 4860   4.354   2.549   1.410  0.5590  0.8941  0.6614
 1197SOL    HW2 4861   4.416   2.585   1.474  0.8619  0.6790  0.4825
 1197SOL    HW3 4862   4.268   2.574   1.444  0.7317  1.5893  0.6412
 1197SOL    MW4 4863   4.351   2.557   1.423  0.5722  0.9775  0.6318
 1198SOL     OW 4864   4.135   2.945   1.877 -0.1747  0.3277 -0.1528
 1198SOL    HW2 4865   4.212   2.947   1.821  0.0350  1.0203  0.1564
 1198SOL    HW3 4866   4.067   2.907   1.821  0.4443 -0.5374 -0.3289
 1198SOL    MW4 4867   4.136   2.940   1.862 -0.0954  0.3099 -0.1311
 1199SOL     OW 4868   4.027   3.210   1.950  0.0681  0.3454  0.7972
 1199SOL    HW2 4869   4.020   3.214   2.046  0.2775 -0.6431  0.8491
 1199SOL    HW3 4870   4.060   3.122   1.932  0.0578  0.5442 -0.2002
 1199SOL    MW4 4871   4.031   3.199   1.960  0.0954  0.2146  0.6795
 1200SOL     OW 4872   3.915   3.078   2.201  0.0753  0.0219  0.0938
 1200SOL    HW2 4873   3.967   3.000   2.181 -0.3062 -0.3313  0.5056
 1200SOL    HW3 4874   3.832   3.064   2.155 -0.5042 -0.4056  1.3067
 1200SOL    MW4 4875   3.911   3.066   2.192 -0.0477 -0.0954  0.3099
 1201SOL     OW 4876   3.493   2.957   1.958 -0.6717 -0.3296 -0.7807
 1201SOL    HW2 4877   3.452   2.982   2.041  0.8673  0.1593 -0.1430
 1201SOL    HW3 4878   3.578   2.920   1.984 -0.2418 -0.3291 -2.1083
 1201SOL    MW4 4879   3.499   2.955   1.973 -0.3815 -0.2861 -0.8583
 1202SOL     OW 4880   4.300   3.124   2.519  0.0745  0.1489  0.6679
 1202SOL    HW2 4881   4.301   3.119   2.424 -0.8532  0.4139  0.6625
 1202SOL    HW3 4882   4.252   3.205   2.538 -1.3895 -0.9107  1.4094
 1202SOL    MW4 4883   4.294   3.134   2.509 -0.1907  0.0238  0.7629
 1203SOL     OW 4884   3.952   3.888   2.236 -0.5540 -0.6828 -0.3422
 1203SOL    HW2 4885   3.996   3.954   2.289 -2.5833  0.9514 -0.6928
 1203SOL    HW3 4886   3.917   3.826   2.300 -1.0981  0.1156  0.1463
 1203SOL    MW4 4887   3.953   3.888   2.252 -0.8821 -0.3576 -0.3099
 1204SOL     OW 4888   3.654   4.390   1.954 -0.2636  0.2142 -0.4067
 1204SOL    HW2 4889   3.737   4.428   1.981 -0.3127  0.9098 -1.1498
 1204SOL    HW3 4890   3.612   4.363   2.036  0.0102  1.2827  0.0584
 1204SOL    MW4 4891   3.659   4.391   1.968 -0.2146  0.4768 -0.4411
 1205SOL     OW 4892   3.841   3.615   1.244 -0.9977 -0.0464 -0.1585
 1205SOL    HW2 4893   3.903   3.659   1.304 -0.8767 -1.3948  0.6744
 1205SOL    HW3 4894   3.875   3.634   1.157  0.8901 -1.2319  0.3205
 1205SOL    MW4 4895   3.854   3.623   1.241 -0.7153 -0.4053  0.0119
 1206SOL     OW 4896   3.610   3.816   1.508 -0.8334 -0.0635  0.0202
 1206SOL    HW2 4897   3.642   3.859   1.429 -0.7560 -0.2596 -0.0455
 1206SOL    HW3 4898   3.688   3.774   1.546 -0.9964 -0.3805 -0.0657
 1206SOL    MW4 4899   3.625   3.816   1.503 -0.8345 -0.1431  0.0000
 1207SOL     OW 4900   3.989   0.029   1.693 -0.1583  0.8130  0.0280
 1207SOL    HW2 4901   4.075   0.070   1.688  0.0712  0.3625  1.0790
 1207SOL    HW3 4902   4.001  -0.045   1.753 -1.3436  0.9839  0.4284
 1207SOL    MW4 4903   4.002   0.025   1.700 -0.2861  0.7724  0.2146
 1208SOL     OW 4904   3.820   0.429   2.068 -0.6977 -0.3025  0.1931
 1208SOL    HW2 4905   3.832   0.387   2.153 -0.2029 -1.4284 -0.4628
 1208SOL    HW3 4906   3.903   0.473   2.051 -0.6654 -0.3379  0.1383
 1208SOL    MW4 4907   3.832   0.429   2.077 -0.6437 -0.4530  0.0954
 1209SOL     OW 4908   4.222   0.569   2.583  0.3488  0.0303 -0.1009
 1209SOL    HW2 4909   4.137   0.611   2.589  0.3250 -0.0100  0.7354
 1209SOL    HW3 4910   4.241   0.564   2.489 -0.4593  0.3270 -0.2386
 1209SOL    MW4 4911   4.213   0.573   2.572  0.2384  0.0596  0.0000
 1210SOL     OW 4912   4.468   0.750   2.367 -0.2770  0.5001 -0.0240
 1210SOL    HW2 4913   4.434   0.741   2.456 -1.0241  1.0259 -0.2649
 1210SOL    HW3 4914   4.455   0.664   2.327 -0.2345  0.3658  0.2596
 1210SOL    MW4 4915   4.462   0.737   2.373 -0.3815  0.5484  0.0000
 1211SOL     OW 4916   0.215   0.833   2.478  0.1570  0.1097  0.5526
 1211SOL    HW2 4917   0.217   0.779   2.557 -0.0124  0.6840  0.9249
 1211SOL    HW3 4918   0.131   0.812   2.437 -0.1193  0.4338  0.9617
 1211SOL    MW4 4919   0.204   0.823   2.483  0.0969  0.2325  0.6437
 1212SOL     OW 4920   4.041   0.941   2.482 -0.2770  0.2691  0.1646
 1212SOL    HW2 4921   4.066   0.978   2.567  0.2116 -0.9797  0.5598
 1212SOL    HW3 4922   4.109   0.971   2.422  0.7978 -1.0388  0.7356
 1212SOL    MW4 4923   4.053   0.950   2.486 -0.0954 -0.0656  0.2861
 1213SOL     OW 4924   4.393   1.184   2.487 -0.4320 -0.1012 -0.0899
 1213SOL    HW2 4925   4.368   1.149   2.573 -0.3190 -0.9272 -0.4024
 1213SOL    HW3 4926   4.483   1.154   2.474 -0.0611  0.8737 -0.0312
 1213SOL    MW4 4927   4.402   1.176   2.497 -0.3815 -0.0834 -0.1192
 1214SOL     OW 4928   0.309   1.258   2.608  0.1028  0.0675  0.4659
 1214SOL    HW2 4929   0.255   1.295   2.678 -0.6188  0.3467 -0.2128
 1214SOL    HW3 4930   0.248   1.207   2.555  0.4964  0.5329 -0.4441
 1214SOL    MW4 4931   0.294   1.256   2.611  0.0596  0.1669  0.2623
 1215SOL     OW 4932   0.344   1.652   2.547 -0.2152 -0.2388 -0.2697
 1215SOL    HW2 4933   0.431   1.671   2.582 -0.0682 -0.4921 -0.4854
 1215SOL    HW3 4934   0.356   1.570   2.498 -0.7431 -0.6571  0.3071
 1215SOL    MW4 4935   0.357   1.644   2.545 -0.2652 -0.3338 -0.2146
 1216SOL     OW 4936   0.121   1.513   2.272  0.0220  0.1189  0.5543
 1216SOL    HW2 4937   0.043   1.493   2.324  0.4809 -0.6682  0.9308
 1216SOL    HW3 4938   0.126   1.442   2.208 -0.0652  0.6413 -0.0151
 1216SOL    MW4 4939   0.111   1.501   2.270  0.0708  0.0954  0.5484
 1217SOL     OW 4940   4.476   1.574   2.637 -0.6826 -0.0994  0.5152
 1217SOL    HW2 4941   4.444   1.532   2.556 -0.1150 -1.2157  0.8814
 1217SOL    HW3 4942   4.487   1.666   2.613 -1.1842 -0.2943 -0.4801
 1217SOL    MW4 4943   4.473   1.580   2.623 -0.7153 -0.2742  0.4292
 1218SOL     OW 4944   0.396   2.566   1.894 -0.1612  0.7808 -0.3210
 1218SOL    HW2 4945   0.352   2.516   1.963 -0.0109  1.9539  0.6444
 1218SOL    HW3 4946   0.345   2.549   1.815 -0.4505 -0.3992  0.1301
 1218SOL    MW4 4947   0.383   2.557   1.893 -0.1788  0.7868 -0.1311
 1219SOL     OW 4948   0.026   2.659   1.602 -0.2372 -0.1772 -0.1635
 1219SOL    HW2 4949  -0.032   2.678   1.676 -1.0358 -1.5726 -0.4545
 1219SOL    HW3 4950   0.096   2.605   1.640 -0.4803 -0.6156 -0.3618
 1219SOL    MW4 4951   0.027   2.654   1.617 -0.3826 -0.4292 -0.2265
 1220SOL     OW 4952   4.091   1.912   1.470 -0.0757 -0.4015  0.1971
 1220SOL    HW2 4953   4.158   1.974   1.445 -0.1489 -0.1292  0.7442
 1220SOL    HW3 4954   4.095   1.909   1.566 -0.1291 -1.1534  0.1800
 1220SOL    MW4 4955   4.100   1.919   1.480 -0.1431 -0.4530  0.2623
 1221SOL     OW 4956   4.475   2.108   1.843 -0.1298 -0.2098 -0.3875
 1221SOL    HW2 4957   4.426   2.190   1.855  0.1471 -0.0434 -0.6249
 1221SOL    HW3 4958   4.554   2.120   1.897 -0.5115 -0.6547  0.2984
 1221SOL    MW4 4959   4.479   2.121   1.852 -0.1431 -0.2623 -0.3338
 1222SOL     OW 4960   0.400   2.968   2.341  0.5558 -0.2758  0.3761
 1222SOL    HW2 4961   0.341   2.980   2.266  0.3542 -0.8967  0.4404
 1222SOL    HW3 4962   0.346   2.926   2.407  0.8174 -0.0161  0.7606
 1222SOL    MW4 4963   0.385   2.964   2.340  0.5633 -0.3576  0.4530
 1223SOL     OW 4964   0.344   3.343   2.790  0.6274 -0.5658  0.1386
 1223SOL    HW2 4965   0.306   3.425   2.758  0.6221 -0.9790 -0.9145
 1223SOL    HW3 4966   0.312   3.335   2.880  0.6747  0.6066  0.2617
 1223SOL    MW4 4967   0.334   3.352   2.797  0.6348 -0.4530  0.0238
 1224SOL     OW 4968   0.181   2.850   2.506 -0.1337  0.3261 -0.1742
 1224SOL    HW2 4969   0.247   2.847   2.575 -0.1999  0.8508 -0.0866
 1224SOL    HW3 4970   0.147   2.940   2.509 -1.6950 -0.2653  0.5853
 1224SOL    MW4 4971   0.185   2.861   2.516 -0.3502  0.3338 -0.0715
 1225SOL     OW 4972   4.116   3.339   2.207  0.1700 -0.5256 -0.2485
 1225SOL    HW2 4973   4.178   3.266   2.200  0.8880 -0.1137  1.2745
 1225SOL    HW3 4974   4.143   3.386   2.286 -0.8339  0.8033 -0.6771
 1225SOL    MW4 4975   4.127   3.335   2.216  0.1907 -0.3099 -0.0954
 1226SOL     OW 4976   3.861   3.389   2.310  0.0324 -0.1357  0.4753
 1226SOL    HW2 4977   3.798   3.345   2.253 -1.2015 -1.2557  2.6973
 1226SOL    HW3 4978   3.947   3.363   2.274 -0.7337 -1.0558 -0.6739
 1226SOL    MW4 4979   3.864   3.380   2.298 -0.2146 -0.4053  0.5960
 1227SOL     OW 4980   4.379   4.147   2.579 -0.3728 -0.2632 -0.0675
 1227SOL    HW2 4981   4.454   4.125   2.635 -1.3211 -0.3915  1.1591
 1227SOL    HW3 4982   4.388   4.241   2.564 -0.7938  0.0501  1.3121
 1227SOL    MW4 4983   4.390   4.156   2.584 -0.5722 -0.1907  0.2623
 1228SOL     OW 4984   4.280   4.322   2.854 -0.7096 -0.0889  0.1054
 1228SOL    HW2 4985   4.249   4.347   2.767 -1.7424 -1.8457 -0.0315
 1228SOL    HW3 4986   4.270   4.227   2.857  0.1346 -0.1424  1.8161
 1228SOL    MW4 4987   4.275   4.313   2.843 -0.7629 -0.2861  0.3099
 1229SOL     OW 4988   3.755   3.688   1.951 -0.0561  0.1062 -0.2916
 1229SOL    HW2 4989   3.844   3.701   1.919  0.3013  0.2874  0.7647
 1229SOL    HW3 4990   3.712   3.772   1.938 -0.3524 -0.2902 -1.6107
 1229SOL    MW4 4991   3.761   3.700   1.945 -0.0477  0.0715 -0.3219
 1230SOL     OW 4992   4.143   3.822   1.687 -0.6720  0.9425 -0.0875
 1230SOL    HW2 4993   4.121   3.879   1.762 -1.7648  0.7694 -0.2839
 1230SOL    HW3 4994   4.077   3.753   1.689 -0.2140  0.4752 -0.7066
 1230SOL    MW4 4995   4.132   3.821   1.697 -0.7153  0.8821 -0.1907
 1231SOL     OW 4996   0.561   4.439   1.074 -0.2916 -0.3883 -0.6634
 1231SOL    HW2 4997   0.554   4.448   1.169  0.9069 -0.3903 -0.5690
 1231SOL    HW3 4998   0.565   4.529   1.041 -1.1039 -0.3757 -0.7308
 1231SOL    MW4 4999   0.561   4.452   1.082 -0.2444 -0.3815 -0.6557
 1232SOL     OW 5000   4.050   4.466   1.819 -0.7587 -0.0063 -0.0195
 1232SOL    HW2 5001   4.144   4.480   1.805 -0.9494  1.1949  0.1049
 1232SOL    HW3 5002   4.038   4.372   1.805  0.3262  0.0076 -0.9047
 1232SOL    MW4 5003   4.061   4.455   1.815 -0.6199  0.1431 -0.1192
 1233SOL     OW 5004   0.299   0.585   1.949  0.2624 -0.0623 -0.2052
 1233SOL    HW2 5005   0.286   0.651   2.017 -0.3194 -0.1258 -0.2660
 1233SOL    HW3 5006   0.315   0.504   1.997  0.6348  0.0516 -0.1573
 1233SOL    MW4 5007   0.299   0.583   1.964  0.2325 -0.0477 -0.1907
 1234SOL     OW 5008   0.535   0.533   1.801  0.0461  0.2205 -0.6593
 1234SOL    HW2 5009   0.597   0.493   1.862 -0.0493  0.8728 -0.1186
 1234SOL    HW3 5010   0.455   0.544   1.852 -0.2089  0.2480 -1.0596
 1234SOL    MW4 5011   0.533   0.530   1.816  0.0000  0.3159 -0.6318
 1235SOL     OW 5012   0.516   0.487   2.292 -0.3107  0.0111  0.1593
 1235SOL    HW2 5013   0.460   0.450   2.223  0.4445 -0.6987 -0.0397
 1235SOL    HW3 5014   0.476   0.572   2.312 -1.2544 -0.3299 -0.2643
 1235SOL    MW4 5015   0.503   0.493   2.286 -0.3397 -0.1281  0.0715
 1236SOL     OW 5016   0.479   0.742   2.361 -0.1820  0.0748 -0.1551
 1236SOL    HW2 5017   0.464   0.742   2.456  0.4182 -1.0834 -0.0566
 1236SOL    HW3 5018   0.468   0.833   2.335  1.6648  0.7429  1.3425
 1236SOL    MW4 5019   0.476   0.754   2.370  0.1401  0.0119  0.0477
 1237SOL     OW 5020   0.500   1.037   2.565  0.2663 -0.3285  0.2979
 1237SOL    HW2 5021   0.468   1.010   2.478  0.5625 -1.1462  0.4786
 1237SOL    HW3 5022   0.446   1.112   2.588  0.2409 -0.0530 -0.6246
 1237SOL    MW4 5023   0.489   1.043   2.556  0.3040 -0.4053  0.2146
 1238SOL     OW 5024   0.716   1.181   2.640  0.2231  0.4417  0.1100
 1238SOL    HW2 5025   0.668   1.263   2.643  0.4727  0.5753  0.3714
 1238SOL    HW3 5026   0.653   1.117   2.605  0.0233  0.7091 -0.0027
 1238SOL    MW4 5027   0.701   1.183   2.636  0.2325  0.4888  0.1192
 1239SOL     OW 5028   0.581   1.418   2.672 -0.0039  0.0412  0.0422
 1239SOL    HW2 5029   0.559   1.437   2.763 -0.0526  1.1056 -0.1917
 1239SOL    HW3 5030   0.656   1.473   2.653 -0.5247  0.4442 -0.8171
 1239SOL    MW4 5031   0.588   1.427   2.682 -0.0834  0.2384 -0.0954
 1240SOL     OW 5032   0.381   1.851   2.350 -0.0926 -0.3040 -0.6267
 1240SOL    HW2 5033   0.450   1.895   2.400 -0.3720 -0.1993 -0.3143
 1240SOL    HW3 5034   0.361   1.772   2.399  0.8640 -1.0679 -1.4670
 1240SOL    MW4 5035   0.388   1.847   2.363 -0.0060 -0.3934 -0.6914
 1241SOL     OW 5036   0.095   1.868   2.375  0.3818  0.2347 -0.5361
 1241SOL    HW2 5037   0.077   1.868   2.469  0.6267 -0.8080 -0.5178
 1241SOL    HW3 5038   0.190   1.854   2.368  0.5398  1.4578 -0.9005
 1241SOL    MW4 5039   0.105   1.866   2.386  0.4359  0.2503 -0.5960
 1242SOL     OW 5040   0.403   1.923   2.069  0.0707  0.6427 -0.2451
 1242SOL    HW2 5041   0.399   1.884   2.156 -0.1358  0.2037 -0.4549
 1242SOL    HW3 5042   0.460   2.000   2.080 -0.2067  0.7596  0.3510
 1242SOL    MW4 5043   0.410   1.928   2.082  0.0060  0.5960 -0.1669
 1243SOL     OW 5044   0.587   2.349   1.890  0.0501  0.0032  0.0175
 1243SOL    HW2 5045   0.494   2.370   1.889  0.0744  0.1068  0.6149
 1243SOL    HW3 5046   0.631   2.434   1.879  0.1136  0.1257  1.3644
 1243SOL    MW4 5047   0.581   2.363   1.888  0.0715  0.0477  0.2861
 1244SOL     OW 5048   0.160   2.844   1.791 -0.5092 -0.4012  0.4386
 1244SOL    HW2 5049   0.245   2.887   1.779 -0.6085 -0.1059  0.8084
 1244SOL    HW3 5050   0.137   2.809   1.705 -0.1208 -0.2906  0.2912
 1244SOL    MW4 5051   0.168   2.845   1.778 -0.4709 -0.3338  0.4649
 1245SOL     OW 5052   4.438   2.957   2.000 -0.4348  0.3219  0.7182
 1245SOL    HW2 5053   4.424   2.868   1.968 -0.1192 -0.2097  1.9610
 1245SOL    HW3 5054   4.531   2.959   2.025 -0.2345  1.2187 -0.0467
 1245SOL    MW4 5055   4.449   2.946   1.999 -0.3338  0.3815  0.7868
 1246SOL     OW 5056   0.195   2.940   2.122 -0.2458 -0.0602  0.4061
 1246SOL    HW2 5057   0.154   2.863   2.162  0.0589 -0.0492  0.7537
 1246SOL    HW3 5058   0.258   2.904   2.060  0.3571 -0.1248  1.0347
 1246SOL    MW4 5059   0.198   2.925   2.119 -0.1252 -0.0715  0.5484
 1247SOL     OW 5060   0.081   3.438   2.527  0.4282  0.0369 -0.3065
 1247SOL    HW2 5061   0.166   3.457   2.487 -0.1034  1.2101 -0.8901
 1247SOL    HW3 5062   0.098   3.366   2.587  1.6881 -0.2436 -0.9940
 1247SOL    MW4 5063   0.095   3.431   2.529  0.5238  0.1431 -0.4530
 1248SOL     OW 5064   4.317   4.035   2.898 -0.2869  0.9180  0.2686
 1248SOL    HW2 5065   4.337   3.945   2.924 -1.5012  0.4684 -0.3298
 1248SOL    HW3 5066   4.321   4.034   2.803  0.8462  1.6884  0.2890
 1248SOL    MW4 5067   4.320   4.023   2.889 -0.2384  0.9537  0.1669
 1249SOL     OW 5068   0.175   3.562   3.064  0.1653  0.4285 -0.0549
 1249SOL    HW2 5069   0.171   3.587   2.972 -0.4354  0.1775 -0.0943
 1249SOL    HW3 5070   0.084   3.562   3.094  0.2243 -0.9504  0.1287
 1249SOL    MW4 5071   0.163   3.565   3.056  0.0939  0.1907 -0.0238
 1250SOL     OW 5072   0.297   3.186   1.807 -0.2088 -0.1536 -0.8784
 1250SOL    HW2 5073   0.377   3.238   1.815 -0.4810 -0.0715  1.2199
 1250SOL    HW3 5074   0.235   3.227   1.867 -0.5673 -2.6563  0.4270
 1250SOL    MW4 5075   0.300   3.198   1.816 -0.2891 -0.4768 -0.4411
 1251SOL     OW 5076   0.160   3.196   2.242  0.5475  0.0105  1.2248
 1251SOL    HW2 5077   0.155   3.251   2.163  1.4871 -0.3749  0.8561
 1251SOL    HW3 5078   0.168   3.107   2.208  1.6073 -0.1010  1.6933
 1251SOL    MW4 5079   0.161   3.192   2.227  0.8121 -0.0715  1.2398
 1252SOL     OW 5080   4.254   3.839   2.538 -0.5486 -0.1057 -0.0557
 1252SOL    HW2 5081   4.244   3.933   2.550 -0.0309 -0.1346  0.7895
 1252SOL    HW3 5082   4.341   3.820   2.573 -0.0218 -0.5986 -1.5753
 1252SOL    MW4 5083   4.264   3.849   2.545 -0.3815 -0.1907 -0.1192
 1253SOL     OW 5084   4.162   4.007   1.899  0.4084 -0.4173 -0.5226
 1253SOL    HW2 5085   4.094   4.069   1.925  0.3685 -0.4828 -0.3256
 1253SOL    HW3 5086   4.154   3.935   1.961  1.2653 -0.0251  0.0070
 1253SOL    MW4 5087   4.152   4.006   1.911  0.5722 -0.4292 -0.4292
 1254SOL     OW 5088   4.417   3.885   1.675  0.2527 -0.6742 -0.0960
 1254SOL    HW2 5089   4.439   3.910   1.764  0.6508 -0.4937 -0.2296
 1254SOL    HW3 5090   4.324   3.862   1.678 -0.6688  2.9485 -0.4078
 1254SOL    MW4 5091   4.407   3.885   1.687  0.1431 -0.1669 -0.1550
 1255SOL     OW 5092   1.690   3.969   2.088 -0.1555  0.0631 -0.3336
 1255SOL    HW2 5093   1.770   3.973   2.036 -0.1360  0.2751 -0.2971
 1255SOL    HW3 5094   1.643   4.049   2.066 -0.3712 -0.0445 -0.4070
 1255SOL    MW4 5095   1.694   3.980   2.078 -0.1669  0.0715 -0.3338
 1256SOL     OW 5096   1.175   4.599   1.883  0.3314  0.4890  0.0833
 1256SOL    HW2 5097   1.147   4.690   1.873 -0.1349  0.2696 -0.4426
 1256SOL    HW3 5098   1.095   4.552   1.908  0.5017  0.1439  0.0527
 1256SOL    MW4 5099   1.161   4.605   1.885  0.2980  0.4292  0.0000
 1257SOL     OW 5100   0.715   0.106   2.088  0.2169 -0.5617  0.2535
 1257SOL    HW2 5101   0.727   0.195   2.054  1.0655 -1.1867 -1.0841
 1257SOL    HW3 5102   0.620   0.096   2.095  0.0928  0.2171 -0.1840
 1257SOL    MW4 5103   0.704   0.117   2.084  0.3099 -0.5417  0.0477
 1258SOL     OW 5104   0.491   0.382   2.556 -0.1019  0.4313  0.1887
 1258SOL    HW2 5105   0.540   0.302   2.535 -1.2782 -0.0145 -0.9143
 1258SOL    HW3 5106   0.487   0.430   2.473 -0.6872  0.9211  0.4874
 1258SOL    MW4 5107   0.497   0.378   2.542 -0.3338  0.4411  0.0954
 1259SOL     OW 5108   0.788   0.917   2.957 -0.3489 -0.5587  0.3858
 1259SOL    HW2 5109   0.791   0.877   2.870 -0.7241 -0.6469  0.4097
 1259SOL    HW3 5110   0.870   0.966   2.964 -0.9369  0.5563 -0.5419
 1259SOL    MW4 5111   0.799   0.918   2.946 -0.4828 -0.4232  0.2861
 1260SOL     OW 5112   0.788   0.875   2.667 -0.1875  0.2883  0.4363
 1260SOL    HW2 5113   0.705   0.891   2.622  0.0517  0.5050  0.0636
 1260SOL    HW3 5114   0.813   0.786   2.639 -0.6297 -0.0383  1.0347
 1260SOL    MW4 5115   0.780   0.865   2.657 -0.2086  0.2742  0.4530
 1261SOL     OW 5116   0.529   0.997   2.868 -0.1697 -0.0928  0.4432
 1261SOL    HW2 5117   0.610   0.961   2.903  0.1980 -0.4509 -0.7564
 1261SOL    HW3 5118   0.556   1.067   2.809 -0.7239 -0.2342  0.0270
 1261SOL    MW4 5119   0.543   1.001   2.865 -0.1907 -0.1669  0.2384
 1262SOL     OW 5120   0.771   1.240   2.897 -0.0333 -0.3353  0.9622
 1262SOL    HW2 5121   0.864   1.224   2.912  0.0751  0.0636  0.6750
 1262SOL    HW3 5122   0.759   1.223   2.803 -0.4734 -1.4850  1.2001
 1262SOL    MW4 5123   0.781   1.235   2.887 -0.0775 -0.4292  0.9298
 1263SOL     OW 5124   1.083   1.530   2.804 -0.0993 -0.1762  0.5339
 1263SOL    HW2 5125   0.993   1.535   2.771 -0.2214  0.2828  0.9403
 1263SOL    HW3 5126   1.117   1.448   2.767 -0.4004  0.0830 -0.3722
 1263SOL    MW4 5127   1.076   1.520   2.795 -0.1669 -0.0834  0.4530
 1264SOL     OW 5128   0.829   1.544   2.688 -0.0701 -0.4744  0.4841
 1264SOL    HW2 5129   0.769   1.618   2.701 -0.0315 -0.4383  0.4941
 1264SOL    HW3 5130   0.861   1.554   2.599 -0.2228 -0.5814  0.4141
 1264SOL    MW4 5131   0.825   1.555   2.678 -0.0834 -0.4888  0.4768
 1265SOL     OW 5132   0.605   1.722   2.643 -0.6190 -0.7165  0.3711
 1265SOL    HW2 5133   0.565   1.750   2.725  1.0128 -1.3787  1.4220
 1265SOL    HW3 5134   0.612   1.802   2.591 -2.0725 -0.3705  0.7087
 1265SOL    MW4 5135   0.601   1.736   2.647 -0.5960 -0.7510  0.5722
 1266SOL     OW 5136   0.581   1.968   2.521 -0.4711  0.3297  0.4064
 1266SOL    HW2 5137   0.610   2.005   2.605  1.3682  0.5851 -0.3546
 1266SOL    HW3 5138   0.621   2.025   2.455 -0.0913 -1.2211 -0.7115
 1266SOL    MW4 5139   0.590   1.981   2.524 -0.1729  0.1431  0.1669
 1267SOL     OW 5140   0.411   2.355   2.327 -0.0814 -0.2048 -0.2702
 1267SOL    HW2 5141   0.503   2.381   2.325 -0.0506 -0.3055  0.0992
 1267SOL    HW3 5142   0.389   2.336   2.236  0.1366  0.2313 -0.3826
 1267SOL    MW4 5143   0.420   2.356   2.315 -0.0447 -0.1669 -0.2384
 1268SOL     OW 5144   0.595   2.976   1.370 -0.3707  0.0832  0.6099
 1268SOL    HW2 5145   0.602   3.052   1.427 -0.0307  0.4898 -0.0033
 1268SOL    HW3 5146   0.660   2.991   1.301 -0.2337 -0.8138  0.5460
 1268SOL    MW4 5147   0.605   2.988   1.368 -0.3099  0.0238  0.5245
 1269SOL     OW 5148   1.145   3.055   1.720 -0.1222 -0.0895 -0.1304
 1269SOL    HW2 5149   1.171   3.142   1.690 -0.0862  0.0270  0.2136
 1269SOL    HW3 5150   1.056   3.044   1.685  0.3667 -0.4466 -1.2831
 1269SOL    MW4 5151   1.137   3.065   1.711 -0.0596 -0.1192 -0.2265
 1270SOL     OW 5152   0.614   3.041   1.015 -0.7467  0.1417  0.0371
 1270SOL    HW2 5153   0.626   3.092   0.935 -0.6335 -0.8294 -0.5502
 1270SOL    HW3 5154   0.578   2.958   0.986  0.3115 -0.6052  0.8743
 1270SOL    MW4 5155   0.611   3.037   1.001 -0.5841 -0.0954  0.0596
 1271SOL     OW 5156   2.603   2.929   0.520 -0.3902  0.0717  0.0500
 1271SOL    HW2 5157   2.677   2.944   0.462 -1.0877  0.8175 -0.6442
 1271SOL    HW3 5158   2.618   2.989   0.594  0.3762 -0.7164  0.5353
 1271SOL    MW4 5159   2.615   2.939   0.522 -0.3815  0.0954  0.0179
 1272SOL     OW 5160   0.440   3.274   0.825 -0.3450 -0.4526  0.0024
 1272SOL    HW2 5161   0.507   3.296   0.760 -0.5507 -0.3060 -0.1607
 1272SOL    HW3 5162   0.425   3.355   0.873  0.8370 -0.8935  1.1395
 1272SOL    MW4 5163   0.447   3.287   0.822 -0.2176 -0.4768  0.1311
 1273SOL     OW 5164   1.305   3.760   1.670  0.4157 -0.2061 -0.1173
 1273SOL    HW2 5165   1.353   3.766   1.588  0.2988 -1.0164 -0.2587
 1273SOL    HW3 5166   1.373   3.760   1.738  0.7428 -3.2181 -0.4057
 1273SOL    MW4 5167   1.320   3.761   1.668  0.4411 -0.7391 -0.1788
 1274SOL     OW 5168   1.507   3.320   1.457  0.7172 -0.0555  0.7208
 1274SOL    HW2 5169   1.549   3.386   1.402  0.2274  0.1560  0.5718
 1274SOL    HW3 5170   1.421   3.308   1.418  0.7565 -0.6980  0.7804
 1274SOL    MW4 5171   1.502   3.327   1.444  0.6557 -0.0954  0.7153
 1275SOL     OW 5172   0.843   4.128   1.314  0.4371  0.5255 -0.1378
 1275SOL    HW2 5173   0.899   4.140   1.238 -0.9440  1.2560 -1.0491
 1275SOL    HW3 5174   0.805   4.041   1.301  1.2220  0.1000  0.3384
 1275SOL    MW4 5175   0.845   4.118   1.302  0.3576  0.5722 -0.1907
 1276SOL     OW 5176   1.338   0.098   0.622  0.9419 -0.3707 -0.1436
 1276SOL    HW2 5177   1.378   0.184   0.633  0.8700 -0.3949  0.3249
 1276SOL    HW3 5178   1.246   0.112   0.646  0.9498 -0.6028  0.0038
 1276SOL    MW4 5179   1.331   0.112   0.627  0.9418 -0.4046 -0.0596
 1277SOL     OW 5180   0.354   4.040   1.175 -0.1497 -0.3773  0.3040
 1277SOL    HW2 5181   0.357   4.087   1.091  1.6496  0.4324  0.8168
 1277SOL    HW3 5182   0.336   4.108   1.239 -1.3256 -0.9790  0.6110
 1277SOL    MW4 5183   0.352   4.055   1.172 -0.0685 -0.3338  0.4053
 1278SOL     OW 5184   1.400   4.574   1.660 -0.2536 -0.4174  0.1202
 1278SOL    HW2 5185   1.385   4.574   1.754 -0.3911  0.1088  0.1004
 1278SOL    HW3 5186   1.314   4.592   1.622  0.0317  0.4360 -0.0728
 1278SOL    MW4 5187   1.387   4.577   1.667 -0.2384 -0.1907  0.0954
 1279SOL     OW 5188   1.230   0.306   2.336 -0.3106  0.7762 -0.3007
 1279SOL    HW2 5189   1.195   0.361   2.406  0.2285  0.0578  0.5125
 1279SOL    HW3 5190   1.163   0.239   2.323 -0.3016  0.7780 -0.3414
 1279SOL    MW4 5191   1.216   0.304   2.344 -0.2265  0.6795 -0.1907
 1280SOL     OW 5192   0.849   0.394   2.203 -0.2545 -0.3495 -0.4946
 1280SOL    HW2 5193   0.850   0.350   2.287 -0.4092  0.8535  0.1429
 1280SOL    HW3 5194   0.940   0.393   2.174 -0.0989 -0.1433 -0.0011
 1280SOL    MW4 5195   0.861   0.388   2.210 -0.2623 -0.1639 -0.3815
 1281SOL     OW 5196   0.767   0.313   2.467 -0.2200 -0.0110 -0.1915
 1281SOL    HW2 5197   0.828   0.293   2.538 -0.2153  0.9211  0.0556
 1281SOL    HW3 5198   0.738   0.403   2.484 -0.9436 -0.1174 -0.8361
 1281SOL    MW4 5199   0.771   0.322   2.478 -0.3159  0.0954 -0.2623
 1282SOL     OW 5200   1.027   0.717   2.791  0.0563  0.1484  0.3226
 1282SOL    HW2 5201   1.052   0.646   2.731 -0.1013 -0.0709  0.5025
 1282SOL    HW3 5202   1.094   0.784   2.777 -0.6926  0.6328 -1.0769
 1282SOL    MW4 5203   1.039   0.716   2.781 -0.0596  0.1848  0.1431
 1283SOL     OW 5204   1.055   0.752   3.057 -0.2018 -0.3490  0.3426
 1283SOL    HW2 5205   1.150   0.768   3.054 -0.3406  0.3070 -0.1245
 1283SOL    HW3 5206   1.029   0.748   2.965 -0.4609 -1.5403  0.4755
 1283SOL    MW4 5207   1.064   0.753   3.045 -0.2623 -0.4232  0.3099
 1284SOL     OW 5208   1.021   1.107   2.948  0.0598  0.2419  0.4687
 1284SOL    HW2 5209   1.021   1.082   2.855  0.2154  0.1097  0.5065
 1284SOL    HW3 5210   1.109   1.141   2.963 -0.2028  0.9818  0.3645
 1284SOL    MW4 5211   1.033   1.108   2.938  0.0477  0.3338  0.4768
 1285SOL     OW 5212   1.602   1.528   2.896  0.3699  0.7947 -0.1775
 1285SOL    HW2 5213   1.525   1.532   2.951  0.3448  1.4092 -0.2534
 1285SOL    HW3 5214   1.579   1.466   2.827  0.0977  0.6811  0.0121
 1285SOL    MW4 5215   1.589   1.520   2.894  0.3219  0.8702 -0.1431
 1286SOL     OW 5216   1.881   1.555   2.857  0.1018  0.5876 -0.2855
 1286SOL    HW2 5217   1.931   1.523   2.932  0.0595 -0.6215 -0.7967
 1286SOL    HW3 5218   1.790   1.541   2.880  0.0464  1.1582 -0.1267
 1286SOL    MW4 5219   1.876   1.549   2.870  0.0954  0.5007 -0.3338
 1287SOL     OW 5220   1.192   1.901   2.825 -0.1525 -0.0815 -0.0567
 1287SOL    HW2 5221   1.204   1.995   2.812 -0.7303  0.1339  0.9428
 1287SOL    HW3 5222   1.247   1.880   2.901 -0.4676 -0.4567  0.0804
 1287SOL    MW4 5223   1.201   1.911   2.833 -0.2742 -0.0954  0.1192
 1288SOL     OW 5224   1.253   1.705   2.623  0.4334 -0.1640  0.3754
 1288SOL    HW2 5225   1.238   1.786   2.672 -0.7212  0.0497 -0.3158
 1288SOL    HW3 5226   1.202   1.639   2.669  1.3714 -0.5004  0.9449
 1288SOL    MW4 5227   1.245   1.707   2.636  0.3934 -0.1907  0.3576
 1289SOL     OW 5228   0.920   2.021   2.566  0.2422 -0.0457  0.0211
 1289SOL    HW2 5229   0.969   2.099   2.592  0.9623 -0.6526  0.4785
 1289SOL    HW3 5230   0.884   1.987   2.648 -0.0315 -0.2298 -0.1829
 1289SOL    MW4 5231   0.921   2.027   2.581  0.3040 -0.1431  0.0715
 1290SOL     OW 5232   1.033   2.282   2.637 -0.2385  0.8140  0.4524
 1290SOL    HW2 5233   1.029   2.270   2.732 -0.2419  1.9277  0.5870
 1290SOL    HW3 5234   1.111   2.234   2.610 -0.9263 -0.5646  0.8635
 1290SOL    MW4 5235   1.042   2.274   2.646 -0.3219  0.7629  0.5484
 1291SOL     OW 5236   0.940   1.991   2.303 -0.0120  0.0233 -0.4660
 1291SOL    HW2 5237   1.003   2.060   2.285  0.6364 -0.5737 -0.5464
 1291SOL    HW3 5238   0.920   2.000   2.396 -1.2347  1.4058 -0.8865
 1291SOL    MW4 5239   0.945   2.001   2.313 -0.0834  0.1192 -0.5484
 1292SOL     OW 5240   0.660   2.486   2.295 -0.0724 -0.5149  0.6197
 1292SOL    HW2 5241   0.620   2.572   2.283  0.6118 -0.2852  0.0640
 1292SOL    HW3 5242   0.732   2.484   2.232  0.2322 -1.3151  0.9872
 1292SOL    MW4 5243   0.665   2.497   2.285  0.0596 -0.5960  0.5960
 1293SOL     OW 5244   1.831   3.432   2.393 -0.2037 -0.3772  0.6456
 1293SOL    HW2 5245   1.789   3.426   2.307  0.1273  0.5760  0.4211
 1293SOL    HW3 5246   1.924   3.446   2.373 -0.1211 -0.1384  1.1793
 1293SOL    MW4 5247   1.838   3.433   2.379 -0.1431 -0.2384  0.6676
 1294SOL     OW 5248   1.063   2.781   2.077 -0.4145  0.1858  0.0512
 1294SOL    HW2 5249   0.999   2.819   2.138 -1.2104 -0.9533 -0.0695
 1294SOL    HW3 5250   1.146   2.786   2.123 -0.8460  0.2699  0.8307
 1294SOL    MW4 5251   1.065   2.787   2.091 -0.5841  0.0477  0.1431
 1295SOL     OW 5252   1.902   3.679   1.132 -0.3929  0.2023 -0.6895
 1295SOL    HW2 5253   1.985   3.726   1.137 -0.4736  0.3665 -1.0550
 1295SOL    HW3 5254   1.845   3.724   1.193 -0.1570 -0.0666 -0.2742
 1295SOL    MW4 5255   1.905   3.691   1.140 -0.3695  0.1907 -0.6914
 1296SOL     OW 5256   0.924   3.211   2.048  1.1736 -2.0831 -0.3478
 1296SOL    HW2 5257   1.012   3.174   2.056  0.0864 -4.6659 -0.2860
 1296SOL    HW3 5258   0.896   3.226   2.138  0.4529 -3.9634 -0.2161
 1296SOL    MW4 5259   0.932   3.208   2.061  0.9298 -2.6703 -0.2861
 1297SOL     OW 5260   1.872   3.996   0.875 -0.1506  0.4534 -0.0215
 1297SOL    HW2 5261   1.962   3.964   0.867 -0.1686  0.6213 -0.9618
 1297SOL    HW3 5262   1.822   3.942   0.815 -0.6150  0.5523  0.2518
 1297SOL    MW4 5263   1.877   3.985   0.866 -0.2146  0.4768 -0.1132
 1298SOL     OW 5264   1.819   4.049   1.181 -0.1470  0.0525  0.1976
 1298SOL    HW2 5265   1.817   3.991   1.105 -1.1149  0.3559 -0.0424
 1298SOL    HW3 5266   1.911   4.074   1.188  0.0781 -0.6236 -0.4087
 1298SOL    MW4 5267   1.831   4.045   1.172 -0.2384  0.0000  0.0715
 1299SOL     OW 5268   1.398   4.403   1.895  0.1574 -0.6073  0.0939
 1299SOL    HW2 5269   1.333   4.459   1.938  0.1331 -0.7677  0.2671
 1299SOL    HW3 5270   1.355   4.373   1.815  0.8768  1.1448 -0.9364
 1299SOL    MW4 5271   1.384   4.406   1.890  0.2384 -0.4768 -0.0238
 1300SOL     OW 5272   1.558   4.040   1.731  0.0627  0.4155  0.1802
 1300SOL    HW2 5273   1.476   4.085   1.709  0.4810  1.1092 -0.0715
 1300SOL    HW3 5274   1.601   4.097   1.794 -0.4796 -0.7002  1.5872
 1300SOL    MW4 5275   1.553   4.053   1.736  0.0477  0.3815  0.3338
 1301SOL     OW 5276   1.397   0.187   1.817 -0.0060 -0.4698 -0.4114
 1301SOL    HW2 5277   1.432   0.112   1.866  0.6611  0.3962  0.4408
 1301SOL    HW3 5278   1.448   0.188   1.736  0.8748 -0.1108  0.1684
 1301SOL    MW4 5279   1.408   0.177   1.813  0.1907 -0.3099 -0.2146
 1302SOL     OW 5280   1.152   0.393   2.077 -0.2517  0.1324  0.2041
 1302SOL    HW2 5281   1.231   0.385   2.023 -0.7443 -0.8434 -0.3632
 1302SOL    HW3 5282   1.183   0.379   2.166  0.2424 -0.2173 -0.0173
 1302SOL    MW4 5283   1.167   0.390   2.081 -0.2503 -0.0447  0.0954
 1303SOL     OW 5284   1.353   0.495   2.611 -0.3804  0.2263 -0.2276
 1303SOL    HW2 5285   1.422   0.508   2.546 -0.0369  0.3318  0.1619
 1303SOL    HW3 5286   1.397   0.453   2.685 -0.7593  0.1466 -0.0331
 1303SOL    MW4 5287   1.368   0.491   2.612 -0.3815  0.2295 -0.1431
 1304SOL     OW 5288   1.093   0.521   2.547 -0.6339  0.1803  0.6652
 1304SOL    HW2 5289   1.050   0.445   2.586  0.0189  0.1848  1.3926
 1304SOL    HW3 5290   1.183   0.517   2.578 -0.3917  0.8217  0.1116
 1304SOL    MW4 5291   1.099   0.510   2.556 -0.5126  0.2623  0.6914
 1305SOL     OW 5292   1.279   4.623   2.606 -0.1849  0.2753 -0.5857
 1305SOL    HW2 5293   1.188   4.646   2.625 -0.2683  0.2799 -0.9170
 1305SOL    HW3 5294   1.329   4.654   2.682 -0.1164  2.9128 -1.6760
 1305SOL    MW4 5295   1.274   4.630   2.618 -0.1907  0.6199 -0.7629
 1306SOL     OW 5296   1.297   0.150   2.821 -0.4458 -0.2396 -0.4414
 1306SOL    HW2 5297   1.323   0.087   2.887 -0.8062  0.6694  0.5925
 1306SOL    HW3 5298   1.367   0.215   2.820 -1.0073  0.3799 -0.1091
 1306SOL    MW4 5299   1.309   0.151   2.829 -0.5722 -0.0358 -0.2384
 1307SOL     OW 5300   1.807   0.215   2.837  0.3838 -0.3744  0.0558
 1307SOL    HW2 5301   1.850   0.299   2.819 -0.5884  0.3385  1.1014
 1307SOL    HW3 5302   1.781   0.220   2.929 -1.3802 -1.0485 -0.3830
 1307SOL    MW4 5303   1.809   0.227   2.847  0.0238 -0.3695  0.1192
 1308SOL     OW 5304   1.298   0.883   2.886 -0.5274  0.1111  0.4721
 1308SOL    HW2 5305   1.293   0.972   2.921 -0.5764  0.8317 -1.3738
 1308SOL    HW3 5306   1.349   0.891   2.806  0.9774 -1.8168  1.2213
 1308SOL    MW4 5307   1.304   0.896   2.880 -0.3219 -0.0477  0.3099
 1309SOL     OW 5308   1.607   1.174   2.954 -0.3522 -0.0978 -0.6076
 1309SOL    HW2 5309   1.642   1.092   2.990  0.5527  0.3094 -0.5126
 1309SOL    HW3 5310   1.656   1.242   2.999 -3.6072  0.5430  1.9642
 1309SOL    MW4 5311   1.618   1.172   2.965 -0.6557  0.0477 -0.2623
 1310SOL     OW 5312   2.046   1.149   2.563  0.0248  0.5665  0.0233
 1310SOL    HW2 5313   2.003   1.231   2.588  0.3669  0.4648  0.9671
 1310SOL    HW3 5314   1.977   1.097   2.521 -0.5587  0.8034  0.6970
 1310SOL    MW4 5315   2.032   1.153   2.560 -0.0238  0.5841  0.2384
 1311SOL     OW 5316   1.974   1.419   2.632  0.1884  0.3885  0.0591
 1311SOL    HW2 5317   2.046   1.480   2.618 -0.5323  0.9432 -1.1560
 1311SOL    HW3 5318   1.932   1.449   2.713  1.3058  0.0809  0.7292
 1311SOL    MW4 5319   1.978   1.431   2.641  0.2384  0.4172 -0.0238
 1312SOL     OW 5320   1.828   1.821   2.761  0.1582  0.4840 -0.3287
 1312SOL    HW2 5321   1.739   1.826   2.797  0.6586 -0.0550  1.0315
 1312SOL    HW3 5322   1.864   1.741   2.798  0.9633  0.3226 -1.4312
 1312SOL    MW4 5323   1.821   1.811   2.771  0.3219  0.3815 -0.2861
 1313SOL     OW 5324   1.208   2.172   2.859 -0.0383 -0.1195  0.2741
 1313SOL    HW2 5325   1.207   2.148   2.952  0.9810  1.1791  0.6155
 1313SOL    HW3 5326   1.234   2.264   2.858 -1.4304  0.2464 -1.2354
 1313SOL    MW4 5327   1.212   2.181   2.871 -0.0715  0.1192  0.1192
 1314SOL     OW 5328   1.535   1.964   3.137  0.3754 -0.2882  0.1090
 1314SOL    HW2 5329   1.628   1.975   3.154  0.4488  0.3420 -0.7734
 1314SOL    HW3 5330   1.528   1.968   3.042 -0.7251  0.9262  0.2682
 1314SOL    MW4 5331   1.546   1.966   3.127  0.2384 -0.0358  0.0238
 1315SOL     OW 5332   1.506   2.580   2.207  0.2074 -0.1338 -0.4807
 1315SOL    HW2 5333   1.537   2.617   2.290 -0.3056  0.8894 -0.7338
 1315SOL    HW3 5334   1.431   2.526   2.232  0.9105 -0.9310 -0.1136
 1315SOL    MW4 5335   1.500   2.578   2.221  0.2384 -0.1431 -0.4530
 1316SOL     OW 5336   1.243   2.133   2.266 -0.5833  0.5563 -0.9208
 1316SOL    HW2 5337   1.316   2.097   2.216 -1.1114  0.4581 -1.6444
 1316SOL    HW3 5338   1.267   2.225   2.281  0.5305  0.0054  0.4644
 1316SOL    MW4 5339   1.256   2.141   2.261 -0.5007  0.4768 -0.8345
 1317SOL     OW 5340   2.376   3.366   1.870 -0.5525  0.2077  0.1279
 1317SOL    HW2 5341   2.385   3.288   1.816 -0.2226  0.7474 -0.5856
 1317SOL    HW3 5342   2.284   3.391   1.862 -0.6738 -0.1241  0.3975
 1317SOL    MW4 5343   2.365   3.359   1.862 -0.5245  0.2384  0.0596
 1318SOL     OW 5344   2.540   3.046   2.028  0.8431  0.1242  0.2236
 1318SOL    HW2 5345   2.568   3.049   2.120  0.0695 -1.3757  0.4886
 1318SOL    HW3 5346   2.448   3.072   2.030  0.4859 -1.0729  0.0129
 1318SOL    MW4 5347   2.532   3.050   2.040  0.6676 -0.2384  0.2384
 1319SOL     OW 5348   1.920   3.715   2.157 -0.0765  0.3631 -0.4601
 1319SOL    HW2 5349   1.927   3.673   2.071  1.7582  1.4984 -0.8374
 1319SOL    HW3 5350   1.958   3.651   2.218 -0.0610  0.2205 -0.6630
 1319SOL    MW4 5351   1.926   3.701   2.154  0.1788  0.4768 -0.5245
 1320SOL     OW 5352   2.332   3.840   1.356  0.0221 -0.2122 -0.4753
 1320SOL    HW2 5353   2.287   3.889   1.425  0.1778 -0.0820 -0.4753
 1320SOL    HW3 5354   2.333   3.750   1.387 -0.4664 -0.2500 -0.6148
 1320SOL    MW4 5355   2.326   3.835   1.369 -0.0477 -0.2146 -0.5007
 1321SOL     OW 5356   2.099   4.369   1.819 -0.5016 -0.1336 -0.6751
 1321SOL    HW2 5357   2.191   4.342   1.828 -0.5343  0.3437  1.1514
 1321SOL    HW3 5358   2.058   4.300   1.767  0.3672 -1.4809  0.4071
 1321SOL    MW4 5359   2.106   4.357   1.813 -0.3815 -0.2861 -0.2980
 1322SOL     OW 5360   2.192   4.055   1.830  0.0194  0.9017 -0.7674
 1322SOL    HW2 5361   2.201   3.964   1.861 -0.6947  0.6009 -1.4634
 1322SOL    HW3 5362   2.262   4.103   1.874  0.2995  0.0909 -0.2215
 1322SOL    MW4 5363   2.202   4.049   1.840 -0.0477  0.7629 -0.7868
 1323SOL     OW 5364   3.232   4.099   2.200 -0.2457  0.6768  0.6286
 1323SOL    HW2 5365   3.154   4.053   2.232 -1.0277  2.0145  0.6236
 1323SOL    HW3 5366   3.215   4.112   2.107 -0.3213  1.5645  0.7630
 1323SOL    MW4 5367   3.219   4.094   2.192 -0.3338  0.9060  0.6199
 1324SOL     OW 5368   1.625   4.365   1.669 -0.0804 -1.0461 -0.5026
 1324SOL    HW2 5369   1.545   4.414   1.688  0.2744 -1.5286  2.2095
 1324SOL    HW3 5370   1.689   4.431   1.645 -0.7720 -0.5238 -0.8391
 1324SOL    MW4 5371   1.623   4.380   1.668 -0.1311 -1.0967 -0.1788
 1325SOL     OW 5372   2.091   0.022   1.980 -0.3334  0.3790  0.5467
 1325SOL    HW2 5373   2.180   0.005   1.950 -0.7856  0.7677 -1.0283
 1325SOL    HW3 5374   2.070  -0.053   2.036  0.2986 -0.6152 -0.6114
 1325SOL    MW4 5375   2.100   0.010   1.984 -0.3099  0.3044  0.1907
 1326SOL     OW 5376   1.786   4.591   2.092 -0.1470  0.2142 -0.7878
 1326SOL    HW2 5377   1.816   4.505   2.060 -3.0307 -0.6207 -1.1517
 1326SOL    HW3 5378   1.748   4.572   2.178 -0.1286  1.3448 -0.5497
 1326SOL    MW4 5379   1.785   4.577   2.099 -0.5245  0.2861 -0.8106
 1327SOL     OW 5380   1.878   0.228   2.542 -0.3993 -0.0218  0.2210
 1327SOL    HW2 5381   1.940   0.294   2.511 -0.4241 -0.4931 -0.8418
 1327SOL    HW3 5382   1.802   0.237   2.484 -0.7887 -0.3442  0.6990
 1327SOL    MW4 5383   1.876   0.238   2.530 -0.4649 -0.1267  0.1431
 1328SOL     OW 5384   1.901   0.546   2.203 -0.1378 -0.0804  0.2743
 1328SOL    HW2 5385   1.871   0.601   2.276  0.4644  0.1130  0.3628
 1328SOL    HW3 5386   1.941   0.470   2.245  0.6006  0.2485  0.1440
 1328SOL    MW4 5387   1.902   0.543   2.218  0.0238 -0.0119  0.2861
 1329SOL     OW 5388   2.034   0.110   2.956  0.0657 -0.4243 -0.1800
 1329SOL    HW2 5389   1.968   0.138   2.893 -1.1829 -0.0426  1.2903
 1329SOL    HW3 5390   2.032   0.178   3.024  0.6977 -1.3861  0.7916
 1329SOL    MW4 5391   2.025   0.123   2.956  0.0000 -0.5022  0.1431
 1330SOL     OW 5392   1.919   0.474   2.888 -0.4644 -0.4986  0.2113
 1330SOL    HW2 5393   2.011   0.486   2.863 -0.5256 -1.3422 -0.3648
 1330SOL    HW3 5394   1.878   0.558   2.869  0.0111 -0.3982 -0.3239
 1330SOL    MW4 5395   1.926   0.486   2.882 -0.4053 -0.5960  0.0715
 1331SOL     OW 5396   2.296   0.633   3.007  0.1167 -0.1823  0.2671
 1331SOL    HW2 5397   2.278   0.709   2.951  0.7674  0.4420  0.9154
 1331SOL    HW3 5398   2.263   0.558   2.957 -0.1124  0.4654 -0.5607
 1331SOL    MW4 5399   2.289   0.633   2.993  0.1669 -0.0179  0.2384
 1332SOL     OW 5400   1.853   0.757   2.757 -0.7274 -0.3447 -0.4981
 1332SOL    HW2 5401   1.885   0.846   2.776 -1.0407 -0.3997  0.3210
 1332SOL    HW3 5402   1.914   0.723   2.691 -0.3740  0.3344 -0.5152
 1332SOL    MW4 5403   1.866   0.764   2.751 -0.7272 -0.2682 -0.3815
 1333SOL     OW 5404   2.017   0.981   2.805 -0.3510 -0.1881 -0.6370
 1333SOL    HW2 5405   2.083   0.912   2.804 -1.0523 -0.8454 -1.2673
 1333SOL    HW3 5406   2.042   1.039   2.733 -0.1759 -0.1872 -0.5683
 1333SOL    MW4 5407   2.029   0.979   2.795 -0.4053 -0.2801 -0.7391
 1334SOL     OW 5408   2.299   1.360   2.587 -0.1191  0.0622 -0.4666
 1334SOL    HW2 5409   2.253   1.276   2.579 -0.4318  0.3420 -1.5831
 1334SOL    HW3 5410   2.289   1.384   2.680 -0.8960 -0.6446 -0.3658
 1334SOL    MW4 5411   2.291   1.352   2.598 -0.2623  0.0000 -0.5960
 1335SOL     OW 5412   2.555   1.591   2.562 -0.2424  0.0602 -0.6081
 1335SOL    HW2 5413   2.568   1.570   2.654 -0.9751 -0.3164 -0.5807
 1335SOL    HW3 5414   2.547   1.686   2.559  0.1761  0.0972 -0.3237
 1335SOL    MW4 5415   2.556   1.601   2.574 -0.2861  0.0119 -0.5722
 1336SOL     OW 5416   1.916   2.022   2.941 -0.1496  0.8302  0.2828
 1336SOL    HW2 5417   2.007   2.000   2.919 -0.0933  1.6079 -0.2515
 1336SOL    HW3 5418   1.863   1.971   2.879 -0.0636  0.9153  0.1462
 1336SOL    MW4 5419   1.921   2.012   2.930 -0.1431  0.9775  0.1907
 1337SOL     OW 5420   1.712   2.083   2.695 -0.4284 -0.1075 -0.3192
 1337SOL    HW2 5421   1.749   2.171   2.706 -0.9124  0.2301 -1.5912
 1337SOL    HW3 5422   1.784   2.031   2.661 -0.5558  0.1073 -1.0023
 1337SOL    MW4 5423   1.727   2.088   2.692 -0.5007 -0.0238 -0.5722
 1338SOL     OW 5424   1.864   2.320   2.698 -0.4934  0.1096 -0.2115
 1338SOL    HW2 5425   1.876   2.322   2.793 -1.1974  0.5153 -0.1434
 1338SOL    HW3 5426   1.928   2.257   2.667  0.2047  0.4502  0.4693
 1338SOL    MW4 5427   1.874   2.312   2.707 -0.5007  0.2146 -0.1192
 1339SOL     OW 5428   2.232   2.381   2.757  0.1193  0.0173  0.1587
 1339SOL    HW2 5429   2.167   2.450   2.769 -0.2475 -0.1750 -0.4716
 1339SOL    HW3 5430   2.184   2.310   2.715  0.3145 -0.7942  1.2995
 1339SOL    MW4 5431   2.217   2.381   2.753  0.0954 -0.1192  0.2623
 1340SOL     OW 5432   1.551   2.676   2.487 -0.0954  0.3958 -0.0993
 1340SOL    HW2 5433   1.631   2.649   2.532  0.5187  1.4979 -0.5577
 1340SOL    HW3 5434   1.482   2.624   2.528  0.7038  0.1808  0.9497
 1340SOL    MW4 5435   1.552   2.666   2.499  0.0954  0.5245  0.0000
 1341SOL     OW 5436   2.373   2.829   2.523 -0.0716  0.4093  0.7831
 1341SOL    HW2 5437   2.305   2.861   2.583 -1.7639 -1.8797  0.1330
 1341SOL    HW3 5438   2.326   2.773   2.462  2.2083 -0.1251 -0.4732
 1341SOL    MW4 5439   2.358   2.826   2.523 -0.0238  0.0238  0.5245
 1342SOL     OW 5440   2.855   3.027   2.486 -0.0955  0.0085 -0.1132
 1342SOL    HW2 5441   2.828   2.959   2.548  0.4552  0.2254  0.3635
 1342SOL    HW3 5442   2.852   2.984   2.401 -1.5206 -0.1183 -0.0307
 1342SOL    MW4 5443   2.851   3.012   2.483 -0.2146  0.0000 -0.0477
 1343SOL     OW 5444   2.885   2.921   2.221  0.2415 -0.5037  0.2595
 1343SOL    HW2 5445   2.903   2.989   2.156  0.9395 -1.1668 -0.2446
 1343SOL    HW3 5446   2.971   2.896   2.253 -0.0107 -1.2623  0.3247
 1343SOL    MW4 5447   2.899   2.927   2.217  0.2861 -0.6914  0.2146
 1344SOL     OW 5448   2.447   3.604   1.747 -0.2369  0.8018 -0.4017
 1344SOL    HW2 5449   2.483   3.656   1.820  0.8192  0.6099 -0.7894
 1344SOL    HW3 5450   2.419   3.522   1.788 -1.6537  1.5974  0.1482
 1344SOL    MW4 5451   2.448   3.600   1.762 -0.2861  0.8821 -0.3815
 1345SOL     OW 5452   2.997   3.807   2.025  0.1906  1.2031  0.1559
 1345SOL    HW2 5453   3.066   3.741   2.025  0.6403  1.7154 -0.3590
 1345SOL    HW3 5454   2.917   3.759   2.004  0.5114  0.8268 -0.2995
 1345SOL    MW4 5455   2.995   3.792   2.022  0.3099  1.2159  0.0715
 1346SOL     OW 5456   3.018   3.916   1.753  0.1281  0.2055  0.5564
 1346SOL    HW2 5457   3.109   3.938   1.772 -0.0507  0.8494  0.4993
 1346SOL    HW3 5458   2.991   3.860   1.826  0.5027  0.1547  0.6527
 1346SOL    MW4 5459   3.026   3.911   1.765  0.1431  0.2861  0.5603
 1347SOL     OW 5460   3.605   4.204   2.596  0.0838  0.2325  0.5978
 1347SOL    HW2 5461   3.658   4.151   2.536  1.2058  0.3064  1.5728
 1347SOL    HW3 5462   3.529   4.230   2.543  0.8254 -0.1375 -0.6696
 1347SOL    MW4 5463   3.602   4.200   2.581  0.3338  0.1907  0.5484
 1348SOL     OW 5464   3.363   4.245   2.421 -0.7353  0.2470  0.2400
 1348SOL    HW2 5465   3.329   4.186   2.354 -0.0613  0.5918 -0.4005
 1348SOL    HW3 5466   3.326   4.211   2.503  0.3151 -1.6048 -0.0195
 1348SOL    MW4 5467   3.354   4.232   2.423 -0.5245  0.0000  0.1192
 1349SOL     OW 5468   3.216   4.381   2.121  0.5347 -0.4783 -0.8811
 1349SOL    HW2 5469   3.147   4.316   2.110  0.8221 -0.9414 -0.0495
 1349SOL    HW3 5470   3.174   4.465   2.102 -0.2104 -0.7891 -0.6501
 1349SOL    MW4 5471   3.202   4.383   2.117  0.4768 -0.5722 -0.7153
 1350SOL     OW 5472   1.899   0.208   2.182 -0.5285  0.4510  0.1866
 1350SOL    HW2 5473   1.930   0.236   2.096 -0.8618  0.5062  0.0908
 1350SOL    HW3 5474   1.889   0.113   2.173 -0.0919  0.3892  0.3341
 1350SOL    MW4 5475   1.902   0.199   2.169 -0.5007  0.4500  0.1907
 1351SOL     OW 5476   2.240   0.233   2.468 -0.4029  0.4009 -0.0148
 1351SOL    HW2 5477   2.326   0.271   2.452 -0.4745  0.7116  0.4695
 1351SOL    HW3 5478   2.236   0.156   2.412 -0.1752  0.8983 -0.7097
 1351SOL    MW4 5479   2.251   0.228   2.459 -0.3576  0.5066 -0.0238
 1352SOL     OW 5480   2.059   0.445   2.439 -0.5742  0.6523  0.4767
 1352SOL    HW2 5481   2.069   0.519   2.500 -1.7869  1.4455 -0.2718
 1352SOL    HW3 5482   2.124   0.382   2.468 -0.1858  1.6078  1.7328
 1352SOL    MW4 5483   2.069   0.447   2.451 -0.6914  0.8821  0.5245
 1353SOL     OW 5484   2.193   0.455   2.827 -0.7304 -0.3142  0.7854
 1353SOL    HW2 5485   2.223   0.365   2.843 -0.3773 -0.1518  1.0462
 1353SOL    HW3 5486   2.262   0.494   2.774 -1.2044 -0.3973  0.1103
 1353SOL    MW4 5487   2.206   0.448   2.822 -0.7629 -0.3040  0.7391
 1354SOL     OW 5488   2.435   0.543   2.743 -0.5820 -0.5402  0.1365
 1354SOL    HW2 5489   2.475   0.553   2.830 -1.4036  0.1051  0.4547
 1354SOL    HW3 5490   2.493   0.593   2.685 -0.3979 -0.3449  0.4447
 1354SOL    MW4 5491   2.448   0.551   2.747 -0.6437 -0.4351  0.2384
 1355SOL     OW 5492   2.811   0.477   2.363 -0.2345  0.0623  0.1050
 1355SOL    HW2 5493   2.861   0.550   2.399 -0.8921 -0.2312  1.6326
 1355SOL    HW3 5494   2.726   0.514   2.341 -0.4381 -0.1658  0.4982
 1355SOL    MW4 5495   2.806   0.491   2.365 -0.3576 -0.0060  0.3576
 1356SOL     OW 5496   2.249   0.805   2.789 -0.2742 -0.0908 -0.1741
 1356SOL    HW2 5497   2.275   0.896   2.775 -0.0317 -0.3215 -1.1772
 1356SOL    HW3 5498   2.326   0.754   2.766 -0.5664 -0.5785 -0.1395
 1356SOL    MW4 5499   2.262   0.810   2.784 -0.2861 -0.1848 -0.2861
 1357SOL     OW 5500   2.299   1.059   2.704  0.0903  0.0587  0.6485
 1357SOL    HW2 5501   2.353   1.130   2.741 -0.7238  0.5820  0.8696
 1357SOL    HW3 5502   2.330   1.050   2.614  0.1197  0.8173  0.5475
 1357SOL    MW4 5503   2.310   1.067   2.697 -0.0238  0.2384  0.6437
 1358SOL     OW 5504   2.552   1.272   2.507 -0.1378 -0.5702 -0.1829
 1358SOL    HW2 5505   2.606   1.333   2.556 -0.4710  0.6213 -1.2793
 1358SOL    HW3 5506   2.462   1.301   2.524 -0.3838 -2.3093  1.3228
 1358SOL    MW4 5507   2.547   1.284   2.516 -0.1907 -0.6318 -0.1192
 1359SOL     OW 5508   2.989   1.529   2.379  0.0483 -0.1093  0.1675
 1359SOL    HW2 5509   2.993   1.612   2.425  1.2341  0.9971 -1.9650
 1359SOL    HW3 5510   2.897   1.520   2.354  0.0173  0.8332 -0.0853
 1359SOL    MW4 5511   2.977   1.539   2.382  0.2146  0.1669 -0.1431
 1360SOL     OW 5512   2.424   2.096   2.678 -0.4508  0.0051 -0.6446
 1360SOL    HW2 5513   2.513   2.102   2.711 -0.6766 -0.6868  0.0571
 1360SOL    HW3 5514   2.411   2.004   2.657 -1.2773 -0.0508  0.0334
 1360SOL    MW4 5515   2.434   2.085   2.679 -0.5722 -0.0954 -0.4530
 1361SOL     OW 5516   2.253   2.220   2.489 -0.1959  0.4102  0.3897
 1361SOL    HW2 5517   2.274   2.314   2.498  0.2487  0.3687 -0.1089
 1361SOL    HW3 5518   2.319   2.176   2.544  0.5630  0.2869 -0.6006
 1361SOL    MW4 5519   2.265   2.227   2.498 -0.0238  0.4053  0.1907
 1362SOL     OW 5520   2.624   2.106   2.207  0.0573 -0.1833 -0.1748
 1362SOL    HW2 5521   2.622   2.033   2.269 -0.2150 -0.2477 -0.2556
 1362SOL    HW3 5522   2.642   2.183   2.262 -0.5562 -0.1889  0.0323
 1362SOL    MW4 5523   2.626   2.107   2.223 -0.0715 -0.1907 -0.1431
 1363SOL     OW 5524   2.481   2.498   2.738  0.3105  0.1464 -0.1300
 1363SOL    HW2 5525   2.399   2.450   2.752  0.4355 -0.1599 -0.4311
 1363SOL    HW3 5526   2.487   2.507   2.642 -0.1475  1.3993 -0.0481
 1363SOL    MW4 5527   2.471   2.493   2.727  0.2861  0.2623 -0.1669
 1364SOL     OW 5528   2.547   2.766   2.734  0.3907  0.4337  0.4058
 1364SOL    HW2 5529   2.506   2.681   2.751  0.1760  0.5721  0.6837
 1364SOL    HW3 5530   2.500   2.801   2.659  0.4652  0.3167  0.2965
 1364SOL    MW4 5531   2.535   2.759   2.726  0.4053  0.4292  0.4292
 1365SOL     OW 5532   2.633   2.193   2.958 -0.1660 -0.4115  0.6304
 1365SOL    HW2 5533   2.672   2.267   2.911 -0.7508  0.1957  1.0772
 1365SOL    HW3 5534   2.706   2.151   3.003  0.1591 -0.0452  0.4498
 1365SOL    MW4 5535   2.648   2.197   2.958 -0.1669 -0.2861  0.6676
 1366SOL     OW 5536   2.723   2.312   2.368 -0.3475 -0.0491 -0.2875
 1366SOL    HW2 5537   2.779   2.277   2.437 -0.3502 -0.0335 -0.2910
 1366SOL    HW3 5538   2.784   2.342   2.301 -0.3583  0.0452 -0.2604
 1366SOL    MW4 5539   2.738   2.311   2.369 -0.3576 -0.0238 -0.2861
 1367SOL     OW 5540   3.337   2.483   3.023 -0.4435 -0.0823  1.0062
 1367SOL    HW2 5541   3.356   2.391   3.007 -0.5280 -0.0432  0.8087
 1367SOL    HW3 5542   3.303   2.516   2.940  0.2466  0.2779  0.8474
 1367SOL    MW4 5543   3.335   2.475   3.010 -0.3576 -0.0238  0.9537
 1368SOL     OW 5544   3.290   2.606   2.758 -0.3540 -0.0639 -0.0695
 1368SOL    HW2 5545   3.372   2.630   2.715 -0.4886  0.0704 -0.2205
 1368SOL    HW3 5546   3.242   2.557   2.691  0.5475 -2.0969  0.7429
 1368SOL    MW4 5547   3.295   2.603   2.743 -0.2623 -0.3099  0.0000
 1369SOL     OW 5548   2.971   2.621   2.465 -0.4847  0.0557 -0.0768
 1369SOL    HW2 5549   2.973   2.667   2.549 -0.4405  1.0247 -0.6416
 1369SOL    HW3 5550   2.885   2.643   2.428 -0.2060  0.1669 -0.6286
 1369SOL    MW4 5551   2.960   2.630   2.471 -0.4530  0.1907 -0.2146
 1370SOL     OW 5552   3.091   3.090   2.623  0.8049 -0.0850 -0.1349
 1370SOL    HW2 5553   3.148   3.014   2.612  0.7742 -0.3916  1.8649
 1370SOL    HW3 5554   3.026   3.082   2.553  1.3625 -1.3723 -0.5217
 1370SOL    MW4 5555   3.090   3.079   2.612  0.8583 -0.2861  0.0477
 1371SOL     OW 5556   3.020   3.921   2.269 -0.0085  0.4283  0.2032
 1371SOL    HW2 5557   2.980   3.868   2.339 -0.4998  1.6358  0.8605
 1371SOL    HW3 5558   3.012   3.867   2.191 -1.8918  0.2321  0.5602
 1371SOL    MW4 5559   3.013   3.907   2.268 -0.3099  0.5722  0.3338
 1372SOL     OW 5560   3.217   0.074   2.362 -0.4474 -0.2918 -0.3411
 1372SOL    HW2 5561   3.176  -0.012   2.361 -0.0313 -0.4748  1.3571
 1372SOL    HW3 5562   3.309   0.057   2.339 -0.6858 -0.1314 -1.3481
 1372SOL    MW4 5563   3.224   0.060   2.358 -0.4292 -0.2958 -0.2384
 1373SOL     OW 5564   2.485   4.551   2.122 -0.5712  0.8142  0.0680
 1373SOL    HW2 5565   2.493   4.470   2.173 -0.3818  0.0530 -1.1448
 1373SOL    HW3 5566   2.564   4.601   2.143  0.1370 -0.0845 -0.4861
 1373SOL    MW4 5567   2.497   4.547   2.132 -0.4768  0.5722 -0.1431
 1374SOL     OW 5568   2.244   0.463   2.219  0.2541 -0.3309  0.6234
 1374SOL    HW2 5569   2.217   0.399   2.153  0.8730  0.0020  0.0596
 1374SOL    HW3 5570   2.195   0.438   2.298 -0.0496 -1.0908  0.1978
 1374SOL    MW4 5571   2.234   0.451   2.221  0.2861 -0.3874  0.5007
 1375SOL     OW 5572   2.573   0.141   2.250 -0.3772  0.2573  0.5171
 1375SOL    HW2 5573   2.665   0.160   2.270 -0.0539 -0.6032 -0.1259
 1375SOL    HW3 5574   2.565   0.159   2.157 -0.5753 -0.8456  0.3180
 1375SOL    MW4 5575   2.584   0.146   2.241 -0.3576 -0.0030  0.4292
 1376SOL     OW 5576   2.483   0.336   2.436 -0.6742  0.4718 -0.1532
 1376SOL    HW2 5577   2.510   0.305   2.523 -1.6115 -0.7101 -0.3055
 1376SOL    HW3 5578   2.514   0.269   2.376 -0.8349  0.8344 -0.6536
 1376SOL    MW4 5579   2.491   0.323   2.440 -0.8106  0.3636 -0.2384
 1377SOL     OW 5580   2.566   0.303   2.722 -0.3297  0.1071  0.3295
 1377SOL    HW2 5581   2.655   0.304   2.687 -0.7196 -0.1429 -0.6253
 1377SOL    HW3 5582   2.538   0.394   2.720 -0.2158  0.1505  0.3728
 1377SOL    MW4 5583   2.574   0.315   2.717 -0.3576  0.0805  0.2146
 1378SOL     OW 5584   2.818   0.337   2.616 -0.0810  0.2440 -0.2782
 1378SOL    HW2 5585   2.889   0.275   2.596 -1.0727 -0.8191 -0.4386
 1378SOL    HW3 5586   2.810   0.390   2.536 -0.3756 -0.5120 -0.7380
 1378SOL    MW4 5587   2.827   0.336   2.603 -0.2623  0.0060 -0.3576
 1379SOL     OW 5588   2.924   0.480   2.838 -0.4220 -0.5009  0.0686
 1379SOL    HW2 5589   2.991   0.543   2.813 -1.3315  0.2976 -0.3089
 1379SOL    HW3 5590   2.898   0.438   2.755 -0.7136 -0.5010  0.1621
 1379SOL    MW4 5591   2.929   0.483   2.824 -0.5960 -0.3964  0.0238
 1380SOL     OW 5592   3.145   1.164   2.707  0.3435  0.0370 -0.0581
 1380SOL    HW2 5593   3.106   1.083   2.741  0.4602  0.2229  0.4884
 1380SOL    HW3 5594   3.091   1.188   2.632 -0.0098 -0.1810  0.1655
 1380SOL    MW4 5595   3.132   1.157   2.702  0.3338  0.0238  0.0477
 1381SOL     OW 5596   3.153   1.433   2.839  0.2199  0.4666  0.3696
 1381SOL    HW2 5597   3.169   1.488   2.762  0.9737  0.5514  0.5999
 1381SOL    HW3 5598   3.127   1.348   2.802  0.2272  0.6179  0.0093
 1381SOL    MW4 5599   3.151   1.429   2.824  0.3338  0.5007  0.3815
 1382SOL     OW 5600   3.478   1.171   2.279 -0.4521 -0.1822 -0.6346
 1382SOL    HW2 5601   3.548   1.155   2.342 -0.4740 -0.6022 -0.6960
 1382SOL    HW3 5602   3.436   1.251   2.310  0.7115  0.6021 -1.1194
 1382SOL    MW4 5603   3.482   1.179   2.292 -0.3099 -0.1431 -0.7153
 1383SOL     OW 5604   3.357   1.410   2.383 -0.6260  0.4192 -0.1715
 1383SOL    HW2 5605   3.375   1.377   2.471 -0.8690  0.5041 -0.0616
 1383SOL    HW3 5606   3.428   1.471   2.364 -1.1282  1.1902  0.3981
 1383SOL    MW4 5607   3.369   1.414   2.392 -0.6914  0.5245 -0.0954
 1384SOL     OW 5608   3.224   1.580   2.619  0.2357  0.6564  0.0243
 1384SOL    HW2 5609   3.177   1.659   2.593 -0.3659  0.4337  0.4282
 1384SOL    HW3 5610   3.248   1.537   2.537  0.0344  0.9356 -0.1470
 1384SOL    MW4 5611   3.221   1.585   2.605  0.1431  0.6676  0.0477
 1385SOL     OW 5612   2.604   1.911   2.401 -0.8124  0.1137  0.2968
 1385SOL    HW2 5613   2.698   1.925   2.400 -0.7859  0.1269  0.3627
 1385SOL    HW3 5614   2.590   1.838   2.340 -0.6600 -0.3535  0.8188
 1385SOL    MW4 5615   2.614   1.903   2.393 -0.8106  0.0477  0.3815
 1386SOL     OW 5616   3.404   2.156   2.449 -0.3691 -0.1732 -0.1480
 1386SOL    HW2 5617   3.423   2.157   2.542  0.6009 -0.7100 -0.3324
 1386SOL    HW3 5618   3.408   2.063   2.425  1.2590  0.1362 -1.0890
 1386SOL    MW4 5619   3.407   2.144   2.458  0.0000 -0.1907 -0.2861
 1387SOL     OW 5620   3.489   2.217   2.717 -0.1126 -0.3249  0.0950
 1387SOL    HW2 5621   3.498   2.303   2.676 -0.6932 -0.6561 -0.7617
 1387SOL    HW3 5622   3.574   2.174   2.701 -0.4848 -0.6220 -1.1522
 1387SOL    MW4 5623   3.502   2.222   2.709 -0.2623 -0.4053 -0.1907
 1388SOL     OW 5624   3.302   2.235   2.188  0.0904  0.0340 -0.0739
 1388SOL    HW2 5625   3.310   2.204   2.278 -1.3634 -0.2030  0.0013
 1388SOL    HW3 5626   3.216   2.205   2.159  0.1355  0.9296 -1.2152
 1388SOL    MW4 5627   3.292   2.227   2.196 -0.0954  0.1192 -0.2146
 1389SOL     OW 5628   3.200   2.522   2.256 -0.3050  0.7637  0.3897
 1389SOL    HW2 5629   3.219   2.483   2.341 -0.1470 -1.0989 -0.5269
 1389SOL    HW3 5630   3.249   2.468   2.194 -1.1964  1.5787 -1.0013
 1389SOL    MW4 5631   3.209   2.510   2.259 -0.4053  0.6437  0.0715
 1390SOL     OW 5632   3.536   2.374   2.279  0.4008  0.0123 -0.0698
 1390SOL    HW2 5633   3.553   2.441   2.212  0.1911 -0.1150 -0.2360
 1390SOL    HW3 5634   3.465   2.321   2.242  0.5968 -0.3355  0.0311
 1390SOL    MW4 5635   3.529   2.376   2.265  0.4053 -0.0477 -0.0715
 1391SOL     OW 5636   3.315   2.682   3.216 -0.1449 -0.2315 -0.1076
 1391SOL    HW2 5637   3.401   2.702   3.250  0.4851 -2.1621 -0.5231
 1391SOL    HW3 5638   3.331   2.621   3.144 -1.7911 -0.1827 -0.5216
 1391SOL    MW4 5639   3.328   2.677   3.211 -0.2623 -0.5007 -0.1907
 1392SOL     OW 5640   3.567   2.431   2.570 -0.5289  0.1773  0.0113
 1392SOL    HW2 5641   3.551   2.416   2.477  0.1702  0.3838 -0.1556
 1392SOL    HW3 5642   3.554   2.525   2.582 -0.7218  0.1034  0.1528
 1392SOL    MW4 5643   3.563   2.442   2.560 -0.4530  0.1907  0.0000
 1393SOL     OW 5644   3.278   2.881   2.547  0.4165  0.4247 -0.0242
 1393SOL    HW2 5645   3.215   2.865   2.477 -0.4398  1.5258  0.4942
 1393SOL    HW3 5646   3.338   2.946   2.511  0.3669  0.5496  0.0331
 1393SOL    MW4 5647   3.277   2.888   2.533  0.3099  0.5722  0.0477
 1394SOL     OW 5648   2.988   3.381   2.448 -0.3080  0.5905  0.0972
 1394SOL    HW2 5649   2.924   3.415   2.510 -0.4210  2.8426 -1.2625
 1394SOL    HW3 5650   3.060   3.350   2.503 -1.0042  1.3265  1.4075
 1394SOL    MW4 5651   2.989   3.381   2.463 -0.4292  1.0014  0.0954
 1395SOL     OW 5652   3.264   4.140   2.642 -0.2349  0.2416 -0.1020
 1395SOL    HW2 5653   3.285   4.047   2.656 -0.4269  0.0691 -0.8118
 1395SOL    HW3 5654   3.174   4.149   2.673  0.2665  0.5186  1.3247
 1395SOL    MW4 5655   3.255   4.129   2.648 -0.1907  0.2384  0.0000
 1396SOL     OW 5656   3.581   3.762   2.901  0.2021 -0.0691  0.0615
 1396SOL    HW2 5657   3.539   3.714   2.830  0.7556  0.0241 -0.3192
 1396SOL    HW3 5658   3.562   3.854   2.883  0.3704 -0.0454 -0.0501
 1396SOL    MW4 5659   3.573   3.767   2.890  0.2861 -0.0477  0.0000
 1397SOL     OW 5660   2.154   0.304   2.016  0.1037  0.3584  0.1656
 1397SOL    HW2 5661   2.232   0.304   1.962 -0.2582 -0.7195 -0.3534
 1397SOL    HW3 5662   2.124   0.213   2.016 -0.8072  0.6464  0.8965
 1397SOL    MW4 5663   2.160   0.292   2.009 -0.0715  0.2563  0.1907
 1398SOL     OW 5664   4.035   4.466   2.329  0.4963  0.5148  0.6572
 1398SOL    HW2 5665   3.988   4.463   2.246  1.2513 -0.6035  0.3179
 1398SOL    HW3 5666   4.111   4.410   2.316  0.8679  0.6625  1.9841
 1398SOL    MW4 5667   4.039   4.458   2.317  0.6676  0.3815  0.7868
 1399SOL     OW 5668   3.135   0.294   2.154 -0.0382  0.4124 -0.1771
 1399SOL    HW2 5669   3.061   0.242   2.120  0.0330  1.5485 -2.0170
 1399SOL    HW3 5670   3.163   0.248   2.233 -1.0993 -1.4450 -0.8613
 1399SOL    MW4 5671   3.129   0.281   2.160 -0.1669  0.3219 -0.5007
 1400SOL     OW 5672   3.039   0.269   1.874  0.1348 -0.4769  0.0798
 1400SOL    HW2 5673   2.991   0.336   1.922 -0.2216 -1.7081  1.4315
 1400SOL    HW3 5674   3.131   0.286   1.893  0.0875  0.0755 -0.1272
 1400SOL    MW4 5675   3.045   0.280   1.883  0.0954 -0.5633  0.2384
 1401SOL     OW 5676   3.186   0.586   2.072 -0.1051  0.5388 -0.1525
 1401SOL    HW2 5677   3.190   0.494   2.100 -0.1822  0.2168 -1.1270
 1401SOL    HW3 5678   3.240   0.633   2.136 -0.2034 -0.2077  0.4901
 1401SOL    MW4 5679   3.194   0.580   2.084 -0.1431  0.3994 -0.1907
 1402SOL     OW 5680   3.354   0.664   2.275  0.2143 -0.1046  0.0841
 1402SOL    HW2 5681   3.296   0.625   2.340 -0.6602  0.8323 -0.1207
 1402SOL    HW3 5682   3.372   0.751   2.309 -0.3622  0.4415 -0.9901
 1402SOL    MW4 5683   3.349   0.670   2.288  0.0238  0.0894 -0.0715
 1403SOL     OW 5684   3.422   0.908   2.359 -0.1448 -0.2585  0.3411
 1403SOL    HW2 5685   3.504   0.865   2.382  0.5019  0.6869 -0.1371
 1403SOL    HW3 5686   3.448   0.987   2.311 -1.3181 -0.0082  0.1230
 1403SOL    MW4 5687   3.436   0.913   2.356 -0.1907 -0.1073  0.2384
 1404SOL     OW 5688   2.947   0.680   2.509 -0.4398 -0.7054  0.6236
 1404SOL    HW2 5689   3.004   0.663   2.584  0.1790 -0.8509  0.1137
 1404SOL    HW3 5690   2.992   0.748   2.460 -0.3453 -1.3093 -0.1601
 1404SOL    MW4 5691   2.961   0.687   2.512 -0.3576 -0.7987  0.4292
 1405SOL     OW 5692   3.901   1.357   2.332 -0.1084  0.0570 -0.1061
 1405SOL    HW2 5693   3.821   1.347   2.385 -0.1426 -0.2376 -0.2572
 1405SOL    HW3 5694   3.929   1.267   2.315 -0.2868  0.1598 -0.9211
 1405SOL    MW4 5695   3.894   1.344   2.337 -0.1431  0.0358 -0.2384
 1406SOL     OW 5696   4.094   1.549   2.222  0.2253  0.0966 -0.0690
 1406SOL    HW2 5697   4.087   1.630   2.274  0.4609  0.0412  0.0382
 1406SOL    HW3 5698   4.044   1.484   2.271  1.3663 -0.2350  0.7102
 1406SOL    MW4 5699   4.087   1.551   2.236  0.3815  0.0477  0.0715
 1407SOL     OW 5700   4.038   1.759   2.404  0.3840  0.2256 -0.3771
 1407SOL    HW2 5701   4.036   1.688   2.467 -0.3372  0.8294  0.2799
 1407SOL    HW3 5702   3.959   1.810   2.423 -0.0902  0.1596 -2.0038
 1407SOL    MW4 5703   4.027   1.756   2.414  0.1907  0.2742 -0.5007
 1408SOL     OW 5704   3.645   1.866   2.557 -0.0194  0.1590  0.9102
 1408SOL    HW2 5705   3.657   1.771   2.564 -1.0948 -0.0095  0.5295
 1408SOL    HW3 5706   3.572   1.876   2.496  0.4323  1.2649  0.5687
 1408SOL    MW4 5707   3.637   1.855   2.550 -0.0954  0.2861  0.8345
 1409SOL     OW 5708   3.681   1.878   2.851 -0.0619  0.1424  0.7017
 1409SOL    HW2 5709   3.772   1.904   2.835 -0.2281  1.1050  1.3785
 1409SOL    HW3 5710   3.642   1.877   2.763  0.4191  0.4831  0.4528
 1409SOL    MW4 5711   3.688   1.882   2.837 -0.0477  0.3219  0.7629
 1410SOL     OW 5712   3.748   2.148   2.638 -0.1698  0.0759 -0.1286
 1410SOL    HW2 5713   3.782   2.128   2.725 -1.4912 -0.0392  0.3927
 1410SOL    HW3 5714   3.806   2.103   2.578  0.9776  0.4421  0.7021
 1410SOL    MW4 5715   3.760   2.139   2.642 -0.1907  0.1192  0.0477
 1411SOL     OW 5716   4.185   2.174   2.263 -0.2266  0.2727 -0.2525
 1411SOL    HW2 5717   4.092   2.196   2.268 -0.4181 -0.3573 -1.5123
 1411SOL    HW3 5718   4.194   2.097   2.320 -0.5408  0.0703 -0.4443
 1411SOL    MW4 5719   4.174   2.167   2.271 -0.3338  0.1431 -0.4530
 1412SOL     OW 5720   3.932   2.275   2.361  0.3177  0.1838 -0.3389
 1412SOL    HW2 5721   3.919   2.319   2.445 -0.2281 -0.5811 -0.0140
 1412SOL    HW3 5722   3.844   2.249   2.334  0.5510  0.1981 -1.0009
 1412SOL    MW4 5723   3.919   2.277   2.369  0.2623  0.0954 -0.3576
 1413SOL     OW 5724   3.992   2.571   2.407 -0.1781  0.2946 -0.1175
 1413SOL    HW2 5725   3.976   2.551   2.499  0.1597  1.6785  0.2714
 1413SOL    HW3 5726   4.024   2.489   2.369 -2.6760 -0.9401  0.4532
 1413SOL    MW4 5727   3.994   2.558   2.414 -0.4768  0.2861  0.0238
 1414SOL     OW 5728   4.130   2.577   1.837 -0.1834 -0.3588 -0.5245
 1414SOL    HW2 5729   4.147   2.640   1.907 -0.3479  0.2667 -1.0222
 1414SOL    HW3 5730   4.040   2.548   1.852  0.1470 -1.0468  0.1701
 1414SOL    MW4 5731   4.120   2.581   1.849 -0.1431 -0.3576 -0.5007
 1415SOL     OW 5732   3.872   2.750   2.250 -0.4764  0.2369 -0.2398
 1415SOL    HW2 5733   3.892   2.667   2.292 -0.1942 -0.0471 -0.9734
 1415SOL    HW3 5734   3.952   2.774   2.203 -0.8121  0.5370 -0.6396
 1415SOL    MW4 5735   3.885   2.742   2.250 -0.4768  0.2623 -0.4053
 1416SOL     OW 5736   3.671   2.560   2.112  0.4464  0.0114 -0.3123
 1416SOL    HW2 5737   3.591   2.598   2.075  0.2630  0.1776  0.2426
 1416SOL    HW3 5738   3.686   2.611   2.191  1.3889  0.3093 -0.6925
 1416SOL    MW4 5739   3.662   2.572   2.117  0.5245  0.0715 -0.3099
 1417SOL     OW 5740   3.579   2.743   2.321 -0.2733  0.2793 -0.3751
 1417SOL    HW2 5741   3.532   2.712   2.399 -1.8406  0.3509 -1.3543
 1417SOL    HW3 5742   3.652   2.793   2.357 -0.4930 -0.4056  1.1166
 1417SOL    MW4 5743   3.582   2.745   2.336 -0.5007  0.2146 -0.3099
 1418SOL     OW 5744   3.863   2.783   2.535 -0.5076 -0.2446  0.2527
 1418SOL    HW2 5745   3.901   2.865   2.566 -1.0578  0.6937 -1.5697
 1418SOL    HW3 5746   3.888   2.778   2.443  0.1348 -2.5262  0.5617
 1418SOL    MW4 5747   3.872   2.793   2.527 -0.5007 -0.4053  0.0715
 1419SOL     OW 5748   3.474   3.906   2.437  0.0863  1.1489  0.6253
 1419SOL    HW2 5749   3.450   3.854   2.360 -1.7692  2.6111  0.2050
 1419SOL    HW3 5750   3.417   3.873   2.507  0.3884  1.1350  0.8609
 1419SOL    MW4 5751   3.463   3.895   2.436 -0.0954  1.3113  0.5722
 1420SOL     OW 5752   3.720   4.048   2.418  0.2478  0.3031 -0.1065
 1420SOL    HW2 5753   3.779   4.010   2.482 -0.4533  0.3452  0.5428
 1420SOL    HW3 5754   3.638   3.999   2.428  0.4765 -0.4913 -1.7331
 1420SOL    MW4 5755   3.717   4.036   2.428  0.1669  0.1907 -0.2384
 1421SOL     OW 5756   3.445   3.347   2.815 -0.1449 -0.6641 -0.4169
 1421SOL    HW2 5757   3.450   3.371   2.908  0.0915 -0.3356 -0.4935
 1421SOL    HW3 5758   3.534   3.322   2.793 -0.1126 -0.3975 -0.6299
 1421SOL    MW4 5759   3.457   3.347   2.825 -0.1192 -0.5722 -0.4530
 1422SOL     OW 5760   3.845   4.655   2.464  0.3786  0.6885 -0.0240
 1422SOL    HW2 5761   3.776   4.593   2.483  0.6830  0.5910  0.5724
 1422SOL    HW3 5762   3.906   4.607   2.408  0.9811  0.2951  1.0302
 1422SOL    MW4 5763   3.844   4.641   2.459  0.5007  0.6676  0.1907
 1423SOL     OW 5764   3.726   0.208   2.270  0.0822  0.2082  0.7191
 1423SOL    HW2 5765   3.663   0.135   2.267 -0.2981  0.5586  0.3242
 1423SOL    HW3 5766   3.728   0.234   2.362  0.4180 -0.4575  0.8840
 1423SOL    MW4 5767   3.718   0.202   2.282  0.0715  0.1669  0.6914
 1424SOL     OW 5768   3.492   0.332   2.196 -0.4788 -0.1697 -0.4361
 1424SOL    HW2 5769   3.455   0.369   2.276 -1.5656  0.7256 -1.4013
 1424SOL    HW3 5770   3.578   0.299   2.223 -0.2933  1.3017  0.8336
 1424SOL    MW4 5771   3.499   0.333   2.210 -0.5960  0.1460 -0.3815
 1425SOL     OW 5772   3.423   0.390   2.496 -0.0153  0.4858 -1.0857
 1425SOL    HW2 5773   3.471   0.311   2.519 -0.6615  0.7032  0.9117
 1425SOL    HW3 5774   3.476   0.462   2.531 -1.1756  0.7864  0.0516
 1425SOL    MW4 5775   3.436   0.389   2.504 -0.2384  0.5543 -0.6437
 1426SOL     OW 5776   0.042   0.993   2.142  0.0163  0.2257 -0.0492
 1426SOL    HW2 5777  -0.005   0.969   2.222  0.5395 -0.8890 -0.0896
 1426SOL    HW3 5778   0.013   0.929   2.077  1.5054 -0.3819 -0.0916
 1426SOL    MW4 5779   0.032   0.982   2.144  0.2820 -0.0060 -0.0715
 1427SOL     OW 5780   3.987   0.689   2.590  0.4419  0.0087 -0.1328
 1427SOL    HW2 5781   3.925   0.713   2.658 -0.6004 -0.3572 -1.0039
 1427SOL    HW3 5782   3.995   0.768   2.536 -0.7848 -0.5953 -1.2416
 1427SOL    MW4 5783   3.980   0.703   2.592  0.1669 -0.1192 -0.4053
 1428SOL     OW 5784   3.665   0.779   2.461  0.0395 -0.5217 -0.4325
 1428SOL    HW2 5785   3.696   0.869   2.472 -0.7502 -0.3571  0.4699
 1428SOL    HW3 5786   3.722   0.741   2.395  0.0494  0.7753 -1.1717
 1428SOL    MW4 5787   3.676   0.786   2.454 -0.0715 -0.3338 -0.4053
 1429SOL     OW 5788   3.744   1.045   2.478 -0.7521 -0.1703  0.3611
 1429SOL    HW2 5789   3.769   1.088   2.560 -1.0968 -0.1037  0.4179
 1429SOL    HW3 5790   3.826   1.041   2.428 -0.8935  1.1820  0.0375
 1429SOL    MW4 5791   3.758   1.050   2.483 -0.8106  0.0238  0.3099
 1430SOL     OW 5792   4.364   1.441   2.410 -0.0210  0.1970  0.6987
 1430SOL    HW2 5793   4.319   1.449   2.325  0.1165  1.0051  0.6775
 1430SOL    HW3 5794   4.360   1.348   2.431 -1.2584  0.2074  0.4578
 1430SOL    MW4 5795   4.357   1.430   2.401 -0.1431  0.3099  0.6676
 1431SOL     OW 5796   4.106   1.514   2.539 -0.2178  0.3736  0.1802
 1431SOL    HW2 5797   4.191   1.520   2.496  0.2750  0.5629  1.2751
 1431SOL    HW3 5798   4.122   1.464   2.619 -1.0537  0.6161  0.5175
 1431SOL    MW4 5799   4.119   1.509   2.544 -0.2384  0.4292  0.3815
 1432SOL     OW 5800   4.219   1.807   2.087 -0.0025 -0.0487 -0.5431
 1432SOL    HW2 5801   4.275   1.883   2.104  0.0280 -0.0473 -0.6050
 1432SOL    HW3 5802   4.223   1.756   2.168 -0.2769  0.1972 -0.3966
 1432SOL    MW4 5803   4.227   1.811   2.100  0.0000 -0.0119 -0.5245
 1433SOL     OW 5804   4.215   1.973   2.454  0.1229 -0.1605 -0.2943
 1433SOL    HW2 5805   4.220   2.008   2.543  1.6569 -0.1712 -0.3431
 1433SOL    HW3 5806   4.133   1.924   2.452 -0.3488  0.6254  0.8397
 1433SOL    MW4 5807   4.205   1.971   2.465  0.3338 -0.0596 -0.1431
 1434SOL     OW 5808   4.337   1.736   2.362  0.0198  0.4740 -0.0639
 1434SOL    HW2 5809   4.422   1.776   2.341 -0.6902  1.7646 -0.4232
 1434SOL    HW3 5810   4.287   1.806   2.404 -1.1552 -0.0795 -0.5365
 1434SOL    MW4 5811   4.342   1.751   2.365 -0.2861  0.5722 -0.1669
 1435SOL     OW 5812   0.010   2.151   2.442 -0.0945 -0.1278 -0.2512
 1435SOL    HW2 5813  -0.031   2.082   2.389 -0.7402  1.2521 -1.5538
 1435SOL    HW3 5814   0.104   2.143   2.423 -0.0731 -1.3067  0.4080
 1435SOL    MW4 5815   0.017   2.141   2.432 -0.1734 -0.1192 -0.3576
 1436SOL     OW 5816   4.398   2.024   2.117  0.7979  0.2620  0.1020
 1436SOL    HW2 5817   4.412   2.044   2.024 -1.6529  0.2081 -0.3196
 1436SOL    HW3 5818   4.342   2.095   2.148  0.4602 -0.4763  1.1789
 1436SOL    MW4 5819   4.393   2.036   2.109  0.4768  0.1431  0.1907
 1437SOL     OW 5820   4.250   2.301   1.880 -0.5425  0.4763 -0.3869
 1437SOL    HW2 5821   4.223   2.295   1.971 -1.7084  0.1899 -0.7460
 1437SOL    HW3 5822   4.218   2.386   1.850  1.0721  1.1595 -0.1367
 1437SOL    MW4 5823   4.242   2.312   1.888 -0.4768  0.5245 -0.4053
 1438SOL     OW 5824   4.352   2.726   1.829 -0.5489  0.2320 -0.1269
 1438SOL    HW2 5825   4.288   2.661   1.800 -0.7657  0.2405  0.3323
 1438SOL    HW3 5826   4.399   2.683   1.900  0.0052  0.2151 -0.4931
 1438SOL    MW4 5827   4.350   2.712   1.834 -0.5245  0.2384 -0.1192
 1439SOL     OW 5828   0.061   2.675   2.304  0.5986  0.2723 -0.1984
 1439SOL    HW2 5829   0.067   2.727   2.384  0.1008  0.3267 -0.1833
 1439SOL    HW3 5830   0.030   2.589   2.333 -1.8787  1.0188 -0.6209
 1439SOL    MW4 5831   0.058   2.671   2.318  0.2064  0.3815 -0.2384
 1440SOL     OW 5832   4.082   2.844   2.128 -0.2136 -0.1636  0.7920
 1440SOL    HW2 5833   4.159   2.839   2.183 -0.9781 -0.1089  1.7860
 1440SOL    HW3 5834   4.114   2.883   2.046  0.7589 -0.2197  1.1647
 1440SOL    MW4 5835   4.096   2.849   2.124 -0.1907 -0.1431  0.9537
 1441SOL     OW 5836   4.213   2.737   2.369 -0.0353  0.4234 -0.9987
 1441SOL    HW2 5837   4.257   2.749   2.453  1.2185 -1.4427 -1.4443
 1441SOL    HW3 5838   4.132   2.690   2.391  0.2061  0.0885 -0.8082
 1441SOL    MW4 5839   4.208   2.732   2.383  0.0954  0.1192 -1.0252
 1442SOL     OW 5840   4.237   2.996   2.774 -0.3339 -0.1641  0.4044
 1442SOL    HW2 5841   4.143   2.986   2.760 -0.2184  0.0858 -0.1801
 1442SOL    HW3 5842   4.268   3.044   2.697  0.1035  0.7447  1.1547
 1442SOL    MW4 5843   4.229   3.001   2.762 -0.2384 -0.0238  0.4292
 1443SOL     OW 5844   4.046   3.696   2.656 -0.1369  0.1321  0.0614
 1443SOL    HW2 5845   4.001   3.667   2.577  0.8460 -1.2627  0.0000
 1443SOL    HW3 5846   4.116   3.754   2.625  0.2542 -0.4268 -0.1394
 1443SOL    MW4 5847   4.050   3.700   2.642  0.0000 -0.1192  0.0477
 1444SOL     OW 5848   4.272   4.351   2.318  0.3478  0.6346 -0.1503
 1444SOL    HW2 5849   4.295   4.259   2.303  1.5591  0.7130  1.4316
 1444SOL    HW3 5850   4.329   4.399   2.258 -0.3133  0.4096 -0.8767
 1444SOL    MW4 5851   4.283   4.345   2.308  0.4292  0.6199 -0.0238
 1445SOL     OW 5852   3.912   4.335   2.702  0.2590  0.5646 -0.0628
 1445SOL    HW2 5853   3.928   4.410   2.759  3.3782 -0.2461  0.1188
 1445SOL    HW3 5854   3.957   4.263   2.744  0.4110 -0.6398 -2.2362
 1445SOL    MW4 5855   3.920   4.336   2.715  0.6914  0.3338 -0.3338
 1446SOL     OW 5856   3.937   4.207   1.681 -0.0317  0.0381 -0.3345
 1446SOL    HW2 5857   3.964   4.124   1.719  0.0438 -0.4411 -1.4179
 1446SOL    HW3 5858   3.848   4.220   1.713  1.1089  1.0968  2.3913
 1446SOL    MW4 5859   3.929   4.198   1.691  0.1192  0.1431 -0.1192
 1447SOL     OW 5860   0.068   0.311   2.186 -0.1386  0.1672  0.0156
 1447SOL    HW2 5861   0.011   0.369   2.136  0.1843  0.7730  0.3495
 1447SOL    HW3 5862   0.035   0.317   2.276  0.9589  1.1405  0.3778
 1447SOL    MW4 5863   0.056   0.320   2.191  0.0484  0.3785  0.1192
 1448SOL     OW 5864   4.052   0.351   2.340  0.3211  0.0950 -0.3110
 1448SOL    HW2 5865   4.086   0.308   2.261  0.8029  0.2770 -0.2261
 1448SOL    HW3 5866   4.104   0.313   2.411  0.8357  0.9708 -0.2183
 1448SOL    MW4 5867   4.064   0.340   2.339  0.5245  0.2354 -0.2623
 1449SOL     OW 5868   4.214   0.310   2.554  0.1010  0.5866  0.5467
 1449SOL    HW2 5869   4.220   0.268   2.640  0.4232  0.6207  0.5340
 1449SOL    HW3 5870   4.199   0.402   2.574  0.5875  0.6607  0.5674
 1449SOL    MW4 5871   4.213   0.317   2.568  0.1907  0.5990  0.5484
 1450SOL     OW 5872   4.480   0.300   2.438  0.1803 -0.2750  0.3033
 1450SOL    HW2 5873   4.510   0.212   2.459 -1.3594 -1.0822 -0.8573
 1450SOL    HW3 5874   4.387   0.300   2.462 -0.3045  0.4290 -1.6839
 1450SOL    MW4 5875   4.472   0.288   2.444 -0.0477 -0.2861 -0.0954
 1451SOL     OW 5876   4.341   1.067   2.731  0.7296  0.9080  0.4508
 1451SOL    HW2 5877   4.413   1.018   2.772 -0.2687  0.2290  1.4203
 1451SOL    HW3 5878   4.264   1.013   2.745 -0.1264  1.9679  0.0546
 1451SOL    MW4 5879   4.340   1.053   2.738  0.4768  0.9418  0.5722
 1452SOL     OW 5880   0.026   0.929   3.174 -0.4771 -0.4722 -0.2419
 1452SOL    HW2 5881  -0.039   0.881   3.122  0.3192 -0.5654 -1.1310
 1452SOL    HW3 5882   0.051   1.003   3.118  0.9442 -1.0061 -0.3326
 1452SOL    MW4 5883   0.021   0.932   3.159 -0.1827 -0.5543 -0.3815
 1453SOL     OW 5884   4.286   1.247   2.934 -0.6867  0.6240  0.0141
 1453SOL    HW2 5885   4.373   1.282   2.957 -0.3086  0.4683 -1.2747
 1453SOL    HW3 5886   4.302   1.192   2.858 -2.0396  0.7897 -0.3741
 1453SOL    MW4 5887   4.300   1.245   2.927 -0.8106  0.6318 -0.1907
 1454SOL     OW 5888   0.083   1.177   3.019 -0.8654  0.0919 -0.0895
 1454SOL    HW2 5889   0.118   1.197   2.932  0.2740 -0.5292  0.2187
 1454SOL    HW3 5890   0.089   1.259   3.067 -0.6253  0.2080 -0.3218
 1454SOL    MW4 5891   0.088   1.190   3.014 -0.6840  0.0238 -0.0954
 1455SOL     OW 5892   0.103   1.339   2.786 -0.1026  0.1435 -0.0970
 1455SOL    HW2 5893   0.157   1.409   2.822 -1.2846  0.5417  0.8971
 1455SOL    HW3 5894   0.047   1.382   2.722 -0.1100 -0.0633 -0.2292
 1455SOL    MW4 5895   0.102   1.354   2.782 -0.2600  0.1788  0.0477
 1456SOL     OW 5896   4.152   1.421   2.791 -0.6526  0.3701  0.2472
 1456SOL    HW2 5897   4.192   1.356   2.848  0.2128 -0.0475 -0.8621
 1456SOL    HW3 5898   4.194   1.503   2.814  0.4117  0.0252 -0.5218
 1456SOL    MW4 5899   4.163   1.423   2.801 -0.4292  0.2742 -0.0238
 1457SOL     OW 5900   4.279   1.659   2.843 -0.0590  0.1627  0.3765
 1457SOL    HW2 5901   4.324   1.666   2.927 -0.7165  0.2119  0.7039
 1457SOL    HW3 5902   4.349   1.640   2.780  0.3057 -1.0032  1.1325
 1457SOL    MW4 5903   4.294   1.657   2.846 -0.0954  0.0119  0.5245
 1458SOL     OW 5904   0.060   1.791   2.936 -0.4654  0.3229 -0.1507
 1458SOL    HW2 5905   0.122   1.720   2.923 -1.3093 -0.3153 -0.7146
 1458SOL    HW3 5906   0.046   1.827   2.848 -1.6293 -0.1703 -0.1719
 1458SOL    MW4 5907   0.066   1.787   2.923 -0.7302  0.1788 -0.2384
 1459SOL     OW 5908   0.034   1.884   2.654 -0.2374  0.1495 -0.4217
 1459SOL    HW2 5909   0.115   1.934   2.659  0.2210 -0.6682  0.1814
 1459SOL    HW3 5910  -0.034   1.950   2.641  0.3790  0.9120  0.2346
 1459SOL    MW4 5911   0.036   1.899   2.653 -0.0954  0.1431 -0.2623
 1460SOL     OW 5912   4.379   2.804   3.079 -0.5242  0.7097  0.0248
 1460SOL    HW2 5913   4.291   2.768   3.063 -0.4519  0.2678  0.3747
 1460SOL    HW3 5914   4.418   2.744   3.143 -0.3707  1.4867  0.6608
 1460SOL    MW4 5915   4.372   2.791   3.085 -0.5245  0.7391  0.1669
 1461SOL     OW 5916   0.334   2.608   2.286 -0.0670  0.3362 -0.0894
 1461SOL    HW2 5917   0.244   2.628   2.312 -0.2422 -0.2049 -0.2593
 1461SOL    HW3 5918   0.348   2.519   2.317  0.5164  0.5245  0.2449
 1461SOL    MW4 5919   0.324   2.599   2.294 -0.0119  0.2861 -0.0715
 1462SOL     OW 5920   0.555   2.727   2.224  0.5037 -0.1014 -0.6581
 1462SOL    HW2 5921   0.465   2.696   2.236  0.5215 -0.1690 -0.6834
 1462SOL    HW3 5922   0.559   2.807   2.276  0.4364 -0.0928 -0.6544
 1462SOL    MW4 5923   0.543   2.734   2.232  0.5066 -0.1192 -0.6676
 1463SOL     OW 5924   0.555   3.435   2.589 -0.3330  0.6574 -0.2729
 1463SOL    HW2 5925   0.539   3.378   2.664  1.9114 -0.0278 -0.3059
 1463SOL    HW3 5926   0.497   3.402   2.520 -0.2255 -0.5218  0.2418
 1463SOL    MW4 5927   0.545   3.423   2.590 -0.0298  0.4053 -0.1907
 1464SOL     OW 5928   0.421   3.662   2.665 -0.4917  0.2944 -0.3613
 1464SOL    HW2 5929   0.463   3.676   2.750 -0.8151 -0.5944 -0.0447
 1464SOL    HW3 5930   0.470   3.589   2.626 -0.4639  0.5649 -0.8447
 1464SOL    MW4 5931   0.433   3.654   2.671 -0.5305  0.1907 -0.3576
 1465SOL     OW 5932   4.190   3.488   2.429  0.0882 -0.2587 -0.0464
 1465SOL    HW2 5933   4.155   3.469   2.516  2.2518 -0.2879  0.8332
 1465SOL    HW3 5934   4.284   3.500   2.443  0.1655  1.8802 -1.9673
 1465SOL    MW4 5935   4.197   3.487   2.443  0.3815  0.0477 -0.1907
 1466SOL     OW 5936   0.304   3.438   3.282  0.7921 -0.3500  0.1767
 1466SOL    HW2 5937   0.307   3.500   3.209  1.3634 -0.1997  0.3188
 1466SOL    HW3 5938   0.211   3.430   3.303  0.6717  0.0024 -0.2556
 1466SOL    MW4 5939   0.292   3.445   3.275  0.8523 -0.2861  0.0954
 1467SOL     OW 5940   0.449   4.235   2.149 -0.1828 -0.7529 -0.0085
 1467SOL    HW2 5941   0.535   4.197   2.170 -0.3843 -0.8282  0.7584
 1467SOL    HW3 5942   0.455   4.259   2.057  0.2787 -1.6983 -0.2045
 1467SOL    MW4 5943   0.461   4.233   2.140 -0.1490 -0.9537  0.0954
 1468SOL     OW 5944   3.865   3.941   2.655  0.6448  0.6331  0.4518
 1468SOL    HW2 5945   3.915   3.859   2.649  0.6310  0.7879 -1.8638
 1468SOL    HW3 5946   3.797   3.922   2.720  1.3881 -0.8338  0.8342
 1468SOL    MW4 5947   3.863   3.927   2.663  0.7629  0.4530  0.1907
 1469SOL     OW 5948   4.152   3.787   2.066  0.5292 -0.1357  0.4821
 1469SOL    HW2 5949   4.076   3.820   2.113  0.0666 -0.0130 -0.4106
 1469SOL    HW3 5950   4.226   3.801   2.125 -0.1125 -0.2604  1.3427
 1469SOL    MW4 5951   4.152   3.793   2.080  0.3815 -0.1431  0.4530
 1470SOL     OW 5952   4.138   0.269   2.104  0.1967  0.4937 -0.4161
 1470SOL    HW2 5953   4.075   0.199   2.118  0.1032  0.7892  0.8565
 1470SOL    HW3 5954   4.218   0.224   2.076 -0.1895 -0.0000 -0.6384
 1470SOL    MW4 5955   4.140   0.254   2.102  0.1431  0.4679 -0.2623
 1471SOL     OW 5956   0.445   4.546   1.615  0.0241 -0.0873 -0.7161
 1471SOL    HW2 5957   0.518   4.528   1.675 -0.7269 -0.4624  0.0892
 1471SOL    HW3 5958   0.384   4.598   1.666 -0.5644 -0.2843 -1.2187
 1471SOL    MW4 5959   0.447   4.551   1.629 -0.1520 -0.1907 -0.6795
 1472SOL     OW 5960   0.188   0.057   2.179  0.2540 -0.0655 -0.0518
 1472SOL    HW2 5961   0.141   0.135   2.149  0.4468  0.4512  0.9534
 1472SOL    HW3 5962   0.163  -0.011   2.118  0.3624  0.8956 -1.1688
 1472SOL    MW4 5963   0.179   0.059   2.167  0.2936  0.1281 -0.0715
 1473SOL     OW 5964   4.429   0.733   2.647 -0.4328  0.5637  0.3094
 1473SOL    HW2 5965   4.489   0.660   2.658 -0.7112  0.0666 -1.7328
 1473SOL    HW3 5966   4.342   0.693   2.641 -0.6191  1.0153 -0.5556
 1473SOL    MW4 5967   4.425   0.718   2.647 -0.4768  0.5603 -0.0477
 1474SOL     OW 5968   0.328   0.361   2.109 -0.0434 -0.4314  0.1002
 1474SOL    HW2 5969   0.244   0.339   2.148 -0.0021  0.2251  0.5260
 1474SOL    HW3 5970   0.383   0.285   2.126 -0.5078 -0.7994 -0.1137
 1474SOL    MW4 5971   0.325   0.348   2.117 -0.0954 -0.3934  0.1431
 1475SOL     OW 5972   0.228   0.692   2.730 -0.0240 -0.0268 -0.1047
 1475SOL    HW2 5973   0.323   0.702   2.728 -0.0846  0.6352  0.0795
 1475SOL    HW3 5974   0.214   0.603   2.762  0.5310  0.0215  0.2818
 1475SOL    MW4 5975   0.239   0.682   2.734  0.0402  0.0715 -0.0238
 1476SOL     OW 5976   0.058   0.919   2.835  0.6091  0.0778 -0.0051
 1476SOL    HW2 5977   0.135   0.915   2.892 -0.5198 -2.0157  1.3832
 1476SOL    HW3 5978   0.074   0.851   2.769  1.1822  1.4314 -1.2421
 1476SOL    MW4 5979   0.070   0.910   2.834  0.5357 -0.0179  0.0238
 1477SOL     OW 5980   0.284   0.906   2.971  0.9613 -0.5402  0.2134
 1477SOL    HW2 5981   0.293   0.975   3.037  0.3907 -0.5000  0.2598
 1477SOL    HW3 5982   0.358   0.920   2.912  0.6982  0.2554  0.0837
 1477SOL    MW4 5983   0.295   0.917   2.972  0.8523 -0.4292  0.1907
 1478SOL     OW 5984   0.388   1.136   3.099 -0.3920 -0.0582  0.6457
 1478SOL    HW2 5985   0.355   1.209   3.046  0.7301  0.2596  0.4011
 1478SOL    HW3 5986   0.454   1.094   3.044  0.7428  0.2546  1.7705
 1478SOL    MW4 5987   0.392   1.140   3.084 -0.0924  0.0238  0.7629
 1479SOL     OW 5988   0.744   1.746   2.948  0.7228  0.2362 -0.2409
 1479SOL    HW2 5989   0.697   1.767   3.028  0.1017  0.7025 -0.7502
 1479SOL    HW3 5990   0.718   1.656   2.927 -0.3335  0.6729 -0.8132
 1479SOL    MW4 5991   0.734   1.737   2.956  0.5007  0.3576 -0.3815
 1480SOL     OW 5992   0.308   1.382   3.019 -0.2461  0.1739 -0.0048
 1480SOL    HW2 5993   0.288   1.430   3.100 -0.4254  0.9145 -0.4735
 1480SOL    HW3 5994   0.336   1.450   2.958 -0.5890 -0.3057 -0.7124
 1480SOL    MW4 5995   0.309   1.398   3.022 -0.3129  0.2146 -0.1669
 1481SOL     OW 5996   0.275   1.608   2.815 -0.0053  0.1005 -0.2091
 1481SOL    HW2 5997   0.338   1.676   2.839 -0.1417  0.1240  0.0934
 1481SOL    HW3 5998   0.256   1.625   2.723  0.1081  0.3497 -0.1880
 1481SOL    MW4 5999   0.281   1.619   2.806 -0.0089  0.1311 -0.1431
 1482SOL     OW 6000   0.459   1.835   2.862  0.2798 -0.0404  0.2741
 1482SOL    HW2 6001   0.456   1.931   2.862  2.0629  0.0140  0.2523
 1482SOL    HW3 6002   0.423   1.810   2.947 -1.9636  0.6077 -0.4586
 1482SOL    MW4 6003   0.454   1.845   2.873  0.2205  0.0596  0.1907
 1483SOL     OW 6004   0.188   2.117   2.063 -0.4195  0.1671 -0.7807
 1483SOL    HW2 6005   0.251   2.046   2.066 -0.5348  0.0944 -0.5501
 1483SOL    HW3 6006   0.111   2.083   2.110  0.0587  0.9744  0.5454
 1483SOL    MW4 6007   0.186   2.103   2.069 -0.3710  0.2861 -0.5484
 1484SOL     OW 6008   0.280   2.394   2.069  0.3353  0.3758  0.2884
 1484SOL    HW2 6009   0.214   2.410   2.136  0.3239  0.4146  0.2610
 1484SOL    HW3 6010   0.276   2.300   2.054 -0.4915  0.5183 -0.5061
 1484SOL    MW4 6011   0.271   2.384   2.076  0.2235  0.4292  0.1907
 1485SOL     OW 6012   0.025   2.654   2.028 -0.1911 -0.0846 -0.2122
 1485SOL    HW2 6013   0.110   2.641   1.986 -0.5138  0.3282 -1.0032
 1485SOL    HW3 6014   0.044   2.656   2.122  0.5617 -0.9129 -0.3507
 1485SOL    MW4 6015   0.039   2.653   2.035 -0.1349 -0.1431 -0.3099
 1486SOL     OW 6016   0.541   2.956   1.753  0.1368 -0.1923 -0.0592
 1486SOL    HW2 6017   0.495   2.920   1.829  1.7624  0.6551  1.3226
 1486SOL    HW3 6018   0.530   2.890   1.684 -2.4029 -0.4050  0.5413
 1486SOL    MW4 6019   0.533   2.943   1.754  0.0119 -0.1192  0.2027
 1487SOL     OW 6020   0.615   3.069   2.179 -0.2668  0.4371  0.2930
 1487SOL    HW2 6021   0.584   3.112   2.099  0.7700  0.5825 -0.0301
 1487SOL    HW3 6022   0.538   3.063   2.235 -0.8396  1.0077 -0.4150
 1487SOL    MW4 6023   0.601   3.074   2.176 -0.2146  0.5484  0.1431
 1488SOL     OW 6024   0.791   3.457   2.123  0.9212  0.0101  3.7809
 1488SOL    HW2 6025   0.867   3.422   2.078  4.0267  6.5253  4.0379
 1488SOL    HW3 6026   0.750   3.516   2.059 -1.0048  0.4850  5.4096
 1488SOL    MW4 6027   0.795   3.460   2.109  1.0729  0.9060  4.0293
 1489SOL     OW 6028   0.840   3.226   1.758  0.0690  0.3583 -0.2289
 1489SOL    HW2 6029   0.883   3.311   1.750  0.5733  0.1114 -0.0477
 1489SOL    HW3 6030   0.869   3.193   1.843 -0.9301  0.4762  0.1478
 1489SOL    MW4 6031   0.850   3.233   1.768  0.0119  0.3576 -0.1550
 1490SOL     OW 6032   1.246   3.304   1.807  0.1185 -0.2793  0.5058
 1490SOL    HW2 6033   1.210   3.319   1.895  1.0601 -0.2354  0.8776
 1490SOL    HW3 6034   1.231   3.386   1.760  0.0113 -0.1888  0.7471
 1490SOL    MW4 6035   1.239   3.317   1.813  0.2146 -0.2623  0.5841
 1491SOL     OW 6036   0.290   4.071   1.847 -2.4429  0.3496  0.9956
 1491SOL    HW2 6037   0.299   4.153   1.895 -1.8353 -0.0183  1.4989
 1491SOL    HW3 6038   0.282   4.004   1.914 -1.2351 -0.2222  0.6251
 1491SOL    MW4 6039   0.290   4.073   1.862 -2.2024  0.1907  1.0133
 1492SOL     OW 6040   0.291   3.855   2.007  0.3676  0.1504  0.3489
 1492SOL    HW2 6041   0.336   3.872   2.090 -1.3985  0.1373  1.3265
 1492SOL    HW3 6042   0.206   3.820   2.034 -0.1064 -0.0791 -1.5105
 1492SOL    MW4 6043   0.285   3.852   2.022  0.0685  0.0954  0.2384
 1493SOL     OW 6044   0.451   0.129   2.180  0.4249 -0.0368 -0.3970
 1493SOL    HW2 6045   0.366   0.090   2.202  0.2760 -0.1315 -1.1122
 1493SOL    HW3 6046   0.503   0.119   2.259 -0.1406 -0.2406 -0.0377
 1493SOL    MW4 6047   0.447   0.122   2.193  0.3308 -0.0767 -0.4292
 1494SOL     OW 6048   4.422   4.029   1.914  0.5043 -0.0496  0.5539
 1494SOL    HW2 6049   4.463   4.097   1.860 -0.0681  0.3162  0.5618
 1494SOL    HW3 6050   4.328   4.044   1.902  0.4119  0.0638  1.7568
 1494SOL    MW4 6051   4.415   4.040   1.905  0.3338  0.0477  0.7272
 1495SOL     OW 6052   1.630   0.040   2.470 -0.7700  0.4888  0.1070
 1495SOL    HW2 6053   1.544   0.047   2.429 -0.3956  1.0222 -0.6104
 1495SOL    HW3 6054   1.663  -0.046   2.445 -1.1079  0.2843  0.3988
 1495SOL    MW4 6055   1.623   0.030   2.461 -0.7629  0.5279  0.0715
 1496SOL     OW 6056   0.598   0.109   2.400 -0.1363  0.5895 -0.3748
 1496SOL    HW2 6057   0.663   0.178   2.409  0.1094  0.3823 -0.5291
 1496SOL    HW3 6058   0.607   0.056   2.479 -0.0280  0.5029 -0.4397
 1496SOL    MW4 6059   0.608   0.111   2.412 -0.0834  0.5506 -0.3815
 1497SOL     OW 6060   0.264   0.272   2.646 -0.4926  0.2588  0.4107
 1497SOL    HW2 6061   0.207   0.348   2.652  0.0186  0.7823 -1.2418
 1497SOL    HW3 6062   0.351   0.308   2.629 -0.5478 -0.7452 -2.0659
 1497SOL    MW4 6063   0.268   0.287   2.644 -0.4292  0.1937 -0.1669
 1498SOL     OW 6064   0.817   0.373   2.857 -0.5420  0.0171  0.0955
 1498SOL    HW2 6065   0.865   0.411   2.931 -0.0357  1.1929 -0.8457
 1498SOL    HW3 6066   0.750   0.438   2.836 -0.4630 -0.1720 -0.7273
 1498SOL    MW4 6067   0.814   0.386   2.864 -0.4649  0.1460 -0.1669
 1499SOL     OW 6068   0.648   0.647   2.898 -0.3142 -0.1676  0.3747
 1499SOL    HW2 6069   0.566   0.627   2.943 -0.8502  0.9730 -0.1114
 1499SOL    HW3 6070   0.717   0.620   2.960 -1.0433 -0.5295  1.0286
 1499SOL    MW4 6071   0.647   0.641   2.912 -0.4828 -0.0656  0.3815
 1500SOL     OW 6072   0.499   0.753   2.671  0.2371 -0.2362 -0.5064
 1500SOL    HW2 6073   0.495   0.848   2.678  0.4167 -0.3060  0.4626
 1500SOL    HW3 6074   0.568   0.727   2.732 -1.0327 -1.1267  0.5479
 1500SOL    MW4 6075   0.507   0.762   2.680  0.0954 -0.3636 -0.2623
 1501SOL     OW 6076   0.638   1.475   2.949 -0.4577  0.0589 -0.0684
 1501SOL    HW2 6077   0.588   1.444   3.025  0.0880 -0.6385  0.0090
 1501SOL    HW3 6078   0.696   1.402   2.927 -0.9293  0.0928 -1.4328
 1501SOL    MW4 6079   0.639   1.461   2.957 -0.4470 -0.0238 -0.2623
 1502SOL     OW 6080   1.078   1.241   3.283  0.5978  0.4199  0.5341
 1502SOL    HW2 6081   1.066   1.297   3.207 -1.4478 -0.6581  0.0740
 1502SOL    HW3 6082   1.008   1.267   3.343  2.1211  1.1688  2.0083
 1502SOL    MW4 6083   1.067   1.252   3.281  0.5245  0.3695  0.6914
 1503SOL     OW 6084   1.053   1.444   3.075  0.2834  0.0614  0.2425
 1503SOL    HW2 6085   0.982   1.496   3.114  0.3637 -0.2367  0.7859
 1503SOL    HW3 6086   1.057   1.474   2.985 -0.8177 -0.2098  0.0943
 1503SOL    MW4 6087   1.044   1.455   3.068  0.1550 -0.0119  0.2861
 1504SOL     OW 6088   0.765   1.985   2.797  0.5718  0.2645 -0.1163
 1504SOL    HW2 6089   0.837   2.019   2.850  0.7560  0.2255 -0.3200
 1504SOL    HW3 6090   0.746   1.899   2.836  0.6865  0.2361 -0.0951
 1504SOL    MW4 6091   0.772   1.978   2.809  0.6080  0.2623 -0.1431
 1505SOL     OW 6092   0.712   2.176   3.035  0.0523 -0.5017  0.0038
 1505SOL    HW2 6093   0.637   2.233   3.049 -0.2666 -0.8977 -0.1177
 1505SOL    HW3 6094   0.682   2.113   2.969  0.3438 -0.9077  0.2352
 1505SOL    MW4 6095   0.698   2.175   3.028  0.0536 -0.6199  0.0238
 1506SOL     OW 6096   0.453   2.557   2.916 -0.2453  0.1510  0.7076
 1506SOL    HW2 6097   0.503   2.633   2.946 -0.8931  0.0480  2.0690
 1506SOL    HW3 6098   0.519   2.495   2.887  0.2888  1.2472 -0.4442
 1506SOL    MW4 6099   0.468   2.559   2.916 -0.2593  0.2861  0.7391
 1507SOL     OW 6100   0.348   2.585   2.637 -0.3760  0.6259 -0.5103
 1507SOL    HW2 6101   0.374   2.570   2.728 -0.1213 -0.6234 -0.7640
 1507SOL    HW3 6102   0.426   2.560   2.586 -0.8266  0.4275 -1.0848
 1507SOL    MW4 6103   0.362   2.580   2.642 -0.4053  0.4292 -0.6199
 1508SOL     OW 6104   0.284   2.139   2.413  0.0995  0.0205  0.8865
 1508SOL    HW2 6105   0.324   2.223   2.390 -0.1779  0.2019  1.0433
 1508SOL    HW3 6106   0.323   2.076   2.352 -0.4683  0.4292  0.0439
 1508SOL    MW4 6107   0.294   2.142   2.402 -0.0149  0.0954  0.7868
 1509SOL     OW 6108   0.621   3.174   1.569 -0.2653  0.5877 -0.1169
 1509SOL    HW2 6109   0.711   3.202   1.588 -0.8614  1.4100  1.4344
 1509SOL    HW3 6110   0.595   3.122   1.645 -1.2699  0.7063 -0.3713
 1509SOL    MW4 6111   0.630   3.171   1.582 -0.4768  0.7391  0.0477
 1510SOL     OW 6112   1.083   2.832   0.997  0.0000  0.0000  0.0032
 1510SOL    HW2 6113   1.106   2.825   1.090  0.0000  0.0000  0.0017
 1510SOL    HW3 6114   1.159   2.795   0.951  0.0000  0.0000  0.0003
 1510SOL    MW4 6115   1.096   2.826   1.004  0.0000  0.0000  0.0000
 1511SOL     OW 6116   1.148   3.096   2.004  0.0000  0.0000  0.0179
 1511SOL    HW2 6117   1.122   3.007   2.026  0.0000  0.0000  0.0219
 1511SOL    HW3 6118   1.136   3.101   1.909  0.0000  0.0000  0.0273
 1511SOL    MW4 6119   1.143   3.085   1.994  0.0000  0.0000  0.0238
 1512SOL     OW 6120   0.919   3.208   4.001  0.0000  0.0000  0.1601
 1512SOL    HW2 6121   0.903   3.287   3.949  0.0000  0.0000  0.1585
 1512SOL    HW3 6122   1.006   3.179   3.975  0.0000  0.0000  0.1501
 1512SOL    MW4 6123   0.928   3.215   3.991  0.0000  0.0000  0.1431
 1513SOL     OW 6124   0.887   3.462   1.076  0.0000  0.0000  3.7486
 1513SOL    HW2 6125   0.961   3.509   1.115  0.0000  0.0000  3.7521
 1513SOL    HW3 6126   0.810   3.512   1.103  0.0000  0.0000  3.7494
 1513SOL    MW4 6127   0.887   3.475   1.085  0.0000  0.0000  3.7432
 1514SOL     OW 6128   1.102   3.599   2.002  0.0000  0.0000 -0.0856
 1514SOL    HW2 6129   1.101   3.626   2.094  0.0000  0.0000 -0.1088
 1514SOL    HW3 6130   1.100   3.681   1.954  0.0000  0.0000 -0.0910
 1514SOL    MW4 6131   1.102   3.613   2.008  0.0000  0.0000 -0.0954
 1515SOL     OW 6132   1.098   3.851   1.966  0.0000  0.0000 -0.1779
 1515SOL    HW2 6133   1.178   3.889   2.004  0.0000  0.0000 -0.1831
 1515SOL    HW3 6134   1.110   3.859   1.872  0.0000  0.0000 -0.1744
 1515SOL    MW4 6135   1.110   3.857   1.959  0.0000  0.0000 -0.1788
 1516SOL     OW 6136   0.893   4.008   7.974  0.0000  0.0000 -0.1628
 1516SOL    HW2 6137   0.957   3.963   7.919  0.0000  0.0000 -0.1336
 1516SOL    HW3 6138   0.809   3.969   7.949  0.0000  0.0000 -0.1411
 1516SOL    MW4 6139   0.890   3.997   7.963  0.0000  0.0000 -0.1431
 1517SOL     OW 6140   0.888   4.266   4.004  0.0000  0.0000  0.0254
 1517SOL    HW2 6141   0.892   4.173   4.028  0.0000  0.0000  0.0350
 1517SOL    HW3 6142   0.884   4.265   3.908  0.0000  0.0000 -0.0033
 1517SOL    MW4 6143   0.888   4.254   3.995  0.0000  0.0000  0.0000
 1518SOL     OW 6144   1.144   4.351   3.996  0.0000  0.0000  0.2325
 1518SOL    HW2 6145   1.137   4.378   4.088  0.0000  0.0000  0.2390
 1518SOL    HW3 6146   1.055   4.327   3.971  0.0000  0.0000  0.2402
 1518SOL    MW4 6147   1.131   4.351   4.005  0.0000  0.0000  0.2384
 1519SOL     OW 6148   1.377   0.059   2.369 -0.1934  0.7209 -0.5045
 1519SOL    HW2 6149   1.346   0.023   2.452  0.3749  1.3995 -0.0004
 1519SOL    HW3 6150   1.345   0.150   2.368 -0.3613  0.6555 -1.1131
 1519SOL    MW4 6151   1.369   0.067   2.380 -0.1431  0.8017 -0.5245
 1520SOL     OW 6152   1.370   4.230   2.673  0.1491 -0.6774  0.9073
 1520SOL    HW2 6153   1.363   4.176   2.594  1.2116  0.7332 -0.1122
 1520SOL    HW3 6154   1.464   4.239   2.687 -0.0367 -0.4686  2.0086
 1520SOL    MW4 6155   1.382   4.224   2.664  0.2742 -0.4768  0.9060
 1521SOL     OW 6156   0.972   0.279   2.652 -0.3076 -0.0130 -0.3139
 1521SOL    HW2 6157   1.003   0.190   2.669  0.4096  0.2432 -0.2596
 1521SOL    HW3 6158   0.935   0.308   2.735 -1.4206 -0.6358 -0.6150
 1521SOL    MW4 6159   0.971   0.271   2.665 -0.3576 -0.0596 -0.3576
 1522SOL     OW 6160   1.194   4.098   2.856 -0.6024 -0.3570 -0.8767
 1522SOL    HW2 6161   1.209   4.174   2.913 -1.3044  0.6030 -1.9765
 1522SOL    HW3 6162   1.215   4.130   2.768 -2.1676 -1.0723 -1.4930
 1522SOL    MW4 6163   1.199   4.112   2.852 -0.8941 -0.3338 -1.1206
 1523SOL     OW 6164   1.916   0.847   3.071  0.3369 -0.1095  0.6803
 1523SOL    HW2 6165   1.828   0.885   3.074  0.3868  0.1190 -0.2227
 1523SOL    HW3 6166   1.916   0.793   2.992  1.0546  0.0115  0.6179
 1523SOL    MW4 6167   1.905   0.845   3.061  0.4411 -0.0656  0.5722
 1524SOL     OW 6168   0.909   0.519   3.083 -0.3725  0.1742  0.1124
 1524SOL    HW2 6169   0.959   0.600   3.076  1.1155 -0.8169 -0.6984
 1524SOL    HW3 6170   0.955   0.468   3.150 -0.0139 -0.9634 -1.0290
 1524SOL    MW4 6171   0.921   0.523   3.091 -0.1252 -0.1073 -0.1431
 1525SOL     OW 6172   1.064   0.958   3.254 -0.6631 -0.2381 -0.2535
 1525SOL    HW2 6173   1.048   0.908   3.174 -0.0886 -0.1856 -0.3970
 1525SOL    HW3 6174   1.041   1.048   3.230  0.0742 -0.1278 -0.5461
 1525SOL    MW4 6175   1.059   0.964   3.240 -0.4888 -0.2205 -0.3338
 1526SOL     OW 6176   1.313   1.742   3.035 -0.4483 -0.4488  0.0414
 1526SOL    HW2 6177   1.309   1.654   3.000  0.3753 -0.6722  0.5230
 1526SOL    HW3 6178   1.368   1.735   3.114  0.2512  0.6091 -0.3125
 1526SOL    MW4 6179   1.320   1.730   3.041 -0.2503 -0.3219  0.0477
 1527SOL     OW 6180   1.045   1.753   3.151  0.1727 -0.1633 -0.3678
 1527SOL    HW2 6181   1.085   1.725   3.234  0.7318 -0.2522 -0.7039
 1527SOL    HW3 6182   1.117   1.753   3.088 -0.2323  0.0525 -0.8292
 1527SOL    MW4 6183   1.060   1.750   3.154  0.2027 -0.1431 -0.4530
 1528SOL     OW 6184   0.968   2.022   2.971  0.0327 -0.3782 -0.2267
 1528SOL    HW2 6185   0.919   1.973   3.037  1.1844 -0.1106  0.8134
 1528SOL    HW3 6186   1.020   1.955   2.926 -0.1260 -0.4697 -0.3266
 1528SOL    MW4 6187   0.969   2.007   2.974  0.1669 -0.3815 -0.0954
 1529SOL     OW 6188   0.943   2.347   2.929 -0.3017  0.0648 -0.1297
 1529SOL    HW2 6189   0.940   2.267   2.981  0.0170 -0.2267 -0.5343
 1529SOL    HW3 6190   0.855   2.353   2.890 -0.0074 -0.6350 -0.8816
 1529SOL    MW4 6191   0.931   2.338   2.930 -0.2265 -0.0477 -0.2861
 1530SOL     OW 6192   1.132   2.831   2.615 -0.4592  0.2443 -0.2786
 1530SOL    HW2 6193   1.111   2.749   2.660  0.2690  0.2555  0.1245
 1530SOL    HW3 6194   1.047   2.870   2.595 -0.8067 -0.5352 -0.2863
 1530SOL    MW4 6195   1.118   2.825   2.619 -0.4172  0.1431 -0.2146
 1531SOL     OW 6196   0.699   2.325   2.530 -0.3968  0.1446  0.1801
 1531SOL    HW2 6197   0.688   2.414   2.498 -0.6897  0.2592  0.5892
 1531SOL    HW3 6198   0.786   2.324   2.569 -0.4605  0.3100  0.3306
 1531SOL    MW4 6199   0.709   2.337   2.531 -0.4470  0.1907  0.2623
 1532SOL     OW 6200   0.672   2.374   2.816 -0.6393  0.4324  0.4144
 1532SOL    HW2 6201   0.661   2.382   2.721 -1.4985  0.2950  0.4982
 1532SOL    HW3 6202   0.650   2.283   2.835 -0.2276  0.3837  0.7135
 1532SOL    MW4 6203   0.668   2.363   2.806 -0.6974  0.4292  0.4292
 1533SOL     OW 6204   0.741   2.838   1.979 -0.2609  0.4090 -0.6733
 1533SOL    HW2 6205   0.669   2.892   1.946  0.9822  0.8993 -2.5445
 1533SOL    HW3 6206   0.762   2.876   2.064 -0.1953  2.1103 -1.4463
 1533SOL    MW4 6207   0.734   2.850   1.986 -0.0894  0.7153 -1.0133
 1534SOL     OW 6208   1.658   2.971   2.265  0.4062 -0.2446 -0.2133
 1534SOL    HW2 6209   1.607   2.954   2.344 -0.2177 -0.2631 -0.6121
 1534SOL    HW3 6210   1.684   3.063   2.274  0.3976 -0.2819  0.1076
 1534SOL    MW4 6211   1.655   2.981   2.277  0.3219 -0.2623 -0.2146
 1535SOL     OW 6212   1.507   3.824   1.887 -0.0510 -0.0632 -0.4252
 1535SOL    HW2 6213   1.524   3.907   1.842 -1.0385  0.3523 -0.0512
 1535SOL    HW3 6214   1.547   3.836   1.974  0.9186 -0.4756 -0.8180
 1535SOL    MW4 6215   1.514   3.837   1.893 -0.0596 -0.0477 -0.4411
 1536SOL     OW 6216   1.597   4.199   1.954  0.0282 -0.0897 -0.5841
 1536SOL    HW2 6217   1.680   4.247   1.957  0.4528 -0.8212 -0.4753
 1536SOL    HW3 6218   1.532   4.266   1.932  0.8172  0.3252 -1.7191
 1536SOL    MW4 6219   1.600   4.214   1.951  0.1907 -0.1431 -0.7272
 1537SOL     OW 6220   2.333   4.285   1.965 -0.3238  0.4785 -0.8084
 1537SOL    HW2 6221   2.269   4.343   2.005  0.2296  1.0208 -0.7033
 1537SOL    HW3 6222   2.386   4.252   2.038 -0.2929  0.2275 -0.9143
 1537SOL    MW4 6223   2.332   4.288   1.980 -0.2384  0.5245 -0.8106
 1538SOL     OW 6224   1.863   4.307   1.962 -0.0708  0.0962 -0.3529
 1538SOL    HW2 6225   1.905   4.223   1.982 -2.1561 -0.9510 -0.1481
 1538SOL    HW3 6226   1.930   4.357   1.915  1.3046 -1.5827 -0.0888
 1538SOL    MW4 6227   1.877   4.303   1.958 -0.1669 -0.2861 -0.2980
 1539SOL     OW 6228   2.407   4.279   1.650  0.1344  0.1218 -1.2278
 1539SOL    HW2 6229   2.408   4.270   1.746 -0.4103 -0.1627 -1.2424
 1539SOL    HW3 6230   2.372   4.367   1.635  0.2544  0.2335 -1.1292
 1539SOL    MW4 6231   2.402   4.289   1.661  0.0715  0.0954 -1.2159
 1540SOL     OW 6232   1.639   0.028   1.889 -0.1849 -0.0059 -0.3784
 1540SOL    HW2 6233   1.678  -0.018   1.814  0.3171 -0.8049  0.3740
 1540SOL    HW3 6234   1.681  -0.011   1.966 -0.4447  1.0271  0.2961
 1540SOL    MW4 6235   1.650   0.016   1.889 -0.1550  0.0380 -0.1907
 1541SOL     OW 6236   1.686   0.264   2.342 -0.1531  0.1391  0.3084
 1541SOL    HW2 6237   1.647   0.183   2.375 -0.1515 -0.0817 -0.2537
 1541SOL    HW3 6238   1.757   0.235   2.284 -1.6234  0.5080 -1.6497
 1541SOL    MW4 6239   1.691   0.250   2.339 -0.3576  0.1594 -0.0238
 1542SOL     OW 6240   1.503   0.347   2.806 -0.4409  0.3164  0.3866
 1542SOL    HW2 6241   1.566   0.287   2.766  1.0048  1.1899  1.3503
 1542SOL    HW3 6242   1.549   0.382   2.882 -1.4871  2.1763  0.1561
 1542SOL    MW4 6243   1.517   0.344   2.811 -0.3934  0.6765  0.4530
 1543SOL     OW 6244   1.544   4.475   2.864  0.3217 -0.1792 -0.7630
 1543SOL    HW2 6245   1.598   4.478   2.943 -0.0106  0.1821 -0.5484
 1543SOL    HW3 6246   1.566   4.555   2.817  0.1324 -0.1466 -0.7931
 1543SOL    MW4 6247   1.554   4.486   2.868  0.2623 -0.0477 -0.7153
 1544SOL     OW 6248   1.923   4.206   3.291  0.6953 -1.2912 -0.3644
 1544SOL    HW2 6249   1.944   4.198   3.198  2.1169 -0.8411 -0.0615
 1544SOL    HW3 6250   1.840   4.253   3.293  0.3998 -1.7447 -1.4169
 1544SOL    MW4 6251   1.915   4.211   3.279  0.8345 -1.2875 -0.4530
 1545SOL     OW 6252   1.653   4.286   2.688  0.1099 -0.1522  0.0345
 1545SOL    HW2 6253   1.617   4.356   2.743 -0.9567  0.3000 -1.2455
 1545SOL    HW3 6254   1.747   4.290   2.704 -0.0999  0.6305  1.0152
 1545SOL    MW4 6255   1.661   4.296   2.698 -0.0596  0.0000  0.0000
 1546SOL     OW 6256   2.021   0.362   3.134 -0.5942  0.5484 -0.1196
 1546SOL    HW2 6257   1.960   0.399   3.071  0.3997 -1.3299 -2.1744
 1546SOL    HW3 6258   2.084   0.433   3.151 -2.0128  1.7150  0.2998
 1546SOL    MW4 6259   2.021   0.376   3.128 -0.6437  0.4560 -0.3338
 1547SOL     OW 6260   2.183   0.574   3.251 -0.0637  0.1397 -0.4326
 1547SOL    HW2 6261   2.129   0.651   3.270  0.5686  0.6097 -0.5463
 1547SOL    HW3 6262   2.236   0.600   3.176  1.0797  0.0358  0.3528
 1547SOL    MW4 6263   2.183   0.588   3.244  0.1907  0.1848 -0.3338
 1548SOL     OW 6264   2.147   1.073   3.063  0.4705 -0.4293 -0.4800
 1548SOL    HW2 6265   2.148   1.085   2.968 -0.5290  1.1335 -0.3085
 1548SOL    HW3 6266   2.071   1.016   3.079  1.2408 -1.4804 -0.7170
 1548SOL    MW4 6267   2.137   1.067   3.053  0.4292 -0.3576 -0.4768
 1549SOL     OW 6268   1.327   1.163   2.976 -0.3941 -0.2131 -0.1649
 1549SOL    HW2 6269   1.325   1.154   3.072 -0.5299 -0.4273 -0.1876
 1549SOL    HW3 6270   1.420   1.162   2.954 -0.3813 -0.8094 -0.0904
 1549SOL    MW4 6271   1.339   1.161   2.986 -0.4172 -0.3338 -0.1431
 1550SOL     OW 6272   2.046   1.483   3.076  0.3493  0.3829  0.0796
 1550SOL    HW2 6273   1.979   1.445   3.133  1.0796  0.7538  1.1453
 1550SOL    HW3 6274   2.128   1.448   3.109  0.8119  0.8698 -0.5205
 1550SOL    MW4 6275   2.048   1.474   3.088  0.5245  0.5007  0.1192
 1551SOL     OW 6276   2.233   1.460   2.851  0.1032 -0.3911  0.0713
 1551SOL    HW2 6277   2.147   1.443   2.889 -0.0953 -1.0995 -0.7191
 1551SOL    HW3 6278   2.255   1.549   2.879 -0.5580 -0.4952  0.8888
 1551SOL    MW4 6279   2.225   1.469   2.860 -0.0238 -0.5007  0.0477
 1552SOL     OW 6280   1.489   1.651   3.237 -0.0606  0.3549  0.6568
 1552SOL    HW2 6281   1.477   1.661   3.332 -0.0620  0.5325  0.6426
 1552SOL    HW3 6282   1.537   1.729   3.210 -0.2548  0.4199  0.4947
 1552SOL    MW4 6283   1.494   1.662   3.246 -0.0954  0.3815  0.6437
 1553SOL     OW 6284   1.210   2.130   3.142 -0.3780  0.2542 -0.1056
 1553SOL    HW2 6285   1.261   2.080   3.206 -1.3511  0.1334  0.5717
 1553SOL    HW3 6286   1.122   2.091   3.145 -0.2513 -0.1624 -1.9992
 1553SOL    MW4 6287   1.205   2.118   3.151 -0.4768  0.1907 -0.2384
 1554SOL     OW 6288   1.965   2.391   3.345 -0.7007  0.0734  0.1964
 1554SOL    HW2 6289   1.943   2.373   3.254 -0.5427 -0.5495  0.2660
 1554SOL    HW3 6290   1.905   2.336   3.396 -0.0026 -0.4743  0.4343
 1554SOL    MW4 6291   1.954   2.381   3.340 -0.5841 -0.0715  0.2146
 1555SOL     OW 6292   1.356   1.998   3.351 -0.4385  0.4936  0.4829
 1555SOL    HW2 6293   1.391   2.068   3.405 -0.0845  0.7409 -0.0308
 1555SOL    HW3 6294   1.419   1.988   3.280 -1.0558  0.4052 -0.0441
 1555SOL    MW4 6295   1.369   2.006   3.349 -0.4768  0.5007  0.3338
 1556SOL     OW 6296   0.874   2.653   2.419 -0.2968  0.5241  0.1634
 1556SOL    HW2 6297   0.969   2.646   2.420 -0.2804  0.7166  0.2445
 1556SOL    HW3 6298   0.848   2.606   2.339 -0.0342  1.6039 -0.5664
 1556SOL    MW4 6299   0.883   2.646   2.408 -0.2563  0.6914  0.0715
 1557SOL     OW 6300   2.308   3.155   2.345  0.2120  0.6306 -0.2000
 1557SOL    HW2 6301   2.389   3.105   2.350 -0.0010  0.3914  0.7243
 1557SOL    HW3 6302   2.249   3.111   2.406 -0.4712  1.1414 -0.5106
 1557SOL    MW4 6303   2.311   3.143   2.354  0.0954  0.6437 -0.1192
 1558SOL     OW 6304   2.305   3.432   2.180 -0.3452  0.2240 -0.5479
 1558SOL    HW2 6305   2.390   3.448   2.221  0.1609 -1.1604 -1.0902
 1558SOL    HW3 6306   2.315   3.349   2.135 -1.8440  0.3480 -1.1563
 1558SOL    MW4 6307   2.318   3.423   2.179 -0.4768  0.0477 -0.7153
 1559SOL     OW 6308   2.688   3.242   2.433 -0.1318  0.2731 -0.6096
 1559SOL    HW2 6309   2.766   3.188   2.439 -0.4618 -0.2397 -0.8848
 1559SOL    HW3 6310   2.642   3.227   2.516 -0.3438 -0.0451 -0.8045
 1559SOL    MW4 6311   2.692   3.233   2.445 -0.1907  0.1431 -0.6437
 1560SOL     OW 6312   2.079   3.940   2.188 -0.0073 -0.1728 -0.0227
 1560SOL    HW2 6313   2.052   3.855   2.153 -0.5397  0.1263 -0.2678
 1560SOL    HW3 6314   2.012   3.961   2.253 -0.2886  0.3866 -0.4888
 1560SOL    MW4 6315   2.067   3.932   2.192 -0.0954 -0.0477 -0.1192
 1561SOL     OW 6316   1.680   3.677   2.279 -0.2695  0.0152 -0.0265
 1561SOL    HW2 6317   1.764   3.709   2.244 -0.5527 -1.1559 -1.8098
 1561SOL    HW3 6318   1.620   3.750   2.267  0.0355  0.1841 -0.4747
 1561SOL    MW4 6319   1.683   3.691   2.273 -0.2623 -0.1192 -0.3338
 1562SOL     OW 6320   2.177   3.998   1.560  0.3915  0.0546 -0.7151
 1562SOL    HW2 6321   2.083   3.982   1.555  0.3488  0.1126  0.0530
 1562SOL    HW3 6322   2.192   4.024   1.651  1.0839  0.6423 -0.9954
 1562SOL    MW4 6323   2.167   3.999   1.572  0.5007  0.1192 -0.6437
 1563SOL     OW 6324   2.238   3.782   1.914 -0.7673  0.5723 -0.0140
 1563SOL    HW2 6325   2.254   3.738   1.831 -1.8423  0.1397 -0.0135
 1563SOL    HW3 6326   2.324   3.809   1.944 -0.2110 -0.6694 -0.5245
 1563SOL    MW4 6327   2.251   3.780   1.907 -0.8345  0.3815 -0.0834
 1564SOL     OW 6328   2.751   3.549   2.158  0.5343 -0.2487 -0.1181
 1564SOL    HW2 6329   2.687   3.523   2.225 -0.0065 -0.7360 -0.7954
 1564SOL    HW3 6330   2.742   3.644   2.152  0.3092 -0.2332  0.3176
 1564SOL    MW4 6331   2.741   3.558   2.166  0.4292 -0.3099 -0.1669
 1565SOL     OW 6332   3.086   4.496   2.393 -0.4216  0.3312 -0.1043
 1565SOL    HW2 6333   3.151   4.448   2.342 -0.5561  0.3572 -0.2891
 1565SOL    HW3 6334   3.106   4.475   2.484 -0.2591  0.2386 -0.1715
 1565SOL    MW4 6335   3.098   4.487   2.398 -0.4530  0.2861 -0.1431
 1566SOL     OW 6336   2.798   4.540   2.263 -0.0488  0.2820 -0.0192
 1566SOL    HW2 6337   2.887   4.512   2.246  0.2883  1.4924 -0.2509
 1566SOL    HW3 6338   2.793   4.547   2.359 -0.0875 -0.4763  0.0342
 1566SOL    MW4 6339   2.809   4.537   2.274 -0.0238  0.3338 -0.0238
 1567SOL     OW 6340   2.269   4.662   2.294 -0.3698  0.4162  0.5011
 1567SOL    HW2 6341   2.273   4.591   2.357 -1.8032  0.0063  0.1698
 1567SOL    HW3 6342   2.349   4.654   2.243  0.2334  0.0113  1.5136
 1567SOL    MW4 6343   2.280   4.652   2.296 -0.5007  0.3338  0.5722
 1568SOL     OW 6344   1.932   4.627   2.612  0.1323 -0.1529 -0.4719
 1568SOL    HW2 6345   2.025   4.638   2.634 -0.2821  0.3199  1.0535
 1568SOL    HW3 6346   1.906   4.711   2.574  0.4026 -0.4321 -1.2082
 1568SOL    MW4 6347   1.941   4.640   2.610  0.1192 -0.0477 -0.3815
 1569SOL     OW 6348   2.539   0.315   3.072  0.8333 -0.5802 -0.0705
 1569SOL    HW2 6349   2.469   0.288   3.013  1.6956 -0.6376 -1.0431
 1569SOL    HW3 6350   2.497   0.317   3.159 -0.5739  0.1601 -0.7781
 1569SOL    MW4 6351   2.524   0.312   3.076  0.7391 -0.4917 -0.3099
 1570SOL     OW 6352   2.696   0.633   3.383  0.4097  1.1539  0.6491
 1570SOL    HW2 6353   2.625   0.631   3.318  0.1317 -0.4487  0.9907
 1570SOL    HW3 6354   2.653   0.617   3.467  1.1177  0.8039  0.8997
 1570SOL    MW4 6355   2.681   0.630   3.385  0.4530  0.8941  0.7391
 1571SOL     OW 6356   2.498   0.663   3.201  0.2292  0.2124 -0.3098
 1571SOL    HW2 6357   2.477   0.755   3.213 -0.6479  0.0011 -0.2860
 1571SOL    HW3 6358   2.439   0.633   3.132 -0.7909 -0.8520  1.0941
 1571SOL    MW4 6359   2.488   0.671   3.194 -0.0238  0.0417 -0.1431
 1572SOL     OW 6360   2.460   1.012   3.027  0.6543 -0.2755  0.0509
 1572SOL    HW2 6361   2.511   1.051   3.098  0.3054 -0.2763  0.3000
 1572SOL    HW3 6362   2.371   1.010   3.060  0.4831 -0.2139 -0.4505
 1572SOL    MW4 6363   2.455   1.017   3.041  0.5960 -0.2623  0.0238
 1573SOL     OW 6364   2.355   1.393   3.085 -0.2256 -0.0399  0.7755
 1573SOL    HW2 6365   2.390   1.305   3.073 -0.1612 -0.2647  2.5850
 1573SOL    HW3 6366   2.328   1.421   2.997  0.4400 -1.5953  0.0509
 1573SOL    MW4 6367   2.356   1.385   3.072 -0.0954 -0.2623  0.9060
 1574SOL     OW 6368   2.595   1.509   3.154  0.0132 -0.0059  0.1550
 1574SOL    HW2 6369   2.649   1.467   3.086 -0.4421 -0.1605 -0.0966
 1574SOL    HW3 6370   2.507   1.475   3.138 -0.3351  0.8274  0.1145
 1574SOL    MW4 6371   2.591   1.499   3.143 -0.0954  0.0834  0.1192
 1575SOL     OW 6372   2.576   1.643   2.840 -0.1105 -0.0579 -0.5850
 1575SOL    HW2 6373   2.486   1.660   2.869 -0.0563 -0.3505 -0.2880
 1575SOL    HW3 6374   2.612   1.583   2.905  0.2160 -0.1473 -0.8632
 1575SOL    MW4 6375   2.568   1.637   2.852 -0.0715 -0.1073 -0.5722
 1576SOL     OW 6376   2.147   1.896   3.419 -0.3278  0.3140 -0.0758
 1576SOL    HW2 6377   2.200   1.917   3.343 -0.2168  0.4477  0.0559
 1576SOL    HW3 6378   2.107   1.812   3.398  0.0609  0.1256 -0.0631
 1576SOL    MW4 6379   2.149   1.888   3.406 -0.2861  0.3099 -0.0477
 1577SOL     OW 6380   2.333   1.710   2.944 -0.0867 -0.0625 -0.0432
 1577SOL    HW2 6381   2.332   1.717   3.039  0.3118 -0.1280 -0.0218
 1577SOL    HW3 6382   2.292   1.790   2.913  0.1420  0.1452  0.1788
 1577SOL    MW4 6383   2.328   1.721   2.952  0.0238 -0.0477 -0.0238
 1578SOL     OW 6384   2.749   2.104   2.669  0.0257  0.0907 -0.6275
 1578SOL    HW2 6385   2.767   2.183   2.720 -0.6590  0.0780 -0.3470
 1578SOL    HW3 6386   2.734   2.036   2.735  1.3955 -0.4410 -0.8631
 1578SOL    MW4 6387   2.750   2.106   2.684  0.1192  0.0238 -0.5960
 1579SOL     OW 6388   1.932   2.288   2.954 -0.3722  0.7036  0.6712
 1579SOL    HW2 6389   2.013   2.309   3.001 -0.0272  0.6423  0.0575
 1579SOL    HW3 6390   1.929   2.192   2.956 -0.1126  0.7018  0.1402
 1579SOL    MW4 6391   1.942   2.278   2.961 -0.2861  0.7153  0.5245
 1580SOL     OW 6392   1.356   2.491   2.583 -0.1010  0.1874 -0.8684
 1580SOL    HW2 6393   1.270   2.510   2.621  0.6648  1.4956  0.2058
 1580SOL    HW3 6394   1.389   2.417   2.634  0.1924  0.8587 -0.1222
 1580SOL    MW4 6395   1.349   2.484   2.595  0.0358  0.4292 -0.6437
 1581SOL     OW 6396   1.471   2.940   2.478  0.1177  0.3635 -0.1545
 1581SOL    HW2 6397   1.522   2.961   2.556 -0.3620 -1.0721  0.5238
 1581SOL    HW3 6398   1.485   2.847   2.464 -0.6780  0.3940 -1.1417
 1581SOL    MW4 6399   1.480   2.931   2.486 -0.0477  0.1669 -0.2146
 1582SOL     OW 6400   1.464   2.284   2.731 -0.1383  0.3703  0.2426
 1582SOL    HW2 6401   1.493   2.201   2.694 -0.0997  0.5179 -0.1156
 1582SOL    HW3 6402   1.530   2.305   2.797  0.1107  0.3648 -0.0408
 1582SOL    MW4 6403   1.477   2.276   2.735 -0.1073  0.3815  0.1431
 1583SOL     OW 6404   3.149   2.835   2.855 -0.3457  0.0693 -0.0704
 1583SOL    HW2 6405   3.184   2.761   2.806 -0.4024  1.0556 -1.6135
 1583SOL    HW3 6406   3.218   2.901   2.852 -0.7045  0.4605  0.3570
 1583SOL    MW4 6407   3.162   2.834   2.848 -0.3815  0.2623 -0.1907
 1584SOL     OW 6408   2.936   2.786   2.702  0.2163  0.2766  0.1058
 1584SOL    HW2 6409   2.880   2.734   2.761  0.6459  0.8658  1.0170
 1584SOL    HW3 6410   3.009   2.813   2.757  0.8894  0.3651 -0.8490
 1584SOL    MW4 6411   2.938   2.782   2.717  0.3576  0.3815  0.0954
 1585SOL     OW 6412   2.145   3.533   1.972  0.3317  0.5439  0.3999
 1585SOL    HW2 6413   2.179   3.622   1.962  1.2412  0.0484 -0.9064
 1585SOL    HW3 6414   2.205   3.492   2.034  1.5292  0.0061 -1.1546
 1585SOL    MW4 6415   2.157   3.540   1.979  0.6199  0.4292  0.0238
 1586SOL     OW 6416   2.907   3.129   1.976  0.3866 -0.8656 -0.3220
 1586SOL    HW2 6417   2.874   3.166   1.894  1.8041 -1.2549 -1.0910
 1586SOL    HW3 6418   2.906   3.202   2.038  0.0386 -0.3688 -0.9150
 1586SOL    MW4 6419   2.903   3.143   1.973  0.5007 -0.8583 -0.5126
 1587SOL     OW 6420   2.504   3.877   1.945 -0.3848 -0.1882 -0.0770
 1587SOL    HW2 6421   2.541   3.911   1.863 -1.6487  0.4227 -0.4013
 1587SOL    HW3 6422   2.580   3.867   2.003  0.6453 -1.4589 -1.6452
 1587SOL    MW4 6423   2.519   3.880   1.942 -0.4292 -0.2861 -0.3457
 1588SOL     OW 6424   3.514   4.017   2.793  0.2104 -0.2421  0.3484
 1588SOL    HW2 6425   3.530   4.077   2.720  0.4897 -0.5514  0.1729
 1588SOL    HW3 6426   3.427   4.041   2.825  0.9248  1.2226  1.2216
 1588SOL    MW4 6427   3.505   4.028   2.788  0.3576 -0.0954  0.4530
 1589SOL     OW 6428   3.618   4.506   2.539  0.0608  0.3245 -0.3553
 1589SOL    HW2 6429   3.645   4.418   2.566  2.6325  0.6860 -1.8315
 1589SOL    HW3 6430   3.623   4.558   2.619  1.7910 -0.0781 -0.1940
 1589SOL    MW4 6431   3.622   4.501   2.553  0.6437  0.3338 -0.5245
 1590SOL     OW 6432   2.987   4.119   3.025 -0.4774 -0.3151  0.3971
 1590SOL    HW2 6433   2.966   4.047   3.085  0.4727 -0.2225  0.8531
 1590SOL    HW3 6434   2.944   4.196   3.062 -2.2234 -0.8448 -0.5653
 1590SOL    MW4 6435   2.979   4.119   3.038 -0.5722 -0.4292  0.3576
 1591SOL     OW 6436   2.606   4.455   2.634  0.0050 -0.3522  0.3330
 1591SOL    HW2 6437   2.687   4.488   2.595 -0.6995 -0.7079 -1.3750
 1591SOL    HW3 6438   2.547   4.530   2.635 -0.5419 -0.7298 -0.8243
 1591SOL    MW4 6439   2.609   4.469   2.629 -0.1669 -0.4292 -0.0477
 1592SOL     OW 6440   2.349   0.228   2.870  0.2341 -0.3619  0.1159
 1592SOL    HW2 6441   2.313   0.147   2.834  0.3583 -0.5409  0.3860
 1592SOL    HW3 6442   2.430   0.242   2.821 -0.3506  0.1888 -0.7307
 1592SOL    MW4 6443   2.355   0.219   2.859  0.1907 -0.3144  0.0238
 1593SOL     OW 6444   2.832   0.501   3.169  0.2849 -0.4268  0.1934
 1593SOL    HW2 6445   2.770   0.516   3.097  0.1759 -0.3504  0.2761
 1593SOL    HW3 6446   2.791   0.544   3.245  0.3872 -0.5156  0.2998
 1593SOL    MW4 6447   2.818   0.509   3.170  0.2861 -0.4292  0.2146
 1594SOL     OW 6448   2.991   0.306   3.261  0.3854  0.2266  0.1116
 1594SOL    HW2 6449   3.061   0.312   3.196  0.0792 -0.0414 -0.2205
 1594SOL    HW3 6450   2.930   0.376   3.237 -0.0774 -0.3431 -0.2837
 1594SOL    MW4 6451   2.992   0.316   3.249  0.2384  0.1162  0.0238
 1595SOL     OW 6452   2.682   0.594   2.934 -0.0325  0.3661  0.5377
 1595SOL    HW2 6453   2.754   0.557   2.884 -0.3275  1.1857 -0.4830
 1595SOL    HW3 6454   2.649   0.666   2.880 -0.8386  0.7439  1.4890
 1595SOL    MW4 6455   2.687   0.599   2.920 -0.1669  0.5245  0.5245
 1596SOL     OW 6456   2.567   0.833   2.827  0.0899  0.0763 -0.3184
 1596SOL    HW2 6457   2.651   0.872   2.803 -0.1320 -0.0452 -1.2955
 1596SOL    HW3 6458   2.538   0.883   2.903  0.3746  1.0528 -0.8413
 1596SOL    MW4 6459   2.574   0.844   2.834  0.1192  0.1848 -0.5007
 1597SOL     OW 6460   2.462   1.223   2.846 -0.0701  0.3467  0.2846
 1597SOL    HW2 6461   2.546   1.238   2.804 -0.2726 -0.1110 -0.2715
 1597SOL    HW3 6462   2.470   1.137   2.887  0.0690  0.6998  1.0139
 1597SOL    MW4 6463   2.474   1.213   2.846 -0.0715  0.3457  0.3338
 1598SOL     OW 6464   2.763   1.413   2.658  0.4422 -0.0565 -0.4855
 1598SOL    HW2 6465   2.758   1.402   2.753 -0.6741  0.8068 -0.4284
 1598SOL    HW3 6466   2.843   1.368   2.633  0.0599 -1.4533  0.7222
 1598SOL    MW4 6467   2.773   1.405   2.667  0.2384 -0.1311 -0.3099
 1599SOL     OW 6468   2.907   1.675   2.764  0.8411  0.0260 -0.0898
 1599SOL    HW2 6469   2.851   1.736   2.811  0.8231 -0.4962  0.6279
 1599SOL    HW3 6470   2.849   1.603   2.739  1.0693 -0.2558  0.1482
 1599SOL    MW4 6471   2.892   1.673   2.767  0.8345 -0.0715  0.0477
 1600SOL     OW 6472   2.711   1.887   2.850  0.0804 -0.0623 -0.8903
 1600SOL    HW2 6473   2.735   1.869   2.941  0.2053  0.1188 -0.9109
 1600SOL    HW3 6474   2.641   1.825   2.830 -0.5877  0.5309 -0.3802
 1600SOL    MW4 6475   2.705   1.877   2.860  0.0238  0.0358 -0.8106
 1601SOL     OW 6476   3.023   1.765   2.538  0.2659  0.0135  0.0347
 1601SOL    HW2 6477   2.972   1.731   2.612 -0.4639  0.1913 -0.3884
 1601SOL    HW3 6478   3.049   1.853   2.566  0.1519  0.0114  0.1460
 1601SOL    MW4 6479   3.020   1.772   2.552  0.1669  0.0358  0.0000
 1602SOL     OW 6480   3.152   1.585   3.228  0.2252 -0.0152 -0.0204
 1602SOL    HW2 6481   3.160   1.651   3.297  0.0132  0.0967 -0.1213
 1602SOL    HW3 6482   3.184   1.629   3.149 -0.6082  0.2390 -0.2439
 1602SOL    MW4 6483   3.158   1.599   3.227  0.0715  0.0358 -0.0477
 1603SOL     OW 6484   3.236   2.397   2.494  0.1978  0.7995  0.1060
 1603SOL    HW2 6485   3.279   2.312   2.487  1.0543  1.2870 -0.5219
 1603SOL    HW3 6486   3.147   2.377   2.522  0.7592 -0.2376  1.0949
 1603SOL    MW4 6487   3.230   2.383   2.497  0.3815  0.7153  0.1431
 1604SOL     OW 6488   3.064   2.147   2.360  0.5010  0.0392  0.1534
 1604SOL    HW2 6489   3.050   2.125   2.453 -0.8322  0.3610  0.0433
 1604SOL    HW3 6490   3.010   2.224   2.346  1.2524  0.4398 -0.6993
 1604SOL    MW4 6491   3.055   2.154   2.371  0.4530  0.1431  0.0000
 1605SOL     OW 6492   2.277   2.046   3.030 -0.2120  0.4441  0.7400
 1605SOL    HW2 6493   2.286   2.043   2.934 -1.1510 -1.0988  0.6756
 1605SOL    HW3 6494   2.258   2.137   3.050 -0.8716  0.6049 -0.6199
 1605SOL    MW4 6495   2.276   2.057   3.020 -0.4530  0.2623  0.5722
 1606SOL     OW 6496   2.969   2.351   2.583 -0.3893  0.2113  0.2204
 1606SOL    HW2 6497   2.950   2.439   2.551 -1.2269 -0.2602 -0.5653
 1606SOL    HW3 6498   2.907   2.338   2.655 -0.3072  0.2646  0.3019
 1606SOL    MW4 6499   2.958   2.361   2.588 -0.4768  0.1669  0.1431
 1607SOL     OW 6500   3.121   2.186   2.834  0.3371 -0.5981  0.1213
 1607SOL    HW2 6501   3.061   2.230   2.894 -0.4780 -0.8252 -0.5305
 1607SOL    HW3 6502   3.144   2.253   2.769 -0.3123 -0.9077 -0.4243
 1607SOL    MW4 6503   3.116   2.201   2.833  0.1431 -0.6914 -0.0477
 1608SOL     OW 6504   2.905   2.536   3.140 -0.6174 -0.5350 -0.5306
 1608SOL    HW2 6505   2.965   2.609   3.126  0.6489 -1.6389 -0.8235
 1608SOL    HW3 6506   2.893   2.532   3.234 -2.0187  1.1108 -0.6431
 1608SOL    MW4 6507   2.911   2.545   3.150 -0.6199 -0.4768 -0.5960
 1609SOL     OW 6508   3.229   3.311   2.588 -0.2621  0.2129 -0.3104
 1609SOL    HW2 6509   3.188   3.225   2.590 -0.9387  0.4838 -1.3371
 1609SOL    HW3 6510   3.302   3.305   2.650 -1.3528 -0.5701  0.8454
 1609SOL    MW4 6511   3.233   3.299   2.596 -0.4768  0.1431 -0.2861
 1610SOL     OW 6512   3.270   3.864   2.718  0.4023  0.2824  0.0016
 1610SOL    HW2 6513   3.304   3.810   2.789 -0.5257 -0.6535 -0.2866
 1610SOL    HW3 6514   3.190   3.821   2.691 -0.0086  1.4704 -0.6961
 1610SOL    MW4 6515   3.264   3.851   2.724  0.2384  0.3099 -0.1431
 1611SOL     OW 6516   2.919   3.336   2.158  0.5354  0.0151  0.4018
 1611SOL    HW2 6517   2.930   3.333   2.253  1.5419 -0.1483  0.3012
 1611SOL    HW3 6518   2.871   3.417   2.142  2.8150  1.4956  0.8986
 1611SOL    MW4 6519   2.914   3.347   2.168  0.9775  0.1907  0.4768
 1612SOL     OW 6520   2.779   3.602   2.813  0.2410  0.3818  0.0444
 1612SOL    HW2 6521   2.752   3.588   2.904  0.7984  1.4386  0.3841
 1612SOL    HW3 6522   2.834   3.680   2.816 -1.0109  1.3030 -1.4606
 1612SOL    MW4 6523   2.783   3.610   2.826  0.1669  0.6437 -0.0954
 1613SOL     OW 6524   2.942   3.949   3.221 -0.0805 -0.0273 -0.0103
 1613SOL    HW2 6525   3.037   3.940   3.229 -0.1926 -0.5050  0.5655
 1613SOL    HW3 6526   2.916   3.876   3.166 -0.2887 -0.5070  0.7331
 1613SOL    MW4 6527   2.952   3.938   3.215 -0.1192 -0.1431  0.1669
 1614SOL     OW 6528   3.209   3.908   3.208  0.1141 -0.1956  0.3711
 1614SOL    HW2 6529   3.280   3.947   3.156  1.5027 -1.7290  1.0784
 1614SOL    HW3 6530   3.214   3.815   3.189 -1.7775 -0.2943  0.3134
 1614SOL    MW4 6531   3.219   3.901   3.199  0.0477 -0.4053  0.4530
 1615SOL     OW 6532   2.836   0.170   2.286  0.2272  0.1092 -0.3909
 1615SOL    HW2 6533   2.843   0.076   2.298 -0.1592  0.1640  0.2646
 1615SOL    HW3 6534   2.894   0.207   2.352  0.4504  0.3117 -0.6841
 1615SOL    MW4 6535   2.845   0.163   2.296  0.1907  0.1431 -0.3338
 1616SOL     OW 6536   2.841   4.553   2.548 -0.1133  0.4021 -0.5440
 1616SOL    HW2 6537   2.920   4.504   2.569  0.0019  0.4209 -0.9600
 1616SOL    HW3 6538   2.834   4.619   2.618  0.1948  0.3474 -0.5123
 1616SOL    MW4 6539   2.850   4.555   2.560 -0.0715  0.3815 -0.5960
 1617SOL     OW 6540   2.802   0.051   2.775 -0.3162  0.0949  0.3830
 1617SOL    HW2 6541   2.804  -0.014   2.845 -0.4893 -0.8592 -0.4924
 1617SOL    HW3 6542   2.713   0.086   2.777  0.0853  0.9430  1.4459
 1617SOL    MW4 6543   2.790   0.047   2.784 -0.2623  0.0808  0.4053
 1618SOL     OW 6544   3.069   0.080   2.841 -0.3179 -1.1070  0.8709
 1618SOL    HW2 6545   3.081   0.164   2.885 -0.1005 -1.1750  0.9441
 1618SOL    HW3 6546   2.977   0.079   2.815  0.3788  0.4460 -1.7356
 1618SOL    MW4 6547   3.059   0.091   2.843 -0.2146 -0.9112  0.5245
 1619SOL     OW 6548   3.101   0.317   2.992 -0.3353 -0.8433  0.0719
 1619SOL    HW2 6549   3.176   0.362   2.953 -0.0115 -1.6550 -0.2516
 1619SOL    HW3 6550   3.025   0.364   2.958  0.0867  0.7172  1.3110
 1619SOL    MW4 6551   3.101   0.329   2.983 -0.2623 -0.7451  0.2146
 1620SOL     OW 6552   3.129   0.651   2.714 -0.5566 -0.6784  0.2175
 1620SOL    HW2 6553   3.125   0.743   2.739  0.6397 -0.8116  0.8225
 1620SOL    HW3 6554   3.212   0.619   2.749 -1.0515 -2.0339  0.2344
 1620SOL    MW4 6555   3.139   0.659   2.722 -0.4768 -0.8762  0.2861
 1621SOL     OW 6556   3.429   1.146   2.846  0.2028 -0.2319 -0.2865
 1621SOL    HW2 6557   3.394   1.091   2.776  0.9513 -1.0171 -0.0751
 1621SOL    HW3 6558   3.356   1.158   2.906 -0.1265 -0.5683 -0.6247
 1621SOL    MW4 6559   3.415   1.141   2.845  0.2623 -0.3934 -0.3099
 1622SOL     OW 6560   3.421   1.340   2.627  0.4414  0.2980 -0.0933
 1622SOL    HW2 6561   3.512   1.331   2.601  0.3677 -0.1289 -0.2027
 1622SOL    HW3 6562   3.408   1.271   2.692 -0.4768 -1.1547 -1.8402
 1622SOL    MW4 6563   3.431   1.330   2.632  0.2861  0.0477 -0.3338
 1623SOL     OW 6564   3.458   1.654   2.751 -0.0321  0.4881  0.1749
 1623SOL    HW2 6565   3.443   1.633   2.844 -0.4475  0.5289  0.0771
 1623SOL    HW3 6566   3.380   1.622   2.706  1.1433 -1.4462 -0.4639
 1623SOL    MW4 6567   3.446   1.647   2.758  0.0477  0.2265  0.0715
 1624SOL     OW 6568   3.288   1.636   2.987  0.4653 -0.2911  0.4978
 1624SOL    HW2 6569   3.254   1.716   2.946  0.8464 -0.0732  0.6123
 1624SOL    HW3 6570   3.242   1.565   2.942  0.3625 -0.0227  0.2361
 1624SOL    MW4 6571   3.277   1.637   2.976  0.5007 -0.2146  0.4530
 1625SOL     OW 6572   2.873   1.948   2.365 -0.0434  0.3721  0.1641
 1625SOL    HW2 6573   2.939   2.016   2.355  0.3075  0.0673  0.6659
 1625SOL    HW3 6574   2.916   1.879   2.414 -0.3694 -0.3331 -0.5460
 1625SOL    MW4 6575   2.887   1.948   2.370 -0.0477  0.2384  0.1192
 1626SOL     OW 6576   3.289   1.877   2.739 -0.3679 -0.0572  0.4749
 1626SOL    HW2 6577   3.368   1.823   2.735 -0.5920 -0.3902  0.1634
 1626SOL    HW3 6578   3.294   1.922   2.823  0.8359  0.9814 -0.1573
 1626SOL    MW4 6579   3.300   1.875   2.749 -0.2384  0.0358  0.3576
 1627SOL     OW 6580   3.319   1.937   3.026 -0.3846  0.0801 -0.0043
 1627SOL    HW2 6581   3.361   2.021   3.006  0.7189 -0.3631  0.4177
 1627SOL    HW3 6582   3.252   1.958   3.091  0.2440  0.5884  0.4714
 1627SOL    MW4 6583   3.316   1.951   3.032 -0.1669  0.0954  0.0954
 1628SOL     OW 6584   3.166   1.783   3.428  0.1461 -0.0166  0.3046
 1628SOL    HW2 6585   3.141   1.849   3.364 -0.5971 -0.6743 -0.0935
 1628SOL    HW3 6586   3.241   1.822   3.474  1.2255  0.0688 -1.5540
 1628SOL    MW4 6587   3.173   1.797   3.426  0.1907 -0.0954  0.0238
 1629SOL     OW 6588   3.369   2.206   2.968  0.2566 -0.0538 -0.3884
 1629SOL    HW2 6589   3.282   2.194   2.930  0.1350 -1.4859  0.3393
 1629SOL    HW3 6590   3.427   2.213   2.893 -0.3995  0.4212 -0.8582
 1629SOL    MW4 6591   3.365   2.205   2.953  0.1431 -0.1669 -0.3576
 1630SOL     OW 6592   3.423   2.199   3.695  0.0733 -0.1705  0.9656
 1630SOL    HW2 6593   3.403   2.110   3.664  0.2380 -0.3066  1.2681
 1630SOL    HW3 6594   3.466   2.241   3.621  0.5813 -0.5668  1.0297
 1630SOL    MW4 6595   3.426   2.193   3.681  0.1431 -0.2146  1.0252
 1631SOL     OW 6596   3.871   2.830   3.614 -0.0230  0.5405  0.2202
 1631SOL    HW2 6597   3.809   2.757   3.614  0.2345  0.3128 -0.3880
 1631SOL    HW3 6598   3.881   2.853   3.522  2.3284 -0.7348  0.1672
 1631SOL    MW4 6599   3.864   2.823   3.602  0.3338  0.3576  0.1431
 1632SOL     OW 6600   3.283   3.002   3.138 -0.0887  0.1342  0.3478
 1632SOL    HW2 6601   3.315   2.912   3.142 -0.8176 -0.0121  2.5637
 1632SOL    HW3 6602   3.360   3.056   3.157  0.0519 -0.0133  0.3067
 1632SOL    MW4 6603   3.298   2.997   3.141 -0.1669  0.0954  0.6437
 1633SOL     OW 6604   3.484   2.695   2.595  0.1335  0.5770  0.0760
 1633SOL    HW2 6605   3.401   2.736   2.571  0.6234  0.9150 -1.0033
 1633SOL    HW3 6606   3.534   2.764   2.637  0.7746  0.9909 -1.3753
 1633SOL    MW4 6607   3.479   2.709   2.597  0.2623  0.6914 -0.2623
 1634SOL     OW 6608   3.227   3.610   2.538 -0.7890  0.1792 -0.3505
 1634SOL    HW2 6609   3.215   3.517   2.556 -2.4672  0.2602 -1.1539
 1634SOL    HW3 6610   3.258   3.614   2.448  0.3402  0.3607  0.0172
 1634SOL    MW4 6611   3.230   3.598   2.528 -0.8821  0.2384 -0.4292
 1635SOL     OW 6612   3.437   3.601   2.718 -0.5621  0.3206  0.4437
 1635SOL    HW2 6613   3.359   3.611   2.662 -0.1365  0.0222 -0.2081
 1635SOL    HW3 6614   3.435   3.509   2.746  0.1780 -0.0008 -0.4960
 1635SOL    MW4 6615   3.426   3.590   2.714 -0.4292  0.2146  0.2384
 1636SOL     OW 6616   3.091   3.624   3.149 -0.4409  0.3834  0.5666
 1636SOL    HW2 6617   3.181   3.603   3.124 -0.6002  1.1893 -0.6464
 1636SOL    HW3 6618   3.041   3.616   3.068 -1.6980 -1.2551  1.5058
 1636SOL    MW4 6619   3.096   3.620   3.135 -0.6437  0.2623  0.5245
 1637SOL     OW 6620   3.382   3.665   3.148 -0.2341 -0.2710 -0.2451
 1637SOL    HW2 6621   3.398   3.709   3.231  0.5665 -1.1117  0.1072
 1637SOL    HW3 6622   3.431   3.716   3.084 -0.3656  0.0615 -0.0540
 1637SOL    MW4 6623   3.391   3.677   3.150 -0.1669 -0.3338 -0.1669
 1638SOL     OW 6624   3.674   4.331   2.829  0.1749  0.4586  0.3687
 1638SOL    HW2 6625   3.614   4.281   2.774  0.7729 -1.1048  1.1361
 1638SOL    HW3 6626   3.758   4.327   2.782  0.0588  1.3228  0.1206
 1638SOL    MW4 6627   3.677   4.324   2.815  0.2623  0.4292  0.4292
 1639SOL     OW 6628   3.858   0.100   2.706 -0.0283  1.0627  0.6827
 1639SOL    HW2 6629   3.767   0.077   2.726 -0.0927  1.1164  0.4556
 1639SOL    HW3 6630   3.874   0.065   2.619  0.7006 -0.3778  1.3996
 1639SOL    MW4 6631   3.848   0.093   2.698  0.0715  0.8792  0.7629
 1640SOL     OW 6632   3.287   0.022   2.655 -0.1412  0.1737  0.0135
 1640SOL    HW2 6633   3.234   0.065   2.722  0.2395  0.9588 -0.1973
 1640SOL    HW3 6634   3.257   0.060   2.573  0.3695  0.2317 -0.1286
 1640SOL    MW4 6635   3.276   0.032   2.653 -0.0238  0.2850 -0.0238
 1641SOL     OW 6636   3.030   0.243   2.475 -0.0058  0.1676 -0.6369
 1641SOL    HW2 6637   3.060   0.333   2.457  0.4527 -0.0894 -1.1618
 1641SOL    HW3 6638   3.099   0.188   2.440 -0.7907 -0.4148 -1.2551
 1641SOL    MW4 6639   3.043   0.248   2.468 -0.0715  0.0566 -0.7868
 1642SOL     OW 6640   3.171   0.512   2.418 -0.7234 -0.0682 -0.0181
 1642SOL    HW2 6641   3.127   0.577   2.472  0.2513  0.6460 -0.0853
 1642SOL    HW3 6642   3.245   0.481   2.472 -0.0222  0.3213 -0.7508
 1642SOL    MW4 6643   3.175   0.516   2.432 -0.5007  0.0834 -0.1431
 1643SOL     OW 6644   3.824   0.802   2.800  0.2984  1.1702 -0.0107
 1643SOL    HW2 6645   3.733   0.831   2.807 -0.0445  0.2869 -1.1474
 1643SOL    HW3 6646   3.831   0.728   2.860  0.3377  1.4023  0.3015
 1643SOL    MW4 6647   3.813   0.796   2.809  0.2384  1.0848 -0.1192
 1644SOL     OW 6648   3.411   0.773   2.747  0.2184 -0.2402  0.3448
 1644SOL    HW2 6649   3.474   0.799   2.814  0.3688  0.6895 -0.2252
 1644SOL    HW3 6650   3.393   0.853   2.698 -1.0217 -0.6084  0.1529
 1644SOL    MW4 6651   3.417   0.787   2.749  0.0954 -0.1669  0.2384
 1645SOL     OW 6652   3.360   0.999   2.607  0.3173 -0.4748  0.4880
 1645SOL    HW2 6653   3.370   0.974   2.516  0.6015 -2.0703  0.9632
 1645SOL    HW3 6654   3.275   1.044   2.611  0.6655  0.2552 -0.6760
 1645SOL    MW4 6655   3.350   1.002   2.596  0.3815 -0.5960  0.4292
 1646SOL     OW 6656   3.661   1.347   2.486 -0.2835  0.1668 -0.3708
 1646SOL    HW2 6657   3.708   1.293   2.549 -1.2810  0.3501  0.5143
 1646SOL    HW3 6658   3.677   1.437   2.515  0.8998  0.3333 -1.5579
 1646SOL    MW4 6659   3.669   1.352   2.498 -0.2861  0.2146 -0.4292
 1647SOL     OW 6660   3.683   1.596   2.587 -0.3517 -0.0702 -0.1440
 1647SOL    HW2 6661   3.768   1.610   2.629 -0.5743  0.8516  0.0211
 1647SOL    HW3 6662   3.619   1.607   2.657 -0.6616 -0.0898 -0.4043
 1647SOL    MW4 6663   3.686   1.599   2.602 -0.4530  0.0596 -0.1669
 1648SOL     OW 6664   3.804   1.502   3.198  1.1754 -0.0595 -0.1986
 1648SOL    HW2 6665   3.790   1.584   3.151  1.2714  0.3380  0.5032
 1648SOL    HW3 6666   3.720   1.484   3.240  1.5608  0.3829  0.7558
 1648SOL    MW4 6667   3.791   1.511   3.197  1.2159  0.0596  0.0477
 1649SOL     OW 6668   3.739   1.751   3.082  0.0577 -0.0925  0.2555
 1649SOL    HW2 6669   3.781   1.825   3.126 -0.2428  0.6655 -0.7663
 1649SOL    HW3 6670   3.706   1.786   3.000 -0.0916 -1.3403 -0.2434
 1649SOL    MW4 6671   3.740   1.765   3.077 -0.0238 -0.1550  0.0477
 1650SOL     OW 6672   3.844   2.188   2.907 -0.6563  0.5259 -0.4004
 1650SOL    HW2 6673   3.918   2.129   2.897  0.2007  1.4034  0.7880
 1650SOL    HW3 6674   3.798   2.155   2.985 -0.9850  0.5704 -0.5640
 1650SOL    MW4 6675   3.847   2.176   2.916 -0.5722  0.6437 -0.2623
 1651SOL     OW 6676   3.769   2.458   2.811 -0.6102  0.2777 -0.8078
 1651SOL    HW2 6677   3.787   2.371   2.847 -1.4199  0.6551  0.3991
 1651SOL    HW3 6678   3.707   2.441   2.740  0.0743 -0.2388 -1.2860
 1651SOL    MW4 6679   3.763   2.444   2.806 -0.6199  0.2623 -0.7153
 1652SOL     OW 6680   3.474   2.150   3.244  0.1587  0.1963  1.0417
 1652SOL    HW2 6681   3.457   2.057   3.257 -0.9357  0.1879 -0.3312
 1652SOL    HW3 6682   3.441   2.168   3.156  0.3275  1.9006  1.3448
 1652SOL    MW4 6683   3.467   2.140   3.234  0.0477  0.4292  0.9298
 1653SOL     OW 6684   3.589   2.315   3.460 -0.1980  0.0958  0.4696
 1653SOL    HW2 6685   3.576   2.244   3.396 -0.3311  0.0944  0.4859
 1653SOL    HW3 6686   3.513   2.372   3.448 -0.3248 -0.0475  0.8102
 1653SOL    MW4 6687   3.577   2.313   3.450 -0.2384  0.0715  0.5245
 1654SOL     OW 6688   3.759   2.513   3.290  0.6695 -0.0377  0.2463
 1654SOL    HW2 6689   3.724   2.536   3.204  0.2293 -0.8590  0.1866
 1654SOL    HW3 6690   3.684   2.474   3.336  0.8950  0.4865  1.0313
 1654SOL    MW4 6691   3.744   2.511   3.285  0.6199 -0.0954  0.3338
 1655SOL     OW 6692   4.288   2.760   2.632  0.5376 -0.1589 -0.2906
 1655SOL    HW2 6693   4.289   2.846   2.675  0.5182 -0.1435 -0.3358
 1655SOL    HW3 6694   4.202   2.724   2.654  0.2132  0.1542 -0.8749
 1655SOL    MW4 6695   4.277   2.767   2.640  0.4768 -0.1431 -0.3815
 1656SOL     OW 6696   4.193   2.398   3.605  0.0747  0.6426  0.1738
 1656SOL    HW2 6697   4.105   2.417   3.637  0.0750  0.5011  0.1589
 1656SOL    HW3 6698   4.183   2.381   3.512 -0.0711 -0.7364  0.4477
 1656SOL    MW4 6699   4.180   2.398   3.597  0.0954  0.4530  0.1907
 1657SOL     OW 6700   3.549   2.863   3.006 -0.0239  0.0482  0.0959
 1657SOL    HW2 6701   3.590   2.779   2.986 -0.5669  0.1801 -1.4749
 1657SOL    HW3 6702   3.621   2.921   3.031  0.5145 -0.3706 -0.5564
 1657SOL    MW4 6703   3.564   2.860   3.007 -0.0238  0.0238 -0.1669
 1658SOL     OW 6704   3.703   2.605   3.032 -0.6050  0.1167  0.3319
 1658SOL    HW2 6705   3.780   2.661   3.021 -0.8642  0.5762  0.7322
 1658SOL    HW3 6706   3.708   2.542   2.960  0.1608  0.1315  0.3671
 1658SOL    MW4 6707   3.714   2.604   3.021 -0.5007  0.1669  0.3815
 1659SOL     OW 6708   3.532   3.098   2.479 -0.2906 -0.2437  0.1751
 1659SOL    HW2 6709   3.622   3.128   2.464 -0.1494 -0.6020  0.3012
 1659SOL    HW3 6710   3.539   3.040   2.555 -0.6899 -0.0367  0.3652
 1659SOL    MW4 6711   3.545   3.095   2.487 -0.3099 -0.2861  0.2384
 1660SOL     OW 6712   3.964   3.015   2.681 -0.5748  0.6675  0.0696
 1660SOL    HW2 6713   3.952   3.069   2.603 -0.8156 -0.2765 -0.5434
 1660SOL    HW3 6714   3.893   3.042   2.740 -0.2472  1.5204  0.0471
 1660SOL    MW4 6715   3.953   3.026   2.679 -0.5960  0.6676 -0.0238
 1661SOL     OW 6716   3.601   4.559   2.974  0.2209 -0.1602  0.1360
 1661SOL    HW2 6717   3.634   4.476   2.941 -2.1848 -0.9994 -0.1855
 1661SOL    HW3 6718   3.600   4.549   3.069 -0.5531 -0.6231  0.0514
 1661SOL    MW4 6719   3.605   4.547   2.982 -0.1907 -0.3338  0.0715
 1662SOL     OW 6720   3.594   0.017   2.737 -0.5075 -0.1652 -0.2366
 1662SOL    HW2 6721   3.587  -0.025   2.823 -0.2266  0.3264 -0.0048
 1662SOL    HW3 6722   3.503   0.026   2.709 -0.5711 -0.0562  0.0829
 1662SOL    MW4 6723   3.581   0.012   2.745 -0.4530 -0.0942 -0.1431
 1663SOL     OW 6724   4.217   0.058   2.378  0.2173  0.9517  0.0768
 1663SOL    HW2 6725   4.300   0.015   2.396 -0.7625 -0.6333  0.9405
 1663SOL    HW3 6726   4.157  -0.013   2.355 -1.1950  1.9539  0.6367
 1663SOL    MW4 6727   4.220   0.043   2.378 -0.0477  0.8751  0.2623
 1664SOL     OW 6728   3.716   0.289   2.539 -0.1858  0.3705  0.7351
 1664SOL    HW2 6729   3.760   0.373   2.555 -1.4566  0.9302  1.2635
 1664SOL    HW3 6730   3.762   0.227   2.594  0.1482  0.9046  1.0465
 1664SOL    MW4 6731   3.728   0.292   2.548 -0.3099  0.5096  0.8583
 1665SOL     OW 6732   3.560   0.562   2.902  0.1810 -1.0440  0.2704
 1665SOL    HW2 6733   3.648   0.563   2.941 -0.1075 -0.2886  0.8935
 1665SOL    HW3 6734   3.576   0.555   2.808  0.9125 -1.7045  0.4240
 1665SOL    MW4 6735   3.574   0.561   2.894  0.2146 -1.0312  0.3576
 1666SOL     OW 6736   3.984   0.077   3.328 -0.5707  0.1246  0.3128
 1666SOL    HW2 6737   3.929   0.056   3.253 -0.3755  0.4613  0.0784
 1666SOL    HW3 6738   4.073   0.073   3.294 -0.4883  0.6760  0.3971
 1666SOL    MW4 6739   3.988   0.074   3.314 -0.5484  0.2414  0.3099
 1667SOL     OW 6740   4.111   0.917   2.812  0.2078  0.4730  0.2108
 1667SOL    HW2 6741   4.156   0.858   2.871  0.1390  0.9521  0.7149
 1667SOL    HW3 6742   4.027   0.874   2.793  0.6858 -0.2226 -0.3842
 1667SOL    MW4 6743   4.106   0.904   2.817  0.2384  0.4411  0.2146
 1668SOL     OW 6744   3.950   0.994   3.024  0.5953 -0.2541  0.2917
 1668SOL    HW2 6745   4.016   0.983   2.956  0.8283 -1.0412  0.6687
 1668SOL    HW3 6746   3.879   1.042   2.980  0.7750 -0.7754 -0.5514
 1668SOL    MW4 6747   3.949   0.999   3.009  0.6676 -0.4351  0.2146
 1669SOL     OW 6748   3.820   1.204   2.703 -0.2399  0.6125  0.4811
 1669SOL    HW2 6749   3.857   1.280   2.748  0.8786 -0.2716  1.0663
 1669SOL    HW3 6750   3.771   1.157   2.771  0.5685 -0.1726  0.5162
 1669SOL    MW4 6751   3.819   1.208   2.718  0.0000  0.3934  0.5722
 1670SOL     OW 6752   3.898   1.406   2.875 -0.4283  0.0794  0.4076
 1670SOL    HW2 6753   3.904   1.369   2.963 -0.1808 -0.9194 -0.0546
 1670SOL    HW3 6754   3.988   1.425   2.850 -0.5465  0.8880  0.5810
 1670SOL    MW4 6755   3.911   1.404   2.883 -0.3815  0.0477  0.3815
 1671SOL     OW 6756   3.920   1.646   2.702 -0.0946 -0.1039 -0.3851
 1671SOL    HW2 6757   3.903   1.595   2.781 -1.3449 -0.1327 -0.6524
 1671SOL    HW3 6758   3.979   1.591   2.650  0.7088 -0.1171  0.5532
 1671SOL    MW4 6759   3.926   1.632   2.705 -0.1431 -0.1311 -0.2861
 1672SOL     OW 6760   3.826   1.262   3.377  0.6559  0.3784  0.2202
 1672SOL    HW2 6761   3.897   1.197   3.373  0.7104  0.4380  0.3894
 1672SOL    HW3 6762   3.847   1.324   3.307  0.3610 -0.0170 -0.2259
 1672SOL    MW4 6763   3.838   1.261   3.367  0.6199  0.3457  0.1669
 1673SOL     OW 6764   3.951   1.934   2.796  0.0031 -0.0891  0.2134
 1673SOL    HW2 6765   3.996   1.893   2.870  0.4804  0.0494  0.0092
 1673SOL    HW3 6766   3.956   1.869   2.726 -0.1653 -0.1035  0.2250
 1673SOL    MW4 6767   3.957   1.920   2.797  0.0238 -0.0834  0.2146
 1674SOL     OW 6768   4.125   1.840   2.985 -0.4842  0.1494  0.4674
 1674SOL    HW2 6769   4.167   1.925   2.976 -0.0764 -0.0553  0.2908
 1674SOL    HW3 6770   4.173   1.783   2.926 -0.3135 -0.3060  0.9995
 1674SOL    MW4 6771   4.137   1.843   2.976 -0.4292  0.0715  0.5007
 1675SOL     OW 6772   0.068   2.389   2.259 -0.0495 -0.2751  0.1894
 1675SOL    HW2 6773  -0.023   2.413   2.241 -0.0633 -0.8300 -0.4246
 1675SOL    HW3 6774   0.063   2.331   2.335 -0.0972  0.6279  0.8884
 1675SOL    MW4 6775   0.055   2.385   2.267 -0.0555 -0.2384  0.1907
 1676SOL     OW 6776   4.208   2.320   2.493 -0.9218  0.1699 -0.7894
 1676SOL    HW2 6777   4.121   2.323   2.530 -0.8588 -0.9092 -0.5066
 1676SOL    HW3 6778   4.200   2.264   2.416 -0.6047  0.5469 -1.0813
 1676SOL    MW4 6779   4.196   2.313   2.487 -0.9060  0.0715 -0.7868
 1677SOL     OW 6780   3.970   2.402   2.611  0.0843  0.1436 -0.5434
 1677SOL    HW2 6781   4.043   2.414   2.671  0.5770 -0.4833 -1.0264
 1677SOL    HW3 6782   3.892   2.407   2.666  0.5066 -0.4678  0.1591
 1677SOL    MW4 6783   3.969   2.404   2.626  0.1907 -0.0238 -0.5245
 1678SOL     OW 6784   4.289   2.489   2.263  0.1027  0.4837 -0.7430
 1678SOL    HW2 6785   4.267   2.444   2.345 -0.2200  0.5182 -0.8017
 1678SOL    HW3 6786   4.272   2.581   2.281  0.0850  0.4878 -0.8186
 1678SOL    MW4 6787   4.284   2.495   2.276  0.0477  0.4768 -0.7391
 1679SOL     OW 6788   0.420   3.079   2.835  0.4610 -0.1845  0.3856
 1679SOL    HW2 6789   0.386   3.164   2.806  1.9035  0.5883  0.9763
 1679SOL    HW3 6790   0.400   3.019   2.763 -0.3325  0.6987 -0.1480
 1679SOL    MW4 6791   0.413   3.082   2.822  0.5484  0.0238  0.4053
 1680SOL     OW 6792   0.027   2.569   2.592  0.2385 -0.4683 -0.4393
 1680SOL    HW2 6793   0.114   2.607   2.605  0.4482 -0.6791 -1.1571
 1680SOL    HW3 6794  -0.034   2.638   2.614  0.6049 -0.4740  0.5812
 1680SOL    MW4 6795   0.031   2.583   2.596  0.3166 -0.5245 -0.3815
 1681SOL     OW 6796   4.184   3.322   2.716  0.1580  0.4902  0.0803
 1681SOL    HW2 6797   4.251   3.362   2.771 -0.2310  1.2274 -0.0467
 1681SOL    HW3 6798   4.144   3.256   2.772 -1.4048  2.4332  1.2623
 1681SOL    MW4 6799   4.188   3.318   2.731 -0.0954  0.8345  0.2384
 1682SOL     OW 6800   4.381   3.762   2.971  0.2693  0.4648 -0.3552
 1682SOL    HW2 6801   4.382   3.686   2.913  0.1209 -0.1408  0.3668
 1682SOL    HW3 6802   4.372   3.725   3.059 -0.2798  1.3794 -0.0265
 1682SOL    MW4 6803   4.380   3.747   2.975  0.1431  0.5007 -0.2146
 1683SOL     OW 6804   3.710   3.326   2.713  0.6288 -0.2956 -0.2484
 1683SOL    HW2 6805   3.790   3.372   2.739  1.1418 -0.2890 -1.9258
 1683SOL    HW3 6806   3.678   3.374   2.637 -0.2044 -1.2614 -0.4939
 1683SOL    MW4 6807   3.716   3.338   2.707  0.5960 -0.4292 -0.5007
 1684SOL     OW 6808   4.045   4.076   2.460  0.2516 -0.0131 -0.5176
 1684SOL    HW2 6809   4.103   4.112   2.526  0.1513  0.6392 -0.8025
 1684SOL    HW3 6810   3.974   4.140   2.451 -0.2104 -0.5046 -0.7015
 1684SOL    MW4 6811   4.043   4.089   2.467  0.1431  0.0000 -0.5960
 1685SOL     OW 6812   4.289   4.436   3.118 -0.3841  0.3739 -0.4170
 1685SOL    HW2 6813   4.221   4.433   3.185 -0.1733  0.6475 -0.1678
 1685SOL    HW3 6814   4.270   4.362   3.061  0.0921 -0.6068  0.6818
 1685SOL    MW4 6815   4.278   4.426   3.119 -0.3338  0.2861 -0.2623
 1686SOL     OW 6816   4.175   4.391   2.604  0.3127  0.3945 -0.5465
 1686SOL    HW2 6817   4.081   4.371   2.612  0.0142  1.6192 -0.4705
 1686SOL    HW3 6818   4.193   4.382   2.510  0.2816 -0.7247 -0.4506
 1686SOL    MW4 6819   4.165   4.387   2.593  0.2861  0.4292 -0.5007
 1687SOL     OW 6820   4.265   0.250   2.810 -0.0962  0.1871  0.9412
 1687SOL    HW2 6821   4.340   0.191   2.810  0.0011  0.3036  1.4272
 1687SOL    HW3 6822   4.200   0.206   2.865  0.3130  1.0080  2.1091
 1687SOL    MW4 6823   4.266   0.237   2.817 -0.0477  0.3129  1.1683
 1688SOL     OW 6824   0.185   4.245   2.227 -0.1444 -0.3013  0.5528
 1688SOL    HW2 6825   0.273   4.241   2.189  0.2380 -1.0040  1.5046
 1688SOL    HW3 6826   0.199   4.262   2.320 -1.0152 -0.4018  0.6796
 1688SOL    MW4 6827   0.198   4.246   2.234 -0.2101 -0.3815  0.6914
 1689SOL     OW 6828   4.259   0.521   2.953  0.0609  0.3530  0.0750
 1689SOL    HW2 6829   4.291   0.458   2.889  0.8605 -0.3916  1.2133
 1689SOL    HW3 6830   4.174   0.486   2.980 -0.2361  0.6735 -0.5537
 1689SOL    MW4 6831   4.252   0.508   2.948  0.0954  0.2921  0.1669
 1690SOL     OW 6832   4.321   0.796   2.989 -0.1834  0.2885  0.3898
 1690SOL    HW2 6833   4.393   0.816   2.931  0.3618  1.1127  1.3818
 1690SOL    HW3 6834   4.303   0.703   2.974  0.2654  0.3922 -0.7383
 1690SOL    MW4 6835   4.328   0.786   2.979 -0.0477  0.4113  0.3576
 1691SOL     OW 6836   4.373   0.523   3.191 -0.3882  0.3034 -0.3717
 1691SOL    HW2 6837   4.360   0.529   3.096 -0.6632  0.1365 -0.3495
 1691SOL    HW3 6838   4.287   0.543   3.229  0.0007  1.5156 -0.1207
 1691SOL    MW4 6839   4.360   0.527   3.184 -0.3815  0.4470 -0.3338
 1692SOL     OW 6840   4.265   0.341   3.498 -0.1632 -0.3180  1.1060
 1692SOL    HW2 6841   4.300   0.406   3.437 -0.6522  1.5837  2.7826
 1692SOL    HW3 6842   4.187   0.307   3.456 -0.4141  0.8392  0.5917
 1692SOL    MW4 6843   4.260   0.345   3.485 -0.2861  0.0864  1.2636
 1693SOL     OW 6844   0.121   0.673   3.242 -0.3590  0.3218  0.2325
 1693SOL    HW2 6845   0.090   0.763   3.231 -0.0841  0.5351  1.2210
 1693SOL    HW3 6846   0.048   0.619   3.213 -0.2270  0.8597 -1.1386
 1693SOL    MW4 6847   0.107   0.678   3.237 -0.3047  0.4232  0.1669
 1694SOL     OW 6848   0.218   1.221   3.333 -0.2877 -0.0807  0.0054
 1694SOL    HW2 6849   0.125   1.198   3.330 -0.2419 -0.2508 -0.1451
 1694SOL    HW3 6850   0.256   1.177   3.257  0.0080 -0.4461  0.3581
 1694SOL    MW4 6851   0.210   1.213   3.322 -0.2429 -0.1550  0.0238
 1695SOL     OW 6852   0.228   1.496   3.257  0.2183  0.1425 -0.0349
 1695SOL    HW2 6853   0.141   1.487   3.218  0.0324  0.8099  0.2396
 1695SOL    HW3 6854   0.245   1.412   3.298 -0.4758  0.1276  0.2627
 1695SOL    MW4 6855   0.219   1.484   3.257  0.1013  0.2384  0.0477
 1696SOL     OW 6856   4.477   1.412   3.141 -0.3491 -0.2807  0.1710
 1696SOL    HW2 6857   4.418   1.358   3.194  0.3426 -0.0361  1.1928
 1696SOL    HW3 6858   4.429   1.493   3.126 -0.3209 -0.1128  0.9020
 1696SOL    MW4 6859   4.463   1.416   3.146 -0.1907 -0.2384  0.4053
 1697SOL     OW 6860   0.298   1.853   3.383  0.4230  0.2651  0.7238
 1697SOL    HW2 6861   0.237   1.811   3.444  0.2792  0.2107  0.5315
 1697SOL    HW3 6862   0.243   1.884   3.312  0.6175  0.1851  0.5351
 1697SOL    MW4 6863   0.282   1.851   3.382  0.4262  0.2503  0.6676
 1698SOL     OW 6864   0.623   1.889   3.378  0.0587 -0.0377 -0.1778
 1698SOL    HW2 6865   0.568   1.949   3.428 -0.2868 -0.1899 -0.3808
 1698SOL    HW3 6866   0.673   1.841   3.444 -0.6660 -0.4961  0.0512
 1698SOL    MW4 6867   0.622   1.890   3.393 -0.0775 -0.1311 -0.1907
 1699SOL     OW 6868   0.463   2.118   2.860  0.1900 -0.2543 -0.0983
 1699SOL    HW2 6869   0.404   2.131   2.933  0.7653 -0.3905  0.4134
 1699SOL    HW3 6870   0.406   2.111   2.783 -0.3764  0.4026  0.2611
 1699SOL    MW4 6871   0.448   2.119   2.859  0.1937 -0.1907  0.0238
 1700SOL     OW 6872   0.085   2.225   2.810  0.2068 -0.5192 -0.0562
 1700SOL    HW2 6873   0.070   2.204   2.902 -1.7193 -0.9233 -0.4659
 1700SOL    HW3 6874   0.053   2.315   2.800  3.1203  0.5072  0.3352
 1700SOL    MW4 6875   0.079   2.234   2.821  0.3368 -0.4530 -0.0715
 1701SOL     OW 6876   0.036   3.060   3.042  0.3792  0.4008 -0.8412
 1701SOL    HW2 6877   0.088   3.001   3.097 -1.2481 -0.8032 -0.5945
 1701SOL    HW3 6878  -0.021   3.002   2.991  1.1647  1.5879 -3.0616
 1701SOL    MW4 6879   0.035   3.044   3.043  0.2712  0.4053 -1.0729
 1702SOL     OW 6880   0.627   3.412   2.948  0.3773  0.7515 -0.1720
 1702SOL    HW2 6881   0.703   3.443   2.998  0.6852  1.5868 -1.1367
 1702SOL    HW3 6882   0.595   3.336   2.997  1.6453  0.6259  0.3960
 1702SOL    MW4 6883   0.633   3.406   2.961  0.5841  0.8583 -0.2384
 1703SOL     OW 6884   1.124   3.039   3.014  0.5903  0.1816 -0.6010
 1703SOL    HW2 6885   1.090   3.122   3.047 -0.5309 -1.0606  1.3854
 1703SOL    HW3 6886   1.048   2.980   3.011  1.8891 -1.5552  0.4808
 1703SOL    MW4 6887   1.110   3.042   3.018  0.5960 -0.2146 -0.2146
 1704SOL     OW 6888   0.814   2.990   3.357  0.6347 -0.2495  0.5160
 1704SOL    HW2 6889   0.767   3.049   3.417  0.6599  0.0458  0.2653
 1704SOL    HW3 6890   0.848   3.047   3.289  0.3427 -0.6024  0.0724
 1704SOL    MW4 6891   0.812   3.005   3.356  0.6020 -0.2384  0.4292
 1705SOL     OW 6892   0.254   3.495   3.929  0.1080  0.1807 -0.2646
 1705SOL    HW2 6893   0.328   3.506   3.870 -0.0527  0.0351 -0.4952
 1705SOL    HW3 6894   0.284   3.432   3.995 -0.4127 -1.2046 -1.3476
 1705SOL    MW4 6895   0.268   3.488   3.930  0.0179  0.0000 -0.4530
 1706SOL     OW 6896   0.165   3.586   2.769  0.1588 -0.1829  0.4552
 1706SOL    HW2 6897   0.098   3.638   2.725 -0.1408 -0.4459  0.5997
 1706SOL    HW3 6898   0.248   3.628   2.744  0.0630 -0.9915 -1.2193
 1706SOL    MW4 6899   0.167   3.599   2.760  0.1058 -0.3338  0.2384
 1707SOL     OW 6900   0.011   3.741   2.575  0.0058 -0.3515  0.1577
 1707SOL    HW2 6901   0.035   3.656   2.540  1.0715 -0.3961  1.0284
 1707SOL    HW3 6902   0.072   3.802   2.534  0.1446 -0.1804  0.6143
 1707SOL    MW4 6903   0.022   3.738   2.565  0.1647 -0.3338  0.3338
 1708SOL     OW 6904   0.269   3.288   3.033  0.1387  0.3778 -0.3113
 1708SOL    HW2 6905   0.241   3.360   3.090 -0.2865  0.9363 -1.2221
 1708SOL    HW3 6906   0.195   3.228   3.033  0.2679  0.2270 -0.0221
 1708SOL    MW4 6907   0.255   3.290   3.041  0.1013  0.4292 -0.4053
 1709SOL     OW 6908   0.028   4.401   2.587 -0.4814  0.2130 -0.0015
 1709SOL    HW2 6909   0.060   4.405   2.677 -1.3748 -1.6038  0.4314
 1709SOL    HW3 6910  -0.012   4.486   2.572  0.8085  0.9714  0.8896
 1709SOL    MW4 6911   0.027   4.413   2.597 -0.4295  0.0477  0.1907
 1710SOL     OW 6912   4.408   4.123   2.178 -0.6243  0.1645 -0.5776
 1710SOL    HW2 6913   4.493   4.165   2.190 -0.8777  0.1443  1.2044
 1710SOL    HW3 6914   4.409   4.091   2.087  1.0071  0.8853 -0.8410
 1710SOL    MW4 6915   4.419   4.125   2.167 -0.4292  0.2384 -0.3576
 1711SOL     OW 6916   0.876   4.571   2.212 -0.5155  0.3137 -0.2729
 1711SOL    HW2 6917   0.907   4.512   2.143 -1.4970 -0.2921 -0.1790
 1711SOL    HW3 6918   0.797   4.611   2.176  0.2657  1.7484 -0.4048
 1711SOL    MW4 6919   0.870   4.569   2.198 -0.5424  0.4292 -0.2623
 1712SOL     OW 6920   0.299   0.047   1.790 -0.0050 -0.1516 -0.3913
 1712SOL    HW2 6921   0.226   0.103   1.812 -0.7845 -1.4825  0.4314
 1712SOL    HW3 6922   0.376   0.103   1.798 -0.8668  1.0234 -0.4580
 1712SOL    MW4 6923   0.300   0.062   1.794 -0.2205 -0.1717 -0.2980
 1713SOL     OW 6924   0.065   0.475   2.648 -0.2435  0.0354  0.3761
 1713SOL    HW2 6925   0.023   0.423   2.579  0.3254 -0.4345  0.3830
 1713SOL    HW3 6926   0.035   0.433   2.729  0.4213 -0.4466  0.3864
 1713SOL    MW4 6927   0.055   0.462   2.650 -0.0808 -0.0864  0.3815
 1714SOL     OW 6928   0.268   0.479   2.900 -0.3748  0.8179  0.6350
 1714SOL    HW2 6929   0.342   0.423   2.877 -0.2582  0.8208  1.0254
 1714SOL    HW3 6930   0.305   0.549   2.953 -0.5489  1.1336  0.3558
 1714SOL    MW4 6931   0.282   0.481   2.904 -0.3844  0.8613  0.6437
 1715SOL     OW 6932   0.460   0.864   3.242 -0.2045 -0.5442  0.5353
 1715SOL    HW2 6933   0.556   0.863   3.247 -0.1311  0.2949 -0.7478
 1715SOL    HW3 6934   0.438   0.781   3.200 -0.0560 -0.8292  1.0485
 1715SOL    MW4 6935   0.470   0.853   3.237 -0.1758 -0.4649  0.4292
 1716SOL     OW 6936   0.367   0.660   3.079  0.1229 -0.1969  0.6182
 1716SOL    HW2 6937   0.295   0.630   3.134  0.1324  0.5146  1.0347
 1716SOL    HW3 6938   0.338   0.744   3.045  0.3692 -0.3640  0.0270
 1716SOL    MW4 6939   0.354   0.667   3.082  0.1520 -0.1252  0.6199
 1717SOL     OW 6940   0.314   0.972   3.444 -0.8978 -0.1222  0.6248
 1717SOL    HW2 6941   0.359   0.939   3.366 -1.4323 -1.6194  0.9380
 1717SOL    HW3 6942   0.274   1.054   3.415  0.0935  0.0512 -0.3133
 1717SOL    MW4 6943   0.315   0.978   3.430 -0.8404 -0.2921  0.5484
 1718SOL     OW 6944   0.548   1.492   3.411  0.5163  0.1468  0.8902
 1718SOL    HW2 6945   0.554   1.422   3.346  1.0213  1.2976 -0.3144
 1718SOL    HW3 6946   0.458   1.486   3.444  0.6606 -1.3139  1.0474
 1718SOL    MW4 6947   0.537   1.482   3.407  0.5960  0.0954  0.7391
 1719SOL     OW 6948   0.582   1.675   3.197 -0.0933 -0.3252  0.6162
 1719SOL    HW2 6949   0.600   1.757   3.244  0.5683 -0.1883  0.1424
 1719SOL    HW3 6950   0.554   1.614   3.265 -0.8794  0.3857  0.9334
 1719SOL    MW4 6951   0.581   1.678   3.212 -0.1073 -0.2027  0.6199
 1720SOL     OW 6952   0.327   1.719   3.098  0.2434  0.1070 -0.2227
 1720SOL    HW2 6953   0.414   1.716   3.137  0.3898 -0.4761 -0.5565
 1720SOL    HW3 6954   0.269   1.681   3.164  0.3457  0.0007 -0.1652
 1720SOL    MW4 6955   0.330   1.713   3.112  0.2772  0.0119 -0.2623
 1721SOL     OW 6956   0.815   1.987   3.217  0.1416  0.4098 -0.0833
 1721SOL    HW2 6957   0.786   2.065   3.171  1.0026  0.4553 -0.5493
 1721SOL    HW3 6958   0.741   1.962   3.272 -0.4685  0.9920 -0.6357
 1721SOL    MW4 6959   0.801   1.994   3.218  0.1788  0.5007 -0.2146
 1722SOL     OW 6960   0.191   2.553   2.991 -0.4339 -0.1861  0.9297
 1722SOL    HW2 6961   0.189   2.648   2.980 -0.7150 -0.1053  1.6181
 1722SOL    HW3 6962   0.282   2.529   2.978 -0.7300 -0.0464 -1.3264
 1722SOL    MW4 6963   0.202   2.562   2.988 -0.5081 -0.1669  0.7153
 1723SOL     OW 6964   0.778   2.665   2.850 -0.5810 -0.6415  0.5673
 1723SOL    HW2 6965   0.802   2.754   2.877  0.3757 -0.3267 -1.3239
 1723SOL    HW3 6966   0.836   2.608   2.900 -0.1722 -0.1395  0.6337
 1723SOL    MW4 6967   0.789   2.669   2.860 -0.4053 -0.5245  0.3338
 1724SOL     OW 6968   0.255   2.069   2.669 -0.6285 -0.6423 -0.0849
 1724SOL    HW2 6969   0.264   2.102   2.580  0.3969 -1.0247 -0.1290
 1724SOL    HW3 6970   0.190   2.127   2.710 -1.7460 -1.0295 -1.3503
 1724SOL    MW4 6971   0.247   2.081   2.663 -0.6393 -0.7629 -0.2623
 1725SOL     OW 6972   0.551   3.226   3.761  0.5998  0.6190 -0.5353
 1725SOL    HW2 6973   0.633   3.253   3.802 -0.6780  1.6116  1.3688
 1725SOL    HW3 6974   0.531   3.142   3.802 -0.0247  1.0343 -0.0181
 1725SOL    MW4 6975   0.559   3.219   3.772  0.3517  0.8106 -0.2146
 1726SOL     OW 6976   0.436   2.821   1.994  0.0893  0.5605 -0.3153
 1726SOL    HW2 6977   0.417   2.737   1.953  0.3694  0.3341  0.0080
 1726SOL    HW3 6978   0.495   2.800   2.066 -0.6337  0.9260  0.3860
 1726SOL    MW4 6979   0.441   2.807   1.998  0.0298  0.5722 -0.1669
 1727SOL     OW 6980   1.776   3.834   2.686  0.0127 -0.5658  0.2381
 1727SOL    HW2 6981   1.724   3.754   2.683  0.1097 -0.7154  1.4460
 1727SOL    HW3 6982   1.712   3.905   2.689 -0.0955 -0.7395  1.7839
 1727SOL    MW4 6983   1.761   3.832   2.686  0.0119 -0.6199  0.6199
 1728SOL     OW 6984   0.832   3.201   2.317 -0.1668 -0.4691 -0.4762
 1728SOL    HW2 6985   0.794   3.280   2.357  1.1113  1.5887 -3.3854
 1728SOL    HW3 6986   0.760   3.161   2.268  0.1676  0.9632 -2.1646
 1728SOL    MW4 6987   0.818   3.206   2.316  0.0417 -0.0238 -1.0729
 1729SOL     OW 6988   0.581   3.941   1.781  0.1118  0.0702 -0.0355
 1729SOL    HW2 6989   0.628   3.946   1.864  1.7233  4.7029 -1.2434
 1729SOL    HW3 6990   0.492   3.970   1.803  0.0749 -0.3871  0.4363
 1729SOL    MW4 6991   0.575   3.946   1.795  0.3219  0.6437 -0.1311
 1730SOL     OW 6992   0.686   4.118   2.255 -0.1498  0.4104 -0.6035
 1730SOL    HW2 6993   0.721   4.034   2.286 -0.1445  0.7424  0.1454
 1730SOL    HW3 6994   0.712   4.181   2.322 -0.9730  0.9180 -0.7643
 1730SOL    MW4 6995   0.694   4.115   2.268 -0.2563  0.5245 -0.5245
 1731SOL     OW 6996   1.781   3.733   1.785  0.8081 -0.3735  0.1030
 1731SOL    HW2 6997   1.695   3.751   1.821  0.9406  0.5411 -0.0270
 1731SOL    HW3 6998   1.768   3.655   1.731  0.0610 -0.1781  0.0068
 1731SOL    MW4 6999   1.768   3.725   1.782  0.7272 -0.2384  0.0715
 1732SOL     OW 7000   0.435   4.501   2.520  0.0257 -0.4548  0.4922
 1732SOL    HW2 7001   0.368   4.432   2.513 -0.8845  0.4230  0.6400
 1732SOL    HW3 7002   0.469   4.509   2.431 -0.5192 -0.4180  0.2808
 1732SOL    MW4 7003   0.430   4.493   2.507 -0.1639 -0.2861  0.5007
 1733SOL     OW 7004   0.829   4.222   1.807 -0.2096  0.5503 -0.1583
 1733SOL    HW2 7005   0.777   4.302   1.800  0.0390  0.8135  0.4632
 1733SOL    HW3 7006   0.771   4.160   1.852  0.1494  0.9339  0.7131
 1733SOL    MW4 7007   0.814   4.225   1.812 -0.1192  0.6676  0.0477
 1734SOL     OW 7008   0.982   4.391   1.998 -0.1168  0.0694  0.1795
 1734SOL    HW2 7009   0.939   4.324   1.946 -0.5314  0.6109 -0.1803
 1734SOL    HW3 7010   1.063   4.350   2.028 -0.0731 -0.4166 -0.5808
 1734SOL    MW4 7011   0.987   4.377   1.995 -0.1669  0.0477  0.0358
 1735SOL     OW 7012   1.433   4.356   2.234 -0.5432  0.2155 -0.4702
 1735SOL    HW2 7013   1.402   4.288   2.294  0.4939  0.6517  0.5280
 1735SOL    HW3 7014   1.371   4.429   2.247 -0.0944  0.4567  0.2829
 1735SOL    MW4 7015   1.421   4.357   2.244 -0.3457  0.2861 -0.2623
 1736SOL     OW 7016   1.058   0.110   2.249  0.1920  0.1528 -0.0303
 1736SOL    HW2 7017   0.977   0.068   2.219  0.6322  0.7092 -1.9800
 1736SOL    HW3 7018   1.126   0.046   2.232  0.1114 -0.4966  2.0914
 1736SOL    MW4 7019   1.056   0.096   2.243  0.2503  0.1401  0.0000
 1737SOL     OW 7020   0.506   0.363   2.838 -0.3287 -0.2657  0.7281
 1737SOL    HW2 7021   0.521   0.387   2.747 -0.6291 -0.4888  0.6151
 1737SOL    HW3 7022   0.520   0.268   2.840 -0.5438 -0.2933  0.8814
 1737SOL    MW4 7023   0.510   0.354   2.826 -0.4053 -0.2980  0.7391
 1738SOL     OW 7024   0.670   0.139   2.894 -0.2122  0.4575 -0.6127
 1738SOL    HW2 7025   0.714   0.067   2.939 -0.1145  1.1987  0.4706
 1738SOL    HW3 7026   0.736   0.209   2.891 -0.6728  0.8836 -0.7132
 1738SOL    MW4 7027   0.685   0.139   2.899 -0.2563  0.6109 -0.5007
 1739SOL     OW 7028   0.758   1.128   3.214 -0.4668  0.5293  0.1707
 1739SOL    HW2 7029   0.811   1.149   3.137  0.1232  0.9677  0.6795
 1739SOL    HW3 7030   0.743   1.034   3.207 -0.3208  0.5441 -0.4719
 1739SOL    MW4 7031   0.763   1.118   3.203 -0.3695  0.5841  0.1431
 1740SOL     OW 7032   0.559   1.321   3.200 -0.5080  0.4114  0.2379
 1740SOL    HW2 7033   0.633   1.262   3.215 -0.1759  0.7697 -0.0098
 1740SOL    HW3 7034   0.490   1.265   3.165 -0.2276  0.1480  0.1304
 1740SOL    MW4 7035   0.559   1.306   3.197 -0.4292  0.4292  0.1907
 1741SOL     OW 7036   0.553   0.944   3.600 -0.3527 -0.4683  0.6317
 1741SOL    HW2 7037   0.617   1.012   3.579 -0.2643 -1.1060 -1.2202
 1741SOL    HW3 7038   0.476   0.966   3.548 -0.8408 -0.9892  1.1705
 1741SOL    MW4 7039   0.552   0.956   3.590 -0.4113 -0.6199  0.4530
 1742SOL     OW 7040   0.784   1.097   3.575 -0.6310 -0.4051  0.1597
 1742SOL    HW2 7041   0.836   1.032   3.527  0.4917  0.0829  0.7224
 1742SOL    HW3 7042   0.794   1.178   3.525 -1.2298 -0.4302  0.0201
 1742SOL    MW4 7043   0.792   1.099   3.562 -0.5603 -0.3338  0.2146
 1743SOL     OW 7044   0.682   1.150   3.849 -0.0800 -0.3207  0.4133
 1743SOL    HW2 7045   0.731   1.228   3.875 -0.3791 -0.3178  0.9694
 1743SOL    HW3 7046   0.731   1.114   3.775 -0.7037  1.1524 -0.6879
 1743SOL    MW4 7047   0.695   1.155   3.843 -0.2086 -0.1311  0.3338
 1744SOL     OW 7048   0.841   1.582   3.261  0.5901 -0.3488  0.5288
 1744SOL    HW2 7049   0.889   1.655   3.221  0.8172 -1.1936 -0.7659
 1744SOL    HW3 7050   0.755   1.585   3.221  0.1849 -0.0228  1.4270
 1744SOL    MW4 7051   0.836   1.592   3.250  0.5662 -0.4053  0.4292
 1745SOL     OW 7052   0.945   2.598   3.080  0.0872 -0.2664 -0.1786
 1745SOL    HW2 7053   0.977   2.513   3.048  0.4569 -0.2821  0.2529
 1745SOL    HW3 7054   0.862   2.577   3.123 -0.1611 -0.3058 -0.6976
 1745SOL    MW4 7055   0.938   2.584   3.082  0.1073 -0.2623 -0.1907
 1746SOL     OW 7056   1.196   2.666   3.217  0.5286 -0.0103 -0.0195
 1746SOL    HW2 7057   1.236   2.580   3.202  0.6834  0.1213 -0.4383
 1746SOL    HW3 7058   1.113   2.662   3.169  0.5992  0.1010 -0.1334
 1746SOL    MW4 7059   1.190   2.654   3.209  0.5603  0.0000 -0.1192
 1747SOL     OW 7060   0.604   2.795   3.337  0.2769  1.2738 -0.4814
 1747SOL    HW2 7061   0.676   2.857   3.335 -0.0618  1.6720  0.7024
 1747SOL    HW3 7062   0.642   2.713   3.305  0.9603  1.7879 -1.0350
 1747SOL    MW4 7063   0.618   2.792   3.333  0.3219  1.3828 -0.3815
 1748SOL     OW 7064   1.312   2.898   3.167 -0.1234  0.8934 -0.0141
 1748SOL    HW2 7065   1.238   2.944   3.128 -0.6723 -0.4108 -0.4963
 1748SOL    HW3 7066   1.280   2.809   3.182  0.9067  0.6572  0.9312
 1748SOL    MW4 7067   1.298   2.892   3.164 -0.0477  0.6914  0.0238
 1749SOL     OW 7068   1.076   3.060   2.311 -0.0557 -0.0322 -0.1579
 1749SOL    HW2 7069   1.147   3.094   2.367 -0.2294  0.5386 -0.2826
 1749SOL    HW3 7070   1.078   3.116   2.234 -0.6637  0.0200 -0.1341
 1749SOL    MW4 7071   1.086   3.072   2.308 -0.1669  0.0715 -0.1669
 1750SOL     OW 7072   0.869   2.871   2.246 -0.4294 -0.0303  0.1080
 1750SOL    HW2 7073   0.914   2.947   2.284 -0.9104  0.0154  0.6325
 1750SOL    HW3 7074   0.870   2.805   2.316 -0.6973 -0.2200 -0.0831
 1750SOL    MW4 7075   0.875   2.872   2.260 -0.5245 -0.0477  0.1669
 1751SOL     OW 7076   1.447   2.999   2.091  0.5640  0.7009  0.0409
 1751SOL    HW2 7077   1.529   2.976   2.134 -0.1257  0.8299  1.4323
 1751SOL    HW3 7078   1.472   3.064   2.024  1.8477 -0.7684 -0.8708
 1751SOL    MW4 7079   1.461   3.005   2.087  0.6437  0.5245  0.1192
 1752SOL     OW 7080   1.844   3.971   2.342  0.2489  0.2955  0.1772
 1752SOL    HW2 7081   1.839   4.063   2.369  1.7423  0.5588 -0.4851
 1752SOL    HW3 7082   1.794   3.967   2.260 -0.2391  0.4378  0.4520
 1752SOL    MW4 7083   1.837   3.983   2.335  0.3695  0.3576  0.0954
 1753SOL     OW 7084   1.838   3.381   2.683  0.1560  0.4415  0.3675
 1753SOL    HW2 7085   1.845   3.400   2.589 -1.1005 -2.1817 -0.2572
 1753SOL    HW3 7086   1.787   3.454   2.718  0.0374  1.0972 -1.1407
 1753SOL    MW4 7087   1.832   3.393   2.675 -0.0238  0.1907  0.0954
 1754SOL     OW 7088   1.227   4.255   2.066 -0.5300 -0.1035 -0.2612
 1754SOL    HW2 7089   1.266   4.308   2.135  0.2756  0.2041 -0.9593
 1754SOL    HW3 7090   1.283   4.269   1.990 -0.7468 -1.3233 -0.6490
 1754SOL    MW4 7091   1.239   4.263   2.066 -0.4530 -0.2384 -0.3815
 1755SOL     OW 7092   2.143   4.463   2.147 -0.0838  0.1090 -0.0941
 1755SOL    HW2 7093   2.181   4.526   2.209 -0.1567 -0.1578  0.2439
 1755SOL    HW3 7094   2.127   4.385   2.200  0.2028 -0.3109 -0.5435
 1755SOL    MW4 7095   2.146   4.461   2.163 -0.0238  0.0000 -0.0954
 1756SOL     OW 7096   1.575   3.982   1.460  0.0710  0.0646 -0.1882
 1756SOL    HW2 7097   1.580   3.990   1.555 -1.2626  0.0686 -0.1323
 1756SOL    HW3 7098   1.624   4.056   1.426  1.2533 -0.4231  0.5167
 1756SOL    MW4 7099   1.582   3.993   1.468  0.0477  0.0000 -0.0954
 1757SOL     OW 7100   1.513   3.685   3.069  0.1750 -0.5574  0.1776
 1757SOL    HW2 7101   1.514   3.745   3.143  0.4572 -0.3449 -0.0248
 1757SOL    HW3 7102   1.533   3.599   3.107  1.9335 -0.2025  0.1460
 1757SOL    MW4 7103   1.516   3.681   3.084  0.4411 -0.5007  0.1431
 1758SOL     OW 7104   1.472   3.934   2.573  0.2556  0.2939 -0.5525
 1758SOL    HW2 7105   1.394   3.973   2.534 -0.2672  1.0010  1.2201
 1758SOL    HW3 7106   1.446   3.914   2.663  1.2613 -2.0192 -0.7692
 1758SOL    MW4 7107   1.458   3.937   2.580  0.3338  0.0715 -0.3338
 1759SOL     OW 7108   2.712   4.201   2.702  0.0045 -0.1683 -0.4697
 1759SOL    HW2 7109   2.659   4.146   2.644 -0.5397  0.3305 -0.4482
 1759SOL    HW3 7110   2.692   4.291   2.673 -0.0320  0.0565  0.2094
 1759SOL    MW4 7111   2.702   4.206   2.690 -0.0954 -0.0477 -0.4053
 1760SOL     OW 7112   1.785   4.230   2.433 -0.2955 -0.0950 -0.1595
 1760SOL    HW2 7113   1.714   4.237   2.497  0.1572  0.7240  0.2173
 1760SOL    HW3 7114   1.861   4.269   2.476  0.2063 -0.2621 -0.9348
 1760SOL    MW4 7115   1.786   4.236   2.447 -0.1669  0.0000 -0.1907
 1761SOL     OW 7116   1.231   4.534   2.242 -0.4276  0.2023 -0.3105
 1761SOL    HW2 7117   1.284   4.601   2.285 -2.0335  0.9030  0.5743
 1761SOL    HW3 7118   1.188   4.487   2.313 -0.3479 -0.8902 -0.9985
 1761SOL    MW4 7119   1.232   4.537   2.257 -0.6318  0.1431 -0.2623
 1762SOL     OW 7120   1.418   3.932   2.844  0.3612 -0.1082 -0.8882
 1762SOL    HW2 7121   1.498   3.985   2.853  0.3808 -0.1151 -1.0686
 1762SOL    HW3 7122   1.347   3.995   2.851  0.3401 -0.3403  1.0225
 1762SOL    MW4 7123   1.419   3.947   2.846  0.3576 -0.1669 -0.6914
 1763SOL     OW 7124   1.337   4.615   3.015  0.0216  0.3861  0.0240
 1763SOL    HW2 7125   1.390   4.552   2.966  0.2859  0.9911 -0.4488
 1763SOL    HW3 7126   1.247   4.581   3.008 -0.2226  1.4790 -2.4703
 1763SOL    MW4 7127   1.332   4.602   3.007  0.0358  0.6199 -0.3576
 1764SOL     OW 7128   1.060   0.248   2.958 -0.2776 -0.2561  0.1549
 1764SOL    HW2 7129   1.145   0.235   2.916 -0.0294  0.4908  0.3692
 1764SOL    HW3 7130   1.078   0.310   3.028 -1.2140  0.6686 -0.4492
 1764SOL    MW4 7131   1.073   0.254   2.962 -0.3695 -0.0387  0.0715
 1765SOL     OW 7132   1.655   0.930   3.073  0.1325  0.6013  0.4916
 1765SOL    HW2 7133   1.662   0.951   3.166  1.4996 -0.6298  0.6865
 1765SOL    HW3 7134   1.564   0.905   3.061 -0.5242  2.5971  1.1361
 1765SOL    MW4 7135   1.644   0.930   3.084  0.2265  0.7033  0.5960
 1766SOL     OW 7136   1.330   1.457   2.997  0.0047 -0.3996  0.4508
 1766SOL    HW2 7137   1.339   1.366   2.969 -0.4942 -0.2134 -0.2464
 1766SOL    HW3 7138   1.244   1.461   3.038 -0.3703 -0.0258 -0.3306
 1766SOL    MW4 7139   1.320   1.446   2.999 -0.1192 -0.3219  0.2384
 1767SOL     OW 7140   1.335   1.140   3.247 -0.3286 -0.0477 -0.2832
 1767SOL    HW2 7141   1.385   1.221   3.258 -0.0232 -0.0944 -1.3475
 1767SOL    HW3 7142   1.249   1.160   3.284 -0.1324  0.6375 -0.1960
 1767SOL    MW4 7143   1.330   1.153   3.253 -0.2742  0.0477 -0.4053
 1768SOL     OW 7144   0.793   1.369   3.456 -0.5033 -0.2793  0.0684
 1768SOL    HW2 7145   0.818   1.441   3.399  0.0597 -0.6421 -0.1276
 1768SOL    HW3 7146   0.705   1.393   3.487 -0.4768  0.3043 -0.2947
 1768SOL    MW4 7147   0.785   1.382   3.453 -0.4232 -0.2503  0.0000
 1769SOL     OW 7148   1.554   2.123   4.012  0.2005 -0.1425  1.0987
 1769SOL    HW2 7149   1.516   2.035   4.012 -0.8994  0.3398  0.4049
 1769SOL    HW3 7150   1.503   2.171   3.947  2.6459  0.2250 -0.5799
 1769SOL    MW4 7151   1.542   2.117   4.004  0.3695 -0.0238  0.8106
 1770SOL     OW 7152   1.707   1.894   3.793 -0.0349 -0.2944  0.4828
 1770SOL    HW2 7153   1.631   1.880   3.850 -0.2799 -0.7495  0.0454
 1770SOL    HW3 7154   1.681   1.966   3.735  0.3444  0.3588  1.1389
 1770SOL    MW4 7155   1.693   1.901   3.793 -0.0238 -0.2742  0.5007
 1771SOL     OW 7156   1.225   3.066   2.729 -0.0278  0.7436 -0.3475
 1771SOL    HW2 7157   1.268   3.041   2.811  0.3135 -0.2260 -0.8429
 1771SOL    HW3 7158   1.204   2.983   2.686 -0.4339  1.2379 -1.1405
 1771SOL    MW4 7159   1.228   3.052   2.734 -0.0238  0.6914 -0.5245
 1772SOL     OW 7160   0.987   3.265   2.826 -0.4702  0.5821 -0.5214
 1772SOL    HW2 7161   0.960   3.264   2.918 -2.1371  0.0865 -1.0115
 1772SOL    HW3 7162   1.041   3.186   2.817 -0.3078  0.6050  0.0144
 1772SOL    MW4 7163   0.991   3.254   2.837 -0.6735  0.5245 -0.5245
 1773SOL     OW 7164   1.574   3.261   2.207  0.8475  0.0154 -0.3107
 1773SOL    HW2 7165   1.544   3.204   2.136  1.6896  0.6532 -1.1432
 1773SOL    HW3 7166   1.499   3.268   2.265 -0.4770  1.1575 -2.1808
 1773SOL    MW4 7167   1.560   3.255   2.205  0.7868  0.2384 -0.6676
 1774SOL     OW 7168   2.136   2.863   2.641  0.0603 -0.4337 -0.5375
 1774SOL    HW2 7169   2.110   2.886   2.731 -1.4605 -0.6978 -0.9305
 1774SOL    HW3 7170   2.093   2.929   2.586 -0.5246 -1.4034 -1.2423
 1774SOL    MW4 7171   2.127   2.875   2.646 -0.2146 -0.5960 -0.6914
 1775SOL     OW 7172   2.045   2.602   2.748 -0.2416 -0.2463  0.3100
 1775SOL    HW2 7173   1.971   2.592   2.688 -0.3481  1.4132  0.1902
 1775SOL    HW3 7174   2.100   2.668   2.707  1.0237 -1.0311  0.6906
 1775SOL    MW4 7175   2.042   2.610   2.735 -0.0954 -0.0954  0.3338
 1776SOL     OW 7176   2.123   3.289   2.641  0.3047 -0.0269  0.6784
 1776SOL    HW2 7177   2.039   3.333   2.657 -1.7189 -2.4862 -3.3434
 1776SOL    HW3 7178   2.179   3.358   2.604 -1.2159  0.5834 -0.5621
 1776SOL    MW4 7179   2.119   3.304   2.638 -0.1431 -0.2623 -0.0238
 1777SOL     OW 7180   2.230   3.196   2.873 -0.6446  0.3561  0.0090
 1777SOL    HW2 7181   2.214   3.102   2.879  0.0608  0.1708 -1.0310
 1777SOL    HW3 7182   2.187   3.222   2.792 -1.3266  1.0207  0.5953
 1777SOL    MW4 7183   2.222   3.187   2.863 -0.6437  0.4053 -0.0477
 1778SOL     OW 7184   1.943   4.027   1.968  0.0878  0.4529 -0.1472
 1778SOL    HW2 7185   1.997   4.010   2.045  0.9839  0.1337 -0.8221
 1778SOL    HW3 7186   2.007   4.037   1.897 -0.6527  2.5947 -0.5111
 1778SOL    MW4 7187   1.959   4.026   1.968  0.1073  0.6676 -0.2742
 1779SOL     OW 7188   1.957   3.979   2.869  0.2293 -0.2845 -0.2415
 1779SOL    HW2 7189   1.864   3.997   2.856  0.1885  0.1473  0.6069
 1779SOL    HW3 7190   1.961   3.926   2.949  0.5417 -2.0344 -1.4228
 1779SOL    MW4 7191   1.945   3.974   2.878  0.2623 -0.4530 -0.3099
 1780SOL     OW 7192   1.736   3.779   1.339 -0.2159 -0.3816 -0.3002
 1780SOL    HW2 7193   1.808   3.822   1.385 -0.2797  1.3719 -1.8157
 1780SOL    HW3 7194   1.658   3.829   1.365 -0.5393 -0.7420 -0.5816
 1780SOL    MW4 7195   1.735   3.791   1.348 -0.2742 -0.1907 -0.5364
 1781SOL     OW 7196   2.539   4.112   2.495 -0.1885  0.3211 -0.0144
 1781SOL    HW2 7197   2.535   4.184   2.432  0.1287  1.3991  1.1982
 1781SOL    HW3 7198   2.448   4.094   2.517 -0.3565 -0.4642 -1.2174
 1781SOL    MW4 7199   2.526   4.119   2.489 -0.1669  0.3338  0.0000
 1782SOL     OW 7200   2.996   4.132   2.747  0.2482  0.5412  0.4400
 1782SOL    HW2 7201   2.905   4.154   2.727  0.6217  1.0968 -0.7081
 1782SOL    HW3 7202   3.000   4.130   2.842 -1.0325  0.1283  0.4772
 1782SOL    MW4 7203   2.985   4.135   2.757  0.1192  0.5722  0.3099
 1783SOL     OW 7204   2.942   3.808   2.942 -0.0451  0.5816  0.1480
 1783SOL    HW2 7205   2.851   3.833   2.959 -0.3411 -0.0084 -0.5074
 1783SOL    HW3 7206   2.972   3.875   2.880  0.5796  1.9528  1.9518
 1783SOL    MW4 7207   2.934   3.820   2.936  0.0000  0.6914  0.3099
 1784SOL     OW 7208   2.296   4.447   2.470 -0.1982  0.1500 -1.0469
 1784SOL    HW2 7209   2.339   4.404   2.544 -0.3598  0.8273 -0.5793
 1784SOL    HW3 7210   2.204   4.425   2.480  0.1101 -1.7369 -2.3728
 1784SOL    MW4 7211   2.290   4.438   2.481 -0.1907 -0.0477 -1.1444
 1785SOL     OW 7212   2.014   0.393   3.426  0.0900 -0.2160 -0.5847
 1785SOL    HW2 7213   2.105   0.415   3.445  0.1073 -0.1866 -0.6765
 1785SOL    HW3 7214   2.012   0.381   3.331  0.0725 -0.5713 -0.5487
 1785SOL    MW4 7215   2.026   0.394   3.416  0.0954 -0.2593 -0.5960
 1786SOL     OW 7216   2.201   0.008   2.732  0.0515  0.4290  0.0316
 1786SOL    HW2 7217   2.259  -0.053   2.777  0.5950  0.8172 -0.1606
 1786SOL    HW3 7218   2.162   0.061   2.801  0.0866  0.3265  0.1357
 1786SOL    MW4 7219   2.204   0.007   2.747  0.1192  0.4658  0.0238
 1787SOL     OW 7220   2.369   0.963   3.309  0.2289 -0.0801 -0.2749
 1787SOL    HW2 7221   2.278   0.961   3.278 -0.2162 -1.2285  1.1560
 1787SOL    HW3 7222   2.372   0.899   3.380  2.3580 -0.5355 -0.8008
 1787SOL    MW4 7223   2.358   0.954   3.314  0.4530 -0.2921 -0.1669
 1788SOL     OW 7224   2.078   1.130   3.357 -0.5640  0.5302 -0.0555
 1788SOL    HW2 7225   2.084   1.034   3.356 -0.4394  0.5356  1.3024
 1788SOL    HW3 7226   2.118   1.157   3.274 -0.3925 -0.6082 -0.3609
 1788SOL    MW4 7227   2.084   1.121   3.346 -0.5245  0.3815  0.0954
 1789SOL     OW 7228   1.775   1.405   3.169 -0.3298  0.2513 -0.5883
 1789SOL    HW2 7229   1.680   1.414   3.159 -0.4814 -0.5680  0.0182
 1789SOL    HW3 7230   1.784   1.328   3.226  0.6720  0.7472 -0.0872
 1789SOL    MW4 7231   1.763   1.396   3.176 -0.2265  0.2146 -0.4768
 1790SOL     OW 7232   2.072   1.637   3.358 -0.4428 -0.5299  0.1968
 1790SOL    HW2 7233   2.137   1.607   3.294 -0.6207 -1.0133  0.2468
 1790SOL    HW3 7234   1.992   1.649   3.307 -0.6370 -1.1598  0.3763
 1790SOL    MW4 7235   2.070   1.635   3.343 -0.4768 -0.6676  0.2146
 1791SOL     OW 7236   1.812   1.940   3.193  0.0460  0.6106  0.1251
 1791SOL    HW2 7237   1.815   1.845   3.205  1.5102  0.5132 -0.9549
 1791SOL    HW3 7238   1.855   1.955   3.109 -0.2552  2.2154  0.2699
 1791SOL    MW4 7239   1.818   1.929   3.184  0.2027  0.8106  0.0000
 1792SOL     OW 7240   1.352   1.756   3.475  0.2651  0.2376  0.5024
 1792SOL    HW2 7241   1.282   1.717   3.423 -0.9363  0.9864  1.5529
 1792SOL    HW3 7242   1.354   1.848   3.448  0.9050  0.1955  0.4002
 1792SOL    MW4 7243   1.343   1.763   3.465  0.1788  0.3338  0.6199
 1793SOL     OW 7244   1.640   1.624   3.736  0.0035 -0.1461 -0.0469
 1793SOL    HW2 7245   1.629   1.616   3.642  0.7653  0.1143 -0.1615
 1793SOL    HW3 7246   1.676   1.711   3.750  1.3587 -0.7753  0.3511
 1793SOL    MW4 7247   1.643   1.634   3.726  0.2742 -0.1907  0.0000
 1794SOL     OW 7248   2.299   2.288   3.871  0.2730  0.5621  0.0671
 1794SOL    HW2 7249   2.241   2.220   3.837 -0.7119  1.6143 -0.2369
 1794SOL    HW3 7250   2.373   2.289   3.810 -0.2759  0.6334 -0.6007
 1794SOL    MW4 7251   2.301   2.279   3.859  0.0715  0.7153 -0.0715
 1795SOL     OW 7252   1.834   2.256   3.896  0.2528  0.3489  0.8834
 1795SOL    HW2 7253   1.904   2.238   3.833 -0.6062  0.8401 -0.2156
 1795SOL    HW3 7254   1.811   2.169   3.930  1.0170  0.1132  0.8444
 1795SOL    MW4 7255   1.840   2.242   3.892  0.2384  0.3815  0.7391
 1796SOL     OW 7256   1.103   2.566   2.688  0.3670  0.7349 -0.5826
 1796SOL    HW2 7257   1.133   2.551   2.777 -1.6209 -0.1522 -0.0548
 1796SOL    HW3 7258   1.070   2.480   2.659  0.8536  1.0387 -2.0957
 1796SOL    MW4 7259   1.102   2.552   2.696  0.1669  0.6676 -0.6914
 1797SOL     OW 7260   1.307   2.411   2.319  0.6158  0.2708 -0.4247
 1797SOL    HW2 7261   1.227   2.460   2.300  0.1312 -0.5797 -0.5826
 1797SOL    HW3 7262   1.329   2.435   2.409  1.0898  1.7238 -0.9473
 1797SOL    MW4 7263   1.299   2.421   2.328  0.6199  0.3338 -0.5245
 1798SOL     OW 7264   1.643   2.367   2.928 -0.8397 -0.1351 -0.5085
 1798SOL    HW2 7265   1.613   2.444   2.976 -0.5483  0.2207 -0.9060
 1798SOL    HW3 7266   1.733   2.353   2.958 -1.1298 -0.7755  0.1254
 1798SOL    MW4 7267   1.651   2.375   2.939 -0.8464 -0.1669 -0.4768
 1799SOL     OW 7268   2.742   2.385   2.756  0.0735 -0.3634 -0.3040
 1799SOL    HW2 7269   2.653   2.401   2.725 -0.2175 -0.6960  0.3453
 1799SOL    HW3 7270   2.764   2.462   2.808  0.2387 -0.1798 -0.6595
 1799SOL    MW4 7271   2.733   2.397   2.758  0.0715 -0.3815 -0.2861
 1800SOL     OW 7272   1.869   2.641   2.985 -0.5047  0.0718 -0.0407
 1800SOL    HW2 7273   1.939   2.611   2.927 -0.6772  0.3660 -0.4223
 1800SOL    HW3 7274   1.913   2.673   3.063 -0.3298 -1.5535  0.5306
 1800SOL    MW4 7275   1.884   2.641   2.988 -0.5007 -0.0954  0.0000
 1801SOL     OW 7276   2.314   3.292   3.191 -0.2642  0.2266  0.4042
 1801SOL    HW2 7277   2.399   3.256   3.164 -0.2739  0.7819 -0.4362
 1801SOL    HW3 7278   2.286   3.344   3.116 -0.9100  0.8090  1.0870
 1801SOL    MW4 7279   2.322   3.294   3.178 -0.3576  0.4053  0.3576
 1802SOL     OW 7280   2.898   3.197   2.779  0.7058  0.1774 -0.2394
 1802SOL    HW2 7281   2.960   3.151   2.722  0.4292  0.6235 -0.8686
 1802SOL    HW3 7282   2.898   3.146   2.860  0.7588 -0.7132 -0.7711
 1802SOL    MW4 7283   2.906   3.184   2.782  0.6676  0.0954 -0.4053
 1803SOL     OW 7284   2.704   3.385   1.925  0.1230  0.3107  0.1453
 1803SOL    HW2 7285   2.614   3.355   1.932  0.5098 -0.9488  0.0285
 1803SOL    HW3 7286   2.720   3.432   2.006 -0.0982 -0.9859  0.9250
 1803SOL    MW4 7287   2.695   3.387   1.936  0.1192 -0.0238  0.2384
 1804SOL     OW 7288   2.084   3.536   2.336  0.4899  0.1327  0.0916
 1804SOL    HW2 7289   2.133   3.612   2.370 -0.0682  0.4693  0.2029
 1804SOL    HW3 7290   2.149   3.487   2.286  0.6707  1.1429 -0.6928
 1804SOL    MW4 7291   2.099   3.540   2.333  0.4292  0.3099  0.0238
 1805SOL     OW 7292   2.384   3.984   2.240 -0.1386  0.4189  0.3083
 1805SOL    HW2 7293   2.312   3.926   2.212  0.3266 -0.4190  0.7721
 1805SOL    HW3 7294   2.451   3.924   2.273  1.0154  1.0818 -0.7554
 1805SOL    MW4 7295   2.383   3.968   2.240  0.0715  0.3815  0.2146
 1806SOL     OW 7296   2.347   3.493   2.560  0.2941  0.3543 -0.4081
 1806SOL    HW2 7297   2.387   3.553   2.624 -0.5236  2.1393 -1.5462
 1806SOL    HW3 7298   2.415   3.479   2.494  0.6985 -0.5124  0.2308
 1806SOL    MW4 7299   2.362   3.499   2.560  0.2384  0.4768 -0.4768
 1807SOL     OW 7300   2.440   0.266   3.326 -0.6149  0.4341  0.7444
 1807SOL    HW2 7301   2.519   0.223   3.358 -0.9152 -0.1652  0.6819
 1807SOL    HW3 7302   2.383   0.194   3.298 -1.6357  0.7974  1.8496
 1807SOL    MW4 7303   2.443   0.251   3.327 -0.8106  0.4023  0.8583
 1808SOL     OW 7304   2.466   0.048   2.556 -0.0339  0.7966 -0.5396
 1808SOL    HW2 7305   2.375   0.062   2.584 -0.0072  1.3708 -0.7154
 1808SOL    HW3 7306   2.458   0.009   2.469 -0.1178  1.1019 -0.6526
 1808SOL    MW4 7307   2.453   0.045   2.548 -0.0238  0.9123 -0.5484
 1809SOL     OW 7308   2.619   0.034   3.105  0.3234 -0.3822 -0.0326
 1809SOL    HW2 7309   2.704   0.058   3.141 -0.2213  0.6078  0.7135
 1809SOL    HW3 7310   2.578   0.117   3.082 -0.2508 -0.8792 -0.7652
 1809SOL    MW4 7311   2.625   0.048   3.106  0.1907 -0.3166 -0.0238
 1810SOL     OW 7312   2.685   0.918   3.413 -0.7071  0.2846  0.1608
 1810SOL    HW2 7313   2.776   0.946   3.406 -0.5757  0.2607  1.9729
 1810SOL    HW3 7314   2.687   0.823   3.405 -0.6688  0.3474 -0.5467
 1810SOL    MW4 7315   2.697   0.909   3.411 -0.6914  0.2921  0.3099
 1811SOL     OW 7316   2.325   0.750   3.473  0.1438 -0.0078  0.1977
 1811SOL    HW2 7317   2.392   0.718   3.533  0.2648  0.6760  0.4127
 1811SOL    HW3 7318   2.299   0.673   3.423  0.0353 -0.5767  1.1203
 1811SOL    MW4 7319   2.331   0.736   3.474  0.1669  0.0060  0.3338
 1812SOL     OW 7320   2.435   1.206   3.455  0.5444  0.7587 -0.2842
 1812SOL    HW2 7321   2.519   1.246   3.431  0.6407  1.1880  0.6720
 1812SOL    HW3 7322   2.430   1.127   3.402  1.9843  0.2300  0.3630
 1812SOL    MW4 7323   2.446   1.201   3.445  0.7391  0.7510 -0.0477
 1813SOL     OW 7324   2.334   1.488   3.385  0.2907  0.2085  0.2299
 1813SOL    HW2 7325   2.313   1.501   3.478 -1.3205 -0.4299 -0.0404
 1813SOL    HW3 7326   2.336   1.393   3.375 -0.0231  0.2866 -0.4691
 1813SOL    MW4 7327   2.332   1.477   3.396  0.0477  0.1311  0.1192
 1814SOL     OW 7328   2.732   1.536   3.388  0.0597  0.2447  0.1646
 1814SOL    HW2 7329   2.682   1.535   3.470 -0.1813 -0.2867  0.0081
 1814SOL    HW3 7330   2.666   1.525   3.319  0.3678 -0.3805 -0.0409
 1814SOL    MW4 7331   2.716   1.535   3.390  0.0715  0.0954  0.1192
 1815SOL     OW 7332   2.690   1.816   3.366 -0.0725  0.0648 -0.2805
 1815SOL    HW2 7333   2.604   1.824   3.408 -0.0886  1.0540 -0.5009
 1815SOL    HW3 7334   2.717   1.726   3.382 -0.0644  0.4587  1.8721
 1815SOL    MW4 7335   2.682   1.806   3.374 -0.0715  0.2623 -0.0477
 1816SOL     OW 7336   1.934   2.061   3.419 -0.3660 -0.3648  0.9409
 1816SOL    HW2 7337   1.904   2.037   3.331 -0.0524 -0.7793  0.9605
 1816SOL    HW3 7338   2.018   2.016   3.429  1.2992  2.6174  0.1405
 1816SOL    MW4 7339   1.941   2.052   3.409 -0.1073 -0.0238  0.8345
 1817SOL     OW 7340   2.002   2.195   3.680 -0.3844  0.1351  0.4860
 1817SOL    HW2 7341   2.077   2.237   3.638  0.8320 -0.9098  1.5394
 1817SOL    HW3 7342   1.962   2.143   3.611  0.2431  0.2312  0.0479
 1817SOL    MW4 7343   2.007   2.193   3.666 -0.1192  0.0238  0.5484
 1818SOL     OW 7344   2.350   1.865   3.217 -0.0729 -0.4026 -0.2051
 1818SOL    HW2 7345   2.410   1.920   3.267  1.7509 -1.4856 -1.2328
 1818SOL    HW3 7346   2.317   1.922   3.148 -0.8646  0.4409  0.8453
 1818SOL    MW4 7347   2.354   1.880   3.215  0.0715 -0.4411 -0.2384
 1819SOL     OW 7348   3.017   2.041   2.624  0.0266 -0.5564 -0.0943
 1819SOL    HW2 7349   3.065   2.069   2.702 -0.2242 -1.5311  0.4035
 1819SOL    HW3 7350   2.925   2.056   2.646 -0.0088  0.2178 -0.6129
 1819SOL    MW4 7351   3.011   2.047   2.637  0.0000 -0.5722 -0.1192
 1820SOL     OW 7352   1.595   2.056   3.546 -0.1980  0.2772  0.9671
 1820SOL    HW2 7353   1.643   2.128   3.504  0.0982 -0.3926  0.1645
 1820SOL    HW3 7354   1.646   1.978   3.526 -1.3976 -0.3791  0.5530
 1820SOL    MW4 7355   1.608   2.055   3.538 -0.3338  0.0954  0.8345
 1821SOL     OW 7356   2.378   2.532   3.068  0.7816 -0.9228  0.4814
 1821SOL    HW2 7357   2.313   2.587   3.112  0.9010 -0.8826  0.5479
 1821SOL    HW3 7358   2.440   2.594   3.030  0.4775 -0.9611 -0.1102
 1821SOL    MW4 7359   2.377   2.548   3.069  0.7391 -0.9060  0.4053
 1822SOL     OW 7360   2.946   2.304   3.003  0.4920 -0.0903 -0.1672
 1822SOL    HW2 7361   2.931   2.242   3.074 -1.3591  0.4987 -0.0290
 1822SOL    HW3 7362   2.954   2.389   3.047 -0.5158  0.2563 -0.6367
 1822SOL    MW4 7363   2.945   2.307   3.018  0.1431  0.0477 -0.2146
 1823SOL     OW 7364   2.961   2.396   3.494  0.2655 -0.3418  0.4607
 1823SOL    HW2 7365   2.866   2.400   3.482  0.1892 -1.5649  0.6398
 1823SOL    HW3 7366   2.993   2.475   3.451 -0.7670 -0.4511 -0.5704
 1823SOL    MW4 7367   2.952   2.407   3.487  0.1192 -0.5245  0.3338
 1824SOL     OW 7368   2.679   2.404   3.393  0.5008 -0.0315 -0.4811
 1824SOL    HW2 7369   2.656   2.365   3.309  2.6480  0.9891 -1.5472
 1824SOL    HW3 7370   2.603   2.457   3.417  0.0582 -0.0175 -1.9543
 1824SOL    MW4 7371   2.666   2.406   3.385  0.7391  0.1192 -0.8106
 1825SOL     OW 7372   2.526   2.315   3.191  0.0554  0.5630  0.0921
 1825SOL    HW2 7373   2.560   2.268   3.114  0.6620  1.2159 -0.0228
 1825SOL    HW3 7374   2.473   2.385   3.155 -0.9754 -0.1112  0.2978
 1825SOL    MW4 7375   2.524   2.318   3.176  0.0000  0.5960  0.0954
 1826SOL     OW 7376   2.995   3.716   2.630  0.3568  0.5561  0.2136
 1826SOL    HW2 7377   3.004   3.671   2.713  0.0727 -0.8441 -0.5048
 1826SOL    HW3 7378   3.066   3.682   2.576  0.5130  1.3668 -0.1516
 1826SOL    MW4 7379   3.005   3.706   2.633  0.3338  0.4530  0.0715
 1827SOL     OW 7380   2.703   3.629   2.543 -0.4907  0.1367 -0.5099
 1827SOL    HW2 7381   2.666   3.625   2.631 -1.4148  0.9031 -0.8608
 1827SOL    HW3 7382   2.793   3.658   2.556 -0.7936  0.7473  0.1201
 1827SOL    MW4 7383   2.710   3.632   2.556 -0.6676  0.3099 -0.4768
 1828SOL     OW 7384   2.717   3.849   2.148 -0.6888  0.4097 -0.2778
 1828SOL    HW2 7385   2.673   3.857   2.233 -2.4134  0.1513 -1.1444
 1828SOL    HW3 7386   2.786   3.915   2.151 -1.1263  0.8223  1.1038
 1828SOL    MW4 7387   2.720   3.859   2.160 -0.9775  0.4292 -0.2146
 1829SOL     OW 7388   2.738   3.181   3.297 -0.3835 -0.1379  0.1262
 1829SOL    HW2 7389   2.799   3.229   3.353 -0.0440 -0.4786 -0.0019
 1829SOL    HW3 7390   2.668   3.153   3.356  0.1509 -0.7548  0.4408
 1829SOL    MW4 7391   2.737   3.184   3.312 -0.2623 -0.2384  0.1669
 1830SOL     OW 7392   2.601   4.137   2.948 -0.2827  0.7284  0.0628
 1830SOL    HW2 7393   2.640   4.055   2.976 -0.7932  0.7704  0.8686
 1830SOL    HW3 7394   2.652   4.163   2.871 -0.9358 -0.9874 -0.8983
 1830SOL    MW4 7395   2.613   4.130   2.941 -0.4292  0.4768  0.0715
 1831SOL     OW 7396   2.617   4.495   3.374  0.3631 -0.0171 -0.1084
 1831SOL    HW2 7397   2.561   4.541   3.313  0.2932 -0.4887 -0.3952
 1831SOL    HW3 7398   2.672   4.440   3.319 -0.2939 -1.0459  0.2953
 1831SOL    MW4 7399   2.617   4.494   3.359  0.2384 -0.1907 -0.0954
 1832SOL     OW 7400   2.737   4.516   2.942 -0.1714 -0.4169  0.0276
 1832SOL    HW2 7401   2.681   4.485   2.871 -1.1458 -0.2420  0.6745
 1832SOL    HW3 7402   2.678   4.564   3.000  0.9484  0.8759  0.0614
 1832SOL    MW4 7403   2.722   4.519   2.940 -0.1669 -0.2384  0.0954
 1833SOL     OW 7404   3.114   0.051   3.332  0.3169 -0.0531  0.2062
 1833SOL    HW2 7405   3.050   0.117   3.307  0.8984  0.5970  0.5042
 1833SOL    HW3 7406   3.141   0.076   3.420  1.9447  0.3975 -0.4468
 1833SOL    MW4 7407   3.109   0.063   3.340  0.6199  0.0924  0.1431
 1834SOL     OW 7408   2.831   0.837   2.983 -0.4988  0.1123  0.0863
 1834SOL    HW2 7409   2.859   0.851   3.073  0.0655  0.9331 -0.1995
 1834SOL    HW3 7410   2.772   0.762   2.987 -0.0193 -0.2124  1.0854
 1834SOL    MW4 7411   2.827   0.829   2.995 -0.3815  0.1669  0.1907
 1835SOL     OW 7412   2.639   1.141   3.205  0.3684  0.5738 -0.5112
 1835SOL    HW2 7413   2.713   1.141   3.144  1.1940  0.4147  0.5505
 1835SOL    HW3 7414   2.640   1.054   3.244  0.5508  1.1206  0.7156
 1835SOL    MW4 7415   2.649   1.129   3.202  0.5007  0.6199 -0.2146
 1836SOL     OW 7416   2.654   0.942   3.710 -0.6908 -0.1475 -0.0698
 1836SOL    HW2 7417   2.727   0.895   3.749 -1.2922 -0.3130  0.8193
 1836SOL    HW3 7418   2.672   0.939   3.616 -0.8493 -2.3492 -0.0321
 1836SOL    MW4 7419   2.666   0.936   3.702 -0.7868 -0.4590  0.0477
 1837SOL     OW 7420   2.714   1.260   3.446 -0.3489  0.1232  0.1535
 1837SOL    HW2 7421   2.697   1.217   3.363 -0.1592  0.4487 -0.0389
 1837SOL    HW3 7422   2.735   1.351   3.422  0.8990 -0.0829  0.4626
 1837SOL    MW4 7423   2.715   1.266   3.432 -0.1669  0.1431  0.1907
 1838SOL     OW 7424   2.752   1.389   2.931 -0.4962 -0.0569  0.0838
 1838SOL    HW2 7425   2.763   1.299   2.961  0.3950 -0.4553 -1.5110
 1838SOL    HW3 7426   2.826   1.436   2.968  0.3058 -0.4542 -1.0606
 1838SOL    MW4 7427   2.763   1.383   2.940 -0.3099 -0.1550 -0.2623
 1839SOL     OW 7428   2.886   1.546   3.138 -0.1816 -0.0085 -0.1719
 1839SOL    HW2 7429   2.844   1.542   3.224 -0.0061 -1.0623 -0.1366
 1839SOL    HW3 7430   2.980   1.545   3.158 -0.1576 -0.5462 -0.4057
 1839SOL    MW4 7431   2.893   1.546   3.152 -0.1669 -0.2146 -0.1907
 1840SOL     OW 7432   2.785   1.811   3.096 -0.1507  0.2781 -0.4854
 1840SOL    HW2 7433   2.816   1.721   3.091 -1.1964 -0.0452 -1.2469
 1840SOL    HW3 7434   2.736   1.815   3.178 -0.2420  0.0975 -0.4969
 1840SOL    MW4 7435   2.783   1.800   3.106 -0.2861  0.2027 -0.5722
 1841SOL     OW 7436   2.897   2.077   3.175 -0.0608  0.0760 -0.0465
 1841SOL    HW2 7437   2.872   2.081   3.267  0.9715 -0.6605  0.2583
 1841SOL    HW3 7438   2.859   1.995   3.143  0.1148  0.0005 -0.0992
 1841SOL    MW4 7439   2.889   2.067   3.183  0.0954 -0.0477  0.0000
 1842SOL     OW 7440   3.429   1.564   3.242  0.3895 -0.4098  0.0348
 1842SOL    HW2 7441   3.336   1.580   3.230  0.5552  0.8155  0.5486
 1842SOL    HW3 7442   3.463   1.558   3.153 -0.0941 -0.4596 -0.1357
 1842SOL    MW4 7443   3.421   1.565   3.229  0.3576 -0.2384  0.0954
 1843SOL     OW 7444   3.054   1.574   3.757 -0.7594 -0.5817  0.2850
 1843SOL    HW2 7445   3.145   1.584   3.786 -1.0453  0.3067  0.8661
 1843SOL    HW3 7446   3.022   1.663   3.746 -0.9359 -0.9065 -1.9342
 1843SOL    MW4 7447   3.062   1.587   3.759 -0.8106 -0.5245  0.0715
 1844SOL     OW 7448   3.010   1.864   3.636  0.1007 -0.4680 -0.1669
 1844SOL    HW2 7449   2.973   1.934   3.581  0.0872 -0.7450 -0.5026
 1844SOL    HW3 7450   3.072   1.819   3.579  1.3375  0.3277  0.5895
 1844SOL    MW4 7451   3.013   1.868   3.621  0.2623 -0.4053 -0.1192
 1845SOL     OW 7452   3.139   1.985   3.242 -0.0124 -0.1757 -0.3772
 1845SOL    HW2 7453   3.171   2.060   3.293  0.3379 -0.1096 -0.7123
 1845SOL    HW3 7454   3.052   2.011   3.212 -0.6413 -0.6456  1.0617
 1845SOL    MW4 7455   3.132   1.998   3.245 -0.0477 -0.2265 -0.2384
 1846SOL     OW 7456   3.767   2.858   3.921  0.8414 -0.2206  1.0876
 1846SOL    HW2 7457   3.675   2.832   3.918 -0.0283  2.7036  1.1039
 1846SOL    HW3 7458   3.790   2.873   3.829  0.9488  0.2187  1.2038
 1846SOL    MW4 7459   3.758   2.857   3.908  0.7391  0.2384  1.1206
 1847SOL     OW 7460   3.944   2.405   4.029  0.5795 -0.3694  0.4675
 1847SOL    HW2 7461   3.865   2.436   3.984  0.1011 -2.1938  0.0329
 1847SOL    HW3 7462   3.911   2.347   4.098  1.4462  0.0387  1.1931
 1847SOL    MW4 7463   3.929   2.401   4.032  0.6437 -0.5722  0.4768
 1848SOL     OW 7464   3.374   2.566   3.653 -0.0937  0.2664 -0.5174
 1848SOL    HW2 7465   3.370   2.539   3.745  0.8943  1.6844 -0.0649
 1848SOL    HW3 7466   3.295   2.619   3.641  1.2587  2.4626  0.2576
 1848SOL    MW4 7467   3.363   2.570   3.664  0.1907  0.7391 -0.3815
 1849SOL     OW 7468   3.061   2.758   3.110  0.0592 -0.4350  0.4489
 1849SOL    HW2 7469   3.126   2.742   3.178  0.2667 -0.8275  0.1668
 1849SOL    HW3 7470   3.111   2.766   3.029 -0.2384 -0.3142  0.2949
 1849SOL    MW4 7471   3.076   2.757   3.109  0.0238 -0.4530  0.3815
 1850SOL     OW 7472   3.340   3.068   2.885  0.1849 -0.1496  0.0677
 1850SOL    HW2 7473   3.313   3.035   2.971 -1.5086 -1.2897 -0.9372
 1850SOL    HW3 7474   3.305   3.157   2.882  0.6360  0.0495  0.7471
 1850SOL    MW4 7475   3.332   3.075   2.896  0.0238 -0.2623  0.0477
 1851SOL     OW 7476   3.566   2.920   2.713 -0.4295  0.3373  0.1911
 1851SOL    HW2 7477   3.509   2.948   2.785 -2.2984  1.7745 -1.8284
 1851SOL    HW3 7478   3.655   2.930   2.747 -1.3872 -1.3566  3.1458
 1851SOL    MW4 7479   3.570   2.925   2.727 -0.8106  0.3099  0.3338
 1852SOL     OW 7480   3.043   3.529   2.856  0.2457  0.4009 -0.0203
 1852SOL    HW2 7481   2.953   3.504   2.836  0.5698 -0.8050 -0.1001
 1852SOL    HW3 7482   3.085   3.449   2.887  0.8193  1.3277  1.5800
 1852SOL    MW4 7483   3.037   3.515   2.858  0.3815  0.3815  0.1907
 1853SOL     OW 7484   2.577   3.853   2.389  0.5709  0.2603 -0.4213
 1853SOL    HW2 7485   2.598   3.786   2.455 -0.1989  0.6694  0.2540
 1853SOL    HW3 7486   2.578   3.935   2.437 -1.1211  0.4318 -0.7038
 1853SOL    MW4 7487   2.580   3.855   2.404  0.2384  0.3338 -0.3815
 1854SOL     OW 7488   3.335   4.136   3.047 -0.0522  0.1963 -0.3353
 1854SOL    HW2 7489   3.355   4.206   2.985  0.3346 -0.1058 -0.6074
 1854SOL    HW3 7490   3.240   4.139   3.056 -0.0939  0.2716 -0.9101
 1854SOL    MW4 7491   3.325   4.145   3.040 -0.0238  0.1431 -0.4292
 1855SOL     OW 7492   3.567   4.187   3.344  0.7897 -0.5524 -0.0433
 1855SOL    HW2 7493   3.477   4.158   3.333  1.3321 -2.9955  2.1388
 1855SOL    HW3 7494   3.611   4.159   3.264 -0.2547  0.1577 -0.8924
 1855SOL    MW4 7495   3.561   4.180   3.332  0.7153 -0.7629  0.1192
 1856SOL     OW 7496   2.810   4.355   3.159 -0.1598  0.2305 -0.1502
 1856SOL    HW2 7497   2.882   4.398   3.205  0.6827  0.3417 -1.4964
 1856SOL    HW3 7498   2.789   4.413   3.086 -1.5110  0.1373  0.1632
 1856SOL    MW4 7499   2.817   4.368   3.155 -0.2384  0.2384 -0.2861
 1857SOL     OW 7500   3.355   0.075   3.209  0.0712 -0.2788 -0.3246
 1857SOL    HW2 7501   3.359   0.003   3.147  0.3646 -0.0639 -0.5896
 1857SOL    HW3 7502   3.267   0.069   3.247 -0.1426 -0.3628 -0.8333
 1857SOL    MW4 7503   3.344   0.065   3.206  0.0715 -0.2615 -0.4292
 1858SOL     OW 7504   3.699   0.512   3.338  0.5409 -0.2915  0.3909
 1858SOL    HW2 7505   3.610   0.537   3.313  1.1342  0.8073 -0.5445
 1858SOL    HW3 7506   3.755   0.580   3.299  1.9871 -2.2885 -1.0703
 1858SOL    MW4 7507   3.695   0.524   3.329  0.7868 -0.4053  0.0715
 1859SOL     OW 7508   3.178   0.884   3.060  0.4228 -0.3934 -0.4909
 1859SOL    HW2 7509   3.246   0.943   3.094  0.9937 -0.7409 -1.0240
 1859SOL    HW3 7510   3.200   0.798   3.095  0.4120 -0.5474 -0.8574
 1859SOL    MW4 7511   3.189   0.881   3.069  0.5007 -0.4649 -0.6199
 1860SOL     OW 7512   3.076   0.906   2.792  0.2035  0.3745 -0.2941
 1860SOL    HW2 7513   3.101   0.903   2.885  0.1071  1.3125 -0.2278
 1860SOL    HW3 7514   2.983   0.881   2.792  0.6291 -1.2880 -0.2855
 1860SOL    MW4 7515   3.067   0.902   2.804  0.2623  0.2801 -0.2623
 1861SOL     OW 7516   2.827   1.119   3.008 -0.2957  0.0987 -0.5165
 1861SOL    HW2 7517   2.829   1.025   2.987 -0.5385  0.0447 -0.3619
 1861SOL    HW3 7518   2.918   1.141   3.029 -0.5657 -0.5709  1.4189
 1861SOL    MW4 7519   2.839   1.109   3.008 -0.3576  0.0000 -0.2384
 1862SOL     OW 7520   3.730   1.143   2.961  0.4067  0.1261 -0.0968
 1862SOL    HW2 7521   3.662   1.079   2.939 -0.4370  0.5439  1.2473
 1862SOL    HW3 7522   3.682   1.221   2.988  1.4124  1.0934 -1.1075
 1862SOL    MW4 7523   3.714   1.145   2.962  0.4292  0.3099 -0.0477
 1863SOL     OW 7524   3.533   1.343   3.026  0.4656 -0.3151 -0.2724
 1863SOL    HW2 7525   3.501   1.308   2.943  2.3564 -2.2958 -0.1727
 1863SOL    HW3 7526   3.483   1.295   3.093  0.0189  0.1570 -0.2665
 1863SOL    MW4 7527   3.522   1.332   3.024  0.6437 -0.5126 -0.2623
 1864SOL     OW 7528   3.206   1.237   3.024  0.2509  0.1338  0.1348
 1864SOL    HW2 7529   3.153   1.262   3.100 -0.3262  0.3597 -0.3282
 1864SOL    HW3 7530   3.197   1.311   2.963  0.2550 -0.2974 -0.3650
 1864SOL    MW4 7531   3.198   1.250   3.026  0.1907  0.1192  0.0238
 1865SOL     OW 7532   3.431   1.040   3.175  0.0589 -0.8786 -0.0688
 1865SOL    HW2 7533   3.513   1.017   3.218 -0.8645 -2.0204  1.0684
 1865SOL    HW3 7534   3.404   1.122   3.217  0.5609 -0.5250 -0.4156
 1865SOL    MW4 7535   3.438   1.048   3.186  0.0000 -0.9894  0.0238
 1866SOL     OW 7536   3.440   1.873   3.296  0.1818  0.5013  0.5254
 1866SOL    HW2 7537   3.480   1.787   3.309  0.0739  0.5444  1.1586
 1866SOL    HW3 7538   3.389   1.864   3.215  0.0112 -0.0655  0.7039
 1866SOL    MW4 7539   3.439   1.861   3.287  0.1431  0.4292  0.6199
 1867SOL     OW 7540   3.355   1.936   3.550 -0.1736  0.3286  0.4684
 1867SOL    HW2 7541   3.411   1.875   3.599 -0.2519 -0.6331 -0.6061
 1867SOL    HW3 7542   3.391   1.933   3.461 -1.5009  0.3091 -0.0652
 1867SOL    MW4 7543   3.367   1.928   3.545 -0.3338  0.2027  0.2623
 1868SOL     OW 7544   3.097   1.943   3.884 -0.4340 -0.0739  0.3319
 1868SOL    HW2 7545   3.192   1.934   3.876 -0.4741 -0.2328  0.2170
 1868SOL    HW3 7546   3.063   1.911   3.800 -0.5794  0.2910  0.2480
 1868SOL    MW4 7547   3.105   1.938   3.872 -0.4530 -0.0477  0.2861
 1869SOL     OW 7548   3.666   2.645   3.622  0.3929  0.1731  0.0752
 1869SOL    HW2 7549   3.695   2.615   3.708  0.2514 -1.1304 -0.3209
 1869SOL    HW3 7550   3.570   2.641   3.626  0.3821  0.2043 -0.0784
 1869SOL    MW4 7551   3.657   2.641   3.634  0.3576  0.0000 -0.0238
 1870SOL     OW 7552   3.408   2.199   3.973 -0.9757 -0.9489  1.1686
 1870SOL    HW2 7553   3.492   2.218   4.014 -1.2593  0.1701  1.2450
 1870SOL    HW3 7554   3.426   2.196   3.879 -1.0758  0.3659  1.1151
 1870SOL    MW4 7555   3.421   2.201   3.966 -1.0490 -0.6199  1.1683
 1871SOL     OW 7556   3.971   2.157   3.494  0.2707  0.1303  0.7424
 1871SOL    HW2 7557   3.952   2.063   3.494  1.2095 -0.0457 -0.2257
 1871SOL    HW3 7558   3.918   2.191   3.566  0.8839 -1.3243  1.9093
 1871SOL    MW4 7559   3.961   2.149   3.504  0.4292 -0.0715  0.7629
 1872SOL     OW 7560   3.758   2.324   3.678 -0.0460  0.0627  0.6488
 1872SOL    HW2 7561   3.827   2.390   3.677 -0.7874  0.8140 -0.0428
 1872SOL    HW3 7562   3.698   2.350   3.608 -1.1246 -0.5418  1.3611
 1872SOL    MW4 7563   3.759   2.336   3.668 -0.2861  0.0954  0.6437
 1873SOL     OW 7564   3.618   3.466   4.005  0.6103  0.1561 -0.4536
 1873SOL    HW2 7565   3.553   3.516   4.054  2.4248  0.6647  1.3976
 1873SOL    HW3 7566   3.673   3.426   4.072  1.5926 -1.1192 -2.0452
 1873SOL    MW4 7567   3.617   3.467   4.020  0.9775  0.0715 -0.4292
 1874SOL     OW 7568   3.842   2.815   3.330  0.5367  0.1308  0.2531
 1874SOL    HW2 7569   3.811   2.726   3.351  0.9401  0.3753  1.8634
 1874SOL    HW3 7570   3.922   2.801   3.280  0.0823 -0.4045 -0.3079
 1874SOL    MW4 7571   3.848   2.801   3.327  0.5007  0.0954  0.4053
 1875SOL     OW 7572   3.928   2.780   2.969  0.4007 -0.2731 -0.1235
 1875SOL    HW2 7573   3.995   2.779   3.038  0.9127  1.6733 -0.5238
 1875SOL    HW3 7574   3.891   2.869   2.974  1.1988  0.2289 -3.0378
 1875SOL    MW4 7575   3.932   2.792   2.979  0.5722  0.0715 -0.5722
 1876SOL     OW 7576   4.206   3.278   3.315  0.1616 -0.0122  0.3266
 1876SOL    HW2 7577   4.116   3.248   3.313  0.3420 -0.6262 -0.6829
 1876SOL    HW3 7578   4.235   3.262   3.405  0.1861 -2.5280 -0.1819
 1876SOL    MW4 7579   4.198   3.272   3.327  0.1907 -0.4292  0.1431
 1877SOL     OW 7580   2.936   3.890   3.486 -0.4364  0.6989 -0.2716
 1877SOL    HW2 7581   3.014   3.837   3.505 -0.8169  0.3348  0.3651
 1877SOL    HW3 7582   2.933   3.893   3.390  0.7688  1.3294 -0.2456
 1877SOL    MW4 7583   2.946   3.883   3.476 -0.3099  0.7153 -0.1907
 1878SOL     OW 7584   3.121   4.452   2.675  0.3336  0.0768  0.3022
 1878SOL    HW2 7585   3.174   4.381   2.708  1.0356 -0.2261 -1.4168
 1878SOL    HW3 7586   3.173   4.531   2.691  0.2797  0.0537  0.6454
 1878SOL    MW4 7587   3.134   4.453   2.681  0.4053  0.0954  0.1192
 1879SOL     OW 7588   3.386   3.796   3.419  0.0322 -0.1681 -0.6362
 1879SOL    HW2 7589   3.481   3.799   3.429 -0.0135  0.5212 -0.4575
 1879SOL    HW3 7590   3.357   3.886   3.435 -0.3920  0.1451 -3.1086
 1879SOL    MW4 7591   3.394   3.808   3.422 -0.0477 -0.0238 -0.9537
 1880SOL     OW 7592   3.346   4.359   2.874 -0.2820 -0.4306  0.1163
 1880SOL    HW2 7593   3.302   4.434   2.914 -0.4518 -0.4478  0.0277
 1880SOL    HW3 7594   3.430   4.393   2.845 -0.3937 -0.2450 -0.0028
 1880SOL    MW4 7595   3.351   4.373   2.875 -0.3338 -0.4292  0.1192
 1881SOL     OW 7596   3.199   4.559   3.022 -0.1448 -0.2041  0.1969
 1881SOL    HW2 7597   3.145   4.617   2.968 -0.2904 -0.2135  0.3097
 1881SOL    HW3 7598   3.141   4.534   3.094  0.3764  0.5600  0.8398
 1881SOL    MW4 7599   3.184   4.563   3.024 -0.0715 -0.0954  0.2623
 1882SOL     OW 7600   3.298   0.449   2.858 -0.4380  0.0599  0.0664
 1882SOL    HW2 7601   3.335   0.361   2.852 -0.4580  0.0127  0.6243
 1882SOL    HW3 7602   3.370   0.504   2.887 -0.4798  0.1755  0.0328
 1882SOL    MW4 7603   3.312   0.444   2.861 -0.4292  0.0715  0.1431
 1883SOL     OW 7604   3.608   0.775   3.159 -0.8193 -0.2126  0.1814
 1883SOL    HW2 7605   3.702   0.757   3.165 -0.8745 -0.5081  0.1586
 1883SOL    HW3 7606   3.567   0.689   3.160 -1.1024 -0.0744  0.3020
 1883SOL    MW4 7607   3.615   0.761   3.160 -0.8583 -0.2325  0.2146
 1884SOL     OW 7608   3.581   0.911   2.915  0.4144 -0.1716  0.0608
 1884SOL    HW2 7609   3.589   0.866   2.999 -0.2274 -0.5272 -0.0733
 1884SOL    HW3 7610   3.496   0.957   2.921  0.4621  0.0128 -0.3029
 1884SOL    MW4 7611   3.571   0.911   2.927  0.3099 -0.1967  0.0000
 1885SOL     OW 7612   3.480   0.862   3.507 -0.3145  0.1738  0.2432
 1885SOL    HW2 7613   3.503   0.946   3.549  0.4657  0.1749 -0.1813
 1885SOL    HW3 7614   3.564   0.819   3.492 -0.5039  1.0409 -3.2052
 1885SOL    MW4 7615   3.494   0.868   3.511 -0.2384  0.2921 -0.2861
 1886SOL     OW 7616   3.893   0.759   3.191 -0.1207 -0.0149  0.3103
 1886SOL    HW2 7617   3.913   0.800   3.275  1.4014 -0.2272  0.0318
 1886SOL    HW3 7618   3.912   0.827   3.126  1.1790 -0.6978 -0.0402
 1886SOL    MW4 7619   3.898   0.773   3.193  0.2384 -0.1311  0.2384
 1887SOL     OW 7620   3.962   1.014   3.349  0.4448 -0.2213 -0.2672
 1887SOL    HW2 7621   3.944   0.986   3.438  0.9069  0.1010 -0.0598
 1887SOL    HW3 7622   3.877   1.010   3.304  0.1757 -0.1939  0.2506
 1887SOL    MW4 7623   3.948   1.010   3.355  0.4530 -0.1788 -0.1669
 1888SOL     OW 7624   3.707   1.072   3.234  0.7026  0.0141  0.7308
 1888SOL    HW2 7625   3.743   1.148   3.281  1.5869  0.0582 -0.0323
 1888SOL    HW3 7626   3.725   1.091   3.142 -0.7277 -0.2431  0.3904
 1888SOL    MW4 7627   3.714   1.085   3.228  0.6199 -0.0238  0.5960
 1889SOL     OW 7628   3.814   1.368   3.621 -0.2299  0.2317  0.3365
 1889SOL    HW2 7629   3.835   1.460   3.604  0.6641 -0.1134 -0.4008
 1889SOL    HW3 7630   3.818   1.327   3.535  2.7951 -1.2632  1.2304
 1889SOL    MW4 7631   3.817   1.375   3.607  0.2861 -0.0119  0.3576
 1890SOL     OW 7632   4.069   1.569   3.155 -0.1409 -0.9318 -0.0779
 1890SOL    HW2 7633   4.047   1.637   3.090 -0.9029 -0.6099  0.5370
 1890SOL    HW3 7634   3.985   1.529   3.178  0.4790 -2.9677 -1.3851
 1890SOL    MW4 7635   4.055   1.573   3.149 -0.1431 -1.1563 -0.1669
 1891SOL     OW 7636   4.152   1.914   3.245  0.0356 -0.2703  0.7826
 1891SOL    HW2 7637   4.066   1.953   3.263  0.2263  0.0978  0.7940
 1891SOL    HW3 7638   4.147   1.887   3.153  0.0651  0.0981  0.6752
 1891SOL    MW4 7639   4.140   1.915   3.235  0.0954 -0.1669  0.7868
 1892SOL     OW 7640   3.846   1.991   3.207  0.2840 -0.2090  0.4990
 1892SOL    HW2 7641   3.862   2.084   3.219  0.6421 -0.2561  0.1986
 1892SOL    HW3 7642   3.826   1.959   3.295  0.1663  0.1271  0.5718
 1892SOL    MW4 7643   3.846   1.999   3.220  0.3338 -0.1669  0.4530
 1893SOL     OW 7644   3.380   1.902   3.877 -0.2964 -0.2950 -0.0623
 1893SOL    HW2 7645   3.469   1.889   3.846 -0.0571 -1.1097  0.8984
 1893SOL    HW3 7646   3.384   1.982   3.930 -0.3847  0.2989 -0.9730
 1893SOL    MW4 7647   3.392   1.911   3.880 -0.2623 -0.3219 -0.0715
 1894SOL     OW 7648   3.905   2.271   3.246  0.2740  0.1002  0.2531
 1894SOL    HW2 7649   3.931   2.251   3.335 -0.2748 -0.8541  0.2351
 1894SOL    HW3 7650   3.855   2.353   3.253 -0.5954 -0.5136  0.9510
 1894SOL    MW4 7651   3.902   2.279   3.258  0.0954 -0.1192  0.3576
 1895SOL     OW 7652   4.374   2.112   3.452  0.0290  0.2621  0.5453
 1895SOL    HW2 7653   4.294   2.157   3.425  0.2554  0.9551  1.1365
 1895SOL    HW3 7654   4.356   2.019   3.436 -1.0305  0.3624  1.1180
 1895SOL    MW4 7655   4.361   2.106   3.446 -0.0954  0.3576  0.6914
 1896SOL     OW 7656   4.112   2.667   3.428  0.0201 -0.5623  0.1295
 1896SOL    HW2 7657   4.117   2.575   3.404 -0.2995 -0.7000  0.6103
 1896SOL    HW3 7658   4.200   2.689   3.458  0.2565 -0.5572 -0.5912
 1896SOL    MW4 7659   4.124   2.658   3.429  0.0000 -0.5722  0.0954
 1897SOL     OW 7660   4.383   2.673   4.249  0.8002 -0.5643  0.2114
 1897SOL    HW2 7661   4.314   2.689   4.185  0.8272 -1.9960 -0.2441
 1897SOL    HW3 7662   4.439   2.750   4.244 -0.4394  0.3276  0.1329
 1897SOL    MW4 7663   4.381   2.685   4.240  0.6676 -0.6199  0.1431
 1898SOL     OW 7664   4.386   3.328   3.103  0.4690  0.9175 -0.6593
 1898SOL    HW2 7665   4.316   3.321   3.168  2.7327 -0.0260  1.6809
 1898SOL    HW3 7666   4.400   3.237   3.074  0.6536  1.1489 -1.2161
 1898SOL    MW4 7667   4.378   3.315   3.108  0.8106  0.8106 -0.4292
 1899SOL     OW 7668   4.036   2.680   2.723  1.4392 -0.4847 -0.1613
 1899SOL    HW2 7669   3.973   2.713   2.659  1.6144 -0.8077 -0.5489
 1899SOL    HW3 7670   4.000   2.707   2.808  0.9246 -0.3416 -0.4203
 1899SOL    MW4 7671   4.023   2.688   2.726  1.3828 -0.5007 -0.2384
 1900SOL     OW 7672   4.290   3.464   3.599  0.6053 -0.1648 -0.1411
 1900SOL    HW2 7673   4.208   3.514   3.590  0.6906 -0.1012 -0.0388
 1900SOL    HW3 7674   4.275   3.406   3.674  0.2292 -1.0278 -0.9034
 1900SOL    MW4 7675   4.277   3.463   3.607  0.5722 -0.2623 -0.2384
 1901SOL     OW 7676   3.659   3.916   3.151  0.1571 -0.0399  0.1862
 1901SOL    HW2 7677   3.630   3.903   3.241  1.0205 -1.6484  0.2476
 1901SOL    HW3 7678   3.724   3.847   3.137 -0.1469  0.0819 -1.7121
 1901SOL    MW4 7679   3.664   3.905   3.161  0.2146 -0.2384 -0.0477
 1902SOL     OW 7680   3.856   0.330   2.866  0.2509  0.7222 -0.1954
 1902SOL    HW2 7681   3.780   0.285   2.902  0.2426  0.5666 -0.4230
 1902SOL    HW3 7682   3.891   0.270   2.800  0.7134  0.6976  0.0708
 1902SOL    MW4 7683   3.851   0.316   2.862  0.2861  0.6974 -0.1669
 1903SOL     OW 7684   0.014   4.476   2.209 -0.0643  0.4359  0.2976
 1903SOL    HW2 7685   0.040   4.510   2.295  0.8865  0.2181  0.0930
 1903SOL    HW3 7686   0.073   4.402   2.194  0.4428  1.0509 -0.9516
 1903SOL    MW4 7687   0.025   4.471   2.218  0.1281  0.4768  0.0715
 1904SOL     OW 7688   4.262   4.654   2.665 -0.3748  0.1760 -0.4314
 1904SOL    HW2 7689   4.221   4.704   2.594 -1.3118  0.5749  0.3854
 1904SOL    HW3 7690   4.232   4.564   2.651 -1.9751  0.5867  0.5510
 1904SOL    MW4 7691   4.253   4.648   2.654 -0.7153  0.2861 -0.1907
 1905SOL     OW 7692   3.847   0.583   2.951  0.0473  0.7775  0.9932
 1905SOL    HW2 7693   3.917   0.593   3.016  0.3350  0.5212  0.7267
 1905SOL    HW3 7694   3.860   0.495   2.915  0.7485  1.4652 -0.4419
 1905SOL    MW4 7695   3.858   0.573   2.955  0.1907  0.8404  0.7868
 1906SOL     OW 7696   3.962   4.584   3.558 -0.3975 -0.5419 -0.3178
 1906SOL    HW2 7697   3.959   4.638   3.479 -0.2932  0.5742  0.4205
 1906SOL    HW3 7698   4.011   4.638   3.621  0.9580 -2.1030 -0.0410
 1906SOL    MW4 7699   3.968   4.598   3.556 -0.2146 -0.5722 -0.2146
 1907SOL     OW 7700   4.419   4.543   3.373  0.6114  0.3031 -0.6586
 1907SOL    HW2 7701   4.367   4.553   3.453  0.5612  0.4639 -0.7481
 1907SOL    HW3 7702   4.370   4.590   3.306 -0.0437 -1.0597 -1.1395
 1907SOL    MW4 7703   4.405   4.550   3.375  0.5245  0.0954 -0.7391
 1908SOL     OW 7704   4.029   0.422   3.087  0.7939  0.0762 -0.1820
 1908SOL    HW2 7705   3.969   0.351   3.109 -0.4126  0.5412 -1.9375
 1908SOL    HW3 7706   4.053   0.461   3.171  0.7077 -1.7958  0.7070
 1908SOL    MW4 7707   4.024   0.418   3.101  0.6199 -0.1103 -0.3099
 1909SOL     OW 7708   4.133   0.600   3.285  0.1549  0.0976  0.5752
 1909SOL    HW2 7709   4.118   0.607   3.379 -0.8603 -0.3544  0.4284
 1909SOL    HW3 7710   4.080   0.670   3.246 -0.1737 -0.2853  0.2830
 1909SOL    MW4 7711   4.124   0.611   3.292 -0.0477 -0.0179  0.5245
 1910SOL     OW 7712   4.431   1.127   3.340  0.0888  0.3503  0.1605
 1910SOL    HW2 7713   4.394   1.087   3.419  0.2269  0.6193  0.3526
 1910SOL    HW3 7714   4.454   1.053   3.284  0.9913  0.1451  0.8146
 1910SOL    MW4 7715   4.429   1.112   3.343  0.2384  0.3457  0.2861
 1911SOL     OW 7716   4.228   1.290   3.207 -0.2581 -0.3267  0.3051
 1911SOL    HW2 7717   4.246   1.263   3.117 -0.2666 -0.2984  0.2996
 1911SOL    HW3 7718   4.275   1.226   3.261 -0.5905 -0.6442  0.2713
 1911SOL    MW4 7719   4.237   1.278   3.202 -0.2861 -0.3695  0.3099
 1912SOL     OW 7720   3.973   1.258   3.099 -0.0865  0.4789  0.3895
 1912SOL    HW2 7721   4.052   1.269   3.152 -0.2803  0.3330  0.7092
 1912SOL    HW3 7722   3.968   1.164   3.084 -0.0774  0.5047  0.1793
 1912SOL    MW4 7723   3.983   1.247   3.104 -0.0954  0.4530  0.4053
 1913SOL     OW 7724   4.124   1.582   3.447 -0.3519  0.8300  0.1379
 1913SOL    HW2 7725   4.203   1.563   3.498  0.2498  3.2924  0.2005
 1913SOL    HW3 7726   4.140   1.540   3.362  0.0606 -0.6416  0.9630
 1913SOL    MW4 7727   4.137   1.574   3.443 -0.1907  0.9656  0.2623
 1914SOL     OW 7728   4.344   1.635   3.113  0.9039  0.1643 -0.3849
 1914SOL    HW2 7729   4.370   1.694   3.184  0.8856  0.6925 -0.8232
 1914SOL    HW3 7730   4.255   1.610   3.134  0.3995  1.4612 -0.9493
 1914SOL    MW4 7731   4.336   1.640   3.125  0.8106  0.4053 -0.5245
 1915SOL     OW 7732   0.096   1.922   3.207 -0.1618  0.2444  0.1082
 1915SOL    HW2 7733   0.094   1.872   3.125  0.4046  0.8121 -0.2595
 1915SOL    HW3 7734   0.028   1.988   3.198  0.4859  0.8483 -0.2750
 1915SOL    MW4 7735   0.087   1.924   3.195 -0.0022  0.3815  0.0238
 1916SOL     OW 7736   4.327   2.113   2.708 -0.1173  0.6220  0.1008
 1916SOL    HW2 7737   4.414   2.128   2.746  0.1661 -0.3265 -0.1738
 1916SOL    HW3 7738   4.314   2.187   2.649  0.5044  0.7534  0.1556
 1916SOL    MW4 7739   4.337   2.125   2.705  0.0477  0.5245  0.0715
 1917SOL     OW 7740   4.075   2.352   3.040  0.1316  0.2606  0.4171
 1917SOL    HW2 7741   4.124   2.270   3.031  0.0163  0.1552  0.6901
 1917SOL    HW3 7742   3.987   2.324   3.066 -0.1096  0.4398 -0.1284
 1917SOL    MW4 7743   4.070   2.337   3.042  0.1431  0.2861  0.3576
 1918SOL     OW 7744   4.173   2.408   2.798 -0.0700 -0.4059 -0.5812
 1918SOL    HW2 7745   4.130   2.411   2.883  0.9671 -0.3536 -0.0728
 1918SOL    HW3 7746   4.256   2.454   2.811 -0.0596 -0.1168 -1.6988
 1918SOL    MW4 7747   4.178   2.414   2.811  0.0954 -0.3338 -0.6676
 1919SOL     OW 7748   0.601   3.075   3.525  0.5405 -0.2289  0.3271
 1919SOL    HW2 7749   0.538   3.106   3.460  0.2799 -0.2619  0.5519
 1919SOL    HW3 7750   0.605   3.146   3.589  0.3895 -0.3577  0.5163
 1919SOL    MW4 7751   0.593   3.089   3.525  0.4828 -0.2384  0.4053
 1920SOL     OW 7752   4.168   2.387   3.321 -0.2642  0.2181  0.3311
 1920SOL    HW2 7753   4.239   2.403   3.259 -0.8886  1.8691 -0.0081
 1920SOL    HW3 7754   4.095   2.355   3.267 -0.5670  1.0084  0.3451
 1920SOL    MW4 7755   4.168   2.385   3.306 -0.3815  0.5245  0.2861
 1921SOL     OW 7756   4.397   3.457   2.846  0.1124 -0.4404 -0.4417
 1921SOL    HW2 7757   4.394   3.421   2.934  0.8383 -0.4924 -0.4576
 1921SOL    HW3 7758   4.489   3.475   2.830 -0.2027  0.8098 -0.6973
 1921SOL    MW4 7759   4.409   3.454   2.855  0.1907 -0.2623 -0.5007
 1922SOL     OW 7760   0.794   3.439   2.469 -0.0916  0.4769 -0.7220
 1922SOL    HW2 7761   0.867   3.429   2.531 -0.0141  1.0656 -0.7114
 1922SOL    HW3 7762   0.716   3.426   2.522 -0.0325  1.1371 -0.4583
 1922SOL    MW4 7763   0.793   3.436   2.484 -0.0656  0.6437 -0.6676
 1923SOL     OW 7764   0.368   3.675   3.434  0.0539  0.3330  0.1559
 1923SOL    HW2 7765   0.374   3.732   3.358 -0.1131  0.3379  0.1662
 1923SOL    HW3 7766   0.343   3.590   3.399  1.8600 -0.1540  0.0162
 1923SOL    MW4 7767   0.366   3.671   3.419  0.2682  0.2623  0.1431
 1924SOL     OW 7768   4.355   3.647   3.227  0.6214 -0.3909 -0.6513
 1924SOL    HW2 7769   4.263   3.621   3.233  0.5268  0.0455 -0.7004
 1924SOL    HW3 7770   4.366   3.712   3.296  1.0430 -0.9356 -0.2030
 1924SOL    MW4 7771   4.344   3.652   3.237  0.7153 -0.4053 -0.5960
 1925SOL     OW 7772   3.651   0.188   2.999  0.2611  0.1074 -0.1598
 1925SOL    HW2 7773   3.660   0.093   2.999  0.6833  0.1502  1.0102
 1925SOL    HW3 7774   3.686   0.216   3.083  1.1703  1.4149 -0.9564
 1925SOL    MW4 7775   3.657   0.179   3.010  0.4292  0.2846 -0.0954
 1926SOL     OW 7776   3.841   4.644   3.143 -0.0436  0.3903 -0.3758
 1926SOL    HW2 7777   3.887   4.597   3.073  0.2630  1.0024 -0.5749
 1926SOL    HW3 7778   3.786   4.578   3.184 -0.6198  0.1252 -1.5477
 1926SOL    MW4 7779   3.840   4.629   3.139 -0.0715  0.4292 -0.5484
 1927SOL     OW 7780   0.264   4.284   2.488 -0.3130 -0.1612  0.6476
 1927SOL    HW2 7781   0.191   4.333   2.526 -0.0081 -0.1808  1.1845
 1927SOL    HW3 7782   0.311   4.249   2.563  0.0897 -0.4121  0.2697
 1927SOL    MW4 7783   0.261   4.286   2.503 -0.2146 -0.1907  0.6676
 1928SOL     OW 7784   0.391   4.247   2.732 -0.1925  0.0731 -0.2944
 1928SOL    HW2 7785   0.409   4.293   2.814  0.7173  1.6224 -1.3451
 1928SOL    HW3 7786   0.331   4.177   2.756 -1.4243  1.7335  1.3489
 1928SOL    MW4 7787   0.385   4.244   2.746 -0.2354  0.4768 -0.2146
 1929SOL     OW 7788   0.250   0.085   3.201 -0.0432  0.6981 -0.4746
 1929SOL    HW2 7789   0.195   0.067   3.277  0.7555  0.9095  0.1383
 1929SOL    HW3 7790   0.232   0.012   3.141  1.3120 -0.8802  1.0216
 1929SOL    MW4 7791   0.240   0.073   3.203  0.2429  0.5178 -0.1669
 1930SOL     OW 7792   0.454   4.586   2.951 -0.1687 -0.8685 -0.3797
 1930SOL    HW2 7793   0.485   4.675   2.930 -0.9135 -0.5211 -0.1612
 1930SOL    HW3 7794   0.514   4.556   3.019  0.5316 -0.7653 -0.9414
 1930SOL    MW4 7795   0.466   4.594   2.957 -0.1729 -0.8106 -0.4292
 1931SOL     OW 7796   0.041   0.332   2.883 -0.4420 -0.0240  0.5341
 1931SOL    HW2 7797   0.123   0.379   2.901 -0.1578 -0.8103  1.2938
 1931SOL    HW3 7798   0.008   0.307   2.970 -0.9950 -0.5541  0.1558
 1931SOL    MW4 7799   0.047   0.335   2.897 -0.4768 -0.1997  0.5484
 1932SOL     OW 7800   4.431   0.251   3.117 -0.0743  0.0927 -0.2817
 1932SOL    HW2 7801   4.515   0.226   3.156  0.4395  1.6888 -0.4323
 1932SOL    HW3 7802   4.408   0.334   3.160 -1.4590 -0.1858 -0.4755
 1932SOL    MW4 7803   4.439   0.259   3.128 -0.1907  0.2682 -0.3338
 1933SOL     OW 7804   0.035   0.223   3.495  0.3819 -0.4451  0.4524
 1933SOL    HW2 7805   0.080   0.290   3.443  0.3019 -1.7526 -1.3070
 1933SOL    HW3 7806  -0.057   0.251   3.496  0.4915 -0.0339  0.5056
 1933SOL    MW4 7807   0.029   0.235   3.488  0.3841 -0.5618  0.2146
 1934SOL     OW 7808   0.437   0.017   3.524  0.6116  0.5949 -0.2063
 1934SOL    HW2 7809   0.348   0.018   3.488  0.7737  0.3084 -0.6052
 1934SOL    HW3 7810   0.435  -0.051   3.592  0.5436  0.5331 -0.2754
 1934SOL    MW4 7811   0.425   0.009   3.528  0.6229  0.5508 -0.2623
 1935SOL     OW 7812   0.446   1.948   3.597  0.2037  0.5550 -0.1216
 1935SOL    HW2 7813   0.484   1.864   3.623  0.4379  0.5753 -0.3834
 1935SOL    HW3 7814   0.391   1.927   3.521 -0.0496  0.5766  0.0468
 1935SOL    MW4 7815   0.444   1.934   3.590  0.1997  0.5841 -0.1431
 1936SOL     OW 7816   0.452   1.265   4.228  0.1786 -0.3352 -0.0242
 1936SOL    HW2 7817   0.362   1.297   4.242  0.8931  1.5461  0.3722
 1936SOL    HW3 7818   0.454   1.236   4.137 -0.4985  0.7730 -0.4276
 1936SOL    MW4 7819   0.440   1.266   4.218  0.1818  0.0596 -0.0477
 1937SOL     OW 7820   0.838   2.211   3.600  0.5029  0.5280  0.1293
 1937SOL    HW2 7821   0.780   2.180   3.670  1.9085  0.0670  1.0961
 1937SOL    HW3 7822   0.860   2.133   3.550 -0.8289  0.8858 -1.0387
 1937SOL    MW4 7823   0.833   2.197   3.602  0.5066  0.5007  0.0954
 1938SOL     OW 7824   0.705   2.544   3.192  0.0497  0.4020 -0.7531
 1938SOL    HW2 7825   0.739   2.496   3.267  0.8837  0.4592 -1.0993
 1938SOL    HW3 7826   0.651   2.481   3.145  0.5994 -0.0042 -0.8460
 1938SOL    MW4 7827   0.702   2.530   3.196  0.2384  0.3576 -0.8106
 1939SOL     OW 7828   4.456   2.470   2.838  0.2830  0.3676 -0.3441
 1939SOL    HW2 7829   4.533   2.495   2.890 -0.0963  1.1879 -0.1975
 1939SOL    HW3 7830   4.474   2.505   2.751 -0.0291  0.5998 -0.2629
 1939SOL    MW4 7831   4.469   2.478   2.833  0.1907  0.4768 -0.3338
 1940SOL     OW 7832   4.490   2.166   3.066 -0.0164 -0.4644 -0.1902
 1940SOL    HW2 7833   4.468   2.251   3.104 -0.6581 -0.6992 -0.0274
 1940SOL    HW3 7834   4.585   2.159   3.077 -0.0096  0.1353 -0.0794
 1940SOL    MW4 7835   4.500   2.176   3.072 -0.0954 -0.4292 -0.1907
 1941SOL     OW 7836   0.194   2.941   3.288 -0.4020  0.3000 -0.3570
 1941SOL    HW2 7837   0.247   3.010   3.328  0.3702 -0.4438 -0.1102
 1941SOL    HW3 7838   0.257   2.888   3.239 -1.0679  0.0536 -0.9228
 1941SOL    MW4 7839   0.209   2.943   3.287 -0.3874  0.1669 -0.3815
 1942SOL     OW 7840   0.420   3.145   3.322 -0.0154 -0.2773  0.4183
 1942SOL    HW2 7841   0.471   3.155   3.242 -0.8520 -1.2022 -0.2197
 1942SOL    HW3 7842   0.367   3.225   3.327  0.2155 -0.1345  0.1984
 1942SOL    MW4 7843   0.420   3.157   3.312 -0.0954 -0.3815  0.3099
 1943SOL     OW 7844   0.115   3.212   3.389 -0.6984  0.0359  0.7008
 1943SOL    HW2 7845   0.087   3.303   3.389  1.2777  0.6295  0.0459
 1943SOL    HW3 7846   0.096   3.182   3.300  0.3982  0.3426  0.3577
 1943SOL    MW4 7847   0.109   3.220   3.377 -0.2928  0.1669  0.5484
 1944SOL     OW 7848   4.223   3.963   3.752 -0.0300 -0.0886  0.4042
 1944SOL    HW2 7849   4.280   4.012   3.694  0.0702 -0.1163  0.4709
 1944SOL    HW3 7850   4.257   3.873   3.751 -0.8099 -0.3711 -0.5027
 1944SOL    MW4 7851   4.235   3.957   3.744 -0.1431 -0.1431  0.3099
 1945SOL     OW 7852   0.064   3.710   3.509 -0.0255  0.3316 -0.1023
 1945SOL    HW2 7853  -0.003   3.728   3.574  0.3373 -0.1374  0.4163
 1945SOL    HW3 7854   0.146   3.740   3.549  0.1163  0.5369 -0.5146
 1945SOL    MW4 7855   0.066   3.717   3.523  0.0373  0.3338 -0.0715
 1946SOL     OW 7856   0.388   3.935   2.252 -0.3008  0.3094 -0.5209
 1946SOL    HW2 7857   0.411   4.028   2.253  0.4811  0.1501 -0.5639
 1946SOL    HW3 7858   0.434   3.898   2.327 -1.2826  0.1380  0.0044
 1946SOL    MW4 7859   0.397   3.943   2.262 -0.3278  0.2623 -0.4768
 1947SOL     OW 7860   0.930   3.943   2.447  0.3082  0.0454 -0.5342
 1947SOL    HW2 7861   0.868   3.982   2.508  0.0290  0.6339 -1.1729
 1947SOL    HW3 7862   0.898   3.854   2.435  0.0856  0.0710 -0.2153
 1947SOL    MW4 7863   0.918   3.937   2.453  0.2444  0.1192 -0.5722
 1948SOL     OW 7864   0.508   3.680   2.943 -0.1903  0.3072 -0.1829
 1948SOL    HW2 7865   0.517   3.585   2.932  0.0897  0.3676 -0.4982
 1948SOL    HW3 7866   0.459   3.690   3.024  0.1874 -0.1033  0.0700
 1948SOL    MW4 7867   0.502   3.669   2.952 -0.1013  0.2623 -0.1907
 1949SOL     OW 7868   0.165   3.976   2.450 -1.0019 -0.1436 -0.1839
 1949SOL    HW2 7869   0.151   4.070   2.464 -1.8804 -0.0762 -1.3477
 1949SOL    HW3 7870   0.217   3.971   2.370 -2.1872 -0.7226 -0.9260
 1949SOL    MW4 7871   0.170   3.988   2.441 -1.2755 -0.2146 -0.4530
 1950SOL     OW 7872   3.940   4.550   2.878  0.4543  0.0811 -0.0634
 1950SOL    HW2 7873   3.916   4.620   2.817  2.0816 -1.1319 -2.1640
 1950SOL    HW3 7874   4.034   4.564   2.894  0.5052 -0.8590  0.4043
 1950SOL    MW4 7875   3.949   4.561   2.872  0.6914 -0.2384 -0.2623
 1951SOL     OW 7876   0.043   0.004   2.411  0.6314  0.4547 -0.5013
 1951SOL    HW2 7877   0.093   0.018   2.331 -0.2353  1.1415 -0.9465
 1951SOL    HW3 7878   0.109  -0.001   2.480  1.2438  2.2782 -0.9597
 1951SOL    MW4 7879   0.058   0.006   2.410  0.5979  0.7843 -0.6199
 1952SOL     OW 7880   0.219   4.480   3.070 -0.0602  0.5969  0.4844
 1952SOL    HW2 7881   0.297   4.503   3.021 -0.0071  1.4632  0.9665
 1952SOL    HW3 7882   0.158   4.445   3.005  0.1138  1.5061 -0.1444
 1952SOL    MW4 7883   0.221   4.478   3.055 -0.0313  0.8106  0.4530
 1953SOL     OW 7884   4.258   0.058   3.238 -0.4504  0.0864  0.4816
 1953SOL    HW2 7885   4.316   0.135   3.239 -0.2052 -0.0851  0.5734
 1953SOL    HW3 7886   4.257   0.031   3.146 -0.8785  0.4526  0.3871
 1953SOL    MW4 7887   4.266   0.065   3.226 -0.4292  0.1125  0.4768
 1954SOL     OW 7888   0.040   0.049   2.859  0.5208 -0.5423 -0.1001
 1954SOL    HW2 7889   0.060   0.139   2.886 -0.5405 -0.4413  0.3696
 1954SOL    HW3 7890   0.087   0.038   2.776  1.6179  0.0505  0.4362
 1954SOL    MW4 7891   0.049   0.060   2.851  0.5256 -0.4511  0.0477
 1955SOL     OW 7892   0.892   0.474   3.426 -0.1123  0.2038 -0.3759
 1955SOL    HW2 7893   0.813   0.508   3.383 -0.6048  0.2233  0.5406
 1955SOL    HW3 7894   0.923   0.547   3.481  0.1350 -0.0446 -0.2022
 1955SOL    MW4 7895   0.886   0.488   3.428 -0.1490  0.1729 -0.2146
 1956SOL     OW 7896   0.654   0.537   3.290  0.0706  0.5580 -0.4490
 1956SOL    HW2 7897   0.662   0.461   3.232  1.2055  0.2879  0.0605
 1956SOL    HW3 7898   0.563   0.535   3.319 -0.0703 -0.2405 -0.9387
 1956SOL    MW4 7899   0.643   0.526   3.286  0.2027  0.4172 -0.4530
 1957SOL     OW 7900   0.163   0.344   3.273 -0.2008 -1.1327  0.2230
 1957SOL    HW2 7901   0.221   0.414   3.303 -0.9354 -0.5355  0.2413
 1957SOL    HW3 7902   0.222   0.276   3.242  0.5237 -0.6828  0.5869
 1957SOL    MW4 7903   0.179   0.345   3.273 -0.2027 -0.9954  0.2623
 1958SOL     OW 7904   0.271   0.709   3.522 -0.0054  0.2548 -0.1906
 1958SOL    HW2 7905   0.309   0.699   3.609 -0.4153  1.0413  0.0973
 1958SOL    HW3 7906   0.258   0.804   3.513 -2.2657 -0.0481 -0.1039
 1958SOL    MW4 7907   0.274   0.720   3.532 -0.3576  0.3219 -0.0954
 1959SOL     OW 7908   0.143   1.092   3.854  0.1874  0.5467  0.1567
 1959SOL    HW2 7909   0.238   1.097   3.838  0.0290  1.7353 -0.4301
 1959SOL    HW3 7910   0.120   1.002   3.830  1.0461  0.4413 -0.3164
 1959SOL    MW4 7911   0.153   1.081   3.849  0.2801  0.6795  0.0000
 1960SOL     OW 7912   0.279   1.530   3.601  0.1332  0.0809  0.4563
 1960SOL    HW2 7913   0.334   1.588   3.654 -1.1158  0.9727  0.7914
 1960SOL    HW3 7914   0.201   1.582   3.582 -1.0750 -1.5616  0.9048
 1960SOL    MW4 7915   0.276   1.544   3.605 -0.1907 -0.0119  0.5484
 1961SOL     OW 7916   0.902   1.940   3.484 -0.5257  0.4510 -0.0741
 1961SOL    HW2 7917   0.980   1.891   3.509 -1.5519 -0.6158  1.0552
 1961SOL    HW3 7918   0.914   1.959   3.391  0.7455 -0.2886 -0.0589
 1961SOL    MW4 7919   0.914   1.936   3.475 -0.4888  0.2265  0.0954
 1962SOL     OW 7920   0.380   2.924   3.596  0.0012 -0.1652  0.0483
 1962SOL    HW2 7921   0.389   2.834   3.567  0.7318 -0.3606  0.9089
 1962SOL    HW3 7922   0.458   2.968   3.561  0.1375 -0.0913  0.4202
 1962SOL    MW4 7923   0.392   2.918   3.588  0.1162 -0.1907  0.2146
 1963SOL     OW 7924   0.617   2.955   2.992  0.7596 -0.2411  0.6125
 1963SOL    HW2 7925   0.568   2.887   3.038  1.4584 -0.9631  0.2683
 1963SOL    HW3 7926   0.558   2.983   2.922  0.1175  0.1354  1.2880
 1963SOL    MW4 7927   0.603   2.950   2.989  0.7689 -0.2861  0.6676
 1964SOL     OW 7928   0.576   2.645   3.774  0.1733  0.0693 -0.2071
 1964SOL    HW2 7929   0.504   2.602   3.819  1.0002 -1.0385  0.0682
 1964SOL    HW3 7930   0.556   2.635   3.681 -0.2019  0.0486 -0.1468
 1964SOL    MW4 7931   0.564   2.638   3.767  0.2325 -0.0715 -0.1907
 1965SOL     OW 7932   4.490   2.935   3.499  0.0267  0.3880 -0.7962
 1965SOL    HW2 7933   4.533   2.908   3.579 -0.4201 -0.5615 -0.8961
 1965SOL    HW3 7934   4.556   2.922   3.431 -0.4419 -1.1011 -0.9298
 1965SOL    MW4 7935   4.504   2.930   3.500 -0.1431  0.0715 -0.8106
 1966SOL     OW 7936   0.584   3.909   3.900  0.0653  0.5281  0.6690
 1966SOL    HW2 7937   0.556   3.837   3.845  0.3506  0.7941  0.1701
 1966SOL    HW3 7938   0.641   3.962   3.844  0.6549  0.6004  1.3145
 1966SOL    MW4 7939   0.588   3.907   3.886  0.1848  0.5960  0.6676
 1967SOL     OW 7940   1.144   3.892   3.843  0.7789 -0.1156  0.3551
 1967SOL    HW2 7941   1.052   3.883   3.867  0.5946  0.6421 -0.0793
 1967SOL    HW3 7942   1.150   3.850   3.757  0.8064  0.0612  0.2841
 1967SOL    MW4 7943   1.133   3.885   3.835  0.7629  0.0000  0.3099
 1968SOL     OW 7944   1.359   3.263   3.725  0.2409 -0.1850 -0.6898
 1968SOL    HW2 7945   1.385   3.204   3.796  0.1567 -0.8087 -1.1876
 1968SOL    HW3 7946   1.368   3.351   3.763 -1.8445 -0.6018  0.7417
 1968SOL    MW4 7947   1.364   3.267   3.739 -0.0477 -0.3099 -0.5722
 1969SOL     OW 7948   1.181   3.394   3.530  0.9004  0.5622 -0.4312
 1969SOL    HW2 7949   1.095   3.372   3.566  1.0647  0.5986 -0.0863
 1969SOL    HW3 7950   1.243   3.373   3.600  1.0382  2.2408 -0.0646
 1969SOL    MW4 7951   1.178   3.388   3.544  0.9537  0.7868 -0.3576
 1970SOL     OW 7952   1.281   3.896   3.130 -0.0994  0.7834 -0.0168
 1970SOL    HW2 7953   1.252   3.983   3.103  0.0836  0.2796 -1.9031
 1970SOL    HW3 7954   1.359   3.879   3.077  0.4028 -0.1415  0.9877
 1970SOL    MW4 7955   1.287   3.905   3.120  0.0000  0.6199 -0.1431
 1971SOL     OW 7956   0.758   3.785   3.033 -0.0671 -0.5064  0.0718
 1971SOL    HW2 7957   0.806   3.787   2.950  0.6179 -2.0841  0.4327
 1971SOL    HW3 7958   0.671   3.753   3.009 -0.4509  0.8310 -0.3335
 1971SOL    MW4 7959   0.752   3.781   3.019 -0.0298 -0.5484  0.0715
 1972SOL     OW 7960   0.844   3.432   3.851 -0.7021 -0.3479  0.1647
 1972SOL    HW2 7961   0.855   3.467   3.763 -0.1998 -1.1734 -0.0907
 1972SOL    HW3 7962   0.807   3.504   3.902 -0.9230  0.1211 -0.6959
 1972SOL    MW4 7963   0.840   3.446   3.846 -0.6676 -0.4053  0.0000
 1973SOL     OW 7964   0.717   4.027   2.577  0.2375 -0.2143 -0.0092
 1973SOL    HW2 7965   0.693   4.082   2.651  0.9106 -0.5369  0.4991
 1973SOL    HW3 7966   0.648   3.960   2.574  0.6929 -0.7184  0.8503
 1973SOL    MW4 7967   0.705   4.025   2.586  0.3874 -0.2861  0.1669
 1974SOL     OW 7968   0.893   3.933   2.142 -0.0942  0.5338  0.0617
 1974SOL    HW2 7969   0.953   3.886   2.084  0.4334  0.9482  0.2649
 1974SOL    HW3 7970   0.945   4.005   2.178 -0.6253  0.7216  0.4892
 1974SOL    MW4 7971   0.908   3.936   2.139 -0.1013  0.5960  0.1431
 1975SOL     OW 7972   0.844   3.696   3.299  0.7308  0.2296 -0.3009
 1975SOL    HW2 7973   0.932   3.668   3.274  0.6774 -0.0977 -0.1458
 1975SOL    HW3 7974   0.807   3.735   3.220  0.4542 -1.0549 -0.8267
 1975SOL    MW4 7975   0.851   3.698   3.285  0.6914  0.0000 -0.3576
 1976SOL     OW 7976   0.225   4.665   2.626 -0.1561  0.5977  0.2378
 1976SOL    HW2 7977   0.303   4.615   2.604 -0.4499  0.0373  0.5049
 1976SOL    HW3 7978   0.256   4.754   2.639  0.3411  0.5660 -0.4298
 1976SOL    MW4 7979   0.239   4.670   2.625 -0.1296  0.5245  0.1669
 1977SOL     OW 7980   0.943   4.632   2.493  0.1784 -0.1817  0.1281
 1977SOL    HW2 7981   0.934   4.643   2.398  0.8490 -1.1127 -0.0419
 1977SOL    HW3 7982   0.876   4.689   2.530  1.1224  1.5474 -0.8332
 1977SOL    MW4 7983   0.933   4.641   2.485  0.3934 -0.1431 -0.0477
 1978SOL     OW 7984   0.915   4.078   2.856  0.0698 -0.1801 -0.3165
 1978SOL    HW2 7985   0.892   4.080   2.949  2.1317 -0.6542  0.2183
 1978SOL    HW3 7986   1.010   4.066   2.855  0.2893  1.6113 -2.4303
 1978SOL    MW4 7987   0.924   4.077   2.868  0.3695  0.0000 -0.5484
 1979SOL     OW 7988   0.730   0.840   3.246 -0.2168  0.7109  0.5283
 1979SOL    HW2 7989   0.711   0.752   3.278  0.1095  0.8087  1.0449
 1979SOL    HW3 7990   0.773   0.826   3.161  0.8661  0.3402  1.1444
 1979SOL    MW4 7991   0.733   0.826   3.239 -0.0298  0.6735  0.6676
 1980SOL     OW 7992   1.664   0.465   3.100  0.4679 -0.4659 -0.3194
 1980SOL    HW2 7993   1.712   0.519   3.163  0.7155 -0.2061 -0.7264
 1980SOL    HW3 7994   1.586   0.436   3.147  0.8337 -0.5718  0.2352
 1980SOL    MW4 7995   1.660   0.468   3.115  0.5484 -0.4441 -0.2861
 1981SOL     OW 7996   1.419   0.880   3.272  0.4378  0.1993 -0.1523
 1981SOL    HW2 7997   1.354   0.830   3.321  0.0154  0.7812 -0.1346
 1981SOL    HW3 7998   1.376   0.964   3.254  1.0682  0.4587 -0.4250
 1981SOL    MW4 7999   1.405   0.885   3.276  0.4649  0.3099 -0.1907
 1982SOL     OW 8000   0.731   0.730   3.627 -0.5372 -0.6847  0.1495
 1982SOL    HW2 8001   0.809   0.759   3.579 -0.4092 -0.3589  0.5713
 1982SOL    HW3 8002   0.665   0.796   3.609 -0.4278 -0.4593  0.5807
 1982SOL    MW4 8003   0.733   0.742   3.618 -0.5007 -0.6080  0.2384
 1983SOL     OW 8004   0.749   1.028   4.114 -0.7493 -0.7521  0.3119
 1983SOL    HW2 8005   0.835   1.067   4.101 -0.0562 -2.3935  0.1504
 1983SOL    HW3 8006   0.698   1.056   4.038 -0.1877 -0.5169  0.0647
 1983SOL    MW4 8007   0.753   1.037   4.102 -0.5782 -0.9537  0.2861
 1984SOL     OW 8008   1.117   2.132   3.650  0.1198  0.8772 -0.3328
 1984SOL    HW2 8009   1.125   2.037   3.645  0.1286  0.8518 -0.2097
 1984SOL    HW3 8010   1.026   2.148   3.674  0.5231  0.8393  1.2487
 1984SOL    MW4 8011   1.106   2.122   3.652  0.1669  0.8821 -0.0954
 1985SOL     OW 8012   0.691   1.698   3.561 -0.2224  0.4661  0.4427
 1985SOL    HW2 8013   0.659   1.626   3.506 -0.8458  1.2512 -0.1979
 1985SOL    HW3 8014   0.766   1.661   3.608 -0.0141 -0.3666 -0.5396
 1985SOL    MW4 8015   0.697   1.683   3.560 -0.2742  0.4530  0.2384
 1986SOL     OW 8016   1.099   2.606   3.470  0.4157 -0.5336 -0.0289
 1986SOL    HW2 8017   1.132   2.623   3.382 -0.5012 -0.7280 -0.3991
 1986SOL    HW3 8018   1.019   2.658   3.477  0.2047 -0.9090  0.4832
 1986SOL    MW4 8019   1.093   2.615   3.460  0.2623 -0.5960 -0.0238
 1987SOL     OW 8020   0.801   2.599   3.929 -0.0213  0.7749  0.8200
 1987SOL    HW2 8021   0.872   2.617   3.866 -0.0973  0.0612  0.5339
 1987SOL    HW3 8022   0.721   2.625   3.883  0.0448  1.4421  1.0980
 1987SOL    MW4 8023   0.800   2.604   3.914 -0.0238  0.7629  0.7868
 1988SOL     OW 8024   0.646   2.594   2.576 -0.3857 -0.0677 -0.3221
 1988SOL    HW2 8025   0.722   2.616   2.522 -0.0249  0.6682  0.4988
 1988SOL    HW3 8026   0.672   2.619   2.665 -1.3982 -0.2973  0.0161
 1988SOL    MW4 8027   0.660   2.600   2.581 -0.4649 -0.0238 -0.1669
 1989SOL     OW 8028   0.415   2.869   2.672 -0.4543  0.5308  0.0277
 1989SOL    HW2 8029   0.500   2.902   2.642 -0.7372  0.0496 -1.3737
 1989SOL    HW3 8030   0.418   2.775   2.653 -1.3006  0.5284 -0.0580
 1989SOL    MW4 8031   0.427   2.861   2.665 -0.6050  0.4768 -0.1669
 1990SOL     OW 8032   0.669   3.811   2.064 -0.3617  0.9428  2.0982
 1990SOL    HW2 8033   0.635   3.849   2.145 -1.5115  2.7067  0.8057
 1990SOL    HW3 8034   0.755   3.851   2.053 -0.1704  0.6044  2.5144
 1990SOL    MW4 8035   0.676   3.822   2.073 -0.4947  1.1206  1.9789
 1991SOL     OW 8036   1.318   3.650   2.447 -0.1081  0.1761  0.0831
 1991SOL    HW2 8037   1.238   3.660   2.395 -1.0452 -0.8968  1.3154
 1991SOL    HW3 8038   1.298   3.696   2.529  0.6490  0.1627  0.2410
 1991SOL    MW4 8039   1.305   3.658   2.451 -0.1311  0.0238  0.2623
 1992SOL     OW 8040   1.168   3.718   3.619  0.6392 -0.0254 -0.8125
 1992SOL    HW2 8041   1.187   3.651   3.685  1.0553  0.6804 -0.2102
 1992SOL    HW3 8042   1.249   3.726   3.568  0.4335 -0.2730 -1.1502
 1992SOL    MW4 8043   1.181   3.710   3.621  0.6676  0.0238 -0.7629
 1993SOL     OW 8044   2.126   4.185   2.276 -0.7122 -0.0244 -0.2519
 1993SOL    HW2 8045   2.136   4.161   2.368 -1.8082  0.0469 -0.1308
 1993SOL    HW3 8046   2.122   4.101   2.229 -0.7280 -0.1456 -0.1240
 1993SOL    MW4 8047   2.127   4.170   2.282 -0.8583  0.0000 -0.2384
 1994SOL     OW 8048   1.672   4.468   2.353 -0.1109  1.0763 -0.1009
 1994SOL    HW2 8049   1.588   4.430   2.327  0.0032  1.4761 -1.0102
 1994SOL    HW3 8050   1.729   4.393   2.368 -0.2737  0.8216 -0.5738
 1994SOL    MW4 8051   1.668   4.453   2.352 -0.1192  1.0967 -0.3099
 1995SOL     OW 8052   1.605   0.051   2.748 -0.1930 -0.2180 -0.0769
 1995SOL    HW2 8053   1.615   0.049   2.653 -0.7131 -0.5712 -0.1510
 1995SOL    HW3 8054   1.682   0.099   2.779  0.3403 -0.7179 -0.6353
 1995SOL    MW4 8055   1.617   0.057   2.740 -0.1907 -0.3308 -0.1431
 1996SOL     OW 8056   0.675   4.079   1.995  0.0344  0.7433  0.2216
 1996SOL    HW2 8057   0.726   4.108   2.071  0.7266 -0.1742  0.0925
 1996SOL    HW3 8058   0.603   4.028   2.033  0.0780  0.7916  0.2713
 1996SOL    MW4 8059   0.672   4.076   2.010  0.1371  0.6676  0.1907
 1997SOL     OW 8060   0.577   4.475   2.261 -0.8623 -0.0056 -0.1145
 1997SOL    HW2 8061   0.649   4.433   2.307 -1.2015 -0.1965  0.1840
 1997SOL    HW3 8062   0.531   4.404   2.217 -0.2427  0.2837 -1.2134
 1997SOL    MW4 8063   0.580   4.460   2.261 -0.8285  0.0477 -0.2146
 1998SOL     OW 8064   1.086   4.422   3.619  0.0500 -0.6736 -0.2277
 1998SOL    HW2 8065   1.092   4.499   3.675  0.3020 -0.8167 -0.0069
 1998SOL    HW3 8066   1.087   4.458   3.530  0.6481 -0.4600 -0.1198
 1998SOL    MW4 8067   1.087   4.437   3.615  0.1550 -0.6199 -0.1669
 1999SOL     OW 8068   1.603   4.622   3.342  0.0821 -0.0729 -0.8737
 1999SOL    HW2 8069   1.640   4.610   3.255  1.3906 -1.3563 -0.1706
 1999SOL    HW3 8070   1.518   4.664   3.327 -0.0328 -0.9946 -2.8025
 1999SOL    MW4 8071   1.596   4.626   3.329  0.2384 -0.3338 -1.0252
 2000SOL     OW 8072   2.024   4.404   2.506 -0.1490 -0.2124 -0.6144
 2000SOL    HW2 8073   1.987   4.492   2.517  0.6122 -0.0083  0.6390
 2000SOL    HW3 8074   2.015   4.363   2.591  0.8550 -0.7882 -0.8014
 2000SOL    MW4 8075   2.018   4.410   2.518  0.0954 -0.2861 -0.4768
 2001SOL     OW 8076   0.865   3.477   3.575  0.0487 -0.5676  0.2559
 2001SOL    HW2 8077   0.912   3.548   3.532  0.8046 -2.2273 -1.6594
 2001SOL    HW3 8078   0.780   3.473   3.531 -0.4040 -0.1066  1.0916
 2001SOL    MW4 8079   0.860   3.486   3.564  0.0894 -0.7153  0.0954
 2002SOL     OW 8080   1.917   4.330   2.763  0.3773 -0.2816 -0.5957
 2002SOL    HW2 8081   1.909   4.425   2.772  0.0578 -0.3498 -0.5767
 2002SOL    HW3 8082   1.967   4.302   2.840 -0.1814 -0.2034 -0.2048
 2002SOL    MW4 8083   1.923   4.339   2.774  0.2742 -0.3338 -0.5484
 2003SOL     OW 8084   1.790   1.169   3.324  0.3389  0.4876  0.1941
 2003SOL    HW2 8085   1.733   1.095   3.344  0.3232  0.5281  0.2877
 2003SOL    HW3 8086   1.879   1.134   3.330  0.3387  0.5890  0.6331
 2003SOL    MW4 8087   1.794   1.155   3.328  0.3219  0.5126  0.2623
 2004SOL     OW 8088   1.662   0.929   3.364 -0.1249  0.0926  0.6270
 2004SOL    HW2 8089   1.690   0.847   3.405 -0.3919  0.0403  0.6908
 2004SOL    HW3 8090   1.571   0.913   3.339  0.2137 -0.1027 -0.5457
 2004SOL    MW4 8091   1.654   0.916   3.366 -0.1311  0.0596  0.5007
 2005SOL     OW 8092   0.939   0.863   3.494 -0.2640 -0.4251  0.5122
 2005SOL    HW2 8093   1.010   0.915   3.532 -0.4131  0.3794 -0.2887
 2005SOL    HW3 8094   0.953   0.869   3.399 -0.8686 -1.0444  0.4141
 2005SOL    MW4 8095   0.950   0.871   3.486 -0.3636 -0.4053  0.4053
 2006SOL     OW 8096   1.276   1.398   3.500 -0.4315  0.4340 -0.1391
 2006SOL    HW2 8097   1.223   1.401   3.579 -0.3066  0.4157 -0.0495
 2006SOL    HW3 8098   1.312   1.309   3.499 -0.7399  0.3074 -0.4249
 2006SOL    MW4 8099   1.274   1.386   3.510 -0.4649  0.4172 -0.1669
 2007SOL     OW 8100   0.894   0.785   4.048  0.2063 -0.2287 -0.0652
 2007SOL    HW2 8101   0.828   0.842   4.088 -0.7421 -1.2134 -0.2282
 2007SOL    HW3 8102   0.924   0.833   3.971 -0.0630  0.4107  0.2343
 2007SOL    MW4 8103   0.889   0.798   4.043  0.0477 -0.2682 -0.0477
 2008SOL     OW 8104   1.108   1.617   3.400  0.1490  0.0393 -0.3755
 2008SOL    HW2 8105   1.018   1.590   3.378  0.7583 -0.1675 -2.5831
 2008SOL    HW3 8106   1.155   1.535   3.412  0.0922  0.1474  0.5814
 2008SOL    MW4 8107   1.102   1.603   3.398  0.2146  0.0119 -0.5245
 2009SOL     OW 8108   1.376   2.760   3.447 -0.2652  0.5065 -0.4589
 2009SOL    HW2 8109   1.413   2.729   3.530 -0.3810  0.3725 -0.4581
 2009SOL    HW3 8110   1.286   2.728   3.447 -0.1366  0.1576 -0.8447
 2009SOL    MW4 8111   1.369   2.752   3.458 -0.2623  0.4292 -0.5007
 2010SOL     OW 8112   1.228   2.115   3.945  0.2196  0.2327  0.7812
 2010SOL    HW2 8113   1.174   2.193   3.943 -0.1643 -0.0297  0.8968
 2010SOL    HW3 8114   1.288   2.126   3.871 -0.6903  0.0358  0.0080
 2010SOL    MW4 8115   1.229   2.127   3.935  0.0477  0.1907  0.6914
 2011SOL     OW 8116   1.728   2.281   3.456  0.0229 -0.0258  0.2507
 2011SOL    HW2 8117   1.655   2.307   3.400  0.0230 -0.9966 -0.2391
 2011SOL    HW3 8118   1.706   2.318   3.541 -0.1194  1.2699 -0.3560
 2011SOL    MW4 8119   1.715   2.290   3.460  0.0000  0.0238  0.1192
 2012SOL     OW 8120   1.390   2.123   3.726 -0.1530  0.2592  1.3254
 2012SOL    HW2 8121   1.460   2.097   3.668 -0.7159  1.1301  0.2333
 2012SOL    HW3 8122   1.324   2.163   3.669 -1.3738 -0.2497  2.3454
 2012SOL    MW4 8123   1.390   2.125   3.711 -0.3695  0.2861  1.3113
 2013SOL     OW 8124   1.969   3.755   2.527  0.8342  0.4483  0.1778
 2013SOL    HW2 8125   1.917   3.737   2.449  0.7611  1.3806  0.0112
 2013SOL    HW3 8126   1.905   3.775   2.595  0.9254  0.2193  0.3286
 2013SOL    MW4 8127   1.954   3.756   2.525  0.8345  0.5484  0.1669
 2014SOL     OW 8128   1.441   3.477   2.860  0.3055  0.0544  0.0035
 2014SOL    HW2 8129   1.389   3.465   2.780  1.6427  0.0511 -0.8670
 2014SOL    HW3 8130   1.458   3.389   2.891  0.7168  0.0360 -0.3255
 2014SOL    MW4 8131   1.436   3.464   2.854  0.5364  0.0477 -0.1669
 2015SOL     OW 8132   1.296   3.410   2.623 -0.0661  0.5783 -0.1194
 2015SOL    HW2 8133   1.284   3.316   2.614 -0.5079  0.5924  0.1188
 2015SOL    HW3 8134   1.369   3.432   2.566  1.4686 -0.2615  1.5552
 2015SOL    MW4 8135   1.304   3.401   2.614  0.0834  0.4530  0.1192
 2016SOL     OW 8136   2.000   3.075   2.487  0.8338 -0.1502 -0.2603
 2016SOL    HW2 8137   1.906   3.090   2.479  0.7222 -0.5225  0.1636
 2016SOL    HW3 8138   2.035   3.156   2.523  0.5073 -0.3169  0.4788
 2016SOL    MW4 8139   1.992   3.087   2.491  0.7749 -0.2146 -0.1192
 2017SOL     OW 8140   2.180   3.460   3.014  0.2091 -0.1280  1.0846
 2017SOL    HW2 8141   2.185   3.388   2.950 -0.3890  0.1383  0.6950
 2017SOL    HW3 8142   2.163   3.537   2.961 -0.1517  0.1236  1.5670
 2017SOL    MW4 8143   2.178   3.460   2.998  0.0715 -0.0477  1.0967
 2018SOL     OW 8144   1.799   3.180   2.895 -0.4089 -0.2772  0.0086
 2018SOL    HW2 8145   1.818   3.271   2.871  2.0794 -1.1484 -1.2173
 2018SOL    HW3 8146   1.775   3.138   2.812 -1.7650 -0.6676  0.5851
 2018SOL    MW4 8147   1.799   3.187   2.881 -0.2503 -0.4530 -0.0954
 2019SOL     OW 8148   2.277   4.024   2.530  0.7526 -0.0996  0.0963
 2019SOL    HW2 8149   2.185   4.026   2.557  0.4243 -0.6052 -0.8690
 2019SOL    HW3 8150   2.280   3.957   2.462  1.6382  0.4896 -0.4119
 2019SOL    MW4 8151   2.265   4.015   2.525  0.8106 -0.0954 -0.0954
 2020SOL     OW 8152   2.440   4.279   2.267 -0.2465  1.2104 -0.1684
 2020SOL    HW2 8153   2.371   4.323   2.317  2.2543  1.7368  2.8358
 2020SOL    HW3 8154   2.413   4.187   2.267 -0.9841  1.3859  0.9922
 2020SOL    MW4 8155   2.427   4.272   2.274  0.0000  1.2875  0.4053
 2021SOL     OW 8156   2.021   4.032   2.614  0.3164  0.6183  0.1560
 2021SOL    HW2 8157   1.960   3.974   2.568  0.1130  1.2980 -0.4356
 2021SOL    HW3 8158   2.005   4.014   2.707  0.7544 -0.8122 -0.0118
 2021SOL    MW4 8159   2.011   4.022   2.621  0.3338  0.5245  0.0715
 2022SOL     OW 8160   1.662   3.871   3.822 -0.0834 -0.7019  0.1140
 2022SOL    HW2 8161   1.586   3.917   3.858  0.2928  0.4789 -0.6327
 2022SOL    HW3 8162   1.735   3.899   3.876  0.1476 -0.4217 -0.3336
 2022SOL    MW4 8163   1.661   3.880   3.834 -0.0119 -0.5007 -0.0238
 2023SOL     OW 8164   2.478   3.684   2.727  0.2967 -0.1346 -0.6790
 2023SOL    HW2 8165   2.481   3.642   2.813 -0.6144 -0.5004 -0.8021
 2023SOL    HW3 8166   2.416   3.756   2.737  0.7881  0.2908 -0.7771
 2023SOL    MW4 8167   2.470   3.688   2.740  0.2146 -0.1431 -0.7153
 2024SOL     OW 8168   2.678   3.861   2.976 -0.1992 -0.4270 -0.0831
 2024SOL    HW2 8169   2.662   3.833   3.066  0.7392  0.7083  0.4585
 2024SOL    HW3 8170   2.627   3.800   2.923 -1.3847 -0.6203  1.2553
 2024SOL    MW4 8171   2.669   3.849   2.981 -0.1907 -0.3099  0.1669
 2025SOL     OW 8172   2.076   0.852   3.295  0.4414  0.1753 -0.0833
 2025SOL    HW2 8173   2.010   0.826   3.231  0.6524  0.5346 -0.4548
 2025SOL    HW3 8174   2.040   0.823   3.379  0.4059 -0.7304 -0.4382
 2025SOL    MW4 8175   2.062   0.845   3.298  0.4530  0.1073 -0.1907
 2026SOL     OW 8176   3.066   0.751   4.448  0.3155 -0.6667  0.0638
 2026SOL    HW2 8177   3.044   0.660   4.470  1.3854 -0.5021  1.7852
 2026SOL    HW3 8178   2.982   0.792   4.429 -0.3416 -1.4896  1.2506
 2026SOL    MW4 8179   3.052   0.744   4.449  0.3576 -0.7510  0.4292
 2027SOL     OW 8180   1.770   1.280   3.570  0.1607  0.3568  0.3947
 2027SOL    HW2 8181   1.776   1.193   3.609 -0.6966  0.1953  0.1513
 2027SOL    HW3 8182   1.782   1.265   3.476 -0.1156  0.4660  0.3522
 2027SOL    MW4 8183   1.772   1.266   3.562  0.0000  0.3576  0.3576
 2028SOL     OW 8184   1.391   1.163   3.552 -0.8958 -0.1792 -0.2506
 2028SOL    HW2 8185   1.448   1.122   3.617  0.4431 -0.2293 -1.4650
 2028SOL    HW3 8186   1.395   1.105   3.476 -2.4215 -0.1155 -0.3912
 2028SOL    MW4 8187   1.399   1.150   3.551 -0.9060 -0.1788 -0.4530
 2029SOL     OW 8188   1.495   1.347   3.229  0.0810  0.3265 -0.6766
 2029SOL    HW2 8189   1.439   1.408   3.181 -0.7384 -0.3556 -0.6562
 2029SOL    HW3 8190   1.523   1.395   3.307 -1.4276  0.2669 -0.1207
 2029SOL    MW4 8191   1.491   1.361   3.233 -0.2265  0.2384 -0.6199
 2030SOL     OW 8192   1.812   1.678   3.258 -0.0784 -0.3720 -0.0148
 2030SOL    HW2 8193   1.773   1.592   3.239 -0.3684 -0.1068 -0.6189
 2030SOL    HW3 8194   1.782   1.700   3.346 -0.4567 -0.6230 -0.1040
 2030SOL    MW4 8195   1.803   1.670   3.267 -0.1550 -0.3695 -0.0954
 2031SOL     OW 8196   1.778   1.848   3.509 -0.2405 -0.0808  0.0811
 2031SOL    HW2 8197   1.831   1.919   3.473  0.0788 -1.0655 -1.3756
 2031SOL    HW3 8198   1.812   1.835   3.598 -1.0069  2.2824  0.7005
 2031SOL    MW4 8199   1.790   1.856   3.516 -0.2980  0.0954 -0.0238
 2032SOL     OW 8200   2.008   1.760   3.722  0.1093 -0.2949  0.2142
 2032SOL    HW2 8201   1.955   1.693   3.765  0.8762 -0.9663  0.0888
 2032SOL    HW3 8202   2.078   1.712   3.678 -0.3160  0.4558 -1.2662
 2032SOL    MW4 8203   2.010   1.745   3.722  0.1431 -0.2861  0.0000
 2033SOL     OW 8204   1.869   1.464   3.808  1.3647 -0.3802 -0.1564
 2033SOL    HW2 8205   1.827   1.510   3.881  1.7867 -0.5795  0.1961
 2033SOL    HW3 8206   1.808   1.475   3.735  1.6670  1.0702 -0.1904
 2033SOL    MW4 8207   1.855   1.471   3.808  1.4544 -0.2027 -0.1192
 2034SOL     OW 8208   1.748   1.572   4.045  0.0376 -0.5156  0.7584
 2034SOL    HW2 8209   1.750   1.515   4.122  0.6421 -1.3885  0.0866
 2034SOL    HW3 8210   1.745   1.661   4.081 -0.1183 -0.9359  1.7575
 2034SOL    MW4 8211   1.748   1.576   4.060  0.0954 -0.6914  0.7629
 2035SOL     OW 8212   1.665   1.808   4.176  0.0303 -0.3460  0.2561
 2035SOL    HW2 8213   1.743   1.804   4.232  0.1682  2.2725  0.2441
 2035SOL    HW3 8214   1.678   1.888   4.124 -1.6297 -1.0812 -1.3141
 2035SOL    MW4 8215   1.677   1.818   4.177 -0.1788 -0.1073  0.0477
 2036SOL     OW 8216   1.496   2.594   3.041 -0.6014  0.1533 -0.6781
 2036SOL    HW2 8217   1.542   2.672   3.010 -0.2929  0.3180  0.2271
 2036SOL    HW3 8218   1.500   2.600   3.136 -2.8495  0.3994 -0.5821
 2036SOL    MW4 8219   1.502   2.605   3.049 -0.8464  0.1907 -0.5245
 2037SOL     OW 8220   1.151   2.652   2.398 -0.3503  0.4221 -0.2305
 2037SOL    HW2 8221   1.198   2.698   2.328  1.0053 -1.0641 -0.3233
 2037SOL    HW3 8222   1.159   2.709   2.474  0.3697  0.8398 -0.6149
 2037SOL    MW4 8223   1.158   2.666   2.399 -0.0834  0.2861 -0.2861
 2038SOL     OW 8224   1.291   2.432   2.903 -0.6500  0.5694 -0.2762
 2038SOL    HW2 8225   1.335   2.473   2.978  1.2176 -1.6006 -0.2017
 2038SOL    HW3 8226   1.362   2.408   2.844 -1.9866  0.2588 -1.7402
 2038SOL    MW4 8227   1.306   2.434   2.905 -0.5960  0.2384 -0.4530
 2039SOL     OW 8228   1.281   3.155   2.476  0.0412  0.5601 -0.6891
 2039SOL    HW2 8229   1.349   3.091   2.453 -0.3594  0.5027 -1.7408
 2039SOL    HW3 8230   1.257   3.134   2.566  0.0699 -0.6705 -0.9731
 2039SOL    MW4 8231   1.287   3.144   2.485 -0.0119  0.3815 -0.8821
 2040SOL     OW 8232   1.505   3.224   2.906 -0.2148  0.1811 -0.3304
 2040SOL    HW2 8233   1.475   3.140   2.938  1.0807  0.6169  1.9539
 2040SOL    HW3 8234   1.601   3.219   2.910 -0.1330  2.0548  0.6334
 2040SOL    MW4 8235   1.514   3.212   2.911 -0.0358  0.5007  0.1192
 2041SOL     OW 8236   2.129   3.054   3.158  0.9406 -0.0624  0.6156
 2041SOL    HW2 8237   2.036   3.076   3.156  0.9592  0.0605  0.3145
 2041SOL    HW3 8238   2.174   3.137   3.142  1.0721 -0.3174 -0.2678
 2041SOL    MW4 8239   2.122   3.068   3.155  0.9537 -0.0715  0.4768
 2042SOL     OW 8240   2.239   3.745   2.452  0.4139  0.5622  0.5300
 2042SOL    HW2 8241   2.280   3.669   2.492  0.0462  0.4223  0.6198
 2042SOL    HW3 8242   2.158   3.758   2.501 -0.2745  0.0866 -0.5179
 2042SOL    MW4 8243   2.234   3.737   2.464  0.2861  0.4768  0.3815
 2043SOL     OW 8244   2.561   3.477   2.351 -0.0108 -0.1758 -0.2793
 2043SOL    HW2 8245   2.592   3.389   2.371  0.3221 -0.0479 -0.2018
 2043SOL    HW3 8246   2.607   3.533   2.412  0.7321  0.1809 -1.1946
 2043SOL    MW4 8247   2.571   3.472   2.361  0.1431 -0.0954 -0.4053
 2044SOL     OW 8248   2.445   2.931   3.257  0.1930 -0.3848 -0.1810
 2044SOL    HW2 8249   2.510   2.936   3.327 -0.4024 -1.5218  0.4696
 2044SOL    HW3 8250   2.375   2.990   3.285  1.0652  1.0189 -0.9779
 2044SOL    MW4 8251   2.444   2.939   3.270  0.2146 -0.3576 -0.2146
 2045SOL     OW 8252   2.290   3.875   2.759  0.3130 -0.3940 -0.1801
 2045SOL    HW2 8253   2.301   3.935   2.833 -1.7649 -1.0078  0.6223
 2045SOL    HW3 8254   2.286   3.931   2.682  3.8464  0.1650  0.0194
 2045SOL    MW4 8255   2.291   3.890   2.759  0.4768 -0.4053 -0.0477
 2046SOL     OW 8256   2.435   3.629   3.905 -0.3996 -0.0376  0.6568
 2046SOL    HW2 8257   2.422   3.704   3.847 -1.1743  0.2514  1.2392
 2046SOL    HW3 8258   2.430   3.665   3.993  0.4913 -0.5940  0.9047
 2046SOL    MW4 8259   2.433   3.643   3.909 -0.3815 -0.0715  0.7868
 2047SOL     OW 8260   2.187   4.275   3.321  0.4412 -0.2564  0.0765
 2047SOL    HW2 8261   2.094   4.275   3.343  0.1477 -0.9638 -1.1703
 2047SOL    HW3 8262   2.201   4.192   3.276  1.5701  0.1775 -0.3469
 2047SOL    MW4 8263   2.176   4.264   3.318  0.5484 -0.2861 -0.1431
 2048SOL     OW 8264   2.360   4.317   2.719 -0.6898  0.8390 -0.0413
 2048SOL    HW2 8265   2.317   4.233   2.735 -1.0705  1.2697  1.3655
 2048SOL    HW3 8266   2.454   4.296   2.722 -0.7821  0.3155 -0.1446
 2048SOL    MW4 8267   2.367   4.303   2.722 -0.7629  0.8106  0.1431
 2049SOL     OW 8268   2.270   4.467   3.124  0.2374  0.2626  0.1583
 2049SOL    HW2 8269   2.284   4.541   3.183  0.6022 -0.4123  0.8897
 2049SOL    HW3 8270   2.245   4.395   3.182  0.8656 -0.5106 -0.5011
 2049SOL    MW4 8271   2.268   4.467   3.140  0.3576  0.0477  0.1431
 2050SOL     OW 8272   2.230   0.784   4.543 -0.6577 -0.3403 -0.4071
 2050SOL    HW2 8273   2.260   0.869   4.514 -2.0606 -0.1305 -1.1756
 2050SOL    HW3 8274   2.292   0.722   4.505  1.1982  0.4624  1.3878
 2050SOL    MW4 8275   2.242   0.787   4.534 -0.5960 -0.2146 -0.2861
 2051SOL     OW 8276   2.064   0.818   3.560 -0.0846  0.0649  0.2744
 2051SOL    HW2 8277   2.051   0.784   3.649 -0.3504  0.0180  0.2526
 2051SOL    HW3 8278   2.155   0.797   3.539  0.0421  0.2781  0.6167
 2051SOL    MW4 8279   2.074   0.811   3.569 -0.1192  0.0834  0.3099
 2052SOL     OW 8280   1.866   1.014   3.617 -0.3907 -0.1168  0.1053
 2052SOL    HW2 8281   1.898   1.015   3.707 -0.1666  0.6840  0.0015
 2052SOL    HW3 8282   1.943   0.995   3.564 -0.4331 -0.1242  0.0454
 2052SOL    MW4 8283   1.880   1.012   3.622 -0.3695 -0.0119  0.0715
 2053SOL     OW 8284   2.205   1.105   3.717 -0.4740 -0.5780  0.2390
 2053SOL    HW2 8285   2.297   1.127   3.734 -0.5558 -0.7067  0.8248
 2053SOL    HW3 8286   2.163   1.188   3.694 -0.2462 -0.4990  0.1271
 2053SOL    MW4 8287   2.212   1.119   3.717 -0.4530 -0.5841  0.2861
 2054SOL     OW 8288   2.520   1.499   3.615  0.3302 -0.2559 -0.3931
 2054SOL    HW2 8289   2.491   1.562   3.682  0.8930 -1.1196  0.6418
 2054SOL    HW3 8290   2.491   1.414   3.649 -0.1958 -0.5885 -1.6980
 2054SOL    MW4 8291   2.512   1.496   3.629  0.3338 -0.4172 -0.4292
 2055SOL     OW 8292   2.439   1.780   3.499 -0.2347  0.0603 -1.1028
 2055SOL    HW2 8293   2.432   1.685   3.504  1.9174 -0.0162  0.1485
 2055SOL    HW3 8294   2.358   1.807   3.455 -0.9249 -2.3274 -1.2799
 2055SOL    MW4 8295   2.427   1.771   3.494 -0.0477 -0.2623 -0.9537
 2056SOL     OW 8296   2.282   1.881   3.777  0.4247  0.0391 -0.2384
 2056SOL    HW2 8297   2.187   1.888   3.788  0.4834  0.5868 -0.2663
 2056SOL    HW3 8298   2.294   1.839   3.692  0.2291  1.1692 -0.8407
 2056SOL    MW4 8299   2.271   1.876   3.768  0.3815  0.2503 -0.3099
 2057SOL     OW 8300   2.289   2.547   3.659 -0.4105  0.7944 -0.3926
 2057SOL    HW2 8301   2.301   2.512   3.747 -0.8938  0.4824 -0.4359
 2057SOL    HW3 8302   2.262   2.472   3.607 -1.6281  1.3549 -0.4762
 2057SOL    MW4 8303   2.287   2.533   3.664 -0.6437  0.8345 -0.4053
 2058SOL     OW 8304   2.374   2.128   3.353  0.1103  0.1252  0.5875
 2058SOL    HW2 8305   2.426   2.186   3.297  0.5508 -0.0174  0.8289
 2058SOL    HW3 8306   2.417   2.134   3.438 -0.8468  0.7588  1.0177
 2058SOL    MW4 8307   2.387   2.137   3.357  0.0477  0.2146  0.6676
 2059SOL     OW 8308   2.194   2.338   3.501 -0.5019  0.5299  0.0843
 2059SOL    HW2 8309   2.123   2.371   3.445 -0.5835  0.5664  0.2037
 2059SOL    HW3 8310   2.238   2.273   3.447  0.6922  2.0014 -0.7295
 2059SOL    MW4 8311   2.190   2.334   3.486 -0.3338  0.7391  0.0000
 2060SOL     OW 8312   1.646   2.399   3.698  0.2190  0.1090  0.2425
 2060SOL    HW2 8313   1.696   2.479   3.712 -0.3453  0.3219  0.9030
 2060SOL    HW3 8314   1.674   2.341   3.769 -1.4478  0.7010  1.3666
 2060SOL    MW4 8315   1.656   2.402   3.709 -0.0715  0.2146  0.4530
 2061SOL     OW 8316   1.776   2.652   3.695 -0.0139  0.5625 -0.2119
 2061SOL    HW2 8317   1.791   2.633   3.602 -0.4849 -1.0641  0.0727
 2061SOL    HW3 8318   1.863   2.671   3.730  0.2553  0.3924 -0.7957
 2061SOL    MW4 8319   1.790   2.652   3.687 -0.0477  0.3576 -0.2861
 2062SOL     OW 8320   3.410   2.482   3.942  0.2764  0.1913 -0.4965
 2062SOL    HW2 8321   3.358   2.506   4.019  1.0741 -0.1689  0.1474
 2062SOL    HW3 8322   3.399   2.387   3.935  0.0922  0.2682 -0.9463
 2062SOL    MW4 8323   3.402   2.473   3.952  0.3576  0.1431 -0.4292
 2063SOL     OW 8324   2.777   2.628   2.905 -0.4233 -0.1214 -0.2760
 2063SOL    HW2 8325   2.690   2.669   2.905 -1.3398 -2.1234 -0.0790
 2063SOL    HW3 8326   2.791   2.603   2.996  0.7602  1.0567 -0.1470
 2063SOL    MW4 8327   2.768   2.630   2.917 -0.3815 -0.2146 -0.2384
 2064SOL     OW 8328   2.204   2.316   3.037 -0.2647 -0.9866  0.5977
 2064SOL    HW2 8329   2.221   2.327   2.943 -2.0142 -0.7613  0.3109
 2064SOL    HW3 8330   2.266   2.376   3.079 -0.0050 -0.4369 -0.4545
 2064SOL    MW4 8331   2.215   2.326   3.030 -0.4768 -0.8821  0.4053
 2065SOL     OW 8332   3.112   3.020   3.364  0.8595  0.4540  0.2363
 2065SOL    HW2 8333   3.034   2.966   3.348  2.0672 -1.5446  0.9615
 2065SOL    HW3 8334   3.160   3.017   3.282  1.3285 -0.2978  0.5353
 2065SOL    MW4 8335   3.108   3.012   3.351  1.0490  0.0715  0.3576
 2066SOL     OW 8336   3.414   2.873   3.481  0.6816  0.1874 -0.5067
 2066SOL    HW2 8337   3.428   2.875   3.575  2.7114  0.0079 -0.7863
 2066SOL    HW3 8338   3.334   2.923   3.466  0.5111  0.4621  1.3022
 2066SOL    MW4 8339   3.406   2.880   3.491  0.9060  0.1907 -0.3099
 2067SOL     OW 8340   3.148   3.276   2.941 -0.2632  0.2013 -0.6712
 2067SOL    HW2 8341   3.094   3.240   2.871 -1.3168  1.0443 -0.3313
 2067SOL    HW3 8342   3.088   3.285   3.015  0.6450  0.1202  0.0519
 2067SOL    MW4 8343   3.133   3.273   2.941 -0.2623  0.2861 -0.5245
 2068SOL     OW 8344   2.110   3.108   3.906  0.0205 -0.0400  0.1225
 2068SOL    HW2 8345   2.043   3.071   3.848 -0.7499  0.2563  0.8113
 2068SOL    HW3 8346   2.175   3.147   3.847 -0.3438 -0.4848 -0.5901
 2068SOL    MW4 8347   2.110   3.109   3.891 -0.1192 -0.0715  0.1192
 2069SOL     OW 8348   2.485   3.769   3.494 -0.3066 -0.4397 -1.2685
 2069SOL    HW2 8349   2.447   3.685   3.521  0.0688 -0.4672 -0.8790
 2069SOL    HW3 8350   2.471   3.827   3.569  0.6479 -0.5167 -1.0258
 2069SOL    MW4 8351   2.478   3.765   3.508 -0.1431 -0.4768 -1.1683
 2070SOL     OW 8352   2.228   3.708   3.129 -0.0103 -0.6524 -0.4931
 2070SOL    HW2 8353   2.140   3.734   3.155  0.4380 -0.7191  1.0487
 2070SOL    HW3 8354   2.223   3.613   3.117 -0.5578 -0.4425 -1.9226
 2070SOL    MW4 8355   2.216   3.699   3.131 -0.0238 -0.6437 -0.5007
 2071SOL     OW 8356   3.086   3.493   3.395 -0.0789 -0.1603  0.2595
 2071SOL    HW2 8357   3.157   3.429   3.400 -0.3851 -0.4722  0.5297
 2071SOL    HW3 8358   3.071   3.506   3.302 -0.5251 -1.0816  0.2046
 2071SOL    MW4 8359   3.093   3.486   3.384 -0.1907 -0.3338  0.2861
 2072SOL     OW 8360   2.110   3.791   3.423 -0.9301  0.3339 -0.2364
 2072SOL    HW2 8361   2.192   3.818   3.381 -1.1375 -0.3707 -1.0798
 2072SOL    HW3 8362   2.130   3.789   3.516 -0.2164  0.9508 -0.3753
 2072SOL    MW4 8363   2.124   3.794   3.430 -0.8583  0.3099 -0.3338
 2073SOL     OW 8364   1.895   3.974   3.447 -0.4650  0.4543 -0.0801
 2073SOL    HW2 8365   1.968   3.913   3.437  0.7286  1.5980  1.9840
 2073SOL    HW3 8366   1.910   4.040   3.379  0.0051  0.2707 -0.1343
 2073SOL    MW4 8367   1.906   3.974   3.437 -0.2503  0.5722  0.1907
 2074SOL     OW 8368   3.450   0.548   3.233  0.5705  0.0313  0.3074
 2074SOL    HW2 8369   3.417   0.474   3.183  1.4152  0.5818 -1.1161
 2074SOL    HW3 8370   3.372   0.593   3.264  0.0175  0.2170 -1.3521
 2074SOL    MW4 8371   3.435   0.544   3.231  0.6199  0.1311 -0.0954
 2075SOL     OW 8372   2.944   0.910   3.238 -0.2256  0.1693  0.0924
 2075SOL    HW2 8373   3.023   0.896   3.187 -0.5603  0.2572 -0.4254
 2075SOL    HW3 8374   2.970   0.974   3.305  0.0023  0.4950 -0.2956
 2075SOL    MW4 8375   2.958   0.917   3.240 -0.2384  0.2205 -0.0238
 2076SOL     OW 8376   2.551   0.694   3.633 -0.2259  0.0245 -0.3502
 2076SOL    HW2 8377   2.501   0.661   3.707  0.1652 -1.3527 -0.7170
 2076SOL    HW3 8378   2.582   0.780   3.662  0.0784 -0.5847  1.1438
 2076SOL    MW4 8379   2.548   0.701   3.646 -0.1192 -0.2384 -0.2146
 2077SOL     OW 8380   2.479   1.262   3.728  0.2661  0.6355  0.4051
 2077SOL    HW2 8381   2.548   1.221   3.781 -0.1429  0.8466  1.1037
 2077SOL    HW3 8382   2.482   1.215   3.645 -0.6953 -1.3084  1.4717
 2077SOL    MW4 8383   2.488   1.250   3.724  0.0715  0.4053  0.6199
 2078SOL     OW 8384   2.931   1.283   3.637 -0.1280 -0.3008  0.6285
 2078SOL    HW2 8385   2.879   1.356   3.670 -1.1667 -1.1040  0.7534
 2078SOL    HW3 8386   2.876   1.243   3.569  0.3637 -1.0947  0.7270
 2078SOL    MW4 8387   2.917   1.287   3.632 -0.1907 -0.5126  0.6437
 2079SOL     OW 8388   3.078   1.300   3.276  0.3481  0.0861  0.0153
 2079SOL    HW2 8389   3.170   1.274   3.283  0.6994  1.1393 -0.8291
 2079SOL    HW3 8390   3.075   1.388   3.313 -0.3498  0.0127  0.1468
 2079SOL    MW4 8391   3.090   1.308   3.282  0.3338  0.2265 -0.0715
 2080SOL     OW 8392   2.768   1.474   3.741  0.8308 -0.1024 -0.5491
 2080SOL    HW2 8393   2.776   1.570   3.742 -0.8176  0.0478 -0.0997
 2080SOL    HW3 8394   2.681   1.458   3.704  0.4947 -1.3750  0.8091
 2080SOL    MW4 8395   2.757   1.485   3.737  0.5722 -0.2623 -0.3099
 2081SOL     OW 8396   3.361   1.298   3.292  0.3115 -0.7431 -0.2591
 2081SOL    HW2 8397   3.366   1.294   3.388  0.7000 -0.9821 -0.2926
 2081SOL    HW3 8398   3.378   1.390   3.271  0.9625 -0.8107 -0.1380
 2081SOL    MW4 8399   3.364   1.310   3.302  0.4530 -0.7749 -0.2623
 2082SOL     OW 8400   3.363   1.351   3.571 -0.3160 -0.6834  0.2258
 2082SOL    HW2 8401   3.348   1.290   3.643  1.2491 -1.8967 -0.4636
 2082SOL    HW3 8402   3.276   1.385   3.550 -0.9250 -1.1287  1.9434
 2082SOL    MW4 8403   3.349   1.347   3.578 -0.1907 -0.8941  0.3338
 2083SOL     OW 8404   3.712   2.521   3.890  0.7934 -0.2877  0.7156
 2083SOL    HW2 8405   3.626   2.548   3.921  0.7166 -0.0922  0.3953
 2083SOL    HW3 8406   3.699   2.431   3.859  0.7261 -0.1971  0.5419
 2083SOL    MW4 8407   3.699   2.513   3.890  0.7629 -0.2623  0.6676
 2084SOL     OW 8408   3.118   2.322   3.802  0.2814 -0.0419  0.2455
 2084SOL    HW2 8409   3.194   2.269   3.779  0.3394 -0.4419  1.3609
 2084SOL    HW3 8410   3.073   2.337   3.719  0.2905 -1.8205 -0.0899
 2084SOL    MW4 8411   3.122   2.317   3.788  0.2861 -0.3338  0.3338
 2085SOL     OW 8412   3.160   2.239   3.383  0.1777 -0.4110 -0.1650
 2085SOL    HW2 8413   3.244   2.285   3.377  0.0368 -0.0916  0.6446
 2085SOL    HW3 8414   3.097   2.307   3.409 -0.1804 -0.8650  0.1132
 2085SOL    MW4 8415   3.162   2.254   3.386  0.0954 -0.4053 -0.0477
 2086SOL     OW 8416   3.616   2.191   4.551  0.7820 -0.8477  0.0500
 2086SOL    HW2 8417   3.615   2.284   4.529  1.2789 -0.6849  0.7022
 2086SOL    HW3 8418   3.584   2.147   4.472  2.3129 -0.2392 -0.9497
 2086SOL    MW4 8419   3.612   2.197   4.537  1.0490 -0.7629  0.0000
 2087SOL     OW 8420   3.657   2.237   4.123 -0.2308 -0.3317  0.3787
 2087SOL    HW2 8421   3.689   2.160   4.169 -0.0808 -1.0338 -0.9273
 2087SOL    HW3 8422   3.669   2.309   4.184  1.8180 -0.9395  0.7133
 2087SOL    MW4 8423   3.662   2.237   4.137  0.0477 -0.5007  0.1907
 2088SOL     OW 8424   3.335   2.450   3.399 -0.1827 -0.6768 -0.3849
 2088SOL    HW2 8425   3.333   2.495   3.483 -0.3921 -0.1468 -0.6536
 2088SOL    HW3 8426   3.308   2.516   3.336 -1.2053 -1.4121 -0.7170
 2088SOL    MW4 8427   3.331   2.465   3.402 -0.3815 -0.6914 -0.4530
 2089SOL     OW 8428   3.545   3.173   3.434  0.6447  0.1825  0.0800
 2089SOL    HW2 8429   3.551   3.183   3.529 -0.2615  1.1696  0.0155
 2089SOL    HW3 8430   3.533   3.080   3.420  0.4694  0.0650  0.9449
 2089SOL    MW4 8431   3.544   3.162   3.444  0.5007  0.3099  0.1907
 2090SOL     OW 8432   3.111   2.943   4.005 -0.4920 -0.0945 -0.1508
 2090SOL    HW2 8433   3.192   2.913   4.047  0.4364  1.4253 -0.8767
 2090SOL    HW3 8434   3.067   2.862   3.978  0.7878 -0.9059  0.2296
 2090SOL    MW4 8435   3.116   2.928   4.007 -0.2146  0.0238 -0.1907
 2091SOL     OW 8436   3.387   3.263   4.086 -0.0382  0.3903 -0.4304
 2091SOL    HW2 8437   3.298   3.264   4.122 -0.5875  1.4724 -1.7604
 2091SOL    HW3 8438   3.418   3.353   4.096  0.8590  0.0020 -0.0323
 2091SOL    MW4 8439   3.379   3.275   4.092  0.0000  0.4768 -0.5245
 2092SOL     OW 8440   3.591   3.152   4.256 -0.0554 -0.5939  0.4094
 2092SOL    HW2 8441   3.654   3.119   4.192  0.8274 -0.1552  1.0487
 2092SOL    HW3 8442   3.516   3.181   4.203 -0.1304 -2.0383 -0.2046
 2092SOL    MW4 8443   3.589   3.152   4.240  0.0715 -0.7153  0.4768
 2093SOL     OW 8444   2.949   3.318   3.132 -0.2256 -0.5918  0.6416
 2093SOL    HW2 8445   2.875   3.378   3.141 -0.5934 -1.1378  1.0732
 2093SOL    HW3 8446   2.910   3.231   3.139  0.1188 -0.9440 -1.7185
 2093SOL    MW4 8447   2.934   3.315   3.134 -0.2146 -0.7153  0.4053
 2094SOL     OW 8448   3.763   3.079   2.851 -0.5881 -0.6732 -0.2567
 2094SOL    HW2 8449   3.790   3.089   2.942 -0.0852 -0.8365 -0.4069
 2094SOL    HW3 8450   3.755   3.169   2.819 -2.4073 -0.5928  0.4168
 2094SOL    MW4 8451   3.765   3.092   2.859 -0.7629 -0.6676 -0.2146
 2095SOL     OW 8452   3.362   4.278   3.698  0.6769 -0.1301  0.2112
 2095SOL    HW2 8453   3.366   4.355   3.754  0.7957 -0.9514  1.3362
 2095SOL    HW3 8454   3.336   4.311   3.612 -2.4315  0.7217  1.4754
 2095SOL    MW4 8455   3.359   4.292   3.694  0.2861 -0.1431  0.5484
 2096SOL     OW 8456   3.035   4.159   3.482  0.6819 -0.8956  0.4183
 2096SOL    HW2 8457   3.038   4.172   3.387  0.5549 -0.5534  0.4366
 2096SOL    HW3 8458   3.000   4.071   3.494  0.9334 -1.0645  0.0890
 2096SOL    MW4 8459   3.031   4.149   3.471  0.7153 -0.8583  0.3576
 2097SOL     OW 8460   3.054   4.439   3.260 -0.1140  0.0666 -0.9462
 2097SOL    HW2 8461   3.064   4.524   3.302  1.2753 -0.1672 -0.8941
 2097SOL    HW3 8462   3.139   4.397   3.269 -0.9629 -1.5888 -0.5410
 2097SOL    MW4 8463   3.066   4.445   3.267 -0.0477 -0.1907 -0.9060
 2098SOL     OW 8464   3.243   0.296   3.552 -0.5108 -0.6503  0.6793
 2098SOL    HW2 8465   3.240   0.367   3.616 -3.1712 -0.2063  0.0956
 2098SOL    HW3 8466   3.308   0.324   3.487 -1.1447  0.9314  0.7955
 2098SOL    MW4 8467   3.251   0.309   3.552 -0.9537 -0.3815  0.6199
 2099SOL     OW 8468   3.209   0.670   3.340  0.2332  0.0271 -0.4686
 2099SOL    HW2 8469   3.220   0.712   3.425 -0.2983  1.1367 -0.9267
 2099SOL    HW3 8470   3.117   0.644   3.338  0.1631  0.3740 -0.9337
 2099SOL    MW4 8471   3.198   0.672   3.351  0.1669  0.2205 -0.6199
 2100SOL     OW 8472   2.620   0.866   4.083 -0.4508 -0.5565 -0.0476
 2100SOL    HW2 8473   2.664   0.950   4.076 -0.6769 -0.3731  0.6342
 2100SOL    HW3 8474   2.642   0.834   4.170 -0.5766 -1.0973 -0.2309
 2100SOL    MW4 8475   2.629   0.873   4.093 -0.4530 -0.6020  0.0477
 2101SOL     OW 8476   2.657   1.135   3.908  0.1378 -0.2637 -0.6295
 2101SOL    HW2 8477   2.751   1.139   3.923  0.0143  0.9627 -0.1045
 2101SOL    HW3 8478   2.646   1.062   3.846  1.5688  0.4936 -1.7580
 2101SOL    MW4 8479   2.668   1.126   3.902  0.3099  0.0000 -0.6914
 2102SOL     OW 8480   3.350   0.386   4.350 -0.9090 -0.4370 -0.0831
 2102SOL    HW2 8481   3.345   0.455   4.284  0.1524 -0.1982  0.0261
 2102SOL    HW3 8482   3.376   0.431   4.431 -0.3332 -1.0147  0.0107
 2102SOL    MW4 8483   3.353   0.401   4.352 -0.6914 -0.4858 -0.0477
 2103SOL     OW 8484   3.244   0.757   3.632  0.1792 -0.5077 -0.0324
 2103SOL    HW2 8485   3.323   0.797   3.595 -0.4077 -0.6095 -1.3792
 2103SOL    HW3 8486   3.190   0.832   3.658  0.0016 -0.4259 -0.6081
 2103SOL    MW4 8487   3.247   0.772   3.630  0.0954 -0.5126 -0.3099
 2104SOL     OW 8488   3.023   1.079   3.432  0.0292 -0.1717 -0.1095
 2104SOL    HW2 8489   3.063   1.072   3.519  0.3821  0.3761 -0.2439
 2104SOL    HW3 8490   3.039   1.170   3.405  0.8313 -0.6269 -1.1939
 2104SOL    MW4 8491   3.031   1.090   3.440  0.1669 -0.1550 -0.2623
 2105SOL     OW 8492   3.119   1.009   3.698 -0.3137 -0.9021 -0.0847
 2105SOL    HW2 8493   3.041   1.048   3.738 -0.3915  0.7496 -1.9497
 2105SOL    HW3 8494   3.191   1.066   3.725 -0.3962  0.2471 -2.3133
 2105SOL    MW4 8495   3.118   1.021   3.707 -0.3338 -0.5364 -0.6199
 2106SOL     OW 8496   4.154   1.010   4.182  0.1372 -0.3747  0.6508
 2106SOL    HW2 8497   4.128   0.976   4.097  2.3601 -2.7715  0.9804
 2106SOL    HW3 8498   4.110   0.954   4.246 -1.1113  1.1294  1.1516
 2106SOL    MW4 8499   4.145   0.998   4.179  0.2861 -0.4828  0.7153
 2107SOL     OW 8500   3.536   1.757   3.637 -0.6934 -0.0450  0.3670
 2107SOL    HW2 8501   3.611   1.797   3.682  0.8847 -0.4283 -1.9718
 2107SOL    HW3 8502   3.510   1.685   3.694  1.4932 -0.6930  0.4998
 2107SOL    MW4 8503   3.542   1.753   3.651 -0.1907 -0.1907  0.0715
 2108SOL     OW 8504   3.534   1.477   3.760  0.6502 -0.0511 -0.4942
 2108SOL    HW2 8505   3.459   1.507   3.812  1.4733 -0.2932  0.8469
 2108SOL    HW3 8506   3.496   1.447   3.678 -0.6742  0.1402  0.0512
 2108SOL    MW4 8507   3.519   1.477   3.756  0.5722 -0.0596 -0.2384
 2109SOL     OW 8508   3.306   1.602   3.863 -0.4754  0.1480  0.2024
 2109SOL    HW2 8509   3.319   1.691   3.894 -2.8520  0.3655  0.5965
 2109SOL    HW3 8510   3.295   1.550   3.943  1.2783 -0.5338  0.0151
 2109SOL    MW4 8511   3.307   1.607   3.878 -0.5722  0.0834  0.2384
 2110SOL     OW 8512   2.904   2.330   4.285  0.6545  0.7517  0.3267
 2110SOL    HW2 8513   2.846   2.305   4.213  2.2148  1.4651 -1.1666
 2110SOL    HW3 8514   2.858   2.400   4.331 -0.7722 -0.3068  0.5678
 2110SOL    MW4 8515   2.890   2.336   4.282  0.6676  0.7391  0.1431
 2111SOL     OW 8516   3.823   2.117   3.867  0.1160  0.1427  0.0358
 2111SOL    HW2 8517   3.917   2.133   3.869  0.0858  0.3701  0.5451
 2111SOL    HW3 8518   3.786   2.192   3.821  0.3612 -0.6220 -1.3941
 2111SOL    MW4 8519   3.830   2.129   3.861  0.1669  0.0954 -0.0715
 2112SOL     OW 8520   3.404   1.546   4.500  0.4141 -0.4754 -0.1650
 2112SOL    HW2 8521   3.467   1.523   4.567 -0.4622 -0.2304  0.7200
 2112SOL    HW3 8522   3.318   1.530   4.540 -0.0691 -3.1182 -2.1063
 2112SOL    MW4 8523   3.401   1.541   4.514  0.2146 -0.7868 -0.2861
 2113SOL     OW 8524   3.805   3.060   4.444  0.8090 -0.3170  0.5501
 2113SOL    HW2 8525   3.753   3.064   4.525  1.6142 -0.1076  1.1022
 2113SOL    HW3 8526   3.748   3.099   4.378 -0.7737 -2.5772  0.6087
 2113SOL    MW4 8527   3.791   3.065   4.446  0.7153 -0.5722  0.6199
 2114SOL     OW 8528   4.110   2.991   4.089 -0.6447  0.2103  0.1806
 2114SOL    HW2 8529   4.135   3.083   4.084  0.5838 -0.0225  2.4808
 2114SOL    HW3 8530   4.191   2.943   4.069 -2.0023 -0.3521 -3.7572
 2114SOL    MW4 8531   4.124   2.997   4.086 -0.6199  0.0954  0.0000
 2115SOL     OW 8532   4.085   2.795   3.193 -0.3896 -0.2651 -0.7858
 2115SOL    HW2 8533   4.145   2.868   3.208 -0.8747  0.0253 -0.2553
 2115SOL    HW3 8534   4.100   2.736   3.267  1.2585 -1.5369 -2.1451
 2115SOL    MW4 8535   4.095   2.797   3.205 -0.2384 -0.4053 -0.9060
 2116SOL     OW 8536   4.034   2.990   3.782  0.4592  0.2895  1.1123
 2116SOL    HW2 8537   4.128   2.998   3.765  0.1972 -0.7305 -0.5133
 2116SOL    HW3 8538   3.996   2.967   3.698 -1.3863  1.4061  1.6455
 2116SOL    MW4 8539   4.041   2.988   3.769  0.1907  0.2861  0.9775
 2117SOL     OW 8540   4.089   3.530   3.205  0.0754  0.2602  0.2831
 2117SOL    HW2 8541   4.118   3.450   3.248 -0.0312  0.3217  0.5026
 2117SOL    HW3 8542   4.011   3.505   3.156  1.4153 -0.3393 -1.5002
 2117SOL    MW4 8543   4.083   3.516   3.204  0.2861  0.1907  0.0954
 2118SOL     OW 8544   3.920   3.258   3.841  0.7678  0.2134 -0.2725
 2118SOL    HW2 8545   3.849   3.227   3.898  1.0076 -0.1975 -0.1615
 2118SOL    HW3 8546   3.961   3.178   3.808 -0.2481  0.4629 -2.1177
 2118SOL    MW4 8547   3.916   3.243   3.844  0.6676  0.1669 -0.5007
 2119SOL     OW 8548   3.757   4.193   3.106  0.2743  0.6709  0.4207
 2119SOL    HW2 8549   3.733   4.236   3.024  0.1298  0.0108  0.1298
 2119SOL    HW3 8550   3.730   4.102   3.094  0.3544  0.5462  1.1804
 2119SOL    MW4 8551   3.750   4.186   3.093  0.2623  0.5722  0.4768
 2120SOL     OW 8552   2.835   4.592   3.657 -0.2709  0.2117  0.4935
 2120SOL    HW2 8553   2.924   4.557   3.666 -0.1326  0.3772 -0.2188
 2120SOL    HW3 8554   2.781   4.515   3.639 -0.0993  0.2625 -0.1854
 2120SOL    MW4 8555   2.840   4.577   3.656 -0.2384  0.1907  0.3338
 2121SOL     OW 8556   3.302   4.350   3.328 -0.4500 -0.8469  0.0487
 2121SOL    HW2 8557   3.376   4.352   3.269 -0.9300 -1.7889 -0.5889
 2121SOL    HW3 8558   3.317   4.423   3.389 -0.1949  0.3026 -1.4426
 2121SOL    MW4 8559   3.313   4.360   3.328 -0.5007 -0.8583 -0.2623
 2122SOL     OW 8560   3.398   0.193   2.896  0.0746  0.6680 -0.6472
 2122SOL    HW2 8561   3.343   0.171   2.971  1.2503 -2.2836 -0.6389
 2122SOL    HW3 8562   3.487   0.179   2.927  0.5368 -1.2673 -2.7844
 2122SOL    MW4 8563   3.402   0.188   2.910  0.2861  0.0238 -0.9298
 2123SOL     OW 8564   3.710   0.682   3.592 -0.3583  0.0062 -0.3503
 2123SOL    HW2 8565   3.668   0.657   3.674 -0.4442  0.4414 -0.2812
 2123SOL    HW3 8566   3.693   0.609   3.533  0.6191 -0.7894  0.3221
 2123SOL    MW4 8567   3.702   0.669   3.595 -0.2384 -0.0417 -0.2623
 2124SOL     OW 8568   3.663   0.660   4.242  0.9833 -0.4344 -0.4692
 2124SOL    HW2 8569   3.684   0.583   4.188  0.1958 -0.6525 -0.5210
 2124SOL    HW3 8570   3.728   0.725   4.218  2.0149 -1.3245 -0.0852
 2124SOL    MW4 8571   3.674   0.658   4.232  1.0014 -0.5722 -0.4292
 2125SOL     OW 8572   3.837   0.424   3.885  0.4169  0.7041  0.4007
 2125SOL    HW2 8573   3.843   0.382   3.970 -0.0469 -1.9797 -0.9157
 2125SOL    HW3 8574   3.745   0.449   3.877  0.3828  0.6480  0.5219
 2125SOL    MW4 8575   3.826   0.422   3.895  0.3338  0.3427  0.2623
 2126SOL     OW 8576   3.854   0.961   3.593 -0.0822 -0.1132  0.9929
 2126SOL    HW2 8577   3.862   0.907   3.671 -0.1753 -1.1190  0.3335
 2126SOL    HW3 8578   3.766   0.998   3.598 -0.1688 -0.3679  1.2378
 2126SOL    MW4 8579   3.844   0.959   3.604 -0.0954 -0.2801  0.9537
 2127SOL     OW 8580   4.027   1.298   3.765  0.3999 -0.1016 -0.4564
 2127SOL    HW2 8581   3.983   1.274   3.847  0.1448  1.1345 -0.2358
 2127SOL    HW3 8582   3.955   1.317   3.705  0.5681  0.5292 -0.4755
 2127SOL    MW4 8583   4.011   1.297   3.768  0.3338  0.1431 -0.4292
 2128SOL     OW 8584   3.572   1.051   4.108  0.0237 -0.0497  0.0597
 2128SOL    HW2 8585   3.567   1.133   4.059 -1.9036  0.9556  1.9063
 2128SOL    HW3 8586   3.516   0.990   4.058 -1.8974  0.9541  0.9755
 2128SOL    MW4 8587   3.564   1.054   4.095 -0.4768  0.2146  0.4768
 2129SOL     OW 8588   3.590   1.091   3.616 -0.0729 -0.6965  0.2285
 2129SOL    HW2 8589   3.590   1.167   3.557 -0.4256 -0.5343  0.4509
 2129SOL    HW3 8590   3.606   1.127   3.703  1.2114 -1.0300  0.1335
 2129SOL    MW4 8591   3.592   1.106   3.619  0.0477 -0.7272  0.2384
 2130SOL     OW 8592   3.907   1.659   3.591 -0.0102 -0.2209 -0.0157
 2130SOL    HW2 8593   3.952   1.647   3.674 -0.0382  1.5150  0.2373
 2130SOL    HW3 8594   3.976   1.653   3.525  0.1004 -0.6023  0.1498
 2130SOL    MW4 8595   3.922   1.657   3.593  0.0000 -0.0477  0.0477
 2131SOL     OW 8596   3.854   1.903   3.486  0.2000 -0.1119 -0.0490
 2131SOL    HW2 8597   3.773   1.920   3.536  0.4989  0.3210  0.3435
 2131SOL    HW3 8598   3.879   1.815   3.511 -0.2189 -0.2818 -0.2011
 2131SOL    MW4 8599   3.846   1.894   3.496  0.1907 -0.0715 -0.0238
 2132SOL     OW 8600   3.594   1.235   3.848  0.3682 -0.3331 -0.3534
 2132SOL    HW2 8601   3.575   1.323   3.815  0.1109 -0.2768 -0.0852
 2132SOL    HW3 8602   3.676   1.244   3.896 -0.1868 -0.0426  0.5644
 2132SOL    MW4 8603   3.602   1.248   3.850  0.2623 -0.2861 -0.2146
 2133SOL     OW 8604   3.516   2.049   4.334 -0.4397 -0.1257  0.0579
 2133SOL    HW2 8605   3.493   2.106   4.261  0.2210  1.1954  0.8517
 2133SOL    HW3 8606   3.432   2.017   4.367 -0.8052  0.2897 -0.4317
 2133SOL    MW4 8607   3.502   2.052   4.329 -0.3815  0.0954  0.1431
 2134SOL     OW 8608   3.736   1.890   3.778 -0.4648  0.5264  0.2931
 2134SOL    HW2 8609   3.764   1.979   3.799 -1.1737  0.3918  1.8879
 2134SOL    HW3 8610   3.804   1.834   3.815 -0.9445  0.3348  0.8905
 2134SOL    MW4 8611   3.748   1.894   3.786 -0.5960  0.4768  0.5722
 2135SOL     OW 8612   3.877   1.930   4.134  0.1690  0.2058  0.0220
 2135SOL    HW2 8613   3.938   1.867   4.096 -0.0767 -0.7428  1.1484
 2135SOL    HW3 8614   3.852   1.987   4.062  0.9230 -0.6030 -0.8793
 2135SOL    MW4 8615   3.881   1.929   4.119  0.2384 -0.0358  0.0954
 2136SOL     OW 8616   3.647   1.818   4.265 -0.4983 -0.9694  0.3540
 2136SOL    HW2 8617   3.605   1.895   4.302  0.3195 -0.0801 -0.5905
 2136SOL    HW3 8618   3.729   1.850   4.228  0.2470 -2.4147  0.7355
 2136SOL    MW4 8619   3.652   1.832   4.265 -0.2861 -1.0371  0.2861
 2137SOL     OW 8620   4.032   2.627   4.183 -0.8321  0.2012  0.6058
 2137SOL    HW2 8621   4.000   2.548   4.139 -2.1372  0.1109  1.8059
 2137SOL    HW3 8622   3.954   2.682   4.191 -0.0539  1.3138  0.5202
 2137SOL    MW4 8623   4.017   2.624   4.178 -0.9537  0.3338  0.8106
 2138SOL     OW 8624   0.539   3.211   3.096 -0.5909  0.0602  0.5800
 2138SOL    HW2 8625   0.449   3.215   3.063 -0.4410  0.1498  0.1963
 2138SOL    HW3 8626   0.575   3.131   3.058 -0.2748  0.3929  0.1626
 2138SOL    MW4 8627   0.531   3.201   3.087 -0.5305  0.0954  0.4530
 2139SOL     OW 8628   3.934   3.446   2.792  0.3890  0.3058 -0.0988
 2139SOL    HW2 8629   3.905   3.526   2.837  0.2866 -0.0588  0.5196
 2139SOL    HW3 8630   4.004   3.475   2.734 -0.7235  1.1081 -1.0459
 2139SOL    MW4 8631   3.939   3.460   2.791  0.2384  0.3815 -0.1431
 2140SOL     OW 8632   4.225   3.332   3.830  0.3653  0.3990  0.0955
 2140SOL    HW2 8633   4.130   3.333   3.834  0.2401 -1.2214 -1.0641
 2140SOL    HW3 8634   4.248   3.239   3.836  1.7914  0.6187 -2.0065
 2140SOL    MW4 8635   4.216   3.320   3.832  0.5245  0.2146 -0.3338
 2141SOL     OW 8636   3.935   3.211   3.322  0.2821  0.3718 -1.1350
 2141SOL    HW2 8637   3.913   3.196   3.230  0.7609  1.7533 -1.4582
 2141SOL    HW3 8638   3.871   3.275   3.352  1.1289  1.1186 -0.9226
 2141SOL    MW4 8639   3.924   3.217   3.314  0.4768  0.6437 -1.1683
 2142SOL     OW 8640   3.533   3.220   3.701  0.3147  0.2200  0.7525
 2142SOL    HW2 8641   3.598   3.284   3.728 -0.2003  0.4889  1.3405
 2142SOL    HW3 8642   3.451   3.249   3.743  0.1685 -1.0393  1.3919
 2142SOL    MW4 8643   3.530   3.233   3.710  0.2384  0.0715  0.9298
 2143SOL     OW 8644   4.083   4.348   3.287 -0.1527  0.0308 -0.9999
 2143SOL    HW2 8645   4.162   4.320   3.334 -0.6156 -1.0717 -0.8776
 2143SOL    HW3 8646   4.020   4.368   3.356 -0.4945 -0.6115 -1.1159
 2143SOL    MW4 8647   4.085   4.347   3.302 -0.2384 -0.1907 -1.0014
 2144SOL     OW 8648   3.161   4.222   3.870 -0.1312  0.2917  0.2186
 2144SOL    HW2 8649   3.225   4.218   3.799 -0.8505 -2.0494 -0.2843
 2144SOL    HW3 8650   3.203   4.177   3.943 -1.1985 -1.1749 -0.1057
 2144SOL    MW4 8651   3.175   4.215   3.870 -0.3576 -0.1907  0.0954
 2145SOL     OW 8652   3.485   0.261   3.384 -0.3050 -0.0099 -0.1794
 2145SOL    HW2 8653   3.432   0.196   3.337  0.6269 -1.2673  0.5154
 2145SOL    HW3 8654   3.573   0.249   3.350  0.0729  0.2313  0.7068
 2145SOL    MW4 8655   3.489   0.251   3.373 -0.1431 -0.1431  0.0238
 2146SOL     OW 8656   4.062   4.148   3.101 -0.4167 -0.7409 -0.4031
 2146SOL    HW2 8657   4.076   4.226   3.155 -0.4428 -1.2765  0.3411
 2146SOL    HW3 8658   3.967   4.139   3.095 -0.4148 -0.4625 -0.9218
 2146SOL    MW4 8659   4.051   4.157   3.108 -0.4292 -0.8106 -0.3815
 2147SOL     OW 8660   4.328   4.294   3.398  0.5612 -0.6805 -0.0067
 2147SOL    HW2 8661   4.367   4.220   3.352  0.4683 -0.1260 -1.0430
 2147SOL    HW3 8662   4.373   4.371   3.363  0.0207 -0.1816  0.3888
 2147SOL    MW4 8663   4.339   4.294   3.388  0.5245 -0.5245 -0.0954
 2148SOL     OW 8664   3.676   0.331   3.599  0.3990 -0.3213 -0.0273
 2148SOL    HW2 8665   3.700   0.246   3.636 -0.1565 -0.6088 -0.3338
 2148SOL    HW3 8666   3.607   0.311   3.536  0.1192  0.3836  0.0509
 2148SOL    MW4 8667   3.670   0.317   3.596  0.2861 -0.2652 -0.0238
 2149SOL     OW 8668   3.763   0.264   3.260 -0.1328 -0.3383  0.1597
 2149SOL    HW2 8669   3.835   0.242   3.320  0.1197 -0.3862 -0.1649
 2149SOL    HW3 8670   3.742   0.355   3.280 -0.4742 -0.5438  0.7711
 2149SOL    MW4 8671   3.770   0.273   3.271 -0.1669 -0.3725  0.2146
 2150SOL     OW 8672   4.049   0.155   3.730 -0.1486 -0.3657  0.1589
 2150SOL    HW2 8673   4.003   0.197   3.657 -0.1531 -1.3164 -0.3554
 2150SOL    HW3 8674   4.127   0.209   3.743 -1.0274  0.8666  0.6063
 2150SOL    MW4 8675   4.053   0.168   3.722 -0.2384 -0.3278  0.1669
 2151SOL     OW 8676   3.986   0.604   3.544 -0.0349  0.4789 -0.1933
 2151SOL    HW2 8677   3.910   0.662   3.553 -0.6463 -0.3745  0.0995
 2151SOL    HW3 8678   4.019   0.593   3.633  1.5708  2.3615 -0.5665
 2151SOL    MW4 8679   3.980   0.610   3.557  0.1192  0.6139 -0.2146
 2152SOL     OW 8680   4.315   0.954   3.529 -0.0371  0.6180  0.7762
 2152SOL    HW2 8681   4.307   0.859   3.522  1.0594  0.4724  1.5498
 2152SOL    HW3 8682   4.238   0.981   3.579 -0.7195  0.2040  0.0367
 2152SOL    MW4 8683   4.304   0.945   3.535  0.0000  0.5424  0.7868
 2153SOL     OW 8684   4.085   1.587   3.794 -0.8557 -0.2339  0.2048
 2153SOL    HW2 8685   4.144   1.600   3.720 -0.5441  0.6096  0.6227
 2153SOL    HW3 8686   4.056   1.496   3.785  0.9013 -0.8203  0.2728
 2153SOL    MW4 8687   4.089   1.576   3.783 -0.6199 -0.2146  0.2623
 2154SOL     OW 8688   4.351   1.583   3.627 -0.4514 -0.0921 -0.0779
 2154SOL    HW2 8689   4.433   1.630   3.614 -0.7736  0.6382  0.7898
 2154SOL    HW3 8690   4.362   1.537   3.710 -0.7748 -0.2975 -0.1410
 2154SOL    MW4 8691   4.363   1.583   3.636 -0.5722 -0.0119  0.0238
 2155SOL     OW 8692   0.281   2.155   3.071 -0.1219 -0.1850  0.0716
 2155SOL    HW2 8693   0.324   2.240   3.081 -0.8078  0.1412  0.2757
 2155SOL    HW3 8694   0.303   2.107   3.150  0.4274 -0.2868 -0.1621
 2155SOL    MW4 8695   0.289   2.160   3.083 -0.1401 -0.1669  0.0715
 2156SOL     OW 8696   0.086   1.748   3.565 -0.1723  0.7068  0.1707
 2156SOL    HW2 8697   0.085   1.825   3.622 -0.4950  0.5608  0.3688
 2156SOL    HW3 8698   0.028   1.772   3.493 -0.7735  0.3963  0.5365
 2156SOL    MW4 8699   0.078   1.761   3.563 -0.2943  0.6557  0.2384
 2157SOL     OW 8700   4.368   1.786   3.385  0.1181  0.1521  0.0501
 2157SOL    HW2 8701   4.298   1.835   3.341  0.0491 -0.5131 -0.6383
 2157SOL    HW3 8702   4.322   1.722   3.440  0.1584 -0.4969 -0.6257
 2157SOL    MW4 8703   4.352   1.784   3.387  0.0954 -0.0238 -0.0954
 2158SOL     OW 8704   4.228   2.114   2.977 -0.5926  0.0173 -0.3515
 2158SOL    HW2 8705   4.313   2.130   3.017 -1.2758 -0.0570  1.1146
 2158SOL    HW3 8706   4.240   2.136   2.885  1.0101 -0.0524 -0.1604
 2158SOL    MW4 8707   4.241   2.119   2.970 -0.4768  0.0238 -0.1431
 2159SOL     OW 8708   4.090   3.014   4.616  0.4422  0.1852  0.3223
 2159SOL    HW2 8709   4.095   2.971   4.531  0.4962 -1.0273  0.8978
 2159SOL    HW3 8710   4.003   3.053   4.618 -0.0606 -1.0055  0.3362
 2159SOL    MW4 8711   4.079   3.013   4.605  0.3815 -0.1431  0.3815
 2160SOL     OW 8712   4.246   2.382   4.138  0.3654  0.2134  0.1609
 2160SOL    HW2 8713   4.206   2.467   4.119 -0.5752 -0.4386 -0.8440
 2160SOL    HW3 8714   4.244   2.375   4.233  0.9352  1.5608  0.2346
 2160SOL    MW4 8715   4.241   2.392   4.148  0.3338  0.3099  0.0000
 2161SOL     OW 8716   0.637   3.002   2.557  0.5516 -1.1418 -0.2260
 2161SOL    HW2 8717   0.683   3.065   2.613  0.3596 -1.0650 -0.1471
 2161SOL    HW3 8718   0.603   3.054   2.485  1.8419 -1.4293 -1.0188
 2161SOL    MW4 8719   0.638   3.017   2.555  0.6974 -1.1683 -0.3338
 2162SOL     OW 8720   0.530   3.637   3.772  0.2871 -0.4371 -0.1572
 2162SOL    HW2 8721   0.439   3.661   3.755  0.2115 -1.6979 -1.5651
 2162SOL    HW3 8722   0.566   3.619   3.685  2.1351  1.0838  0.2948
 2162SOL    MW4 8723   0.523   3.638   3.758  0.5305 -0.4053 -0.2623
 2163SOL     OW 8724   0.119   4.078   2.731  0.2884  0.1711 -0.3587
 2163SOL    HW2 8725   0.134   4.036   2.816  0.5734  0.6362 -0.1845
 2163SOL    HW3 8726   0.156   4.018   2.667 -0.0244 -0.1937 -0.1737
 2163SOL    MW4 8727   0.126   4.065   2.734  0.2846  0.1907 -0.3099
 2164SOL     OW 8728   4.345   3.189   3.533 -0.0447 -0.8181  0.1554
 2164SOL    HW2 8729   4.422   3.158   3.485  0.0970 -1.9376  1.1806
 2164SOL    HW3 8730   4.362   3.282   3.548 -0.5262 -0.2589 -2.6937
 2164SOL    MW4 8731   4.358   3.198   3.528 -0.0477 -0.8821 -0.0715
 2165SOL     OW 8732   0.060   4.436   2.874  0.3491  0.6614  0.0198
 2165SOL    HW2 8733   0.034   4.526   2.895  0.5532  0.2763  1.9624
 2165SOL    HW3 8734  -0.021   4.385   2.882  0.7517  0.2661  1.3314
 2165SOL    MW4 8735   0.046   4.441   2.878  0.4329  0.5245  0.4530
 2166SOL     OW 8736   4.203   4.646   2.945  0.6918  0.6384 -0.0738
 2166SOL    HW2 8737   4.234   4.567   2.988 -0.4788  0.2578  0.0686
 2166SOL    HW3 8738   4.238   4.641   2.856 -0.8514 -0.9100 -0.5839
 2166SOL    MW4 8739   4.211   4.635   2.939  0.3338  0.3815 -0.1192
 2167SOL     OW 8740   1.117   4.597   3.352 -0.1505 -0.8622 -0.0562
 2167SOL    HW2 8741   1.067   4.538   3.295  0.3964  0.6415 -2.1048
 2167SOL    HW3 8742   1.060   4.673   3.364  0.7669 -0.0699 -0.6065
 2167SOL    MW4 8743   1.103   4.599   3.346  0.0477 -0.5245 -0.3815
 2168SOL     OW 8744   0.668   4.430   2.635  0.3815 -0.4824 -0.7738
 2168SOL    HW2 8745   0.685   4.379   2.715 -1.2649 -0.6586 -0.5053
 2168SOL    HW3 8746   0.573   4.424   2.624  0.5722 -0.1349 -2.5362
 2168SOL    MW4 8747   0.658   4.423   2.644  0.1788 -0.4768 -0.9537
 2169SOL     OW 8748   0.536   3.953   3.248 -0.1402  0.1628  0.4155
 2169SOL    HW2 8749   0.575   4.038   3.269 -0.0516  0.0386  0.6985
 2169SOL    HW3 8750   0.571   3.894   3.314  0.8795 -0.4103 -0.6304
 2169SOL    MW4 8751   0.546   3.957   3.259  0.0060  0.0715  0.3099
 2170SOL     OW 8752   1.154   0.009   3.830  0.6607  0.5193 -0.2017
 2170SOL    HW2 8753   1.212   0.015   3.905  1.1286 -2.3261 -0.3523
 2170SOL    HW3 8754   1.070  -0.019   3.866  0.5010  0.5996 -0.5529
 2170SOL    MW4 8755   1.150   0.006   3.844  0.7033  0.1565 -0.2623
 2171SOL     OW 8756   0.701   0.265   3.516  0.3397 -0.2403 -0.5338
 2171SOL    HW2 8757   0.747   0.331   3.463 -0.0474  0.1547 -0.3557
 2171SOL    HW3 8758   0.738   0.276   3.604  0.7844 -0.7046 -0.6670
 2171SOL    MW4 8759   0.712   0.275   3.521  0.3457 -0.2474 -0.5007
 2172SOL     OW 8760   0.855   0.046   3.389  0.1462 -0.9577  0.2619
 2172SOL    HW2 8761   0.813   0.067   3.306 -0.4385 -0.6884  0.6195
 2172SOL    HW3 8762   0.808   0.099   3.453  0.1723 -1.6604  0.8483
 2172SOL    MW4 8763   0.843   0.056   3.386  0.0775 -1.0151  0.3815
 2173SOL     OW 8764   0.754   4.639   3.731  0.3520 -0.5934  0.2695
 2173SOL    HW2 8765   0.673   4.688   3.745  0.6147  0.1626 -0.6423
 2173SOL    HW3 8766   0.734   4.580   3.658  0.4484 -0.8931  0.5154
 2173SOL    MW4 8767   0.741   4.638   3.723  0.4053 -0.5245  0.1669
 2174SOL     OW 8768   0.521   0.121   3.802  0.3694  0.4459 -0.5009
 2174SOL    HW2 8769   0.553   0.209   3.821 -0.3718  0.9198 -1.4147
 2174SOL    HW3 8770   0.491   0.126   3.711  0.0243 -0.6651 -0.4335
 2174SOL    MW4 8771   0.521   0.133   3.792  0.2205  0.3621 -0.6199
 2175SOL     OW 8772   0.194   1.432   3.847 -0.4585 -0.1845 -0.1577
 2175SOL    HW2 8773   0.219   1.461   3.759 -0.7992 -0.8422 -0.4981
 2175SOL    HW3 8774   0.099   1.426   3.844 -0.5537  0.8610  0.5759
 2175SOL    MW4 8775   0.185   1.435   3.835 -0.5186 -0.1192 -0.1192
 2176SOL     OW 8776   4.366   1.164   3.765  0.2470 -0.1361 -0.3165
 2176SOL    HW2 8777   4.344   1.148   3.857  0.9495  0.9375  0.0746
 2176SOL    HW3 8778   4.459   1.139   3.759  0.6675  1.7506 -0.3121
 2176SOL    MW4 8779   4.376   1.158   3.777  0.3815  0.2623 -0.2623
 2177SOL     OW 8780   0.537   1.352   3.711  0.0958 -0.0680 -0.1542
 2177SOL    HW2 8781   0.604   1.294   3.748 -0.6015 -0.6427  0.2140
 2177SOL    HW3 8782   0.454   1.314   3.740 -0.4009  0.3820 -0.9634
 2177SOL    MW4 8783   0.535   1.340   3.720 -0.0536 -0.0834 -0.2146
 2178SOL     OW 8784   1.228   2.347   3.513  0.4071  0.4357 -0.4260
 2178SOL    HW2 8785   1.168   2.421   3.524  0.5975  0.4533  0.5800
 2178SOL    HW3 8786   1.178   2.272   3.545  0.3678  0.2018 -1.0405
 2178SOL    MW4 8787   1.213   2.347   3.519  0.4172  0.4053 -0.4053
 2179SOL     OW 8788   0.651   2.143   3.805 -0.2297  1.1618 -0.1870
 2179SOL    HW2 8789   0.674   2.054   3.833  1.5040  1.4914 -0.5174
 2179SOL    HW3 8790   0.679   2.199   3.877  0.0030  1.5907 -0.6326
 2179SOL    MW4 8791   0.658   2.139   3.818  0.0358  1.2875 -0.3099
 2180SOL     OW 8792   4.378   2.424   3.143  0.0289 -0.5704 -0.1173
 2180SOL    HW2 8793   4.457   2.465   3.179 -0.6162  0.5670 -0.1492
 2180SOL    HW3 8794   4.381   2.444   3.050 -0.1385 -0.8674 -0.1787
 2180SOL    MW4 8795   4.389   2.432   3.136 -0.1431 -0.4530 -0.1192
 2181SOL     OW 8796   0.104   2.507   3.283 -0.1903 -0.0828 -0.2717
 2181SOL    HW2 8797   0.118   2.432   3.341 -0.2709  0.3920  0.3422
 2181SOL    HW3 8798   0.083   2.580   3.342  0.5996  0.6124 -0.8044
 2181SOL    MW4 8799   0.104   2.507   3.298 -0.0976  0.0954 -0.2623
 2182SOL     OW 8800   0.154   3.976   3.986 -0.1684  0.8782 -0.5103
 2182SOL    HW2 8801   0.195   3.984   3.900  0.5455  3.1965  0.0650
 2182SOL    HW3 8802   0.062   3.995   3.970 -0.2229  0.2677 -0.9599
 2182SOL    MW4 8803   0.147   3.979   3.972 -0.0820  1.0967 -0.4768
 2183SOL     OW 8804   0.043   3.450   3.344  0.7135 -0.7000  0.2358
 2183SOL    HW2 8805  -0.041   3.462   3.298  0.9221 -1.9014 -0.4255
 2183SOL    HW3 8806   0.048   3.525   3.404 -1.2436 -1.1068  0.9135
 2183SOL    MW4 8807   0.032   3.462   3.345  0.4809 -0.9060  0.2384
 2184SOL     OW 8808   4.367   4.100   3.978  0.0323  0.4664 -0.3440
 2184SOL    HW2 8809   4.316   4.066   4.052  0.4245 -0.3395 -0.4313
 2184SOL    HW3 8810   4.336   4.050   3.903  0.3486  0.5559 -0.5495
 2184SOL    MW4 8811   4.356   4.089   3.978  0.1431  0.3815 -0.3576
 2185SOL     OW 8812   0.665   4.062   3.013 -0.2451  0.0065 -0.0588
 2185SOL    HW2 8813   0.704   3.976   2.999  0.1703 -0.0170  0.8844
 2185SOL    HW3 8814   0.639   4.062   3.106  1.3791  1.5047  0.3742
 2185SOL    MW4 8815   0.667   4.051   3.024  0.0238  0.1907  0.1192
 2186SOL     OW 8816   0.933   3.223   3.143  0.4100 -0.0277 -0.4826
 2186SOL    HW2 8817   1.008   3.234   3.202  0.6108  1.4485 -1.0295
 2186SOL    HW3 8818   0.870   3.289   3.171  0.0652 -0.0525 -1.1933
 2186SOL    MW4 8819   0.934   3.233   3.155  0.3934  0.1669 -0.6437
 2187SOL     OW 8820   0.755   3.436   3.244 -0.1566  0.0832 -0.1608
 2187SOL    HW2 8821   0.787   3.525   3.262 -0.4980  0.0692  0.4608
 2187SOL    HW3 8822   0.683   3.423   3.306  0.3353 -0.9189  0.2156
 2187SOL    MW4 8823   0.750   3.446   3.254 -0.1311 -0.0477 -0.0238
 2188SOL     OW 8824   0.117   3.894   3.260  0.1543 -0.0522  0.0689
 2188SOL    HW2 8825   0.188   3.841   3.223 -0.0632 -0.1404 -0.2033
 2188SOL    HW3 8826   0.092   3.848   3.340  0.2525 -0.1424  0.0587
 2188SOL    MW4 8827   0.123   3.881   3.266  0.1378 -0.0715  0.0238
 2189SOL     OW 8828   0.024   4.149   3.261  0.3956 -0.3023  0.5410
 2189SOL    HW2 8829   0.047   4.185   3.175 -2.2432  0.5956  0.2117
 2189SOL    HW3 8830   0.067   4.063   3.263  1.2138  0.0420 -1.3333
 2189SOL    MW4 8831   0.033   4.142   3.250  0.1557 -0.0954  0.2623
 2190SOL     OW 8832   3.641   4.466   3.240 -0.8745 -0.5395 -0.0573
 2190SOL    HW2 8833   3.616   4.497   3.327 -1.2420 -0.1659 -0.2879
 2190SOL    HW3 8834   3.679   4.379   3.256 -0.8333 -0.3728  0.4258
 2190SOL    MW4 8835   3.643   4.458   3.254 -0.9298 -0.4768 -0.0238
 2191SOL     OW 8836   1.409   0.980   4.530  0.6309  0.3929 -0.2541
 2191SOL    HW2 8837   1.358   0.926   4.470  0.8187  0.3352 -0.3428
 2191SOL    HW3 8838   1.343   1.022   4.586  0.4506  0.3699 -0.4144
 2191SOL    MW4 8839   1.393   0.979   4.529  0.6437  0.3874 -0.2384
 2192SOL     OW 8840   0.772   4.330   2.412  0.0966  0.1803 -0.2912
 2192SOL    HW2 8841   0.841   4.384   2.376  0.2347 -1.2548 -2.2129
 2192SOL    HW3 8842   0.748   4.373   2.494  0.8367  2.6356 -1.3359
 2192SOL    MW4 8843   0.778   4.342   2.418  0.2146  0.3338 -0.6676
 2193SOL     OW 8844   1.075   0.217   3.380  0.6537 -0.3357 -0.5714
 2193SOL    HW2 8845   1.082   0.258   3.466 -0.5238  0.6585 -0.9680
 2193SOL    HW3 8846   0.983   0.191   3.373  1.0242 -1.5516 -1.0163
 2193SOL    MW4 8847   1.064   0.219   3.390  0.5484 -0.3666 -0.6676
 2194SOL     OW 8848   0.669   0.041   2.649  0.4850  0.1426  0.1230
 2194SOL    HW2 8849   0.675   0.067   2.741 -0.6774  0.9403 -0.0436
 2194SOL    HW3 8850   0.666  -0.054   2.652  0.0688  0.1660  0.8929
 2194SOL    MW4 8851   0.670   0.032   2.662  0.2742  0.2477  0.2146
 2195SOL     OW 8852   1.145   0.431   3.222  0.1340  0.0239 -0.1077
 2195SOL    HW2 8853   1.138   0.507   3.280 -1.3325 -0.0483 -0.1748
 2195SOL    HW3 8854   1.126   0.356   3.279  0.1282 -0.1583 -0.3479
 2195SOL    MW4 8855   1.141   0.431   3.237 -0.0477 -0.0119 -0.1192
 2196SOL     OW 8856   0.395   0.520   3.368 -0.2772 -0.4093 -0.1274
 2196SOL    HW2 8857   0.342   0.594   3.396 -0.1959 -0.3790 -0.0425
 2196SOL    HW3 8858   0.403   0.465   3.445 -0.3092 -0.4669 -0.1515
 2196SOL    MW4 8859   0.389   0.523   3.382 -0.2682 -0.4172 -0.0954
 2197SOL     OW 8860   0.489   0.878   4.293  0.0107 -0.1607  0.3330
 2197SOL    HW2 8861   0.549   0.952   4.281  0.9904 -1.1837 -1.1069
 2197SOL    HW3 8862   0.460   0.857   4.204  0.5901 -2.2226  0.5706
 2197SOL    MW4 8863   0.493   0.885   4.280  0.2146 -0.5722  0.1431
 2198SOL     OW 8864   0.031   0.542   3.473 -0.2674 -0.1983  0.3349
 2198SOL    HW2 8865   0.066   0.603   3.408 -1.1819 -1.1658 -1.0756
 2198SOL    HW3 8866   0.065   0.574   3.556 -0.8417  2.3033 -0.3981
 2198SOL    MW4 8867   0.040   0.554   3.475 -0.4634  0.0060  0.0477
 2199SOL     OW 8868   0.434   1.032   3.848 -0.1047 -0.1391  0.8369
 2199SOL    HW2 8869   0.472   0.990   3.771 -1.3923  1.1679 -0.5257
 2199SOL    HW3 8870   0.499   1.098   3.874  0.0560 -0.1827  0.5413
 2199SOL    MW4 8871   0.448   1.035   3.841 -0.2563  0.0119  0.5960
 2200SOL     OW 8872   0.491   1.620   3.729 -0.4150  0.2954  0.2354
 2200SOL    HW2 8873   0.563   1.659   3.681 -0.1253 -0.5134  0.0066
 2200SOL    HW3 8874   0.503   1.526   3.719 -0.8265  0.1307  1.1559
 2200SOL    MW4 8875   0.502   1.613   3.721 -0.4292  0.1669  0.3099
 2201SOL     OW 8876   0.590   2.473   4.196 -0.1015 -0.3368  0.2851
 2201SOL    HW2 8877   0.501   2.439   4.187  0.5392 -2.8526  3.4181
 2201SOL    HW3 8878   0.639   2.432   4.125 -0.7094 -1.2333  0.4042
 2201SOL    MW4 8879   0.585   2.463   4.186 -0.1013 -0.7868  0.7153
 2202SOL     OW 8880   1.251   2.391   3.223  0.3640 -0.0560 -0.7590
 2202SOL    HW2 8881   1.222   2.308   3.186  0.2574 -0.1666 -0.4371
 2202SOL    HW3 8882   1.255   2.376   3.317  0.0953  0.4233 -0.6773
 2202SOL    MW4 8883   1.248   2.378   3.231  0.3219  0.0000 -0.6914
 2203SOL     OW 8884   1.382   2.926   4.088 -0.0512  0.7290 -0.3757
 2203SOL    HW2 8885   1.297   2.884   4.101 -0.0077  0.7496 -0.1472
 2203SOL    HW3 8886   1.421   2.878   4.014  0.4747 -0.3313  0.5355
 2203SOL    MW4 8887   1.376   2.914   4.080  0.0358  0.5960 -0.1907
 2204SOL     OW 8888   0.713   3.632   3.979  0.4889 -0.1197 -0.6727
 2204SOL    HW2 8889   0.649   3.633   3.908  0.1986 -0.9232 -0.4401
 2204SOL    HW3 8890   0.665   3.662   4.056  0.0507 -2.0139 -0.1672
 2204SOL    MW4 8891   0.698   3.636   3.979  0.3934 -0.4530 -0.5484
 2205SOL     OW 8892   4.448   3.451   3.902  0.1300  0.5929 -0.3118
 2205SOL    HW2 8893   4.359   3.421   3.881  0.0552  0.1972  0.5146
 2205SOL    HW3 8894   4.471   3.403   3.982  0.6963  1.3294 -0.0384
 2205SOL    MW4 8895   4.439   3.440   3.910  0.2384  0.6199 -0.1431
 2206SOL     OW 8896   1.432   3.685   4.733  0.5903 -0.0887  0.1111
 2206SOL    HW2 8897   1.402   3.769   4.769  2.2388  0.2955  0.5430
 2206SOL    HW3 8898   1.405   3.688   4.641  0.3162  0.7957  0.1383
 2206SOL    MW4 8899   1.424   3.696   4.725  0.7749  0.1192  0.1431
 2207SOL     OW 8900   1.039   4.176   4.576 -0.3260 -0.4169 -0.3870
 2207SOL    HW2 8901   1.093   4.173   4.498 -0.0141 -2.1071 -0.1370
 2207SOL    HW3 8902   1.099   4.205   4.646 -0.3135 -0.0984 -0.5364
 2207SOL    MW4 8903   1.054   4.180   4.575 -0.2742 -0.6199 -0.3815
 2208SOL     OW 8904   0.599   3.499   3.495  0.3081 -0.2981  0.2825
 2208SOL    HW2 8905   0.530   3.444   3.531  0.0934  0.6132  1.2259
 2208SOL    HW3 8906   0.556   3.582   3.472  0.7628 -0.2894 -0.5869
 2208SOL    MW4 8907   0.584   3.503   3.497  0.3397 -0.1669  0.2861
 2209SOL     OW 8908   1.138   3.939   4.241  0.4220 -0.1981 -0.0558
 2209SOL    HW2 8909   1.182   4.022   4.257 -0.1580  0.0313  0.1517
 2209SOL    HW3 8910   1.108   3.911   4.327  1.2756 -1.0178  0.0156
 2209SOL    MW4 8911   1.140   3.946   4.254  0.4530 -0.2861 -0.0477
 2210SOL     OW 8912   1.303   4.126   2.398  0.8273  0.1018 -0.0213
 2210SOL    HW2 8913   1.218   4.132   2.442  1.4122 -0.1620  1.1082
 2210SOL    HW3 8914   1.286   4.073   2.320 -0.1777  0.5460 -0.1135
 2210SOL    MW4 8915   1.289   4.120   2.393  0.7868  0.0954  0.0715
 2211SOL     OW 8916   0.430   4.248   3.801  0.1339 -0.5631 -0.1110
 2211SOL    HW2 8917   0.364   4.247   3.870  0.0548 -0.5498 -0.1796
 2211SOL    HW3 8918   0.510   4.277   3.846  0.0584 -0.4408 -0.0968
 2211SOL    MW4 8919   0.432   4.252   3.816  0.1132 -0.5245 -0.1192
 2212SOL     OW 8920   0.167   4.642   3.457  0.6214  0.9493 -0.1999
 2212SOL    HW2 8921   0.134   4.723   3.496  0.3694  1.7521 -2.0977
 2212SOL    HW3 8922   0.089   4.599   3.422  1.0607  1.0090 -1.2634
 2212SOL    MW4 8923   0.152   4.647   3.457  0.6467  1.0490 -0.5722
 2213SOL     OW 8924   0.873   3.809   2.751 -0.1566  0.4547 -0.3981
 2213SOL    HW2 8925   0.958   3.775   2.726  0.3421  1.6012 -0.3093
 2213SOL    HW3 8926   0.884   3.904   2.752 -2.1941  0.7178 -3.1957
 2213SOL    MW4 8927   0.885   3.817   2.747 -0.3576  0.6676 -0.7629
 2214SOL     OW 8928   0.851   0.270   3.748  0.2408 -0.1419 -0.2200
 2214SOL    HW2 8929   0.816   0.322   3.820  0.5086  0.5935 -0.6026
 2214SOL    HW3 8930   0.851   0.180   3.781 -0.8079  0.0291  0.2373
 2214SOL    MW4 8931   0.846   0.265   3.761  0.1371 -0.0209 -0.2384
 2215SOL     OW 8932   1.016   0.029   2.765 -0.0354 -0.1426  0.2760
 2215SOL    HW2 8933   0.945  -0.022   2.803 -0.3655  0.4382  0.4409
 2215SOL    HW3 8934   1.036   0.095   2.831  0.5137 -0.1835  0.1671
 2215SOL    MW4 8935   1.009   0.031   2.779  0.0000 -0.0725  0.2861
 2216SOL     OW 8936   1.102   4.132   2.581  0.1927 -1.4957 -0.2863
 2216SOL    HW2 8937   1.047   4.208   2.561 -0.3476 -1.3269  1.7662
 2216SOL    HW3 8938   1.044   4.056   2.568 -0.1457 -1.3967  0.5658
 2216SOL    MW4 8939   1.087   4.132   2.576  0.0715 -1.4305  0.0954
 2217SOL     OW 8940   1.111   4.403   2.460  0.2348 -0.5498  0.1055
 2217SOL    HW2 8941   1.055   4.475   2.488  0.0558 -0.3471 -0.6236
 2217SOL    HW3 8942   1.178   4.396   2.528 -0.5427 -0.5632  0.8703
 2217SOL    MW4 8943   1.113   4.411   2.473  0.1073 -0.5245  0.1192
 2218SOL     OW 8944   1.747   0.192   3.103 -0.8720  0.0661  0.1644
 2218SOL    HW2 8945   1.800   0.181   3.182  0.4930 -0.1873 -0.7810
 2218SOL    HW3 8946   1.716   0.282   3.107 -0.7449  0.0734  0.9829
 2218SOL    MW4 8947   1.750   0.202   3.114 -0.6676  0.0343  0.1431
 2219SOL     OW 8948   1.726   0.732   3.553  0.2676  0.2868  0.4482
 2219SOL    HW2 8949   1.767   0.810   3.590  0.4535  0.4348 -0.0620
 2219SOL    HW3 8950   1.634   0.738   3.579  0.3377  0.5454  0.5823
 2219SOL    MW4 8951   1.720   0.743   3.561  0.2980  0.3457  0.3815
 2220SOL     OW 8952   0.459   0.656   3.753 -0.3025 -0.1086 -0.4031
 2220SOL    HW2 8953   0.548   0.660   3.717 -0.3125 -1.3866 -0.6136
 2220SOL    HW3 8954   0.468   0.688   3.843  0.4994 -0.8212 -0.2234
 2220SOL    MW4 8955   0.472   0.661   3.760 -0.1967 -0.3695 -0.4292
 2221SOL     OW 8956   1.343   0.597   3.843  0.1543  0.1632  0.1621
 2221SOL    HW2 8957   1.254   0.624   3.824  0.1361 -0.5574 -0.8190
 2221SOL    HW3 8958   1.366   0.537   3.772  1.4324  0.3962  0.3787
 2221SOL    MW4 8959   1.334   0.592   3.831  0.3219  0.1013  0.0477
 2222SOL     OW 8960   0.839   0.557   3.847  0.5691 -0.4059  0.2975
 2222SOL    HW2 8961   0.792   0.617   3.788 -0.0258 -1.3800 -0.2146
 2222SOL    HW3 8962   0.852   0.607   3.927  0.6275  0.6375 -0.3456
 2222SOL    MW4 8963   0.835   0.571   3.849  0.5007 -0.3934  0.1431
 2223SOL     OW 8964   0.259   1.014   4.378 -0.0104 -0.3123 -0.1549
 2223SOL    HW2 8965   0.304   1.090   4.413 -0.3930  0.3487 -1.0966
 2223SOL    HW3 8966   0.329   0.955   4.349  0.2627  0.6212 -1.4356
 2223SOL    MW4 8967   0.274   1.016   4.379 -0.0268 -0.0954 -0.4292
 2224SOL     OW 8968   0.747   2.331   4.013  0.3116 -0.2309 -0.2682
 2224SOL    HW2 8969   0.826   2.286   4.042 -0.1039 -0.9768 -0.3293
 2224SOL    HW3 8970   0.779   2.410   3.969  0.9787  0.0291  0.6483
 2224SOL    MW4 8971   0.762   2.336   4.011  0.3457 -0.2861 -0.1431
 2225SOL     OW 8972   1.307   2.038   4.209 -0.4693 -0.3759  0.4856
 2225SOL    HW2 8973   1.268   2.064   4.125 -0.7166 -0.3223  0.6107
 2225SOL    HW3 8974   1.255   2.084   4.275 -0.8201 -1.1098  0.7102
 2225SOL    MW4 8975   1.295   2.048   4.207 -0.5484 -0.4768  0.4768
 2226SOL     OW 8976   0.721   3.231   2.728 -0.7703 -0.2098 -0.2284
 2226SOL    HW2 8977   0.693   3.275   2.809 -0.7490 -0.3128 -0.1706
 2226SOL    HW3 8978   0.814   3.216   2.739 -0.6486  0.3305 -0.5394
 2226SOL    MW4 8979   0.729   3.235   2.740 -0.7570 -0.1431 -0.2384
 2227SOL     OW 8980   0.393   2.812   3.138 -0.1946  0.0842 -0.4535
 2227SOL    HW2 8981   0.448   2.844   3.210 -0.4133 -0.1791 -0.1727
 2227SOL    HW3 8982   0.375   2.721   3.161 -0.3167  0.0445 -0.8070
 2227SOL    MW4 8983   0.398   2.804   3.151 -0.2384  0.0238 -0.4768
 2228SOL     OW 8984   0.464   2.996   3.863 -0.3518  0.8772  0.1144
 2228SOL    HW2 8985   0.508   2.913   3.882 -0.3624  1.2618  1.8230
 2228SOL    HW3 8986   0.413   2.978   3.784  0.4547 -0.4080 -0.0996
 2228SOL    MW4 8987   0.463   2.982   3.855 -0.2474  0.7391  0.3099
 2229SOL     OW 8988   1.050   2.699   3.782 -0.3483 -0.4682  0.2759
 2229SOL    HW2 8989   1.069   2.747   3.701 -0.5726 -1.0874 -0.1534
 2229SOL    HW3 8990   1.080   2.757   3.851  1.1097 -0.5384 -0.3210
 2229SOL    MW4 8991   1.057   2.713   3.780 -0.1907 -0.5960  0.1431
 2230SOL     OW 8992   0.118   3.235   3.767 -0.6617  0.1540  0.3897
 2230SOL    HW2 8993   0.048   3.298   3.784  0.8394  2.7283 -3.1082
 2230SOL    HW3 8994   0.197   3.279   3.799  0.1417 -0.6187 -0.5472
 2230SOL    MW4 8995   0.119   3.249   3.774 -0.3576  0.3815 -0.1907
 2231SOL     OW 8996   1.405   3.193   3.990 -0.1702  0.1554  0.0136
 2231SOL    HW2 8997   1.408   3.104   4.025 -0.0021  0.1474 -0.0136
 2231SOL    HW3 8998   1.351   3.242   4.053  0.8881  0.3757  0.7589
 2231SOL    MW4 8999   1.398   3.188   4.003  0.0000  0.1907  0.1431
 2232SOL     OW 9000   4.251   3.789   4.170  0.0246  1.4131  0.1373
 2232SOL    HW2 9001   4.276   3.732   4.243  0.2105  2.3886  0.9025
 2232SOL    HW3 9002   4.324   3.781   4.108 -0.3382  0.1475 -0.1214
 2232SOL    MW4 9003   4.264   3.780   4.172  0.0477  1.3828  0.1907
 2233SOL     OW 9004   0.638   4.330   3.941 -0.1498 -0.4534  0.2421
 2233SOL    HW2 9005   0.622   4.416   3.981 -1.1278 -0.4155 -0.2593
 2233SOL    HW3 9006   0.718   4.298   3.984 -0.0833  0.4853  0.7896
 2233SOL    MW4 9007   0.647   4.337   3.952 -0.2623 -0.3338  0.2384
 2234SOL     OW 9008   1.618   3.481   3.212  0.3893 -0.2696 -0.3126
 2234SOL    HW2 9009   1.570   3.405   3.244  0.1014 -0.0240 -0.1342
 2234SOL    HW3 9010   1.677   3.445   3.145  0.4863 -0.7087  0.0201
 2234SOL    MW4 9011   1.620   3.466   3.207  0.3695 -0.3099 -0.2146
 2235SOL     OW 9012   1.470   3.259   3.285  0.2353 -0.0389 -0.1451
 2235SOL    HW2 9013   1.379   3.268   3.256  0.2021  1.1188  0.3059
 2235SOL    HW3 9014   1.463   3.225   3.374  0.3109 -2.1025 -0.9213
 2235SOL    MW4 9015   1.457   3.256   3.293  0.2503 -0.1431 -0.1669
 2236SOL     OW 9016   0.572   3.198   1.912  0.1403  0.1786 -0.6621
 2236SOL    HW2 9017   0.654   3.215   1.864  0.0182 -0.2813 -1.0473
 2236SOL    HW3 9018   0.537   3.118   1.873 -0.1960  0.0468 -0.1642
 2236SOL    MW4 9019   0.578   3.190   1.901  0.0775  0.1192 -0.6557
 2237SOL     OW 9020   1.290   4.233   3.132 -0.5308 -0.4182 -0.5602
 2237SOL    HW2 9021   1.278   4.214   3.225 -2.5231 -0.8972 -0.9150
 2237SOL    HW3 9022   1.380   4.205   3.113 -0.1463 -0.3277  1.2135
 2237SOL    MW4 9023   1.301   4.227   3.142 -0.7510 -0.5245 -0.3576
 2238SOL     OW 9024   1.644   0.185   4.413 -0.5477 -0.3394 -0.3084
 2238SOL    HW2 9025   1.680   0.175   4.501  2.4956 -1.2374 -1.6627
 2238SOL    HW3 9026   1.663   0.275   4.389  0.5993 -0.7543 -0.9473
 2238SOL    MW4 9027   1.651   0.195   4.421  0.0119 -0.5126 -0.5722
 2239SOL     OW 9028   1.254   3.990   2.151 -0.3513 -0.0669  0.0288
 2239SOL    HW2 9029   1.346   3.964   2.146 -0.0532  0.7902  0.5303
 2239SOL    HW3 9030   1.253   4.081   2.122 -0.9953  0.0104  0.2895
 2239SOL    MW4 9031   1.266   3.999   2.147 -0.3815  0.0477  0.1192
 2240SOL     OW 9032   0.947   4.228   3.123  0.0110  0.2253 -0.2374
 2240SOL    HW2 9033   0.980   4.145   3.157  0.1817  0.8078  0.8735
 2240SOL    HW3 9034   0.887   4.259   3.190  0.8799  1.6229 -0.1099
 2240SOL    MW4 9035   0.944   4.221   3.137  0.1490  0.4768 -0.0954
 2241SOL     OW 9036   0.624   3.841   3.506 -0.1038  0.2086  0.2666
 2241SOL    HW2 9037   0.594   3.923   3.547  0.7180 -0.0421  1.3884
 2241SOL    HW3 9038   0.719   3.848   3.507 -0.0354 -0.8685  0.5794
 2241SOL    MW4 9039   0.633   3.853   3.512  0.0119  0.0477  0.4530
 2242SOL     OW 9040   1.676   4.050   2.839  0.2910 -0.1598 -0.4233
 2242SOL    HW2 9041   1.665   4.129   2.787 -0.9311 -0.5136 -0.6270
 2242SOL    HW3 9042   1.654   4.077   2.928 -0.9034 -0.5463 -0.6255
 2242SOL    MW4 9043   1.672   4.064   2.844 -0.0238 -0.2861 -0.4768
 2243SOL     OW 9044   1.996   4.569   3.302  0.0954  0.1035 -0.8523
 2243SOL    HW2 9045   1.944   4.648   3.316  1.1215  0.5718  0.3084
 2243SOL    HW3 9046   1.984   4.517   3.382  0.9886 -0.0250 -0.8133
 2243SOL    MW4 9047   1.988   4.572   3.314  0.3457  0.2384 -0.6676
 2244SOL     OW 9048   1.574   0.485   3.401  0.1281  0.1077  0.1612
 2244SOL    HW2 9049   1.517   0.459   3.329 -0.0568  0.2538  0.2815
 2244SOL    HW3 9050   1.620   0.405   3.425  0.5736  0.1747 -0.4563
 2244SOL    MW4 9051   1.572   0.471   3.395  0.1669  0.1341  0.0954
 2245SOL     OW 9052   1.691   0.585   3.811 -0.1132 -0.1980 -0.0025
 2245SOL    HW2 9053   1.728   0.658   3.860  0.3790 -0.1171 -0.4803
 2245SOL    HW3 9054   1.709   0.606   3.719  1.6708 -1.8190 -0.0118
 2245SOL    MW4 9055   1.698   0.597   3.805  0.2027 -0.4053 -0.0715
 2246SOL     OW 9056   1.117   1.054   3.595 -0.3509 -0.6972 -0.1542
 2246SOL    HW2 9057   1.193   1.109   3.618 -0.1293 -0.8315 -0.6684
 2246SOL    HW3 9058   1.065   1.052   3.675 -0.3263  0.1609 -0.1243
 2246SOL    MW4 9059   1.120   1.061   3.609 -0.3338 -0.5960 -0.2384
 2247SOL     OW 9060   0.995   0.629   4.263  0.1729 -0.4243  0.0866
 2247SOL    HW2 9061   1.051   0.698   4.297 -1.4817  0.6487  0.6296
 2247SOL    HW3 9062   0.959   0.665   4.182 -0.0332 -0.9944 -0.0553
 2247SOL    MW4 9063   0.998   0.643   4.257 -0.0656 -0.3517  0.0954
 2248SOL     OW 9064   0.682   1.227   4.380  0.2982  0.1502  0.1472
 2248SOL    HW2 9065   0.736   1.270   4.313  0.4510  1.3815  1.0304
 2248SOL    HW3 9066   0.593   1.233   4.346  0.5548 -0.5068 -0.6509
 2248SOL    MW4 9067   0.678   1.234   4.366  0.3457  0.2384  0.0954
 2249SOL     OW 9068   0.908   1.582   3.701 -0.3318 -0.0381  0.3245
 2249SOL    HW2 9069   0.972   1.511   3.708 -0.3232 -0.0961 -0.4196
 2249SOL    HW3 9070   0.962   1.661   3.688 -0.3306  0.1689  1.5279
 2249SOL    MW4 9071   0.924   1.583   3.700 -0.3278 -0.0119  0.3815
 2250SOL     OW 9072   2.313   1.422   3.925  0.0607  0.4235  0.1577
 2250SOL    HW2 9073   2.344   1.373   4.001 -0.3171  2.0580  1.3789
 2250SOL    HW3 9074   2.313   1.358   3.854  1.2539 -0.8847  1.3541
 2250SOL    MW4 9075   2.317   1.407   3.925  0.1907  0.4649  0.5007
 2251SOL     OW 9076   1.033   3.471   2.629 -0.9115  0.1882  0.5451
 2251SOL    HW2 9077   1.125   3.449   2.616 -0.4946  1.7155  0.9625
 2251SOL    HW3 9078   1.001   3.405   2.690  0.0173 -0.0590  0.7332
 2251SOL    MW4 9079   1.041   3.459   2.635 -0.7391  0.3099  0.6437
 2252SOL     OW 9080   1.664   3.597   2.727  0.2932 -0.4630  0.2805
 2252SOL    HW2 9081   1.596   3.573   2.790  1.1174 -1.7988  0.6665
 2252SOL    HW3 9082   1.632   3.563   2.644  0.2235 -0.6220  0.3848
 2252SOL    MW4 9083   1.651   3.590   2.724  0.3934 -0.6676  0.3576
 2253SOL     OW 9084   0.914   3.019   2.541 -0.0637 -0.0897 -0.2607
 2253SOL    HW2 9085   0.830   2.978   2.520 -0.6801  0.8993  0.2300
 2253SOL    HW3 9086   0.936   3.071   2.464  0.2732 -0.6422 -0.5645
 2253SOL    MW4 9087   0.906   3.020   2.528 -0.1013 -0.0238 -0.2623
 2254SOL     OW 9088   1.877   3.145   3.167  0.4513 -0.3017 -0.3915
 2254SOL    HW2 9089   1.836   3.180   3.088 -0.1278  1.2405  0.6156
 2254SOL    HW3 9090   1.869   3.216   3.231  1.0772 -1.5139  1.0503
 2254SOL    MW4 9091   1.871   3.159   3.165  0.4530 -0.2623 -0.0477
 2255SOL     OW 9092   2.214   3.065   3.402 -0.0170 -0.0878 -0.2475
 2255SOL    HW2 9093   2.200   3.157   3.425  1.0375  0.3953 -1.4653
 2255SOL    HW3 9094   2.179   3.057   3.313  1.6315 -0.4261 -0.8739
 2255SOL    MW4 9095   2.207   3.076   3.393  0.3338 -0.0715 -0.5007
 2256SOL     OW 9096   1.119   3.746   2.263 -0.1710 -0.4744 -0.7924
 2256SOL    HW2 9097   1.176   3.817   2.234  0.4859 -0.5218  0.3538
 2256SOL    HW3 9098   1.043   3.789   2.301 -0.2150 -0.3735 -0.9848
 2256SOL    MW4 9099   1.116   3.761   2.264 -0.0954 -0.4768 -0.6437
 2257SOL     OW 9100   0.926   3.854   3.499  0.0757  0.4838 -0.1833
 2257SOL    HW2 9101   0.899   3.803   3.423  0.0958 -0.2918  0.3344
 2257SOL    HW3 9102   1.005   3.810   3.531 -0.2465  0.4610  0.6017
 2257SOL    MW4 9103   0.933   3.841   3.494  0.0358  0.3815 -0.0238
 2258SOL     OW 9104   2.105   3.690   2.839  0.4353 -0.8847  1.1109
 2258SOL    HW2 9105   2.033   3.750   2.821  1.1427  0.5300  2.8784
 2258SOL    HW3 9106   2.183   3.736   2.809  0.7959 -1.6099  0.8781
 2258SOL    MW4 9107   2.106   3.704   2.833  0.5722 -0.7868  1.3113
 2259SOL     OW 9108   2.060   4.210   2.978 -0.4013  0.2318  0.0864
 2259SOL    HW2 9109   2.015   4.128   2.957 -0.8557  0.3071  0.8523
 2259SOL    HW3 9110   2.153   4.190   2.967 -0.5652  0.1001 -1.2038
 2259SOL    MW4 9111   2.066   4.197   2.974 -0.5007  0.2384  0.0000
 2260SOL     OW 9112   1.439   3.843   2.300  0.2540 -0.0179 -0.9963
 2260SOL    HW2 9113   1.487   3.880   2.374 -0.5520 -0.4695 -0.2505
 2260SOL    HW3 9114   1.391   3.768   2.337 -0.8649  0.3026 -1.7635
 2260SOL    MW4 9115   1.439   3.838   2.315 -0.0119 -0.0477 -1.0014
 2261SOL     OW 9116   1.831   3.449   2.972  0.7534  0.1725 -0.1885
 2261SOL    HW2 9117   1.925   3.447   2.988  0.7213  0.2316 -0.0340
 2261SOL    HW3 9118   1.809   3.542   2.964  0.5479  0.1884  0.6138
 2261SOL    MW4 9119   1.840   3.461   2.973  0.7272  0.2146 -0.0715
 2262SOL     OW 9120   1.643   4.279   3.336  0.4149  0.3423  0.0845
 2262SOL    HW2 9121   1.604   4.365   3.317  0.3980  0.4981  0.9829
 2262SOL    HW3 9122   1.646   4.275   3.431  1.6896 -0.1405  0.0471
 2262SOL    MW4 9123   1.638   4.290   3.346  0.5722  0.2861  0.1907
 2263SOL     OW 9124   2.065   3.766   3.708  0.0284 -0.0543 -0.5522
 2263SOL    HW2 9125   1.983   3.717   3.702 -0.3783  0.6577 -0.7346
 2263SOL    HW3 9126   2.041   3.848   3.753  1.0918 -0.8277  1.4893
 2263SOL    MW4 9127   2.051   3.770   3.713  0.1192 -0.0715 -0.3099
 2264SOL     OW 9128   1.958   4.517   3.007 -0.6064  0.0908  0.0012
 2264SOL    HW2 9129   1.974   4.610   2.998  0.7251 -0.0935  0.1744
 2264SOL    HW3 9130   2.032   4.484   3.058 -0.6632 -1.2024 -0.7349
 2264SOL    MW4 9131   1.970   4.525   3.012 -0.4411 -0.0954 -0.0954
 2265SOL     OW 9132   1.822   0.372   3.915 -0.0013 -0.1599  0.0118
 2265SOL    HW2 9133   1.859   0.339   3.833 -0.7979  0.0665 -0.4731
 2265SOL    HW3 9134   1.760   0.440   3.887 -0.9587 -0.7133  0.7095
 2265SOL    MW4 9135   1.819   0.377   3.900 -0.2503 -0.2027  0.0477
 2266SOL     OW 9136   1.928   0.115   4.018 -0.7563 -0.2029  0.0078
 2266SOL    HW2 9137   1.904   0.204   3.993 -0.1251  0.3095  1.2130
 2266SOL    HW3 9138   1.897   0.107   4.109 -1.7747 -1.5792 -0.4638
 2266SOL    MW4 9139   1.920   0.126   4.027 -0.8106 -0.3159  0.1431
 2267SOL     OW 9140   1.536   0.999   3.752 -0.2071 -0.0169 -0.3795
 2267SOL    HW2 9141   1.517   0.917   3.706 -0.7597  0.0498 -0.2545
 2267SOL    HW3 9142   1.623   0.985   3.790  0.2431 -0.0989 -1.4030
 2267SOL    MW4 9143   1.545   0.986   3.751 -0.2265 -0.0238 -0.4768
 2268SOL     OW 9144   1.873   0.136   3.348 -0.1813 -0.6603 -0.5722
 2268SOL    HW2 9145   1.799   0.140   3.408  0.6432  0.5326  0.3289
 2268SOL    HW3 9146   1.935   0.201   3.380  1.1510 -1.4421 -1.5199
 2268SOL    MW4 9147   1.871   0.145   3.360  0.0954 -0.6065 -0.5722
 2269SOL     OW 9148   1.583   1.485   3.478 -0.0250  0.3894 -0.2632
 2269SOL    HW2 9149   1.496   1.466   3.513 -0.0345  0.9006  0.0001
 2269SOL    HW3 9150   1.636   1.409   3.504 -0.1781  0.4843  0.2891
 2269SOL    MW4 9151   1.578   1.472   3.486 -0.0477  0.4649 -0.1669
 2270SOL     OW 9152   1.374   1.524   3.799 -0.1539 -0.3291  1.2023
 2270SOL    HW2 9153   1.425   1.447   3.825  0.0079 -0.8970 -0.7898
 2270SOL    HW3 9154   1.439   1.586   3.766 -0.6193 -0.5580 -0.1221
 2270SOL    MW4 9155   1.389   1.522   3.798 -0.1907 -0.4411  0.7629
 2271SOL     OW 9156   2.011   0.995   3.862 -0.0361  0.2126  0.4172
 2271SOL    HW2 9157   2.084   1.034   3.815 -0.0162  0.8033  0.9374
 2271SOL    HW3 9158   1.963   1.070   3.899 -0.7448 -0.1718  0.2976
 2271SOL    MW4 9159   2.014   1.010   3.861 -0.1431  0.2503  0.5007
 2272SOL     OW 9160   2.466   1.653   3.872  0.5159 -0.0140 -0.5697
 2272SOL    HW2 9161   2.406   1.727   3.861  1.0016  0.3478 -1.0007
 2272SOL    HW3 9162   2.409   1.576   3.877 -0.1776  0.7555  3.1653
 2272SOL    MW4 9163   2.451   1.652   3.871  0.5007  0.1431 -0.1192
 2273SOL     OW 9164   2.084   2.675   3.770  0.4404 -0.4604 -0.4671
 2273SOL    HW2 9165   2.067   2.620   3.847  1.0701  0.3823  0.2556
 2273SOL    HW3 9166   2.149   2.627   3.720  0.5068 -0.6615 -0.1656
 2273SOL    MW4 9167   2.090   2.661   3.773  0.5245 -0.3576 -0.3338
 2274SOL     OW 9168   2.470   2.606   3.437  0.4674  0.2781 -0.1680
 2274SOL    HW2 9169   2.529   2.678   3.460  1.0099  0.4271 -1.9910
 2274SOL    HW3 9170   2.431   2.580   3.521  0.6320  2.4223  0.5755
 2274SOL    MW4 9171   2.473   2.612   3.451  0.5484  0.5484 -0.3099
 2275SOL     OW 9172   1.978   2.944   3.706  0.7664  0.0780  0.3515
 2275SOL    HW2 9173   2.025   2.889   3.643  0.8223 -0.3081  0.7424
 2275SOL    HW3 9174   1.953   2.884   3.777 -0.6945  0.2170 -0.0458
 2275SOL    MW4 9175   1.981   2.929   3.707  0.5722  0.0715  0.3576
 2276SOL     OW 9176   1.424   2.538   3.628 -0.2791  0.3240 -0.1223
 2276SOL    HW2 9177   1.379   2.488   3.561 -0.7005 -2.1640  2.0529
 2276SOL    HW3 9178   1.500   2.484   3.653  0.1871  1.4695  1.0335
 2276SOL    MW4 9179   1.428   2.524   3.623 -0.2742  0.1431  0.3338
 2277SOL     OW 9180   1.899   2.836   3.226  0.2960 -0.5764 -0.0705
 2277SOL    HW2 9181   1.958   2.854   3.299  1.5130 -0.7375 -0.9943
 2277SOL    HW3 9182   1.830   2.902   3.234  0.5762 -0.4046  1.0492
 2277SOL    MW4 9183   1.897   2.847   3.236  0.4888 -0.5722 -0.0477
 2278SOL     OW 9184   1.623   3.014   2.696 -0.3208  0.7719 -0.0814
 2278SOL    HW2 9185   1.636   2.929   2.737 -0.4168  0.7421 -0.1865
 2278SOL    HW3 9186   1.557   3.057   2.751  0.5083  1.2414  0.5468
 2278SOL    MW4 9187   1.616   3.009   2.709 -0.2146  0.8583  0.0000
 2279SOL     OW 9188   2.321   3.209   3.749 -0.3412 -0.6592  0.5843
 2279SOL    HW2 9189   2.336   3.290   3.699 -0.9882 -1.1906 -0.4594
 2279SOL    HW3 9190   2.348   3.139   3.690 -0.9474 -1.2842  0.9708
 2279SOL    MW4 9191   2.327   3.211   3.735 -0.5007 -0.8106  0.4768
 2280SOL     OW 9192   2.475   3.622   3.008  0.7803  0.1487  0.0299
 2280SOL    HW2 9193   2.460   3.528   3.003  1.2063  0.1561 -1.4309
 2280SOL    HW3 9194   2.400   3.656   3.056 -0.2874 -0.7235 -1.0537
 2280SOL    MW4 9195   2.463   3.614   3.013  0.7153  0.0238 -0.3099
 2281SOL     OW 9196   1.091   3.610   3.213  0.1322 -0.5220  0.0665
 2281SOL    HW2 9197   1.128   3.527   3.243 -3.3778 -2.4365 -0.8826
 2281SOL    HW3 9198   1.127   3.622   3.125  0.1501 -1.3412 -0.0151
 2281SOL    MW4 9199   1.101   3.600   3.205 -0.3338 -0.8821 -0.0715
 2282SOL     OW 9200   1.592   3.884   3.234  0.3962  0.2249 -0.1582
 2282SOL    HW2 9201   1.548   3.889   3.319 -0.6052 -1.7850 -0.5347
 2282SOL    HW3 9202   1.671   3.832   3.251  0.1448 -0.2767 -0.4358
 2282SOL    MW4 9203   1.597   3.877   3.248  0.2265 -0.1192 -0.2623
 2283SOL     OW 9204   1.850   3.278   3.401  0.4607  0.0068 -1.2457
 2283SOL    HW2 9205   1.789   3.347   3.427  0.8216 -0.4016  0.7196
 2283SOL    HW3 9206   1.828   3.203   3.456  0.7703 -1.0757 -2.5706
 2283SOL    MW4 9207   1.839   3.277   3.412  0.5484 -0.1907 -1.1683
 2284SOL     OW 9208   2.073   3.688   4.005 -0.4036 -0.4420  0.7511
 2284SOL    HW2 9209   2.071   3.776   3.966  0.9350 -0.7899 -0.0894
 2284SOL    HW3 9210   2.095   3.630   3.932 -0.9188 -1.4784  1.4145
 2284SOL    MW4 9211   2.075   3.692   3.990 -0.2861 -0.6437  0.7391
 2285SOL     OW 9212   1.883   2.791   3.936 -0.7381 -0.2168 -0.9395
 2285SOL    HW2 9213   1.800   2.744   3.932  0.0413 -1.5211 -1.7221
 2285SOL    HW3 9214   1.930   2.750   4.009 -0.3394 -0.1924 -1.1837
 2285SOL    MW4 9215   1.878   2.779   3.945 -0.5960 -0.3576 -1.0490
 2286SOL     OW 9216   1.453   3.665   3.556 -0.8615 -0.4107 -0.0838
 2286SOL    HW2 9217   1.465   3.629   3.644  0.1771 -0.3519 -0.2234
 2286SOL    HW3 9218   1.511   3.740   3.552 -0.7295 -0.5232 -0.8822
 2286SOL    MW4 9219   1.462   3.670   3.567 -0.6914 -0.4053 -0.2146
 2287SOL     OW 9220   2.235   3.442   3.934  0.4415 -0.2743 -0.4826
 2287SOL    HW2 9221   2.239   3.405   4.023 -0.4382  2.1917  0.6236
 2287SOL    HW3 9222   2.312   3.499   3.929 -1.2885  2.0247 -0.2266
 2287SOL    MW4 9223   2.246   3.445   3.945  0.0715  0.3576 -0.2861
 2288SOL     OW 9224   2.449   0.370   3.817  0.1835 -0.9508 -0.3204
 2288SOL    HW2 9225   2.421   0.454   3.852 -0.9369 -1.7348  0.6371
 2288SOL    HW3 9226   2.498   0.329   3.888  2.9282 -0.0180 -1.6582
 2288SOL    MW4 9227   2.452   0.375   3.831  0.4053 -0.9298 -0.3576
 2289SOL     OW 9228   2.210   0.083   4.008 -0.3685 -1.0072 -1.0435
 2289SOL    HW2 9229   2.242   0.129   4.086 -0.8435 -0.6174 -1.1113
 2289SOL    HW3 9230   2.115   0.090   4.013 -0.4057 -1.8949 -1.1923
 2289SOL    MW4 9231   2.202   0.090   4.019 -0.4292 -1.0721 -1.0490
 2290SOL     OW 9232   3.467   0.485   4.578  1.0846 -0.9828 -0.2061
 2290SOL    HW2 9233   3.400   0.513   4.641  1.7344 -1.1661  0.5808
 2290SOL    HW3 9234   3.497   0.566   4.538  0.9797 -0.8153  0.0266
 2290SOL    MW4 9235   3.462   0.499   4.581  1.1683 -0.9835 -0.0954
 2291SOL     OW 9236   1.766   0.849   3.960 -0.4921  0.1069  0.0586
 2291SOL    HW2 9237   1.860   0.866   3.951 -0.4003  0.3206  1.4807
 2291SOL    HW3 9238   1.759   0.798   4.041 -1.6472  0.3827  0.1242
 2291SOL    MW4 9239   1.777   0.844   3.970 -0.6318  0.1729  0.2623
 2292SOL     OW 9240   2.144   0.742   3.821  0.2516  0.3991  0.4792
 2292SOL    HW2 9241   2.088   0.687   3.876 -0.1654  0.6091  0.2622
 2292SOL    HW3 9242   2.113   0.832   3.837 -0.9804  0.2969 -1.3789
 2292SOL    MW4 9243   2.132   0.747   3.831  0.0238  0.4172  0.2146
 2293SOL     OW 9244   2.211   1.612   3.609  0.0154  0.2704  0.2971
 2293SOL    HW2 9245   2.185   1.524   3.637 -2.0469  1.5858  2.4502
 2293SOL    HW3 9246   2.164   1.624   3.526 -1.0041 -0.0522  0.7896
 2293SOL    MW4 9247   2.201   1.602   3.601 -0.4053  0.4172  0.6437
 2294SOL     OW 9248   2.574   1.968   3.719  0.4498  0.5605 -0.1111
 2294SOL    HW2 9249   2.644   1.904   3.708  1.4258  1.4511  0.8920
 2294SOL    HW3 9250   2.493   1.917   3.717  1.1279 -0.4335 -1.7212
 2294SOL    MW4 9251   2.573   1.953   3.717  0.6676  0.5484 -0.1907
 2295SOL     OW 9252   2.928   1.145   3.889  0.9997 -0.3737  0.5880
 2295SOL    HW2 9253   2.998   1.181   3.944 -0.2423  0.8444  1.4254
 2295SOL    HW3 9254   2.911   1.213   3.824 -1.4788  0.5949  2.2391
 2295SOL    MW4 9255   2.935   1.159   3.888  0.5245 -0.0834  0.9298
 2296SOL     OW 9256   1.947   0.964   4.173 -0.3858 -0.1293 -0.3514
 2296SOL    HW2 9257   1.976   0.973   4.264 -1.0959  0.9165 -0.2528
 2296SOL    HW3 9258   2.017   1.003   4.122 -0.2072 -0.2661 -0.1931
 2296SOL    MW4 9259   1.960   0.970   4.179 -0.4530 -0.0119 -0.2861
 2297SOL     OW 9260   2.489   2.209   3.614  0.8772  0.4206  0.5367
 2297SOL    HW2 9261   2.502   2.121   3.650  1.1270  0.2959  0.1844
 2297SOL    HW3 9262   2.578   2.242   3.600  0.7797  0.3709 -0.2417
 2297SOL    MW4 9263   2.503   2.202   3.617  0.8821  0.4292  0.4053
 2298SOL     OW 9264   2.930   2.083   3.468 -0.0720 -0.0819  0.0561
 2298SOL    HW2 9265   2.876   2.152   3.508  0.2275 -0.2001  0.5757
 2298SOL    HW3 9266   3.006   2.129   3.433 -0.2338 -0.0232 -0.2459
 2298SOL    MW4 9267   2.933   2.098   3.468 -0.0715 -0.0715  0.0715
 2299SOL     OW 9268   2.148   2.863   4.314 -0.3231 -0.6083  0.4022
 2299SOL    HW2 9269   2.207   2.807   4.365  0.4300 -2.3236 -2.4489
 2299SOL    HW3 9270   2.202   2.939   4.291 -0.9836  0.6160  3.0009
 2299SOL    MW4 9271   2.163   2.866   4.318 -0.3338 -0.6676  0.3338
 2300SOL     OW 9272   2.255   2.875   3.962 -0.0799 -0.3682  0.3201
 2300SOL    HW2 9273   2.189   2.941   3.942  0.0355  0.2673  2.1011
 2300SOL    HW3 9274   2.242   2.807   3.896 -3.4262 -0.9122  1.4860
 2300SOL    MW4 9275   2.245   2.875   3.951 -0.5245 -0.3576  0.6914
 2301SOL     OW 9276   1.652   2.823   2.963 -0.3885  0.4999 -0.0557
 2301SOL    HW2 9277   1.726   2.762   2.964 -0.6524  0.2279  0.8218
 2301SOL    HW3 9278   1.662   2.874   3.044 -0.3309  1.4396 -0.6240
 2301SOL    MW4 9279   1.663   2.822   2.974 -0.4053  0.5722  0.0000
 2302SOL     OW 9280   3.518   2.457   4.420  0.7101 -0.3384  0.4556
 2302SOL    HW2 9281   3.537   2.533   4.366 -1.0782 -0.4721 -0.3071
 2302SOL    HW3 9282   3.440   2.483   4.471 -0.0231 -1.6959  0.1001
 2302SOL    MW4 9283   3.510   2.471   4.420  0.3815 -0.5245  0.3338
 2303SOL     OW 9284   3.508   2.807   3.899  0.9088 -0.0898  0.4548
 2303SOL    HW2 9285   3.445   2.872   3.867  1.9330 -0.2222 -1.7716
 2303SOL    HW3 9286   3.455   2.729   3.918 -0.0673  0.8014  1.4844
 2303SOL    MW4 9287   3.492   2.805   3.897  0.9060  0.0238  0.3099
 2304SOL     OW 9288   2.879   3.023   3.032  0.9489  0.3718  0.0521
 2304SOL    HW2 9289   2.795   3.013   2.986  0.9018  1.1330 -0.0164
 2304SOL    HW3 9290   2.928   2.944   3.012  0.1020 -0.2001  0.4344
 2304SOL    MW4 9291   2.874   3.012   3.023  0.8345  0.4053  0.0954
 2305SOL     OW 9292   2.618   2.982   2.880 -0.1972 -0.0012 -0.3002
 2305SOL    HW2 9293   2.596   2.907   2.825  1.9244  0.0963 -1.2995
 2305SOL    HW3 9294   2.613   3.057   2.821  1.6286  0.1735 -0.2274
 2305SOL    MW4 9295   2.614   2.982   2.865  0.3338  0.0477 -0.4053
 2306SOL     OW 9296   2.620   3.177   2.682  0.7758  0.4089 -0.1587
 2306SOL    HW2 9297   2.578   3.245   2.735  0.0527  0.4354 -0.8016
 2306SOL    HW3 9298   2.714   3.190   2.695  0.6527  1.5339 -0.3443
 2306SOL    MW4 9299   2.627   3.187   2.691  0.6676  0.5722 -0.2623
 2307SOL     OW 9300   1.603   2.864   3.641 -0.1502  0.0050  0.0819
 2307SOL    HW2 9301   1.669   2.933   3.637 -0.6576  0.5044  0.0585
 2307SOL    HW3 9302   1.652   2.785   3.665  0.6848  0.0094 -1.5249
 2307SOL    MW4 9303   1.618   2.863   3.644 -0.1192  0.0715 -0.1431
 2308SOL     OW 9304   2.477   3.219   4.003 -0.2888 -0.7384  0.2758
 2308SOL    HW2 9305   2.422   3.165   4.059  0.9134 -1.2870  0.9938
 2308SOL    HW3 9306   2.432   3.219   3.918 -1.2092 -1.3878  0.8278
 2308SOL    MW4 9307   2.464   3.212   3.999 -0.2384 -0.8821  0.4530
 2309SOL     OW 9308   1.807   3.143   4.255  0.9390 -0.3280  0.0875
 2309SOL    HW2 9309   1.737   3.143   4.321  1.4761  0.1186  0.6458
 2309SOL    HW3 9310   1.774   3.200   4.186 -0.0382 -1.6128 -0.4962
 2309SOL    MW4 9311   1.793   3.151   4.255  0.8821 -0.4292  0.0954
 2310SOL     OW 9312   1.804   2.646   4.504  0.5083 -0.8949 -0.3978
 2310SOL    HW2 9313   1.753   2.702   4.447  1.0657 -0.5797 -0.5538
 2310SOL    HW3 9314   1.786   2.678   4.592  1.5878  0.2043 -0.5207
 2310SOL    MW4 9315   1.795   2.657   4.508  0.7153 -0.7153 -0.3815
 2311SOL     OW 9316   2.741   3.567   3.088  1.0604 -0.4911 -0.4262
 2311SOL    HW2 9317   2.765   3.567   3.180  1.7711  0.5920 -0.6253
 2311SOL    HW3 9318   2.650   3.597   3.086  1.3480  0.4516 -0.1304
 2311SOL    MW4 9319   2.732   3.571   3.100  1.1921 -0.2384 -0.4053
 2312SOL     OW 9320   3.518   0.164   4.272  0.1047 -0.1260 -0.2273
 2312SOL    HW2 9321   3.571   0.169   4.352 -1.5579 -1.6506  0.9706
 2312SOL    HW3 9322   3.453   0.233   4.282 -0.5099 -0.7313  0.0628
 2312SOL    MW4 9323   3.517   0.173   4.284 -0.2146 -0.4053 -0.0954
 2313SOL     OW 9324   3.888   0.271   4.700 -0.2029 -1.2655 -0.1351
 2313SOL    HW2 9325   3.856   0.358   4.674  0.5591 -0.8796  0.2284
 2313SOL    HW3 9326   3.880   0.270   4.795 -1.8326 -2.2627 -0.3047
 2313SOL    MW4 9327   3.883   0.283   4.709 -0.3099 -1.3471 -0.0954
 2314SOL     OW 9328   2.338   0.960   4.118 -0.1887  0.4928 -0.1946
 2314SOL    HW2 9329   2.424   0.947   4.158 -0.4647 -0.7131  0.0019
 2314SOL    HW3 9330   2.299   0.873   4.115 -0.4335  0.6669 -2.5269
 2314SOL    MW4 9331   2.344   0.947   4.123 -0.2623  0.3576 -0.5245
 2315SOL     OW 9332   3.504   0.733   4.466  0.2914 -0.4198  0.9659
 2315SOL    HW2 9333   3.499   0.829   4.466  0.3467 -0.4128  0.8542
 2315SOL    HW3 9334   3.544   0.711   4.382 -1.7071 -0.6256  0.0430
 2315SOL    MW4 9335   3.508   0.743   4.455  0.0238 -0.4470  0.8583
 2316SOL     OW 9336   2.391   0.626   3.845 -0.4652 -0.9143 -0.0593
 2316SOL    HW2 9337   2.431   0.687   3.906  1.1463 -1.8568 -0.1722
 2316SOL    HW3 9338   2.302   0.660   3.831  0.1818  0.9031  0.4567
 2316SOL    MW4 9339   2.384   0.638   3.851 -0.1431 -0.8047 -0.0238
 2317SOL     OW 9340   0.104   4.667   4.519  0.9710  0.7605 -0.2279
 2317SOL    HW2 9341   0.068   4.715   4.444  0.4565  0.9028  0.0638
 2317SOL    HW3 9342   0.086   4.575   4.499  1.8072  0.7179 -0.9010
 2317SOL    MW4 9343   0.097   4.661   4.506  1.0140  0.8106 -0.2384
 2318SOL     OW 9344   2.447   1.235   4.088 -0.3358 -0.3744 -0.1205
 2318SOL    HW2 9345   2.394   1.159   4.112  1.8642 -0.8222  3.2934
 2318SOL    HW3 9346   2.515   1.200   4.031 -1.6551 -0.3550 -1.6333
 2318SOL    MW4 9347   2.449   1.221   4.084 -0.2146 -0.4292  0.1907
 2319SOL     OW 9348   2.690   1.544   4.000 -0.1892 -0.1196 -0.4193
 2319SOL    HW2 9349   2.609   1.584   3.970 -1.0388 -0.0771  1.8723
 2319SOL    HW3 9350   2.724   1.498   3.924 -2.2685  0.0100 -1.4319
 2319SOL    MW4 9351   2.684   1.544   3.986 -0.5722 -0.1073 -0.2861
 2320SOL     OW 9352   3.156   1.163   4.050  0.6149 -0.0433  0.2121
 2320SOL    HW2 9353   3.202   1.243   4.078  2.4529 -1.2838  0.7646
 2320SOL    HW3 9354   3.109   1.134   4.128 -0.7126  0.9843 -0.1736
 2320SOL    MW4 9355   3.156   1.170   4.064  0.6914 -0.0715  0.2384
 2321SOL     OW 9356   3.820   0.027   4.272 -0.0613  0.3504 -0.4533
 2321SOL    HW2 9357   3.911   0.021   4.242  0.3950  0.9831  0.8103
 2321SOL    HW3 9358   3.825   0.018   4.367 -1.1489  2.4503 -0.2170
 2321SOL    MW4 9359   3.832   0.025   4.280 -0.1192  0.7112 -0.2861
 2322SOL     OW 9360   4.078   0.724   4.289  0.2037  0.0245 -0.2149
 2322SOL    HW2 9361   4.000   0.766   4.253 -0.1438 -0.2314  0.2491
 2322SOL    HW3 9362   4.048   0.638   4.318  1.0148 -0.6930 -1.4949
 2322SOL    MW4 9363   4.064   0.718   4.288  0.2384 -0.1073 -0.3338
 2323SOL     OW 9364   3.108   1.450   3.519  0.4086 -0.4367  0.1572
 2323SOL    HW2 9365   3.102   1.519   3.585 -0.6936 -0.5036  0.1606
 2323SOL    HW3 9366   3.051   1.381   3.551 -0.9884 -0.0116 -1.4290
 2323SOL    MW4 9367   3.100   1.450   3.532  0.0715 -0.3815 -0.0477
 2324SOL     OW 9368   2.381   3.019   4.164 -0.5174  1.0067 -0.0288
 2324SOL    HW2 9369   2.330   2.966   4.104 -1.2976  0.8655  0.7136
 2324SOL    HW3 9370   2.468   2.980   4.163 -0.4830  1.1326 -1.2142
 2324SOL    MW4 9371   2.386   3.007   4.156 -0.6199  1.0252 -0.0954
 2325SOL     OW 9372   3.274   1.447   4.087  0.4223 -0.3110  0.0523
 2325SOL    HW2 9373   3.184   1.455   4.056  0.4138 -3.0831 -0.5845
 2325SOL    HW3 9374   3.279   1.506   4.162 -1.7068  0.3572 -0.3219
 2325SOL    MW4 9375   3.263   1.456   4.093  0.1431 -0.5722 -0.0954
 2326SOL     OW 9376   3.315   1.162   3.790  0.4950 -0.8157 -0.1385
 2326SOL    HW2 9377   3.396   1.111   3.793 -0.0235 -1.6193  0.2633
 2326SOL    HW3 9378   3.284   1.161   3.881 -0.1767 -0.8134 -0.3639
 2326SOL    MW4 9379   3.321   1.155   3.802  0.3576 -0.9179 -0.1431
 2327SOL     OW 9380   3.835   1.278   3.980  0.2166  0.1791 -0.1636
 2327SOL    HW2 9381   3.842   1.273   4.076  0.8553  0.3540 -0.1813
 2327SOL    HW3 9382   3.812   1.369   3.962 -1.4860 -0.2318 -0.0788
 2327SOL    MW4 9383   3.833   1.289   3.991  0.0477  0.1431 -0.1431
 2328SOL     OW 9384   3.301   2.806   4.137  0.7264 -0.2103  0.1613
 2328SOL    HW2 9385   3.248   2.760   4.201 -0.9798 -0.0051 -1.0859
 2328SOL    HW3 9386   3.391   2.798   4.170 -0.2215  0.3289  2.8818
 2328SOL    MW4 9387   3.306   2.799   4.150  0.3576 -0.0954  0.3815
 2329SOL     OW 9388   3.049   2.649   3.378 -0.6146 -0.7834  0.0365
 2329SOL    HW2 9389   3.090   2.687   3.456  0.3764 -0.8759 -0.4618
 2329SOL    HW3 9390   2.989   2.718   3.347 -1.5825 -1.0436  1.2996
 2329SOL    MW4 9391   3.046   2.663   3.384 -0.6199 -0.8106  0.1431
 2330SOL     OW 9392   2.870   2.860   3.312  0.3669  0.3650 -0.3369
 2330SOL    HW2 9393   2.785   2.880   3.349  0.0286  0.7337 -1.2879
 2330SOL    HW3 9394   2.870   2.903   3.226  0.2138 -2.4315 -1.7758
 2330SOL    MW4 9395   2.859   2.868   3.305  0.2861  0.0238 -0.6437
 2331SOL     OW 9396   3.307   3.302   3.453  0.0008  0.0358  0.0511
 2331SOL    HW2 9397   3.262   3.253   3.521  1.3510  0.1122  0.9840
 2331SOL    HW3 9398   3.392   3.259   3.445  0.3018  0.7765 -0.7545
 2331SOL    MW4 9399   3.313   3.290   3.461  0.1907  0.1431  0.0477
 2332SOL     OW 9400   3.794   2.998   3.128 -0.1413 -0.5390 -0.4746
 2332SOL    HW2 9401   3.719   3.047   3.161  0.4077  0.3300 -0.5785
 2332SOL    HW3 9402   3.813   2.934   3.198  0.6409  0.9251  0.6996
 2332SOL    MW4 9403   3.787   2.996   3.142  0.0238 -0.2146 -0.3338
 2333SOL     OW 9404   2.996   3.254   3.769  0.4855 -0.2255 -0.0608
 2333SOL    HW2 9405   2.992   3.313   3.694  0.2756 -1.3246 -0.8717
 2333SOL    HW3 9406   3.075   3.281   3.816 -0.0067  1.1559 -0.0267
 2333SOL    MW4 9407   3.006   3.265   3.765  0.3815 -0.1907 -0.1669
 2334SOL     OW 9408   2.870   3.331   3.498 -0.3654 -0.4803  0.6203
 2334SOL    HW2 9409   2.953   3.344   3.453 -0.8076 -0.8768 -0.3143
 2334SOL    HW3 9410   2.815   3.404   3.468  0.0320  0.4343  2.0549
 2334SOL    MW4 9411   2.873   3.342   3.488 -0.3815 -0.4292  0.6676
 2335SOL     OW 9412   3.052   4.360   3.677  0.9845  0.2531  1.1843
 2335SOL    HW2 9413   3.037   4.307   3.599  0.5028  0.7230  0.9675
 2335SOL    HW3 9414   3.058   4.297   3.748 -1.0961 -0.0675  1.1362
 2335SOL    MW4 9415   3.050   4.345   3.676  0.6437  0.2384  1.1444
 2336SOL     OW 9416   2.914   0.823   3.795 -0.0597 -0.1868  0.2345
 2336SOL    HW2 9417   2.987   0.859   3.745  0.4540 -0.0079  1.0750
 2336SOL    HW3 9418   2.919   0.728   3.780 -0.3506 -0.0715 -0.6564
 2336SOL    MW4 9419   2.924   0.815   3.786 -0.0238 -0.1490  0.2146
 2337SOL     OW 9420   2.764   0.618   3.952  0.5315  0.0269 -0.0039
 2337SOL    HW2 9421   2.760   0.590   4.044  1.4539  0.6502  0.2416
 2337SOL    HW3 9422   2.782   0.712   3.956  0.9953 -0.0338 -0.8402
 2337SOL    MW4 9423   2.766   0.627   3.965  0.7153  0.1013 -0.0715
 2338SOL     OW 9424   2.964   0.920   4.150 -0.1208  0.2472 -0.0658
 2338SOL    HW2 9425   2.950   0.936   4.056  0.5466  0.9739 -0.0251
 2338SOL    HW3 9426   3.057   0.897   4.156 -0.1873  0.1019  0.4296
 2338SOL    MW4 9427   2.975   0.919   4.138 -0.0477  0.3278  0.0000
 2339SOL     OW 9428   3.896   0.521   4.383  0.2719 -0.2048  0.5864
 2339SOL    HW2 9429   3.835   0.590   4.408  0.0271  0.2219 -1.3162
 2339SOL    HW3 9430   3.845   0.464   4.325  1.5947 -0.0043 -0.7456
 2339SOL    MW4 9431   3.881   0.523   4.379  0.4053 -0.1192  0.1431
 2340SOL     OW 9432   3.586   4.609   4.151 -0.6073 -0.1499 -0.3718
 2340SOL    HW2 9433   3.574   4.693   4.196 -0.3755 -0.3690  0.0811
 2340SOL    HW3 9434   3.671   4.578   4.181 -0.7723 -0.6253 -0.4713
 2340SOL    MW4 9435   3.596   4.616   4.161 -0.6199 -0.2384 -0.3338
 2341SOL     OW 9436   3.744   0.331   4.180 -0.7542 -0.0446  0.0063
 2341SOL    HW2 9437   3.795   0.250   4.179 -1.5895 -0.5742  0.5729
 2341SOL    HW3 9438   3.653   0.301   4.191 -1.2367  0.8569 -1.4054
 2341SOL    MW4 9439   3.738   0.316   4.181 -0.9537  0.0030 -0.0954
 2342SOL     OW 9440   3.427   0.295   3.968 -0.2501  0.4839  0.0794
 2342SOL    HW2 9441   3.472   0.224   3.923  0.4677 -0.2965  2.0258
 2342SOL    HW3 9442   3.363   0.252   4.025 -0.8989  1.4624  0.0678
 2342SOL    MW4 9443   3.425   0.280   3.969 -0.2623  0.5096  0.3338
 2343SOL     OW 9444   4.116   0.516   4.073  0.7429 -0.7945 -0.0688
 2343SOL    HW2 9445   4.123   0.606   4.107  0.1661 -0.4934 -0.6950
 2343SOL    HW3 9446   4.126   0.526   3.979 -0.4852 -1.3090 -0.2256
 2343SOL    MW4 9447   4.118   0.529   4.065  0.5245 -0.8225 -0.1907
 2344SOL     OW 9448   4.062   0.316   4.482  0.4551 -0.8249  0.2962
 2344SOL    HW2 9449   4.003   0.390   4.466  0.8786 -0.6619 -0.6344
 2344SOL    HW3 9450   4.023   0.271   4.558 -0.1374  0.0604  0.5362
 2344SOL    MW4 9451   4.049   0.320   4.490  0.4292 -0.6855  0.1907
 2345SOL     OW 9452   3.831   0.884   4.154  0.0183 -0.4715  0.3834
 2345SOL    HW2 9453   3.835   0.892   4.059 -0.3711 -0.8497  0.3435
 2345SOL    HW3 9454   3.784   0.962   4.183  0.6574 -0.0643  0.3110
 2345SOL    MW4 9455   3.825   0.895   4.145  0.0715 -0.4649  0.3815
 2346SOL     OW 9456   3.950   1.258   4.445 -0.2377 -0.2312 -0.0559
 2346SOL    HW2 9457   3.895   1.326   4.485  0.4079  0.2916 -0.0155
 2346SOL    HW3 9458   4.038   1.295   4.447  0.1055 -1.1009  0.1246
 2346SOL    MW4 9459   3.954   1.272   4.451 -0.0715 -0.2623 -0.0477
 2347SOL     OW 9460   4.294   0.437   4.645  0.8249 -0.1933 -0.6092
 2347SOL    HW2 9461   4.220   0.413   4.590 -0.8360 -1.7726  2.2621
 2347SOL    HW3 9462   4.267   0.517   4.689  0.9333 -0.6634  0.2633
 2347SOL    MW4 9463   4.281   0.445   4.644  0.6199 -0.4590 -0.0954
 2348SOL     OW 9464   3.756   0.514   4.676  0.7767 -1.6339 -0.1453
 2348SOL    HW2 9465   3.662   0.505   4.660  0.6891 -2.3065  0.8632
 2348SOL    HW3 9466   3.776   0.603   4.647 -0.0251 -1.7075 -0.9409
 2348SOL    MW4 9467   3.746   0.525   4.670  0.6676 -1.7226 -0.0954
 2349SOL     OW 9468   0.140   2.215   3.705  0.4458  0.2335 -0.2668
 2349SOL    HW2 9469   0.163   2.203   3.797 -0.8223 -1.7418 -0.2174
 2349SOL    HW3 9470   0.088   2.296   3.703 -1.1713 -0.7926  1.0133
 2349SOL    MW4 9471   0.136   2.224   3.717  0.0656 -0.1431 -0.0954
 2350SOL     OW 9472   4.206   2.338   4.446  1.1138  0.3470  0.4869
 2350SOL    HW2 9473   4.141   2.292   4.499  0.6480  0.1138 -0.3749
 2350SOL    HW3 9474   4.207   2.427   4.482  0.7176  0.2274  0.7687
 2350SOL    MW4 9475   4.198   2.344   4.458  1.0014  0.3099  0.3815
 2351SOL     OW 9476   3.573   1.625   4.065 -0.7499 -0.5545 -0.3204
 2351SOL    HW2 9477   3.549   1.542   4.106  0.9590 -0.9207 -0.0957
 2351SOL    HW3 9478   3.588   1.685   4.139 -1.7633 -0.1038 -0.4469
 2351SOL    MW4 9479   3.572   1.622   4.080 -0.6437 -0.5364 -0.2861
 2352SOL     OW 9480   3.769   1.538   3.902  0.1034 -0.4209 -0.0586
 2352SOL    HW2 9481   3.706   1.582   3.959  0.1482 -2.9251  1.9602
 2352SOL    HW3 9482   3.717   1.507   3.828 -0.6359 -0.3140  0.3850
 2352SOL    MW4 9483   3.754   1.539   3.900  0.0238 -0.7391  0.2623
 2353SOL     OW 9484   3.954   3.374   4.471  0.7011  0.9833  0.0298
 2353SOL    HW2 9485   3.936   3.302   4.532  1.2531  0.5685 -0.2861
 2353SOL    HW3 9486   3.908   3.349   4.391  1.2748  0.7617 -0.2026
 2353SOL    MW4 9487   3.945   3.361   4.468  0.8345  0.9060 -0.0477
 2354SOL     OW 9488   3.979   3.549   4.041  0.7169  0.1674 -0.2548
 2354SOL    HW2 9489   3.980   3.625   3.983  0.2848  0.4342  0.1075
 2354SOL    HW3 9490   4.024   3.578   4.120  1.5488 -0.2495 -0.5271
 2354SOL    MW4 9491   3.985   3.563   4.044  0.7868  0.1669 -0.1907
 2355SOL     OW 9492   3.298   2.932   3.789  0.4197 -0.2135 -0.0242
 2355SOL    HW2 9493   3.277   2.994   3.720  0.7224  0.4056  0.4456
 2355SOL    HW3 9494   3.224   2.938   3.850 -0.4536 -1.6530 -0.9361
 2355SOL    MW4 9495   3.285   2.941   3.788  0.3338 -0.3338 -0.0715
 2356SOL     OW 9496   3.768   3.480   3.763  0.0648  0.0659 -0.4845
 2356SOL    HW2 9497   3.823   3.403   3.781  0.4878  0.6855  0.8227
 2356SOL    HW3 9498   3.721   3.495   3.845  0.5671  1.7418 -0.5101
 2356SOL    MW4 9499   3.769   3.472   3.777  0.1907  0.3576 -0.3099
 2357SOL     OW 9500   3.700   3.124   3.982  0.3239  0.5494  0.3954
 2357SOL    HW2 9501   3.728   3.035   3.964  1.2565  0.9573 -0.0990
 2357SOL    HW3 9502   3.627   3.139   3.923 -0.6599 -0.3205  1.3983
 2357SOL    MW4 9503   3.694   3.114   3.972  0.2861  0.4768  0.4530
 2358SOL     OW 9504   2.749   3.544   3.364  0.4296 -0.3586 -0.0701
 2358SOL    HW2 9505   2.661   3.518   3.389  0.5030 -0.2757  0.2286
 2358SOL    HW3 9506   2.765   3.625   3.412  0.8669 -0.6674  0.2692
 2358SOL    MW4 9507   2.740   3.551   3.374  0.5007 -0.3815  0.0238
 2359SOL     OW 9508   2.658   0.136   3.428  0.2996  0.4526 -0.2289
 2359SOL    HW2 9509   2.707   0.191   3.490  0.7350  1.1228 -1.1938
 2359SOL    HW3 9510   2.691   0.048   3.443  0.3332  0.5949  0.5871
 2359SOL    MW4 9511   2.668   0.132   3.438  0.3815  0.5588 -0.2623
 2360SOL     OW 9512   2.950   0.594   3.633 -1.1423 -0.2119 -0.0053
 2360SOL    HW2 9513   2.938   0.501   3.611 -0.8703 -0.4572  0.9310
 2360SOL    HW3 9514   3.043   0.603   3.651 -1.1361  0.2781 -0.2886
 2360SOL    MW4 9515   2.960   0.583   3.632 -1.0967 -0.1788  0.0715
 2361SOL     OW 9516   3.266   0.514   3.735 -0.8468  0.0636  0.3263
 2361SOL    HW2 9517   3.359   0.514   3.758 -1.0908  1.0497  1.3698
 2361SOL    HW3 9518   3.252   0.598   3.691 -0.8970 -0.7457 -1.2612
 2361SOL    MW4 9519   3.276   0.525   3.732 -0.8583  0.0894  0.2623
 2362SOL     OW 9520   3.661   4.329   3.674 -0.5807 -0.3536 -0.0283
 2362SOL    HW2 9521   3.573   4.293   3.679 -1.0384  0.7542 -0.9183
 2362SOL    HW3 9522   3.652   4.410   3.626  0.7081  0.4647  1.0088
 2362SOL    MW4 9523   3.648   4.335   3.669 -0.4768 -0.0954  0.0000
 2363SOL     OW 9524   3.346   4.548   3.532  0.1793 -0.2896 -0.3046
 2363SOL    HW2 9525   3.348   4.507   3.619  1.4572 -0.8115 -0.6027
 2363SOL    HW3 9526   3.350   4.642   3.550  0.0789 -0.3852  0.2366
 2363SOL    MW4 9527   3.347   4.555   3.546  0.3338 -0.3815 -0.2623
 2364SOL     OW 9528   3.553   0.474   3.796 -0.8177 -0.1183 -0.1392
 2364SOL    HW2 9529   3.594   0.414   3.734  0.4016 -0.2404  0.7520
 2364SOL    HW3 9530   3.512   0.416   3.861 -0.2561  0.0357  0.3346
 2364SOL    MW4 9531   3.553   0.458   3.797 -0.5960 -0.1192  0.0477
 2365SOL     OW 9532   3.223   0.009   4.296  0.1466 -0.0379  0.6039
 2365SOL    HW2 9533   3.201   0.057   4.216 -0.5792 -0.0094  0.8531
 2365SOL    HW3 9534   3.308   0.045   4.323  0.1165  0.3302  0.1775
 2365SOL    MW4 9535   3.232   0.020   4.289  0.0477  0.0145  0.6199
 2366SOL     OW 9536   3.929   0.307   3.506  0.2644 -0.2125 -0.5241
 2366SOL    HW2 9537   3.958   0.398   3.509  0.7451 -0.3836 -0.2114
 2366SOL    HW3 9538   3.837   0.311   3.533  0.3355  0.1703 -0.3367
 2366SOL    MW4 9539   3.921   0.320   3.510  0.3576 -0.1848 -0.4768
 2367SOL     OW 9540   4.124   1.045   3.708 -0.4725 -0.0215  0.0395
 2367SOL    HW2 9541   4.213   1.053   3.742 -0.2906 -1.5587 -0.0599
 2367SOL    HW3 9542   4.088   1.133   3.715  0.6236  0.3383  1.3210
 2367SOL    MW4 9543   4.131   1.057   3.714 -0.2861 -0.1788  0.2146
 2368SOL     OW 9544   4.374   1.125   4.068  0.4049 -0.1469 -0.4491
 2368SOL    HW2 9545   4.332   1.211   4.066  0.5500 -0.0773 -0.3207
 2368SOL    HW3 9546   4.310   1.069   4.112  0.2464 -0.1521 -0.6724
 2368SOL    MW4 9547   4.360   1.129   4.074  0.3815 -0.1311 -0.3815
 2369SOL     OW 9548   0.281   1.597   4.095  0.5324 -0.3294  0.1330
 2369SOL    HW2 9549   0.227   1.553   4.030  0.5812  0.2585 -0.2978
 2369SOL    HW3 9550   0.261   1.690   4.084 -0.2030 -0.3275  1.6394
 2369SOL    MW4 9551   0.271   1.604   4.085  0.4381 -0.2503  0.2861
 2370SOL     OW 9552   3.982   1.829   3.897 -0.1497 -0.1371  0.2912
 2370SOL    HW2 9553   4.013   1.740   3.883  0.5156 -0.1002  1.4331
 2370SOL    HW3 9554   4.045   1.884   3.851 -1.4441 -0.3446 -1.7368
 2370SOL    MW4 9555   3.994   1.824   3.889 -0.2384 -0.1669  0.1669
 2371SOL     OW 9556   3.917   2.724   4.848 -0.5365  0.4063 -0.4343
 2371SOL    HW2 9557   3.961   2.644   4.820 -1.5985 -0.2012 -0.3473
 2371SOL    HW3 9558   3.945   2.737   4.938  0.9525  0.9796 -0.9395
 2371SOL    MW4 9559   3.926   2.715   4.856 -0.4768  0.4053 -0.5245
 2372SOL     OW 9560   4.275   1.383   4.091  0.7426  0.3565  0.1723
 2372SOL    HW2 9561   4.340   1.433   4.141  1.1776  0.1473 -0.1518
 2372SOL    HW3 9562   4.195   1.390   4.143  1.2721 -0.0823  1.0764
 2372SOL    MW4 9563   4.273   1.391   4.104  0.8583  0.2623  0.2861
 2373SOL     OW 9564   0.072   1.945   3.756  0.1940  0.3178  0.0907
 2373SOL    HW2 9565  -0.022   1.962   3.764  0.1973 -0.1846  1.1331
 2373SOL    HW3 9566   0.112   2.032   3.749 -0.4339  0.4926 -1.4619
 2373SOL    MW4 9567   0.065   1.959   3.756  0.1110  0.2742  0.0477
 2374SOL     OW 9568   3.626   3.858   4.167  0.2331  0.0472 -0.3560
 2374SOL    HW2 9569   3.610   3.857   4.261 -0.9631  0.7145 -0.6125
 2374SOL    HW3 9570   3.696   3.794   4.153 -1.2309 -1.7856  0.6725
 2374SOL    MW4 9571   3.633   3.850   4.177 -0.1192 -0.1431 -0.2384
 2375SOL     OW 9572   0.149   4.107   4.285  0.9206  0.2733  0.9891
 2375SOL    HW2 9573   0.101   4.061   4.354  0.3259  0.4110  0.6902
 2375SOL    HW3 9574   0.088   4.175   4.255  0.7878 -0.4065 -0.3496
 2375SOL    MW4 9575   0.134   4.110   4.290  0.8225  0.2384  0.8106
 2376SOL     OW 9576   3.387   3.012   4.710  0.0737  0.3651 -0.5265
 2376SOL    HW2 9577   3.312   3.059   4.746  0.0766  1.2283 -1.6175
 2376SOL    HW3 9578   3.363   2.919   4.718 -0.3897  0.5857  0.6623
 2376SOL    MW4 9579   3.374   3.006   4.716  0.0238  0.5007 -0.5245
 2377SOL     OW 9580   4.387   3.721   3.708  0.0553  0.0557  0.4779
 2377SOL    HW2 9581   4.401   3.711   3.802  3.0426 -0.3664 -0.0231
 2377SOL    HW3 9582   4.347   3.639   3.680  0.8760 -0.4870  1.0023
 2377SOL    MW4 9583   4.383   3.709   3.717  0.5245 -0.0477  0.5007
 2378SOL     OW 9584   0.345   3.360   3.629  0.5724 -0.3427  0.6562
 2378SOL    HW2 9585   0.406   3.302   3.674  0.1928 -0.4246  1.0457
 2378SOL    HW3 9586   0.273   3.302   3.602  1.1339 -0.4082 -0.7290
 2378SOL    MW4 9587   0.343   3.344   3.631  0.5960 -0.3338  0.5007
 2379SOL     OW 9588   3.526   3.140   3.121  0.1842 -0.4071  0.1967
 2379SOL    HW2 9589   3.539   3.235   3.115  0.5594 -0.4635  0.5036
 2379SOL    HW3 9590   3.515   3.111   3.031  0.6341 -0.1556  0.0338
 2379SOL    MW4 9591   3.526   3.149   3.108  0.3099 -0.4053  0.2146
 2380SOL     OW 9592   3.580   3.436   3.126 -0.1707  0.4105  0.2900
 2380SOL    HW2 9593   3.613   3.429   3.216  0.2643  0.4009  0.1560
 2380SOL    HW3 9594   3.524   3.513   3.126 -0.5813  0.1120  0.7073
 2380SOL    MW4 9595   3.577   3.445   3.138 -0.1669  0.3576  0.3338
 2381SOL     OW 9596   3.589   3.541   3.575  0.2990 -0.2427 -1.1541
 2381SOL    HW2 9597   3.648   3.494   3.634  1.0897 -0.2939 -1.9953
 2381SOL    HW3 9598   3.501   3.522   3.610  0.6293 -2.0150 -1.2503
 2381SOL    MW4 9599   3.585   3.532   3.587  0.4768 -0.4530 -1.2875
 2382SOL     OW 9600   2.602   3.848   3.231 -0.0032 -0.1612 -0.2362
 2382SOL    HW2 9601   2.649   3.908   3.289 -0.7159  0.4551 -0.2809
 2382SOL    HW3 9602   2.545   3.799   3.290 -0.1410 -0.1226 -0.3350
 2382SOL    MW4 9603   2.600   3.850   3.247 -0.1192 -0.0954 -0.2861
 2383SOL     OW 9604   0.370   4.101   2.995  0.3665  0.6971 -0.2481
 2383SOL    HW2 9605   0.366   4.172   3.060 -0.0322 -0.5201  1.0191
 2383SOL    HW3 9606   0.461   4.071   2.998  0.2336  0.3138  0.0835
 2383SOL    MW4 9607   0.382   4.106   3.004  0.2980  0.5245 -0.0477
 2384SOL     OW 9608   2.692   3.950   3.917 -0.2361 -0.0415 -0.5949
 2384SOL    HW2 9609   2.779   3.973   3.884 -0.2334  0.1605 -0.4425
 2384SOL    HW3 9610   2.703   3.945   4.012 -0.0308 -1.6286 -0.7024
 2384SOL    MW4 9611   2.705   3.953   3.925 -0.2146 -0.2384 -0.5960
 2385SOL     OW 9612   0.523   0.060   3.264  0.5984  0.0244 -0.3200
 2385SOL    HW2 9613   0.511   0.050   3.358 -0.6351 -2.8229 -0.7752
 2385SOL    HW3 9614   0.434   0.068   3.229  1.0445  0.8316 -1.2868
 2385SOL    MW4 9615   0.510   0.060   3.272  0.4947 -0.2448 -0.4768
 2386SOL     OW 9616   0.853   4.435   3.346 -0.2038 -0.1598 -0.2857
 2386SOL    HW2 9617   0.868   4.526   3.373 -0.4477 -0.2313  0.0981
 2386SOL    HW3 9618   0.790   4.401   3.410  2.4075 -1.5812  1.5248
 2386SOL    MW4 9619   0.847   4.443   3.358  0.1013 -0.3338  0.0000
 2387SOL     OW 9620   4.458   4.368   3.636  0.5308 -0.3032  0.5103
 2387SOL    HW2 9621   4.409   4.338   3.559  1.3729  0.5003 -0.3546
 2387SOL    HW3 9622   4.424   4.456   3.653 -0.0315 -0.7312  1.4363
 2387SOL    MW4 9623   4.447   4.376   3.628  0.5722 -0.2384  0.5007
 2388SOL     OW 9624   3.627   4.532   3.507 -0.1562 -0.3734 -0.7003
 2388SOL    HW2 9625   3.668   4.604   3.555 -0.1026  0.2094 -1.6864
 2388SOL    HW3 9626   3.533   4.549   3.515 -0.1354  0.3395 -1.7526
 2388SOL    MW4 9627   3.620   4.544   3.514 -0.1669 -0.2384 -0.9537
 2389SOL     OW 9628   3.745   0.077   3.632  0.0340 -0.0631  0.3229
 2389SOL    HW2 9629   3.705   0.044   3.712 -1.2187 -0.4618 -0.4418
 2389SOL    HW3 9630   3.818   0.018   3.615 -0.6723 -0.9067  0.3164
 2389SOL    MW4 9631   3.749   0.065   3.640 -0.2146 -0.2272  0.2146
 2390SOL     OW 9632   4.325   4.614   3.641 -0.0449  0.5003  0.5803
 2390SOL    HW2 9633   4.259   4.571   3.695  0.0067 -0.0063  0.2884
 2390SOL    HW3 9634   4.365   4.680   3.699 -0.0089 -0.0223  1.1066
 2390SOL    MW4 9635   4.322   4.617   3.656  0.0000  0.3815  0.6199
 2391SOL     OW 9636   4.294   0.679   3.575 -0.1775  0.2518  0.0995
 2391SOL    HW2 9637   4.364   0.623   3.541 -0.2778 -0.8075  1.7071
 2391SOL    HW3 9638   4.268   0.637   3.657  0.2467  3.0261  1.6696
 2391SOL    MW4 9639   4.300   0.666   3.581 -0.1907  0.4768  0.5007
 2392SOL     OW 9640   4.401   1.431   3.847  0.2272 -0.1717  0.8384
 2392SOL    HW2 9641   4.393   1.346   3.803 -0.8241 -0.0465  0.8100
 2392SOL    HW3 9642   4.327   1.434   3.907  0.3816  0.6473  0.9879
 2392SOL    MW4 9643   4.390   1.420   3.849  0.1431 -0.0358  0.8345
 2393SOL     OW 9644   4.374   2.508   4.743 -0.5388  1.0527  0.7019
 2393SOL    HW2 9645   4.402   2.564   4.670  0.0401 -0.2639 -0.0181
 2393SOL    HW3 9646   4.446   2.447   4.755 -0.2146  1.8650  2.9664
 2393SOL    MW4 9647   4.387   2.508   4.735 -0.4292  0.9775  0.8583
 2394SOL     OW 9648   0.393   1.298   3.953 -0.1782  0.2501  0.0298
 2394SOL    HW2 9649   0.447   1.372   3.979 -0.5271  0.1863  0.9413
 2394SOL    HW3 9650   0.313   1.337   3.919 -0.2892  0.3084  0.3480
 2394SOL    MW4 9651   0.389   1.313   3.952 -0.2384  0.2503  0.1907
 2395SOL     OW 9652   0.842   2.439   3.419 -0.3330  0.9213 -0.5710
 2395SOL    HW2 9653   0.928   2.475   3.440 -0.1222  0.0175  0.1120
 2395SOL    HW3 9654   0.833   2.364   3.477 -1.1987  0.4511 -1.2734
 2395SOL    MW4 9655   0.852   2.434   3.430 -0.4232  0.7391 -0.5722
 2396SOL     OW 9656   0.486   2.325   3.133 -0.6726 -0.0101  0.0273
 2396SOL    HW2 9657   0.450   2.408   3.163 -0.7513  0.0213 -0.1978
 2396SOL    HW3 9658   0.464   2.262   3.202 -0.2710  0.2203  0.3554
 2396SOL    MW4 9659   0.478   2.328   3.146 -0.6318  0.0238  0.0238
 2397SOL     OW 9660   0.130   2.265   3.424  0.7868 -0.0884  0.1075
 2397SOL    HW2 9661   0.168   2.254   3.511  0.6611 -1.2194  0.0014
 2397SOL    HW3 9662   0.054   2.207   3.423 -0.0171  0.9727 -0.2595
 2397SOL    MW4 9663   0.125   2.256   3.435  0.6646 -0.1192  0.0477
 2398SOL     OW 9664   4.308   2.020   3.701  0.3704 -0.0438  0.4873
 2398SOL    HW2 9665   4.338   2.071   3.626  0.6771 -0.0492  0.5910
 2398SOL    HW3 9666   4.242   2.075   3.744  0.5808  0.2072  0.5277
 2398SOL    MW4 9667   4.303   2.034   3.697  0.4768 -0.0238  0.5007
 2399SOL     OW 9668   4.406   2.684   4.542  0.6417  0.3113  0.5994
 2399SOL    HW2 9669   4.312   2.672   4.552  0.7070  0.5581  1.2552
 2399SOL    HW3 9670   4.423   2.668   4.449  0.2954 -2.1458  0.9693
 2399SOL    MW4 9671   4.396   2.681   4.531  0.6676  0.0238  0.7629
 2400SOL     OW 9672   4.124   2.620   4.489  0.1569  0.1331  0.8880
 2400SOL    HW2 9673   4.084   2.648   4.407 -0.3973  0.9958  1.4216
 2400SOL    HW3 9674   4.051   2.605   4.548  0.5244 -1.3413  0.9531
 2400SOL    MW4 9675   4.109   2.622   4.486  0.0954  0.0715  1.0014
 2401SOL     OW 9676   0.277   3.718   3.694  0.0658 -0.1655 -0.4477
 2401SOL    HW2 9677   0.308   3.686   3.609 -0.5140 -0.5637 -0.4963
 2401SOL    HW3 9678   0.208   3.656   3.719 -1.4890  1.3725 -0.8723
 2401SOL    MW4 9679   0.272   3.705   3.686 -0.2146 -0.0238 -0.5245
 2402SOL     OW 9680   0.197   3.884   2.952  0.4099  0.2496 -0.1834
 2402SOL    HW2 9681   0.115   3.872   2.999  1.0737  0.4634  1.0244
 2402SOL    HW3 9682   0.234   3.965   2.987  1.4890 -0.2221 -0.2262
 2402SOL    MW4 9683   0.191   3.893   2.962  0.6407  0.2146 -0.0238
 2403SOL     OW 9684   0.855   4.027   4.168  0.3030 -0.6580 -0.1832
 2403SOL    HW2 9685   0.858   3.964   4.096  0.7942 -1.4515  0.5095
 2403SOL    HW3 9686   0.944   4.027   4.204  0.2279  0.1731 -0.0059
 2403SOL    MW4 9687   0.867   4.019   4.163  0.3636 -0.6199 -0.0954
 2404SOL     OW 9688   4.326   3.050   3.780 -1.4033 -0.0391  0.1910
 2404SOL    HW2 9689   4.401   3.051   3.839 -2.2619 -1.0254  1.2998
 2404SOL    HW3 9690   4.360   3.083   3.697  0.4399 -1.5063  0.3945
 2404SOL    MW4 9691   4.340   3.055   3.777 -1.2875 -0.3576  0.3815
 2405SOL     OW 9692   4.289   3.862   3.409  0.5551 -0.0079 -0.7081
 2405SOL    HW2 9693   4.249   3.825   3.488 -2.8388 -0.8580 -2.8263
 2405SOL    HW3 9694   4.215   3.883   3.353  2.9548  1.9278 -3.1002
 2405SOL    MW4 9695   4.274   3.860   3.412  0.4768  0.1669 -1.3113
 2406SOL     OW 9696   3.830   3.640   2.953  0.2981  0.0534  0.2816
 2406SOL    HW2 9697   3.844   3.650   3.047 -0.8245  0.9682  0.3804
 2406SOL    HW3 9698   3.750   3.690   2.936  1.0309  0.6995 -1.2766
 2406SOL    MW4 9699   3.821   3.648   2.963  0.2384  0.2623  0.0954
 2407SOL     OW 9700   1.087   4.468   3.055  0.2748  0.0324 -0.3121
 2407SOL    HW2 9701   1.020   4.400   3.053  1.0660 -0.6945 -1.5844
 2407SOL    HW3 9702   1.163   4.426   3.096  1.4276 -0.3892 -2.9601
 2407SOL    MW4 9703   1.088   4.453   3.060  0.5364 -0.0954 -0.8345
 2408SOL     OW 9704   0.617   4.492   3.161 -0.3207 -0.5149  0.1925
 2408SOL    HW2 9705   0.700   4.464   3.199  0.0998 -0.9487 -1.0286
 2408SOL    HW3 9706   0.592   4.569   3.211  1.3918  0.3137 -0.2545
 2408SOL    MW4 9707   0.624   4.498   3.172 -0.0358 -0.4768  0.0000
 2409SOL     OW 9708   0.905   0.531   4.705 -0.0673 -0.3112 -0.2901
 2409SOL    HW2 9709   0.923   0.585   4.782 -0.2220 -0.3712 -0.2464
 2409SOL    HW3 9710   0.825   0.483   4.728 -0.4975  0.1845 -0.7746
 2409SOL    MW4 9711   0.897   0.532   4.718 -0.1431 -0.2563 -0.3338
 2410SOL     OW 9712   1.197   0.426   4.292  0.3266 -0.2394 -0.7446
 2410SOL    HW2 9713   1.188   0.439   4.386  0.0628  0.2476 -0.8791
 2410SOL    HW3 9714   1.154   0.502   4.252 -1.4961 -1.5266 -1.2876
 2410SOL    MW4 9715   1.190   0.438   4.299  0.0477 -0.3457 -0.8106
 2411SOL     OW 9716   1.068   0.586   3.662  0.1109 -0.2481 -0.2254
 2411SOL    HW2 9717   1.096   0.495   3.657  2.0617  0.3232  0.3128
 2411SOL    HW3 9718   1.001   0.588   3.731 -0.4331 -1.4055 -0.7356
 2411SOL    MW4 9719   1.063   0.575   3.670  0.2980 -0.3278 -0.2146
 2412SOL     OW 9720   3.308   4.189   4.398 -0.1960  0.5658 -0.6359
 2412SOL    HW2 9721   3.220   4.184   4.436 -0.9432  3.6430 -1.8903
 2412SOL    HW3 9722   3.343   4.101   4.408 -2.6582 -0.1151  1.8206
 2412SOL    MW4 9723   3.301   4.177   4.405 -0.6199  0.9060 -0.4768
 2413SOL     OW 9724   0.842   4.576   2.945 -0.4170  0.2170  0.0148
 2413SOL    HW2 9725   0.816   4.491   2.910 -0.7740  0.0860  0.7344
 2413SOL    HW3 9726   0.928   4.561   2.983 -0.6596  0.1191  0.5394
 2413SOL    MW4 9727   0.850   4.563   2.946 -0.4947  0.2384  0.1907
 2414SOL     OW 9728   4.186   1.386   4.477  0.1753  0.2735  0.3141
 2414SOL    HW2 9729   4.235   1.456   4.435 -0.8316  0.3095 -0.7685
 2414SOL    HW3 9730   4.250   1.316   4.489  0.2723 -0.0450 -1.9574
 2414SOL    MW4 9731   4.201   1.386   4.473  0.0477  0.2503 -0.0954
 2415SOL     OW 9732   0.161   0.318   3.709 -0.4256  0.3421 -1.0022
 2415SOL    HW2 9733   0.116   0.288   3.631 -1.7176  1.2241 -0.6107
 2415SOL    HW3 9734   0.253   0.326   3.682 -0.7458 -0.0769 -2.2145
 2415SOL    MW4 9735   0.168   0.315   3.695 -0.6407  0.4053 -1.0967
 2416SOL     OW 9736   0.704   1.862   3.945 -0.2261  0.3194 -0.7924
 2416SOL    HW2 9737   0.667   1.923   4.009 -1.4301  0.2694 -1.4416
 2416SOL    HW3 9738   0.637   1.793   3.937 -0.3570  0.6920 -2.6243
 2416SOL    MW4 9739   0.690   1.861   3.953 -0.4053  0.3695 -1.1206
 2417SOL     OW 9740   0.363   2.152   3.339  0.3381  0.0002 -0.5078
 2417SOL    HW2 9741   0.272   2.174   3.362  0.3291 -0.3340 -0.2664
 2417SOL    HW3 9742   0.414   2.183   3.414  0.3445 -0.7798 -0.2200
 2417SOL    MW4 9743   0.358   2.159   3.352  0.3338 -0.1669 -0.4530
 2418SOL     OW 9744   4.082   2.169   4.638  0.1967  0.2566  0.0848
 2418SOL    HW2 9745   4.113   2.099   4.581 -0.0160  0.3188 -0.0647
 2418SOL    HW3 9746   3.990   2.148   4.656 -0.2572  1.1479 -1.0353
 2418SOL    MW4 9747   4.074   2.157   4.633  0.1431  0.3815 -0.0477
 2419SOL     OW 9748   4.064   2.888   4.340  0.0077 -0.6996  0.3096
 2419SOL    HW2 9749   4.057   2.944   4.262  1.5626 -0.3449  0.4148
 2419SOL    HW3 9750   4.154   2.855   4.337 -0.1301 -1.1466  1.6620
 2419SOL    MW4 9751   4.075   2.891   4.329  0.2384 -0.7153  0.4768
 2420SOL     OW 9752   0.172   2.679   4.076 -0.7880  0.7655 -0.3172
 2420SOL    HW2 9753   0.207   2.662   4.164 -0.8001  0.1347 -0.4936
 2420SOL    HW3 9754   0.107   2.610   4.062  0.4328 -0.1555 -1.5241
 2420SOL    MW4 9755   0.168   2.668   4.086 -0.6303  0.5484 -0.4768
 2421SOL     OW 9756   4.394   2.690   3.417 -0.4235  0.0432 -0.5639
 2421SOL    HW2 9757   4.411   2.782   3.439  0.4589 -0.3280  0.2718
 2421SOL    HW3 9758   4.415   2.642   3.496 -0.8783 -0.8911 -1.0248
 2421SOL    MW4 9759   4.399   2.696   3.430 -0.3815 -0.1192 -0.5007
 2422SOL     OW 9760   3.819   2.043   4.684  0.2279 -0.8624  0.2650
 2422SOL    HW2 9761   3.740   2.083   4.647  1.3113  0.5372 -0.5384
 2422SOL    HW3 9762   3.810   2.056   4.778  0.9626  1.9372 -0.0609
 2422SOL    MW4 9763   3.807   2.050   4.692  0.4768 -0.2861  0.0954
 2423SOL     OW 9764   0.561   4.095   3.558  0.0412  0.1632 -0.2785
 2423SOL    HW2 9765   0.487   4.107   3.497 -1.3718 -1.5283  1.0562
 2423SOL    HW3 9766   0.525   4.120   3.643  1.4162  0.4690  0.1670
 2423SOL    MW4 9767   0.546   4.100   3.561  0.0417  0.0000 -0.0238
 2424SOL     OW 9768   4.002   3.893   3.583 -0.2284 -0.2899  0.1683
 2424SOL    HW2 9769   4.065   3.935   3.642  0.5716 -0.6096 -0.4936
 2424SOL    HW3 9770   3.942   3.963   3.558  0.4395  0.2701 -0.0428
 2424SOL    MW4 9771   4.003   3.908   3.588  0.0000 -0.2623  0.0477
 2425SOL     OW 9772   0.425   4.497   3.710  0.2202 -0.2227 -0.5706
 2425SOL    HW2 9773   0.426   4.404   3.730 -0.3580  0.0766  0.9016
 2425SOL    HW3 9774   0.370   4.536   3.777  2.7230  1.5023  0.4547
 2425SOL    MW4 9775   0.418   4.490   3.721  0.4739  0.0000 -0.2384
 2426SOL     OW 9776   1.220   3.906   4.725  0.1972 -0.1134  0.7575
 2426SOL    HW2 9777   1.194   3.929   4.636  2.0156 -0.9568  0.0630
 2426SOL    HW3 9778   1.170   3.827   4.745  0.0586 -0.1303  0.3591
 2426SOL    MW4 9779   1.210   3.899   4.716  0.4053 -0.2146  0.6199
 2427SOL     OW 9780   4.041   4.110   2.786 -0.3685  0.0057  0.0249
 2427SOL    HW2 9781   4.090   4.075   2.861  1.5832  1.3733 -0.6532
 2427SOL    HW3 9782   3.988   4.036   2.755  1.0200 -1.4012  0.9231
 2427SOL    MW4 9783   4.041   4.096   2.792  0.0954  0.0000  0.0477
 2428SOL     OW 9784   0.887   3.850   3.934  0.5215 -0.1073  0.1295
 2428SOL    HW2 9785   0.827   3.775   3.943  1.0652 -0.4405  0.6943
 2428SOL    HW3 9786   0.849   3.902   3.864  0.0304 -0.7879 -0.1787
 2428SOL    MW4 9787   0.874   3.847   3.926  0.5305 -0.2146  0.1431
 2429SOL     OW 9788   1.181   4.423   4.263 -0.4832 -0.1050  0.3956
 2429SOL    HW2 9789   1.259   4.468   4.294 -0.9832  1.1562 -0.1051
 2429SOL    HW3 9790   1.109   4.464   4.311 -0.9719 -0.1386 -0.2464
 2429SOL    MW4 9791   1.182   4.435   4.273 -0.6318  0.1431  0.2384
 2430SOL     OW 9792   1.232   4.161   4.392 -0.1165 -0.7250  0.3347
 2430SOL    HW2 9793   1.310   4.185   4.442 -0.6401 -0.7778  1.1218
 2430SOL    HW3 9794   1.220   4.234   4.330 -0.1225 -0.1810  0.9212
 2430SOL    MW4 9795   1.241   4.174   4.390 -0.1788 -0.6676  0.4768
 2431SOL     OW 9796   0.617   2.032   4.148  0.3759 -0.3792 -0.1956
 2431SOL    HW2 9797   0.653   1.954   4.189 -1.4614 -0.4685  1.3092
 2431SOL    HW3 9798   0.689   2.095   4.149  1.6354 -1.8308 -0.7082
 2431SOL    MW4 9799   0.631   2.030   4.153  0.3040 -0.5722 -0.0477
 2432SOL     OW 9800   1.398   4.494   3.685  0.0889 -0.0600 -0.5024
 2432SOL    HW2 9801   1.315   4.450   3.707  0.1265 -0.2615 -0.6449
 2432SOL    HW3 9802   1.449   4.490   3.766  0.0537 -0.2499 -0.4718
 2432SOL    MW4 9803   1.394   4.488   3.699  0.0954 -0.0477 -0.5245
 2433SOL     OW 9804   1.954   4.427   3.539  0.3741 -0.8134  0.1059
 2433SOL    HW2 9805   1.991   4.442   3.626  1.1693 -2.0863 -0.0275
 2433SOL    HW3 9806   1.861   4.444   3.549  0.1678 -2.8328  1.6380
 2433SOL    MW4 9807   1.947   4.431   3.552  0.4411 -1.2875  0.3099
 2434SOL     OW 9808   1.740   0.083   4.673  0.2956 -0.0857 -0.3336
 2434SOL    HW2 9809   1.658   0.094   4.722  0.2283  0.3713 -0.5301
 2434SOL    HW3 9810   1.724   0.007   4.618  0.6337 -1.0900  0.9759
 2434SOL    MW4 9811   1.727   0.074   4.672  0.3219 -0.1572 -0.2384
 2435SOL     OW 9812   1.342   0.151   3.575  0.2853  0.0829 -0.2447
 2435SOL    HW2 9813   1.296   0.070   3.596  0.8779 -0.3530 -0.6402
 2435SOL    HW3 9814   1.413   0.157   3.639  0.4930  0.0712 -0.4428
 2435SOL    MW4 9815   1.345   0.141   3.586  0.3934  0.0253 -0.3099
 2436SOL     OW 9816   0.380   0.798   4.013  0.3770 -0.7216  0.5052
 2436SOL    HW2 9817   0.406   0.869   3.954  0.0453 -1.7557 -0.8556
 2436SOL    HW3 9818   0.284   0.800   4.013  0.4381  1.1810  3.3392
 2436SOL    MW4 9819   0.371   0.808   4.005  0.3397 -0.6020  0.7153
 2437SOL     OW 9820   0.153   1.660   4.518 -0.0006 -0.3802 -0.2611
 2437SOL    HW2 9821   0.072   1.625   4.483  0.3096 -1.0073 -0.3726
 2437SOL    HW3 9822   0.138   1.669   4.612  0.4600 -2.2335 -0.0387
 2437SOL    MW4 9823   0.141   1.657   4.526  0.1013 -0.7033 -0.2384
 2438SOL     OW 9824   0.665   1.604   4.487  0.1715 -0.0202 -0.1322
 2438SOL    HW2 9825   0.730   1.539   4.515  0.9523  0.6467 -0.4296
 2438SOL    HW3 9826   0.677   1.678   4.547  0.3313  0.4999 -0.8222
 2438SOL    MW4 9827   0.675   1.605   4.499  0.2980  0.1311 -0.2384
 2439SOL     OW 9828   0.934   2.016   4.396  1.5110  0.0219  0.8438
 2439SOL    HW2 9829   0.950   2.005   4.302  1.2919  1.0409  0.6967
 2439SOL    HW3 9830   0.843   1.990   4.408  2.1470 -2.1572  1.1277
 2439SOL    MW4 9831   0.924   2.011   4.385  1.5616 -0.1192  0.8583
 2440SOL     OW 9832   0.104   2.205   3.977 -0.0699  0.2992 -0.3224
 2440SOL    HW2 9833   0.033   2.177   4.034 -0.2416  1.1878 -0.0951
 2440SOL    HW3 9834   0.174   2.233   4.036  0.4853 -0.6100 -0.5161
 2440SOL    MW4 9835   0.104   2.205   3.992 -0.0186  0.3099 -0.3099
 2441SOL     OW 9836   0.434   2.562   3.528 -0.1421 -0.4228  0.0260
 2441SOL    HW2 9837   0.351   2.596   3.561  0.0168  0.5793 -0.6262
 2441SOL    HW3 9838   0.429   2.467   3.543 -1.0625 -0.2506  0.7363
 2441SOL    MW4 9839   0.423   2.554   3.534 -0.2384 -0.2623  0.0477
 2442SOL     OW 9840   0.082   1.961   4.366 -0.0240 -0.3558  0.5074
 2442SOL    HW2 9841   0.175   1.975   4.385  0.1422 -1.0542  0.2345
 2442SOL    HW3 9842   0.037   2.028   4.416  0.6188 -0.1873  0.8657
 2442SOL    MW4 9843   0.089   1.971   4.375  0.0820 -0.4172  0.5245
 2443SOL     OW 9844   4.244   3.298   4.406 -0.0127 -0.4335 -0.5109
 2443SOL    HW2 9845   4.290   3.370   4.449  0.1404 -0.5872 -0.3699
 2443SOL    HW3 9846   4.156   3.299   4.444  0.0482 -0.4146 -0.4089
 2443SOL    MW4 9847   4.238   3.308   4.416  0.0000 -0.4530 -0.5245
 2444SOL     OW 9848   4.400   3.184   4.687  0.3362 -0.2700  0.1705
 2444SOL    HW2 9849   4.423   3.269   4.649 -0.5113 -0.1392 -0.0521
 2444SOL    HW3 9850   4.324   3.156   4.637 -0.6473 -0.1943  1.6191
 2444SOL    MW4 9851   4.393   3.192   4.675  0.1431 -0.2384  0.3338
 2445SOL     OW 9852   4.191   4.049   4.180  0.2413  0.8770 -0.4283
 2445SOL    HW2 9853   4.096   4.045   4.168  0.2554 -0.1612 -0.4045
 2445SOL    HW3 9854   4.217   3.958   4.194  1.1443  1.2335  0.3221
 2445SOL    MW4 9855   4.182   4.036   4.180  0.3815  0.7629 -0.3338
 2446SOL     OW 9856   0.400   3.937   4.180 -0.2709  0.7678  0.2176
 2446SOL    HW2 9857   0.318   3.961   4.137 -1.2364 -0.6937  1.1920
 2446SOL    HW3 9858   0.468   3.955   4.115 -1.6769 -1.0137 -1.7705
 2446SOL    MW4 9859   0.398   3.943   4.166 -0.5841  0.3338  0.0954
 2447SOL     OW 9860   4.274   2.868   4.803  0.1042  0.3172  0.6371
 2447SOL    HW2 9861   4.209   2.925   4.762  0.3448 -0.5594 -1.0583
 2447SOL    HW3 9862   4.358   2.900   4.769  0.2670 -1.0172 -0.1825
 2447SOL    MW4 9863   4.277   2.880   4.793  0.0954  0.0000  0.2861
 2448SOL     OW 9864   4.044   3.615   4.333 -0.1729  0.1323 -0.8259
 2448SOL    HW2 9865   4.036   3.528   4.373 -0.0003  0.2094 -0.6561
 2448SOL    HW3 9866   4.050   3.675   4.407 -0.9485  0.3617 -0.9182
 2448SOL    MW4 9867   4.044   3.611   4.348 -0.2861  0.1907 -0.8106
 2449SOL     OW 9868   3.573   4.079   4.020  0.2481 -0.7399 -0.3578
 2449SOL    HW2 9869   3.611   4.058   3.934 -0.2313 -1.6405 -0.4063
 2449SOL    HW3 9870   3.601   4.006   4.076  0.8242 -0.0205  0.2194
 2449SOL    MW4 9871   3.582   4.067   4.016  0.2384 -0.7153 -0.3338
 2450SOL     OW 9872   1.015   3.903   4.493  0.0880  0.6916  0.2184
 2450SOL    HW2 9873   0.939   3.883   4.438  0.4935  1.3027 -0.4544
 2450SOL    HW3 9874   0.995   3.988   4.532  0.0863  0.5349  0.5525
 2450SOL    MW4 9875   1.002   3.912   4.491  0.1431  0.7391  0.1907
 2451SOL     OW 9876   0.338   3.984   4.460 -0.5165  0.0030  1.3582
 2451SOL    HW2 9877   0.317   4.077   4.455  0.4151  0.2411  1.7700
 2451SOL    HW3 9878   0.371   3.962   4.373 -1.5840 -0.1423  1.0001
 2451SOL    MW4 9879   0.340   3.993   4.448 -0.5364  0.0000  1.3828
 2452SOL     OW 9880   1.304   3.784   4.049  0.1389 -0.1805  0.9253
 2452SOL    HW2 9881   1.257   3.826   3.978  0.0422  0.8137  1.5764
 2452SOL    HW3 9882   1.256   3.808   4.128  1.2235  0.1152  1.5499
 2452SOL    MW4 9883   1.292   3.792   4.050  0.2742 -0.0238  1.0967
 2453SOL     OW 9884   0.752   4.313   2.874 -0.1171 -0.0579 -0.7316
 2453SOL    HW2 9885   0.705   4.253   2.932 -0.6114  1.3566  0.4122
 2453SOL    HW3 9886   0.827   4.262   2.843  0.1398 -0.8723  1.1976
 2453SOL    MW4 9887   0.756   4.299   2.878 -0.1490  0.0477 -0.3099
 2454SOL     OW 9888   1.771   1.285   4.813 -0.1619  0.6050 -0.7102
 2454SOL    HW2 9889   1.773   1.270   4.907 -1.1511  0.4784 -0.7694
 2454SOL    HW3 9890   1.848   1.339   4.796  1.7778 -1.9962 -0.3025
 2454SOL    MW4 9891   1.781   1.290   4.823 -0.0477  0.2503 -0.6676
 2455SOL     OW 9892   2.259   4.061   4.058 -0.0170 -0.6250  0.2752
 2455SOL    HW2 9893   2.189   4.106   4.105  0.3876 -1.9219  2.2200
 2455SOL    HW3 9894   2.331   4.123   4.058 -0.2109 -0.3878  1.0020
 2455SOL    MW4 9895   2.259   4.075   4.064  0.0238 -0.8106  0.6199
 2456SOL     OW 9896   1.559   4.124   3.091 -0.3589 -0.5989 -0.3966
 2456SOL    HW2 9897   1.598   4.189   3.149 -1.7551 -0.4667  0.3620
 2456SOL    HW3 9898   1.567   4.041   3.137  0.3920 -0.8005 -0.8446
 2456SOL    MW4 9899   1.565   4.122   3.105 -0.4411 -0.6199 -0.3815
 2457SOL     OW 9900   0.639   0.287   3.169  1.0902 -0.0658 -0.1805
 2457SOL    HW2 9901   0.618   0.289   3.075  0.5446  1.6816 -0.0441
 2457SOL    HW3 9902   0.582   0.219   3.205  0.6271 -0.0868 -0.9739
 2457SOL    MW4 9903   0.629   0.278   3.161  0.9537  0.1609 -0.3099
 2458SOL     OW 9904   1.647   4.450   3.559  0.3976 -0.0850  0.0352
 2458SOL    HW2 9905   1.565   4.454   3.608  0.6714  0.3926  0.4306
 2458SOL    HW3 9906   1.634   4.509   3.486  0.1602 -0.4147 -0.2416
 2458SOL    MW4 9907   1.634   4.458   3.556  0.3934 -0.0954  0.0238
 2459SOL     OW 9908   1.259   0.701   3.463  0.2150 -0.2697 -0.4049
 2459SOL    HW2 9909   1.280   0.613   3.494 -0.2819 -0.1720  0.1924
 2459SOL    HW3 9910   1.178   0.724   3.509 -0.5681 -0.1647 -1.8656
 2459SOL    MW4 9911   1.251   0.693   3.473  0.0596 -0.2384 -0.5007
 2460SOL     OW 9912   1.408   0.703   4.834  0.3724 -1.0820  0.5523
 2460SOL    HW2 9913   1.321   0.715   4.796  0.5577 -0.8804  0.1561
 2460SOL    HW3 9914   1.440   0.792   4.849  1.2167 -1.1426 -0.9465
 2460SOL    MW4 9915   1.401   0.716   4.831  0.5007 -1.0729  0.3338
 2461SOL     OW 9916   1.934   1.001   4.487 -0.1543 -0.5079 -0.2708
 2461SOL    HW2 9917   1.961   1.002   4.579 -0.5369 -1.0863 -0.1414
 2461SOL    HW3 9918   1.843   1.030   4.489 -0.0017 -0.0547 -0.4774
 2461SOL    MW4 9919   1.926   1.005   4.500 -0.1907 -0.5364 -0.2384
 2462SOL     OW 9920   1.466   0.768   3.631  0.4628 -0.1690 -0.0852
 2462SOL    HW2 9921   1.446   0.708   3.703 -0.0365  0.8217  0.5945
 2462SOL    HW3 9922   1.395   0.756   3.568 -0.5170  0.8956  0.8060
 2462SOL    MW4 9923   1.454   0.758   3.632  0.2742  0.1073  0.1192
 2463SOL     OW 9924   1.107   1.817   3.641 -0.5502  0.0135 -0.1289
 2463SOL    HW2 9925   1.176   1.776   3.588 -0.7610  0.0466 -0.4525
 2463SOL    HW3 9926   1.139   1.811   3.731  0.1476  0.5825 -0.3559
 2463SOL    MW4 9927   1.120   1.811   3.646 -0.4768  0.0834 -0.2146
 2464SOL     OW 9928   0.390   1.711   4.398  0.0588  0.7784  0.1061
 2464SOL    HW2 9929   0.311   1.669   4.433 -0.5818  1.1674 -0.9099
 2464SOL    HW3 9930   0.458   1.644   4.407 -0.3461  0.4946  1.1164
 2464SOL    MW4 9931   0.389   1.696   4.404 -0.0805  0.7868  0.1431
 2465SOL     OW 9932   0.903   2.145   4.128  0.1029  0.1292 -0.2237
 2465SOL    HW2 9933   0.927   2.078   4.064  0.7806  0.1559 -0.0145
 2465SOL    HW3 9934   0.987   2.182   4.156 -0.2726  1.0156 -0.3062
 2465SOL    MW4 9935   0.917   2.141   4.123  0.1371  0.2623 -0.1907
 2466SOL     OW 9936   1.341   2.482   4.128 -0.0760 -0.5991 -0.2555
 2466SOL    HW2 9937   1.329   2.444   4.041  0.0260 -1.0754 -0.0079
 2466SOL    HW3 9938   1.399   2.421   4.173  0.5135  0.0693 -0.0516
 2466SOL    MW4 9939   1.347   2.469   4.123  0.0238 -0.5960 -0.2384
 2467SOL     OW 9940   1.259   2.512   3.829  0.0359 -0.4197 -0.4784
 2467SOL    HW2 9941   1.189   2.574   3.806 -0.0392 -0.4267 -0.1943
 2467SOL    HW3 9942   1.326   2.527   3.762 -0.8109 -1.3779 -1.5504
 2467SOL    MW4 9943   1.259   2.522   3.817 -0.0954 -0.5722 -0.5722
 2468SOL     OW 9944   0.031   2.950   4.715  0.3235 -0.5286 -0.0611
 2468SOL    HW2 9945   0.069   2.942   4.627 -2.2723 -0.6858 -1.2009
 2468SOL    HW3 9946  -0.001   3.041   4.719 -0.0227 -0.6730  0.5238
 2468SOL    MW4 9947   0.032   2.961   4.704 -0.0563 -0.5722 -0.1431
 2469SOL     OW 9948   1.149   3.002   3.399 -0.1007  0.4387 -0.0209
 2469SOL    HW2 9949   1.218   2.972   3.339 -0.4127  0.6199 -0.4744
 2469SOL    HW3 9950   1.180   2.977   3.486  0.1085 -0.2817 -0.3100
 2469SOL    MW4 9951   1.162   2.994   3.402 -0.1073  0.3576 -0.1192
 2470SOL     OW 9952   1.153   3.255   3.297 -0.0524  0.3938 -0.1784
 2470SOL    HW2 9953   1.161   3.311   3.373  0.2419  1.2844 -0.8620
 2470SOL    HW3 9954   1.153   3.166   3.332 -0.5539  0.8299  0.9476
 2470SOL    MW4 9955   1.154   3.250   3.311 -0.0834  0.5484 -0.1192
 2471SOL     OW 9956   0.328   3.564   4.473 -0.2073 -0.4519 -0.7095
 2471SOL    HW2 9957   0.269   3.640   4.467  1.2541  0.8204  1.1925
 2471SOL    HW3 9958   0.318   3.535   4.564  1.5045 -0.6884 -0.5714
 2471SOL    MW4 9959   0.319   3.570   4.484  0.2116 -0.3099 -0.4292
 2472SOL     OW 9960   4.441   4.276   4.182  0.4346  0.9276 -1.3639
 2472SOL    HW2 9961   4.425   4.215   4.110 -0.3748  1.1573 -1.4582
 2472SOL    HW3 9962   4.363   4.270   4.237  1.0760  0.7268 -0.5375
 2472SOL    MW4 9963   4.429   4.267   4.180  0.3815  0.9060 -1.2875
 2473SOL     OW 9964   1.631   2.641   4.025 -0.4776  0.8567  0.1716
 2473SOL    HW2 9965   1.557   2.593   4.062 -0.3087  0.6961  0.3156
 2473SOL    HW3 9966   1.643   2.716   4.084 -0.2269  0.6046  0.4204
 2473SOL    MW4 9967   1.623   2.645   4.038 -0.4172  0.8106  0.1907
 2474SOL     OW 9968   4.397   3.615   4.396 -0.3058 -0.5631 -0.1263
 2474SOL    HW2 9969   4.422   3.559   4.469 -0.2932 -0.4028 -0.0626
 2474SOL    HW3 9970   4.475   3.667   4.378 -0.3045 -0.6532 -0.3470
 2474SOL    MW4 9971   4.410   3.615   4.403 -0.3338 -0.5484 -0.1907
 2475SOL     OW 9972   0.795   3.999   3.735 -0.2426  1.2997  0.4353
 2475SOL    HW2 9973   0.844   3.950   3.669  1.4521  0.9918  1.8911
 2475SOL    HW3 9974   0.823   4.089   3.723 -0.2857  1.3200  0.4077
 2475SOL    MW4 9975   0.805   4.004   3.725 -0.0238  1.2398  0.5960
 2476SOL     OW 9976   1.540   3.490   2.479 -0.4539 -0.3510  0.2887
 2476SOL    HW2 9977   1.469   3.552   2.459 -0.2971  0.1855  1.4274
 2476SOL    HW3 9978   1.615   3.522   2.428 -0.7799 -0.4210 -0.2392
 2476SOL    MW4 9979   1.541   3.503   2.470 -0.4888 -0.3099  0.3815
 2477SOL     OW 9980   1.369   3.516   3.841  0.1442  0.0722 -0.6179
 2477SOL    HW2 9981   1.335   3.503   3.929  0.3094  0.0165 -0.5487
 2477SOL    HW3 9982   1.462   3.536   3.854  0.3427 -0.7069 -0.8264
 2477SOL    MW4 9983   1.377   3.517   3.854  0.1907 -0.0477 -0.6437
 2478SOL     OW 9984   1.631   3.868   3.539 -0.6371 -0.0088  0.0251
 2478SOL    HW2 9985   1.713   3.903   3.506 -1.6460  1.0690 -1.2975
 2478SOL    HW3 9986   1.628   3.896   3.631  0.5097 -0.1196  0.1161
 2478SOL    MW4 9987   1.641   3.876   3.547 -0.6199  0.1192 -0.1431
 2479SOL     OW 9988   1.017   3.984   3.229  0.3814 -0.1495 -0.0342
 2479SOL    HW2 9989   0.977   3.971   3.315  0.7295  0.1480  0.1753
 2479SOL    HW3 9990   1.078   3.911   3.219  0.1731 -0.3208 -0.1279
 2479SOL    MW4 9991   1.020   3.973   3.239  0.4053 -0.1431  0.0000
 2480SOL     OW 9992   1.374   0.085   3.249  0.4268 -0.0476  0.3194
 2480SOL    HW2 9993   1.294   0.062   3.295  0.6421 -0.0491  0.6870
 2480SOL    HW3 9994   1.369   0.039   3.166 -0.5126  0.9062 -0.1678
 2480SOL    MW4 9995   1.363   0.076   3.244  0.3219  0.0782  0.2861
 2481SOL     OW 9996   1.408   0.365   3.209 -0.1512 -0.3094  0.4519
 2481SOL    HW2 9997   1.318   0.394   3.199  0.0233  0.2568  0.6033
 2481SOL    HW3 9998   1.401   0.270   3.222 -0.7051 -0.3186  0.0916
 2481SOL    MW4 9999   1.395   0.356   3.209 -0.2027 -0.2384  0.4053
 2482SOL     OW10000   1.703   4.571   3.096  0.2563 -0.5611  0.1977
 2482SOL    HW210001   1.703   4.665   3.082  0.5672 -0.6307 -0.1296
 2482SOL    HW310002   1.793   4.543   3.078  0.1202 -0.9253  0.1372
 2482SOL    MW410003   1.715   4.579   3.092  0.2861 -0.6676  0.1192
 2483SOL     OW10004   2.061   3.959   3.914  0.4569 -0.9070 -0.8855
 2483SOL    HW210005   1.986   3.996   3.961  0.4996 -2.8802  0.7400
 2483SOL    HW310006   2.137   3.998   3.956  0.3825 -0.3059 -1.3081
 2483SOL    MW410007   2.061   3.969   3.926  0.4530 -1.0967 -0.7153
 2484SOL     OW10008   1.378   0.460   3.605  0.5539  0.2012  0.1777
 2484SOL    HW210009   1.456   0.479   3.552 -0.1293  1.5106 -0.3574
 2484SOL    HW310010   1.352   0.372   3.577  0.9450  0.3648 -0.7685
 2484SOL    MW410011   1.385   0.451   3.594  0.5245  0.3934 -0.0238
 2485SOL     OW10012   1.438   0.341   3.967  0.3369 -0.9965  0.0007
 2485SOL    HW210013   1.365   0.400   3.948 -0.3756 -1.5575  0.9421
 2485SOL    HW310014   1.517   0.394   3.953 -0.2950  0.1383  0.8273
 2485SOL    MW410015   1.439   0.356   3.962  0.1550 -0.9209  0.2384
 2486SOL     OW10016   1.134   1.406   3.745 -0.1053  0.1158 -0.0916
 2486SOL    HW210017   1.161   1.322   3.783 -0.1991 -0.5179 -1.4585
 2486SOL    HW310018   1.208   1.464   3.761 -0.5017  0.0735  1.8222
 2486SOL    MW410019   1.148   1.403   3.752 -0.1669  0.0358  0.0000
 2487SOL     OW10020   1.250   1.109   4.156 -0.6317 -0.7637  0.5389
 2487SOL    HW210021   1.268   1.141   4.068 -0.5787 -1.2617  0.3406
 2487SOL    HW310022   1.315   1.154   4.211  0.0693 -1.3276  0.1181
 2487SOL    MW410023   1.261   1.120   4.152 -0.5364 -0.9179  0.4768
 2488SOL     OW10024   1.482   1.528   4.059 -0.6145 -0.5353 -0.4546
 2488SOL    HW210025   1.574   1.554   4.051 -1.0008  1.1900  0.3917
 2488SOL    HW310026   1.441   1.559   3.978 -0.7367 -0.1357 -0.1978
 2488SOL    MW410027   1.489   1.536   4.048 -0.6795 -0.2503 -0.2861
 2489SOL     OW10028   0.982   1.160   4.064 -0.6981 -0.0104  0.5476
 2489SOL    HW210029   0.935   1.227   4.113  0.1208  0.0889  1.1871
 2489SOL    HW310030   1.059   1.141   4.117 -1.2583 -1.9205  0.6493
 2489SOL    MW410031   0.986   1.166   4.078 -0.6616 -0.2503  0.6199
 2490SOL     OW10032   1.387   1.789   4.267 -0.0585 -0.7115 -0.4320
 2490SOL    HW210033   1.351   1.877   4.257 -0.7014 -0.8114  0.9013
 2490SOL    HW310034   1.481   1.801   4.267 -0.1344 -0.0263 -0.3936
 2490SOL    MW410035   1.394   1.802   4.265 -0.1550 -0.6318 -0.1907
 2491SOL     OW10036   0.883   2.888   3.020  0.7209 -0.4417 -0.7450
 2491SOL    HW210037   0.790   2.906   3.028  0.5626 -1.3273 -0.6559
 2491SOL    HW310038   0.891   2.794   3.037  1.5090 -0.5281 -1.4871
 2491SOL    MW410039   0.872   2.878   3.023  0.8106 -0.5722 -0.8106
 2492SOL     OW10040   1.049   2.333   3.937 -0.0210 -0.4020 -0.9865
 2492SOL    HW210041   1.028   2.392   4.010 -1.5254 -0.5059 -1.3787
 2492SOL    HW310042   1.108   2.385   3.881  1.1732 -0.3575  0.3369
 2492SOL    MW410043   1.054   2.348   3.939 -0.0596 -0.3815 -0.8583
 2493SOL     OW10044   0.543   3.824   2.467 -0.5159  0.5721  0.6736
 2493SOL    HW210045   0.513   3.764   2.536 -0.2097  0.0501  0.3369
 2493SOL    HW310046   0.625   3.785   2.436 -1.8482 -0.3780 -1.5925
 2493SOL    MW410047   0.550   3.811   2.472 -0.6557  0.3576  0.3338
 2494SOL     OW10048   1.214   3.638   2.968 -0.1368 -0.8343 -0.3421
 2494SOL    HW210049   1.251   3.722   2.995 -0.4887 -0.0598 -2.2977
 2494SOL    HW310050   1.290   3.585   2.942  0.2110 -1.5242  1.9685
 2494SOL    MW410051   1.229   3.642   2.968 -0.1311 -0.8345 -0.2861
 2495SOL     OW10052   1.785   3.725   2.982  0.7104 -0.4529  0.1257
 2495SOL    HW210053   1.769   3.755   2.892  0.4219 -0.0626  0.2720
 2495SOL    HW310054   1.698   3.717   3.021  0.8410 -0.7548  0.3141
 2495SOL    MW410055   1.772   3.728   2.975  0.6914 -0.4292  0.1669
 2496SOL     OW10056   0.788   3.712   2.375 -0.7586  0.1599 -0.8065
 2496SOL    HW210057   0.812   3.685   2.287 -1.9839 -1.0191 -0.7880
 2496SOL    HW310058   0.773   3.630   2.422 -0.5889  0.8182  0.3575
 2496SOL    MW410059   0.789   3.698   2.370 -0.8941  0.0715 -0.6437
 2497SOL     OW10060   2.482   3.433   3.355 -0.1844 -0.7057  0.2886
 2497SOL    HW210061   2.456   3.465   3.441 -0.4136  0.1947 -0.1324
 2497SOL    HW310062   2.403   3.392   3.320 -0.5803  0.4506 -0.2249
 2497SOL    MW410063   2.468   3.432   3.362 -0.2861 -0.4530  0.1907
 2498SOL     OW10064   2.056   2.938   2.915 -0.0060  0.2907 -0.3893
 2498SOL    HW210065   2.076   2.929   3.008  1.8049 -0.4882 -0.8718
 2498SOL    HW310066   1.961   2.951   2.912  0.0106  0.7160  1.5546
 2498SOL    MW410067   2.046   2.938   2.926  0.2384  0.2384 -0.1669
 2499SOL     OW10068   2.042   3.402   3.730 -0.3349  0.3543 -1.1040
 2499SOL    HW210069   2.104   3.417   3.801  0.9775  0.0740 -2.1712
 2499SOL    HW310070   1.994   3.323   3.755  0.8925 -0.3733 -1.0117
 2499SOL    MW410071   2.044   3.394   3.742 -0.0238  0.2146 -1.2398
 2500SOL     OW10072   1.635   3.605   3.875 -0.7928 -0.0292 -0.7427
 2500SOL    HW210073   1.704   3.599   3.941  1.1661  0.0632 -2.7613
 2500SOL    HW310074   1.628   3.698   3.855 -1.0242 -0.1047 -1.0769
 2500SOL    MW410075   1.643   3.616   3.881 -0.5722  0.0000 -1.0490
 2501SOL     OW10076   1.370   4.607   4.378  0.6225  0.3623  0.3357
 2501SOL    HW210077   1.350   4.693   4.341 -1.1530  0.1998  0.7769
 2501SOL    HW310078   1.324   4.605   4.462  2.3490 -0.2182  1.2693
 2501SOL    MW410079   1.362   4.618   4.384  0.6080  0.2861  0.4768
 2502SOL     OW10080   1.612   4.062   4.266 -0.0935 -0.5467  0.7482
 2502SOL    HW210081   1.672   4.019   4.205  0.4271  0.2974  0.6574
 2502SOL    HW310082   1.602   4.151   4.231 -2.9022 -1.2480 -0.3118
 2502SOL    MW410083   1.619   4.068   4.253 -0.3934 -0.4768  0.6676
 2503SOL     OW10084   1.957   4.344   4.559  0.8750 -0.0987  0.9965
 2503SOL    HW210085   1.941   4.257   4.595 -0.8612  0.6554  2.0509
 2503SOL    HW310086   1.915   4.342   4.473  0.3979 -0.1097  1.2029
 2503SOL    MW410087   1.949   4.332   4.553  0.5841  0.0000  1.1921
 2504SOL     OW10088   1.456   3.999   3.950  0.5023 -0.3952  0.6084
 2504SOL    HW210089   1.415   3.926   3.996  1.5623 -2.2455 -1.4368
 2504SOL    HW310090   1.389   4.068   3.951 -1.4470 -2.3119  0.1520
 2504SOL    MW410091   1.442   3.999   3.956  0.3815 -0.9060  0.2623
 2505SOL     OW10092   1.843   0.594   3.321 -0.5235  0.5704 -0.1260
 2505SOL    HW210093   1.759   0.595   3.366 -0.3318  1.1571  0.2437
 2505SOL    HW310094   1.901   0.543   3.378 -0.6666  0.0503 -0.4180
 2505SOL    MW410095   1.840   0.587   3.335 -0.5245  0.5782 -0.0954
 2506SOL     OW10096   1.623   0.219   3.477  0.0370 -0.3340 -0.5020
 2506SOL    HW210097   1.576   0.155   3.424 -1.0809  0.7833 -0.8380
 2506SOL    HW310098   1.631   0.179   3.563  0.3801 -1.4472 -1.0624
 2506SOL    MW410099   1.618   0.206   3.481 -0.0596 -0.3338 -0.6199
 2507SOL     OW10100   1.533   0.816   4.115 -0.1166  0.1422 -0.3373
 2507SOL    HW210101   1.592   0.850   4.048  1.5348 -1.0387  0.5688
 2507SOL    HW310102   1.562   0.859   4.196 -1.1538  0.4096 -0.0741
 2507SOL    MW410103   1.545   0.826   4.117 -0.0238  0.0238 -0.1431
 2508SOL     OW10104   1.623   4.321   4.175  0.2099 -0.9929 -0.4401
 2508SOL    HW210105   1.604   4.394   4.234 -0.1886 -1.2998 -0.2162
 2508SOL    HW310106   1.584   4.348   4.092 -0.3687 -1.1229 -0.2224
 2508SOL    MW410107   1.615   4.334   4.172  0.0715 -1.0490 -0.3815
 2509SOL     OW10108   1.534   0.130   3.782  0.1873 -0.8555 -0.0350
 2509SOL    HW210109   1.596   0.073   3.827  1.0169 -0.1604 -0.2784
 2509SOL    HW310110   1.501   0.189   3.850 -0.6890 -1.6754  0.2552
 2509SOL    MW410111   1.538   0.130   3.797  0.1788 -0.8717 -0.0238
 2510SOL     OW10112   1.287   0.894   3.919 -0.1828  0.1714 -0.6445
 2510SOL    HW210113   1.311   0.844   3.997  0.0491  0.2798 -0.6579
 2510SOL    HW310114   1.353   0.870   3.854 -0.0471  0.4876 -0.6321
 2510SOL    MW410115   1.299   0.885   3.921 -0.1073  0.2205 -0.6437
 2511SOL     OW10116   1.287   1.178   3.887 -0.0272 -0.1390 -0.1242
 2511SOL    HW210117   1.291   1.083   3.876  0.4231 -0.0498 -0.9438
 2511SOL    HW310118   1.378   1.204   3.904 -0.1437  0.1094  0.1901
 2511SOL    MW410119   1.300   1.169   3.888  0.0358 -0.1073 -0.1907
 2512SOL     OW10120   0.246   3.146   4.086 -0.0609  0.2794 -0.1223
 2512SOL    HW210121   0.259   3.135   4.181 -1.2636 -1.2340 -0.1523
 2512SOL    HW310122   0.335   3.148   4.050  0.3066 -3.1157  0.5979
 2512SOL    MW410123   0.260   3.145   4.094 -0.1729 -0.3815  0.0000
 2513SOL     OW10124   1.713   1.411   4.289 -0.0384 -0.5920  0.1096
 2513SOL    HW210125   1.632   1.389   4.334  0.1523 -1.3383  0.0961
 2513SOL    HW310126   1.770   1.447   4.357 -0.2961 -0.2837  0.1350
 2513SOL    MW410127   1.710   1.413   4.304 -0.0477 -0.6557  0.1431
 2514SOL     OW10128   1.864   1.533   4.484 -0.3976  0.1202  0.4525
 2514SOL    HW210129   1.938   1.517   4.543  0.2614  2.0970  0.2758
 2514SOL    HW310130   1.806   1.591   4.533 -1.1962 -0.4634  0.2809
 2514SOL    MW410131   1.867   1.539   4.498 -0.4053  0.2980  0.3815
 2515SOL     OW10132   2.264   2.704   3.296 -0.1184 -0.4768  0.0374
 2515SOL    HW210133   2.328   2.649   3.341  0.6520 -0.5547 -1.1027
 2515SOL    HW310134   2.310   2.786   3.279 -0.4479 -0.4154 -0.4876
 2515SOL    MW410135   2.278   2.708   3.300 -0.0238 -0.5007 -0.1907
 2516SOL     OW10136   1.824   2.615   3.430 -0.1252  0.1878 -0.1905
 2516SOL    HW210137   1.872   2.537   3.403 -0.3328 -0.1613  0.5223
 2516SOL    HW310138   1.863   2.686   3.379  0.6249 -0.2004 -0.1678
 2516SOL    MW410139   1.835   2.614   3.420 -0.0596  0.0954 -0.0954
 2517SOL     OW10140   1.737   3.158   2.478  0.0159 -0.5215 -0.3481
 2517SOL    HW210141   1.728   3.253   2.473 -1.1488 -0.6716 -1.1602
 2517SOL    HW310142   1.703   3.136   2.565  0.2201 -0.2612 -0.2149
 2517SOL    MW410143   1.731   3.168   2.489 -0.1192 -0.5007 -0.4530
 2518SOL     OW10144   3.199   3.103   3.614  0.6999  0.1443 -0.1271
 2518SOL    HW210145   3.151   3.083   3.534 -0.0613 -1.4430  0.7231
 2518SOL    HW310146   3.131   3.124   3.678  1.1807 -1.2118  0.8464
 2518SOL    MW410147   3.184   3.103   3.612  0.6676 -0.2384  0.1431
 2519SOL     OW10148   0.172   3.501   4.775 -0.0860 -0.4551 -0.1928
 2519SOL    HW210149   0.202   3.590   4.756 -0.8041  0.1938  1.6990
 2519SOL    HW310150   0.212   3.480   4.860 -3.0584 -0.4338  1.2239
 2519SOL    MW410151   0.181   3.510   4.784 -0.5722 -0.3815  0.2384
 2520SOL     OW10152   1.157   3.102   3.895  0.2896  0.0340 -0.0617
 2520SOL    HW210153   1.179   3.046   3.821  0.7192  1.3449 -0.9021
 2520SOL    HW310154   1.224   3.170   3.895  0.6728 -0.3496  1.9468
 2520SOL    MW410155   1.169   3.104   3.886  0.3934  0.1192  0.1192
 2521SOL     OW10156   1.414   2.955   2.912 -0.2857  0.1743 -0.7016
 2521SOL    HW210157   1.375   2.939   2.998  0.4791  0.3181 -0.3263
 2521SOL    HW310158   1.491   2.899   2.910  0.0190  0.6308 -1.0668
 2521SOL    MW410159   1.419   2.945   2.923 -0.1550  0.2384 -0.6914
 2522SOL     OW10160   1.272   2.922   3.693 -0.0623 -0.4601 -0.8118
 2522SOL    HW210161   1.338   2.872   3.741 -0.9444 -0.5058  0.3548
 2522SOL    HW310162   1.322   2.970   3.627  1.0950 -0.8681 -0.2552
 2522SOL    MW410163   1.287   2.922   3.691 -0.0119 -0.5484 -0.5960
 2523SOL     OW10164   1.615   2.986   3.206  0.0572 -0.3932 -0.3015
 2523SOL    HW210165   1.627   3.075   3.237  0.0284 -0.0006 -1.4869
 2523SOL    HW310166   1.523   2.967   3.222 -0.4571  0.5402 -2.0706
 2523SOL    MW410167   1.605   2.995   3.212 -0.0238 -0.2146 -0.6914
 2524SOL     OW10168   1.541   2.294   4.240  0.1878 -0.7361 -0.1179
 2524SOL    HW210169   1.622   2.340   4.221 -0.4128  0.3153 -0.1518
 2524SOL    HW310170   1.539   2.221   4.178  0.2069  0.2989 -1.2786
 2524SOL    MW410171   1.551   2.290   4.229  0.1192 -0.4768 -0.2384
 2525SOL     OW10172   0.757   2.696   4.268 -0.2778  0.3833 -0.2899
 2525SOL    HW210173   0.712   2.618   4.235  0.8709  0.2054 -1.3171
 2525SOL    HW310174   0.688   2.763   4.273 -1.0863 -0.4438 -0.0906
 2525SOL    MW410175   0.742   2.694   4.264 -0.2384  0.2384 -0.4292
 2526SOL     OW10176   2.204   3.397   4.217  0.2882 -0.8401 -0.1759
 2526SOL    HW210177   2.260   3.364   4.287  1.9907  1.2623 -0.6048
 2526SOL    HW310178   2.150   3.321   4.193  0.0272 -1.6573  3.0316
 2526SOL    MW410179   2.204   3.382   4.223  0.5007 -0.6676  0.1907
 2527SOL     OW10180   2.288   4.531   3.564 -0.7444  0.9239  0.4434
 2527SOL    HW210181   2.362   4.568   3.613 -0.8120  0.4064  0.9536
 2527SOL    HW310182   2.311   4.439   3.552 -1.8915  0.4070  1.7393
 2527SOL    MW410183   2.301   4.524   3.569 -0.9060  0.7153  0.6676
 2528SOL     OW10184   2.294   2.695   4.780  0.3675  0.0597  0.1108
 2528SOL    HW210185   2.242   2.723   4.705  1.9038  0.5751 -0.7947
 2528SOL    HW310186   2.267   2.604   4.795  0.8296 -0.3712 -1.7303
 2528SOL    MW410187   2.284   2.687   4.772  0.6199  0.0954 -0.2384
 2529SOL     OW10188   2.277   4.658   3.314 -0.2502  0.0667 -0.0617
 2529SOL    HW210189   2.291   4.623   3.402 -1.3480  0.6513  0.3337
 2529SOL    HW310190   2.183   4.647   3.299 -0.0848  0.0463 -1.1197
 2529SOL    MW410191   2.267   4.652   3.324 -0.3815  0.1431 -0.1431
 2530SOL     OW10192   2.523   0.922   4.391  0.0396 -0.0731  0.0187
 2530SOL    HW210193   2.510   0.927   4.486  2.0518 -1.2628  0.3436
 2530SOL    HW310194   2.536   1.013   4.364  0.3469  0.1735  0.9960
 2530SOL    MW410195   2.523   0.935   4.400  0.3338 -0.1967  0.1907
 2531SOL     OW10196   1.725   1.138   4.172 -0.5671  0.2877  0.2552
 2531SOL    HW210197   1.735   1.221   4.219  0.1649  0.2080  0.2109
 2531SOL    HW310198   1.808   1.093   4.186 -0.6287 -0.0468 -0.5313
 2531SOL    MW410199   1.737   1.143   4.180 -0.4768  0.2265  0.1431
 2532SOL     OW10200   1.722   0.624   4.140  0.0315  0.8638 -0.3907
 2532SOL    HW210201   1.708   0.554   4.203  0.8258  0.2379 -0.8576
 2532SOL    HW310202   1.640   0.674   4.141 -0.3351  0.2500  0.3986
 2532SOL    MW410203   1.710   0.621   4.148  0.0954  0.6974 -0.3338
 2533SOL     OW10204   2.073   1.365   3.665 -0.0183  0.1504  0.1731
 2533SOL    HW210205   2.035   1.358   3.578 -1.1273 -1.5679  0.8058
 2533SOL    HW310206   2.003   1.399   3.720  0.5356  0.8055  0.5006
 2533SOL    MW410207   2.059   1.369   3.661 -0.0954  0.0119  0.2861
 2534SOL     OW10208   1.462   1.267   4.298 -0.3864 -0.0466 -0.7367
 2534SOL    HW210209   1.453   1.256   4.393 -0.8077 -0.9671 -0.9160
 2534SOL    HW310210   1.401   1.338   4.276  0.9597  1.2933 -0.0667
 2534SOL    MW410211   1.453   1.275   4.307 -0.2623  0.0000 -0.7153
 2535SOL     OW10212   2.216   1.060   4.468 -0.1782 -0.3574  0.9394
 2535SOL    HW210213   2.130   1.020   4.474  0.3099 -1.6330 -0.8489
 2535SOL    HW310214   2.208   1.125   4.398  0.2496 -0.2517  1.0015
 2535SOL    MW410215   2.204   1.063   4.460 -0.0477 -0.5126  0.7629
 2536SOL     OW10216   2.397   2.851   3.665  0.5329  0.5868  0.0814
 2536SOL    HW210217   2.446   2.812   3.736  0.0190  0.5534  0.4216
 2536SOL    HW310218   2.333   2.785   3.640  0.0612  1.0039  0.2170
 2536SOL    MW410219   2.395   2.837   3.671  0.3815  0.6199  0.1431
 2537SOL     OW10220   0.509   3.663   4.175  0.5167  0.1929 -0.1742
 2537SOL    HW210221   0.520   3.578   4.217 -1.0084 -0.5444 -1.2862
 2537SOL    HW310222   0.526   3.727   4.245  3.1215 -1.0420  0.2365
 2537SOL    MW410223   0.512   3.660   4.190  0.6616 -0.0715 -0.2861
 2538SOL     OW10224   2.526   2.692   3.844 -0.1368  0.3687  0.0339
 2538SOL    HW210225   2.587   2.628   3.806  0.8650  1.0356  0.4683
 2538SOL    HW310226   2.497   2.652   3.925  0.4843  0.4389  0.2957
 2538SOL    MW410227   2.530   2.678   3.850  0.0477  0.4530  0.1192
 2539SOL     OW10228   3.138   2.731   3.627  0.0990 -0.0426 -0.0624
 2539SOL    HW210229   3.090   2.700   3.705  0.2400  0.1686  0.1650
 2539SOL    HW310230   3.181   2.811   3.656  1.3946 -0.7929  0.1092
 2539SOL    MW410231   3.137   2.738   3.641  0.2861 -0.1192 -0.0238
 2540SOL     OW10232   2.551   3.183   3.109  0.4804  0.2269 -0.6517
 2540SOL    HW210233   2.618   3.197   3.176  1.1256 -0.2352 -1.2024
 2540SOL    HW310234   2.537   3.088   3.109  0.4967  0.1948 -1.2051
 2540SOL    MW410235   2.558   3.172   3.118  0.5484  0.1669 -0.7868
 2541SOL     OW10236   2.562   2.752   3.061  0.1904 -0.6185 -0.1293
 2541SOL    HW210237   2.524   2.783   3.143 -2.6386  0.4388 -1.7936
 2541SOL    HW310238   2.566   2.831   3.006  1.2279 -1.5147 -1.2979
 2541SOL    MW410239   2.557   2.767   3.064 -0.0477 -0.5960 -0.5007
 2542SOL     OW10240   2.700   3.118   3.610  0.3216 -0.2371  0.5291
 2542SOL    HW210241   2.704   3.100   3.704 -0.3603 -0.8855  0.4431
 2542SOL    HW310242   2.770   3.182   3.595  0.3523 -0.0228  1.4698
 2542SOL    MW410243   2.710   3.124   3.621  0.2623 -0.2861  0.6199
 2543SOL     OW10244   2.906   3.602   4.133 -0.0900 -0.3149 -0.2056
 2543SOL    HW210245   2.917   3.682   4.184  0.6335 -0.5011 -0.0470
 2543SOL    HW310246   2.884   3.632   4.045  0.6231  0.0243 -0.2686
 2543SOL    MW410247   2.905   3.616   4.128  0.0954 -0.2861 -0.1907
 2544SOL     OW10248   1.217   3.362   4.119 -0.2586  0.3197 -1.0887
 2544SOL    HW210249   1.128   3.395   4.104  0.4962  2.2594 -1.2343
 2544SOL    HW310250   1.238   3.390   4.208 -0.2627 -1.1149 -0.6147
 2544SOL    MW410251   1.208   3.370   4.129 -0.1550  0.3576 -1.0490
 2545SOL     OW10252   2.080   2.835   3.453 -0.2169 -0.3209  0.1754
 2545SOL    HW210253   2.129   2.916   3.442 -1.8470  0.5066 -0.8999
 2545SOL    HW310254   2.127   2.770   3.401 -0.0860  0.4266 -0.6360
 2545SOL    MW410255   2.092   2.837   3.445 -0.4053 -0.1192 -0.0715
 2546SOL     OW10256   3.039   2.700   3.898 -0.0140  0.0802 -0.1199
 2546SOL    HW210257   3.028   2.628   3.961  0.4190 -0.9988 -1.2610
 2546SOL    HW310258   2.950   2.733   3.884 -0.1213  0.3852  1.1487
 2546SOL    MW410259   3.026   2.695   3.904  0.0477 -0.0238 -0.0954
 2547SOL     OW10260   1.695   2.985   4.550 -0.3341 -0.9556 -0.2981
 2547SOL    HW210261   1.683   2.933   4.630  0.5709 -0.2822  0.2866
 2547SOL    HW310262   1.789   2.996   4.542 -0.6242  1.9533  0.4738
 2547SOL    MW410263   1.706   2.979   4.560 -0.2503 -0.4768 -0.0954
 2548SOL     OW10264   1.876   3.290   4.510 -0.4953 -0.8529 -0.7604
 2548SOL    HW210265   1.917   3.348   4.446 -0.3146 -2.3740 -2.0376
 2548SOL    HW310266   1.870   3.343   4.590  0.2120  0.6605 -1.7334
 2548SOL    MW410267   1.880   3.305   4.512 -0.3695 -0.8583 -1.0490
 2549SOL     OW10268   2.325   3.677   4.167 -0.0520 -0.8975 -0.4088
 2549SOL    HW210269   2.242   3.678   4.119  0.0584 -0.7721 -0.5781
 2549SOL    HW310270   2.317   3.602   4.227 -0.1153 -1.1668 -0.7358
 2549SOL    MW410271   2.313   3.667   4.168 -0.0238 -0.9060 -0.4292
 2550SOL     OW10272   2.245   3.889   4.338  0.0621 -0.5660  0.5041
 2550SOL    HW210273   2.275   3.807   4.299 -0.4555 -0.3948 -0.2416
 2550SOL    HW310274   2.270   3.956   4.275  1.4342 -0.0514  1.6251
 2550SOL    MW410275   2.252   3.887   4.325  0.1907 -0.4768  0.5722
 2551SOL     OW10276   2.125   4.382   4.153  0.5785 -0.1243  0.1965
 2551SOL    HW210277   2.188   4.455   4.156 -0.9342  1.1962 -0.2771
 2551SOL    HW310278   2.095   4.381   4.062  1.1929 -1.8227 -0.0465
 2551SOL    MW410279   2.130   4.392   4.141  0.4530 -0.2384  0.1431
 2552SOL     OW10280   1.814   4.497   3.960  0.0153 -0.8390 -0.1569
 2552SOL    HW210281   1.835   4.578   4.008 -0.5949 -0.3730 -0.5372
 2552SOL    HW310282   1.888   4.483   3.902  1.0896 -1.6307  1.4112
 2552SOL    MW410283   1.826   4.506   3.959  0.0715 -0.9060 -0.0238
 2553SOL     OW10284   2.506   0.606   4.242  0.9377 -0.4872  0.4741
 2553SOL    HW210285   2.446   0.638   4.175  1.2343  0.9481  0.9237
 2553SOL    HW310286   2.450   0.589   4.318  0.8634 -0.5449  0.4040
 2553SOL    MW410287   2.490   0.608   4.244  0.9775 -0.3099  0.5722
 2554SOL     OW10288   3.488   0.027   4.713  0.4927  0.1432  0.2433
 2554SOL    HW210289   3.527   0.101   4.667 -0.1813 -0.9088 -2.0228
 2554SOL    HW310290   3.447  -0.026   4.645  1.2166 -2.4566  1.8037
 2554SOL    MW410291   3.487   0.030   4.698  0.5007 -0.3414  0.0954
 2555SOL     OW10292   4.100   0.004   4.232 -0.7874 -0.5280 -0.3237
 2555SOL    HW210293   4.136  -0.012   4.319 -0.7792 -1.0299 -0.4128
 2555SOL    HW310294   4.107   0.099   4.220  1.0367 -0.6851 -0.5101
 2555SOL    MW410295   4.106   0.015   4.241 -0.5722 -0.6119 -0.3815
 2556SOL     OW10296   1.705   0.460   4.673  0.5700 -0.0854 -0.7937
 2556SOL    HW210297   1.685   0.388   4.733  1.7440  0.7670  0.5801
 2556SOL    HW310298   1.748   0.525   4.727  0.4196  1.2554 -2.3029
 2556SOL    MW410299   1.708   0.459   4.688  0.7033  0.2056 -0.8106
 2557SOL     OW10300   2.429   1.551   4.259 -0.4751  0.7826  0.4903
 2557SOL    HW210301   2.432   1.581   4.168 -1.7965 -1.6178 -0.3710
 2557SOL    HW310302   2.521   1.551   4.286  0.5711 -4.7003 -2.8885
 2557SOL    MW410303   2.441   1.555   4.250 -0.5245 -0.2623 -0.0477
 2558SOL     OW10304   1.136   0.461   4.580 -0.0395 -0.2040  0.0277
 2558SOL    HW210305   1.059   0.481   4.632 -0.8095 -1.4205 -0.6321
 2558SOL    HW310306   1.136   0.365   4.572  0.6743 -0.1074 -1.2344
 2558SOL    MW410307   1.126   0.451   4.586 -0.0477 -0.3487 -0.1431
 2559SOL     OW10308   3.600   0.997   4.368 -0.4129 -0.9819  0.4911
 2559SOL    HW210309   3.587   0.992   4.274 -0.1323 -0.1404  0.3840
 2559SOL    HW310310   3.665   1.067   4.380  0.7626 -2.1762  1.2215
 2559SOL    MW410311   3.607   1.006   4.358 -0.2146 -1.0252  0.5722
 2560SOL     OW10312   3.889   0.039   4.965  0.3131 -0.2691 -0.8409
 2560SOL    HW210313   3.804   0.004   4.938  0.4646 -0.0866 -1.6492
 2560SOL    HW310314   3.878   0.062   5.057 -0.0410 -1.6388 -0.5478
 2560SOL    MW410315   3.877   0.037   4.973  0.3099 -0.4258 -0.9060
 2561SOL     OW10316   2.021   0.968   4.768 -0.2829 -0.4621 -0.5134
 2561SOL    HW210317   1.948   0.989   4.827  0.0788  0.5083 -0.4254
 2561SOL    HW310318   2.055   1.053   4.740  0.5267 -0.9041 -0.9199
 2561SOL    MW410319   2.016   0.982   4.772 -0.1192 -0.3934 -0.5722
 2562SOL     OW10320   4.253   4.514   4.066  0.8252 -0.0778 -1.3474
 2562SOL    HW210321   4.205   4.570   4.126  2.7288  0.4017 -0.2616
 2562SOL    HW310322   4.260   4.429   4.111  1.4034  0.0076 -1.2178
 2562SOL    MW410323   4.248   4.510   4.080  1.1444  0.0000 -1.1921
 2563SOL     OW10324   2.916   2.142   3.906 -0.8766  0.0304 -0.4241
 2563SOL    HW210325   2.968   2.222   3.893 -0.9332  0.2293  0.5545
 2563SOL    HW310326   2.980   2.071   3.907 -0.4516  0.4798  2.7216
 2563SOL    MW410327   2.931   2.143   3.905 -0.8345  0.1192  0.1192
 2564SOL     OW10328   3.173   1.692   4.225  0.0050  0.4489  0.4103
 2564SOL    HW210329   3.198   1.756   4.292  1.8844  1.1208 -0.9080
 2564SOL    HW310330   3.126   1.743   4.160  2.8181  0.7732 -1.3962
 2564SOL    MW410331   3.170   1.707   4.226  0.6437  0.5841  0.0000
 2565SOL     OW10332   4.454   2.200   4.442  0.7566 -0.6634  0.3888
 2565SOL    HW210333   4.503   2.267   4.394  1.0722 -1.4782 -0.4926
 2565SOL    HW310334   4.368   2.239   4.457  1.5587  0.6306  1.5706
 2565SOL    MW410335   4.449   2.214   4.438  0.9060 -0.6199  0.4292
 2566SOL     OW10336   2.900   1.785   4.065  0.4687 -0.3449 -0.2599
 2566SOL    HW210337   2.904   1.880   4.069 -0.1433 -0.3536  0.6381
 2566SOL    HW310338   2.836   1.761   4.131  1.2574 -1.4144  0.1451
 2566SOL    MW410339   2.892   1.794   4.074  0.4768 -0.4888 -0.0954
 2567SOL     OW10340   2.483   4.261   3.459 -0.5482 -0.1929  0.0048
 2567SOL    HW210341   2.555   4.201   3.476 -1.2838 -1.2179 -0.5219
 2567SOL    HW310342   2.522   4.332   3.409 -0.0799 -1.1189 -0.9965
 2567SOL    MW410343   2.497   4.262   3.455 -0.5960 -0.4292 -0.1669
 2568SOL     OW10344   3.656   3.698   4.506  0.0743  0.7965 -0.5926
 2568SOL    HW210345   3.740   3.686   4.550  0.0792  1.3467 -0.4422
 2568SOL    HW310346   3.611   3.614   4.518 -0.0686  1.0670  0.7563
 2568SOL    MW410347   3.661   3.685   4.513  0.0477  0.8821 -0.3338
 2569SOL     OW10348   3.121   2.455   4.040  0.7763  0.6305  0.5745
 2569SOL    HW210349   3.129   2.411   3.955  0.3521 -0.1649  0.9271
 2569SOL    HW310350   3.051   2.407   4.084  1.2446  0.8936  1.5068
 2569SOL    MW410351   3.113   2.443   4.034  0.7629  0.5960  0.7629
 2570SOL     OW10352   1.759   2.747   4.765 -0.3757  0.3103 -1.1038
 2570SOL    HW210353   1.695   2.711   4.825 -0.5427 -0.2953 -1.6436
 2570SOL    HW310354   1.844   2.724   4.803 -0.4654  1.7249  0.0285
 2570SOL    MW410355   1.762   2.739   4.778 -0.4053  0.4053 -1.0014
 2571SOL     OW10356   2.694   3.447   4.007 -0.0314  0.1553 -1.0287
 2571SOL    HW210357   2.742   3.490   4.078  0.0387 -0.1101 -0.9106
 2571SOL    HW310358   2.626   3.397   4.051 -0.6567  0.9127 -1.2056
 2571SOL    MW410359   2.691   3.446   4.022 -0.0715  0.2623 -1.0490
 2572SOL     OW10360   2.553   4.169   3.809 -0.2983 -0.1441 -0.1944
 2572SOL    HW210361   2.608   4.105   3.854 -0.1373 -0.9750 -1.5884
 2572SOL    HW310362   2.616   4.227   3.766 -0.4655 -0.6559 -1.1199
 2572SOL    MW410363   2.569   4.169   3.809 -0.2861 -0.3338 -0.5007
 2573SOL     OW10364   2.051   2.492   3.974  0.0638 -0.3812 -0.5229
 2573SOL    HW210365   1.974   2.445   4.003  0.0820 -0.4889 -0.6559
 2573SOL    HW310366   2.121   2.426   3.974  0.3769 -0.0509  0.5875
 2573SOL    MW410367   2.050   2.477   3.978  0.1192 -0.3576 -0.3815
 2574SOL     OW10368   2.425   4.292   4.113 -0.0909 -0.7680 -0.9310
 2574SOL    HW210369   2.374   4.345   4.175 -0.4383 -2.7195  0.4356
 2574SOL    HW310370   2.425   4.343   4.032 -1.6306  0.6779 -0.0612
 2574SOL    MW410371   2.418   4.306   4.111 -0.3338 -0.8106 -0.6676
 2575SOL     OW10372   2.297   0.446   3.499 -0.2730  0.2923  0.6332
 2575SOL    HW210373   2.343   0.391   3.437 -1.5200 -0.7663  0.6529
 2575SOL    HW310374   2.346   0.438   3.580 -1.2982 -1.9008  1.0317
 2575SOL    MW410375   2.309   0.438   3.501 -0.5484 -0.1371  0.7153
 2576SOL     OW10376   2.648   0.426   3.617  0.0863  0.1266 -0.1010
 2576SOL    HW210377   2.586   0.387   3.679  0.7029 -0.2935  0.2480
 2576SOL    HW310378   2.642   0.520   3.633 -0.4794  0.0891 -0.0820
 2576SOL    MW410379   2.639   0.433   3.628  0.0954  0.0685 -0.0477
 2577SOL     OW10380   3.369   0.903   3.984  0.0568  0.5447 -0.4393
 2577SOL    HW210381   3.348   0.811   3.966  1.6991 -0.1454  1.2286
 2577SOL    HW310382   3.324   0.921   4.067 -0.3439  1.3069 -0.8570
 2577SOL    MW410383   3.360   0.893   3.993  0.2384  0.5543 -0.2861
 2578SOL     OW10384   2.135   1.210   4.696  0.2261  0.0050 -0.1180
 2578SOL    HW210385   2.193   1.243   4.765 -1.4698  2.4842  0.0869
 2578SOL    HW310386   2.195   1.173   4.631  1.9856  1.0676  0.8461
 2578SOL    MW410387   2.151   1.210   4.696  0.2384  0.4768  0.0000
 2579SOL     OW10388   2.912   4.447   4.458 -0.1697 -0.5744 -0.6112
 2579SOL    HW210389   2.961   4.503   4.517  1.2430 -1.2960 -1.0824
 2579SOL    HW310390   2.951   4.463   4.372 -1.2867 -0.4988 -1.0998
 2579SOL    MW410391   2.924   4.456   4.454 -0.1192 -0.6676 -0.7153
 2580SOL     OW10392   2.921   0.489   4.644  0.1088  0.4852  0.2030
 2580SOL    HW210393   2.993   0.494   4.707  0.0405  0.2692  0.2700
 2580SOL    HW310394   2.943   0.415   4.588 -0.5438 -0.1573  0.7855
 2580SOL    MW410395   2.933   0.480   4.645  0.0000  0.3725  0.2861
 2581SOL     OW10396   3.071   4.607   4.621 -0.6223  0.4131  0.2576
 2581SOL    HW210397   3.086   4.653   4.703 -0.9443 -0.5507  0.8709
 2581SOL    HW310398   3.157   4.574   4.596 -0.5540  0.5998  0.1964
 2581SOL    MW410399   3.084   4.609   4.629 -0.6676  0.3338  0.3338
 2582SOL     OW10400   3.393   4.419   4.073 -1.0870 -0.2112  0.0358
 2582SOL    HW210401   3.464   4.368   4.034 -1.3677  0.1006 -0.9190
 2582SOL    HW310402   3.433   4.501   4.101 -1.0672  0.0396 -0.6286
 2582SOL    MW410403   3.407   4.423   4.071 -1.1206 -0.0954 -0.1431
 2583SOL     OW10404   4.109   0.272   4.207  0.4980 -0.3725  0.1664
 2583SOL    HW210405   4.096   0.295   4.298  1.1462 -1.1089  0.4856
 2583SOL    HW310406   4.109   0.355   4.160 -0.8931 -0.0767  0.7248
 2583SOL    MW410407   4.108   0.286   4.213  0.3338 -0.4292  0.2861
 2584SOL     OW10408   4.456   0.137   4.325  0.0705  0.0663 -0.2775
 2584SOL    HW210409   4.416   0.150   4.411 -0.4528 -0.4771 -0.4552
 2584SOL    HW310410   4.523   0.206   4.320 -0.5497  0.6638  0.1044
 2584SOL    MW410411   4.460   0.148   4.336 -0.1431  0.0730 -0.2861
 2585SOL     OW10412   4.307   1.142   4.395  0.3779 -0.0838  0.1885
 2585SOL    HW210413   4.244   1.105   4.332 -1.3539 -1.9060  2.9505
 2585SOL    HW310414   4.389   1.096   4.377 -0.8038 -2.4651  1.0404
 2585SOL    MW410415   4.310   1.131   4.384  0.0000 -0.6318  0.6199
 2586SOL     OW10416   0.232   0.588   4.396  0.0955 -0.4288  0.1182
 2586SOL    HW210417   0.199   0.671   4.432 -2.0386 -0.4144 -1.9147
 2586SOL    HW310418   0.166   0.523   4.419  0.4918 -1.0902 -0.5439
 2586SOL    MW410419   0.219   0.591   4.404 -0.1341 -0.5186 -0.2384
 2587SOL     OW10420   4.038   0.015   4.684  0.5033 -0.4637 -0.3864
 2587SOL    HW210421   4.025  -0.035   4.765  1.8864 -0.5111 -0.2263
 2587SOL    HW310422   3.985   0.093   4.696  1.2889 -0.1196  0.8496
 2587SOL    MW410423   4.030   0.018   4.696  0.8106 -0.4184 -0.1907
 2588SOL     OW10424   2.810   1.744   3.793  0.3441  0.2184  0.3494
 2588SOL    HW210425   2.831   1.765   3.884 -1.0921 -0.7330  0.8898
 2588SOL    HW310426   2.868   1.800   3.741  0.8947  1.0169  1.8091
 2588SOL    MW410427   2.821   1.754   3.798  0.2384  0.1907  0.6199
 2589SOL     OW10428   2.767   2.249   3.671 -0.3092  0.0630  0.2480
 2589SOL    HW210429   2.763   2.334   3.716  0.4777  0.4037 -0.2812
 2589SOL    HW310430   2.784   2.186   3.740  1.7066  0.6579  0.2846
 2589SOL    MW410431   2.768   2.252   3.686  0.0715  0.1907  0.1907
 2590SOL     OW10432   3.765   1.578   4.390  0.4976 -1.2959  0.3331
 2590SOL    HW210433   3.784   1.613   4.477 -0.1569 -1.3044  0.4746
 2590SOL    HW310434   3.730   1.653   4.342  0.1763 -1.4727  0.2857
 2590SOL    MW410435   3.763   1.593   4.395  0.3576 -1.3232  0.2861
 2591SOL     OW10436   3.558   2.698   4.291 -0.2949 -0.2026  0.7039
 2591SOL    HW210437   3.641   2.732   4.257  0.1935 -0.8365  1.3703
 2591SOL    HW310438   3.535   2.758   4.362 -0.9475  0.6202 -0.1280
 2591SOL    MW410439   3.566   2.711   4.296 -0.3338 -0.2146  0.6676
 2592SOL     OW10440   2.843   3.704   3.860 -0.1429 -0.0269  0.5600
 2592SOL    HW210441   2.782   3.645   3.815 -0.7733 -0.4151  1.9103
 2592SOL    HW310442   2.792   3.783   3.876  0.4102  0.5055 -0.4737
 2592SOL    MW410443   2.828   3.707   3.856 -0.1431  0.0000  0.5960
 2593SOL     OW10444   2.634   4.387   3.663 -0.3700  0.3997  0.4968
 2593SOL    HW210445   2.604   4.343   3.583  0.5297  0.0835  0.3259
 2593SOL    HW310446   2.591   4.472   3.661  1.1187  1.1654 -1.3596
 2593SOL    MW410447   2.624   4.392   3.652 -0.0715  0.4292  0.2146
 2594SOL     OW10448   3.389   3.550   4.160  0.8061  0.6010  0.9074
 2594SOL    HW210449   3.378   3.645   4.150  0.0190  0.3163 -0.5334
 2594SOL    HW310450   3.301   3.515   4.161  1.0662  0.0092  2.8311
 2594SOL    MW410451   3.376   3.558   4.159  0.7153  0.4530  0.9537
 2595SOL     OW10452   1.966   3.024   4.522 -0.6833 -0.3820  0.1212
 2595SOL    HW210453   2.020   2.982   4.455  0.1576 -0.3740  0.8191
 2595SOL    HW310454   1.976   3.118   4.504 -0.2671 -0.3704  0.4305
 2595SOL    MW410455   1.974   3.031   4.510 -0.5126 -0.3815  0.2384
 2596SOL     OW10456   1.537   2.728   4.944  0.3725 -0.4307 -0.1947
 2596SOL    HW210457   1.469   2.661   4.956  0.6859 -0.7868 -0.3636
 2596SOL    HW310458   1.518   2.794   5.011 -1.7152  0.7430 -1.9269
 2596SOL    MW410459   1.526   2.728   4.954  0.1311 -0.3338 -0.4292
 2597SOL     OW10460   2.652   3.251   4.256  0.5575 -0.3132 -0.7986
 2597SOL    HW210461   2.595   3.226   4.183  0.8688  0.8924 -1.4939
 2597SOL    HW310462   2.614   3.207   4.332  0.5937 -2.1978 -1.8701
 2597SOL    MW410463   2.640   3.242   4.256  0.5960 -0.4053 -1.0490
 2598SOL     OW10464   2.263   4.213   3.719 -0.1086  0.1424  0.4560
 2598SOL    HW210465   2.340   4.167   3.754 -0.3113 -0.1155  0.5291
 2598SOL    HW310466   2.260   4.189   3.626  0.2043  0.6690  0.3119
 2598SOL    MW410467   2.272   4.204   3.712 -0.0954  0.1431  0.4292
 2599SOL     OW10468   1.923   0.277   3.666 -0.5065 -0.0116 -0.2480
 2599SOL    HW210469   1.948   0.322   3.586  0.4157  0.8713  0.5416
 2599SOL    HW310470   2.005   0.268   3.715 -1.2274  0.4383  1.0994
 2599SOL    MW410471   1.937   0.282   3.662 -0.4768  0.1669  0.0477
 2600SOL     OW10472   2.312   0.163   4.572 -0.4134  0.3011 -0.0530
 2600SOL    HW210473   2.264   0.175   4.653 -2.5939  0.2305 -1.2904
 2600SOL    HW310474   2.294   0.072   4.547  1.0557  0.0366 -0.1008
 2600SOL    MW410475   2.303   0.152   4.579 -0.5007  0.2578 -0.2384
 2601SOL     OW10476   2.887   0.332   3.556  0.0082 -0.1689  0.3047
 2601SOL    HW210477   2.928   0.325   3.470  1.0224 -0.6504  0.8358
 2601SOL    HW310478   2.800   0.367   3.537 -0.1085 -1.1375 -0.9975
 2601SOL    MW410479   2.881   0.336   3.542  0.1192 -0.3606  0.2146
 2602SOL     OW10480   3.226   0.847   4.229 -0.4232  0.4779  0.5082
 2602SOL    HW210481   3.182   0.820   4.310 -1.2504 -0.8278 -0.3880
 2602SOL    HW310482   3.255   0.764   4.189  2.4415  1.3165  0.8812
 2602SOL    MW410483   3.224   0.832   4.234 -0.1669  0.4172  0.4768
 2603SOL     OW10484   3.227   0.614   4.061  0.8439 -0.1426  0.5804
 2603SOL    HW210485   3.246   0.607   3.967  0.4189  0.1671  0.4612
 2603SOL    HW310486   3.156   0.552   4.075  0.2538  0.5371  0.5127
 2603SOL    MW410487   3.220   0.605   4.050  0.6914 -0.0119  0.5245
 2604SOL     OW10488   3.029   4.162   4.313 -0.2134 -0.6121  0.3694
 2604SOL    HW210489   3.075   4.236   4.273  1.3971 -1.1489  1.2530
 2604SOL    HW310490   2.959   4.203   4.364 -1.2627  0.2629 -1.6556
 2604SOL    MW410491   3.025   4.178   4.314 -0.1431 -0.5722  0.2384
 2605SOL     OW10492   3.151   4.413   4.218 -0.3320 -0.2921 -0.1718
 2605SOL    HW210493   3.230   4.396   4.168 -0.1881 -0.7426  0.1897
 2605SOL    HW310494   3.157   4.506   4.243 -0.0451 -0.2214 -0.4132
 2605SOL    MW410495   3.162   4.423   4.215 -0.2623 -0.3815 -0.1907
 2606SOL     OW10496   3.388   4.517   3.810 -0.5916  0.1762 -0.3186
 2606SOL    HW210497   3.392   4.494   3.903 -0.2600  0.9480 -0.1084
 2606SOL    HW310498   3.318   4.582   3.804  0.0250  0.8397 -0.4211
 2606SOL    MW410499   3.379   4.523   3.821 -0.4530  0.3815 -0.3099
 2607SOL     OW10500   3.620   0.067   3.901  0.0662  0.0871  0.0752
 2607SOL    HW210501   3.594   0.004   3.968 -0.5036  0.6647  0.4224
 2607SOL    HW310502   3.696   0.113   3.938  1.8090 -1.8966 -0.9967
 2607SOL    MW410503   3.627   0.065   3.914  0.2384 -0.0976 -0.0238
 2608SOL     OW10504   0.087   0.821   4.465  0.5731 -0.1694  0.1798
 2608SOL    HW210505   0.152   0.892   4.460  1.2623 -0.6744  1.6483
 2608SOL    HW310506   0.030   0.847   4.537 -0.0972 -0.3239 -0.2883
 2608SOL    MW410507   0.088   0.834   4.474  0.5759 -0.2563  0.3338
 2609SOL     OW10508   0.033   0.404   4.482  0.4699 -0.7713 -0.2211
 2609SOL    HW210509  -0.022   0.425   4.407  1.3130 -2.3895 -1.2928
 2609SOL    HW310510  -0.028   0.391   4.554 -0.3633 -0.3586 -0.9158
 2609SOL    MW410511   0.018   0.405   4.482  0.4761 -0.9269 -0.4768
 2610SOL     OW10512   3.656   2.759   4.766 -0.6192  0.3739 -0.4596
 2610SOL    HW210513   3.742   2.734   4.801 -0.7791  0.0452 -0.3060
 2610SOL    HW310514   3.671   2.844   4.726 -0.3333  0.5664  0.0307
 2610SOL    MW410515   3.670   2.767   4.765 -0.6199  0.3815 -0.4292
 2611SOL     OW10516   3.152   3.921   4.353  0.1310  0.1793 -1.3348
 2611SOL    HW210517   3.080   3.858   4.348  0.4655 -0.3438 -0.0173
 2611SOL    HW310518   3.111   4.005   4.333 -0.8894 -0.1254 -0.4430
 2611SOL    MW410519   3.137   3.923   4.350  0.0477  0.0477 -1.0490
 2612SOL     OW10520   4.350   2.122   4.102  0.1958  0.2961 -0.2293
 2612SOL    HW210521   4.314   2.210   4.117 -1.0813 -0.1908 -0.5197
 2612SOL    HW310522   4.307   2.066   4.166  0.4258 -0.3183 -0.5945
 2612SOL    MW410523   4.340   2.126   4.112  0.0477  0.1192 -0.2861
 2613SOL     OW10524   4.035   3.583   3.573 -0.0914  0.2170 -0.3270
 2613SOL    HW210525   3.959   3.566   3.628 -1.5568 -0.3447 -2.5440
 2613SOL    HW310526   3.999   3.597   3.485  2.0761  3.0792 -0.7630
 2613SOL    MW410527   4.020   3.583   3.568  0.0000  0.5007 -0.6676
 2614SOL     OW10528   0.347   3.778   3.158 -0.2281 -0.0918 -0.3471
 2614SOL    HW210529   0.400   3.852   3.187  0.4185 -0.0731 -1.5516
 2614SOL    HW310530   0.309   3.808   3.075  1.0628 -1.6389 -1.4864
 2614SOL    MW410531   0.349   3.792   3.150  0.0268 -0.3099 -0.6437
 2615SOL     OW10532   0.683   4.354   3.535  0.4182 -0.2946 -0.2218
 2615SOL    HW210533   0.652   4.265   3.545  0.9284 -0.5767 -1.5357
 2615SOL    HW310534   0.604   4.408   3.540 -0.1682 -0.9706 -2.0153
 2615SOL    MW410535   0.669   4.350   3.537  0.4053 -0.4292 -0.6199
 2616SOL     OW10536   0.335   4.649   3.952  0.7507 -0.6636  0.5339
 2616SOL    HW210537   0.265   4.699   3.995  1.3250 -1.2981  2.1803
 2616SOL    HW310538   0.393   4.716   3.915  0.2734 -0.1118  0.7361
 2616SOL    MW410539   0.333   4.665   3.953  0.7659 -0.6676  0.7629
 2617SOL     OW10540   2.731   4.124   3.487 -0.3733 -0.3490 -0.2527
 2617SOL    HW210541   2.815   4.166   3.471 -0.8487  0.7682  0.2545
 2617SOL    HW310542   2.753   4.042   3.532  0.5302 -0.9512 -1.7668
 2617SOL    MW410543   2.745   4.119   3.491 -0.3338 -0.2861 -0.4053
 2618SOL     OW10544   3.646   4.350   3.964 -0.0672  0.5020  0.3877
 2618SOL    HW210545   3.678   4.364   3.875 -0.9349 -0.8225 -0.1342
 2618SOL    HW310546   3.647   4.255   3.975 -0.4201  0.6135  1.5849
 2618SOL    MW410547   3.650   4.340   3.954 -0.2146  0.3815  0.4768
 2619SOL     OW10548   4.099   3.878   3.209  0.3869 -0.7226  0.1226
 2619SOL    HW210549   4.180   3.843   3.172  0.6865 -1.2899  1.3394
 2619SOL    HW310550   4.086   3.962   3.165 -0.0496 -2.1286 -2.3603
 2619SOL    MW410551   4.108   3.885   3.199  0.3338 -0.9775 -0.0477
 2620SOL     OW10552   2.323   4.050   3.240  0.1481  0.3809 -0.2206
 2620SOL    HW210553   2.380   4.106   3.293  1.2603 -0.5023 -0.4240
 2620SOL    HW310554   2.377   3.973   3.220 -1.2672 -0.6591 -0.0755
 2620SOL    MW410555   2.338   4.047   3.244  0.0954  0.1431 -0.2146
 2621SOL     OW10556   2.334   4.095   2.962 -0.7081 -0.2908 -1.2678
 2621SOL    HW210557   2.423   4.129   2.965 -0.4813 -0.9556 -0.8679
 2621SOL    HW310558   2.308   4.086   3.054 -0.9194 -0.8395 -1.3723
 2621SOL    MW410559   2.342   4.098   2.975 -0.7153 -0.4292 -1.2159
 2622SOL     OW10560   2.790   0.194   3.814  0.4944  0.1792  0.2186
 2622SOL    HW210561   2.805   0.104   3.785  0.0362  0.1033  0.1754
 2622SOL    HW310562   2.825   0.248   3.742 -0.3242 -0.0090 -0.3508
 2622SOL    MW410563   2.797   0.189   3.801  0.3099  0.1445  0.1431
 2623SOL     OW10564   0.278   4.244   4.057  0.2629  0.3163  0.1416
 2623SOL    HW210565   0.209   4.293   4.011  0.1991  0.0419 -0.0760
 2623SOL    HW310566   0.233   4.168   4.093  0.7553 -0.6204 -1.2504
 2623SOL    MW410567   0.263   4.241   4.056  0.3159  0.1431 -0.0954
 2624SOL     OW10568   3.150   3.719   3.528 -0.5479  0.5198  0.3358
 2624SOL    HW210569   3.235   3.747   3.495 -0.5304 -1.1344 -0.9617
 2624SOL    HW310570   3.131   3.638   3.480 -3.0430  1.1304  0.3045
 2624SOL    MW410571   3.158   3.712   3.517 -0.8821  0.3815  0.1669
 2625SOL     OW10572   2.922   0.030   4.069  0.0202  0.2340 -0.1181
 2625SOL    HW210573   2.828   0.026   4.049  0.0543  1.4746 -0.5221
 2625SOL    HW310574   2.963  -0.028   4.005 -0.5157 -0.4675  0.1926
 2625SOL    MW410575   2.915   0.022   4.058 -0.0477  0.3032 -0.1431
 2626SOL     OW10576   0.045   4.601   4.087  0.5254 -0.4078 -0.5231
 2626SOL    HW210577  -0.040   4.561   4.110  0.3839  0.2529  0.0549
 2626SOL    HW310578   0.075   4.550   4.012 -1.9337  1.4591 -2.7844
 2626SOL    MW410579   0.037   4.589   4.080  0.1822 -0.0954 -0.7153
 2627SOL     OW10580   2.948   4.012   3.851 -0.0864 -0.2650 -0.5583
 2627SOL    HW210581   3.007   3.941   3.827  0.6049  0.3991 -0.8047
 2627SOL    HW310582   3.006   4.087   3.866 -0.8161  0.2031 -0.1325
 2627SOL    MW410583   2.964   4.013   3.850 -0.0954 -0.1431 -0.5484
 2628SOL     OW10584   3.327   4.519   4.573 -0.2914  0.9215 -0.5974
 2628SOL    HW210585   3.361   4.464   4.643  0.1549  2.0055  0.0320
 2628SOL    HW310586   3.339   4.468   4.493  1.4278  0.6793 -0.1646
 2628SOL    MW410587   3.333   4.505   4.572 -0.0238  1.0014 -0.4292
 2629SOL     OW10588   3.094   4.543   3.923 -0.8770 -0.2301  0.0440
 2629SOL    HW210589   3.085   4.489   4.002 -0.1570 -0.2011  0.2065
 2629SOL    HW310590   3.088   4.480   3.851 -1.1256 -0.3970  0.1825
 2629SOL    MW410591   3.092   4.527   3.924 -0.8345 -0.2861  0.0715
 2630SOL     OW10592   4.125   0.807   3.967  0.1159 -0.5960  0.3096
 2630SOL    HW210593   4.204   0.787   4.018  0.4776 -1.2946 -0.5507
 2630SOL    HW310594   4.140   0.765   3.882 -0.4210  0.7057 -0.4352
 2630SOL    MW410595   4.137   0.799   3.962  0.0954 -0.5186  0.0715
 2631SOL     OW10596   4.370   1.563   4.388 -0.3854 -0.5047  0.4221
 2631SOL    HW210597   4.435   1.529   4.326  0.9982 -0.5662  1.8678
 2631SOL    HW310598   4.348   1.650   4.354 -0.0732 -0.7964 -0.4721
 2631SOL    MW410599   4.376   1.570   4.376 -0.1431 -0.5364  0.5245
 2632SOL     OW10600   3.895   0.922   3.861 -0.5337 -0.0277  0.6127
 2632SOL    HW210601   3.934   0.995   3.814 -0.1734  0.2779  1.3924
 2632SOL    HW310602   3.970   0.871   3.891 -0.7586  0.2760  1.6451
 2632SOL    MW410603   3.910   0.925   3.859 -0.5007  0.0536  0.8583
 2633SOL     OW10604   0.668   0.403   4.784  0.6894 -0.5802  0.1438
 2633SOL    HW210605   0.597   0.429   4.725  0.8908  1.1505  0.7105
 2633SOL    HW310606   0.624   0.366   4.861  0.3983 -0.1376  0.2043
 2633SOL    MW410607   0.653   0.401   4.786  0.6735 -0.2950  0.1907
 2634SOL     OW10608   0.656   2.963   4.306  0.8006  0.2453 -0.3392
 2634SOL    HW210609   0.585   2.954   4.370 -0.4390 -0.1703 -1.7509
 2634SOL    HW310610   0.735   2.971   4.359 -0.4468  2.0012  1.3095
 2634SOL    MW410611   0.657   2.963   4.322  0.4709  0.4292 -0.3338
 2635SOL     OW10612   0.374   2.556   3.242 -0.1416  0.2403 -0.3542
 2635SOL    HW210613   0.280   2.539   3.250 -0.1279 -0.0818 -1.0001
 2635SOL    HW310614   0.405   2.558   3.333 -0.5021 -1.1795 -0.1936
 2635SOL    MW410615   0.366   2.554   3.255 -0.1848  0.0238 -0.4053
 2636SOL     OW10616   0.378   2.097   3.822 -0.2660  0.4539  0.2639
 2636SOL    HW210617   0.470   2.122   3.833 -0.4858  0.9714  0.8468
 2636SOL    HW310618   0.377   2.047   3.740  0.3914  1.2581 -0.2617
 2636SOL    MW410619   0.390   2.094   3.813 -0.2056  0.6199  0.2623
 2637SOL     OW10620   0.005   2.447   3.664  0.0794  0.0813  0.1834
 2637SOL    HW210621  -0.084   2.423   3.638 -0.1082  0.2532  0.6945
 2637SOL    HW310622  -0.003   2.474   3.755  0.4336  1.4605 -0.1816
 2637SOL    MW410623  -0.008   2.447   3.672  0.0954  0.2861  0.2146
 2638SOL     OW10624   3.953   2.520   3.678 -0.5018 -0.2166 -0.2449
 2638SOL    HW210625   3.949   2.579   3.603 -1.4213  1.4894  1.1467
 2638SOL    HW310626   3.970   2.577   3.753 -1.0474 -1.7123  1.0311
 2638SOL    MW410627   3.955   2.535   3.678 -0.6914 -0.1907  0.0954
 2639SOL     OW10628   3.769   4.051   3.810 -0.5657 -0.2734 -0.3459
 2639SOL    HW210629   3.793   3.958   3.815 -1.9553 -0.5947  0.3942
 2639SOL    HW310630   3.845   4.098   3.844 -1.4107 -1.2941  2.9680
 2639SOL    MW410631   3.782   4.045   3.815 -0.8583 -0.4768  0.1907
 2640SOL     OW10632   0.381   0.043   4.484  0.6911  0.4590 -0.0791
 2640SOL    HW210633   0.379  -0.034   4.427  0.3860 -0.8358  1.5884
 2640SOL    HW310634   0.301   0.036   4.536 -0.1110  2.7373 -1.0595
 2640SOL    MW410635   0.370   0.032   4.484  0.5394  0.5960  0.0477
 2641SOL     OW10636   4.348   0.172   4.027  0.4075 -0.6847 -0.2264
 2641SOL    HW210637   4.348   0.077   4.034  0.8553 -0.8024 -1.9690
 2641SOL    HW310638   4.369   0.202   4.116 -0.7335 -2.1499  0.5578
 2641SOL    MW410639   4.351   0.164   4.040  0.3338 -0.8941 -0.3815
 2642SOL     OW10640   1.946   3.528   4.354 -0.2504 -0.4626 -0.2625
 2642SOL    HW210641   1.948   3.609   4.406 -0.0036 -0.4688 -0.1694
 2642SOL    HW310642   2.017   3.539   4.291  0.0688 -0.8616  0.0883
 2642SOL    MW410643   1.955   3.540   4.353 -0.1669 -0.5007 -0.1907
 2643SOL     OW10644   1.689   3.596   4.561  1.2962 -0.3443  0.0284
 2643SOL    HW210645   1.633   3.523   4.532  0.6102  0.4118 -0.6196
 2643SOL    HW310646   1.631   3.650   4.615  1.9708 -0.6055  1.0122
 2643SOL    MW410647   1.674   3.593   4.565  1.2994 -0.2861  0.0954
 2644SOL     OW10648   0.639   4.195   3.269 -0.2575 -0.7406 -0.4006
 2644SOL    HW210649   0.653   4.250   3.346 -0.4837  0.0896 -0.9698
 2644SOL    HW310650   0.583   4.247   3.212  0.0953 -1.3585 -1.2704
 2644SOL    MW410651   0.634   4.209   3.272 -0.2384 -0.7153 -0.5960
 2645SOL     OW10652   3.689   3.384   3.354  0.8932 -0.2596 -0.4939
 2645SOL    HW210653   3.663   3.436   3.430  2.0958  0.1566 -0.3791
 2645SOL    HW310654   3.639   3.302   3.363  0.9696 -0.1913  0.7246
 2645SOL    MW410655   3.679   3.380   3.365  1.0490 -0.1669 -0.3099
 2646SOL     OW10656   0.726   0.476   4.163 -0.1984 -0.4573  0.7293
 2646SOL    HW210657   0.786   0.480   4.238 -0.8430 -1.8434  1.3048
 2646SOL    HW310658   0.642   0.505   4.197  0.0118  0.9918  0.0106
 2646SOL    MW410659   0.723   0.480   4.177 -0.2563 -0.4470  0.7153
 2647SOL     OW10660   1.892   4.279   4.288  0.0457 -0.0871  0.7596
 2647SOL    HW210661   1.963   4.324   4.243  0.3985 -1.0319  0.3881
 2647SOL    HW310662   1.814   4.300   4.237  0.3178 -0.5065  0.1896
 2647SOL    MW410663   1.891   4.288   4.275  0.1311 -0.2861  0.6199
 2648SOL     OW10664   3.996   4.214   3.940 -1.3503  0.7931 -0.1728
 2648SOL    HW210665   3.951   4.296   3.961  1.6006  1.9825  1.4749
 2648SOL    HW310666   4.076   4.241   3.895 -0.6306 -1.1856 -0.0989
 2648SOL    MW410667   4.000   4.229   3.937 -0.9060  0.6676  0.0954
 2649SOL     OW10668   1.331   4.625   4.033 -0.6539 -0.7766  0.1411
 2649SOL    HW210669   1.334   4.695   4.098 -0.7108 -0.9363  0.3282
 2649SOL    HW310670   1.269   4.561   4.069 -2.0080 -0.0174 -0.9095
 2649SOL    MW410671   1.323   4.626   4.046 -0.8464 -0.6676  0.0000
 2650SOL     OW10672   2.691   4.307   4.180 -0.4707 -0.4901 -0.6211
 2650SOL    HW210673   2.603   4.289   4.149 -1.1255 -0.0532  1.0210
 2650SOL    HW310674   2.685   4.392   4.223  0.7597 -0.3809 -0.6291
 2650SOL    MW410675   2.679   4.316   4.181 -0.4292 -0.4292 -0.4292
 2651SOL     OW10676   1.640   0.899   4.366  0.0243 -0.5434 -0.3369
 2651SOL    HW210677   1.582   0.939   4.432  0.3636 -1.8867  0.8009
 2651SOL    HW310678   1.662   0.972   4.307  0.4803  0.8847  1.6026
 2651SOL    MW410679   1.635   0.914   4.367  0.1192 -0.5364  0.0477
 2652SOL     OW10680   0.708   1.777   4.250  0.5438  0.9345 -0.4863
 2652SOL    HW210681   0.668   1.723   4.182  0.1912  0.6440 -0.0502
 2652SOL    HW310682   0.694   1.728   4.331  0.5455  1.5112 -0.1090
 2652SOL    MW410683   0.701   1.763   4.252  0.4947  0.9656 -0.3338
 2653SOL     OW10684   3.291   4.104   4.090 -0.4450  0.2552  0.4296
 2653SOL    HW210685   3.284   4.165   4.163  0.1124 -0.5986  1.1415
 2653SOL    HW310686   3.382   4.110   4.063 -0.9158  1.3071 -0.8983
 2653SOL    MW410687   3.302   4.113   4.096 -0.4530  0.2861  0.3815
 2654SOL     OW10688   0.018   2.485   3.944 -0.0942  0.0803 -0.0612
 2654SOL    HW210689  -0.045   2.418   3.971 -1.6564  1.2636 -0.8825
 2654SOL    HW310690   0.102   2.440   3.946 -0.6985 -0.9072  3.0059
 2654SOL    MW410691   0.021   2.470   3.948 -0.3878  0.1192  0.2146
 2655SOL     OW10692   3.380   2.702   4.711 -0.3860  0.7851 -0.9355
 2655SOL    HW210693   3.361   2.632   4.774 -1.0242  0.9945 -0.9305
 2655SOL    HW310694   3.473   2.718   4.722 -0.0189 -0.7514 -1.6375
 2655SOL    MW410695   3.390   2.695   4.721 -0.4292  0.6199 -1.0967
 2656SOL     OW10696   4.077   0.562   3.792  0.4032  0.7697  0.1704
 2656SOL    HW210697   3.994   0.534   3.830 -0.2445  1.1812 -0.8553
 2656SOL    HW310698   4.128   0.482   3.782  0.3289  0.5822  1.3195
 2656SOL    MW410699   4.073   0.548   3.796  0.2861  0.7927  0.1669
 2657SOL     OW10700   4.088   2.487   4.793 -0.4996 -0.0750 -0.1230
 2657SOL    HW210701   4.085   2.392   4.800 -0.8747 -0.1775 -1.8574
 2657SOL    HW310702   4.178   2.506   4.767 -1.0367 -0.0975 -1.9553
 2657SOL    MW410703   4.100   2.477   4.791 -0.6199 -0.0954 -0.6199
 2658SOL     OW10704   0.487   2.726   4.488  0.8564  0.0563 -0.7835
 2658SOL    HW210705   0.533   2.646   4.515  1.4560  0.4493 -0.6084
 2658SOL    HW310706   0.460   2.767   4.570  0.7464  0.1450 -0.8259
 2658SOL    MW410707   0.490   2.721   4.502  0.9209  0.1192 -0.7629
 2659SOL     OW10708   4.220   2.036   4.327  0.2616 -0.3252 -0.2098
 2659SOL    HW210709   4.299   2.073   4.364  0.6443 -1.5548  0.1532
 2659SOL    HW310710   4.239   1.942   4.317 -1.0950 -0.6292 -0.1445
 2659SOL    MW410711   4.233   2.028   4.330  0.1431 -0.5484 -0.1431
 2660SOL     OW10712   0.107   0.566   4.017 -0.3540 -0.5589 -0.4166
 2660SOL    HW210713   0.142   0.633   4.077 -1.5789 -0.7408  0.4353
 2660SOL    HW310714   0.173   0.496   4.020 -0.4731 -0.6251  0.7818
 2660SOL    MW410715   0.121   0.566   4.026 -0.5312 -0.5960 -0.1431
 2661SOL     OW10716   3.802   1.746   4.633  0.3916 -0.5973 -0.0366
 2661SOL    HW210717   3.759   1.832   4.632 -0.2821 -0.9127  2.2632
 2661SOL    HW310718   3.893   1.765   4.613  0.1099  0.5739 -0.2315
 2661SOL    MW410719   3.808   1.760   4.630  0.2861 -0.4768  0.1907
 2662SOL     OW10720   0.050   2.714   4.936  0.6232 -0.2143 -0.2337
 2662SOL    HW210721  -0.009   2.645   4.904 -0.9290  0.8209  0.4435
 2662SOL    HW310722  -0.004   2.792   4.941  1.6967  0.4267  1.6399
 2662SOL    MW410723   0.035   2.715   4.933  0.5480  0.0238  0.0954
 2663SOL     OW10724   3.972   0.971   4.463  0.0161 -1.0704  0.0916
 2663SOL    HW210725   4.062   0.968   4.496  0.2865 -0.2430 -0.4912
 2663SOL    HW310726   3.950   1.064   4.461 -1.4109 -1.3794  1.7234
 2663SOL    MW410727   3.981   0.983   4.467 -0.1431 -1.0014  0.2384
 2664SOL     OW10728   0.571   4.557   4.049  0.6484  0.6156 -0.4637
 2664SOL    HW210729   0.554   4.547   4.142  1.8228 -0.5149 -0.3642
 2664SOL    HW310730   0.485   4.572   4.010 -0.0176 -0.3559  0.6113
 2664SOL    MW410731   0.558   4.557   4.056  0.7093  0.3815 -0.3338
 2665SOL     OW10732   0.160   3.772   4.388 -0.4545 -0.6169  0.3435
 2665SOL    HW210733   0.225   3.838   4.412 -0.4844 -0.2573 -0.6108
 2665SOL    HW310734   0.168   3.762   4.293  0.2836 -2.6859  0.6339
 2665SOL    MW410735   0.170   3.780   4.379 -0.3591 -0.8345  0.2384
 2666SOL     OW10736   1.073   1.833   4.574  0.1415 -0.1104  0.1882
 2666SOL    HW210737   1.147   1.893   4.577  0.3698 -0.3538 -0.5242
 2666SOL    HW310738   1.012   1.873   4.512 -0.3141  0.0683  0.7534
 2666SOL    MW410739   1.074   1.846   4.567  0.1073 -0.1073  0.1907
 2667SOL     OW10740   0.018   0.851   3.760 -0.3788  0.3658  0.1187
 2667SOL    HW210741  -0.027   0.889   3.685 -0.8551 -1.2613 -0.3807
 2667SOL    HW310742   0.015   0.756   3.745  0.4725  0.0881  1.6495
 2667SOL    MW410743   0.012   0.843   3.748 -0.3293  0.1132  0.2384
 2668SOL     OW10744   0.072   0.570   3.743 -0.7067  0.2130 -0.2801
 2668SOL    HW210745   0.119   0.490   3.723 -0.1890  0.7254 -1.1078
 2668SOL    HW310746   0.083   0.581   3.838  0.1840 -0.0594 -0.3635
 2668SOL    MW410747   0.079   0.561   3.753 -0.5208  0.2444 -0.4292
 2669SOL     OW10748   3.347   3.570   3.770 -0.3108 -0.1322 -1.2113
 2669SOL    HW210749   3.404   3.626   3.824 -0.2635 -0.5629 -0.8051
 2669SOL    HW310750   3.270   3.623   3.752 -0.1321  0.1755 -1.0598
 2669SOL    MW410751   3.345   3.584   3.775 -0.2861 -0.1431 -1.1444
 2670SOL     OW10752   0.154   4.445   3.848  0.2035 -0.1179  0.3007
 2670SOL    HW210753   0.138   4.537   3.830  0.6807 -0.4288 -1.5445
 2670SOL    HW310754   0.099   4.398   3.785  1.3963 -1.1236  0.0286
 2670SOL    MW410755   0.144   4.451   3.838  0.4232 -0.3338  0.0238
 2671SOL     OW10756   1.720   0.883   5.022  0.7933 -0.0519 -1.3977
 2671SOL    HW210757   1.783   0.918   5.086  0.6637  0.7960 -1.7803
 2671SOL    HW310758   1.675   0.813   5.070  0.9668  0.3243 -0.6526
 2671SOL    MW410759   1.723   0.879   5.037  0.7868  0.1132 -1.3351
 2672SOL     OW10760   4.248   0.340   3.812 -0.0703  0.1690 -0.4185
 2672SOL    HW210761   4.279   0.301   3.894 -0.0258  3.6567  1.2488
 2672SOL    HW310762   4.328   0.357   3.762  0.1082  0.3584 -0.1221
 2672SOL    MW410763   4.263   0.338   3.816 -0.0477  0.6557 -0.1192
 2673SOL     OW10764   1.481   1.831   3.972 -0.8745 -0.1703  0.0651
 2673SOL    HW210765   1.391   1.825   3.940 -0.7583 -0.3605 -0.2530
 2673SOL    HW310766   1.481   1.781   4.054 -0.7905 -1.1281 -0.5093
 2673SOL    MW410767   1.469   1.823   3.979 -0.8464 -0.3219 -0.0477
 2674SOL     OW10768   1.011   2.264   4.514  0.2205 -0.7441 -0.0228
 2674SOL    HW210769   0.940   2.315   4.476  0.2053 -0.4294  0.4797
 2674SOL    HW310770   0.987   2.173   4.496 -0.1977 -0.6413  0.0595
 2674SOL    MW410771   0.999   2.259   4.507  0.1669 -0.6676  0.0954
 2675SOL     OW10772   0.825   2.843   4.056  0.6585  1.2429  0.4837
 2675SOL    HW210773   0.816   2.773   3.992 -0.0901  1.6828  0.0919
 2675SOL    HW310774   0.801   2.803   4.140  1.3142  0.7696  0.3897
 2675SOL    MW410775   0.820   2.829   4.059  0.6557  1.2159  0.3815
 2676SOL     OW10776   0.365   1.985   4.429 -0.1100  0.3624  0.6167
 2676SOL    HW210777   0.381   2.012   4.339  1.7645  0.4633  1.0159
 2676SOL    HW310778   0.361   1.889   4.425  1.2232  0.3147  0.6384
 2676SOL    MW410779   0.366   1.976   4.416  0.3129  0.3815  0.6676
 2677SOL     OW10780   1.986   0.587   4.322  0.5298 -0.5763 -0.4854
 2677SOL    HW210781   1.895   0.602   4.298  1.2693  0.7401 -2.4406
 2677SOL    HW310782   1.994   0.622   4.411 -0.6024  0.2685 -0.7074
 2677SOL    MW410783   1.975   0.593   4.331  0.4888 -0.2921 -0.7629
 2678SOL     OW10784   0.533   1.572   4.011  0.2713  0.2135  0.5001
 2678SOL    HW210785   0.506   1.588   3.920  1.0726 -1.6847 -0.0725
 2678SOL    HW310786   0.453   1.581   4.062 -0.3077  0.5989 -0.4709
 2678SOL    MW410787   0.519   1.575   4.006  0.3040  0.0119  0.3338
 2679SOL     OW10788   0.055   2.950   4.003 -0.0189  0.4797 -0.5824
 2679SOL    HW210789   0.087   2.863   4.027 -1.0262  0.4657  0.7754
 2679SOL    HW310790   0.125   3.010   4.028 -0.3592  0.3207  0.8181
 2679SOL    MW410791   0.069   2.946   4.009 -0.1967  0.4530 -0.2384
 2680SOL     OW10792   0.305   2.302   4.146  0.5667 -0.0239 -0.7734
 2680SOL    HW210793   0.336   2.211   4.146  1.7781  0.3995  1.2827
 2680SOL    HW310794   0.242   2.306   4.218 -2.4152 -0.2268 -3.3493
 2680SOL    MW410795   0.301   2.290   4.156  0.3308  0.0000 -0.9060
 2681SOL     OW10796   3.890   3.248   4.736  0.1900  0.4476 -0.8767
 2681SOL    HW210797   3.930   3.235   4.822 -0.0862  1.7907 -0.4848
 2681SOL    HW310798   3.817   3.186   4.733 -0.4357  1.1438  0.3180
 2681SOL    MW410799   3.885   3.238   4.747  0.0715  0.7153 -0.6676
 2682SOL     OW10800   0.280   2.813   4.792  1.1098  0.0634 -0.4040
 2682SOL    HW210801   0.338   2.757   4.842  0.2591 -0.0364  0.4598
 2682SOL    HW310802   0.194   2.803   4.834  0.2507 -0.5508 -2.3163
 2682SOL    MW410803   0.276   2.805   4.804  0.8821 -0.0238 -0.5722
 2683SOL     OW10804   4.241   0.744   4.527  0.4461 -0.6322 -0.0611
 2683SOL    HW210805   4.198   0.754   4.442  0.5800 -1.2584 -0.2337
 2683SOL    HW310806   4.306   0.675   4.512  0.4400 -0.7363  0.5332
 2683SOL    MW410807   4.244   0.737   4.514  0.4292 -0.7331  0.0477
 2684SOL     OW10808   3.617   3.133   4.659  0.4792  0.7348  0.3405
 2684SOL    HW210809   3.596   3.214   4.613 -1.1437 -0.0586 -0.2962
 2684SOL    HW310810   3.532   3.092   4.677  1.2651 -0.7545  0.7402
 2684SOL    MW410811   3.603   3.138   4.655  0.3338  0.4292  0.2861
 2685SOL     OW10812   3.801   0.751   4.539  1.1466 -0.7894  0.1372
 2685SOL    HW210813   3.875   0.811   4.547  0.3783 -0.1015  1.7993
 2685SOL    HW310814   3.726   0.806   4.517  0.9138 -1.4019 -0.7340
 2685SOL    MW410815   3.801   0.766   4.537  1.0014 -0.7808  0.2384
 2686SOL     OW10816   0.384   4.260   4.341  0.2203 -0.4186  0.4097
 2686SOL    HW210817   0.466   4.223   4.308  0.1701 -0.1651 -0.0479
 2686SOL    HW310818   0.320   4.241   4.272 -0.1904 -1.0682  0.9548
 2686SOL    MW410819   0.386   4.253   4.327  0.1609 -0.4768  0.4768
 2687SOL     OW10820   0.091   2.850   4.345  0.3225 -0.1803 -0.4267
 2687SOL    HW210821   0.008   2.895   4.360  0.3539 -0.0377 -0.6946
 2687SOL    HW310822   0.144   2.914   4.297  0.0744 -0.7252 -1.4707
 2687SOL    MW410823   0.087   2.864   4.340  0.2936 -0.2384 -0.6199
 2688SOL     OW10824   1.661   3.464   3.537  0.0787  0.2159  0.3930
 2688SOL    HW210825   1.585   3.521   3.522  0.7453  0.7709 -0.8127
 2688SOL    HW310826   1.720   3.517   3.591  0.5292  0.5018 -0.4239
 2688SOL    MW410827   1.659   3.479   3.542  0.2384  0.3338  0.1192
 2689SOL     OW10828   3.544   1.427   4.265  0.0525 -1.1715 -0.0994
 2689SOL    HW210829   3.585   1.480   4.334  0.9955 -0.8208 -0.9429
 2689SOL    HW310830   3.469   1.386   4.308  1.4336 -2.0694  1.5376
 2689SOL    MW410831   3.539   1.429   4.280  0.3576 -1.2398 -0.0477
 2690SOL     OW10832   0.870   4.502   4.207 -0.6229  0.8803 -0.1637
 2690SOL    HW210833   0.868   4.565   4.136  1.3520  1.2616  0.0559
 2690SOL    HW310834   0.844   4.419   4.167 -0.4087  1.2877 -1.0366
 2690SOL    MW410835   0.867   4.499   4.193 -0.3338  1.0014 -0.2384
 2691SOL     OW10836   1.596   0.282   4.837  0.9016 -0.4044 -0.5328
 2691SOL    HW210837   1.514   0.311   4.796  0.9629 -0.6427 -0.8323
 2691SOL    HW310838   1.593   0.321   4.925  2.0971  2.4654 -1.7536
 2691SOL    MW410839   1.585   0.291   4.843  1.0729 -0.0596 -0.7629
 2692SOL     OW10840   0.666   1.946   4.512  0.2512 -0.1990 -0.5855
 2692SOL    HW210841   0.679   2.012   4.581  0.4432 -0.4340 -0.4252
 2692SOL    HW310842   0.578   1.963   4.479  0.1591 -0.0815 -0.2726
 2692SOL    MW410843   0.656   1.957   4.516  0.2623 -0.2146 -0.4768
 2693SOL     OW10844   0.872   4.272   3.718  0.1883  0.1411  0.1303
 2693SOL    HW210845   0.950   4.307   3.675  0.3693 -2.1828 -1.3900
 2693SOL    HW310846   0.800   4.320   3.678  0.7142  1.2808  0.5250
 2693SOL    MW410847   0.873   4.283   3.707  0.2801  0.0477 -0.0477
 2694SOL     OW10848   0.806   1.360   4.591 -0.0756  0.2813  0.4166
 2694SOL    HW210849   0.747   1.326   4.658 -0.6172  1.3045  0.4648
 2694SOL    HW310850   0.776   1.320   4.510 -0.4190  0.3457  0.5224
 2694SOL    MW410851   0.794   1.350   4.590 -0.1967  0.4172  0.5245
 2695SOL     OW10852   1.961   4.003   4.268  0.1399  0.2129  0.3277
 2695SOL    HW210853   2.034   3.962   4.314 -0.1081  0.8265  1.2756
 2695SOL    HW310854   1.969   4.096   4.289 -0.5409  0.3682 -0.0935
 2695SOL    MW410855   1.972   4.010   4.277  0.0238  0.3338  0.4292
 2696SOL     OW10856   1.980   0.601   3.997  0.5915 -0.2120 -0.5374
 2696SOL    HW210857   1.913   0.645   4.049  0.5699  0.9669 -1.5921
 2696SOL    HW310858   1.938   0.519   3.969  0.2918 -0.4317  0.5612
 2696SOL    MW410859   1.965   0.596   4.000  0.5603 -0.0834 -0.5245
 2697SOL     OW10860   1.166   0.724   4.693 -0.1524 -0.2866  0.2985
 2697SOL    HW210861   1.137   0.812   4.669  2.7548  0.0909 -1.9157
 2697SOL    HW310862   1.134   0.669   4.622  0.4544 -0.5857  0.2451
 2697SOL    MW410863   1.158   0.729   4.680  0.3099 -0.2742  0.0000
 2698SOL     OW10864   1.210   1.828   3.896  0.0976  0.5935 -0.1867
 2698SOL    HW210865   1.153   1.814   3.972  1.3371  0.5849  0.7309
 2698SOL    HW310866   1.212   1.923   3.885  0.0409  0.6074 -0.1004
 2698SOL    MW410867   1.203   1.839   3.904  0.2623  0.5960 -0.0477
 2699SOL     OW10868   1.824   0.657   4.848 -0.1373 -0.1910 -0.3074
 2699SOL    HW210869   1.802   0.736   4.898  2.3323 -0.4707  1.2877
 2699SOL    HW310870   1.875   0.688   4.774 -3.0620  0.1273 -2.1432
 2699SOL    MW410871   1.828   0.671   4.845 -0.2146 -0.1907 -0.3338
 2700SOL     OW10872   0.677   3.205   4.178 -0.5987  0.4741  0.1874
 2700SOL    HW210873   0.763   3.192   4.138 -0.5501  1.4296 -0.0313
 2700SOL    HW310874   0.661   3.124   4.225 -0.0546 -0.1282 -0.6789
 2700SOL    MW410875   0.687   3.193   4.179 -0.5186  0.5245  0.0000
 2701SOL     OW10876   0.766   1.419   3.926 -0.6357 -0.3719  0.1858
 2701SOL    HW210877   0.694   1.475   3.954 -0.7477 -0.9094  0.9597
 2701SOL    HW310878   0.818   1.475   3.868 -1.5647  0.1069 -0.2035
 2701SOL    MW410879   0.763   1.434   3.922 -0.7629 -0.3815  0.2384
 2702SOL     OW10880   1.169   0.862   4.322  0.4944 -0.6141  0.0584
 2702SOL    HW210881   1.196   0.925   4.255  1.4520 -1.9790 -0.8763
 2702SOL    HW310882   1.108   0.911   4.377  1.2546  1.0982 -0.6629
 2702SOL    MW410883   1.165   0.877   4.320  0.7153 -0.5662 -0.1907
 2703SOL     OW10884   0.002   3.293   4.143 -0.0437 -0.0233  0.2388
 2703SOL    HW210885   0.056   3.357   4.190  1.5768  0.0140 -1.6606
 2703SOL    HW310886   0.065   3.233   4.103 -1.4790 -0.6961 -0.9813
 2703SOL    MW410887   0.017   3.293   4.144 -0.0194 -0.1192 -0.1907
 2704SOL     OW10888   1.005   0.964   3.851 -0.1126 -0.2055  0.0553
 2704SOL    HW210889   1.094   0.931   3.861 -0.1761 -0.6716 -0.8394
 2704SOL    HW310890   0.998   1.035   3.915  0.2206 -1.5414  1.5698
 2704SOL    MW410891   1.016   0.969   3.861 -0.0834 -0.4470  0.1431
 2705SOL     OW10892   4.464   3.722   3.986  0.0517  0.6202  0.0345
 2705SOL    HW210893   4.550   3.763   3.999  0.3044  0.5404 -1.6859
 2705SOL    HW310894   4.480   3.628   3.998  0.1803  0.5990 -0.3788
 2705SOL    MW410895   4.478   3.715   3.989  0.0954  0.6199 -0.2384
 2706SOL     OW10896   4.173   4.328   4.286  1.0610  1.1680 -0.3950
 2706SOL    HW210897   4.082   4.353   4.297  1.3466  2.1378 -0.1550
 2706SOL    HW310898   4.171   4.234   4.272 -0.0120  1.1499 -0.2810
 2706SOL    MW410899   4.161   4.319   4.286  0.9537  1.2398 -0.2861
 2707SOL     OW10900   1.146   3.709   2.710  0.3964  0.0605 -0.6407
 2707SOL    HW210901   1.171   3.699   2.802 -1.0113 -0.4294 -0.3071
 2707SOL    HW310902   1.100   3.627   2.689 -0.3072  0.6483 -1.4350
 2707SOL    MW410903   1.143   3.697   2.719  0.1192  0.0954 -0.7153
 2708SOL     OW10904   1.774   3.679   3.327  0.5545  0.1241 -0.0226
 2708SOL    HW210905   1.723   3.606   3.294  1.9032 -0.2223 -1.3531
 2708SOL    HW310906   1.798   3.653   3.416  0.9321 -0.9926 -0.4362
 2708SOL    MW410907   1.770   3.666   3.335  0.7868 -0.0715 -0.2623
 2709SOL     OW10908   0.782   2.306   4.350 -0.4516  0.0176 -0.2451
 2709SOL    HW210909   0.811   2.240   4.286  0.8097  0.4761 -0.2054
 2709SOL    HW310910   0.732   2.369   4.298  0.3594  0.2558 -0.7752
 2709SOL    MW410911   0.779   2.306   4.334 -0.1788  0.0954 -0.3338
 2710SOL     OW10912   3.818   3.378   4.204 -0.2173  0.1620  0.0324
 2710SOL    HW210913   3.887   3.386   4.139  0.5187 -1.0209  0.6767
 2710SOL    HW310914   3.798   3.468   4.230  0.9900  0.5081 -0.2702
 2710SOL    MW410915   3.825   3.391   4.199  0.0715  0.0477  0.0954
 2711SOL     OW10916   0.051   2.406   4.283  0.4956 -0.3737 -0.0537
 2711SOL    HW210917  -0.027   2.453   4.254 -0.1226 -1.0767  0.4598
 2711SOL    HW310918   0.105   2.473   4.324  0.0469  0.0348 -0.1863
 2711SOL    MW410919   0.048   2.421   4.285  0.3546 -0.4053  0.0477
 2712SOL     OW10920   0.972   1.848   4.104 -0.0956  0.2313 -0.2044
 2712SOL    HW210921   0.995   1.775   4.161  0.7036  0.3010 -0.4223
 2712SOL    HW310922   0.887   1.824   4.067 -0.5953  0.1627  0.9903
 2712SOL    MW410923   0.964   1.835   4.106 -0.0536  0.2384  0.0000
 2713SOL     OW10924   1.961   3.867   3.150  0.4032  0.0149 -0.0596
 2713SOL    HW210925   1.916   3.882   3.233  1.8787 -0.8419  0.8432
 2713SOL    HW310926   1.904   3.806   3.103 -0.3227  0.3675  0.3848
 2713SOL    MW410927   1.947   3.861   3.155  0.5007 -0.0477  0.1431
 2714SOL     OW10928   3.773   3.644   4.279 -0.4030  0.1485  0.3632
 2714SOL    HW210929   3.720   3.660   4.356 -0.2747  1.3464  0.2061
 2714SOL    HW310930   3.862   3.665   4.307 -0.0997 -1.3020  0.4422
 2714SOL    MW410931   3.778   3.649   4.293 -0.3338  0.1192  0.3338
 2715SOL     OW10932   2.037   0.298   4.656  0.3127 -0.4412 -0.1730
 2715SOL    HW210933   1.997   0.360   4.716 -1.6827 -1.4531 -0.4936
 2715SOL    HW310934   2.017   0.212   4.692  2.1615 -0.9483 -0.3671
 2715SOL    MW410935   2.029   0.295   4.669  0.2861 -0.6407 -0.2384
 2716SOL     OW10936   4.353   1.812   4.221  0.2980 -0.4125  0.0826
 2716SOL    HW210937   4.380   1.770   4.140 -0.1824  0.3685 -0.4974
 2716SOL    HW310938   4.435   1.840   4.262  0.5129 -1.0868  0.0860
 2716SOL    MW410939   4.367   1.810   4.216  0.2384 -0.3934  0.0000
 2717SOL     OW10940   1.789   4.058   4.503  0.8718 -0.0450  0.3519
 2717SOL    HW210941   1.730   4.051   4.429  0.1075 -0.6106  1.0380
 2717SOL    HW310942   1.876   4.065   4.464  0.4501 -0.1794 -0.5896
 2717SOL    MW410943   1.793   4.058   4.488  0.7033 -0.1907  0.2861
 2718SOL     OW10944   1.717   3.044   3.857 -0.3588 -0.2579 -0.2327
 2718SOL    HW210945   1.730   2.960   3.902 -0.7765 -0.6330 -0.8017
 2718SOL    HW310946   1.747   3.110   3.921  0.0523 -0.8728  0.1692
 2718SOL    MW410947   1.723   3.042   3.872 -0.3576 -0.3815 -0.2623
 2719SOL     OW10948   1.634   4.522   4.489  0.4159 -0.6881  0.4973
 2719SOL    HW210949   1.599   4.546   4.574  0.7488  0.6003  0.2701
 2719SOL    HW310950   1.596   4.586   4.428  0.9146 -0.9991 -0.1999
 2719SOL    MW410951   1.624   4.534   4.492  0.5245 -0.5245  0.3815
 2720SOL     OW10952   1.501   4.248   4.517  0.3522 -0.4733  0.3038
 2720SOL    HW210953   1.519   4.342   4.517  1.3329 -0.6580  1.8080
 2720SOL    HW310954   1.586   4.207   4.509  0.0265 -1.2175  0.6357
 2720SOL    MW410955   1.514   4.255   4.516  0.4411 -0.6199  0.5245
 2721SOL     OW10956   1.526   4.467   3.931 -0.0577 -0.1139 -0.1841
 2721SOL    HW210957   1.474   4.536   3.972  0.0009  0.0091 -0.2632
 2721SOL    HW310958   1.615   4.501   3.931  0.1033 -0.5278  0.6072
 2721SOL    MW410959   1.531   4.481   3.936 -0.0238 -0.1907 -0.0715
 2722SOL     OW10960   2.424   4.438   3.883 -0.1579  0.4251 -0.1995
 2722SOL    HW210961   2.338   4.403   3.858 -0.6010  0.7995  0.7817
 2722SOL    HW310962   2.486   4.380   3.840 -0.9071 -0.4603 -0.0337
 2722SOL    MW410963   2.421   4.426   3.874 -0.3338  0.3338 -0.0477
 2723SOL     OW10964   2.312   0.768   4.813  0.1279  0.2838  0.6259
 2723SOL    HW210965   2.283   0.777   4.722 -1.0973 -0.8777  0.8727
 2723SOL    HW310966   2.236   0.793   4.865  0.5084 -0.0026  1.3206
 2723SOL    MW410967   2.298   0.772   4.808  0.0477  0.0954  0.7629
 2724SOL     OW10968   4.389   3.059   4.294 -0.2998  0.2367  0.7370
 2724SOL    HW210969   4.407   3.117   4.220 -1.3793 -0.4466 -0.0430
 2724SOL    HW310970   4.334   3.112   4.353 -0.4690  0.3031  0.4764
 2724SOL    MW410971   4.384   3.074   4.292 -0.4292  0.1669  0.6199
 2725SOL     OW10972   1.412   0.198   4.580  0.1949 -0.4781  0.1428
 2725SOL    HW210973   1.408   0.288   4.611  0.0796 -0.6583  0.6591
 2725SOL    HW310974   1.466   0.201   4.501 -0.3887  0.1458 -0.2068
 2725SOL    MW410975   1.418   0.210   4.573  0.1073 -0.4202  0.1431
 2726SOL     OW10976   2.133   0.347   4.391  0.2567 -0.4683 -0.9573
 2726SOL    HW210977   2.090   0.422   4.352  1.6352  0.5786 -0.4658
 2726SOL    HW310978   2.088   0.334   4.474  0.3272  0.0668 -0.9231
 2726SOL    MW410979   2.122   0.355   4.397  0.4292 -0.2593 -0.9060
 2727SOL     OW10980   1.433   1.019   4.885 -0.2158 -0.1762  0.1791
 2727SOL    HW210981   1.479   1.019   4.969 -1.0741 -0.7386  0.6333
 2727SOL    HW310982   1.502   1.010   4.819  0.4215 -0.1484  0.8483
 2727SOL    MW410983   1.448   1.018   4.888 -0.2384 -0.2503  0.3338
 2728SOL     OW10984   0.185   2.635   3.586  0.6356  0.5132 -0.3831
 2728SOL    HW210985   0.132   2.560   3.612  1.0899  0.4928  0.4559
 2728SOL    HW310986   0.160   2.704   3.647 -0.2575  1.2590 -1.5769
 2728SOL    MW410987   0.175   2.634   3.597  0.5782  0.5960 -0.4292
 2729SOL     OW10988   0.360   2.520   3.910  0.2036  1.1145 -0.5579
 2729SOL    HW210989   0.310   2.585   3.958  0.4481  0.7360  0.2456
 2729SOL    HW310990   0.365   2.445   3.970 -0.5922  0.1653 -1.6808
 2729SOL    MW410991   0.354   2.518   3.925  0.1311  0.9537 -0.5960
 2730SOL     OW10992   3.285   1.916   4.434  0.2600 -0.8450  0.5897
 2730SOL    HW210993   3.209   1.968   4.460 -0.1914 -1.9811  1.5419
 2730SOL    HW310994   3.320   1.882   4.516  0.5716 -1.9510  0.0223
 2730SOL    MW410995   3.279   1.918   4.448  0.2384 -1.1444  0.7153
 2731SOL     OW10996   3.815   2.794   4.202 -0.0414 -0.6626  0.3279
 2731SOL    HW210997   3.818   2.848   4.123 -0.3362 -2.5770 -0.9655
 2731SOL    HW310998   3.874   2.837   4.263  0.8651  0.3479 -1.2152
 2731SOL    MW410999   3.823   2.807   4.199  0.0238 -0.8106  0.0000
 2732SOL     OW11000   0.992   4.535   4.472  0.7466 -0.4916  0.3463
 2732SOL    HW211001   0.932   4.536   4.397  0.8169  0.3616  0.3040
 2732SOL    HW311002   0.950   4.477   4.535  0.3339 -0.6006 -0.0309
 2732SOL    MW411003   0.978   4.528   4.470  0.6914 -0.3338  0.2861
 2733SOL     OW11004   0.827   1.369   4.207  0.2137  0.0352  0.1179
 2733SOL    HW211005   0.892   1.438   4.219  0.3329 -0.2076  0.8627
 2733SOL    HW311006   0.786   1.387   4.123  0.8275  0.5419 -0.0589
 2733SOL    MW411007   0.830   1.380   4.198  0.3040  0.0834  0.1907
 2734SOL     OW11008   1.500   2.348   3.334 -0.1135  0.0246 -0.1237
 2734SOL    HW211009   1.518   2.442   3.329 -0.9097  0.1987  0.3044
 2734SOL    HW311010   1.426   2.334   3.275  0.9447 -0.5768 -1.3049
 2734SOL    MW411011   1.493   2.358   3.326 -0.0834 -0.0238 -0.2146
 2735SOL     OW11012   3.532   3.381   4.425  1.1979 -0.7402 -1.1368
 2735SOL    HW211013   3.554   3.306   4.370  3.8529 -1.5746  1.0264
 2735SOL    HW311014   3.454   3.418   4.384  1.9104 -2.6019 -4.2352
 2735SOL    MW411015   3.525   3.376   4.412  1.6451 -1.0967 -1.2875
 2736SOL     OW11016   2.150   4.580   4.582  0.2780 -0.4184 -0.0358
 2736SOL    HW211017   2.149   4.487   4.560  0.6171 -0.5867  0.6939
 2736SOL    HW311018   2.082   4.590   4.649 -0.4101 -0.0137 -0.7844
 2736SOL    MW411019   2.141   4.569   4.588  0.2384 -0.3815 -0.0477
 2737SOL     OW11020   4.009   3.807   4.548  0.3453  0.3699 -0.4015
 2737SOL    HW211021   3.989   3.752   4.624 -2.9164  1.9527 -0.1396
 2737SOL    HW311022   4.010   3.896   4.583  1.6486  0.8685 -1.6502
 2737SOL    MW411023   4.007   3.812   4.563  0.0477  0.6676 -0.5245
 2738SOL     OW11024   1.419   3.094   3.509 -0.1222 -0.0682 -0.3665
 2738SOL    HW211025   1.423   3.153   3.584  0.5952 -0.1635 -0.2919
 2738SOL    HW311026   1.485   3.027   3.527 -1.3482 -1.2141 -0.1111
 2738SOL    MW411027   1.428   3.093   3.521 -0.1907 -0.2384 -0.3099
 2739SOL     OW11028   1.727   3.316   4.012  0.5683 -0.3212  0.2690
 2739SOL    HW211029   1.759   3.402   4.040 -0.8223  0.0035  0.8597
 2739SOL    HW311030   1.634   3.329   3.997  0.4390 -1.6598 -0.0324
 2739SOL    MW411031   1.719   3.329   4.014  0.3576 -0.4530  0.3338
 2740SOL     OW11032   3.104   3.772   3.801 -0.3013  0.0538  0.4167
 2740SOL    HW211033   3.014   3.748   3.824  0.1516 -1.8162  0.3028
 2740SOL    HW311034   3.103   3.778   3.705 -0.2904 -0.3014  0.3645
 2740SOL    MW411035   3.092   3.769   3.791 -0.2384 -0.2384  0.3815
 2741SOL     OW11036   1.905   3.809   4.497  0.7288 -0.5979 -0.1193
 2741SOL    HW211037   1.857   3.738   4.541  0.3320 -0.0508  0.2599
 2741SOL    HW311038   1.847   3.885   4.504  1.3599 -0.1086 -0.1528
 2741SOL    MW411039   1.891   3.810   4.504  0.7510 -0.4530 -0.0954
 2742SOL     OW11040   2.079   3.174   4.172  0.6034  0.5536 -0.2103
 2742SOL    HW211041   1.994   3.144   4.205  1.0308 -0.2501  0.2674
 2742SOL    HW311042   2.079   3.151   4.079  0.2434  0.7840 -0.2381
 2742SOL    MW411043   2.068   3.167   4.164  0.5960  0.4530 -0.1431
 2743SOL     OW11044   1.924   4.567   4.791  1.6399 -0.2290 -0.0847
 2743SOL    HW211045   1.879   4.641   4.752  1.4183 -0.2996  0.0325
 2743SOL    HW311046   1.899   4.492   4.737  3.0161  0.0897 -1.0673
 2743SOL    MW411047   1.914   4.567   4.779  1.8001 -0.1907 -0.1431
 2744SOL     OW11048   1.868   4.170   3.622  0.0972 -0.5663 -0.0018
 2744SOL    HW211049   1.905   4.233   3.561 -1.8197 -0.3087 -0.8970
 2744SOL    HW311050   1.876   4.086   3.577 -3.6174 -0.0272 -1.6656
 2744SOL    MW411051   1.874   4.167   3.608 -0.6557 -0.4768 -0.3338
 2745SOL     OW11052   2.357   3.844   3.744 -0.0160 -0.3251 -0.7063
 2745SOL    HW211053   2.349   3.923   3.797  0.6479  0.2046 -1.4095
 2745SOL    HW311054   2.267   3.813   3.733 -0.2647  0.2774 -0.3369
 2745SOL    MW411055   2.344   3.850   3.750  0.0477 -0.1907 -0.7629
 2746SOL     OW11056   1.778   2.455   4.181  0.1686  0.0012 -0.2576
 2746SOL    HW211057   1.847   2.501   4.229  0.0185  1.5252 -1.4865
 2746SOL    HW311058   1.751   2.517   4.113 -1.8686 -0.9262 -0.2426
 2746SOL    MW411059   1.784   2.469   4.178 -0.1311  0.0954 -0.3815
 2747SOL     OW11060   2.401   1.549   4.738  0.0615 -0.1614 -0.2159
 2747SOL    HW211061   2.443   1.633   4.719 -0.0388  0.6739  3.2283
 2747SOL    HW311062   2.468   1.499   4.784 -0.2398 -1.6146 -1.3889
 2747SOL    MW411063   2.415   1.554   4.742  0.0000 -0.2384  0.0954
 2748SOL     OW11064   2.023   4.276   3.874 -0.6927  0.4045  0.1905
 2748SOL    HW211065   2.106   4.267   3.827 -0.8172  0.2729 -0.0170
 2748SOL    HW311066   1.956   4.259   3.808 -0.8759  0.5182  0.3358
 2748SOL    MW411067   2.025   4.272   3.859 -0.7153  0.3338  0.1907
 2749SOL     OW11068   1.531   1.280   3.969 -0.0226  0.0876 -0.1126
 2749SOL    HW211069   1.573   1.235   4.042 -0.2698  0.5756  0.3354
 2749SOL    HW311070   1.512   1.368   4.003  1.5566  0.9182 -1.4011
 2749SOL    MW411071   1.534   1.286   3.983  0.1550  0.2503 -0.2146
 2750SOL     OW11072   4.295   2.749   4.012 -0.7938  0.2495  0.0585
 2750SOL    HW211073   4.214   2.739   3.962 -0.9068  1.2378  0.0322
 2750SOL    HW311074   4.361   2.704   3.959 -0.8924  1.3322 -1.0567
 2750SOL    MW411075   4.293   2.741   3.998 -0.8583  0.5245 -0.1431
 2751SOL     OW11076   1.108   2.855   4.004 -0.2907 -0.9296 -0.2175
 2751SOL    HW211077   1.016   2.864   4.027  0.0868  0.8885  0.5291
 2751SOL    HW311078   1.134   2.941   3.970  0.9349 -1.5958 -1.0313
 2751SOL    MW411079   1.099   2.867   4.002 -0.0834 -0.7868 -0.2384
 2752SOL     OW11080   0.607   3.726   4.447 -0.1271  0.3455  0.6237
 2752SOL    HW211081   0.533   3.665   4.447 -0.4020  0.6910  0.2014
 2752SOL    HW311082   0.676   3.680   4.398 -0.1183  0.1104  0.8764
 2752SOL    MW411083   0.607   3.712   4.441 -0.1609  0.3338  0.6199
 2753SOL     OW11084   0.880   2.763   3.516  0.6595  0.2663 -0.0596
 2753SOL    HW211085   0.797   2.761   3.563 -1.6228 -0.5141 -4.1016
 2753SOL    HW311086   0.881   2.850   3.475  0.7588 -0.6357 -1.9034
 2753SOL    MW411087   0.869   2.775   3.517  0.3695  0.0238 -0.8345
 2754SOL     OW11088   0.160   3.473   4.273 -1.0591  0.2999 -0.1383
 2754SOL    HW211089   0.222   3.490   4.344  0.8388 -0.4981 -1.6034
 2754SOL    HW311090   0.175   3.544   4.211 -1.9916  0.3954 -0.2374
 2754SOL    MW411091   0.170   3.485   4.274 -0.9313  0.1907 -0.3815
 2755SOL     OW11092   0.484   3.358   4.091 -0.4482  0.0437 -0.0268
 2755SOL    HW211093   0.559   3.310   4.125  0.4863  0.5745 -1.3335
 2755SOL    HW311094   0.512   3.390   4.005 -1.0001  3.1398  0.9934
 2755SOL    MW411095   0.497   3.356   4.084 -0.3934  0.5484 -0.0477
 2756SOL     OW11096   2.013   2.609   4.272 -0.0237 -0.8493  0.1017
 2756SOL    HW211097   2.088   2.571   4.226 -0.6173 -1.8685 -0.0365
 2756SOL    HW311098   2.044   2.695   4.299  0.7754 -0.7683 -1.0261
 2756SOL    MW411099   2.027   2.615   4.269  0.0000 -0.9775 -0.0477
 2757SOL     OW11100   0.374   2.994   4.615  0.2465  0.5127  0.1110
 2757SOL    HW211101   0.335   2.930   4.674  2.3262 -0.9670 -0.1796
 2757SOL    HW311102   0.368   3.077   4.662  0.6670 -0.4408  1.7302
 2757SOL    MW411103   0.368   2.996   4.629  0.5752  0.1907  0.2861
 2758SOL     OW11104   1.463   2.796   3.860 -0.3159  0.0194  0.3742
 2758SOL    HW211105   1.517   2.832   3.789  0.6844  0.4308  1.3723
 2758SOL    HW311106   1.522   2.738   3.907 -0.8166  0.2698  1.3254
 2758SOL    MW411107   1.478   2.793   3.857 -0.2503  0.1192  0.6437
 2759SOL     OW11108   4.488   3.423   4.572 -1.0292  0.1354 -0.1618
 2759SOL    HW211109   4.530   3.457   4.651 -0.2522 -1.4997  0.1648
 2759SOL    HW311110   4.559   3.407   4.511 -1.6062  0.9228 -1.0371
 2759SOL    MW411111   4.503   3.426   4.575 -1.0014  0.0000 -0.2384
 2760SOL     OW11112   0.235   3.687   4.122  0.2491  1.1324  0.3774
 2760SOL    HW211113   0.329   3.695   4.139  0.0967  0.3710  1.5790
 2760SOL    HW311114   0.229   3.623   4.051  0.7011  2.0496 -0.4800
 2760SOL    MW411115   0.247   3.680   4.115  0.2891  1.1683  0.4768
 2761SOL     OW11116   3.081   3.187   4.166  0.4453  0.3352  0.2871
 2761SOL    HW211117   3.096   3.105   4.118 -0.7712  0.6129 -0.6011
 2761SOL    HW311118   2.999   3.172   4.213  0.6670  0.7914  0.7498
 2761SOL    MW411119   3.072   3.174   4.166  0.3338  0.4053  0.2384
 2762SOL     OW11120   1.771   3.087   3.587  0.4708  0.3392 -0.1550
 2762SOL    HW211121   1.729   3.114   3.668  1.5707  1.0012  0.2129
 2762SOL    HW311122   1.849   3.040   3.616  0.1867 -0.5590 -0.7935
 2762SOL    MW411123   1.776   3.085   3.602  0.5841  0.3099 -0.1907
 2763SOL     OW11124   2.799   2.814   3.835 -0.0018 -0.9337  0.4198
 2763SOL    HW211125   2.709   2.787   3.854 -0.2194 -0.5368  0.0646
 2763SOL    HW311126   2.800   2.908   3.849  0.3029 -0.9003  0.1574
 2763SOL    MW411127   2.787   2.823   3.839  0.0000 -0.8821  0.3576
 2764SOL     OW11128   1.676   2.865   4.171  0.5761 -0.6998 -0.0164
 2764SOL    HW211129   1.588   2.902   4.178  1.1920  0.8634 -0.6980
 2764SOL    HW311130   1.735   2.935   4.199  1.6619 -1.5409 -0.1325
 2764SOL    MW411131   1.672   2.879   4.176  0.7987 -0.6437 -0.1431
 2765SOL     OW11132   2.135   3.339   3.473  0.3409 -0.1568  0.2759
 2765SOL    HW211133   2.058   3.333   3.417  0.6278 -0.9555  0.0045
 2765SOL    HW311134   2.100   3.368   3.558 -0.1813  0.0216  0.0007
 2765SOL    MW411135   2.120   3.342   3.477  0.2861 -0.2384  0.1907
 2766SOL     OW11136   1.824   4.006   4.031  0.6408 -1.0777  0.1313
 2766SOL    HW211137   1.813   4.101   4.025  2.2708 -0.9981 -1.0392
 2766SOL    HW311138   1.860   3.992   4.118 -0.5370 -0.7214  0.6684
 2766SOL    MW411139   1.827   4.017   4.042  0.7033 -1.0490  0.0477
 2767SOL     OW11140   2.395   4.546   2.890  0.5425  0.2523 -0.3431
 2767SOL    HW211141   2.352   4.526   2.973 -0.3511  1.5717 -0.4621
 2767SOL    HW311142   2.382   4.467   2.837  0.9695 -0.5356  0.7321
 2767SOL    MW411143   2.388   4.533   2.894  0.4768  0.2861 -0.2146
 2768SOL     OW11144   1.828   3.587   4.070  0.8205  0.1421  0.1980
 2768SOL    HW211145   1.912   3.625   4.045  1.2286 -0.8678 -0.0320
 2768SOL    HW311146   1.819   3.608   4.163  1.7145 -0.5020  0.4408
 2768SOL    MW411147   1.838   3.595   4.079  0.9894 -0.0715  0.2384
 2769SOL     OW11148   0.059   2.833   3.740 -0.5295  0.3033  0.0989
 2769SOL    HW211149  -0.033   2.852   3.758 -0.2430  1.2024  0.6118
 2769SOL    HW311150   0.107   2.892   3.798  0.3812 -1.1510  0.8331
 2769SOL    MW411151   0.053   2.844   3.750 -0.3710  0.2146  0.2623
 2770SOL     OW11152   1.794   0.002   4.251  0.2336 -0.3494 -0.0710
 2770SOL    HW211153   1.873   0.013   4.303  1.3936  0.1419 -1.9092
 2770SOL    HW311154   1.731   0.062   4.291  0.4145 -1.6849  2.2414
 2770SOL    MW411155   1.796   0.011   4.263  0.4172 -0.4608 -0.0477
 2771SOL     OW11156   1.198   1.055   4.691  0.3719  0.0816 -0.3129
 2771SOL    HW211157   1.253   1.042   4.768 -0.0225  2.4278  0.4160
 2771SOL    HW311158   1.179   1.149   4.689 -1.5094 -0.3185 -1.9130
 2771SOL    MW411159   1.203   1.066   4.701  0.0834  0.3457 -0.4292
 2772SOL     OW11160   1.968   0.687   4.567 -0.4117 -0.1820 -0.1763
 2772SOL    HW211161   1.913   0.765   4.561 -0.4958 -0.3199 -1.2459
 2772SOL    HW311162   2.058   0.721   4.567 -0.4703 -0.0226  0.4091
 2772SOL    MW411163   1.973   0.702   4.567 -0.4292 -0.1788 -0.2384
 2773SOL     OW11164   1.270   1.482   4.267 -0.2191 -0.7130  0.1225
 2773SOL    HW211165   1.278   1.535   4.347  0.1213 -1.7929  0.8251
 2773SOL    HW311166   1.333   1.522   4.207 -0.6297  0.2124  0.3150
 2773SOL    MW411167   1.280   1.494   4.270 -0.2265 -0.7272  0.2861
 2774SOL     OW11168   2.070   1.387   4.931 -0.5272 -0.7941  0.2600
 2774SOL    HW211169   2.084   1.372   5.025  0.2963 -0.8836  0.1169
 2774SOL    HW311170   2.112   1.471   4.913 -0.9890 -0.6082  0.0261
 2774SOL    MW411171   2.078   1.396   4.941 -0.4530 -0.7868  0.1907
 2775SOL     OW11172   1.901   1.839   4.323  0.2677 -0.6555 -0.2158
 2775SOL    HW211173   1.927   1.929   4.342  0.5770 -1.0969  1.3560
 2775SOL    HW311174   1.973   1.786   4.358 -1.5810 -1.7150  1.9143
 2775SOL    MW411175   1.914   1.844   4.330  0.0596 -0.8345  0.2384
 2776SOL     OW11176   1.900   1.214   3.966 -0.2597 -0.8042  0.3939
 2776SOL    HW211177   1.826   1.186   4.021 -0.5316 -0.8465  0.0217
 2776SOL    HW311178   1.876   1.302   3.936 -0.5710 -1.1908 -0.4921
 2776SOL    MW411179   1.887   1.222   3.969 -0.3338 -0.8821  0.2146
 2777SOL     OW11180   1.422   1.292   4.572 -0.0946 -0.7432 -0.2740
 2777SOL    HW211181   1.331   1.320   4.560  0.2960 -0.0394 -1.6312
 2777SOL    HW311182   1.470   1.372   4.590  0.1644 -1.1874  1.0393
 2777SOL    MW411183   1.416   1.306   4.573 -0.0238 -0.7033 -0.2861
 2778SOL     OW11184   1.298   1.651   4.490 -0.0719 -0.7251 -0.4035
 2778SOL    HW211185   1.338   1.709   4.425 -0.2732 -0.4007 -0.2462
 2778SOL    HW311186   1.242   1.708   4.542 -1.4648 -1.3765 -1.2057
 2778SOL    MW411187   1.296   1.666   4.489 -0.2742 -0.7868 -0.4768
 2779SOL     OW11188   2.757   2.519   3.785  0.0243  0.1675 -0.1856
 2779SOL    HW211189   2.757   2.502   3.879  0.1516  1.1383 -0.0080
 2779SOL    HW311190   2.816   2.594   3.773  0.5885 -0.4154 -1.1295
 2779SOL    MW411191   2.765   2.527   3.795  0.1192  0.2146 -0.2861
 2780SOL     OW11192   2.479   3.340   2.866 -0.1447 -0.2244 -0.3731
 2780SOL    HW211193   2.403   3.284   2.849 -1.5867  1.5795  0.2320
 2780SOL    HW311194   2.523   3.300   2.941 -0.9128 -0.8108 -0.2392
 2780SOL    MW411195   2.475   3.328   2.874 -0.4292 -0.0715 -0.2623
 2781SOL     OW11196   3.873   3.560   4.671  0.4454  0.4225 -0.1343
 2781SOL    HW211197   3.908   3.495   4.611 -1.0175 -0.0978 -0.5055
 2781SOL    HW311198   3.835   3.509   4.743 -0.6136  0.9588 -0.3277
 2781SOL    MW411199   3.872   3.545   4.673  0.1431  0.4292 -0.2384
 2782SOL     OW11200   1.037   2.520   4.143  0.2110  0.2012  0.3263
 2782SOL    HW211201   0.960   2.574   4.161 -0.1246  0.9362 -3.3808
 2782SOL    HW311202   1.112   2.577   4.163 -0.1849  0.6891  0.3681
 2782SOL    MW411203   1.037   2.535   4.148  0.1192  0.3576 -0.1431
 2783SOL     OW11204   2.089   2.687   4.545  0.1787  0.1549 -0.3419
 2783SOL    HW211205   2.034   2.623   4.501  0.1563 -0.6344  0.8224
 2783SOL    HW311206   2.028   2.755   4.575  0.1325  0.5919 -1.3607
 2783SOL    MW411207   2.074   2.688   4.543  0.1669  0.1192 -0.3338
 2784SOL     OW11208   1.517   4.575   4.735  1.1182 -0.1424 -0.2171
 2784SOL    HW211209   1.434   4.615   4.709  0.9715  0.1982  0.7424
 2784SOL    HW311210   1.491   4.500   4.789  1.5009  1.1653  1.7425
 2784SOL    MW411211   1.502   4.571   4.739  1.1683  0.0954  0.1431
 2785SOL     OW11212   2.581   0.134   4.480  0.1174  0.9565 -0.7199
 2785SOL    HW211213   2.508   0.163   4.535  0.7711  1.3631 -0.0578
 2785SOL    HW311214   2.658   0.175   4.520  0.9382 -1.0978 -0.1688
 2785SOL    MW411215   2.581   0.144   4.493  0.3099  0.7391 -0.5245
 2786SOL     OW11216   1.554   2.622   3.301 -0.1816  0.1017 -0.1712
 2786SOL    HW211217   1.502   2.692   3.339 -0.9080 -0.4125 -0.2175
 2786SOL    HW311218   1.644   2.640   3.330 -0.5192  0.5103  0.6134
 2786SOL    MW411219   1.559   2.633   3.310 -0.3219  0.0715 -0.0477
 2787SOL     OW11220   2.646   0.279   4.069  0.1817 -0.5283  0.4190
 2787SOL    HW211221   2.591   0.200   4.066 -0.4646 -0.0933  1.0551
 2787SOL    HW311222   2.708   0.267   3.996 -1.0839 -0.7583 -0.5788
 2787SOL    MW411223   2.647   0.267   4.059 -0.0477 -0.5007  0.3815
 2788SOL     OW11224   2.077   4.539   3.788  0.2947 -0.1313 -0.4597
 2788SOL    HW211225   2.149   4.555   3.727 -0.1407 -0.6610 -1.1040
 2788SOL    HW311226   2.081   4.612   3.850  1.5251 -0.2160 -0.3688
 2788SOL    MW411227   2.087   4.551   3.788  0.4053 -0.1907 -0.5007
 2789SOL     OW11228   2.745   3.112   3.874  0.0524 -0.8378 -0.3792
 2789SOL    HW211229   2.669   3.144   3.923  1.2912  0.6971  0.5189
 2789SOL    HW311230   2.813   3.178   3.890  0.9037 -1.0550 -3.0358
 2789SOL    MW411231   2.744   3.125   3.883  0.3338 -0.6676 -0.6199
 2790SOL     OW11232   1.846   3.585   3.690 -0.2498 -0.3031 -0.0901
 2790SOL    HW211233   1.905   3.513   3.712 -0.2836 -0.3397 -0.1695
 2790SOL    HW311234   1.784   3.588   3.763 -0.1772 -0.3019 -0.0147
 2790SOL    MW411235   1.846   3.576   3.703 -0.2384 -0.3099 -0.1192
 2791SOL     OW11236   2.352   0.524   4.467  0.3264  0.1493 -0.2480
 2791SOL    HW211237   2.279   0.466   4.448 -0.1261  0.3644  0.8441
 2791SOL    HW311238   2.408   0.474   4.526 -0.6156  1.2169  1.6106
 2791SOL    MW411239   2.350   0.510   4.472  0.1192  0.3099  0.1431
 2792SOL     OW11240   2.053   0.092   4.338 -0.0624 -0.3761  0.1523
 2792SOL    HW211241   2.090   0.051   4.416  0.2204  0.7362  0.6200
 2792SOL    HW311242   2.059   0.186   4.356  0.4668 -0.1116 -1.4646
 2792SOL    MW411243   2.058   0.099   4.351  0.0477 -0.1945  0.0000
 2793SOL     OW11244   2.753   0.801   4.349  0.4402  0.7127  0.3318
 2793SOL    HW211245   2.674   0.853   4.361  0.9439  0.8845  2.6422
 2793SOL    HW311246   2.722   0.711   4.346 -0.0622  0.9278 -0.7991
 2793SOL    MW411247   2.738   0.796   4.350  0.4292  0.7570  0.4768
 2794SOL     OW11248   1.005   1.582   4.493 -0.5492 -0.6685  0.0149
 2794SOL    HW211249   1.054   1.509   4.530 -1.8795 -1.1978  0.7419
 2794SOL    HW311250   1.033   1.658   4.544  0.3718 -0.7717 -0.2871
 2794SOL    MW411251   1.015   1.583   4.504 -0.6080 -0.7510  0.0477
 2795SOL     OW11252   3.176   0.591   4.787  1.2453 -0.6584  1.3805
 2795SOL    HW211253   3.165   0.615   4.879  1.5167 -1.7109  1.7107
 2795SOL    HW311254   3.162   0.673   4.739  0.9507 -0.1434  2.3462
 2795SOL    MW411255   3.173   0.605   4.793  1.2636 -0.7331  1.4782
 2796SOL     OW11256   1.535   1.543   4.565 -0.0810 -0.3240 -0.6097
 2796SOL    HW211257   1.567   1.617   4.617 -1.5942 -1.9181  2.5640
 2796SOL    HW311258   1.445   1.566   4.544  0.0807 -0.3061 -1.3016
 2796SOL    MW411259   1.528   1.555   4.569 -0.2623 -0.5364 -0.3338
 2797SOL     OW11260   3.154   0.179   4.084 -0.2435  0.8391  0.3110
 2797SOL    HW211261   3.075   0.127   4.075 -0.0502  0.5327  0.5128
 2797SOL    HW311262   3.126   0.269   4.067 -0.6638  0.7512  0.5940
 2797SOL    MW411263   3.140   0.184   4.081 -0.2623  0.7868  0.4292
 2798SOL     OW11264   1.652   0.477   4.395  0.0818 -0.9205 -0.1642
 2798SOL    HW211265   1.683   0.492   4.484  0.7853 -1.9126 -0.2751
 2798SOL    HW311266   1.557   0.472   4.403  0.1189 -0.6625  0.4659
 2798SOL    MW411267   1.644   0.478   4.408  0.1907 -1.0163 -0.0954
 2799SOL     OW11268   3.958   4.510   3.982  0.1558 -0.7263 -1.2728
 2799SOL    HW211269   3.898   4.585   3.983 -0.3580 -1.1505 -0.6958
 2799SOL    HW311270   4.041   4.546   4.013 -0.5034 -0.7285  0.5621
 2799SOL    MW411271   3.961   4.525   3.986  0.0000 -0.7629 -0.9298
 2800SOL     OW11272   3.905   0.174   4.003 -1.2727 -0.1032 -0.1699
 2800SOL    HW211273   3.941   0.196   3.918 -0.8500 -0.0791  0.0080
 2800SOL    HW311274   3.973   0.197   4.065 -1.7238  0.1520  0.1944
 2800SOL    MW411275   3.919   0.180   4.000 -1.2875 -0.0656 -0.0954
 2801SOL     OW11276   3.018   1.480   4.014 -0.2929 -0.7614  0.0205
 2801SOL    HW211277   2.992   1.531   3.938  2.8850  0.1876 -0.4932
 2801SOL    HW311278   2.982   1.527   4.089 -1.1433 -0.2742 -0.7716
 2801SOL    MW411279   3.010   1.493   4.014  0.0477 -0.5722 -0.1431
 2802SOL     OW11280   3.779   1.204   4.255 -0.1982 -1.0109 -0.0592
 2802SOL    HW211281   3.849   1.236   4.311  0.0133 -1.1673 -0.2156
 2802SOL    HW311282   3.711   1.271   4.260  0.2016 -0.6523 -0.2605
 2802SOL    MW411283   3.779   1.217   4.263 -0.1192 -0.9894 -0.1431
 2803SOL     OW11284   0.225   2.625   4.368  0.6568 -0.7999 -0.1187
 2803SOL    HW211285   0.315   2.644   4.395  0.2541  1.4264 -0.2948
 2803SOL    HW311286   0.180   2.709   4.377 -0.5344 -1.0958 -3.4794
 2803SOL    MW411287   0.231   2.639   4.373  0.4455 -0.5722 -0.6199
 2804SOL     OW11288   1.135   2.238   4.269 -0.3143 -0.0133 -0.0317
 2804SOL    HW211289   1.095   2.258   4.353  2.1482  0.2359  1.0861
 2804SOL    HW311290   1.171   2.322   4.238  0.5374 -0.4630 -0.3729
 2804SOL    MW411291   1.135   2.252   4.276  0.1192 -0.0238  0.0954
 2805SOL     OW11292   1.503   2.123   4.461 -0.6340 -0.4657  0.0971
 2805SOL    HW211293   1.568   2.164   4.519  1.1987 -1.5515 -1.1581
 2805SOL    HW311294   1.505   2.176   4.382 -1.4883 -0.3083  0.1677
 2805SOL    MW411295   1.512   2.136   4.458 -0.5007 -0.5960 -0.0477
 2806SOL     OW11296   2.699   3.490   3.742  0.8243 -0.0107  0.0872
 2806SOL    HW211297   2.684   3.469   3.834  0.8045  1.0275  0.3018
 2806SOL    HW311298   2.755   3.418   3.711 -1.1019 -1.6518  0.2621
 2806SOL    MW411299   2.705   3.477   3.750  0.5722 -0.1192  0.1431
 2807SOL     OW11300   1.251   2.041   4.517 -0.1468 -0.5682  0.4368
 2807SOL    HW211301   1.204   2.123   4.529  1.0248  0.1434  0.0387
 2807SOL    HW311302   1.341   2.067   4.495  0.0605 -1.9773 -0.3709
 2807SOL    MW411303   1.257   2.055   4.515  0.0358 -0.6676  0.2384
 2808SOL     OW11304   1.369   3.456   4.381 -0.0734  0.3241 -0.9446
 2808SOL    HW211305   1.445   3.399   4.393  0.8792  1.7325 -0.2970
 2808SOL    HW311306   1.308   3.430   4.450  0.6573  0.5086 -0.2419
 2808SOL    MW411307   1.371   3.445   4.392  0.1311  0.5245 -0.7629
 2809SOL     OW11308   2.173   0.263   3.803 -0.6415  0.4532 -0.5205
 2809SOL    HW211309   2.170   0.201   3.876 -0.0708  0.3377 -0.5873
 2809SOL    HW311310   2.265   0.287   3.795 -0.7860  0.8978 -0.8483
 2809SOL    MW411311   2.184   0.258   3.811 -0.5960  0.4977 -0.5722
 2810SOL     OW11312   2.488   0.021   3.656  0.0394 -0.2202 -0.7506
 2810SOL    HW211313   2.461   0.085   3.590  1.4744  0.3799 -0.7629
 2810SOL    HW311314   2.489   0.069   3.738  0.2508 -0.4670 -0.5842
 2810SOL    MW411315   2.485   0.036   3.658  0.2384 -0.1736 -0.7391
 2811SOL     OW11316   0.279   4.363   3.433  0.3874  0.1241  0.3650
 2811SOL    HW211317   0.203   4.307   3.445  1.8142 -1.9066 -0.1555
 2811SOL    HW311318   0.246   4.452   3.446 -1.9489 -0.7616  0.6837
 2811SOL    MW411319   0.265   4.367   3.436  0.2652 -0.2384  0.3338
 2812SOL     OW11320   2.604   2.848   3.487  0.1699 -0.5939  0.0408
 2812SOL    HW211321   2.641   2.922   3.535  0.2795 -0.2899 -0.5600
 2812SOL    HW311322   2.524   2.827   3.535  0.6890 -0.7775  0.9037
 2812SOL    MW411323   2.598   2.855   3.500  0.2623 -0.5722  0.0954
 2813SOL     OW11324   2.337   0.191   4.237 -0.2869  0.1864 -0.2080
 2813SOL    HW211325   2.429   0.193   4.263  0.2755  0.2290 -2.1649
 2813SOL    HW311326   2.293   0.247   4.300  1.1713  0.6479  0.4352
 2813SOL    MW411327   2.343   0.199   4.249  0.0000  0.2518 -0.3815
 2814SOL     OW11328   1.577   3.272   4.481 -1.0301  0.0807 -0.5448
 2814SOL    HW211329   1.672   3.279   4.491 -1.1347  1.0078 -0.1657
 2814SOL    HW311330   1.556   3.184   4.513 -0.2739 -0.1898 -0.7319
 2814SOL    MW411331   1.587   3.262   4.487 -0.9418  0.1669 -0.5245
 2815SOL     OW11332   2.200   0.714   4.184  0.8087 -0.0389  0.1179
 2815SOL    HW211333   2.163   0.659   4.115 -0.1183  0.1304  0.4867
 2815SOL    HW311334   2.145   0.698   4.260  0.8628  0.9877  0.3743
 2815SOL    MW411335   2.188   0.705   4.185  0.7153  0.1192  0.1907
 2816SOL     OW11336   1.678   1.124   4.604 -0.0971 -1.0898 -0.6217
 2816SOL    HW211337   1.700   1.176   4.682  1.1682 -0.0451 -1.6735
 2816SOL    HW311338   1.594   1.160   4.574 -0.0075 -0.7227 -0.4451
 2816SOL    MW411339   1.670   1.135   4.611  0.0834 -0.9060 -0.7153
 2817SOL     OW11340   1.129   1.310   4.562 -0.0364 -0.7942 -0.1196
 2817SOL    HW211341   1.122   1.253   4.485  1.4044  0.4403 -1.1628
 2817SOL    HW311342   1.039   1.316   4.594 -0.6404 -1.2527 -1.7581
 2817SOL    MW411343   1.116   1.303   4.556  0.0834 -0.6914 -0.4768
 2818SOL     OW11344   1.835   1.258   5.158 -0.2590 -0.7455 -1.5557
 2818SOL    HW211345   1.767   1.238   5.221 -0.1626 -3.6532 -2.3898
 2818SOL    HW311346   1.896   1.315   5.205 -1.0786 -1.5538  0.5081
 2818SOL    MW411347   1.834   1.263   5.172 -0.3576 -1.2279 -1.3351
 2819SOL     OW11348   2.548   1.177   4.333 -0.3865 -0.0257  0.2285
 2819SOL    HW211349   2.500   1.235   4.393 -0.1019  0.8729 -0.4011
 2819SOL    HW311350   2.535   1.215   4.247 -0.1459 -0.8888 -0.1823
 2819SOL    MW411351   2.540   1.190   4.330 -0.3338 -0.0238  0.0954
 2820SOL     OW11352   0.230   0.236   4.293 -0.7985 -0.5026 -0.1888
 2820SOL    HW211353   0.263   0.167   4.350  0.7053 -1.1463 -1.8221
 2820SOL    HW311354   0.273   0.316   4.325  0.0922 -0.8722 -0.4577
 2820SOL    MW411355   0.240   0.238   4.305 -0.4843 -0.6378 -0.4768
 2821SOL     OW11356   2.007   1.235   4.342 -0.0594 -0.1007 -0.9341
 2821SOL    HW211357   1.985   1.161   4.398 -0.9806  0.7055 -0.2592
 2821SOL    HW311358   1.961   1.309   4.381  1.1048  0.9127 -1.5328
 2821SOL    MW411359   1.998   1.235   4.355 -0.0358  0.1311 -0.9060
 2822SOL     OW11360   2.996   0.427   4.046  0.1119 -0.3745  0.1650
 2822SOL    HW211361   2.954   0.483   4.112  2.7199  1.3436  0.4079
 2822SOL    HW311362   2.940   0.434   3.969 -1.5112 -0.2810  1.3906
 2822SOL    MW411363   2.983   0.435   4.044  0.2384 -0.1341  0.4292
 2823SOL     OW11364   0.289   0.314   4.036  0.3050  0.0563  0.1135
 2823SOL    HW211365   0.383   0.306   4.019  0.5714 -0.3451  1.7846
 2823SOL    HW311366   0.278   0.278   4.124 -1.6609 -1.5250 -0.7818
 2823SOL    MW411367   0.300   0.308   4.045  0.0805 -0.2027  0.1907
 2824SOL     OW11368   0.429   0.477   4.640  0.8297 -0.4877  0.3562
 2824SOL    HW211369   0.341   0.510   4.657  0.0758 -2.0347 -0.5561
 2824SOL    HW311370   0.447   0.504   4.550  0.4311 -2.1316 -0.1886
 2824SOL    MW411371   0.420   0.485   4.630  0.6765 -0.9060  0.2384
 2825SOL     OW11372   0.076   1.869   4.021  0.3963  0.0001  0.5018
 2825SOL    HW211373   0.002   1.927   4.040  0.7299  0.1735  1.3282
 2825SOL    HW311374   0.099   1.890   3.930  0.1030  0.6142  0.5738
 2825SOL    MW411375   0.069   1.880   4.012  0.4008  0.1073  0.6199
 2826SOL     OW11376   4.329   0.472   4.296  0.0121 -0.5452 -0.1743
 2826SOL    HW211377   4.267   0.420   4.246 -0.3661 -0.3697  0.0659
 2826SOL    HW311378   4.336   0.554   4.247 -0.0582 -0.5153 -0.1266
 2826SOL    MW411379   4.322   0.476   4.283 -0.0477 -0.5186 -0.1431
 2827SOL     OW11380   3.130   3.460   4.183  0.8834 -0.9373  0.5131
 2827SOL    HW211381   3.104   3.368   4.184  0.3987 -0.8046 -1.1004
 2827SOL    HW311382   3.047   3.508   4.181  1.1393 -0.4862  0.1932
 2827SOL    MW411383   3.116   3.455   4.183  0.8583 -0.8821  0.2861
 2828SOL     OW11384   3.843   3.721   3.229  0.2115 -0.8156 -0.0356
 2828SOL    HW211385   3.933   3.753   3.234 -0.0609  0.0829 -1.2008
 2828SOL    HW311386   3.805   3.744   3.314  0.6228  0.1721 -0.0938
 2828SOL    MW411387   3.850   3.728   3.241  0.2384 -0.5722 -0.2146
 2829SOL     OW11388   3.972   3.859   4.115  0.9100  0.5240 -0.1202
 2829SOL    HW211389   4.054   3.823   4.149  2.2090  0.9212 -2.8923
 2829SOL    HW311390   3.967   3.825   4.025 -1.3075  1.4178 -0.3922
 2829SOL    MW411391   3.982   3.850   4.107  0.8106  0.7153 -0.5245
 2830SOL     OW11392   4.436   4.057   3.617  0.6679 -0.4020 -0.1263
 2830SOL    HW211393   4.411   4.050   3.525  0.5707 -0.1716 -0.1094
 2830SOL    HW311394   4.447   4.151   3.632  1.5484 -0.4961 -0.1710
 2830SOL    MW411395   4.434   4.068   3.607  0.8106 -0.3815 -0.1192
 2831SOL     OW11396   2.767   0.508   4.203 -0.1084  0.3620 -0.1949
 2831SOL    HW211397   2.742   0.422   4.169 -1.5542  1.2971 -1.5267
 2831SOL    HW311398   2.684   0.554   4.216  0.7430  2.4165 -1.8466
 2831SOL    MW411399   2.753   0.503   4.200 -0.2146  0.7570 -0.5722
 2832SOL     OW11400   3.243   3.777   4.116  0.2755 -0.1054 -0.9326
 2832SOL    HW211401   3.160   3.765   4.071 -0.9650  0.6422  1.1749
 2832SOL    HW311402   3.224   3.840   4.185  2.9003  1.0333 -1.2412
 2832SOL    MW411403   3.229   3.784   4.119  0.4768  0.1669 -0.7629
 2833SOL     OW11404   3.655   3.766   3.729  0.4227 -1.1077 -0.2413
 2833SOL    HW211405   3.592   3.791   3.796  0.4426 -1.4826 -0.0677
 2833SOL    HW311406   3.618   3.687   3.690  0.4791 -0.9114 -0.6498
 2833SOL    MW411407   3.642   3.759   3.732  0.4530 -1.1206 -0.2861
 2834SOL     OW11408   0.554   3.886   4.682 -0.0200 -0.2165  0.1743
 2834SOL    HW211409   0.510   3.919   4.604  0.2868 -0.8534 -0.2903
 2834SOL    HW311410   0.620   3.825   4.649 -0.4489 -1.1160  0.9793
 2834SOL    MW411411   0.557   3.882   4.668 -0.0358 -0.4292  0.1907
 2835SOL     OW11412   3.267   4.022   3.535  0.2133  0.1130  0.1774
 2835SOL    HW211413   3.210   4.092   3.503  0.2791  0.2488  0.3943
 2835SOL    HW311414   3.332   4.067   3.589  2.1254  0.2070 -2.2636
 2835SOL    MW411415   3.268   4.037   3.538  0.4530  0.1431 -0.1431
 2836SOL     OW11416   0.421   4.536   4.284  0.6827  0.0602  0.6690
 2836SOL    HW211417   0.349   4.535   4.221  0.4401 -0.3425  0.9236
 2836SOL    HW311418   0.423   4.448   4.320  0.7331  0.3523  1.3659
 2836SOL    MW411419   0.412   4.524   4.280  0.6586  0.0477  0.8106
 2837SOL     OW11420   2.110   1.509   4.597 -0.4098 -0.1693  0.0262
 2837SOL    HW211421   2.099   1.425   4.641  0.7144  0.1819  0.9958
 2837SOL    HW311422   2.159   1.489   4.518 -1.6820 -0.6631 -0.6177
 2837SOL    MW411423   2.115   1.496   4.592 -0.4292 -0.1907  0.0954
 2838SOL     OW11424   2.789   4.026   4.197 -0.3209 -1.0442 -0.5664
 2838SOL    HW211425   2.732   4.102   4.210 -0.7939 -1.5166  0.1827
 2838SOL    HW311426   2.876   4.063   4.184 -0.4813 -0.4328  0.2535
 2838SOL    MW411427   2.793   4.041   4.197 -0.3815 -1.0014 -0.3815
 2839SOL     OW11428   3.863   3.324   3.065 -0.2154 -0.2934 -0.0124
 2839SOL    HW211429   3.785   3.379   3.077  0.7761  1.0320  0.5313
 2839SOL    HW311430   3.905   3.360   2.987 -0.1162 -0.9818 -0.2345
 2839SOL    MW411431   3.858   3.336   3.056 -0.0715 -0.1907  0.0477
 2840SOL     OW11432   2.388   4.564   4.212 -0.7583 -0.1495  0.0630
 2840SOL    HW211433   2.375   4.657   4.228  0.9561 -0.0228  0.5397
 2840SOL    HW311434   2.464   4.541   4.266 -0.5827 -1.6210 -0.8463
 2840SOL    MW411435   2.397   4.573   4.221 -0.5007 -0.3338  0.0000
 2841SOL     OW11436   3.614   0.206   4.553 -0.6579 -0.3807 -0.0963
 2841SOL    HW211437   3.698   0.220   4.597  0.2531 -0.1308 -1.9288
 2841SOL    HW311438   3.568   0.289   4.565 -0.2526 -0.1607  0.0120
 2841SOL    MW411439   3.619   0.219   4.561 -0.4768 -0.3189 -0.3338
 2842SOL     OW11440   2.635   4.541   4.362 -0.2068 -0.8742 -0.7804
 2842SOL    HW211441   2.627   4.630   4.395 -0.7716 -0.4552 -1.8606
 2842SOL    HW311442   2.702   4.500   4.416  0.1932  0.3100 -0.3994
 2842SOL    MW411443   2.643   4.547   4.373 -0.2146 -0.6199 -0.8583
 2843SOL     OW11444   0.623   0.378   3.876 -0.0266 -0.1481 -0.5289
 2843SOL    HW211445   0.626   0.351   3.968 -0.5860 -0.3335 -0.5592
 2843SOL    HW311446   0.683   0.452   3.871  2.2737 -2.0330 -0.6401
 2843SOL    MW411447   0.631   0.384   3.888  0.1967 -0.4202 -0.5484
 2844SOL     OW11448   2.723   0.774   4.660  0.3234  0.0600 -0.2198
 2844SOL    HW211449   2.737   0.686   4.694  0.7212 -0.1483 -0.9128
 2844SOL    HW311450   2.766   0.774   4.574  2.1899  1.5816  0.7002
 2844SOL    MW411451   2.731   0.763   4.653  0.6437  0.2325 -0.1431
 2845SOL     OW11452   4.177   4.424   3.794  0.2621 -0.8837 -1.4711
 2845SOL    HW211453   4.082   4.437   3.793  0.0424 -2.1396 -0.2817
 2845SOL    HW311454   4.205   4.457   3.879  0.8447 -0.9992 -1.6552
 2845SOL    MW411455   4.168   4.430   3.805  0.2861 -1.0967 -1.3590
 2846SOL     OW11456   0.993   1.034   4.485  0.0023 -0.5124 -0.0280
 2846SOL    HW211457   0.897   1.042   4.487 -0.0693 -1.4862  1.0598
 2846SOL    HW311458   1.019   1.045   4.577  0.9625 -0.1501 -0.3693
 2846SOL    MW411459   0.984   1.036   4.498  0.1252 -0.5960  0.0477
 2847SOL     OW11460   0.503   0.582   4.318  0.7216 -0.4692 -0.5853
 2847SOL    HW211461   0.408   0.594   4.324  0.7345  0.0416 -1.3438
 2847SOL    HW311462   0.539   0.668   4.335  1.0131 -0.4754 -1.1478
 2847SOL    MW411463   0.495   0.595   4.321  0.7629 -0.4053 -0.7629
 2848SOL     OW11464   0.313   1.992   4.108 -0.1512  0.3825  0.0984
 2848SOL    HW211465   0.229   1.948   4.094  1.1282 -2.2338  0.6625
 2848SOL    HW311466   0.357   1.987   4.023  1.2235 -2.0248  0.9170
 2848SOL    MW411467   0.308   1.986   4.095  0.1997 -0.2861  0.2861
 2849SOL     OW11468   0.151   1.249   4.147  0.7017  0.1366  0.7912
 2849SOL    HW211469   0.061   1.220   4.129  0.6358  0.1674  1.0663
 2849SOL    HW311470   0.202   1.218   4.073  0.2468  1.1095  0.0370
 2849SOL    MW411471   0.146   1.241   4.135  0.6333  0.2623  0.7153
 2850SOL     OW11472   4.363   0.676   4.111  0.4104 -0.1321  0.0610
 2850SOL    HW211473   4.420   0.615   4.063  1.3460 -1.0832  2.3648
 2850SOL    HW311474   4.421   0.748   4.136  0.3523 -0.4920  1.2897
 2850SOL    MW411475   4.378   0.678   4.108  0.5245 -0.3099  0.4768
 2851SOL     OW11476   0.248   3.097   4.361 -0.0633 -0.7279 -0.0097
 2851SOL    HW211477   0.163   3.131   4.390  1.9623  4.0108  0.4140
 2851SOL    HW311478   0.289   3.063   4.440  0.3423  1.1793  0.5887
 2851SOL    MW411479   0.242   3.097   4.375  0.2563  0.1669  0.1907
 2852SOL     OW11480   4.092   2.181   3.889 -0.3731 -0.1241  0.1935
 2852SOL    HW211481   4.151   2.142   3.953  0.7122  0.1629 -0.6515
 2852SOL    HW311482   4.079   2.271   3.920 -1.2865 -0.5313  1.0286
 2852SOL    MW411483   4.098   2.188   3.902 -0.3815 -0.1431  0.1907
 2853SOL     OW11484   3.671   3.834   3.443 -0.1054 -0.0459 -0.1541
 2853SOL    HW211485   3.714   3.917   3.464  0.9078 -0.6615  0.0983
 2853SOL    HW311486   3.658   3.792   3.527 -0.3904 -0.2940 -0.3558
 2853SOL    MW411487   3.675   3.840   3.457  0.0238 -0.1431 -0.1907
 2854SOL     OW11488   3.766   4.074   3.523 -0.3025 -0.8559 -0.3466
 2854SOL    HW211489   3.721   4.154   3.495 -1.6973 -1.8968 -0.9949
 2854SOL    HW311490   3.758   4.074   3.618  1.4626  0.8724 -0.2013
 2854SOL    MW411491   3.759   4.085   3.532 -0.2623 -0.7629 -0.4292
 2855SOL     OW11492   0.806   0.182   4.368  0.8826 -1.1163  0.1264
 2855SOL    HW211493   0.782   0.177   4.276  0.7977 -1.3337  0.2226
 2855SOL    HW311494   0.814   0.275   4.386  1.6101 -1.0926 -0.2749
 2855SOL    MW411495   0.804   0.193   4.358  0.9656 -1.1414  0.1431
 2856SOL     OW11496   2.455   3.492   3.606  0.3158  0.0543 -0.1178
 2856SOL    HW211497   2.393   3.539   3.661  1.1983  1.2205 -0.1639
 2856SOL    HW311498   2.537   3.493   3.657  0.7917  0.0198 -0.8766
 2856SOL    MW411499   2.458   3.498   3.620  0.4768  0.2146 -0.2146
 2857SOL     OW11500   2.887   3.806   4.320  0.3176 -0.1648 -0.0163
 2857SOL    HW211501   2.886   3.824   4.415  0.7972 -1.4125  0.2370
 2857SOL    HW311502   2.840   3.881   4.282  0.3303  0.4702  1.2613
 2857SOL    MW411503   2.881   3.819   4.328  0.3815 -0.2384  0.1907
 2858SOL     OW11504   2.502   3.148   3.440 -0.2142 -0.3855 -0.3749
 2858SOL    HW211505   2.492   3.241   3.417  0.2887 -0.2523 -0.0500
 2858SOL    HW311506   2.559   3.148   3.517 -1.0270 -0.9343  0.2146
 2858SOL    MW411507   2.508   3.160   3.447 -0.2384 -0.4292 -0.2623
 2859SOL     OW11508   0.540   0.242   4.367  0.1664 -0.0121 -0.4520
 2859SOL    HW211509   0.489   0.185   4.424 -0.0041 -0.1191 -0.7301
 2859SOL    HW311510   0.631   0.218   4.383  0.0101 -1.5137 -1.8058
 2859SOL    MW411511   0.546   0.231   4.376  0.1192 -0.2235 -0.6676
 2860SOL     OW11512   4.029   2.729   3.861  0.0025 -0.1487  0.0810
 2860SOL    HW211513   4.026   2.820   3.833  1.3698  0.1164  0.8267
 2860SOL    HW311514   3.958   2.721   3.925  1.5422  0.9807  1.9145
 2860SOL    MW411515   4.019   2.740   3.866  0.3815  0.0477  0.4053
 2861SOL     OW11516   0.847   0.464   4.436  0.6402  0.3889 -0.1309
 2861SOL    HW211517   0.925   0.514   4.413  0.7456  0.2496 -0.0764
 2861SOL    HW311518   0.835   0.480   4.530  0.4726  0.5764 -0.2059
 2861SOL    MW411519   0.855   0.473   4.446  0.6318  0.3934 -0.1431
 2862SOL     OW11520   0.914   4.574   3.934  0.6362  0.1031  0.3304
 2862SOL    HW211521   0.845   4.581   3.868  0.0632 -0.9402  0.8264
 2862SOL    HW311522   0.926   4.479   3.945  1.2519  0.2605  1.1256
 2862SOL    MW411523   0.906   4.562   3.927  0.6497 -0.0477  0.5007
 2863SOL     OW11524   2.488   0.041   3.956  0.2291  0.0544 -0.4902
 2863SOL    HW211525   2.492  -0.049   3.924 -1.5965  0.4962 -2.0651
 2863SOL    HW311526   2.396   0.053   3.981  0.6052  1.3333  0.1816
 2863SOL    MW411527   2.476   0.030   3.955  0.0477  0.2857 -0.6437
 2864SOL     OW11528   3.046   0.306   4.472 -0.0713 -0.5483 -0.2604
 2864SOL    HW211529   3.027   0.213   4.459 -0.2859 -0.4449 -0.5841
 2864SOL    HW311530   3.123   0.323   4.418 -1.4012  0.0241 -1.9350
 2864SOL    MW411531   3.054   0.296   4.464 -0.2861 -0.4590 -0.5245
 2865SOL     OW11532   2.362   1.385   4.494 -0.0473 -0.1945  0.3016
 2865SOL    HW211533   2.368   1.448   4.566  3.9748 -1.1842  0.7781
 2865SOL    HW311534   2.408   1.425   4.422  0.9575 -1.7518  0.0287
 2865SOL    MW411535   2.369   1.398   4.494  0.6199 -0.5245  0.2861
 2866SOL     OW11536   1.110   0.312   3.660  0.0230  0.3480 -0.4291
 2866SOL    HW211537   1.021   0.290   3.687 -0.2186 -1.2066 -2.4034
 2866SOL    HW311538   1.160   0.233   3.679  0.7458  0.8142 -0.3710
 2866SOL    MW411539   1.105   0.298   3.666  0.0834  0.2056 -0.6914
 2867SOL     OW11540   1.433   0.459   4.671  0.0845 -0.1574  0.2161
 2867SOL    HW211541   1.398   0.541   4.704  1.9844  0.5305  0.5567
 2867SOL    HW311542   1.525   0.478   4.653  0.1993 -1.8474 -0.9731
 2867SOL    MW411543   1.441   0.472   4.673  0.3457 -0.2861  0.1431
 2868SOL     OW11544   1.311   0.174   4.201 -0.3619 -1.3936  0.1283
 2868SOL    HW211545   1.242   0.228   4.239  0.8850 -0.4755  1.0707
 2868SOL    HW311546   1.355   0.231   4.138 -0.6010 -2.0501 -0.6088
 2868SOL    MW411547   1.308   0.189   4.197 -0.2265 -1.3590  0.1907
 2869SOL     OW11548   0.031   0.084   3.801 -0.3038 -0.5323  0.3102
 2869SOL    HW211549   0.079   0.165   3.789  1.4615 -1.6583 -0.1722
 2869SOL    HW311550  -0.016   0.095   3.883 -0.9260  1.4438 -0.3207
 2869SOL    MW411551   0.031   0.096   3.810 -0.1526 -0.4210  0.1431
 2870SOL     OW11552   0.433   0.361   3.631 -0.4532 -0.3365 -0.2302
 2870SOL    HW211553   0.514   0.344   3.583 -0.9195 -2.4923 -0.3002
 2870SOL    HW311554   0.455   0.432   3.691  1.3834 -0.7357 -0.4349
 2870SOL    MW411555   0.446   0.368   3.633 -0.2712 -0.6765 -0.2861
 2871SOL     OW11556   4.192   3.257   4.108 -0.6235 -0.5161 -0.2593
 2871SOL    HW211557   4.225   3.297   4.187  1.2773 -0.8141 -0.9132
 2871SOL    HW311558   4.200   3.325   4.041 -0.1296 -1.0175 -0.7319
 2871SOL    MW411559   4.197   3.271   4.109 -0.2861 -0.6199 -0.4292
 2872SOL     OW11560   1.016   1.589   4.224 -0.1024  0.1867  0.0567
 2872SOL    HW211561   1.100   1.542   4.220 -0.7218 -0.9393  0.4405
 2872SOL    HW311562   0.996   1.594   4.317 -1.4266 -1.2618 -0.1291
 2872SOL    MW411563   1.025   1.583   4.236 -0.3576 -0.1550  0.0477
 2873SOL     OW11564   3.291   3.307   3.817 -0.1345  0.3077 -0.1834
 2873SOL    HW211565   3.325   3.396   3.804  2.0678 -0.5959 -0.7398
 2873SOL    HW311566   3.325   3.281   3.902 -1.3080  0.2529  0.2386
 2873SOL    MW411567   3.300   3.315   3.826 -0.0238  0.1907 -0.2146
 2874SOL     OW11568   0.455   2.273   3.573  0.7490 -0.3802 -0.3294
 2874SOL    HW211569   0.544   2.262   3.606  0.2590  0.0713  1.1611
 2874SOL    HW311570   0.399   2.237   3.642 -0.3093  1.0993 -0.4119
 2874SOL    MW411571   0.459   2.267   3.587  0.5454 -0.1669 -0.1192
 2875SOL     OW11572   0.115   0.872   4.126 -0.1830  0.5176 -0.4115
 2875SOL    HW211573   0.130   0.910   4.213  0.6947 -0.3073 -0.1554
 2875SOL    HW311574   0.104   0.947   4.068  1.8577  1.0966 -0.0056
 2875SOL    MW411575   0.115   0.887   4.130  0.2019  0.4768 -0.2861
 2876SOL     OW11576   0.052   1.507   4.193  0.0403 -0.1287 -0.0219
 2876SOL    HW211577   0.123   1.568   4.173  0.6635 -1.1731 -0.8878
 2876SOL    HW311578   0.093   1.421   4.194 -1.0493 -0.6407  0.3625
 2876SOL    MW411579   0.067   1.504   4.191 -0.0216 -0.3338 -0.0477
 2877SOL     OW11580   3.485   3.792   3.948  0.3639 -0.0126  0.0370
 2877SOL    HW211581   3.536   3.827   4.021  1.3210  0.3134 -0.7681
 2877SOL    HW311582   3.395   3.821   3.966  0.8312  1.2196  0.3766
 2877SOL    MW411583   3.480   3.801   3.960  0.5484  0.1907 -0.0477
 2878SOL     OW11584   4.229   0.020   4.485  0.2659 -0.3567 -1.0740
 2878SOL    HW211585   4.276  -0.056   4.520  0.4860 -0.3735 -1.4088
 2878SOL    HW311586   4.164   0.040   4.552  1.4467  0.3254 -0.1325
 2878SOL    MW411587   4.227   0.013   4.499  0.5245 -0.2731 -1.0490
 2879SOL     OW11588   0.393   4.285   3.184  0.1652  0.3284  0.0372
 2879SOL    HW211589   0.346   4.356   3.140  0.0669  0.6840  0.6903
 2879SOL    HW311590   0.374   4.298   3.277  1.7469  0.6405  0.3303
 2879SOL    MW411591   0.385   4.296   3.191  0.3636  0.4292  0.1669
 2880SOL     OW11592   1.043   0.140   4.505  0.6023 -0.4181  0.1850
 2880SOL    HW211593   0.958   0.177   4.481  0.0823 -1.2115  0.7889
 2880SOL    HW311594   1.037   0.047   4.480  1.6947 -0.2268 -0.7705
 2880SOL    MW411595   1.031   0.132   4.499  0.6914 -0.4977  0.0954
 2881SOL     OW11596   3.918   3.771   3.847 -0.0623  0.3575  0.0257
 2881SOL    HW211597   3.955   3.793   3.761 -0.2062  0.0859 -0.0967
 2881SOL    HW311598   3.828   3.744   3.828  0.4197 -1.2173  0.0929
 2881SOL    MW411599   3.911   3.771   3.833 -0.0477  0.1192  0.0238
 2882SOL     OW11600   0.305   3.736   4.738 -0.2405 -0.6480  0.4644
 2882SOL    HW211601   0.255   3.809   4.776 -0.7481 -0.3147 -0.8105
 2882SOL    HW311602   0.392   3.774   4.720 -0.1603 -0.6549  0.8474
 2882SOL    MW411603   0.310   3.751   4.740 -0.2980 -0.5960  0.3815
 2883SOL     OW11604   0.633   0.172   4.091  0.5533  0.4995  0.4701
 2883SOL    HW211605   0.583   0.189   4.171  0.1662  0.9057  0.1660
 2883SOL    HW311606   0.623   0.079   4.075  1.0831  0.3134  1.2739
 2883SOL    MW411607   0.625   0.162   4.100  0.5722  0.5260  0.5722
 2884SOL     OW11608   1.260   4.656   4.642  0.5431 -0.1701  0.4173
 2884SOL    HW211609   1.171   4.678   4.617  1.1923  0.1680 -1.5137
 2884SOL    HW311610   1.310   4.736   4.626  1.6764 -1.1202 -0.5413
 2884SOL    MW411611   1.255   4.670   4.637  0.7749 -0.2861  0.0477
 2885SOL     OW11612   2.487   0.926   4.668  0.2164  0.1240 -0.2264
 2885SOL    HW211613   2.574   0.887   4.673  0.2682  0.3329  0.5726
 2885SOL    HW311614   2.437   0.881   4.736 -0.9180 -1.4968 -2.0655
 2885SOL    MW411615   2.492   0.915   4.677  0.0715 -0.0536 -0.3815
 2886SOL     OW11616   3.244   0.077   3.754 -0.1606 -0.3727 -0.4988
 2886SOL    HW211617   3.238   0.156   3.700  2.3934  0.5607  0.5694
 2886SOL    HW311618   3.169   0.082   3.813  1.0687  2.1721  0.8259
 2886SOL    MW411619   3.233   0.088   3.754  0.3338  0.0864 -0.1669
 2887NA      NA11620   3.139   4.473   0.629 -0.1325  0.5389 -0.3413
 2888NA      NA11621   3.159   2.179   9.687 -0.5277  0.5657  0.0496
 2889NA      NA11622   1.745   1.297   0.771  0.3531  0.1402  0.2550
   4.49070   4.66690  10.00000
