Great Red Oystrich Makes All Chemists Sane
   99
    1U      O5'    1   2.696   2.386   5.574
    1U      H5T    2   2.708   2.294   5.612
    1U      C5'    3   2.617   2.464   5.664
    1U     H5'1    4   2.665   2.466   5.752
    1U     H5'2    5   2.530   2.417   5.675
    1U      C4'    6   2.594   2.606   5.613
    1U      H4'    7   2.520   2.642   5.670
    1U      O4'    8   2.713   2.687   5.628
    1U      C1'    9   2.715   2.783   5.520
    1U      H1'   10   2.722   2.876   5.557
    1U       N1   11   2.837   2.768   5.440
    1U       C6   12   2.918   2.656   5.450
    1U       H6   13   2.893   2.584   5.514
    1U       C5   14   3.028   2.642   5.377
    1U       H5   15   3.085   2.560   5.386
    1U       C4   16   3.065   2.748   5.283
    1U       O4   17   3.164   2.738   5.211
    1U       N3   18   2.982   2.856   5.280
    1U       H3   19   3.007   2.931   5.219
    1U       C2   20   2.867   2.872   5.353
    1U       O2   21   2.797   2.971   5.338
    1U      C3'   22   2.558   2.615   5.466
    1U      H3'   23   2.604   2.550   5.406
    1U      C2'   24   2.585   2.762   5.439
    1U     H2'1   25   2.587   2.790   5.343
    1U      O2'   26   2.478   2.842   5.490
    1U     HO'2   27   2.396   2.826   5.436
    1U      O3'   28   2.423   2.580   5.441
    2RG3      P   29   2.396   2.459   5.341
    2RG3    O1P   30   2.444   2.499   5.197
    2RG3    O2P   31   2.240   2.436   5.339
    2RG3    O5'   32   2.473   2.331   5.396
    2RG3    C5'   33   2.475   2.210   5.321
    2RG3   H5'1   34   2.529   2.144   5.373
    2RG3   H5'2   35   2.521   2.230   5.235
    2RG3    C4'   36   2.336   2.154   5.294
    2RG3    H4'   37   2.289   2.217   5.233
    2RG3    O4'   38   2.349   2.026   5.229
    2RG3    C1'   39   2.264   1.932   5.298
    2RG3    H1'   40   2.174   1.927   5.254
    2RG3     N9   41   2.307   1.794   5.282
    2RG3     C8   42   2.441   1.765   5.330
    2RG3     H8   43   2.490   1.815   5.402
    2RG3     N7   44   2.493   1.649   5.255
    2RG3     C5   45   2.382   1.617   5.164
    2RG3     C6   46   2.410   1.566   5.022
    2RG3     O6   47   2.434   1.426   5.024
    2RG3     N1   48   2.299   1.592   4.931
    2RG3     H1   49   2.308   1.595   4.831
    2RG3     C2   50   2.176   1.613   5.002
    2RG3     N2   51   2.079   1.645   4.903
    2RG3    H21   52   2.105   1.649   4.807
    2RG3    H22   53   1.985   1.664   4.930
    2RG3     N3   54   2.180   1.732   5.082
    2RG3     C4   55   2.311   1.750   5.144
    2RG3    C3'   56   2.253   2.133   5.422
    2RG3    H3'   57   2.281   2.188   5.501
    2RG3    C2'   58   2.261   1.983   5.444
    2RG3   H2'1   59   2.335   1.949   5.503
    2RG3    O2'   60   2.152   1.936   5.521
    2RG3   HO'2   61   2.158   1.974   5.613
    2RG3    O3'   62   2.116   2.171   5.398
    2RG3    H3T   63   2.062   2.157   5.481
    3RG35     P   64   2.049   2.075   5.669
    3RG35   O1P   65   2.131   2.163   5.583
    3RG35   O2P   66   2.030   2.127   5.803
    3RG35   O5'   67   1.904   2.071   5.613
    3RG35   C5'   68   1.860   2.002   5.496
    3RG35  H5'1   69   1.899   1.910   5.501
    3RG35  H5'2   70   1.900   2.051   5.418
    3RG35   C4'   71   1.702   1.995   5.483
    3RG35   H4'   72   1.684   1.940   5.401
    3RG35   O4'   73   1.647   1.935   5.601
    3RG35   C1'   74   1.503   1.957   5.595
    3RG35   H1'   75   1.453   1.882   5.551
    3RG35    N9   76   1.453   1.966   5.737
    3RG35    C8   77   1.477   2.068   5.829
    3RG35    H8   78   1.522   2.154   5.806
    3RG35    N7   79   1.434   2.037   5.948
    3RG35    C5   80   1.375   1.915   5.932
    3RG35    C6   81   1.312   1.830   6.031
    3RG35    O6   82   1.300   1.843   6.150
    3RG35    N1   83   1.247   1.721   5.972
    3RG35    H1   84   1.182   1.670   6.028
    3RG35    C2   85   1.266   1.680   5.846
    3RG35    N2   86   1.229   1.557   5.811
    3RG35   H21   87   1.187   1.496   5.879
    3RG35   H22   88   1.243   1.525   5.717
    3RG35    N3   89   1.334   1.750   5.756
    3RG35    C4   90   1.370   1.875   5.801
    3RG35   C3'   91   1.626   2.130   5.475
    3RG35   H3'   92   1.664   2.207   5.527
    3RG35   C2'   93   1.484   2.083   5.513
    3RG35  H2'1   94   1.430   2.152   5.560
    3RG35   O2'   95   1.410   2.051   5.394
    3RG35  HO'2   96   1.397   2.134   5.339
    3RG35   O3'   97   1.634   2.194   5.350
    3RG35   H3T   98   1.583   2.280   5.353
    3RG35   O3P   99   2.086   1.933   5.672
   4.49070   4.66690  10.00000
