Great Red Oystrich Makes All Chemists Sane
   99
    1U      H5T   37   1.697   1.885   4.961
    1U      O5'   38   1.760   1.925   5.025
    1U      C5'   39   1.681   2.003   5.115
    1U     H5'1   40   1.735   2.005   5.211
    1U     H5'2   41   1.586   1.951   5.131
    1U      C4'   42   1.658   2.145   5.064
    1U      H4'   43   1.581   2.191   5.127
    1U      O4'   44   1.777   2.226   5.079
    1U      C1'   45   1.779   2.322   4.971
    1U      H1'   46   1.780   2.422   5.017
    1U       N1   47   1.901   2.307   4.891
    1U       C6   48   1.982   2.195   4.901
    1U       H6   49   1.953   2.118   4.972
    1U       C5   50   2.092   2.181   4.828
    1U       H5   51   2.157   2.095   4.834
    1U       C4   52   2.129   2.287   4.734
    1U       O4   53   2.228   2.277   4.662
    1U       N3   54   2.046   2.395   4.731
    1U       H3   55   2.069   2.470   4.666
    1U       C2   56   1.931   2.411   4.804
    1U       O2   57   1.861   2.510   4.789
    1U      C3'   58   1.622   2.154   4.917
    1U      H3'   59   1.691   2.095   4.855
    1U      C2'   60   1.649   2.301   4.890
    1U     H2'1   61   1.659   2.323   4.783
    1U      O2'   62   1.542   2.381   4.941
    1U     HO'2   63   1.460   2.340   4.908
    1U      O3'   64   1.487   2.119   4.892
    2RG3      P   65   1.460   1.998   4.792
    2RG3    O1P   66   1.508   2.038   4.648
    2RG3    O2P   67   1.304   1.975   4.790
    2RG3    O5'   68   1.537   1.870   4.847
    2RG3    C5'   69   1.539   1.749   4.772
    2RG3   H5'1   70   1.599   1.677   4.828
    2RG3   H5'2   71   1.592   1.766   4.678
    2RG3    C4'   72   1.400   1.693   4.745
    2RG3    H4'   73   1.347   1.758   4.675
    2RG3    O4'   74   1.413   1.565   4.680
    2RG3    C1'   75   1.328   1.471   4.749
    2RG3    H1'   76   1.227   1.481   4.707
    2RG3     N9   77   1.371   1.333   4.733
    2RG3     C8   78   1.505   1.304   4.781
    2RG3     H8   79   1.575   1.388   4.765
    2RG3     N7   80   1.557   1.188   4.706
    2RG3     C5   81   1.446   1.156   4.615
    2RG3     C6   82   1.474   1.105   4.473
    2RG3     O6   83   1.498   0.965   4.475
    2RG3     N1   84   1.363   1.131   4.382
    2RG3     H1   85   1.354   1.049   4.323
    2RG3     C2   86   1.240   1.152   4.453
    2RG3     N2   87   1.143   1.184   4.354
    2RG3    H21   88   1.129   1.103   4.295
    2RG3    H22   89   1.056   1.201   4.403
    2RG3     N3   90   1.244   1.271   4.533
    2RG3     C4   91   1.375   1.289   4.595
    2RG3    C3'   92   1.317   1.672   4.873
    2RG3    H3'   93   1.351   1.729   4.960
    2RG3    C2'   94   1.325   1.522   4.895
    2RG3   H2'1   95   1.418   1.499   4.947
    2RG3    O2'   96   1.216   1.475   4.972
    2RG3   HO'2   97   1.138   1.524   4.940
    2RG3    O3'   98   1.180   1.710   4.849
    2RG3    H3T   99   1.182   1.807   4.835
    3RG35     P    1   1.113   1.614   5.120
    3RG35   O1P    2   1.195   1.702   5.034
    3RG35   O2P    3   1.094   1.666   5.254
    3RG35   O5'    4   0.968   1.610   5.064
    3RG35   C5'    5   0.924   1.541   4.947
    3RG35  H5'1    6   0.966   1.441   4.943
    3RG35  H5'2    7   0.952   1.593   4.855
    3RG35   C4'    8   0.766   1.534   4.934
    3RG35   H4'    9   0.750   1.471   4.846
    3RG35   O4'   10   0.711   1.474   5.052
    3RG35   C1'   11   0.567   1.496   5.046
    3RG35   H1'   12   0.521   1.412   4.995
    3RG35    N9   13   0.517   1.505   5.188
    3RG35    C8   14   0.541   1.607   5.280
    3RG35    H8   15   0.598   1.697   5.262
    3RG35    N7   16   0.498   1.576   5.399
    3RG35    C5   17   0.439   1.454   5.383
    3RG35    C6   18   0.376   1.369   5.482
    3RG35    O6   19   0.364   1.382   5.601
    3RG35    N1   20   0.311   1.260   5.423
    3RG35    H1   21   0.252   1.198   5.475
    3RG35    C2   22   0.330   1.219   5.297
    3RG35    N2   23   0.293   1.096   5.262
    3RG35   H21   24   0.236   1.049   5.331
    3RG35   H22   25   0.321   1.053   5.175
    3RG35    N3   26   0.398   1.289   5.207
    3RG35    C4   27   0.434   1.414   5.252
    3RG35   C3'   28   0.690   1.669   4.926
    3RG35   H3'   29   0.726   1.732   5.007
    3RG35   C2'   30   0.548   1.622   4.964
    3RG35  H2'1   31   0.506   1.699   5.030
    3RG35   O2'   32   0.474   1.590   4.845
    3RG35  HO'2   33   0.499   1.651   4.775
    3RG35   O3'   34   0.698   1.733   4.801
    3RG35   H3T   35   0.772   1.794   4.801
    3RG35   O3P   36   1.150   1.472   5.123
   4.49070   4.66690  10.00000
