Gromacs Runs On Most of All Computer Systems in water
11558
    1RG35     P    1   2.202   2.408   4.395  0.2284 -0.3060 -0.1214
    1RG35   O1P    2   2.318   2.469   4.463  0.4693 -0.4789  0.4745
    1RG35   O2P    3   2.181   2.265   4.420 -0.0492 -0.4341 -0.3092
    1RG35   O5'    4   2.079   2.472   4.465  0.7362  0.0041 -0.0540
    1RG35   C5'    5   2.047   2.609   4.449 -0.3227 -0.1712  0.2078
    1RG35  H5'1    6   2.004   2.634   4.353 -0.7734 -0.0582  0.4409
    1RG35  H5'2    7   2.139   2.667   4.456  0.5322 -1.4650 -0.0357
    1RG35   C4'    8   1.947   2.659   4.556 -0.2329  0.3527 -0.1189
    1RG35   H4'    9   1.945   2.767   4.544  0.9249  0.3514 -0.3278
    1RG35   O4'   10   1.812   2.621   4.537  0.2852 -0.2462  0.0771
    1RG35   C1'   11   1.740   2.625   4.661  0.0717 -0.1519  0.1305
    1RG35   H1'   12   1.666   2.705   4.658  0.2431 -0.0021 -0.0523
    1RG35    N9   13   1.652   2.507   4.673  0.2657 -0.6618  0.1289
    1RG35    C8   14   1.518   2.504   4.642 -0.2384  0.1308  0.1023
    1RG35    H8   15   1.464   2.587   4.599 -0.1007 -0.3688 -1.0582
    1RG35    N7   16   1.465   2.386   4.669 -0.0615 -0.4912  0.1223
    1RG35    C5   17   1.570   2.308   4.724  0.1666  0.7779 -0.0035
    1RG35    C6   18   1.576   2.174   4.771  0.5734  0.1805 -0.1404
    1RG35    O6   19   1.486   2.092   4.780 -0.5046 -0.1319  0.2285
    1RG35    N1   20   1.704   2.130   4.789  0.1310  0.1952  0.1030
    1RG35    H1   21   1.717   2.036   4.822  0.7410  0.3312  0.2605
    1RG35    C2   22   1.808   2.218   4.799  0.4638  0.1301 -0.3300
    1RG35    N2   23   1.922   2.157   4.806 -0.1949 -0.3143 -0.5053
    1RG35   H21   24   1.931   2.056   4.805 -0.4434 -0.3299 -1.4918
    1RG35   H22   25   2.003   2.216   4.793 -0.1834 -0.3217 -0.4644
    1RG35    N3   26   1.809   2.339   4.754  0.7324 -0.1210  0.0234
    1RG35    C4   27   1.685   2.382   4.715  1.0033  0.0134 -0.1078
    1RG35   C3'   28   1.973   2.623   4.703  0.0228 -0.2602 -0.4150
    1RG35   H3'   29   1.987   2.515   4.709  2.4540  0.0167 -0.3086
    1RG35   C2'   30   1.846   2.656   4.772 -0.0355  0.1582  0.1980
    1RG35  H2'1   31   1.826   2.599   4.863  0.1580 -1.8196 -0.9620
    1RG35   O2'   32   1.856   2.799   4.803 -0.0208  0.0902 -0.0195
    1RG35  HO'2   33   1.950   2.812   4.813 -0.1809  1.2584  0.0554
    1RG35   O3'   34   2.092   2.684   4.747 -0.3815  0.1758 -0.3784
    1RG35   H3T   35   2.157   2.615   4.759  1.1829  1.5933 -0.4783
    1RG35   O3P   36   2.201   2.444   4.257  0.3854 -0.1752 -0.1704
    1SOL     OW   37   2.374   1.704   0.478 -0.3759  0.0568 -0.2362
    1SOL    HW2   38   2.356   1.643   0.407 -0.8839 -0.9432  0.7302
    1SOL    HW3   39   2.299   1.695   0.537  0.3594  0.3678  0.7590
    1SOL    MW4   40   2.362   1.695   0.476 -0.3457 -0.0341  0.0226
    1SOL     OW   41   4.275   3.667   0.675 -0.2495  0.3542  0.1229
    1SOL    HW2   42   4.255   3.735   0.739 -2.0629 -0.0211 -0.0249
    1SOL    HW3   43   4.212   3.597   0.692 -0.6794  0.1858 -1.9576
    1SOL    MW4   44   4.264   3.667   0.686 -0.5455  0.2825 -0.1711
    1SOL     OW   45   2.763   0.795   0.496  0.0139  0.4484  0.1006
    1SOL    HW2   46   2.751   0.820   0.588  0.5270  0.0527  0.2793
    1SOL    HW3   47   2.856   0.775   0.489 -0.3217 -1.1248 -0.1059
    1SOL    MW4   48   2.774   0.795   0.507  0.0374  0.1886  0.0969
    1SOL     OW   49   2.482   2.444   0.137 -0.0734 -0.1312 -0.0651
    1SOL    HW2   50   2.537   2.366   0.127  0.2646 -0.0114  0.9008
    1SOL    HW3   51   2.393   2.409   0.142  0.2272 -0.6009  2.2850
    1SOL    MW4   52   2.477   2.429   0.136  0.0110 -0.1771  0.3724
    1SOL     OW   53   0.215   3.341   0.396  0.3877  0.2597 -0.1078
    1SOL    HW2   54   0.208   3.435   0.412  0.6191  0.4113 -0.8838
    1SOL    HW3   55   0.140   3.303   0.442 -0.5580  0.9783 -1.0374
    1SOL    MW4   56   0.204   3.349   0.404  0.2934  0.3746 -0.3328
    1SOL     OW   57   0.010   2.393   0.707  0.7144 -0.1968  0.0450
    1SOL    HW2   58  -0.016   2.381   0.615 -2.1809 -1.2710  0.9501
    1SOL    HW3   59  -0.022   2.479   0.730  0.2254 -0.4874  0.4470
    1SOL    MW4   60   0.003   2.403   0.698  0.2675 -0.3772  0.2174
    1SOL     OW   61   1.476   4.653   0.363  0.9009  0.1072  0.1908
    1SOL    HW2   62   1.548   4.692   0.413  1.1660  0.4732 -0.4765
    1SOL    HW3   63   1.407   4.719   0.365  0.0301 -0.8147  2.0525
    1SOL    MW4   64   1.476   4.667   0.370  0.8209  0.0339  0.3483
    1SOL     OW   65   4.072   0.168   0.438  0.5523 -0.1054 -0.0249
    1SOL    HW2   66   4.051   0.075   0.445 -0.5488  0.0932 -0.7452
    1SOL    HW3   67   4.046   0.193   0.349  0.2654  1.0449  0.3757
    1SOL    MW4   68   4.066   0.159   0.427  0.3691  0.0726 -0.0671
    1SOL     OW   69   2.640   1.712   0.513 -0.4987  0.1392 -0.3782
    1SOL    HW2   70   2.547   1.690   0.509 -0.1910 -1.2465 -0.0434
    1SOL    HW3   71   2.685   1.633   0.485  0.6179  0.5567  0.1986
    1SOL    MW4   72   2.634   1.699   0.509 -0.3107  0.0116 -0.2580
    1SOL     OW   73   2.243   0.125   0.747  0.0067 -0.1310  0.3591
    1SOL    HW2   74   2.303   0.072   0.800  0.0971 -0.2500  0.1387
    1SOL    HW3   75   2.273   0.112   0.657 -0.0053  0.2537  0.3000
    1SOL    MW4   76   2.255   0.116   0.742  0.0169 -0.0959  0.3222
    1SOL     OW   77   4.060   1.121   0.792  0.1397 -0.2528 -0.1478
    1SOL    HW2   78   4.037   1.131   0.884  0.1086 -0.1389 -0.1672
    1SOL    HW3   79   3.988   1.163   0.745  0.6278  0.5444 -0.1952
    1SOL    MW4   80   4.047   1.128   0.798  0.2003 -0.1328 -0.1566
    1SOL     OW   81   0.488   2.493   0.758  0.2141 -0.1107 -0.3553
    1SOL    HW2   82   0.465   2.515   0.668 -1.8527 -0.4393  0.0483
    1SOL    HW3   83   0.425   2.425   0.783  1.6796 -1.0638  0.8722
    1SOL    MW4   84   0.476   2.487   0.750  0.1348 -0.2799 -0.1401
    1SOL     OW   85   3.330   0.990   0.456 -0.8986 -0.3441 -0.1082
    1SOL    HW2   86   3.280   0.972   0.535  2.2728  0.4987  2.1391
    1SOL    HW3   87   3.354   1.082   0.462 -1.2282 -0.0589 -2.4366
    1SOL    MW4   88   3.326   1.000   0.467 -0.5236 -0.1953 -0.1189
    1SOL     OW   89   4.028   1.890   0.832  0.4712 -0.1396 -0.2998
    1SOL    HW2   90   4.035   1.794   0.826 -0.3951 -0.2209 -0.0385
    1SOL    HW3   91   4.025   1.908   0.925 -0.7670  0.0353 -0.3673
    1SOL    MW4   92   4.028   1.879   0.843  0.1936 -0.1273 -0.2742
    1SOL     OW   93   3.783   3.670   0.471  0.1682  0.1976 -0.1399
    1SOL    HW2   94   3.741   3.743   0.425  0.1930 -1.8498 -3.5998
    1SOL    HW3   95   3.877   3.681   0.455  0.2792  0.1658  0.4786
    1SOL    MW4   96   3.790   3.681   0.463  0.1862 -0.0770 -0.5148
    1SOL     OW   97   0.863   0.450   0.326  0.4831  0.8266 -0.3469
    1SOL    HW2   98   0.841   0.540   0.350  1.3140  0.6237  1.1824
    1SOL    HW3   99   0.817   0.396   0.391 -0.0714  0.1325 -1.3001
    1SOL    MW4  100   0.854   0.454   0.338  0.5195  0.7082 -0.2708
    1SOL     OW  101   3.400   0.313   0.579  0.2347  0.4819  0.6251
    1SOL    HW2  102   3.458   0.241   0.606  1.0637  0.3437 -1.4252
    1SOL    HW3  103   3.325   0.269   0.538  0.8125  0.7564 -0.7650
    1SOL    MW4  104   3.398   0.298   0.577  0.4203  0.4999  0.1712
    1SOL     OW  105   1.860   0.525   0.474  0.5385 -0.1266 -0.2004
    1SOL    HW2  106   1.895   0.523   0.563 -0.7821  0.1214  0.3320
    1SOL    HW3  107   1.880   0.613   0.443 -1.0285  0.5638  0.6918
    1SOL    MW4  108   1.868   0.537   0.482  0.1576 -0.0028 -0.0125
    1SOL     OW  109   2.452   2.699   0.055 -0.1590  0.0860  0.0937
    1SOL    HW2  110   2.537   2.733   0.029 -0.2526  1.0867  1.0305
    1SOL    HW3  111   2.468   2.608   0.080  0.5315  0.1231 -0.2197
    1SOL    MW4  112   2.465   2.691   0.055 -0.0801  0.2229  0.1759
    1SOL     OW  113   0.169   0.653   0.619 -0.6648  0.1086  0.2004
    1SOL    HW2  114   0.195   0.707   0.694  0.3938  0.6779 -0.5606
    1SOL    HW3  115   0.244   0.657   0.560 -1.2372 -0.8664 -0.6025
    1SOL    MW4  116   0.182   0.661   0.621 -0.6006  0.0551 -0.0060
    1SOL     OW  117   2.815   2.396   0.397  0.5122 -0.3027  0.0374
    1SOL    HW2  118   2.743   2.459   0.405 -0.9410 -1.8613 -0.5695
    1SOL    HW3  119   2.843   2.381   0.488 -0.3146 -0.1172  0.3327
    1SOL    MW4  120   2.809   2.403   0.410  0.2112 -0.4838 -0.0037
    1SOL     OW  121   0.193   0.311   0.176  0.5990  0.5057  0.4147
    1SOL    HW2  122   0.169   0.308   0.268 -0.0782 -0.8253  0.2035
    1SOL    HW3  123   0.172   0.224   0.143 -0.2934  1.3461 -1.2800
    1SOL    MW4  124   0.187   0.299   0.184  0.3919  0.4410  0.1632
    1SOL     OW  125   3.827   1.240   0.682 -0.2181  0.0493  0.3706
    1SOL    HW2  126   3.777   1.276   0.609  0.1499 -0.3450 -0.0814
    1SOL    HW3  127   3.763   1.188   0.732 -0.6359  0.9176  0.7479
    1SOL    MW4  128   3.812   1.238   0.679 -0.2248  0.1117  0.3608
    1SOL     OW  129   0.428   4.002   0.761 -0.4170  0.0561  0.1697
    1SOL    HW2  130   0.385   4.032   0.681 -0.2201  1.0201  0.4065
    1SOL    HW3  131   0.454   4.083   0.805  0.6332 -0.4889  0.5747
    1SOL    MW4  132   0.426   4.017   0.756 -0.2525  0.1116  0.2544
    1SOL     OW  133   0.225   4.652   0.903  0.2380  0.4387  0.1430
    1SOL    HW2  134   0.161   4.700   0.850 -0.8482  0.5200  1.5107
    1SOL    HW3  135   0.309   4.673   0.862 -0.6450 -0.2535 -2.1207
    1SOL    MW4  136   0.227   4.661   0.890 -0.0218  0.3581  0.0249
    1SOL     OW  137   4.232   2.019   0.482 -0.1758 -0.5247  0.2452
    1SOL    HW2  138   4.278   1.936   0.470  1.2308  0.0153  1.7315
    1SOL    HW3  139   4.247   2.041   0.574 -1.0100  1.1053  0.0014
    1SOL    MW4  140   4.240   2.011   0.493 -0.1001 -0.2384  0.4091
    1SOL     OW  141   2.023   2.296   0.811  0.1410  0.1337  0.3798
    1SOL    HW2  142   2.040   2.297   0.905  0.1884 -0.7941  0.3907
    1SOL    HW3  143   1.955   2.362   0.798 -0.6462 -0.4816  1.2316
    1SOL    MW4  144   2.016   2.305   0.822  0.0432 -0.0699  0.4936
    1SOL     OW  145   4.426   4.567   0.551 -0.0366  0.0163 -0.1683
    1SOL    HW2  146   4.444   4.621   0.628  1.7084 -0.1141 -0.4562
    1SOL    HW3  147   4.512   4.537   0.523 -0.9769 -2.8700 -0.0722
    1SOL    MW4  148   4.440   4.570   0.558  0.0701 -0.3815 -0.1936
    1SOL     OW  149   0.840   4.145   0.445 -0.1798 -0.0794  0.2401
    1SOL    HW2  150   0.924   4.138   0.399 -0.0218  2.3823  0.0724
    1SOL    HW3  151   0.857   4.109   0.532  1.0060  0.2213  0.1391
    1SOL    MW4  152   0.853   4.139   0.451 -0.0024  0.2851  0.2046
    1SOL     OW  153   1.590   2.342   0.843 -0.3055 -0.1056 -0.2205
    1SOL    HW2  154   1.503   2.381   0.833 -0.6465 -0.5206  1.0748
    1SOL    HW3  155   1.579   2.251   0.816 -0.7506 -0.6825  1.8127
    1SOL    MW4  156   1.577   2.336   0.838 -0.4092 -0.2363  0.2187
    1SOL     OW  157   2.036   3.112   0.841 -0.2514 -0.0692  0.4595
    1SOL    HW2  158   2.032   3.029   0.795  1.1492  0.0944  0.0134
    1SOL    HW3  159   1.960   3.161   0.809 -0.1160 -0.5211 -0.5767
    1SOL    MW4  160   2.026   3.108   0.831 -0.0489 -0.1070  0.2639
    1SOL     OW  161   2.895   2.861   0.177  0.0562  0.0910 -0.4121
    1SOL    HW2  162   2.908   2.768   0.197  0.9772 -0.2445 -2.3919
    1SOL    HW3  163   2.964   2.906   0.224 -0.2329 -0.2532  0.3472
    1SOL    MW4  164   2.906   2.855   0.186  0.1397  0.0017 -0.5731
    1SOL     OW  165   0.356   0.105   0.472 -0.0143  0.4679  0.2411
    1SOL    HW2  166   0.320   0.018   0.456  1.6743  0.0577 -1.5409
    1SOL    HW3  167   0.280   0.162   0.481 -1.1223 -1.1491  1.1462
    1SOL    MW4  168   0.342   0.101   0.471  0.0623  0.2005  0.1254
    1SOL     OW  169   1.923   2.977   0.405  0.2242 -0.0514  0.3460
    1SOL    HW2  170   1.981   2.902   0.417  0.1166 -0.2683 -0.4447
    1SOL    HW3  171   1.835   2.940   0.400  0.0748  0.2173  0.8921
    1SOL    MW4  172   1.919   2.963   0.406  0.1903 -0.0448  0.3137
    1SOL     OW  173   2.968   4.426   0.522 -0.4090 -0.0650  0.0708
    1SOL    HW2  174   2.880   4.460   0.502 -0.1204  1.9910  2.1266
    1SOL    HW3  175   2.967   4.413   0.617  1.4144 -0.3187  0.0593
    1SOL    MW4  176   2.956   4.429   0.532 -0.1304  0.1731  0.3406
    1SOL     OW  177   0.693   1.126   0.417 -0.3689  0.3285 -0.3090
    1SOL    HW2  178   0.623   1.190   0.429 -0.5129  0.1140 -0.0116
    1SOL    HW3  179   0.648   1.041   0.413 -0.0703  0.1263  0.5594
    1SOL    MW4  180   0.678   1.123   0.418 -0.3485  0.2735 -0.1552
    1SOL     OW  181   3.359   0.812   0.861  0.1469  0.1905 -0.0025
    1SOL    HW2  182   3.353   0.716   0.857 -0.2642  0.1705  0.9584
    1SOL    HW3  183   3.449   0.831   0.835  0.7726 -0.5846  1.5219
    1SOL    MW4  184   3.370   0.802   0.857  0.1752  0.0857  0.3254
    1SOL     OW  185   1.824   3.245   0.747  0.1930 -0.1329  0.6479
    1SOL    HW2  186   1.838   3.247   0.652 -1.3602  0.5151  0.4047
    1SOL    HW3  187   1.754   3.181   0.759 -0.6696  0.8829  1.1757
    1SOL    MW4  188   1.817   3.237   0.736 -0.1258  0.0868  0.6855
    1SOL     OW  189   2.079   2.865   0.715 -0.1951 -0.0701 -0.0010
    1SOL    HW2  190   2.079   2.850   0.621  0.7898  0.8647 -0.1628
    1SOL    HW3  191   2.145   2.804   0.749 -0.4425 -0.3014  0.0571
    1SOL    MW4  192   2.088   2.855   0.707 -0.0980  0.0229 -0.0146
    1SOL     OW  193   2.014   1.948   0.463  0.3190 -0.2111 -0.7150
    1SOL    HW2  194   1.958   2.009   0.414 -1.8174 -1.8792 -0.4504
    1SOL    HW3  195   2.015   1.984   0.552  1.2664  0.8757 -1.1552
    1SOL    MW4  196   2.006   1.961   0.468  0.1621 -0.2878 -0.7382
    1SOL     OW  197   3.596   1.914   0.775  0.4461 -0.2566 -0.6695
    1SOL    HW2  198   3.663   1.963   0.727  1.3199 -1.4204 -0.6508
    1SOL    HW3  199   3.625   1.823   0.771  0.3189 -0.4391  1.6909
    1SOL    MW4  200   3.609   1.908   0.768  0.5445 -0.4342 -0.3555
    1SOL     OW  201   0.343   2.912   0.636  0.2683 -0.3915  0.0960
    1SOL    HW2  202   0.401   2.869   0.698  0.2909 -0.0170  0.3377
    1SOL    HW3  203   0.289   2.970   0.690  0.3177 -0.0311 -0.2421
    1SOL    MW4  204   0.343   2.914   0.652  0.2778 -0.2944  0.0833
    1SOL     OW  205   1.573   4.292   0.532  0.0000  0.1126 -0.0398
    1SOL    HW2  206   1.546   4.207   0.496  1.7182  0.1765 -1.5670
    1SOL    HW3  207   1.525   4.357   0.481  1.9251  0.1766 -1.8619
    1SOL    MW4  208   1.563   4.289   0.520  0.4808  0.1297 -0.4816
    1SOL     OW  209   4.208   2.869   0.407 -0.6288 -0.1123 -0.5579
    1SOL    HW2  210   4.156   2.790   0.394  0.7889 -1.2309  0.3380
    1SOL    HW3  211   4.226   2.870   0.501  0.4481  0.5772 -0.7616
    1SOL    MW4  212   4.204   2.859   0.418 -0.2999 -0.1690 -0.4666
    1SOL     OW  213   2.461   2.009   0.782  0.3765  0.3178 -0.3816
    1SOL    HW2  214   2.467   2.024   0.687  0.0271  2.4821 -0.0958
    1SOL    HW3  215   2.480   2.095   0.821  0.9495 -0.6483  1.5271
    1SOL    MW4  216   2.464   2.023   0.775  0.4060  0.4756 -0.0921
    1SOL     OW  217   2.887   3.079   0.871 -0.3017 -0.1778  0.6785
    1SOL    HW2  218   2.821   3.127   0.821 -0.1319 -0.2871  0.3438
    1SOL    HW3  219   2.877   2.988   0.842 -0.0083 -0.1956  0.6294
    1SOL    MW4  220   2.877   3.073   0.860 -0.2408 -0.1945  0.6278
    1SOL     OW  221   0.923   4.255   0.889 -0.0877  0.0236  0.0560
    1SOL    HW2  222   0.925   4.179   0.832  0.1633 -0.8119  1.1495
    1SOL    HW3  223   0.992   4.312   0.856  0.4587 -0.7272 -0.1107
    1SOL    MW4  224   0.933   4.252   0.877  0.0175 -0.1860  0.1782
    1SOL     OW  225   2.886   1.235   0.463  0.7859  0.0757 -0.2549
    1SOL    HW2  226   2.938   1.160   0.435  3.0435  1.8192 -0.8785
    1SOL    HW3  227   2.907   1.246   0.556  2.1161  1.2083 -0.6754
    1SOL    MW4  228   2.896   1.226   0.472  1.2593  0.4551 -0.3927
    1SOL     OW  229   1.348   3.586   0.327 -0.1835  0.4460 -0.4064
    1SOL    HW2  230   1.420   3.641   0.357 -0.9111  0.0144  2.2725
    1SOL    HW3  231   1.271   3.620   0.372 -0.9392 -1.6308 -0.0417
    1SOL    MW4  232   1.347   3.597   0.337 -0.3791  0.1149 -0.0048
    1SOL     OW  233   2.236   0.359   0.336  0.0979  0.1903 -0.2273
    1SOL    HW2  234   2.142   0.374   0.326  0.0591  1.3287  1.6939
    1SOL    HW3  235   2.276   0.446   0.331  1.1488 -0.3556 -1.8181
    1SOL    MW4  236   2.229   0.372   0.334  0.2315  0.2685 -0.1837
    1SOL     OW  237   0.391   4.281   0.377 -0.0293 -0.2169  0.5601
    1SOL    HW2  238   0.432   4.225   0.310  0.1201  0.9497 -0.3345
    1SOL    HW3  239   0.465   4.322   0.421 -0.1859  0.7947 -0.1063
    1SOL    MW4  240   0.406   4.279   0.374 -0.0303  0.0701  0.3541
    1SOL     OW  241   0.446   2.553   0.487 -0.0430  0.3872 -0.1415
    1SOL    HW2  242   0.368   2.609   0.478 -0.3313 -0.1949 -1.3904
    1SOL    HW3  243   0.415   2.465   0.464  1.1851  0.3097 -1.5942
    1SOL    MW4  244   0.431   2.549   0.483  0.0810  0.3002 -0.4979
    1SOL     OW  245   1.412   0.880   0.474 -0.3259  0.2809 -0.1768
    1SOL    HW2  246   1.392   0.789   0.451  1.9811 -0.6058  1.1828
    1SOL    HW3  247   1.406   0.883   0.569 -0.9434  1.6901 -0.2570
    1SOL    MW4  248   1.409   0.868   0.483 -0.1029  0.3498 -0.0080
    1SOL     OW  249   0.202   3.877   0.876  0.4896 -0.0998 -0.0992
    1SOL    HW2  250   0.211   3.876   0.971  1.7436 -0.8553 -0.2085
    1SOL    HW3  251   0.284   3.916   0.845  0.6390 -1.0357 -0.9071
    1SOL    MW4  252   0.214   3.882   0.884  0.6747 -0.3231 -0.2202
    1SOL     OW  253   2.278   0.978   0.241  0.1863  0.4334  0.4522
    1SOL    HW2  254   2.265   0.929   0.323  0.0005  0.4750  0.4489
    1SOL    HW3  255   2.363   0.950   0.210  0.7950  1.3232  1.2808
    1SOL    MW4  256   2.287   0.968   0.248  0.2425  0.5562  0.5611
    1SOL     OW  257   0.472   0.897   0.685 -0.4892 -0.3022 -0.1081
    1SOL    HW2  258   0.554   0.858   0.716 -0.6526 -1.7729 -1.4459
    1SOL    HW3  259   0.403   0.847   0.729 -0.6855  0.2385  0.2043
    1SOL    MW4  260   0.474   0.885   0.695 -0.5367 -0.4249 -0.2434
    1SOL     OW  261   2.922   3.845   0.387 -0.1019 -0.4184 -0.2954
    1SOL    HW2  262   2.899   3.756   0.415 -0.0020  0.2524  2.0074
    1SOL    HW3  263   2.842   3.896   0.402  0.7536  0.4985  1.2950
    1SOL    MW4  264   2.908   3.840   0.392  0.0243 -0.2091  0.2182
    1SOL     OW  265   1.338   1.430   0.325 -0.1715  0.0980 -0.2913
    1SOL    HW2  266   1.276   1.377   0.374 -0.2860  0.8094  0.3454
    1SOL    HW3  267   1.424   1.403   0.357 -0.1596 -0.6917 -0.9765
    1SOL    MW4  268   1.341   1.419   0.335 -0.1850  0.0877 -0.2977
    1SOL     OW  269   1.397   3.261   0.766  0.1518 -0.5938  0.0533
    1SOL    HW2  270   1.411   3.244   0.672  1.8960 -0.9962  0.3579
    1SOL    HW3  271   1.325   3.203   0.790  0.9845 -1.9466 -0.6215
    1SOL    MW4  272   1.389   3.251   0.757  0.4920 -0.8254  0.0045
    1SOL     OW  273   0.363   0.628   0.441  0.1732 -0.0522 -0.3224
    1SOL    HW2  274   0.431   0.583   0.491  0.2346  0.2249 -0.1541
    1SOL    HW3  275   0.350   0.573   0.364 -1.0197 -1.3032  0.7410
    1SOL    MW4  276   0.371   0.615   0.437  0.0239 -0.1807 -0.1599
    1SOL     OW  277   2.287   0.107   0.485 -0.2581 -0.0786 -0.0418
    1SOL    HW2  278   2.378   0.085   0.467 -0.7620 -2.3469  0.0417
    1SOL    HW3  279   2.271   0.188   0.436  1.8151  0.3855  0.0332
    1SOL    MW4  280   2.297   0.114   0.476 -0.0510 -0.3166 -0.0209
    1SOL     OW  281   1.142   3.116   0.806  0.1435 -0.1021 -0.1870
    1SOL    HW2  282   1.063   3.168   0.786 -0.1561 -0.9130 -1.1609
    1SOL    HW3  283   1.125   3.031   0.766  0.8697 -0.7792  0.9327
    1SOL    MW4  284   1.129   3.112   0.798  0.1997 -0.2983 -0.1678
    1SOL     OW  285   1.562   2.193   0.139  0.1337  0.2079  0.0279
    1SOL    HW2  286   1.609   2.275   0.126 -0.0257  0.3998  0.6483
    1SOL    HW3  287   1.626   2.125   0.117  1.3018  0.4163  2.5742
    1SOL    MW4  288   1.577   2.195   0.135  0.2668  0.2608  0.4457
    1SOL     OW  289   2.075   1.745   0.184  0.2346 -0.0964 -0.0193
    1SOL    HW2  290   2.071   1.787   0.270  2.1070  0.1560 -0.0423
    1SOL    HW3  291   2.063   1.816   0.122  0.4338 -0.0361  0.0094
    1SOL    MW4  292   2.073   1.760   0.187  0.5081 -0.0551 -0.0186
    1SOL     OW  293   0.708   3.118   0.852 -0.1615 -1.1835 -0.1997
    1SOL    HW2  294   0.630   3.168   0.830 -0.2972 -1.2956  0.0188
    1SOL    HW3  295   0.708   3.114   0.948  1.3897  0.8499 -0.0861
    1SOL    MW4  296   0.698   3.124   0.862  0.0253 -0.9298 -0.1559
    1SOL     OW  297   0.859   3.715   0.344  0.2772  0.1242 -0.3466
    1SOL    HW2  298   0.880   3.656   0.272 -0.4212 -0.2114 -0.2793
    1SOL    HW3  299   0.944   3.735   0.384  0.5372 -0.7240 -0.4614
    1SOL    MW4  300   0.873   3.709   0.340  0.2194 -0.0322 -0.3529
    1SOL     OW  301   0.842   3.498   0.164  0.3406 -0.5072 -0.3595
    1SOL    HW2  302   0.831   3.439   0.090 -0.0857 -0.0513 -0.6660
    1SOL    HW3  303   0.789   3.459   0.234 -0.2099 -0.3174 -0.6649
    1SOL    MW4  304   0.834   3.485   0.164  0.2118 -0.4220 -0.4402
    1SOL     OW  305   1.794   0.909   0.786  0.0892 -0.1299 -0.0661
    1SOL    HW2  306   1.782   0.978   0.851 -0.4384 -0.0049 -0.2962
    1SOL    HW3  307   1.869   0.859   0.818  0.6963  0.7591 -0.0941
    1SOL    MW4  308   1.802   0.911   0.799  0.0998  0.0039 -0.1001
    1SOL     OW  309   4.481   4.024   0.773  0.2937  0.3228  0.5595
    1SOL    HW2  310   4.398   3.980   0.789 -0.2042  1.1821  0.3518
    1SOL    HW3  311   4.545   3.972   0.821 -0.5367  0.3139  1.6784
    1SOL    MW4  312   4.479   4.011   0.782  0.1183  0.4349  0.6797
    1SOL     OW  313   3.338   4.609   0.830 -0.4460  0.0381 -0.1189
    1SOL    HW2  314   3.350   4.595   0.923  1.5115 -0.0247 -0.3610
    1SOL    HW3  315   3.412   4.665   0.804 -1.3811  0.6725 -1.4820
    1SOL    MW4  316   3.349   4.614   0.839 -0.3109  0.1135 -0.3307
    1SOL     OW  317   0.089   2.799   0.589  0.3096  0.1317 -0.1178
    1SOL    HW2  318   0.169   2.847   0.608  0.0794  0.4602  0.0374
    1SOL    HW3  319   0.113   2.738   0.519  0.6095  0.4563 -0.2983
    1SOL    MW4  320   0.102   2.797   0.583  0.3188  0.2177 -0.1211
    1SOL     OW  321   0.574   2.091   0.501  0.2784 -0.2611  0.1059
    1SOL    HW2  322   0.656   2.076   0.454 -0.4308  0.3054 -1.3345
    1SOL    HW3  323   0.524   2.010   0.489  0.6112 -0.6106  0.9940
    1SOL    MW4  324   0.578   2.078   0.494  0.2288 -0.2322  0.0331
    1SOL     OW  325   2.447   4.406   0.801 -0.1922 -0.1811 -0.6020
    1SOL    HW2  326   2.371   4.353   0.825 -1.0335  1.2218 -0.1328
    1SOL    HW3  327   2.443   4.412   0.705 -0.3179 -0.6049 -0.6254
    1SOL    MW4  328   2.437   4.400   0.791 -0.3200 -0.0515 -0.5432
    1SOL     OW  329   3.079   2.984   0.398  0.1389  0.4757 -0.3309
    1SOL    HW2  330   3.029   2.919   0.448 -0.9324  1.5302 -0.0049
    1SOL    HW3  331   3.169   2.952   0.401 -0.1490 -0.2483  1.0430
    1SOL    MW4  332   3.085   2.971   0.405 -0.0405  0.5190 -0.1066
    1SOL     OW  333   2.686   3.966   0.450 -0.1716  0.0122  0.6575
    1SOL    HW2  334   2.681   3.987   0.543 -1.0585  1.0948  0.3822
    1SOL    HW3  335   2.711   4.049   0.408 -0.3296 -0.3263 -0.1129
    1SOL    MW4  336   2.689   3.980   0.457 -0.3092  0.1104  0.5195
    1SOL     OW  337   4.330   1.230   0.765  0.3939  0.0675  0.8794
    1SOL    HW2  338   4.388   1.172   0.814 -0.4736 -0.3933  1.3615
    1SOL    HW3  339   4.242   1.199   0.785 -0.0288  0.8618  0.2694
    1SOL    MW4  340   4.326   1.218   0.774  0.2236  0.1115  0.8626
    1SOL     OW  341   1.998   1.210   0.442 -0.2727 -0.1047  0.3287
    1SOL    HW2  342   1.948   1.287   0.468  1.1639  0.1132  2.5550
    1SOL    HW3  343   1.941   1.136   0.464 -1.6972  0.2488 -1.9086
    1SOL    MW4  344   1.984   1.210   0.448 -0.2711 -0.0292  0.3273
    1SOL     OW  345   2.530   2.116   0.056 -0.1315 -0.1519  0.4139
    1SOL    HW2  346   2.593   2.139   0.124 -0.5693  0.8043  0.4984
    1SOL    HW3  347   2.584   2.083  -0.016  0.5795  1.8213  0.0121
    1SOL    MW4  348   2.545   2.115   0.055 -0.0954  0.2346  0.3721
    1SOL     OW  349   0.470   3.245   0.463  0.0983  0.0894 -0.0791
    1SOL    HW2  350   0.389   3.275   0.421 -0.3742 -0.3259  0.5198
    1SOL    HW3  351   0.476   3.153   0.440 -0.0453 -0.0854  0.5651
    1SOL    MW4  352   0.460   3.237   0.455  0.0170  0.0114  0.0850
    1SOL     OW  353   0.236   3.072   0.272  0.0416 -0.2552 -0.3281
    1SOL    HW2  354   0.146   3.038   0.272 -0.0943  0.0825 -2.3940
    1SOL    HW3  355   0.225   3.165   0.291 -0.0644 -0.1373 -0.9821
    1SOL    MW4  356   0.222   3.080   0.275  0.0097 -0.1953 -0.6870
    1SOL     OW  357   2.490   2.789   0.739  0.2690  0.0705 -0.0056
    1SOL    HW2  358   2.481   2.881   0.765 -1.6225  0.0727 -0.5919
    1SOL    HW3  359   2.557   2.754   0.798 -0.3802  1.3257  1.5182
    1SOL    MW4  360   2.498   2.796   0.750 -0.0663  0.2363  0.1181
    1SOL     OW  361   3.398   4.408   0.446  0.1818 -0.4020 -0.0338
    1SOL    HW2  362   3.411   4.413   0.540 -0.2435  0.1742 -0.0025
    1SOL    HW3  363   3.334   4.477   0.426  1.1338  0.2494 -0.8944
    1SOL    MW4  364   3.391   4.418   0.455  0.2515 -0.2398 -0.1432
    1SOL     OW  365   3.389   3.142   0.801  0.3889  0.0428  0.1180
    1SOL    HW2  366   3.300   3.171   0.780  0.5202  0.0527 -0.4448
    1SOL    HW3  367   3.386   3.120   0.894 -0.6222 -1.4885 -0.2555
    1SOL    MW4  368   3.377   3.143   0.810  0.2725 -0.1581 -0.0056
    1SOL     OW  369   2.652   1.049   0.415 -0.2648 -0.4188 -0.3530
    1SOL    HW2  370   2.733   1.098   0.428 -0.5496 -0.1624  0.4528
    1SOL    HW3  371   2.672   0.961   0.446  0.0211 -0.6334 -1.1249
    1SOL    MW4  372   2.665   1.044   0.421 -0.2646 -0.4132 -0.3485
    1SOL     OW  373   4.273   2.019   0.748  0.5866  0.0777  0.0116
    1SOL    HW2  374   4.353   1.975   0.777  0.6728  0.4526  0.3446
    1SOL    HW3  375   4.202   1.963   0.778  0.6659  0.6289  1.2269
    1SOL    MW4  376   4.274   2.006   0.756  0.6084  0.1998  0.2159
    1SOL     OW  377   0.714   0.293   0.501  0.4036 -0.4430 -0.0368
    1SOL    HW2  378   0.680   0.227   0.439  1.0495  0.2703 -1.1629
    1SOL    HW3  379   0.778   0.245   0.554 -0.4431 -1.1572  0.3617
    1SOL    MW4  380   0.718   0.278   0.500  0.3770 -0.4431 -0.1328
    1SOL     OW  381   4.285   3.100   0.830  0.8002  0.1124 -0.0457
    1SOL    HW2  382   4.223   3.155   0.782 -0.6162 -0.0223  1.6036
    1SOL    HW3  383   4.369   3.145   0.821  0.0671  1.4008 -0.5276
    1SOL    MW4  384   4.288   3.113   0.823  0.5169  0.2644  0.1084
    1SOL     OW  385   0.249   2.049   0.763  0.5426  0.0667 -0.2538
    1SOL    HW2  386   0.330   2.014   0.800  1.5007 -0.0724 -2.3852
    1SOL    HW3  387   0.252   2.143   0.782  1.0868  0.0164 -0.0847
    1SOL    MW4  388   0.260   2.057   0.770  0.7409  0.0417 -0.5127
    1SOL     OW  389   4.480   4.317   0.866 -0.4136  0.2629 -0.2649
    1SOL    HW2  390   4.504   4.297   0.956  1.1081 -1.3525 -0.9980
    1SOL    HW3  391   4.433   4.239   0.835 -0.0256  0.3913 -1.1967
    1SOL    MW4  392   4.477   4.304   0.874 -0.1617  0.0663 -0.4846
    1SOL     OW  393   1.963   2.396   0.285 -0.8423  0.7873  0.2361
    1SOL    HW2  394   1.944   2.450   0.362 -0.8641  0.7594  0.2505
    1SOL    HW3  395   2.057   2.381   0.289 -0.6685  1.7065 -0.3510
    1SOL    MW4  396   1.973   2.401   0.295 -0.8222  0.9050  0.1605
    1SOL     OW  397   2.945   2.056   0.714 -0.2636  0.0557 -0.2276
    1SOL    HW2  398   3.024   2.025   0.758 -0.6663 -0.0163  0.4591
    1SOL    HW3  399   2.873   2.012   0.760 -0.6717 -0.4366 -1.3009
    1SOL    MW4  400   2.946   2.046   0.726 -0.3705 -0.0188 -0.2787
    1SOL     OW  401   1.780   0.108   0.766 -0.0747  0.0436  0.3460
    1SOL    HW2  402   1.709   0.059   0.806 -1.8363  0.8380 -1.6680
    1SOL    HW3  403   1.859   0.062   0.791 -1.3654 -1.2859  2.0451
    1SOL    MW4  404   1.781   0.096   0.774 -0.4773 -0.0270  0.3045
    1SOL     OW  405   1.959   0.065   0.368 -0.1715 -0.2555 -0.3430
    1SOL    HW2  406   2.022   0.018   0.423 -0.1683  0.0254 -0.1052
    1SOL    HW3  407   1.987   0.157   0.373 -0.6113 -0.1260 -0.2230
    1SOL    MW4  408   1.971   0.071   0.376 -0.2292 -0.2014 -0.2958
    1SOL     OW  409   1.590   2.080   0.766 -0.0704  0.3481 -0.2570
    1SOL    HW2  410   1.608   2.073   0.673 -1.5749  0.2726 -0.5512
    1SOL    HW3  411   1.502   2.043   0.777  1.4934 -3.0229  1.7299
    1SOL    MW4  412   1.581   2.074   0.755 -0.0626 -0.1066 -0.0336
    1SOL     OW  413   1.756   1.068   0.175 -0.1797 -0.3316 -0.0547
    1SOL    HW2  414   1.834   1.014   0.163  0.1406  0.4663 -1.6281
    1SOL    HW3  415   1.776   1.150   0.130 -2.1260 -0.3083 -0.9294
    1SOL    MW4  416   1.769   1.072   0.167 -0.3941 -0.2233 -0.3777
    1SOL     OW  417   1.957   3.703   0.280  0.6495  0.6019  0.0640
    1SOL    HW2  418   2.014   3.686   0.205 -0.0946  0.4137 -0.4650
    1SOL    HW3  419   2.013   3.692   0.356  0.6154 -2.6210 -0.3026
    1SOL    MW4  420   1.972   3.699   0.280  0.5468  0.1519 -0.0542
    1SOL     OW  421   1.529   4.049   0.393  0.2449 -0.4694 -0.4077
    1SOL    HW2  422   1.495   4.075   0.308 -1.2947  0.0311  0.3495
    1SOL    HW3  423   1.616   4.012   0.374 -0.3896 -1.0559 -2.2660
    1SOL    MW4  424   1.536   4.047   0.379 -0.0420 -0.4802 -0.5530
    1SOL     OW  425   1.148   1.544   0.822  0.4537  0.2363  0.3536
    1SOL    HW2  426   1.149   1.456   0.782  0.5588  0.2224  0.3873
    1SOL    HW3  427   1.231   1.583   0.795  0.1619  0.5324 -0.1218
    1SOL    MW4  428   1.159   1.537   0.813  0.4290  0.2735  0.2954
    1SOL     OW  429   1.313   0.132   0.717 -0.3750 -0.3148  0.2649
    1SOL    HW2  430   1.384   0.091   0.767 -0.6361 -2.2715 -0.9067
    1SOL    HW3  431   1.303   0.219   0.756  2.2758 -0.2203  0.8164
    1SOL    MW4  432   1.321   0.138   0.728 -0.0597 -0.5605  0.1830
    1SOL     OW  433   3.965   2.024   0.432  0.4446  0.0311 -0.2439
    1SOL    HW2  434   4.058   2.022   0.452 -0.0612  0.9426  2.4359
    1SOL    HW3  435   3.944   1.935   0.405  1.8865 -0.3972  0.0041
    1SOL    MW4  436   3.974   2.012   0.431  0.5679  0.0947  0.1424
    1SOL     OW  437   1.906   1.305   0.147 -0.1093  0.2676 -0.7112
    1SOL    HW2  438   1.879   1.396   0.147  0.9046  0.6213  2.1926
    1SOL    HW3  439   1.929   1.286   0.238  0.5200 -2.6399 -1.3979
    1SOL    MW4  440   1.905   1.314   0.159  0.1076 -0.0694 -0.4186
    1SOL     OW  441   0.898   4.041   0.697 -0.5111  0.0214  0.2868
    1SOL    HW2  442   0.823   4.003   0.742 -0.4410  0.2186  0.5741
    1SOL    HW3  443   0.974   3.996   0.735 -0.6154 -2.0961 -1.8726
    1SOL    MW4  444   0.898   4.030   0.708 -0.5156 -0.2317  0.0398
    1SOL     OW  445   4.017   2.722   0.805  0.0172  0.4242 -0.1613
    1SOL    HW2  446   4.012   2.629   0.781  0.8061 -0.0838  1.5504
    1SOL    HW3  447   4.097   2.753   0.765  0.2211  0.1214  0.0029
    1SOL    MW4  448   4.027   2.714   0.797  0.1483  0.3171  0.0862
    1SOL     OW  449   4.287   4.179   0.386 -0.0733 -0.0290  0.3819
    1SOL    HW2  450   4.313   4.238   0.315  0.5963  0.2267  0.8253
    1SOL    HW3  451   4.370   4.138   0.414 -0.3619 -0.2782  0.8758
    1SOL    MW4  452   4.302   4.181   0.381 -0.0229 -0.0286  0.5055
    1SOL     OW  453   1.152   0.431   0.434 -0.3050  0.7198 -0.0781
    1SOL    HW2  454   1.132   0.442   0.527  0.9445  0.3733  0.2446
    1SOL    HW3  455   1.070   0.452   0.389 -0.7785  1.3642  1.0694
    1SOL    MW4  456   1.138   0.435   0.441 -0.2027  0.7591  0.1159
    1SOL     OW  457   2.683   0.870   0.762 -0.0202  0.0870  0.5513
    1SOL    HW2  458   2.681   0.964   0.776  1.4453  0.1929  0.1904
    1SOL    HW3  459   2.761   0.840   0.809 -0.0112 -0.8202 -0.0086
    1SOL    MW4  460   2.693   0.878   0.770  0.1745 -0.0187  0.4299
    1SOL     OW  461   1.796   1.937   0.890 -0.0594  0.2178 -0.2445
    1SOL    HW2  462   1.722   1.974   0.841  0.0100 -0.3858 -0.8063
    1SOL    HW3  463   1.791   1.843   0.874 -0.0838  0.0018  0.9822
    1SOL    MW4  464   1.786   1.930   0.882 -0.0534  0.1097 -0.1568
    1SOL     OW  465   2.221   0.811   0.463 -0.0357 -0.1376 -0.4954
    1SOL    HW2  466   2.288   0.743   0.466  0.9489  0.8707  2.0446
    1SOL    HW3  467   2.144   0.767   0.427  1.4624 -1.7661 -1.8088
    1SOL    MW4  468   2.220   0.797   0.459  0.2918 -0.2194 -0.3335
    1SOL     OW  469   0.870   3.449   0.847 -0.5406  0.2295 -0.1239
    1SOL    HW2  470   0.865   3.378   0.784  0.7839 -1.0325  1.1625
    1SOL    HW3  471   0.801   3.510   0.819 -1.1864 -1.1645 -1.6925
    1SOL    MW4  472   0.860   3.448   0.835 -0.4511 -0.1206 -0.1611
    1SOL     OW  473   2.001   1.237   0.732  0.1759 -0.0801 -0.0262
    1SOL    HW2  474   2.000   1.220   0.637 -1.5189  0.3653 -0.1055
    1SOL    HW3  475   2.087   1.208   0.760  0.0498 -1.9086 -1.4093
    1SOL    MW4  476   2.012   1.231   0.723 -0.0641 -0.2626 -0.2192
    1SOL     OW  477   4.325   3.546   0.349  0.0770  0.1614  0.2573
    1SOL    HW2  478   4.235   3.579   0.348 -0.1877 -0.5215  1.1320
    1SOL    HW3  479   4.377   3.620   0.382 -0.5310 -0.3154  2.3583
    1SOL    MW4  480   4.320   3.560   0.353 -0.0381  0.0081  0.6499
    1SOL     OW  481   0.429   1.699   0.749 -0.3300 -0.0364 -0.3329
    1SOL    HW2  482   0.516   1.663   0.770 -1.0752 -1.2166  0.8086
    1SOL    HW3  483   0.431   1.788   0.786  0.4497  0.0124 -0.4787
    1SOL    MW4  484   0.441   1.706   0.757 -0.3255 -0.1856 -0.2016
    1SOL     OW  485   1.252   0.150   0.443  0.2043 -0.0377  0.1753
    1SOL    HW2  486   1.259   0.161   0.538 -0.6626 -2.4867  0.5803
    1SOL    HW3  487   1.209   0.229   0.412  1.5529  1.3037  1.6681
    1SOL    MW4  488   1.248   0.162   0.451  0.2679 -0.1838  0.4257
    1SOL     OW  489   1.334   2.449   0.751 -0.2025 -0.0814  0.7448
    1SOL    HW2  490   1.368   2.446   0.662 -1.7978 -0.0438  0.1315
    1SOL    HW3  491   1.346   2.541   0.778 -0.5443  0.1081  0.2497
    1SOL    MW4  492   1.340   2.461   0.743 -0.4581 -0.0515  0.5985
    1SOL     OW  493   1.681   2.811   0.416  0.4869  0.3089  0.1497
    1SOL    HW2  494   1.661   2.816   0.509  0.4454  1.4563  0.0777
    1SOL    HW3  495   1.671   2.718   0.395  0.6973  0.0108  1.3289
    1SOL    MW4  496   1.677   2.799   0.426  0.5091  0.4210  0.2958
    1SOL     OW  497   2.689   4.490   0.442 -0.0139  0.2360  0.2836
    1SOL    HW2  498   2.671   4.581   0.419 -0.4290 -0.0311 -0.4808
    1SOL    HW3  499   2.605   4.456   0.474  0.2745  0.2740  1.1033
    1SOL    MW4  500   2.675   4.497   0.444 -0.0308  0.2055  0.2909
    1SOL     OW  501   2.914   4.390   0.802 -0.1284 -0.6011 -0.9450
    1SOL    HW2  502   2.895   4.476   0.839 -0.3254  0.5877 -3.7094
    1SOL    HW3  503   2.838   4.336   0.824  0.1854 -0.2144  1.1683
    1SOL    MW4  504   2.902   4.394   0.810 -0.1130 -0.3929 -1.0309
    1SOL     OW  505   0.015   1.948   0.141 -0.2709 -0.0615  0.2184
    1SOL    HW2  506   0.024   1.965   0.048 -0.3122 -0.1411  0.1998
    1SOL    HW3  507  -0.005   2.033   0.180  0.0166  0.0201  0.1886
    1SOL    MW4  508   0.014   1.961   0.134 -0.2384 -0.0614  0.2120
    1SOL     OW  509   1.587   1.279   0.772  0.1789  0.0083 -0.2803
    1SOL    HW2  510   1.566   1.302   0.681  0.5500 -0.3053 -0.4485
    1SOL    HW3  511   1.504   1.251   0.810 -0.3429  1.8741  0.0091
    1SOL    MW4  512   1.573   1.278   0.765  0.1589  0.2129 -0.2642
    1SOL     OW  513   1.304   3.536   0.800  0.1460 -0.3548 -0.0540
    1SOL    HW2  514   1.381   3.583   0.770  0.6236 -1.0674  0.0578
    1SOL    HW3  515   1.315   3.446   0.768 -0.7332 -0.4171 -0.2176
    1SOL    MW4  516   1.315   3.530   0.792  0.0930 -0.4570 -0.0607
    1SOL     OW  517   3.833   2.312   0.794  0.0906 -0.2967  0.1714
    1SOL    HW2  518   3.762   2.353   0.747 -1.7397 -1.1586  2.0961
    1SOL    HW3  519   3.842   2.225   0.755 -0.8091 -0.6762  0.8087
    1SOL    MW4  520   3.825   2.306   0.783 -0.2694 -0.4604  0.5094
    1SOL     OW  521   2.014   4.641   0.854 -0.0706 -0.5281  0.0412
    1SOL    HW2  522   2.090   4.688   0.822  0.7596 -1.3130  0.8389
    1SOL    HW3  523   2.012   4.561   0.802  0.0068 -0.7877  0.4327
    1SOL    MW4  524   2.024   4.636   0.843  0.0491 -0.6657  0.1982
    1SOL     OW  525   2.574   0.085   0.481 -0.4247 -0.3437 -0.0127
    1SOL    HW2  526   2.610   0.091   0.569  0.4521  0.6404 -0.4278
    1SOL    HW3  527   2.570   0.176   0.451 -1.0080 -0.6499 -0.8748
    1SOL    MW4  528   2.578   0.098   0.489 -0.3862 -0.2543 -0.1813
    1SOL     OW  529   0.946   0.972   0.458  0.0394 -0.0602 -0.4539
    1SOL    HW2  530   0.877   1.030   0.425  0.5243  0.9843  0.3379
    1SOL    HW3  531   0.906   0.885   0.459 -1.3989  0.5935  0.3578
    1SOL    MW4  532   0.931   0.968   0.454 -0.0864  0.1639 -0.2424
    1SOL     OW  533   0.685   2.114   0.749 -0.0607 -0.0369  0.3123
    1SOL    HW2  534   0.640   2.095   0.666  0.1842  0.5398  0.0435
    1SOL    HW3  535   0.676   2.209   0.760 -0.6531 -0.1986  1.2787
    1SOL    MW4  536   0.678   2.124   0.739 -0.1066  0.0179  0.4043
    1SOL     OW  537   2.567   2.519   0.399 -0.6578 -0.0228  0.0756
    1SOL    HW2  538   2.549   2.504   0.306  1.2604  1.0394 -0.4973
    1SOL    HW3  539   2.519   2.450   0.445 -0.6347 -1.2996 -1.7775
    1SOL    MW4  540   2.558   2.508   0.393 -0.4015 -0.0510 -0.2445
    1SOL     OW  541   2.546   1.484   0.321 -0.3405 -0.1648 -0.4717
    1SOL    HW2  542   2.469   1.501   0.267  0.1748 -1.8544 -1.7582
    1SOL    HW3  543   2.527   1.401   0.366  1.3126 -1.3719 -1.9267
    1SOL    MW4  544   2.533   1.475   0.320 -0.0544 -0.5471 -0.8334
    1SOL     OW  545   3.832   4.130   0.323 -0.2255 -0.0635 -0.2007
    1SOL    HW2  546   3.798   4.150   0.236 -1.3651  0.7906  0.4181
    1SOL    HW3  547   3.834   4.215   0.368  1.0079 -0.3931  0.3771
    1SOL    MW4  548   3.827   4.144   0.318 -0.2131  0.0057 -0.0428
    1SOL     OW  549   2.240   2.324   0.286  0.0760  0.1603 -0.2001
    1SOL    HW2  550   2.281   2.316   0.372  0.0261  1.5088 -0.0364
    1SOL    HW3  551   2.242   2.235   0.250  0.7084 -0.2884  0.9079
    1SOL    MW4  552   2.245   2.311   0.293  0.1528  0.2789 -0.0323
    1SOL     OW  553   3.034   0.487   0.484  0.0369 -0.1835 -0.6758
    1SOL    HW2  554   3.010   0.475   0.576  0.3171  0.9026 -0.4561
    1SOL    HW3  555   2.950   0.501   0.440  0.0854  1.9148 -0.1668
    1SOL    MW4  556   3.019   0.487   0.490  0.0801  0.2367 -0.5797
    1SOL     OW  557   4.307   4.544   0.869  0.0020 -0.1022 -0.3597
    1SOL    HW2  558   4.355   4.462   0.853 -0.3040 -0.5844  1.1749
    1SOL    HW3  559   4.302   4.551   0.964 -0.8745  1.1911 -0.4909
    1SOL    MW4  560   4.313   4.534   0.879 -0.1540  0.0052 -0.1745
    1SOL     OW  561   1.573   0.763   0.836  0.0340  0.8331  0.1792
    1SOL    HW2  562   1.649   0.818   0.818  0.3809  0.2470 -0.1460
    1SOL    HW3  563   1.498   0.819   0.814  0.4061  0.8601 -1.0378
    1SOL    MW4  564   1.573   0.778   0.831  0.1289  0.7593 -0.0243
    1SOL     OW  565   0.691   3.920   0.864  0.4641 -0.1296  0.2145
    1SOL    HW2  566   0.605   3.950   0.837  1.0685  1.1859 -0.2978
    1SOL    HW3  567   0.698   3.831   0.830  0.0355  0.4214 -1.3420
    1SOL    MW4  568   0.681   3.912   0.856  0.4873  0.1166 -0.0584
    1SOL     OW  569   1.125   3.727   0.480 -0.0769 -0.1891 -0.0070
    1SOL    HW2  570   1.089   3.688   0.560  0.1122 -0.2814  0.0315
    1SOL    HW3  571   1.140   3.818   0.503  0.8091 -0.4195  0.3309
    1SOL    MW4  572   1.122   3.734   0.493  0.0651 -0.2315  0.0427
    1SOL     OW  573   0.915   1.665   0.737 -0.1308  0.0562 -0.5306
    1SOL    HW2  574   0.915   1.756   0.768 -0.5767  0.3106 -1.2680
    1SOL    HW3  575   0.995   1.627   0.774 -1.2260  0.0204  1.8868
    1SOL    MW4  576   0.925   1.672   0.746 -0.3341  0.0851 -0.3089
    1SOL     OW  577   0.195   1.819   0.365  0.5662  0.2567 -0.1095
    1SOL    HW2  578   0.115   1.791   0.409  1.2970 -0.9919  0.4556
    1SOL    HW3  579   0.166   1.848   0.279 -0.6922  1.3921  0.6838
    1SOL    MW4  580   0.181   1.819   0.359  0.4966  0.2419  0.0697
    1SOL     OW  581   0.707   4.665   0.814 -0.1720  0.1989  0.1596
    1SOL    HW2  582   0.704   4.661   0.910  0.7754  1.0660  0.2445
    1SOL    HW3  583   0.721   4.575   0.787  0.1434  0.0205  0.8784
    1SOL    MW4  584   0.709   4.653   0.823 -0.0054  0.2904  0.2657
    1SOL     OW  585   0.240   3.634   0.753 -0.1085  0.5824 -0.1443
    1SOL    HW2  586   0.248   3.716   0.801 -0.1240  1.3559 -1.4233
    1SOL    HW3  587   0.313   3.580   0.783 -0.1083  1.0629  0.7098
    1SOL    MW4  588   0.251   3.637   0.763 -0.1105  0.7477 -0.2003
    1SOL     OW  589   4.408   3.294   0.492 -0.4310 -0.2372 -0.4113
    1SOL    HW2  590   4.381   3.226   0.431 -0.9911 -0.5214  0.1497
    1SOL    HW3  591   4.386   3.376   0.447  0.4736 -0.4048 -1.1892
    1SOL    MW4  592   4.402   3.296   0.478 -0.3858 -0.2968 -0.4399
    1SOL     OW  593   2.561   0.967   0.162  0.0185  0.3184  0.0920
    1SOL    HW2  594   2.599   1.014   0.237  0.4446 -1.2327  0.8779
    1SOL    HW3  595   2.614   0.993   0.087  1.4995 -0.4127  0.8675
    1SOL    MW4  596   2.573   0.977   0.162  0.2701  0.0172  0.2980
    1SOL     OW  597   4.088   3.729   0.462  0.0692 -0.1023 -0.5575
    1SOL    HW2  598   4.162   3.721   0.522 -0.7826  0.8348  0.6563
    1SOL    HW3  599   4.087   3.822   0.438 -2.4159  0.5315  1.7254
    1SOL    MW4  600   4.097   3.741   0.467 -0.3705  0.1051 -0.0962
    1SOL     OW  601   2.715   1.930   0.844  0.3897  0.1431 -0.6125
    1SOL    HW2  602   2.628   1.953   0.811  0.0672 -0.2870 -0.0609
    1SOL    HW3  603   2.712   1.952   0.937  1.1931  1.0432 -0.7907
    1SOL    MW4  604   2.703   1.936   0.852  0.4530  0.2050 -0.5632
    1SOL     OW  605   1.339   4.284   0.912 -0.6603  0.0809 -0.2467
    1SOL    HW2  606   1.259   4.325   0.879 -0.1050  1.0834 -0.3672
    1SOL    HW3  607   1.409   4.329   0.865  0.0248  0.0029  0.7017
    1SOL    MW4  608   1.338   4.296   0.901 -0.4965  0.2027 -0.1374
    1SOL     OW  609   2.355   3.517   0.482 -0.2780  0.0661  0.7758
    1SOL    HW2  610   2.434   3.499   0.431 -1.3298  0.9853 -1.2512
    1SOL    HW3  611   2.306   3.435   0.481 -0.1546 -0.0057  0.5584
    1SOL    MW4  612   2.359   3.504   0.475 -0.4008  0.1781  0.4796
    1SOL     OW  613   2.876   4.656   0.904  0.1159 -0.0421  0.0395
    1SOL    HW2  614   2.953   4.684   0.855  0.3267  2.3495  1.6838
    1SOL    HW3  615   2.802   4.693   0.855  0.3125  2.1049  1.3059
    1SOL    MW4  616   2.876   4.665   0.891  0.1700  0.5567  0.4236
    1SOL     OW  617   2.848   3.583   0.461 -0.0504  0.0126  0.1469
    1SOL    HW2  618   2.860   3.576   0.556 -0.9700  1.3185  0.3731
    1SOL    HW3  619   2.754   3.577   0.448 -0.0386  1.1294 -0.5549
    1SOL    MW4  620   2.837   3.581   0.472 -0.1702  0.3324  0.0842
    1SOL     OW  621   2.450   3.899   0.841  0.0003 -0.1243 -0.1341
    1SOL    HW2  622   2.384   3.949   0.794  1.2069 -0.3135 -2.0876
    1SOL    HW3  623   2.455   3.815   0.794  1.7124 -0.0581 -0.1021
    1SOL    MW4  624   2.442   3.894   0.829  0.3855 -0.1407 -0.3877
    1SOL     OW  625   2.693   2.966   0.363  0.4392 -0.1774  0.3113
    1SOL    HW2  626   2.639   2.891   0.390 -0.7218  0.5301  0.0029
    1SOL    HW3  627   2.720   2.944   0.273  0.5073 -0.4444  0.3951
    1SOL    MW4  628   2.689   2.953   0.354  0.2952 -0.1192  0.2817
    1SOL     OW  629   0.887   1.328   0.519 -0.3405  0.1949  0.1352
    1SOL    HW2  630   0.823   1.309   0.450 -1.0882  1.0487  0.5880
    1SOL    HW3  631   0.899   1.422   0.515  1.8875 -0.1096 -0.8007
    1SOL    MW4  632   0.880   1.338   0.509 -0.1451  0.2674  0.0713
    1SOL     OW  633   3.719   1.014   0.387  0.1102  0.2223  0.5235
    1SOL    HW2  634   3.720   1.018   0.291  0.8816 -0.8528  0.4787
    1SOL    HW3  635   3.658   0.943   0.407 -1.1092  1.3663  0.8651
    1SOL    MW4  636   3.711   1.005   0.377  0.0508  0.2314  0.5626
    1SOL     OW  637   4.052   2.643   0.327 -0.0112  0.0682  0.3620
    1SOL    HW2  638   3.968   2.659   0.370 -0.7909 -1.1830 -0.6711
    1SOL    HW3  639   4.035   2.660   0.234  0.8298 -0.3810  0.1254
    1SOL    MW4  640   4.038   2.647   0.320 -0.0038 -0.1566  0.1945
    1SOL     OW  641   3.420   1.745   0.375 -0.3129 -0.5712 -0.1314
    1SOL    HW2  642   3.388   1.662   0.413  0.9275 -0.9827  0.0409
    1SOL    HW3  643   3.514   1.732   0.365 -0.1995  0.6070 -0.6827
    1SOL    MW4  644   3.428   1.732   0.379 -0.1342 -0.4700 -0.1814
    1SOL     OW  645   2.659   0.083   0.744  0.1237  0.0226 -0.1847
    1SOL    HW2  646   2.682   0.169   0.778  1.2521  0.2885 -1.5886
    1SOL    HW3  647   2.590   0.051   0.802  1.9881  0.4653  2.3209
    1SOL    MW4  648   2.653   0.090   0.756  0.5186  0.1161 -0.0393
    1SOL     OW  649   3.065   1.670   0.461  0.0585 -0.2303 -0.0586
    1SOL    HW2  650   2.982   1.623   0.450 -0.6512  0.4639  2.0678
    1SOL    HW3  651   3.042   1.762   0.453  0.5897 -0.0257  0.7094
    1SOL    MW4  652   3.051   1.676   0.459  0.0348 -0.1117  0.3232
    1SOL     OW  653   1.327   1.972   0.826  0.3856  0.1246  0.3370
    1SOL    HW2  654   1.333   1.877   0.816  0.6513  0.1681  0.0864
    1SOL    HW3  655   1.340   1.987   0.919  2.4558  0.0783  0.0839
    1SOL    MW4  656   1.329   1.961   0.837  0.6937  0.1242  0.2705
    1SOL     OW  657   0.487   1.944   0.851  0.4549  0.2808  0.2677
    1SOL    HW2  658   0.554   2.011   0.836  0.9364 -0.3686 -0.5177
    1SOL    HW3  659   0.478   1.939   0.946  1.3881  0.5018  0.3711
    1SOL    MW4  660   0.495   1.952   0.861  0.6415  0.2241  0.1777
    1SOL     OW  661   0.304   4.058   0.516  0.1822  0.0031 -0.3267
    1SOL    HW2  662   0.345   4.137   0.481  0.5907  0.7954  1.8661
    1SOL    HW3  663   0.211   4.070   0.498  0.0388  1.7880  1.4735
    1SOL    MW4  664   0.297   4.070   0.509  0.2172  0.3433  0.2002
    1SOL     OW  665   0.919   3.224   0.707 -0.0433 -0.0342 -0.1732
    1SOL    HW2  666   0.893   3.205   0.617 -1.0255 -0.8915  0.2757
    1SOL    HW3  667   0.846   3.190   0.760  0.5323  0.4524  0.9348
    1SOL    MW4  668   0.906   3.217   0.702 -0.0968 -0.0827  0.0322
    1SOL     OW  669   1.529   3.380   0.314  0.1835 -0.4873 -0.1106
    1SOL    HW2  670   1.462   3.447   0.324  0.2788 -0.7414  2.6806
    1SOL    HW3  671   1.611   3.430   0.312  0.0464 -0.2971 -1.8010
    1SOL    MW4  672   1.531   3.396   0.315  0.1779 -0.4959  0.0346
    1SOL     OW  673   2.874   3.853   0.794 -0.2625  0.3582  0.1392
    1SOL    HW2  674   2.791   3.893   0.769  0.3781  0.9993 -1.0245
    1SOL    HW3  675   2.881   3.867   0.888 -0.9397  1.3027  0.0559
    1SOL    MW4  676   2.864   3.860   0.803 -0.2673  0.5674 -0.0253
    1SOL     OW  677   1.200   1.039   0.356  0.1821  0.1213 -0.3994
    1SOL    HW2  678   1.117   0.994   0.368  0.8411 -1.5643 -1.9337
    1SOL    HW3  679   1.263   0.985   0.405  0.7066  0.3122 -0.8648
    1SOL    MW4  680   1.198   1.026   0.364  0.3384 -0.0757 -0.6632
    1SOL     OW  681   1.532   3.658   0.732 -0.3258  0.3499  0.2526
    1SOL    HW2  682   1.613   3.614   0.756 -0.1713  1.0381  1.0098
    1SOL    HW3  683   1.541   3.674   0.638 -0.5439 -1.5258 -0.1004
    1SOL    MW4  684   1.544   3.654   0.722 -0.3344  0.1931  0.3059
    1SOL     OW  685   1.791   4.524   0.274  0.0304 -0.6063 -0.0472
    1SOL    HW2  686   1.845   4.604   0.277 -0.0970 -0.4555 -1.4309
    1SOL    HW3  687   1.702   4.555   0.288  0.0621 -0.5961  0.1332
    1SOL    MW4  688   1.786   4.539   0.276  0.0178 -0.5856 -0.2060
    1SOL     OW  689   0.504   0.451   0.601 -0.0463 -0.1614  0.0328
    1SOL    HW2  690   0.467   0.406   0.677  0.9409 -0.3590  0.4111
    1SOL    HW3  691   0.562   0.386   0.562  0.4303  0.3715 -0.1476
    1SOL    MW4  692   0.507   0.436   0.606  0.1468 -0.1172  0.0588
    1SOL     OW  693   4.390   0.165   0.444 -0.1276 -0.1046  0.5202
    1SOL    HW2  694   4.299   0.197   0.446 -0.0175  0.2206  0.3941
    1SOL    HW3  695   4.383   0.071   0.461 -0.5784 -0.2668 -0.5245
    1SOL    MW4  696   4.377   0.157   0.446 -0.1721 -0.0831  0.3657
    1SOL     OW  697   2.491   2.267   0.888  0.5374  0.1630 -0.5791
    1SOL    HW2  698   2.583   2.285   0.868  0.4388  1.6754  0.2286
    1SOL    HW3  699   2.441   2.328   0.833  0.1212  0.9787  0.6678
    1SOL    MW4  700   2.496   2.278   0.878  0.4694  0.4702 -0.3079
    1SOL     OW  701   4.475   3.740   0.466  0.2990  0.7421  0.0475
    1SOL    HW2  702   4.555   3.689   0.477 -0.6738 -0.8525 -0.1908
    1SOL    HW3  703   4.415   3.707   0.533 -0.5814  1.0871 -0.5499
    1SOL    MW4  704   4.477   3.729   0.476  0.0544  0.5770 -0.0627
    1SOL     OW  705   3.177   1.953   0.805  0.5005  0.3562 -0.2869
    1SOL    HW2  706   3.172   1.954   0.901  0.1996  1.3748 -0.2997
    1SOL    HW3  707   3.253   2.008   0.785  1.6369 -1.3097 -0.5892
    1SOL    MW4  708   3.186   1.961   0.815  0.6108  0.2707 -0.3284
    1SOL     OW  709   2.599   3.455   0.370 -0.0829  0.2511 -0.2215
    1SOL    HW2  710   2.642   3.466   0.285 -2.5823  0.4839 -1.5095
    1SOL    HW3  711   2.628   3.369   0.401  1.4031  0.4759 -0.9753
    1SOL    MW4  712   2.608   3.445   0.363 -0.2165  0.3116 -0.4909
    1SOL     OW  713   1.340   4.165   0.199 -0.1502  0.1140 -0.1225
    1SOL    HW2  714   1.360   4.176   0.106 -2.7131  0.8603 -0.6449
    1SOL    HW3  715   1.351   4.253   0.236  1.3230 -0.2752  0.3969
    1SOL    MW4  716   1.344   4.178   0.192 -0.2939  0.1607 -0.1229
    1SOL     OW  717   3.153   2.719   0.816  0.4409  0.2802  0.5320
    1SOL    HW2  718   3.141   2.647   0.754 -1.8058  1.9206 -0.9923
    1SOL    HW3  719   3.223   2.771   0.778 -0.2079  0.7055 -0.0859
    1SOL    MW4  720   3.161   2.716   0.803  0.0589  0.5527  0.2493
    1SOL     OW  721   2.722   0.320   0.854 -0.0371 -0.2195 -0.1735
    1SOL    HW2  722   2.733   0.337   0.948 -1.1205  0.8492 -0.2234
    1SOL    HW3  723   2.779   0.384   0.811  0.3549 -0.6175 -0.2439
    1SOL    MW4  724   2.731   0.331   0.861 -0.1283 -0.1310 -0.1894
    1SOL     OW  725   3.173   2.485   0.665 -0.0408  0.2453 -0.3860
    1SOL    HW2  726   3.233   2.445   0.728  0.3166  0.0107 -0.8658
    1SOL    HW3  727   3.095   2.430   0.668 -0.1140  0.3731  0.0248
    1SOL    MW4  728   3.171   2.472   0.674 -0.0036  0.2313 -0.3951
    1SOL     OW  729   1.435   2.953   0.362 -0.1699 -0.2349 -0.2934
    1SOL    HW2  730   1.524   2.918   0.372  0.2330  1.2632  1.8061
    1SOL    HW3  731   1.435   2.995   0.276  1.1735 -0.1833 -0.2773
    1SOL    MW4  732   1.447   2.954   0.352  0.0606 -0.0305 -0.0143
    1SOL     OW  733   0.635   3.650   0.503  0.0560 -0.4207  0.1233
    1SOL    HW2  734   0.570   3.708   0.463  0.0436 -0.6249 -0.1609
    1SOL    HW3  735   0.714   3.663   0.451 -0.2332 -1.3986 -0.5827
    1SOL    MW4  736   0.637   3.659   0.491  0.0162 -0.5765 -0.0074
    1SOL     OW  737   1.848   2.755   0.845 -0.2205  0.1632  0.0946
    1SOL    HW2  738   1.772   2.776   0.790 -0.0886 -1.9529 -0.9900
    1SOL    HW3  739   1.924   2.776   0.791 -0.0564  0.4669  0.4410
    1SOL    MW4  740   1.848   2.760   0.831 -0.1814 -0.0758 -0.0028
    1SOL     OW  741   2.444   3.627   0.739 -0.3698 -0.4989 -0.4450
    1SOL    HW2  742   2.426   3.571   0.663 -1.1523 -0.0251 -0.6227
    1SOL    HW3  743   2.513   3.583   0.787 -0.2397 -1.0697 -1.1636
    1SOL    MW4  744   2.451   3.614   0.735 -0.4559 -0.5116 -0.5633
    1SOL     OW  745   2.694   3.219   0.749  0.3619 -0.0681  0.1612
    1SOL    HW2  746   2.720   3.199   0.659  0.3108 -2.2293  0.5836
    1SOL    HW3  747   2.676   3.313   0.749 -0.4532 -0.1844 -2.2954
    1SOL    MW4  748   2.695   3.229   0.737  0.2475 -0.3686 -0.1071
    1SOL     OW  749   2.665   4.261   0.866  0.2282 -0.0524  0.3266
    1SOL    HW2  750   2.663   4.242   0.960  0.2160 -0.0227  0.3321
    1SOL    HW3  751   2.592   4.321   0.851  0.5710  0.3764  0.3897
    1SOL    MW4  752   2.655   4.266   0.876  0.2718  0.0076  0.3357
    1SOL     OW  753   0.434   3.828   0.393 -0.0768 -0.0565 -0.0947
    1SOL    HW2  754   0.385   3.901   0.431  1.5580 -0.3186  2.6483
    1SOL    HW3  755   0.508   3.869   0.348 -0.5382  0.0955 -0.7275
    1SOL    MW4  756   0.438   3.843   0.392  0.0780 -0.0710  0.1837
    1SOL     OW  757   1.571   4.391   0.797 -0.3894  0.0825 -0.4807
    1SOL    HW2  758   1.578   4.363   0.705  0.3639  0.1620 -0.4540
    1SOL    HW3  759   1.657   4.372   0.834 -0.5001  0.6075  0.0571
    1SOL    MW4  760   1.583   4.385   0.790 -0.3046  0.1621 -0.4063
    1SOL     OW  761   1.144   1.780   0.354  0.4144 -0.0487 -0.0074
    1SOL    HW2  762   1.196   1.763   0.276  0.2931 -0.4061 -0.0126
    1SOL    HW3  763   1.154   1.874   0.371 -0.2785  0.2044 -0.9756
    1SOL    MW4  764   1.152   1.790   0.346  0.3070 -0.0625 -0.1358
    1SOL     OW  765   2.187   3.048   0.309  0.1449 -0.2990 -0.1579
    1SOL    HW2  766   2.102   3.006   0.294 -0.2133  0.9458 -1.6980
    1SOL    HW3  767   2.250   2.975   0.308 -0.9225 -1.2601  1.3035
    1SOL    MW4  768   2.184   3.033   0.307 -0.0432 -0.2615 -0.1683
    1SOL     OW  769   0.686   3.392   0.390 -0.2594  0.0410 -0.5044
    1SOL    HW2  770   0.667   3.484   0.410 -1.6153 -0.3385 -0.0045
    1SOL    HW3  771   0.604   3.346   0.408  0.5079 -1.3218 -0.4305
    1SOL    MW4  772   0.672   3.398   0.395 -0.3371 -0.1891 -0.4287
    1SOL     OW  773   2.079   2.754   0.446  0.3353  0.2969 -0.1956
    1SOL    HW2  774   2.154   2.739   0.390 -0.6419 -1.1207 -1.1594
    1SOL    HW3  775   2.019   2.682   0.426 -1.4347  1.5976  0.2740
    1SOL    MW4  776   2.081   2.742   0.436 -0.0272  0.2813 -0.2607
    1SOL     OW  777   3.618   3.433   0.493 -0.3770 -0.1979 -0.1901
    1SOL    HW2  778   3.691   3.489   0.465 -0.5310  0.3751  0.5321
    1SOL    HW3  779   3.540   3.475   0.457 -0.4103 -0.4895 -0.4649
    1SOL    MW4  780   3.618   3.446   0.484 -0.4017 -0.1609 -0.1310
    1SOL     OW  781   1.370   4.410   0.333 -0.4673  0.1949  0.0023
    1SOL    HW2  782   1.310   4.418   0.406  0.5536  0.3240  0.8375
    1SOL    HW3  783   1.415   4.494   0.328 -1.0570  0.4460 -1.2453
    1SOL    MW4  784   1.368   4.422   0.342 -0.4104  0.2446 -0.0521
    1SOL     OW  785   0.847   2.043   0.384 -0.2621  0.0852  0.7653
    1SOL    HW2  786   0.808   1.957   0.367 -0.3146  0.5887 -1.7382
    1SOL    HW3  787   0.939   2.025   0.402 -0.0387 -0.3930 -0.8536
    1SOL    MW4  788   0.854   2.030   0.384 -0.2397  0.0887  0.2214
    1SOL     OW  789   4.378   0.351   0.828 -0.2211  0.2753 -0.0606
    1SOL    HW2  790   4.382   0.435   0.781 -0.7088  0.2489 -0.1523
    1SOL    HW3  791   4.385   0.375   0.921  1.4230  0.2726 -0.1757
    1SOL    MW4  792   4.379   0.365   0.834 -0.0687  0.2714 -0.0880
    1SOL     OW  793   0.489   1.302   0.530 -0.2561  0.1151 -0.3459
    1SOL    HW2  794   0.401   1.298   0.567  0.2037  0.0150  0.7518
    1SOL    HW3  795   0.547   1.312   0.605  0.9092 -2.7129 -0.7656
    1SOL    MW4  796   0.485   1.302   0.544 -0.0417 -0.2713 -0.2564
    1SOL     OW  797   2.559   0.376   0.475 -0.3263 -0.3097 -0.2297
    1SOL    HW2  798   2.646   0.404   0.447  0.2034 -1.3517  0.3475
    1SOL    HW3  799   2.551   0.408   0.565 -0.3957 -0.5681 -0.1457
    1SOL    MW4  800   2.569   0.384   0.483 -0.2656 -0.4813 -0.1425
    1SOL     OW  801   0.796   0.730   0.415 -0.3914 -0.2275  0.1351
    1SOL    HW2  802   0.707   0.764   0.423 -0.8182 -1.1631 -0.6006
    1SOL    HW3  803   0.813   0.687   0.499  0.2072  1.8799  1.1381
    1SOL    MW4  804   0.787   0.729   0.427 -0.3687 -0.0728  0.1704
    1SOL     OW  805   2.242   0.406   0.835  0.0325  0.0360  0.1595
    1SOL    HW2  806   2.235   0.316   0.803  0.2728  0.3816 -0.9065
    1SOL    HW3  807   2.158   0.446   0.811  1.3088  1.1148 -2.7220
    1SOL    MW4  808   2.230   0.399   0.828  0.2327  0.2239 -0.3613
    1SOL     OW  809   3.350   4.358   0.718  0.7926  0.0409  0.0913
    1SOL    HW2  810   3.336   4.445   0.755 -0.6526  0.2766 -0.9982
    1SOL    HW3  811   3.271   4.308   0.741  1.3735 -0.8355  0.2442
    1SOL    MW4  812   3.338   4.363   0.726  0.6783 -0.0439 -0.0322
    1SOL     OW  813   3.589   4.224   0.815 -0.0416  0.0710 -0.1797
    1SOL    HW2  814   3.505   4.264   0.792  0.2854 -0.0178 -1.5901
    1SOL    HW3  815   3.582   4.135   0.782  0.3411 -0.1520  0.3409
    1SOL    MW4  816   3.577   4.218   0.807  0.0522  0.0291 -0.2971
    1SOL     OW  817   0.774   4.627   0.422  0.0286  0.2587  0.2398
    1SOL    HW2  818   0.716   4.663   0.355  0.0190  0.0284  0.1209
    1SOL    HW3  819   0.725   4.554   0.459  0.4620 -0.2906 -0.2555
    1SOL    MW4  820   0.760   4.622   0.418  0.0844  0.1564  0.1588
    1SOL     OW  821   2.292   2.793   0.295  0.6575  0.1728 -0.4213
    1SOL    HW2  822   2.368   2.784   0.353  0.4540 -1.6298 -0.4189
    1SOL    HW3  823   2.323   2.761   0.210 -0.0014 -0.2421 -0.5053
    1SOL    MW4  824   2.306   2.788   0.292  0.5436 -0.1197 -0.4321
    1SOL     OW  825   3.352   0.526   0.832 -0.0901 -0.3558  0.0837
    1SOL    HW2  826   3.385   0.532   0.743  0.9854  0.6851  0.5308
    1SOL    HW3  827   3.407   0.459   0.873 -0.9194 -1.2010 -0.1676
    1SOL    MW4  828   3.364   0.517   0.826 -0.0575 -0.3300  0.1096
    1SOL     OW  829   0.758   2.552   0.535 -0.0853 -0.6566 -0.1879
    1SOL    HW2  830   0.668   2.583   0.524 -0.2237 -0.7531  0.6007
    1SOL    HW3  831   0.811   2.612   0.484 -0.6067 -0.6340 -0.7046
    1SOL    MW4  832   0.753   2.564   0.527 -0.1723 -0.6664 -0.1521
    1SOL     OW  833   0.222   4.491   0.492 -0.2571  0.3108 -0.0768
    1SOL    HW2  834   0.225   4.467   0.584 -0.1012  1.8944  0.3395
    1SOL    HW3  835   0.260   4.415   0.446  0.8558  0.0498  1.2496
    1SOL    MW4  836   0.228   4.478   0.498 -0.0897  0.4859  0.1531
    1SOL     OW  837   0.382   0.497   0.175  0.1780 -0.8111 -0.2569
    1SOL    HW2  838   0.382   0.522   0.082 -1.1353 -0.0969 -0.0746
    1SOL    HW3  839   0.317   0.428   0.181  1.0885 -1.6609 -0.0648
    1SOL    MW4  840   0.374   0.491   0.163  0.1248 -0.8290 -0.2075
    1SOL     OW  841   2.033   3.634   0.741  0.2869 -0.6453 -0.0231
    1SOL    HW2  842   2.094   3.581   0.792  1.0985  0.7928  0.5341
    1SOL    HW3  843   1.947   3.597   0.760  0.7821 -1.3603  0.8556
    1SOL    MW4  844   2.030   3.622   0.750  0.4592 -0.5498  0.1663
    1SOL     OW  845   4.100   0.288   0.849  0.2419  0.3948  0.1990
    1SOL    HW2  846   4.191   0.315   0.838  0.4981 -0.4942  0.1394
    1SOL    HW3  847   4.054   0.328   0.775  0.7677 -0.0172 -0.3543
    1SOL    MW4  848   4.106   0.297   0.838  0.3452  0.2231  0.1181
    1SOL     OW  849   2.713   1.960   0.454  0.1725  0.1084 -0.3383
    1SOL    HW2  850   2.801   1.958   0.416 -0.1114 -1.4727 -0.9767
    1SOL    HW3  851   2.695   1.868   0.477 -1.0170  0.5281  0.4541
    1SOL    MW4  852   2.722   1.947   0.452 -0.0219 -0.0449 -0.3180
    1SOL     OW  853   1.141   3.403   0.228 -0.1875  0.1522 -0.0248
    1SOL    HW2  854   1.066   3.452   0.195 -0.2751 -0.6973 -1.1063
    1SOL    HW3  855   1.208   3.470   0.246 -1.1552  0.8984  0.8529
    1SOL    MW4  856   1.140   3.419   0.226 -0.3266  0.1385 -0.0516
    1SOL     OW  857   1.065   2.472   0.450 -0.1052  0.2097  0.1305
    1SOL    HW2  858   1.014   2.391   0.454 -0.2642  0.3742  1.5060
    1SOL    HW3  859   1.016   2.529   0.391  0.0537 -0.7224 -0.9112
    1SOL    MW4  860   1.052   2.469   0.442 -0.1053  0.1082  0.1746
    1SOL     OW  861   1.866   4.327   0.472  0.2479 -0.1952 -0.0817
    1SOL    HW2  862   1.862   4.386   0.396 -1.0514 -3.0880 -2.3254
    1SOL    HW3  863   1.776   4.323   0.504  0.8239  1.1755  1.8403
    1SOL    MW4  864   1.854   4.334   0.466  0.1526 -0.3963 -0.1241
    1SOL     OW  865   3.270   1.493   0.398  0.0386  0.6368 -0.5740
    1SOL    HW2  866   3.265   1.521   0.307 -1.9891 -0.0214 -0.6911
    1SOL    HW3  867   3.201   1.542   0.442  0.6712  0.5749  0.5098
    1SOL    MW4  868   3.260   1.503   0.392 -0.1454  0.5418 -0.4464
    1SOL     OW  869   0.739   2.373   0.791  0.0980 -0.2405  0.1961
    1SOL    HW2  870   0.726   2.366   0.886 -0.5522  0.3976  0.1562
    1SOL    HW3  871   0.661   2.419   0.760  0.4771 -0.1410 -0.6038
    1SOL    MW4  872   0.727   2.378   0.800  0.0623 -0.1433  0.0853
    1SOL     OW  873   0.242   3.618   0.459  0.0407 -0.0630 -0.3055
    1SOL    HW2  874   0.305   3.683   0.428  2.5846 -1.2654  2.1748
    1SOL    HW3  875   0.257   3.613   0.554 -1.5646 -2.7406 -0.1410
    1SOL    MW4  876   0.252   3.626   0.468  0.1645 -0.5748  0.0434
    1SOL     OW  877   3.388   2.872   0.690 -0.4892 -0.6588  0.2181
    1SOL    HW2  878   3.389   2.954   0.738 -0.1370 -0.5295 -0.0048
    1SOL    HW3  879   3.438   2.811   0.745  0.9942 -0.1750 -0.5541
    1SOL    MW4  880   3.395   2.874   0.703 -0.2472 -0.5779  0.0869
    1SOL     OW  881   0.506   2.763   0.837  0.0877  0.3202 -0.0953
    1SOL    HW2  882   0.591   2.794   0.807  0.0315  1.0592  0.4765
    1SOL    HW3  883   0.505   2.670   0.817  0.7852  0.4325 -0.6624
    1SOL    MW4  884   0.517   2.755   0.831  0.1723  0.4325 -0.0947
    1SOL     OW  885   3.678   1.286   0.461  0.0090  0.3434 -0.2713
    1SOL    HW2  886   3.711   1.199   0.439  1.5977  0.3874  1.8437
    1SOL    HW3  887   3.584   1.273   0.477  0.2302 -0.9622  0.0076
    1SOL    MW4  888   3.670   1.273   0.460  0.2480  0.1770  0.0446
    1SOL     OW  889   2.234   4.037   0.714 -0.3432  0.1532 -0.1264
    1SOL    HW2  890   2.222   4.004   0.625 -0.3838 -0.0769 -0.0386
    1SOL    HW3  891   2.166   3.993   0.765  0.4026 -0.6006  0.2379
    1SOL    MW4  892   2.224   4.027   0.709 -0.2501  0.0229 -0.0668
    1SOL     OW  893   1.322   4.040   0.790  0.2761 -0.3126  0.2283
    1SOL    HW2  894   1.240   3.998   0.817 -1.3186  2.5546  0.0772
    1SOL    HW3  895   1.324   4.122   0.839  2.2421  0.4267 -1.0360
    1SOL    MW4  896   1.311   4.046   0.800  0.3251  0.1636  0.0415
    1SOL     OW  897   3.050   0.747   0.466  0.1866 -0.4395 -0.1143
    1SOL    HW2  898   3.058   0.652   0.471  0.1683 -0.4113  0.5148
    1SOL    HW3  899   3.107   0.780   0.536 -0.4306 -0.0224  0.2002
    1SOL    MW4  900   3.059   0.739   0.476  0.1025 -0.3808  0.0102
    1SOL     OW  901   0.018   1.906   0.824  0.2915  0.0312 -0.1199
    1SOL    HW2  902   0.097   1.952   0.796 -0.0643  0.3844 -0.5573
    1SOL    HW3  903   0.025   1.820   0.784  0.9501 -0.2911  0.6814
    1SOL    MW4  904   0.029   1.901   0.815  0.3314  0.0353 -0.0719
    1SOL     OW  905   0.071   1.047   0.832  0.4800 -0.4670 -0.0662
    1SOL    HW2  906   0.090   1.075   0.921  2.3620 -1.4252 -0.1532
    1SOL    HW3  907   0.009   0.974   0.842 -0.6583  0.5462  0.3596
    1SOL    MW4  908   0.065   1.041   0.845  0.5779 -0.4598 -0.0216
    1SOL     OW  909   3.015   3.221   0.498 -0.3136  0.1554 -0.2005
    1SOL    HW2  910   3.037   3.291   0.437 -1.4074  2.0133  1.4931
    1SOL    HW3  911   3.043   3.141   0.454 -2.0742  1.3380 -3.6238
    1SOL    MW4  912   3.022   3.220   0.484 -0.6902  0.5565 -0.4287
    1SOL     OW  913   1.730   2.418   0.137 -0.2693  0.2863  0.2396
    1SOL    HW2  914   1.820   2.426   0.169  0.3294  0.1215 -1.3578
    1SOL    HW3  915   1.731   2.462   0.052 -1.7639  0.4868  0.3146
    1SOL    MW4  916   1.742   2.425   0.130 -0.3875  0.2909  0.0387
    1SOL     OW  917   3.126   1.168   0.814 -0.3834  0.2003 -0.0458
    1SOL    HW2  918   3.201   1.225   0.800 -0.9466  0.8981 -0.2276
    1SOL    HW3  919   3.134   1.139   0.905 -0.2699  0.8147  0.1357
    1SOL    MW4  920   3.137   1.171   0.824 -0.4427  0.3736 -0.0458
    1SOL     OW  921   2.718   3.222   0.471 -0.0591  0.4819 -0.1119
    1SOL    HW2  922   2.703   3.141   0.423  1.6003  0.7336 -1.0915
    1SOL    HW3  923   2.812   3.224   0.486  0.0985  2.8262 -1.2090
    1SOL    MW4  924   2.728   3.212   0.467  0.1805  0.8240 -0.3859
    1SOL     OW  925   1.353   0.907   0.756 -0.6781  0.0707 -0.1343
    1SOL    HW2  926   1.336   0.996   0.787  0.1485  0.2315 -0.1332
    1SOL    HW3  927   1.267   0.865   0.755 -0.8843  0.4446  1.1607
    1SOL    MW4  928   1.339   0.913   0.760 -0.5963  0.1413  0.0367
    1SOL     OW  929   3.508   0.558   0.601 -0.3173 -0.0574 -0.0273
    1SOL    HW2  930   3.575   0.544   0.668 -2.6210 -0.6656  2.2290
    1SOL    HW3  931   3.492   0.470   0.565 -0.5123 -0.0534  0.0487
    1SOL    MW4  932   3.515   0.544   0.605 -0.6468 -0.1371  0.2804
    1SOL     OW  933   4.071   2.446   0.727 -0.1347  0.3302  0.6913
    1SOL    HW2  934   4.139   2.393   0.769  1.2797  0.1230 -1.7558
    1SOL    HW3  935   3.990   2.396   0.742  0.8920 -1.5971  0.0590
    1SOL    MW4  936   4.069   2.432   0.735  0.1869  0.0486  0.2850
    1SOL     OW  937   1.821   1.731   0.516  0.0876 -0.0632  0.0779
    1SOL    HW2  938   1.877   1.805   0.494 -0.1411 -0.0618 -0.5044
    1SOL    HW3  939   1.820   1.729   0.612  0.3384  0.4977  0.0923
    1SOL    MW4  940   1.828   1.740   0.526  0.0906  0.0110  0.0030
    1SOL     OW  941   1.594   1.088   0.405  0.4874  0.0496  0.4578
    1SOL    HW2  942   1.532   1.017   0.420  0.0829  0.2936 -0.0738
    1SOL    HW3  943   1.628   1.072   0.317  0.5699  0.3806  0.4306
    1SOL    MW4  944   1.590   1.077   0.396  0.4449  0.1255  0.3841
    1SOL     OW  945   1.835   0.985   0.519  0.1361 -0.3444 -0.5066
    1SOL    HW2  946   1.750   1.002   0.478 -0.4709 -0.2677  0.7531
    1SOL    HW3  947   1.813   0.950   0.605  1.3956 -1.3782 -0.5974
    1SOL    MW4  948   1.821   0.983   0.525  0.2222 -0.4707 -0.3524
    1SOL     OW  949   4.065   0.846   0.744 -0.3294 -0.0656  0.5746
    1SOL    HW2  950   4.052   0.941   0.740 -1.0416 -0.1490  0.7327
    1SOL    HW3  951   4.148   0.835   0.790  0.1818  0.5023 -0.2029
    1SOL    MW4  952   4.074   0.857   0.750 -0.3562 -0.0015  0.4929
    1SOL     OW  953   0.912   1.615   0.474 -0.1655 -0.3136  0.4206
    1SOL    HW2  954   0.991   1.645   0.429 -0.0368  0.0830  0.9122
    1SOL    HW3  955   0.912   1.662   0.557 -0.5777 -0.7939  0.6981
    1SOL    MW4  956   0.922   1.625   0.479 -0.2030 -0.3246  0.5221
    1SOL     OW  957   0.858   3.182   0.437  0.4348 -0.3385 -0.1063
    1SOL    HW2  958   0.799   3.253   0.410  0.3791 -0.4190 -0.1949
    1SOL    HW3  959   0.942   3.206   0.398  0.6239  0.1252  0.5786
    1SOL    MW4  960   0.861   3.195   0.428  0.4524 -0.2878 -0.0276
    1SOL     OW  961   2.264   2.069   0.132  0.4465  0.0451 -0.1275
    1SOL    HW2  962   2.271   2.009   0.206  0.3206 -0.8294 -0.8169
    1SOL    HW3  963   2.348   2.061   0.086 -0.0297 -0.5234 -0.9103
    1SOL    MW4  964   2.276   2.060   0.135  0.3669 -0.1452 -0.3217
    1SOL     OW  965   1.419   2.159   0.416 -0.4266 -0.0775  0.3548
    1SOL    HW2  966   1.499   2.124   0.454  0.4049  2.5436  1.1506
    1SOL    HW3  967   1.439   2.172   0.323 -0.3058 -0.4656  0.3266
    1SOL    MW4  968   1.432   2.156   0.409 -0.3009  0.2172  0.4561
    1SOL     OW  969   3.377   1.258   0.509  0.1792  0.5476 -0.3611
    1SOL    HW2  970   3.361   1.280   0.600  0.8769  2.0346 -0.5856
    1SOL    HW3  971   3.342   1.331   0.459 -0.8472 -0.5899 -1.3362
    1SOL    MW4  972   3.370   1.270   0.514  0.1359  0.5937 -0.5194
    1SOL     OW  973   1.637   1.761   0.138  0.5817 -0.2522 -0.1263
    1SOL    HW2  974   1.560   1.706   0.121 -0.2695  0.9585 -0.2162
    1SOL    HW3  975   1.618   1.805   0.220  0.1145  1.8740 -1.3506
    1SOL    MW4  976   1.624   1.759   0.146  0.4077  0.1881 -0.2997
    1SOL     OW  977   4.463   2.154   0.326 -0.6923 -0.0571  0.0355
    1SOL    HW2  978   4.386   2.116   0.367 -1.0872  1.4714  0.7657
    1SOL    HW3  979   4.536   2.127   0.381 -0.9848  0.3467  0.6276
    1SOL    MW4  980   4.463   2.146   0.339 -0.7830  0.1976  0.2100
    1SOL     OW  981   3.717   3.118   0.429  0.0634 -0.2386  0.1722
    1SOL    HW2  982   3.698   3.206   0.394  1.5561  0.0674  0.1041
    1SOL    HW3  983   3.705   3.128   0.523 -0.3339 -0.1207  0.1152
    1SOL    MW4  984   3.713   3.131   0.436  0.2079 -0.1829  0.1557
    1SOL     OW  985   1.386   2.733   0.816 -0.5164 -0.6571 -0.2107
    1SOL    HW2  986   1.375   2.739   0.911 -1.5633 -0.6206 -0.3280
    1SOL    HW3  987   1.304   2.764   0.780 -0.0817 -0.5570 -1.1422
    1SOL    MW4  988   1.374   2.738   0.824 -0.5971 -0.6390 -0.3490
    1SOL     OW  989   3.640   4.578   0.478 -0.2671  0.1992 -0.0880
    1SOL    HW2  990   3.563   4.523   0.464  0.7154 -1.1964 -0.0602
    1SOL    HW3  991   3.623   4.622   0.561 -0.4792 -1.0645  0.5501
    1SOL    MW4  992   3.627   4.577   0.487 -0.1652 -0.1512 -0.0002
    1SOL     OW  993   4.066   3.499   0.781 -0.4587  0.0863  0.2948
    1SOL    HW2  994   4.077   3.407   0.758  0.1621  0.3150 -0.3531
    1SOL    HW3  995   4.071   3.501   0.876  0.6720 -0.4193  0.2614
    1SOL    MW4  996   4.068   3.487   0.790 -0.2275  0.0496  0.2049
    1SOL     OW  997   0.405   0.337   0.852 -0.1091 -0.4113 -0.2218
    1SOL    HW2  998   0.311   0.351   0.838 -0.3051 -2.2797 -0.9330
    1SOL    HW3  999   0.420   0.247   0.824  1.8186 -0.2848  0.3396
    1SOL    MW4 1000   0.394   0.327   0.847  0.1194 -0.6411 -0.2415
    1SOL     OW 1001   2.450   4.146   0.423  0.3378 -0.0517 -0.1633
    1SOL    HW2 1002   2.518   4.080   0.439 -0.0410  0.0748  2.1363
    1SOL    HW3 1003   2.368   4.096   0.422  0.1930  0.1840  0.0306
    1SOL    MW4 1004   2.448   4.130   0.425  0.2687 -0.0033  0.1657
    1SOL     OW 1005   0.145   0.411   0.777 -0.1102 -0.4802  0.4943
    1SOL    HW2 1006   0.135   0.495   0.732  0.1764 -0.3340  0.7005
    1SOL    HW3 1007   0.057   0.388   0.808  0.0130  0.2976  1.4309
    1SOL    MW4 1008   0.132   0.419   0.775 -0.0562 -0.3583  0.6451
    1SOL     OW 1009   2.026   1.978   0.018 -0.2128 -0.0573  0.2494
    1SOL    HW2 1010   2.103   2.031   0.041  0.4181 -1.1108  0.5812
    1SOL    HW3 1011   2.028   1.973  -0.077  1.1040 -1.5133  0.3376
    1SOL    MW4 1012   2.036   1.985   0.009  0.0441 -0.3884  0.3042
    1SOL     OW 1013   0.232   0.833   0.810 -0.3259 -0.2971  0.4605
    1SOL    HW2 1014   0.230   0.803   0.900  0.7039 -1.3186  0.1593
    1SOL    HW3 1015   0.182   0.915   0.810  0.9548  0.5027  2.2472
    1SOL    MW4 1016   0.225   0.840   0.822 -0.0211 -0.3263  0.6565
    1SOL     OW 1017   0.549   0.860   0.419  0.1092 -0.1340 -0.0043
    1SOL    HW2 1018   0.514   0.864   0.508  0.2026 -0.1389  0.0327
    1SOL    HW3 1019   0.492   0.798   0.374  0.3035 -0.4362  0.1624
    1SOL    MW4 1020   0.537   0.852   0.425  0.1471 -0.1746  0.0225
    1SOL     OW 1021   0.458   1.811   0.489  0.0023  0.2703  0.0676
    1SOL    HW2 1022   0.445   1.779   0.578  1.0940 -0.7298 -0.1169
    1SOL    HW3 1023   0.379   1.784   0.442 -0.7302  1.1073  0.8038
    1SOL    MW4 1024   0.446   1.803   0.495  0.0497  0.2488  0.1404
    1SOL     OW 1025   4.208   1.634   0.342 -0.1988 -0.0592  0.1960
    1SOL    HW2 1026   4.247   1.554   0.306 -1.6511 -0.9978  0.6700
    1SOL    HW3 1027   4.219   1.699   0.273  0.3887 -0.8429 -0.4612
    1SOL    MW4 1028   4.215   1.632   0.328 -0.3138 -0.2866  0.1718
    1SOL     OW 1029   0.197   1.525   0.786  0.1855  0.2588  0.3315
    1SOL    HW2 1030   0.207   1.440   0.745 -0.4926  0.8352 -1.0701
    1SOL    HW3 1031   0.277   1.573   0.762 -0.1946  0.5831 -0.3140
    1SOL    MW4 1032   0.209   1.520   0.777  0.0459  0.3777  0.0614
    1SOL     OW 1033   1.165   2.850   0.715  0.0603 -0.4159 -0.0442
    1SOL    HW2 1034   1.081   2.808   0.733 -0.7168  1.1354  0.0163
    1SOL    HW3 1035   1.164   2.868   0.621  0.2118 -0.1517  0.0051
    1SOL    MW4 1036   1.154   2.847   0.705 -0.0223 -0.1764 -0.0296
    1SOL     OW 1037   4.206   2.466   0.473 -0.8310 -0.4578  0.4687
    1SOL    HW2 1038   4.151   2.524   0.420  1.1349  1.3846  0.3604
    1SOL    HW3 1039   4.173   2.478   0.562 -2.3853 -1.4906  0.0460
    1SOL    MW4 1040   4.195   2.475   0.478 -0.7768 -0.3510  0.3986
    1SOL     OW 1041   1.082   2.355   0.836  0.1380  0.3239 -0.1621
    1SOL    HW2 1042   1.083   2.266   0.801 -0.0824  0.2146  0.1000
    1SOL    HW3 1043   1.167   2.391   0.814  0.4457 -0.1530  0.2426
    1SOL    MW4 1044   1.093   2.348   0.828  0.1496  0.2465 -0.0741
    1SOL     OW 1045   0.764   2.926   0.454  0.3129  0.3590 -0.5404
    1SOL    HW2 1046   0.679   2.924   0.411  0.2282  0.9990 -0.4175
    1SOL    HW3 1047   0.802   3.009   0.426  1.9590 -1.0375 -2.5861
    1SOL    MW4 1048   0.758   2.937   0.445  0.5190  0.2592 -0.7941
    1SOL     OW 1049   4.279   2.277   0.848  0.7898 -0.4408  0.3221
    1SOL    HW2 1050   4.277   2.182   0.838 -0.7551 -0.2696 -1.3668
    1SOL    HW3 1051   4.345   2.307   0.786  1.0683 -0.4000  0.6406
    1SOL    MW4 1052   4.287   2.269   0.839  0.6223 -0.4127  0.1413
    1SOL     OW 1053   0.266   1.252   0.703  0.1316 -0.1247  0.0272
    1SOL    HW2 1054   0.340   1.211   0.748  0.2743 -1.8500 -1.7017
    1SOL    HW3 1055   0.196   1.187   0.708 -1.1086  1.2583  1.1293
    1SOL    MW4 1056   0.267   1.238   0.709 -0.0132 -0.1700 -0.0554
    1SOL     OW 1057   4.030   1.616   0.743  0.2105 -0.1581  0.0863
    1SOL    HW2 1058   3.964   1.546   0.752 -0.2900  0.3330  0.2400
    1SOL    HW3 1059   4.114   1.570   0.746 -0.0883 -0.6639  1.1653
    1SOL    MW4 1060   4.032   1.600   0.745  0.1054 -0.1600  0.2488
    1SOL     OW 1061   0.229   3.122   0.788 -0.0063  0.1289  0.4376
    1SOL    HW2 1062   0.228   3.123   0.884  0.8346 -1.0208  0.4671
    1SOL    HW3 1063   0.151   3.171   0.762 -1.5433 -1.5821  1.7089
    1SOL    MW4 1064   0.219   3.129   0.797 -0.0981 -0.2484  0.6092
    1SOL     OW 1065   1.762   1.999   0.100 -0.0695 -0.2203 -0.3608
    1SOL    HW2 1066   1.720   1.913   0.106 -0.3889 -0.0767 -0.5382
    1SOL    HW3 1067   1.856   1.980   0.094 -0.1232 -0.5479 -0.1642
    1SOL    MW4 1068   1.769   1.985   0.100 -0.1186 -0.2445 -0.3582
    1SOL     OW 1069   0.183   2.640   0.373 -0.1340 -0.2891 -0.3760
    1SOL    HW2 1070   0.130   2.561   0.382  0.7814 -1.1800 -2.6212
    1SOL    HW3 1071   0.167   2.671   0.284 -1.8811  3.1304  1.0032
    1SOL    MW4 1072   0.174   2.634   0.363 -0.2438  0.0443 -0.4902
    1SOL     OW 1073   4.486   3.280   0.762 -0.6019 -0.0044  0.0316
    1SOL    HW2 1074   4.456   3.288   0.672 -1.1872  0.0972  0.2371
    1SOL    HW3 1075   4.490   3.370   0.795  0.7299  0.0557 -0.2512
    1SOL    MW4 1076   4.483   3.293   0.754 -0.5031  0.0172  0.0214
    1SOL     OW 1077   0.466   3.503   0.845  0.0467 -0.6673 -0.4502
    1SOL    HW2 1078   0.453   3.499   0.939 -0.9846  0.5008 -0.5243
    1SOL    HW3 1079   0.481   3.413   0.818  0.8690 -0.9356  0.9013
    1SOL    MW4 1080   0.466   3.491   0.854  0.0191 -0.5486 -0.2816
    1SOL     OW 1081   0.456   2.967   0.400 -0.1791 -0.2369  0.0028
    1SOL    HW2 1082   0.379   2.987   0.347 -0.4060 -0.1505  0.3604
    1SOL    HW3 1083   0.423   2.962   0.490  0.5551  1.8741  0.4374
    1SOL    MW4 1084   0.442   2.969   0.405 -0.1122  0.0529  0.1073
    1SOL     OW 1085   0.494   1.155   0.831 -0.3974 -0.1825 -0.0452
    1SOL    HW2 1086   0.486   1.069   0.791 -0.2639 -0.9437  1.5297
    1SOL    HW3 1087   0.580   1.187   0.803 -0.0781 -0.9364  0.0798
    1SOL    MW4 1088   0.504   1.148   0.822 -0.3377 -0.3825  0.1791
    1SOL     OW 1089   0.445   0.083   0.735 -0.0964  0.1580  0.0657
    1SOL    HW2 1090   0.428   0.077   0.641 -0.8733  2.4571  0.0327
    1SOL    HW3 1091   0.539   0.071   0.744  0.2267  1.5901 -1.1901
    1SOL    MW4 1092   0.455   0.080   0.724 -0.1563  0.6503 -0.1043
    1SOL     OW 1093   0.423   0.370   1.133 -0.0986  0.2687  0.0473
    1SOL    HW2 1094   0.420   0.373   1.037  0.1526 -0.6680  0.0040
    1SOL    HW3 1095   0.336   0.397   1.161 -0.2716  0.2364 -0.4573
    1SOL    MW4 1096   0.411   0.374   1.124 -0.0883  0.1408 -0.0249
    1SOL     OW 1097   1.992   2.038   0.737 -0.3735 -0.4929 -0.0649
    1SOL    HW2 1098   1.996   2.132   0.758  0.5360 -0.5752  0.1645
    1SOL    HW3 1099   1.930   2.002   0.799 -0.3103 -0.1341  0.2075
    1SOL    MW4 1100   1.984   2.046   0.748 -0.2451 -0.4566  0.0013
    1SOL     OW 1101   3.366   1.283   0.779  0.2398 -0.6651 -0.3846
    1SOL    HW2 1102   3.453   1.243   0.783  0.0273 -1.0218  0.8014
    1SOL    HW3 1103   3.376   1.366   0.826 -0.3949 -1.3549  1.0069
    1SOL    MW4 1104   3.379   1.289   0.786  0.1283 -0.8032 -0.0446
    1SOL     OW 1105   3.623   1.643   0.724  0.1870 -0.2197 -0.0688
    1SOL    HW2 1106   3.531   1.628   0.744  0.1932  0.5574  0.5651
    1SOL    HW3 1107   3.635   1.607   0.636 -1.0700  0.9933 -0.7550
    1SOL    MW4 1108   3.613   1.637   0.715  0.0217  0.0429 -0.0757
    1SOL     OW 1109   0.882   0.144   0.688 -0.0911  0.2986 -0.0254
    1SOL    HW2 1110   0.932   0.079   0.638 -0.2341  0.0659  0.1290
    1SOL    HW3 1111   0.818   0.091   0.737 -1.9882  0.7390 -1.9398
    1SOL    MW4 1112   0.880   0.128   0.688 -0.3603  0.3260 -0.2576
    1SOL     OW 1113   0.750   2.887   0.725  0.3865 -0.0139  0.7334
    1SOL    HW2 1114   0.722   2.971   0.760  2.4952  0.4919  1.3138
    1SOL    HW3 1115   0.738   2.895   0.630 -0.8524  0.3723  0.9155
    1SOL    MW4 1116   0.745   2.899   0.717  0.5013  0.1042  0.8340
    1SOL     OW 1117   1.694   0.139   0.484 -0.3253  0.3571 -0.0011
    1SOL    HW2 1118   1.715   0.110   0.573 -1.2211  1.9839  0.7654
    1SOL    HW3 1119   1.775   0.128   0.435  0.7181  1.2705  1.5065
    1SOL    MW4 1120   1.707   0.134   0.489 -0.3058  0.6923  0.2989
    1SOL     OW 1121   0.485   3.260   0.736  0.4577  0.0186  0.1582
    1SOL    HW2 1122   0.497   3.254   0.641  0.6936  1.1379  0.1070
    1SOL    HW3 1123   0.399   3.223   0.752  0.3634 -0.0542 -0.5183
    1SOL    MW4 1124   0.475   3.255   0.726  0.4764  0.1566  0.0622
    1SOL     OW 1125   0.700   1.339   0.724 -0.1478 -0.0674  0.3932
    1SOL    HW2 1126   0.762   1.335   0.652 -1.7046  0.1969 -0.9837
    1SOL    HW3 1127   0.694   1.432   0.746 -1.0530  0.0485 -0.3513
    1SOL    MW4 1128   0.708   1.351   0.718 -0.4726 -0.0174  0.1133
    1SOL     OW 1129   2.941   1.543   0.851 -0.1401 -0.7397  0.1066
    1SOL    HW2 1130   2.865   1.599   0.835  1.0454  1.6076  2.1995
    1SOL    HW3 1131   3.016   1.597   0.825  1.0086 -1.5025  1.7642
    1SOL    MW4 1132   2.941   1.558   0.846  0.1678 -0.5307  0.6014
    1SOL     OW 1133   4.483   1.669   0.694  0.1260  0.2950 -0.0566
    1SOL    HW2 1134   4.414   1.611   0.726 -0.8687  0.8416 -1.1841
    1SOL    HW3 1135   4.564   1.631   0.729 -0.7104 -0.4653  1.1067
    1SOL    MW4 1136   4.485   1.656   0.703 -0.1156  0.2669 -0.0518
    1SOL     OW 1137   1.276   3.970   0.504  0.0783 -0.0584 -0.2043
    1SOL    HW2 1138   1.298   4.006   0.590 -1.1986  1.7287 -0.5811
    1SOL    HW3 1139   1.358   3.972   0.455  0.5056  0.2833  0.5151
    1SOL    MW4 1140   1.289   3.975   0.509 -0.0339  0.2224 -0.1591
    1SOL     OW 1141   0.883   2.275   0.527  0.5011  0.0987 -0.4402
    1SOL    HW2 1142   0.812   2.330   0.493  0.2106 -0.0881 -0.1399
    1SOL    HW3 1143   0.864   2.187   0.494  0.7605  0.1042 -0.6094
    1SOL    MW4 1144   0.871   2.271   0.518  0.4969  0.0749 -0.4228
    1SOL     OW 1145   2.430   4.400   0.524  0.0318  0.0991 -0.0272
    1SOL    HW2 1146   2.429   4.307   0.504  1.8472 -0.0559  0.5788
    1SOL    HW3 1147   2.358   4.436   0.471 -0.4015 -1.5547 -0.5972
    1SOL    MW4 1148   2.420   4.393   0.514  0.2141 -0.1402 -0.0225
    1SOL     OW 1149   1.165   2.896   0.437  0.0726 -0.2346 -0.2226
    1SOL    HW2 1150   1.135   2.982   0.409 -0.8967 -0.9099 -1.3174
    1SOL    HW3 1151   1.251   2.886   0.396  0.5462  0.5387  0.5754
    1SOL    MW4 1152   1.172   2.906   0.428  0.0073 -0.2217 -0.2618
    1SOL     OW 1153   0.204   2.068   0.486 -0.0840  0.6444  0.1283
    1SOL    HW2 1154   0.219   2.062   0.580 -0.1527 -1.5335  0.0379
    1SOL    HW3 1155   0.212   1.978   0.455 -1.1919  1.1748 -1.7854
    1SOL    MW4 1156   0.207   2.055   0.494 -0.2392  0.4270 -0.1361
    1SOL     OW 1157   3.314   3.843   0.790  0.0962 -0.7113  0.0167
    1SOL    HW2 1158   3.315   3.748   0.784 -0.6687 -0.7502  0.3497
    1SOL    HW3 1159   3.314   3.861   0.884 -0.9835 -0.4196 -0.0271
    1SOL    MW4 1160   3.314   3.833   0.802 -0.1473 -0.6778  0.0548
    1SOL     OW 1161   3.607   2.453   0.693 -0.2783  0.1713 -0.0196
    1SOL    HW2 1162   3.599   2.536   0.739  1.3178  0.9305 -1.0889
    1SOL    HW3 1163   3.525   2.407   0.712 -1.4908  2.2910 -0.0448
    1SOL    MW4 1164   3.595   2.458   0.702 -0.2277  0.5512 -0.1640
    1SOL     OW 1165   0.012   3.542   0.850  0.2184  0.2592  0.0057
    1SOL    HW2 1166   0.087   3.577   0.803 -0.4379 -0.5572 -1.6684
    1SOL    HW3 1167  -0.060   3.601   0.828  0.0195  0.1538  0.3709
    1SOL    MW4 1168   0.012   3.555   0.841  0.1054  0.1378 -0.1670
    1SOL     OW 1169   0.704   3.657   0.767  0.2153  0.2890  0.5123
    1SOL    HW2 1170   0.629   3.605   0.794  1.8651 -1.4946  1.8029
    1SOL    HW3 1171   0.689   3.674   0.674 -2.0824  0.5221  0.8988
    1SOL    MW4 1172   0.692   3.653   0.758  0.1298  0.0844  0.7335
    1SOL     OW 1173   1.952   4.059   0.520  0.0765  0.1022  0.2999
    1SOL    HW2 1174   1.902   4.042   0.600 -0.7346 -1.6471 -0.5461
    1SOL    HW3 1175   1.917   4.142   0.488 -0.0628  0.4786  1.3963
    1SOL    MW4 1176   1.940   4.068   0.527 -0.0489 -0.0787  0.3330
    1SOL     OW 1177   0.569   0.118   0.287  0.4912 -0.1674  0.1257
    1SOL    HW2 1178   0.575   0.201   0.238 -1.0462 -0.2229 -0.1786
    1SOL    HW3 1179   0.497   0.132   0.349  0.6190 -1.0793  0.4855
    1SOL    MW4 1180   0.561   0.131   0.289  0.3052 -0.2950  0.1330
    1SOL     OW 1181   0.443   4.254   0.895  0.0144 -0.7435  0.2596
    1SOL    HW2 1182   0.433   4.267   0.990 -0.2970 -0.3417  0.1715
    1SOL    HW3 1183   0.364   4.293   0.857  1.3855  1.5051 -0.3735
    1SOL    MW4 1184   0.431   4.261   0.903  0.1542 -0.3939  0.1644
    1SOL     OW 1185   0.678   4.364   0.796 -0.2478 -0.2272  0.0582
    1SOL    HW2 1186   0.761   4.326   0.824  0.0158  0.3317  0.0534
    1SOL    HW3 1187   0.611   4.314   0.843  0.0075 -1.7313 -1.1779
    1SOL    MW4 1188   0.680   4.353   0.806 -0.1794 -0.3524 -0.1056
    1SOL     OW 1189   2.280   1.547   0.244  0.1082 -0.3099  0.2943
    1SOL    HW2 1190   2.209   1.609   0.225  0.2627  0.1005  1.0632
    1SOL    HW3 1191   2.237   1.461   0.241 -0.3293 -0.0968  0.3230
    1SOL    MW4 1192   2.265   1.544   0.241  0.0708 -0.2276  0.3995
    1SOL     OW 1193   1.794   1.162   0.898 -0.2048 -0.3869  0.0826
    1SOL    HW2 1194   1.717   1.200   0.857 -0.1788 -0.4396 -0.0157
    1SOL    HW3 1195   1.865   1.178   0.836 -0.1853 -0.5533  0.0615
    1SOL    MW4 1196   1.793   1.169   0.885 -0.1988 -0.4158  0.0669
    1SOL     OW 1197   1.609   0.408   0.502 -0.2934  0.4189 -0.0972
    1SOL    HW2 1198   1.690   0.459   0.501  0.3174 -0.5080  0.7105
    1SOL    HW3 1199   1.638   0.318   0.490 -1.2637  0.1435 -0.3665
    1SOL    MW4 1200   1.624   0.403   0.501 -0.3407  0.2603 -0.0262
    1SOL     OW 1201   1.114   0.769   0.825 -0.1436  0.3532  0.2821
    1SOL    HW2 1202   1.135   0.762   0.918  0.3405  0.2217  0.1643
    1SOL    HW3 1203   1.112   0.679   0.794 -0.7977  0.3668  0.2685
    1SOL    MW4 1204   1.116   0.756   0.833 -0.1661  0.3377  0.2648
    1SOL     OW 1205   3.718   0.472   0.766 -0.1781 -0.0750 -0.2408
    1SOL    HW2 1206   3.786   0.436   0.710  1.2361 -1.5174  2.3390
    1SOL    HW3 1207   3.758   0.549   0.807 -0.6703  0.0619 -0.0021
    1SOL    MW4 1208   3.732   0.478   0.764 -0.0563 -0.2472  0.1311
    1SOL     OW 1209   2.002   0.903   0.141 -0.2138  0.5381 -0.0991
    1SOL    HW2 1210   2.095   0.926   0.150  0.0053 -0.2627 -0.2615
    1SOL    HW3 1211   1.986   0.906   0.047  0.1705 -1.2806 -0.2422
    1SOL    MW4 1212   2.012   0.907   0.130 -0.1340  0.1924 -0.1394
    1SOL     OW 1213   1.159   1.287   0.470 -0.2719 -0.0189  0.0708
    1SOL    HW2 1214   1.071   1.318   0.448 -0.0685  0.4005 -0.1493
    1SOL    HW3 1215   1.167   1.203   0.426 -0.9694 -0.5784  0.9810
    1SOL    MW4 1216   1.149   1.280   0.461 -0.3370 -0.0374  0.1618
    1SOL     OW 1217   0.698   0.784   0.800  0.1647  0.1218 -0.1041
    1SOL    HW2 1218   0.770   0.844   0.781 -0.3614  1.1636  1.1405
    1SOL    HW3 1219   0.715   0.708   0.744  1.3514  1.0264 -1.0000
    1SOL    MW4 1220   0.710   0.782   0.790  0.2518  0.3785 -0.0581
    1SOL     OW 1221   0.659   1.591   0.827 -0.7620 -0.2806  0.2192
    1SOL    HW2 1222   0.749   1.619   0.808 -0.8477 -0.2818 -0.1714
    1SOL    HW3 1223   0.663   1.563   0.919 -0.0595 -1.5061 -0.1702
    1SOL    MW4 1224   0.671   1.591   0.837 -0.6806 -0.4424  0.1163
    1SOL     OW 1225   3.844   2.039   0.690 -0.2725  0.4162 -0.1528
    1SOL    HW2 1226   3.885   2.029   0.604 -1.7236 -1.5271 -0.6381
    1SOL    HW3 1227   3.885   1.973   0.745 -0.6000  0.4708  0.1613
    1SOL    MW4 1228   3.854   2.029   0.686 -0.5071  0.1667 -0.1755
    1SOL     OW 1229   1.363   2.422   0.469  0.0590  0.1074  0.1432
    1SOL    HW2 1230   1.365   2.327   0.459 -1.1999  0.1156 -0.2787
    1SOL    HW3 1231   1.279   2.448   0.432  0.4036  1.3912  0.2444
    1SOL    MW4 1232   1.352   2.413   0.463 -0.0615  0.2778  0.1009
    1SOL     OW 1233   2.923   0.492   0.741  0.3554  0.4032 -0.7965
    1SOL    HW2 1234   2.927   0.583   0.770  0.0004  0.1061  0.2164
    1SOL    HW3 1235   2.990   0.447   0.794  1.4385  0.3082 -2.2084
    1SOL    MW4 1236   2.933   0.498   0.752  0.4513  0.3515 -0.8491
    1SOL     OW 1237   3.290   3.798   0.383 -0.0634 -0.0808 -0.2168
    1SOL    HW2 1238   3.374   3.844   0.381 -0.1751  0.0971 -0.8877
    1SOL    HW3 1239   3.313   3.707   0.400  0.3008 -0.1153 -0.8880
    1SOL    MW4 1240   3.304   3.792   0.385 -0.0300 -0.0620 -0.3938
    1SOL     OW 1241   0.238   4.413   0.756 -0.0251 -0.4431  0.2177
    1SOL    HW2 1242   0.227   4.491   0.810 -0.1500  0.2323 -0.7691
    1SOL    HW3 1243   0.157   4.364   0.767 -0.2387 -0.0763  0.2798
    1SOL    MW4 1244   0.226   4.417   0.765 -0.0697 -0.3057  0.0957
    1SOL     OW 1245   1.358   1.646   0.480 -0.4253 -0.2252 -0.0098
    1SOL    HW2 1246   1.353   1.560   0.437 -0.4861 -0.6147  0.7604
    1SOL    HW3 1247   1.276   1.689   0.457 -0.4480 -0.4173 -0.3027
    1SOL    MW4 1248   1.347   1.640   0.471 -0.4363 -0.3018  0.0531
    1SOL     OW 1249   0.641   0.382   0.144  0.4840  0.1322  0.2856
    1SOL    HW2 1250   0.719   0.414   0.189 -0.6217  1.9226  0.9803
    1SOL    HW3 1251   0.570   0.436   0.177 -0.8683 -0.6422 -1.2607
    1SOL    MW4 1252   0.642   0.393   0.154  0.1596  0.2663  0.1733
    1SOL     OW 1253   0.394   2.292   0.409  0.0085  0.1365 -0.4126
    1SOL    HW2 1254   0.333   2.218   0.407  0.4452 -0.1880 -1.9275
    1SOL    HW3 1255   0.470   2.259   0.457 -0.7372  0.3451  0.9346
    1SOL    MW4 1256   0.396   2.278   0.415 -0.0323  0.1209 -0.4347
    1SOL     OW 1257   1.491   3.140   0.175 -0.0373  0.4067  0.3552
    1SOL    HW2 1258   1.529   3.218   0.215  0.6435 -0.0022  0.5124
    1SOL    HW3 1259   1.402   3.166   0.151 -0.0425  1.0161  1.0379
    1SOL    MW4 1260   1.485   3.153   0.177  0.0517  0.4330  0.4661
    1SOL     OW 1261   2.468   1.245   0.457  0.4424  0.0748  0.1320
    1SOL    HW2 1262   2.389   1.241   0.402  0.4980 -0.2008  0.0681
    1SOL    HW3 1263   2.522   1.172   0.425  0.8629  0.4583 -0.0389
    1SOL    MW4 1264   2.465   1.234   0.445  0.5052  0.0890  0.1010
    1SOL     OW 1265   2.735   4.199   0.317 -0.0708  0.5107  0.4562
    1SOL    HW2 1266   2.642   4.218   0.309 -0.2835  0.1142  1.8780
    1SOL    HW3 1267   2.772   4.279   0.354  0.1120  0.5538  0.1824
    1SOL    MW4 1268   2.728   4.212   0.321 -0.0749  0.4640  0.6077
    1SOL     OW 1269   3.359   3.593   0.730 -0.2170  0.3541  0.3040
    1SOL    HW2 1270   3.440   3.552   0.761  0.1282  0.8923  0.1213
    1SOL    HW3 1271   3.289   3.550   0.781  0.2985  0.8301  1.4430
    1SOL    MW4 1272   3.360   3.582   0.741 -0.1035  0.4880  0.4302
    1SOL     OW 1273   4.396   1.779   0.453 -0.1017  0.9268 -0.4790
    1SOL    HW2 1274   4.418   1.727   0.530  1.2381  0.5688 -1.0915
    1SOL    HW3 1275   4.312   1.744   0.424 -0.2779  0.5993  0.4123
    1SOL    MW4 1276   4.388   1.768   0.459  0.0520  0.8364 -0.4422
    1SOL     OW 1277   1.126   4.427   0.797 -0.5449 -0.0654 -0.1813
    1SOL    HW2 1278   1.157   4.434   0.707 -0.3969  0.1713 -0.1133
    1SOL    HW3 1279   1.097   4.515   0.819 -0.7929 -0.1738 -0.0727
    1SOL    MW4 1280   1.127   4.439   0.788 -0.5581 -0.0486 -0.1580
    1SOL     OW 1281   1.840   2.489   0.766 -0.0323  0.3908 -0.0267
    1SOL    HW2 1282   1.830   2.575   0.808  0.6704 -0.1823  1.3459
    1SOL    HW3 1283   1.755   2.446   0.780 -0.1521  0.5990 -0.1073
    1SOL    MW4 1284   1.827   2.495   0.773  0.0447  0.3426  0.1436
    1SOL     OW 1285   1.528   0.010   0.873 -0.2137  0.1551  0.0876
    1SOL    HW2 1286   1.528   0.017   0.968  4.5217  0.6444  0.1560
    1SOL    HW3 1287   1.542  -0.083   0.855  0.2601  0.2586 -0.0908
    1SOL    MW4 1288   1.530  -0.001   0.883  0.4736  0.2332  0.0731
    1SOL     OW 1289   1.096   0.031   0.859 -0.4033 -0.8480  0.1704
    1SOL    HW2 1290   1.170   0.078   0.819  0.0680 -2.1313 -0.5083
    1SOL    HW3 1291   1.019   0.071   0.821 -0.0069 -0.5687 -0.3489
    1SOL    MW4 1292   1.096   0.042   0.849 -0.2888 -0.9805  0.0123
    1SOL     OW 1293   1.309   0.384   0.889 -0.2149  0.2776  0.0257
    1SOL    HW2 1294   1.336   0.370   0.980 -0.9996 -0.7798  0.1063
    1SOL    HW3 1295   1.388   0.415   0.846  0.3217  0.2216  0.9459
    1SOL    MW4 1296   1.323   0.386   0.895 -0.2475  0.1307  0.1578
    1SOL     OW 1297   1.542   0.492   0.760 -0.2706  0.2453  0.6437
    1SOL    HW2 1298   1.564   0.469   0.670  0.7706 -0.0754  0.9691
    1SOL    HW3 1299   1.565   0.585   0.767  0.7990 -0.0389  0.9249
    1SOL    MW4 1300   1.548   0.501   0.749  0.0080  0.1654  0.7238
    1SOL     OW 1301   3.005   1.933   0.469 -0.1059  0.1702 -0.1662
    1SOL    HW2 1302   2.977   1.966   0.555  1.1402  3.2437 -0.8785
    1SOL    HW3 1303   3.100   1.944   0.469  0.0613 -1.1241 -1.4234
    1SOL    MW4 1304   3.014   1.939   0.481  0.0803  0.4051 -0.4260
    1SOL     OW 1305   0.908   0.941   0.735  0.3443  0.6369 -0.3981
    1SOL    HW2 1306   0.933   0.948   0.643 -0.3320 -1.0335 -0.7352
    1SOL    HW3 1307   0.977   0.888   0.775 -0.1355  0.0817 -0.2863
    1SOL    MW4 1308   0.920   0.935   0.728  0.1918  0.3432 -0.4278
    1SOL     OW 1309   1.344   1.164   0.854 -0.0504 -0.0561 -0.0308
    1SOL    HW2 1310   1.324   1.161   0.947  0.7104 -0.0596  0.1342
    1SOL    HW3 1311   1.269   1.210   0.815 -0.1906  0.2806  0.6284
    1SOL    MW4 1312   1.331   1.170   0.861  0.0316 -0.0122  0.0778
    1SOL     OW 1313   3.391   2.078   0.698 -0.0618  0.5867 -0.5562
    1SOL    HW2 1314   3.371   2.033   0.616  0.8490  0.8055 -0.9077
    1SOL    HW3 1315   3.462   2.027   0.737 -0.2073  0.7226 -0.1129
    1SOL    MW4 1316   3.398   2.066   0.692  0.0391  0.6335 -0.5441
    1SOL     OW 1317   0.675   3.933   0.319 -0.0359  0.6623  0.6347
    1SOL    HW2 1318   0.741   3.864   0.327 -0.7845 -0.1124  0.1786
    1SOL    HW3 1319   0.708   4.004   0.374  2.4237  1.2522 -1.5217
    1SOL    MW4 1320   0.688   3.933   0.327  0.1898  0.6380  0.2900
    1SOL     OW 1321   3.680   1.579   0.459  0.4379  0.2199 -0.2624
    1SOL    HW2 1322   3.768   1.615   0.448  0.8762 -0.5808  0.5344
    1SOL    HW3 1323   3.687   1.491   0.421 -0.1931  0.3937 -0.7774
    1SOL    MW4 1324   3.693   1.572   0.452  0.4125  0.1372 -0.2252
    1SOL     OW 1325   1.796   1.441   0.430  0.2262  0.1109  0.1228
    1SOL    HW2 1326   1.819   1.508   0.495 -0.8243  0.8260 -0.2259
    1SOL    HW3 1327   1.811   1.483   0.346  1.1251 -0.6577 -0.1061
    1SOL    MW4 1328   1.801   1.455   0.428  0.2061  0.1037  0.0466
    1SOL     OW 1329   3.703   2.419   0.421  0.2498 -0.0336  0.5440
    1SOL    HW2 1330   3.666   2.424   0.509 -0.0703  0.0022  0.4101
    1SOL    HW3 1331   3.789   2.381   0.433 -0.0808 -0.7067  0.7940
    1SOL    MW4 1332   3.709   2.415   0.434  0.1640 -0.1175  0.5593
    1SOL     OW 1333   3.360   4.101   0.482 -0.4785 -0.4318  0.9068
    1SOL    HW2 1334   3.372   4.194   0.461  0.9850 -1.0181 -0.9792
    1SOL    HW3 1335   3.436   4.078   0.535 -0.5694 -0.6840  0.9279
    1SOL    MW4 1336   3.371   4.111   0.486 -0.2975 -0.5422  0.6607
    1SOL     OW 1337   1.056   3.657   0.738 -0.4305  0.0847  0.0588
    1SOL    HW2 1338   1.145   3.636   0.766 -0.4737  0.8168  0.7609
    1SOL    HW3 1339   1.000   3.597   0.788 -0.4119  0.4334  0.4998
    1SOL    MW4 1340   1.060   3.646   0.748 -0.4338  0.2275  0.2096
    1SOL     OW 1341   0.933   2.677   0.770  0.1237 -0.0817  0.4498
    1SOL    HW2 1342   0.922   2.672   0.865  1.1727  0.7080  0.6255
    1SOL    HW3 1343   0.877   2.749   0.743  1.3768  1.0250  0.7512
    1SOL    MW4 1344   0.924   2.686   0.779  0.4275  0.1686  0.5128
    1SOL     OW 1345   1.627   2.821   0.693  0.3789 -0.1818  0.7367
    1SOL    HW2 1346   1.624   2.910   0.727  0.1200 -0.0961  0.4900
    1SOL    HW3 1347   1.551   2.778   0.733 -0.0046 -0.0436  0.1647
    1SOL    MW4 1348   1.616   2.827   0.703  0.2941 -0.1523  0.6287
    1SOL     OW 1349   3.178   4.593   0.441 -0.3452 -0.0104 -0.5162
    1SOL    HW2 1350   3.160   4.685   0.459  1.3310  0.2616 -0.1837
    1SOL    HW3 1351   3.099   4.547   0.472  0.0895  0.9942  2.2579
    1SOL    MW4 1352   3.165   4.599   0.448 -0.0668  0.1578 -0.1063
    1SOL     OW 1353   4.240   4.352   0.613 -0.0341  0.3109 -0.0960
    1SOL    HW2 1354   4.250   4.298   0.534  0.9115 -0.3935  0.5044
    1SOL    HW3 1355   4.315   4.412   0.610  0.7909 -0.6440  0.9901
    1SOL    MW4 1356   4.252   4.353   0.602  0.1988  0.0916  0.1265
    1SOL     OW 1357   1.093   3.908   0.842  0.2352  0.6955 -0.5369
    1SOL    HW2 1358   1.078   3.819   0.808  0.6520  0.6000 -0.4700
    1SOL    HW3 1359   1.103   3.896   0.937 -3.0652  1.2063 -0.0755
    1SOL    MW4 1360   1.092   3.894   0.850 -0.1451  0.7503 -0.4672
    1SOL     OW 1361   4.045   4.253   0.811  0.1994 -0.2172  0.1947
    1SOL    HW2 1362   3.964   4.303   0.796  0.5967  0.3941  0.0651
    1SOL    HW3 1363   4.110   4.296   0.756  0.9617  0.2015  1.3947
    1SOL    MW4 1364   4.042   4.265   0.802  0.3524 -0.0811  0.3360
    1SOL     OW 1365   2.271   3.233   0.751  0.2501 -0.6952  0.2974
    1SOL    HW2 1366   2.196   3.183   0.784 -0.9760  0.1266 -1.1708
    1SOL    HW3 1367   2.347   3.178   0.769 -0.8506 -2.1192  0.6321
    1SOL    MW4 1368   2.271   3.219   0.758 -0.0567 -0.7749  0.1478
    1SOL     OW 1369   2.212   1.665   0.707 -0.0472 -0.3081 -0.0974
    1SOL    HW2 1370   2.289   1.620   0.741  0.1671 -0.6928 -1.0676
    1SOL    HW3 1371   2.200   1.740   0.765  1.1897 -0.1176 -0.0839
    1SOL    MW4 1372   2.220   1.669   0.719  0.1445 -0.3338 -0.2236
    1SOL     OW 1373   1.980   4.411   0.697  0.0876 -0.1429  0.1792
    1SOL    HW2 1374   1.941   4.379   0.615  0.5588 -0.4761  0.0842
    1SOL    HW3 1375   1.932   4.366   0.766 -0.1478 -0.0458  0.0785
    1SOL    MW4 1376   1.969   4.401   0.695  0.1187 -0.1736  0.1533
    1SOL     OW 1377   2.229   3.975   0.447  0.5331  0.2219 -0.3454
    1SOL    HW2 1378   2.142   4.013   0.439  0.6079  0.5929  0.5422
    1SOL    HW3 1379   2.215   3.880   0.440 -0.0057  0.2523  0.3108
    1SOL    MW4 1380   2.216   3.967   0.445  0.4718  0.2749 -0.1417
    1SOL     OW 1381   2.434   4.659   0.895 -0.1100  0.1434  0.0804
    1SOL    HW2 1382   2.441   4.652   0.991  0.5341 -2.1360 -0.0829
    1SOL    HW3 1383   2.450   4.569   0.864 -0.4147  0.8372 -2.1610
    1SOL    MW4 1384   2.437   4.646   0.904 -0.0648 -0.0658 -0.2370
    1SOL     OW 1385   1.913   3.252   0.467  0.0148  0.1928  0.8800
    1SOL    HW2 1386   1.910   3.161   0.437 -2.6987  0.2187  0.9489
    1SOL    HW3 1387   2.006   3.274   0.469  0.5748 -1.6916 -1.8539
    1SOL    MW4 1388   1.925   3.243   0.463 -0.2692 -0.0522  0.5284
    1SOL     OW 1389   1.802   0.364   0.849  0.0127  0.1191 -0.0819
    1SOL    HW2 1390   1.726   0.400   0.803  1.4452  1.6724 -1.3123
    1SOL    HW3 1391   1.802   0.272   0.825 -1.9237 -0.0916  0.5889
    1SOL    MW4 1392   1.792   0.357   0.840 -0.0538  0.2963 -0.1557
    1SOL     OW 1393   3.853   4.384   0.478 -0.7951  0.0250 -0.0997
    1SOL    HW2 1394   3.937   4.429   0.482 -0.2542 -1.0157  0.3721
    1SOL    HW3 1395   3.789   4.454   0.468  0.0370  0.8902  0.5705
    1SOL    MW4 1396   3.856   4.399   0.477 -0.6139  0.0019  0.0509
    1SOL     OW 1397   3.028   4.158   0.376  0.9388  0.0134 -0.2989
    1SOL    HW2 1398   2.955   4.148   0.314  2.0323  0.3672 -1.6694
    1SOL    HW3 1399   3.034   4.252   0.390  1.2217 -0.0095 -0.2787
    1SOL    MW4 1400   3.019   4.169   0.370  1.1203  0.0577 -0.4770
    1SOL     OW 1401   1.602   3.087   0.818 -0.2944 -0.2128  0.2383
    1SOL    HW2 1402   1.611   3.078   0.913  0.4246 -0.2812  0.1704
    1SOL    HW3 1403   1.537   3.156   0.806 -0.4492 -0.2621  0.7774
    1SOL    MW4 1404   1.595   3.095   0.829 -0.2199 -0.2284  0.3005
    1SOL     OW 1405   4.053   4.002   0.444 -0.2881 -0.1543 -0.3159
    1SOL    HW2 1406   4.123   4.063   0.421 -0.1865  0.2256  0.9689
    1SOL    HW3 1407   3.974   4.040   0.404 -0.2652  0.9445  0.6548
    1SOL    MW4 1408   4.052   4.015   0.436 -0.2723  0.0410 -0.0183
    1SOL     OW 1409   1.418   3.210   0.500  0.0668  0.3360  0.0195
    1SOL    HW2 1410   1.447   3.122   0.475 -0.0783  0.2735  0.0633
    1SOL    HW3 1411   1.455   3.268   0.434  0.1614  0.2403 -0.0118
    1SOL    MW4 1412   1.426   3.206   0.488  0.0603  0.3150  0.0212
    1SOL     OW 1413   2.454   1.548   0.827  0.3119 -0.5474 -0.0738
    1SOL    HW2 1414   2.466   1.458   0.797  1.0332 -0.6542  0.5223
    1SOL    HW3 1415   2.539   1.590   0.811 -0.2001  0.1874 -0.8946
    1SOL    MW4 1416   2.467   1.542   0.821  0.3395 -0.4646 -0.1035
    1SOL     OW 1417   4.002   3.999   0.720  0.0887  0.0782  0.3144
    1SOL    HW2 1418   4.018   3.997   0.626 -0.5653  1.1140  0.1684
    1SOL    HW3 1419   4.034   4.086   0.747  1.2229 -0.6104  1.2169
    1SOL    MW4 1420   4.008   4.010   0.712  0.1521  0.1240  0.4143
    1SOL     OW 1421   1.639   2.535   0.382 -0.6192 -0.0454 -0.0705
    1SOL    HW2 1422   1.566   2.487   0.420 -0.6352  0.0833  0.0632
    1SOL    HW3 1423   1.654   2.493   0.297 -1.2048  0.2784 -0.3356
    1SOL    MW4 1424   1.632   2.523   0.375 -0.6987  0.0145 -0.0878
    1SOL     OW 1425   3.938   1.719   0.461 -0.1006  0.7633 -0.3052
    1SOL    HW2 1426   4.007   1.672   0.415 -0.8440  0.2072 -0.8743
    1SOL    HW3 1427   3.948   1.693   0.552 -0.1428 -0.0525 -0.5275
    1SOL    MW4 1428   3.948   1.709   0.467 -0.2038  0.5822 -0.4096
    1SOL     OW 1429   1.668   2.044   0.511 -0.1437  0.1620  0.6352
    1SOL    HW2 1430   1.727   2.091   0.453 -0.1189 -0.1541  0.4024
    1SOL    HW3 1431   1.642   1.967   0.461  0.1706 -0.2988  1.1798
    1SOL    MW4 1432   1.672   2.040   0.497 -0.0989  0.0594  0.6763
    1SOL     OW 1433   3.615   1.127   0.811  0.5033 -0.3693 -0.0796
    1SOL    HW2 1434   3.590   1.038   0.786  1.7383 -0.7655  0.0716
    1SOL    HW3 1435   3.639   1.120   0.904  0.1858  0.2161  0.0503
    1SOL    MW4 1436   3.615   1.114   0.820  0.6244 -0.3443 -0.0426
    1SOL     OW 1437   1.106   4.109   0.357 -0.1688 -0.1616 -0.1301
    1SOL    HW2 1438   1.164   4.129   0.284  0.7471  2.1782  1.1680
    1SOL    HW3 1439   1.160   4.057   0.417  0.0480  0.4849  0.2457
    1SOL    MW4 1440   1.121   4.105   0.355 -0.0192  0.2327  0.0907
    1SOL     OW 1441   1.089   2.087   0.738  0.1657  0.4124  0.1774
    1SOL    HW2 1442   1.020   2.029   0.770 -0.1162  0.6706  0.0401
    1SOL    HW3 1443   1.167   2.060   0.787 -0.1565  0.4963  0.7496
    1SOL    MW4 1444   1.090   2.076   0.749  0.0861  0.4575  0.2348
    1SOL     OW 1445   2.779   0.499   0.316 -0.1000  0.5038  0.1785
    1SOL    HW2 1446   2.720   0.570   0.289 -0.2723  0.3835  0.2338
    1SOL    HW3 1447   2.798   0.452   0.236 -1.8745 -0.8021  0.4885
    1SOL    MW4 1448   2.773   0.502   0.302 -0.3567  0.3157  0.2267
    1SOL     OW 1449   2.890   2.831   0.500 -0.1401 -0.3099 -0.0442
    1SOL    HW2 1450   2.832   2.885   0.447  0.1298  0.1838  0.1630
    1SOL    HW3 1451   2.912   2.756   0.444  0.1493  0.2166 -0.6326
    1SOL    MW4 1452   2.886   2.828   0.486 -0.0663 -0.1755 -0.0945
    1SOL     OW 1453   1.778   3.529   0.809 -0.0242  0.0108 -0.0403
    1SOL    HW2 1454   1.755   3.534   0.902 -1.8674  0.2477 -0.4875
    1SOL    HW3 1455   1.792   3.436   0.793 -0.9893 -0.1745  0.1843
    1SOL    MW4 1456   1.777   3.517   0.819 -0.3947  0.0176 -0.0696
    1SOL     OW 1457   4.473   2.992   0.375  0.1625 -0.0450 -0.7728
    1SOL    HW2 1458   4.518   2.955   0.451 -1.6598 -0.8203 -0.0257
    1SOL    HW3 1459   4.383   2.958   0.382 -0.3671  0.9161 -2.5657
    1SOL    MW4 1460   4.467   2.982   0.386 -0.1478 -0.0205 -0.9108
    1SOL     OW 1461   1.848   1.578   0.185 -0.0182  0.0817  0.7735
    1SOL    HW2 1462   1.923   1.638   0.181  0.3219 -0.4294 -1.5057
    1SOL    HW3 1463   1.775   1.629   0.151 -0.0823 -0.2835  0.3566
    1SOL    MW4 1464   1.848   1.593   0.180  0.0182 -0.0340  0.4178
    1SOL     OW 1465   0.880   0.392   0.814  0.2351  0.0237  0.0648
    1SOL    HW2 1466   0.896   0.302   0.783 -0.4586 -0.1448  0.1910
    1SOL    HW3 1467   0.869   0.383   0.909  0.0127  0.2236  0.0574
    1SOL    MW4 1468   0.881   0.379   0.822  0.1142  0.0278  0.0805
    1SOL     OW 1469   0.019   4.020   0.499  0.0510  0.2649  0.1834
    1SOL    HW2 1470   0.010   4.033   0.593 -0.0895  2.5966 -0.1209
    1SOL    HW3 1471   0.027   3.925   0.488  2.9381  0.1274  2.7813
    1SOL    MW4 1472   0.019   4.009   0.510  0.4134  0.5546  0.4861
    1SOL     OW 1473   1.961   0.351   0.290  0.1430 -0.0772  0.2982
    1SOL    HW2 1474   1.919   0.361   0.204 -0.1182 -0.7821  0.3454
    1SOL    HW3 1475   1.920   0.418   0.345 -0.9100 -0.7446  0.3406
    1SOL    MW4 1476   1.950   0.361   0.286 -0.0305 -0.2583  0.3101
    1SOL     OW 1477   4.093   0.669   0.547 -0.2510 -0.0684  0.3140
    1SOL    HW2 1478   4.095   0.710   0.460  2.6232 -0.0007  0.3539
    1SOL    HW3 1479   4.070   0.740   0.606  0.9820  0.6565 -0.0494
    1SOL    MW4 1480   4.090   0.684   0.543  0.2913  0.0361  0.2714
    1SOL     OW 1481   2.231   0.389   1.114  0.1920  0.0625  0.2430
    1SOL    HW2 1482   2.226   0.396   1.018  2.2952 -0.1787  0.0911
    1SOL    HW3 1483   2.146   0.422   1.145 -0.3143  0.6256 -1.6746
    1SOL    MW4 1484   2.219   0.394   1.105  0.4027  0.1050 -0.0302
    1SOL     OW 1485   4.371   0.587   0.664  0.5594 -0.1178  0.1064
    1SOL    HW2 1486   4.298   0.619   0.612  0.7423 -0.0439 -0.1080
    1SOL    HW3 1487   4.449   0.623   0.620  0.6873  0.3614  0.7250
    1SOL    MW4 1488   4.372   0.596   0.651  0.5999 -0.0448  0.1597
    1SOL     OW 1489   2.619   0.720   0.279  0.3521 -0.0736 -0.0323
    1SOL    HW2 1490   2.663   0.761   0.354 -1.7903  0.9197  0.7239
    1SOL    HW3 1491   2.603   0.793   0.218  3.1484 -1.0557 -2.0665
    1SOL    MW4 1492   2.623   0.735   0.281  0.4385 -0.0721 -0.2009
    1SOL     OW 1493   2.806   1.497   0.403 -0.3643  0.3574  0.2108
    1SOL    HW2 1494   2.727   1.493   0.350 -0.5116 -0.2868  0.4768
    1SOL    HW3 1495   2.843   1.408   0.399  0.5298  0.7419 -0.2015
    1SOL    MW4 1496   2.801   1.485   0.396 -0.2658  0.3232  0.1915
    1SOL     OW 1497   2.465   1.290   0.746 -0.0604 -0.3242 -0.4719
    1SOL    HW2 1498   2.457   1.275   0.652 -1.0417 -0.6311 -0.3449
    1SOL    HW3 1499   2.389   1.244   0.784 -0.5638  1.1309  0.3151
    1SOL    MW4 1500   2.454   1.282   0.739 -0.2565 -0.1729 -0.3513
    1SOL     OW 1501   2.244   1.147   0.832  0.1481 -0.3314 -0.2598
    1SOL    HW2 1502   2.225   1.056   0.812  1.1371 -0.5968 -0.0274
    1SOL    HW3 1503   2.236   1.152   0.927  0.1730 -0.1938 -0.2654
    1SOL    MW4 1504   2.241   1.136   0.842  0.2816 -0.3481 -0.2298
    1SOL     OW 1505   1.555   1.547   0.861  0.2103 -0.2929  0.0753
    1SOL    HW2 1506   1.561   1.542   0.956 -0.7218  0.9007  0.2169
    1SOL    HW3 1507   1.557   1.456   0.832  0.1442 -0.6811  1.2647
    1SOL    MW4 1508   1.556   1.534   0.870  0.0784 -0.1866  0.2509
    1SOL     OW 1509   3.164   0.919   0.693  0.5322  0.2379 -0.0824
    1SOL    HW2 1510   3.232   0.890   0.754 -1.3977 -2.2737  0.9516
    1SOL    HW3 1511   3.145   1.010   0.719  3.3528  0.9450 -0.3241
    1SOL    MW4 1512   3.171   0.927   0.705  0.6497 -0.0001  0.0222
    1SOL     OW 1513   1.383   0.585   0.450 -0.4230 -0.2060 -0.4900
    1SOL    HW2 1514   1.465   0.535   0.452 -1.3920 -1.8312 -0.8288
    1SOL    HW3 1515   1.318   0.524   0.416 -2.1013  0.6071  1.1894
    1SOL    MW4 1516   1.385   0.570   0.446 -0.7722 -0.3131 -0.3131
    1SOL     OW 1517   2.203   1.885   0.853  0.2467  0.1701  0.0595
    1SOL    HW2 1518   2.152   1.960   0.822 -0.6695 -1.3804 -2.2978
    1SOL    HW3 1519   2.294   1.910   0.839  0.0391  1.7582  1.4606
    1SOL    MW4 1520   2.208   1.898   0.847  0.0985  0.1751 -0.0667
    1SOL     OW 1521   2.143   3.699   0.484 -0.0240 -0.0848  0.2901
    1SOL    HW2 1522   2.106   3.677   0.570  0.8590  2.1945  1.2854
    1SOL    HW3 1523   2.214   3.636   0.473 -0.6484 -0.9079  0.8727
    1SOL    MW4 1524   2.148   3.688   0.494  0.0103  0.1075  0.4983
    1SOL     OW 1525   3.327   2.869   0.406 -0.1305 -0.6532 -0.2361
    1SOL    HW2 1526   3.334   2.887   0.500  0.3710  0.3745 -0.4676
    1SOL    HW3 1527   3.298   2.778   0.402 -0.4172 -0.6247  0.9198
    1SOL    MW4 1528   3.324   2.859   0.418 -0.1023 -0.5140 -0.1141
    1SOL     OW 1529   2.280   2.406   0.770 -0.2628 -0.1956  0.0553
    1SOL    HW2 1530   2.193   2.369   0.761  0.0624 -1.1446  0.7673
    1SOL    HW3 1531   2.266   2.493   0.807 -0.8991 -0.3915  0.2790
    1SOL    MW4 1532   2.267   2.413   0.773 -0.3037 -0.3464  0.1787
    1SOL     OW 1533   2.269   2.680   0.847  0.5979 -0.1894  0.4560
    1SOL    HW2 1534   2.298   2.681   0.938  0.6992  4.2994  0.4661
    1SOL    HW3 1535   2.339   2.724   0.798 -1.3703  1.3306 -1.0861
    1SOL    MW4 1536   2.282   2.686   0.853  0.3514  0.6034  0.2539
    1SOL     OW 1537   1.762   3.902   0.362 -0.1278 -0.6894  0.1458
    1SOL    HW2 1538   1.820   3.950   0.421 -0.0421  2.3593 -2.2900
    1SOL    HW3 1539   1.820   3.852   0.306 -0.0001 -0.4074  0.0229
    1SOL    MW4 1540   1.777   3.902   0.363 -0.0997 -0.2499 -0.1918
    1SOL     OW 1541   1.829   4.273   0.882 -0.1354 -0.0513 -0.1733
    1SOL    HW2 1542   1.847   4.264   0.975 -1.0378 -0.6606 -0.0469
    1SOL    HW3 1543   1.833   4.184   0.848  0.6412  0.2166 -0.8120
    1SOL    MW4 1544   1.832   4.260   0.890 -0.1520 -0.0968 -0.2409
    1SOL     OW 1545   2.216   3.279   0.485  0.1078 -1.0358 -0.0449
    1SOL    HW2 1546   2.221   3.198   0.435 -1.4758 -1.5393  0.6041
    1SOL    HW3 1547   2.247   3.255   0.572 -0.1046 -0.8831  0.0724
    1SOL    MW4 1548   2.221   3.265   0.490 -0.1292 -1.0822  0.0562
    1SOL     OW 1549   2.977   2.618   0.326 -0.4149 -0.4358 -0.1312
    1SOL    HW2 1550   2.928   2.537   0.341 -0.3919 -0.8343 -2.0699
    1SOL    HW3 1551   3.068   2.593   0.341 -0.4054 -0.7716 -0.7494
    1SOL    MW4 1552   2.983   2.604   0.330 -0.4106 -0.5326 -0.4686
    1SOL     OW 1553   1.573   3.707   0.453  0.1545  0.2802  0.4605
    1SOL    HW2 1554   1.594   3.795   0.422 -0.7604 -0.4002 -2.1968
    1SOL    HW3 1555   1.654   3.657   0.441  0.3978  0.5058  1.1111
    1SOL    MW4 1556   1.587   3.712   0.448  0.0659  0.2201  0.1958
    1SOL     OW 1557   1.820   4.014   0.763  0.1755  0.0660 -0.6431
    1SOL    HW2 1558   1.890   3.970   0.812 -0.6272 -0.3047  0.1845
    1SOL    HW3 1559   1.743   3.958   0.775 -0.2259  0.3735 -1.7052
    1SOL    MW4 1560   1.819   4.001   0.771  0.0167  0.0577 -0.6741
    1SOL     OW 1561   3.094   3.995   0.670 -0.4960  0.0806  0.0647
    1SOL    HW2 1562   3.014   3.955   0.704 -1.1854  0.6939 -0.8174
    1SOL    HW3 1563   3.165   3.945   0.711 -1.3349 -0.9080  0.3337
    1SOL    MW4 1564   3.093   3.983   0.680 -0.6974  0.0312 -0.0162
    1SOL     OW 1565   2.403   2.310   0.526 -0.1846  0.1298  0.0144
    1SOL    HW2 1566   2.365   2.316   0.614 -1.0473 -0.3973 -0.3138
    1SOL    HW3 1567   2.424   2.217   0.516  0.3382  0.2678 -0.1623
    1SOL    MW4 1568   2.400   2.299   0.536 -0.2294  0.0784 -0.0522
    1SOL     OW 1569   2.232   1.259   0.296 -0.1481 -0.1170 -0.1187
    1SOL    HW2 1570   2.162   1.245   0.360  0.2754 -0.4437  0.2829
    1SOL    HW3 1571   2.247   1.173   0.257 -0.2712  0.0430 -0.5187
    1SOL    MW4 1572   2.225   1.246   0.299 -0.1085 -0.1391 -0.1185
    1SOL     OW 1573   2.944   0.784   0.824  0.2372  0.2447 -0.1316
    1SOL    HW2 1574   2.953   0.779   0.919 -0.1780  0.2642 -0.0906
    1SOL    HW3 1575   3.028   0.821   0.795  0.8779 -0.9914  0.1015
    1SOL    MW4 1576   2.957   0.788   0.833  0.2670  0.0842 -0.0954
    1SOL     OW 1577   3.079   3.446   0.335 -0.1352  0.1528 -0.5019
    1SOL    HW2 1578   3.123   3.474   0.254  1.5182  0.8588  0.6237
    1SOL    HW3 1579   3.000   3.499   0.338  0.3928  1.0021 -1.0594
    1SOL    MW4 1580   3.075   3.457   0.324  0.1528  0.3581 -0.4270
    1SOL     OW 1581   2.437   0.749   0.813 -0.2710 -0.8761 -0.2904
    1SOL    HW2 1582   2.513   0.804   0.794 -1.2817  0.8826  0.6932
    1SOL    HW3 1583   2.468   0.660   0.797  1.7133 -0.1168 -0.8322
    1SOL    MW4 1584   2.451   0.744   0.808 -0.1426 -0.5438 -0.2321
    1SOL     OW 1585   1.331   1.682   0.137  0.1462 -0.1139 -0.3528
    1SOL    HW2 1586   1.285   1.677   0.053 -0.0422 -0.6765 -0.2247
    1SOL    HW3 1587   1.333   1.591   0.168 -0.7347  0.2232  0.7510
    1SOL    MW4 1588   1.325   1.669   0.130  0.0052 -0.1438 -0.1903
    1SOL     OW 1589   3.141   0.200   0.517 -0.2570  0.0874 -0.1186
    1SOL    HW2 1590   3.114   0.155   0.597 -1.4722  0.4820 -0.3020
    1SOL    HW3 1591   3.069   0.260   0.497  0.1485  0.1766 -1.3710
    1SOL    MW4 1592   3.128   0.202   0.525 -0.3638  0.1512 -0.3081
    1SOL     OW 1593   0.939   2.720   0.400  0.1753  0.1617 -0.1190
    1SOL    HW2 1594   1.024   2.764   0.401  0.1441  0.2816 -1.5175
    1SOL    HW3 1595   0.876   2.789   0.421  0.2692  0.4507 -0.7806
    1SOL    MW4 1596   0.942   2.735   0.403  0.1836  0.2158 -0.3908
    1SOL     OW 1597   3.242   2.604   0.411 -0.3558  0.4344 -0.1547
    1SOL    HW2 1598   3.232   2.542   0.483 -0.2673  0.6065  0.0094
    1SOL    HW3 1599   3.328   2.585   0.374  0.4069  1.5690  0.9813
    1SOL    MW4 1600   3.252   2.593   0.416 -0.2434  0.6068  0.0168
    1SOL     OW 1601   2.702   1.661   0.786  0.4709  0.0415 -0.3060
    1SOL    HW2 1602   2.668   1.669   0.697 -2.8424 -0.9056  0.8302
    1SOL    HW3 1603   2.703   1.751   0.819  1.6721  0.3932 -1.2416
    1SOL    MW4 1604   2.698   1.674   0.779  0.1922 -0.0371 -0.2796
    1SOL     OW 1605   3.157   1.687   0.729 -0.0695 -0.1866  0.1368
    1SOL    HW2 1606   3.128   1.678   0.638  0.3585  0.1108 -0.0271
    1SOL    HW3 1607   3.164   1.781   0.743 -0.0272 -0.2345  0.4462
    1SOL    MW4 1608   3.154   1.698   0.719 -0.0074 -0.1538  0.1560
    1SOL     OW 1609   0.143   0.287   0.461 -0.1577  0.1583 -0.3201
    1SOL    HW2 1610   0.051   0.260   0.467  0.2643 -1.8159 -1.9704
    1SOL    HW3 1611   0.166   0.316   0.549 -1.4996 -2.2820  0.8771
    1SOL    MW4 1612   0.134   0.287   0.473 -0.2790 -0.4241 -0.3799
    1SOL     OW 1613   1.888   2.551   0.493  0.1745  0.1046 -0.2402
    1SOL    HW2 1614   1.876   2.535   0.587  0.4094  0.2409 -0.1859
    1SOL    HW3 1615   1.799   2.551   0.457  0.0637  0.3383  0.0302
    1SOL    MW4 1616   1.874   2.549   0.501  0.1909  0.1533 -0.1974
    1SOL     OW 1617   2.679   1.167   0.856  0.4375  0.2276  0.4627
    1SOL    HW2 1618   2.752   1.215   0.817 -0.3461 -0.3821 -1.8820
    1SOL    HW3 1619   2.601   1.211   0.822 -0.2757 -1.4415 -0.1199
    1SOL    MW4 1620   2.679   1.179   0.846  0.2398 -0.0732  0.0765
    1SOL     OW 1621   2.929   2.336   0.658  0.2007 -0.2779 -0.0543
    1SOL    HW2 1622   2.873   2.370   0.728 -2.3954 -0.9665 -1.7175
    1SOL    HW3 1623   2.936   2.242   0.676  0.3233 -0.2949 -0.1894
    1SOL    MW4 1624   2.923   2.328   0.670 -0.1256 -0.3712 -0.2915
    1SOL     OW 1625   2.763   2.394   0.862  0.3158 -0.2465  0.1756
    1SOL    HW2 1626   2.791   2.374   0.951  0.2369 -0.0348  0.2478
    1SOL    HW3 1627   2.730   2.484   0.866  0.0141 -0.3466  0.0045
    1SOL    MW4 1628   2.762   2.403   0.874  0.2656 -0.2315  0.1625
    1SOL     OW 1629   2.720   2.663   0.889 -0.2285 -0.3014 -0.7918
    1SOL    HW2 1630   2.792   2.708   0.846  0.3498 -0.8974 -0.4445
    1SOL    HW3 1631   2.734   2.679   0.983 -0.4609 -0.5576 -0.7143
    1SOL    MW4 1632   2.731   2.671   0.896 -0.1826 -0.4139 -0.7358
    1SOL     OW 1633   1.149   1.298   0.736 -0.4171 -0.1445 -0.1134
    1SOL    HW2 1634   1.057   1.283   0.761 -0.7008  0.7226 -0.6358
    1SOL    HW3 1635   1.153   1.272   0.644 -0.4798  1.1954 -0.5050
    1SOL    MW4 1636   1.137   1.292   0.727 -0.4629  0.1466 -0.2339
    1SOL     OW 1637   1.557   1.347   0.505 -0.1191 -0.0241  0.3941
    1SOL    HW2 1638   1.637   1.388   0.472 -0.3282  1.1479  1.3028
    1SOL    HW3 1639   1.566   1.255   0.482  1.4203  0.1274  0.3431
    1SOL    MW4 1640   1.569   1.341   0.498  0.0564  0.1507  0.5073
    1SOL     OW 1641   2.492   3.068   0.845  0.1406  0.1302  0.0972
    1SOL    HW2 1642   2.570   3.118   0.820  0.1933  0.0180  0.0362
    1SOL    HW3 1643   2.500   3.058   0.940  0.2942 -0.0398  0.0663
    1SOL    MW4 1644   2.503   3.074   0.854  0.1676  0.0932  0.0850
    1SOL     OW 1645   2.651   3.472   0.880  0.2940 -0.5447  0.2568
    1SOL    HW2 1646   2.736   3.507   0.856  0.8511 -0.6566  2.0072
    1SOL    HW3 1647   2.660   3.445   0.971 -2.2718  1.6682  1.2571
    1SOL    MW4 1648   2.663   3.473   0.889  0.0291 -0.2673  0.6197
    1SOL     OW 1649   2.885   3.571   0.772 -0.7665 -0.1889 -0.0418
    1SOL    HW2 1650   2.976   3.547   0.789 -0.2994  0.4276 -1.6577
    1SOL    HW3 1651   2.883   3.666   0.777 -1.1424 -0.1462 -0.8659
    1SOL    MW4 1652   2.897   3.580   0.775 -0.7544 -0.1020 -0.3638
    1SOL     OW 1653   2.516   2.771   0.453  0.0406  0.2089 -0.0336
    1SOL    HW2 1654   2.510   2.779   0.548 -0.6350 -1.9264  0.1488
    1SOL    HW3 1655   2.534   2.678   0.438  0.4285  0.5686 -1.9865
    1SOL    MW4 1656   2.517   2.759   0.464  0.0026 -0.0253 -0.2672
    1SOL     OW 1657   0.670   4.354   0.521 -0.0897  0.3333 -0.0912
    1SOL    HW2 1658   0.730   4.285   0.491 -0.2420  0.1419  0.0463
    1SOL    HW3 1659   0.670   4.346   0.617  0.0721  0.6748 -0.0587
    1SOL    MW4 1660   0.678   4.344   0.530 -0.0884  0.3529 -0.0688
    1SOL     OW 1661   2.661   4.030   0.712  0.0707 -0.0482 -0.1586
    1SOL    HW2 1662   2.682   4.112   0.757 -0.6137 -0.1263  0.3191
    1SOL    HW3 1663   2.596   3.988   0.769 -0.4522 -0.3742 -0.9902
    1SOL    MW4 1664   2.655   4.035   0.726 -0.0885 -0.1020 -0.2053
    1SOL     OW 1665   2.900   1.292   0.728  0.0768 -0.3095 -0.5431
    1SOL    HW2 1666   2.903   1.381   0.764 -1.6905  0.0451 -1.1947
    1SOL    HW3 1667   2.972   1.246   0.770  1.3873  1.6025 -0.6422
    1SOL    MW4 1668   2.910   1.298   0.738  0.0165 -0.0104 -0.6421
    1SOL     OW 1669   1.987   0.504   0.720 -0.0517 -0.3115 -0.2572
    1SOL    HW2 1670   1.913   0.459   0.761 -0.8064  1.0474 -0.1127
    1SOL    HW3 1671   1.982   0.593   0.753 -0.3261  0.6599 -2.8487
    1SOL    MW4 1672   1.977   0.510   0.730 -0.1875 -0.0040 -0.5800
    1SOL     OW 1673   2.394   0.582   0.388 -0.0523 -0.0387  0.7390
    1SOL    HW2 1674   2.442   0.511   0.430 -0.5668 -1.3031 -0.7770
    1SOL    HW3 1675   2.461   0.631   0.340 -0.1107 -1.3183 -0.7015
    1SOL    MW4 1676   2.409   0.579   0.387 -0.1280 -0.3743  0.3489
    1SOL     OW 1677   1.164   2.029   0.444  0.1109 -0.0411  0.0626
    1SOL    HW2 1678   1.254   2.061   0.437  0.4574 -0.7416  1.2199
    1SOL    HW3 1679   1.137   2.054   0.532 -0.8992  0.3289 -0.3507
    1SOL    MW4 1680   1.173   2.037   0.455  0.0234 -0.0846  0.1608
    1SOL     OW 1681   3.130   0.355   0.887 -0.2909 -0.4749 -0.2383
    1SOL    HW2 1682   3.152   0.354   0.980 -0.6285 -0.8997 -0.1617
    1SOL    HW3 1683   3.197   0.409   0.847  0.9103 -1.7631 -0.0035
    1SOL    MW4 1684   3.142   0.362   0.894 -0.1767 -0.7009 -0.1972
    1SOL     OW 1685   2.447   2.053   0.512 -0.1147  0.5242  0.3209
    1SOL    HW2 1686   2.528   2.006   0.491 -0.1268  0.9072 -0.6052
    1SOL    HW3 1687   2.385   2.022   0.446 -0.9089 -0.2451  1.4158
    1SOL    MW4 1688   2.450   2.043   0.500 -0.2213  0.4733  0.3431
    1SOL     OW 1689   2.505   0.460   0.745  0.0394 -0.0530  0.1341
    1SOL    HW2 1690   2.424   0.416   0.773  0.6096 -0.6394  0.8830
    1SOL    HW3 1691   2.574   0.419   0.797  0.8083  0.5415 -0.4015
    1SOL    MW4 1692   2.503   0.449   0.755  0.2160 -0.0519  0.1623
    1SOL     OW 1693   3.813   4.367   0.739  0.3431  0.1766 -0.3642
    1SOL    HW2 1694   3.728   4.323   0.746  0.1574  0.4006 -1.1811
    1SOL    HW3 1695   3.829   4.375   0.645  2.1154 -1.4608 -0.2400
    1SOL    MW4 1696   3.804   4.362   0.727  0.5527 -0.0100 -0.4556
    1SOL     OW 1697   3.361   1.557   0.847  0.1465 -0.1160 -0.2825
    1SOL    HW2 1698   3.284   1.605   0.817  1.5825  2.2411 -0.2978
    1SOL    HW3 1699   3.359   1.566   0.943 -0.5599 -1.5772 -0.1523
    1SOL    MW4 1700   3.351   1.565   0.856  0.2425  0.0023 -0.2674
    1SOL     OW 1701   2.195   0.888   0.734 -0.1088  0.4255  0.1777
    1SOL    HW2 1702   2.194   0.880   0.639 -0.7868 -1.2564  0.3100
    1SOL    HW3 1703   2.269   0.834   0.762 -0.2518  0.4656  0.6411
    1SOL    MW4 1704   2.204   0.880   0.725 -0.2170  0.2089  0.2563
    1SOL     OW 1705   3.616   0.849   0.750  0.0780 -0.0601  0.2327
    1SOL    HW2 1706   3.605   0.823   0.658 -0.6532  0.2595  0.2294
    1SOL    HW3 1707   3.700   0.811   0.775 -0.5725 -1.7249 -0.0342
    1SOL    MW4 1708   3.626   0.840   0.741 -0.1044 -0.2376  0.1971
    1SOL     OW 1709   3.515   2.570   0.266 -0.0332 -0.1328 -0.0781
    1SOL    HW2 1710   3.562   2.652   0.252  2.4057 -1.7388 -1.6258
    1SOL    HW3 1711   3.581   2.509   0.300 -1.3408 -2.0201 -0.8036
    1SOL    MW4 1712   3.530   2.573   0.269  0.1159 -0.5934 -0.3780
    1SOL     OW 1713   1.567   3.915   0.835  0.4519 -0.1301 -0.6867
    1SOL    HW2 1714   1.487   3.965   0.820  0.5627  0.3624  0.3363
    1SOL    HW3 1715   1.544   3.825   0.810 -0.6393 -0.1333  0.3002
    1SOL    MW4 1716   1.554   3.910   0.830  0.3225 -0.0653 -0.4216
    1SOL     OW 1717   3.533   0.820   0.469  0.3287 -0.0934  0.3659
    1SOL    HW2 1718   3.503   0.736   0.504 -0.4823 -0.2411 -0.6531
    1SOL    HW3 1719   3.453   0.870   0.454  0.7595  0.5460  0.1668
    1SOL    MW4 1720   3.519   0.816   0.471  0.2785 -0.0286  0.2052
    1SOL     OW 1721   3.620   2.863   0.302 -0.1038 -0.2428 -0.0022
    1SOL    HW2 1722   3.532   2.870   0.338  0.3098 -1.3811  1.2938
    1SOL    HW3 1723   3.660   2.948   0.320 -0.0024 -0.6940  2.0466
    1SOL    MW4 1724   3.614   2.875   0.309 -0.0358 -0.4525  0.4391
    1SOL     OW 1725   2.909   2.820   0.782 -0.5403 -0.2857  0.2197
    1SOL    HW2 1726   2.997   2.791   0.805  0.3714  1.7431 -0.6267
    1SOL    HW3 1727   2.908   2.822   0.686 -0.3651  2.9518  0.2365
    1SOL    MW4 1728   2.920   2.816   0.772 -0.3970  0.4094  0.1102
    1SOL     OW 1729   1.802   1.689   0.793  0.3056  0.0412 -0.1793
    1SOL    HW2 1730   1.725   1.632   0.797  0.1403  0.1778 -1.2506
    1SOL    HW3 1731   1.876   1.630   0.807  0.3802 -1.0708 -4.5701
    1SOL    MW4 1732   1.801   1.674   0.796  0.2936 -0.0875 -0.8999
    1SOL     OW 1733   1.154   3.177   0.361 -0.3413  0.3160 -0.0757
    1SOL    HW2 1734   1.144   3.245   0.294 -0.3248 -0.7177 -1.1407
    1SOL    HW3 1735   1.230   3.205   0.413  0.7118  0.2379 -1.5529
    1SOL    MW4 1736   1.163   3.190   0.359 -0.2002  0.1695 -0.4111
    1SOL     OW 1737   3.123   3.202   0.753  0.1550  0.0615  0.0944
    1SOL    HW2 1738   3.054   3.156   0.801 -0.1120 -0.4083 -0.7316
    1SOL    HW3 1739   3.085   3.217   0.666  1.1137 -0.2479 -0.3798
    1SOL    MW4 1740   3.109   3.198   0.748  0.2465 -0.0415 -0.0771
    1SOL     OW 1741   3.147   3.462   0.860 -0.2917  0.0169  0.1732
    1SOL    HW2 1742   3.140   3.367   0.849 -5.1104  0.2971 -0.3056
    1SOL    HW3 1743   3.166   3.474   0.953  3.4510 -1.4091 -0.3240
    1SOL    MW4 1744   3.149   3.451   0.871 -0.4334 -0.1342  0.0445
    1SOL     OW 1745   3.333   3.510   0.460 -0.5794  0.2875 -0.3731
    1SOL    HW2 1746   3.337   3.544   0.550  0.0788  0.2196 -0.3785
    1SOL    HW3 1747   3.247   3.468   0.454 -1.6120  2.3603 -0.5027
    1SOL    MW4 1748   3.322   3.509   0.471 -0.6285  0.5522 -0.3909
    1SOL     OW 1749   3.537   3.968   0.697  0.6836  0.7921  0.0160
    1SOL    HW2 1750   3.460   3.920   0.729  0.6335 -0.4133 -1.8172
    1SOL    HW3 1751   3.610   3.932   0.748  0.3316  0.3492  0.2110
    1SOL    MW4 1752   3.536   3.957   0.708  0.6304  0.5746 -0.2001
    1SOL     OW 1753   3.966   0.421   0.624  0.4103 -0.0481 -0.2896
    1SOL    HW2 1754   4.006   0.502   0.593  0.2324  0.3498  0.5081
    1SOL    HW3 1755   3.994   0.354   0.560  1.5219  0.4087 -0.2958
    1SOL    MW4 1756   3.975   0.423   0.611  0.5336  0.0646 -0.1852
    1SOL     OW 1757   3.128   4.234   0.818  0.5089  0.1643  0.1372
    1SOL    HW2 1758   3.048   4.286   0.815  0.0369 -0.4049  2.3222
    1SOL    HW3 1759   3.107   4.155   0.769 -0.7908 -0.6486  1.9566
    1SOL    MW4 1760   3.115   4.230   0.811  0.2754 -0.0181  0.6655
    1SOL     OW 1761   3.024   1.024   0.416 -0.1022 -0.2917 -0.0252
    1SOL    HW2 1762   3.117   1.046   0.415  0.1616 -1.2789  0.8528
    1SOL    HW3 1763   3.022   0.928   0.411 -1.0698 -0.2810 -0.0502
    1SOL    MW4 1764   3.036   1.014   0.415 -0.1950 -0.4205  0.0874
    1SOL     OW 1765   2.005   1.529   0.823  0.1229  0.2206  0.1217
    1SOL    HW2 1766   2.002   1.442   0.783 -0.6645  0.6221 -0.7142
    1SOL    HW3 1767   2.088   1.567   0.791 -0.1858  0.2885 -0.6099
    1SOL    MW4 1768   2.016   1.523   0.813 -0.0215  0.2825 -0.0852
    1SOL     OW 1769   3.103   0.099   0.764 -0.2406  0.0226  0.0161
    1SOL    HW2 1770   3.111   0.185   0.806 -0.5097 -0.5881  1.3513
    1SOL    HW3 1771   3.184   0.053   0.785 -0.6686 -0.5408  0.4700
    1SOL    MW4 1772   3.115   0.104   0.772 -0.3326 -0.1323  0.2522
    1SOL     OW 1773   3.532   0.321   0.906  0.0884 -0.5151  0.0950
    1SOL    HW2 1774   3.585   0.391   0.868 -1.3796  0.0763 -0.9267
    1SOL    HW3 1775   3.542   0.331   1.000 -1.5428  2.2452  0.0254
    1SOL    MW4 1776   3.540   0.332   0.913 -0.3207 -0.0729 -0.0491
    1SOL     OW 1777   0.746   0.563   0.641 -0.2382  0.1562 -0.0112
    1SOL    HW2 1778   0.660   0.521   0.637  0.3620 -0.9600 -1.5569
    1SOL    HW3 1779   0.800   0.502   0.691  0.0265  0.1916 -0.2543
    1SOL    MW4 1780   0.742   0.550   0.647 -0.1240  0.0135 -0.2472
    1SOL     OW 1781   3.833   0.716   0.837 -0.2168 -0.0380  0.2896
    1SOL    HW2 1782   3.830   0.730   0.931  0.1950  1.4273  0.0927
    1SOL    HW3 1783   3.922   0.741   0.811 -0.8242  1.1464 -0.7202
    1SOL    MW4 1784   3.845   0.721   0.846 -0.2425  0.3116  0.1304
    1SOL     OW 1785   1.579   1.816   0.401 -0.0849  0.3141  0.1242
    1SOL    HW2 1786   1.504   1.766   0.434  1.1389 -1.4922  0.2653
    1SOL    HW3 1787   1.655   1.777   0.445  1.0733  1.2223 -1.0232
    1SOL    MW4 1788   1.579   1.804   0.411  0.2294  0.1955 -0.0086
    1SOL     OW 1789   3.801   1.460   0.828 -0.3663  0.2197 -0.2828
    1SOL    HW2 1790   3.812   1.382   0.774 -0.5365  0.5464 -0.7957
    1SOL    HW3 1791   3.726   1.505   0.789  0.2256  1.0442 -0.4726
    1SOL    MW4 1792   3.792   1.455   0.816 -0.3107  0.3716 -0.3756
    1SOL     OW 1793   2.714   2.162   0.262  0.1390  0.3872  0.0264
    1SOL    HW2 1794   2.703   2.089   0.323  1.8220 -1.1939 -1.5504
    1SOL    HW3 1795   2.759   2.230   0.314  1.2129 -0.7917  0.6557
    1SOL    MW4 1796   2.718   2.162   0.277  0.5028  0.0229 -0.0986
    1SOL     OW 1797   4.243   2.846   0.695  0.2670  0.2260 -0.2539
    1SOL    HW2 1798   4.301   2.778   0.730 -0.4219  0.0069  0.4832
    1SOL    HW3 1799   4.265   2.924   0.745  1.0868  0.5588 -1.1299
    1SOL    MW4 1800   4.253   2.847   0.707  0.2847  0.2410 -0.2722
    1SOL     OW 1801   1.123   0.501   0.716 -0.2172  0.5259 -0.2094
    1SOL    HW2 1802   1.193   0.474   0.776 -0.1863  0.9663 -0.0470
    1SOL    HW3 1803   1.043   0.466   0.755 -0.3745  1.9957  0.8342
    1SOL    MW4 1804   1.122   0.493   0.729 -0.2339  0.7779 -0.0503
    1SOL     OW 1805   3.799   2.689   0.439 -0.3816  0.0783 -0.1666
    1SOL    HW2 1806   3.760   2.602   0.436 -0.3341  0.0655 -0.4113
    1SOL    HW3 1807   3.731   2.748   0.405 -0.5524  0.1872  0.3560
    1SOL    MW4 1808   3.785   2.686   0.434 -0.3977  0.0908 -0.1300
    1SOL     OW 1809   3.381   2.337   0.798  0.0622  0.4822  0.2326
    1SOL    HW2 1810   3.365   2.341   0.892 -1.2240  0.5699  0.0191
    1SOL    HW3 1811   3.383   2.244   0.778  0.8084  0.4535  0.4150
    1SOL    MW4 1812   3.379   2.325   0.808 -0.0091  0.4900  0.2285
    1SOL     OW 1813   3.788   2.337   1.065 -0.0009 -0.5398 -0.1392
    1SOL    HW2 1814   3.868   2.363   1.111 -0.4898 -0.0979  0.4598
    1SOL    HW3 1815   3.811   2.342   0.972  0.5270  0.0462  0.0223
    1SOL    MW4 1816   3.802   2.341   1.059  0.0043 -0.4044 -0.0390
    1SOL     OW 1817   1.855   2.144   0.332 -0.2313  0.2975 -0.1101
    1SOL    HW2 1818   1.889   2.230   0.308  0.0692  0.1883 -0.0792
    1SOL    HW3 1819   1.816   2.110   0.251 -0.4759  0.5221 -0.0853
    1SOL    MW4 1820   1.854   2.151   0.318 -0.2239  0.3128 -0.1028
    1SOL     OW 1821   3.569   2.703   0.822  0.4701 -0.0186 -0.0584
    1SOL    HW2 1822   3.582   2.713   0.916  1.8699 -0.5059 -0.1986
    1SOL    HW3 1823   3.642   2.749   0.781  0.3948 -0.6244 -0.9003
    1SOL    MW4 1824   3.580   2.710   0.829  0.6447 -0.1631 -0.1880
    1SOL     OW 1825   1.772   3.508   0.391 -0.0481 -0.3701 -0.4397
    1SOL    HW2 1826   1.815   3.433   0.432 -1.2200 -0.7800  0.0674
    1SOL    HW3 1827   1.840   3.550   0.339  0.6748 -1.6535 -0.5345
    1SOL    MW4 1828   1.786   3.504   0.390 -0.1073 -0.5934 -0.3853
    1SOL     OW 1829   3.845   3.100   0.809  0.2152 -0.0786  0.3408
    1SOL    HW2 1830   3.787   3.167   0.771 -0.4667 -0.5789  0.4957
    1SOL    HW3 1831   3.815   3.018   0.769 -1.1483 -0.7575  2.6703
    1SOL    MW4 1832   3.833   3.098   0.798 -0.0546 -0.2341  0.6686
    1SOL     OW 1833   0.001   2.431   0.406  0.2439 -0.0170  0.2216
    1SOL    HW2 1834  -0.092   2.451   0.413  0.2779 -0.4124  1.9533
    1SOL    HW3 1835   0.004   2.342   0.368 -0.1605 -1.0155  2.4766
    1SOL    MW4 1836  -0.011   2.422   0.402  0.1950 -0.2012  0.7476
    1SOL     OW 1837   3.631   3.241   0.679  0.1403 -0.3772 -0.5285
    1SOL    HW2 1838   3.622   3.300   0.604 -0.1693  0.8680  0.4776
    1SOL    HW3 1839   3.542   3.214   0.700  0.3029 -1.4419 -1.1579
    1SOL    MW4 1840   3.618   3.245   0.672  0.1206 -0.3533 -0.4787
    1SOL     OW 1841   3.581   3.878   0.433  0.1219  0.5840 -0.0008
    1SOL    HW2 1842   3.572   3.905   0.525 -1.2090 -0.9112  0.3294
    1SOL    HW3 1843   3.607   3.957   0.387  0.5074  1.4272  1.6193
    1SOL    MW4 1844   3.584   3.892   0.439 -0.0029  0.4978  0.2565
    1SOL     OW 1845   3.812   3.636   0.745  0.3386 -0.2260 -0.2169
    1SOL    HW2 1846   3.902   3.603   0.747  0.1990 -0.5756  1.1969
    1SOL    HW3 1847   3.792   3.646   0.652  1.1666 -2.0353 -0.6140
    1SOL    MW4 1848   3.822   3.633   0.733  0.4292 -0.5109 -0.0827
    1SOL     OW 1849   0.726   1.801   0.363 -0.1959 -0.3933 -0.0207
    1SOL    HW2 1850   0.767   1.716   0.379  1.7815  0.4733 -0.3789
    1SOL    HW3 1851   0.634   1.788   0.385  0.6257 -1.8478  2.7741
    1SOL    MW4 1852   0.719   1.788   0.368  0.1733 -0.4709  0.3008
    1SOL     OW 1853   2.231   3.479   0.878 -0.2424  0.0135  0.5579
    1SOL    HW2 1854   2.228   3.392   0.837 -2.3358  1.6446 -2.9753
    1SOL    HW3 1855   2.317   3.514   0.854 -0.2117 -0.2879  0.2249
    1SOL    MW4 1856   2.242   3.472   0.870 -0.5145  0.1886  0.0477
    1SOL     OW 1857   1.145   4.387   0.517 -0.3049 -0.1309  0.0216
    1SOL    HW2 1858   1.080   4.328   0.478 -0.7835  0.7527 -0.5191
    1SOL    HW3 1859   1.106   4.474   0.512  0.8256  0.3818 -0.0953
    1SOL    MW4 1860   1.131   4.390   0.511 -0.2190  0.0534 -0.0651
    1SOL     OW 1861   4.475   0.089   0.778  0.0587 -0.6354 -0.0522
    1SOL    HW2 1862   4.428   0.023   0.830 -0.3878  1.0789  1.8155
    1SOL    HW3 1863   4.428   0.170   0.796  1.9886  0.6009 -0.4899
    1SOL    MW4 1864   4.463   0.091   0.787  0.2537 -0.2461  0.1366
    1SOL     OW 1865   3.574   0.087   0.760 -0.4224  0.0229 -0.9060
    1SOL    HW2 1866   3.564   0.167   0.812 -2.8253 -1.0999  0.4750
    1SOL    HW3 1867   3.652   0.045   0.795 -0.9965  0.1803  0.6113
    1SOL    MW4 1868   3.583   0.092   0.772 -0.8149 -0.1045 -0.5236
    1SOL     OW 1869   4.069   4.550   0.512 -0.5645 -0.1054  0.0444
    1SOL    HW2 1870   4.126   4.475   0.531  0.8656  0.4478 -1.8776
    1SOL    HW3 1871   4.081   4.608   0.587  0.3915 -0.5989  0.2901
    1SOL    MW4 1872   4.078   4.547   0.524 -0.2499 -0.0978 -0.1767
    1SOL     OW 1873   4.432   2.647   0.806  0.3104  0.0706 -0.2140
    1SOL    HW2 1874   4.471   2.652   0.893  1.5601  0.9208 -0.8035
    1SOL    HW3 1875   4.497   2.686   0.748 -0.8573  0.2797 -1.4210
    1SOL    MW4 1876   4.445   2.653   0.810  0.3209  0.2108 -0.4511
    1SOL     OW 1877   4.339   0.822   0.838 -0.1018  0.1831  0.4383
    1SOL    HW2 1878   4.310   0.787   0.922  0.5441 -0.8587  0.2366
    1SOL    HW3 1879   4.370   0.746   0.789 -1.5785  0.6056 -1.2005
    1SOL    MW4 1880   4.339   0.808   0.843 -0.2112  0.1014  0.1954
    1SOL     OW 1881   4.007   3.083   0.464 -0.0421  0.3192  0.1494
    1SOL    HW2 1882   3.921   3.081   0.423 -0.2586 -0.4168  0.6473
    1SOL    HW3 1883   4.059   3.019   0.415 -0.2400 -0.4051  0.8812
    1SOL    MW4 1884   4.003   3.075   0.452 -0.0968  0.1266  0.3117
    1SOL     OW 1885   1.362   1.712   0.746 -0.0675 -0.3958  0.6133
    1SOL    HW2 1886   1.434   1.663   0.786  0.7482  1.8540  1.9905
    1SOL    HW3 1887   1.370   1.695   0.652  1.0596 -1.7439  0.9388
    1SOL    MW4 1888   1.373   1.703   0.739  0.1888 -0.2768  0.8379
    1SOL     OW 1889   2.195   4.290   0.834  0.3022  0.2738  0.4496
    1SOL    HW2 1890   2.151   4.345   0.769  0.8751 -0.1922 -0.3383
    1SOL    HW3 1891   2.213   4.208   0.788  0.8875  0.0082  1.1379
    1SOL    MW4 1892   2.191   4.287   0.820  0.4554  0.1774  0.4365
    1SOL     OW 1893   4.267   1.500   0.789 -0.1571  0.1101  0.3647
    1SOL    HW2 1894   4.289   1.408   0.772 -2.7218 -0.6154  0.7941
    1SOL    HW3 1895   4.276   1.510   0.884 -1.6575 -0.2178  0.5571
    1SOL    MW4 1896   4.271   1.489   0.799 -0.6933 -0.0288  0.4467
    1SOL     OW 1897   0.914   1.191   0.852  0.0775  0.0941 -0.0820
    1SOL    HW2 1898   0.835   1.235   0.821 -0.6543 -0.5743  0.7992
    1SOL    HW3 1899   0.915   1.107   0.805  0.3181  0.1472 -0.1708
    1SOL    MW4 1900   0.904   1.185   0.842  0.0126  0.0129  0.0225
    1SOL     OW 1901   1.030   4.649   0.510  0.0420 -0.7395 -0.3133
    1SOL    HW2 1902   1.086   4.720   0.479 -0.1399 -0.2907  0.3715
    1SOL    HW3 1903   0.951   4.656   0.458 -0.1072 -0.2329 -0.0201
    1SOL    MW4 1904   1.027   4.660   0.499 -0.0015 -0.6132 -0.1843
    1SOL     OW 1905   4.080   3.212   0.702 -0.4544  0.4171  0.1195
    1SOL    HW2 1906   4.009   3.174   0.755  0.1585  0.3169  0.8747
    1SOL    HW3 1907   4.067   3.175   0.615 -0.8079 -0.2929  0.4678
    1SOL    MW4 1908   4.069   3.202   0.697 -0.4206  0.3102  0.2651
    1SOL     OW 1909   0.206   2.322   1.062  0.3384 -0.0742  0.2073
    1SOL    HW2 1910   0.127   2.358   1.103 -0.3739 -1.4966  0.1121
    1SOL    HW3 1911   0.278   2.370   1.102 -0.4728 -0.0564  1.6600
    1SOL    MW4 1912   0.205   2.333   1.072  0.1374 -0.2594  0.3864
    1SOL     OW 1913   2.025   3.886   0.881  0.1804 -0.1935  0.1955
    1SOL    HW2 1914   2.035   3.860   0.973  0.4718 -0.8395 -0.0154
    1SOL    HW3 1915   2.033   3.804   0.832 -0.7511  0.0346 -0.3564
    1SOL    MW4 1916   2.027   3.871   0.887  0.0961 -0.2489  0.0949
    1SOL     OW 1917   3.777   2.835   0.697  0.4760  0.1117  0.0575
    1SOL    HW2 1918   3.858   2.798   0.732 -0.1274 -0.3620  0.9818
    1SOL    HW3 1919   3.773   2.805   0.606  1.1026 -0.2544  0.1534
    1SOL    MW4 1920   3.787   2.826   0.689  0.4790  0.0012  0.1921
    1SOL     OW 1921   0.871   1.938   0.838  0.5960 -0.3835 -0.0280
    1SOL    HW2 1922   0.805   1.996   0.801 -0.4169 -2.5137 -1.7153
    1SOL    HW3 1923   0.861   1.946   0.933  0.4168  2.0537 -0.2252
    1SOL    MW4 1924   0.861   1.946   0.845  0.4387 -0.3431 -0.2766
    1SOL     OW 1925   1.967   0.761   0.368 -0.2448 -0.1533  0.2462
    1SOL    HW2 1926   1.964   0.794   0.278  0.3542 -1.0034 -0.0902
    1SOL    HW3 1927   1.938   0.835   0.421 -1.0665  0.2069 -0.6772
    1SOL    MW4 1928   1.963   0.775   0.363 -0.2742 -0.2178  0.0800
    1SOL     OW 1929   3.962   2.322   0.437  0.3613 -0.3934  0.1024
    1SOL    HW2 1930   3.952   2.228   0.421 -1.2128 -0.0727 -0.9375
    1SOL    HW3 1931   4.055   2.334   0.452  0.7270 -1.9756 -0.7733
    1SOL    MW4 1932   3.973   2.311   0.437  0.2017 -0.5596 -0.1503
    1SOL     OW 1933   3.587   3.486   0.813 -0.4014  0.2626  0.9243
    1SOL    HW2 1934   3.661   3.546   0.808 -0.1999  0.1102  1.8296
    1SOL    HW3 1935   3.614   3.409   0.763  0.1641  0.1042  1.4653
    1SOL    MW4 1936   3.600   3.484   0.806 -0.3002  0.2217  1.1151
    1SOL     OW 1937   4.228   3.892   0.833 -0.3361 -0.0515 -0.0128
    1SOL    HW2 1938   4.140   3.913   0.802 -0.0059 -0.2464 -1.1063
    1SOL    HW3 1939   4.219   3.885   0.928 -1.5223 -0.2036 -0.1291
    1SOL    MW4 1940   4.215   3.894   0.841 -0.4487 -0.0975 -0.1723
    1SOL     OW 1941   4.237   1.841   0.156  0.3265  0.1250  0.3978
    1SOL    HW2 1942   4.327   1.872   0.158  0.4472 -0.2569  1.2127
    1SOL    HW3 1943   4.189   1.908   0.106  1.2740 -0.2960 -1.0990
    1SOL    MW4 1944   4.242   1.854   0.150  0.4678  0.0192  0.3078
    1SOL     OW 1945   3.765   3.887   0.835  0.3176  0.0091 -0.0298
    1SOL    HW2 1946   3.836   3.941   0.800 -0.6046  0.1007 -1.7781
    1SOL    HW3 1947   3.789   3.797   0.812  0.0571  0.0038 -0.2795
    1SOL    MW4 1948   3.777   3.882   0.827  0.1614  0.0203 -0.2934
    1SOL     OW 1949   4.091   0.013   0.781 -0.5101  0.3017 -0.3474
    1SOL    HW2 1950   4.166  -0.034   0.819 -0.8967 -0.0814 -0.0571
    1SOL    HW3 1951   4.112   0.105   0.796  1.0603  0.3148 -2.4413
    1SOL    MW4 1952   4.104   0.019   0.788 -0.3543  0.2527 -0.5854
    1SOL     OW 1953   3.814   4.614   0.839  0.3209  0.3191  0.3600
    1SOL    HW2 1954   3.807   4.525   0.805  2.6364 -0.9254  2.9310
    1SOL    HW3 1955   3.904   4.640   0.821  0.1178  1.5389  1.0376
    1SOL    MW4 1956   3.825   4.606   0.832  0.5999  0.3157  0.7886
    1SOL     OW 1957   0.210   0.020   1.182 -0.3377  0.3622 -0.3131
    1SOL    HW2 1958   0.303   0.034   1.199 -0.0769 -0.7634 -0.7886
    1SOL    HW3 1959   0.205  -0.001   1.089 -0.9757 -0.3529 -0.1257
    1SOL    MW4 1960   0.221   0.019   1.172 -0.3875  0.1193 -0.3510
    1SOL     OW 1961   4.474   0.172   1.231  0.4366 -0.3814  0.2539
    1SOL    HW2 1962   4.401   0.111   1.221  1.8404 -2.0577 -0.0043
    1SOL    HW3 1963   4.551   0.120   1.208  1.8121  1.0488  1.5600
    1SOL    MW4 1964   4.474   0.157   1.227  0.8035 -0.4139  0.3922
    1SOL     OW 1965   4.406   0.408   1.101 -0.5251 -0.3393  0.1491
    1SOL    HW2 1966   4.352   0.458   1.162 -0.2613 -0.7768  0.7480
    1SOL    HW3 1967   4.434   0.331   1.150  0.0129 -0.5071 -0.3977
    1SOL    MW4 1968   4.403   0.405   1.115 -0.4196 -0.4191  0.1559
    1SOL     OW 1969   0.198   0.524   1.194 -0.2805  0.2864  0.2854
    1SOL    HW2 1970   0.209   0.611   1.157  0.8620 -0.5079 -1.3018
    1SOL    HW3 1971   0.107   0.501   1.173 -0.4400  0.9001  0.2953
    1SOL    MW4 1972   0.187   0.532   1.186 -0.1508  0.2626  0.0774
    1SOL     OW 1973   0.258   0.787   1.101 -0.3748 -0.4356 -0.4001
    1SOL    HW2 1974   0.334   0.839   1.125 -1.0202  0.0769  0.5842
    1SOL    HW3 1975   0.184   0.834   1.139 -1.2130 -0.7859 -1.5640
    1SOL    MW4 1976   0.258   0.800   1.109 -0.5705 -0.4142 -0.4238
    1SOL     OW 1977   0.020   0.871   1.231  0.3162  0.1946  0.0088
    1SOL    HW2 1978   0.013   0.873   1.327 -2.3057 -0.7879 -0.1379
    1SOL    HW3 1979   0.030   0.963   1.206 -1.2089  0.6799  1.0947
    1SOL    MW4 1980   0.021   0.883   1.240 -0.2310  0.1290  0.1327
    1SOL     OW 1981   0.010   1.108   1.099  0.1705  0.1158  0.3467
    1SOL    HW2 1982  -0.077   1.142   1.121  0.3128  1.0426 -0.4737
    1SOL    HW3 1983   0.069   1.180   1.120  0.5700  0.0760 -0.6154
    1SOL    MW4 1984   0.006   1.122   1.105  0.2422  0.2328  0.1116
    1SOL     OW 1985   0.198   1.285   1.174  0.3304  0.2317  0.1561
    1SOL    HW2 1986   0.200   1.294   1.269  1.4471  0.2203  0.1420
    1SOL    HW3 1987   0.280   1.240   1.153 -2.0574 -4.1663 -0.3700
    1SOL    MW4 1988   0.209   1.280   1.184  0.1627 -0.3501  0.0850
    1SOL     OW 1989   0.230   1.521   1.067 -0.3158  0.4979 -0.0259
    1SOL    HW2 1990   0.213   1.430   1.092 -0.5640 -0.0357 -1.9988
    1SOL    HW3 1991   0.216   1.522   0.972 -0.1359  2.5618 -0.0466
    1SOL    MW4 1992   0.226   1.509   1.058 -0.3248  0.6998 -0.2888
    1SOL     OW 1993   0.025   1.638   1.204 -0.0548  0.0140 -0.0147
    1SOL    HW2 1994   0.019   1.727   1.168  0.1153  0.3233  0.7043
    1SOL    HW3 1995   0.104   1.601   1.164  1.2597  1.0606  1.5507
    1SOL    MW4 1996   0.035   1.645   1.194  0.1411  0.1930  0.2868
    1SOL     OW 1997   0.027   1.882   1.100 -0.0637  0.6513  0.0606
    1SOL    HW2 1998  -0.051   1.930   1.129 -0.6697  0.3046 -0.9388
    1SOL    HW3 1999   0.028   1.893   1.004  0.3870 -0.4097 -0.0671
    1SOL    MW4 2000   0.016   1.889   1.091 -0.0841  0.4655 -0.0881
    1SOL     OW 2001   0.222   2.055   1.179  0.2009  0.1926 -0.2616
    1SOL    HW2 2002   0.201   2.137   1.134 -1.8874  0.7457  1.6557
    1SOL    HW3 2003   0.150   1.996   1.156  0.3653 -0.2851  0.4419
    1SOL    MW4 2004   0.210   2.058   1.170 -0.0529  0.2027  0.0842
    1SOL     OW 2005   0.258   2.320   0.787  0.3319 -0.8506 -0.0063
    1SOL    HW2 2006   0.171   2.338   0.753  0.7057 -0.4738 -0.7862
    1SOL    HW3 2007   0.250   2.330   0.882  0.3607  2.8448 -0.3365
    1SOL    MW4 2008   0.246   2.324   0.795  0.3850 -0.3133 -0.1528
    1SOL     OW 2009   4.476   2.444   1.191 -0.0628  0.3024 -0.5147
    1SOL    HW2 2010   4.485   2.444   1.287 -1.3783  1.9531 -0.3691
    1SOL    HW3 2011   4.402   2.385   1.175 -0.2345  0.5002 -0.4593
    1SOL    MW4 2012   4.467   2.436   1.202 -0.2589  0.5460 -0.4883
    1SOL     OW 2013   0.019   2.691   1.079  0.4119 -0.0162  0.2979
    1SOL    HW2 2014  -0.062   2.740   1.095  0.2807  0.2652 -1.2246
    1SOL    HW3 2015   0.005   2.607   1.124 -0.1311  0.5778  1.2700
    1SOL    MW4 2016   0.006   2.687   1.087  0.3230  0.0992  0.2254
    1SOL     OW 2017   0.231   2.857   1.193 -0.1466 -0.1781  0.3936
    1SOL    HW2 2018   0.207   2.851   1.286  0.8580 -2.2624  0.5515
    1SOL    HW3 2019   0.181   2.789   1.150  0.3676 -0.0734 -0.3888
    1SOL    MW4 2020   0.221   2.847   1.200  0.0538 -0.4394  0.3113
    1SOL     OW 2021   0.263   3.113   1.067 -0.7284  0.0190  0.6850
    1SOL    HW2 2022   0.329   3.154   1.123  1.3962 -1.6613 -0.4766
    1SOL    HW3 2023   0.255   3.024   1.100  0.1488 -0.8241 -1.2949
    1SOL    MW4 2024   0.271   3.107   1.078 -0.3323 -0.3138  0.2705
    1SOL     OW 2025   0.039   3.223   1.196  0.3627 -0.1938  0.0269
    1SOL    HW2 2026  -0.032   3.180   1.148  1.0279 -0.2299 -0.9428
    1SOL    HW3 2027   0.119   3.184   1.160  0.8880  0.0145  0.9470
    1SOL    MW4 2028   0.040   3.212   1.185  0.5198 -0.1712  0.0204
    1SOL     OW 2029   0.014   3.499   1.131 -0.6163 -0.0831 -0.4861
    1SOL    HW2 2030   0.001   3.404   1.140 -3.1998  0.0234 -2.4326
    1SOL    HW3 2031   0.026   3.512   1.037 -1.8739  1.6676 -0.4251
    1SOL    MW4 2032   0.014   3.488   1.120 -1.1231  0.1619 -0.7347
    1SOL     OW 2033   0.267   3.606   1.221 -0.0686 -0.1737  0.0578
    1SOL    HW2 2034   0.244   3.602   1.314 -0.0983 -0.6721  0.0270
    1SOL    HW3 2035   0.195   3.563   1.176  0.5456 -1.0645 -0.0949
    1SOL    MW4 2036   0.255   3.600   1.227  0.0086 -0.3569  0.0337
    1SOL     OW 2037   0.262   3.882   1.151 -0.1299 -0.2452  0.0857
    1SOL    HW2 2038   0.183   3.915   1.193 -0.9342  0.1144 -1.6591
    1SOL    HW3 2039   0.260   3.788   1.166  0.0930 -0.0270  1.6236
    1SOL    MW4 2040   0.252   3.874   1.158 -0.2066 -0.1688  0.0585
    1SOL     OW 2041   4.472   3.965   1.235  0.5140 -0.1451  0.0649
    1SOL    HW2 2042   4.466   3.974   1.330  0.1498 -0.3916  0.0640
    1SOL    HW3 2043   4.384   3.942   1.207  0.7602 -0.6874 -0.2656
    1SOL    MW4 2044   4.460   3.963   1.244  0.4988 -0.2491  0.0211
    1SOL     OW 2045   4.466   4.236   1.166 -0.4790  1.1307 -0.3266
    1SOL    HW2 2046   4.527   4.288   1.219 -0.4603  2.0721 -1.2777
    1SOL    HW3 2047   4.482   4.146   1.195  1.2829  1.3752 -0.4557
    1SOL    MW4 2048   4.476   4.231   1.177 -0.2441  1.2875 -0.4690
    1SOL     OW 2049   0.177   4.421   1.260 -0.1530 -0.3503 -0.4038
    1SOL    HW2 2050   0.206   4.417   1.351 -1.9705 -1.9603  0.1246
    1SOL    HW3 2051   0.177   4.515   1.240  1.8781 -0.0777  0.6913
    1SOL    MW4 2052   0.181   4.433   1.270 -0.1248 -0.5274 -0.1895
    1SOL     OW 2053   0.702   4.640   1.097  0.1401  0.0552  0.2492
    1SOL    HW2 2054   0.761   4.689   1.156 -2.2431  0.9102  2.0125
    1SOL    HW3 2055   0.708   4.550   1.127  1.1569  0.0096 -0.0880
    1SOL    MW4 2056   0.711   4.635   1.109 -0.0402  0.1621  0.4375
    1SOL     OW 2057   0.480   0.096   1.220 -0.3050 -0.1481 -0.3153
    1SOL    HW2 2058   0.466   0.185   1.188  1.0699  0.0963 -0.2607
    1SOL    HW3 2059   0.565   0.070   1.183 -0.5425 -1.3154 -0.0717
    1SOL    MW4 2060   0.489   0.104   1.211 -0.1549 -0.2699 -0.2759
    1SOL     OW 2061   2.269   1.918   0.348  0.0961  0.0671 -0.3407
    1SOL    HW2 2062   2.312   1.845   0.392  1.0545  1.3181  0.8475
    1SOL    HW3 2063   2.184   1.925   0.390  0.1568 -0.1234 -0.1880
    1SOL    MW4 2064   2.264   1.909   0.359  0.2303  0.2071 -0.1638
    1SOL     OW 2065   0.663   0.521   1.193  0.1882  0.0583  0.0410
    1SOL    HW2 2066   0.667   0.604   1.145 -0.2555  0.6206  0.9578
    1SOL    HW3 2067   0.580   0.482   1.167 -0.0693  0.3812  0.3653
    1SOL    MW4 2068   0.653   0.527   1.183  0.0957  0.1751  0.2048
    1SOL     OW 2069   0.696   0.781   1.078 -0.0079 -0.2207 -0.1750
    1SOL    HW2 2070   0.623   0.833   1.113 -0.1030 -0.1032 -0.5429
    1SOL    HW3 2071   0.687   0.789   0.983  0.1897 -0.6207 -0.2264
    1SOL    MW4 2072   0.685   0.789   1.070  0.0057 -0.2580 -0.2304
    1SOL     OW 2073   0.480   0.914   1.185  0.2281 -0.2625 -0.4493
    1SOL    HW2 2074   0.467   0.934   1.278 -0.1141 -0.0137 -0.5498
    1SOL    HW3 2075   0.465   0.997   1.140 -0.1739 -0.5120 -0.7778
    1SOL    MW4 2076   0.476   0.928   1.192  0.1299 -0.2626 -0.5060
    1SOL     OW 2077   0.434   1.170   1.095 -0.1839 -0.3425  0.4402
    1SOL    HW2 2078   0.511   1.206   1.139 -1.8442  1.8254  1.6122
    1SOL    HW3 2079   0.460   1.166   1.002  0.9402  1.4015  0.6624
    1SOL    MW4 2080   0.448   1.174   1.088 -0.2546  0.1736  0.6242
    1SOL     OW 2081   0.667   1.273   1.186  0.5692 -0.2656  0.7061
    1SOL    HW2 2082   0.747   1.237   1.147  1.2987  0.6110  1.3622
    1SOL    HW3 2083   0.672   1.367   1.167 -0.8651 -0.3538 -0.2121
    1SOL    MW4 2084   0.678   1.281   1.178  0.4763 -0.1615  0.6715
    1SOL     OW 2085   0.700   1.541   1.104 -0.5614 -0.0473 -0.4657
    1SOL    HW2 2086   0.777   1.591   1.132 -0.5277 -0.7019  0.6301
    1SOL    HW3 2087   0.626   1.586   1.145 -0.5577 -0.7168  0.2854
    1SOL    MW4 2088   0.700   1.554   1.113 -0.5565 -0.2218 -0.2221
    1SOL     OW 2089   0.455   1.634   1.179  0.0998  0.2209 -0.2527
    1SOL    HW2 2090   0.443   1.632   1.274  1.9910 -0.6375 -0.0101
    1SOL    HW3 2091   0.387   1.577   1.145 -1.0807  1.1364  0.5118
    1SOL    MW4 2092   0.444   1.627   1.187  0.1935  0.2284 -0.1199
    1SOL     OW 2093   0.450   1.908   1.108 -0.5151  0.1466  0.1704
    1SOL    HW2 2094   0.445   1.817   1.134  0.6064 -0.0528 -0.2954
    1SOL    HW3 2095   0.366   1.946   1.136 -0.7296 -0.8700  0.9051
    1SOL    MW4 2096   0.438   1.901   1.115 -0.3955 -0.0138  0.2058
    1SOL     OW 2097   0.642   2.086   1.226 -0.0569  0.1566  0.2091
    1SOL    HW2 2098   0.653   2.069   1.320 -0.6082  0.2312  0.2856
    1SOL    HW3 2099   0.584   2.016   1.195  0.5858 -0.2077 -0.1960
    1SOL    MW4 2100   0.636   2.074   1.234 -0.0448  0.1185  0.1657
    1SOL     OW 2101   0.674   2.333   1.074 -0.2475 -0.7042  0.4346
    1SOL    HW2 2102   0.599   2.387   1.100 -0.2893 -0.7922  0.5010
    1SOL    HW3 2103   0.663   2.252   1.125  0.3850 -0.3623  1.1060
    1SOL    MW4 2104   0.663   2.329   1.084 -0.1695 -0.6709  0.5319
    1SOL     OW 2105   0.431   2.467   1.154 -0.2905 -0.4306  0.4303
    1SOL    HW2 2106   0.432   2.456   1.249  0.1198  0.0506  0.4785
    1SOL    HW3 2107   0.449   2.559   1.140 -1.4731 -0.2712 -0.0777
    1SOL    MW4 2108   0.433   2.477   1.165 -0.3924 -0.3462  0.3695
    1SOL     OW 2109   0.471   2.740   1.109 -0.1693 -0.0531 -0.4311
    1SOL    HW2 2110   0.393   2.785   1.142 -0.0901  1.2537 -1.9877
    1SOL    HW3 2111   0.466   2.751   1.014  0.5085 -2.2817 -0.7442
    1SOL    MW4 2112   0.460   2.747   1.101 -0.0694 -0.1748 -0.6778
    1SOL     OW 2113   0.690   2.828   1.227  0.4207 -0.3358  0.1603
    1SOL    HW2 2114   0.674   2.830   1.321 -0.7811  1.7029 -0.0717
    1SOL    HW3 2115   0.608   2.794   1.189 -0.0264  1.2635 -0.3324
    1SOL    MW4 2116   0.677   2.824   1.234  0.2031  0.1442  0.0648
    1SOL     OW 2117   0.694   3.097   1.127 -0.1258  0.1743 -0.3271
    1SOL    HW2 2118   0.780   3.127   1.156  0.1341 -1.8614  1.1009
    1SOL    HW3 2119   0.694   3.003   1.146 -2.4053  0.0226 -0.9777
    1SOL    MW4 2120   0.706   3.089   1.133 -0.3923 -0.1144 -0.2246
    1SOL     OW 2121   0.462   3.224   1.232 -0.1753 -0.4546 -0.5800
    1SOL    HW2 2122   0.455   3.298   1.172 -1.4207 -1.5385 -1.8130
    1SOL    HW3 2123   0.543   3.180   1.207  1.0410  0.9783  0.7519
    1SOL    MW4 2124   0.472   3.228   1.221 -0.1791 -0.4086 -0.5670
    1SOL     OW 2125   0.451   3.459   1.111 -0.1264  0.2716 -0.1380
    1SOL    HW2 2126   0.535   3.496   1.140  0.1137 -2.2386  2.5716
    1SOL    HW3 2127   0.385   3.508   1.161 -0.1295  0.5447 -0.4078
    1SOL    MW4 2128   0.453   3.470   1.122 -0.0952 -0.0236  0.1838
    1SOL     OW 2129   0.691   3.601   1.196 -0.0473 -0.0606 -0.2777
    1SOL    HW2 2130   0.681   3.609   1.290 -0.7293 -1.1531 -0.2476
    1SOL    HW3 2131   0.678   3.690   1.163 -0.4988  0.2041  0.5958
    1SOL    MW4 2132   0.688   3.614   1.204 -0.1969 -0.1698 -0.1585
    1SOL     OW 2133   0.683   3.860   1.138 -0.3614 -0.2626  0.3991
    1SOL    HW2 2134   0.633   3.923   1.191  2.9558  0.9724  2.1846
    1SOL    HW3 2135   0.680   3.897   1.049  0.1848  1.5825  1.1243
    1SOL    MW4 2136   0.676   3.873   1.133  0.1483  0.1440  0.7304
    1SOL     OW 2137   0.483   4.027   1.274 -0.5393  0.5925  0.1955
    1SOL    HW2 2138   0.471   4.114   1.235  0.8535 -0.1959 -2.1388
    1SOL    HW3 2139   0.406   3.978   1.244  0.4788  0.0172 -1.5884
    1SOL    MW4 2140   0.471   4.032   1.265 -0.2212  0.4129 -0.3477
    1SOL     OW 2141   0.424   4.273   1.160  0.0886  0.0263  0.3301
    1SOL    HW2 2142   0.494   4.333   1.187 -1.1975  0.8569  1.9406
    1SOL    HW3 2143   0.345   4.310   1.198 -1.1372 -1.2798 -0.8848
    1SOL    MW4 2144   0.423   4.286   1.169 -0.2428 -0.0362  0.3822
    1SOL     OW 2145   0.687   4.388   1.217 -0.0433 -0.0798 -0.2377
    1SOL    HW2 2146   0.671   4.388   1.311 -2.0320 -1.0211 -0.5401
    1SOL    HW3 2147   0.767   4.338   1.205  1.1199  1.4408  1.0815
    1SOL    MW4 2148   0.695   4.382   1.228 -0.1523 -0.0033 -0.1037
    1SOL     OW 2149   1.119   0.016   1.149  0.3090 -0.6331 -0.5583
    1SOL    HW2 2150   1.116  -0.079   1.152  1.2910 -0.7088 -1.6681
    1SOL    HW3 2151   1.133   0.037   1.057 -0.9359  0.6219 -0.4812
    1SOL    MW4 2152   1.120   0.007   1.137  0.2743 -0.4775 -0.6945
    1SOL     OW 2153   0.881   0.128   1.246 -0.3274 -0.3862  0.1018
    1SOL    HW2 2154   0.899   0.121   1.340  0.3280 -1.0158 -0.0650
    1SOL    HW3 2155   0.956   0.086   1.205 -1.7084 -2.1716 -0.6488
    1SOL    MW4 2156   0.893   0.121   1.253 -0.4231 -0.7048 -0.0193
    1SOL     OW 2157   0.857   0.370   1.090 -0.4151  0.4280 -0.1741
    1SOL    HW2 2158   0.848   0.286   1.136 -0.6936  0.6351  0.1498
    1SOL    HW3 2159   0.793   0.427   1.132  0.5931  1.1544  0.4053
    1SOL    MW4 2160   0.848   0.366   1.102 -0.3189  0.5511 -0.0550
    1SOL     OW 2161   1.105   0.479   1.178  0.9308  0.0111 -0.0841
    1SOL    HW2 2162   1.099   0.507   1.270  1.1350  1.1143 -0.3973
    1SOL    HW3 2163   1.015   0.460   1.153  0.6627  1.3753 -0.1641
    1SOL    MW4 2164   1.092   0.480   1.187  0.9224  0.3366 -0.1359
    1SOL     OW 2165   1.133   0.739   1.102  0.7471  0.1190  0.4988
    1SOL    HW2 2166   1.057   0.791   1.126  1.0928  1.7886 -1.8439
    1SOL    HW3 2167   1.114   0.651   1.135 -1.3426  0.9528  1.5613
    1SOL    MW4 2168   1.121   0.734   1.110  0.5170  0.4494  0.3300
    1SOL     OW 2169   0.920   0.887   1.202  0.4133  0.2425 -0.5229
    1SOL    HW2 2170   0.920   0.976   1.165 -0.4833  0.0032 -1.0945
    1SOL    HW3 2171   0.851   0.841   1.155  0.4319 -0.5741  0.2343
    1SOL    MW4 2172   0.911   0.893   1.191  0.2974  0.1032 -0.4984
    1SOL     OW 2173   0.926   1.149   1.120  0.1422 -0.5347 -0.5197
    1SOL    HW2 2174   0.987   1.215   1.155 -1.9268  0.8290  0.6280
    1SOL    HW3 2175   0.919   1.171   1.027 -1.4664  1.6975  0.0771
    1SOL    MW4 2176   0.933   1.161   1.112 -0.3430 -0.0602 -0.2894
    1SOL     OW 2177   1.143   1.319   1.207 -0.5466 -0.3044 -0.1972
    1SOL    HW2 2178   1.122   1.306   1.299 -0.0170  0.7407  0.0868
    1SOL    HW3 2179   1.204   1.248   1.186  0.5208  0.3259  0.6877
    1SOL    MW4 2180   1.149   1.308   1.217 -0.3358 -0.0834 -0.0430
    1SOL     OW 2181   1.167   1.580   1.090  0.8897  0.3230 -0.2462
    1SOL    HW2 2182   1.168   1.498   1.141  1.2293 -0.0457 -0.8428
    1SOL    HW3 2183   1.162   1.551   0.999  0.4163  0.9831 -0.4308
    1SOL    MW4 2184   1.166   1.565   1.085  0.8721  0.3614 -0.3492
    1SOL     OW 2185   0.915   1.701   1.209 -0.1858  0.6414 -0.4086
    1SOL    HW2 2186   0.896   1.787   1.171 -1.2481 -0.2537 -1.9858
    1SOL    HW3 2187   0.979   1.663   1.149  0.1640  0.2738  0.2015
    1SOL    MW4 2188   0.921   1.708   1.196 -0.2798  0.4748 -0.5363
    1SOL     OW 2189   0.871   1.953   1.119 -0.0508 -0.0329  0.3266
    1SOL    HW2 2190   0.945   2.010   1.141  1.3304 -0.8913 -1.9069
    1SOL    HW3 2191   0.794   2.001   1.149  1.2506  1.8599  0.7534
    1SOL    MW4 2192   0.871   1.967   1.126  0.3032  0.1035  0.0883
    1SOL     OW 2193   1.100   2.087   1.190 -0.3277  0.0015 -0.4827
    1SOL    HW2 2194   1.101   2.097   1.285  3.2318  0.4771 -0.5143
    1SOL    HW3 2195   1.116   2.175   1.157 -0.7266 -0.3023 -1.4921
    1SOL    MW4 2196   1.102   2.100   1.198  0.0894  0.0243 -0.6200
    1SOL     OW 2197   1.106   2.357   1.114  0.0947 -0.2557 -0.4853
    1SOL    HW2 2198   1.188   2.401   1.136 -0.2587  0.2349 -0.1214
    1SOL    HW3 2199   1.106   2.350   1.019  0.6582 -0.4597 -0.4720
    1SOL    MW4 2200   1.117   2.362   1.104  0.1224 -0.2179 -0.4357
    1SOL     OW 2201   0.888   2.461   1.221  1.0764  0.3123 -0.1985
    1SOL    HW2 2202   0.960   2.412   1.181  0.0385 -0.5550 -1.0239
    1SOL    HW3 2203   0.809   2.424   1.182  0.1907  1.4610  0.4843
    1SOL    MW4 2204   0.887   2.449   1.211  0.8227  0.3495 -0.2173
    1SOL     OW 2205   0.879   2.700   1.076  0.0427 -0.3952  0.1288
    1SOL    HW2 2206   0.870   2.618   1.125 -0.2882  0.2300  1.1326
    1SOL    HW3 2207   0.816   2.759   1.116  0.9735  0.6612  0.0602
    1SOL    MW4 2208   0.870   2.697   1.088  0.1218 -0.1731  0.2521
    1SOL     OW 2209   1.136   2.827   1.209  0.0916  0.4936  0.2985
    1SOL    HW2 2210   1.130   2.797   1.300  2.4470  0.6749  0.5428
    1SOL    HW3 2211   1.058   2.792   1.167 -0.4601 -0.5339  2.1241
    1SOL    MW4 2212   1.125   2.818   1.216  0.3295  0.3819  0.5716
    1SOL     OW 2213   1.134   3.081   1.068 -0.5781  0.3294 -0.1442
    1SOL    HW2 2214   1.128   2.989   1.095 -0.1074  0.0819 -0.8659
    1SOL    HW3 2215   1.132   3.078   0.973 -1.0270  1.1082 -0.1582
    1SOL    MW4 2216   1.133   3.068   1.059 -0.5753  0.3994 -0.2413
    1SOL     OW 2217   0.932   3.203   1.211 -0.0801 -0.3884 -0.5706
    1SOL    HW2 2218   0.910   3.293   1.188 -1.0291 -0.5732 -0.4098
    1SOL    HW3 2219   0.995   3.176   1.144  1.6933  0.9986  0.4574
    1SOL    MW4 2220   0.938   3.211   1.199  0.0286 -0.2298 -0.4138
    1SOL     OW 2221   0.930   3.464   1.131 -0.6361 -0.0510 -0.1333
    1SOL    HW2 2222   0.857   3.513   1.167 -1.2572 -0.4830 -0.8003
    1SOL    HW3 2223   0.911   3.456   1.038  0.7278  0.6546 -0.4971
    1SOL    MW4 2224   0.918   3.469   1.124 -0.5382 -0.0145 -0.2692
    1SOL     OW 2225   1.183   3.600   1.195  0.1935 -0.1419  0.2216
    1SOL    HW2 2226   1.253   3.550   1.153 -0.7363 -1.7529  0.5587
    1SOL    HW3 2227   1.102   3.557   1.166 -0.5834  0.7281  1.0864
    1SOL    MW4 2228   1.181   3.588   1.185 -0.0317 -0.2396  0.3802
    1SOL     OW 2229   1.161   3.873   1.112  0.6722  0.0525 -0.1440
    1SOL    HW2 2230   1.079   3.904   1.151 -0.5816 -1.2589 -1.6245
    1SOL    HW3 2231   1.170   3.783   1.145  1.3318  0.0865 -0.2366
    1SOL    MW4 2232   1.151   3.865   1.121  0.5938 -0.1163 -0.3515
    1SOL     OW 2233   0.919   3.955   1.256  0.2084 -0.0588  0.0634
    1SOL    HW2 2234   0.919   3.938   1.350  0.1950 -1.1640 -0.1279
    1SOL    HW3 2235   0.838   3.916   1.224  0.1802  0.3709 -0.3954
    1SOL    MW4 2236   0.908   3.948   1.264  0.2030 -0.1478 -0.0224
    1SOL     OW 2237   0.893   4.223   1.169 -0.0460  0.4484  0.3013
    1SOL    HW2 2238   0.902   4.137   1.210  1.6115  1.2134  1.6241
    1SOL    HW3 2239   0.903   4.207   1.075 -2.7400 -1.1788  0.2300
    1SOL    MW4 2240   0.895   4.210   1.162 -0.1827  0.3347  0.4663
    1SOL     OW 2241   1.109   4.409   1.195  0.9373  0.0707 -0.0788
    1SOL    HW2 2242   1.127   4.414   1.289  2.1821 -0.2943 -0.2913
    1SOL    HW3 2243   1.041   4.343   1.187  1.1333 -0.2023  0.5310
    1SOL    MW4 2244   1.102   4.401   1.206  1.1274 -0.0129 -0.0265
    1SOL     OW 2245   1.539   0.018   1.156 -0.2515  0.0613  0.3200
    1SOL    HW2 2246   1.629   0.038   1.178 -0.3917 -0.0052  0.9688
    1SOL    HW3 2247   1.522  -0.066   1.200 -0.4238 -0.2513 -0.3358
    1SOL    MW4 2248   1.548   0.009   1.165 -0.2928  0.0105  0.3190
    1SOL     OW 2249   1.330   0.128   1.286  0.0005  0.4235  0.1141
    1SOL    HW2 2250   1.394   0.089   1.227 -0.6161  0.1244 -0.3640
    1SOL    HW3 2251   1.245   0.103   1.250 -0.3954  1.1328  0.5290
    1SOL    MW4 2252   1.327   0.120   1.273 -0.1333  0.4776  0.1059
    1SOL     OW 2253   1.345   0.370   1.167 -0.0514  0.1070  0.0941
    1SOL    HW2 2254   1.335   0.294   1.225 -0.1268 -0.2107 -0.3394
    1SOL    HW3 2255   1.257   0.407   1.161 -0.2950 -0.6265 -0.8740
    1SOL    MW4 2256   1.332   0.365   1.174 -0.0936 -0.0317 -0.0908
    1SOL     OW 2257   1.573   0.510   1.249  0.5795  0.3417 -0.0206
    1SOL    HW2 2258   1.561   0.599   1.217 -0.8098  0.0746 -0.2773
    1SOL    HW3 2259   1.493   0.464   1.223  0.3973 -0.4589  1.8872
    1SOL    MW4 2260   1.561   0.516   1.241  0.3723  0.2008  0.1972
    1SOL     OW 2261   1.552   0.770   1.150 -0.0283 -0.4901 -0.0055
    1SOL    HW2 2262   1.625   0.824   1.180 -1.1118  2.2379 -2.0593
    1SOL    HW3 2263   1.569   0.756   1.057 -0.6599 -2.2921  0.1295
    1SOL    MW4 2264   1.564   0.775   1.142 -0.2546 -0.3679 -0.2587
    1SOL     OW 2265   1.315   0.888   1.237  0.3868  0.3167 -0.2521
    1SOL    HW2 2266   1.386   0.827   1.215  0.1138  0.3116 -1.1413
    1SOL    HW3 2267   1.237   0.849   1.198 -0.3717 -0.3875  1.9065
    1SOL    MW4 2268   1.314   0.875   1.229  0.2506  0.2232 -0.0848
    1SOL     OW 2269   1.339   1.155   1.124  0.0366  0.1206 -0.7963
    1SOL    HW2 2270   1.343   1.074   1.175  1.5524 -1.3125 -3.1104
    1SOL    HW3 2271   1.412   1.208   1.156  0.7624 -0.6204 -1.2081
    1SOL    MW4 2272   1.349   1.152   1.135  0.3324 -0.1662 -1.1561
    1SOL     OW 2273   1.550   1.307   1.240  0.3617 -0.0270 -0.0434
    1SOL    HW2 2274   1.636   1.280   1.209  0.6005 -0.4467  0.9790
    1SOL    HW3 2275   1.555   1.299   1.335 -0.4628  0.9598  0.0951
    1SOL    MW4 2276   1.562   1.302   1.248  0.2846  0.0479  0.1096
    1SOL     OW 2277   1.589   1.555   1.139 -0.2223 -0.2250  0.4604
    1SOL    HW2 2278   1.662   1.591   1.189  1.1153 -1.4699 -0.5740
    1SOL    HW3 2279   1.572   1.470   1.180  1.1265 -1.4184 -1.4092
    1SOL    MW4 2280   1.596   1.548   1.151  0.1323 -0.5466  0.0772
    1SOL     OW 2281   1.362   1.713   1.238 -0.1147  0.2972  0.2961
    1SOL    HW2 2282   1.437   1.682   1.187 -0.6177  0.2220 -0.4094
    1SOL    HW3 2283   1.287   1.670   1.198 -0.6748  1.3962  0.1585
    1SOL    MW4 2284   1.362   1.704   1.226 -0.2550  0.4321  0.1848
    1SOL     OW 2285   1.355   1.957   1.109 -0.2948 -0.4143  0.0777
    1SOL    HW2 2286   1.363   1.880   1.165  0.2540  0.7675  1.6713
    1SOL    HW3 2287   1.285   2.009   1.149 -0.8997 -0.2312 -1.1807
    1SOL    MW4 2288   1.347   1.954   1.121 -0.3023 -0.2342  0.1220
    1SOL     OW 2289   1.581   2.090   1.227 -0.6157 -0.0109  0.4123
    1SOL    HW2 2290   1.591   2.175   1.184  0.8557  0.0864  0.9056
    1SOL    HW3 2291   1.508   2.048   1.182 -0.5371  1.0049 -0.6725
    1SOL    MW4 2292   1.573   2.096   1.216 -0.4110  0.1361  0.3343
    1SOL     OW 2293   1.598   2.342   1.112  0.2925 -0.1666  0.5196
    1SOL    HW2 2294   1.522   2.395   1.134  0.2415 -0.3943  0.8920
    1SOL    HW3 2295   1.601   2.342   1.016 -0.5004 -0.6212  0.4966
    1SOL    MW4 2296   1.589   2.349   1.102  0.1811 -0.2565  0.5656
    1SOL     OW 2297   1.359   2.462   1.185 -0.0815  0.0121  0.0950
    1SOL    HW2 2298   1.379   2.473   1.278  0.7604 -0.4558 -0.0215
    1SOL    HW3 2299   1.348   2.551   1.152 -2.6139  0.1137  1.1044
    1SOL    MW4 2300   1.360   2.475   1.193 -0.3046 -0.0362  0.2129
    1SOL     OW 2301   1.376   2.719   1.112  0.2112  0.8005 -0.0918
    1SOL    HW2 2302   1.450   2.756   1.160  0.4914 -1.2170  1.0930
    1SOL    HW3 2303   1.299   2.755   1.155  0.4801  0.3189  0.8026
    1SOL    MW4 2304   1.376   2.728   1.124  0.2838  0.4711  0.1825
    1SOL     OW 2305   1.600   2.834   1.212 -0.0935  0.0982 -0.2917
    1SOL    HW2 2306   1.683   2.796   1.182 -0.8630 -2.0296  0.2264
    1SOL    HW3 2307   1.602   2.924   1.178  1.2185 -0.7599 -2.6104
    1SOL    MW4 2308   1.611   2.841   1.203 -0.0219 -0.2959 -0.5292
    1SOL     OW 2309   1.599   3.077   1.097 -0.2186 -0.0721  0.6415
    1SOL    HW2 2310   1.669   3.134   1.127  0.4717 -0.8271  0.4754
    1SOL    HW3 2311   1.519   3.128   1.110  0.3409  0.7116  1.0176
    1SOL    MW4 2312   1.598   3.091   1.102 -0.0538 -0.0682  0.6691
    1SOL     OW 2313   1.357   3.233   1.144  0.6857  0.2759 -0.1361
    1SOL    HW2 2314   1.348   3.242   1.239 -0.3384  0.4852 -0.2423
    1SOL    HW3 2315   1.274   3.192   1.117  0.8994  0.3917 -0.9607
    1SOL    MW4 2316   1.345   3.229   1.153  0.5786  0.3185 -0.2589
    1SOL     OW 2317   1.416   3.498   1.060 -0.4200  0.3069  0.1613
    1SOL    HW2 2318   1.400   3.407   1.083 -0.4910  0.5696  1.1874
    1SOL    HW3 2319   1.374   3.509   0.975 -1.7481 -0.2216  0.7322
    1SOL    MW4 2320   1.408   3.488   1.052 -0.6046  0.2720  0.3721
    1SOL     OW 2321   1.546   3.664   1.253  0.5993  0.0362  0.2381
    1SOL    HW2 2322   1.570   3.743   1.205  0.0834 -0.3946 -0.7399
    1SOL    HW3 2323   1.482   3.620   1.197 -0.0982 -0.4238  1.3653
    1SOL    MW4 2324   1.540   3.669   1.240  0.4392 -0.0815  0.2578
    1SOL     OW 2325   1.600   3.904   1.124 -0.0937  0.2851  0.2786
    1SOL    HW2 2326   1.515   3.941   1.149  0.0672  0.7038  0.2018
    1SOL    HW3 2327   1.595   3.898   1.029 -0.2444 -0.1911  0.3177
    1SOL    MW4 2328   1.588   3.908   1.115 -0.0923  0.2775  0.2736
    1SOL     OW 2329   1.378   4.016   1.249  0.1580 -0.0875  0.0165
    1SOL    HW2 2330   1.369   4.104   1.214 -1.4441 -0.4156 -0.4345
    1SOL    HW3 2331   1.299   3.970   1.219  0.3244 -1.2835  1.3625
    1SOL    MW4 2332   1.366   4.021   1.240 -0.0314 -0.2885  0.1347
    1SOL     OW 2333   1.351   4.288   1.176  0.2722  0.2943  0.1710
    1SOL    HW2 2334   1.262   4.321   1.188 -0.2258  0.5859 -3.5582
    1SOL    HW3 2335   1.359   4.274   1.081  3.5335 -1.6349  0.6420
    1SOL    MW4 2336   1.341   4.291   1.165  0.6368  0.0782 -0.2589
    1SOL     OW 2337   1.601   4.412   1.270 -0.1802 -0.3594  0.3764
    1SOL    HW2 2338   1.607   4.411   1.365 -0.0907 -1.4605  0.3689
    1SOL    HW3 2339   1.511   4.386   1.251 -0.3924  0.5105  0.1719
    1SOL    MW4 2340   1.590   4.408   1.280 -0.1965 -0.3901  0.3486
    1SOL     OW 2341   2.038   0.005   1.125  0.7069  0.0830  0.2104
    1SOL    HW2 2342   2.040  -0.078   1.173 -0.0997 -0.5355 -0.8130
    1SOL    HW3 2343   2.035  -0.020   1.033 -0.8701  1.2142 -0.0821
    1SOL    MW4 2344   2.038  -0.009   1.120  0.3924  0.1507  0.0368
    1SOL     OW 2345   1.804   0.094   1.224  0.2006 -0.0501 -0.2141
    1SOL    HW2 2346   1.799   0.187   1.204  1.1806 -0.2075 -1.2459
    1SOL    HW3 2347   1.888   0.066   1.187  0.0586 -1.2721  0.3646
    1SOL    MW4 2348   1.814   0.102   1.216  0.3110 -0.2321 -0.2739
    1SOL     OW 2349   1.795   0.359   1.142  0.0283  0.1685 -0.9264
    1SOL    HW2 2350   1.717   0.403   1.177  1.4580  2.0833 -0.0469
    1SOL    HW3 2351   1.783   0.360   1.047 -0.8291  0.8241 -0.8111
    1SOL    MW4 2352   1.783   0.365   1.134  0.1038  0.5076 -0.7951
    1SOL     OW 2353   2.016   0.801   1.125 -0.1274  0.2060 -0.2717
    1SOL    HW2 2354   2.095   0.836   1.166  0.0801 -0.9023  0.2879
    1SOL    HW3 2355   2.012   0.710   1.154 -2.2305  0.5597  0.6350
    1SOL    MW4 2356   2.026   0.794   1.134 -0.3774  0.1065 -0.0783
    1SOL     OW 2357   1.994   0.740   0.862  0.0759 -0.3502  0.2065
    1SOL    HW2 2358   2.059   0.797   0.821  0.1865 -0.3507  0.3810
    1SOL    HW3 2359   2.003   0.757   0.956 -1.1688  0.7332  0.1420
    1SOL    MW4 2360   2.004   0.750   0.869 -0.0737 -0.2073  0.2211
    1SOL     OW 2361   1.755   0.918   1.242  0.1561  0.0098  0.1528
    1SOL    HW2 2362   1.748   0.896   1.335  1.2220 -0.6991  0.0763
    1SOL    HW3 2363   1.844   0.891   1.218  0.8546  2.7295 -0.4020
    1SOL    MW4 2364   1.766   0.911   1.251  0.3889  0.2751  0.0695
    1SOL     OW 2365   1.790   1.204   1.174  0.2947 -0.2253  0.0559
    1SOL    HW2 2366   1.764   1.115   1.195  0.4064 -0.3082 -0.1544
    1SOL    HW3 2367   1.801   1.204   1.078  1.7855 -0.3904  0.2076
    1SOL    MW4 2368   1.788   1.193   1.164  0.5062 -0.2580  0.0482
    1SOL     OW 2369   2.041   1.290   1.248  0.1898  0.0450  0.2310
    1SOL    HW2 2370   2.107   1.246   1.193  0.4489  0.8073 -0.0802
    1SOL    HW3 2371   1.957   1.258   1.215  0.4187 -1.2669  0.9174
    1SOL    MW4 2372   2.039   1.280   1.236  0.2542 -0.0275  0.2806
    1SOL     OW 2373   2.016   1.564   1.111  0.0495  0.6914  0.3749
    1SOL    HW2 2374   2.005   1.481   1.158 -0.4240  0.6108  0.1195
    1SOL    HW3 2375   2.009   1.541   1.019  2.5297  0.6018  0.1796
    1SOL    MW4 2376   2.014   1.550   1.105  0.3142  0.6690  0.3154
    1SOL     OW 2377   1.811   1.708   1.242  0.4755  0.5508 -0.5305
    1SOL    HW2 2378   1.813   1.803   1.239 -0.0834  0.7120  2.6940
    1SOL    HW3 2379   1.891   1.681   1.195  1.2054  2.6331 -0.5238
    1SOL    MW4 2380   1.822   1.717   1.235  0.4981  0.8469 -0.1042
    1SOL     OW 2381   1.821   1.961   1.169 -0.3349  0.2935  0.6674
    1SOL    HW2 2382   1.748   2.007   1.211 -0.5760  0.2585  0.2853
    1SOL    HW3 2383   1.794   1.952   1.078  0.6904  1.4059  0.2456
    1SOL    MW4 2384   1.808   1.966   1.163 -0.2314  0.4356  0.5612
    1SOL     OW 2385   2.082   2.049   1.190  0.4938 -0.5532 -0.4516
    1SOL    HW2 2386   2.082   2.047   1.285 -1.1448 -1.1213 -0.4408
    1SOL    HW3 2387   1.993   2.022   1.166  1.4484 -2.2959 -2.1669
    1SOL    MW4 2388   2.070   2.045   1.199  0.4036 -0.8583 -0.6765
    1SOL     OW 2389   2.039   2.301   1.112 -0.9924  0.1640  0.3527
    1SOL    HW2 2390   2.105   2.353   1.157 -0.8837 -0.2256  0.6460
    1SOL    HW3 2391   2.049   2.213   1.148 -0.8219 -0.1757 -0.5284
    1SOL    MW4 2392   2.049   2.296   1.123 -0.9558  0.0675  0.2750
    1SOL     OW 2393   1.823   2.464   1.187  0.0366  0.3781  0.2810
    1SOL    HW2 2394   1.880   2.394   1.155  0.1725  1.7286 -2.6527
    1SOL    HW3 2395   1.735   2.437   1.163 -0.0649  0.4722  0.5473
    1SOL    MW4 2396   1.819   2.451   1.180  0.0411  0.5689 -0.0709
    1SOL     OW 2397   1.839   2.733   1.124 -0.4616  0.1993  0.0117
    1SOL    HW2 2398   1.838   2.638   1.135  0.3629  0.1557 -0.2100
    1SOL    HW3 2399   1.847   2.746   1.030  2.0651  0.4381  0.2169
    1SOL    MW4 2400   1.840   2.722   1.113 -0.0194  0.2251  0.0094
    1SOL     OW 2401   2.083   2.842   1.212 -0.4288 -0.4186  0.1889
    1SOL    HW2 2402   2.059   2.934   1.201 -1.5930 -0.6424  0.7887
    1SOL    HW3 2403   2.010   2.793   1.172 -0.5611 -1.0973  1.2504
    1SOL    MW4 2404   2.070   2.848   1.205 -0.5999 -0.5376  0.4081
    1SOL     OW 2405   2.041   3.122   1.111 -0.0060 -0.3438  0.0537
    1SOL    HW2 2406   1.962   3.170   1.135  0.2259 -0.0396  0.2057
    1SOL    HW3 2407   2.048   3.133   1.017  1.4978  2.1458  0.4165
    1SOL    MW4 2408   2.031   3.130   1.102  0.2232  0.0248  0.1216
    1SOL     OW 2409   1.818   3.247   1.167  0.0127 -0.2072  0.5980
    1SOL    HW2 2410   1.814   3.248   1.262  0.8183  1.6289  0.6210
    1SOL    HW3 2411   1.816   3.339   1.141  0.8955 -0.6418 -1.1183
    1SOL    MW4 2412   1.817   3.259   1.176  0.2356 -0.0222  0.3747
    1SOL     OW 2413   1.771   3.519   1.086  0.1554  0.3234  0.4735
    1SOL    HW2 2414   1.838   3.558   1.143  0.5272 -1.5032  1.3092
    1SOL    HW3 2415   1.688   3.544   1.126  0.4148 -1.3113  2.1191
    1SOL    MW4 2416   1.769   3.528   1.099  0.2387 -0.1333  0.8010
    1SOL     OW 2417   2.003   3.574   1.228 -0.0477 -0.1450  0.4453
    1SOL    HW2 2418   2.022   3.589   1.320 -0.2631  0.7514  0.3551
    1SOL    HW3 2419   2.073   3.517   1.197 -0.4489 -1.1521  1.3675
    1SOL    MW4 2420   2.015   3.569   1.236 -0.1290 -0.1595  0.5552
    1SOL     OW 2421   2.029   3.843   1.148  0.3003  0.1623 -0.5772
    1SOL    HW2 2422   1.947   3.879   1.180 -0.7379  0.5373 -3.4883
    1SOL    HW3 2423   2.023   3.749   1.166  0.3954  0.5450  1.5578
    1SOL    MW4 2424   2.018   3.835   1.154  0.1757  0.2620 -0.6795
    1SOL     OW 2425   1.818   4.007   1.248  0.3366 -0.3173 -0.1311
    1SOL    HW2 2426   1.789   4.005   1.340  0.6724  0.8637  0.0045
    1SOL    HW3 2427   1.749   3.961   1.200  0.0480 -0.7474  0.6787
    1SOL    MW4 2428   1.805   4.000   1.254  0.3428 -0.2184 -0.0064
    1SOL     OW 2429   1.823   4.291   1.170 -0.0404  0.1934  0.3804
    1SOL    HW2 2430   1.840   4.204   1.205 -0.1119  0.2076  0.4500
    1SOL    HW3 2431   1.737   4.315   1.204 -0.4933 -0.1488 -0.5102
    1SOL    MW4 2432   1.814   4.283   1.179 -0.1096  0.1502  0.2722
    1SOL     OW 2433   2.067   4.386   1.263  0.0605  0.6358  0.2637
    1SOL    HW2 2434   2.054   4.388   1.358 -0.9319  0.5732  0.1336
    1SOL    HW3 2435   1.986   4.350   1.228  0.9410 -0.6270 -0.5178
    1SOL    MW4 2436   2.055   4.382   1.271  0.0455  0.4606  0.1435
    1SOL     OW 2437   2.487   4.632   1.162 -0.0873 -0.4269 -0.0406
    1SOL    HW2 2438   2.558   4.686   1.195 -1.1788  1.8926 -1.3250
    1SOL    HW3 2439   2.407   4.680   1.185 -1.0513 -1.0752 -1.8833
    1SOL    MW4 2440   2.486   4.645   1.169 -0.3583 -0.2069 -0.4532
    1SOL     OW 2441   2.271   0.127   1.231 -0.0813 -0.2899  0.4071
    1SOL    HW2 2442   2.276   0.212   1.187 -0.9565  0.4341  1.6787
    1SOL    HW3 2443   2.189   0.089   1.201  0.3862 -0.7518 -0.2822
    1SOL    MW4 2444   2.261   0.133   1.222 -0.1352 -0.2553  0.4840
    1SOL     OW 2445   1.998   0.542   1.197  0.2375  0.2942 -0.2181
    1SOL    HW2 2446   1.998   0.535   1.293 -1.5950 -1.4264 -0.3225
    1SOL    HW3 2447   1.933   0.479   1.168  1.1305  0.4384 -2.6550
    1SOL    MW4 2448   1.989   0.533   1.206  0.1135  0.0862 -0.5534
    1SOL     OW 2449   2.478   0.497   1.173  0.1851 -0.0182 -0.3487
    1SOL    HW2 2450   2.472   0.494   1.269 -0.5469  0.1709 -0.3843
    1SOL    HW3 2451   2.399   0.453   1.143  0.5698 -0.3529 -0.8696
    1SOL    MW4 2452   2.467   0.491   1.182  0.1392 -0.0374 -0.4220
    1SOL     OW 2453   2.471   0.758   1.090  0.2174 -0.1107  0.2234
    1SOL    HW2 2454   2.472   0.665   1.113 -0.5579  0.0074  0.7564
    1SOL    HW3 2455   2.454   0.759   0.996 -0.6935 -0.4988  0.3710
    1SOL    MW4 2456   2.469   0.746   1.081 -0.0050 -0.1463  0.3132
    1SOL     OW 2457   2.266   0.898   1.245  0.1117  0.6832 -0.1932
    1SOL    HW2 2458   2.272   0.886   1.340 -1.7525 -1.0956 -0.2763
    1SOL    HW3 2459   2.333   0.840   1.210  2.2445  2.9106  0.0918
    1SOL    MW4 2460   2.276   0.888   1.253  0.1473  0.7424 -0.1664
    1SOL     OW 2461   2.257   1.155   1.126  0.6814  0.0605 -0.2483
    1SOL    HW2 2462   2.349   1.178   1.143  1.0629 -0.8719 -0.9872
    1SOL    HW3 2463   2.245   1.069   1.167  0.3780 -0.1989 -0.8741
    1SOL    MW4 2464   2.268   1.147   1.133  0.6917 -0.0969 -0.4284
    1SOL     OW 2465   2.497   1.268   1.220  0.0109 -0.5211  0.3114
    1SOL    HW2 2466   2.579   1.219   1.212 -0.3806 -1.0482 -0.5467
    1SOL    HW3 2467   2.512   1.349   1.171  0.0719 -0.5575  0.2696
    1SOL    MW4 2468   2.510   1.272   1.212 -0.0327 -0.5956  0.1928
    1SOL     OW 2469   2.511   1.532   1.110  0.2052  0.0086 -0.3459
    1SOL    HW2 2470   2.434   1.563   1.158  0.5581  1.4116 -0.6614
    1SOL    HW3 2471   2.482   1.526   1.019  0.7426  1.5259 -0.6283
    1SOL    MW4 2472   2.497   1.535   1.105  0.3226  0.3940 -0.4249
    1SOL     OW 2473   2.270   1.627   1.236  0.0643  0.0920  0.3351
    1SOL    HW2 2474   2.284   1.719   1.215  0.2469 -0.1050 -0.4100
    1SOL    HW3 2475   2.186   1.606   1.196  0.0168 -0.0621  0.5156
    1SOL    MW4 2476   2.261   1.637   1.228  0.0818  0.0457  0.2606
    1SOL     OW 2477   2.292   1.888   1.107  0.0501 -0.2998 -0.3890
    1SOL    HW2 2478   2.233   1.947   1.154  1.4625  0.0168  1.0339
    1SOL    HW3 2479   2.261   1.890   1.016 -0.9094  1.3877 -0.0419
    1SOL    MW4 2480   2.280   1.896   1.101  0.1101 -0.0355 -0.1556
    1SOL     OW 2481   2.481   2.033   1.230  0.1154  0.1191 -0.4797
    1SOL    HW2 2482   2.569   2.013   1.201  0.6217 -0.3081  1.3217
    1SOL    HW3 2483   2.426   1.965   1.191  1.0443 -1.5501  1.1002
    1SOL    MW4 2484   2.485   2.022   1.221  0.3047 -0.1574 -0.0337
    1SOL     OW 2485   2.475   2.328   1.163 -0.5062 -0.1284  0.1134
    1SOL    HW2 2486   2.481   2.241   1.203  0.3153 -0.3743 -0.5256
    1SOL    HW3 2487   2.483   2.312   1.069  1.6978  0.8192  0.1184
    1SOL    MW4 2488   2.477   2.314   1.156 -0.1068 -0.0355  0.0297
    1SOL     OW 2489   2.248   2.456   1.231 -0.0906 -0.1190  0.1826
    1SOL    HW2 2490   2.258   2.443   1.325  2.1088  0.9549  0.1358
    1SOL    HW3 2491   2.319   2.405   1.192  0.1489  0.9342 -0.7838
    1SOL    MW4 2492   2.259   2.447   1.238  0.2313  0.1616  0.0489
    1SOL     OW 2493   2.292   2.692   1.124  0.3285  0.2490  0.2224
    1SOL    HW2 2494   2.279   2.608   1.168  0.1743 -0.4495 -1.1359
    1SOL    HW3 2495   2.214   2.743   1.144 -0.8181 -0.9341 -1.1678
    1SOL    MW4 2496   2.280   2.688   1.132  0.1569  0.0007 -0.1402
    1SOL     OW 2497   2.533   2.833   1.243  0.2919 -0.1157 -0.7834
    1SOL    HW2 2498   2.536   2.829   1.338  1.5179 -0.1653 -0.8210
    1SOL    HW3 2499   2.455   2.783   1.219  0.8364 -1.4112  0.1087
    1SOL    MW4 2500   2.523   2.826   1.252  0.5252 -0.2933 -0.6707
    1SOL     OW 2501   2.493   3.080   1.112 -0.0846  0.4460 -0.3359
    1SOL    HW2 2502   2.420   3.122   1.158  0.1200 -0.2369  0.6383
    1SOL    HW3 2503   2.511   3.001   1.164  0.6140  0.0277 -1.2057
    1SOL    MW4 2504   2.485   3.075   1.125  0.0343  0.3004 -0.3222
    1SOL     OW 2505   2.274   3.223   1.235  0.2137  0.1132  0.5345
    1SOL    HW2 2506   2.277   3.315   1.208 -0.5148  0.1495  0.5740
    1SOL    HW3 2507   2.194   3.189   1.195  1.5877 -1.0726 -1.3028
    1SOL    MW4 2508   2.264   3.231   1.226  0.2990 -0.0386  0.2973
    1SOL     OW 2509   2.243   3.474   1.135 -0.1235 -0.0691 -0.3759
    1SOL    HW2 2510   2.316   3.530   1.162  0.5518 -0.7326 -0.7922
    1SOL    HW3 2511   2.254   3.466   1.040 -0.3754 -0.6824 -0.3549
    1SOL    MW4 2512   2.254   3.481   1.126 -0.0677 -0.2377 -0.4281
    1SOL     OW 2513   2.469   3.602   1.230  0.5997 -0.2596  0.3306
    1SOL    HW2 2514   2.480   3.613   1.324  1.6185  1.3967  0.0244
    1SOL    HW3 2515   2.477   3.690   1.194 -0.8798 -0.7195 -1.2095
    1SOL    MW4 2516   2.471   3.615   1.238  0.5388 -0.1018  0.0871
    1SOL     OW 2517   2.487   3.869   1.116  1.0384 -0.0837 -0.1860
    1SOL    HW2 2518   2.415   3.928   1.139  0.5256 -1.0391  0.7230
    1SOL    HW3 2519   2.482   3.859   1.021 -0.4396 -0.6758 -0.0464
    1SOL    MW4 2520   2.477   3.876   1.107  0.7756 -0.2880 -0.0476
    1SOL     OW 2521   2.260   3.978   1.242 -0.4634  0.4510  0.5582
    1SOL    HW2 2522   2.255   4.062   1.195  0.2148 -0.1978 -0.7093
    1SOL    HW3 2523   2.188   3.927   1.207  0.0258 -0.0247  0.2317
    1SOL    MW4 2524   2.250   3.983   1.231 -0.3095  0.3026  0.3479
    1SOL     OW 2525   2.233   4.232   1.104 -0.7548  0.4056 -0.5150
    1SOL    HW2 2526   2.178   4.285   1.162 -2.5693 -0.7075 -1.1968
    1SOL    HW3 2527   2.202   4.253   1.016 -0.4315 -0.6306 -0.8786
    1SOL    MW4 2528   2.222   4.242   1.100 -0.9515  0.1225 -0.6528
    1SOL     OW 2529   2.454   4.368   1.222  0.2263  0.1243  0.0346
    1SOL    HW2 2530   2.365   4.356   1.190  0.4108  0.5113 -0.6302
    1SOL    HW3 2531   2.476   4.459   1.201  1.5434 -0.5765 -1.7534
    1SOL    MW4 2532   2.445   4.379   1.215  0.4241  0.0830 -0.2890
    1SOL     OW 2533   2.911   0.004   1.168  0.0460 -0.3351  0.3876
    1SOL    HW2 2534   2.916  -0.087   1.195 -0.5603 -0.4444  0.1319
    1SOL    HW3 2535   2.898   0.001   1.074  0.2348  0.0175  0.3486
    1SOL    MW4 2536   2.910  -0.008   1.159 -0.0091 -0.3028  0.3488
    1SOL     OW 2537   2.684   0.131   1.250 -0.1879  0.0757 -0.1224
    1SOL    HW2 2538   2.687   0.133   1.346  0.3900 -1.0309 -0.1104
    1SOL    HW3 2539   2.763   0.084   1.224 -1.3651 -1.4302 -1.0523
    1SOL    MW4 2540   2.695   0.125   1.260 -0.2668 -0.2690 -0.2435
    1SOL     OW 2541   2.711   0.369   1.121 -0.2610  0.0684 -0.2973
    1SOL    HW2 2542   2.713   0.284   1.166 -0.0958  0.7344  0.9913
    1SOL    HW3 2543   2.621   0.399   1.132 -0.2327  0.2043 -0.4520
    1SOL    MW4 2544   2.699   0.362   1.129 -0.2356  0.1742 -0.1476
    1SOL     OW 2545   2.906   0.518   1.235 -0.0257 -0.0549 -0.1886
    1SOL    HW2 2546   2.913   0.608   1.201  1.6067  0.4972  1.4943
    1SOL    HW3 2547   2.832   0.481   1.188 -1.6359  2.6290  0.1073
    1SOL    MW4 2548   2.897   0.525   1.224 -0.0226  0.3721  0.0724
    1SOL     OW 2549   2.925   0.777   1.119 -0.5853 -0.1179  0.4684
    1SOL    HW2 2550   2.997   0.829   1.156 -1.2159  1.4711 -0.4773
    1SOL    HW3 2551   2.849   0.800   1.172 -0.9650  0.2809 -0.2415
    1SOL    MW4 2552   2.925   0.787   1.131 -0.7188  0.1444  0.2500
    1SOL     OW 2553   2.685   0.890   1.228 -0.3770  0.5786 -0.2927
    1SOL    HW2 2554   2.717   0.971   1.188  0.1457  0.0159 -1.0459
    1SOL    HW3 2555   2.618   0.859   1.168  0.4439 -0.2954 -0.7775
    1SOL    MW4 2556   2.681   0.897   1.215 -0.1998  0.3891 -0.4561
    1SOL     OW 2557   2.730   1.139   1.110 -0.1953  0.3673  0.4333
    1SOL    HW2 2558   2.704   1.160   1.020 -0.5947 -0.7968  0.2689
    1SOL    HW3 2559   2.808   1.192   1.126  0.1663  0.2062 -0.7703
    1SOL    MW4 2560   2.736   1.149   1.101 -0.2000  0.1925  0.2528
    1SOL     OW 2561   2.973   1.254   1.210  0.1001  0.0883  0.1528
    1SOL    HW2 2562   2.948   1.238   1.301  1.3515  0.0432  0.4945
    1SOL    HW3 2563   2.953   1.346   1.195 -1.1583 -0.1767  0.1206
    1SOL    MW4 2564   2.967   1.264   1.220  0.0992  0.0474  0.1937
    1SOL     OW 2565   2.960   1.522   1.124  0.1864 -0.0888  0.0256
    1SOL    HW2 2566   3.036   1.572   1.152  1.3111 -2.1096  0.7328
    1SOL    HW3 2567   2.957   1.534   1.029  1.0863  0.4408  0.0614
    1SOL    MW4 2568   2.970   1.530   1.115  0.4535 -0.2855  0.1236
    1SOL     OW 2569   2.747   1.675   1.226  0.8892  0.3805  0.4115
    1SOL    HW2 2570   2.820   1.615   1.212  1.6312  1.4027 -0.2440
    1SOL    HW3 2571   2.674   1.637   1.177  0.9455 -0.7303  1.2015
    1SOL    MW4 2572   2.747   1.662   1.217  0.9942  0.3687  0.4292
    1SOL     OW 2573   2.728   1.935   1.122  0.2774  0.2514  0.4147
    1SOL    HW2 2574   2.804   1.991   1.136 -0.3251  0.9127  1.1285
    1SOL    HW3 2575   2.757   1.847   1.145  0.6716  0.5918  1.2487
    1SOL    MW4 2576   2.742   1.931   1.127  0.2501  0.3835  0.6189
    1SOL     OW 2577   2.943   2.086   1.186  0.3231 -0.2918  0.4149
    1SOL    HW2 2578   2.955   2.074   1.280  3.5060  0.7680  0.2068
    1SOL    HW3 2579   2.912   2.176   1.176 -0.0581 -0.4186  0.4445
    1SOL    MW4 2580   2.941   2.096   1.197  0.6931 -0.1686  0.3912
    1SOL     OW 2581   2.858   2.333   1.115  0.6668 -0.1878 -0.0063
    1SOL    HW2 2582   2.940   2.381   1.128  0.1075  1.3792 -1.9364
    1SOL    HW3 2583   2.794   2.380   1.169  0.7552 -0.5968  0.4551
    1SOL    MW4 2584   2.860   2.346   1.124  0.6046 -0.0353 -0.2000
    1SOL     OW 2585   2.698   2.481   1.269  0.0934 -0.0264 -0.0277
    1SOL    HW2 2586   2.711   2.459   1.361 -2.2966  0.0471  0.3458
    1SOL    HW3 2587   2.615   2.440   1.246  0.0738  0.9717 -1.8305
    1SOL    MW4 2588   2.689   2.473   1.278 -0.2246  0.1149 -0.2161
    1SOL     OW 2589   2.794   2.731   1.169  0.1099 -0.4878  0.0237
    1SOL    HW2 2590   2.786   2.650   1.219 -0.1230 -0.2379  0.3975
    1SOL    HW3 2591   2.707   2.772   1.176  0.0655 -0.4783 -0.6240
    1SOL    MW4 2592   2.781   2.726   1.177  0.0734 -0.4535 -0.0124
    1SOL     OW 2593   3.023   2.852   1.219 -0.0899  0.0344 -0.1919
    1SOL    HW2 2594   3.016   2.856   1.314  0.5790 -2.0571 -0.0072
    1SOL    HW3 2595   2.945   2.805   1.191 -1.2290  2.2795 -0.8782
    1SOL    MW4 2596   3.012   2.846   1.227 -0.1521  0.0544 -0.2581
    1SOL     OW 2597   2.950   3.107   1.142 -0.1869  0.3333  0.0163
    1SOL    HW2 2598   2.964   3.015   1.164 -1.8731  0.4409  1.6145
    1SOL    HW3 2599   2.928   3.106   1.049  1.3021 -0.6976 -0.3462
    1SOL    MW4 2600   2.949   3.095   1.132 -0.2129  0.2117  0.1794
    1SOL     OW 2601   2.706   3.201   1.244  0.4809  0.0628 -0.4005
    1SOL    HW2 2602   2.781   3.156   1.207  0.1204  0.3359 -1.4720
    1SOL    HW3 2603   2.632   3.173   1.190 -0.1995 -0.2414  0.6742
    1SOL    MW4 2604   2.706   3.191   1.232  0.3436  0.0587 -0.4002
    1SOL     OW 2605   2.693   3.463   1.160 -0.2758  0.2496  0.3291
    1SOL    HW2 2606   2.691   3.375   1.199 -1.0777  0.4704  0.7997
    1SOL    HW3 2607   2.615   3.506   1.195 -1.5243  0.1433 -2.2154
    1SOL    MW4 2608   2.682   3.457   1.170 -0.5462  0.2646  0.0554
    1SOL     OW 2609   2.910   3.625   1.215  0.4889  0.3228 -1.3038
    1SOL    HW2 2610   2.986   3.581   1.177  0.7411 -0.2043 -0.2172
    1SOL    HW3 2611   2.835   3.570   1.190  0.6444  0.0150 -1.0923
    1SOL    MW4 2612   2.910   3.612   1.207  0.5426  0.2124 -1.1324
    1SOL     OW 2613   2.870   3.887   1.057  0.3332  0.0649 -0.0377
    1SOL    HW2 2614   2.954   3.918   1.091 -0.6637  1.0222  1.5758
    1SOL    HW3 2615   2.862   3.797   1.089 -0.0107  0.5311  1.2092
    1SOL    MW4 2616   2.880   3.879   1.065  0.1562  0.2527  0.3397
    1SOL     OW 2617   2.701   3.978   1.249 -0.2000  0.1977  0.3105
    1SOL    HW2 2618   2.779   3.943   1.205 -0.8910 -0.4396 -0.4188
    1SOL    HW3 2619   2.628   3.930   1.211 -1.0094  1.1876  0.5772
    1SOL    MW4 2620   2.702   3.967   1.238 -0.3979  0.2439  0.2495
    1SOL     OW 2621   2.699   4.237   1.149 -0.4437 -0.0739  0.7053
    1SOL    HW2 2622   2.703   4.146   1.178 -1.0913  0.1136  1.4176
    1SOL    HW3 2623   2.612   4.267   1.177 -0.2146  0.7750  0.5208
    1SOL    MW4 2624   2.688   4.229   1.157 -0.4990  0.0625  0.7750
    1SOL     OW 2625   2.910   4.405   1.220  0.6635  0.1222  0.4042
    1SOL    HW2 2626   2.981   4.350   1.188  0.4556 -0.3636  0.7830
    1SOL    HW3 2627   2.831   4.353   1.209  0.6165 -0.1606  1.9551
    1SOL    MW4 2628   2.909   4.391   1.214  0.6299  0.0205  0.6588
    1SOL     OW 2629   3.339   4.631   1.117 -0.0999  0.0378 -0.0721
    1SOL    HW2 2630   3.425   4.655   1.153  0.0694  0.7231 -0.9226
    1SOL    HW3 2631   3.278   4.692   1.159 -0.3123 -1.0686  1.2537
    1SOL    MW4 2632   3.343   4.642   1.128 -0.1054 -0.0181 -0.0093
    1SOL     OW 2633   3.168   0.126   1.244 -0.2499  0.2370 -0.2901
    1SOL    HW2 2634   3.163   0.121   1.340  2.4996  0.6217 -0.0699
    1SOL    HW3 2635   3.091   0.079   1.213  0.0932 -1.9955  2.0893
    1SOL    MW4 2636   3.158   0.119   1.253  0.1581 -0.0068  0.0528
    1SOL     OW 2637   3.153   0.401   1.168 -0.3340  0.4711 -0.2438
    1SOL    HW2 2638   3.147   0.307   1.187  2.1098  0.7219  2.1090
    1SOL    HW3 2639   3.070   0.437   1.199 -0.8152 -0.7493 -0.0702
    1SOL    MW4 2640   3.141   0.393   1.175 -0.0749  0.3431  0.0895
    1SOL     OW 2641   3.397   0.528   1.253 -0.7312 -0.1611  0.3122
    1SOL    HW2 2642   3.398   0.611   1.205 -0.0806 -0.4459 -0.1710
    1SOL    HW3 2643   3.317   0.484   1.224 -1.7906  0.8759  1.5790
    1SOL    MW4 2644   3.387   0.533   1.243 -0.7851 -0.0619  0.4157
    1SOL     OW 2645   3.385   0.803   1.142 -0.1988 -0.0534  0.5539
    1SOL    HW2 2646   3.356   0.813   1.051 -1.4036  1.2043  1.0611
    1SOL    HW3 2647   3.308   0.824   1.194 -0.2936 -3.2491  1.8652
    1SOL    MW4 2648   3.371   0.807   1.137 -0.3705 -0.3091  0.7937
    1SOL     OW 2649   3.136   0.917   1.233 -0.2242  0.5753  0.0963
    1SOL    HW2 2650   3.151   0.929   1.327 -1.1371  0.2192  0.2986
    1SOL    HW3 2651   3.149   1.004   1.195  0.5132  0.6410  0.5059
    1SOL    MW4 2652   3.140   0.930   1.240 -0.2475  0.5370  0.1771
    1SOL     OW 2653   3.191   1.141   1.081  0.3177  0.2491 -0.1509
    1SOL    HW2 2654   3.267   1.181   1.124 -0.1459 -0.6385  1.5252
    1SOL    HW3 2655   3.116   1.188   1.117 -0.1321 -1.0892  0.6601
    1SOL    MW4 2656   3.191   1.152   1.091  0.1972 -0.0446  0.1773
    1SOL     OW 2657   3.387   1.265   1.225  0.1481 -0.2807 -0.0661
    1SOL    HW2 2658   3.385   1.287   1.318 -1.2853  0.2846 -0.2159
    1SOL    HW3 2659   3.383   1.350   1.181  0.3849 -0.5702 -0.6465
    1SOL    MW4 2660   3.386   1.279   1.231 -0.0095 -0.2444 -0.1624
    1SOL     OW 2661   3.377   1.539   1.117  0.1000 -0.4836  0.0821
    1SOL    HW2 2662   3.458   1.586   1.135  0.5269 -0.4855 -1.7091
    1SOL    HW3 2663   3.308   1.595   1.152  0.6757  1.0238 -1.1168
    1SOL    MW4 2664   3.378   1.552   1.124  0.2322 -0.2850 -0.3124
    1SOL     OW 2665   3.162   1.691   1.209  0.0480 -0.2211 -0.3938
    1SOL    HW2 2666   3.136   1.701   1.300 -0.8536 -1.0298 -0.5548
    1SOL    HW3 2667   3.156   1.779   1.172 -0.9444 -0.1246 -0.0195
    1SOL    MW4 2668   3.157   1.704   1.216 -0.2019 -0.3151 -0.3656
    1SOL     OW 2669   3.171   1.962   1.084  0.1899  0.4535 -0.2478
    1SOL    HW2 2670   3.245   2.004   1.128 -0.4193 -0.1252  1.3865
    1SOL    HW3 2671   3.094   2.002   1.124 -0.3881 -0.2343 -0.6640
    1SOL    MW4 2672   3.171   1.973   1.095  0.0331  0.2865 -0.0871
    1SOL     OW 2673   3.393   2.073   1.199 -0.5218 -0.0696  0.4681
    1SOL    HW2 2674   3.461   2.022   1.154  0.3181  0.2625  1.3421
    1SOL    HW3 2675   3.400   2.160   1.161 -1.9380 -0.5593 -1.0039
    1SOL    MW4 2676   3.403   2.078   1.188 -0.5977 -0.0906  0.3892
    1SOL     OW 2677   3.344   2.335   1.084 -0.1957 -0.0783  0.2135
    1SOL    HW2 2678   3.411   2.392   1.122  0.0482  0.2558 -0.7066
    1SOL    HW3 2679   3.262   2.370   1.119  0.0689 -0.1778  0.9440
    1SOL    MW4 2680   3.342   2.347   1.094 -0.1285 -0.0472  0.1885
    1SOL     OW 2681   3.105   2.429   1.174 -0.7548  0.1109  0.1676
    1SOL    HW2 2682   3.121   2.425   1.268  0.1397  0.3409  0.0310
    1SOL    HW3 2683   3.133   2.517   1.149  2.7751 -1.2710 -0.9896
    1SOL    MW4 2684   3.111   2.440   1.183 -0.1709 -0.0408 -0.0031
    1SOL     OW 2685   3.188   2.679   1.104 -0.2377 -0.0753 -0.3906
    1SOL    HW2 2686   3.129   2.743   1.144 -0.7488  0.4356 -1.9045
    1SOL    HW3 2687   3.165   2.681   1.011  0.5993 -1.5577 -0.6424
    1SOL    MW4 2688   3.177   2.688   1.097 -0.1950 -0.2036 -0.6235
    1SOL     OW 2689   3.406   2.830   1.202 -0.8518 -0.6517 -0.0203
    1SOL    HW2 2690   3.398   2.918   1.165 -0.4735 -0.6837 -0.1779
    1SOL    HW3 2691   3.336   2.780   1.160 -1.2979 -0.3353  0.3395
    1SOL    MW4 2692   3.396   2.835   1.191 -0.8605 -0.6142  0.0063
    1SOL     OW 2693   3.375   3.093   1.107 -0.1391 -0.0464  0.0754
    1SOL    HW2 2694   3.430   3.142   1.168  0.1646 -0.5752  0.2288
    1SOL    HW3 2695   3.286   3.119   1.130 -0.0254 -0.2096  0.7181
    1SOL    MW4 2696   3.370   3.103   1.118 -0.0839 -0.1376  0.1805
    1SOL     OW 2697   3.182   3.236   1.247  0.3749  0.2536  0.3077
    1SOL    HW2 2698   3.175   3.239   1.343  0.7192 -0.2113  0.3493
    1SOL    HW3 2699   3.097   3.204   1.218  0.6782 -0.8055  0.5352
    1SOL    MW4 2700   3.170   3.232   1.256  0.4606  0.0522  0.3432
    1SOL     OW 2701   3.178   3.503   1.131  0.2468 -0.2305 -0.0154
    1SOL    HW2 2702   3.258   3.550   1.154  1.2205 -1.6116 -0.5662
    1SOL    HW3 2703   3.192   3.413   1.162 -1.6408 -0.1730  1.1264
    1SOL    MW4 2704   3.190   3.497   1.138  0.1261 -0.4051  0.0625
    1SOL     OW 2705   3.414   3.625   1.204  0.0063 -1.1190  0.2450
    1SOL    HW2 2706   3.433   3.629   1.298 -0.8203 -2.5878  0.4884
    1SOL    HW3 2707   3.479   3.566   1.168 -0.2408 -1.2736  0.0463
    1SOL    MW4 2708   3.425   3.618   1.212 -0.1352 -1.3332  0.2509
    1SOL     OW 2709   3.328   3.855   1.074 -0.1973 -0.0016 -0.3542
    1SOL    HW2 2710   3.357   3.778   1.123  0.0988  1.2540  1.5055
    1SOL    HW3 2711   3.241   3.874   1.108  0.2648  1.2542  0.1516
    1SOL    MW4 2712   3.320   3.847   1.085 -0.0970  0.3297 -0.0421
    1SOL     OW 2713   3.108   3.978   1.175 -0.2373 -0.0563 -0.1377
    1SOL    HW2 2714   3.125   3.944   1.263 -2.3971 -1.7136 -0.3132
    1SOL    HW3 2715   3.127   4.071   1.181  2.2182 -0.6011  1.3618
    1SOL    MW4 2716   3.113   3.986   1.187 -0.1981 -0.3471  0.0371
    1SOL     OW 2717   3.115   4.262   1.120 -0.0569 -0.4100  0.2929
    1SOL    HW2 2718   3.201   4.299   1.141 -0.3069  0.8438 -0.8032
    1SOL    HW3 2719   3.115   4.256   1.024 -1.5843  0.5956  0.2155
    1SOL    MW4 2720   3.126   4.266   1.110 -0.2913 -0.1121  0.1383
    1SOL     OW 2721   3.334   4.360   1.236 -0.6642 -0.0183  0.4055
    1SOL    HW2 2722   3.415   4.325   1.198 -1.8078 -1.6515 -0.6247
    1SOL    HW3 2723   3.334   4.453   1.213 -0.1942 -0.4930 -1.6216
    1SOL    MW4 2724   3.345   4.367   1.228 -0.7529 -0.2966  0.0020
    1SOL     OW 2725   3.820   4.638   1.116  0.6318 -0.1201  0.1606
    1SOL    HW2 2726   3.796   4.553   1.153 -1.5047  0.1754 -0.4519
    1SOL    HW3 2727   3.840   4.620   1.025  1.1919 -0.1177  0.2816
    1SOL    MW4 2728   3.820   4.624   1.109  0.4239 -0.0811  0.0958
    1SOL     OW 2729   3.568   0.063   1.233  0.0068 -0.1618 -0.0116
    1SOL    HW2 2730   3.572   0.159   1.225  0.3178 -0.0758  1.0737
    1SOL    HW3 2731   3.648   0.032   1.191 -0.2168  0.0419 -0.5907
    1SOL    MW4 2732   3.579   0.072   1.227  0.0184 -0.1236  0.0552
    1SOL     OW 2733   3.593   0.337   1.174  0.1212 -0.1467  0.3941
    1SOL    HW2 2734   3.671   0.389   1.192 -0.2430 -0.0343  1.7499
    1SOL    HW3 2735   3.526   0.374   1.232 -0.4034 -1.5144  0.6765
    1SOL    MW4 2736   3.594   0.349   1.184  0.0038 -0.3123  0.6102
    1SOL     OW 2737   3.829   0.487   1.231 -0.2473  0.5342 -0.1185
    1SOL    HW2 2738   3.893   0.435   1.181 -0.2456  0.0419  0.3860
    1SOL    HW3 2739   3.833   0.574   1.192  0.5020  0.4225 -0.2970
    1SOL    MW4 2740   3.838   0.491   1.219 -0.1483  0.4545 -0.0753
    1SOL     OW 2741   3.838   0.738   1.117 -0.0106 -0.3620  0.0535
    1SOL    HW2 2742   3.909   0.788   1.156 -0.6614 -0.5262  1.4916
    1SOL    HW3 2743   3.759   0.789   1.137 -0.4125 -0.7113 -0.6133
    1SOL    MW4 2744   3.837   0.751   1.125 -0.1493 -0.4297  0.1552
    1SOL     OW 2745   3.635   0.915   1.167 -0.1194 -0.0120  0.2209
    1SOL    HW2 2746   3.615   1.004   1.140  1.9295  0.0799 -1.0654
    1SOL    HW3 2747   3.551   0.869   1.162 -1.0487  1.6538  0.1949
    1SOL    MW4 2748   3.622   0.921   1.163  0.0281  0.2199  0.0478
    1SOL     OW 2749   3.616   1.172   1.102  0.2792 -0.1822 -0.1632
    1SOL    HW2 2750   3.687   1.222   1.142  0.3559 -0.7273  0.3831
    1SOL    HW3 2751   3.540   1.189   1.158  0.6863 -1.9552  0.9473
    1SOL    MW4 2752   3.615   1.181   1.114  0.3428 -0.4880  0.0554
    1SOL     OW 2753   3.842   1.288   1.200  0.3454  0.4173  0.2298
    1SOL    HW2 2754   3.824   1.298   1.293 -0.5389 -1.1255  0.2475
    1SOL    HW3 2755   3.839   1.377   1.165 -0.2240  0.9088  1.5204
    1SOL    MW4 2756   3.839   1.301   1.207  0.1538  0.2785  0.4025
    1SOL     OW 2757   3.825   1.527   1.087 -0.1162 -0.1487  0.4618
    1SOL    HW2 2758   3.905   1.579   1.095 -1.0992  1.7030 -1.1069
    1SOL    HW3 2759   3.824   1.501   0.995 -1.1079 -0.5192  0.5787
    1SOL    MW4 2760   3.836   1.531   1.076 -0.3769  0.0467  0.2704
    1SOL     OW 2761   3.612   1.680   1.192 -0.3124 -0.0174  0.3903
    1SOL    HW2 2762   3.607   1.764   1.146 -1.2535  1.1366  2.5213
    1SOL    HW3 2763   3.683   1.633   1.148  1.7326  2.7932  0.5535
    1SOL    MW4 2764   3.621   1.685   1.180 -0.1667  0.5058  0.6930
    1SOL     OW 2765   3.610   1.917   1.053 -0.0843  0.0802  0.4284
    1SOL    HW2 2766   3.681   1.970   1.091  0.0900 -0.6853  1.1811
    1SOL    HW3 2767   3.622   1.927   0.959  0.6173  0.5070  0.5519
    1SOL    MW4 2768   3.621   1.926   1.046  0.0312  0.0356  0.5440
    1SOL     OW 2769   4.049   1.918   1.107  0.4465 -0.2774  0.2704
    1SOL    HW2 2770   3.977   1.970   1.144  0.3763 -0.3725  0.2661
    1SOL    HW3 2771   4.038   1.831   1.145  0.3201 -0.4005 -0.0483
    1SOL    MW4 2772   4.038   1.914   1.117  0.4206 -0.3060  0.2278
    1SOL     OW 2773   3.802   2.076   1.180 -0.1678  0.6732 -0.3013
    1SOL    HW2 2774   3.789   2.164   1.145 -0.0886  0.8713  0.1697
    1SOL    HW3 2775   3.803   2.087   1.275  0.1670  0.2118 -0.2483
    1SOL    MW4 2776   3.801   2.089   1.188 -0.1135  0.6385 -0.2321
    1SOL     OW 2777   3.562   2.463   1.187  0.4282 -0.0151  0.1894
    1SOL    HW2 2778   3.596   2.455   1.276  0.5791  1.1580  0.2399
    1SOL    HW3 2779   3.633   2.431   1.131 -0.0469 -1.7299  0.5330
    1SOL    MW4 2780   3.576   2.457   1.191  0.3853 -0.0865  0.2415
    1SOL     OW 2781   3.628   2.727   1.101 -0.2755  0.2223  0.1583
    1SOL    HW2 2782   3.618   2.637   1.133 -1.1380 -0.4139 -1.8105
    1SOL    HW3 2783   3.549   2.772   1.131  0.1969  0.3566  1.2173
    1SOL    MW4 2784   3.616   2.721   1.109 -0.3271  0.1562  0.0381
    1SOL     OW 2785   3.866   2.866   1.190 -0.2725 -0.3036 -0.1915
    1SOL    HW2 2786   3.880   2.838   1.281 -0.2836 -0.1330 -0.1358
    1SOL    HW3 2787   3.784   2.824   1.164 -1.0999  0.9180  0.4076
    1SOL    MW4 2788   3.857   2.857   1.199 -0.3834 -0.1199 -0.1051
    1SOL     OW 2789   3.812   3.116   1.075 -0.4331  0.3722 -0.4544
    1SOL    HW2 2790   3.829   3.031   1.115  2.7829  1.9359  1.7440
    1SOL    HW3 2791   3.825   3.102   0.981 -1.6017 -1.9002 -0.2941
    1SOL    MW4 2792   3.816   3.103   1.068 -0.1628  0.2785 -0.1431
    1SOL     OW 2793   3.606   3.228   1.242 -0.2583  0.2499  0.0304
    1SOL    HW2 2794   3.587   3.315   1.206 -0.5524  0.2026  0.0745
    1SOL    HW3 2795   3.671   3.191   1.182 -1.3653 -0.1627 -0.9157
    1SOL    MW4 2796   3.612   3.235   1.229 -0.4430  0.1893 -0.0887
    1SOL     OW 2797   3.619   3.465   1.089 -0.4154  0.3616 -0.4598
    1SOL    HW2 2798   3.684   3.525   1.127  0.0176 -0.8593  0.7483
    1SOL    HW3 2799   3.624   3.481   0.995  0.5906  1.3338 -0.2515
    1SOL    MW4 2800   3.629   3.475   1.082 -0.2255  0.3288 -0.2730
    1SOL     OW 2801   3.832   3.625   1.168 -0.0148 -0.2888  0.5486
    1SOL    HW2 2802   3.826   3.614   1.263  0.5495 -0.9064  0.5213
    1SOL    HW3 2803   3.821   3.719   1.153  0.1973 -0.1533  1.2504
    1SOL    MW4 2804   3.830   3.636   1.179  0.0875 -0.3526  0.6377
    1SOL     OW 2805   3.778   3.902   1.127  0.6150  0.1647  0.0229
    1SOL    HW2 2806   3.693   3.942   1.145 -0.8666 -2.4819 -0.7410
    1SOL    HW3 2807   3.779   3.890   1.032  0.8289 -1.9027  0.2563
    1SOL    MW4 2808   3.767   3.905   1.116  0.4478 -0.4570 -0.0471
    1SOL     OW 2809   3.524   4.007   1.206  0.3261  0.3885 -0.3901
    1SOL    HW2 2810   3.539   3.997   1.300 -1.5395  1.4168  0.0416
    1SOL    HW3 2811   3.444   3.959   1.189  0.4200  0.5735 -1.3857
    1SOL    MW4 2812   3.516   4.000   1.216  0.0923  0.5488 -0.4646
    1SOL     OW 2813   3.568   4.259   1.107 -0.0849 -0.2559  0.2579
    1SOL    HW2 2814   3.542   4.170   1.131  1.3632 -0.7116  0.1980
    1SOL    HW3 2815   3.587   4.255   1.013  0.3832  0.0200  0.3372
    1SOL    MW4 2816   3.567   4.247   1.097  0.1678 -0.2799  0.2606
    1SOL     OW 2817   3.799   4.364   1.213  0.6310  0.4074  0.2728
    1SOL    HW2 2818   3.799   4.343   1.307  2.5689 -0.6199  0.0673
    1SOL    HW3 2819   3.729   4.312   1.176 -0.7449  1.4995  1.2838
    1SOL    MW4 2820   3.790   4.354   1.221  0.7055  0.4158  0.3791
    1SOL     OW 2821   4.285   4.648   1.124  0.1663 -0.1425 -0.7376
    1SOL    HW2 2822   4.289   4.560   1.163  0.1954 -1.0636 -2.7535
    1SOL    HW3 2823   4.205   4.686   1.159 -0.1925 -1.2203 -0.3551
    1SOL    MW4 2824   4.275   4.641   1.134  0.1230 -0.4067 -0.9531
    1SOL     OW 2825   4.047   0.082   1.243  0.0673  0.4161  0.3578
    1SOL    HW2 2826   4.035   0.081   1.337 -0.1460 -0.1021  0.3258
    1SOL    HW3 2827   3.963   0.054   1.207 -0.1600  1.5643 -0.0170
    1SOL    MW4 2828   4.034   0.078   1.250  0.0095  0.4992  0.3041
    1SOL     OW 2829   4.027   0.334   1.122  0.4669 -0.1312  0.2397
    1SOL    HW2 2830   4.028   0.247   1.162  0.9188  0.2388  1.0482
    1SOL    HW3 2831   4.045   0.318   1.030  0.4748 -0.9012  0.3712
    1SOL    MW4 2832   4.029   0.321   1.115  0.5279 -0.1839  0.3637
    1SOL     OW 2833   4.199   0.530   1.218 -0.0385 -0.4243 -0.5599
    1SOL    HW2 2834   4.213   0.521   1.312 -1.0947  0.6914 -0.2663
    1SOL    HW3 2835   4.158   0.448   1.192 -1.3443 -0.0849  0.3126
    1SOL    MW4 2836   4.195   0.518   1.227 -0.3500 -0.2324 -0.4061
    1SOL     OW 2837   4.267   0.778   1.111  0.1062 -0.4147 -0.2456
    1SOL    HW2 2838   4.252   0.690   1.145  2.7081 -1.5268 -1.7674
    1SOL    HW3 2839   4.339   0.813   1.164 -0.4109  0.5294 -0.1426
    1SOL    MW4 2840   4.275   0.771   1.122  0.3810 -0.4370 -0.4327
    1SOL     OW 2841   4.043   0.891   1.204 -0.3577 -0.3786  0.2281
    1SOL    HW2 2842   4.051   0.900   1.299 -1.1017 -1.6140  0.4232
    1SOL    HW3 2843   4.122   0.843   1.178 -0.5936 -0.8453  0.3566
    1SOL    MW4 2844   4.055   0.885   1.213 -0.4864 -0.6031  0.2707
    1SOL     OW 2845   4.025   1.131   1.066  0.0379 -0.0861  0.2460
    1SOL    HW2 2846   4.035   1.044   1.104  2.3754 -0.1370 -0.4255
    1SOL    HW3 2847   3.956   1.172   1.118  0.3650 -1.5955  1.9077
    1SOL    MW4 2848   4.017   1.125   1.078  0.3891 -0.2919  0.3765
    1SOL     OW 2849   4.273   1.232   1.155 -0.3108 -0.3661 -0.1457
    1SOL    HW2 2850   4.276   1.237   1.250 -0.3178 -1.3556 -0.0878
    1SOL    HW3 2851   4.188   1.191   1.136  0.8204 -2.6238 -0.4629
    1SOL    MW4 2852   4.262   1.227   1.165 -0.1631 -0.7945 -0.1800
    1SOL     OW 2853   4.285   1.505   1.083 -0.0553 -0.0257  0.2860
    1SOL    HW2 2854   4.278   1.418   1.121  0.7931 -0.0614  0.3687
    1SOL    HW3 2855   4.357   1.546   1.131  0.8528  0.0244 -1.0941
    1SOL    MW4 2856   4.293   1.499   1.094  0.1760 -0.0238  0.1150
    1SOL     OW 2857   4.074   1.652   1.166 -0.2485 -0.1058 -0.1643
    1SOL    HW2 2858   4.077   1.644   1.261 -0.1298  1.8996  0.0073
    1SOL    HW3 2859   4.146   1.597   1.134 -1.5570 -2.4298  0.7770
    1SOL    MW4 2860   4.084   1.643   1.174 -0.4058 -0.1478 -0.0176
    1SOL     OW 2861   3.294   1.986   0.451 -0.2829  0.9003  0.1425
    1SOL    HW2 2862   3.334   2.047   0.388  1.2709 -0.6342 -0.4104
    1SOL    HW3 2863   3.340   1.904   0.436 -2.1500 -0.3353  1.0845
    1SOL    MW4 2864   3.305   1.984   0.441 -0.3242  0.5349  0.1938
    1SOL     OW 2865   4.297   2.018   1.188 -0.3215  0.3395  0.1088
    1SOL    HW2 2866   4.286   2.111   1.169  2.3418  0.9327  1.2373
    1SOL    HW3 2867   4.213   1.978   1.166 -1.8721  3.1880  0.6940
    1SOL    MW4 2868   4.285   2.025   1.183 -0.1750  0.7937  0.3350
    1SOL     OW 2869   4.244   2.275   1.129  0.2666  0.3021 -0.0488
    1SOL    HW2 2870   4.162   2.323   1.133  0.0919  0.0283 -0.2847
    1SOL    HW3 2871   4.279   2.295   1.042  0.7488  0.9056  0.2833
    1SOL    MW4 2872   4.238   2.284   1.118  0.3071  0.3457 -0.0361
    1SOL     OW 2873   4.018   2.435   1.181  0.5631 -0.2134  0.2096
    1SOL    HW2 2874   4.061   2.425   1.265 -0.2072  0.8021  0.7373
    1SOL    HW3 2875   4.030   2.528   1.158 -0.5537 -0.1209 -0.0534
    1SOL    MW4 2876   4.025   2.446   1.189  0.3142 -0.0672  0.2445
    1SOL     OW 2877   4.062   2.691   1.093 -0.4554 -0.2305  0.1071
    1SOL    HW2 2878   4.005   2.758   1.131 -0.9469 -0.0136 -0.9990
    1SOL    HW3 2879   4.047   2.698   0.999  0.9782 -0.5560 -0.1550
    1SOL    MW4 2880   4.052   2.701   1.086 -0.3319 -0.2449 -0.0734
    1SOL     OW 2881   4.306   2.838   1.144  0.2179  0.6547 -0.3300
    1SOL    HW2 2882   4.312   2.929   1.114 -0.2498  0.9724  0.5118
    1SOL    HW3 2883   4.233   2.801   1.094  0.9750  0.4715 -1.3234
    1SOL    MW4 2884   4.297   2.845   1.133  0.2561  0.6726 -0.3499
    1SOL     OW 2885   4.266   3.107   1.110 -0.0369  0.1023 -0.6222
    1SOL    HW2 2886   4.185   3.151   1.135  0.0318  0.2580 -0.6714
    1SOL    HW3 2887   4.272   3.121   1.015 -0.5289 -0.8736 -0.7993
    1SOL    MW4 2888   4.256   3.115   1.100 -0.0925 -0.0062 -0.6520
    1SOL     OW 2889   4.038   3.256   1.167  0.5074 -0.5384  0.4905
    1SOL    HW2 2890   4.014   3.258   1.260 -0.2310  0.8868  0.2739
    1SOL    HW3 2891   3.962   3.218   1.124  0.5116 -0.3920  0.3572
    1SOL    MW4 2892   4.025   3.251   1.174  0.4110 -0.3309  0.4444
    1SOL     OW 2893   4.062   3.508   1.059 -0.4126 -0.4991  0.2818
    1SOL    HW2 2894   4.058   3.420   1.097  0.0025 -0.3161  0.7585
    1SOL    HW3 2895   3.985   3.553   1.093 -0.5314 -0.6263  0.1793
    1SOL    MW4 2896   4.051   3.502   1.069 -0.3734 -0.4914  0.3312
    1SOL     OW 2897   4.274   3.609   1.226  0.0173 -0.3338  0.3584
    1SOL    HW2 2898   4.197   3.579   1.178 -0.5892  1.1977  0.3180
    1SOL    HW3 2899   4.347   3.563   1.186 -0.4091  1.3087 -2.4693
    1SOL    MW4 2900   4.274   3.599   1.214 -0.1192  0.0851 -0.0201
    1SOL     OW 2901   4.246   3.873   1.110 -0.1260  0.1231  0.1936
    1SOL    HW2 2902   4.165   3.898   1.155  1.0035 -0.1471  2.4424
    1SOL    HW3 2903   4.251   3.778   1.123 -0.2318 -0.0953 -1.3013
    1SOL    MW4 2904   4.236   3.864   1.118  0.0091  0.0587  0.2931
    1SOL     OW 2905   4.026   4.020   1.194 -0.0099  0.5276 -0.1529
    1SOL    HW2 2906   4.026   4.113   1.168 -0.8140  0.6603  0.3075
    1SOL    HW3 2907   3.939   3.989   1.168 -0.3332  0.3158  1.1697
    1SOL    MW4 2908   4.014   4.028   1.187 -0.1583  0.5169  0.0824
    1SOL     OW 2909   4.040   4.294   1.085  0.0515  0.0826 -0.1272
    1SOL    HW2 2910   3.957   4.326   1.118  0.5463  1.5347 -0.2611
    1SOL    HW3 2911   4.026   4.285   0.990 -0.0758 -0.0615 -0.0949
    1SOL    MW4 2912   4.027   4.297   1.077  0.1001  0.2556 -0.1408
    1SOL     OW 2913   4.256   4.403   1.236  0.6014  0.3040  0.2831
    1SOL    HW2 2914   4.186   4.378   1.175  1.6771  0.3575 -1.0069
    1SOL    HW3 2915   4.331   4.348   1.210  1.3433  0.9770  0.9589
    1SOL    MW4 2916   4.257   4.392   1.224  0.8416  0.4001  0.2021
    1SOL     OW 2917   0.253   4.637   1.621  0.0751 -0.1355 -0.8670
    1SOL    HW2 2918   0.327   4.686   1.586  0.1981  0.4060  0.1456
    1SOL    HW3 2919   0.176   4.684   1.588  0.1913  0.9347  0.3634
    1SOL    MW4 2920   0.253   4.650   1.612  0.1066  0.0771 -0.5713
    1SOL     OW 2921   0.050   0.124   1.513  0.2800 -0.3581  0.2301
    1SOL    HW2 2922  -0.029   0.089   1.556  0.5702 -0.5236  0.6321
    1SOL    HW3 2923   0.030   0.119   1.420 -0.4563  0.2246  0.3516
    1SOL    MW4 2924   0.037   0.119   1.507  0.2213 -0.3031  0.2992
    1SOL     OW 2925   4.469   0.367   1.588 -0.3739  0.1801 -0.5043
    1SOL    HW2 2926   4.488   0.370   1.682 -1.1326  0.2243 -0.3505
    1SOL    HW3 2927   4.489   0.277   1.562 -0.8319 -0.0214 -0.1582
    1SOL    MW4 2928   4.474   0.356   1.597 -0.5344  0.1594 -0.4383
    1SOL     OW 2929   0.200   0.491   1.477  0.0938  0.4614  0.0670
    1SOL    HW2 2930   0.111   0.462   1.497  0.1151  0.6423  0.4245
    1SOL    HW3 2931   0.201   0.499   1.382 -0.5129  1.2406  0.1227
    1SOL    MW4 2932   0.188   0.488   1.467  0.0166  0.5881  0.1217
    1SOL     OW 2933   0.208   0.762   1.577  0.1395  0.2991  0.1053
    1SOL    HW2 2934   0.192   0.673   1.547 -2.3786  1.1669 -1.2660
    1SOL    HW3 2935   0.282   0.793   1.525 -1.8805  0.5410 -2.7551
    1SOL    MW4 2936   0.216   0.755   1.566 -0.4592  0.4455 -0.4530
    1SOL     OW 2937   4.483   0.900   1.498 -0.2325 -0.4014  0.6223
    1SOL    HW2 2938   4.476   0.985   1.541 -0.1739  0.8091 -1.6693
    1SOL    HW3 2939   4.561   0.861   1.536  1.0326  1.5389  0.1196
    1SOL    MW4 2940   4.492   0.906   1.509 -0.0579  0.0144  0.2534
    1SOL     OW 2941   4.482   1.174   1.587 -0.1648 -0.2641  0.2170
    1SOL    HW2 2942   4.498   1.180   1.681 -0.7002 -1.6606  0.4090
    1SOL    HW3 2943   4.551   1.226   1.548  0.0202  0.3929  1.3920
    1SOL    MW4 2944   4.493   1.181   1.594 -0.2112 -0.3616  0.3973
    1SOL     OW 2945   0.210   1.269   1.455  0.1910  0.2816  0.3381
    1SOL    HW2 2946   0.293   1.229   1.481  0.7246  1.2230  0.1114
    1SOL    HW3 2947   0.217   1.360   1.483 -0.8603  0.3189  0.5190
    1SOL    MW4 2948   0.222   1.276   1.462  0.1227  0.4107  0.3320
    1SOL     OW 2949   0.224   1.527   1.570 -0.4676  0.4591  0.1543
    1SOL    HW2 2950   0.213   1.523   1.665 -1.0353  2.4621  0.2008
    1SOL    HW3 2951   0.155   1.586   1.540 -0.7968 -0.7827 -1.6084
    1SOL    MW4 2952   0.213   1.534   1.579 -0.5859  0.5596 -0.0721
    1SOL     OW 2953   0.002   1.644   1.472 -0.5020 -0.1931  0.1302
    1SOL    HW2 2954   0.001   1.735   1.500  1.8746 -0.0174 -0.2577
    1SOL    HW3 2955   0.001   1.648   1.376 -2.2949 -0.6329  0.1196
    1SOL    MW4 2956   0.002   1.656   1.463 -0.4250 -0.2278  0.0776
    1SOL     OW 2957   0.007   1.912   1.541  0.2080 -0.6910  0.6436
    1SOL    HW2 2958   0.005   1.904   1.636  0.4593  0.1943  0.7258
    1SOL    HW3 2959  -0.078   1.950   1.518  0.6937  0.4020  0.6423
    1SOL    MW4 2960  -0.005   1.916   1.551  0.3052 -0.4300  0.6542
    1SOL     OW 2961   0.214   2.061   1.451 -0.7142 -0.1664 -0.2976
    1SOL    HW2 2962   0.141   2.002   1.470 -0.5978 -0.0508  0.5315
    1SOL    HW3 2963   0.220   2.062   1.355  0.0218 -2.4000 -0.2913
    1SOL    MW4 2964   0.205   2.054   1.441 -0.6018 -0.4458 -0.1874
    1SOL     OW 2965   0.244   2.304   1.551 -0.2369  0.3311  0.3965
    1SOL    HW2 2966   0.228   2.298   1.645 -0.5070  0.4180  0.3550
    1SOL    HW3 2967   0.235   2.214   1.519  1.0038  0.1093  0.6382
    1SOL    MW4 2968   0.241   2.291   1.559 -0.1089  0.3133  0.4230
    1SOL     OW 2969   0.015   2.442   1.476 -0.1101 -0.5152  0.1580
    1SOL    HW2 2970  -0.065   2.398   1.506 -0.3022 -0.8094 -0.7560
    1SOL    HW3 2971   0.085   2.380   1.495 -0.2891 -0.9054 -0.4342
    1SOL    MW4 2972   0.013   2.428   1.482 -0.1590 -0.6056 -0.0407
    1SOL     OW 2973   4.485   2.678   1.618  0.3228 -0.1447 -0.5056
    1SOL    HW2 2974   4.419   2.703   1.552  0.0597 -0.3371 -0.3133
    1SOL    HW3 2975   4.517   2.593   1.589 -1.2286 -1.1528  0.7096
    1SOL    MW4 2976   4.481   2.670   1.605  0.0834 -0.3030 -0.3198
    1SOL     OW 2977   0.183   2.824   1.493 -0.2860  0.2689 -0.1599
    1SOL    HW2 2978   0.267   2.783   1.509 -0.1531  1.3331  2.0032
    1SOL    HW3 2979   0.120   2.770   1.540 -0.5851  0.4633 -0.3311
    1SOL    MW4 2980   0.185   2.812   1.501 -0.3079  0.4351  0.1029
    1SOL     OW 2981   0.206   3.081   1.594  0.1191 -0.3087  0.2494
    1SOL    HW2 2982   0.122   3.118   1.567  0.5028  1.6796  1.6523
    1SOL    HW3 2983   0.202   2.990   1.566 -1.2153  0.5481 -2.5601
    1SOL    MW4 2984   0.194   3.074   1.586 -0.0063  0.0665  0.0639
    1SOL     OW 2985   4.466   3.207   1.498  0.0168 -0.4605 -0.1375
    1SOL    HW2 2986   4.455   3.288   1.547 -0.3335 -0.6813  0.1538
    1SOL    HW3 2987   4.491   3.235   1.410 -0.3919 -0.0222 -0.1184
    1SOL    MW4 2988   4.468   3.222   1.493 -0.0830 -0.4318 -0.0966
    1SOL     OW 2989   4.478   3.465   1.607  0.0070 -0.0043  0.1239
    1SOL    HW2 2990   4.477   3.475   1.702 -0.1961  0.4239  0.0770
    1SOL    HW3 2991   4.407   3.521   1.577  1.9863  2.2305 -0.5305
    1SOL    MW4 2992   4.468   3.473   1.616  0.2413  0.3471  0.0314
    1SOL     OW 2993   0.221   3.610   1.490  0.3489 -0.2089  0.2690
    1SOL    HW2 2994   0.199   3.695   1.528 -0.9125  0.1909 -1.3021
    1SOL    HW3 2995   0.153   3.551   1.522  0.8495 -0.4907  0.8260
    1SOL    MW4 2996   0.209   3.613   1.499  0.2485 -0.1936  0.1353
    1SOL     OW 2997   0.215   3.865   1.591 -0.0728 -0.1768 -0.1364
    1SOL    HW2 2998   0.212   3.849   1.686  0.0110 -1.6303 -0.3761
    1SOL    HW3 2999   0.297   3.911   1.577  0.7096 -1.4282  0.2877
    1SOL    MW4 3000   0.225   3.869   1.602  0.0415 -0.5336 -0.1121
    1SOL     OW 3001   4.486   3.998   1.503  0.1180  0.2671 -0.2041
    1SOL    HW2 3002   4.507   4.079   1.550  0.5273  0.3573 -0.5352
    1SOL    HW3 3003   4.557   3.938   1.527  0.9452  0.6738 -1.5837
    1SOL    MW4 3004   4.498   4.000   1.513  0.2809  0.3328 -0.4299
    1SOL     OW 3005   0.010   4.247   1.604  0.5706  0.0563 -0.4496
    1SOL    HW2 3006   0.000   4.243   1.699  1.0649  1.0159 -0.3515
    1SOL    HW3 3007  -0.076   4.276   1.572  0.6983  0.7285 -0.2061
    1SOL    MW4 3008  -0.002   4.251   1.612  0.6526  0.2718 -0.4046
    1SOL     OW 3009   0.239   4.396   1.514 -0.3042 -0.2442 -0.1183
    1SOL    HW2 3010   0.157   4.359   1.547 -0.3252  0.1717  0.3006
    1SOL    HW3 3011   0.248   4.479   1.560  0.5173 -0.4372  0.0881
    1SOL    MW4 3012   0.229   4.402   1.525 -0.1986 -0.2151 -0.0358
    1SOL     OW 3013   0.701   4.623   1.592 -0.3116 -0.0215  0.1737
    1SOL    HW2 3014   0.768   4.688   1.571 -1.0842  0.4475 -0.8488
    1SOL    HW3 3015   0.619   4.665   1.568 -0.9937 -0.5356  1.5689
    1SOL    MW4 3016   0.699   4.637   1.586 -0.5035 -0.0272  0.2229
    1SOL     OW 3017   0.472   0.086   1.494 -0.0947  0.0931  0.1767
    1SOL    HW2 3018   0.479   0.178   1.520  0.2899 -0.4107  1.9287
    1SOL    HW3 3019   0.473   0.088   1.398 -0.5501  1.9409  0.1891
    1SOL    MW4 3020   0.473   0.099   1.484 -0.1041  0.2704  0.4095
    1SOL     OW 3021   0.436   0.357   1.562  0.0193 -0.3704  0.0110
    1SOL    HW2 3022   0.512   0.403   1.526  0.1909 -0.1576  0.6359
    1SOL    HW3 3023   0.361   0.405   1.528  0.2291  1.9309  2.6650
    1SOL    MW4 3024   0.436   0.369   1.553  0.0696 -0.0387  0.4433
    1SOL     OW 3025   0.663   0.509   1.474  0.2469  0.1059  0.1129
    1SOL    HW2 3026   0.643   0.593   1.514  0.5135 -0.4793  1.5059
    1SOL    HW3 3027   0.662   0.526   1.379 -1.5937  1.2360  0.3169
    1SOL    MW4 3028   0.660   0.522   1.466  0.0392  0.1778  0.3237
    1SOL     OW 3029   0.664   0.787   1.566  0.1773 -0.6678  0.6131
    1SOL    HW2 3030   0.663   0.806   1.660 -1.3798  0.2293  0.4242
    1SOL    HW3 3031   0.746   0.826   1.535  1.5622 -2.4480  1.8674
    1SOL    MW4 3032   0.675   0.795   1.574  0.1546 -0.7842  0.7536
    1SOL     OW 3033   0.437   0.919   1.460  0.4327  0.3363  0.0407
    1SOL    HW2 3034   0.448   1.010   1.489  0.4335  1.0414 -2.0424
    1SOL    HW3 3035   0.520   0.877   1.484  0.5648  0.9708  0.7260
    1SOL    MW4 3036   0.450   0.925   1.467  0.4502  0.5131 -0.1436
    1SOL     OW 3037   0.463   1.178   1.558 -0.0054  0.2625  0.2093
    1SOL    HW2 3038   0.546   1.219   1.533 -0.1953 -0.1419 -1.1519
    1SOL    HW3 3039   0.453   1.198   1.651  1.3895  0.7093  0.2773
    1SOL    MW4 3040   0.473   1.186   1.567  0.1536  0.2680  0.0387
    1SOL     OW 3041   0.690   1.311   1.462 -0.5427 -0.0519  0.2019
    1SOL    HW2 3042   0.694   1.405   1.479  0.3070 -0.2990  1.3726
    1SOL    HW3 3043   0.696   1.304   1.366  1.7581  0.9604  0.2551
    1SOL    MW4 3044   0.691   1.322   1.451 -0.1270  0.0491  0.3635
    1SOL     OW 3045   0.741   1.563   1.548 -0.2105  0.2049 -0.1324
    1SOL    HW2 3046   0.798   1.639   1.536 -0.4128  0.6632  1.6286
    1SOL    HW3 3047   0.653   1.595   1.525  0.0467 -0.1480 -1.6233
    1SOL    MW4 3048   0.737   1.577   1.543 -0.2033  0.2186 -0.0969
    1SOL     OW 3049   0.441   1.643   1.460 -0.3684 -0.5988 -0.2858
    1SOL    HW2 3050   0.439   1.729   1.502  1.2194 -0.2288 -0.9546
    1SOL    HW3 3051   0.359   1.602   1.487 -0.4114  0.5061  1.3404
    1SOL    MW4 3052   0.430   1.649   1.469 -0.1646 -0.4042 -0.1594
    1SOL     OW 3053   0.463   1.905   1.572 -0.3511  0.1800 -0.0216
    1SOL    HW2 3054   0.465   1.919   1.667  0.2773  1.0045 -0.1424
    1SOL    HW3 3055   0.392   1.961   1.541 -1.1445 -0.7787  0.0631
    1SOL    MW4 3056   0.454   1.915   1.580 -0.3729  0.1624 -0.0263
    1SOL     OW 3057   0.686   2.041   1.490  0.2551  0.2241 -0.4481
    1SOL    HW2 3058   0.766   2.015   1.536  0.3371 -0.5311 -0.9972
    1SOL    HW3 3059   0.620   1.979   1.521 -0.4202  1.5561  0.8771
    1SOL    MW4 3060   0.688   2.029   1.500  0.1769  0.3002 -0.3457
    1SOL     OW 3061   0.660   2.305   1.571 -0.1475 -0.2338 -0.0710
    1SOL    HW2 3062   0.595   2.347   1.515  1.9888  2.1106 -0.8887
    1SOL    HW3 3063   0.663   2.214   1.541  0.1893  0.7132 -3.1172
    1SOL    MW4 3064   0.652   2.299   1.560  0.1788  0.2005 -0.5807
    1SOL     OW 3065   0.463   2.435   1.441  0.1724  0.0441 -0.0871
    1SOL    HW2 3066   0.454   2.523   1.478  0.3541 -0.2564  0.6665
    1SOL    HW3 3067   0.393   2.384   1.481 -0.4836  0.0584 -1.1857
    1SOL    MW4 3068   0.453   2.440   1.451  0.1098  0.0062 -0.1327
    1SOL     OW 3069   0.439   2.702   1.542  0.1499 -0.3966 -0.6771
    1SOL    HW2 3070   0.432   2.706   1.638 -0.7327 -0.6476 -0.7228
    1SOL    HW3 3071   0.515   2.755   1.521  1.2997 -1.6084  0.2894
    1SOL    MW4 3072   0.448   2.709   1.552  0.1851 -0.5894 -0.5558
    1SOL     OW 3073   0.664   2.858   1.498 -0.9799  0.2473 -0.2894
    1SOL    HW2 3074   0.676   2.950   1.520  1.1760 -0.0819  0.0707
    1SOL    HW3 3075   0.742   2.815   1.534 -1.6951 -1.6274 -0.9287
    1SOL    MW4 3076   0.676   2.864   1.505 -0.7898 -0.0436 -0.3262
    1SOL     OW 3077   0.697   3.118   1.575  0.0491 -0.4997 -0.3434
    1SOL    HW2 3078   0.766   3.176   1.544 -0.0472  0.3419  0.9845
    1SOL    HW3 3079   0.615   3.162   1.551 -0.0240 -0.6056 -0.2940
    1SOL    MW4 3080   0.695   3.131   1.568  0.0268 -0.4027 -0.1616
    1SOL     OW 3081   0.441   3.211   1.509  0.5339 -0.2995 -0.3412
    1SOL    HW2 3082   0.372   3.150   1.537  0.8315 -0.1430  0.7743
    1SOL    HW3 3083   0.430   3.218   1.414 -0.3231 -1.0868 -0.3093
    1SOL    MW4 3084   0.430   3.204   1.500  0.4601 -0.3827 -0.1898
    1SOL     OW 3085   0.449   3.474   1.592  0.0751  0.6899  0.0338
    1SOL    HW2 3086   0.437   3.385   1.559 -0.3131  0.2572  1.3428
    1SOL    HW3 3087   0.371   3.522   1.563 -1.0555 -0.1059  1.6935
    1SOL    MW4 3088   0.438   3.469   1.584 -0.1253  0.5276  0.4256
    1SOL     OW 3089   0.671   3.592   1.482 -0.2063  0.1700  0.5095
    1SOL    HW2 3090   0.748   3.553   1.524 -0.4179  0.0560  0.7891
    1SOL    HW3 3091   0.597   3.543   1.517 -0.4049  0.2438  0.1991
    1SOL    MW4 3092   0.672   3.580   1.492 -0.2604  0.1647  0.5056
    1SOL     OW 3093   0.659   3.845   1.604  0.2452  0.0411 -0.2431
    1SOL    HW2 3094   0.740   3.891   1.585  0.8594 -0.5708  0.8326
    1SOL    HW3 3095   0.661   3.768   1.547  0.6450 -0.2157  0.1151
    1SOL    MW4 3096   0.670   3.841   1.594  0.3790 -0.0734 -0.0538
    1SOL     OW 3097   0.452   4.007   1.545  0.2276  0.4823 -0.3245
    1SOL    HW2 3098   0.529   3.951   1.558 -0.3669 -0.4717 -0.7846
    1SOL    HW3 3099   0.441   4.010   1.450 -0.7335 -0.0164 -0.2446
    1SOL    MW4 3100   0.461   4.000   1.534  0.0224  0.2909 -0.3747
    1SOL     OW 3101   0.444   4.263   1.650  0.0613  0.1069 -0.1217
    1SOL    HW2 3102   0.442   4.171   1.621  0.3726  0.5346 -1.5358
    1SOL    HW3 3103   0.365   4.302   1.613  0.3816  0.6229 -0.2720
    1SOL    MW4 3104   0.434   4.256   1.641  0.1446  0.2313 -0.3281
    1SOL     OW 3105   0.648   4.367   1.487  0.1842  0.9028 -0.5446
    1SOL    HW2 3106   0.581   4.332   1.546  0.4815  1.2779  0.0199
    1SOL    HW3 3107   0.669   4.453   1.524  0.2532  1.2105 -1.2924
    1SOL    MW4 3108   0.642   4.374   1.500  0.2325  0.9928 -0.5687
    1SOL     OW 3109   1.113   4.632   1.607 -0.3611 -0.2441 -0.2629
    1SOL    HW2 3110   1.120   4.603   1.698  0.9833 -0.3110 -0.3671
    1SOL    HW3 3111   1.186   4.693   1.596 -1.4332  0.9462 -0.8771
    1SOL    MW4 3112   1.124   4.636   1.617 -0.3252 -0.0958 -0.3575
    1SOL     OW 3113   0.901   0.132   1.515  0.4349  0.3802  0.1494
    1SOL    HW2 3114   0.919   0.223   1.540  2.1111  0.1618 -0.1967
    1SOL    HW3 3115   0.959   0.080   1.570 -0.3508 -0.4640  0.1776
    1SOL    MW4 3116   0.911   0.137   1.525  0.5524  0.2400  0.1075
    1SOL     OW 3117   0.905   0.413   1.600  0.1684  0.1605  0.2643
    1SOL    HW2 3118   0.903   0.405   1.696 -0.3817 -1.4665  0.1300
    1SOL    HW3 3119   0.823   0.457   1.579 -0.0399 -0.1093  0.4970
    1SOL    MW4 3120   0.894   0.418   1.610  0.0683 -0.0898  0.2773
    1SOL     OW 3121   1.111   0.518   1.465  0.5817 -0.0241  0.3069
    1SOL    HW2 3122   1.114   0.603   1.511  2.4655 -0.4698  1.0500
    1SOL    HW3 3123   1.034   0.475   1.500  0.2877  0.8997  0.8231
    1SOL    MW4 3124   1.101   0.524   1.476  0.7915  0.0390  0.4730
    1SOL     OW 3125   1.090   0.768   1.591 -0.5998 -0.0597 -0.0948
    1SOL    HW2 3126   1.077   0.768   1.686  0.1532 -0.3007  0.0066
    1SOL    HW3 3127   1.171   0.817   1.577  0.8638 -2.4736 -0.3885
    1SOL    MW4 3128   1.099   0.774   1.602 -0.3073 -0.4099 -0.1202
    1SOL     OW 3129   0.897   0.917   1.485 -0.5769 -0.3635  0.0783
    1SOL    HW2 3130   0.961   0.857   1.525 -0.4361 -0.3542 -0.1282
    1SOL    HW3 3131   0.907   0.902   1.391 -0.3760  0.1478  0.0141
    1SOL    MW4 3132   0.907   0.907   1.478 -0.5318 -0.2947  0.0427
    1SOL     OW 3133   0.913   1.166   1.587 -0.5222 -0.0174 -0.1138
    1SOL    HW2 3134   0.912   1.078   1.549 -0.4762 -0.3895  0.7389
    1SOL    HW3 3135   0.840   1.211   1.545 -1.9199 -1.1525  1.0208
    1SOL    MW4 3136   0.903   1.160   1.577 -0.7005 -0.2162  0.1483
    1SOL     OW 3137   1.112   1.318   1.490  0.2307 -0.0008  0.4465
    1SOL    HW2 3138   1.191   1.272   1.519  0.9710  1.1166  0.2522
    1SOL    HW3 3139   1.040   1.268   1.527  1.0038 -1.4469  0.0437
    1SOL    MW4 3140   1.113   1.305   1.498  0.4303 -0.0442  0.3678
    1SOL     OW 3141   1.100   1.563   1.589 -0.0363  0.3933 -0.1511
    1SOL    HW2 3142   1.192   1.585   1.572  0.2101  0.8146  1.5859
    1SOL    HW3 3143   1.085   1.482   1.541  1.1133  0.5653 -0.8135
    1SOL    MW4 3144   1.110   1.555   1.580  0.1478  0.4716 -0.0092
    1SOL     OW 3145   0.916   1.749   1.489 -0.2777  0.2950  0.1859
    1SOL    HW2 3146   0.986   1.698   1.529 -0.4647  0.1419  0.3170
    1SOL    HW3 3147   0.930   1.739   1.395 -0.0520  0.3627  0.2130
    1SOL    MW4 3148   0.927   1.741   1.482 -0.2725  0.2837  0.2068
    1SOL     OW 3149   0.939   1.997   1.617  0.4001 -0.4010 -0.0253
    1SOL    HW2 3150   1.017   2.034   1.574  1.3788 -1.6011  0.6867
    1SOL    HW3 3151   0.923   1.915   1.571  0.1595 -0.6476  0.5020
    1SOL    MW4 3152   0.948   1.991   1.605  0.4975 -0.5919  0.1382
    1SOL     OW 3153   1.139   2.114   1.478 -0.1763  0.0286  0.8141
    1SOL    HW2 3154   1.201   2.057   1.523  0.8558 -0.2988 -0.9599
    1SOL    HW3 3155   1.155   2.201   1.514  1.6779  0.0315  0.0307
    1SOL    MW4 3156   1.149   2.118   1.489  0.2044 -0.0141  0.4766
    1SOL     OW 3157   1.140   2.358   1.635 -0.0473 -0.4979  0.2678
    1SOL    HW2 3158   1.208   2.410   1.592  0.9336 -2.4768 -0.5869
    1SOL    HW3 3159   1.059   2.383   1.591  0.6073 -0.6960 -1.0678
    1SOL    MW4 3160   1.138   2.368   1.624  0.1684 -0.7851 -0.0212
    1SOL     OW 3161   0.910   2.452   1.516 -0.3385 -0.0508  0.6758
    1SOL    HW2 3162   0.903   2.456   1.420  0.8119 -0.3918  0.5608
    1SOL    HW3 3163   0.836   2.399   1.544  0.0120 -0.9872 -0.1328
    1SOL    MW4 3164   0.900   2.446   1.507 -0.1405 -0.2193  0.5538
    1SOL     OW 3165   0.876   2.725   1.591  0.0264 -0.2688  0.3866
    1SOL    HW2 3166   0.908   2.720   1.681  0.4762  0.9155  0.2925
    1SOL    HW3 3167   0.896   2.639   1.554  1.9623  0.0227  0.7127
    1SOL    MW4 3168   0.882   2.713   1.598  0.3412 -0.0739  0.4172
    1SOL     OW 3169   1.138   2.806   1.495  0.0343  0.2390  0.0268
    1SOL    HW2 3170   1.131   2.901   1.500  0.3777  0.3398 -1.2974
    1SOL    HW3 3171   1.057   2.774   1.534 -0.5552  1.0967 -0.4779
    1SOL    MW4 3172   1.127   2.814   1.501  0.0018  0.3653 -0.2145
    1SOL     OW 3173   1.136   3.077   1.552 -0.2656  0.1248 -0.0336
    1SOL    HW2 3174   1.147   3.075   1.647 -0.3148 -1.8010 -0.0447
    1SOL    HW3 3175   1.208   3.131   1.521 -0.2265  0.7455  1.1012
    1SOL    MW4 3176   1.147   3.084   1.561 -0.2668 -0.0477  0.1148
    1SOL     OW 3177   0.927   3.240   1.493 -0.5543  0.4110 -0.0027
    1SOL    HW2 3178   0.990   3.178   1.530  0.3343  1.1211 -0.3188
    1SOL    HW3 3179   0.944   3.239   1.399 -1.5333  0.0318 -0.1788
    1SOL    MW4 3180   0.938   3.232   1.485 -0.5662  0.4544 -0.0676
    1SOL     OW 3181   0.907   3.492   1.582  0.3231 -0.4918 -0.3418
    1SOL    HW2 3182   0.985   3.534   1.545  0.0462 -0.6546 -1.1064
    1SOL    HW3 3183   0.905   3.405   1.543 -1.1095  0.0592 -1.5356
    1SOL    MW4 3184   0.917   3.486   1.572  0.0976 -0.4406 -0.6003
    1SOL     OW 3185   1.151   3.607   1.473  0.1938  0.1479 -0.0258
    1SOL    HW2 3186   1.225   3.563   1.515 -0.0405  0.4301  0.6870
    1SOL    HW3 3187   1.167   3.596   1.379  1.2094  0.3127  0.1163
    1SOL    MW4 3188   1.163   3.600   1.466  0.2968  0.2067  0.0869
    1SOL     OW 3189   1.129   3.856   1.611 -0.5106 -0.3069 -0.1055
    1SOL    HW2 3190   1.205   3.906   1.581  0.2348 -0.4718  1.4476
    1SOL    HW3 3191   1.143   3.768   1.577  0.2357 -0.4511  0.5729
    1SOL    MW4 3192   1.141   3.851   1.603 -0.3138 -0.3476  0.1891
    1SOL     OW 3193   0.889   3.985   1.534  0.2266  0.3283 -0.4755
    1SOL    HW2 3194   0.909   4.078   1.549  0.0753  0.2745  0.0784
    1SOL    HW3 3195   0.960   3.938   1.578  0.3070  0.1835 -0.7628
    1SOL    MW4 3196   0.901   3.991   1.542  0.2173  0.3018 -0.4402
    1SOL     OW 3197   0.908   4.264   1.571  0.1959  0.2710 -0.1236
    1SOL    HW2 3198   0.907   4.266   1.667 -0.2595 -0.7135 -0.1028
    1SOL    HW3 3199   0.822   4.297   1.546 -0.3796 -1.2390 -0.1523
    1SOL    MW4 3200   0.896   4.269   1.580  0.0599 -0.0582 -0.1246
    1SOL     OW 3201   1.132   4.402   1.477  0.2316  0.1568 -0.2806
    1SOL    HW2 3202   1.049   4.361   1.503 -0.2771  0.3078 -1.5940
    1SOL    HW3 3203   1.128   4.490   1.515 -0.0307  0.0253 -0.0026
    1SOL    MW4 3204   1.120   4.408   1.485  0.1298  0.1597 -0.4171
    1SOL     OW 3205   1.594   4.664   1.623  0.1230  0.4428  0.3879
    1SOL    HW2 3206   1.612   4.671   1.717 -1.0549 -1.1849  0.7506
    1SOL    HW3 3207   1.503   4.693   1.614 -0.7309 -2.1275  0.1907
    1SOL    MW4 3208   1.584   4.669   1.634 -0.1451 -0.1111  0.4097
    1SOL     OW 3209   1.353   0.122   1.564  0.1852 -0.6573  0.3032
    1SOL    HW2 3210   1.339   0.215   1.581 -0.5971 -0.8693  0.8396
    1SOL    HW3 3211   1.350   0.115   1.469 -0.7852 -0.2933  0.3020
    1SOL    MW4 3212   1.351   0.134   1.554 -0.0461 -0.6372  0.3738
    1SOL     OW 3213   1.322   0.389   1.630 -0.4315 -0.3911  0.0446
    1SOL    HW2 3214   1.406   0.420   1.595 -0.5252  0.3720  0.4702
    1SOL    HW3 3215   1.256   0.433   1.577 -0.5641 -0.2199  0.3496
    1SOL    MW4 3216   1.324   0.399   1.618 -0.4615 -0.2678  0.1409
    1SOL     OW 3217   1.568   0.479   1.525 -0.3151  0.7881 -0.0582
    1SOL    HW2 3218   1.642   0.422   1.546 -1.6621 -0.7030  0.7729
    1SOL    HW3 3219   1.580   0.502   1.433  0.4204 -0.6211 -0.3250
    1SOL    MW4 3220   1.579   0.475   1.515 -0.3958  0.4054  0.0161
    1SOL     OW 3221   1.489   0.738   1.611  0.4955  0.0859  0.0064
    1SOL    HW2 3222   1.510   0.740   1.705 -0.2415  0.0211  0.1765
    1SOL    HW3 3223   1.497   0.646   1.587 -2.3581 -0.4045  0.7279
    1SOL    MW4 3224   1.493   0.726   1.620  0.0217  0.0126  0.1240
    1SOL     OW 3225   1.307   0.916   1.505 -0.4322  0.3260 -0.4095
    1SOL    HW2 3226   1.376   0.857   1.534 -2.1613 -1.3632  0.3684
    1SOL    HW3 3227   1.309   0.911   1.409  0.0129 -0.3214 -0.3685
    1SOL    MW4 3228   1.316   0.908   1.496 -0.6018  0.0177 -0.3014
    1SOL     OW 3229   1.320   1.186   1.600  0.2371  0.1804  0.0120
    1SOL    HW2 3230   1.357   1.195   1.688  0.8005  1.5475 -0.3583
    1SOL    HW3 3231   1.307   1.092   1.589  0.3926 -0.0164  1.4687
    1SOL    MW4 3232   1.323   1.175   1.610  0.3319  0.3347  0.1553
    1SOL     OW 3233   1.578   1.277   1.521 -0.0940  0.0995 -0.0825
    1SOL    HW2 3234   1.498   1.230   1.543 -0.0589  0.3030  0.4973
    1SOL    HW3 3235   1.648   1.219   1.552 -0.0562  0.6693  0.9387
    1SOL    MW4 3236   1.577   1.263   1.528 -0.0844  0.2015  0.1287
    1SOL     OW 3237   1.607   1.538   1.605 -0.0653 -0.2723 -0.2669
    1SOL    HW2 3238   1.610   1.527   1.700 -0.3680 -1.4462 -0.3900
    1SOL    HW3 3239   1.589   1.450   1.571  1.7716 -0.1940 -1.5118
    1SOL    MW4 3240   1.605   1.525   1.613  0.1372 -0.4169 -0.4474
    1SOL     OW 3241   1.362   1.656   1.509  0.5184 -0.0756  0.2132
    1SOL    HW2 3242   1.445   1.615   1.535  0.1953  0.1198  1.5611
    1SOL    HW3 3243   1.371   1.669   1.414  2.0214 -0.0633  0.3443
    1SOL    MW4 3244   1.374   1.652   1.500  0.6741 -0.0483  0.4084
    1SOL     OW 3245   1.365   1.932   1.581 -0.1922 -0.5820  0.0618
    1SOL    HW2 3246   1.353   1.950   1.674  0.2434  0.6738 -0.1035
    1SOL    HW3 3247   1.361   1.837   1.573 -1.3935 -0.6358  1.1923
    1SOL    MW4 3248   1.363   1.922   1.592 -0.2931 -0.4234  0.1892
    1SOL     OW 3249   1.589   2.071   1.511 -0.0889  0.1664  0.2532
    1SOL    HW2 3250   1.513   2.015   1.525  0.4336 -0.5220  0.3962
    1SOL    HW3 3251   1.581   2.101   1.420 -0.4946  0.0478  0.2520
    1SOL    MW4 3252   1.578   2.068   1.501 -0.0736  0.0598  0.2719
    1SOL     OW 3253   1.575   2.353   1.615 -0.0731  0.1735 -0.1301
    1SOL    HW2 3254   1.652   2.374   1.562  0.4908 -0.4827  0.4235
    1SOL    HW3 3255   1.559   2.260   1.598 -0.7344  0.3069 -0.2361
    1SOL    MW4 3256   1.583   2.343   1.606 -0.0859  0.1047 -0.0710
    1SOL     OW 3257   1.368   2.469   1.471  0.3045 -0.0932 -0.5297
    1SOL    HW2 3258   1.367   2.550   1.522  1.1320 -0.2919 -0.1883
    1SOL    HW3 3259   1.437   2.417   1.511 -0.4547 -1.1144 -0.5268
    1SOL    MW4 3260   1.377   2.473   1.483  0.3135 -0.2542 -0.4843
    1SOL     OW 3261   1.347   2.704   1.622 -0.4439  0.3105  0.5446
    1SOL    HW2 3262   1.424   2.752   1.592 -0.6481 -0.1385 -0.7684
    1SOL    HW3 3263   1.273   2.755   1.588 -0.6786 -0.2465  0.2059
    1SOL    MW4 3264   1.347   2.717   1.613 -0.5019  0.1781  0.3265
    1SOL     OW 3265   1.557   2.831   1.498  0.1894  0.0861 -0.5226
    1SOL    HW2 3266   1.636   2.784   1.523  0.4241  0.5119 -0.4525
    1SOL    HW3 3267   1.550   2.820   1.403 -0.9068 -1.8552 -0.2464
    1SOL    MW4 3268   1.566   2.823   1.489  0.0757 -0.1137 -0.4770
    1SOL     OW 3269   1.574   3.101   1.551 -0.2641  0.1249  0.1268
    1SOL    HW2 3270   1.649   3.136   1.504 -0.5385  0.6520  0.0694
    1SOL    HW3 3271   1.578   3.007   1.536  1.3983 -0.0599  1.6329
    1SOL    MW4 3272   1.584   3.093   1.542 -0.0812  0.1700  0.3179
    1SOL     OW 3273   1.373   3.235   1.424 -0.6049  0.2652 -0.0783
    1SOL    HW2 3274   1.372   3.319   1.468 -0.8092 -0.5245  1.4533
    1SOL    HW3 3275   1.441   3.185   1.469 -0.0680 -0.1935 -1.3598
    1SOL    MW4 3276   1.382   3.239   1.435 -0.5610  0.1004 -0.0453
    1SOL     OW 3277   1.381   3.462   1.594  0.0355  0.2108  0.2578
    1SOL    HW2 3278   1.382   3.450   1.689 -0.7866  0.2468  0.2743
    1SOL    HW3 3279   1.453   3.522   1.577  0.4713 -0.1444  0.8108
    1SOL    MW4 3280   1.391   3.468   1.604 -0.0155  0.1688  0.3330
    1SOL     OW 3281   1.602   3.616   1.543  0.2193  0.0021 -0.3005
    1SOL    HW2 3282   1.605   3.701   1.587 -0.7403  0.1265 -0.4535
    1SOL    HW3 3283   1.585   3.637   1.451 -0.6901 -0.3807 -0.2253
    1SOL    MW4 3284   1.600   3.630   1.536 -0.0273 -0.0322 -0.3108
    1SOL     OW 3285   1.586   3.883   1.643  0.0311 -0.3993  0.1416
    1SOL    HW2 3286   1.567   3.878   1.736 -0.4967 -1.6937 -0.0259
    1SOL    HW3 3287   1.506   3.918   1.603 -0.4649 -1.7324 -0.0522
    1SOL    MW4 3288   1.573   3.887   1.650 -0.1040 -0.7460  0.0938
    1SOL     OW 3289   1.355   4.000   1.532  0.4881 -0.1648  0.0904
    1SOL    HW2 3290   1.362   4.092   1.556  0.2101 -0.5260  1.5986
    1SOL    HW3 3291   1.373   3.998   1.438 -0.2317  1.5167 -0.0934
    1SOL    MW4 3292   1.359   4.012   1.522  0.3566  0.0091  0.2652
    1SOL     OW 3293   1.361   4.263   1.605  0.4919  0.1765 -0.0751
    1SOL    HW2 3294   1.431   4.307   1.557 -0.0072  2.7322  1.4485
    1SOL    HW3 3295   1.281   4.292   1.562  0.1058  1.6156  1.5609
    1SOL    MW4 3296   1.360   4.273   1.593  0.3752  0.7033  0.3418
    1SOL     OW 3297   1.590   4.416   1.537  0.1052  0.1963 -0.4115
    1SOL    HW2 3298   1.662   4.369   1.579 -1.7093  0.0639  2.7046
    1SOL    HW3 3299   1.605   4.508   1.560 -0.1200  0.2994 -0.6810
    1SOL    MW4 3300   1.601   4.422   1.546 -0.1639  0.1926 -0.0359
    1SOL     OW 3301   2.076   4.636   1.605 -0.0988 -0.1378 -0.0243
    1SOL    HW2 3302   2.074   4.625   1.700 -0.6585 -0.4745 -0.0746
    1SOL    HW3 3303   2.001   4.691   1.584  1.5918  2.2620  0.0112
    1SOL    MW4 3304   2.066   4.642   1.614  0.0501  0.1345 -0.0263
    1SOL     OW 3305   1.848   0.087   1.495 -0.4985 -0.2855 -0.1836
    1SOL    HW2 3306   1.761   0.061   1.527 -0.5586  0.8193  0.5834
    1SOL    HW3 3307   1.838   0.088   1.399 -1.0164 -1.2272 -0.1477
    1SOL    MW4 3308   1.835   0.084   1.486 -0.5747 -0.2640 -0.0776
    1SOL     OW 3309   1.809   0.352   1.597  0.6764 -0.1514  0.2706
    1SOL    HW2 3310   1.875   0.406   1.553  0.9127 -1.1753 -0.6360
    1SOL    HW3 3311   1.827   0.263   1.569 -1.7667 -0.3353 -0.8632
    1SOL    MW4 3312   1.820   0.347   1.587  0.3853 -0.3108  0.0013
    1SOL     OW 3313   2.015   0.520   1.478  0.4753 -0.5309 -0.2277
    1SOL    HW2 3314   2.094   0.480   1.517  0.4493 -0.4615 -0.1019
    1SOL    HW3 3315   2.011   0.607   1.518  0.9205 -0.1353 -1.0241
    1SOL    MW4 3316   2.025   0.526   1.489  0.5302 -0.4696 -0.3160
    1SOL     OW 3317   2.017   0.782   1.576  0.6127 -0.2749 -0.0444
    1SOL    HW2 3318   2.017   0.769   1.671 -0.3178  0.4915  0.0740
    1SOL    HW3 3319   1.931   0.821   1.558  1.0557  0.2052 -1.1185
    1SOL    MW4 3320   2.006   0.785   1.586  0.5484 -0.1105 -0.1705
    1SOL     OW 3321   1.741   0.862   1.511 -0.1116  0.0728  0.1655
    1SOL    HW2 3322   1.751   0.946   1.555 -1.0395  0.2205  0.1014
    1SOL    HW3 3323   1.656   0.828   1.541 -0.2320 -0.3457 -0.6142
    1SOL    MW4 3324   1.731   0.869   1.520 -0.2497  0.0370  0.0542
    1SOL     OW 3325   1.760   1.112   1.630 -0.9787  0.0695 -0.1435
    1SOL    HW2 3326   1.845   1.149   1.607 -1.3773  0.4805 -0.9522
    1SOL    HW3 3327   1.755   1.123   1.725 -1.0178  1.9410 -0.3411
    1SOL    MW4 3328   1.771   1.119   1.640 -1.0364  0.3707 -0.2763
    1SOL     OW 3329   2.008   1.242   1.520  0.2558 -0.1205  0.0274
    1SOL    HW2 3330   2.041   1.323   1.560  0.9475 -0.5287  0.2975
    1SOL    HW3 3331   2.019   1.256   1.426 -1.1122  0.7312 -0.0218
    1SOL    MW4 3332   2.014   1.255   1.513  0.1664 -0.0621  0.0565
    1SOL     OW 3333   2.038   1.512   1.623  0.3255 -0.2438 -0.0114
    1SOL    HW2 3334   2.119   1.557   1.600  0.1826  1.0440  1.9158
    1SOL    HW3 3335   1.969   1.567   1.588  0.2159 -0.1357  0.3739
    1SOL    MW4 3336   2.040   1.525   1.615  0.2921 -0.0596  0.2939
    1SOL     OW 3337   1.834   1.672   1.514  0.2044  0.4036  0.3559
    1SOL    HW2 3338   1.759   1.622   1.547  0.0515  0.8276  0.6415
    1SOL    HW3 3339   1.822   1.674   1.419  0.1391  0.0126  0.3560
    1SOL    MW4 3340   1.823   1.665   1.505  0.1756  0.4078  0.3936
    1SOL     OW 3341   1.827   1.954   1.614  0.0823  0.1547  0.7556
    1SOL    HW2 3342   1.822   1.859   1.602  0.2308  0.1130  1.0107
    1SOL    HW3 3343   1.739   1.985   1.592  0.2582  0.0522 -0.1060
    1SOL    MW4 3344   1.815   1.945   1.610  0.1251  0.1358  0.6756
    1SOL     OW 3345   2.062   2.061   1.468 -0.2462 -0.0594 -0.3485
    1SOL    HW2 3346   2.139   2.021   1.508  0.0117  1.3344  0.6070
    1SOL    HW3 3347   1.989   2.009   1.501  0.2227 -0.9279 -0.6606
    1SOL    MW4 3348   2.063   2.049   1.478 -0.1504  0.0100 -0.2636
    1SOL     OW 3349   2.039   2.322   1.571 -0.1917  0.4070 -0.2023
    1SOL    HW2 3350   2.029   2.325   1.666 -0.2933 -2.2351 -0.0898
    1SOL    HW3 3351   2.048   2.229   1.551  1.9035  1.0620 -2.5658
    1SOL    MW4 3352   2.039   2.310   1.581  0.0715  0.1447 -0.4992
    1SOL     OW 3353   1.813   2.429   1.458  0.0585 -0.0982 -0.1079
    1SOL    HW2 3354   1.895   2.397   1.498 -0.2097 -1.9704 -0.9876
    1SOL    HW3 3355   1.833   2.436   1.365 -0.8271 -0.7456 -0.3528
    1SOL    MW4 3356   1.827   2.426   1.451 -0.0938 -0.4303 -0.2563
    1SOL     OW 3357   1.797   2.689   1.555  0.0274 -0.0993 -0.1057
    1SOL    HW2 3358   1.883   2.727   1.540 -1.1139  1.5491 -3.0028
    1SOL    HW3 3359   1.802   2.601   1.518  1.5185 -1.4076  3.0807
    1SOL    MW4 3360   1.809   2.682   1.548  0.0736 -0.0544 -0.0676
    1SOL     OW 3361   2.042   2.805   1.497 -0.6510 -0.4990  0.6948
    1SOL    HW2 3362   2.009   2.891   1.520  0.8356  0.2226  0.1827
    1SOL    HW3 3363   2.052   2.807   1.402  0.4636 -0.8441  0.8001
    1SOL    MW4 3364   2.039   2.816   1.487 -0.3080 -0.4494  0.6411
    1SOL     OW 3365   1.990   3.075   1.573  0.8311 -0.1405 -0.4725
    1SOL    HW2 3366   1.990   3.084   1.669 -0.2731 -0.8847 -0.3966
    1SOL    HW3 3367   2.080   3.093   1.548  0.6877  2.1529  0.5089
    1SOL    MW4 3368   2.002   3.079   1.582  0.6666  0.0637 -0.3330
    1SOL     OW 3369   1.791   3.227   1.437 -0.2367 -0.2193  0.4949
    1SOL    HW2 3370   1.804   3.311   1.481  0.8614 -0.0809 -0.0576
    1SOL    HW3 3371   1.846   3.165   1.485 -1.1753 -0.6610  1.0037
    1SOL    MW4 3372   1.800   3.230   1.449 -0.2156 -0.2589  0.4892
    1SOL     OW 3373   1.810   3.456   1.593  0.3023 -0.2326 -0.0110
    1SOL    HW2 3374   1.788   3.451   1.686 -0.0108 -1.1649 -0.1205
    1SOL    HW3 3375   1.741   3.510   1.555  0.1692 -0.2307  0.2314
    1SOL    MW4 3376   1.798   3.462   1.600  0.2434 -0.3552  0.0067
    1SOL     OW 3377   2.038   3.612   1.499 -0.5364  0.4773 -0.2192
    1SOL    HW2 3378   2.108   3.567   1.545 -0.0291  1.8911  0.4210
    1SOL    HW3 3379   1.958   3.571   1.532 -0.0721 -0.2558  0.0182
    1SOL    MW4 3380   2.037   3.601   1.509 -0.4084  0.5670 -0.1034
    1SOL     OW 3381   2.019   3.864   1.611 -0.1873 -0.3595  0.3006
    1SOL    HW2 3382   2.091   3.903   1.561 -0.5651 -0.4645 -0.3371
    1SOL    HW3 3383   2.009   3.777   1.573 -1.1781 -0.0529 -0.1623
    1SOL    MW4 3384   2.028   3.858   1.599 -0.3681 -0.3331  0.1553
    1SOL     OW 3385   1.801   4.013   1.520  0.0333  0.1220 -0.0552
    1SOL    HW2 3386   1.880   3.974   1.557 -0.5543 -1.4674 -0.4394
    1SOL    HW3 3387   1.729   3.964   1.560 -0.7138  0.5740 -0.8208
    1SOL    MW4 3388   1.802   4.002   1.531 -0.1429 -0.0281 -0.2071
    1SOL     OW 3389   1.808   4.267   1.626 -0.6695 -0.0258 -0.1286
    1SOL    HW2 3390   1.897   4.292   1.599 -0.6162 -0.7355 -0.6088
    1SOL    HW3 3391   1.794   4.180   1.588 -1.2318 -0.3110  0.7134
    1SOL    MW4 3392   1.818   4.259   1.617 -0.7367 -0.1569 -0.0807
    1SOL     OW 3393   2.039   4.371   1.535  0.0011  0.2461 -0.7489
    1SOL    HW2 3394   2.122   4.328   1.560 -0.6832 -0.3448  0.5846
    1SOL    HW3 3395   2.046   4.459   1.572 -0.5682 -0.2884  0.6931
    1SOL    MW4 3396   2.051   4.377   1.543 -0.1645  0.0978 -0.3827
    1SOL     OW 3397   2.473   4.637   1.593  0.1379 -0.2636 -0.0340
    1SOL    HW2 3398   2.469   4.644   1.688  1.7460 -0.5384  0.0805
    1SOL    HW3 3399   2.411   4.703   1.561  1.5521  1.7499  1.1892
    1SOL    MW4 3400   2.465   4.647   1.601  0.5364 -0.0343  0.1425
    1SOL     OW 3401   2.266   0.140   1.514  0.2651  0.6616  0.3872
    1SOL    HW2 3402   2.210   0.067   1.539 -0.4204  2.0950  3.2318
    1SOL    HW3 3403   2.271   0.134   1.419 -2.6432 -1.0160  0.2617
    1SOL    MW4 3404   2.259   0.130   1.505 -0.2091  0.6294  0.7460
    1SOL     OW 3405   2.227   0.406   1.585  0.0010  0.3453  0.3472
    1SOL    HW2 3406   2.224   0.401   1.680  1.8757 -0.6652  0.3776
    1SOL    HW3 3407   2.248   0.317   1.557  1.1345  0.9835 -0.9056
    1SOL    MW4 3408   2.229   0.393   1.594  0.3982  0.2962  0.1857
    1SOL     OW 3409   2.455   0.497   1.439 -0.0095 -0.5251  0.5731
    1SOL    HW2 3410   2.529   0.456   1.485  0.0370 -0.5793  0.4514
    1SOL    HW3 3411   2.379   0.477   1.494  0.3011  0.9442  1.5631
    1SOL    MW4 3412   2.455   0.489   1.452  0.0377 -0.3384  0.6876
    1SOL     OW 3413   2.464   0.720   1.605 -0.0517 -0.1397 -0.2337
    1SOL    HW2 3414   2.399   0.783   1.572  1.0848  0.0953 -2.0703
    1SOL    HW3 3415   2.461   0.648   1.543  0.8949 -0.4863  0.1258
    1SOL    MW4 3416   2.455   0.719   1.593  0.2232 -0.1544 -0.4287
    1SOL     OW 3417   2.274   0.904   1.513 -0.2327  0.2751 -0.0915
    1SOL    HW2 3418   2.275   0.993   1.548 -1.6567 -0.1868  1.1606
    1SOL    HW3 3419   2.182   0.877   1.518  0.5256 -2.1582  1.8457
    1SOL    MW4 3420   2.262   0.912   1.518 -0.3204 -0.1068  0.3293
    1SOL     OW 3421   2.258   1.152   1.630  0.0499 -0.4428  0.1618
    1SOL    HW2 3422   2.240   1.140   1.723  0.7724 -0.6881  0.2701
    1SOL    HW3 3423   2.176   1.187   1.594 -0.3006 -0.5574  0.8448
    1SOL    MW4 3424   2.245   1.155   1.637  0.0989 -0.4903  0.2662
    1SOL     OW 3425   2.488   1.255   1.529 -0.2507 -0.0821  0.0505
    1SOL    HW2 3426   2.402   1.232   1.563 -0.8029  1.2270 -0.4522
    1SOL    HW3 3427   2.475   1.262   1.434  0.6870 -1.1058 -0.1630
    1SOL    MW4 3428   2.475   1.253   1.521 -0.1996 -0.0445 -0.0440
    1SOL     OW 3429   2.482   1.537   1.604  0.8161  0.2004  0.8312
    1SOL    HW2 3430   2.559   1.584   1.570  0.0620 -0.1007 -1.3660
    1SOL    HW3 3431   2.489   1.450   1.566 -0.8163  0.2895  0.2934
    1SOL    MW4 3432   2.493   1.532   1.595  0.5016  0.1724  0.4704
    1SOL     OW 3433   2.250   1.677   1.504 -0.1883  0.2843 -0.4794
    1SOL    HW2 3434   2.329   1.634   1.537 -0.1180  0.6954 -0.1195
    1SOL    HW3 3435   2.243   1.646   1.413  0.1755 -0.0459 -0.3992
    1SOL    MW4 3436   2.259   1.667   1.496 -0.1311  0.2949 -0.4213
    1SOL     OW 3437   2.267   1.945   1.593  0.1766 -0.2630 -0.1266
    1SOL    HW2 3438   2.238   1.946   1.684 -0.2572 -0.2296 -0.2637
    1SOL    HW3 3439   2.257   1.855   1.565 -0.0084 -0.2063 -0.2428
    1SOL    MW4 3440   2.262   1.933   1.601  0.0951 -0.2511 -0.1601
    1SOL     OW 3441   2.515   2.022   1.502  0.0053 -0.0437  0.8354
    1SOL    HW2 3442   2.430   2.013   1.544 -0.5041  1.6171  0.2123
    1SOL    HW3 3443   2.496   2.022   1.408  0.5462  1.4638  0.7049
    1SOL    MW4 3444   2.501   2.021   1.495  0.0095  0.3746  0.7360
    1SOL     OW 3445   2.504   2.282   1.626  0.1690 -0.0876 -0.0110
    1SOL    HW2 3446   2.505   2.278   1.722  0.6029 -1.5600 -0.0575
    1SOL    HW3 3447   2.517   2.191   1.598  0.2563  0.3555 -1.4690
    1SOL    MW4 3448   2.506   2.270   1.635  0.2377 -0.2236 -0.2093
    1SOL     OW 3449   2.284   2.428   1.516  0.3197  0.1045  0.0586
    1SOL    HW2 3450   2.341   2.361   1.553  0.6535 -0.1551 -0.9252
    1SOL    HW3 3451   2.195   2.396   1.533  0.4751 -0.0595  0.5544
    1SOL    MW4 3452   2.280   2.415   1.523  0.3843  0.0486 -0.0057
    1SOL     OW 3453   2.278   2.719   1.611  0.1433  0.2679 -0.2898
    1SOL    HW2 3454   2.293   2.627   1.587  0.0126  0.4111 -0.9403
    1SOL    HW3 3455   2.196   2.742   1.567  0.7034  0.9949 -0.9614
    1SOL    MW4 3456   2.269   2.710   1.602  0.2000  0.3827 -0.4643
    1SOL     OW 3457   2.509   2.855   1.507  0.1844 -0.4220 -0.0930
    1SOL    HW2 3458   2.520   2.927   1.569  1.0902 -0.6426  0.0137
    1SOL    HW3 3459   2.426   2.814   1.531 -0.7282  1.0703 -0.6511
    1SOL    MW4 3460   2.500   2.859   1.518  0.1836 -0.2539 -0.1525
    1SOL     OW 3461   2.477   3.098   1.633 -0.2679 -0.3271  0.1271
    1SOL    HW2 3462   2.544   3.147   1.586 -0.5601 -1.2621 -1.2933
    1SOL    HW3 3463   2.394   3.131   1.599 -0.5460  0.4888  1.5388
    1SOL    MW4 3464   2.475   3.109   1.622 -0.3431 -0.3431  0.1259
    1SOL     OW 3465   2.242   3.184   1.522  0.4295 -0.7151 -0.7260
    1SOL    HW2 3466   2.244   3.277   1.542 -1.5926 -0.9669  0.8053
    1SOL    HW3 3467   2.245   3.180   1.426  1.8495  0.8579 -0.7646
    1SOL    MW4 3468   2.243   3.195   1.512  0.3500 -0.5405 -0.5291
    1SOL     OW 3469   2.258   3.462   1.609 -0.1837  0.1605 -0.1063
    1SOL    HW2 3470   2.269   3.465   1.704  0.4147 -1.0867 -0.1203
    1SOL    HW3 3471   2.338   3.501   1.575  0.9888 -2.1844 -0.1193
    1SOL    MW4 3472   2.270   3.467   1.617  0.0498 -0.3135 -0.1098
    1SOL     OW 3473   2.501   3.594   1.517 -0.1746  0.1391  0.0236
    1SOL    HW2 3474   2.586   3.556   1.540 -0.6266 -0.0439  1.4379
    1SOL    HW3 3475   2.499   3.678   1.562 -0.6591  0.2263 -0.1563
    1SOL    MW4 3476   2.512   3.600   1.526 -0.2983  0.1261  0.1866
    1SOL     OW 3477   2.452   3.872   1.610 -0.0458 -0.5334  0.3481
    1SOL    HW2 3478   2.467   3.868   1.705 -0.5937  0.3835  0.4769
    1SOL    HW3 3479   2.535   3.904   1.575 -0.3775  0.7115  0.6797
    1SOL    MW4 3480   2.465   3.876   1.618 -0.1621 -0.2482  0.4089
    1SOL     OW 3481   2.240   4.017   1.518 -0.0097 -0.0764  0.2548
    1SOL    HW2 3482   2.301   3.952   1.550  0.0714  0.4425  1.1612
    1SOL    HW3 3483   2.252   4.016   1.423  0.8775 -0.4977  0.3661
    1SOL    MW4 3484   2.250   4.008   1.509  0.1180 -0.0634  0.3890
    1SOL     OW 3485   2.283   4.280   1.625  0.3495  0.0629  0.2980
    1SOL    HW2 3486   2.356   4.315   1.574  0.9508 -1.4001  0.1487
    1SOL    HW3 3487   2.279   4.187   1.602 -0.4665 -0.2402  1.6011
    1SOL    MW4 3488   2.292   4.273   1.615  0.3211 -0.1702  0.4500
    1SOL     OW 3489   2.517   4.371   1.496  0.6904  0.0537 -0.1532
    1SOL    HW2 3490   2.509   4.464   1.517 -0.8126 -0.4485  1.6965
    1SOL    HW3 3491   2.495   4.365   1.403 -0.5572  1.4085  0.0404
    1SOL    MW4 3492   2.513   4.382   1.486  0.3273  0.1664  0.1162
    1SOL     OW 3493   2.896   4.636   1.600  0.6163 -0.4088 -0.6133
    1SOL    HW2 3494   2.899   4.639   1.696  0.4451  0.5724 -0.6334
    1SOL    HW3 3495   2.829   4.700   1.576 -0.6493 -1.9580 -1.3196
    1SOL    MW4 3496   2.888   4.645   1.610  0.4268 -0.4835 -0.7091
    1SOL     OW 3497   2.691   0.130   1.527 -0.2259  0.4712  0.3831
    1SOL    HW2 3498   2.681   0.219   1.561  1.0600  0.4777  0.7854
    1SOL    HW3 3499   2.622   0.080   1.572  1.9139  0.3132  3.7050
    1SOL    MW4 3500   2.680   0.135   1.538  0.2260  0.4512  0.8745
    1SOL     OW 3501   2.650   0.381   1.615 -0.1770 -0.0392  0.0041
    1SOL    HW2 3502   2.660   0.401   1.708 -0.7093 -0.9600  0.2650
    1SOL    HW3 3503   2.731   0.414   1.575  0.5849 -0.6784  0.9731
    1SOL    MW4 3504   2.662   0.388   1.622 -0.1471 -0.2450  0.1663
    1SOL     OW 3505   2.884   0.489   1.509  0.1546 -0.2228 -0.2705
    1SOL    HW2 3506   2.924   0.573   1.534  0.5720 -0.5021  0.0029
    1SOL    HW3 3507   2.870   0.497   1.415  0.3493  0.0910 -0.2760
    1SOL    MW4 3508   2.887   0.501   1.500  0.2353 -0.2183 -0.2352
    1SOL     OW 3509   2.926   0.759   1.586 -0.9131 -0.7319 -0.0966
    1SOL    HW2 3510   2.908   0.764   1.680  0.2265  1.0738  0.0465
    1SOL    HW3 3511   2.846   0.793   1.545 -0.5571  0.6148  0.3035
    1SOL    MW4 3512   2.913   0.764   1.593 -0.7157 -0.3160 -0.0248
    1SOL     OW 3513   2.668   0.872   1.502  0.1644 -0.2894 -0.3719
    1SOL    HW2 3514   2.592   0.824   1.537  0.3189 -0.3257 -0.0871
    1SOL    HW3 3515   2.660   0.863   1.407 -0.2330 -0.2264 -0.3440
    1SOL    MW4 3516   2.657   0.864   1.494  0.1323 -0.2857 -0.3307
    1SOL     OW 3517   2.706   1.134   1.619 -0.0516  0.2214  0.1257
    1SOL    HW2 3518   2.704   1.046   1.581  0.4453  0.0709  0.4457
    1SOL    HW3 3519   2.633   1.180   1.576  0.0188 -0.1817 -0.4360
    1SOL    MW4 3520   2.696   1.128   1.608  0.0231  0.1484  0.0938
    1SOL     OW 3521   2.917   1.269   1.491  0.3362  0.0789  0.2492
    1SOL    HW2 3522   3.001   1.235   1.522  0.2387 -1.8624 -1.5754
    1SOL    HW3 3523   2.852   1.222   1.543  0.2652 -1.0164 -0.8329
    1SOL    MW4 3524   2.920   1.258   1.502  0.3138 -0.3217 -0.1342
    1SOL     OW 3525   2.938   1.511   1.593  0.2568 -0.2635 -0.1423
    1SOL    HW2 3526   2.862   1.554   1.554 -0.1628 -0.8443  0.0213
    1SOL    HW3 3527   2.943   1.426   1.548  0.9105 -0.1613 -0.2720
    1SOL    MW4 3528   2.929   1.505   1.582  0.2878 -0.3268 -0.1379
    1SOL     OW 3529   2.708   1.639   1.501 -0.6741 -0.1811 -0.3338
    1SOL    HW2 3530   2.715   1.730   1.532 -1.4910 -0.0074 -0.6496
    1SOL    HW3 3531   2.714   1.645   1.406  0.3244 -0.5693 -0.3025
    1SOL    MW4 3532   2.710   1.652   1.493 -0.6502 -0.2095 -0.3713
    1SOL     OW 3533   2.767   1.903   1.572 -0.1310 -0.4064  0.2631
    1SOL    HW2 3534   2.761   1.923   1.665 -0.4916 -0.9763  0.3661
    1SOL    HW3 3535   2.688   1.943   1.534  1.1905  1.8781 -0.1876
    1SOL    MW4 3536   2.756   1.911   1.579 -0.0041 -0.1801  0.2173
    1SOL     OW 3537   2.980   2.057   1.459  0.1220  0.1304 -0.1341
    1SOL    HW2 3538   2.971   2.136   1.512  0.5740  1.7244 -2.3615
    1SOL    HW3 3539   2.907   2.002   1.485  0.3503  0.8389  2.1510
    1SOL    MW4 3540   2.969   2.060   1.469  0.2120  0.4342 -0.1266
    1SOL     OW 3541   2.968   2.302   1.587 -0.3134 -0.0916 -0.0182
    1SOL    HW2 3542   2.982   2.318   1.680 -0.1037 -1.0482  0.1140
    1SOL    HW3 3543   2.882   2.340   1.569  1.5795  4.3442 -0.4606
    1SOL    MW4 3544   2.958   2.309   1.597 -0.0360  0.3674 -0.0590
    1SOL     OW 3545   2.728   2.430   1.551 -0.4625 -0.1284  0.6487
    1SOL    HW2 3546   2.727   2.524   1.569 -1.7465  0.2320 -1.2200
    1SOL    HW3 3547   2.642   2.399   1.578 -1.3034 -0.1257 -1.9021
    1SOL    MW4 3548   2.717   2.438   1.557 -0.7432 -0.0801  0.0656
    1SOL     OW 3549   2.732   2.709   1.589 -0.2886  0.2293 -0.1843
    1SOL    HW2 3550   2.811   2.752   1.555 -0.9161  0.8705 -0.8443
    1SOL    HW3 3551   2.660   2.755   1.547 -0.9949 -1.2702 -0.6496
    1SOL    MW4 3552   2.733   2.721   1.579 -0.4647  0.1159 -0.3327
    1SOL     OW 3553   2.975   2.819   1.496  0.0042 -0.2775 -0.7474
    1SOL    HW2 3554   3.032   2.760   1.545 -0.6733 -0.7293 -0.4962
    1SOL    HW3 3555   2.965   2.895   1.554  0.3646 -0.1872 -0.8008
    1SOL    MW4 3556   2.981   2.821   1.510 -0.0377 -0.3252 -0.7213
    1SOL     OW 3557   2.927   3.066   1.641 -0.0314  0.2747 -0.1353
    1SOL    HW2 3558   2.948   3.071   1.734 -0.0654 -0.5794 -0.0822
    1SOL    HW3 3559   2.997   3.116   1.598  0.1210  0.4566  0.3277
    1SOL    MW4 3560   2.939   3.074   1.648 -0.0160  0.1860 -0.0671
    1SOL     OW 3561   2.713   3.227   1.539  0.0815  0.6833  0.5713
    1SOL    HW2 3562   2.787   3.179   1.576 -0.2097  0.1969  0.5312
    1SOL    HW3 3563   2.725   3.219   1.445 -0.8612 -0.7353  0.5486
    1SOL    MW4 3564   2.724   3.219   1.532 -0.0813  0.4320  0.5631
    1SOL     OW 3565   2.745   3.494   1.584 -0.7103  0.1782  0.0875
    1SOL    HW2 3566   2.745   3.506   1.678  2.0849  0.7289  0.0690
    1SOL    HW3 3567   2.733   3.400   1.571 -1.2037  0.1198  0.9820
    1SOL    MW4 3568   2.744   3.483   1.594 -0.4065  0.2434  0.2030
    1SOL     OW 3569   2.971   3.619   1.486 -0.1081 -0.3289 -0.1562
    1SOL    HW2 3570   2.896   3.572   1.524 -0.0037  0.2413  0.7845
    1SOL    HW3 3571   2.945   3.636   1.395 -0.5080 -1.4254 -0.2534
    1SOL    MW4 3572   2.957   3.615   1.479 -0.1471 -0.3986 -0.0449
    1SOL     OW 3573   2.927   3.868   1.605  0.3260  0.2950 -0.0130
    1SOL    HW2 3574   2.840   3.900   1.579  0.0590  0.7263  1.4119
    1SOL    HW3 3575   2.931   3.779   1.570 -0.5963  0.3587 -0.2875
    1SOL    MW4 3576   2.916   3.861   1.597  0.1693  0.3603  0.1389
    1SOL     OW 3577   2.691   3.977   1.515  0.1251  0.3749  0.1175
    1SOL    HW2 3578   2.683   4.066   1.550 -0.7296 -0.0515  1.0239
    1SOL    HW3 3579   2.709   3.990   1.422 -0.1548  1.5033  0.2112
    1SOL    MW4 3580   2.692   3.991   1.507 -0.0243  0.4675  0.2494
    1SOL     OW 3581   2.715   4.224   1.599 -0.1185  0.4603 -0.2677
    1SOL    HW2 3582   2.795   4.272   1.578 -0.2055  0.0257 -1.6761
    1SOL    HW3 3583   2.646   4.273   1.556 -0.4863  0.3010  0.1416
    1SOL    MW4 3584   2.717   4.236   1.590 -0.1783  0.3819 -0.3995
    1SOL     OW 3585   2.925   4.368   1.514  0.2961 -0.4630 -0.0388
    1SOL    HW2 3586   2.906   4.456   1.548  0.4911 -0.3060 -0.3411
    1SOL    HW3 3587   2.928   4.379   1.419 -0.0607 -0.8716 -0.0973
    1SOL    MW4 3588   2.923   4.381   1.506  0.2744 -0.4959 -0.0864
    1SOL     OW 3589   3.366   4.625   1.610  0.4142 -0.0318  0.0416
    1SOL    HW2 3590   3.442   4.680   1.592  1.0008 -0.6668  0.5374
    1SOL    HW3 3591   3.385   4.543   1.565 -1.2547  0.7434 -2.1865
    1SOL    MW4 3592   3.379   4.621   1.602  0.2716 -0.0129 -0.1869
    1SOL     OW 3593   3.140   0.093   1.512 -0.2965  0.0038 -0.0120
    1SOL    HW2 3594   3.211   0.040   1.550 -1.0049  0.0917  1.4650
    1SOL    HW3 3595   3.060   0.054   1.547 -0.9206  0.7298 -0.6220
    1SOL    MW4 3596   3.139   0.081   1.522 -0.4723  0.1111  0.1024
    1SOL     OW 3597   3.187   0.377   1.601 -0.4133  0.7038 -0.1033
    1SOL    HW2 3598   3.171   0.289   1.568 -0.6696  0.7696 -0.1579
    1SOL    HW3 3599   3.108   0.426   1.577  0.2046  1.2410 -1.0942
    1SOL    MW4 3600   3.174   0.372   1.593 -0.3655  0.7833 -0.2413
    1SOL     OW 3601   3.426   0.509   1.524 -0.6848 -0.3655 -0.1674
    1SOL    HW2 3602   3.344   0.463   1.546 -1.6530  1.9686  1.2501
    1SOL    HW3 3603   3.418   0.527   1.430 -1.2027 -1.3126 -0.3134
    1SOL    MW4 3604   3.414   0.505   1.514 -0.8807 -0.1825  0.0004
    1SOL     OW 3605   3.385   0.760   1.597 -0.0990  0.2581  0.0599
    1SOL    HW2 3606   3.364   0.759   1.691 -0.0245 -0.0224  0.0713
    1SOL    HW3 3607   3.403   0.669   1.575 -1.4307  0.1120 -0.5188
    1SOL    MW4 3608   3.384   0.748   1.607 -0.2649  0.2018 -0.0149
    1SOL     OW 3609   3.153   0.884   1.511 -0.1406 -0.3333  0.2403
    1SOL    HW2 3610   3.224   0.824   1.535 -0.7490 -1.2321 -0.1644
    1SOL    HW3 3611   3.073   0.836   1.532 -0.6258  0.7523  0.8622
    1SOL    MW4 3612   3.152   0.870   1.517 -0.2849 -0.3087  0.2689
    1SOL     OW 3613   3.146   1.153   1.594  0.3774  0.0245 -0.2183
    1SOL    HW2 3614   3.150   1.160   1.689  2.0590  0.3216 -0.2941
    1SOL    HW3 3615   3.128   1.060   1.578  0.9099 -0.1823  0.3656
    1SOL    MW4 3616   3.144   1.141   1.604  0.6695  0.0365 -0.1513
    1SOL     OW 3617   3.377   1.289   1.499 -0.2390  0.2759  0.2325
    1SOL    HW2 3618   3.464   1.251   1.513  0.4323  1.9597  0.6903
    1SOL    HW3 3619   3.321   1.242   1.560  0.5546 -0.0629  0.7147
    1SOL    MW4 3620   3.381   1.278   1.509 -0.0455  0.4535  0.3567
    1SOL     OW 3621   3.382   1.541   1.605  0.0207 -0.3653  0.1157
    1SOL    HW2 3622   3.389   1.533   1.701 -1.2348 -1.3791  0.1445
    1SOL    HW3 3623   3.364   1.452   1.575 -0.4430  0.0876 -0.9801
    1SOL    MW4 3624   3.381   1.529   1.614 -0.2058 -0.4394 -0.0252
    1SOL     OW 3625   3.162   1.675   1.514 -0.3907  0.4579  0.4939
    1SOL    HW2 3626   3.242   1.630   1.542 -0.2818 -0.1949 -0.8079
    1SOL    HW3 3627   3.091   1.623   1.553 -0.2191  0.1473  0.3975
    1SOL    MW4 3628   3.163   1.662   1.523 -0.3536  0.3308  0.3093
    1SOL     OW 3629   3.189   1.930   1.596 -0.1917 -0.0610  0.0404
    1SOL    HW2 3630   3.193   1.839   1.564 -0.3415 -0.6112  1.5787
    1SOL    HW3 3631   3.115   1.968   1.550 -0.9635 -1.1101  0.3993
    1SOL    MW4 3632   3.180   1.923   1.585 -0.3133 -0.2720  0.2908
    1SOL     OW 3633   3.402   2.090   1.496  0.2698 -0.1875  0.0200
    1SOL    HW2 3634   3.323   2.044   1.527  0.3492 -1.6543 -1.8995
    1SOL    HW3 3635   3.398   2.084   1.401  1.9101  1.1051 -0.1564
    1SOL    MW4 3636   3.391   2.083   1.488  0.4966 -0.2105 -0.2564
    1SOL     OW 3637   3.390   2.350   1.557 -0.2577  0.1272  0.3770
    1SOL    HW2 3638   3.479   2.378   1.538 -0.6643  2.0436  1.1352
    1SOL    HW3 3639   3.389   2.256   1.539  1.4768  0.3844 -1.1728
    1SOL    MW4 3640   3.401   2.341   1.552 -0.0825  0.4139  0.2726
    1SOL     OW 3641   3.152   2.464   1.443  0.2245  0.0607 -0.2793
    1SOL    HW2 3642   3.236   2.427   1.473  0.7426  1.4783  0.0569
    1SOL    HW3 3643   3.086   2.411   1.487  0.9577 -0.0986  0.6649
    1SOL    MW4 3644   3.155   2.452   1.453  0.3896  0.2267 -0.1104
    1SOL     OW 3645   3.221   2.693   1.609 -0.2332  0.1544  0.0374
    1SOL    HW2 3646   3.293   2.738   1.565 -0.1064 -0.3892 -0.3200
    1SOL    HW3 3647   3.200   2.619   1.551 -0.8302  0.0966  0.3211
    1SOL    MW4 3648   3.228   2.689   1.596 -0.2954  0.0749  0.0278
    1SOL     OW 3649   3.429   2.836   1.493  0.3156  0.3103  0.4196
    1SOL    HW2 3650   3.418   2.925   1.527 -0.6923  0.7441 -1.0378
    1SOL    HW3 3651   3.420   2.845   1.398 -1.4376 -1.5908  0.3762
    1SOL    MW4 3652   3.427   2.849   1.485 -0.0489  0.1168  0.2216
    1SOL     OW 3653   3.380   3.109   1.582 -0.0811 -0.2944 -0.1514
    1SOL    HW2 3654   3.387   3.122   1.677  0.6442 -0.2286 -0.2088
    1SOL    HW3 3655   3.462   3.145   1.547 -0.1444 -0.7384 -0.7607
    1SOL    MW4 3656   3.392   3.116   1.590  0.0064 -0.3443 -0.2395
    1SOL     OW 3657   3.133   3.250   1.524 -0.4610  0.1814 -0.3342
    1SOL    HW2 3658   3.169   3.337   1.540  0.8670 -0.6942  1.7509
    1SOL    HW3 3659   3.207   3.191   1.538 -1.5617 -1.3338 -0.8121
    1SOL    MW4 3660   3.147   3.254   1.528 -0.4308 -0.1342 -0.1221
    1SOL     OW 3661   3.198   3.511   1.612  0.2334 -0.6334 -0.0870
    1SOL    HW2 3662   3.173   3.501   1.704 -1.6128  1.2791 -0.3540
    1SOL    HW3 3663   3.123   3.553   1.571  1.7509  0.1760 -2.1063
    1SOL    MW4 3664   3.185   3.515   1.619  0.1900 -0.2744 -0.3885
    1SOL     OW 3665   3.437   3.575   1.496  0.0844  0.4739  0.3660
    1SOL    HW2 3666   3.517   3.551   1.542  0.1925  0.7180  0.3090
    1SOL    HW3 3667   3.366   3.548   1.555  0.2272  0.9730  0.7762
    1SOL    MW4 3668   3.438   3.569   1.510  0.1175  0.5722  0.4127
    1SOL     OW 3669   3.380   3.830   1.578  0.2938  0.0886  0.0788
    1SOL    HW2 3670   3.308   3.856   1.521  0.4655 -0.6395 -0.4854
    1SOL    HW3 3671   3.397   3.739   1.554  1.7342  0.4081 -0.1398
    1SOL    MW4 3672   3.373   3.821   1.567  0.5064  0.0348 -0.0246
    1SOL     OW 3673   3.175   3.957   1.443 -0.0718  0.1350 -0.0124
    1SOL    HW2 3674   3.168   4.034   1.499  0.4906  0.4656 -0.3954
    1SOL    HW3 3675   3.099   3.903   1.467 -0.7806  1.0649 -0.1489
    1SOL    MW4 3676   3.164   3.960   1.454 -0.0911  0.3011 -0.0809
    1SOL     OW 3677   3.148   4.214   1.584 -0.4183  0.5683 -0.2222
    1SOL    HW2 3678   3.153   4.215   1.680  1.9133 -0.5553 -0.2809
    1SOL    HW3 3679   3.067   4.260   1.564 -1.7785 -0.5804  2.3333
    1SOL    MW4 3680   3.138   4.220   1.594 -0.2899  0.2685  0.1072
    1SOL     OW 3681   3.382   4.364   1.509 -0.3038  0.1436  0.0328
    1SOL    HW2 3682   3.310   4.315   1.550  1.0115  0.2729  2.5947
    1SOL    HW3 3683   3.372   4.347   1.415 -1.7554 -2.4701  0.6047
    1SOL    MW4 3684   3.371   4.355   1.502 -0.3216 -0.1845  0.4463
    1SOL     OW 3685   3.808   4.603   1.643 -0.4231  0.7407 -0.4918
    1SOL    HW2 3686   3.811   4.610   1.738  0.8135 -2.7654 -0.1877
    1SOL    HW3 3687   3.883   4.653   1.613 -0.7810  1.8079  0.3696
    1SOL    MW4 3688   3.818   4.610   1.652 -0.3073  0.4191 -0.3380
    1SOL     OW 3689   3.596   0.089   1.502 -0.1735 -0.0754  0.4109
    1SOL    HW2 3690   3.669   0.036   1.535  0.2394  0.4379  0.3207
    1SOL    HW3 3691   3.585   0.060   1.412 -0.0797 -0.1483  0.4228
    1SOL    MW4 3692   3.604   0.078   1.495 -0.1063 -0.0173  0.4007
    1SOL     OW 3693   3.649   0.347   1.586  0.2555 -0.4265 -0.4859
    1SOL    HW2 3694   3.628   0.256   1.566 -1.3953  0.0518 -0.9815
    1SOL    HW3 3695   3.569   0.395   1.567  0.1450  0.7251  2.7296
    1SOL    MW4 3696   3.636   0.342   1.581  0.0229 -0.2114 -0.1271
    1SOL     OW 3697   3.848   0.514   1.504  0.0940  0.0124  0.0417
    1SOL    HW2 3698   3.780   0.451   1.525 -0.8692  0.6976 -0.9135
    1SOL    HW3 3699   3.852   0.514   1.408 -0.1719  1.6276  0.0032
    1SOL    MW4 3700   3.840   0.506   1.494 -0.0682  0.3160 -0.0894
    1SOL     OW 3701   3.854   0.784   1.586  0.3326 -0.2015  0.3753
    1SOL    HW2 3702   3.772   0.813   1.547 -0.4421  0.0350  2.1142
    1SOL    HW3 3703   3.863   0.692   1.559 -0.5277 -0.2362  0.2049
    1SOL    MW4 3704   3.844   0.776   1.578  0.1171 -0.1749  0.5823
    1SOL     OW 3705   3.619   0.915   1.461 -0.1113  0.0634 -0.1010
    1SOL    HW2 3706   3.554   0.847   1.475 -0.6583  0.2800 -1.4607
    1SOL    HW3 3707   3.617   0.930   1.366 -0.8632  2.8227  0.3223
    1SOL    MW4 3708   3.610   0.908   1.450 -0.2828  0.4561 -0.2245
    1SOL     OW 3709   3.608   1.165   1.605 -0.0800 -0.3732 -0.8323
    1SOL    HW2 3710   3.664   1.209   1.541 -1.5053 -0.2124 -2.0048
    1SOL    HW3 3711   3.613   1.072   1.582  2.9247 -0.8867  1.6405
    1SOL    MW4 3712   3.616   1.159   1.593  0.1283 -0.4196 -0.6607
    1SOL     OW 3713   3.798   1.313   1.467  0.0411 -0.3024 -0.0465
    1SOL    HW2 3714   3.877   1.265   1.493 -0.0703 -0.4255  0.0648
    1SOL    HW3 3715   3.810   1.401   1.504 -0.0131 -0.4104  0.2272
    1SOL    MW4 3716   3.810   1.319   1.475  0.0191 -0.3330  0.0043
    1SOL     OW 3717   3.819   1.564   1.592 -0.4094 -0.0187  0.2064
    1SOL    HW2 3718   3.819   1.560   1.688  1.1012  2.3157  0.3598
    1SOL    HW3 3719   3.740   1.614   1.570  0.1526  0.9501  0.3525
    1SOL    MW4 3720   3.809   1.570   1.602 -0.1361  0.4171  0.2459
    1SOL     OW 3721   3.590   1.698   1.483  0.2719 -0.1236 -0.1419
    1SOL    HW2 3722   3.527   1.641   1.527 -0.3419  0.5071 -0.1845
    1SOL    HW3 3723   3.574   1.683   1.389 -1.5231  1.8351 -0.1885
    1SOL    MW4 3724   3.579   1.689   1.476 -0.0458  0.2180 -0.1535
    1SOL     OW 3725   3.617   1.952   1.610 -0.1694  0.0258 -0.6740
    1SOL    HW2 3726   3.602   1.868   1.566  0.0485 -0.2499 -0.2263
    1SOL    HW3 3727   3.544   2.008   1.582 -1.2205 -0.8324  0.3424
    1SOL    MW4 3728   3.606   1.948   1.600 -0.2792 -0.1237 -0.4809
    1SOL     OW 3729   3.803   2.078   1.453  0.3226  0.1391  0.1721
    1SOL    HW2 3730   3.841   2.156   1.495  2.3098 -0.2013 -0.9250
    1SOL    HW3 3731   3.735   2.049   1.514  0.4079  1.9969  1.2028
    1SOL    MW4 3732   3.799   2.085   1.467  0.5958  0.3393  0.1632
    1SOL     OW 3733   3.856   2.317   1.574 -0.1557  0.2797 -0.6950
    1SOL    HW2 3734   3.832   2.352   1.659  0.7493  0.0430 -0.3390
    1SOL    HW3 3735   3.929   2.372   1.544 -0.6586  0.5507 -1.4472
    1SOL    MW4 3736   3.863   2.329   1.581 -0.1025  0.2840 -0.7474
    1SOL     OW 3737   3.644   2.452   1.450 -0.0747 -0.1742  0.0274
    1SOL    HW2 3738   3.660   2.539   1.488  0.5741 -0.5642  0.6492
    1SOL    HW3 3739   3.722   2.401   1.474  0.3738 -0.4101 -1.8614
    1SOL    MW4 3740   3.657   2.457   1.458  0.0701 -0.2565 -0.1398
    1SOL     OW 3741   3.659   2.696   1.579  0.4102 -0.1818 -0.2901
    1SOL    HW2 3742   3.655   2.694   1.675  0.1514  0.7146 -0.2797
    1SOL    HW3 3743   3.576   2.736   1.552  0.4799 -0.4357 -0.8868
    1SOL    MW4 3744   3.647   2.701   1.588  0.3853 -0.0973 -0.3675
    1SOL     OW 3745   3.886   2.821   1.479 -0.7662 -0.0414  0.4473
    1SOL    HW2 3746   3.962   2.765   1.493 -0.8528 -0.1161  0.6264
    1SOL    HW3 3747   3.814   2.774   1.520 -0.5758  0.8685  1.8644
    1SOL    MW4 3748   3.886   2.807   1.486 -0.7527  0.0687  0.6578
    1SOL     OW 3749   3.873   3.064   1.597 -0.1783  0.0540  0.7497
    1SOL    HW2 3750   3.935   3.119   1.548  0.0576 -0.5841  0.3084
    1SOL    HW3 3751   3.885   2.977   1.559  0.5643 -0.6264  2.4606
    1SOL    MW4 3752   3.883   3.059   1.585 -0.0491 -0.1202  0.9173
    1SOL     OW 3753   3.645   3.202   1.510  0.3106 -0.0585  0.2198
    1SOL    HW2 3754   3.714   3.138   1.528  0.0199 -0.3736  0.2137
    1SOL    HW3 3755   3.644   3.210   1.414 -0.5857 -1.0752  0.1382
    1SOL    MW4 3756   3.654   3.194   1.500  0.1540 -0.2339  0.2083
    1SOL     OW 3757   3.670   3.452   1.630  0.2559 -0.7328 -0.0564
    1SOL    HW2 3758   3.738   3.491   1.576  0.8366  0.5614  1.5819
    1SOL    HW3 3759   3.649   3.369   1.586  2.3290 -0.7897 -0.9778
    1SOL    MW4 3760   3.676   3.446   1.617  0.6058 -0.5698  0.0383
    1SOL     OW 3761   3.818   3.592   1.448  0.4371 -0.1135 -0.2089
    1SOL    HW2 3762   3.902   3.567   1.485  0.3028  0.8761  0.7957
    1SOL    HW3 3763   3.795   3.674   1.493 -1.4492 -0.8039  0.1502
    1SOL    MW4 3764   3.826   3.600   1.459  0.1707 -0.0741 -0.0288
    1SOL     OW 3765   3.823   3.856   1.589 -0.2851 -0.1660  1.0849
    1SOL    HW2 3766   3.895   3.910   1.557  0.5009 -2.0934 -0.4686
    1SOL    HW3 3767   3.748   3.881   1.536  0.5210 -1.8798 -0.9179
    1SOL    MW4 3768   3.823   3.867   1.578 -0.0751 -0.6466  0.6157
    1SOL     OW 3769   3.579   3.986   1.479  0.1889  0.3937 -0.3542
    1SOL    HW2 3770   3.588   4.066   1.530 -0.0931  0.2212 -0.0323
    1SOL    HW3 3771   3.511   3.935   1.525 -0.7006  0.6284 -1.3986
    1SOL    MW4 3772   3.571   3.990   1.492  0.0343  0.4020 -0.4495
    1SOL     OW 3773   3.589   4.226   1.612 -0.5793 -0.4572 -0.0875
    1SOL    HW2 3774   3.596   4.230   1.708  1.1826  0.4783 -0.2251
    1SOL    HW3 3775   3.515   4.282   1.591  0.4038  1.1554  0.6107
    1SOL    MW4 3776   3.580   4.234   1.622 -0.2172 -0.1211 -0.0136
    1SOL     OW 3777   3.817   4.353   1.510  0.1313  0.0638  0.3412
    1SOL    HW2 3778   3.733   4.315   1.538  1.4520 -1.1143  2.8971
    1SOL    HW3 3779   3.819   4.438   1.555 -0.4324  0.8630 -1.1066
    1SOL    MW4 3780   3.806   4.359   1.520  0.2313  0.0138  0.4874
    1SOL     OW 3781   4.282   0.006   1.591  0.2866  0.7818 -0.0058
    1SOL    HW2 3782   4.283   0.004   1.687  0.3517  0.8112 -0.0051
    1SOL    HW3 3783   4.274  -0.085   1.565 -3.3144  1.0095  0.0412
    1SOL    MW4 3784   4.281  -0.006   1.601 -0.1798  0.8154  0.0005
    1SOL     OW 3785   4.017   0.073   1.513  0.1342 -0.0806  0.2032
    1SOL    HW2 3786   4.010   0.163   1.544  0.5682  0.1110 -0.2431
    1SOL    HW3 3787   4.106   0.047   1.534 -0.1572 -0.5937  0.8140
    1SOL    MW4 3788   4.028   0.082   1.520  0.1526 -0.1230  0.2249
    1SOL     OW 3789   4.039   0.331   1.578  0.0879 -0.1995  0.3319
    1SOL    HW2 3790   4.053   0.333   1.673 -0.4539 -0.3761  0.4137
    1SOL    HW3 3791   3.968   0.393   1.563  0.8480  0.5901 -0.0811
    1SOL    MW4 3792   4.032   0.339   1.589  0.1168 -0.1187  0.2881
    1SOL     OW 3793   4.241   0.491   1.488 -0.3313  0.6338 -0.2540
    1SOL    HW2 3794   4.172   0.433   1.521  0.2800 -0.1582 -0.3589
    1SOL    HW3 3795   4.323   0.446   1.510  0.1617  1.7077  0.1272
    1SOL    MW4 3796   4.243   0.477   1.495 -0.1860  0.6709 -0.2174
    1SOL     OW 3797   4.236   0.772   1.591 -0.0442 -0.5784 -0.4878
    1SOL    HW2 3798   4.244   0.678   1.573  0.4064 -0.2841 -1.8500
    1SOL    HW3 3799   4.316   0.811   1.555 -0.4333  0.3845 -0.3273
    1SOL    MW4 3800   4.247   0.765   1.584 -0.0353 -0.4125 -0.6464
    1SOL     OW 3801   4.048   0.935   1.466  0.0272  0.0429 -0.5751
    1SOL    HW2 3802   4.121   0.891   1.509  0.1615  1.5994  0.8536
    1SOL    HW3 3803   3.970   0.888   1.496  0.3367 -0.7464 -0.9985
    1SOL    MW4 3804   4.047   0.923   1.476  0.0863  0.1441 -0.4425
    1SOL     OW 3805   4.030   1.193   1.571 -0.0773 -0.5552  0.1586
    1SOL    HW2 3806   4.056   1.194   1.663 -1.7938 -0.5126  0.6631
    1SOL    HW3 3807   4.033   1.100   1.546  3.0868 -0.2998 -0.5634
    1SOL    MW4 3808   4.033   1.181   1.580  0.1140 -0.5159  0.1298
    1SOL     OW 3809   4.276   1.267   1.420 -0.0428  0.1916 -0.1533
    1SOL    HW2 3810   4.196   1.245   1.466 -0.6832  2.1655 -0.3148
    1SOL    HW3 3811   4.346   1.245   1.481 -0.7938  0.6204  0.8676
    1SOL    MW4 3812   4.275   1.261   1.434 -0.2265  0.5085 -0.0398
    1SOL     OW 3813   4.256   1.525   1.537 -0.0085 -0.0576 -0.2066
    1SOL    HW2 3814   4.277   1.446   1.487 -1.1974  0.1053 -0.9808
    1SOL    HW3 3815   4.338   1.576   1.536  0.2412 -0.4594 -1.2326
    1SOL    MW4 3816   4.270   1.521   1.530 -0.1326 -0.0890 -0.4441
    1SOL     OW 3817   4.043   1.660   1.435 -0.4472  0.6486 -0.0310
    1SOL    HW2 3818   4.117   1.610   1.470 -0.0832 -0.0223 -1.7392
    1SOL    HW3 3819   3.968   1.632   1.488  0.4093  0.9861  1.3982
    1SOL    MW4 3820   4.043   1.650   1.447 -0.2861  0.6045 -0.0677
    1SOL     OW 3821   4.018   1.939   1.536 -0.1192 -0.1696 -0.4732
    1SOL    HW2 3822   4.004   1.853   1.496 -1.1348  0.1334 -0.7826
    1SOL    HW3 3823   3.946   1.992   1.504 -0.3366  0.3814  0.9118
    1SOL    MW4 3824   4.007   1.934   1.527 -0.2818 -0.0569 -0.3313
    1SOL     OW 3825   4.262   2.053   1.467 -0.2915 -0.3320  0.0187
    1SOL    HW2 3826   4.188   1.996   1.486 -1.2363  0.5226 -1.0550
    1SOL    HW3 3827   4.276   2.045   1.373  0.5661  0.0056  0.1120
    1SOL    MW4 3828   4.254   2.044   1.457 -0.3033 -0.1748 -0.1106
    1SOL     OW 3829   4.302   2.311   1.588  0.2774 -0.4987 -0.2815
    1SOL    HW2 3830   4.303   2.298   1.683  1.9983  0.4744 -0.1486
    1SOL    HW3 3831   4.300   2.222   1.552 -0.8052 -0.8691  0.6617
    1SOL    MW4 3832   4.302   2.298   1.596  0.3619 -0.4189 -0.1396
    1SOL     OW 3833   4.082   2.433   1.473 -0.1126  0.0317  0.7651
    1SOL    HW2 3834   4.083   2.521   1.511 -1.4866 -0.5937  2.3241
    1SOL    HW3 3835   4.152   2.386   1.520  0.8938  0.4056 -0.3560
    1SOL    MW4 3836   4.092   2.438   1.485 -0.1607 -0.0014  0.8229
    1SOL     OW 3837   4.100   2.675   1.561 -0.2126  0.1785  0.2142
    1SOL    HW2 3838   4.106   2.709   1.651 -0.5756 -0.2490  0.4013
    1SOL    HW3 3839   4.166   2.725   1.512 -1.1383  1.5765  0.3495
    1SOL    MW4 3840   4.109   2.686   1.567 -0.3824  0.3064  0.2568
    1SOL     OW 3841   4.317   2.805   1.438 -0.1400  0.2847 -0.4093
    1SOL    HW2 3842   4.291   2.886   1.480  0.2253  0.1373  0.1010
    1SOL    HW3 3843   4.324   2.827   1.345  1.5928  1.2505 -0.0719
    1SOL    MW4 3844   4.314   2.818   1.431  0.1369  0.3927 -0.2974
    1SOL     OW 3845   4.238   3.057   1.548  0.4946 -0.4430 -0.5045
    1SOL    HW2 3846   4.218   3.090   1.635  0.7567 -2.0180  0.1581
    1SOL    HW3 3847   4.320   3.101   1.524  0.3172  0.1391 -0.0617
    1SOL    MW4 3848   4.246   3.067   1.556  0.5064 -0.5741 -0.3587
    1SOL     OW 3849   4.020   3.238   1.448 -0.2437 -0.1100 -0.2977
    1SOL    HW2 3850   4.030   3.319   1.498 -0.5662  0.1244 -0.6145
    1SOL    HW3 3851   4.104   3.193   1.459  0.1119  0.4997 -0.5359
    1SOL    MW4 3852   4.033   3.242   1.456 -0.2389  0.0012 -0.3710
    1SOL     OW 3853   4.045   3.490   1.579  0.1102 -0.2821 -0.0947
    1SOL    HW2 3854   4.018   3.490   1.671 -1.8761  0.5626 -0.6444
    1SOL    HW3 3855   4.128   3.537   1.578  0.2106 -0.3975  1.2776
    1SOL    MW4 3856   4.052   3.496   1.591 -0.1383 -0.1860  0.0138
    1SOL     OW 3857   4.269   3.645   1.503 -0.2278  0.4579 -0.3012
    1SOL    HW2 3858   4.243   3.733   1.527 -0.2719  0.1947  0.6243
    1SOL    HW3 3859   4.264   3.643   1.407 -1.7295  0.9842 -0.2350
    1SOL    MW4 3860   4.265   3.656   1.493 -0.4311  0.4928 -0.1705
    1SOL     OW 3861   4.243   3.901   1.618  0.3063  0.0381 -0.2210
    1SOL    HW2 3862   4.170   3.932   1.565 -0.2970 -1.5176 -0.3182
    1SOL    HW3 3863   4.321   3.936   1.575 -0.3854  1.8784  0.0113
    1SOL    MW4 3864   4.244   3.910   1.605  0.1349  0.0756 -0.2033
    1SOL     OW 3865   4.044   3.996   1.473  0.0108  0.3684  0.0239
    1SOL    HW2 3866   4.049   4.083   1.513 -1.2963  0.5632 -0.2138
    1SOL    HW3 3867   4.038   4.013   1.379 -0.8107  0.0468  0.0112
    1SOL    MW4 3868   4.044   4.010   1.466 -0.2704  0.3519 -0.0091
    1SOL     OW 3869   4.046   4.247   1.590 -0.2258 -0.1208 -0.3932
    1SOL    HW2 3870   4.039   4.248   1.685  0.0205  0.3998 -0.3731
    1SOL    HW3 3871   3.967   4.292   1.560  0.3760  0.9677 -0.3750
    1SOL    MW4 3872   4.035   4.253   1.599 -0.1140  0.0916 -0.3881
    1SOL     OW 3873   4.256   4.400   1.516 -0.7449 -0.4346  0.3237
    1SOL    HW2 3874   4.183   4.354   1.557 -0.4899  0.0001  1.2554
    1SOL    HW3 3875   4.249   4.376   1.423 -0.9638 -1.8801  0.6969
    1SOL    MW4 3876   4.245   4.390   1.509 -0.7401 -0.5679  0.4958
    1SOL     OW 3877   0.234   4.617   1.914 -0.2637 -0.3135 -0.2979
    1SOL    HW2 3878   0.316   4.660   1.939  0.0821 -1.5384  0.6556
    1SOL    HW3 3879   0.242   4.605   1.819  0.5608 -0.2463 -0.2379
    1SOL    MW4 3880   0.246   4.621   1.905 -0.1093 -0.4663 -0.1642
    1SOL     OW 3881   0.005   0.099   2.002  0.2858  0.4056  0.6745
    1SOL    HW2 3882   0.022   0.191   1.982 -1.1702  0.3743 -0.8017
    1SOL    HW3 3883   0.073   0.051   1.956 -0.2431  0.6216 -0.3356
    1SOL    MW4 3884   0.016   0.104   1.994  0.0239  0.4300  0.3464
    1SOL     OW 3885   0.016   0.378   1.879  0.1779 -0.2247  0.7310
    1SOL    HW2 3886  -0.054   0.433   1.914  0.3156  0.5295 -0.1406
    1SOL    HW3 3887   0.097   0.421   1.908  0.2880  0.1971 -0.1831
    1SOL    MW4 3888   0.017   0.391   1.887  0.2107 -0.0696  0.4954
    1SOL     OW 3889   0.240   0.508   1.992  0.0854  0.4384 -0.2437
    1SOL    HW2 3890   0.300   0.450   1.946  0.6358  0.2469  0.6938
    1SOL    HW3 3891   0.242   0.590   1.943  0.5987  0.2088 -0.6063
    1SOL    MW4 3892   0.248   0.511   1.980  0.2258  0.3828 -0.1680
    1SOL     OW 3893   0.217   0.762   1.851 -0.1617 -0.3930 -0.1051
    1SOL    HW2 3894   0.287   0.822   1.877 -0.2802 -0.3529  0.1277
    1SOL    HW3 3895   0.219   0.762   1.756  0.7474 -1.0864 -0.0914
    1SOL    MW4 3896   0.226   0.770   1.842 -0.0574 -0.4791 -0.0726
    1SOL     OW 3897   4.489   0.914   1.976  0.1491 -0.1791  0.2483
    1SOL    HW2 3898   4.408   0.879   1.940 -0.1623 -0.0256  0.8019
    1SOL    HW3 3899   4.558   0.862   1.934 -0.2695 -0.8319  0.3577
    1SOL    MW4 3900   4.487   0.902   1.966  0.0528 -0.2450  0.3358
    1SOL     OW 3901   0.028   1.158   1.865  0.7387  0.3195  0.1781
    1SOL    HW2 3902  -0.050   1.201   1.901  1.7633  1.9616  0.4963
    1SOL    HW3 3903   0.025   1.069   1.899 -0.4593  0.6657  1.0062
    1SOL    MW4 3904   0.017   1.152   1.874  0.7159  0.5817  0.3293
    1SOL     OW 3905   0.221   1.323   1.960 -0.0079 -0.7218 -0.2234
    1SOL    HW2 3906   0.203   1.408   1.919  0.2808  0.1501  1.3832
    1SOL    HW3 3907   0.176   1.259   1.905  1.4689  0.2369 -2.6473
    1SOL    MW4 3908   0.213   1.326   1.947  0.2250 -0.4803 -0.3313
    1SOL     OW 3909   0.206   1.562   1.839 -0.1883  0.4271 -0.0442
    1SOL    HW2 3910   0.287   1.592   1.879 -1.2699 -1.3435  3.7261
    1SOL    HW3 3911   0.137   1.608   1.887 -1.5210 -1.6815  0.1221
    1SOL    MW4 3912   0.208   1.572   1.851 -0.5068 -0.0846  0.4752
    1SOL     OW 3913   4.484   1.671   1.951  0.2208  0.1374 -0.5769
    1SOL    HW2 3914   4.486   1.670   2.047  0.6310 -2.6570 -0.5834
    1SOL    HW3 3915   4.400   1.632   1.927  0.1682  0.7137 -1.3638
    1SOL    MW4 3916   4.473   1.666   1.960  0.2680 -0.1553 -0.6815
    1SOL     OW 3917   0.015   1.900   1.821  0.0498  0.3666 -0.3295
    1SOL    HW2 3918  -0.055   1.955   1.857  0.2798  0.6144 -0.2604
    1SOL    HW3 3919   0.007   1.817   1.868 -0.0200  0.4913 -0.1208
    1SOL    MW4 3920   0.005   1.896   1.832  0.0706  0.4157 -0.2929
    1SOL     OW 3921   0.222   2.037   1.979 -0.1855 -0.2482  0.1052
    1SOL    HW2 3922   0.230   2.121   1.933  1.4623 -0.6483 -0.3877
    1SOL    HW3 3923   0.155   1.989   1.930  0.5782 -0.1350 -1.0673
    1SOL    MW4 3924   0.214   2.042   1.966  0.1327 -0.2863 -0.1146
    1SOL     OW 3925   0.220   2.285   1.824 -0.2340  0.3199 -0.3035
    1SOL    HW2 3926   0.297   2.338   1.844 -0.4328  0.7855 -0.7686
    1SOL    HW3 3927   0.146   2.333   1.861 -0.3513  0.0783 -0.2175
    1SOL    MW4 3928   0.220   2.298   1.831 -0.2757  0.3495 -0.3533
    1SOL     OW 3929   0.020   2.442   1.951  0.3489 -0.2748  0.2915
    1SOL    HW2 3930   0.022   2.432   2.046 -0.2315 -0.1201  0.3218
    1SOL    HW3 3931   0.011   2.536   1.937 -1.2987 -0.4514  0.1137
    1SOL    MW4 3932   0.019   2.453   1.962  0.0549 -0.2778  0.2722
    1SOL     OW 3933   0.007   2.723   1.895 -0.2609 -0.2387 -0.1335
    1SOL    HW2 3934  -0.063   2.780   1.924 -0.6409 -0.6688 -0.2019
    1SOL    HW3 3935  -0.004   2.718   1.800 -1.2122 -1.7032  0.0358
    1SOL    MW4 3936  -0.003   2.730   1.886 -0.4365 -0.4885 -0.1202
    1SOL     OW 3937   0.221   2.835   1.979 -0.0309 -0.1690 -0.0367
    1SOL    HW2 3938   0.217   2.928   1.957  1.1820  0.0916  0.8211
    1SOL    HW3 3939   0.139   2.799   1.945 -1.4484  1.5844  1.4504
    1SOL    MW4 3940   0.210   2.843   1.971 -0.0579  0.0968  0.2725
    1SOL     OW 3941   0.201   3.093   1.869  0.1396  0.6554  0.1849
    1SOL    HW2 3942   0.288   3.129   1.886  0.5712 -0.8150  1.1799
    1SOL    HW3 3943   0.198   3.083   1.774  1.8872 -1.2384  0.2969
    1SOL    MW4 3944   0.212   3.096   1.858  0.4271  0.2115  0.3309
    1SOL     OW 3945   4.477   3.220   1.969  0.2564  0.2379 -0.0404
    1SOL    HW2 3946   4.396   3.197   1.924 -0.2966  1.5016  0.3070
    1SOL    HW3 3947   4.544   3.168   1.925 -0.4675  0.5002 -1.4718
    1SOL    MW4 3948   4.475   3.210   1.958  0.0873  0.4394 -0.1835
    1SOL     OW 3949   4.475   3.487   1.878  0.0152 -0.0279 -0.4179
    1SOL    HW2 3950   4.549   3.522   1.926  0.1867 -0.6523 -0.2258
    1SOL    HW3 3951   4.466   3.397   1.909 -0.9319  0.0988 -0.3087
    1SOL    MW4 3952   4.483   3.480   1.888 -0.0868 -0.0935 -0.3781
    1SOL     OW 3953   0.221   3.595   1.978  0.2201 -0.2493  0.4419
    1SOL    HW2 3954   0.244   3.602   2.071  3.3467  0.6617 -0.3543
    1SOL    HW3 3955   0.302   3.569   1.935 -1.1185 -0.3676 -2.1044
    1SOL    MW4 3956   0.234   3.593   1.985  0.4560 -0.1450  0.0010
    1SOL     OW 3957   0.181   3.853   1.873 -0.3867 -0.0549  0.2358
    1SOL    HW2 3958   0.266   3.890   1.897  0.8669 -1.6278 -1.6403
    1SOL    HW3 3959   0.178   3.769   1.918 -0.7279 -0.2437 -0.1338
    1SOL    MW4 3960   0.192   3.847   1.882 -0.2663 -0.2875 -0.0606
    1SOL     OW 3961   4.476   3.998   1.981  0.1941 -0.0249  0.1064
    1SOL    HW2 3962   4.489   4.082   1.937 -0.8202 -0.1686 -0.4789
    1SOL    HW3 3963   4.534   3.938   1.936 -1.2558 -0.2989 -1.4142
    1SOL    MW4 3964   4.486   4.001   1.969 -0.1310 -0.0801 -0.1714
    1SOL     OW 3965   4.480   4.256   1.883  0.5366  0.2064 -0.5538
    1SOL    HW2 3966   4.414   4.309   1.928  1.1215 -0.7403  1.4910
    1SOL    HW3 3967   4.563   4.283   1.923  1.0094 -1.1034 -0.6358
    1SOL    MW4 3968   4.483   4.267   1.894  0.6757 -0.0911 -0.2948
    1SOL     OW 3969   0.241   4.347   1.978 -0.1416  0.1985  0.3805
    1SOL    HW2 3970   0.239   4.337   2.074  1.0688 -0.1663  0.3816
    1SOL    HW3 3971   0.253   4.441   1.965  0.1913  0.1917  0.6056
    1SOL    MW4 3972   0.242   4.358   1.989  0.0620  0.1493  0.4103
    1SOL     OW 3973   0.696   4.630   1.857 -0.3479  0.4012  0.1466
    1SOL    HW2 3974   0.698   4.540   1.890 -0.5753  0.4665  0.3398
    1SOL    HW3 3975   0.706   4.621   1.762  0.0410  0.1970  0.2040
    1SOL    MW4 3976   0.698   4.617   1.849 -0.3266  0.3834  0.1796
    1SOL     OW 3977   0.458   0.082   1.974  0.0431  0.0228  0.0086
    1SOL    HW2 3978   0.461   0.165   1.925  1.5431  0.4620  0.8099
    1SOL    HW3 3979   0.531   0.031   1.939 -0.0851 -0.4426  0.4191
    1SOL    MW4 3980   0.468   0.086   1.963  0.2241  0.0193  0.1684
    1SOL     OW 3981   0.430   0.350   1.863  0.3648 -0.3180  0.3707
    1SOL    HW2 3982   0.503   0.408   1.885 -0.0623 -0.0634  1.1499
    1SOL    HW3 3983   0.425   0.353   1.767  0.3113  0.9869  0.4085
    1SOL    MW4 3984   0.439   0.358   1.853  0.3014 -0.1122  0.4785
    1SOL     OW 3985   0.667   0.512   1.939 -0.1031  0.0210 -0.0114
    1SOL    HW2 3986   0.683   0.524   2.033 -0.8624  0.9068  0.0155
    1SOL    HW3 3987   0.734   0.450   1.911 -0.3987 -0.9400  1.3028
    1SOL    MW4 3988   0.678   0.505   1.948 -0.2423  0.0111  0.1656
    1SOL     OW 3989   0.658   0.791   1.840 -0.3414 -0.1075 -0.0114
    1SOL    HW2 3990   0.739   0.825   1.879  0.0729  1.4055 -2.0846
    1SOL    HW3 3991   0.640   0.711   1.888  2.8088 -0.8835 -0.0150
    1SOL    MW4 3992   0.666   0.785   1.852  0.1289 -0.0103 -0.2853
    1SOL     OW 3993   0.431   0.943   1.937  0.4096  0.4137  0.2678
    1SOL    HW2 3994   0.429   0.934   2.032  2.0749 -1.5509  0.1418
    1SOL    HW3 3995   0.522   0.923   1.913  0.0117  0.9124 -1.7296
    1SOL    MW4 3996   0.443   0.939   1.946  0.5769  0.2202 -0.0123
    1SOL     OW 3997   0.439   1.208   1.855 -0.1635 -0.0763  0.2830
    1SOL    HW2 3998   0.374   1.259   1.904 -1.2596  0.2524 -1.4704
    1SOL    HW3 3999   0.429   1.119   1.888 -1.0142  0.1017  0.5297
    1SOL    MW4 4000   0.429   1.203   1.866 -0.4204 -0.0094  0.0843
    1SOL     OW 4001   0.715   1.283   1.964 -0.0996 -0.1029  0.3220
    1SOL    HW2 4002   0.712   1.302   2.058 -0.0047  0.1855  0.2672
    1SOL    HW3 4003   0.622   1.279   1.938 -0.1325 -1.0804  0.6053
    1SOL    MW4 4004   0.702   1.285   1.973 -0.0914 -0.1938  0.3521
    1SOL     OW 4005   0.706   1.526   1.830 -0.5471  0.1674 -0.1109
    1SOL    HW2 4006   0.742   1.439   1.846 -0.7104  0.2882  0.9709
    1SOL    HW3 4007   0.717   1.540   1.736 -0.4310 -0.9777 -0.2718
    1SOL    MW4 4008   0.712   1.516   1.820 -0.5534  0.0323  0.0106
    1SOL     OW 4009   0.457   1.614   1.953  0.5483  0.0154 -0.0987
    1SOL    HW2 4010   0.467   1.613   2.048 -2.4380 -1.1894  0.2769
    1SOL    HW3 4011   0.534   1.567   1.920  2.0042  1.1148  1.6494
    1SOL    MW4 4012   0.469   1.608   1.961  0.3464  0.0014  0.1816
    1SOL     OW 4013   0.434   1.868   1.860  0.1022 -0.3291 -0.3217
    1SOL    HW2 4014   0.449   1.776   1.878  0.3328 -0.6191 -1.8865
    1SOL    HW3 4015   0.366   1.894   1.921  1.1479 -1.1254  1.2100
    1SOL    MW4 4016   0.427   1.859   1.870  0.2706 -0.4723 -0.3260
    1SOL     OW 4017   0.651   2.037   1.920 -0.2856 -0.3689 -0.2893
    1SOL    HW2 4018   0.661   2.043   2.015 -0.4021  0.6302 -0.3397
    1SOL    HW3 4019   0.561   2.004   1.908 -0.3694 -0.2213 -0.0647
    1SOL    MW4 4020   0.640   2.033   1.931 -0.3121 -0.2177 -0.2663
    1SOL     OW 4021   0.677   2.317   1.858 -0.2107  0.1573 -0.2076
    1SOL    HW2 4022   0.680   2.223   1.872  1.0733  0.1020 -0.8247
    1SOL    HW3 4023   0.673   2.327   1.763 -0.8175  0.7210 -0.1293
    1SOL    MW4 4024   0.677   2.306   1.847 -0.1214  0.2246 -0.2786
    1SOL     OW 4025   0.432   2.433   1.915  0.3089  0.3612 -0.3362
    1SOL    HW2 4026   0.433   2.432   2.011 -0.5183 -2.1088 -0.3060
    1SOL    HW3 4027   0.519   2.399   1.891  0.1198 -0.0667 -0.4280
    1SOL    MW4 4028   0.444   2.428   1.925  0.1748 -0.0212 -0.3444
    1SOL     OW 4029   0.425   2.696   1.851  0.2106  0.2378  0.5705
    1SOL    HW2 4030   0.440   2.605   1.877  0.2373  0.9892  3.2955
    1SOL    HW3 4031   0.337   2.715   1.883  0.6195  1.4944  0.9491
    1SOL    MW4 4032   0.415   2.686   1.859  0.2681  0.5031  0.9800
    1SOL     OW 4033   0.653   2.837   1.955 -0.3537 -0.5919 -0.0085
    1SOL    HW2 4034   0.643   2.857   2.048 -2.1228  2.3439 -0.7505
    1SOL    HW3 4035   0.570   2.797   1.930 -0.5367  0.1803 -0.6622
    1SOL    MW4 4036   0.641   2.835   1.964 -0.6112 -0.1023 -0.1928
    1SOL     OW 4037   0.669   3.099   1.869 -0.0876 -0.0760 -0.3311
    1SOL    HW2 4038   0.642   3.009   1.889 -0.9851  0.1993 -0.2577
    1SOL    HW3 4039   0.691   3.098   1.776  0.4964 -0.5116 -0.1903
    1SOL    MW4 4040   0.668   3.087   1.860 -0.1290 -0.0970 -0.3028
    1SOL     OW 4041   0.428   3.216   1.972 -0.3955  0.1271  0.2955
    1SOL    HW2 4042   0.427   3.306   1.942 -0.5099 -0.0776 -0.3117
    1SOL    HW3 4043   0.512   3.181   1.941 -1.0066 -0.4165 -0.7669
    1SOL    MW4 4044   0.439   3.223   1.964 -0.4912  0.0281  0.0753
    1SOL     OW 4045   0.446   3.485   1.879 -0.1226 -0.4805  0.1541
    1SOL    HW2 4046   0.526   3.530   1.908 -0.8659  0.0396  1.4319
    1SOL    HW3 4047   0.451   3.488   1.783  0.4729  1.2207  0.2080
    1SOL    MW4 4048   0.457   3.491   1.870 -0.1421 -0.1872  0.3299
    1SOL     OW 4049   0.659   3.613   1.975 -0.0034  0.3887 -0.3723
    1SOL    HW2 4050   0.729   3.562   1.935 -0.8158 -0.6155 -0.5383
    1SOL    HW3 4051   0.666   3.700   1.935  0.1417 -0.1696 -1.5796
    1SOL    MW4 4052   0.669   3.618   1.965 -0.0914  0.1826 -0.5536
    1SOL     OW 4053   0.677   3.866   1.887 -0.2163 -0.0514 -0.0313
    1SOL    HW2 4054   0.747   3.926   1.914  1.3872 -1.9686  0.2272
    1SOL    HW3 4055   0.689   3.855   1.793 -0.7186  0.2848 -0.1368
    1SOL    MW4 4056   0.688   3.873   1.878 -0.0710 -0.2599 -0.0110
    1SOL     OW 4057   0.431   3.944   1.977  0.0189 -0.0331 -0.1188
    1SOL    HW2 4058   0.434   4.038   1.956 -0.2111  0.4088  1.7741
    1SOL    HW3 4059   0.517   3.911   1.948  0.2771  0.8410 -0.3725
    1SOL    MW4 4060   0.443   3.952   1.970  0.0226  0.1407  0.0974
    1SOL     OW 4061   0.490   4.204   1.927 -0.2749  0.4543 -0.1763
    1SOL    HW2 4062   0.413   4.255   1.952 -0.3722  0.2639 -0.0830
    1SOL    HW3 4063   0.500   4.218   1.833 -0.3248  0.6133 -0.1569
    1SOL    MW4 4064   0.481   4.212   1.918 -0.2943  0.4501 -0.1614
    1SOL     OW 4065   0.692   4.381   1.982 -0.0208  0.4299  0.2988
    1SOL    HW2 4066   0.774   4.334   1.967  0.0505  0.1166  1.6537
    1SOL    HW3 4067   0.623   4.320   1.956  0.0993 -0.1279  1.2863
    1SOL    MW4 4068   0.694   4.367   1.976  0.0044  0.3152  0.6077
    1SOL     OW 4069   1.123   4.607   1.919  0.0483  0.4658  0.3015
    1SOL    HW2 4070   1.202   4.652   1.949  0.5103  0.2878 -0.6365
    1SOL    HW3 4071   1.138   4.515   1.941  0.0388  0.4504  0.2438
    1SOL    MW4 4072   1.136   4.600   1.926  0.1080  0.4401  0.1702
    1SOL     OW 4073   0.898   0.105   1.968  0.4924  0.0188  0.1897
    1SOL    HW2 4074   0.979   0.059   1.944  0.3367  0.1496 -0.5796
    1SOL    HW3 4075   0.828   0.051   1.932  0.2330 -0.0060  0.7148
    1SOL    MW4 4076   0.900   0.092   1.960  0.4376  0.0328  0.1574
    1SOL     OW 4077   0.876   0.364   1.880 -0.0201 -0.0119  0.3056
    1SOL    HW2 4078   0.941   0.406   1.937 -0.5644  1.0881  0.1163
    1SOL    HW3 4079   0.886   0.270   1.899  1.0762  0.2014  0.8571
    1SOL    MW4 4080   0.886   0.357   1.890  0.0528  0.1614  0.3532
    1SOL     OW 4081   1.090   0.510   1.987 -0.6436  0.0758 -0.0951
    1SOL    HW2 4082   1.170   0.460   1.972 -1.0523 -0.4782 -0.4327
    1SOL    HW3 4083   1.109   0.597   1.951 -0.4448 -0.2639 -0.8075
    1SOL    MW4 4084   1.103   0.515   1.981 -0.6713 -0.0421 -0.2335
    1SOL     OW 4085   1.112   0.764   1.882 -0.3915  0.5446  0.0193
    1SOL    HW2 4086   1.188   0.814   1.910  0.1459  0.5038 -1.2997
    1SOL    HW3 4087   1.037   0.817   1.909  0.1277  0.9920  0.5935
    1SOL    MW4 4088   1.112   0.778   1.889 -0.2521  0.5983 -0.0790
    1SOL     OW 4089   0.903   0.909   1.961  0.8067 -0.0842 -0.1746
    1SOL    HW2 4090   0.910   0.931   2.053 -0.4532 -0.2221 -0.0330
    1SOL    HW3 4091   0.910   0.993   1.915  0.8444  0.0547  0.0879
    1SOL    MW4 4092   0.905   0.923   1.967  0.6454 -0.0841 -0.1212
    1SOL     OW 4093   0.937   1.158   1.865  0.1312  0.5378 -0.2064
    1SOL    HW2 4094   0.858   1.202   1.896  0.0353  0.5578 -0.4726
    1SOL    HW3 4095   0.926   1.154   1.770  0.1409 -0.0630 -0.1801
    1SOL    MW4 4096   0.925   1.164   1.856  0.1198  0.4612 -0.2381
    1SOL     OW 4097   1.150   1.287   2.017  0.0020  0.2252 -0.1592
    1SOL    HW2 4098   1.137   1.375   1.982  0.3873 -0.0792 -1.0628
    1SOL    HW3 4099   1.083   1.234   1.973  0.3349 -0.1092 -0.2605
    1SOL    MW4 4100   1.139   1.292   2.007  0.0967  0.1409 -0.2918
    1SOL     OW 4101   1.106   1.526   1.877  0.6803  0.1620 -0.3942
    1SOL    HW2 4102   1.038   1.585   1.909  0.2438 -0.0646 -0.8936
    1SOL    HW3 4103   1.095   1.527   1.782  0.7199 -0.6657 -0.4124
    1SOL    MW4 4104   1.096   1.534   1.869  0.6279  0.0229 -0.4627
    1SOL     OW 4105   0.888   1.663   1.973 -0.6050 -0.1254  0.5142
    1SOL    HW2 4106   0.885   1.754   1.943  0.6191 -0.0881  0.5098
    1SOL    HW3 4107   0.814   1.621   1.929  0.8726  0.0405 -2.1604
    1SOL    MW4 4108   0.878   1.670   1.964 -0.2486 -0.0985  0.1607
    1SOL     OW 4109   0.890   1.913   1.863  0.0580 -0.1076  0.4888
    1SOL    HW2 4110   0.818   1.971   1.886 -0.8798 -1.5344  1.2278
    1SOL    HW3 4111   0.917   1.940   1.775 -0.6032  1.1835  0.6780
    1SOL    MW4 4112   0.884   1.924   1.855 -0.1529 -0.1255  0.6113
    1SOL     OW 4113   1.099   2.069   1.999 -0.3150 -0.2864  0.1478
    1SOL    HW2 4114   1.121   2.154   1.963  0.5036 -0.4689  0.2203
    1SOL    HW3 4115   1.036   2.032   1.937 -0.8755  0.4705  0.2513
    1SOL    MW4 4116   1.093   2.075   1.986 -0.2810 -0.2108  0.1709
    1SOL     OW 4117   1.140   2.334   1.903 -0.0320 -0.5752 -0.1844
    1SOL    HW2 4118   1.212   2.382   1.945 -1.4784  0.6223  0.9595
    1SOL    HW3 4119   1.159   2.340   1.810  0.7371  0.7188  0.0374
    1SOL    MW4 4120   1.152   2.341   1.897 -0.1214 -0.2463 -0.0042
    1SOL     OW 4121   0.894   2.452   1.977  0.4159 -0.1133  0.4170
    1SOL    HW2 4122   0.968   2.407   1.936  0.7748 -0.3676  1.3404
    1SOL    HW3 4123   0.817   2.401   1.950  0.4116  0.8978 -1.6108
    1SOL    MW4 4124   0.894   2.439   1.968  0.4627 -0.0134  0.2714
    1SOL     OW 4125   0.904   2.724   1.870  0.0014  0.2523 -0.2203
    1SOL    HW2 4126   0.906   2.631   1.891  1.9592  0.3500  0.1058
    1SOL    HW3 4127   0.815   2.752   1.893 -0.1944 -1.2427  0.9100
    1SOL    MW4 4128   0.893   2.715   1.875  0.2339  0.0679 -0.0281
    1SOL     OW 4129   1.153   2.851   1.972  0.0484  0.2878 -0.0056
    1SOL    HW2 4130   1.144   2.870   2.066 -0.8985 -0.3842  0.0558
    1SOL    HW3 4131   1.067   2.817   1.947 -0.1835  1.9137 -1.4763
    1SOL    MW4 4132   1.140   2.849   1.981 -0.1072  0.4137 -0.1917
    1SOL     OW 4133   1.123   3.096   1.846  0.7016  0.4626  0.5696
    1SOL    HW2 4134   1.042   3.139   1.872  0.3224  0.4513 -0.6038
    1SOL    HW3 4135   1.122   3.013   1.894 -0.2879  0.1775  0.0662
    1SOL    MW4 4136   1.112   3.091   1.856  0.5209  0.4234  0.3483
    1SOL     OW 4137   0.898   3.209   1.962  0.2947 -0.0704 -0.1316
    1SOL    HW2 4138   0.891   3.228   2.055  1.1341 -1.3184  0.2003
    1SOL    HW3 4139   0.812   3.172   1.938 -0.3316  1.3515 -0.1383
    1SOL    MW4 4140   0.885   3.207   1.971  0.3228 -0.0470 -0.0886
    1SOL     OW 4141   0.899   3.477   1.869 -0.3805  0.1318  0.3403
    1SOL    HW2 4142   0.903   3.386   1.897 -1.9387 -0.3192 -0.8204
    1SOL    HW3 4143   0.903   3.473   1.773 -0.3973  1.2903  0.2817
    1SOL    MW4 4144   0.900   3.465   1.860 -0.5883  0.2248  0.1794
    1SOL     OW 4145   1.129   3.583   1.978  0.1796  0.2634 -0.1427
    1SOL    HW2 4146   1.124   3.583   2.073  0.3166  1.2055 -0.1268
    1SOL    HW3 4147   1.049   3.539   1.949  0.6494 -0.9772  0.4242
    1SOL    MW4 4148   1.118   3.577   1.987  0.2596  0.2239 -0.0658
    1SOL     OW 4149   1.137   3.863   1.893 -0.4849  0.4743 -0.4466
    1SOL    HW2 4150   1.124   3.771   1.916  0.1505 -0.0063 -1.8980
    1SOL    HW3 4151   1.132   3.864   1.797  1.9997  1.5365 -0.5980
    1SOL    MW4 4152   1.135   3.851   1.883 -0.0732  0.5510 -0.6582
    1SOL     OW 4153   0.900   4.019   1.972 -0.3832  0.2876  0.5695
    1SOL    HW2 4154   0.908   4.029   2.066  0.9509 -0.4602  0.5350
    1SOL    HW3 4155   0.974   3.965   1.946 -1.3098 -0.3780 -0.7718
    1SOL    MW4 4156   0.911   4.013   1.981 -0.3294  0.1011  0.3878
    1SOL     OW 4157   0.916   4.263   1.862 -0.1906  0.0225 -0.7555
    1SOL    HW2 4158   0.993   4.308   1.896 -1.5766  0.7934  1.4246
    1SOL    HW3 4159   0.917   4.178   1.905 -0.2738 -0.1681 -1.1301
    1SOL    MW4 4160   0.926   4.258   1.872 -0.3844  0.0987 -0.5174
    1SOL     OW 4161   1.144   4.343   1.991  0.1135  0.1853 -0.2781
    1SOL    HW2 4162   1.130   4.370   2.082 -1.1376 -1.5439  0.0810
    1SOL    HW3 4163   1.235   4.314   1.988  0.4523  1.1938  0.1799
    1SOL    MW4 4164   1.154   4.343   2.003 -0.0069  0.0906 -0.1702
    1SOL     OW 4165   1.621   0.016   1.906  0.5868  0.3390  0.3617
    1SOL    HW2 4166   1.709   0.047   1.928  1.0606 -1.4700  1.1024
    1SOL    HW3 4167   1.618  -0.072   1.942 -1.2677  0.1061 -0.3615
    1SOL    MW4 4168   1.632   0.009   1.914  0.4047  0.0696  0.3641
    1SOL     OW 4169   1.350   0.106   1.930  0.2023 -0.3396 -0.1899
    1SOL    HW2 4170   1.361   0.116   2.024 -0.4855 -1.7176  0.0517
    1SOL    HW3 4171   1.434   0.072   1.899  0.4392  0.1452 -0.0837
    1SOL    MW4 4172   1.362   0.103   1.938  0.1429 -0.4575 -0.1438
    1SOL     OW 4173   1.316   0.369   1.893  0.1339 -0.0002  0.1727
    1SOL    HW2 4174   1.329   0.276   1.911  1.1295  0.0448 -0.2340
    1SOL    HW3 4175   1.326   0.377   1.799 -0.7581  0.4006  0.1113
    1SOL    MW4 4176   1.319   0.358   1.883  0.1476  0.0586  0.1110
    1SOL     OW 4177   1.579   0.513   1.940 -0.0678 -0.0973  0.1432
    1SOL    HW2 4178   1.648   0.458   1.904  0.2792  0.6147 -0.3135
    1SOL    HW3 4179   1.497   0.467   1.920  0.1796 -0.1645 -0.7599
    1SOL    MW4 4180   1.577   0.500   1.932  0.0107 -0.0122 -0.0361
    1SOL     OW 4181   1.576   0.776   1.867  0.5054 -0.0555 -0.4175
    1SOL    HW2 4182   1.653   0.818   1.906  0.9924  0.4002 -1.8253
    1SOL    HW3 4183   1.585   0.684   1.892  1.4397  0.0116 -0.4553
    1SOL    MW4 4184   1.588   0.769   1.876  0.6930  0.0135 -0.6083
    1SOL     OW 4185   1.355   0.904   1.949  0.0741  0.1157 -0.0755
    1SOL    HW2 4186   1.368   0.904   2.044 -1.1304 -0.8911  0.1007
    1SOL    HW3 4187   1.422   0.845   1.915  1.7761  1.9958 -0.0509
    1SOL    MW4 4188   1.365   0.896   1.957  0.1398  0.2309 -0.0490
    1SOL     OW 4189   1.382   1.172   1.884 -0.1154 -0.2139 -0.1717
    1SOL    HW2 4190   1.369   1.079   1.904 -0.3978  0.2001  1.6564
    1SOL    HW3 4191   1.303   1.215   1.917  0.0288  0.6834 -0.9793
    1SOL    MW4 4192   1.370   1.165   1.891 -0.1336 -0.0410 -0.0372
    1SOL     OW 4193   1.581   1.309   2.023 -0.3072 -0.0079 -0.0339
    1SOL    HW2 4194   1.593   1.393   1.979 -0.0481 -0.1169 -0.1719
    1SOL    HW3 4195   1.503   1.272   1.982 -0.1734 -0.0271 -0.2761
    1SOL    MW4 4196   1.572   1.315   2.012 -0.2552 -0.0249 -0.0842
    1SOL     OW 4197   1.577   1.558   1.886  0.3610  0.0490  0.1136
    1SOL    HW2 4198   1.649   1.605   1.929  0.1752  0.3491  0.1040
    1SOL    HW3 4199   1.500   1.612   1.903  0.2250 -0.0092 -0.3000
    1SOL    MW4 4200   1.577   1.572   1.894  0.3186  0.0809  0.0577
    1SOL     OW 4201   1.334   1.699   1.952 -0.1334 -0.1964 -0.1802
    1SOL    HW2 4202   1.344   1.699   2.048  0.0799 -0.7535 -0.2021
    1SOL    HW3 4203   1.264   1.636   1.935 -0.8639  0.6387 -0.3272
    1SOL    MW4 4204   1.326   1.691   1.963 -0.2016 -0.1597 -0.2024
    1SOL     OW 4205   1.338   1.971   1.863  0.0815 -0.1198  0.0513
    1SOL    HW2 4206   1.349   1.879   1.886 -0.7606 -0.4975 -1.0041
    1SOL    HW3 4207   1.254   1.996   1.903  0.4579  0.2795  0.5995
    1SOL    MW4 4208   1.328   1.962   1.871  0.0200 -0.1171 -0.0156
    1SOL     OW 4209   1.591   2.080   1.998 -0.5740  0.1081 -0.2561
    1SOL    HW2 4210   1.601   2.174   1.987  1.7754 -0.1938 -0.8010
    1SOL    HW3 4211   1.505   2.061   1.960 -0.9306  1.9694 -0.4371
    1SOL    MW4 4212   1.581   2.090   1.992 -0.3111  0.3138 -0.3520
    1SOL     OW 4213   1.605   2.337   1.903  0.1344 -0.0507  0.2375
    1SOL    HW2 4214   1.675   2.397   1.928 -0.1417 -0.4887  2.1372
    1SOL    HW3 4215   1.598   2.346   1.808  0.5980  2.3488  0.4155
    1SOL    MW4 4216   1.613   2.346   1.894  0.1590  0.2081  0.5118
    1SOL     OW 4217   1.346   2.438   2.041 -0.2709  0.2202 -0.2187
    1SOL    HW2 4218   1.350   2.528   2.007 -1.2219  0.9258  1.4811
    1SOL    HW3 4219   1.432   2.401   2.019  1.0690  2.3498  1.1321
    1SOL    MW4 4220   1.358   2.445   2.034 -0.2196  0.5944  0.1841
    1SOL     OW 4221   1.338   2.675   1.902 -0.3150 -0.2762  0.0904
    1SOL    HW2 4222   1.272   2.734   1.939  1.5470  2.3993 -0.6397
    1SOL    HW3 4223   1.329   2.687   1.807  0.1389 -1.1059 -0.0549
    1SOL    MW4 4224   1.328   2.685   1.894 -0.0095 -0.0324 -0.0250
    1SOL     OW 4225   1.538   2.849   1.964  0.4041 -0.0541  0.3321
    1SOL    HW2 4226   1.609   2.817   1.909  1.8693  1.5091  1.2706
    1SOL    HW3 4227   1.464   2.792   1.943  1.6313 -1.0531 -1.4115
    1SOL    MW4 4228   1.538   2.837   1.954  0.7592  0.0203  0.2258
    1SOL     OW 4229   1.560   3.103   1.840  0.2983 -0.2905 -0.7762
    1SOL    HW2 4230   1.538   3.015   1.873 -0.1634 -0.2663 -1.0072
    1SOL    HW3 4231   1.560   3.094   1.745 -0.7140  0.1696 -0.8355
    1SOL    MW4 4232   1.557   3.090   1.832  0.1037 -0.2270 -0.8146
    1SOL     OW 4233   1.315   3.210   2.039 -0.3004  0.1361  0.1011
    1SOL    HW2 4234   1.402   3.179   2.013  0.4444  0.8671  1.5838
    1SOL    HW3 4235   1.254   3.159   1.988  0.9843 -1.3653  0.0380
    1SOL    MW4 4236   1.319   3.199   2.029 -0.0325  0.0341  0.2882
    1SOL     OW 4237   1.360   3.443   1.902 -0.2179  0.3165  0.3276
    1SOL    HW2 4238   1.340   3.373   1.964  0.5922  0.2028  0.4664
    1SOL    HW3 4239   1.287   3.503   1.909 -1.1300 -0.7296 -0.1001
    1SOL    MW4 4240   1.348   3.442   1.911 -0.2314  0.1636  0.2897
    1SOL     OW 4241   1.566   3.584   2.014 -0.1826  0.3589 -0.4338
    1SOL    HW2 4242   1.568   3.582   2.110 -0.9883  0.7063 -0.4097
    1SOL    HW3 4243   1.499   3.520   1.990  0.0636  0.2273 -0.7665
    1SOL    MW4 4244   1.558   3.575   2.024 -0.2564  0.3872 -0.4745
    1SOL     OW 4245   1.554   3.847   1.934 -0.3844 -0.7154  0.3893
    1SOL    HW2 4246   1.643   3.879   1.940 -0.1221 -1.2308 -0.5933
    1SOL    HW3 4247   1.559   3.754   1.959 -0.7981 -0.5088  1.2463
    1SOL    MW4 4248   1.566   3.839   1.938 -0.4044 -0.7560  0.3729
    1SOL     OW 4249   1.348   4.048   1.992 -0.3111  0.6553 -0.1242
    1SOL    HW2 4250   1.417   3.981   1.986 -0.3951  0.6720 -1.3128
    1SOL    HW3 4251   1.269   4.003   1.962 -0.3725  1.2795 -0.8993
    1SOL    MW4 4252   1.347   4.033   1.988 -0.3302  0.7401 -0.3833
    1SOL     OW 4253   1.392   4.294   1.879  0.1929 -0.1955 -0.4307
    1SOL    HW2 4254   1.394   4.207   1.919 -1.0869  0.2983  0.7331
    1SOL    HW3 4255   1.373   4.277   1.787  0.7734 -1.1961 -0.3746
    1SOL    MW4 4256   1.390   4.280   1.872  0.1009 -0.2618 -0.2697
    1SOL     OW 4257   1.611   4.425   1.996  0.6041  0.5854 -0.0568
    1SOL    HW2 4258   1.604   4.412   2.090  1.5987 -0.3083 -0.0899
    1SOL    HW3 4259   1.534   4.382   1.959  0.2782  0.8308  0.3446
    1SOL    MW4 4260   1.600   4.417   2.003  0.6924  0.5002 -0.0083
    1SOL     OW 4261   2.061   4.612   1.888  0.0466  0.1534 -0.0087
    1SOL    HW2 4262   2.131   4.668   1.921  0.1886  0.0166 -0.0823
    1SOL    HW3 4263   2.074   4.528   1.930 -1.5164  0.8165  1.8745
    1SOL    MW4 4264   2.072   4.608   1.898 -0.1407  0.2222  0.2301
    1SOL     OW 4265   1.861   0.110   1.983  0.1915 -0.0623 -0.2217
    1SOL    HW2 4266   1.854   0.097   2.078  0.5930 -0.1615 -0.2041
    1SOL    HW3 4267   1.909   0.034   1.951 -1.1094 -0.6936 -0.6988
    1SOL    MW4 4268   1.866   0.099   1.992  0.0727 -0.1587 -0.2823
    1SOL     OW 4269   1.784   0.354   1.874 -0.2931  0.2283  0.2593
    1SOL    HW2 4270   1.821   0.274   1.913  0.7716  0.5252 -0.1259
    1SOL    HW3 4271   1.808   0.348   1.781 -1.2629  0.4128 -0.0162
    1SOL    MW4 4272   1.792   0.342   1.867 -0.2804  0.2918  0.1720
    1SOL     OW 4273   1.989   0.500   1.961 -0.4798 -0.4011 -0.3087
    1SOL    HW2 4274   1.976   0.580   1.910  1.0653  0.0385 -0.0193
    1SOL    HW3 4275   1.916   0.444   1.934 -1.4907  1.0190 -0.6457
    1SOL    MW4 4276   1.977   0.503   1.950 -0.4095 -0.1558 -0.3151
    1SOL     OW 4277   2.001   0.754   1.850  0.2901 -0.0928 -0.3164
    1SOL    HW2 4278   2.080   0.774   1.901 -0.3951  2.0907 -0.0525
    1SOL    HW3 4279   1.930   0.796   1.898 -0.9881 -1.6260 -0.8193
    1SOL    MW4 4280   2.002   0.762   1.863  0.0310 -0.0071 -0.3480
    1SOL     OW 4281   1.800   0.877   1.991 -0.2750  0.1928 -0.0721
    1SOL    HW2 4282   1.791   0.967   1.961  0.4623  0.2725 -0.0619
    1SOL    HW3 4283   1.813   0.884   2.086 -0.5212  0.0599 -0.0285
    1SOL    MW4 4284   1.800   0.890   2.000 -0.2104  0.1857 -0.0648
    1SOL     OW 4285   1.772   1.136   1.912 -0.1124 -0.2654 -0.1118
    1SOL    HW2 4286   1.706   1.190   1.955 -0.9639 -1.2783 -0.1198
    1SOL    HW3 4287   1.856   1.176   1.935 -0.7222  0.9459  0.0141
    1SOL    MW4 4288   1.774   1.148   1.920 -0.3052 -0.2391 -0.0961
    1SOL     OW 4289   1.998   1.287   2.001 -0.0162 -0.1206  0.1742
    1SOL    HW2 4290   2.068   1.228   1.972 -0.4843 -0.9667  0.7369
    1SOL    HW3 4291   2.022   1.311   2.090 -0.9393 -1.1893  0.7148
    1SOL    MW4 4292   2.010   1.282   2.009 -0.1998 -0.3731  0.3197
    1SOL     OW 4293   1.997   1.541   1.894 -0.0178  0.0658 -0.3322
    1SOL    HW2 4294   1.997   1.450   1.925 -1.3550  0.0660 -0.2871
    1SOL    HW3 4295   2.004   1.534   1.799  1.3769 -0.0252 -0.2332
    1SOL    MW4 4296   1.998   1.528   1.885 -0.0103  0.0539 -0.3132
    1SOL     OW 4297   1.792   1.678   2.015 -0.0614  0.0680 -0.0180
    1SOL    HW2 4298   1.798   1.768   1.983  0.2385  0.1377  0.2260
    1SOL    HW3 4299   1.858   1.630   1.965 -0.4456 -0.0867 -0.3787
    1SOL    MW4 4300   1.802   1.683   2.004 -0.0725  0.0567 -0.0334
    1SOL     OW 4301   1.815   1.937   1.906  0.5433  0.1255  0.1234
    1SOL    HW2 4302   1.742   1.983   1.948  0.9094  0.5756  0.2678
    1SOL    HW3 4303   1.811   1.965   1.814  0.6673  0.3192  0.1771
    1SOL    MW4 4304   1.805   1.947   1.899  0.6080  0.2104  0.1495
    1SOL     OW 4305   2.032   2.085   1.974 -0.3884 -0.1085  0.0782
    1SOL    HW2 4306   2.107   2.038   1.938 -0.4317 -0.2104  0.1213
    1SOL    HW3 4307   1.957   2.027   1.958 -0.4023 -0.1742  0.3632
    1SOL    MW4 4308   2.032   2.071   1.967 -0.3960 -0.1309  0.1215
    1SOL     OW 4309   2.009   2.327   1.837 -0.1402 -0.4058 -0.7258
    1SOL    HW2 4310   2.092   2.373   1.851 -1.1040  0.6540  1.8665
    1SOL    HW3 4311   2.021   2.242   1.878  0.0270 -0.6272 -1.2432
    1SOL    MW4 4312   2.021   2.322   1.844 -0.2456 -0.2949 -0.4520
    1SOL     OW 4313   1.806   2.505   1.950  0.1569  0.1623  0.1675
    1SOL    HW2 4314   1.811   2.484   2.043 -1.6755 -1.1607 -0.0125
    1SOL    HW3 4315   1.873   2.449   1.910 -0.6799 -1.0261  0.4108
    1SOL    MW4 4316   1.816   2.495   1.957 -0.1953 -0.1690  0.1758
    1SOL     OW 4317   1.784   2.744   1.830  0.0072 -0.1713 -0.3546
    1SOL    HW2 4318   1.791   2.661   1.877  0.9249 -0.3966 -0.8755
    1SOL    HW3 4319   1.798   2.721   1.738  1.5382  0.7307 -0.3725
    1SOL    MW4 4320   1.787   2.730   1.824  0.3301 -0.0818 -0.4257
    1SOL     OW 4321   2.008   2.869   1.940 -0.3912  0.4887 -0.0584
    1SOL    HW2 4322   2.012   2.835   2.029  0.1167 -1.2450 -0.7222
    1SOL    HW3 4323   1.923   2.840   1.906 -0.1869  0.3245 -0.4447
    1SOL    MW4 4324   1.997   2.861   1.947 -0.2972  0.2382 -0.1969
    1SOL     OW 4325   2.004   3.121   1.860  0.2988  0.5693 -0.1144
    1SOL    HW2 4326   1.928   3.160   1.903 -2.3013 -1.6117 -2.5685
    1SOL    HW3 4327   2.011   3.033   1.898  1.3388  0.5852 -0.2416
    1SOL    MW4 4328   1.995   3.115   1.871  0.0929  0.2837 -0.4551
    1SOL     OW 4329   1.770   3.226   1.973 -0.3515 -0.2722  0.3225
    1SOL    HW2 4330   1.773   3.222   2.068 -0.3907 -1.4879  0.2749
    1SOL    HW3 4331   1.687   3.185   1.949  0.5665 -1.8404 -0.3209
    1SOL    MW4 4332   1.760   3.220   1.982 -0.2357 -0.6397  0.2313
    1SOL     OW 4333   1.772   3.478   1.863  0.3949  0.9743 -0.3808
    1SOL    HW2 4334   1.758   3.395   1.909  0.8842  0.4656 -1.1491
    1SOL    HW3 4335   1.702   3.535   1.896  0.3838  0.4297  0.5493
    1SOL    MW4 4336   1.761   3.475   1.874  0.4580  0.8354 -0.3594
    1SOL     OW 4337   1.999   3.612   1.979  0.0552 -0.1733  0.3052
    1SOL    HW2 4338   2.008   3.701   1.946  0.0147 -0.3689 -0.2471
    1SOL    HW3 4339   1.929   3.573   1.926  0.9959 -0.9494 -0.3920
    1SOL    MW4 4340   1.991   3.618   1.967  0.1739 -0.3016  0.1405
    1SOL     OW 4341   2.029   3.862   1.890  0.2909  0.3435 -0.4648
    1SOL    HW2 4342   2.103   3.914   1.923  0.6641 -0.9446  0.7582
    1SOL    HW3 4343   2.036   3.869   1.795  1.9941  0.2512 -0.3705
    1SOL    MW4 4344   2.040   3.870   1.882  0.5651  0.1614 -0.2911
    1SOL     OW 4345   1.786   3.966   1.990 -0.3502  0.1482 -0.1977
    1SOL    HW2 4346   1.786   4.059   1.966  0.9478  0.2561  0.2186
    1SOL    HW3 4347   1.863   3.929   1.946 -0.2898 -0.5215  0.4642
    1SOL    MW4 4348   1.796   3.973   1.981 -0.1711  0.0741 -0.0554
    1SOL     OW 4349   1.812   4.264   1.912 -0.6597 -0.3828  0.0819
    1SOL    HW2 4350   1.750   4.329   1.945 -0.1537  0.7321 -1.1760
    1SOL    HW3 4351   1.808   4.272   1.817  0.5419 -1.1364 -0.0402
    1SOL    MW4 4352   1.803   4.273   1.904 -0.4344 -0.3357 -0.1001
    1SOL     OW 4353   2.049   4.364   2.039 -0.0324  0.5178  0.0005
    1SOL    HW2 4354   2.124   4.316   2.002 -0.6741 -0.1845 -0.3955
    1SOL    HW3 4355   1.972   4.321   2.001 -0.6560  0.7194  1.0344
    1SOL    MW4 4356   2.049   4.352   2.029 -0.1991  0.4520  0.0846
    1SOL     OW 4357   2.473   4.643   1.884 -0.7123 -0.5518 -0.7865
    1SOL    HW2 4358   2.552   4.686   1.916 -0.7466 -0.3801 -0.9347
    1SOL    HW3 4359   2.470   4.560   1.932  0.1395 -1.0405 -1.5707
    1SOL    MW4 4360   2.483   4.637   1.895 -0.6044 -0.5932 -0.9096
    1SOL     OW 4361   2.255   0.119   1.994  0.3790 -0.5743 -0.1202
    1SOL    HW2 4362   2.262   0.105   2.089  0.3322 -1.3732 -0.2271
    1SOL    HW3 4363   2.335   0.080   1.958  0.1287 -0.7812 -0.4566
    1SOL    MW4 4364   2.267   0.112   2.002  0.3397 -0.7070 -0.1788
    1SOL     OW 4365   2.230   0.411   1.859 -0.4085  0.1057 -0.0738
    1SOL    HW2 4366   2.238   0.319   1.886  0.9315  0.0527 -0.6110
    1SOL    HW3 4367   2.154   0.443   1.906  1.2511 -0.2749  3.0048
    1SOL    MW4 4368   2.221   0.403   1.869 -0.0124  0.0485  0.2614
    1SOL     OW 4369   2.449   0.496   2.003 -0.4692 -0.3081 -0.2648
    1SOL    HW2 4370   2.512   0.451   1.947 -0.5262 -1.0905  0.2905
    1SOL    HW3 4371   2.363   0.472   1.967 -0.4628  0.6799 -0.9622
    1SOL    MW4 4372   2.446   0.487   1.991 -0.4759 -0.2810 -0.2835
    1SOL     OW 4373   2.488   0.749   1.897  0.3848  0.1314  0.0743
    1SOL    HW2 4374   2.473   0.661   1.931 -1.7363  0.8570  1.0858
    1SOL    HW3 4375   2.471   0.741   1.803 -2.9586  0.0742  0.6065
    1SOL    MW4 4376   2.484   0.736   1.889 -0.3362  0.2195  0.2780
    1SOL     OW 4377   2.242   0.877   1.971  0.7032 -0.0590  0.5744
    1SOL    HW2 4378   2.241   0.879   2.067  0.8795  1.3106  0.5558
    1SOL    HW3 4379   2.322   0.830   1.950  0.0600 -1.4115  1.1025
    1SOL    MW4 4380   2.253   0.871   1.981  0.6416 -0.0567  0.6416
    1SOL     OW 4381   2.201   1.129   1.898 -0.5496 -0.0748 -0.0367
    1SOL    HW2 4382   2.281   1.163   1.938 -1.0705  1.2079 -0.0467
    1SOL    HW3 4383   2.207   1.034   1.908  1.6261 -0.0981 -1.2933
    1SOL    MW4 4384   2.212   1.121   1.905 -0.3316  0.0914 -0.2036
    1SOL     OW 4385   2.438   1.261   1.971 -0.2056  0.2872  0.4056
    1SOL    HW2 4386   2.456   1.255   2.065  0.3072 -0.5446  0.2605
    1SOL    HW3 4387   2.425   1.354   1.956 -1.1219  0.3425  1.4511
    1SOL    MW4 4388   2.439   1.273   1.982 -0.2587  0.1847  0.5244
    1SOL     OW 4389   2.467   1.532   1.885  0.0581  0.0859  0.4276
    1SOL    HW2 4390   2.389   1.582   1.910 -0.0181  0.1344  0.0914
    1SOL    HW3 4391   2.469   1.537   1.789  1.5389  1.7098  0.5106
    1SOL    MW4 4392   2.457   1.540   1.876  0.2432  0.3065  0.3941
    1SOL     OW 4393   2.249   1.656   1.976  0.0384  0.0551 -0.4531
    1SOL    HW2 4394   2.264   1.664   2.070 -0.1253  0.9774 -0.5002
    1SOL    HW3 4395   2.167   1.607   1.969  0.3759 -0.5516 -0.1227
    1SOL    MW4 4396   2.240   1.651   1.987  0.0615  0.0967 -0.4158
    1SOL     OW 4397   2.239   1.921   1.880  0.2837 -0.2035  0.1750
    1SOL    HW2 4398   2.330   1.941   1.900  0.4471 -1.2850  0.5083
    1SOL    HW3 4399   2.227   1.830   1.908 -0.9084 -0.0511  0.1896
    1SOL    MW4 4400   2.249   1.912   1.887  0.1481 -0.3262  0.2209
    1SOL     OW 4401   2.492   1.997   1.953  0.0987  0.1905 -0.0370
    1SOL    HW2 4402   2.573   1.954   1.924  0.7456  0.2287  1.6400
    1SOL    HW3 4403   2.499   2.086   1.920  1.5363  0.6689  1.4895
    1SOL    MW4 4404   2.504   2.003   1.945  0.3738  0.2587  0.3856
    1SOL     OW 4405   2.467   2.278   1.891  0.3383 -0.0912 -0.0998
    1SOL    HW2 4406   2.548   2.325   1.914  0.5753 -0.4358 -0.2313
    1SOL    HW3 4407   2.398   2.341   1.909  0.5789 -0.0640  0.7611
    1SOL    MW4 4408   2.469   2.293   1.897  0.4013 -0.1333 -0.0036
    1SOL     OW 4409   2.236   2.461   1.945  0.1003  0.2778 -0.6207
    1SOL    HW2 4410   2.233   2.462   2.041 -0.4005 -0.0720 -0.6344
    1SOL    HW3 4411   2.235   2.554   1.921 -0.8825  0.3485 -0.3221
    1SOL    MW4 4412   2.236   2.473   1.955 -0.0954  0.2408 -0.5831
    1SOL     OW 4413   2.249   2.730   1.879 -0.1566 -0.2356  0.2005
    1SOL    HW2 4414   2.172   2.784   1.897 -0.4928 -0.9038  0.7609
    1SOL    HW3 4415   2.270   2.748   1.787 -1.0977 -0.2030 -0.0088
    1SOL    MW4 4416   2.242   2.739   1.869 -0.3252 -0.3192  0.2469
    1SOL     OW 4417   2.505   2.815   1.962  0.3502 -0.1986  0.3570
    1SOL    HW2 4418   2.503   2.910   1.951  1.7723 -0.3401 -1.4568
    1SOL    HW3 4419   2.416   2.787   1.944 -0.3892  0.9172  2.2304
    1SOL    MW4 4420   2.493   2.824   1.958  0.4404 -0.0703  0.3650
    1SOL     OW 4421   2.455   3.099   1.908  0.1468 -0.0825 -0.1891
    1SOL    HW2 4422   2.372   3.146   1.922  0.4843  0.6161 -0.5268
    1SOL    HW3 4423   2.461   3.088   1.813 -0.5721 -1.9885 -0.0315
    1SOL    MW4 4424   2.445   3.104   1.898  0.0963 -0.2418 -0.2129
    1SOL     OW 4425   2.219   3.229   1.980  0.4489  0.9074  0.2687
    1SOL    HW2 4426   2.216   3.217   2.075 -0.7902  2.0342  0.3691
    1SOL    HW3 4427   2.141   3.184   1.947  0.6150  0.9372 -0.1736
    1SOL    MW4 4428   2.209   3.221   1.988  0.3073  1.0600  0.2236
    1SOL     OW 4429   2.232   3.492   1.889 -0.3798  0.0374  0.3253
    1SOL    HW2 4430   2.214   3.405   1.925  0.8710  0.3265  1.6909
    1SOL    HW3 4431   2.159   3.546   1.918 -1.5593 -0.7148 -1.1695
    1SOL    MW4 4432   2.220   3.488   1.897 -0.3705 -0.0236  0.3082
    1SOL     OW 4433   2.459   3.598   1.982  0.4208 -0.6584 -0.0135
    1SOL    HW2 4434   2.452   3.604   2.077 -0.3032  0.0416 -0.1080
    1SOL    HW3 4435   2.378   3.554   1.956  0.1141  0.1265 -0.3982
    1SOL    MW4 4436   2.448   3.593   1.991  0.2847 -0.4623 -0.0767
    1SOL     OW 4437   2.484   3.855   1.889  0.1699  0.3230 -0.1530
    1SOL    HW2 4438   2.409   3.904   1.922  0.7515  0.2373  1.3438
    1SOL    HW3 4439   2.477   3.770   1.932 -0.5467 -0.7577 -2.3288
    1SOL    MW4 4440   2.473   3.850   1.899  0.1519  0.1693 -0.2426
    1SOL     OW 4441   2.266   4.001   1.967 -0.1360  0.5562  0.1385
    1SOL    HW2 4442   2.267   4.008   2.062  2.1051  0.9839  0.1121
    1SOL    HW3 4443   2.263   4.092   1.936  1.8380  0.5364 -0.1769
    1SOL    MW4 4444   2.266   4.014   1.975  0.4203  0.6094  0.0933
    1SOL     OW 4445   2.259   4.259   1.896 -0.0953 -0.1060  0.0426
    1SOL    HW2 4446   2.324   4.317   1.936  1.1672 -0.2816 -1.6905
    1SOL    HW3 4447   2.259   4.284   1.804 -2.1132 -0.4880 -0.0774
    1SOL    MW4 4448   2.268   4.270   1.889 -0.1948 -0.1793 -0.2019
    1SOL     OW 4449   2.472   4.406   2.024  0.0844  0.2006 -0.1960
    1SOL    HW2 4450   2.482   4.391   2.118 -0.9100 -0.2275 -0.1550
    1SOL    HW3 4451   2.542   4.354   1.984  0.5345  0.4159  0.3134
    1SOL    MW4 4452   2.482   4.397   2.031  0.0126  0.1721 -0.1237
    1SOL     OW 4453   2.934   4.613   1.888  0.2364 -0.2765  0.8480
    1SOL    HW2 4454   3.004   4.660   1.934  2.5916 -2.4079 -0.4477
    1SOL    HW3 4455   2.935   4.526   1.927 -0.7296 -0.7603 -0.2102
    1SOL    MW4 4456   2.943   4.608   1.899  0.4201 -0.6218  0.5375
    1SOL     OW 4457   2.705   0.080   1.983  0.2293  0.1687  0.4404
    1SOL    HW2 4458   2.708   0.079   2.079  0.8765 -1.2258  0.4142
    1SOL    HW3 4459   2.786   0.037   1.956 -0.0448  0.3791 -0.7328
    1SOL    MW4 4460   2.716   0.074   1.992  0.2785  0.0125  0.2822
    1SOL     OW 4461   2.665   0.351   1.899 -0.2809  0.1054  0.0722
    1SOL    HW2 4462   2.737   0.399   1.941 -0.9533  0.0163  1.3747
    1SOL    HW3 4463   2.669   0.264   1.939 -0.6733 -0.1166 -0.3760
    1SOL    MW4 4464   2.675   0.345   1.910 -0.4215  0.0644  0.1849
    1SOL     OW 4465   2.884   0.490   1.977  0.1165 -0.2854 -0.0560
    1SOL    HW2 4466   2.961   0.450   1.936  1.3073  1.2466  0.6185
    1SOL    HW3 4467   2.884   0.580   1.945 -0.6232  0.1015  1.0037
    1SOL    MW4 4468   2.894   0.497   1.968  0.1762 -0.0323  0.1729
    1SOL     OW 4469   2.887   0.741   1.884  0.1045 -0.0531 -0.6862
    1SOL    HW2 4470   2.970   0.779   1.913  0.1245  1.6659 -2.9147
    1SOL    HW3 4471   2.821   0.783   1.940  0.3912  1.2344 -1.3030
    1SOL    MW4 4472   2.889   0.751   1.896  0.1450  0.3436 -1.0617
    1SOL     OW 4473   2.698   0.858   2.036  0.2096 -0.2895  0.4334
    1SOL    HW2 4474   2.696   0.944   1.994  1.0961 -0.7290 -0.5315
    1SOL    HW3 4475   2.634   0.806   1.987  0.1141 -0.3524  0.6250
    1SOL    MW4 4476   2.689   0.862   2.024  0.3138 -0.3558  0.3314
    1SOL     OW 4477   2.677   1.116   1.935 -0.5816  0.3264  0.2430
    1SOL    HW2 4478   2.612   1.185   1.951 -0.8277 -0.0570  0.8963
    1SOL    HW3 4479   2.679   1.108   1.840 -0.0780  1.6866  0.1251
    1SOL    MW4 4480   2.669   1.124   1.924 -0.5474  0.4551  0.3135
    1SOL     OW 4481   2.922   1.234   2.014  0.5347 -0.2557 -0.1044
    1SOL    HW2 4482   2.918   1.317   1.966  1.8632 -0.5115 -0.6886
    1SOL    HW3 4483   2.836   1.195   2.002  0.0222  0.8607 -0.1511
    1SOL    MW4 4484   2.910   1.240   2.006  0.6425 -0.1421 -0.1874
    1SOL     OW 4485   2.894   1.467   1.871  0.2233  0.1714  0.0413
    1SOL    HW2 4486   2.963   1.527   1.901 -1.7649  2.3107  0.4372
    1SOL    HW3 4487   2.903   1.467   1.776  0.5987  0.6575  0.0719
    1SOL    MW4 4488   2.905   1.475   1.863  0.0103  0.5178  0.0976
    1SOL     OW 4489   2.691   1.647   1.963  0.1166 -0.4678 -0.4955
    1SOL    HW2 4490   2.760   1.594   1.923 -0.4389 -0.5187 -1.4079
    1SOL    HW3 4491   2.610   1.600   1.942 -0.2790  0.1129 -0.2806
    1SOL    MW4 4492   2.689   1.634   1.955 -0.0088 -0.3979 -0.5875
    1SOL     OW 4493   2.726   1.890   1.851  0.2028  0.1179 -0.3175
    1SOL    HW2 4494   2.787   1.946   1.900 -0.0559  0.5507 -0.4831
    1SOL    HW3 4495   2.723   1.809   1.901  2.4433 -0.6535 -1.3990
    1SOL    MW4 4496   2.733   1.887   1.864  0.4644  0.0733 -0.4821
    1SOL     OW 4497   2.934   2.061   1.935  0.1357 -0.1948 -0.0398
    1SOL    HW2 4498   2.935   2.073   2.031  1.2111  1.7356 -0.2538
    1SOL    HW3 4499   3.007   2.002   1.918 -0.4652 -1.0736  0.3771
    1SOL    MW4 4500   2.944   2.055   1.946  0.1981 -0.0558 -0.0131
    1SOL     OW 4501   2.991   2.327   1.870  0.3859 -0.1488 -0.2403
    1SOL    HW2 4502   3.071   2.350   1.917  1.4814 -0.4023 -1.9381
    1SOL    HW3 4503   2.965   2.242   1.907  1.4650 -0.5470 -0.3990
    1SOL    MW4 4504   2.998   2.319   1.881  0.6726 -0.2348 -0.4853
    1SOL     OW 4505   2.728   2.396   1.931  0.2877  0.0393  0.2774
    1SOL    HW2 4506   2.727   2.489   1.908  1.3554  0.3567  1.4781
    1SOL    HW3 4507   2.820   2.371   1.922  0.1966 -0.6001  1.1204
    1SOL    MW4 4508   2.740   2.405   1.926  0.4165 -0.0031  0.5471
    1SOL     OW 4509   2.720   2.659   1.869  0.5924 -0.2282 -0.3391
    1SOL    HW2 4510   2.640   2.705   1.898  0.2496  0.0305 -1.6454
    1SOL    HW3 4511   2.729   2.684   1.777  2.5226  0.2157 -0.0443
    1SOL    MW4 4512   2.710   2.669   1.860  0.8018 -0.1354 -0.4724
    1SOL     OW 4513   2.954   2.776   1.977 -0.0105  0.2372 -0.4773
    1SOL    HW2 4514   2.938   2.867   1.949 -0.8706 -0.9480 -4.1381
    1SOL    HW3 4515   2.876   2.729   1.947  1.5293 -2.1531 -0.7684
    1SOL    MW4 4516   2.941   2.782   1.970  0.0792 -0.2346 -0.9987
    1SOL     OW 4517   2.925   3.067   1.922  0.4292 -0.4225  0.1477
    1SOL    HW2 4518   2.987   3.131   1.957  1.0970 -0.7094 -0.4835
    1SOL    HW3 4519   2.840   3.110   1.927  0.8453  0.4300 -0.0595
    1SOL    MW4 4520   2.922   3.081   1.927  0.5722 -0.3483  0.0370
    1SOL     OW 4521   2.702   3.241   1.964 -0.4120 -0.4578  0.6444
    1SOL    HW2 4522   2.712   3.323   1.917 -0.0332 -1.2873 -0.7450
    1SOL    HW3 4523   2.618   3.206   1.935 -0.3922 -0.7569  0.9325
    1SOL    MW4 4524   2.692   3.247   1.954 -0.3595 -0.6065  0.4991
    1SOL     OW 4525   2.698   3.508   1.845 -0.2365 -0.4030 -0.3243
    1SOL    HW2 4526   2.762   3.564   1.888  0.2124 -1.0029 -0.1922
    1SOL    HW3 4527   2.613   3.538   1.877 -0.1828  1.7770 -2.1023
    1SOL    MW4 4528   2.695   3.519   1.855 -0.1702 -0.1945 -0.5414
    1SOL     OW 4529   2.897   3.640   1.955 -0.0977  0.1410 -0.7614
    1SOL    HW2 4530   2.898   3.635   2.051 -0.2483  1.3574 -0.6836
    1SOL    HW3 4531   2.975   3.592   1.928 -0.1793 -0.4034 -0.0365
    1SOL    MW4 4532   2.908   3.633   1.964 -0.1285  0.2296 -0.6554
    1SOL     OW 4533   2.932   3.902   1.884 -0.3550 -0.2052  0.8185
    1SOL    HW2 4534   2.916   3.808   1.898  0.1615 -0.2645  1.0332
    1SOL    HW3 4535   2.924   3.914   1.790 -0.1195 -0.5282  0.7535
    1SOL    MW4 4536   2.929   3.891   1.874 -0.2558 -0.2556  0.8383
    1SOL     OW 4537   2.699   3.985   1.989 -0.0625  0.1047 -0.1025
    1SOL    HW2 4538   2.781   3.953   1.951 -0.3423  0.1395 -0.7396
    1SOL    HW3 4539   2.631   3.942   1.938 -0.4390  0.6167 -0.0263
    1SOL    MW4 4540   2.701   3.975   1.977 -0.1490  0.1769 -0.1765
    1SOL     OW 4541   2.680   4.254   1.876 -0.4548  0.0095  0.0318
    1SOL    HW2 4542   2.692   4.164   1.906 -1.1558 -0.0203  0.2123
    1SOL    HW3 4543   2.696   4.249   1.781 -2.2335 -0.6272 -0.2396
    1SOL    MW4 4544   2.684   4.241   1.867 -0.7823 -0.0787  0.0198
    1SOL     OW 4545   2.931   4.349   1.953  0.0548 -0.3619 -0.0134
    1SOL    HW2 4546   2.923   4.366   2.047  1.0059 -0.9338  0.1740
    1SOL    HW3 4547   2.841   4.330   1.925 -0.2700  0.0476  0.7319
    1SOL    MW4 4548   2.918   4.348   1.961  0.1378 -0.3834  0.1096
    1SOL     OW 4549   3.364   4.660   1.881 -0.0692 -0.4814  0.3205
    1SOL    HW2 4550   3.363   4.576   1.927  1.0809 -0.6699  0.0065
    1SOL    HW3 4551   3.365   4.637   1.788  0.7939 -0.1334  0.2371
    1SOL    MW4 4552   3.364   4.646   1.875  0.1965 -0.4606  0.2681
    1SOL     OW 4553   3.138   0.108   1.968 -0.6600  0.1669 -0.0699
    1SOL    HW2 4554   3.147   0.111   2.063 -0.8558  0.1757 -0.0512
    1SOL    HW3 4555   3.222   0.075   1.936  0.0931  1.9458 -0.0097
    1SOL    MW4 4556   3.150   0.104   1.976 -0.5865  0.4028 -0.0596
    1SOL     OW 4557   3.113   0.363   1.872  0.2659 -0.1366 -0.0004
    1SOL    HW2 4558   3.130   0.274   1.904  1.7641  0.3565  0.6033
    1SOL    HW3 4559   3.122   0.356   1.777  0.1089 -0.6793  0.0193
    1SOL    MW4 4560   3.116   0.350   1.864  0.4430 -0.1431  0.0819
    1SOL     OW 4561   3.345   0.486   1.968 -0.3968 -0.5965  0.0414
    1SOL    HW2 4562   3.421   0.437   1.938 -0.4863 -0.9350  0.3710
    1SOL    HW3 4563   3.271   0.450   1.918  0.2083  2.3565 -3.1658
    1SOL    MW4 4564   3.345   0.475   1.958 -0.3288 -0.2515 -0.3382
    1SOL     OW 4565   3.339   0.739   1.857 -0.4575 -0.3452 -0.2611
    1SOL    HW2 4566   3.264   0.789   1.890 -1.1091 -1.2949 -0.2506
    1SOL    HW3 4567   3.329   0.652   1.897  0.6275 -0.4938 -0.2979
    1SOL    MW4 4568   3.328   0.734   1.866 -0.4003 -0.4901 -0.2646
    1SOL     OW 4569   3.123   0.867   1.964  0.3501  0.2479  0.0923
    1SOL    HW2 4570   3.136   0.877   2.058 -2.5854  0.1353  0.5666
    1SOL    HW3 4571   3.104   0.955   1.933 -3.2407 -0.3257  0.4445
    1SOL    MW4 4572   3.122   0.880   1.972 -0.5107  0.1574  0.2013
    1SOL     OW 4573   3.139   1.140   1.870  0.0548 -0.3319 -0.1301
    1SOL    HW2 4574   3.214   1.186   1.907  0.3106 -1.2394  0.4851
    1SOL    HW3 4575   3.064   1.170   1.922 -0.0868  0.9009 -1.0220
    1SOL    MW4 4576   3.139   1.150   1.882  0.0699 -0.2891 -0.1667
    1SOL     OW 4577   3.382   1.278   1.946  0.1225 -0.0323 -0.3897
    1SOL    HW2 4578   3.379   1.268   2.041  1.2529 -1.3495 -0.4816
    1SOL    HW3 4579   3.372   1.372   1.932 -2.6869 -0.0784  0.8890
    1SOL    MW4 4580   3.380   1.289   1.957 -0.0992 -0.2121 -0.2331
    1SOL     OW 4581   3.358   1.536   1.874 -0.6803  0.0574  0.2321
    1SOL    HW2 4582   3.422   1.584   1.928 -0.0168 -0.3388 -0.2024
    1SOL    HW3 4583   3.273   1.566   1.907 -0.2925 -0.3190  1.6447
    1SOL    MW4 4584   3.355   1.546   1.886 -0.5417 -0.0446  0.3610
    1SOL     OW 4585   3.108   1.641   1.940 -0.3069  0.0003 -0.1212
    1SOL    HW2 4586   3.135   1.661   2.030  2.2697  0.1247 -0.8826
    1SOL    HW3 4587   3.119   1.724   1.893 -1.7281 -0.0449 -0.5709
    1SOL    MW4 4588   3.113   1.655   1.946 -0.1547  0.0108 -0.2810
    1SOL     OW 4589   3.149   1.904   1.865  0.5185  0.0487 -0.5763
    1SOL    HW2 4590   3.232   1.931   1.906  0.3119  0.0295 -0.1434
    1SOL    HW3 4591   3.163   1.919   1.772  1.0004  0.0795 -0.5026
    1SOL    MW4 4592   3.162   1.910   1.858  0.5553  0.0502 -0.5096
    1SOL     OW 4593   3.371   2.025   1.969 -0.1901 -0.0139  0.0676
    1SOL    HW2 4594   3.462   2.003   1.948 -0.2224  0.5865 -0.7041
    1SOL    HW3 4595   3.362   2.117   1.945 -1.4941 -0.5286 -1.5135
    1SOL    MW4 4596   3.382   2.035   1.963 -0.3662 -0.0024 -0.2428
    1SOL     OW 4597   3.402   2.287   1.827 -0.1927 -0.1657 -0.0740
    1SOL    HW2 4598   3.334   2.346   1.860 -1.0764 -0.7142 -0.8821
    1SOL    HW3 4599   3.422   2.321   1.739  0.6935  0.0795  0.2123
    1SOL    MW4 4600   3.396   2.300   1.820 -0.1924 -0.2055 -0.1428
    1SOL     OW 4601   3.208   2.433   1.986  0.1859 -0.1308 -0.2298
    1SOL    HW2 4602   3.206   2.440   2.082  0.0356  0.0195 -0.2450
    1SOL    HW3 4603   3.193   2.522   1.955 -1.3583 -0.4353 -0.4047
    1SOL    MW4 4604   3.206   2.445   1.995 -0.0374 -0.1512 -0.2551
    1SOL     OW 4605   3.195   2.689   1.896  0.2661 -0.5224  0.1341
    1SOL    HW2 4606   3.114   2.722   1.934  1.1071  1.7816  0.0377
    1SOL    HW3 4607   3.183   2.697   1.802  0.3953 -0.6924  0.1023
    1SOL    MW4 4608   3.183   2.694   1.889  0.3943 -0.2410  0.1172
    1SOL     OW 4609   3.431   2.825   1.957  0.2716 -0.1542  0.1044
    1SOL    HW2 4610   3.420   2.852   2.048 -0.3402 -0.0006 -0.0131
    1SOL    HW3 4611   3.361   2.762   1.942 -0.1159  0.4119 -0.4863
    1SOL    MW4 4612   3.421   2.821   1.967  0.1397 -0.0591  0.0110
    1SOL     OW 4613   3.356   3.101   1.869 -0.4305  0.2595  0.6644
    1SOL    HW2 4614   3.436   3.150   1.890 -0.5873  1.1412 -0.7093
    1SOL    HW3 4615   3.382   3.009   1.875  0.5822  0.5381  0.6454
    1SOL    MW4 4616   3.370   3.095   1.873 -0.3176  0.4127  0.4805
    1SOL     OW 4617   3.138   3.216   1.996  0.0145 -0.1753 -0.3652
    1SOL    HW2 4618   3.154   3.227   2.090  0.5523  3.0666 -0.7764
    1SOL    HW3 4619   3.213   3.168   1.964  0.5186 -0.0814  0.6497
    1SOL    MW4 4620   3.150   3.211   2.004  0.1521  0.2649 -0.2854
    1SOL     OW 4621   3.139   3.503   1.923 -0.3968  0.2525  0.1342
    1SOL    HW2 4622   3.158   3.410   1.939  1.2078  0.4545 -0.4993
    1SOL    HW3 4623   3.216   3.549   1.956 -1.0164  1.3404  0.0806
    1SOL    MW4 4624   3.151   3.497   1.929 -0.2668  0.4227  0.0436
    1SOL     OW 4625   3.389   3.603   1.981  0.5173  0.3457  0.7545
    1SOL    HW2 4626   3.470   3.566   1.948  0.1132  0.3513 -0.2583
    1SOL    HW3 4627   3.388   3.693   1.947  0.0201  0.2968  0.6223
    1SOL    MW4 4628   3.399   3.610   1.972  0.3984  0.3400  0.6033
    1SOL     OW 4629   3.391   3.853   1.838 -0.0489  0.0935  0.1897
    1SOL    HW2 4630   3.318   3.912   1.858 -0.4800  0.0968 -1.3295
    1SOL    HW3 4631   3.386   3.840   1.744  0.8865 -1.2843  0.3156
    1SOL    MW4 4632   3.381   3.859   1.829  0.0176 -0.0880  0.0058
    1SOL     OW 4633   3.184   3.988   1.960 -0.1403  0.6080  0.1715
    1SOL    HW2 4634   3.174   3.981   2.055  0.1452  0.7652  0.2126
    1SOL    HW3 4635   3.100   3.957   1.925 -0.6066  1.4482  0.5099
    1SOL    MW4 4636   3.171   3.983   1.968 -0.1640  0.7396  0.2215
    1SOL     OW 4637   3.158   4.263   1.849 -0.2031  0.1520 -0.2410
    1SOL    HW2 4638   3.173   4.175   1.883 -0.1320 -0.1525 -1.0636
    1SOL    HW3 4639   3.070   4.287   1.880 -0.4060 -0.3839 -0.4091
    1SOL    MW4 4640   3.148   4.255   1.858 -0.2208  0.0410 -0.3717
    1SOL     OW 4641   3.354   4.402   1.994  0.1615  0.7460 -0.0796
    1SOL    HW2 4642   3.428   4.355   1.956  0.2715  0.8213  0.0425
    1SOL    HW3 4643   3.278   4.367   1.948  0.1048 -0.5919  1.0262
    1SOL    MW4 4644   3.354   4.391   1.983  0.1686  0.5798  0.0824
    1SOL     OW 4645   3.830   4.662   1.906 -0.3991  0.0607  0.4010
    1SOL    HW2 4646   3.826   4.570   1.933 -0.6404  0.5693  2.1989
    1SOL    HW3 4647   3.749   4.700   1.940  0.3351  1.2306  0.8901
    1SOL    MW4 4648   3.819   4.655   1.914 -0.3343  0.2823  0.7027
    1SOL     OW 4649   3.601   0.117   1.998  0.0764 -0.1193  0.5607
    1SOL    HW2 4650   3.601   0.116   2.093 -0.0445 -2.3331  0.5745
    1SOL    HW3 4651   3.518   0.077   1.973 -0.4603  1.5870 -0.5019
    1SOL    MW4 4652   3.590   0.112   2.007 -0.0103 -0.1863  0.4222
    1SOL     OW 4653   3.602   0.370   1.868  0.0985 -0.1553  0.3156
    1SOL    HW2 4654   3.617   0.290   1.918 -2.0995 -0.5934  0.3402
    1SOL    HW3 4655   3.606   0.342   1.776  0.6637 -0.0275  0.2999
    1SOL    MW4 4656   3.604   0.356   1.863 -0.1168 -0.1962  0.3167
    1SOL     OW 4657   3.837   0.502   1.966  0.0414 -0.1155 -0.4074
    1SOL    HW2 4658   3.840   0.593   1.937  1.2918  0.0581  0.2500
    1SOL    HW3 4659   3.761   0.465   1.921 -1.3482  1.6407  0.4356
    1SOL    MW4 4660   3.827   0.509   1.956  0.0229  0.1392 -0.2095
    1SOL     OW 4661   3.830   0.797   1.860 -0.3067  0.3667  0.6610
    1SOL    HW2 4662   3.741   0.820   1.886 -1.3707 -3.5691  0.8768
    1SOL    HW3 4663   3.827   0.789   1.765 -0.3606 -0.3529  0.7184
    1SOL    MW4 4664   3.818   0.799   1.851 -0.4542 -0.2475  0.6971
    1SOL     OW 4665   3.570   0.864   1.952  0.3551  0.1926 -0.6402
    1SOL    HW2 4666   3.558   0.953   1.919 -0.1905  0.3161 -0.1085
    1SOL    HW3 4667   3.496   0.815   1.915  0.1397  0.1715 -0.1903
    1SOL    MW4 4668   3.558   0.869   1.943  0.2546  0.2061 -0.5107
    1SOL     OW 4669   3.606   1.133   1.876  0.4587  0.2039  0.1771
    1SOL    HW2 4670   3.530   1.189   1.893  0.3149 -0.1662  0.7972
    1SOL    HW3 4671   3.621   1.140   1.782 -0.7504 -0.2248 -0.0647
    1SOL    MW4 4672   3.598   1.141   1.866  0.2801  0.0985  0.2270
    1SOL     OW 4673   3.833   1.299   1.973  0.0282  0.0204 -0.1152
    1SOL    HW2 4674   3.833   1.310   2.068  0.8137 -1.0940  0.0375
    1SOL    HW3 4675   3.754   1.248   1.954 -0.3512  0.6117 -0.1025
    1SOL    MW4 4676   3.823   1.294   1.983  0.0820 -0.0488 -0.0935
    1SOL     OW 4677   3.804   1.549   1.872  0.1661  0.0982 -0.1247
    1SOL    HW2 4678   3.882   1.590   1.909 -0.3412  1.6940 -0.8017
    1SOL    HW3 4679   3.811   1.457   1.898  1.7459  0.4318  0.6861
    1SOL    MW4 4680   3.815   1.542   1.881  0.3078  0.3527 -0.1069
    1SOL     OW 4681   3.577   1.668   1.982 -0.5672  0.2361 -0.0122
    1SOL    HW2 4682   3.576   1.755   1.941  0.0180  0.4512  0.4266
    1SOL    HW3 4683   3.654   1.625   1.945 -0.3260  0.2456  0.4732
    1SOL    MW4 4684   3.587   1.674   1.972 -0.4582  0.2657  0.1098
    1SOL     OW 4685   3.610   1.911   1.885  0.3545 -0.4981  0.4397
    1SOL    HW2 4686   3.685   1.960   1.920  0.4235 -1.2146  1.3456
    1SOL    HW3 4687   3.614   1.924   1.791  1.1710  0.1151  0.5528
    1SOL    MW4 4688   3.620   1.919   1.877  0.4711 -0.5116  0.5742
    1SOL     OW 4689   3.809   2.078   1.996 -0.0817  0.1525  0.1916
    1SOL    HW2 4690   3.875   2.031   1.945 -0.7188 -0.5132 -0.0247
    1SOL    HW3 4691   3.796   2.160   1.949 -0.5928 -0.4137 -0.6744
    1SOL    MW4 4692   3.816   2.082   1.983 -0.2334 -0.0100  0.0489
    1SOL     OW 4693   3.818   2.320   1.851 -0.6821 -0.7916  0.3168
    1SOL    HW2 4694   3.906   2.350   1.873  0.0426 -0.2863 -3.0312
    1SOL    HW3 4695   3.761   2.370   1.909  1.1681 -0.4226  1.8662
    1SOL    MW4 4696   3.822   2.331   1.862 -0.3424 -0.6762  0.0796
    1SOL     OW 4697   3.595   2.412   1.971 -0.3099 -0.4936  0.3160
    1SOL    HW2 4698   3.600   2.499   1.932 -1.9422 -0.0752  0.9653
    1SOL    HW3 4699   3.531   2.365   1.917 -0.0544 -1.0129  0.4621
    1SOL    MW4 4700   3.587   2.417   1.959 -0.4914 -0.5071  0.4208
    1SOL     OW 4701   3.644   2.672   1.866  0.1261  0.0624  0.2203
    1SOL    HW2 4702   3.712   2.719   1.913 -0.7718  1.6735 -0.0633
    1SOL    HW3 4703   3.562   2.703   1.904 -0.5775  0.6987 -1.7579
    1SOL    MW4 4704   3.642   2.682   1.877 -0.0851  0.3591 -0.0781
    1SOL     OW 4705   3.841   2.817   1.995  0.0074 -0.0709 -0.4533
    1SOL    HW2 4706   3.822   2.828   2.089 -1.6277 -0.6868 -0.6858
    1SOL    HW3 4707   3.838   2.905   1.959  0.1633  0.1192 -0.0013
    1SOL    MW4 4708   3.838   2.830   2.003 -0.1879 -0.1271 -0.4241
    1SOL     OW 4709   3.828   3.078   1.874 -0.0842  0.4498 -0.1527
    1SOL    HW2 4710   3.745   3.121   1.891  0.3842  1.0868  0.5810
    1SOL    HW3 4711   3.831   3.069   1.779 -0.7447  0.9259 -0.2236
    1SOL    MW4 4712   3.818   3.082   1.863 -0.1097  0.5963 -0.0653
    1SOL     OW 4713   3.586   3.199   1.943 -0.0799  0.4840  0.3655
    1SOL    HW2 4714   3.598   3.209   2.038  1.1807 -0.9379  0.3684
    1SOL    HW3 4715   3.594   3.288   1.909 -1.0248  1.0754  1.6367
    1SOL    MW4 4716   3.589   3.212   1.951 -0.0384  0.3746  0.5335
    1SOL     OW 4717   3.624   3.475   1.890 -0.1321 -0.3108 -0.2583
    1SOL    HW2 4718   3.693   3.532   1.925 -1.0587  1.0062 -0.5630
    1SOL    HW3 4719   3.650   3.459   1.799 -0.2222  0.1825 -0.3720
    1SOL    MW4 4720   3.637   3.481   1.883 -0.2661 -0.0722 -0.3134
    1SOL     OW 4721   3.817   3.611   2.018  0.2310 -0.4551  0.0185
    1SOL    HW2 4722   3.882   3.549   1.983  0.5835 -0.6235  0.9623
    1SOL    HW3 4723   3.841   3.695   1.978  1.7262 -0.2880  1.1882
    1SOL    MW4 4724   3.829   3.614   2.008  0.4747 -0.4554  0.2978
    1SOL     OW 4725   3.854   3.857   1.875  0.2057 -0.7046 -0.0890
    1SOL    HW2 4726   3.767   3.885   1.904  0.8359 -0.3516  1.4959
    1SOL    HW3 4727   3.845   3.846   1.781 -0.7025  2.4103 -0.4038
    1SOL    MW4 4728   3.841   3.859   1.867  0.1688 -0.2470  0.0787
    1SOL     OW 4729   3.625   3.973   1.968 -0.0113  0.1176 -0.3524
    1SOL    HW2 4730   3.601   3.965   2.061  0.0585 -0.1508 -0.3554
    1SOL    HW3 4731   3.547   3.945   1.921  0.5927 -1.6396 -0.3534
    1SOL    MW4 4732   3.612   3.968   1.974  0.0775 -0.1495 -0.3529
    1SOL     OW 4733   3.561   4.228   1.925 -0.3640  0.0298  0.0659
    1SOL    HW2 4734   3.632   4.280   1.962  1.0518  0.0276 -2.5285
    1SOL    HW3 4735   3.586   4.137   1.944  0.5033  0.0144 -1.0627
    1SOL    MW4 4736   3.573   4.223   1.932 -0.0629  0.0277 -0.4253
    1SOL     OW 4737   3.787   4.398   1.971 -0.0173 -0.1474 -0.2945
    1SOL    HW2 4738   3.805   4.399   2.065 -0.4008  0.9250 -0.2241
    1SOL    HW3 4739   3.862   4.354   1.933  1.3499  1.6388  0.2793
    1SOL    MW4 4740   3.799   4.392   1.979  0.1128  0.2294 -0.2096
    1SOL     OW 4741   4.251   0.004   1.889 -0.2845 -0.3220  0.3224
    1SOL    HW2 4742   4.183   0.063   1.919 -0.0139 -0.5024  1.3196
    1SOL    HW3 4743   4.333   0.042   1.922 -0.1257 -1.3176  1.1086
    1SOL    MW4 4744   4.253   0.016   1.897 -0.2279 -0.4771  0.5579
    1SOL     OW 4745   4.046   0.150   1.992  0.3339  0.2623  0.9737
    1SOL    HW2 4746   4.034   0.163   2.087  0.7288 -0.6660  1.1557
    1SOL    HW3 4747   3.969   0.101   1.964  0.1373  0.6809  0.7813
    1SOL    MW4 4748   4.035   0.146   2.001  0.3600  0.1950  0.9723
    1SOL     OW 4749   4.071   0.388   1.841  0.1525  0.0775 -0.1210
    1SOL    HW2 4750   4.083   0.312   1.898  0.4410  0.0990 -0.1521
    1SOL    HW3 4751   4.006   0.442   1.887 -0.2183 -0.2931 -0.2089
    1SOL    MW4 4752   4.064   0.385   1.855  0.1416  0.0314 -0.1366
    1SOL     OW 4753   4.290   0.518   1.952  0.2179 -0.2291  0.5519
    1SOL    HW2 4754   4.285   0.496   2.045 -0.3104  0.9456  0.8062
    1SOL    HW3 4755   4.222   0.463   1.911 -0.5599  0.3415  1.0674
    1SOL    MW4 4756   4.280   0.508   1.958  0.0463  0.0012  0.6534
    1SOL     OW 4757   4.247   0.775   1.863  0.0288  0.0392  0.4497
    1SOL    HW2 4758   4.258   0.686   1.896  0.7756  0.0680  0.2985
    1SOL    HW3 4759   4.240   0.765   1.768 -0.2589  0.1054  0.4658
    1SOL    MW4 4760   4.248   0.762   1.855  0.0896  0.0518  0.4318
    1SOL     OW 4761   4.053   0.942   1.937 -0.1987  0.0179  0.2807
    1SOL    HW2 4762   4.107   0.867   1.913  0.0332 -0.2146  1.5016
    1SOL    HW3 4763   3.964   0.915   1.916  0.0701  0.1639 -1.1425
    1SOL    MW4 4764   4.048   0.929   1.931 -0.1326  0.0065  0.2540
    1SOL     OW 4765   4.081   1.213   1.849 -0.4680  0.1133 -0.1672
    1SOL    HW2 4766   4.088   1.121   1.874 -1.3955  0.4802  1.5246
    1SOL    HW3 4767   3.993   1.239   1.878  0.6172  2.1361  1.4158
    1SOL    MW4 4768   4.070   1.204   1.856 -0.4473  0.4286  0.2649
    1SOL     OW 4769   4.320   1.317   1.977 -0.1927  0.5733 -0.0071
    1SOL    HW2 4770   4.320   1.306   2.072 -2.0149  1.5778  0.1345
    1SOL    HW3 4771   4.242   1.270   1.947 -0.4823  1.5474 -0.8262
    1SOL    MW4 4772   4.309   1.309   1.985 -0.4711  0.8343 -0.0966
    1SOL     OW 4773   4.238   1.558   1.874  0.2517  0.4601 -0.1286
    1SOL    HW2 4774   4.255   1.480   1.926 -1.3134  0.1147 -0.0984
    1SOL    HW3 4775   4.243   1.528   1.783  1.2518  0.6818 -0.1490
    1SOL    MW4 4776   4.241   1.544   1.869  0.1774  0.4438 -0.1272
    1SOL     OW 4777   4.032   1.728   1.972 -0.2481  0.6916  0.0126
    1SOL    HW2 4778   4.019   1.706   2.064 -0.8722 -0.9039 -0.4381
    1SOL    HW3 4779   4.109   1.679   1.946 -0.9572 -0.0586 -0.7010
    1SOL    MW4 4780   4.040   1.719   1.981 -0.4239  0.3821 -0.1409
    1SOL     OW 4781   4.016   1.959   1.825 -0.1725 -0.0786  0.3780
    1SOL    HW2 4782   4.039   1.872   1.856 -0.7019  0.1739  1.5355
    1SOL    HW3 4783   4.006   1.950   1.730  0.8845 -1.0172  0.3556
    1SOL    MW4 4784   4.018   1.946   1.817 -0.1030 -0.1690  0.5279
    1SOL     OW 4785   4.285   2.033   1.933  0.3469 -0.3182 -0.0052
    1SOL    HW2 4786   4.278   2.033   2.028  0.0049 -0.8403 -0.0297
    1SOL    HW3 4787   4.195   2.019   1.903  0.7788 -2.4441 -0.3886
    1SOL    MW4 4788   4.272   2.031   1.942  0.3586 -0.6676 -0.0590
    1SOL     OW 4789   4.292   2.307   1.862 -0.1796 -0.3110 -0.2437
    1SOL    HW2 4790   4.286   2.224   1.909  0.6694 -0.9338 -1.2234
    1SOL    HW3 4791   4.372   2.348   1.897  0.0830 -0.4703 -0.6546
    1SOL    MW4 4792   4.302   2.301   1.873 -0.0324 -0.4141 -0.4272
    1SOL     OW 4793   4.067   2.458   1.967 -0.0438  0.1297 -0.1031
    1SOL    HW2 4794   4.065   2.459   2.062  0.3380  1.0894 -0.0913
    1SOL    HW3 4795   4.149   2.414   1.945 -0.7080 -1.1610 -0.0076
    1SOL    MW4 4796   4.078   2.453   1.976 -0.0811  0.0861 -0.0889
    1SOL     OW 4797   4.078   2.712   1.854 -0.0923 -0.1756 -1.0306
    1SOL    HW2 4798   4.074   2.622   1.886 -1.2605 -0.8229 -2.8859
    1SOL    HW3 4799   4.000   2.754   1.890 -0.0955 -0.1995 -1.0108
    1SOL    MW4 4800   4.067   2.706   1.863 -0.2465 -0.2644 -1.2728
    1SOL     OW 4801   4.271   2.902   1.929 -0.0926  0.3731  0.1150
    1SOL    HW2 4802   4.272   2.879   2.022 -0.6101  1.0694  0.2984
    1SOL    HW3 4803   4.205   2.844   1.891  0.7618 -0.5416  0.0085
    1SOL    MW4 4804   4.262   2.892   1.936 -0.0477  0.3443  0.1251
    1SOL     OW 4805   4.229   3.153   1.823  0.5614  0.1204 -0.0580
    1SOL    HW2 4806   4.147   3.186   1.858  0.0728 -0.7093 -0.4131
    1SOL    HW3 4807   4.239   3.066   1.863 -0.1412 -0.9672 -2.1559
    1SOL    MW4 4808   4.220   3.146   1.833  0.4034 -0.1326 -0.3817
    1SOL     OW 4809   4.024   3.238   1.969 -0.0784 -0.1375  0.1332
    1SOL    HW2 4810   4.015   3.240   2.065 -2.1909 -0.5954 -0.0351
    1SOL    HW3 4811   3.959   3.173   1.941  1.0411 -0.5461 -1.5679
    1SOL    MW4 4812   4.015   3.229   1.978 -0.2089 -0.2520 -0.1134
    1SOL     OW 4813   4.034   3.494   1.864  0.1680  0.0542 -0.1349
    1SOL    HW2 4814   4.105   3.539   1.911  0.4209 -0.6219  0.1264
    1SOL    HW3 4815   4.029   3.408   1.904 -0.0022 -0.3260 -0.9689
    1SOL    MW4 4816   4.043   3.489   1.876  0.1793 -0.0854 -0.2105
    1SOL     OW 4817   4.237   3.627   1.981 -0.0503  0.1886  0.6974
    1SOL    HW2 4818   4.237   3.716   1.948 -1.6262  0.2794  0.8752
    1SOL    HW3 4819   4.315   3.586   1.943  0.7200  1.6550  0.6905
    1SOL    MW4 4820   4.247   3.633   1.971 -0.1574  0.3943  0.7198
    1SOL     OW 4821   4.242   3.875   1.887 -0.8635 -0.2999  0.2191
    1SOL    HW2 4822   4.314   3.928   1.921 -0.7399 -1.0042  1.0847
    1SOL    HW3 4823   4.237   3.897   1.794  0.1416  0.1380  0.2680
    1SOL    MW4 4824   4.251   3.885   1.879 -0.7143 -0.3352  0.3397
    1SOL     OW 4825   4.061   4.030   1.993  0.2525  0.0173  0.1813
    1SOL    HW2 4826   4.136   3.986   1.953 -0.6720 -1.1250 -0.3399
    1SOL    HW3 4827   3.984   3.987   1.954 -0.6714  1.1798  0.6848
    1SOL    MW4 4828   4.060   4.019   1.983  0.0091  0.0200  0.1788
    1SOL     OW 4829   4.023   4.272   1.878 -0.6550  0.0975  0.0940
    1SOL    HW2 4830   4.112   4.297   1.902 -0.5272 -0.2655  0.0027
    1SOL    HW3 4831   4.012   4.185   1.915 -0.7747 -0.0927 -0.3880
    1SOL    MW4 4832   4.033   4.264   1.886 -0.6542  0.0253  0.0184
    1SOL     OW 4833   4.257   4.413   1.983  0.0676 -0.1439  0.1946
    1SOL    HW2 4834   4.225   4.417   2.073 -0.9733 -0.5287 -0.1594
    1SOL    HW3 4835   4.242   4.501   1.948  1.6582  0.3895  0.7861
    1SOL    MW4 4836   4.251   4.425   1.990  0.1402 -0.1245  0.2258
    1SOL     OW 4837   0.245   4.634   2.361  0.3401  0.1038  0.0864
    1SOL    HW2 4838   0.262   4.636   2.456  1.3006 -0.2052 -0.0737
    1SOL    HW3 4839   0.323   4.673   2.322 -0.1776  0.4883 -0.5673
    1SOL    MW4 4840   0.258   4.639   2.369  0.3985  0.1135 -0.0212
    1SOL     OW 4841   0.005   0.121   2.308  0.0022 -0.3796 -0.1405
    1SOL    HW2 4842   0.083   0.070   2.329  0.5315 -0.2493 -1.7432
    1SOL    HW3 4843  -0.008   0.107   2.214 -2.5160 -1.2562  0.2961
    1SOL    MW4 4844   0.013   0.112   2.298 -0.2604 -0.4780 -0.2942
    1SOL     OW 4845   0.017   0.380   2.389 -0.4903  0.3011 -0.5307
    1SOL    HW2 4846   0.101   0.405   2.351 -0.1131  0.2725  0.2798
    1SOL    HW3 4847   0.006   0.288   2.365 -0.0100  0.1390 -0.1254
    1SOL    MW4 4848   0.027   0.371   2.381 -0.3772  0.2759 -0.3700
    1SOL     OW 4849   0.260   0.508   2.271 -0.0834  0.4052 -0.0379
    1SOL    HW2 4850   0.337   0.454   2.289 -0.2100  0.2486  0.0324
    1SOL    HW3 4851   0.266   0.528   2.177  0.2852  0.7714  0.0641
    1SOL    MW4 4852   0.271   0.504   2.261 -0.0515  0.4329 -0.0153
    1SOL     OW 4853   0.239   0.772   2.347  0.0860  0.3754  0.1639
    1SOL    HW2 4854   0.226   0.770   2.442 -1.4787  1.6640  0.0028
    1SOL    HW3 4855   0.252   0.681   2.323 -0.7592 -0.1058  1.4625
    1SOL    MW4 4856   0.239   0.760   2.356 -0.2320  0.4820  0.3140
    1SOL     OW 4857   0.002   0.884   2.263  0.0733  0.1359 -0.1924
    1SOL    HW2 4858   0.085   0.839   2.278 -1.1192 -2.5259 -1.2974
    1SOL    HW3 4859  -0.003   0.896   2.168 -0.1067  1.7358 -0.0099
    1SOL    MW4 4860   0.012   0.880   2.252 -0.1078 -0.0042 -0.3142
    1SOL     OW 4861   4.484   1.162   2.329  0.0893 -0.2661  0.2179
    1SOL    HW2 4862   4.480   1.169   2.424  0.8067 -1.6659  0.3684
    1SOL    HW3 4863   4.490   1.068   2.312 -0.3702 -0.0525 -1.2266
    1SOL    MW4 4864   4.484   1.150   2.339  0.1233 -0.4227  0.0472
    1SOL     OW 4865   0.222   1.278   2.245 -0.5683  0.3460  0.4391
    1SOL    HW2 4866   0.142   1.231   2.271 -0.4740 -0.1717 -0.2142
    1SOL    HW3 4867   0.219   1.280   2.150  1.0226 -1.1112  0.3336
    1SOL    MW4 4868   0.211   1.272   2.236 -0.3460  0.0856  0.3393
    1SOL     OW 4869   0.217   1.551   2.334  0.8305  0.5958  0.3630
    1SOL    HW2 4870   0.217   1.544   2.430 -0.4118  1.9556  0.4791
    1SOL    HW3 4871   0.203   1.461   2.304  1.0847  0.1808  1.4659
    1SOL    MW4 4872   0.215   1.538   2.343  0.7001  0.7204  0.5240
    1SOL     OW 4873   4.477   1.676   2.225 -0.9485  0.1868  0.2529
    1SOL    HW2 4874   4.495   1.769   2.242 -1.1997  0.4248 -0.7336
    1SOL    HW3 4875   4.555   1.630   2.258 -0.1106  0.8928 -0.7215
    1SOL    MW4 4876   4.490   1.682   2.232 -0.8711  0.3114 -0.0055
    1SOL     OW 4877   0.035   1.938   2.342 -0.1671  0.9340 -0.3044
    1SOL    HW2 4878  -0.037   1.986   2.301 -0.5991 -1.2716 -2.1901
    1SOL    HW3 4879   0.114   1.983   2.311 -0.6478  2.6964  0.9223
    1SOL    MW4 4880   0.036   1.950   2.333 -0.2876  0.8756 -0.3910
    1SOL     OW 4881   0.237   2.110   2.239  0.1693  0.1583  0.3847
    1SOL    HW2 4882   0.311   2.056   2.269  0.1954 -0.2057 -0.3248
    1SOL    HW3 4883   0.228   2.089   2.146 -0.7490  0.2913  0.4363
    1SOL    MW4 4884   0.245   2.100   2.231  0.0516  0.1276  0.2978
    1SOL     OW 4885   0.203   2.358   2.344 -0.0057 -0.1078 -0.2662
    1SOL    HW2 4886   0.208   2.351   2.439  0.8464 -1.1750 -0.3903
    1SOL    HW3 4887   0.206   2.268   2.312  0.1475  0.2593 -1.3231
    1SOL    MW4 4888   0.204   2.346   2.352  0.1270 -0.1998 -0.4218
    1SOL     OW 4889   4.480   2.466   2.241  0.0941  0.5235 -0.2966
    1SOL    HW2 4890   4.467   2.544   2.295  0.1246  0.5691 -0.3570
    1SOL    HW3 4891   4.556   2.423   2.280 -0.1845  0.2988  0.0041
    1SOL    MW4 4892   4.489   2.470   2.254  0.0615  0.4995 -0.2651
    1SOL     OW 4893   4.469   2.753   2.358  0.2602 -0.4767  0.1606
    1SOL    HW2 4894   4.493   2.755   2.450  0.0715  2.2475  0.1999
    1SOL    HW3 4895   4.549   2.774   2.311  0.3366 -1.7728 -0.3008
    1SOL    MW4 4896   4.482   2.756   2.364  0.2456 -0.2885  0.1047
    1SOL     OW 4897   0.226   2.838   2.261 -0.3090 -0.0834  0.0107
    1SOL    HW2 4898   0.307   2.798   2.293 -0.4959 -0.4485  0.0252
    1SOL    HW3 4899   0.234   2.835   2.166  0.0753  0.6579  0.0072
    1SOL    MW4 4900   0.238   2.833   2.253 -0.2829 -0.0341  0.0119
    1SOL     OW 4901   0.251   3.096   2.348 -0.1884 -0.3945 -0.5611
    1SOL    HW2 4902   0.170   3.145   2.328 -1.5356 -2.0917  0.6006
    1SOL    HW3 4903   0.238   3.011   2.306  1.0538 -0.6555 -0.4294
    1SOL    MW4 4904   0.238   3.091   2.340 -0.2023 -0.6533 -0.3908
    1SOL     OW 4905   0.008   3.220   2.261 -0.4453 -0.0162 -0.1921
    1SOL    HW2 4906   0.017   3.312   2.283  2.1505 -0.2918  0.0405
    1SOL    HW3 4907   0.010   3.218   2.165 -0.5140  0.1569 -0.1977
    1SOL    MW4 4908   0.009   3.232   2.251 -0.1121 -0.0298 -0.1624
    1SOL     OW 4909   0.018   3.473   2.366  0.2838 -0.0405  0.3773
    1SOL    HW2 4910   0.007   3.469   2.461  0.2338 -0.3342  0.3607
    1SOL    HW3 4911  -0.056   3.526   2.335 -0.5479 -1.1872  0.3605
    1SOL    MW4 4912   0.006   3.479   2.374  0.1674 -0.2306  0.3729
    1SOL     OW 4913   0.213   3.625   2.259  0.1821  0.4967 -0.0392
    1SOL    HW2 4914   0.294   3.584   2.289 -0.4371  0.5265  1.7384
    1SOL    HW3 4915   0.143   3.573   2.299 -0.6677  0.8105 -1.1027
    1SOL    MW4 4916   0.214   3.613   2.269 -0.0117  0.5419  0.0548
    1SOL     OW 4917   0.237   3.868   2.370 -0.1951 -0.1593 -0.0810
    1SOL    HW2 4918   0.161   3.913   2.333 -0.3519  0.8283  1.3862
    1SOL    HW3 4919   0.237   3.781   2.329 -1.2798  0.3487 -1.1533
    1SOL    MW4 4920   0.227   3.862   2.360 -0.3589  0.0379 -0.0291
    1SOL     OW 4921   0.045   4.014   2.246  0.3195 -0.0873 -0.1198
    1SOL    HW2 4922   0.017   4.102   2.271  3.1576  0.8006  0.1576
    1SOL    HW3 4923   0.025   4.009   2.152 -0.3495  0.6662 -0.0258
    1SOL    MW4 4924   0.039   4.025   2.237  0.6057  0.1287 -0.0708
    1SOL     OW 4925   4.458   4.277   2.324  0.6268 -0.0067  0.0836
    1SOL    HW2 4926   4.460   4.251   2.416 -0.8557  0.4748  0.2731
    1SOL    HW3 4927   4.539   4.325   2.311  0.1134  1.3084  1.5762
    1SOL    MW4 4928   4.469   4.280   2.335  0.3633  0.2303  0.3057
    1SOL     OW 4929   0.211   4.372   2.254  0.0321 -0.2865  0.0162
    1SOL    HW2 4930   0.278   4.329   2.306  2.2822  0.8277 -1.8580
    1SOL    HW3 4931   0.223   4.466   2.272 -1.1691 -0.0887 -0.1621
    1SOL    MW4 4932   0.221   4.379   2.263  0.1705 -0.1130 -0.2544
    1SOL     OW 4933   0.703   0.009   2.350 -0.3775  0.0279 -0.4153
    1SOL    HW2 4934   0.721  -0.006   2.443 -1.3028  2.6394  0.2520
    1SOL    HW3 4935   0.780   0.058   2.319 -0.8300  0.6436 -0.5800
    1SOL    MW4 4936   0.716   0.014   2.358 -0.5592  0.4535 -0.3488
    1SOL     OW 4937   0.452   0.106   2.249  0.2403  0.1679  0.2614
    1SOL    HW2 4938   0.538   0.072   2.274  1.3340  2.2063 -0.6099
    1SOL    HW3 4939   0.455   0.113   2.154 -0.1460  2.0966  0.3651
    1SOL    MW4 4940   0.464   0.102   2.240  0.3336  0.6913  0.1600
    1SOL     OW 4941   0.482   0.360   2.333  0.3841 -0.1714 -0.0391
    1SOL    HW2 4942   0.482   0.356   2.428 -0.8030 -0.2592 -0.0280
    1SOL    HW3 4943   0.456   0.272   2.305 -0.0650  0.0747 -0.4163
    1SOL    MW4 4944   0.479   0.348   2.342  0.1682 -0.1505 -0.0873
    1SOL     OW 4945   0.703   0.525   2.232 -0.0966 -0.2046  0.0625
    1SOL    HW2 4946   0.690   0.617   2.252 -1.5503 -0.0481 -1.5171
    1SOL    HW3 4947   0.625   0.481   2.265  0.6398 -0.9026  0.9189
    1SOL    MW4 4948   0.691   0.531   2.239 -0.1913 -0.2760 -0.0329
    1SOL     OW 4949   0.670   0.785   2.334 -0.2851  0.1594  0.4921
    1SOL    HW2 4950   0.650   0.782   2.427 -0.3590 -0.1751  0.4671
    1SOL    HW3 4951   0.588   0.810   2.293 -0.1256  0.7954  0.5563
    1SOL    MW4 4952   0.657   0.788   2.341 -0.2738  0.1992  0.4973
    1SOL     OW 4953   0.436   0.930   2.211 -0.0236 -0.0330 -0.0112
    1SOL    HW2 4954   0.438   1.015   2.256 -0.8822  0.1349 -0.2737
    1SOL    HW3 4955   0.367   0.881   2.257  0.3629 -0.5269  0.0390
    1SOL    MW4 4956   0.427   0.935   2.223 -0.0858 -0.0759 -0.0391
    1SOL     OW 4957   0.479   1.212   2.335 -0.1290  0.0598 -0.2459
    1SOL    HW2 4958   0.470   1.204   2.430  0.7971  0.8408 -0.0849
    1SOL    HW3 4959   0.402   1.260   2.307  0.6872  1.7733  0.3971
    1SOL    MW4 4960   0.468   1.217   2.343  0.1009  0.3890 -0.1402
    1SOL     OW 4961   0.712   1.339   2.231  0.1599 -0.1243 -0.4035
    1SOL    HW2 4962   0.728   1.424   2.273  1.5470 -1.4203  1.7745
    1SOL    HW3 4963   0.634   1.305   2.275  1.0351 -1.0459  0.4473
    1SOL    MW4 4964   0.704   1.346   2.242  0.4584 -0.4169 -0.0038
    1SOL     OW 4965   0.678   1.572   2.348  0.2241 -0.0990  0.0923
    1SOL    HW2 4966   0.683   1.571   2.443  0.2791  0.3848  0.0955
    1SOL    HW3 4967   0.741   1.639   2.321  0.4921 -0.5099 -0.2992
    1SOL    MW4 4968   0.687   1.581   2.357  0.2667 -0.0893  0.0410
    1SOL     OW 4969   0.443   1.657   2.223 -0.4083 -0.1258  0.2628
    1SOL    HW2 4970   0.517   1.622   2.273  0.9812 -1.1389 -2.4104
    1SOL    HW3 4971   0.366   1.622   2.267  0.7341 -0.1855  2.2689
    1SOL    MW4 4972   0.442   1.647   2.235 -0.0742 -0.2673  0.1745
    1SOL     OW 4973   0.454   1.921   2.327 -0.0184  0.1487 -0.2857
    1SOL    HW2 4974   0.533   1.960   2.288  0.1840 -1.0199 -1.0572
    1SOL    HW3 4975   0.459   1.828   2.304  0.1817 -0.6315  2.6468
    1SOL    MW4 4976   0.465   1.914   2.319  0.0347 -0.1082 -0.0005
    1SOL     OW 4977   0.667   2.063   2.204  0.2940 -0.1149  0.0168
    1SOL    HW2 4978   0.744   2.028   2.250 -0.6504 -0.8343  1.0733
    1SOL    HW3 4979   0.653   2.149   2.244 -0.2345 -0.5368  0.7577
    1SOL    MW4 4980   0.675   2.070   2.216  0.0997 -0.2654  0.2539
    1SOL     OW 4981   0.648   2.310   2.331 -0.1861  0.4940  0.0259
    1SOL    HW2 4982   0.646   2.286   2.424  0.9994 -0.9738 -0.3045
    1SOL    HW3 4983   0.725   2.365   2.321 -0.8349  1.4317  0.0678
    1SOL    MW4 4984   0.658   2.314   2.342 -0.1153  0.4239 -0.0122
    1SOL     OW 4985   0.424   2.454   2.216 -0.2362  0.2444 -0.2344
    1SOL    HW2 4986   0.498   2.403   2.250 -0.8996 -1.4743 -1.3052
    1SOL    HW3 4987   0.348   2.416   2.260 -0.6507  0.9163 -0.3785
    1SOL    MW4 4988   0.424   2.442   2.226 -0.3784  0.1061 -0.3946
    1SOL     OW 4989   0.455   2.707   2.331  0.3253 -0.3527 -0.2331
    1SOL    HW2 4990   0.447   2.690   2.425  0.5806 -0.8663 -0.3007
    1SOL    HW3 4991   0.440   2.622   2.290 -1.7118  0.2263 -0.7643
    1SOL    MW4 4992   0.452   2.693   2.338  0.0902 -0.3440 -0.3116
    1SOL     OW 4993   0.687   2.851   2.238 -0.4404  0.2760 -0.1424
    1SOL    HW2 4994   0.766   2.804   2.265 -0.6931 -0.8390 -1.2600
    1SOL    HW3 4995   0.616   2.791   2.258 -0.9494  0.9986  0.2287
    1SOL    MW4 4996   0.688   2.837   2.244 -0.5410  0.2241 -0.2408
    1SOL     OW 4997   0.690   3.114   2.366  0.2122 -0.3266  0.3716
    1SOL    HW2 4998   0.621   3.158   2.318  0.6858  0.3677  0.3101
    1SOL    HW3 4999   0.685   3.023   2.339 -1.2369 -0.4477  1.0319
    1SOL    MW4 5000   0.680   3.108   2.356  0.0834 -0.2511  0.4506
    1SOL     OW 5001   0.460   3.247   2.246 -0.2492  0.4649  0.8931
    1SOL    HW2 5002   0.394   3.191   2.287  0.6160 -0.7658  0.5989
    1SOL    HW3 5003   0.450   3.232   2.152  0.3939  0.3553  0.8453
    1SOL    MW4 5004   0.450   3.238   2.239 -0.0502  0.2882  0.8478
    1SOL     OW 5005   0.433   3.498   2.356  0.1245 -0.0019  0.2495
    1SOL    HW2 5006   0.514   3.534   2.320 -0.5936  1.1367 -0.2351
    1SOL    HW3 5007   0.427   3.410   2.318  0.4586  0.3951 -0.7389
    1SOL    MW4 5008   0.443   3.491   2.347  0.0739  0.2007  0.0551
    1SOL     OW 5009   0.670   3.629   2.266 -0.2499 -0.1632 -0.0188
    1SOL    HW2 5010   0.684   3.720   2.293  0.9556  0.0270 -1.2190
    1SOL    HW3 5011   0.663   3.634   2.170 -0.9494 -1.2490 -0.0290
    1SOL    MW4 5012   0.671   3.642   2.257 -0.1832 -0.2813 -0.1783
    1SOL     OW 5013   0.688   3.893   2.360  0.0709 -0.0777 -0.3392
    1SOL    HW2 5014   0.679   3.900   2.455 -0.1288  1.7507 -0.4791
    1SOL    HW3 5015   0.603   3.918   2.325  0.0794 -0.9499 -0.9933
    1SOL    MW4 5016   0.676   3.897   2.368  0.0457  0.0484 -0.4442
    1SOL     OW 5017   0.450   3.987   2.261 -0.1931  0.0404  0.0552
    1SOL    HW2 5018   0.372   3.942   2.295 -1.8564  2.2323 -0.7457
    1SOL    HW3 5019   0.444   3.976   2.166 -1.0622  2.5777 -0.2172
    1SOL    MW4 5020   0.439   3.979   2.253 -0.5272  0.6645 -0.0865
    1SOL     OW 5021   0.426   4.257   2.378  0.2760 -0.2485  0.3357
    1SOL    HW2 5022   0.496   4.307   2.336  0.7347 -1.3783 -0.2915
    1SOL    HW3 5023   0.434   4.169   2.341 -2.8327  0.1066 -1.4178
    1SOL    MW4 5024   0.436   4.252   2.367 -0.0736 -0.3505  0.0217
    1SOL     OW 5025   0.630   4.388   2.273  0.1033  0.2705 -0.0904
    1SOL    HW2 5026   0.653   4.472   2.314 -0.6551 -0.2861  1.5314
    1SOL    HW3 5027   0.659   4.396   2.183  2.0505  1.4787  0.6088
    1SOL    MW4 5028   0.637   4.400   2.267  0.2601  0.3567  0.2158
    1SOL     OW 5029   1.141   0.011   2.352 -0.0005  0.1717 -0.8172
    1SOL    HW2 5030   1.123  -0.002   2.445  1.3688  0.1685 -0.5451
    1SOL    HW3 5031   1.060   0.047   2.317 -0.2991  0.8327  0.5183
    1SOL    MW4 5032   1.128   0.014   2.360  0.1408  0.2585 -0.6053
    1SOL     OW 5033   0.917   0.147   2.249 -0.5873  0.0360  0.1002
    1SOL    HW2 5034   0.913   0.240   2.271 -0.7012  0.3311 -1.1326
    1SOL    HW3 5035   0.908   0.145   2.154  0.6170 -1.1479  0.0034
    1SOL    MW4 5036   0.916   0.159   2.240 -0.4434 -0.0813 -0.0753
    1SOL     OW 5037   0.920   0.408   2.362 -0.5135  0.1850 -0.1396
    1SOL    HW2 5038   0.992   0.461   2.326 -0.6653  0.4925  0.0087
    1SOL    HW3 5039   0.842   0.444   2.321 -0.5542 -0.3862 -0.5776
    1SOL    MW4 5040   0.920   0.420   2.352 -0.5389  0.1502 -0.1779
    1SOL     OW 5041   1.126   0.541   2.253 -0.3463 -0.3281  0.3224
    1SOL    HW2 5042   1.203   0.486   2.265  0.5619  0.8410 -0.0783
    1SOL    HW3 5043   1.093   0.519   2.166  0.4970  0.3563 -0.1697
    1SOL    MW4 5044   1.132   0.531   2.243 -0.1152 -0.0836  0.2048
    1SOL     OW 5045   1.118   0.819   2.346 -0.0627 -0.0006 -0.2182
    1SOL    HW2 5046   1.040   0.859   2.307 -0.9938 -1.3219  0.2595
    1SOL    HW3 5047   1.119   0.730   2.312  0.7823 -0.2463  0.4241
    1SOL    MW4 5048   1.107   0.813   2.336 -0.0740 -0.2075 -0.0708
    1SOL     OW 5049   0.897   0.946   2.240 -0.1130 -0.0539 -0.5152
    1SOL    HW2 5050   0.892   1.033   2.281  2.6883 -0.6058  1.1060
    1SOL    HW3 5051   0.818   0.901   2.271  0.6103  0.4490  2.1891
    1SOL    MW4 5052   0.886   0.951   2.250  0.3520 -0.0604  0.0556
    1SOL     OW 5053   0.913   1.195   2.370  0.2575 -0.0313  0.1405
    1SOL    HW2 5054   0.994   1.230   2.331 -0.7676  0.7189 -1.3515
    1SOL    HW3 5055   0.843   1.248   2.333 -0.9353 -0.6354  1.4840
    1SOL    MW4 5056   0.915   1.206   2.360 -0.0351 -0.0120  0.1209
    1SOL     OW 5057   1.144   1.307   2.286  0.3417  0.4302  0.0007
    1SOL    HW2 5058   1.224   1.259   2.309  0.0073 -0.2203 -0.2081
    1SOL    HW3 5059   1.146   1.311   2.190  1.5717  2.8650  0.0634
    1SOL    MW4 5060   1.155   1.301   2.276  0.4599  0.6657 -0.0184
    1SOL     OW 5061   1.139   1.597   2.355  0.6194  0.0239 -0.1899
    1SOL    HW2 5062   1.060   1.633   2.314  1.2380  0.5505 -0.9269
    1SOL    HW3 5063   1.138   1.504   2.331  0.0994 -0.0250  0.0051
    1SOL    MW4 5064   1.128   1.589   2.347  0.6323  0.0869 -0.2613
    1SOL     OW 5065   0.896   1.703   2.253  0.4003  0.1269  0.3507
    1SOL    HW2 5066   0.893   1.798   2.264  1.4178  0.1283  0.6666
    1SOL    HW3 5067   0.903   1.690   2.158 -0.7110  0.3318  0.2322
    1SOL    MW4 5068   0.897   1.714   2.242  0.3879  0.1540  0.3767
    1SOL     OW 5069   0.906   1.972   2.313 -0.1628  0.0023 -0.4608
    1SOL    HW2 5070   0.912   1.952   2.407  0.1009 -0.8186 -0.6502
    1SOL    HW3 5071   0.995   1.997   2.288 -0.1262 -0.2706 -0.6031
    1SOL    MW4 5072   0.918   1.972   2.322 -0.1231 -0.1420 -0.5047
    1SOL     OW 5073   1.175   2.071   2.277 -0.8459 -0.0450 -0.1501
    1SOL    HW2 5074   1.248   2.024   2.317  0.4297  0.9339 -1.3042
    1SOL    HW3 5075   1.183   2.052   2.183 -2.4369 -0.4206 -0.2253
    1SOL    MW4 5076   1.186   2.062   2.270 -0.8876  0.0348 -0.3121
    1SOL     OW 5077   1.112   2.321   2.370 -0.1558  0.6175  0.3020
    1SOL    HW2 5078   1.197   2.359   2.348  0.3848  0.3532  1.8784
    1SOL    HW3 5079   1.122   2.227   2.354  0.0336  0.5111  1.0268
    1SOL    MW4 5080   1.124   2.314   2.365 -0.0595  0.5686  0.6061
    1SOL     OW 5081   0.879   2.452   2.262  0.2322  0.0876 -0.1655
    1SOL    HW2 5082   0.963   2.414   2.287  1.4024  2.9412  0.4628
    1SOL    HW3 5083   0.880   2.452   2.166  0.4864 -0.8305 -0.1628
    1SOL    MW4 5084   0.890   2.447   2.252  0.4202  0.3431 -0.0820
    1SOL     OW 5085   0.918   2.727   2.337 -0.2186  0.4989  0.0728
    1SOL    HW2 5086   0.877   2.713   2.423  0.0720 -0.4411  0.0643
    1SOL    HW3 5087   0.917   2.640   2.296  0.3198  0.7992 -0.5766
    1SOL    MW4 5088   0.912   2.714   2.343 -0.1092  0.4146 -0.0141
    1SOL     OW 5089   1.138   2.876   2.255  0.3148  0.1356  0.4307
    1SOL    HW2 5090   1.214   2.821   2.276  0.5788  0.4805  0.3840
    1SOL    HW3 5091   1.063   2.829   2.292  0.5450 -0.2255  0.4458
    1SOL    MW4 5092   1.138   2.862   2.262  0.3800  0.1338  0.4263
    1SOL     OW 5093   1.092   3.116   2.397  0.2054 -0.0264 -0.2186
    1SOL    HW2 5094   1.027   3.162   2.344 -1.8766 -1.1826  1.2408
    1SOL    HW3 5095   1.101   3.030   2.356  0.5347 -0.0066 -0.1930
    1SOL    MW4 5096   1.085   3.111   2.385 -0.0260 -0.1764 -0.0229
    1SOL     OW 5097   0.909   3.255   2.241  0.2987 -0.1462  0.0930
    1SOL    HW2 5098   0.907   3.346   2.269  1.3906  0.2921 -1.2182
    1SOL    HW3 5099   0.833   3.215   2.284  0.7783  0.9585  2.0621
    1SOL    MW4 5100   0.898   3.262   2.251  0.5060  0.0575  0.1800
    1SOL     OW 5101   0.907   3.508   2.357  0.1637 -0.1003 -0.4594
    1SOL    HW2 5102   0.885   3.501   2.450 -1.3716 -1.9649 -0.9389
    1SOL    HW3 5103   0.836   3.561   2.319  1.4251  1.6954 -0.3788
    1SOL    MW4 5104   0.895   3.514   2.364  0.1276 -0.1090 -0.5121
    1SOL     OW 5105   1.124   3.627   2.252  0.2087  0.2652  0.2254
    1SOL    HW2 5106   1.209   3.588   2.275  0.5729 -0.0053 -1.5138
    1SOL    HW3 5107   1.061   3.582   2.308  1.1086 -0.1368  0.9283
    1SOL    MW4 5108   1.127   3.616   2.263  0.3755  0.1764  0.0887
    1SOL     OW 5109   1.114   3.891   2.335  0.1376  0.1407  0.4857
    1SOL    HW2 5110   1.201   3.924   2.312 -0.2057  0.4445 -0.3824
    1SOL    HW3 5111   1.117   3.798   2.310  0.3014  0.0905  0.6946
    1SOL    MW4 5112   1.126   3.883   2.328  0.1138  0.1740  0.3984
    1SOL     OW 5113   0.888   4.048   2.256 -0.1676 -0.0239 -0.3051
    1SOL    HW2 5114   0.963   3.999   2.289 -0.6469  0.3773  1.4281
    1SOL    HW3 5115   0.812   3.995   2.282 -0.6720  1.4168  1.2389
    1SOL    MW4 5116   0.888   4.034   2.264 -0.2975  0.2189  0.1276
    1SOL     OW 5117   0.875   4.296   2.356 -0.3441 -0.1944 -0.1202
    1SOL    HW2 5118   0.894   4.211   2.314 -1.7037 -0.7042  0.2845
    1SOL    HW3 5119   0.781   4.309   2.341 -0.0878  1.3656 -0.3898
    1SOL    MW4 5120   0.865   4.286   2.348 -0.4897 -0.0558 -0.1023
    1SOL     OW 5121   1.114   4.419   2.249 -0.6531 -0.1188  0.2024
    1SOL    HW2 5122   1.029   4.399   2.286 -1.0264 -0.6741 -0.9297
    1SOL    HW3 5123   1.128   4.512   2.270 -1.0691 -0.2914  1.2718
    1SOL    MW4 5124   1.105   4.429   2.257 -0.7571 -0.2146  0.1945
    1SOL     OW 5125   1.587   4.648   2.320  0.5996  0.1251 -0.0761
    1SOL    HW2 5126   1.670   4.690   2.296  0.2263  1.4856  0.9859
    1SOL    HW3 5127   1.520   4.702   2.279  0.0483  1.3853  2.3936
    1SOL    MW4 5128   1.589   4.661   2.311  0.4777  0.4716  0.3898
    1SOL     OW 5129   1.374   0.133   2.222  0.2535 -0.0296 -0.0143
    1SOL    HW2 5130   1.371   0.223   2.256  0.3887 -0.2934  0.7166
    1SOL    HW3 5131   1.306   0.087   2.270  0.5693 -0.4549  0.0280
    1SOL    MW4 5132   1.365   0.139   2.233  0.3130 -0.1205  0.0880
    1SOL     OW 5133   1.354   0.392   2.328 -0.5998  0.4646  0.0048
    1SOL    HW2 5134   1.365   0.388   2.423 -0.9888 -1.9232 -0.0324
    1SOL    HW3 5135   1.428   0.444   2.298  0.0179  0.4955  1.5249
    1SOL    MW4 5136   1.365   0.399   2.337 -0.5697  0.1537  0.2005
    1SOL     OW 5137   1.577   0.517   2.210 -0.2247 -0.2311  0.1590
    1SOL    HW2 5138   1.654   0.474   2.246  1.0024  2.1611  0.5368
    1SOL    HW3 5139   1.589   0.513   2.115  1.3791  1.8028  0.2395
    1SOL    MW4 5140   1.589   0.511   2.202  0.1489  0.3528  0.2193
    1SOL     OW 5141   1.563   0.781   2.326 -0.0355  0.0131 -0.2151
    1SOL    HW2 5142   1.639   0.827   2.291 -0.6844  0.9619 -0.4018
    1SOL    HW3 5143   1.560   0.699   2.277  0.5906  0.1841 -0.5418
    1SOL    MW4 5144   1.572   0.776   2.315 -0.0385  0.1608 -0.2830
    1SOL     OW 5145   1.348   0.930   2.247 -0.5222  0.1366  0.1998
    1SOL    HW2 5146   1.411   0.863   2.271 -1.8431 -1.1707  0.0814
    1SOL    HW3 5147   1.263   0.894   2.272 -1.2439  1.8544  0.3546
    1SOL    MW4 5148   1.345   0.917   2.254 -0.7917  0.1908  0.2048
    1SOL     OW 5149   1.358   1.179   2.376 -0.3032 -0.1460 -0.0694
    1SOL    HW2 5150   1.352   1.160   2.469  0.2531 -0.3970 -0.0852
    1SOL    HW3 5151   1.365   1.093   2.334 -1.7959 -0.1002 -0.4365
    1SOL    MW4 5152   1.358   1.165   2.382 -0.4268 -0.1731 -0.1199
    1SOL     OW 5153   1.601   1.295   2.312  0.7515  0.1330 -0.6177
    1SOL    HW2 5154   1.520   1.258   2.348  0.5582  0.2105 -0.9776
    1SOL    HW3 5155   1.601   1.267   2.221  1.8016 -1.0183 -0.2766
    1SOL    MW4 5156   1.590   1.286   2.305  0.8645 -0.0087 -0.6201
    1SOL     OW 5157   1.559   1.561   2.388  0.0002  0.4134 -0.3986
    1SOL    HW2 5158   1.642   1.598   2.359  1.6821 -0.4378  3.0966
    1SOL    HW3 5159   1.571   1.466   2.384 -0.9936  0.2728 -0.3525
    1SOL    MW4 5160   1.571   1.553   2.384  0.0910  0.2825  0.0687
    1SOL     OW 5161   1.373   1.699   2.243  0.4433  0.2394  0.1373
    1SOL    HW2 5162   1.437   1.637   2.278  0.8022 -0.9566 -2.5186
    1SOL    HW3 5163   1.288   1.658   2.261  0.6129 -0.2642 -0.2003
    1SOL    MW4 5164   1.370   1.685   2.250  0.5132  0.0154 -0.2577
    1SOL     OW 5165   1.390   1.920   2.387 -0.4998 -0.1277 -0.2097
    1SOL    HW2 5166   1.471   1.969   2.374 -1.0595  0.5210 -1.3079
    1SOL    HW3 5167   1.403   1.838   2.339 -0.1007 -0.4693  0.4737
    1SOL    MW4 5168   1.402   1.916   2.379 -0.5208 -0.0871 -0.2646
    1SOL     OW 5169   1.600   2.062   2.272 -0.6109 -0.2007 -0.0985
    1SOL    HW2 5170   1.686   2.023   2.290 -0.4816  0.4809  0.8151
    1SOL    HW3 5171   1.600   2.078   2.178 -0.0476 -0.9256 -0.2296
    1SOL    MW4 5172   1.612   2.059   2.262 -0.5196 -0.2065  0.0045
    1SOL     OW 5173   1.580   2.310   2.368  0.6827 -0.1188  0.0682
    1SOL    HW2 5174   1.575   2.304   2.464 -0.7567 -0.7761 -0.0420
    1SOL    HW3 5175   1.587   2.219   2.339  0.5201  0.0467 -0.4898
    1SOL    MW4 5176   1.580   2.297   2.377  0.4714 -0.1836 -0.0198
    1SOL     OW 5177   1.348   2.454   2.311  0.3742 -0.0331  0.5306
    1SOL    HW2 5178   1.423   2.405   2.345  1.5711  0.3607 -1.5033
    1SOL    HW3 5179   1.355   2.446   2.216 -1.1711  1.4861  0.2727
    1SOL    MW4 5180   1.359   2.447   2.303  0.3281  0.2193  0.2279
    1SOL     OW 5181   1.355   2.738   2.350  0.4115 -0.1085 -0.1213
    1SOL    HW2 5182   1.438   2.765   2.312  0.2996 -0.8781 -0.9386
    1SOL    HW3 5183   1.358   2.642   2.349 -1.5453 -0.2210 -2.6662
    1SOL    MW4 5184   1.366   2.729   2.345  0.1386 -0.2251 -0.5653
    1SOL     OW 5185   1.595   2.822   2.237 -0.0392 -0.6925 -0.2894
    1SOL    HW2 5186   1.633   2.905   2.265 -1.9175  0.1132 -0.0253
    1SOL    HW3 5187   1.581   2.833   2.143 -1.5747 -0.1527 -0.0156
    1SOL    MW4 5188   1.598   2.835   2.229 -0.4895 -0.5150 -0.2186
    1SOL     OW 5189   1.595   3.110   2.388  0.4614  0.1777  0.5084
    1SOL    HW2 5190   1.616   3.107   2.481 -1.0642 -0.0926  0.8604
    1SOL    HW3 5191   1.504   3.141   2.385  0.2988 -0.4049 -0.8496
    1SOL    MW4 5192   1.585   3.113   2.400  0.2387  0.0653  0.3755
    1SOL     OW 5193   1.333   3.216   2.336  0.0621  0.4302  0.0579
    1SOL    HW2 5194   1.252   3.183   2.374  0.2724  0.7970  0.8593
    1SOL    HW3 5195   1.323   3.205   2.242 -0.4126 -0.6657  0.2314
    1SOL    MW4 5196   1.321   3.210   2.329  0.0271  0.3338  0.1867
    1SOL     OW 5197   1.323   3.479   2.362 -0.2186  0.3585 -0.2838
    1SOL    HW2 5198   1.310   3.480   2.457  0.1708  0.7677 -0.2336
    1SOL    HW3 5199   1.348   3.389   2.343 -0.1032  0.3199  0.0337
    1SOL    MW4 5200   1.325   3.467   2.372 -0.1520  0.4075 -0.2353
    1SOL     OW 5201   1.565   3.577   2.300 -0.0119  0.2227 -0.1500
    1SOL    HW2 5202   1.560   3.666   2.332  1.7178 -0.1233  1.1470
    1SOL    HW3 5203   1.481   3.537   2.325 -0.3375  1.1506  0.2525
    1SOL    MW4 5204   1.553   3.583   2.307  0.1732  0.2995  0.0741
    1SOL     OW 5205   1.564   3.847   2.377 -0.3428  0.0410 -0.0828
    1SOL    HW2 5206   1.583   3.846   2.471 -0.6651  1.0239 -0.0073
    1SOL    HW3 5207   1.645   3.877   2.337 -0.1442 -0.5620 -0.1331
    1SOL    MW4 5208   1.577   3.851   2.384 -0.3591  0.0911 -0.0794
    1SOL     OW 5209   1.350   4.010   2.274 -0.2108  0.0463 -0.0227
    1SOL    HW2 5210   1.432   3.966   2.295 -0.7290 -1.9219 -1.8698
    1SOL    HW3 5211   1.356   4.027   2.180 -1.4597  0.8863  0.0391
    1SOL    MW4 5212   1.362   4.007   2.264 -0.4439 -0.1025 -0.2582
    1SOL     OW 5213   1.326   4.266   2.363 -0.2809  0.0324  0.2736
    1SOL    HW2 5214   1.327   4.177   2.328  2.3058 -0.5777  1.7353
    1SOL    HW3 5215   1.242   4.302   2.335 -1.0494 -2.5993 -0.9935
    1SOL    MW4 5216   1.315   4.259   2.355 -0.0411 -0.3953  0.2995
    1SOL     OW 5217   1.567   4.378   2.270  0.1642  0.0813  0.0642
    1SOL    HW2 5218   1.482   4.349   2.304 -0.6634  0.7909 -1.3545
    1SOL    HW3 5219   1.578   4.466   2.305  0.0076  0.2428 -0.2941
    1SOL    MW4 5220   1.557   4.386   2.279  0.0345  0.1965 -0.1702
    1SOL     OW 5221   2.044   4.651   2.404  0.1547  0.0212 -0.3359
    1SOL    HW2 5222   2.130   4.667   2.366  0.8352 -1.6139  0.4679
    1SOL    HW3 5223   2.029   4.557   2.389 -1.2579  0.1806 -0.0031
    1SOL    MW4 5224   2.053   4.640   2.397  0.0582 -0.1731 -0.1862
    1SOL     OW 5225   1.832   0.104   2.261  0.0978 -0.1366 -0.4886
    1SOL    HW2 5226   1.823   0.199   2.274 -0.5324 -0.1491 -0.8377
    1SOL    HW3 5227   1.912   0.081   2.309  0.6314  0.6880 -0.9528
    1SOL    MW4 5228   1.842   0.114   2.269  0.0850 -0.0295 -0.5958
    1SOL     OW 5229   1.790   0.381   2.323  0.9205  0.0281 -0.0380
    1SOL    HW2 5230   1.782   0.398   2.417 -0.0980  0.3125 -0.1755
    1SOL    HW3 5231   1.873   0.421   2.298  0.4236  1.3623  0.4231
    1SOL    MW4 5232   1.800   0.388   2.332  0.7206  0.2417  0.0045
    1SOL     OW 5233   2.019   0.487   2.244  0.2636 -0.5291  0.1359
    1SOL    HW2 5234   2.018   0.577   2.276 -0.9485 -0.4335 -0.1577
    1SOL    HW3 5235   1.996   0.494   2.151  0.8360 -1.0836 -0.0541
    1SOL    MW4 5236   2.016   0.500   2.236  0.1791 -0.5897  0.0720
    1SOL     OW 5237   2.027   0.743   2.341 -0.1242  0.0060  0.5590
    1SOL    HW2 5238   2.097   0.807   2.335  0.2960 -0.5172 -0.2282
    1SOL    HW3 5239   2.021   0.721   2.434 -0.3543  1.2693  0.8539
    1SOL    MW4 5240   2.035   0.749   2.352 -0.0989  0.1037  0.4940
    1SOL     OW 5241   1.801   0.891   2.262 -0.3138 -0.5678  0.6309
    1SOL    HW2 5242   1.824   0.981   2.285 -0.0674 -0.6248  0.6122
    1SOL    HW3 5243   1.870   0.838   2.302  0.4123 -0.6356 -0.6812
    1SOL    MW4 5244   1.813   0.896   2.271 -0.1856 -0.5843  0.4554
    1SOL     OW 5245   1.837   1.161   2.366 -0.1503 -0.3567 -0.1665
    1SOL    HW2 5246   1.909   1.215   2.334  0.0333 -0.0626  0.7361
    1SOL    HW3 5247   1.759   1.214   2.354 -0.0627 -0.1864  0.0283
    1SOL    MW4 5248   1.836   1.175   2.360 -0.1146 -0.2953 -0.0219
    1SOL     OW 5249   2.060   1.295   2.270 -0.0252  0.3431  0.2747
    1SOL    HW2 5250   2.063   1.385   2.304  0.0516  0.7169 -0.7123
    1SOL    HW3 5251   2.132   1.251   2.315  0.6234  1.0674 -0.0283
    1SOL    MW4 5252   2.070   1.301   2.280  0.0706  0.4879  0.1047
    1SOL     OW 5253   2.062   1.547   2.369  0.1342  0.1120 -0.1115
    1SOL    HW2 5254   2.053   1.530   2.463  0.4434  1.4152  0.1616
    1SOL    HW3 5255   1.981   1.591   2.345  0.0445 -0.2419 -0.4668
    1SOL    MW4 5256   2.050   1.550   2.378  0.1631  0.2372 -0.1223
    1SOL     OW 5257   1.820   1.652   2.293 -0.7612 -0.1837 -0.2916
    1SOL    HW2 5258   1.820   1.745   2.315 -1.6910 -0.1496 -0.4128
    1SOL    HW3 5259   1.817   1.649   2.197 -0.2874 -0.3448 -0.3062
    1SOL    MW4 5260   1.820   1.664   2.283 -0.8215 -0.2004 -0.3095
    1SOL     OW 5261   1.821   1.930   2.351 -0.3493  0.3614  0.2209
    1SOL    HW2 5262   1.816   1.939   2.446  0.7015 -0.6504  0.3916
    1SOL    HW3 5263   1.906   1.969   2.328 -0.7004  0.8072 -0.3304
    1SOL    MW4 5264   1.832   1.936   2.360 -0.2569  0.2867  0.1705
    1SOL     OW 5265   2.044   2.066   2.257 -0.4192  0.0569 -0.3718
    1SOL    HW2 5266   2.116   2.004   2.264  1.0341  1.8375  0.8014
    1SOL    HW3 5267   2.039   2.087   2.163  1.1760  0.5879 -0.3495
    1SOL    MW4 5268   2.053   2.061   2.245 -0.0169  0.3622 -0.2139
    1SOL     OW 5269   2.028   2.340   2.352 -0.0809  0.2082 -0.4927
    1SOL    HW2 5270   2.097   2.379   2.298  0.2347 -0.6796 -0.7380
    1SOL    HW3 5271   2.036   2.246   2.337  0.0317 -0.0643  1.1359
    1SOL    MW4 5272   2.038   2.333   2.343 -0.0243  0.0551 -0.3102
    1SOL     OW 5273   1.808   2.402   2.207 -0.1162  0.7010  0.1287
    1SOL    HW2 5274   1.890   2.371   2.247  0.9049  0.9286 -1.7218
    1SOL    HW3 5275   1.740   2.378   2.270  1.2615 -0.3995  1.2384
    1SOL    MW4 5276   1.810   2.394   2.221  0.2003  0.5858  0.0310
    1SOL     OW 5277   1.797   2.663   2.356 -0.2990  0.2411  0.2494
    1SOL    HW2 5278   1.814   2.578   2.315 -1.3303  0.2668 -0.2561
    1SOL    HW3 5279   1.732   2.704   2.300 -0.6806  0.8773  1.1431
    1SOL    MW4 5280   1.791   2.657   2.343 -0.4854  0.3285  0.3009
    1SOL     OW 5281   2.012   2.815   2.225  0.5121  0.3390 -0.1584
    1SOL    HW2 5282   2.096   2.788   2.262  0.9505  0.5372 -0.9875
    1SOL    HW3 5283   1.947   2.759   2.268  1.1663 -0.4445 -0.1785
    1SOL    MW4 5284   2.015   2.804   2.235  0.6564  0.2618 -0.2704
    1SOL     OW 5285   2.024   3.052   2.364  0.5041 -0.2803 -0.0654
    1SOL    HW2 5286   2.102   3.097   2.332 -0.0692  0.0165 -1.0595
    1SOL    HW3 5287   2.015   2.975   2.308 -0.2903  0.0445 -0.3992
    1SOL    MW4 5288   2.033   3.048   2.353  0.3235 -0.1986 -0.2403
    1SOL     OW 5289   1.805   3.210   2.251  0.3543  0.2396 -0.4780
    1SOL    HW2 5290   1.883   3.168   2.289  0.6494  0.8947 -0.3377
    1SOL    HW3 5291   1.731   3.162   2.289  0.6963 -0.6365 -0.9042
    1SOL    MW4 5292   1.806   3.198   2.261  0.4382  0.2105 -0.5155
    1SOL     OW 5293   1.809   3.454   2.355  0.2965 -0.1672 -0.0955
    1SOL    HW2 5294   1.804   3.370   2.310 -0.3534 -1.4422  2.3007
    1SOL    HW3 5295   1.725   3.496   2.338  0.3328 -0.3243 -0.6596
    1SOL    MW4 5296   1.798   3.449   2.347  0.2156 -0.3564  0.1462
    1SOL     OW 5297   2.004   3.601   2.240  0.6086  0.0917 -0.0989
    1SOL    HW2 5298   1.929   3.549   2.271  0.4214  0.2204 -0.3282
    1SOL    HW3 5299   1.994   3.602   2.145  1.3490 -0.5576 -0.1884
    1SOL    MW4 5300   1.993   3.595   2.232  0.6818  0.0229 -0.1411
    1SOL     OW 5301   2.038   3.857   2.370  0.0600  0.3760  0.3920
    1SOL    HW2 5302   2.030   3.868   2.465 -0.6346 -0.5769  0.4530
    1SOL    HW3 5303   2.048   3.762   2.358  1.6269  0.6285 -0.3855
    1SOL    MW4 5304   2.038   3.846   2.381  0.1750  0.2837  0.2973
    1SOL     OW 5305   1.793   3.927   2.258  0.1286  0.4384 -0.3075
    1SOL    HW2 5306   1.869   3.881   2.293  1.7748  3.4045  0.1876
    1SOL    HW3 5307   1.811   3.933   2.164 -0.8295 -1.1980 -0.6205
    1SOL    MW4 5308   1.806   3.921   2.250  0.2193  0.6137 -0.2835
    1SOL     OW 5309   1.782   4.239   2.349 -0.0939 -0.3286 -0.3835
    1SOL    HW2 5310   1.777   4.145   2.329 -0.3880 -0.3206 -0.3595
    1SOL    HW3 5311   1.704   4.276   2.306 -0.0939 -0.1300 -0.2121
    1SOL    MW4 5312   1.771   4.231   2.341 -0.1327 -0.3014 -0.3579
    1SOL     OW 5313   2.038   4.359   2.327  0.6683 -0.4772  0.0180
    1SOL    HW2 5314   1.955   4.313   2.342  0.5558  0.2954  2.0483
    1SOL    HW3 5315   2.047   4.364   2.232 -0.6536 -2.2733 -0.2260
    1SOL    MW4 5316   2.028   4.354   2.317  0.4790 -0.6127  0.2539
    1SOL     OW 5317   2.474   4.610   2.400 -0.5967  0.1835 -0.3915
    1SOL    HW2 5318   2.555   4.652   2.369  0.7744 -1.2067  1.2057
    1SOL    HW3 5319   2.470   4.527   2.352 -0.8924  0.0891 -0.2003
    1SOL    MW4 5320   2.484   4.605   2.389 -0.4549 -0.0119 -0.1554
    1SOL     OW 5321   2.251   0.080   2.273 -0.9729  0.1261  0.3515
    1SOL    HW2 5322   2.248   0.173   2.291  1.6913  0.6647 -1.6973
    1SOL    HW3 5323   2.331   0.049   2.316 -1.2255 -0.9818  0.0509
    1SOL    MW4 5324   2.261   0.088   2.281 -0.6547  0.0510  0.0415
    1SOL     OW 5325   2.250   0.353   2.328  0.4780  0.1078 -0.0075
    1SOL    HW2 5326   2.178   0.407   2.296  0.0939 -1.0847 -1.2402
    1SOL    HW3 5327   2.329   0.405   2.312 -0.0099  0.9488  0.3001
    1SOL    MW4 5328   2.251   0.367   2.322  0.3629  0.0615 -0.1295
    1SOL     OW 5329   2.472   0.515   2.278  0.4013  0.2917  0.2578
    1SOL    HW2 5330   2.544   0.462   2.313  0.6660  1.7537  1.9839
    1SOL    HW3 5331   2.468   0.491   2.185  0.1141 -3.1681  1.0961
    1SOL    MW4 5332   2.481   0.505   2.270  0.3982  0.0281  0.5963
    1SOL     OW 5333   2.474   0.768   2.381  0.2292  0.1760  0.4419
    1SOL    HW2 5334   2.548   0.823   2.357  0.6825 -0.2988  0.7304
    1SOL    HW3 5335   2.493   0.683   2.341  0.9701 -0.6029  2.4031
    1SOL    MW4 5336   2.486   0.764   2.373  0.3870  0.0106  0.7391
    1SOL     OW 5337   2.255   0.903   2.283  0.0175  0.5433  0.1049
    1SOL    HW2 5338   2.260   0.981   2.338 -0.7988 -0.4144  1.5408
    1SOL    HW3 5339   2.332   0.851   2.307 -0.7853 -0.2654  0.9529
    1SOL    MW4 5340   2.266   0.907   2.293 -0.1962  0.3102  0.4063
    1SOL     OW 5341   2.267   1.153   2.377  0.4327 -0.3977 -0.8990
    1SOL    HW2 5342   2.352   1.182   2.345 -0.2686  0.5560 -1.9595
    1SOL    HW3 5343   2.265   1.179   2.469  1.1623 -0.1483 -0.9540
    1SOL    MW4 5344   2.278   1.160   2.385  0.4363 -0.2389 -1.0464
    1SOL     OW 5345   2.471   1.270   2.243 -0.5229 -0.0949  0.0435
    1SOL    HW2 5346   2.546   1.223   2.279 -1.3336 -1.3493  0.1284
    1SOL    HW3 5347   2.471   1.354   2.288 -0.6074 -1.0298  1.8255
    1SOL    MW4 5348   2.481   1.274   2.253 -0.6411 -0.3839  0.2899
    1SOL     OW 5349   2.472   1.514   2.392  0.0072 -0.4477 -0.1377
    1SOL    HW2 5350   2.476   1.526   2.487 -2.5191  0.8480 -0.1409
    1SOL    HW3 5351   2.552   1.556   2.359  0.5269 -0.2400  1.3563
    1SOL    MW4 5352   2.483   1.521   2.400 -0.2577 -0.2494  0.0587
    1SOL     OW 5353   2.286   1.658   2.234  0.2633 -0.4593  0.4753
    1SOL    HW2 5354   2.344   1.585   2.254 -0.6518 -1.2136  0.4123
    1SOL    HW3 5355   2.201   1.633   2.271  0.2268  1.0868  1.4781
    1SOL    MW4 5356   2.282   1.645   2.241  0.1376 -0.3548  0.5991
    1SOL     OW 5357   2.270   1.906   2.345  0.1550  0.2192 -0.2074
    1SOL    HW2 5358   2.342   1.959   2.311  0.0898 -0.0784 -0.8287
    1SOL    HW3 5359   2.291   1.816   2.317  0.0290 -0.0071  0.4272
    1SOL    MW4 5360   2.282   1.901   2.337  0.1295  0.1502 -0.2058
    1SOL     OW 5361   2.491   2.037   2.226  0.0993 -0.1427  0.1051
    1SOL    HW2 5362   2.566   1.982   2.248 -0.5286 -1.3551 -0.7750
    1SOL    HW3 5363   2.472   2.018   2.134 -0.7350  0.8150  0.0671
    1SOL    MW4 5364   2.498   2.028   2.217 -0.0937 -0.1764 -0.0160
    1SOL     OW 5365   2.463   2.316   2.323 -0.3559  0.0060  0.1243
    1SOL    HW2 5366   2.540   2.346   2.277 -0.7912 -0.7331 -1.1125
    1SOL    HW3 5367   2.459   2.222   2.305 -0.9076 -0.1733  1.1152
    1SOL    MW4 5368   2.472   2.308   2.315 -0.4859 -0.1152  0.0920
    1SOL     OW 5369   2.232   2.458   2.231  0.3299  0.0744  0.1914
    1SOL    HW2 5370   2.235   2.548   2.263  2.3063 -0.1938  0.8643
    1SOL    HW3 5371   2.317   2.421   2.258  0.0421 -1.6011 -1.1600
    1SOL    MW4 5372   2.244   2.465   2.239  0.5524 -0.1819  0.1018
    1SOL     OW 5373   2.255   2.714   2.316 -0.2524  0.1690  0.7384
    1SOL    HW2 5374   2.271   2.700   2.409  0.1569 -1.3689  0.4540
    1SOL    HW3 5375   2.329   2.767   2.286  0.5196 -0.7698  0.9478
    1SOL    MW4 5376   2.267   2.719   2.324 -0.0966 -0.1578  0.7284
    1SOL     OW 5377   2.471   2.848   2.236  0.4405 -0.1434  0.3799
    1SOL    HW2 5378   2.533   2.795   2.287 -0.2893 -0.0048  1.4392
    1SOL    HW3 5379   2.493   2.829   2.145  1.3274 -0.9346  0.7393
    1SOL    MW4 5380   2.482   2.838   2.231  0.4613 -0.2294  0.5670
    1SOL     OW 5381   2.504   3.120   2.334 -0.1718  0.1533 -0.1120
    1SOL    HW2 5382   2.583   3.159   2.296  0.4173 -0.6876  0.2392
    1SOL    HW3 5383   2.499   3.034   2.294 -0.5338 -0.0535  0.3803
    1SOL    MW4 5384   2.514   3.114   2.323 -0.1419  0.0148 -0.0010
    1SOL     OW 5385   2.221   3.207   2.260 -0.1778 -0.1975 -0.8617
    1SOL    HW2 5386   2.215   3.299   2.285 -0.6795 -1.1042  2.6243
    1SOL    HW3 5387   2.314   3.185   2.271 -0.5057 -0.7643  1.0262
    1SOL    MW4 5388   2.232   3.216   2.265 -0.2871 -0.3920 -0.1526
    1SOL     OW 5389   2.230   3.474   2.340 -0.2172 -0.1621 -0.1339
    1SOL    HW2 5390   2.224   3.461   2.435  0.7582  0.2784 -0.0026
    1SOL    HW3 5391   2.148   3.517   2.317 -0.5733 -0.5070  0.4741
    1SOL    MW4 5392   2.219   3.478   2.350 -0.1352 -0.1495 -0.0365
    1SOL     OW 5393   2.457   3.608   2.257 -0.5777 -0.2001 -0.1430
    1SOL    HW2 5394   2.441   3.700   2.280  1.6651 -0.0492  0.9597
    1SOL    HW3 5395   2.382   3.561   2.293 -1.6994  1.1900 -0.6405
    1SOL    MW4 5396   2.445   3.614   2.265 -0.4299  0.0033 -0.0629
    1SOL     OW 5397   2.460   3.877   2.364  0.3577 -0.0198 -0.2254
    1SOL    HW2 5398   2.451   3.901   2.457  0.3028 -2.5027  0.4446
    1SOL    HW3 5399   2.384   3.916   2.322 -0.4357 -0.1251  1.0615
    1SOL    MW4 5400   2.449   3.885   2.371  0.2458 -0.3614  0.0327
    1SOL     OW 5401   2.246   3.995   2.254 -0.0917  0.6389  0.2179
    1SOL    HW2 5402   2.249   4.070   2.314  0.9030 -0.0016  0.9834
    1SOL    HW3 5403   2.168   3.947   2.281  0.1852  0.5150  0.8214
    1SOL    MW4 5404   2.236   3.999   2.266  0.0763  0.5383  0.3986
    1SOL     OW 5405   2.263   4.218   2.422 -0.1390 -0.3256 -0.1345
    1SOL    HW2 5406   2.262   4.240   2.515 -0.8028  0.8681 -0.4141
    1SOL    HW3 5407   2.187   4.263   2.386  1.2997  0.9560 -1.6429
    1SOL    MW4 5408   2.253   4.227   2.429 -0.0365  0.0014 -0.3703
    1SOL     OW 5409   2.471   4.364   2.296  0.2527 -0.6429  0.2449
    1SOL    HW2 5410   2.555   4.331   2.326  0.5411  0.8725  1.1514
    1SOL    HW3 5411   2.407   4.301   2.330  0.9440 -1.3869  0.1856
    1SOL    MW4 5412   2.474   4.351   2.304  0.3819 -0.5417  0.3567
    1SOL     OW 5413   2.939   4.650   2.390 -0.5626 -0.0729 -0.0050
    1SOL    HW2 5414   2.995   4.699   2.330  0.2623  0.0279  0.8190
    1SOL    HW3 5415   2.946   4.559   2.361 -1.4905  0.1971 -1.0707
    1SOL    MW4 5416   2.948   4.644   2.379 -0.5765 -0.0238 -0.0367
    1SOL     OW 5417   2.692   0.101   2.278  0.1427 -0.0756  0.0519
    1SOL    HW2 5418   2.698   0.196   2.280  0.7570 -0.0731 -1.5842
    1SOL    HW3 5419   2.769   0.071   2.326  0.6032  0.2310 -0.4998
    1SOL    MW4 5420   2.703   0.109   2.285  0.2847 -0.0348 -0.2367
    1SOL     OW 5421   2.676   0.365   2.372  0.1933 -0.7179  0.0744
    1SOL    HW2 5422   2.679   0.362   2.468 -2.0170 -0.8375  0.1616
    1SOL    HW3 5423   2.760   0.403   2.347 -0.1572  1.6154  2.1906
    1SOL    MW4 5424   2.687   0.370   2.382 -0.1442 -0.4258  0.3650
    1SOL     OW 5425   2.905   0.510   2.273 -0.0688 -0.0065 -0.1641
    1SOL    HW2 5426   2.902   0.601   2.302 -0.3664  0.1386 -0.6450
    1SOL    HW3 5427   2.917   0.515   2.178  1.9696 -0.4819  0.0504
    1SOL    MW4 5428   2.906   0.522   2.264  0.1609 -0.0502 -0.1996
    1SOL     OW 5429   2.957   0.784   2.348  0.0233  0.4152  0.2356
    1SOL    HW2 5430   2.949   0.770   2.443 -1.4416  0.1814  0.0845
    1SOL    HW3 5431   2.878   0.831   2.324  0.5274  0.7245 -0.8362
    1SOL    MW4 5432   2.945   0.788   2.358 -0.1035  0.4252  0.0741
    1SOL     OW 5433   2.709   0.891   2.311 -0.7178  0.0981  0.3154
    1SOL    HW2 5434   2.697   0.986   2.316 -0.0204  0.2370 -0.4480
    1SOL    HW3 5435   2.704   0.872   2.218  1.8340 -0.2363  0.2167
    1SOL    MW4 5436   2.707   0.901   2.299 -0.2890  0.0722  0.2015
    1SOL     OW 5437   2.694   1.162   2.362  0.1561 -0.5526  0.3780
    1SOL    HW2 5438   2.695   1.147   2.457  0.4693  0.2826  0.5088
    1SOL    HW3 5439   2.780   1.198   2.342 -0.6044  1.1955  0.1066
    1SOL    MW4 5440   2.705   1.165   2.372  0.0973 -0.2120  0.3593
    1SOL     OW 5441   2.926   1.269   2.292 -0.0473  0.2325 -0.1034
    1SOL    HW2 5442   3.011   1.233   2.318  0.3981  0.9397 -0.5482
    1SOL    HW3 5443   2.927   1.265   2.197  0.1984  1.8115 -0.1821
    1SOL    MW4 5444   2.938   1.264   2.283  0.0436  0.5341 -0.1726
    1SOL     OW 5445   2.919   1.531   2.345 -0.5314  0.3469 -0.2575
    1SOL    HW2 5446   2.912   1.538   2.440 -2.2987 -0.4361 -0.3241
    1SOL    HW3 5447   2.909   1.437   2.326 -1.3671  0.6292 -1.2937
    1SOL    MW4 5448   2.917   1.519   2.355 -0.8748  0.2806 -0.4029
    1SOL     OW 5449   2.675   1.633   2.237  0.1845 -0.0230 -0.1806
    1SOL    HW2 5450   2.760   1.607   2.274  0.6345  0.2411 -1.0102
    1SOL    HW3 5451   2.687   1.623   2.143 -1.5896 -2.6361 -0.1645
    1SOL    MW4 5452   2.688   1.628   2.230  0.0100 -0.3330 -0.2880
    1SOL     OW 5453   2.707   1.901   2.321 -0.3700  0.2125  0.6462
    1SOL    HW2 5454   2.669   1.909   2.409 -0.4206 -0.4699  0.6833
    1SOL    HW3 5455   2.701   1.808   2.300  0.5487  0.2262  0.3196
    1SOL    MW4 5456   2.701   1.890   2.330 -0.2553  0.1242  0.6082
    1SOL     OW 5457   2.944   2.041   2.221 -0.0000  0.5885  0.4644
    1SOL    HW2 5458   3.020   2.014   2.273  0.8829 -0.6199 -1.3824
    1SOL    HW3 5459   2.873   1.986   2.252  0.1168  1.0103  1.5013
    1SOL    MW4 5460   2.945   2.030   2.232  0.1318  0.4847  0.3574
    1SOL     OW 5461   2.915   2.302   2.330 -0.6319  0.4923 -0.1893
    1SOL    HW2 5462   2.896   2.294   2.423 -2.7893  1.2197 -0.5561
    1SOL    HW3 5463   2.938   2.214   2.302  1.0590  0.4501  1.2238
    1SOL    MW4 5464   2.916   2.290   2.338 -0.6936  0.5825 -0.0513
    1SOL     OW 5465   2.700   2.424   2.200  0.0903  0.0635  0.2396
    1SOL    HW2 5466   2.775   2.385   2.245  0.5056 -0.0776 -0.5666
    1SOL    HW3 5467   2.711   2.397   2.108 -0.3059  1.0163 -0.0885
    1SOL    MW4 5468   2.712   2.415   2.194  0.0927  0.1705  0.0899
    1SOL     OW 5469   2.650   2.655   2.338  0.0785 -0.3697  0.3019
    1SOL    HW2 5470   2.726   2.703   2.305  0.2427  0.2802  1.6067
    1SOL    HW3 5471   2.659   2.568   2.300  0.8692  0.0358 -0.4641
    1SOL    MW4 5472   2.661   2.650   2.329  0.2046 -0.2303  0.3729
    1SOL     OW 5473   2.888   2.786   2.257  0.1792 -0.0805  0.5713
    1SOL    HW2 5474   2.885   2.878   2.284 -0.2322  0.6655 -1.8524
    1SOL    HW3 5475   2.914   2.789   2.164 -0.2642 -2.3870  0.3394
    1SOL    MW4 5476   2.891   2.799   2.248  0.0663 -0.2863  0.2213
    1SOL     OW 5477   2.956   3.049   2.346  0.3261 -0.4277  0.3263
    1SOL    HW2 5478   2.961   3.070   2.439 -2.0254 -1.3747  0.6983
    1SOL    HW3 5479   2.884   3.103   2.313  1.0508 -0.2055 -0.9098
    1SOL    MW4 5480   2.947   3.059   2.354  0.1116 -0.5233  0.2124
    1SOL     OW 5481   2.740   3.226   2.236  0.6666  0.0178 -0.3834
    1SOL    HW2 5482   2.725   3.314   2.271  0.6460 -0.5742  1.1555
    1SOL    HW3 5483   2.734   3.236   2.141 -2.0385  1.1703 -0.1322
    1SOL    MW4 5484   2.737   3.239   2.228  0.3068  0.0918 -0.1471
    1SOL     OW 5485   2.687   3.485   2.344 -0.2486 -0.5828  0.5417
    1SOL    HW2 5486   2.764   3.529   2.307 -0.0594 -0.5141  1.0104
    1SOL    HW3 5487   2.613   3.522   2.296 -0.0415 -0.1698  0.5404
    1SOL    MW4 5488   2.687   3.496   2.333 -0.1960 -0.5190  0.6032
    1SOL     OW 5489   2.912   3.603   2.230 -0.4939  0.0652 -0.0250
    1SOL    HW2 5490   2.993   3.559   2.258  0.1154  0.7154 -0.7259
    1SOL    HW3 5491   2.912   3.686   2.277 -1.0698 -0.1984  0.4423
    1SOL    MW4 5492   2.923   3.608   2.240 -0.4895  0.1163 -0.0558
    1SOL     OW 5493   2.907   3.854   2.351 -0.0106  0.4679  0.2759
    1SOL    HW2 5494   2.920   3.842   2.445  0.4958 -2.0494 -0.0858
    1SOL    HW3 5495   2.821   3.895   2.344 -0.4304 -0.1126  1.8040
    1SOL    MW4 5496   2.898   3.858   2.363  0.0010  0.0591  0.4301
    1SOL     OW 5497   2.680   4.000   2.263 -0.7117  0.3216  0.0829
    1SOL    HW2 5498   2.593   3.965   2.282 -1.3306  1.9401  0.2922
    1SOL    HW3 5499   2.693   3.982   2.169 -0.9991 -0.4807  0.1907
    1SOL    MW4 5500   2.670   3.993   2.253 -0.8311  0.4292  0.1245
    1SOL     OW 5501   2.727   4.270   2.376 -0.1718  0.0690 -0.5279
    1SOL    HW2 5502   2.760   4.259   2.465 -2.2706  0.3888  0.3197
    1SOL    HW3 5503   2.725   4.181   2.340  1.6530  0.0612 -0.6200
    1SOL    MW4 5504   2.731   4.257   2.383 -0.2079  0.1097 -0.4284
    1SOL     OW 5505   2.923   4.393   2.232 -0.4908 -0.2319 -0.0160
    1SOL    HW2 5506   2.995   4.343   2.269 -0.7826 -0.1458  0.6793
    1SOL    HW3 5507   2.846   4.365   2.281 -0.4688  1.7887  1.2346
    1SOL    MW4 5508   2.922   4.383   2.243 -0.5267  0.0458  0.2406
    1SOL     OW 5509   3.361   4.638   2.361  0.0828  0.6734 -0.0733
    1SOL    HW2 5510   3.368   4.640   2.457 -0.5517 -1.4603  0.0375
    1SOL    HW3 5511   3.432   4.695   2.331  1.3744 -0.0038  1.6303
    1SOL    MW4 5512   3.371   4.646   2.370  0.1695  0.3028  0.1662
    1SOL     OW 5513   3.144   0.109   2.240  0.6163 -0.5384  0.2711
    1SOL    HW2 5514   3.154   0.198   2.272 -1.1575 -0.4118  0.5393
    1SOL    HW3 5515   3.220   0.062   2.275  1.7682  0.9302 -0.1822
    1SOL    MW4 5516   3.155   0.114   2.248  0.5341 -0.3279  0.2465
    1SOL     OW 5517   3.125   0.367   2.367 -0.2479 -0.4179  0.2747
    1SOL    HW2 5518   3.193   0.420   2.326 -0.1701 -1.3578 -0.8274
    1SOL    HW3 5519   3.043   0.406   2.337 -0.1978 -0.2366  0.3698
    1SOL    MW4 5520   3.123   0.380   2.358 -0.2310 -0.5179  0.1419
    1SOL     OW 5521   3.373   0.485   2.258 -0.1841  0.1446 -0.2233
    1SOL    HW2 5522   3.463   0.457   2.276 -0.3793  0.7979  1.9254
    1SOL    HW3 5523   3.366   0.484   2.163  2.3387  0.8292 -0.4360
    1SOL    MW4 5524   3.384   0.481   2.248  0.1230  0.3211  0.0322
    1SOL     OW 5525   3.392   0.778   2.328 -0.0647  0.4717 -0.3027
    1SOL    HW2 5526   3.469   0.816   2.287  1.2762 -1.5265  0.2605
    1SOL    HW3 5527   3.387   0.689   2.292 -1.2288  0.0722  0.7860
    1SOL    MW4 5528   3.401   0.771   2.318 -0.0415  0.1553 -0.0849
    1SOL     OW 5529   3.162   0.907   2.230  0.2104  0.3737  0.1356
    1SOL    HW2 5530   3.238   0.873   2.277  1.4317  1.5533 -0.9359
    1SOL    HW3 5531   3.087   0.864   2.271  1.4163 -0.4347  1.5421
    1SOL    MW4 5532   3.162   0.897   2.242  0.5307  0.4227  0.1798
    1SOL     OW 5533   3.169   1.161   2.347  0.3493  0.2601  0.2740
    1SOL    HW2 5534   3.242   1.208   2.305  1.4800  0.5787  2.5331
    1SOL    HW3 5535   3.173   1.073   2.309  0.5192  0.9103 -1.2642
    1SOL    MW4 5536   3.179   1.156   2.336  0.5209  0.3878  0.3691
    1SOL     OW 5537   3.378   1.282   2.213 -0.1395  0.2918 -0.4435
    1SOL    HW2 5538   3.452   1.244   2.260  0.8910  2.4142 -0.3084
    1SOL    HW3 5539   3.367   1.369   2.250 -1.1552  0.9296 -2.1582
    1SOL    MW4 5540   3.386   1.288   2.224 -0.1376  0.6561 -0.6518
    1SOL     OW 5541   3.341   1.529   2.337 -0.0051  0.2319  0.5919
    1SOL    HW2 5542   3.327   1.544   2.430  0.8596  0.9870  0.5999
    1SOL    HW3 5543   3.279   1.587   2.293 -0.4464 -0.1598  0.6933
    1SOL    MW4 5544   3.331   1.538   2.343  0.0508  0.2798  0.6065
    1SOL     OW 5545   3.136   1.686   2.228  0.3076  0.2073 -0.5657
    1SOL    HW2 5546   3.119   1.778   2.243  1.2041  0.2914  0.0257
    1SOL    HW3 5547   3.056   1.641   2.254  0.1784  0.7492 -0.0384
    1SOL    MW4 5548   3.123   1.692   2.233  0.4089  0.2899 -0.4179
    1SOL     OW 5549   3.136   1.948   2.380  0.0816  0.1337  0.1277
    1SOL    HW2 5550   3.135   1.949   2.476 -0.9096  0.9118  0.1251
    1SOL    HW3 5551   3.218   1.992   2.357  0.1347  0.3011  0.6158
    1SOL    MW4 5552   3.147   1.954   2.390 -0.0427  0.2583  0.1917
    1SOL     OW 5553   3.350   2.067   2.247  0.4486  0.5760  0.3721
    1SOL    HW2 5554   3.429   2.023   2.279  0.3261 -0.5703 -0.8248
    1SOL    HW3 5555   3.351   2.051   2.152 -0.3703  1.9316  0.1287
    1SOL    MW4 5556   3.361   2.059   2.239  0.3245  0.6037  0.1822
    1SOL     OW 5557   3.336   2.309   2.371  0.1666  0.2307 -0.0460
    1SOL    HW2 5558   3.272   2.372   2.338  0.3774  0.3573 -0.2170
    1SOL    HW3 5559   3.324   2.231   2.317  1.3006  0.8411 -1.2017
    1SOL    MW4 5560   3.326   2.307   2.359  0.3443  0.3278 -0.2210
    1SOL     OW 5561   3.146   2.464   2.249 -0.3288 -0.9009 -0.2405
    1SOL    HW2 5562   3.123   2.555   2.268 -0.8677 -0.9401 -0.6937
    1SOL    HW3 5563   3.071   2.413   2.281 -0.2048 -1.1513 -0.3491
    1SOL    MW4 5564   3.133   2.469   2.255 -0.3834 -0.9391 -0.3145
    1SOL     OW 5565   3.147   2.729   2.332  0.4614  0.0485 -0.1072
    1SOL    HW2 5566   3.146   2.721   2.428  0.1701 -0.8582 -0.1883
    1SOL    HW3 5567   3.062   2.766   2.310  0.4824  0.1424 -0.0334
    1SOL    MW4 5568   3.136   2.733   2.342  0.4261 -0.0589 -0.1080
    1SOL     OW 5569   3.398   2.846   2.240  0.8661 -0.5007 -0.2732
    1SOL    HW2 5570   3.408   2.936   2.271  0.1216 -0.7566  0.7407
    1SOL    HW3 5571   3.319   2.815   2.284  1.6752 -1.9729  0.1640
    1SOL    MW4 5572   3.389   2.854   2.250  0.8748 -0.7286 -0.0818
    1SOL     OW 5573   3.448   3.111   2.359  0.0344  0.3948  0.2482
    1SOL    HW2 5574   3.526   3.149   2.319  0.0860 -1.6714 -1.6874
    1SOL    HW3 5575   3.375   3.153   2.312  0.0242  0.5610  0.4121
    1SOL    MW4 5576   3.448   3.122   2.348  0.0403  0.1442  0.0145
    1SOL     OW 5577   3.179   3.211   2.275 -0.3061  0.3515  0.0212
    1SOL    HW2 5578   3.151   3.291   2.319  0.9200  0.1487  1.1966
    1SOL    HW3 5579   3.116   3.144   2.304 -1.0717  0.7745 -0.6248
    1SOL    MW4 5580   3.167   3.213   2.285 -0.2453  0.3805  0.0908
    1SOL     OW 5581   3.145   3.487   2.343  0.1041 -0.1997  0.1587
    1SOL    HW2 5582   3.129   3.508   2.435  0.2403  1.5521 -0.2110
    1SOL    HW3 5583   3.226   3.532   2.322  0.3168 -0.9787 -0.7022
    1SOL    MW4 5584   3.153   3.495   2.353  0.1502 -0.0713 -0.0036
    1SOL     OW 5585   3.385   3.599   2.266  0.3009 -0.1079  0.1713
    1SOL    HW2 5586   3.472   3.572   2.296  0.6162  0.0842 -0.5629
    1SOL    HW3 5587   3.394   3.609   2.172 -0.4238  0.2829  0.1401
    1SOL    MW4 5588   3.398   3.597   2.258  0.2468 -0.0312  0.0703
    1SOL     OW 5589   3.364   3.863   2.380 -0.6405 -0.3702 -0.5706
    1SOL    HW2 5590   3.445   3.902   2.347 -0.6786  0.0955 -0.1292
    1SOL    HW3 5591   3.360   3.776   2.339  0.5533 -0.7585  0.1269
    1SOL    MW4 5592   3.374   3.857   2.370 -0.4880 -0.3600 -0.4201
    1SOL     OW 5593   3.144   3.984   2.247  0.2054  0.0093 -0.0206
    1SOL    HW2 5594   3.207   3.931   2.298 -0.6418 -1.3311 -0.3262
    1SOL    HW3 5595   3.059   3.949   2.273 -0.3101  0.4461 -1.1287
    1SOL    MW4 5596   3.141   3.972   2.257  0.0257 -0.1101 -0.2072
    1SOL     OW 5597   3.125   4.240   2.359  0.1364 -0.2136 -0.1007
    1SOL    HW2 5598   3.213   4.272   2.343  0.2852 -0.5755 -0.0050
    1SOL    HW3 5599   3.127   4.148   2.332 -0.3511 -0.0847 -0.5910
    1SOL    MW4 5600   3.137   4.232   2.353  0.0918 -0.2446 -0.1528
    1SOL     OW 5601   3.368   4.361   2.281  0.0480 -0.1457 -0.4309
    1SOL    HW2 5602   3.368   4.453   2.308  1.3339 -0.2209 -0.1366
    1SOL    HW3 5603   3.360   4.363   2.186 -0.3126  0.2570 -0.3925
    1SOL    MW4 5604   3.367   4.373   2.272  0.1700 -0.1025 -0.3870
    1SOL     OW 5605   3.831   4.634   2.337  0.1523 -0.4906 -0.1763
    1SOL    HW2 5606   3.828   4.639   2.432 -0.7919 -1.6490 -0.1353
    1SOL    HW3 5607   3.904   4.691   2.312 -0.9244  1.4882  1.0934
    1SOL    MW4 5608   3.840   4.642   2.346 -0.1147 -0.3824 -0.0033
    1SOL     OW 5609   3.591   0.113   2.280  0.1101  0.1455 -0.3530
    1SOL    HW2 5610   3.603   0.207   2.298  0.2094 -0.2350  1.7268
    1SOL    HW3 5611   3.676   0.075   2.300 -0.0317 -0.4434 -0.8763
    1SOL    MW4 5612   3.604   0.121   2.285  0.1044  0.0176 -0.1478
    1SOL     OW 5613   3.621   0.380   2.325  0.3766  0.2290  0.4260
    1SOL    HW2 5614   3.608   0.382   2.420  2.3788 -1.8459  0.7872
    1SOL    HW3 5615   3.696   0.437   2.310  0.3010  0.2521  0.1297
    1SOL    MW4 5616   3.629   0.388   2.336  0.6309 -0.0417  0.4346
    1SOL     OW 5617   3.837   0.534   2.254  0.0516  0.5011  0.1003
    1SOL    HW2 5618   3.830   0.629   2.266  1.7333  0.7250 -0.6266
    1SOL    HW3 5619   3.838   0.521   2.159 -2.1812 -0.4180  0.1688
    1SOL    MW4 5620   3.836   0.545   2.243 -0.0212  0.4094  0.0136
    1SOL     OW 5621   3.826   0.797   2.327  0.0957  0.0528  0.0166
    1SOL    HW2 5622   3.811   0.792   2.422  0.4838 -0.1195  0.0698
    1SOL    HW3 5623   3.899   0.857   2.318 -0.6352  0.9153 -0.2467
    1SOL    MW4 5624   3.833   0.804   2.338  0.0503  0.1439 -0.0110
    1SOL     OW 5625   3.594   0.914   2.234  0.1361  0.4464  0.0478
    1SOL    HW2 5626   3.678   0.871   2.250  0.3423  0.5471 -0.7257
    1SOL    HW3 5627   3.583   0.910   2.139  0.8290  3.2980 -0.2298
    1SOL    MW4 5628   3.604   0.908   2.224  0.2546  0.8358 -0.0911
    1SOL     OW 5629   3.575   1.164   2.368  0.0092  0.0727  0.5621
    1SOL    HW2 5630   3.572   1.151   2.463  0.1313 -0.0189  0.5549
    1SOL    HW3 5631   3.583   1.075   2.333 -0.4978  0.0736  0.4460
    1SOL    MW4 5632   3.576   1.150   2.376 -0.0412  0.0608  0.5460
    1SOL     OW 5633   3.825   1.303   2.256  0.1089  0.0374 -0.5372
    1SOL    HW2 5634   3.807   1.390   2.291  1.0985 -0.0545  0.2588
    1SOL    HW3 5635   3.747   1.251   2.278 -0.5504  0.7671 -1.1691
    1SOL    MW4 5636   3.812   1.307   2.264  0.1526  0.1215 -0.5155
    1SOL     OW 5637   3.815   1.561   2.375  0.0237  0.2488 -0.1337
    1SOL    HW2 5638   3.805   1.535   2.467  0.0786 -0.1086 -0.2281
    1SOL    HW3 5639   3.737   1.613   2.356  0.5393  1.2386  0.4248
    1SOL    MW4 5640   3.803   1.564   2.385  0.0989  0.3322 -0.0725
    1SOL     OW 5641   3.577   1.667   2.270  0.2364  0.7826 -0.3346
    1SOL    HW2 5642   3.498   1.619   2.296  1.4526 -0.9744  0.2268
    1SOL    HW3 5643   3.576   1.665   2.174  0.6296 -1.0328 -0.3282
    1SOL    MW4 5644   3.567   1.660   2.261  0.4487  0.3114 -0.2596
    1SOL     OW 5645   3.593   1.933   2.348 -0.4145 -0.3398 -0.0099
    1SOL    HW2 5646   3.678   1.970   2.328 -0.3840  0.8712  2.2014
    1SOL    HW3 5647   3.598   1.842   2.319  1.2456  0.0231 -0.8661
    1SOL    MW4 5648   3.605   1.926   2.341 -0.1912 -0.1322  0.1688
    1SOL     OW 5649   3.836   2.069   2.268 -0.3870 -0.0347  0.0167
    1SOL    HW2 5650   3.918   2.024   2.287  0.4740  1.7127  0.6071
    1SOL    HW3 5651   3.837   2.081   2.173  0.1222  0.0746  0.0287
    1SOL    MW4 5652   3.847   2.065   2.258 -0.2065  0.2103  0.0963
    1SOL     OW 5653   3.794   2.309   2.372 -0.1508 -0.5022  0.1198
    1SOL    HW2 5654   3.708   2.335   2.338 -0.2477 -0.4966  0.3613
    1SOL    HW3 5655   3.800   2.215   2.353 -0.9033 -0.8615  1.5184
    1SOL    MW4 5656   3.783   2.300   2.365 -0.2630 -0.5491  0.3362
    1SOL     OW 5657   3.546   2.422   2.252 -0.0946  0.3853 -0.4491
    1SOL    HW2 5658   3.466   2.385   2.291  0.7537 -0.8476  0.1558
    1SOL    HW3 5659   3.533   2.411   2.158 -0.4377 -0.2416 -0.3341
    1SOL    MW4 5660   3.534   2.416   2.245 -0.0281  0.1400 -0.3541
    1SOL     OW 5661   3.585   2.683   2.361  0.2804  0.2147 -0.6360
    1SOL    HW2 5662   3.588   2.597   2.318 -0.4044 -0.2071  0.1302
    1SOL    HW3 5663   3.516   2.730   2.313 -1.1127 -0.5746  0.5384
    1SOL    MW4 5664   3.576   2.678   2.349  0.0062  0.0551 -0.3800
    1SOL     OW 5665   3.797   2.826   2.265  0.2340 -0.9180 -0.4518
    1SOL    HW2 5666   3.797   2.907   2.316  0.9157 -0.8993 -0.4808
    1SOL    HW3 5667   3.730   2.772   2.306 -0.1814 -0.3589 -0.3945
    1SOL    MW4 5668   3.788   2.830   2.277  0.2692 -0.8419 -0.4480
    1SOL     OW 5669   3.829   3.097   2.376  0.0504  0.3679  0.0613
    1SOL    HW2 5670   3.838   3.104   2.471  0.5966 -0.0743  0.0369
    1SOL    HW3 5671   3.904   3.145   2.341  0.6506 -0.7107 -0.1400
    1SOL    MW4 5672   3.840   3.105   2.384  0.2019  0.1674  0.0317
    1SOL     OW 5673   3.651   3.254   2.219 -0.0576  0.1807  0.6713
    1SOL    HW2 5674   3.635   3.333   2.270  0.1351  0.3692  0.4363
    1SOL    HW3 5675   3.716   3.205   2.271 -1.5045 -0.6694  1.7172
    1SOL    MW4 5676   3.658   3.258   2.233 -0.2229  0.0935  0.7784
    1SOL     OW 5677   3.612   3.491   2.369 -0.3551  0.1579  0.3540
    1SOL    HW2 5678   3.613   3.477   2.464  0.2732  1.9876  0.6392
    1SOL    HW3 5679   3.698   3.528   2.350  0.1916 -1.8322 -1.2206
    1SOL    MW4 5680   3.623   3.494   2.379 -0.2003  0.1369  0.1841
    1SOL     OW 5681   3.856   3.595   2.283 -0.5068  0.6256  0.2388
    1SOL    HW2 5682   3.840   3.685   2.313  1.5887  1.5569 -1.2722
    1SOL    HW3 5683   3.841   3.598   2.189 -0.1028 -0.5371  0.1345
    1SOL    MW4 5684   3.852   3.607   2.275 -0.1771  0.5949  0.0257
    1SOL     OW 5685   3.833   3.861   2.361 -0.0056  0.1794  0.3390
    1SOL    HW2 5686   3.844   3.860   2.457  0.8210 -0.4530  0.2473
    1SOL    HW3 5687   3.908   3.911   2.329 -0.2131  0.2829  0.0123
    1SOL    MW4 5688   3.844   3.867   2.370  0.0758  0.1097  0.2840
    1SOL     OW 5689   3.590   3.949   2.240  0.0247 -0.0083  0.5872
    1SOL    HW2 5690   3.577   4.040   2.264  0.2021  0.1908 -0.0546
    1SOL    HW3 5691   3.673   3.924   2.281  0.8133  0.6126 -0.6088
    1SOL    MW4 5692   3.599   3.958   2.248  0.1519  0.0999  0.3448
    1SOL     OW 5693   3.580   4.199   2.339  0.5805 -0.0661 -0.0835
    1SOL    HW2 5694   3.648   4.259   2.308  0.0389  0.6895  0.1657
    1SOL    HW3 5695   3.499   4.251   2.335  0.1150 -0.7634  0.1932
    1SOL    MW4 5696   3.578   4.214   2.334  0.4475 -0.0587 -0.0141
    1SOL     OW 5697   3.801   4.360   2.261 -0.1195 -0.3098 -0.3604
    1SOL    HW2 5698   3.869   4.313   2.310  0.9183  1.0965 -0.4253
    1SOL    HW3 5699   3.805   4.450   2.295 -2.6473 -0.4351  0.3632
    1SOL    MW4 5700   3.810   4.366   2.272 -0.3161 -0.1411 -0.2737
    1SOL     OW 5701   4.257   4.660   2.388 -0.0895  0.1277  0.1037
    1SOL    HW2 5702   4.254   4.647   2.483 -1.1666  1.8194  0.3144
    1SOL    HW3 5703   4.346   4.689   2.371  0.1438 -0.2918  0.5712
    1SOL    MW4 5704   4.269   4.662   2.398 -0.2007  0.2956  0.1934
    1SOL     OW 5705   4.050   0.141   2.279  0.1578 -0.0406 -0.0382
    1SOL    HW2 5706   4.053   0.221   2.331 -1.0682 -0.2782  0.4184
    1SOL    HW3 5707   4.129   0.093   2.303  0.6637  0.8204  0.0271
    1SOL    MW4 5708   4.061   0.145   2.289  0.0625  0.0416  0.0305
    1SOL     OW 5709   4.069   0.404   2.373 -0.4691 -0.1657  0.3297
    1SOL    HW2 5710   4.148   0.426   2.325 -0.2390  0.4322  0.9710
    1SOL    HW3 5711   4.000   0.454   2.330 -0.4072 -0.2919  0.0874
    1SOL    MW4 5712   4.070   0.414   2.361 -0.4301 -0.1035  0.3824
    1SOL     OW 5713   4.295   0.508   2.242  0.4040  0.1444 -0.5126
    1SOL    HW2 5714   4.279   0.598   2.272 -1.0267 -0.4968  0.7549
    1SOL    HW3 5715   4.374   0.481   2.289  2.0140  1.3971 -2.4253
    1SOL    MW4 5716   4.303   0.516   2.252  0.4277  0.2251 -0.5975
    1SOL     OW 5717   4.256   0.760   2.347  0.1056 -0.3950  0.9609
    1SOL    HW2 5718   4.186   0.809   2.304 -0.6572 -0.1809  2.3835
    1SOL    HW3 5719   4.336   0.807   2.325 -0.4369  0.5543  0.9766
    1SOL    MW4 5720   4.257   0.773   2.339 -0.0668 -0.2415  1.1506
    1SOL     OW 5721   4.052   0.924   2.230 -0.2469  0.2798 -0.3479
    1SOL    HW2 5722   4.067   1.013   2.263  0.6456  0.3147 -0.8238
    1SOL    HW3 5723   4.055   0.933   2.135 -0.4440 -0.2133 -0.3997
    1SOL    MW4 5724   4.054   0.937   2.222 -0.1550  0.2193 -0.4177
    1SOL     OW 5725   4.044   1.173   2.362  0.1214 -0.3842 -0.1245
    1SOL    HW2 5726   4.027   1.166   2.456  1.5175 -0.2930  0.1353
    1SOL    HW3 5727   3.966   1.219   2.328 -1.2432 -2.0554  0.6795
    1SOL    MW4 5728   4.031   1.178   2.370  0.1259 -0.5926  0.0157
    1SOL     OW 5729   4.264   1.308   2.256 -0.0584  0.5219  0.2868
    1SOL    HW2 5730   4.191   1.260   2.296  0.2290 -2.3023 -2.4142
    1SOL    HW3 5731   4.343   1.262   2.285  0.3891  1.0202 -0.1141
    1SOL    MW4 5732   4.265   1.296   2.265  0.0377  0.2148 -0.1225
    1SOL     OW 5733   4.261   1.575   2.374 -0.2748  0.0427 -0.0418
    1SOL    HW2 5734   4.256   1.495   2.322 -0.4473  0.2722 -0.3724
    1SOL    HW3 5735   4.323   1.630   2.328  1.8908 -0.9445  1.5858
    1SOL    MW4 5736   4.268   1.572   2.361 -0.0124 -0.0572  0.1295
    1SOL     OW 5737   4.044   1.657   2.245 -0.6022 -0.2003  0.0624
    1SOL    HW2 5738   4.113   1.639   2.309 -1.7320  1.5814  1.8360
    1SOL    HW3 5739   3.969   1.606   2.276 -1.1297  0.6100  0.1324
    1SOL    MW4 5740   4.043   1.648   2.258 -0.8211  0.1417  0.3054
    1SOL     OW 5741   4.077   1.918   2.315  0.1689 -0.0303  0.5432
    1SOL    HW2 5742   4.075   1.918   2.411  2.6808  0.6992  0.6264
    1SOL    HW3 5743   4.058   1.827   2.291  2.4233 -0.8869  1.8582
    1SOL    MW4 5744   4.074   1.906   2.324  0.7977 -0.0471  0.7279
    1SOL     OW 5745   4.286   2.045   2.208 -0.2983  0.3483 -0.1420
    1SOL    HW2 5746   4.282   2.138   2.229 -1.6179  0.4302 -0.6891
    1SOL    HW3 5747   4.208   2.008   2.248  0.4144 -0.5961  0.3958
    1SOL    MW4 5748   4.275   2.052   2.216 -0.3786  0.2344 -0.1431
    1SOL     OW 5749   4.272   2.303   2.284  0.5883  0.0505 -0.5260
    1SOL    HW2 5750   4.193   2.356   2.275 -0.1146 -1.2466 -2.1717
    1SOL    HW3 5751   4.344   2.362   2.263  0.0734  1.2030  0.8591
    1SOL    MW4 5752   4.271   2.317   2.280  0.4282  0.0315 -0.5603
    1SOL     OW 5753   4.022   2.438   2.247 -0.4717  0.1199 -0.3255
    1SOL    HW2 5754   4.012   2.523   2.291  1.9777 -0.6998  1.9318
    1SOL    HW3 5755   3.944   2.389   2.273  0.3957  0.0464  2.2733
    1SOL    MW4 5756   4.010   2.443   2.257 -0.0343  0.0019  0.3150
    1SOL     OW 5757   4.043   2.703   2.348 -0.5988  0.0984 -0.2417
    1SOL    HW2 5758   4.036   2.713   2.443 -2.1339  0.5127 -0.3926
    1SOL    HW3 5759   3.971   2.756   2.313  0.4747  0.6501 -1.6726
    1SOL    MW4 5760   4.033   2.712   2.356 -0.6599  0.2263 -0.4504
    1SOL     OW 5761   4.259   2.851   2.223  0.2911  0.3793  0.3959
    1SOL    HW2 5762   4.180   2.802   2.242 -0.1243  0.4090 -1.1665
    1SOL    HW3 5763   4.322   2.824   2.290 -0.9781  0.2175  1.5279
    1SOL    MW4 5764   4.257   2.841   2.234  0.0691  0.3619  0.3393
    1SOL     OW 5765   4.266   3.092   2.353  0.2811  0.2722 -0.0297
    1SOL    HW2 5766   4.254   3.021   2.290  0.2466  0.5139 -0.2942
    1SOL    HW3 5767   4.352   3.128   2.333  0.5485 -0.0676  0.4804
    1SOL    MW4 5768   4.276   3.088   2.342  0.3119  0.2594  0.0026
    1SOL     OW 5769   4.048   3.232   2.271  0.2459  0.1368  0.3883
    1SOL    HW2 5770   4.046   3.317   2.314  0.9079 -0.4312  1.5684
    1SOL    HW3 5771   4.122   3.186   2.311  1.7717  0.0790 -2.3466
    1SOL    MW4 5772   4.057   3.237   2.282  0.5345  0.0541  0.1831
    1SOL     OW 5773   4.076   3.477   2.386 -0.0955 -0.0425 -0.4556
    1SOL    HW2 5774   4.150   3.526   2.350  0.0178  0.1777  0.0672
    1SOL    HW3 5775   3.999   3.517   2.345  0.1222 -0.8147 -1.6250
    1SOL    MW4 5776   4.075   3.489   2.376 -0.0520 -0.1152 -0.5412
    1SOL     OW 5777   4.295   3.626   2.263 -0.1450 -0.0250 -0.6197
    1SOL    HW2 5778   4.289   3.719   2.286 -0.4569 -0.2323  0.1639
    1SOL    HW3 5779   4.279   3.623   2.169  0.0302  0.7309 -0.6795
    1SOL    MW4 5780   4.292   3.638   2.254 -0.1631  0.0474 -0.5240
    1SOL     OW 5781   4.301   3.899   2.359 -0.1904 -0.3427 -0.0510
    1SOL    HW2 5782   4.301   3.942   2.445 -1.3616  0.0842 -0.2651
    1SOL    HW3 5783   4.385   3.923   2.321 -0.6083  1.3195  0.0523
    1SOL    MW4 5784   4.312   3.908   2.366 -0.3996 -0.0670 -0.0658
    1SOL     OW 5785   4.048   3.996   2.270 -0.3453  0.1606  0.1850
    1SOL    HW2 5786   4.129   3.960   2.305 -0.9042  0.0172  1.3920
    1SOL    HW3 5787   4.061   4.000   2.175  0.0245 -2.5251  0.0803
    1SOL    MW4 5788   4.060   3.991   2.262 -0.3705 -0.2127  0.3302
    1SOL     OW 5789   4.025   4.253   2.388  0.4869  0.4518 -0.3678
    1SOL    HW2 5790   4.095   4.299   2.340 -0.1550 -0.1477 -1.9111
    1SOL    HW3 5791   4.030   4.163   2.356 -1.9527  0.7192 -1.6147
    1SOL    MW4 5792   4.035   4.247   2.378  0.0801  0.4086 -0.7358
    1SOL     OW 5793   4.225   4.413   2.270 -0.2032  0.3477 -0.1121
    1SOL    HW2 5794   4.227   4.501   2.307  1.1772  0.4009 -0.2915
    1SOL    HW3 5795   4.308   4.373   2.298 -0.2895 -0.4874 -1.0144
    1SOL    MW4 5796   4.236   4.419   2.279 -0.0329  0.2446 -0.2549
    1SOL     OW 5797   0.235   4.632   2.642 -0.0010 -0.5052  0.1065
    1SOL    HW2 5798   0.227   4.544   2.678 -1.3893 -0.8005 -0.8756
    1SOL    HW3 5799   0.161   4.680   2.681  1.0167  0.3722  1.0055
    1SOL    MW4 5800   0.224   4.627   2.652 -0.0499 -0.4282  0.0954
    1SOL     OW 5801   0.025   0.103   2.731  0.1579  0.3527  0.1781
    1SOL    HW2 5802   0.018   0.097   2.826  1.0703 -0.5044  0.2014
    1SOL    HW3 5803   0.003   0.194   2.711 -1.9349  0.0609  1.0235
    1SOL    MW4 5804   0.021   0.114   2.741  0.0022  0.2011  0.2928
    1SOL     OW 5805   4.478   0.357   2.656 -0.1445 -0.0907 -0.4233
    1SOL    HW2 5806   4.556   0.404   2.687 -0.9789  0.8388  0.3082
    1SOL    HW3 5807   4.481   0.366   2.561  0.5067  0.1633 -0.3805
    1SOL    MW4 5808   4.488   0.365   2.648 -0.1687  0.0654 -0.3214
    1SOL     OW 5809   0.221   0.501   2.738 -0.6991 -0.0444  0.3530
    1SOL    HW2 5810   0.234   0.482   2.831 -1.0582 -0.0344  0.4046
    1SOL    HW3 5811   0.301   0.469   2.696 -0.8793 -0.7927  0.5640
    1SOL    MW4 5812   0.233   0.494   2.745 -0.7703 -0.1418  0.3874
    1SOL     OW 5813   0.198   0.751   2.618  0.1209 -0.1067  0.1588
    1SOL    HW2 5814   0.272   0.801   2.654 -1.1019  1.5497  0.4400
    1SOL    HW3 5815   0.192   0.674   2.674 -0.1076  1.1366  1.8827
    1SOL    MW4 5816   0.207   0.748   2.630 -0.0706  0.2759  0.4232
    1SOL     OW 5817   4.487   0.912   2.716  0.1340  0.0648 -0.4626
    1SOL    HW2 5818   4.408   0.877   2.675 -0.4348  0.8880 -0.0767
    1SOL    HW3 5819   4.558   0.859   2.680 -0.5555 -0.4432 -1.0873
    1SOL    MW4 5820   4.486   0.901   2.705 -0.0329  0.1065 -0.4942
    1SOL     OW 5821   4.489   1.179   2.608 -0.0024 -0.0855 -0.1727
    1SOL    HW2 5822   4.563   1.226   2.644  0.1917 -0.3900 -0.1719
    1SOL    HW3 5823   4.493   1.092   2.649 -1.1666  0.3470  0.8964
    1SOL    MW4 5824   4.499   1.174   2.618 -0.1302 -0.0687 -0.0315
    1SOL     OW 5825   0.242   1.275   2.738  0.5319  0.0092 -0.0064
    1SOL    HW2 5826   0.313   1.225   2.698 -0.7634 -0.5423 -1.6757
    1SOL    HW3 5827   0.249   1.362   2.696  0.4708  0.0796  0.1307
    1SOL    MW4 5828   0.252   1.280   2.727  0.3529 -0.0544 -0.2086
    1SOL     OW 5829   0.242   1.531   2.605  0.2770 -0.7084 -0.0260
    1SOL    HW2 5830   0.324   1.565   2.640 -0.2475 -0.3713  0.8891
    1SOL    HW3 5831   0.175   1.589   2.641 -0.4439 -1.4965 -0.0939
    1SOL    MW4 5832   0.244   1.543   2.614  0.1127 -0.7679  0.0856
    1SOL     OW 5833   0.027   1.647   2.717 -0.4179 -0.4308 -0.3752
    1SOL    HW2 5834   0.028   1.664   2.811 -1.0675 -2.4010  0.0044
    1SOL    HW3 5835   0.001   1.731   2.678 -2.0478 -0.1288  1.3159
    1SOL    MW4 5836   0.024   1.660   2.724 -0.7186 -0.6509 -0.1020
    1SOL     OW 5837   0.003   1.915   2.610 -0.1430 -0.5372  0.0687
    1SOL    HW2 5838   0.085   1.943   2.651  0.1919  0.1499 -1.0395
    1SOL    HW3 5839   0.014   1.936   2.517 -1.0793 -1.6187 -0.3011
    1SOL    MW4 5840   0.015   1.922   2.603 -0.2223 -0.5893 -0.1261
    1SOL     OW 5841   0.216   2.063   2.721 -0.1925 -0.2583  0.1193
    1SOL    HW2 5842   0.296   2.016   2.697 -0.5839 -1.3077  0.7859
    1SOL    HW3 5843   0.235   2.154   2.702  0.9284 -0.5766 -0.3580
    1SOL    MW4 5844   0.229   2.069   2.716 -0.0962 -0.4389  0.1445
    1SOL     OW 5845   0.227   2.314   2.621 -0.0592  0.3941  0.0195
    1SOL    HW2 5846   0.289   2.379   2.654  0.1351  1.0620 -1.6322
    1SOL    HW3 5847   0.141   2.355   2.630 -0.1331  0.0854  0.8209
    1SOL    MW4 5848   0.224   2.328   2.627 -0.0433  0.4418 -0.0925
    1SOL     OW 5849   4.482   2.435   2.683  0.1061  0.2676  0.1733
    1SOL    HW2 5850   4.482   2.444   2.779 -1.4784 -0.0830  0.2137
    1SOL    HW3 5851   4.400   2.391   2.663  1.1319 -1.0396 -1.2420
    1SOL    MW4 5852   4.471   2.431   2.693  0.0324  0.0486 -0.0083
    1SOL     OW 5853   0.029   2.719   2.634  0.0072  0.1370  0.0266
    1SOL    HW2 5854  -0.052   2.764   2.660  0.7476  0.6426  1.5473
    1SOL    HW3 5855   0.012   2.627   2.654 -0.3637  0.1802 -0.0873
    1SOL    MW4 5856   0.016   2.713   2.640  0.0558  0.2096  0.2124
    1SOL     OW 5857   0.245   2.844   2.732 -0.0904  0.1552  0.1479
    1SOL    HW2 5858   0.226   2.932   2.700  1.0996  0.1575 -0.5984
    1SOL    HW3 5859   0.177   2.789   2.693 -0.0230  0.5293 -0.5054
    1SOL    MW4 5860   0.234   2.849   2.722  0.0755  0.2048 -0.0367
    1SOL     OW 5861   0.199   3.102   2.625 -0.1082  0.4471  0.1090
    1SOL    HW2 5862   0.273   3.138   2.673  0.2704 -0.3965  0.1641
    1SOL    HW3 5863   0.227   3.102   2.534 -0.2810  0.7046  0.0543
    1SOL    MW4 5864   0.212   3.107   2.620 -0.0810  0.3698  0.1090
    1SOL     OW 5865   4.481   3.220   2.783 -0.2719 -0.2423  0.1479
    1SOL    HW2 5866   4.399   3.198   2.740 -0.4331 -0.4037  0.5381
    1SOL    HW3 5867   4.549   3.182   2.726 -0.4949 -0.6905  0.1752
    1SOL    MW4 5868   4.479   3.212   2.770 -0.3226 -0.3228  0.2029
    1SOL     OW 5869   4.489   3.474   2.651 -0.0467  0.2630 -0.2874
    1SOL    HW2 5870   4.562   3.525   2.687 -0.3636  0.2059  0.4477
    1SOL    HW3 5871   4.503   3.385   2.682  1.8171 -0.6741 -3.5178
    1SOL    MW4 5872   4.500   3.469   2.660  0.1574  0.1318 -0.6166
    1SOL     OW 5873   0.213   3.624   2.743  0.2972  0.4762  0.0542
    1SOL    HW2 5874   0.240   3.630   2.835  0.6428  0.2452 -0.0318
    1SOL    HW3 5875   0.283   3.573   2.701 -1.7524 -2.8699  0.4565
    1SOL    MW4 5876   0.226   3.618   2.750  0.0724  0.0045  0.0961
    1SOL     OW 5877   0.161   3.874   2.645 -0.2108 -0.2523  0.1923
    1SOL    HW2 5878   0.168   3.784   2.678 -2.0515 -0.4149  0.2032
    1SOL    HW3 5879   0.180   3.866   2.551 -1.9080 -0.9541 -0.1292
    1SOL    MW4 5880   0.164   3.861   2.637 -0.6776 -0.3662  0.1514
    1SOL     OW 5881   4.476   4.057   2.789  0.3444  0.0646 -0.2523
    1SOL    HW2 5882   4.488   4.131   2.730  0.5075  0.0310 -0.2625
    1SOL    HW3 5883   4.532   3.988   2.753 -0.4417 -0.3409 -0.7069
    1SOL    MW4 5884   4.485   4.057   2.777  0.2622  0.0067 -0.3140
    1SOL     OW 5885   0.024   4.255   2.597 -0.2408 -0.4802 -0.0801
    1SOL    HW2 5886  -0.051   4.294   2.643  0.2582 -0.5654  0.8203
    1SOL    HW3 5887   0.100   4.293   2.640  0.2449  0.0831 -1.4062
    1SOL    MW4 5888   0.024   4.265   2.609 -0.1109 -0.4172 -0.1361
    1SOL     OW 5889   0.223   4.382   2.757 -0.4106 -0.4731 -0.1077
    1SOL    HW2 5890   0.228   4.382   2.852  0.2076  0.6344 -0.1243
    1SOL    HW3 5891   0.304   4.339   2.729 -0.6562 -0.9196 -0.1282
    1SOL    MW4 5892   0.235   4.377   2.765 -0.3614 -0.3862 -0.1125
    1SOL     OW 5893   0.681   4.640   2.632 -0.4476 -0.5101 -0.7015
    1SOL    HW2 5894   0.752   4.691   2.671 -0.6483 -1.0910  0.4380
    1SOL    HW3 5895   0.601   4.681   2.664 -0.6111 -1.3138 -0.0780
    1SOL    MW4 5896   0.680   4.652   2.641 -0.4956 -0.6933 -0.4690
    1SOL     OW 5897   0.461   0.111   2.709  0.1023 -0.4662  0.4248
    1SOL    HW2 5898   0.474   0.129   2.802 -0.0525 -1.0965  0.5712
    1SOL    HW3 5899   0.375   0.068   2.705 -0.0054 -0.2123 -0.0366
    1SOL    MW4 5900   0.451   0.108   2.721  0.0676 -0.5159  0.3831
    1SOL     OW 5901   0.440   0.384   2.602 -0.4504 -0.0217 -0.3598
    1SOL    HW2 5902   0.512   0.428   2.646  0.2189  0.3985 -1.8352
    1SOL    HW3 5903   0.444   0.293   2.631  0.7864 -0.0366 -0.5843
    1SOL    MW4 5904   0.450   0.378   2.611 -0.1989  0.0317 -0.5841
    1SOL     OW 5905   0.646   0.518   2.708 -0.5289 -0.2013 -0.3816
    1SOL    HW2 5906   0.652   0.537   2.801  0.7295 -0.7321 -0.3453
    1SOL    HW3 5907   0.730   0.479   2.685 -1.1207 -0.8468 -1.5655
    1SOL    MW4 5908   0.658   0.515   2.717 -0.4410 -0.3564 -0.5329
    1SOL     OW 5909   0.649   0.793   2.611 -0.3912  0.3890 -0.4844
    1SOL    HW2 5910   0.715   0.843   2.659 -0.0850 -0.1921 -0.2826
    1SOL    HW3 5911   0.664   0.702   2.638 -1.4176  0.2767 -0.2738
    1SOL    MW4 5912   0.660   0.787   2.621 -0.4862  0.2975 -0.4299
    1SOL     OW 5913   0.421   0.887   2.712  0.3533 -0.0051 -0.5004
    1SOL    HW2 5914   0.424   0.884   2.807  0.7356  0.3900 -0.4981
    1SOL    HW3 5915   0.503   0.847   2.684  1.3552  2.0499 -0.6138
    1SOL    MW4 5916   0.432   0.882   2.721  0.5359  0.3182 -0.5152
    1SOL     OW 5917   0.466   1.148   2.640  0.6284 -0.1316  0.1739
    1SOL    HW2 5918   0.543   1.183   2.684  1.2957 -0.5660 -0.6487
    1SOL    HW3 5919   0.458   1.058   2.672  0.5850 -0.1580  0.0887
    1SOL    MW4 5920   0.475   1.141   2.650  0.7108 -0.1925  0.0541
    1SOL     OW 5921   0.686   1.294   2.732  0.2826  0.5980  0.5172
    1SOL    HW2 5922   0.707   1.327   2.820  1.5305  0.5278  0.2582
    1SOL    HW3 5923   0.769   1.256   2.700 -0.6656 -1.1496  0.0839
    1SOL    MW4 5924   0.700   1.294   2.739  0.3222  0.3581  0.4258
    1SOL     OW 5925   0.688   1.542   2.622 -0.2748 -0.1005  0.4406
    1SOL    HW2 5926   0.605   1.587   2.640 -0.1628 -0.0840  0.9086
    1SOL    HW3 5927   0.683   1.461   2.673 -0.8907 -1.0940 -1.1390
    1SOL    MW4 5928   0.676   1.537   2.631 -0.3413 -0.2296  0.2940
    1SOL     OW 5929   0.457   1.656   2.715 -0.0089  0.1480  0.3413
    1SOL    HW2 5930   0.455   1.670   2.810 -0.1185 -0.2697  0.4049
    1SOL    HW3 5931   0.447   1.743   2.677  0.5488  0.3766  0.7165
    1SOL    MW4 5932   0.455   1.669   2.723  0.0502  0.1231  0.3989
    1SOL     OW 5933   0.455   1.925   2.604 -0.3785  0.4910 -0.1671
    1SOL    HW2 5934   0.539   1.963   2.629 -0.1325 -0.2533  0.1409
    1SOL    HW3 5935   0.454   1.928   2.508 -0.3823  1.3140 -0.1446
    1SOL    MW4 5936   0.466   1.931   2.594 -0.3465  0.5014 -0.1235
    1SOL     OW 5937   0.685   2.056   2.715 -0.8948  0.3996  0.1108
    1SOL    HW2 5938   0.712   2.040   2.806  0.4363  1.6868 -0.0400
    1SOL    HW3 5939   0.761   2.031   2.663 -1.3679  0.4307 -0.5954
    1SOL    MW4 5940   0.699   2.051   2.720 -0.7816  0.5736 -0.0024
    1SOL     OW 5941   0.638   2.284   2.606 -0.1014 -0.8419  0.1151
    1SOL    HW2 5942   0.711   2.329   2.648 -1.5084  0.6453  1.0162
    1SOL    HW3 5943   0.647   2.192   2.634  0.8565 -0.4872  0.9954
    1SOL    MW4 5944   0.649   2.277   2.615 -0.1606 -0.5991  0.3500
    1SOL     OW 5945   0.446   2.465   2.728  0.1159  0.3032  0.2348
    1SOL    HW2 5946   0.448   2.551   2.686  0.9956  0.9550  1.5689
    1SOL    HW3 5947   0.513   2.414   2.683  0.1294  0.5589 -0.0381
    1SOL    MW4 5948   0.455   2.470   2.717  0.2337  0.4230  0.3748
    1SOL     OW 5949   0.443   2.702   2.597 -0.1238 -0.3464  0.1549
    1SOL    HW2 5950   0.528   2.738   2.623  0.2305 -0.2671 -1.1049
    1SOL    HW3 5951   0.380   2.751   2.649  0.3997  1.5768 -0.9663
    1SOL    MW4 5952   0.446   2.713   2.607 -0.0080 -0.0820 -0.1593
    1SOL     OW 5953   0.638   2.859   2.684 -0.1056 -0.4461 -0.7911
    1SOL    HW2 5954   0.625   2.858   2.778  1.5210  1.0887 -0.5180
    1SOL    HW3 5955   0.657   2.950   2.663  2.1029 -1.1849 -2.2170
    1SOL    MW4 5956   0.639   2.871   2.693  0.4004 -0.3412 -0.9432
    1SOL     OW 5957   0.667   3.125   2.635 -0.3504  0.0244 -0.3386
    1SOL    HW2 5958   0.753   3.129   2.677  0.4170 -1.9193 -1.6132
    1SOL    HW3 5959   0.686   3.130   2.541 -1.4689 -1.9309 -0.6947
    1SOL    MW4 5960   0.681   3.126   2.628 -0.3968 -0.4900 -0.5538
    1SOL     OW 5961   0.435   3.242   2.700  0.0315  0.0218 -0.0349
    1SOL    HW2 5962   0.446   3.241   2.795 -2.2012 -2.4146  0.2739
    1SOL    HW3 5963   0.510   3.192   2.666 -0.7562 -1.6969  0.7021
    1SOL    MW4 5964   0.446   3.235   2.708 -0.3670 -0.5267  0.1030
    1SOL     OW 5965   0.430   3.498   2.639 -0.9643 -0.3075  0.4339
    1SOL    HW2 5966   0.430   3.407   2.669 -0.4466 -1.0894 -1.8145
    1SOL    HW3 5967   0.427   3.492   2.543  1.1558  1.9924  0.1640
    1SOL    MW4 5968   0.430   3.486   2.630 -0.6163 -0.1073  0.1016
    1SOL     OW 5969   0.665   3.632   2.751 -0.0647 -0.0441  0.3810
    1SOL    HW2 5970   0.671   3.607   2.843 -0.8702  0.3740  0.5565
    1SOL    HW3 5971   0.579   3.598   2.723  0.3366 -0.4976 -0.3160
    1SOL    MW4 5972   0.654   3.624   2.759 -0.1181 -0.0486  0.3121
    1SOL     OW 5973   0.648   3.889   2.638  0.1510 -0.1854 -0.2961
    1SOL    HW2 5974   0.560   3.909   2.669  0.0835 -0.9223  0.0053
    1SOL    HW3 5975   0.665   3.800   2.668  1.5461  0.4473  0.8556
    1SOL    MW4 5976   0.639   3.880   2.646  0.3262 -0.1991 -0.1044
    1SOL     OW 5977   0.403   3.984   2.762  0.6213 -0.2324 -0.4813
    1SOL    HW2 5978   0.420   4.059   2.706  0.0824  0.0918 -0.2182
    1SOL    HW3 5979   0.314   3.956   2.737 -0.6264  1.4281  1.8946
    1SOL    MW4 5980   0.393   3.990   2.751  0.3856  0.0293 -0.1330
    1SOL     OW 5981   0.465   4.253   2.661  0.3343  0.3515 -0.4631
    1SOL    HW2 5982   0.535   4.301   2.704 -0.5247  1.1854  0.0189
    1SOL    HW3 5983   0.490   4.250   2.569  1.9713 -1.0624  0.0076
    1SOL    MW4 5984   0.478   4.259   2.655  0.4369  0.2751 -0.3374
    1SOL     OW 5985   0.678   4.388   2.763  0.3005  0.2877 -0.1177
    1SOL    HW2 5986   0.753   4.354   2.715 -1.3736  0.1931 -2.7484
    1SOL    HW3 5987   0.671   4.479   2.734 -0.7444  0.2162 -0.1016
    1SOL    MW4 5988   0.687   4.395   2.753 -0.0582  0.2656 -0.4628
    1SOL     OW 5989   1.114   4.626   2.639  0.3370 -0.5142  0.5906
    1SOL    HW2 5990   1.187   4.666   2.686  0.7847 -1.1876  0.4785
    1SOL    HW3 5991   1.131   4.532   2.645  1.3353 -0.5737 -2.3652
    1SOL    MW4 5992   1.126   4.619   2.646  0.5279 -0.6113  0.1860
    1SOL     OW 5993   0.899   0.128   2.722 -0.0184  0.0202  0.0499
    1SOL    HW2 5994   0.915   0.126   2.816  3.2068 -1.0852 -0.4726
    1SOL    HW3 5995   0.959   0.063   2.686 -0.9975  0.6334 -2.8330
    1SOL    MW4 5996   0.909   0.119   2.730  0.2779 -0.0447 -0.3994
    1SOL     OW 5997   0.874   0.400   2.633 -0.1920  0.5299  0.1886
    1SOL    HW2 5998   0.891   0.311   2.662 -2.0174  0.2770  0.5716
    1SOL    HW3 5999   0.898   0.400   2.540 -0.8627 -0.5719  0.0092
    1SOL    MW4 6000   0.879   0.388   2.624 -0.5213  0.3511  0.2153
    1SOL     OW 6001   1.122   0.528   2.712 -0.0902 -0.2257 -0.3570
    1SOL    HW2 6002   1.116   0.619   2.682 -0.7424 -0.5459 -1.2048
    1SOL    HW3 6003   1.041   0.488   2.682 -0.3005 -0.8111  0.9725
    1SOL    MW4 6004   1.110   0.535   2.704 -0.2040 -0.3452 -0.2935
    1SOL     OW 6005   1.094   0.798   2.620 -0.2368  0.3663  0.3923
    1SOL    HW2 6006   1.173   0.836   2.657 -0.2672  0.4291  0.3924
    1SOL    HW3 6007   1.102   0.812   2.525  0.4583 -0.9522  0.2510
    1SOL    MW4 6008   1.105   0.805   2.612 -0.1491  0.2006  0.3736
    1SOL     OW 6009   0.865   0.914   2.732 -0.0666  0.1430  0.3511
    1SOL    HW2 6010   0.866   0.896   2.826  0.6577  0.0798  0.3405
    1SOL    HW3 6011   0.944   0.870   2.700 -0.0494  0.5898 -0.2047
    1SOL    MW4 6012   0.876   0.906   2.740  0.0312  0.1936  0.2763
    1SOL     OW 6013   0.935   1.176   2.657  0.1563  0.3904 -0.7499
    1SOL    HW2 6014   0.913   1.086   2.681  0.8235  0.7363  1.2683
    1SOL    HW3 6015   0.930   1.178   2.561 -0.2956 -1.6679 -0.7829
    1SOL    MW4 6016   0.931   1.165   2.648  0.1847  0.1645 -0.4880
    1SOL     OW 6017   1.146   1.322   2.751  0.4153 -0.4863 -0.1812
    1SOL    HW2 6018   1.133   1.407   2.710 -0.4320  0.0338  1.1705
    1SOL    HW3 6019   1.074   1.268   2.717  0.9569 -0.6877 -1.0424
    1SOL    MW4 6020   1.135   1.326   2.741  0.3749 -0.4444 -0.1166
    1SOL     OW 6021   1.158   1.574   2.636 -0.5295  0.0412 -0.1603
    1SOL    HW2 6022   1.071   1.610   2.656  0.0342  0.5485  1.4710
    1SOL    HW3 6023   1.170   1.590   2.543 -1.3222  1.8947  0.0315
    1SOL    MW4 6024   1.148   1.581   2.627 -0.5597  0.3527  0.0801
    1SOL     OW 6025   0.921   1.657   2.716 -0.0090  0.3382 -0.7914
    1SOL    HW2 6026   0.931   1.651   2.811  0.0286  2.0720 -0.6729
    1SOL    HW3 6027   0.837   1.614   2.698  0.0370 -0.0947  0.0097
    1SOL    MW4 6028   0.911   1.650   2.726  0.0020  0.5099 -0.6700
    1SOL     OW 6029   0.907   1.937   2.608 -0.1765 -0.2926  0.8436
    1SOL    HW2 6030   0.980   1.985   2.648  0.8447  0.6650 -2.0253
    1SOL    HW3 6031   0.913   1.849   2.645  1.2228  0.3114  2.1306
    1SOL    MW4 6032   0.917   1.932   2.618  0.1429 -0.0867  0.6349
    1SOL     OW 6033   1.124   2.059   2.735 -0.1010  0.4562 -0.0679
    1SOL    HW2 6034   1.207   2.033   2.695 -1.4268 -0.0866 -2.5680
    1SOL    HW3 6035   1.105   2.145   2.697 -1.4728 -0.1422 -0.7585
    1SOL    MW4 6036   1.133   2.067   2.725 -0.4569  0.3054 -0.4885
    1SOL     OW 6037   1.075   2.313   2.633 -0.1616 -0.1923  0.2017
    1SOL    HW2 6038   1.144   2.373   2.661  1.0301 -1.9589  1.1537
    1SOL    HW3 6039   1.086   2.306   2.538  2.2283 -1.9359  0.5635
    1SOL    MW4 6040   1.086   2.320   2.624  0.3110 -0.6557  0.3748
    1SOL     OW 6041   0.860   2.449   2.732 -0.4059 -0.2912 -0.2328
    1SOL    HW2 6042   0.851   2.531   2.684  0.4120  0.4090  0.8189
    1SOL    HW3 6043   0.929   2.401   2.686 -0.3850 -0.0934 -0.4069
    1SOL    MW4 6044   0.868   2.453   2.719 -0.2953 -0.1726 -0.1171
    1SOL     OW 6045   0.855   2.713   2.613  0.6096  0.0808  0.3281
    1SOL    HW2 6046   0.929   2.760   2.652  0.3076  1.6408 -0.9240
    1SOL    HW3 6047   0.778   2.762   2.644  0.1155 -1.2526  1.2409
    1SOL    MW4 6048   0.854   2.726   2.622  0.5046  0.1106  0.2832
    1SOL     OW 6049   1.083   2.832   2.736  0.0000  0.0000  0.0027
    1SOL    HW2 6050   1.106   2.825   2.829  0.0000  0.0000  0.0042
    1SOL    HW3 6051   1.159   2.795   2.690  0.0000  0.0000  0.0084
    1SOL    MW4 6052   1.096   2.826   2.742  0.0000  0.0000  0.0036
    1SOL     OW 6053   1.148   3.096   2.666  0.0000  0.0000  0.0028
    1SOL    HW2 6054   1.122   3.007   2.689  0.0000  0.0000  0.0079
    1SOL    HW3 6055   1.136   3.101   2.571  0.0000  0.0000  0.0028
    1SOL    MW4 6056   1.143   3.085   2.656  0.0000  0.0000  0.0036
    1SOL     OW 6057   0.919   3.208   2.737  0.0000  0.0000 -0.0450
    1SOL    HW2 6058   0.903   3.287   2.685  0.0000  0.0000 -0.0276
    1SOL    HW3 6059   1.006   3.179   2.709  0.0000  0.0000 -0.0467
    1SOL    MW4 6060   0.928   3.215   2.726  0.0000  0.0000 -0.0429
    1SOL     OW 6061   0.887   3.462   2.629  0.0000  0.0000  0.1073
    1SOL    HW2 6062   0.961   3.508   2.669  0.0000  0.0000  0.0751
    1SOL    HW3 6063   0.810   3.511   2.658  0.0000  0.0000  0.1511
    1SOL    MW4 6064   0.887   3.475   2.638  0.0000  0.0000  0.1087
    1SOL     OW 6065   1.102   3.599   2.723  0.0000  0.0000  0.1848
    1SOL    HW2 6066   1.101   3.626   2.815  0.0000  0.0000  0.1842
    1SOL    HW3 6067   1.100   3.681   2.674  0.0000  0.0000  0.1828
    1SOL    MW4 6068   1.102   3.613   2.729  0.0000  0.0000  0.1848
    1SOL     OW 6069   1.098   3.851   2.614  0.0000  0.0000 -0.1387
    1SOL    HW2 6070   1.178   3.889   2.652  0.0000  0.0000 -0.1443
    1SOL    HW3 6071   1.110   3.859   2.520  0.0000  0.0000 -0.1395
    1SOL    MW4 6072   1.110   3.857   2.607  0.0000  0.0000 -0.1395
    1SOL     OW 6073   0.893   4.008   2.752  0.0000  0.0000  0.4070
    1SOL    HW2 6074   0.957   3.963   2.697  0.0000  0.0000  0.3924
    1SOL    HW3 6075   0.809   3.969   2.726  0.0000  0.0000  0.4340
    1SOL    MW4 6076   0.890   3.997   2.742  0.0000  0.0000  0.4084
    1SOL     OW 6077   0.888   4.266   2.641  0.0000  0.0000 -0.5455
    1SOL    HW2 6078   0.892   4.173   2.666  0.0000  0.0000 -0.5367
    1SOL    HW3 6079   0.884   4.265   2.546  0.0000  0.0000 -0.5455
    1SOL    MW4 6080   0.888   4.254   2.632  0.0000  0.0000 -0.5443
    1SOL     OW 6081   1.144   4.351   2.700  0.0000  0.0000  0.1381
    1SOL    HW2 6082   1.137   4.378   2.791  0.0000  0.0000  0.1376
    1SOL    HW3 6083   1.055   4.327   2.675  0.0000  0.0000  0.1473
    1SOL    MW4 6084   1.131   4.351   2.709  0.0000  0.0000  0.1390
    1SOL     OW 6085   1.561   0.012   2.595 -0.0726 -0.1030  0.1295
    1SOL    HW2 6086   1.566  -0.077   2.631 -2.8701 -0.8074 -1.0690
    1SOL    HW3 6087   1.586   0.003   2.503 -2.2598 -0.0337 -0.4958
    1SOL    MW4 6088   1.565  -0.001   2.588 -0.7304 -0.1869 -0.1113
    1SOL     OW 6089   1.336   0.133   2.730 -0.0736  0.1360 -0.1556
    1SOL    HW2 6090   1.339   0.225   2.704  1.4689  0.1543  0.0299
    1SOL    HW3 6091   1.410   0.093   2.684  0.1707 -0.6889  0.9270
    1SOL    MW4 6092   1.347   0.140   2.720  0.1621  0.0296  0.0119
    1SOL     OW 6093   1.356   0.394   2.626  0.4204  0.0568  0.1814
    1SOL    HW2 6094   1.427   0.450   2.658  1.4146  0.1149 -1.9770
    1SOL    HW3 6095   1.276   0.434   2.659  1.1827  2.2146 -0.5309
    1SOL    MW4 6096   1.355   0.406   2.634  0.6522  0.3492 -0.1974
    1SOL     OW 6097   1.575   0.530   2.726 -0.1818  0.2931  0.5836
    1SOL    HW2 6098   1.648   0.492   2.677 -2.0394  0.3001 -2.2318
    1SOL    HW3 6099   1.565   0.618   2.691 -2.0550  0.0150  0.3903
    1SOL    MW4 6100   1.584   0.536   2.715 -0.6740  0.2574  0.1867
    1SOL     OW 6101   1.573   0.784   2.605  0.0216  0.1030  0.1055
    1SOL    HW2 6102   1.497   0.824   2.648 -1.3818 -1.3237 -0.9541
    1SOL    HW3 6103   1.561   0.804   2.512  0.6542 -0.5819 -0.1284
    1SOL    MW4 6104   1.561   0.792   2.598 -0.0802 -0.1756 -0.0651
    1SOL     OW 6105   1.346   0.898   2.707  0.1135 -0.3759 -0.3862
    1SOL    HW2 6106   1.346   0.888   2.802 -2.5173 -2.0680 -0.5212
    1SOL    HW3 6107   1.354   0.992   2.692  0.9849 -0.1316  1.4669
    1SOL    MW4 6108   1.347   0.909   2.718 -0.1185 -0.5669 -0.1595
    1SOL     OW 6109   1.366   1.174   2.647 -0.2169  0.0550 -0.2152
    1SOL    HW2 6110   1.448   1.212   2.680 -0.5931  0.2312  0.5190
    1SOL    HW3 6111   1.297   1.230   2.683 -0.6310  0.2604 -1.3156
    1SOL    MW4 6112   1.368   1.186   2.656 -0.3211  0.1054 -0.2635
    1SOL     OW 6113   1.616   1.303   2.729 -0.4452 -0.4361 -0.4202
    1SOL    HW2 6114   1.609   1.298   2.824 -1.6874  1.9416 -0.3311
    1SOL    HW3 6115   1.698   1.259   2.708  0.0241 -0.6574  1.7957
    1SOL    MW4 6116   1.626   1.297   2.739 -0.5471 -0.1516 -0.1161
    1SOL     OW 6117   1.619   1.571   2.652 -0.0092  0.1008  0.2020
    1SOL    HW2 6118   1.620   1.476   2.663 -1.2516  0.1029  0.3864
    1SOL    HW3 6119   1.594   1.585   2.560  0.5776  0.2440  0.0626
    1SOL    MW4 6120   1.616   1.560   2.641 -0.0957  0.1199  0.2079
    1SOL     OW 6121   1.385   1.659   2.769  0.4975 -0.0312 -0.1172
    1SOL    HW2 6122   1.457   1.606   2.737  0.8348  1.1218 -1.2931
    1SOL    HW3 6123   1.307   1.620   2.730  0.6381 -0.2623 -0.1664
    1SOL    MW4 6124   1.384   1.647   2.760  0.5605  0.0905 -0.2787
    1SOL     OW 6125   1.371   1.928   2.657  0.0018  0.2947  0.1879
    1SOL    HW2 6126   1.364   1.848   2.709 -0.1586  1.2877  1.7649
    1SOL    HW3 6127   1.381   1.899   2.567  2.0309 -1.5186  0.9631
    1SOL    MW4 6128   1.371   1.914   2.652  0.2484  0.1864  0.4981
    1SOL     OW 6129   1.573   2.080   2.754  0.3496  0.1774 -0.4370
    1SOL    HW2 6130   1.650   2.041   2.712  0.2123  0.3890 -0.8908
    1SOL    HW3 6131   1.500   2.027   2.723  0.3534 -0.2474  0.2805
    1SOL    MW4 6132   1.573   2.068   2.744  0.3320  0.1490 -0.4020
    1SOL     OW 6133   1.513   2.326   2.637  0.1701  0.6060  0.4266
    1SOL    HW2 6134   1.592   2.374   2.662  0.6693  0.4327 -0.8049
    1SOL    HW3 6135   1.525   2.238   2.673  1.2511  0.1201 -1.0835
    1SOL    MW4 6136   1.525   2.321   2.645  0.3785  0.5190  0.0651
    1SOL     OW 6137   1.290   2.478   2.710 -0.0181  0.0941  0.1989
    1SOL    HW2 6138   1.304   2.565   2.672 -2.2904 -0.6870 -2.5789
    1SOL    HW3 6139   1.362   2.425   2.677  0.5622  0.5567  0.7197
    1SOL    MW4 6140   1.301   2.483   2.701 -0.2414  0.0520 -0.0985
    1SOL     OW 6141   1.339   2.739   2.636  0.1145  0.3967  0.2955
    1SOL    HW2 6142   1.422   2.762   2.677  0.5789 -1.4672  0.4529
    1SOL    HW3 6143   1.351   2.757   2.543 -0.0385  2.1072  0.5835
    1SOL    MW4 6144   1.351   2.744   2.629  0.1557  0.3762  0.3541
    1SOL     OW 6145   1.576   2.835   2.760  0.0082 -0.1456 -0.0833
    1SOL    HW2 6146   1.604   2.845   2.852 -0.0970  0.0660 -0.0747
    1SOL    HW3 6147   1.648   2.788   2.719 -0.2785 -0.9155  0.2855
    1SOL    MW4 6148   1.589   2.830   2.767 -0.0434 -0.2193 -0.0334
    1SOL     OW 6149   1.586   3.093   2.674 -0.2356  0.1187 -0.2913
    1SOL    HW2 6150   1.661   3.140   2.710  0.3565 -0.4850 -0.7259
    1SOL    HW3 6151   1.585   3.010   2.720  1.8356 -1.5686 -3.0949
    1SOL    MW4 6152   1.596   3.088   2.685  0.1158 -0.1836 -0.7181
    1SOL     OW 6153   1.359   3.194   2.802  0.2912 -0.3438  0.0167
    1SOL    HW2 6154   1.439   3.168   2.757  0.5453 -0.5316  0.5716
    1SOL    HW3 6155   1.290   3.142   2.760  0.5259 -0.5191 -0.1509
    1SOL    MW4 6156   1.361   3.184   2.790  0.3557 -0.3917  0.0679
    1SOL     OW 6157   1.329   3.454   2.647 -0.2174 -0.0549  0.0885
    1SOL    HW2 6158   1.321   3.372   2.696  0.5316  0.6229  1.3835
    1SOL    HW3 6159   1.249   3.502   2.667 -0.1869 -0.0331  0.1584
    1SOL    MW4 6160   1.317   3.449   2.656 -0.1146  0.0374  0.2685
    1SOL     OW 6161   1.561   3.572   2.753  0.0225  0.0951  0.2185
    1SOL    HW2 6162   1.633   3.540   2.698 -1.6456 -1.7814 -0.9674
    1SOL    HW3 6163   1.483   3.534   2.713 -1.6629  2.3615  1.2905
    1SOL    MW4 6164   1.561   3.563   2.740 -0.4200  0.1464  0.2031
    1SOL     OW 6165   1.565   3.842   2.667  0.1832 -0.0405  0.1470
    1SOL    HW2 6166   1.477   3.864   2.699  0.3559 -0.4187  0.8881
    1SOL    HW3 6167   1.584   3.756   2.704  0.2636 -0.6292 -1.2451
    1SOL    MW4 6168   1.556   3.834   2.676  0.2166 -0.1678  0.0613
    1SOL     OW 6169   1.328   3.959   2.745 -0.2142  0.0110 -0.7519
    1SOL    HW2 6170   1.323   3.985   2.837 -0.0293 -0.2783 -0.6602
    1SOL    HW3 6171   1.344   4.041   2.698  0.5696  0.0399 -0.4458
    1SOL    MW4 6172   1.329   3.973   2.751 -0.0864 -0.0234 -0.6995
    1SOL     OW 6173   1.362   4.212   2.628  0.0765 -0.3451  0.3242
    1SOL    HW2 6174   1.274   4.239   2.653 -0.4113 -2.0441  0.5316
    1SOL    HW3 6175   1.367   4.228   2.534  0.4495  2.1503  0.7507
    1SOL    MW4 6176   1.351   4.217   2.619  0.0614 -0.2398  0.4077
    1SOL     OW 6177   1.564   4.400   2.724  0.1674  0.1302  0.2293
    1SOL    HW2 6178   1.546   4.412   2.817  1.3755 -0.8595  0.5997
    1SOL    HW3 6179   1.487   4.354   2.690 -0.2354  0.4185  0.7429
    1SOL    MW4 6180   1.551   4.395   2.732  0.2736  0.0367  0.3462
    1SOL     OW 6181   2.001   4.641   2.681 -0.3281  0.2071 -0.1011
    1SOL    HW2 6182   2.069   4.702   2.709 -0.7331  0.2439  0.8405
    1SOL    HW3 6183   2.006   4.640   2.586  1.3248 -0.1737 -0.0150
    1SOL    MW4 6184   2.011   4.649   2.672 -0.1633  0.1621  0.0348
    1SOL     OW 6185   1.753   0.131   2.763  0.0856  0.6313  0.3020
    1SOL    HW2 6186   1.834   0.085   2.743 -0.7391 -1.1881  1.0498
    1SOL    HW3 6187   1.690   0.096   2.700 -0.5917  0.6097  0.9847
    1SOL    MW4 6188   1.755   0.120   2.752 -0.1127  0.3884  0.4909
    1SOL     OW 6189   1.770   0.372   2.596 -0.0085  0.3268  0.0615
    1SOL    HW2 6190   1.843   0.419   2.636 -2.4348  3.1361  1.3297
    1SOL    HW3 6191   1.766   0.289   2.644  1.3487  0.8083  1.0363
    1SOL    MW4 6192   1.779   0.367   2.607 -0.1496  0.7610  0.3574
    1SOL     OW 6193   2.000   0.497   2.695  0.6651 -0.1483  0.2686
    1SOL    HW2 6194   2.084   0.471   2.656  0.9010 -0.8078  1.1945
    1SOL    HW3 6195   2.009   0.475   2.787 -0.5763 -0.3216  0.3567
    1SOL    MW4 6196   2.013   0.491   2.702  0.5324 -0.2582  0.4022
    1SOL     OW 6197   1.989   0.763   2.620 -0.0901  0.2003 -0.2096
    1SOL    HW2 6198   1.977   0.677   2.658 -1.6541 -0.0230 -1.1539
    1SOL    HW3 6199   1.911   0.812   2.645  0.0310  0.8344 -1.0098
    1SOL    MW4 6200   1.977   0.758   2.628 -0.2805  0.2546 -0.4399
    1SOL     OW 6201   1.772   0.900   2.753  0.4634 -0.4744 -0.0288
    1SOL    HW2 6202   1.781   0.984   2.708 -0.2416  0.4050  1.4158
    1SOL    HW3 6203   1.698   0.858   2.709 -0.4287  0.5143  0.4769
    1SOL    MW4 6204   1.764   0.906   2.742  0.2526 -0.2279  0.2286
    1SOL     OW 6205   1.819   1.139   2.635 -0.2660 -0.1814 -0.3030
    1SOL    HW2 6206   1.894   1.179   2.679 -1.6171  0.0050  1.9117
    1SOL    HW3 6207   1.837   1.151   2.541  0.9447  2.6829  0.2490
    1SOL    MW4 6208   1.831   1.146   2.628 -0.2846  0.2209  0.0620
    1SOL     OW 6209   2.041   1.260   2.750 -0.1485  0.2145 -0.0985
    1SOL    HW2 6210   2.042   1.263   2.846 -1.3582  0.4584 -0.0859
    1SOL    HW3 6211   2.133   1.250   2.726  0.1004 -0.5261  1.1040
    1SOL    MW4 6212   2.053   1.259   2.760 -0.2751  0.1490  0.0620
    1SOL     OW 6213   2.021   1.518   2.628 -0.4676  0.5429  0.2947
    1SOL    HW2 6214   1.947   1.571   2.657 -0.4769  0.3508  0.6206
    1SOL    HW3 6215   2.015   1.437   2.680 -0.2270  0.3858  0.0801
    1SOL    MW4 6216   2.010   1.514   2.639 -0.4370  0.4969  0.3095
    1SOL     OW 6217   1.842   1.700   2.724 -0.0841 -0.4932  0.2797
    1SOL    HW2 6218   1.840   1.705   2.819 -2.0466  0.3068  0.2131
    1SOL    HW3 6219   1.758   1.661   2.700  0.1626 -0.1776 -1.1451
    1SOL    MW4 6220   1.831   1.696   2.733 -0.3104 -0.3459  0.0832
    1SOL     OW 6221   1.806   1.958   2.629  0.2267  0.4900  0.1390
    1SOL    HW2 6222   1.889   2.000   2.647  0.4187 -0.1707  0.8226
    1SOL    HW3 6223   1.820   1.866   2.649 -0.3673  0.1919 -0.7420
    1SOL    MW4 6224   1.819   1.951   2.634  0.1736  0.3635  0.1130
    1SOL     OW 6225   2.038   2.095   2.683  0.0278 -0.2572  0.2147
    1SOL    HW2 6226   2.049   2.089   2.778  0.5122 -1.3069  0.0967
    1SOL    HW3 6227   2.009   2.186   2.668  0.8229  0.1801  1.2728
    1SOL    MW4 6228   2.036   2.107   2.693  0.1965 -0.3381  0.3386
    1SOL     OW 6229   1.976   2.382   2.623  0.0277 -0.0020  0.2324
    1SOL    HW2 6230   2.058   2.407   2.667  0.5619  1.6797 -1.6503
    1SOL    HW3 6231   1.996   2.388   2.530 -2.4555  1.2688 -0.2664
    1SOL    MW4 6232   1.989   2.386   2.617 -0.2295  0.3877 -0.0818
    1SOL     OW 6233   1.733   2.472   2.733  0.1187 -0.2366  0.4554
    1SOL    HW2 6234   1.738   2.451   2.826  0.9333  1.0956  0.7251
    1SOL    HW3 6235   1.816   2.440   2.697 -0.3526 -1.0926  0.0960
    1SOL    MW4 6236   1.744   2.465   2.740  0.1643 -0.1738  0.4435
    1SOL     OW 6237   1.791   2.715   2.636 -0.3817  0.2050 -0.2863
    1SOL    HW2 6238   1.790   2.630   2.679 -0.5291 -0.0934 -0.8785
    1SOL    HW3 6239   1.787   2.695   2.542 -2.2061  0.9023 -0.3809
    1SOL    MW4 6240   1.790   2.701   2.629 -0.6418  0.2577 -0.3767
    1SOL     OW 6241   2.036   2.808   2.741 -0.0489  0.1102  0.1407
    1SOL    HW2 6242   2.105   2.772   2.685  0.6045 -0.5417  1.3560
    1SOL    HW3 6243   1.955   2.771   2.705  0.1400  1.2929 -1.6190
    1SOL    MW4 6244   2.034   2.799   2.729  0.0625  0.1805  0.0689
    1SOL     OW 6245   2.003   3.083   2.641 -0.4726 -0.3177 -0.2560
    1SOL    HW2 6246   2.005   2.990   2.665  1.2494 -0.3612 -0.4805
    1SOL    HW3 6247   2.009   3.083   2.545  0.5959  0.0292 -0.2026
    1SOL    MW4 6248   2.004   3.071   2.631 -0.1047 -0.2778 -0.2785
    1SOL     OW 6249   1.795   3.219   2.787 -0.3957 -0.0529 -0.3306
    1SOL    HW2 6250   1.790   3.306   2.747  0.7386 -0.0312 -0.4558
    1SOL    HW3 6251   1.859   3.173   2.734 -0.7197 -0.8484 -0.0332
    1SOL    MW4 6252   1.803   3.225   2.775 -0.2888 -0.1550 -0.3078
    1SOL     OW 6253   1.789   3.452   2.634 -0.6528 -0.1949  0.5126
    1SOL    HW2 6254   1.858   3.500   2.681 -1.3262  0.9506  0.3525
    1SOL    HW3 6255   1.810   3.466   2.542 -0.2669 -1.0757  0.4637
    1SOL    MW4 6256   1.801   3.460   2.628 -0.6908 -0.1600  0.4852
    1SOL     OW 6257   1.981   3.612   2.745  0.0725 -0.0508  0.9894
    1SOL    HW2 6258   1.994   3.600   2.839 -0.9822 -1.0099  1.0275
    1SOL    HW3 6259   2.052   3.563   2.705  1.0977  1.1649  1.2929
    1SOL    MW4 6260   1.992   3.604   2.752  0.0687 -0.0172  1.0345
    1SOL     OW 6261   1.983   3.884   2.648 -0.1176  0.3445  0.5925
    1SOL    HW2 6262   1.914   3.929   2.696 -1.4015 -1.0294  0.0679
    1SOL    HW3 6263   1.999   3.804   2.698 -0.0818 -0.1459 -0.1838
    1SOL    MW4 6264   1.976   3.880   2.661 -0.2822  0.0987  0.4210
    1SOL     OW 6265   1.773   4.010   2.773  0.0567 -0.5385  1.1318
    1SOL    HW2 6266   1.756   4.096   2.734  3.2158 -0.6097 -0.6018
    1SOL    HW3 6267   1.702   3.955   2.741 -1.3141  1.1063  1.2479
    1SOL    MW4 6268   1.762   4.014   2.763  0.2928 -0.3309  0.9184
    1SOL     OW 6269   1.781   4.251   2.621  0.0308  0.3819  0.2559
    1SOL    HW2 6270   1.714   4.314   2.647 -1.4738 -1.5340  1.2351
    1SOL    HW3 6271   1.770   4.241   2.527 -1.5154 -0.3620  0.4926
    1SOL    MW4 6272   1.770   4.258   2.612 -0.3717  0.0310  0.4163
    1SOL     OW 6273   1.993   4.382   2.788  0.2301  0.2505  0.0865
    1SOL    HW2 6274   1.927   4.329   2.745 -0.0446  0.8340 -0.2159
    1SOL    HW3 6275   1.983   4.470   2.751  1.2974  0.3099 -0.1000
    1SOL    MW4 6276   1.983   4.387   2.778  0.3346  0.3352  0.0219
    1SOL     OW 6277   2.481   4.664   2.671  0.1638 -0.0065  0.2472
    1SOL    HW2 6278   2.562   4.709   2.695 -0.3059  1.5684 -1.0919
    1SOL    HW3 6279   2.482   4.660   2.576 -2.1853  1.6654  0.1016
    1SOL    MW4 6280   2.492   4.670   2.662 -0.2079  0.4215  0.0515
    1SOL     OW 6281   2.225   0.131   2.754 -0.1254 -0.3542 -0.0567
    1SOL    HW2 6282   2.304   0.080   2.739 -0.2183 -0.6940  0.5753
    1SOL    HW3 6283   2.219   0.137   2.849 -0.7644 -0.1834 -0.1069
    1SOL    MW4 6284   2.235   0.125   2.765 -0.2220 -0.3765  0.0198
    1SOL     OW 6285   2.235   0.374   2.606 -0.0503 -0.2272 -0.0815
    1SOL    HW2 6286   2.242   0.358   2.512  2.4378  1.0181 -0.1429
    1SOL    HW3 6287   2.229   0.286   2.645 -1.7698 -0.7269 -1.4158
    1SOL    MW4 6288   2.235   0.360   2.599  0.0510 -0.1288 -0.2656
    1SOL     OW 6289   2.464   0.488   2.742 -0.2521 -0.0586 -0.3162
    1SOL    HW2 6290   2.478   0.580   2.718 -2.6495  0.2143 -0.8730
    1SOL    HW3 6291   2.396   0.459   2.682 -1.6104 -1.3414  1.7941
    1SOL    MW4 6292   2.457   0.496   2.731 -0.7477 -0.1919 -0.1111
    1SOL     OW 6293   2.474   0.741   2.673  0.1724  0.1657  0.0253
    1SOL    HW2 6294   2.397   0.791   2.700  0.0799 -0.1699  0.3873
    1SOL    HW3 6295   2.478   0.752   2.578  1.5148  2.8222  0.3197
    1SOL    MW4 6296   2.465   0.749   2.664  0.3374  0.4719  0.1121
    1SOL     OW 6297   2.228   0.917   2.756  0.1091  0.1845  0.1071
    1SOL    HW2 6298   2.216   0.906   2.850  0.7621 -1.9252 -0.0278
    1SOL    HW3 6299   2.155   0.869   2.717 -0.5114  1.5661 -0.4701
    1SOL    MW4 6300   2.217   0.909   2.763  0.1132  0.0885  0.0131
    1SOL     OW 6301   2.288   1.185   2.635  0.2084  0.1073 -0.3207
    1SOL    HW2 6302   2.286   1.097   2.674 -0.5343 -0.1280 -0.8696
    1SOL    HW3 6303   2.363   1.228   2.675  0.6781 -0.8426 -0.1758
    1SOL    MW4 6304   2.297   1.179   2.645  0.1721 -0.0490 -0.3743
    1SOL     OW 6305   2.502   1.278   2.788 -0.3036  0.1106 -0.5028
    1SOL    HW2 6306   2.502   1.358   2.736  1.6148 -0.3862 -1.2943
    1SOL    HW3 6307   2.568   1.222   2.747 -1.3316 -1.7346  0.2774
    1SOL    MW4 6308   2.511   1.281   2.776 -0.1860 -0.1984 -0.5040
    1SOL     OW 6309   2.481   1.516   2.669 -0.4832  0.6490 -0.5685
    1SOL    HW2 6310   2.412   1.565   2.713 -0.1314  1.2849 -0.7179
    1SOL    HW3 6311   2.562   1.562   2.693  0.0988 -1.3036  1.2913
    1SOL    MW4 6312   2.483   1.529   2.678 -0.3600  0.4753 -0.3424
    1SOL     OW 6313   2.247   1.669   2.741  0.1957  0.0008 -0.6760
    1SOL    HW2 6314   2.223   1.754   2.702 -1.0688 -0.4561 -0.9025
    1SOL    HW3 6315   2.179   1.609   2.711 -0.1552 -0.6259  1.3102
    1SOL    MW4 6316   2.235   1.673   2.732 -0.0174 -0.1422 -0.4437
    1SOL     OW 6317   2.246   1.922   2.618 -0.2919 -0.0310  0.3894
    1SOL    HW2 6318   2.170   1.978   2.638  0.6043  1.2801  0.1527
    1SOL    HW3 6319   2.245   1.913   2.523  1.0908  1.7580  0.2001
    1SOL    MW4 6320   2.236   1.928   2.608  0.0086  0.3780  0.3331
    1SOL     OW 6321   2.459   2.055   2.729  0.0066  0.4789 -0.6241
    1SOL    HW2 6322   2.468   2.140   2.686  0.5615 -0.3327 -2.1786
    1SOL    HW3 6323   2.381   2.017   2.689 -0.2842  0.2828  0.1241
    1SOL    MW4 6324   2.450   2.061   2.718  0.0412  0.3459 -0.7303
    1SOL     OW 6325   2.435   2.315   2.603  0.2071  0.1652 -0.3358
    1SOL    HW2 6326   2.518   2.348   2.636  0.4197 -1.1736  0.4757
    1SOL    HW3 6327   2.440   2.329   2.508  0.2812  2.4454 -0.0350
    1SOL    MW4 6328   2.447   2.321   2.595  0.2449  0.2894 -0.1893
    1SOL     OW 6329   2.230   2.448   2.726  0.1569 -0.2021  0.5604
    1SOL    HW2 6330   2.252   2.439   2.818 -0.2626 -0.4728  0.6374
    1SOL    HW3 6331   2.300   2.402   2.679  1.2102  1.2708  0.6593
    1SOL    MW4 6332   2.242   2.441   2.732  0.2408 -0.0434  0.5836
    1SOL     OW 6333   2.242   2.704   2.591 -0.0660 -0.3255  0.3347
    1SOL    HW2 6334   2.310   2.755   2.635  1.2278 -1.2498 -0.5457
    1SOL    HW3 6335   2.247   2.618   2.631  0.4241 -0.8748 -0.8784
    1SOL    MW4 6336   2.251   2.700   2.602  0.1693 -0.5198  0.0582
    1SOL     OW 6337   2.443   2.841   2.714  0.1280  0.7700  0.3757
    1SOL    HW2 6338   2.520   2.795   2.679 -0.3762 -0.4233  0.8055
    1SOL    HW3 6339   2.449   2.929   2.677  1.5390  0.5984  0.1598
    1SOL    MW4 6340   2.454   2.847   2.704  0.2477  0.5898  0.4039
    1SOL     OW 6341   2.454   3.098   2.611 -0.3872  0.2965  0.0672
    1SOL    HW2 6342   2.386   3.153   2.650  1.8268  2.4387  0.9859
    1SOL    HW3 6343   2.461   3.128   2.521  0.4163  1.1135  0.4047
    1SOL    MW4 6344   2.446   3.109   2.605  0.0110  0.6869  0.2327
    1SOL     OW 6345   2.231   3.219   2.721 -0.0080 -0.3808  0.2013
    1SOL    HW2 6346   2.225   3.237   2.815 -1.1365 -0.3162  0.1248
    1SOL    HW3 6347   2.154   3.166   2.702  0.3571 -0.6141 -0.6405
    1SOL    MW4 6348   2.220   3.214   2.731 -0.1087 -0.4029  0.0801
    1SOL     OW 6349   2.206   3.479   2.624 -0.0078 -0.0032  0.2850
    1SOL    HW2 6350   2.288   3.524   2.644  0.6633 -0.4269 -1.3716
    1SOL    HW3 6351   2.224   3.386   2.637  0.1615 -0.2048 -1.2224
    1SOL    MW4 6352   2.219   3.473   2.628  0.1030 -0.0858 -0.1326
    1SOL     OW 6353   2.437   3.645   2.699 -0.2477  0.1803 -0.0659
    1SOL    HW2 6354   2.432   3.639   2.794 -1.3533 -0.4385 -0.1502
    1SOL    HW3 6355   2.455   3.738   2.682 -0.9643  0.4737  0.7198
    1SOL    MW4 6356   2.439   3.657   2.709 -0.4883  0.1376  0.0265
    1SOL     OW 6357   2.460   3.927   2.639 -0.7073 -0.0357 -0.0555
    1SOL    HW2 6358   2.536   3.976   2.671 -0.6243  0.7416 -1.4083
    1SOL    HW3 6359   2.385   3.980   2.663 -0.6677  0.3702 -0.8232
    1SOL    MW4 6360   2.460   3.940   2.646 -0.6912  0.1202 -0.3352
    1SOL     OW 6361   2.206   4.020   2.746 -0.3078 -0.6255 -0.3329
    1SOL    HW2 6362   2.224   4.000   2.837  0.3751 -0.5114 -0.4389
    1SOL    HW3 6363   2.128   3.969   2.725 -0.4971 -0.6071  0.3275
    1SOL    MW4 6364   2.198   4.010   2.755 -0.2427 -0.6080 -0.2599
    1SOL     OW 6365   2.242   4.293   2.684 -0.2626 -0.3751  0.0998
    1SOL    HW2 6366   2.237   4.202   2.714 -1.3568 -0.6984 -1.0050
    1SOL    HW3 6367   2.156   4.330   2.706  0.0395  0.2756  0.1937
    1SOL    MW4 6368   2.230   4.286   2.691 -0.3669 -0.3319 -0.0336
    1SOL     OW 6369   2.499   4.392   2.753 -0.3983 -0.0726  0.2423
    1SOL    HW2 6370   2.411   4.356   2.740 -0.4747  0.5120 -0.9319
    1SOL    HW3 6371   2.491   4.484   2.728  0.4393  0.0927  0.5830
    1SOL    MW4 6372   2.486   4.399   2.748 -0.2975  0.0262  0.1326
    1SOL     OW 6373   2.927   4.667   2.676  0.3265  0.3611 -0.1006
    1SOL    HW2 6374   3.006   4.709   2.708 -0.0297  1.3701 -0.5237
    1SOL    HW3 6375   2.943   4.652   2.583  1.1178 -2.0107  0.3725
    1SOL    MW4 6376   2.939   4.671   2.668  0.3841  0.1817 -0.0939
    1SOL     OW 6377   2.700   0.128   2.753  0.6144  0.5315 -0.2023
    1SOL    HW2 6378   2.695   0.119   2.848  0.5938  0.8767 -0.1697
    1SOL    HW3 6379   2.774   0.073   2.727  0.5036  0.2895 -0.0083
    1SOL    MW4 6380   2.709   0.119   2.762  0.5970  0.5451 -0.1721
    1SOL     OW 6381   2.712   0.379   2.647 -0.2762  0.2002  0.1108
    1SOL    HW2 6382   2.719   0.288   2.675  0.7852  0.1613 -0.2393
    1SOL    HW3 6383   2.627   0.409   2.680  0.2536 -0.3031  1.9970
    1SOL    MW4 6384   2.702   0.371   2.655 -0.0665  0.1287  0.3133
    1SOL     OW 6385   2.916   0.507   2.757 -0.4362 -0.1717  0.0165
    1SOL    HW2 6386   2.920   0.597   2.726  0.2018 -0.2034 -0.0047
    1SOL    HW3 6387   2.831   0.474   2.728 -0.2665  0.1168 -0.8136
    1SOL    MW4 6388   2.905   0.514   2.749 -0.3297 -0.1379 -0.0956
    1SOL     OW 6389   2.938   0.751   2.622 -0.2153  0.0331 -0.0072
    1SOL    HW2 6390   3.013   0.806   2.645  0.6785 -0.9837 -0.4285
    1SOL    HW3 6391   2.863   0.793   2.663  0.2729  2.2298 -1.3127
    1SOL    MW4 6392   2.938   0.763   2.630 -0.0331  0.1888 -0.2351
    1SOL     OW 6393   2.708   0.867   2.737 -0.0081 -0.2604 -0.1307
    1SOL    HW2 6394   2.701   0.867   2.833 -0.6586  0.4771 -0.1735
    1SOL    HW3 6395   2.637   0.809   2.708 -1.0290  1.0090 -0.2337
    1SOL    MW4 6396   2.697   0.860   2.746 -0.2286  0.0044 -0.1500
    1SOL     OW 6397   2.689   1.127   2.640 -0.0025  0.1962 -0.0514
    1SOL    HW2 6398   2.769   1.178   2.655  0.9507 -1.0081 -0.8788
    1SOL    HW3 6399   2.707   1.042   2.681 -0.6839 -0.2273 -0.6262
    1SOL    MW4 6400   2.702   1.122   2.647  0.0334 -0.0186 -0.2365
    1SOL     OW 6401   2.900   1.291   2.711  0.2939 -0.1782 -0.3870
    1SOL    HW2 6402   2.892   1.282   2.806 -0.0791 -1.7108 -0.5508
    1SOL    HW3 6403   2.989   1.262   2.691  0.4018  0.2271 -0.4915
    1SOL    MW4 6404   2.910   1.286   2.721  0.2592 -0.3269 -0.4225
    1SOL     OW 6405   2.916   1.543   2.618  0.3111  0.2828  0.2009
    1SOL    HW2 6406   2.844   1.595   2.652  0.9065  0.2548  1.5387
    1SOL    HW3 6407   2.913   1.462   2.669 -0.4099 -0.8645 -1.6373
    1SOL    MW4 6408   2.906   1.539   2.629  0.2944  0.1279  0.1349
    1SOL     OW 6409   2.701   1.680   2.723  0.0032 -0.0095 -0.3491
    1SOL    HW2 6410   2.714   1.672   2.817  0.7001 -1.6940 -0.5753
    1SOL    HW3 6411   2.675   1.772   2.710 -0.9524  0.0130  1.5646
    1SOL    MW4 6412   2.699   1.691   2.734 -0.0308 -0.2288 -0.1266
    1SOL     OW 6413   2.653   1.923   2.603  0.1414  0.1090  0.0813
    1SOL    HW2 6414   2.739   1.956   2.629  0.1898  1.2206 -1.4627
    1SOL    HW3 6415   2.590   1.981   2.647  0.2160  0.9335 -0.8706
    1SOL    MW4 6416   2.656   1.935   2.612  0.1574  0.3644 -0.2480
    1SOL     OW 6417   2.881   2.061   2.692  0.5527 -0.2397 -0.3925
    1SOL    HW2 6418   2.973   2.033   2.684  0.5644 -0.1480 -0.5689
    1SOL    HW3 6419   2.883   2.155   2.675  0.2058 -0.4970 -1.9118
    1SOL    MW4 6420   2.894   2.069   2.689  0.5088 -0.2613 -0.6163
    1SOL     OW 6421   2.879   2.318   2.598  0.4305  0.4384 -0.1011
    1SOL    HW2 6422   2.956   2.370   2.622 -0.3124  0.7319  1.7737
    1SOL    HW3 6423   2.806   2.361   2.644 -0.5897 -0.7753 -0.5638
    1SOL    MW4 6424   2.879   2.331   2.607  0.1976  0.3169  0.0854
    1SOL     OW 6425   2.658   2.445   2.696  0.3000 -0.3416 -0.0799
    1SOL    HW2 6426   2.660   2.448   2.792 -2.1092 -1.8032  0.0568
    1SOL    HW3 6427   2.651   2.537   2.670  0.8997  0.0699  1.1253
    1SOL    MW4 6428   2.658   2.458   2.705  0.0610 -0.4804  0.0975
    1SOL     OW 6429   2.669   2.704   2.619  0.9542  0.2654  0.5202
    1SOL    HW2 6430   2.751   2.749   2.639  1.3016 -0.8711  1.6899
    1SOL    HW3 6431   2.664   2.705   2.523  1.8722  1.1594  0.4793
    1SOL    MW4 6432   2.679   2.710   2.609  1.1213  0.2332  0.6692
    1SOL     OW 6433   2.917   2.850   2.695  0.3540  0.1807  0.0251
    1SOL    HW2 6434   2.996   2.807   2.664  0.7719  0.6557  0.4225
    1SOL    HW3 6435   2.923   2.847   2.791  0.7623  1.7772  0.0645
    1SOL    MW4 6436   2.928   2.844   2.704  0.4630  0.4539  0.0827
    1SOL     OW 6437   2.942   3.110   2.617 -0.0400  0.3299  0.5674
    1SOL    HW2 6438   2.854   3.144   2.633 -0.2672 -0.0580  0.1653
    1SOL    HW3 6439   2.931   3.015   2.622  0.3069  0.2748  0.2469
    1SOL    MW4 6440   2.929   3.102   2.620 -0.0241  0.2716  0.4718
    1SOL     OW 6441   2.703   3.227   2.706  0.4691 -0.7114 -0.2398
    1SOL    HW2 6442   2.696   3.322   2.697  0.7117 -0.2886  3.2494
    1SOL    HW3 6443   2.628   3.193   2.659 -0.0312  1.2613 -0.9242
    1SOL    MW4 6444   2.692   3.235   2.699  0.4354 -0.3955  0.1299
    1SOL     OW 6445   2.676   3.506   2.643 -0.5846  0.0781 -0.5290
    1SOL    HW2 6446   2.592   3.550   2.658 -0.2201  1.0233 -1.2055
    1SOL    HW3 6447   2.685   3.503   2.548  0.5031  0.7008 -0.4641
    1SOL    MW4 6448   2.666   3.512   2.633 -0.3929  0.2851 -0.6096
    1SOL     OW 6449   2.891   3.603   2.780  0.5131  0.0897  0.0813
    1SOL    HW2 6450   2.868   3.610   2.872  1.9835 -1.8085  0.6207
    1SOL    HW3 6451   2.810   3.574   2.737 -0.0455  0.5310  0.8172
    1SOL    MW4 6452   2.877   3.600   2.786  0.6332 -0.1025  0.2494
    1SOL     OW 6453   2.923   3.837   2.645  0.1687 -0.1763 -0.4661
    1SOL    HW2 6454   2.993   3.883   2.691  1.0403 -2.2908  0.4293
    1SOL    HW3 6455   2.914   3.754   2.693 -2.6248 -0.1639 -0.8639
    1SOL    MW4 6456   2.931   3.832   2.658 -0.0846 -0.4537 -0.4005
    1SOL     OW 6457   2.716   3.999   2.746 -0.6012 -0.5089  0.0645
    1SOL    HW2 6458   2.739   4.088   2.719 -1.4883 -0.1370  0.5026
    1SOL    HW3 6459   2.785   3.944   2.709  0.6111  0.4975  0.7845
    1SOL    MW4 6460   2.728   4.003   2.738 -0.5584 -0.3266  0.2172
    1SOL     OW 6461   2.751   4.261   2.654 -0.0085  0.2126 -0.1748
    1SOL    HW2 6462   2.816   4.315   2.699 -1.5446 -0.0565  2.4725
    1SOL    HW3 6463   2.667   4.305   2.672 -0.8365 -0.8335 -1.3936
    1SOL    MW4 6464   2.748   4.274   2.662 -0.3202  0.0391  0.0136
    1SOL     OW 6465   2.929   4.402   2.811 -0.3935 -0.1237  0.0204
    1SOL    HW2 6466   2.924   4.408   2.906 -1.3023 -0.5439 -0.0026
    1SOL    HW3 6467   2.928   4.493   2.782  2.6599  0.1387  0.5324
    1SOL    MW4 6468   2.929   4.415   2.820 -0.1104 -0.1450  0.0849
    1SOL     OW 6469   3.395   4.658   2.641  0.0500  0.2136 -0.0266
    1SOL    HW2 6470   3.390   4.565   2.660  1.1373  0.1092 -0.2467
    1SOL    HW3 6471   3.337   4.699   2.706 -0.7990 -0.6495 -0.2379
    1SOL    MW4 6472   3.386   4.651   2.652  0.0815  0.0854 -0.0834
    1SOL     OW 6473   3.163   0.119   2.774  0.0412  0.5385 -0.5077
    1SOL    HW2 6474   3.173   0.131   2.869 -1.1353  0.5380 -0.3831
    1SOL    HW3 6475   3.151   0.208   2.740  1.3181  0.6289 -0.7752
    1SOL    MW4 6476   3.163   0.132   2.782  0.0546  0.5503 -0.5264
    1SOL     OW 6477   3.136   0.382   2.657  0.2357 -0.1114  0.6100
    1SOL    HW2 6478   3.058   0.420   2.695  0.7398  0.8160  0.7357
    1SOL    HW3 6479   3.120   0.383   2.562  1.0438  2.2629  0.4634
    1SOL    MW4 6480   3.124   0.387   2.649  0.4086  0.3242  0.6075
    1SOL     OW 6481   3.369   0.510   2.721 -0.1280  0.0045 -0.4229
    1SOL    HW2 6482   3.330   0.594   2.696 -0.9630  0.1972  1.3897
    1SOL    HW3 6483   3.302   0.445   2.698 -0.3407  0.0507  0.0545
    1SOL    MW4 6484   3.355   0.512   2.715 -0.2663  0.0361 -0.1206
    1SOL     OW 6485   3.357   0.784   2.622  0.0903  0.2485 -0.1694
    1SOL    HW2 6486   3.444   0.818   2.642 -0.1352  1.6158 -1.4180
    1SOL    HW3 6487   3.357   0.771   2.528 -0.8218 -0.4616 -0.0806
    1SOL    MW4 6488   3.368   0.787   2.612 -0.0601  0.3352 -0.3221
    1SOL     OW 6489   3.161   0.938   2.713 -0.4075 -0.1758  0.0072
    1SOL    HW2 6490   3.149   0.929   2.807  0.4363 -0.6311  0.0787
    1SOL    HW3 6491   3.233   0.878   2.692 -0.1174  0.4428 -0.8085
    1SOL    MW4 6492   3.169   0.929   2.723 -0.2577 -0.1542 -0.0911
    1SOL     OW 6493   3.161   1.204   2.634 -0.0942  0.3709 -0.0709
    1SOL    HW2 6494   3.165   1.114   2.666  0.0378  0.0314 -1.0139
    1SOL    HW3 6495   3.157   1.195   2.538 -0.9799  1.3352 -0.1394
    1SOL    MW4 6496   3.161   1.190   2.625 -0.1936  0.4532 -0.2043
    1SOL     OW 6497   3.366   1.347   2.746  0.2603  0.2801  0.3232
    1SOL    HW2 6498   3.364   1.323   2.839 -0.5120  0.5749  0.3806
    1SOL    HW3 6499   3.288   1.306   2.709 -0.2669  1.4773  0.1139
    1SOL    MW4 6500   3.356   1.338   2.753  0.0887  0.4771  0.3033
    1SOL     OW 6501   3.344   1.583   2.611  0.4253  0.3925  0.3835
    1SOL    HW2 6502   3.267   1.628   2.645 -1.5631 -0.2103 -3.1178
    1SOL    HW3 6503   3.345   1.500   2.659 -0.7995  0.6259  0.8500
    1SOL    MW4 6504   3.334   1.578   2.622  0.0012  0.3437 -0.0172
    1SOL     OW 6505   3.114   1.707   2.717  0.3878 -0.0921  0.2488
    1SOL    HW2 6506   3.045   1.645   2.694 -0.6218  1.0995  0.0795
    1SOL    HW3 6507   3.130   1.691   2.810 -0.8069  0.3221  0.5229
    1SOL    MW4 6508   3.107   1.697   2.726  0.0968  0.1198  0.2627
    1SOL     OW 6509   3.146   1.969   2.664 -0.2257  0.0501  0.0478
    1SOL    HW2 6510   3.230   1.974   2.710 -0.9895 -0.1450  1.4942
    1SOL    HW3 6511   3.119   1.878   2.675 -1.4463  0.5272  1.0716
    1SOL    MW4 6512   3.154   1.958   2.671 -0.4876  0.0874  0.3736
    1SOL     OW 6513   3.395   2.041   2.766 -0.4093  0.1146 -0.3182
    1SOL    HW2 6514   3.376   2.042   2.859 -0.2165  0.0377 -0.2761
    1SOL    HW3 6515   3.386   2.132   2.738  0.0180  0.2167 -0.1226
    1SOL    MW4 6516   3.392   2.053   2.774 -0.3276  0.1180 -0.2871
    1SOL     OW 6517   3.339   2.295   2.661 -0.5391 -0.5643  0.0231
    1SOL    HW2 6518   3.399   2.368   2.681 -0.0625 -0.8603 -0.3079
    1SOL    HW3 6519   3.335   2.294   2.565 -1.3061 -0.3609  0.0525
    1SOL    MW4 6520   3.346   2.305   2.651 -0.5772 -0.5763 -0.0172
    1SOL     OW 6521   3.115   2.460   2.689 -0.3673  0.8677 -0.3834
    1SOL    HW2 6522   3.182   2.392   2.682  0.7903  1.8240  1.1172
    1SOL    HW3 6523   3.094   2.463   2.783 -1.3605  1.6608 -0.6315
    1SOL    MW4 6524   3.121   2.451   2.701 -0.3455  1.0986 -0.2182
    1SOL     OW 6525   3.152   2.716   2.615  0.3663  0.2500  0.2799
    1SOL    HW2 6526   3.235   2.749   2.649  1.2104 -2.3180  0.8352
    1SOL    HW3 6527   3.150   2.624   2.641 -2.0477 -0.0807 -0.8906
    1SOL    MW4 6528   3.163   2.708   2.623  0.1593 -0.1326  0.1986
    1SOL     OW 6529   3.382   2.839   2.699 -0.3068  0.3688 -0.3558
    1SOL    HW2 6530   3.382   2.854   2.794 -0.4262  0.5005 -0.3768
    1SOL    HW3 6531   3.467   2.798   2.682 -0.3061  0.2961 -0.1844
    1SOL    MW4 6532   3.393   2.835   2.709 -0.3226  0.3765 -0.3362
    1SOL     OW 6533   3.382   3.117   2.632  0.1257 -0.1262  0.0148
    1SOL    HW2 6534   3.385   3.021   2.637 -0.1554 -0.0765  1.2767
    1SOL    HW3 6535   3.389   3.136   2.538  0.2441 -1.3763 -0.2441
    1SOL    MW4 6536   3.383   3.106   2.620  0.1044 -0.2847  0.1471
    1SOL     OW 6537   3.162   3.235   2.729  0.0613  0.0367 -0.5333
    1SOL    HW2 6538   3.239   3.191   2.692  0.3021  0.8054 -0.9716
    1SOL    HW3 6539   3.088   3.182   2.702  0.3099  0.1541 -1.4442
    1SOL    MW4 6540   3.162   3.222   2.721  0.1261  0.1535 -0.7114
    1SOL     OW 6541   3.100   3.485   2.625 -0.0812 -0.2105  0.2226
    1SOL    HW2 6542   3.107   3.395   2.655  2.5338  0.3276  1.3629
    1SOL    HW3 6543   3.030   3.523   2.678  0.1356 -1.0366  1.1024
    1SOL    MW4 6544   3.092   3.478   2.636  0.2923 -0.2484  0.4892
    1SOL     OW 6545   3.355   3.601   2.718  0.1156  0.0619 -0.3575
    1SOL    HW2 6546   3.341   3.603   2.813  0.8140  0.6782 -0.2579
    1SOL    HW3 6547   3.278   3.557   2.683  1.1429 -2.6810  0.7180
    1SOL    MW4 6548   3.343   3.596   2.726  0.3433 -0.2186 -0.2022
    1SOL     OW 6549   3.358   3.875   2.683 -0.2683  0.0413 -0.2026
    1SOL    HW2 6550   3.352   3.782   2.704 -1.0527 -0.0859 -0.9539
    1SOL    HW3 6551   3.361   3.878   2.588 -0.8965  0.8149 -0.2057
    1SOL    MW4 6552   3.357   3.863   2.673 -0.4547  0.1268 -0.3018
    1SOL     OW 6553   3.124   3.994   2.762 -0.4175  0.4241  0.0565
    1SOL    HW2 6554   3.123   4.077   2.715 -1.0805  0.8143  0.7428
    1SOL    HW3 6555   3.207   3.954   2.739  0.8066  2.1747  1.2664
    1SOL    MW4 6556   3.135   4.000   2.753 -0.3433  0.7069  0.3068
    1SOL     OW 6557   3.137   4.235   2.647  0.0628  0.3270  0.3939
    1SOL    HW2 6558   3.084   4.298   2.697 -1.7480 -0.5522 -0.3595
    1SOL    HW3 6559   3.111   4.250   2.556  2.0002  0.6749 -0.1223
    1SOL    MW4 6560   3.126   4.246   2.641  0.0796  0.2570  0.2263
    1SOL     OW 6561   3.374   4.375   2.725  0.2194 -0.5959  0.4496
    1SOL    HW2 6562   3.376   4.371   2.820 -0.1863 -2.0386  0.4126
    1SOL    HW3 6563   3.305   4.314   2.699 -0.2951  0.4542 -0.7381
    1SOL    MW4 6564   3.365   4.366   2.734  0.0980 -0.6471  0.2878
    1SOL     OW 6565   3.834   4.653   2.615  0.0332 -0.5393  0.1927
    1SOL    HW2 6566   3.825   4.564   2.649  2.2171 -0.5299  0.8270
    1SOL    HW3 6567   3.766   4.703   2.661 -0.8885 -1.7540  0.1887
    1SOL    MW4 6568   3.824   4.648   2.626  0.1998 -0.6981  0.2759
    1SOL     OW 6569   3.626   0.122   2.720 -0.1909  0.3595  0.3038
    1SOL    HW2 6570   3.605   0.210   2.688 -2.4846  0.4143  1.8211
    1SOL    HW3 6571   3.552   0.068   2.693 -0.3051 -0.4245  2.0972
    1SOL    MW4 6572   3.613   0.126   2.712 -0.5085  0.2633  0.7403
    1SOL     OW 6573   3.608   0.374   2.617 -0.7579 -0.0539  0.0146
    1SOL    HW2 6574   3.689   0.422   2.635 -0.1993 -1.2098  0.6789
    1SOL    HW3 6575   3.538   0.431   2.650 -0.2456  1.0741 -0.8080
    1SOL    MW4 6576   3.609   0.388   2.624 -0.6168 -0.0576 -0.0067
    1SOL     OW 6577   3.822   0.526   2.692  0.1002 -0.2954  0.3331
    1SOL    HW2 6578   3.816   0.514   2.787  0.4802  3.2749  0.8518
    1SOL    HW3 6579   3.903   0.479   2.667  1.0937  0.4515  2.0838
    1SOL    MW4 6580   3.832   0.518   2.701  0.2813  0.2742  0.6323
    1SOL     OW 6581   3.795   0.792   2.596  0.1335  0.1319 -0.0810
    1SOL    HW2 6582   3.709   0.822   2.625  0.2478  1.0118 -0.6072
    1SOL    HW3 6583   3.802   0.702   2.627 -0.9423  0.0872  0.0348
    1SOL    MW4 6584   3.785   0.784   2.604  0.0069  0.2421 -0.1349
    1SOL     OW 6585   3.577   0.913   2.715  0.1419 -0.4285  0.1428
    1SOL    HW2 6586   3.581   0.907   2.811 -1.5300 -0.1439  0.2462
    1SOL    HW3 6587   3.558   1.005   2.698 -0.8525 -0.7311 -0.4153
    1SOL    MW4 6588   3.575   0.925   2.726 -0.2096 -0.4309  0.0827
    1SOL     OW 6589   3.575   1.189   2.644 -0.2846  0.0948 -0.0472
    1SOL    HW2 6590   3.655   1.219   2.687  0.4669  0.7561 -1.8287
    1SOL    HW3 6591   3.504   1.231   2.692  0.5655  1.4297  0.0600
    1SOL    MW4 6592   3.576   1.198   2.656 -0.0732  0.3581 -0.2682
    1SOL     OW 6593   3.809   1.288   2.736 -0.3123  0.0572 -0.0472
    1SOL    HW2 6594   3.894   1.251   2.712 -0.2885  0.8717 -1.2234
    1SOL    HW3 6595   3.811   1.377   2.702 -1.0700  0.5657  1.2184
    1SOL    MW4 6596   3.821   1.295   2.728 -0.4094  0.2317 -0.0353
    1SOL     OW 6597   3.799   1.553   2.649  0.3333  0.0993  0.2703
    1SOL    HW2 6598   3.860   1.621   2.678  0.4034  0.7503 -1.3448
    1SOL    HW3 6599   3.714   1.581   2.683  0.5130  0.5231  0.3731
    1SOL    MW4 6600   3.795   1.566   2.658  0.3664  0.2410  0.0708
    1SOL     OW 6601   3.567   1.671   2.743 -0.4489 -0.2699 -0.0687
    1SOL    HW2 6602   3.588   1.752   2.695 -1.9106  1.3885  1.9754
    1SOL    HW3 6603   3.486   1.640   2.704 -1.4869  0.9262  1.0809
    1SOL    MW4 6604   3.559   1.678   2.732 -0.7787  0.1067  0.3526
    1SOL     OW 6605   3.606   1.937   2.623 -0.0040 -0.2524  0.0567
    1SOL    HW2 6606   3.538   1.981   2.675 -0.1357 -0.7070  0.2638
    1SOL    HW3 6607   3.583   1.957   2.532  0.5058  0.9649  0.1761
    1SOL    MW4 6608   3.594   1.946   2.618  0.0458 -0.1519  0.0994
    1SOL     OW 6609   3.817   2.042   2.757  0.9451  0.3451  0.2602
    1SOL    HW2 6610   3.898   2.032   2.707  0.9769 -0.1546  0.3997
    1SOL    HW3 6611   3.756   1.981   2.715  0.8682  0.1769  0.6128
    1SOL    MW4 6612   3.820   2.032   2.745  0.9394  0.2570  0.3254
    1SOL     OW 6613   3.786   2.303   2.653  0.0573  0.3839  0.1519
    1SOL    HW2 6614   3.784   2.209   2.668 -0.0634  0.5549  1.2235
    1SOL    HW3 6615   3.778   2.312   2.558  0.2397 -0.6886  0.0270
    1SOL    MW4 6616   3.785   2.292   2.643  0.0653  0.2651  0.2768
    1SOL     OW 6617   3.556   2.468   2.735  0.1123  0.3094 -0.0011
    1SOL    HW2 6618   3.541   2.461   2.830  0.5002  0.6889  0.0890
    1SOL    HW3 6619   3.634   2.415   2.719 -0.5046 -0.5294 -0.2570
    1SOL    MW4 6620   3.564   2.460   2.746  0.0820  0.2487 -0.0231
    1SOL     OW 6621   3.622   2.718   2.629 -0.4673 -0.5291  0.1270
    1SOL    HW2 6622   3.594   2.640   2.678  0.4226 -0.8960  0.0703
    1SOL    HW3 6623   3.611   2.693   2.537 -0.1576 -0.5940  0.1087
    1SOL    MW4 6624   3.617   2.704   2.623 -0.3092 -0.5860  0.1171
    1SOL     OW 6625   3.821   2.845   2.766 -0.5086 -0.2274 -0.2023
    1SOL    HW2 6626   3.903   2.807   2.735 -0.6498  0.1840 -1.0738
    1SOL    HW3 6627   3.753   2.799   2.718 -0.7767 -0.4054  0.3491
    1SOL    MW4 6628   3.823   2.834   2.756 -0.5627 -0.1967 -0.2446
    1SOL     OW 6629   3.827   3.112   2.663  0.2844  0.4212  0.0555
    1SOL    HW2 6630   3.743   3.147   2.692 -0.3850  1.4947 -3.0099
    1SOL    HW3 6631   3.831   3.025   2.702 -1.2997  1.1517  1.9197
    1SOL    MW4 6632   3.816   3.105   2.672 -0.0129  0.6590 -0.1030
    1SOL     OW 6633   3.606   3.215   2.779  0.6609  0.3801 -0.0920
    1SOL    HW2 6634   3.593   3.302   2.741  1.9469  0.0832 -1.2726
    1SOL    HW3 6635   3.550   3.157   2.727  2.9907 -0.1494 -2.1260
    1SOL    MW4 6636   3.597   3.219   2.767  1.1382  0.2711 -0.5162
    1SOL     OW 6637   3.579   3.461   2.662 -0.0488 -0.2756  0.0981
    1SOL    HW2 6638   3.652   3.515   2.693  0.3428 -0.0248 -1.2469
    1SOL    HW3 6639   3.501   3.512   2.685  0.2679  0.2583 -0.0045
    1SOL    MW4 6640   3.578   3.475   2.669  0.0443 -0.1721 -0.0927
    1SOL     OW 6641   3.813   3.603   2.730  0.0761  0.0562  0.1730
    1SOL    HW2 6642   3.895   3.566   2.697 -1.1885 -2.8814  0.1636
    1SOL    HW3 6643   3.806   3.687   2.685  2.3155 -0.3162 -0.9984
    1SOL    MW4 6644   3.823   3.609   2.720  0.2046 -0.3803  0.0172
    1SOL     OW 6645   3.802   3.853   2.638 -0.0982 -0.3955 -0.1473
    1SOL    HW2 6646   3.876   3.888   2.687 -1.0709  0.6603  0.5950
    1SOL    HW3 6647   3.726   3.900   2.673 -1.0279 -0.9523 -1.3970
    1SOL    MW4 6648   3.802   3.864   2.649 -0.3493 -0.3297 -0.2141
    1SOL     OW 6649   3.594   4.012   2.765 -0.2127 -0.6700 -0.2007
    1SOL    HW2 6650   3.611   4.094   2.720  1.5305 -1.1835 -0.5297
    1SOL    HW3 6651   3.507   3.986   2.736 -0.7699  1.0467 -0.1046
    1SOL    MW4 6652   3.585   4.019   2.755 -0.0560 -0.5112 -0.2315
    1SOL     OW 6653   3.594   4.250   2.617 -0.3787  0.0473 -0.5474
    1SOL    HW2 6654   3.518   4.299   2.649 -0.2016  0.3498 -0.5903
    1SOL    HW3 6655   3.572   4.228   2.527 -0.0716  0.8356 -0.8175
    1SOL    MW4 6656   3.581   4.254   2.610 -0.3150  0.1907 -0.5887
    1SOL     OW 6657   3.815   4.403   2.741  0.2247  0.2047 -0.0550
    1SOL    HW2 6658   3.888   4.343   2.726  0.4210  0.0158  1.5249
    1SOL    HW3 6659   3.739   4.359   2.702  0.4866 -0.7852  0.5366
    1SOL    MW4 6660   3.814   4.389   2.734  0.2851  0.0496  0.2313
    1SOL     OW 6661   4.299   4.613   2.660 -0.3736  0.1000 -0.2513
    1SOL    HW2 6662   4.227   4.668   2.689 -0.0987  0.9648 -1.1859
    1SOL    HW3 6663   4.378   4.655   2.693 -0.2058 -0.0687 -0.4327
    1SOL    MW4 6664   4.300   4.625   2.668 -0.3152  0.1922 -0.3986
    1SOL     OW 6665   4.076   0.097   2.703  0.0058 -0.2293  0.1466
    1SOL    HW2 6666   4.073   0.094   2.799 -0.3858 -0.2209  0.1360
    1SOL    HW3 6667   3.992   0.060   2.676 -0.0332  0.1097 -0.1884
    1SOL    MW4 6668   4.065   0.091   2.712 -0.0505 -0.1835  0.1011
    1SOL     OW 6669   4.048   0.375   2.649  0.7463 -0.0975 -0.1718
    1SOL    HW2 6670   4.034   0.281   2.659  0.6264 -0.0089  0.5568
    1SOL    HW3 6671   4.064   0.387   2.556  0.1862 -0.7641 -0.3607
    1SOL    MW4 6672   4.049   0.364   2.638  0.6566 -0.1737 -0.1009
    1SOL     OW 6673   4.268   0.528   2.749  0.1468  0.3900 -0.5927
    1SOL    HW2 6674   4.196   0.472   2.720  0.2042 -0.5013  0.9051
    1SOL    HW3 6675   4.346   0.488   2.713  0.0075  0.6156 -1.1435
    1SOL    MW4 6676   4.269   0.516   2.740  0.1359  0.3022 -0.4675
    1SOL     OW 6677   4.255   0.781   2.624 -0.0097 -0.4662  0.5627
    1SOL    HW2 6678   4.255   0.695   2.665 -0.2597 -0.5215  0.4484
    1SOL    HW3 6679   4.254   0.763   2.530  1.4573 -0.3463  0.5106
    1SOL    MW4 6680   4.255   0.768   2.617  0.1512 -0.4576  0.5410
    1SOL     OW 6681   4.011   0.918   2.732  0.4368 -0.0174  0.2702
    1SOL    HW2 6682   4.088   0.880   2.688 -0.4445 -0.5406 -0.8359
    1SOL    HW3 6683   3.936   0.883   2.684 -0.4792  1.0639  0.8913
    1SOL    MW4 6684   4.011   0.908   2.720  0.1993  0.0562  0.2062
    1SOL     OW 6685   4.038   1.169   2.633  0.1609 -0.0303  0.2400
    1SOL    HW2 6686   4.122   1.204   2.660  0.1364 -0.3179  0.6891
    1SOL    HW3 6687   4.041   1.076   2.658 -0.4339  0.0456  0.6097
    1SOL    MW4 6688   4.049   1.161   2.640  0.0796 -0.0582  0.3481
    1SOL     OW 6689   4.265   1.282   2.741  0.1258  0.0470 -0.0817
    1SOL    HW2 6690   4.268   1.374   2.717 -0.1997 -0.0615 -0.5491
    1SOL    HW3 6691   4.320   1.238   2.676  0.9223  0.0037  0.6032
    1SOL    MW4 6692   4.273   1.288   2.729  0.1879  0.0269 -0.0532
    1SOL     OW 6693   4.268   1.542   2.651 -0.1968  0.1716 -0.0086
    1SOL    HW2 6694   4.354   1.574   2.679 -0.0984 -1.2941  1.4830
    1SOL    HW3 6695   4.264   1.561   2.558  1.5122  0.7761  0.0251
    1SOL    MW4 6696   4.279   1.549   2.643  0.0415  0.0579  0.1926
    1SOL     OW 6697   4.033   1.696   2.748 -0.2474  0.0900 -0.0940
    1SOL    HW2 6698   4.045   1.697   2.843  0.4896  1.3499 -0.1876
    1SOL    HW3 6699   4.108   1.647   2.714 -0.1031  0.2935 -0.0718
    1SOL    MW4 6700   4.044   1.690   2.756 -0.1307  0.2831 -0.1035
    1SOL     OW 6701   4.056   1.957   2.606  0.0736  0.1749 -0.3453
    1SOL    HW2 6702   4.120   2.011   2.653  0.2134 -0.7156  0.5054
    1SOL    HW3 6703   4.056   1.874   2.653 -0.5503 -0.3769 -1.3068
    1SOL    MW4 6704   4.065   1.953   2.619  0.0100 -0.0155 -0.3598
    1SOL     OW 6705   4.279   2.067   2.727  0.4798 -0.4025 -0.0681
    1SOL    HW2 6706   4.271   2.138   2.663 -0.5230  0.3626  0.9114
    1SOL    HW3 6707   4.363   2.025   2.704  0.9579  0.9193 -0.8136
    1SOL    MW4 6708   4.289   2.071   2.715  0.4101 -0.1273 -0.0374
    1SOL     OW 6709   4.253   2.313   2.587 -0.1573 -0.3003 -0.2990
    1SOL    HW2 6710   4.173   2.349   2.623 -0.5152 -0.8503 -0.5354
    1SOL    HW3 6711   4.242   2.318   2.492  0.3439  0.1796 -0.3374
    1SOL    MW4 6712   4.241   2.318   2.579 -0.1383 -0.3095 -0.3352
    1SOL     OW 6713   4.021   2.445   2.690 -0.0690 -0.0499 -0.5450
    1SOL    HW2 6714   4.026   2.434   2.785 -1.7929  2.8974 -0.0515
    1SOL    HW3 6715   3.938   2.406   2.666  0.8000 -1.6481 -1.0087
    1SOL    MW4 6716   4.011   2.438   2.700 -0.1822  0.1280 -0.5410
    1SOL     OW 6717   4.055   2.722   2.645 -0.0423 -0.6012  0.2015
    1SOL    HW2 6718   4.143   2.754   2.667  0.1050 -0.2101 -0.9384
    1SOL    HW3 6719   4.060   2.628   2.660  0.5783 -0.5881  0.1116
    1SOL    MW4 6720   4.068   2.714   2.650  0.0596 -0.5481  0.0396
    1SOL     OW 6721   4.287   2.817   2.727 -0.1713 -0.3788 -0.3485
    1SOL    HW2 6722   4.280   2.830   2.822  0.7507  0.6129 -0.4004
    1SOL    HW3 6723   4.293   2.905   2.691  1.0880 -0.7879 -1.1881
    1SOL    MW4 6724   4.287   2.830   2.735  0.1168 -0.3023 -0.4661
    1SOL     OW 6725   4.281   3.087   2.633 -0.1265  0.1488  0.1389
    1SOL    HW2 6726   4.196   3.116   2.665 -0.1731 -0.4401  0.5576
    1SOL    HW3 6727   4.267   3.074   2.539 -1.2008 -2.3314  0.5859
    1SOL    MW4 6728   4.268   3.089   2.625 -0.2747 -0.2561  0.2534
    1SOL     OW 6729   4.051   3.227   2.745  0.1039 -0.0716  0.1102
    1SOL    HW2 6730   4.060   3.317   2.714 -1.3846  0.2198  0.5308
    1SOL    HW3 6731   3.965   3.199   2.715  0.8162 -1.5889 -0.5752
    1SOL    MW4 6732   4.041   3.235   2.737  0.0014 -0.2337  0.0756
    1SOL     OW 6733   4.061   3.493   2.658  0.0084 -0.4361  0.1708
    1SOL    HW2 6734   4.133   3.548   2.687  1.2740 -1.2362 -1.3364
    1SOL    HW3 6735   4.083   3.470   2.567 -1.2021 -2.2175  0.2888
    1SOL    MW4 6736   4.073   3.497   2.650  0.0157 -0.7768 -0.0126
    1SOL     OW 6737   4.273   3.659   2.744  0.8110 -0.6752  0.2221
    1SOL    HW2 6738   4.281   3.651   2.839  0.3496 -3.3960  0.0785
    1SOL    HW3 6739   4.340   3.600   2.710  0.2562 -0.5276 -1.1406
    1SOL    MW4 6740   4.283   3.650   2.752  0.6762 -1.0145  0.0236
    1SOL     OW 6741   4.283   3.925   2.649 -0.1930 -0.7122 -0.4086
    1SOL    HW2 6742   4.285   3.836   2.683 -0.8326 -1.1150 -1.4224
    1SOL    HW3 6743   4.354   3.970   2.695  0.0792 -1.7252  0.1568
    1SOL    MW4 6744   4.293   3.919   2.659 -0.2413 -0.8991 -0.4678
    1SOL     OW 6745   4.017   3.985   2.766 -0.1154 -0.1599  0.5844
    1SOL    HW2 6746   4.023   3.987   2.862  0.0909  0.0766  0.5694
    1SOL    HW3 6747   4.107   3.969   2.737  0.3482  2.5869  0.3633
    1SOL    MW4 6748   4.030   3.983   2.775 -0.0272  0.2337  0.5531
    1SOL     OW 6749   4.042   4.255   2.672 -0.2579 -0.5047  0.2266
    1SOL    HW2 6750   4.037   4.164   2.702 -0.7842 -0.5841 -0.0974
    1SOL    HW3 6751   4.045   4.248   2.577  0.0371 -0.1945  0.2150
    1SOL    MW4 6752   4.042   4.242   2.663 -0.2875 -0.4745  0.1824
    1SOL     OW 6753   4.306   4.352   2.764 -0.4100  0.6940  0.8295
    1SOL    HW2 6754   4.223   4.314   2.736  0.8538 -1.6778  0.1095
    1SOL    HW3 6755   4.308   4.439   2.723 -0.5630 -0.9729 -2.9827
    1SOL    MW4 6756   4.295   4.358   2.755 -0.2632  0.1612  0.2315
    1SOL     OW 6757   0.263   4.638   3.084  0.5913  0.3752  0.0635
    1SOL    HW2 6758   0.253   4.649   3.178  1.2530  0.8283  0.0859
    1SOL    HW3 6759   0.180   4.670   3.047  0.1332 -0.2834  0.5170
    1SOL    MW4 6760   0.251   4.644   3.091  0.6181  0.3481  0.1264
    1SOL     OW 6761   0.008   0.088   3.006 -0.4170 -0.0772 -0.3175
    1SOL    HW2 6762  -0.075   0.049   3.033 -1.1169  1.2173 -0.5731
    1SOL    HW3 6763   0.006   0.177   3.043  0.3271  0.3698 -1.3316
    1SOL    MW4 6764  -0.003   0.095   3.014 -0.4112  0.1526 -0.4849
    1SOL     OW 6765   0.018   0.364   3.099 -0.1238 -0.9647 -0.1361
    1SOL    HW2 6766  -0.004   0.345   3.190  0.6384  1.2709  0.5304
    1SOL    HW3 6767  -0.056   0.414   3.065 -0.1507 -1.2999 -0.5817
    1SOL    MW4 6768   0.005   0.368   3.106 -0.0267 -0.7140 -0.1068
    1SOL     OW 6769   0.248   0.506   3.014  0.1479 -0.3095 -0.5661
    1SOL    HW2 6770   0.328   0.469   3.051 -0.1734 -1.6082 -1.1398
    1SOL    HW3 6771   0.182   0.438   3.028 -0.8694  0.7798 -0.0271
    1SOL    MW4 6772   0.250   0.492   3.021 -0.0288 -0.3372 -0.5705
    1SOL     OW 6773   0.217   0.775   3.105  0.0717 -0.0904 -0.1486
    1SOL    HW2 6774   0.213   0.774   3.200  0.4634 -0.5798 -0.1392
    1SOL    HW3 6775   0.216   0.683   3.079 -2.0148  0.0541 -0.7065
    1SOL    MW4 6776   0.216   0.763   3.114 -0.1519 -0.1360 -0.2210
    1SOL     OW 6777   4.473   0.879   2.985  0.1878 -0.0489 -0.0565
    1SOL    HW2 6778   4.550   0.834   3.019  0.3809  0.5667  0.3431
    1SOL    HW3 6779   4.482   0.875   2.890  0.1139 -0.9933 -0.0222
    1SOL    MW4 6780   4.484   0.873   2.977  0.2031 -0.0923  0.0007
    1SOL     OW 6781   0.030   1.131   3.100  0.2548 -0.1449 -0.1360
    1SOL    HW2 6782  -0.028   1.199   3.068  0.9878  0.1245 -0.9062
    1SOL    HW3 6783  -0.005   1.049   3.064 -0.0604 -0.0659 -0.0065
    1SOL    MW4 6784   0.018   1.129   3.091  0.3099 -0.0989 -0.2205
    1SOL     OW 6785   0.245   1.300   3.004  0.3281 -0.0839 -0.1048
    1SOL    HW2 6786   0.182   1.231   3.026  0.5049  0.1214  1.0842
    1SOL    HW3 6787   0.251   1.297   2.909 -0.6266 -0.8650 -0.1552
    1SOL    MW4 6788   0.237   1.291   2.995  0.2255 -0.1597  0.0453
    1SOL     OW 6789   0.260   1.548   3.141  0.3752 -0.4084  0.1237
    1SOL    HW2 6790   0.188   1.584   3.089  0.6645 -0.6657 -0.4457
    1SOL    HW3 6791   0.271   1.459   3.109  1.2420 -0.2248 -0.0835
    1SOL    MW4 6792   0.252   1.541   3.130  0.5278 -0.4181  0.0212
    1SOL     OW 6793   0.035   1.648   2.991 -0.5731  0.5780 -0.0076
    1SOL    HW2 6794  -0.046   1.606   3.019 -0.0865 -0.0573  0.4670
    1SOL    HW3 6795   0.034   1.733   3.034 -1.5797  1.0814 -1.0016
    1SOL    MW4 6796   0.024   1.654   3.000 -0.6417  0.5605 -0.0765
    1SOL     OW 6797   0.024   1.907   3.100  0.0358 -0.0286 -0.3897
    1SOL    HW2 6798  -0.053   1.944   3.056 -0.3772 -1.2461 -0.6973
    1SOL    HW3 6799   0.098   1.956   3.063 -0.6801  2.0746  0.8884
    1SOL    MW4 6800   0.023   1.919   3.089 -0.1131  0.0882 -0.2618
    1SOL     OW 6801   0.243   2.048   3.000  0.1386 -0.7548 -0.2192
    1SOL    HW2 6802   0.233   2.136   3.038  0.9520 -0.7929  0.0899
    1SOL    HW3 6803   0.235   2.062   2.906  0.1130 -0.3668 -0.1613
    1SOL    MW4 6804   0.240   2.062   2.993  0.2425 -0.7088 -0.1709
    1SOL     OW 6805   0.225   2.308   3.113  0.5622 -0.0981 -0.2432
    1SOL    HW2 6806   0.237   2.288   3.205  1.0270  0.8821 -0.0852
    1SOL    HW3 6807   0.291   2.375   3.093  0.4950 -0.3225 -1.2903
    1SOL    MW4 6808   0.235   2.314   3.122  0.6147  0.0019 -0.3607
    1SOL     OW 6809   0.011   2.442   2.978 -0.1658  0.4182 -0.0832
    1SOL    HW2 6810   0.016   2.534   3.003  0.8679  0.9057 -2.0084
    1SOL    HW3 6811   0.057   2.395   3.048 -0.4559  1.3937  0.7581
    1SOL    MW4 6812   0.018   2.448   2.991 -0.0677  0.6113 -0.2260
    1SOL     OW 6813   0.016   2.708   3.074 -0.1563  0.2341 -0.6949
    1SOL    HW2 6814   0.008   2.700   3.169  0.5609 -0.7010 -0.7003
    1SOL    HW3 6815   0.095   2.761   3.062 -1.0824  1.6424 -0.7644
    1SOL    MW4 6816   0.026   2.714   3.085 -0.1839  0.2966 -0.7050
    1SOL     OW 6817   0.227   2.862   3.018  0.6956 -0.2658 -0.3777
    1SOL    HW2 6818   0.306   2.813   3.043  1.2504  0.1254 -1.3274
    1SOL    HW3 6819   0.237   2.876   2.924 -0.4460 -0.0882 -0.4754
    1SOL    MW4 6820   0.239   2.857   3.009  0.6181 -0.1907 -0.5159
    1SOL     OW 6821   0.237   3.107   3.140  0.4680 -0.3277 -0.2054
    1SOL    HW2 6822   0.162   3.155   3.106  0.5900  1.5535  2.0554
    1SOL    HW3 6823   0.220   3.016   3.116 -2.4807  0.0738  0.1812
    1SOL    MW4 6824   0.225   3.102   3.132  0.0951 -0.0262  0.1440
    1SOL     OW 6825   0.027   3.260   3.061  0.6096  0.2144 -0.1339
    1SOL    HW2 6826  -0.045   3.210   3.098  1.1021 -0.5967 -0.2660
    1SOL    HW3 6827   0.017   3.250   2.966 -0.3473  1.8629 -0.2288
    1SOL    MW4 6828   0.016   3.252   3.053  0.5483  0.3247 -0.1638
    1SOL     OW 6829   0.035   3.504   3.156 -0.1747 -0.1978  0.3046
    1SOL    HW2 6830  -0.045   3.537   3.115  0.3718  0.5122 -0.1942
    1SOL    HW3 6831   0.042   3.413   3.127 -1.0433 -0.3992  0.7143
    1SOL    MW4 6832   0.025   3.497   3.147 -0.2172 -0.1309  0.2928
    1SOL     OW 6833   0.263   3.599   3.014  0.1494 -0.2005 -0.2408
    1SOL    HW2 6834   0.288   3.686   3.044  1.4771 -0.4008 -0.7363
    1SOL    HW3 6835   0.188   3.575   3.068  0.5564  0.7384  0.7383
    1SOL    MW4 6836   0.257   3.607   3.025  0.3782 -0.1030 -0.1771
    1SOL     OW 6837   0.249   3.853   3.133  0.4058 -0.4769  0.2294
    1SOL    HW2 6838   0.245   3.873   3.227 -0.9199  1.4302 -0.1968
    1SOL    HW3 6839   0.315   3.914   3.100 -0.1360 -0.1692 -0.2916
    1SOL    MW4 6840   0.257   3.864   3.141  0.1594 -0.1848  0.1042
    1SOL     OW 6841   0.028   4.009   3.075 -0.3611  0.2595 -0.1670
    1SOL    HW2 6842   0.101   3.947   3.081 -0.2059  0.4746  0.1633
    1SOL    HW3 6843   0.022   4.029   2.982 -0.6386 -0.5199 -0.3211
    1SOL    MW4 6844   0.037   4.004   3.063 -0.3773  0.1845 -0.1438
    1SOL     OW 6845   0.024   4.287   3.161  0.3675  0.3180  0.4527
    1SOL    HW2 6846   0.008   4.267   3.253 -2.1230 -0.9478 -0.1989
    1SOL    HW3 6847   0.035   4.201   3.120  1.0547  0.8557 -0.5046
    1SOL    MW4 6848   0.023   4.273   3.168  0.1292  0.2222  0.2406
    1SOL     OW 6849   0.261   4.382   3.028  0.0655  0.4803 -0.0901
    1SOL    HW2 6850   0.185   4.345   3.072 -0.2862  0.5234 -0.6577
    1SOL    HW3 6851   0.271   4.469   3.067  0.7828 -0.1365  1.1085
    1SOL    MW4 6852   0.253   4.389   3.039  0.1138  0.4039 -0.0072
    1SOL     OW 6853   0.680   4.636   3.116  0.2143 -0.6304  0.0289
    1SOL    HW2 6854   0.690   4.550   3.075 -1.8927 -1.0983  0.4304
    1SOL    HW3 6855   0.607   4.677   3.068  0.0198  0.2066  1.0131
    1SOL    MW4 6856   0.671   4.630   3.104 -0.0893 -0.5822  0.2117
    1SOL     OW 6857   0.482   0.119   2.994 -0.3524  0.0961 -0.4401
    1SOL    HW2 6858   0.474   0.200   3.045 -1.3453  0.4550 -1.1379
    1SOL    HW3 6859   0.407   0.067   3.020 -0.1301 -0.2785 -0.5514
    1SOL    MW4 6860   0.471   0.123   3.004 -0.4540  0.0940 -0.5469
    1SOL     OW 6861   0.450   0.352   3.134 -0.5300 -0.4309 -0.0056
    1SOL    HW2 6862   0.443   0.372   3.228  1.7044 -1.0539  0.3292
    1SOL    HW3 6863   0.509   0.419   3.100 -0.1028 -1.1335 -0.6511
    1SOL    MW4 6864   0.457   0.364   3.142 -0.1789 -0.6058 -0.0465
    1SOL     OW 6865   0.642   0.507   2.993  0.3579 -0.2657 -0.0615
    1SOL    HW2 6866   0.726   0.468   3.019 -0.2557 -0.7747  1.2213
    1SOL    HW3 6867   0.649   0.598   3.020  1.3405  0.2571 -1.9891
    1SOL    MW4 6868   0.654   0.514   3.000  0.4066 -0.2638 -0.1464
    1SOL     OW 6869   0.653   0.776   3.094 -0.1784  0.7435  0.2395
    1SOL    HW2 6870   0.646   0.760   3.188 -0.5131  0.9198  0.2442
    1SOL    HW3 6871   0.735   0.825   3.084 -0.5329  1.3904  0.5233
    1SOL    MW4 6872   0.663   0.780   3.105 -0.2694  0.8521  0.2775
    1SOL     OW 6873   0.431   0.915   2.996 -0.6754  0.0307 -0.1182
    1SOL    HW2 6874   0.358   0.869   3.038 -0.0197 -0.1841  0.8076
    1SOL    HW3 6875   0.509   0.871   3.029 -0.1127  0.4126 -0.9187
    1SOL    MW4 6876   0.431   0.903   3.006 -0.5147  0.0527 -0.1016
    1SOL     OW 6877   0.478   1.179   3.108 -0.1404  0.0511  0.3930
    1SOL    HW2 6878   0.479   1.094   3.064 -1.1852 -0.4386  1.2905
    1SOL    HW3 6879   0.406   1.227   3.067  0.7366  0.6799 -0.4262
    1SOL    MW4 6880   0.469   1.174   3.097 -0.1626  0.0695  0.4034
    1SOL     OW 6881   0.703   1.333   2.998  0.3201  0.0668 -0.2065
    1SOL    HW2 6882   0.783   1.289   3.026 -0.1140  0.0471  1.0088
    1SOL    HW3 6883   0.632   1.284   3.039 -0.2688  0.6661 -0.4908
    1SOL    MW4 6884   0.705   1.321   3.007  0.1851  0.1433 -0.0837
    1SOL     OW 6885   0.689   1.580   3.111 -0.1589 -0.3362 -0.0532
    1SOL    HW2 6886   0.691   1.551   3.202  1.3462 -0.4752 -0.1093
    1SOL    HW3 6887   0.709   1.501   3.061  0.6713  0.0817 -0.3971
    1SOL    MW4 6888   0.692   1.566   3.117  0.1493 -0.2995 -0.1061
    1SOL     OW 6889   0.463   1.681   2.986 -0.3986 -0.2912  0.3304
    1SOL    HW2 6890   0.546   1.661   3.029  0.1724 -2.1914 -1.5519
    1SOL    HW3 6891   0.397   1.662   3.052  0.6297  1.5733  1.9768
    1SOL    MW4 6892   0.466   1.676   3.000 -0.1876 -0.2959  0.2995
    1SOL     OW 6893   0.491   1.937   3.100  0.2700 -0.1178 -0.2751
    1SOL    HW2 6894   0.478   1.859   3.046  0.5868  0.4053 -1.1328
    1SOL    HW3 6895   0.416   1.993   3.080  1.2778  0.8232 -1.5222
    1SOL    MW4 6896   0.480   1.934   3.090  0.4447  0.0753 -0.5529
    1SOL     OW 6897   0.716   2.063   2.995  0.2516  0.6604  0.2704
    1SOL    HW2 6898   0.783   2.014   3.044 -1.4552 -1.2877  0.7047
    1SOL    HW3 6899   0.633   2.021   3.019 -1.0352  2.3576 -1.0980
    1SOL    MW4 6900   0.714   2.051   3.005 -0.1434  0.6273  0.1476
    1SOL     OW 6901   0.711   2.335   3.108 -0.2657  0.4030 -0.3249
    1SOL    HW2 6902   0.708   2.327   3.204 -0.9364 -0.1484 -0.3906
    1SOL    HW3 6903   0.700   2.246   3.076 -0.0975  0.5929 -0.9240
    1SOL    MW4 6904   0.709   2.322   3.117 -0.3319  0.3555 -0.4129
    1SOL     OW 6905   0.456   2.426   3.019  0.0836 -0.3231 -0.1798
    1SOL    HW2 6906   0.541   2.388   3.039  0.8053  1.1563 -0.3106
    1SOL    HW3 6907   0.453   2.428   2.923 -0.9204 -2.1109 -0.2076
    1SOL    MW4 6908   0.467   2.421   3.009  0.0463 -0.3633 -0.2005
    1SOL     OW 6909   0.447   2.699   3.085  0.1100  0.0004  0.4280
    1SOL    HW2 6910   0.504   2.732   3.015 -0.8004 -0.2551 -0.4535
    1SOL    HW3 6911   0.452   2.604   3.076  2.0074 -0.1146  2.3713
    1SOL    MW4 6912   0.455   2.691   3.074  0.2403 -0.0486  0.5679
    1SOL     OW 6913   0.645   2.849   2.954 -0.3211 -0.4003 -0.3568
    1SOL    HW2 6914   0.717   2.796   2.989  1.6043  0.6686 -2.5324
    1SOL    HW3 6915   0.664   2.937   2.987 -1.4098 -0.3618  0.1686
    1SOL    MW4 6916   0.657   2.854   2.963 -0.2107 -0.2544 -0.5746
    1SOL     OW 6917   0.658   3.077   3.098 -0.1771  0.0127 -0.0712
    1SOL    HW2 6918   0.634   3.079   3.191  0.1899 -1.1281  0.0575
    1SOL    HW3 6919   0.585   3.119   3.053 -0.0606  1.1511  0.8008
    1SOL    MW4 6920   0.645   3.082   3.105 -0.1134  0.0124  0.0613
    1SOL     OW 6921   0.435   3.210   2.990  0.1249 -0.3306 -0.0071
    1SOL    HW2 6922   0.444   3.298   3.024 -0.3395 -0.5907  0.7926
    1SOL    HW3 6923   0.369   3.169   3.046  1.1051 -1.5212  0.3013
    1SOL    MW4 6924   0.427   3.216   3.002  0.1930 -0.5221  0.1390
    1SOL     OW 6925   0.450   3.452   3.135  0.2092  0.2857 -0.1566
    1SOL    HW2 6926   0.422   3.445   3.226 -3.4876 -1.1764 -1.2796
    1SOL    HW3 6927   0.376   3.495   3.091  1.4806  0.0443 -2.6277
    1SOL    MW4 6928   0.436   3.457   3.141 -0.1108  0.0608 -0.6306
    1SOL     OW 6929   0.662   3.575   3.018  0.0614  0.0356 -0.4908
    1SOL    HW2 6930   0.738   3.543   3.067  0.3982 -1.0709 -1.7059
    1SOL    HW3 6931   0.587   3.528   3.056  0.3383 -0.9250 -1.1114
    1SOL    MW4 6932   0.662   3.564   3.029  0.1424 -0.2370 -0.7327
    1SOL     OW 6933   0.660   3.835   3.105 -0.1296  0.3996 -0.8191
    1SOL    HW2 6934   0.647   3.838   3.200  0.8554  0.7413 -0.6877
    1SOL    HW3 6935   0.671   3.743   3.085  0.8879  0.4362 -0.4291
    1SOL    MW4 6936   0.660   3.823   3.115  0.1346  0.4494 -0.7505
    1SOL     OW 6937   0.446   4.014   3.030 -0.0409 -0.3405 -0.5934
    1SOL    HW2 6938   0.521   3.956   3.043 -1.1980 -1.6620  0.3471
    1SOL    HW3 6939   0.427   4.008   2.936  0.6152 -0.5327 -0.7154
    1SOL    MW4 6940   0.453   4.005   3.019 -0.1070 -0.5398 -0.4854
    1SOL     OW 6941   0.475   4.259   3.146  0.2740  0.0370  0.3401
    1SOL    HW2 6942   0.461   4.166   3.126 -0.2722 -0.0185  0.9325
    1SOL    HW3 6943   0.403   4.303   3.102  0.9948  0.2677 -0.6125
    1SOL    MW4 6944   0.463   4.252   3.137  0.2970  0.0601  0.2925
    1SOL     OW 6945   0.694   4.370   3.040 -0.5205  0.3563  0.3244
    1SOL    HW2 6946   0.611   4.333   3.068 -0.5133  0.8476  1.0184
    1SOL    HW3 6947   0.688   4.374   2.944 -1.5771  1.0492  0.4100
    1SOL    MW4 6948   0.683   4.365   3.031 -0.6590  0.5126  0.4272
    1SOL     OW 6949   1.113   4.627   3.127 -0.2327  0.1509  0.0511
    1SOL    HW2 6950   1.185   4.680   3.094 -0.2286 -0.0081 -0.1956
    1SOL    HW3 6951   1.034   4.674   3.100 -0.2225  0.9318  1.3006
    1SOL    MW4 6952   1.112   4.640   3.119 -0.2308  0.2332  0.1833
    1SOL     OW 6953   0.895   0.122   2.991 -0.0223 -0.0292 -0.2268
    1SOL    HW2 6954   0.890   0.204   3.040  1.7209  0.0262 -0.1080
    1SOL    HW3 6955   0.836   0.063   3.037 -0.1453  0.7085  0.5822
    1SOL    MW4 6956   0.887   0.125   3.004  0.1915  0.0755 -0.1042
    1SOL     OW 6957   0.909   0.385   3.071  0.0345  0.4543  0.4513
    1SOL    HW2 6958   0.928   0.383   3.164  0.9064 -0.3763  0.2643
    1SOL    HW3 6959   0.976   0.442   3.034  0.1770  0.1487  0.2329
    1SOL    MW4 6960   0.920   0.392   3.078  0.1683  0.3044  0.3977
    1SOL     OW 6961   1.139   0.539   2.987  0.1990 -0.1416 -0.5824
    1SOL    HW2 6962   1.198   0.469   3.015  0.3424 -0.3155 -1.3031
    1SOL    HW3 6963   1.126   0.523   2.893  2.0553  2.1329 -1.2751
    1SOL    MW4 6964   1.145   0.528   2.978  0.4629  0.1355 -0.7689
    1SOL     OW 6965   1.096   0.785   3.102  0.1576 -0.0953 -0.1575
    1SOL    HW2 6966   1.092   0.783   3.198 -1.2697 -1.0420 -0.2329
    1SOL    HW3 6967   1.099   0.694   3.076 -1.0221  0.1223 -1.0764
    1SOL    MW4 6968   1.096   0.773   3.111 -0.1863 -0.1916 -0.2890
    1SOL     OW 6969   0.884   0.922   3.015  0.0575  0.0430  0.1861
    1SOL    HW2 6970   0.887   1.015   3.041  1.5037  0.4032 -1.1927
    1SOL    HW3 6971   0.947   0.879   3.074 -0.4877 -0.0359  0.7127
    1SOL    MW4 6972   0.893   0.929   3.026  0.1764  0.0801  0.0734
    1SOL     OW 6973   0.910   1.193   3.104 -0.1236 -0.1141 -0.3904
    1SOL    HW2 6974   0.886   1.190   3.196  0.4511 -1.9431 -0.2915
    1SOL    HW3 6975   0.994   1.238   3.102  0.1079 -0.5344  0.0245
    1SOL    MW4 6976   0.918   1.199   3.116 -0.0172 -0.4108 -0.3228
    1SOL     OW 6977   1.159   1.308   3.027  0.1362  0.3916 -0.3577
    1SOL    HW2 6978   1.229   1.244   3.043 -0.6303 -0.1480  0.8548
    1SOL    HW3 6979   1.150   1.310   2.931 -0.5436 -2.0807 -0.3612
    1SOL    MW4 6980   1.167   1.300   3.016 -0.0546 -0.0056 -0.1981
    1SOL     OW 6981   1.117   1.570   3.120 -0.0858  0.1873 -0.5045
    1SOL    HW2 6982   1.199   1.617   3.103 -0.3308  0.7771 -0.0854
    1SOL    HW3 6983   1.133   1.481   3.088  0.9337  0.1249  0.1369
    1SOL    MW4 6984   1.130   1.564   3.114  0.0163  0.2569 -0.3645
    1SOL     OW 6985   0.908   1.672   2.992 -0.1300 -0.0393  0.3202
    1SOL    HW2 6986   0.975   1.629   3.046  0.2046  0.5180  0.3524
    1SOL    HW3 6987   0.825   1.642   3.029  0.1001  0.0686  0.9333
    1SOL    MW4 6988   0.906   1.663   3.004 -0.0555  0.0485  0.4058
    1SOL     OW 6989   0.983   1.928   3.104  0.3683 -0.2269  0.1664
    1SOL    HW2 6990   0.972   1.921   3.199  0.8221  0.5887  0.2891
    1SOL    HW3 6991   0.960   1.841   3.070 -1.9072  0.0952  0.8036
    1SOL    MW4 6992   0.979   1.916   3.112  0.1280 -0.0767  0.2666
    1SOL     OW 6993   1.149   2.119   3.004 -0.3200  0.7244  0.3958
    1SOL    HW2 6994   1.084   2.060   3.042  0.5813 -0.1086  0.6872
    1SOL    HW3 6995   1.145   2.101   2.910 -0.6336  0.8043  0.3935
    1SOL    MW4 6996   1.140   2.108   2.996 -0.2425  0.6251  0.4339
    1SOL     OW 6997   1.163   2.359   3.134  0.1000 -0.1776 -0.1891
    1SOL    HW2 6998   1.095   2.410   3.090  1.2231  0.7914 -0.8452
    1SOL    HW3 6999   1.172   2.280   3.081 -1.3126 -0.8691  0.5615
    1SOL    MW4 7000   1.155   2.355   3.121  0.0618 -0.1409 -0.1764
    1SOL     OW 7001   0.937   2.473   3.006 -0.4062 -0.0146  0.3041
    1SOL    HW2 7002   0.857   2.432   3.040 -1.6262  2.4057  0.4465
    1SOL    HW3 7003   0.933   2.458   2.912 -0.8008 -0.3029  0.3635
    1SOL    MW4 7004   0.926   2.466   2.998 -0.6192  0.2663  0.3309
    1SOL     OW 7005   0.869   2.717   3.087 -0.1697  0.6785 -0.1297
    1SOL    HW2 7006   0.858   2.703   3.181 -0.6309  2.4762  0.1006
    1SOL    HW3 7007   0.896   2.632   3.053  0.2738  0.0831  1.6705
    1SOL    MW4 7008   0.871   2.704   3.095 -0.1721  0.8371  0.1380
    1SOL     OW 7009   1.126   2.828   3.016 -0.1452 -0.0982  0.7109
    1SOL    HW2 7010   1.114   2.916   3.051 -0.4864  0.1390  0.0102
    1SOL    HW3 7011   1.043   2.784   3.032 -0.4369  0.1316 -0.1233
    1SOL    MW4 7012   1.113   2.834   3.023 -0.2288 -0.0365  0.5083
    1SOL     OW 7013   1.130   3.084   3.130  0.4239 -0.0888  0.2074
    1SOL    HW2 7014   1.207   3.132   3.099  0.7793 -0.1858  0.9152
    1SOL    HW3 7015   1.056   3.134   3.097  0.7809  1.9725  2.3635
    1SOL    MW4 7016   1.130   3.097   3.122  0.5180  0.1707  0.5853
    1SOL     OW 7017   0.906   3.198   3.030  0.0328  0.1002  0.3196
    1SOL    HW2 7018   0.822   3.153   3.043  0.7025 -1.0328  0.7835
    1SOL    HW3 7019   0.914   3.206   2.935  0.4157 -1.7774  0.1702
    1SOL    MW4 7020   0.896   3.193   3.019  0.1717 -0.2971  0.3610
    1SOL     OW 7021   0.901   3.484   3.124 -0.1158 -0.5134  0.2679
    1SOL    HW2 7022   0.980   3.522   3.086  0.8455 -2.5140  0.1815
    1SOL    HW3 7023   0.905   3.391   3.099 -1.5740 -1.0001  1.7592
    1SOL    MW4 7024   0.912   3.476   3.116 -0.1813 -0.8416  0.4532
    1SOL     OW 7025   1.113   3.620   3.015 -0.2901 -0.8203  0.1809
    1SOL    HW2 7026   1.190   3.574   3.048 -1.0575 -1.5085  1.0254
    1SOL    HW3 7027   1.115   3.705   3.058  0.7746 -0.2908 -0.8868
    1SOL    MW4 7028   1.123   3.625   3.025 -0.2509 -0.8414  0.1516
    1SOL     OW 7029   1.132   3.860   3.114  0.2626 -0.0473 -0.1056
    1SOL    HW2 7030   1.125   3.886   3.205 -0.7402 -0.9818  0.0911
    1SOL    HW3 7031   1.058   3.903   3.071  0.5891  0.1920 -0.4318
    1SOL    MW4 7032   1.121   3.869   3.120  0.1733 -0.1390 -0.1225
    1SOL     OW 7033   0.897   3.995   3.020  0.6488 -0.2638  0.6111
    1SOL    HW2 7034   0.819   3.947   3.046 -0.5505  1.2303 -0.1915
    1SOL    HW3 7035   0.903   3.984   2.925  0.9508  0.2965  0.5591
    1SOL    MW4 7036   0.888   3.987   3.011  0.5304  0.0072  0.4985
    1SOL     OW 7037   0.925   4.248   3.117 -0.0200 -0.1864 -0.1831
    1SOL    HW2 7038   0.922   4.162   3.076  0.2228  0.1827 -0.9800
    1SOL    HW3 7039   0.846   4.292   3.087 -0.9128 -0.6644  1.4198
    1SOL    MW4 7040   0.914   4.242   3.107 -0.1057 -0.2012 -0.0768
    1SOL     OW 7041   1.119   4.393   2.984 -0.2882  0.0308  0.3794
    1SOL    HW2 7042   1.049   4.341   3.024 -0.4726 -0.6158 -0.7690
    1SOL    HW3 7043   1.114   4.478   3.028 -0.4426 -0.6909  1.7766
    1SOL    MW4 7044   1.109   4.397   2.995 -0.3328 -0.1493  0.4122
    1SOL     OW 7045   1.523   4.655   3.111 -0.4168 -0.0530 -0.1807
    1SOL    HW2 7046   1.514   4.647   3.206 -1.2173 -0.9798 -0.3291
    1SOL    HW3 7047   1.448   4.708   3.084 -1.1019 -1.1555 -0.4820
    1SOL    MW4 7048   1.512   4.661   3.120 -0.6129 -0.3209 -0.2401
    1SOL     OW 7049   1.301   0.114   2.996  0.1054 -0.1826  0.4117
    1SOL    HW2 7050   1.323   0.200   3.032 -0.2529 -0.3120  0.9362
    1SOL    HW3 7051   1.313   0.124   2.902  0.8527  0.2117  0.5445
    1SOL    MW4 7052   1.306   0.127   2.988  0.1568 -0.1476  0.4985
    1SOL     OW 7053   1.345   0.366   3.101 -0.2657 -0.5925  0.6586
    1SOL    HW2 7054   1.347   0.378   3.196 -0.2126  0.5804  0.5187
    1SOL    HW3 7055   1.419   0.417   3.069 -1.2220  0.3076 -0.1491
    1SOL    MW4 7056   1.355   0.374   3.109 -0.3849 -0.3190  0.5338
    1SOL     OW 7057   1.562   0.500   3.003 -0.0990 -0.7918  0.1848
    1SOL    HW2 7058   1.570   0.589   3.038 -1.4433 -0.9025  0.8224
    1SOL    HW3 7059   1.571   0.511   2.908  0.1514 -0.0235  0.2960
    1SOL    MW4 7060   1.564   0.513   2.995 -0.2433 -0.7050  0.2832
    1SOL     OW 7061   1.552   0.761   3.108  0.2194 -0.2795 -0.4451
    1SOL    HW2 7062   1.540   0.764   3.203  2.2094 -0.4559 -0.1500
    1SOL    HW3 7063   1.479   0.811   3.073 -1.1244 -1.1085  1.1256
    1SOL    MW4 7064   1.541   0.768   3.116  0.3046 -0.4123 -0.1988
    1SOL     OW 7065   1.342   0.874   2.984  0.0314 -0.3385  0.2421
    1SOL    HW2 7066   1.333   0.962   3.020  1.0317 -0.1017 -0.0696
    1SOL    HW3 7067   1.267   0.825   3.019  0.8875 -0.0773  2.4941
    1SOL    MW4 7068   1.331   0.879   2.993  0.2764 -0.2729  0.4981
    1SOL     OW 7069   1.347   1.116   3.098  0.3757 -0.1455 -0.1450
    1SOL    HW2 7070   1.353   1.125   3.193  1.1441  2.5586 -0.3951
    1SOL    HW3 7071   1.417   1.172   3.064 -0.7057 -0.0469 -2.3219
    1SOL    MW4 7072   1.357   1.125   3.106  0.3345  0.2244 -0.4652
    1SOL     OW 7073   1.538   1.295   3.008  0.1254  0.1821 -0.0036
    1SOL    HW2 7074   1.618   1.254   3.041  1.1239  1.2991 -0.9758
    1SOL    HW3 7075   1.531   1.377   3.057 -0.9216 -0.3370  0.7174
    1SOL    MW4 7076   1.548   1.300   3.019  0.1191  0.2611 -0.0367
    1SOL     OW 7077   1.619   1.534   3.130  0.0223  0.0184  0.2677
    1SOL    HW2 7078   1.687   1.583   3.086  1.1899 -0.6844  1.2438
    1SOL    HW3 7079   1.537   1.573   3.100  0.8901  1.8444  0.2197
    1SOL    MW4 7080   1.617   1.545   3.120  0.2909  0.1667  0.3901
    1SOL     OW 7081   1.389   1.659   3.054  0.1870  0.0437 -0.0198
    1SOL    HW2 7082   1.390   1.754   3.068  1.5886 -0.1212  1.1039
    1SOL    HW3 7083   1.388   1.650   2.958 -0.2074  1.1844 -0.1368
    1SOL    MW4 7084   1.389   1.671   3.043  0.3198  0.1725  0.1130
    1SOL     OW 7085   1.354   1.937   3.102 -0.1178  0.2357  0.0141
    1SOL    HW2 7086   1.353   1.953   3.196  0.3722  0.6797 -0.0521
    1SOL    HW3 7087   1.282   1.991   3.068 -0.1617  0.2365  0.1074
    1SOL    MW4 7088   1.344   1.946   3.110 -0.0590  0.2943  0.0176
    1SOL     OW 7089   1.598   2.034   3.010  0.2204  0.7221 -0.1718
    1SOL    HW2 7090   1.518   1.989   3.037  1.5971 -2.7583 -1.6278
    1SOL    HW3 7091   1.586   2.050   2.916  0.6956  1.3459 -0.1282
    1SOL    MW4 7092   1.586   2.030   3.001  0.4648  0.3452 -0.3581
    1SOL     OW 7093   1.573   2.303   3.110  0.3092  0.4089 -0.7175
    1SOL    HW2 7094   1.512   2.359   3.063 -0.2636 -1.0362 -1.7049
    1SOL    HW3 7095   1.567   2.218   3.066  2.7554  0.1461 -0.6104
    1SOL    MW4 7096   1.564   2.299   3.098  0.5563  0.1838 -0.8337
    1SOL     OW 7097   1.376   2.465   2.980 -0.3882 -0.0149 -0.1030
    1SOL    HW2 7098   1.300   2.433   3.029  0.0203  0.0224  0.5705
    1SOL    HW3 7099   1.344   2.478   2.891 -0.9081 -1.0047 -0.0714
    1SOL    MW4 7100   1.362   2.462   2.975 -0.4028 -0.1407 -0.0100
    1SOL     OW 7101   1.369   2.748   3.081 -0.1507 -0.0994 -0.0875
    1SOL    HW2 7102   1.376   2.659   3.045 -0.6043 -0.0607 -0.2711
    1SOL    HW3 7103   1.283   2.779   3.053  0.3358  0.7010 -0.6960
    1SOL    MW4 7104   1.358   2.740   3.073 -0.1463  0.0117 -0.1922
    1SOL     OW 7105   1.627   2.880   3.040  0.6304 -0.4161  0.1068
    1SOL    HW2 7106   1.685   2.805   3.053 -0.4398 -1.3933 -0.6962
    1SOL    HW3 7107   1.542   2.852   3.074  0.4861  0.8352  0.8362
    1SOL    MW4 7108   1.624   2.867   3.046  0.4702 -0.3800  0.0970
    1SOL     OW 7109   1.630   3.128   3.183 -0.1850  0.0531 -0.3595
    1SOL    HW2 7110   1.607   3.119   3.275 -2.3495 -0.0536 -0.8770
    1SOL    HW3 7111   1.638   3.038   3.152 -0.1729  0.0789 -0.4309
    1SOL    MW4 7112   1.628   3.115   3.191 -0.4690  0.0427 -0.4373
    1SOL     OW 7113   1.378   3.227   3.085 -0.6298 -0.1626 -0.1590
    1SOL    HW2 7114   1.450   3.180   3.126 -1.1205 -0.8729 -0.0898
    1SOL    HW3 7115   1.389   3.211   2.991  0.8259  1.9453 -0.3658
    1SOL    MW4 7116   1.389   3.219   3.078 -0.5025  0.0219 -0.1771
    1SOL     OW 7117   1.330   3.494   3.129 -0.2309  0.1149 -0.0460
    1SOL    HW2 7118   1.319   3.503   3.224  1.3199 -2.2073  0.4195
    1SOL    HW3 7119   1.343   3.400   3.116  0.2690  0.4958 -2.4864
    1SOL    MW4 7120   1.330   3.482   3.140  0.0396 -0.1414 -0.3066
    1SOL     OW 7121   1.578   3.585   3.035 -0.2110 -0.5026  0.4556
    1SOL    HW2 7122   1.501   3.542   3.074 -1.7113  0.2071 -1.6591
    1SOL    HW3 7123   1.566   3.575   2.941  1.5185  0.9968  0.0538
    1SOL    MW4 7124   1.566   3.578   3.028 -0.1807 -0.2110  0.1237
    1SOL     OW 7125   1.582   3.853   3.134  0.2069  0.3250  0.1967
    1SOL    HW2 7126   1.659   3.898   3.100 -0.2081  0.9046  0.0232
    1SOL    HW3 7127   1.580   3.769   3.087 -0.5743  1.2711 -1.4979
    1SOL    MW4 7128   1.592   3.848   3.123  0.0490  0.5264 -0.0498
    1SOL     OW 7129   1.358   3.994   3.019  0.5842 -0.0001  0.1560
    1SOL    HW2 7130   1.427   3.936   3.048  0.2595  0.4992  1.9760
    1SOL    HW3 7131   1.277   3.955   3.053 -0.0238 -0.4809 -1.7873
    1SOL    MW4 7132   1.356   3.981   3.027  0.4612  0.0024  0.1397
    1SOL     OW 7133   1.319   4.252   3.129 -0.0191 -0.1777 -0.1919
    1SOL    HW2 7134   1.338   4.166   3.090 -1.3927 -0.6938  0.2344
    1SOL    HW3 7135   1.247   4.286   3.075 -1.0535 -0.3317  1.0610
    1SOL    MW4 7136   1.312   4.245   3.117 -0.3368 -0.2666  0.0298
    1SOL     OW 7137   1.523   4.398   2.998 -0.1698 -0.3034 -0.3130
    1SOL    HW2 7138   1.465   4.343   3.050  1.0145 -1.1719  0.1008
    1SOL    HW3 7139   1.515   4.485   3.037 -0.3411 -0.6556  0.4407
    1SOL    MW4 7140   1.514   4.402   3.010 -0.0361 -0.4644 -0.1590
    1SOL     OW 7141   2.052   4.623   3.133  0.2619  0.4464 -0.3766
    1SOL    HW2 7142   2.065   4.642   3.226  0.8953  0.0511 -0.3776
    1SOL    HW3 7143   1.967   4.661   3.112 -0.7580 -1.1209  0.8280
    1SOL    MW4 7144   2.043   4.631   3.143  0.2110  0.1874 -0.2179
    1SOL     OW 7145   1.784   0.065   3.042  0.1972  0.6943  0.1277
    1SOL    HW2 7146   1.702   0.028   3.075  0.7221 -0.0027  0.6828
    1SOL    HW3 7147   1.767   0.085   2.950 -0.2726 -0.4227 -0.0394
    1SOL    MW4 7148   1.771   0.063   3.034  0.2044  0.4550  0.1788
    1SOL     OW 7149   1.761   0.330   3.111  0.1122 -0.0315 -0.1701
    1SOL    HW2 7150   1.762   0.236   3.090 -0.4182 -0.0017 -0.3229
    1SOL    HW3 7151   1.686   0.365   3.064 -1.0780  0.0475  1.7409
    1SOL    MW4 7152   1.751   0.322   3.102 -0.1148 -0.0171  0.0620
    1SOL     OW 7153   1.997   0.467   2.964  0.6161  0.3989  0.3899
    1SOL    HW2 7154   1.921   0.420   2.998  1.0002 -1.7332 -1.5336
    1SOL    HW3 7155   2.071   0.429   3.011  0.8985 -0.7295 -0.9453
    1SOL    MW4 7156   1.997   0.456   2.975  0.7041 -0.0313 -0.0401
    1SOL     OW 7157   2.028   0.717   3.091 -0.4509 -0.3394  0.5771
    1SOL    HW2 7158   1.951   0.772   3.077 -0.3168 -0.1021  0.7739
    1SOL    HW3 7159   2.007   0.635   3.045 -0.5329 -0.0239  0.0398
    1SOL    MW4 7160   2.015   0.714   3.083 -0.4439 -0.2665  0.5319
    1SOL     OW 7161   1.805   0.890   3.035 -0.6835  0.0882 -0.2006
    1SOL    HW2 7162   1.725   0.840   3.049 -1.3094  0.9984 -0.4610
    1SOL    HW3 7163   1.806   0.907   2.941 -0.2875  0.2422 -0.1698
    1SOL    MW4 7164   1.794   0.886   3.024 -0.7138  0.2286 -0.2308
    1SOL     OW 7165   1.768   1.161   3.100 -0.8559 -0.2863  0.2808
    1SOL    HW2 7166   1.774   1.166   3.196 -1.7904  1.0004  0.2837
    1SOL    HW3 7167   1.785   1.069   3.080  2.1638 -0.0468  1.4684
    1SOL    MW4 7168   1.771   1.149   3.110 -0.5808 -0.0850  0.4380
    1SOL     OW 7169   2.012   1.294   3.007  0.4070 -0.0644 -0.3288
    1SOL    HW2 7170   2.079   1.242   3.051 -0.8153  0.2287  1.9028
    1SOL    HW3 7171   1.929   1.260   3.039 -0.4630  1.4042 -0.9685
    1SOL    MW4 7172   2.010   1.283   3.017  0.1309  0.1680 -0.1190
    1SOL     OW 7173   1.998   1.560   3.107  0.6093 -0.0330 -0.1104
    1SOL    HW2 7174   2.004   1.567   3.202 -2.5259  1.4892  0.0536
    1SOL    HW3 7175   2.008   1.466   3.089 -0.2820 -0.5388  1.8659
    1SOL    MW4 7176   2.000   1.548   3.117  0.0782  0.1011  0.1719
    1SOL     OW 7177   1.791   1.724   2.999 -0.5557 -0.3328  0.3297
    1SOL    HW2 7178   1.817   1.808   3.036 -1.0884 -0.6647  1.5047
    1SOL    HW3 7179   1.862   1.664   3.024 -0.5678 -0.4031  0.1962
    1SOL    MW4 7180   1.804   1.727   3.007 -0.6275 -0.3859  0.4671
    1SOL     OW 7181   1.844   1.974   3.115  0.3403 -0.4031 -0.4483
    1SOL    HW2 7182   1.912   2.019   3.065  1.0925  1.7854  2.4386
    1SOL    HW3 7183   1.762   2.003   3.075  0.9207  1.3356 -0.3900
    1SOL    MW4 7184   1.842   1.983   3.103  0.5162  0.1150 -0.0596
    1SOL     OW 7185   2.038   2.078   2.963  0.0156  0.1822 -0.2616
    1SOL    HW2 7186   2.111   2.020   2.986 -0.2867  0.2434  0.8674
    1SOL    HW3 7187   2.056   2.159   3.010  0.1902  0.8653 -1.4749
    1SOL    MW4 7188   2.050   2.081   2.972 -0.0012  0.2801 -0.2728
    1SOL     OW 7189   2.014   2.322   3.094 -0.3108  0.2556  0.2961
    1SOL    HW2 7190   2.089   2.364   3.053  0.2293 -0.6334  0.3640
    1SOL    HW3 7191   1.938   2.366   3.056  0.2014 -0.1322 -1.1813
    1SOL    MW4 7192   2.014   2.334   3.084 -0.1719  0.0870  0.1099
    1SOL     OW 7193   1.789   2.438   2.997 -0.1797 -0.3671 -0.2112
    1SOL    HW2 7194   1.790   2.522   3.042  1.4888 -1.0002  1.0216
    1SOL    HW3 7195   1.717   2.389   3.037 -1.3159  0.5607 -1.1156
    1SOL    MW4 7196   1.780   2.442   3.008 -0.1097 -0.3283 -0.1678
    1SOL     OW 7197   1.807   2.685   3.123 -0.0428  0.3049  0.2854
    1SOL    HW2 7198   1.804   2.711   3.215 -0.5219  0.0564  0.3419
    1SOL    HW3 7199   1.880   2.734   3.086  0.0730  0.4969  0.7718
    1SOL    MW4 7200   1.816   2.695   3.130 -0.0907  0.2975  0.3569
    1SOL     OW 7201   2.022   2.796   3.015 -0.0309 -0.5711  0.1744
    1SOL    HW2 7202   2.012   2.886   3.045 -0.6451 -0.8238  0.7322
    1SOL    HW3 7203   2.013   2.802   2.920 -2.3026 -0.3244  0.3721
    1SOL    MW4 7204   2.020   2.808   3.006 -0.4117 -0.5717  0.2739
    1SOL     OW 7205   2.034   3.056   3.102 -0.4801 -0.2670  0.0622
    1SOL    HW2 7206   2.027   3.059   3.197  0.3440 -0.1567  0.1209
    1SOL    HW3 7207   1.978   3.128   3.071 -0.7032 -0.2697  0.4617
    1SOL    MW4 7208   2.025   3.066   3.110 -0.4008 -0.2530  0.1228
    1SOL     OW 7209   1.843   3.242   3.049 -0.0685  0.3579 -0.1273
    1SOL    HW2 7210   1.777   3.187   3.092 -0.5899  1.2523  0.2270
    1SOL    HW3 7211   1.817   3.242   2.957 -1.1641  1.5263  0.1671
    1SOL    MW4 7212   1.831   3.234   3.042 -0.2818  0.6301 -0.0420
    1SOL     OW 7213   1.807   3.485   3.170  0.1761 -0.2784  0.1648
    1SOL    HW2 7214   1.816   3.397   3.133  1.5274 -0.2912  0.5207
    1SOL    HW3 7215   1.728   3.520   3.129  0.6987 -0.9422 -1.4347
    1SOL    MW4 7216   1.798   3.478   3.160  0.4234 -0.3676  0.0007
    1SOL     OW 7217   2.016   3.611   3.025  0.0623 -0.5098  0.0052
    1SOL    HW2 7218   2.025   3.703   3.048 -0.5236 -0.3402 -0.4111
    1SOL    HW3 7219   1.934   3.583   3.067 -1.2791 -0.0609 -2.2221
    1SOL    MW4 7220   2.006   3.619   3.033 -0.1919 -0.4282 -0.3433
    1SOL     OW 7221   2.037   3.872   3.106  0.1818  0.3322  0.0167
    1SOL    HW2 7222   2.031   3.872   3.202 -1.2032  2.0032 -0.0417
    1SOL    HW3 7223   1.962   3.925   3.078 -0.1217 -1.1464 -2.0403
    1SOL    MW4 7224   2.026   3.879   3.115 -0.0408  0.3574 -0.2627
    1SOL     OW 7225   1.799   4.005   3.052 -0.3175  0.1483 -0.2031
    1SOL    HW2 7226   1.782   4.097   3.072  0.7971  0.2432  0.3608
    1SOL    HW3 7227   1.794   3.999   2.957 -0.2688  0.8262 -0.2455
    1SOL    MW4 7228   1.796   4.016   3.042 -0.1640  0.2503 -0.1342
    1SOL     OW 7229   1.730   4.265   3.120 -0.3085  0.2828 -0.8379
    1SOL    HW2 7230   1.808   4.313   3.093  0.0853 -0.4753 -1.0675
    1SOL    HW3 7231   1.659   4.305   3.070  0.0411  0.5048 -1.1640
    1SOL    MW4 7232   1.731   4.276   3.110 -0.2104  0.2117 -0.9115
    1SOL     OW 7233   1.996   4.367   3.069  0.2664  0.3684  0.4039
    1SOL    HW2 7234   2.026   4.452   3.100  0.8069 -0.0358  0.9847
    1SOL    HW3 7235   2.018   4.366   2.975  0.3999  0.8033  0.4322
    1SOL    MW4 7236   2.003   4.378   3.060  0.3555  0.3719  0.4842
    1SOL     OW 7237   2.502   4.642   3.131 -0.1965  0.1367  0.3890
    1SOL    HW2 7238   2.492   4.547   3.129 -0.7513  0.2147 -1.6311
    1SOL    HW3 7239   2.416   4.676   3.105  0.5905  1.1337 -0.9809
    1SOL    MW4 7240   2.489   4.634   3.127 -0.1657  0.2785 -0.0584
    1SOL     OW 7241   2.256   0.105   3.028  0.7093 -0.1130 -0.1375
    1SOL    HW2 7242   2.253   0.194   3.064  1.0987  0.0698 -0.5395
    1SOL    HW3 7243   2.187   0.058   3.074  0.2186  0.5144 -0.2199
    1SOL    MW4 7244   2.246   0.111   3.039  0.6959 -0.0061 -0.2012
    1SOL     OW 7245   2.227   0.361   3.104 -0.1470  0.5744  0.1492
    1SOL    HW2 7246   2.221   0.363   3.200  0.8599  0.3983  0.2247
    1SOL    HW3 7247   2.307   0.411   3.085 -0.3581  0.6240 -0.6024
    1SOL    MW4 7248   2.237   0.368   3.114 -0.0417  0.5577  0.0598
    1SOL     OW 7249   2.452   0.527   3.017  0.6163 -0.5076 -0.1607
    1SOL    HW2 7250   2.536   0.485   3.037  0.1116 -1.3989  0.0568
    1SOL    HW3 7251   2.443   0.519   2.922  1.1695  0.3296 -0.2936
    1SOL    MW4 7252   2.462   0.521   3.007  0.6225 -0.5147 -0.1495
    1SOL     OW 7253   2.465   0.789   3.110 -0.2609  0.5175  0.1866
    1SOL    HW2 7254   2.551   0.825   3.087  0.6129 -0.9507  1.1242
    1SOL    HW3 7255   2.469   0.698   3.083 -1.4207  0.3599  0.5384
    1SOL    MW4 7256   2.477   0.782   3.104 -0.2987  0.3030  0.3567
    1SOL     OW 7257   2.214   0.900   3.039 -0.0260 -0.1238 -0.0085
    1SOL    HW2 7258   2.302   0.874   3.066 -0.6252 -2.3609 -0.0803
    1SOL    HW3 7259   2.158   0.830   3.071 -1.7641  1.2020 -0.1038
    1SOL    MW4 7260   2.218   0.887   3.046 -0.3343 -0.2440 -0.0308
    1SOL     OW 7261   2.221   1.167   3.123  0.0014  0.4394  0.2303
    1SOL    HW2 7262   2.207   1.169   3.217  0.5593 -0.6678  0.3422
    1SOL    HW3 7263   2.212   1.075   3.099 -1.4381  0.8837 -0.9986
    1SOL    MW4 7264   2.218   1.155   3.132 -0.1149  0.3519  0.0830
    1SOL     OW 7265   2.481   1.262   3.066 -0.3313 -0.2899  0.0070
    1SOL    HW2 7266   2.400   1.214   3.082 -0.4760  0.2893  1.0244
    1SOL    HW3 7267   2.484   1.274   2.971 -1.4750 -0.2305 -0.0231
    1SOL    MW4 7268   2.471   1.257   3.055 -0.5012 -0.2056  0.1371
    1SOL     OW 7269   2.489   1.546   3.137 -0.3039 -0.6921 -0.1799
    1SOL    HW2 7270   2.413   1.589   3.097  0.2109 -0.3450 -0.7996
    1SOL    HW3 7271   2.474   1.452   3.121  0.3209 -0.5043 -1.9736
    1SOL    MW4 7272   2.477   1.539   3.130 -0.1538 -0.6214 -0.4983
    1SOL     OW 7273   2.247   1.650   3.005 -0.1923  0.4458 -0.5762
    1SOL    HW2 7274   2.161   1.615   3.029 -0.8202  1.8729 -0.7249
    1SOL    HW3 7275   2.243   1.657   2.909  0.6399 -0.8758 -0.7273
    1SOL    MW4 7276   2.235   1.646   2.995 -0.1655  0.4597 -0.6158
    1SOL     OW 7277   2.241   1.915   3.086  0.1057  0.4942 -0.1142
    1SOL    HW2 7278   2.332   1.945   3.078  0.4457 -0.4800 -0.0244
    1SOL    HW3 7279   2.244   1.823   3.061 -0.5416 -0.0296  1.6407
    1SOL    MW4 7280   2.254   1.907   3.082  0.0656  0.2966  0.1292
    1SOL     OW 7281   2.473   2.052   3.039  0.3449  0.2427 -0.4776
    1SOL    HW2 7282   2.552   2.000   3.054 -0.9226 -1.5068  0.2925
    1SOL    HW3 7283   2.456   2.045   2.945  0.5939 -0.1211 -0.4934
    1SOL    MW4 7284   2.481   2.044   3.029  0.2105 -0.0362 -0.3779
    1SOL     OW 7285   2.479   2.313   3.129  0.2837  0.2139 -0.2172
    1SOL    HW2 7286   2.486   2.321   3.224  1.5511  0.8558 -0.3534
    1SOL    HW3 7287   2.493   2.220   3.112  1.2133  0.2798  0.1427
    1SOL    MW4 7288   2.482   2.302   3.140  0.5736  0.3071 -0.1876
    1SOL     OW 7289   2.258   2.426   3.004 -0.1131  0.4872 -0.8667
    1SOL    HW2 7290   2.261   2.507   3.054 -0.3780  0.3555 -0.6351
    1SOL    HW3 7291   2.325   2.370   3.044 -1.9255 -0.4945  0.8795
    1SOL    MW4 7292   2.268   2.429   3.015 -0.3872  0.3405 -0.6058
    1SOL     OW 7293   2.241   2.668   3.140 -0.0607  0.0617 -0.4925
    1SOL    HW2 7294   2.320   2.699   3.096 -0.4218  0.9112 -0.5322
    1SOL    HW3 7295   2.170   2.719   3.103 -0.3360  1.0232  1.2799
    1SOL    MW4 7296   2.242   2.679   3.129 -0.1447  0.3006 -0.2639
    1SOL     OW 7297   2.471   2.799   2.986  0.0130  0.5020  0.8099
    1SOL    HW2 7298   2.466   2.881   3.034  3.0054  0.5561  1.1147
    1SOL    HW3 7299   2.457   2.823   2.894  1.4155  1.4133  0.8388
    1SOL    MW4 7300   2.468   2.813   2.980  0.5929  0.6294  0.8535
    1SOL     OW 7301   2.484   3.049   3.084 -0.3660 -0.5274  0.0375
    1SOL    HW2 7302   2.558   3.092   3.042 -0.1214 -1.1217 -0.1474
    1SOL    HW3 7303   2.407   3.096   3.051 -0.2531 -1.6792 -1.9533
    1SOL    MW4 7304   2.484   3.061   3.074 -0.3185 -0.7579 -0.2494
    1SOL     OW 7305   2.263   3.197   3.027  0.4908  0.2496  0.2692
    1SOL    HW2 7306   2.256   3.284   3.066 -1.3649  0.3643 -0.2679
    1SOL    HW3 7307   2.190   3.148   3.065  0.8909 -0.7420 -0.2276
    1SOL    MW4 7308   2.252   3.202   3.037  0.2985  0.1338  0.1326
    1SOL     OW 7309   2.247   3.459   3.118 -0.1436 -0.0631 -0.2557
    1SOL    HW2 7310   2.311   3.498   3.058 -0.8739 -1.0344 -1.6857
    1SOL    HW3 7311   2.164   3.498   3.094 -0.4479 -0.4830  0.1034
    1SOL    MW4 7312   2.245   3.469   3.107 -0.2799 -0.2468 -0.3970
    1SOL     OW 7313   2.442   3.600   2.961  0.7170 -0.2990  0.0732
    1SOL    HW2 7314   2.519   3.558   2.999  0.4713 -0.6462  0.1922
    1SOL    HW3 7315   2.437   3.685   3.005  0.9646 -0.3245  0.1510
    1SOL    MW4 7316   2.451   3.606   2.972  0.7174 -0.3483  0.0992
    1SOL     OW 7317   2.463   3.846   3.102 -0.5242  0.0073  0.7710
    1SOL    HW2 7318   2.460   3.852   3.198  0.9010 -2.0161  0.9838
    1SOL    HW3 7319   2.546   3.888   3.079 -0.9920  0.7256  0.3971
    1SOL    MW4 7320   2.474   3.853   3.112 -0.3977 -0.1652  0.7498
    1SOL     OW 7321   2.251   4.017   3.031  0.1348 -0.5368  0.0626
    1SOL    HW2 7322   2.323   3.960   3.058 -0.5144 -1.0417  0.7917
    1SOL    HW3 7323   2.172   3.971   3.062 -0.6115 -0.8264 -2.1948
    1SOL    MW4 7324   2.250   4.003   3.039 -0.0496 -0.6413 -0.1390
    1SOL     OW 7325   2.256   4.266   3.120  0.0725 -0.4150  0.2429
    1SOL    HW2 7326   2.249   4.178   3.083 -1.8119 -0.3708  0.4468
    1SOL    HW3 7327   2.173   4.308   3.097 -0.0546  0.4971  2.2619
    1SOL    MW4 7328   2.244   4.260   3.112 -0.1931 -0.2885  0.5364
    1SOL     OW 7329   2.499   4.379   3.028  0.1329 -0.1436  0.5096
    1SOL    HW2 7330   2.425   4.325   3.056  0.1247 -0.1591  0.4575
    1SOL    HW3 7331   2.499   4.372   2.933  0.6701 -0.7670  0.5546
    1SOL    MW4 7332   2.489   4.371   3.020  0.2027 -0.2279  0.5085
    1SOL     OW 7333   2.944   0.043   3.152  0.5581 -0.0902 -0.1605
    1SOL    HW2 7334   3.024   0.077   3.112  0.2715 -1.3349 -1.8470
    1SOL    HW3 7335   2.954  -0.052   3.147 -0.1653 -0.2611  1.3969
    1SOL    MW4 7336   2.956   0.035   3.146  0.4246 -0.2769 -0.1774
    1SOL     OW 7337   2.715   0.136   3.031  0.0607  0.1276  0.4624
    1SOL    HW2 7338   2.797   0.101   3.066  0.0994  0.6873  0.9435
    1SOL    HW3 7339   2.648   0.078   3.064  0.3468 -0.8540 -0.6624
    1SOL    MW4 7340   2.717   0.124   3.040  0.1037  0.0719  0.3774
    1SOL     OW 7341   2.691   0.405   3.108  0.3345  0.6785 -0.2387
    1SOL    HW2 7342   2.697   0.316   3.074 -0.7231  0.8192 -0.7931
    1SOL    HW3 7343   2.668   0.394   3.201 -0.6712  0.3982 -0.5209
    1SOL    MW4 7344   2.689   0.392   3.116  0.0622  0.6601 -0.3490
    1SOL     OW 7345   2.960   0.480   3.021  0.0784  0.4744 -0.2728
    1SOL    HW2 7346   2.873   0.459   3.055  0.9031 -2.9687 -0.0829
    1SOL    HW3 7347   2.955   0.460   2.927  0.2981  1.5044 -0.5057
    1SOL    MW4 7348   2.948   0.474   3.013  0.2160  0.1560 -0.2785
    1SOL     OW 7349   2.916   0.735   3.050  0.0339 -0.1511  0.3991
    1SOL    HW2 7350   2.911   0.746   3.145  0.8236  0.0748  0.4118
    1SOL    HW3 7351   2.942   0.644   3.037  0.5087 -0.0147  0.4058
    1SOL    MW4 7352   2.919   0.725   3.061  0.2010 -0.1034  0.4017
    1SOL     OW 7353   2.695   0.906   3.013 -0.2597  0.1062 -0.2277
    1SOL    HW2 7354   2.715   0.988   3.060 -0.5261 -1.3715  2.5667
    1SOL    HW3 7355   2.772   0.851   3.029 -1.3814 -1.2820  0.5058
    1SOL    MW4 7356   2.708   0.910   3.021 -0.4427 -0.2720  0.2379
    1SOL     OW 7357   2.734   1.146   3.136  0.0349 -0.3654 -0.4096
    1SOL    HW2 7358   2.796   1.197   3.085 -0.5224  2.6872  1.8149
    1SOL    HW3 7359   2.649   1.184   3.115 -0.4763 -0.8669  0.7177
    1SOL    MW4 7360   2.731   1.158   3.126 -0.1061 -0.0287  0.0327
    1SOL     OW 7361   2.918   1.282   2.983 -0.2126  0.4730  0.3595
    1SOL    HW2 7362   2.971   1.218   3.030  1.6931  0.5609 -1.5937
    1SOL    HW3 7363   2.938   1.365   3.026  0.6311  0.3772  0.1711
    1SOL    MW4 7364   2.928   1.285   2.995  0.1502  0.4717  0.0768
    1SOL     OW 7365   2.941   1.536   3.120 -0.3228 -0.0201 -0.1663
    1SOL    HW2 7366   2.953   1.536   3.215  0.6839 -2.9459 -0.2333
    1SOL    HW3 7367   3.014   1.588   3.086  0.4386 -0.6078  0.5559
    1SOL    MW4 7368   2.952   1.543   3.128 -0.0899 -0.4836 -0.0799
    1SOL     OW 7369   2.718   1.642   3.006  0.3800 -0.1481  0.3959
    1SOL    HW2 7370   2.798   1.597   3.033 -0.3122 -1.9254 -0.4207
    1SOL    HW3 7371   2.648   1.596   3.053 -0.3667 -0.1065 -0.6632
    1SOL    MW4 7372   2.719   1.630   3.016  0.1900 -0.3771  0.1488
    1SOL     OW 7373   2.684   1.889   3.125  0.1692 -0.4854  0.3137
    1SOL    HW2 7374   2.766   1.928   3.094 -0.9713  1.1445 -0.7783
    1SOL    HW3 7375   2.684   1.800   3.089  2.1787 -1.0428  1.6484
    1SOL    MW4 7376   2.695   1.883   3.116  0.2840 -0.3440  0.3457
    1SOL     OW 7377   2.883   2.038   2.992  0.2987  0.2230 -0.0708
    1SOL    HW2 7378   2.885   2.132   3.010  1.3478  0.2585 -0.3795
    1SOL    HW3 7379   2.886   2.031   2.896 -0.3322 -0.1170 -0.0750
    1SOL    MW4 7380   2.884   2.049   2.981  0.3538  0.1826 -0.1121
    1SOL     OW 7381   2.895   2.309   3.098 -0.3005  0.2906 -0.0604
    1SOL    HW2 7382   2.966   2.368   3.072 -0.8175  0.0533 -2.1033
    1SOL    HW3 7383   2.815   2.352   3.067 -0.7933 -0.8408 -0.3905
    1SOL    MW4 7384   2.894   2.323   3.091 -0.4334  0.1099 -0.3736
    1SOL     OW 7385   2.682   2.439   2.979 -0.1058 -0.2024  0.6694
    1SOL    HW2 7386   2.694   2.528   3.014  0.8230 -0.0500 -0.0187
    1SOL    HW3 7387   2.602   2.408   3.021 -0.4605  0.9772  0.8912
    1SOL    MW4 7388   2.673   2.447   2.989 -0.0303 -0.0267  0.6077
    1SOL     OW 7389   2.728   2.699   3.082 -0.5181  0.0814 -0.1385
    1SOL    HW2 7390   2.727   2.713   3.176 -0.2101  0.6629 -0.2191
    1SOL    HW3 7391   2.645   2.736   3.051 -0.8307 -0.5411 -0.0328
    1SOL    MW4 7392   2.717   2.706   3.090 -0.5183  0.0761 -0.1352
    1SOL     OW 7393   2.918   2.859   2.975  0.8904  0.3370  0.3134
    1SOL    HW2 7394   2.987   2.808   3.017 -0.0658 -1.2492 -0.0220
    1SOL    HW3 7395   2.837   2.818   3.003  0.1814  0.3178 -1.7062
    1SOL    MW4 7396   2.917   2.847   2.984  0.6707  0.1254  0.0026
    1SOL     OW 7397   2.929   3.112   3.107 -0.1627 -0.0332 -0.0260
    1SOL    HW2 7398   2.860   3.176   3.091 -0.1385  0.0975  0.3895
    1SOL    HW3 7399   2.901   3.034   3.059 -0.3136  0.2084 -0.3276
    1SOL    MW4 7400   2.916   3.110   3.099 -0.1793  0.0160 -0.0110
    1SOL     OW 7401   2.689   3.201   2.992 -0.2959  0.5607 -0.3553
    1SOL    HW2 7402   2.657   3.288   3.017 -0.2802  0.8490 -1.3424
    1SOL    HW3 7403   2.703   3.206   2.898 -0.3824 -0.5465 -0.4353
    1SOL    MW4 7404   2.687   3.213   2.983 -0.3052  0.4530 -0.4961
    1SOL     OW 7405   2.640   3.457   3.090 -0.0029  0.0841 -0.0603
    1SOL    HW2 7406   2.635   3.451   3.186 -0.3408 -0.6355 -0.1139
    1SOL    HW3 7407   2.718   3.509   3.073 -0.2419  0.6837  0.6206
    1SOL    MW4 7408   2.649   3.463   3.100 -0.0789  0.0682  0.0226
    1SOL     OW 7409   2.868   3.612   3.055 -0.1512  0.3842 -0.3976
    1SOL    HW2 7410   2.953   3.572   3.070  0.1788  0.5528 -1.7402
    1SOL    HW3 7411   2.875   3.698   3.097 -0.5496 -0.5558  1.6854
    1SOL    MW4 7412   2.880   3.618   3.063 -0.1597  0.2825 -0.2999
    1SOL     OW 7413   2.918   3.902   3.126  0.0742 -0.0628 -0.0886
    1SOL    HW2 7414   2.908   3.889   3.220  0.6030  0.8770  0.1058
    1SOL    HW3 7415   2.836   3.943   3.099 -0.4424 -1.1408 -0.2077
    1SOL    MW4 7416   2.906   3.906   3.135  0.0758 -0.0811 -0.0787
    1SOL     OW 7417   2.678   4.013   3.022 -0.3510  0.0213  0.1607
    1SOL    HW2 7418   2.711   4.100   3.044 -1.0295  1.1135 -2.9184
    1SOL    HW3 7419   2.696   4.003   2.928 -3.2765 -1.7876 -0.2715
    1SOL    MW4 7420   2.685   4.023   3.012 -0.8266 -0.0734 -0.3030
    1SOL     OW 7421   2.731   4.255   3.106  0.1217  0.2450 -0.1968
    1SOL    HW2 7422   2.712   4.233   3.197  0.8921  0.2324 -0.0315
    1SOL    HW3 7423   2.653   4.299   3.075 -1.0729 -1.7967 -0.2114
    1SOL    MW4 7424   2.718   4.258   3.114  0.0656 -0.0257 -0.1769
    1SOL     OW 7425   2.941   4.425   3.106 -0.1128 -0.0124  0.0069
    1SOL    HW2 7426   3.014   4.365   3.120 -0.7928 -1.1891 -1.3319
    1SOL    HW3 7427   2.863   4.370   3.115 -0.7332  0.5285 -1.8828
    1SOL    MW4 7428   2.940   4.410   3.109 -0.2842 -0.0963 -0.4191
    1SOL     OW 7429   3.360   4.615   3.120  0.0478 -0.1007 -0.2463
    1SOL    HW2 7430   3.436   4.660   3.085  1.4425 -1.2371  1.2588
    1SOL    HW3 7431   3.362   4.528   3.081 -0.2828 -0.2454  0.0474
    1SOL    MW4 7432   3.370   4.609   3.110  0.1881 -0.2694 -0.0091
    1SOL     OW 7433   3.186   0.140   3.035 -0.5380 -0.2268  0.2719
    1SOL    HW2 7434   3.204   0.207   3.101  0.4491 -1.8464  1.6925
    1SOL    HW3 7435   3.242   0.066   3.061 -2.4551 -2.0178 -0.6022
    1SOL    MW4 7436   3.196   0.139   3.047 -0.6609 -0.6768  0.3440
    1SOL     OW 7437   3.176   0.413   3.160  0.6337 -0.0433 -0.1367
    1SOL    HW2 7438   3.245   0.462   3.115 -0.0280  1.6948  0.6994
    1SOL    HW3 7439   3.098   0.427   3.106  0.3820  0.0358  0.2500
    1SOL    MW4 7440   3.175   0.421   3.147  0.5133  0.1965  0.0248
    1SOL     OW 7441   3.391   0.513   3.007 -0.1106  0.1635 -0.0575
    1SOL    HW2 7442   3.472   0.471   3.036  1.2491  2.6757 -0.0294
    1SOL    HW3 7443   3.392   0.504   2.912  0.5476  0.7692 -0.1109
    1SOL    MW4 7444   3.402   0.506   2.998  0.1554  0.5749 -0.0606
    1SOL     OW 7445   3.362   0.768   3.085  0.4424 -0.0184 -0.0995
    1SOL    HW2 7446   3.356   0.759   3.180 -0.8754  0.0057 -0.1625
    1SOL    HW3 7447   3.365   0.678   3.052 -1.6323 -0.0905 -0.1534
    1SOL    MW4 7448   3.361   0.755   3.093 -0.0052 -0.0247 -0.1152
    1SOL     OW 7449   3.136   0.903   2.988  0.1304  0.2029 -0.0257
    1SOL    HW2 7450   3.217   0.853   3.001  0.3867  0.8168  0.7899
    1SOL    HW3 7451   3.066   0.841   3.008  0.4492  0.2065  1.1531
    1SOL    MW4 7452   3.138   0.888   2.993  0.2062  0.2843  0.2375
    1SOL     OW 7453   3.139   1.163   3.089  0.1806  0.1544 -0.3874
    1SOL    HW2 7454   3.215   1.198   3.042 -1.0336 -0.0671 -2.6077
    1SOL    HW3 7455   3.147   1.068   3.080 -0.7637  0.1533 -1.3474
    1SOL    MW4 7456   3.150   1.155   3.082 -0.1042  0.1251 -0.8070
    1SOL     OW 7457   3.370   1.282   3.009  0.1175 -0.4022  0.1821
    1SOL    HW2 7458   3.443   1.232   3.044 -0.2463 -0.1513  1.3370
    1SOL    HW3 7459   3.370   1.363   3.060 -1.7110 -0.9285  1.0804
    1SOL    MW4 7460   3.379   1.286   3.020 -0.1717 -0.4385  0.4530
    1SOL     OW 7461   3.354   1.539   3.126  0.5675 -0.4174 -0.0014
    1SOL    HW2 7462   3.357   1.550   3.221  0.6263 -0.8048  0.0448
    1SOL    HW3 7463   3.436   1.577   3.094 -0.5959  2.0609 -0.1542
    1SOL    MW4 7464   3.365   1.545   3.134  0.4220 -0.1415 -0.0153
    1SOL     OW 7465   3.151   1.665   2.990  0.0194  0.5026 -0.8143
    1SOL    HW2 7466   3.227   1.622   3.031 -0.0894  0.3133 -0.8095
    1SOL    HW3 7467   3.150   1.752   3.029 -1.3199 -0.3673  1.1845
    1SOL    MW4 7468   3.161   1.671   3.001 -0.1717  0.3629 -0.5500
    1SOL     OW 7469   3.131   1.922   3.075 -0.3429  0.1536 -0.4603
    1SOL    HW2 7470   3.135   1.934   3.170 -0.9692 -0.0874 -0.4059
    1SOL    HW3 7471   3.048   1.961   3.049 -0.7826 -0.9592 -0.7391
    1SOL    MW4 7472   3.121   1.929   3.084 -0.4835 -0.0252 -0.4900
    1SOL     OW 7473   3.355   2.078   3.040  0.4022 -0.0471 -0.4269
    1SOL    HW2 7474   3.428   2.027   3.075  0.2306  1.9038  3.0447
    1SOL    HW3 7475   3.278   2.024   3.057  0.5822 -0.1683  0.0178
    1SOL    MW4 7476   3.354   2.064   3.047  0.4034  0.1943  0.0896
    1SOL     OW 7477   3.320   2.345   3.127  0.3299  0.3451 -0.2645
    1SOL    HW2 7478   3.356   2.341   3.215 -0.1378  0.3918 -0.0720
    1SOL    HW3 7479   3.320   2.254   3.097 -1.8850 -0.0162  0.7428
    1SOL    MW4 7480   3.325   2.333   3.135 -0.0241  0.3035 -0.1061
    1SOL     OW 7481   3.106   2.470   2.991  0.4072  0.3639  0.1250
    1SOL    HW2 7482   3.184   2.422   3.019 -0.6019 -0.7075  1.1536
    1SOL    HW3 7483   3.118   2.558   3.027  2.2767  0.9318 -1.7804
    1SOL    MW4 7484   3.118   2.475   2.999  0.5209  0.2975  0.0093
    1SOL     OW 7485   3.143   2.717   3.085  0.1065  0.2341  0.8530
    1SOL    HW2 7486   3.225   2.754   3.052 -0.1095 -0.1537 -0.1416
    1SOL    HW3 7487   3.160   2.699   3.178  1.6234 -1.1940  0.3238
    1SOL    MW4 7488   3.156   2.719   3.093  0.2782 -0.0055  0.6521
    1SOL     OW 7489   3.357   2.835   2.990 -0.0640 -0.0134 -0.6978
    1SOL    HW2 7490   3.423   2.792   3.043 -0.3770 -0.1276 -0.4019
    1SOL    HW3 7491   3.350   2.923   3.027  0.7874  0.3975 -1.4874
    1SOL    MW4 7492   3.365   2.841   3.002  0.0069  0.0257 -0.7632
    1SOL     OW 7493   3.374   3.098   3.134  0.2258 -0.3775  0.5404
    1SOL    HW2 7494   3.291   3.139   3.111  0.0301 -1.0314  0.0649
    1SOL    HW3 7495   3.367   3.077   3.227 -0.1124 -0.3740  0.5146
    1SOL    MW4 7496   3.362   3.101   3.143  0.1554 -0.4632  0.4742
    1SOL     OW 7497   3.160   3.241   3.015 -0.2765 -0.1000 -0.0297
    1SOL    HW2 7498   3.080   3.197   3.044 -0.0577 -0.2232  0.3844
    1SOL    HW3 7499   3.163   3.225   2.920 -1.4180  1.0020 -0.2602
    1SOL    MW4 7500   3.150   3.233   3.006 -0.3984  0.0293 -0.0057
    1SOL     OW 7501   3.131   3.510   3.086 -0.1305  0.1507 -0.2025
    1SOL    HW2 7502   3.205   3.545   3.036 -0.8317  1.8225 -0.1274
    1SOL    HW3 7503   3.144   3.416   3.087  1.4642  0.3519 -1.0413
    1SOL    MW4 7504   3.142   3.502   3.080 -0.0126  0.3977 -0.3035
    1SOL     OW 7505   3.381   3.609   2.994  0.1325 -0.1962  0.2394
    1SOL    HW2 7506   3.458   3.567   3.033  0.4149  0.0160 -0.0891
    1SOL    HW3 7507   3.384   3.699   3.027  1.1832  0.4009 -1.4234
    1SOL    MW4 7508   3.392   3.615   3.004  0.3083 -0.0894 -0.0231
    1SOL     OW 7509   3.393   3.842   3.106  0.2510 -0.3928 -0.2527
    1SOL    HW2 7510   3.389   3.832   3.201  1.0538 -0.5034 -0.2302
    1SOL    HW3 7511   3.309   3.881   3.082 -0.4711 -1.5362  0.3645
    1SOL    MW4 7512   3.381   3.846   3.115  0.2618 -0.5581 -0.1683
    1SOL     OW 7513   3.159   3.984   3.045  0.4873  0.2633  0.2191
    1SOL    HW2 7514   3.081   3.940   3.078  1.4802 -1.4262  0.3213
    1SOL    HW3 7515   3.139   4.001   2.953 -0.3895  0.7501  0.4856
    1SOL    MW4 7516   3.146   3.981   3.037  0.5028  0.1044  0.2680
    1SOL     OW 7517   3.153   4.231   3.151 -0.0367  0.1503 -0.2440
    1SOL    HW2 7518   3.138   4.226   3.245 -0.0062 -0.0081 -0.2482
    1SOL    HW3 7519   3.137   4.143   3.119  1.0891 -0.0649 -0.2177
    1SOL    MW4 7520   3.149   4.219   3.159  0.1159  0.1006 -0.2410
    1SOL     OW 7521   3.372   4.351   2.996  0.4129 -0.0939 -0.0722
    1SOL    HW2 7522   3.455   4.315   3.027 -0.4736 -0.3776  2.0158
    1SOL    HW3 7523   3.305   4.300   3.040 -0.8947  0.4721 -1.3458
    1SOL    MW4 7524   3.374   4.340   3.006  0.1233 -0.0563  0.0350
    1SOL     OW 7525   3.802   4.637   3.087  0.4362  0.3076  0.4205
    1SOL    HW2 7526   3.807   4.546   3.057 -0.2286  0.2811  0.3798
    1SOL    HW3 7527   3.718   4.668   3.054  0.6737  0.9473  0.4126
    1SOL    MW4 7528   3.792   4.629   3.078  0.3798  0.3886  0.4141
    1SOL     OW 7529   3.562   0.091   2.993  0.0081 -0.5385 -0.4286
    1SOL    HW2 7530   3.565   0.179   3.031 -3.0149  0.2894 -1.9526
    1SOL    HW3 7531   3.576   0.104   2.900  1.9912 -1.9811 -0.3700
    1SOL    MW4 7532   3.564   0.104   2.986 -0.1290 -0.6196 -0.6218
    1SOL     OW 7533   3.601   0.346   3.103  0.0121  0.1896  0.1219
    1SOL    HW2 7534   3.615   0.348   3.198 -0.4398 -1.8448  0.2609
    1SOL    HW3 7535   3.681   0.382   3.066  1.2516 -1.3591  1.2191
    1SOL    MW4 7536   3.613   0.351   3.111  0.1161 -0.2832  0.2851
    1SOL     OW 7537   3.810   0.496   2.991 -0.1839  0.4803  0.0276
    1SOL    HW2 7538   3.899   0.470   3.012  0.1024  0.4041 -1.2375
    1SOL    HW3 7539   3.807   0.590   3.009  0.0843  0.4404  0.2738
    1SOL    MW4 7540   3.821   0.505   2.996 -0.1106  0.4650 -0.1068
    1SOL     OW 7541   3.802   0.768   3.071 -0.0076  0.0252 -0.6165
    1SOL    HW2 7542   3.800   0.756   3.166 -2.7240  1.2137 -0.4599
    1SOL    HW3 7543   3.881   0.819   3.055 -0.1429  0.8455  1.1591
    1SOL    MW4 7544   3.812   0.773   3.082 -0.3841  0.2903 -0.3619
    1SOL     OW 7545   3.577   0.913   2.985  0.7413  0.3798 -0.0387
    1SOL    HW2 7546   3.654   0.872   3.025  0.3080 -1.3633 -0.9362
    1SOL    HW3 7547   3.504   0.855   3.007  0.1234  0.6305 -1.3650
    1SOL    MW4 7548   3.578   0.900   2.993  0.6025  0.1829 -0.3324
    1SOL     OW 7549   3.591   1.140   3.132  0.1234 -0.6855  0.2879
    1SOL    HW2 7550   3.670   1.177   3.092 -0.0096 -0.2811  0.3934
    1SOL    HW3 7551   3.582   1.054   3.092  1.5592 -1.4211  1.4956
    1SOL    MW4 7552   3.600   1.134   3.122  0.2954 -0.7292  0.4613
    1SOL     OW 7553   3.812   1.267   3.006 -0.3262  0.6257  0.2908
    1SOL    HW2 7554   3.781   1.349   3.043 -0.6434  0.0704  1.2924
    1SOL    HW3 7555   3.814   1.281   2.912  0.1341  1.9483  0.4981
    1SOL    MW4 7556   3.808   1.279   2.998 -0.3073  0.7271  0.4499
    1SOL     OW 7557   3.824   1.559   3.091 -0.3179 -0.7759 -0.3112
    1SOL    HW2 7558   3.813   1.567   3.186  1.1555  0.2774 -0.2136
    1SOL    HW3 7559   3.748   1.605   3.054  0.9378  1.9689  0.3559
    1SOL    MW4 7560   3.813   1.566   3.098  0.0422 -0.2747 -0.2103
    1SOL     OW 7561   3.573   1.688   3.016  0.3686  0.0640  0.4690
    1SOL    HW2 7562   3.571   1.779   3.045 -0.8687  0.3368 -0.3943
    1SOL    HW3 7563   3.579   1.694   2.920 -0.1571 -0.7474  0.3822
    1SOL    MW4 7564   3.573   1.701   3.007  0.1359 -0.0070  0.3436
    1SOL     OW 7565   3.580   1.934   3.132 -0.1416 -0.0250  0.4348
    1SOL    HW2 7566   3.594   1.916   3.225  1.2952  0.5216  0.3274
    1SOL    HW3 7567   3.657   1.984   3.105 -0.4828 -0.3080 -1.0897
    1SOL    MW4 7568   3.592   1.939   3.141  0.0029  0.0098  0.2196
    1SOL     OW 7569   3.807   2.075   3.040  0.2158  0.3206  0.1767
    1SOL    HW2 7570   3.813   2.169   3.056 -0.0170  0.4529 -0.5170
    1SOL    HW3 7571   3.823   2.065   2.947  0.1404 -0.3210  0.2309
    1SOL    MW4 7572   3.810   2.086   3.030  0.1752  0.2534  0.0923
    1SOL     OW 7573   3.812   2.339   3.084 -0.1862  0.3400  0.2824
    1SOL    HW2 7574   3.810   2.345   3.180 -0.1857 -1.1042  0.3722
    1SOL    HW3 7575   3.728   2.377   3.057 -0.1160  0.9139  0.8333
    1SOL    MW4 7576   3.800   2.345   3.093 -0.1769  0.2251  0.3669
    1SOL     OW 7577   3.554   2.441   3.009 -0.0129 -0.1329 -0.2059
    1SOL    HW2 7578   3.568   2.520   3.061  0.1428 -0.0975 -0.3014
    1SOL    HW3 7579   3.482   2.396   3.052  0.5216 -0.4157  0.4156
    1SOL    MW4 7580   3.547   2.445   3.021  0.0782 -0.1657 -0.1364
    1SOL     OW 7581   3.549   2.701   3.135 -0.1256 -0.1325 -0.3796
    1SOL    HW2 7582   3.559   2.694   3.230 -0.5744 -0.9597 -0.3873
    1SOL    HW3 7583   3.628   2.746   3.106  0.3313 -0.4767  0.3109
    1SOL    MW4 7584   3.561   2.706   3.144 -0.1245 -0.2871 -0.2897
    1SOL     OW 7585   3.789   2.828   3.048  0.0975 -0.4355  0.0535
    1SOL    HW2 7586   3.796   2.918   3.079  1.1001 -0.6943  0.5930
    1SOL    HW3 7587   3.783   2.837   2.952  0.4724  0.1828  0.0842
    1SOL    MW4 7588   3.789   2.841   3.039  0.2792 -0.3884  0.1290
    1SOL     OW 7589   3.828   3.109   3.166 -0.3026 -0.2709 -0.0178
    1SOL    HW2 7590   3.888   3.138   3.098 -0.6452  0.1863 -0.1263
    1SOL    HW3 7591   3.743   3.143   3.139 -0.5601 -0.6627  0.2888
    1SOL    MW4 7592   3.824   3.117   3.153 -0.3817 -0.2623  0.0081
    1SOL     OW 7593   3.612   3.227   3.054 -0.3876  0.3838  0.2653
    1SOL    HW2 7594   3.531   3.189   3.088 -0.9992  2.0196  0.6570
    1SOL    HW3 7595   3.596   3.238   2.960  0.3229 -1.6163 -0.1306
    1SOL    MW4 7596   3.599   3.223   3.046 -0.3746  0.3357  0.2646
    1SOL     OW 7597   3.597   3.493   3.106 -0.2167  0.4939 -0.8837
    1SOL    HW2 7598   3.678   3.533   3.073  2.0344 -0.2984  3.3799
    1SOL    HW3 7599   3.609   3.399   3.092 -0.4463  0.3747 -0.2925
    1SOL    MW4 7600   3.609   3.486   3.099  0.0498  0.3738 -0.2429
    1SOL     OW 7601   3.824   3.605   3.016 -0.1294 -0.1043 -0.0892
    1SOL    HW2 7602   3.827   3.695   3.049 -0.2225  0.1468 -0.7560
    1SOL    HW3 7603   3.829   3.614   2.921  1.0999 -0.8679 -0.1140
    1SOL    MW4 7604   3.825   3.618   3.008  0.0205 -0.1717 -0.1805
    1SOL     OW 7605   3.839   3.868   3.123  0.0984  0.5737  0.3826
    1SOL    HW2 7606   3.831   3.860   3.218  0.5277  3.1941  0.6545
    1SOL    HW3 7607   3.759   3.913   3.096  0.6163  1.0595 -0.3328
    1SOL    MW4 7608   3.827   3.873   3.132  0.2234  0.9832  0.3242
    1SOL     OW 7609   3.613   4.003   3.047 -0.0332 -0.1601  0.2819
    1SOL    HW2 7610   3.537   3.950   3.071 -0.6285  0.6662  0.2483
    1SOL    HW3 7611   3.611   4.007   2.952 -0.1394  0.1408  0.2963
    1SOL    MW4 7612   3.603   3.997   3.038 -0.1256 -0.0112  0.2792
    1SOL     OW 7613   3.612   4.261   3.137  0.4658  0.0586  0.4161
    1SOL    HW2 7614   3.691   4.293   3.092 -0.6929  2.4546  0.0231
    1SOL    HW3 7615   3.596   4.175   3.098  0.8503  1.0645 -2.1081
    1SOL    MW4 7616   3.620   4.254   3.126  0.3636  0.5074  0.0312
    1SOL     OW 7617   3.839   4.391   3.011  0.0769  0.0860 -0.2690
    1SOL    HW2 7618   3.922   4.352   3.042 -0.0423 -1.4088 -1.7700
    1SOL    HW3 7619   3.833   4.364   2.920 -2.1746  0.0281 -0.1224
    1SOL    MW4 7620   3.849   4.382   3.003 -0.2358 -0.1187 -0.4478
    1SOL     OW 7621   4.269   4.654   3.118 -0.1430 -0.2283  0.0956
    1SOL    HW2 7622   4.268   4.642   3.213  0.7467 -1.4420 -0.0260
    1SOL    HW3 7623   4.264   4.565   3.083  0.0137  0.1801 -0.9873
    1SOL    MW4 7624   4.268   4.641   3.126 -0.0048 -0.3343 -0.0632
    1SOL     OW 7625   4.051   0.089   2.995 -0.6170  0.1363  0.0285
    1SOL    HW2 7626   4.126   0.078   3.053 -0.7043  1.1112  0.3415
    1SOL    HW3 7627   3.981   0.036   3.034 -0.9429  1.4722  1.3203
    1SOL    MW4 7628   4.051   0.081   3.008 -0.6719  0.4412  0.2406
    1SOL     OW 7629   4.063   0.377   3.098 -0.5474  0.2075 -0.1395
    1SOL    HW2 7630   4.146   0.420   3.080  0.6802 -1.8194  0.4294
    1SOL    HW3 7631   4.063   0.300   3.041 -1.5182 -0.4300  0.6920
    1SOL    MW4 7632   4.074   0.372   3.088 -0.5131 -0.1440  0.0453
    1SOL     OW 7633   4.284   0.535   3.027 -0.0980  0.1129 -0.1570
    1SOL    HW2 7634   4.283   0.621   3.070 -0.6888  0.8220 -1.5468
    1SOL    HW3 7635   4.262   0.554   2.936 -1.7276 -1.6938 -0.1724
    1SOL    MW4 7636   4.281   0.549   3.020 -0.3905 -0.0319 -0.3424
    1SOL     OW 7637   4.250   0.799   3.144 -0.6104  0.0139 -0.5205
    1SOL    HW2 7638   4.169   0.836   3.110 -0.0288  0.5408 -1.3423
    1SOL    HW3 7639   4.320   0.849   3.101  0.1508 -0.3262  0.2944
    1SOL    MW4 7640   4.249   0.811   3.134 -0.4339  0.0385 -0.5214
    1SOL     OW 7641   4.026   0.902   3.017 -0.1892 -0.0304  0.3936
    1SOL    HW2 7642   4.032   0.994   3.044 -1.5009  0.0269  0.5317
    1SOL    HW3 7643   4.027   0.906   2.922  1.6524 -0.0222  0.4029
    1SOL    MW4 7644   4.027   0.915   3.008 -0.1197 -0.0218  0.4137
    1SOL     OW 7645   4.071   1.156   3.103  0.1991 -0.4892 -0.0082
    1SOL    HW2 7646   4.047   1.137   3.193  0.4745  1.6856  0.5677
    1SOL    HW3 7647   3.991   1.194   3.065  0.2627 -0.8420 -0.4906
    1SOL    MW4 7648   4.057   1.159   3.110  0.2437 -0.2488  0.0043
    1SOL     OW 7649   4.310   1.277   3.018  0.0762  0.6307  0.0131
    1SOL    HW2 7650   4.234   1.222   3.040  1.1574 -0.8191  0.2037
    1SOL    HW3 7651   4.307   1.284   2.922  0.7884 -1.0608 -0.1525
    1SOL    MW4 7652   4.299   1.271   3.008  0.3128  0.2162  0.0165
    1SOL     OW 7653   4.300   1.518   3.115  0.0109  0.1064 -0.2809
    1SOL    HW2 7654   4.225   1.556   3.069 -0.5371 -0.9519 -0.2716
    1SOL    HW3 7655   4.301   1.426   3.088  0.8856 -0.0546  0.2671
    1SOL    MW4 7656   4.290   1.511   3.105  0.0539 -0.0544 -0.2074
    1SOL     OW 7657   4.057   1.690   3.013 -0.0523 -0.6613 -0.1040
    1SOL    HW2 7658   4.054   1.772   3.062 -1.1781 -1.4016  1.0878
    1SOL    HW3 7659   3.981   1.641   3.043  0.1068 -1.7781 -1.4663
    1SOL    MW4 7660   4.047   1.694   3.023 -0.1802 -0.9062 -0.1266
    1SOL     OW 7661   4.031   1.958   3.139  0.1569 -0.1283 -0.3300
    1SOL    HW2 7662   4.109   1.982   3.090  0.3017 -1.2587 -0.6573
    1SOL    HW3 7663   3.958   1.999   3.092  0.6360  1.9193  0.6312
    1SOL    MW4 7664   4.031   1.966   3.127  0.2394 -0.0073 -0.2465
    1SOL     OW 7665   4.283   2.051   3.008 -0.3162 -0.1365  0.3445
    1SOL    HW2 7666   4.267   2.144   3.024  0.1113 -0.1712  0.9756
    1SOL    HW3 7667   4.277   2.042   2.913 -0.8142  0.4481  0.3122
    1SOL    MW4 7668   4.280   2.062   2.998 -0.3252 -0.0639  0.4234
    1SOL     OW 7669   4.252   2.317   3.042  0.1317  0.0017 -0.2722
    1SOL    HW2 7670   4.167   2.354   3.016 -0.0999 -0.3560 -0.0348
    1SOL    HW3 7671   4.317   2.372   2.997 -0.2465 -0.3024 -1.2066
    1SOL    MW4 7672   4.249   2.330   3.032  0.0510 -0.0854 -0.3643
    1SOL     OW 7673   4.030   2.468   2.983 -0.7362 -0.2150  0.2640
    1SOL    HW2 7674   4.027   2.556   3.020 -0.5616  0.4740 -1.2863
    1SOL    HW3 7675   3.949   2.426   3.012 -0.9941  0.5861  0.7051
    1SOL    MW4 7676   4.019   2.474   2.991 -0.7477 -0.0186  0.1175
    1SOL     OW 7677   4.040   2.699   3.108  0.1890 -0.0691 -0.0956
    1SOL    HW2 7678   4.039   2.680   3.202  0.9884  2.4332  0.4472
    1SOL    HW3 7679   3.964   2.756   3.094 -0.1647 -0.7714 -1.0485
    1SOL    MW4 7680   4.030   2.704   3.119  0.2484  0.1683 -0.1497
    1SOL     OW 7681   4.284   2.847   2.992 -0.4676 -0.3221 -0.4852
    1SOL    HW2 7682   4.217   2.787   3.024  0.0630  0.1400  1.5869
    1SOL    HW3 7683   4.366   2.802   3.007 -0.1875  0.0633 -0.8532
    1SOL    MW4 7684   4.286   2.833   2.998 -0.3610 -0.2105 -0.2604
    1SOL     OW 7685   4.293   3.105   3.131 -0.4952  0.1409 -0.2174
    1SOL    HW2 7686   4.216   3.137   3.084 -0.8752 -1.0618 -0.4206
    1SOL    HW3 7687   4.301   3.013   3.105  0.3451 -0.0513  0.6837
    1SOL    MW4 7688   4.284   3.097   3.121 -0.4344 -0.0434 -0.1252
    1SOL     OW 7689   4.055   3.210   3.014 -0.0353  0.3496 -0.0999
    1SOL    HW2 7690   4.053   3.303   3.037 -0.7268  0.2387  0.2988
    1SOL    HW3 7691   4.061   3.209   2.918  2.3219  0.8129 -0.0082
    1SOL    MW4 7692   4.056   3.222   3.004  0.1841  0.3960 -0.0350
    1SOL     OW 7693   4.045   3.477   3.117  0.0041 -0.1709 -0.1998
    1SOL    HW2 7694   4.023   3.481   3.210  0.9171 -1.1645  0.0687
    1SOL    HW3 7695   3.972   3.521   3.073  0.2548  1.5776  1.0760
    1SOL    MW4 7696   4.032   3.483   3.124  0.1574 -0.0710  0.0041
    1SOL     OW 7697   4.276   3.624   3.027 -0.6494  0.0976 -0.6588
    1SOL    HW2 7698   4.281   3.705   3.077 -1.1244  0.2273 -0.8260
    1SOL    HW3 7699   4.194   3.583   3.053 -1.0783  0.3481 -1.6107
    1SOL    MW4 7700   4.266   3.629   3.037 -0.7682  0.1481 -0.8066
    1SOL     OW 7701   4.307   3.861   3.154  0.0742  0.2699 -0.3192
    1SOL    HW2 7702   4.231   3.905   3.117 -0.0076 -0.1181 -0.6089
    1SOL    HW3 7703   4.382   3.911   3.120 -0.0925  1.5126  1.0875
    1SOL    MW4 7704   4.307   3.874   3.145  0.0415  0.3827 -0.1719
    1SOL     OW 7705   4.080   3.971   3.041  0.5370  0.1222 -0.3659
    1SOL    HW2 7706   4.084   4.060   3.077  0.9901 -0.5331  1.2232
    1SOL    HW3 7707   4.001   3.933   3.079  1.1906 -0.6857  0.1918
    1SOL    MW4 7708   4.070   3.978   3.050  0.6828 -0.0710 -0.0825
    1SOL     OW 7709   4.059   4.255   3.114  0.3932 -0.1748  0.0595
    1SOL    HW2 7710   4.038   4.242   3.207 -0.7814 -1.6051 -0.3824
    1SOL    HW3 7711   4.144   4.299   3.114 -0.0846  0.8007  1.8268
    1SOL    MW4 7712   4.068   4.259   3.126  0.1755 -0.2346  0.2346
    1SOL     OW 7713   4.296   4.386   3.029 -0.1255  0.1793 -0.4508
    1SOL    HW2 7714   4.368   4.341   3.073 -1.1538  0.4192  1.5713
    1SOL    HW3 7715   4.301   4.359   2.938  2.2672 -0.1132 -0.2445
    1SOL    MW4 7716   4.306   4.377   3.023  0.0548  0.1726 -0.1566
    1SOL     OW 7717   0.209   4.655   3.362 -0.0908  0.0362 -0.1253
    1SOL    HW2 7718   0.276   4.707   3.405  0.4181  0.2078 -1.1350
    1SOL    HW3 7719   0.208   4.572   3.411  0.6205  0.1587  0.0914
    1SOL    MW4 7720   0.218   4.651   3.374  0.0702  0.0744 -0.2301
    1SOL     OW 7721   0.007   0.114   3.500 -0.5723  0.2215  0.3478
    1SOL    HW2 7722  -0.004   0.201   3.462 -1.1208  0.2851  0.6502
    1SOL    HW3 7723   0.057   0.065   3.434  0.2633  0.9376  0.4399
    1SOL    MW4 7724   0.012   0.119   3.486 -0.5344  0.3243  0.3998
    1SOL     OW 7725   4.449   0.343   3.373  0.0822  0.0900 -0.0783
    1SOL    HW2 7726   4.367   0.380   3.407 -0.2500 -0.7096  0.0156
    1SOL    HW3 7727   4.518   0.400   3.407 -0.3326 -0.0633  1.0271
    1SOL    MW4 7728   4.447   0.355   3.382 -0.0162 -0.0358  0.0801
    1SOL     OW 7729   0.163   0.493   3.469  0.5296  0.1499 -0.4537
    1SOL    HW2 7730   0.243   0.446   3.446  0.3540 -0.3530 -0.0564
    1SOL    HW3 7731   0.176   0.581   3.435  0.8762 -0.1791 -1.1788
    1SOL    MW4 7732   0.176   0.499   3.462  0.5521  0.0401 -0.4969
    1SOL     OW 7733   0.224   0.748   3.392  0.5783  0.0182  0.3968
    1SOL    HW2 7734   0.305   0.791   3.419 -0.3092  0.5543  2.2495
    1SOL    HW3 7735   0.155   0.800   3.432 -0.5885 -2.0680  1.1244
    1SOL    MW4 7736   0.226   0.760   3.401  0.3072 -0.1863  0.7374
    1SOL     OW 7737   4.483   0.865   3.486  0.6632 -0.1433 -0.0878
    1SOL    HW2 7738   4.477   0.873   3.581  0.3487  0.9136 -0.1951
    1SOL    HW3 7739   4.475   0.954   3.453 -0.1731 -0.6020 -1.1595
    1SOL    MW4 7740   4.481   0.878   3.494  0.5112 -0.0644 -0.2434
    1SOL     OW 7741   4.474   1.130   3.383 -0.1843 -0.3098  0.1453
    1SOL    HW2 7742   4.541   1.180   3.429  0.6485 -0.9360 -0.3459
    1SOL    HW3 7743   4.493   1.145   3.290 -0.1280 -1.2540 -0.0045
    1SOL    MW4 7744   4.486   1.139   3.376 -0.0663 -0.5170  0.0606
    1SOL     OW 7745   0.189   1.303   3.467 -0.0532  0.0395  0.0816
    1SOL    HW2 7746   0.198   1.292   3.562  0.2351  1.5697  0.2412
    1SOL    HW3 7747   0.197   1.397   3.453  1.3625 -0.2970 -1.6077
    1SOL    MW4 7748   0.192   1.314   3.478  0.1716  0.1971 -0.1202
    1SOL     OW 7749   0.238   1.565   3.403 -0.0354  0.3431 -0.2210
    1SOL    HW2 7750   0.327   1.582   3.434 -0.9214  2.4215  1.2988
    1SOL    HW3 7751   0.247   1.555   3.308  2.1796 -2.2903  0.1825
    1SOL    MW4 7752   0.251   1.566   3.395  0.1400  0.2699  0.0329
    1SOL     OW 7753   4.482   1.658   3.489  0.2502 -0.2461  0.1051
    1SOL    HW2 7754   4.421   1.606   3.436  1.2493  0.1289 -1.4741
    1SOL    HW3 7755   4.568   1.623   3.466  0.7056 -0.0272  1.4637
    1SOL    MW4 7756   4.485   1.646   3.479  0.4425 -0.1676  0.0758
    1SOL     OW 7757   0.027   1.921   3.406 -0.0881 -0.4980 -0.0758
    1SOL    HW2 7758   0.019   1.834   3.444 -2.2297 -0.6809 -0.8401
    1SOL    HW3 7759  -0.003   1.910   3.315  0.5247  0.8398 -0.4484
    1SOL    MW4 7760   0.022   1.908   3.399 -0.2898 -0.3456 -0.2258
    1SOL     OW 7761   0.276   1.985   3.489 -0.0879 -0.7842  0.0714
    1SOL    HW2 7762   0.183   1.966   3.474 -0.6295  0.9218  1.2185
    1SOL    HW3 7763   0.284   1.997   3.583  1.2043 -0.3751 -0.0730
    1SOL    MW4 7764   0.265   1.984   3.499  0.0111 -0.5052  0.2036
    1SOL     OW 7765   0.262   2.247   3.381  0.2604  0.5903 -0.5409
    1SOL    HW2 7766   0.190   2.295   3.423  0.8711 -0.0205  1.2647
    1SOL    HW3 7767   0.258   2.159   3.418  2.6197  0.8587  0.4717
    1SOL    MW4 7768   0.252   2.242   3.391  0.6523  0.5450 -0.1690
    1SOL     OW 7769   0.037   2.406   3.450  0.0735 -0.0716  0.3510
    1SOL    HW2 7770   0.015   2.408   3.543 -0.3501 -0.2243  0.2545
    1SOL    HW3 7771  -0.038   2.365   3.408  1.0328 -1.6530  0.1546
    1SOL    MW4 7772   0.024   2.401   3.457  0.1442 -0.3002  0.3128
    1SOL     OW 7773   0.007   2.674   3.366  0.1449 -0.2801  0.0801
    1SOL    HW2 7774   0.062   2.730   3.421  1.8150 -0.4932 -1.3085
    1SOL    HW3 7775   0.038   2.585   3.384  1.7700 -0.2452 -2.2626
    1SOL    MW4 7776   0.018   2.669   3.376  0.5794 -0.3037 -0.4120
    1SOL     OW 7777   0.222   2.782   3.505 -0.0064 -0.0352  0.1084
    1SOL    HW2 7778   0.292   2.755   3.444 -1.8341 -1.1984 -1.5289
    1SOL    HW3 7779   0.194   2.868   3.472 -1.1694 -0.7783 -0.8753
    1SOL    MW4 7780   0.228   2.790   3.492 -0.4010 -0.2871 -0.2372
    1SOL     OW 7781   0.168   3.045   3.426 -0.4766  0.5090  0.1470
    1SOL    HW2 7782   0.094   3.098   3.459 -0.0075  1.9782 -1.1164
    1SOL    HW3 7783   0.191   3.085   3.343  1.9645  0.2476  0.6614
    1SOL    MW4 7784   0.161   3.057   3.420 -0.0926  0.6680  0.0482
    1SOL     OW 7785   4.457   3.197   3.555  0.1513  0.6503  0.3017
    1SOL    HW2 7786   4.383   3.139   3.536 -0.7162  0.8823  2.7600
    1SOL    HW3 7787   4.435   3.279   3.511  0.7599 -0.4311 -2.0987
    1SOL    MW4 7788   4.444   3.200   3.547  0.1168  0.5383  0.3095
    1SOL     OW 7789   4.459   3.444   3.422 -0.7072  0.0800  0.2925
    1SOL    HW2 7790   4.392   3.507   3.447 -0.0757  0.4612  1.0859
    1SOL    HW3 7791   4.492   3.476   3.338 -0.1889  0.9903  0.8245
    1SOL    MW4 7792   4.455   3.457   3.415 -0.5555  0.2503  0.4675
    1SOL     OW 7793   0.173   3.614   3.490 -0.1336  0.2857 -0.4181
    1SOL    HW2 7794   0.193   3.601   3.583 -1.5710  2.2630  0.1982
    1SOL    HW3 7795   0.091   3.566   3.477 -0.8977  1.5388 -0.2235
    1SOL    MW4 7796   0.165   3.606   3.500 -0.4241  0.7119 -0.3111
    1SOL     OW 7797   0.243   3.871   3.423  0.0980  0.1819  0.2604
    1SOL    HW2 7798   0.177   3.934   3.451 -0.9165 -0.6560 -0.2412
    1SOL    HW3 7799   0.204   3.786   3.437  0.5083 -0.3038 -1.3732
    1SOL    MW4 7800   0.229   3.868   3.428  0.0183  0.0069 -0.0215
    1SOL     OW 7801   0.045   4.020   3.527  0.2483 -0.3167 -0.0028
    1SOL    HW2 7802   0.019   4.027   3.619 -1.3342  0.5668 -0.4823
    1SOL    HW3 7803   0.012   4.101   3.487 -1.0365 -1.6717 -1.7824
    1SOL    MW4 7804   0.037   4.031   3.534 -0.1300 -0.3781 -0.3011
    1SOL     OW 7805   4.463   4.264   3.437 -0.0012 -0.1775 -0.0969
    1SOL    HW2 7806   4.379   4.310   3.432  0.0987 -0.0771 -1.0430
    1SOL    HW3 7807   4.524   4.329   3.470  0.1752  0.4442 -1.5973
    1SOL    MW4 7808   4.460   4.279   3.441  0.0343 -0.0820 -0.4196
    1SOL     OW 7809   0.201   4.414   3.523 -0.5831 -0.2209  0.0353
    1SOL    HW2 7810   0.196   4.415   3.619 -1.0295  0.0443  0.0111
    1SOL    HW3 7811   0.265   4.346   3.503  0.6543  0.7751  0.5678
    1SOL    MW4 7812   0.209   4.406   3.533 -0.4787 -0.0539  0.1023
    1SOL     OW 7813   0.613   0.020   3.390  0.2878 -0.5555  0.2989
    1SOL    HW2 7814   0.697   0.048   3.428 -0.6008  0.8461  1.2753
    1SOL    HW3 7815   0.632   0.008   3.297  1.0367  2.0138  0.0862
    1SOL    MW4 7816   0.627   0.022   3.383  0.2694 -0.0316  0.3998
    1SOL     OW 7817   0.390   0.135   3.514  0.3560  0.4410  0.4036
    1SOL    HW2 7818   0.402   0.120   3.607  0.0935  0.2100  0.3998
    1SOL    HW3 7819   0.471   0.103   3.473  0.3952  0.3775  0.5325
    1SOL    MW4 7820   0.402   0.129   3.521  0.3265  0.4021  0.4201
    1SOL     OW 7821   0.412   0.383   3.418  0.3869 -0.1200  0.3034
    1SOL    HW2 7822   0.497   0.421   3.441 -0.4852  1.5327  0.9048
    1SOL    HW3 7823   0.409   0.300   3.465  1.8640 -0.4110 -0.0955
    1SOL    MW4 7824   0.422   0.377   3.427  0.4667  0.0597  0.3302
    1SOL     OW 7825   0.662   0.485   3.475 -0.0413  0.3588  0.2091
    1SOL    HW2 7826   0.684   0.487   3.568  2.1875 -1.6269 -0.1843
    1SOL    HW3 7827   0.741   0.447   3.434 -1.0090  1.1511 -2.4531
    1SOL    MW4 7828   0.676   0.480   3.482  0.1251  0.2013 -0.1938
    1SOL     OW 7829   0.643   0.739   3.374 -0.3254 -0.2034  0.1901
    1SOL    HW2 7830   0.583   0.795   3.422 -1.1523 -0.8110 -0.1329
    1SOL    HW3 7831   0.640   0.654   3.419 -1.3756 -0.8862 -1.1142
    1SOL    MW4 7832   0.635   0.735   3.386 -0.5730 -0.3737 -0.0246
    1SOL     OW 7833   0.443   0.898   3.462  0.4208  0.2052 -0.3722
    1SOL    HW2 7834   0.471   0.909   3.553 -0.3032 -1.5273  0.0832
    1SOL    HW3 7835   0.421   0.986   3.433  0.8010  0.8013  1.0801
    1SOL    MW4 7836   0.444   0.911   3.470  0.3754  0.0553 -0.1206
    1SOL     OW 7837   0.415   1.165   3.386 -0.3081  0.2753  0.0137
    1SOL    HW2 7838   0.338   1.220   3.399  0.0688  1.2665 -1.8249
    1SOL    HW3 7839   0.443   1.183   3.297  1.5620 -0.7187  0.3701
    1SOL    MW4 7840   0.408   1.175   3.376 -0.0117  0.2749 -0.1822
    1SOL     OW 7841   0.640   1.264   3.495 -0.1700 -0.1191  0.0249
    1SOL    HW2 7842   0.555   1.238   3.459 -0.1411  0.2030 -0.2868
    1SOL    HW3 7843   0.656   1.351   3.457  1.0533 -0.8589 -1.1896
    1SOL    MW4 7844   0.631   1.272   3.485 -0.0047 -0.1743 -0.1762
    1SOL     OW 7845   0.708   1.509   3.401  0.3796 -0.0864 -0.4564
    1SOL    HW2 7846   0.788   1.551   3.432  0.0987 -0.1438  0.3482
    1SOL    HW3 7847   0.638   1.547   3.455 -0.2245  0.4415 -1.5861
    1SOL    MW4 7848   0.709   1.519   3.412  0.2629 -0.0243 -0.4990
    1SOL     OW 7849   0.481   1.633   3.512  0.3205 -0.3464  0.1559
    1SOL    HW2 7850   0.486   1.637   3.608  0.5714  0.2667  0.1164
    1SOL    HW3 7851   0.479   1.724   3.484 -0.2724 -0.5261 -0.4010
    1SOL    MW4 7852   0.482   1.646   3.521  0.2754 -0.2891  0.0772
    1SOL     OW 7853   0.493   1.877   3.374 -0.2406 -0.2115  0.6194
    1SOL    HW2 7854   0.411   1.914   3.405  0.5034  0.8388  1.3790
    1SOL    HW3 7855   0.488   1.882   3.279  0.2110  2.7108  0.6973
    1SOL    MW4 7856   0.482   1.882   3.365 -0.0828  0.3126  0.7300
    1SOL     OW 7857   0.701   2.059   3.443 -0.7356  0.3256  0.6368
    1SOL    HW2 7858   0.705   2.053   3.538 -0.4096  0.7442  0.6529
    1SOL    HW3 7859   0.638   1.992   3.417 -0.2338 -0.3359  1.0870
    1SOL    MW4 7860   0.693   2.049   3.452 -0.6264  0.2935  0.6983
    1SOL     OW 7861   0.710   2.331   3.379  0.5470  0.6306  0.0363
    1SOL    HW2 7862   0.781   2.359   3.436 -0.0294  0.3391  0.9083
    1SOL    HW3 7863   0.704   2.236   3.393  0.2213  0.5969 -0.3154
    1SOL    MW4 7864   0.719   2.322   3.388  0.4279  0.5879  0.1051
    1SOL     OW 7865   0.463   2.433   3.456  0.0912  0.1840 -0.1053
    1SOL    HW2 7866   0.553   2.407   3.437  0.4520 -0.0058  1.7131
    1SOL    HW3 7867   0.410   2.355   3.438  0.4104  0.0073 -0.2712
    1SOL    MW4 7868   0.468   2.419   3.451  0.1809  0.1357  0.1125
    1SOL     OW 7869   0.441   2.703   3.365  0.3674 -0.1518 -0.1740
    1SOL    HW2 7870   0.448   2.610   3.388 -1.2217 -0.1535  0.3199
    1SOL    HW3 7871   0.447   2.705   3.269  3.4668 -0.4573 -0.0610
    1SOL    MW4 7872   0.443   2.691   3.355  0.5667 -0.1924 -0.0937
    1SOL     OW 7873   0.655   2.828   3.497  0.5106  0.1682 -0.5485
    1SOL    HW2 7874   0.726   2.776   3.459  0.2974 -1.1930  0.8588
    1SOL    HW3 7875   0.575   2.788   3.463  0.3625 -0.1015  0.0950
    1SOL    MW4 7876   0.654   2.816   3.488  0.4629 -0.0467 -0.2780
    1SOL     OW 7877   0.643   3.115   3.371  0.0156 -0.5737  0.2397
    1SOL    HW2 7878   0.577   3.162   3.422  0.8797 -0.0250  0.8525
    1SOL    HW3 7879   0.637   3.025   3.402 -0.0907 -0.4240  0.6531
    1SOL    MW4 7880   0.633   3.109   3.382  0.1156 -0.4816  0.3750
    1SOL     OW 7881   0.412   3.209   3.521  0.2421 -0.7783  0.2703
    1SOL    HW2 7882   0.415   3.215   3.616 -0.8008  1.0380  0.2043
    1SOL    HW3 7883   0.335   3.156   3.502  0.1084 -0.6430  0.4340
    1SOL    MW4 7884   0.402   3.203   3.531  0.0869 -0.5209  0.2835
    1SOL     OW 7885   0.423   3.473   3.407 -0.4723 -0.1513 -0.0742
    1SOL    HW2 7886   0.410   3.386   3.445 -1.6663  0.0263 -0.0539
    1SOL    HW3 7887   0.350   3.525   3.440 -0.6142  0.4511 -1.3038
    1SOL    MW4 7888   0.412   3.468   3.416 -0.6485 -0.0484 -0.2339
    1SOL     OW 7889   0.638   3.615   3.504  0.1641 -0.0203 -0.7119
    1SOL    HW2 7890   0.702   3.554   3.469  0.7465 -0.8508  1.7499
    1SOL    HW3 7891   0.553   3.576   3.482  0.5180 -0.3051 -1.5721
    1SOL    MW4 7892   0.635   3.602   3.497  0.2876 -0.1671 -0.5007
    1SOL     OW 7893   0.650   3.866   3.385  0.0135  0.4249 -0.0442
    1SOL    HW2 7894   0.581   3.905   3.439  1.3067  0.5523  1.5496
    1SOL    HW3 7895   0.660   3.777   3.418  0.8929  0.5413  0.0326
    1SOL    MW4 7896   0.642   3.860   3.396  0.3002  0.4573  0.1764
    1SOL     OW 7897   0.463   4.009   3.552 -0.4397  0.1526 -0.1849
    1SOL    HW2 7898   0.451   4.093   3.509  1.0054  0.5739  0.2151
    1SOL    HW3 7899   0.392   3.954   3.518 -0.6786  1.1649 -1.3469
    1SOL    MW4 7900   0.452   4.013   3.542 -0.2806  0.3414 -0.2854
    1SOL     OW 7901   0.426   4.269   3.423  0.0742  0.6174 -0.0416
    1SOL    HW2 7902   0.484   4.333   3.464  1.3355 -0.2960 -0.3743
    1SOL    HW3 7903   0.463   4.256   3.336  0.6387 -1.5765  0.4896
    1SOL    MW4 7904   0.438   4.276   3.417  0.3151  0.2079 -0.0155
    1SOL     OW 7905   0.642   4.435   3.516  0.5644  0.2158  0.4280
    1SOL    HW2 7906   0.701   4.394   3.453  1.3904  0.6084  0.9405
    1SOL    HW3 7907   0.626   4.522   3.481 -0.1387 -0.0816  0.0133
    1SOL    MW4 7908   0.648   4.441   3.503  0.5805  0.2289  0.4408
    1SOL     OW 7909   1.084   4.642   3.396 -0.3234  0.3258 -0.4565
    1SOL    HW2 7910   1.163   4.690   3.420  0.4176 -0.5774 -1.0164
    1SOL    HW3 7911   1.094   4.626   3.302 -1.1089  0.1031 -0.5033
    1SOL    MW4 7912   1.096   4.646   3.387 -0.3293  0.1774 -0.5364
    1SOL     OW 7913   0.865   0.112   3.484 -0.2088  0.4555  0.4634
    1SOL    HW2 7914   0.879   0.117   3.578 -1.1033 -0.8741  0.6781
    1SOL    HW3 7915   0.938   0.059   3.451 -0.8214 -0.5381  0.6577
    1SOL    MW4 7916   0.876   0.105   3.492 -0.4076  0.1490  0.5171
    1SOL     OW 7917   0.908   0.374   3.364 -0.1255 -0.2943 -0.1747
    1SOL    HW2 7918   0.985   0.415   3.404 -0.9294 -0.9658  2.1446
    1SOL    HW3 7919   0.902   0.289   3.406 -1.5240 -0.6730 -1.1297
    1SOL    MW4 7920   0.918   0.368   3.375 -0.4160 -0.4329  0.0052
    1SOL     OW 7921   1.119   0.514   3.491 -0.2043 -0.0564 -0.1230
    1SOL    HW2 7922   1.142   0.514   3.584  0.8415 -0.1999 -0.3815
    1SOL    HW3 7923   1.111   0.606   3.468 -0.9555 -0.0279  0.2217
    1SOL    MW4 7924   1.121   0.526   3.500 -0.1653 -0.0715 -0.1113
    1SOL     OW 7925   1.106   0.774   3.385  0.1266 -0.3973  0.0635
    1SOL    HW2 7926   1.175   0.823   3.428 -0.4351  1.1774 -0.7992
    1SOL    HW3 7927   1.025   0.805   3.425 -0.2564 -0.3805 -0.7096
    1SOL    MW4 7928   1.104   0.784   3.396  0.0021 -0.1873 -0.1523
    1SOL     OW 7929   0.867   0.877   3.484 -0.0719 -0.2209 -0.2502
    1SOL    HW2 7930   0.867   0.959   3.433  0.4207 -0.2163 -0.2454
    1SOL    HW3 7931   0.805   0.820   3.438 -2.0529  0.9017  0.9504
    1SOL    MW4 7932   0.859   0.881   3.471 -0.2683 -0.0722 -0.0911
    1SOL     OW 7933   0.861   1.135   3.386 -0.1062 -0.4032  0.3835
    1SOL    HW2 7934   0.940   1.167   3.431  0.4311 -1.0562 -0.0875
    1SOL    HW3 7935   0.789   1.179   3.431  0.5833  1.0500  0.1139
    1SOL    MW4 7936   0.862   1.145   3.398  0.0556 -0.2977  0.2856
    1SOL     OW 7937   1.105   1.242   3.501 -0.1186  0.4063 -0.0395
    1SOL    HW2 7938   1.120   1.235   3.595 -1.0138  0.8442  0.1398
    1SOL    HW3 7939   1.115   1.336   3.482 -2.4420  0.6808  0.0583
    1SOL    MW4 7940   1.109   1.254   3.511 -0.5432  0.5003 -0.0029
    1SOL     OW 7941   1.136   1.499   3.394 -0.2032  0.3060 -0.2389
    1SOL    HW2 7942   1.218   1.545   3.411 -0.1228  0.1527 -0.2025
    1SOL    HW3 7943   1.123   1.506   3.300  1.1511 -1.8081 -0.6112
    1SOL    MW4 7944   1.145   1.506   3.384 -0.0138  0.0067 -0.2830
    1SOL     OW 7945   0.931   1.659   3.497 -0.0016  0.3472 -0.5207
    1SOL    HW2 7946   0.933   1.746   3.458 -0.5397 -0.3536 -2.1773
    1SOL    HW3 7947   1.010   1.616   3.465  0.5928  0.4277  0.8097
    1SOL    MW4 7948   0.942   1.665   3.487  0.0058  0.2654 -0.5634
    1SOL     OW 7949   0.931   1.918   3.383  0.3888  0.2528  0.0752
    1SOL    HW2 7950   0.997   1.967   3.431 -0.5614  0.7405  0.8962
    1SOL    HW3 7951   0.850   1.969   3.394 -0.3336 -0.8342 -0.1103
    1SOL    MW4 7952   0.929   1.931   3.390  0.1681  0.1737  0.1590
    1SOL     OW 7953   1.143   2.036   3.499  0.0589  0.0306  0.3992
    1SOL    HW2 7954   1.219   1.992   3.459  0.6411 -0.6662  2.2005
    1SOL    HW3 7955   1.150   2.127   3.470  0.9142 -0.2833 -0.4241
    1SOL    MW4 7956   1.154   2.042   3.490  0.2487 -0.1028  0.5283
    1SOL     OW 7957   1.160   2.308   3.415  0.0624  0.2066  0.0215
    1SOL    HW2 7958   1.236   2.364   3.430 -0.3718  0.8741 -0.2057
    1SOL    HW3 7959   1.143   2.317   3.321  0.6622 -1.1918 -0.2295
    1SOL    MW4 7960   1.168   2.317   3.404  0.0843  0.1099 -0.0417
    1SOL     OW 7961   0.921   2.427   3.531  0.1587 -0.2868 -0.0517
    1SOL    HW2 7962   0.919   2.423   3.627 -1.7777  0.3791 -0.0504
    1SOL    HW3 7963   1.010   2.399   3.508 -0.5494 -4.4292  1.7634
    1SOL    MW4 7964   0.933   2.422   3.541 -0.1901 -0.7455  0.1881
    1SOL     OW 7965   0.864   2.679   3.388 -0.0443  0.1016 -0.4448
    1SOL    HW2 7966   0.935   2.730   3.426  0.8354 -0.5809 -1.1432
    1SOL    HW3 7967   0.865   2.596   3.437 -1.3515  0.6639  0.5693
    1SOL    MW4 7968   0.873   2.675   3.400 -0.1008  0.0858 -0.4032
    1SOL     OW 7969   1.094   2.843   3.494  0.0358  0.0181 -0.4913
    1SOL    HW2 7970   1.112   2.825   3.587 -0.1624  0.4896 -0.3598
    1SOL    HW3 7971   1.169   2.805   3.448 -0.9409 -2.2181 -0.3298
    1SOL    MW4 7972   1.106   2.836   3.500 -0.1192 -0.2148 -0.4525
    1SOL     OW 7973   1.114   3.105   3.408 -0.2192  0.2221 -0.2001
    1SOL    HW2 7974   1.090   3.017   3.438  2.1574  0.0553  1.4121
    1SOL    HW3 7975   1.124   3.097   3.314 -1.8979 -0.7675 -0.3051
    1SOL    MW4 7976   1.112   3.092   3.400 -0.1271  0.0694 -0.0012
    1SOL     OW 7977   0.881   3.243   3.473 -0.2210 -0.5051 -0.3222
    1SOL    HW2 7978   0.963   3.200   3.447  0.6297  0.3483  0.9638
    1SOL    HW3 7979   0.813   3.191   3.429  0.9594 -1.5624 -0.9388
    1SOL    MW4 7980   0.883   3.230   3.463  0.0470 -0.5317 -0.2339
    1SOL     OW 7981   0.870   3.503   3.402  0.2711  0.1222 -0.3680
    1SOL    HW2 7982   0.865   3.409   3.423 -0.2892  0.0859 -0.6698
    1SOL    HW3 7983   0.879   3.506   3.307  1.2051  0.3501 -0.2796
    1SOL    MW4 7984   0.870   3.491   3.392  0.3203  0.1476 -0.3963
    1SOL     OW 7985   1.088   3.660   3.519 -0.0655 -0.6162  0.1326
    1SOL    HW2 7986   1.095   3.636   3.612 -1.6869  1.1008  0.7396
    1SOL    HW3 7987   1.007   3.617   3.490  0.0986 -0.6203 -0.3128
    1SOL    MW4 7988   1.078   3.651   3.527 -0.2576 -0.3903  0.1540
    1SOL     OW 7989   1.087   3.900   3.382  0.6340 -0.0247 -0.2800
    1SOL    HW2 7990   1.165   3.942   3.416  0.5192  0.2698 -0.3798
    1SOL    HW3 7991   1.087   3.813   3.422  0.6098  0.2463  0.3076
    1SOL    MW4 7992   1.097   3.894   3.392  0.6156  0.0501 -0.2155
    1SOL     OW 7993   0.858   4.009   3.504  0.7692  0.0569  0.0621
    1SOL    HW2 7994   0.940   3.966   3.479  0.1403 -2.2970  1.8373
    1SOL    HW3 7995   0.791   3.944   3.488 -0.5207  1.2313  0.5937
    1SOL    MW4 7996   0.860   3.995   3.499  0.5161 -0.0985  0.3667
    1SOL     OW 7997   0.826   4.278   3.374  0.4551  0.5095 -0.3946
    1SOL    HW2 7998   0.822   4.188   3.406 -1.5775  0.8023  0.2424
    1SOL    HW3 7999   0.872   4.272   3.290  1.2221 -0.9681  0.1043
    1SOL    MW4 8000   0.832   4.265   3.367  0.2881  0.3533 -0.2451
    1SOL     OW 8001   1.063   4.381   3.492 -0.1104 -0.2733 -0.3576
    1SOL    HW2 8002   0.971   4.360   3.475  0.0363 -0.5639 -0.7854
    1SOL    HW3 8003   1.069   4.475   3.479 -1.0170  0.2606  2.6518
    1SOL    MW4 8004   1.051   4.390   3.488 -0.2108 -0.2413 -0.0169
    1SOL     OW 8005   1.520   4.657   3.386 -0.4203  0.7763 -0.1658
    1SOL    HW2 8006   1.543   4.575   3.430 -1.1057  0.6613 -0.0179
    1SOL    HW3 8007   1.455   4.697   3.443 -0.5348  1.1371 -0.5487
    1SOL    MW4 8008   1.515   4.651   3.400 -0.5260  0.8092 -0.1967
    1SOL     OW 8009   1.299   0.126   3.478  0.7283 -0.1909 -0.1287
    1SOL    HW2 8010   1.295   0.138   3.573 -0.1190 -0.8327 -0.0776
    1SOL    HW3 8011   1.319   0.213   3.444  1.6789 -0.0906  0.6761
    1SOL    MW4 8012   1.301   0.139   3.486  0.7418 -0.2624 -0.0160
    1SOL     OW 8013   1.325   0.378   3.387  0.0363 -0.0763 -0.4282
    1SOL    HW2 8014   1.405   0.410   3.428 -0.4108 -0.0234  0.4134
    1SOL    HW3 8015   1.258   0.442   3.411 -0.4751 -0.6655 -0.2682
    1SOL    MW4 8016   1.327   0.390   3.395 -0.0901 -0.1471 -0.2961
    1SOL     OW 8017   1.571   0.508   3.495 -0.1655 -0.6667  0.0860
    1SOL    HW2 8018   1.563   0.508   3.590 -0.5069 -1.2433  0.0532
    1SOL    HW3 8019   1.641   0.445   3.477  1.2619  0.8795  0.0745
    1SOL    MW4 8020   1.579   0.500   3.505 -0.0222 -0.5388  0.0803
    1SOL     OW 8021   1.531   0.754   3.392  0.2211 -0.3822  0.5807
    1SOL    HW2 8022   1.445   0.785   3.423  0.8411  1.4830  0.5134
    1SOL    HW3 8023   1.542   0.669   3.433 -0.7392  0.2897  2.3058
    1SOL    MW4 8024   1.521   0.747   3.401  0.1762 -0.0475  0.7989
    1SOL     OW 8025   1.323   0.915   3.497  0.2892  0.5136 -0.1416
    1SOL    HW2 8026   1.336   0.923   3.591 -2.6643  0.2332  0.3483
    1SOL    HW3 8027   1.326   1.005   3.465 -2.4580  0.9935  0.8189
    1SOL    MW4 8028   1.325   0.928   3.505 -0.4630  0.5399  0.0498
    1SOL     OW 8029   1.359   1.163   3.377  0.4792  0.1075 -0.3914
    1SOL    HW2 8030   1.431   1.220   3.402 -0.2770  1.0531 -0.3409
    1SOL    HW3 8031   1.280   1.208   3.407 -0.1261 -1.0110 -0.2530
    1SOL    MW4 8032   1.358   1.176   3.384  0.2996  0.0846 -0.3662
    1SOL     OW 8033   1.576   1.328   3.455 -0.0740  0.6279 -0.0113
    1SOL    HW2 8034   1.593   1.301   3.546 -0.2011  1.1470  0.1696
    1SOL    HW3 8035   1.633   1.272   3.403 -1.5827 -1.1834  0.2250
    1SOL    MW4 8036   1.586   1.317   3.460 -0.2899  0.4575  0.0439
    1SOL     OW 8037   1.598   1.594   3.405 -0.1669 -0.1200  0.0712
    1SOL    HW2 8038   1.587   1.503   3.433  3.0043 -0.3472  0.7761
    1SOL    HW3 8039   1.622   1.588   3.312 -0.4381  0.0255 -0.0088
    1SOL    MW4 8040   1.600   1.581   3.396  0.2158 -0.1308  0.1538
    1SOL     OW 8041   1.339   1.653   3.465  0.1195  0.1545 -0.0551
    1SOL    HW2 8042   1.347   1.651   3.560 -0.0821  1.1534 -0.0071
    1SOL    HW3 8043   1.426   1.629   3.432 -0.1489 -1.4338  0.3666
    1SOL    MW4 8044   1.351   1.650   3.473  0.0576  0.0767  0.0067
    1SOL     OW 8045   1.369   1.926   3.386  0.1555 -0.6498 -0.1976
    1SOL    HW2 8046   1.453   1.954   3.425  0.0130 -0.0757 -0.3054
    1SOL    HW3 8047   1.358   1.836   3.417  0.1495 -0.2757  0.9352
    1SOL    MW4 8048   1.379   1.918   3.395  0.1360 -0.5246 -0.0627
    1SOL     OW 8049   1.607   2.040   3.494 -0.3798  0.2255 -0.4398
    1SOL    HW2 8050   1.689   2.021   3.449 -0.8406  0.8611 -1.5731
    1SOL    HW3 8051   1.585   2.130   3.468 -1.6278 -0.0740 -0.4849
    1SOL    MW4 8052   1.615   2.049   3.485 -0.6052  0.2699 -0.5951
    1SOL     OW 8053   1.587   2.298   3.394 -0.2220  0.0204  0.1334
    1SOL    HW2 8054   1.524   2.365   3.420 -1.4224 -0.9198 -0.3080
    1SOL    HW3 8055   1.574   2.288   3.299 -2.1302 -2.8996  0.6493
    1SOL    MW4 8056   1.577   2.306   3.385 -0.6322 -0.4888  0.1433
    1SOL     OW 8057   1.376   2.474   3.475  0.0117  0.3836  0.2678
    1SOL    HW2 8058   1.371   2.485   3.570  0.3388 -1.0957  0.4603
    1SOL    HW3 8059   1.352   2.560   3.440  0.3458  1.0744  1.6909
    1SOL    MW4 8060   1.372   2.487   3.483  0.0989  0.2797  0.4809
    1SOL     OW 8061   1.307   2.735   3.356  0.1079  0.4202  0.3136
    1SOL    HW2 8062   1.381   2.767   3.407  1.4665 -2.6559  0.3729
    1SOL    HW3 8063   1.333   2.747   3.265  0.4826 -0.2092  0.3363
    1SOL    MW4 8064   1.320   2.741   3.351  0.3364 -0.0684  0.3245
    1SOL     OW 8065   1.547   2.809   3.443 -0.3090  0.0255 -0.0563
    1SOL    HW2 8066   1.637   2.781   3.425  0.0574  0.4514  1.0832
    1SOL    HW3 8067   1.553   2.904   3.454 -0.3896 -0.2755  2.9442
    1SOL    MW4 8068   1.560   2.818   3.442 -0.2712  0.0422  0.4897
    1SOL     OW 8069   1.579   3.097   3.456 -0.4144 -0.1283 -0.1478
    1SOL    HW2 8070   1.646   3.157   3.489 -0.8640  0.1865  0.1968
    1SOL    HW3 8071   1.496   3.137   3.483 -0.6752 -2.0445  2.0306
    1SOL    MW4 8072   1.577   3.110   3.464 -0.5082 -0.3397  0.1848
    1SOL     OW 8073   1.330   3.235   3.490 -0.2040 -0.0709  0.1525
    1SOL    HW2 8074   1.334   3.224   3.585  0.3851 -0.3264  0.1001
    1SOL    HW3 8075   1.249   3.191   3.464 -0.1443 -0.3775  0.4850
    1SOL    MW4 8076   1.320   3.228   3.499 -0.1184 -0.1454  0.1895
    1SOL     OW 8077   1.312   3.519   3.436  0.7200  0.0093  0.0237
    1SOL    HW2 8078   1.289   3.436   3.477 -0.4055  0.2994  0.0114
    1SOL    HW3 8079   1.240   3.578   3.461  0.8737  0.6348 -0.9871
    1SOL    MW4 8080   1.299   3.516   3.445  0.5919  0.1297 -0.1116
    1SOL     OW 8081   1.557   3.598   3.523 -0.2560 -0.3474 -0.1557
    1SOL    HW2 8082   1.543   3.602   3.618 -1.2606  1.5295 -0.3521
    1SOL    HW3 8083   1.473   3.570   3.487  0.5318 -2.4550 -0.4156
    1SOL    MW4 8084   1.544   3.595   3.531 -0.2847 -0.3781 -0.2158
    1SOL     OW 8085   1.555   3.866   3.429  0.0844 -0.2823 -0.4077
    1SOL    HW2 8086   1.561   3.774   3.455  0.5281 -0.6539 -1.7419
    1SOL    HW3 8087   1.568   3.864   3.334  0.2979  1.1865 -0.4167
    1SOL    MW4 8088   1.557   3.853   3.420  0.1711 -0.1373 -0.5848
    1SOL     OW 8089   1.322   3.995   3.495 -0.5594 -0.3382 -0.4233
    1SOL    HW2 8090   1.329   4.089   3.482 -0.1718 -0.1257  1.1899
    1SOL    HW3 8091   1.404   3.960   3.460  0.0060  0.0981  0.4542
    1SOL    MW4 8092   1.334   4.003   3.489 -0.4337 -0.2527 -0.0947
    1SOL     OW 8093   1.312   4.279   3.420 -0.3146  0.0263 -0.0065
    1SOL    HW2 8094   1.221   4.285   3.451 -0.2390 -1.2465  0.5215
    1SOL    HW3 8095   1.305   4.263   3.326 -0.6201  0.9254 -0.1340
    1SOL    MW4 8096   1.299   4.277   3.412 -0.3450 -0.0234  0.0465
    1SOL     OW 8097   1.575   4.388   3.492  0.1696 -0.1892  0.1637
    1SOL    HW2 8098   1.649   4.336   3.462  0.5317  0.8520 -0.8086
    1SOL    HW3 8099   1.498   4.338   3.466  0.5311 -1.3691  1.3505
    1SOL    MW4 8100   1.575   4.375   3.484  0.2650 -0.2074  0.1919
    1SOL     OW 8101   2.016   4.617   3.411  0.0286  0.8089 -0.1914
    1SOL    HW2 8102   2.078   4.672   3.458  0.6959 -0.2650  0.2215
    1SOL    HW3 8103   1.930   4.646   3.440  0.4303  0.2851  1.5569
    1SOL    MW4 8104   2.013   4.628   3.421  0.1695  0.5984  0.0937
    1SOL     OW 8105   1.766   0.057   3.475 -0.5144 -0.1417  0.7475
    1SOL    HW2 8106   1.753   0.078   3.568 -0.7184  1.9056  0.2712
    1SOL    HW3 8107   1.677   0.038   3.443 -0.4354 -0.9234  0.9639
    1SOL    MW4 8108   1.752   0.057   3.483 -0.5310  0.0253  0.7133
    1SOL     OW 8109   1.778   0.332   3.389  0.0100 -0.6590 -0.0024
    1SOL    HW2 8110   1.761   0.241   3.413 -3.7882  0.0073  0.2780
    1SOL    HW3 8111   1.757   0.337   3.296 -0.4953  0.0646  0.1462
    1SOL    MW4 8112   1.773   0.321   3.380 -0.5578 -0.4756  0.0541
    1SOL     OW 8113   1.994   0.460   3.491  0.5021  0.4148 -0.2859
    1SOL    HW2 8114   1.981   0.543   3.447  0.9194  0.7406  0.2035
    1SOL    HW3 8115   1.937   0.399   3.444  0.0095  1.0254 -0.4884
    1SOL    MW4 8116   1.985   0.463   3.479  0.4921  0.5383 -0.2482
    1SOL     OW 8117   1.998   0.698   3.371  0.0850  0.0845 -0.1757
    1SOL    HW2 8118   2.062   0.759   3.408  0.7012  0.0489 -1.1709
    1SOL    HW3 8119   2.008   0.707   3.276 -1.3243  0.0078 -0.3493
    1SOL    MW4 8120   2.007   0.708   3.363 -0.0198  0.0697 -0.3300
    1SOL     OW 8121   1.769   0.875   3.455  0.0503 -0.0218  0.3453
    1SOL    HW2 8122   1.833   0.814   3.419  0.1952  0.9710 -1.1168
    1SOL    HW3 8123   1.684   0.839   3.428  0.0951 -0.0664  0.2640
    1SOL    MW4 8124   1.766   0.862   3.447  0.0753  0.1034  0.1416
    1SOL     OW 8125   1.789   1.159   3.384  0.5307  0.1347  0.0796
    1SOL    HW2 8126   1.864   1.190   3.435  0.6720 -0.3557  0.1713
    1SOL    HW3 8127   1.769   1.073   3.421  0.3187 -0.0060 -0.3592
    1SOL    MW4 8128   1.796   1.152   3.396  0.5212  0.0515  0.0339
    1SOL     OW 8129   2.012   1.309   3.500 -0.2845 -0.4516  0.6810
    1SOL    HW2 8130   1.986   1.310   3.592 -1.2718 -0.5864  0.4095
    1SOL    HW3 8131   2.005   1.400   3.471 -0.9578 -0.5693  0.4707
    1SOL    MW4 8132   2.008   1.321   3.508 -0.5035 -0.4848  0.6175
    1SOL     OW 8133   2.022   1.580   3.381 -0.2479 -0.3215  0.5594
    1SOL    HW2 8134   2.099   1.612   3.426  0.2408  0.3534 -0.7257
    1SOL    HW3 8135   1.951   1.637   3.411  0.1949  0.5398 -0.0138
    1SOL    MW4 8136   2.022   1.592   3.391 -0.1249 -0.1189  0.3140
    1SOL     OW 8137   1.821   1.713   3.524 -0.3101 -0.0365 -0.0632
    1SOL    HW2 8138   1.823   1.792   3.470 -2.3329  1.2195  1.6158
    1SOL    HW3 8139   1.748   1.661   3.489  0.2488 -0.6055 -0.3952
    1SOL    MW4 8140   1.811   1.717   3.512 -0.5032  0.0541  0.1144
    1SOL     OW 8141   1.854   1.942   3.383  0.8827 -0.0013  0.1791
    1SOL    HW2 8142   1.922   2.000   3.416  1.5668 -0.5743 -0.2070
    1SOL    HW3 8143   1.855   1.955   3.288  1.8554 -1.5068 -0.0359
    1SOL    MW4 8144   1.863   1.951   3.375  1.1011 -0.2756  0.0997
    1SOL     OW 8145   2.043   2.091   3.508  0.2823  0.1253 -0.1815
    1SOL    HW2 8146   2.109   2.038   3.464  0.3445  0.3195 -0.3247
    1SOL    HW3 8147   2.043   2.174   3.460 -0.5079 -0.0972 -0.5669
    1SOL    MW4 8148   2.052   2.095   3.496  0.1862  0.1216 -0.2513
    1SOL     OW 8149   2.032   2.338   3.385 -0.5489 -0.3495  0.2173
    1SOL    HW2 8150   1.945   2.361   3.417 -0.3635 -0.5962  0.9176
    1SOL    HW3 8151   2.025   2.345   3.290 -1.4863 -0.8868  0.2356
    1SOL    MW4 8152   2.019   2.342   3.377 -0.6480 -0.4532  0.3119
    1SOL     OW 8153   1.798   2.451   3.483  0.3784  0.1857  0.5059
    1SOL    HW2 8154   1.775   2.463   3.575 -0.6699  0.7733  0.1787
    1SOL    HW3 8155   1.728   2.396   3.447  1.3854 -0.9800  0.3259
    1SOL    MW4 8156   1.785   2.445   3.490  0.3729  0.1094  0.4392
    1SOL     OW 8157   1.800   2.710   3.407  0.4788 -0.2358  0.4986
    1SOL    HW2 8158   1.875   2.750   3.450  1.4975 -0.5693 -0.9120
    1SOL    HW3 8159   1.805   2.617   3.430 -0.0190 -0.1181  1.1137
    1SOL    MW4 8160   1.810   2.703   3.415  0.5476 -0.2644  0.3934
    1SOL     OW 8161   2.034   2.837   3.511  0.3367  0.3291 -0.1799
    1SOL    HW2 8162   2.035   2.860   3.604 -0.5319 -1.0612  0.1850
    1SOL    HW3 8163   2.016   2.920   3.466 -1.4522  0.6212  1.0212
    1SOL    MW4 8164   2.032   2.851   3.517 -0.0138  0.1838  0.0267
    1SOL     OW 8165   1.997   3.068   3.386 -0.2134  0.0598  0.0802
    1SOL    HW2 8166   2.065   3.126   3.419  0.1915 -0.5969  0.4172
    1SOL    HW3 8167   1.915   3.108   3.414  0.1270 -0.8182  2.4784
    1SOL    MW4 8168   1.995   3.081   3.394 -0.1148 -0.1426  0.4408
    1SOL     OW 8169   1.814   3.248   3.504 -0.5751 -0.3578 -0.1685
    1SOL    HW2 8170   1.821   3.248   3.600 -0.6315  0.5600 -0.1556
    1SOL    HW3 8171   1.834   3.338   3.479  0.1397 -0.7713 -1.0838
    1SOL    MW4 8172   1.817   3.260   3.514 -0.4883 -0.2913 -0.2875
    1SOL     OW 8173   1.828   3.518   3.451 -0.8216 -0.2142 -0.3384
    1SOL    HW2 8174   1.743   3.549   3.483 -0.8434  0.0650 -0.6618
    1SOL    HW3 8175   1.814   3.501   3.358 -0.6752 -0.7193 -0.2696
    1SOL    MW4 8176   1.815   3.520   3.443 -0.8053 -0.2439 -0.3722
    1SOL     OW 8177   2.060   3.643   3.525  0.2627 -0.0679  0.3184
    1SOL    HW2 8178   2.127   3.584   3.490 -0.4836 -0.1455 -1.0320
    1SOL    HW3 8179   1.977   3.601   3.500 -0.2756  1.4952 -0.5936
    1SOL    MW4 8180   2.058   3.629   3.517  0.0932  0.1280  0.0198
    1SOL     OW 8181   2.042   3.881   3.382 -0.3259 -0.0125  0.1037
    1SOL    HW2 8182   1.962   3.916   3.421 -0.2283  0.5687 -0.2096
    1SOL    HW3 8183   2.049   3.792   3.417 -1.6444 -0.4239 -0.6400
    1SOL    MW4 8184   2.032   3.874   3.392 -0.4869  0.0098 -0.0358
    1SOL     OW 8185   1.807   3.981   3.480  0.0861 -0.0293 -0.1248
    1SOL    HW2 8186   1.803   3.999   3.574 -0.6132 -0.8616  0.0157
    1SOL    HW3 8187   1.721   3.944   3.460  0.2453  0.1291 -1.0876
    1SOL    MW4 8188   1.795   3.978   3.490  0.0148 -0.1183 -0.2337
    1SOL     OW 8189   1.778   4.252   3.391 -0.0441 -0.1675  0.1840
    1SOL    HW2 8190   1.778   4.156   3.401 -0.0496 -0.1765  0.1017
    1SOL    HW3 8191   1.762   4.266   3.297  1.1657 -0.1036 -0.0177
    1SOL    MW4 8192   1.776   4.241   3.380  0.1148 -0.1597  0.1466
    1SOL     OW 8193   2.007   4.370   3.516 -0.0947 -0.1363 -0.1593
    1SOL    HW2 8194   1.927   4.333   3.478 -0.2777  0.5192 -0.4084
    1SOL    HW3 8195   2.012   4.459   3.482  1.7055 -0.7572 -1.5762
    1SOL    MW4 8196   1.997   4.377   3.507  0.1186 -0.1311 -0.3793
    1SOL     OW 8197   2.459   4.649   3.403  0.5095  0.2017  0.1903
    1SOL    HW2 8198   2.460   4.557   3.426  0.3817  0.2132  0.2438
    1SOL    HW3 8199   2.474   4.651   3.309  2.5558  0.2392  0.5044
    1SOL    MW4 8200   2.461   4.637   3.394  0.7627  0.2079  0.2387
    1SOL     OW 8201   2.219   0.119   3.496  0.2889 -0.0072 -0.2233
    1SOL    HW2 8202   2.212   0.204   3.451  0.6798 -0.5317 -1.3052
    1SOL    HW3 8203   2.293   0.076   3.453  0.1322 -0.8744  0.3681
    1SOL    MW4 8204   2.228   0.124   3.484  0.3195 -0.1908 -0.2882
    1SOL     OW 8205   2.221   0.379   3.390 -0.3692 -0.0345  0.2464
    1SOL    HW2 8206   2.297   0.411   3.439 -0.1092 -1.3645  0.7465
    1SOL    HW3 8207   2.145   0.413   3.438 -0.1019  0.1330  0.5520
    1SOL    MW4 8208   2.221   0.388   3.403 -0.2999 -0.1879  0.3529
    1SOL     OW 8209   2.433   0.485   3.548  0.8859 -0.2773  0.2191
    1SOL    HW2 8210   2.493   0.433   3.494  0.3409 -0.2542 -0.4152
    1SOL    HW3 8211   2.429   0.570   3.504  0.2538 -0.3362  0.1639
    1SOL    MW4 8212   2.441   0.489   3.535  0.7308 -0.2820  0.1280
    1SOL     OW 8213   2.434   0.730   3.405 -0.7870  0.0446  0.1633
    1SOL    HW2 8214   2.508   0.770   3.449 -0.4411 -0.9581  0.5081
    1SOL    HW3 8215   2.453   0.739   3.311 -0.2512 -0.1674  0.2512
    1SOL    MW4 8216   2.446   0.736   3.398 -0.6707 -0.1156  0.2205
    1SOL     OW 8217   2.199   0.869   3.451 -0.2900 -0.1031  0.4028
    1SOL    HW2 8218   2.199   0.953   3.406  1.0638  1.1112  2.5963
    1SOL    HW3 8219   2.277   0.824   3.417 -0.8632 -0.3903 -0.5640
    1SOL    MW4 8220   2.209   0.874   3.441 -0.1869  0.0193  0.5646
    1SOL     OW 8221   2.218   1.147   3.395 -0.1692 -0.0253  0.0360
    1SOL    HW2 8222   2.304   1.176   3.424  0.2270 -1.3030  0.1288
    1SOL    HW3 8223   2.158   1.212   3.432  0.7986  1.2584 -0.5989
    1SOL    MW4 8224   2.221   1.160   3.404  0.0107 -0.0244 -0.0353
    1SOL     OW 8225   2.466   1.257   3.476  0.3823  0.4439  0.0443
    1SOL    HW2 8226   2.465   1.261   3.572  0.2875  1.0788  0.0173
    1SOL    HW3 8227   2.540   1.201   3.455  1.6590  1.9655  0.4337
    1SOL    MW4 8228   2.475   1.250   3.486  0.5386  0.7286  0.0923
    1SOL     OW 8229   2.490   1.539   3.415  0.2741  0.2470 -0.0737
    1SOL    HW2 8230   2.482   1.448   3.444 -2.2829  0.6424  0.5378
    1SOL    HW3 8231   2.488   1.533   3.319  2.0801 -0.4885 -0.0824
    1SOL    MW4 8232   2.489   1.526   3.406  0.1748  0.2021  0.0057
    1SOL     OW 8233   2.263   1.692   3.501  0.1823 -0.1932  0.0957
    1SOL    HW2 8234   2.239   1.687   3.593 -0.6631 -2.9015 -0.2421
    1SOL    HW3 8235   2.347   1.647   3.495  0.6512  0.7129 -0.3483
    1SOL    MW4 8236   2.271   1.686   3.512  0.1326 -0.4311 -0.0074
    1SOL     OW 8237   2.210   1.932   3.368  0.0777  0.5950  0.4479
    1SOL    HW2 8238   2.232   1.845   3.401  0.2003  0.3107 -0.3672
    1SOL    HW3 8239   2.202   1.920   3.273 -0.5708  1.3307  0.4065
    1SOL    MW4 8240   2.212   1.918   3.360  0.0086  0.6547  0.3347
    1SOL     OW 8241   2.413   2.053   3.504  0.3095 -0.3785  0.0671
    1SOL    HW2 8242   2.330   2.026   3.463  0.9031 -1.1809 -0.6210
    1SOL    HW3 8243   2.431   2.139   3.466 -0.5218  0.0845  0.6896
    1SOL    MW4 8244   2.404   2.061   3.493  0.2785 -0.4232  0.0584
    1SOL     OW 8245   2.468   2.309   3.408  0.5437 -0.2930  0.3040
    1SOL    HW2 8246   2.396   2.360   3.445  0.5033  1.4147 -2.0000
    1SOL    HW3 8247   2.542   2.324   3.466  0.1425  1.2734  0.4125
    1SOL    MW4 8248   2.468   2.317   3.420  0.4854  0.1390  0.0143
    1SOL     OW 8249   2.253   2.452   3.513 -0.1117 -0.1133  0.3125
    1SOL    HW2 8250   2.180   2.427   3.456  0.0215  0.3601 -0.0700
    1SOL    HW3 8251   2.271   2.543   3.491  0.8982 -0.3574  0.0831
    1SOL    MW4 8252   2.246   2.461   3.503  0.0391 -0.0830  0.2317
    1SOL     OW 8253   2.294   2.717   3.408  0.0665  0.2546  0.3973
    1SOL    HW2 8254   2.209   2.734   3.450 -0.4493  1.0484 -0.9224
    1SOL    HW3 8255   2.272   2.696   3.318  1.3225  1.1927 -0.1404
    1SOL    MW4 8256   2.280   2.717   3.402  0.1640  0.4833  0.1526
    1SOL     OW 8257   2.511   2.845   3.502  0.0653 -0.0524 -0.0978
    1SOL    HW2 8258   2.498   2.937   3.478  0.2398  0.0221  0.0984
    1SOL    HW3 8259   2.436   2.799   3.463 -0.1055  0.1955 -0.0585
    1SOL    MW4 8260   2.499   2.851   3.494  0.0663 -0.0100 -0.0668
    1SOL     OW 8261   2.463   3.095   3.395  0.4695 -0.4273  0.1143
    1SOL    HW2 8262   2.543   3.138   3.426 -0.4620  2.6378 -1.5036
    1SOL    HW3 8263   2.479   3.076   3.303 -0.1599 -1.0830  0.1297
    1SOL    MW4 8264   2.475   3.098   3.387  0.2635 -0.1094 -0.0968
    1SOL     OW 8265   2.220   3.214   3.468  0.1242  0.7006 -0.1097
    1SOL    HW2 8266   2.242   3.207   3.561 -0.1390  1.5965  0.0253
    1SOL    HW3 8267   2.299   3.186   3.422 -0.8171 -3.0135  0.3638
    1SOL    MW4 8268   2.233   3.209   3.474 -0.0348  0.3288 -0.0293
    1SOL     OW 8269   2.243   3.473   3.412 -0.2100 -0.0958 -0.0242
    1SOL    HW2 8270   2.239   3.382   3.439  0.8953  0.2013  1.1954
    1SOL    HW3 8271   2.234   3.471   3.316 -0.5812 -1.4308  0.0353
    1SOL    MW4 8272   2.241   3.461   3.403 -0.1130 -0.2329  0.1447
    1SOL     OW 8273   2.477   3.607   3.508  0.4619 -0.0927  0.0316
    1SOL    HW2 8274   2.477   3.693   3.465  0.2630  0.2415  0.6993
    1SOL    HW3 8275   2.392   3.570   3.485  0.9186 -0.5009 -1.0262
    1SOL    MW4 8276   2.466   3.614   3.499  0.4959 -0.1025 -0.0198
    1SOL     OW 8277   2.476   3.861   3.390  0.5238  0.8855 -0.1328
    1SOL    HW2 8278   2.554   3.910   3.416  0.7175  0.8837 -0.6970
    1SOL    HW3 8279   2.403   3.906   3.433  0.9583  0.0536  1.5436
    1SOL    MW4 8280   2.476   3.873   3.399  0.6065  0.7753  0.0138
    1SOL     OW 8281   2.259   3.978   3.512  0.2692  0.2137 -0.0905
    1SOL    HW2 8282   2.244   4.068   3.482  1.0803 -0.0430 -1.2738
    1SOL    HW3 8283   2.194   3.926   3.464  0.9545 -0.0679 -0.7216
    1SOL    MW4 8284   2.248   3.983   3.502  0.4663  0.1428 -0.3300
    1SOL     OW 8285   2.228   4.230   3.412 -0.0041  0.5634 -0.1393
    1SOL    HW2 8286   2.144   4.268   3.437 -0.5895 -0.4233 -0.5730
    1SOL    HW3 8287   2.228   4.232   3.316  0.3776  0.3714 -0.1460
    1SOL    MW4 8288   2.217   4.235   3.403 -0.0308  0.4077 -0.1974
    1SOL     OW 8289   2.456   4.381   3.484  0.1315 -0.1745 -0.0645
    1SOL    HW2 8290   2.467   4.387   3.579 -0.6529  1.8940 -0.0617
    1SOL    HW3 8291   2.374   4.334   3.472  0.8524 -1.5187  0.2524
    1SOL    MW4 8292   2.446   4.376   3.495  0.1233 -0.0792 -0.0224
    1SOL     OW 8293   2.919   0.033   3.427  0.1511  0.0328 -0.7174
    1SOL    HW2 8294   2.834   0.069   3.452 -0.2080 -0.7910 -0.7502
    1SOL    HW3 8295   2.918   0.034   3.331  0.2461  0.1646 -0.7177
    1SOL    MW4 8296   2.908   0.038   3.418  0.1163 -0.0587 -0.7219
    1SOL     OW 8297   2.662   0.146   3.494 -0.0577  0.1929 -0.3484
    1SOL    HW2 8298   2.685   0.144   3.587  0.6248  0.1096 -0.5198
    1SOL    HW3 8299   2.586   0.088   3.487  0.5663 -0.6728 -0.0287
    1SOL    MW4 8300   2.655   0.138   3.505  0.1147  0.0677 -0.3288
    1SOL     OW 8301   2.622   0.386   3.369  0.0207 -0.4839 -0.6934
    1SOL    HW2 8302   2.697   0.440   3.397 -0.1897 -0.2988 -0.4822
    1SOL    HW3 8303   2.647   0.297   3.393 -0.5177 -0.2353  0.9048
    1SOL    MW4 8304   2.635   0.381   3.376 -0.0782 -0.4267 -0.4542
    1SOL     OW 8305   2.843   0.547   3.436  0.2723 -0.0447  0.5107
    1SOL    HW2 8306   2.834   0.564   3.530 -0.8699 -0.6171  0.5053
    1SOL    HW3 8307   2.834   0.633   3.395  0.7402  0.2012  0.9104
    1SOL    MW4 8308   2.841   0.561   3.443  0.1833 -0.0877  0.5629
    1SOL     OW 8309   2.871   0.827   3.333  0.3043 -0.1104  0.0885
    1SOL    HW2 8310   2.949   0.850   3.384  0.3536  0.0341 -0.0496
    1SOL    HW3 8311   2.798   0.848   3.390  0.3612 -0.0198  0.1279
    1SOL    MW4 8312   2.872   0.833   3.347  0.3185 -0.0794  0.0753
    1SOL     OW 8313   2.661   0.910   3.511 -0.2346 -0.0714  0.4327
    1SOL    HW2 8314   2.636   0.913   3.603 -0.4131  0.3397  0.3720
    1SOL    HW3 8315   2.680   1.001   3.489 -0.0764 -0.1857  0.0934
    1SOL    MW4 8316   2.660   0.922   3.521 -0.2372 -0.0322  0.3803
    1SOL     OW 8317   2.715   1.169   3.416  0.0989  0.3088 -0.1029
    1SOL    HW2 8318   2.790   1.223   3.441  1.7385 -2.7119  1.6784
    1SOL    HW3 8319   2.723   1.159   3.321  1.7793  0.2729  0.0316
    1SOL    MW4 8320   2.726   1.175   3.407  0.5367 -0.0944  0.1500
    1SOL     OW 8321   2.953   1.316   3.478 -0.5191  0.0399  0.3564
    1SOL    HW2 8322   2.950   1.301   3.572 -0.3695  0.6045  0.4538
    1SOL    HW3 8323   3.028   1.263   3.448 -0.0996  0.4526  0.6679
    1SOL    MW4 8324   2.963   1.307   3.486 -0.4442  0.1689  0.4103
    1SOL     OW 8325   2.941   1.577   3.415  0.1644  0.2876  0.6049
    1SOL    HW2 8326   2.858   1.615   3.441 -0.1003 -0.0992  0.3248
    1SOL    HW3 8327   2.930   1.483   3.430  0.7267  0.2876  1.0574
    1SOL    MW4 8328   2.929   1.570   3.420  0.2041  0.2365  0.6275
    1SOL     OW 8329   2.708   1.696   3.489  0.0357  0.0436  0.8702
    1SOL    HW2 8330   2.699   1.784   3.452 -0.4392 -0.5145 -0.3964
    1SOL    HW3 8331   2.633   1.648   3.454  1.0307 -1.2316  0.4416
    1SOL    MW4 8332   2.697   1.702   3.479  0.1044 -0.1982  0.6466
    1SOL     OW 8333   2.656   1.941   3.396  0.2623  0.1579 -0.1945
    1SOL    HW2 8334   2.568   1.971   3.421 -0.8180 -1.0659 -2.3650
    1SOL    HW3 8335   2.649   1.923   3.302  2.3555 -1.6470 -0.0397
    1SOL    MW4 8336   2.643   1.943   3.387  0.3963 -0.2416 -0.4604
    1SOL     OW 8337   2.925   2.039   3.485 -0.1869  0.1256 -0.1011
    1SOL    HW2 8338   2.932   2.027   3.580  0.7300 -0.9100 -0.3003
    1SOL    HW3 8339   2.852   1.983   3.459  0.3592 -0.5406 -0.1902
    1SOL    MW4 8340   2.916   2.030   3.494  0.0062 -0.0992 -0.1392
    1SOL     OW 8341   2.939   2.283   3.368 -0.1139  0.1495 -0.1568
    1SOL    HW2 8342   2.930   2.192   3.395  0.9454  0.2059  0.3860
    1SOL    HW3 8343   2.933   2.280   3.272 -1.1463 -0.3582 -0.0899
    1SOL    MW4 8344   2.937   2.271   3.358 -0.1104  0.0899 -0.0763
    1SOL     OW 8345   2.734   2.450   3.497 -0.1219 -0.3980 -0.7322
    1SOL    HW2 8346   2.722   2.423   3.588 -0.5737 -0.6779 -0.8767
    1SOL    HW3 8347   2.792   2.384   3.460 -0.2960 -0.5279 -0.7707
    1SOL    MW4 8348   2.740   2.438   3.504 -0.2043 -0.4523 -0.7563
    1SOL     OW 8349   2.714   2.695   3.364 -0.1474  0.1096  0.1075
    1SOL    HW2 8350   2.710   2.604   3.394 -0.4299  0.0319 -0.1607
    1SOL    HW3 8351   2.640   2.738   3.407 -0.2240  0.1281 -0.0391
    1SOL    MW4 8352   2.704   2.689   3.373 -0.1950  0.1018  0.0525
    1SOL     OW 8353   2.947   2.825   3.494 -0.0393  0.0398 -0.0405
    1SOL    HW2 8354   2.951   2.813   3.589  0.4637 -0.0199 -0.0659
    1SOL    HW3 8355   2.873   2.772   3.466 -1.7277  1.9653  0.6115
    1SOL    MW4 8356   2.938   2.817   3.503 -0.1955  0.2859  0.0422
    1SOL     OW 8357   2.922   3.096   3.414  0.0142 -0.2893  0.0670
    1SOL    HW2 8358   2.929   3.001   3.429 -1.2085 -0.5805 -1.0968
    1SOL    HW3 8359   2.921   3.105   3.319 -1.4284  0.7601  0.1688
    1SOL    MW4 8360   2.922   3.084   3.404 -0.3371 -0.1895 -0.0732
    1SOL     OW 8361   2.683   3.199   3.476  0.0680  0.2864  0.0102
    1SOL    HW2 8362   2.679   3.191   3.571  0.6055 -0.9151 -0.0493
    1SOL    HW3 8363   2.774   3.178   3.454 -0.4745 -1.1639 -0.9124
    1SOL    MW4 8364   2.695   3.195   3.485  0.0672 -0.0637 -0.1194
    1SOL     OW 8365   2.664   3.458   3.365 -0.1252 -0.7757 -0.0843
    1SOL    HW2 8366   2.658   3.374   3.411 -0.1127 -0.0205  1.3409
    1SOL    HW3 8367   2.607   3.516   3.414  1.2957  0.5310  0.0650
    1SOL    MW4 8368   2.656   3.455   3.378  0.0639 -0.5035  0.1235
    1SOL     OW 8369   2.905   3.579   3.474  0.0490 -0.3028 -0.2342
    1SOL    HW2 8370   2.890   3.672   3.456  0.9481  0.4742  2.6526
    1SOL    HW3 8371   2.822   3.536   3.453 -1.0778  1.5049  0.4110
    1SOL    MW4 8372   2.892   3.586   3.469  0.0188  0.0381  0.2320
    1SOL     OW 8373   2.870   3.844   3.393 -0.3417  0.0937 -0.2059
    1SOL    HW2 8374   2.953   3.886   3.415 -0.2811  0.0808 -0.4100
    1SOL    HW3 8375   2.803   3.905   3.425 -0.2546 -0.2692  0.6620
    1SOL    MW4 8376   2.872   3.858   3.400 -0.3221  0.0439 -0.1185
    1SOL     OW 8377   2.679   4.004   3.503  0.4856 -0.0938 -0.1216
    1SOL    HW2 8378   2.675   4.008   3.599  1.0688  1.2442 -0.1474
    1SOL    HW3 8379   2.669   4.095   3.475 -1.8053 -0.7245 -1.4197
    1SOL    MW4 8380   2.677   4.017   3.512  0.2601 -0.0005 -0.2966
    1SOL     OW 8381   2.684   4.256   3.371  0.1232  0.2174 -0.2361
    1SOL    HW2 8382   2.755   4.313   3.401  0.8026 -0.7156 -0.0428
    1SOL    HW3 8383   2.604   4.301   3.399  0.6457  1.0251 -0.0040
    1SOL    MW4 8384   2.683   4.270   3.379  0.2816  0.2003 -0.1800
    1SOL     OW 8385   2.906   4.405   3.504  0.3719 -0.0814 -0.2359
    1SOL    HW2 8386   2.924   4.387   3.596 -1.1921  1.7555  0.4570
    1SOL    HW3 8387   2.899   4.501   3.499 -2.5338 -0.3109 -1.6724
    1SOL    MW4 8388   2.908   4.416   3.515 -0.2177  0.1307 -0.3340
    1SOL     OW 8389   3.329   4.641   3.407  0.5108  0.1958 -0.0004
    1SOL    HW2 8390   3.262   4.703   3.436  0.6918  0.3042  0.1874
    1SOL    HW3 8391   3.321   4.641   3.312  0.1699  0.1239  0.0277
    1SOL    MW4 8392   3.320   4.649   3.398  0.4900  0.2007  0.0281
    1SOL     OW 8393   3.158   0.164   3.502 -0.1214  0.2437  0.3242
    1SOL    HW2 8394   3.157   0.256   3.475 -2.0767  0.2046  0.2529
    1SOL    HW3 8395   3.076   0.128   3.469  0.6716 -1.5655  0.2617
    1SOL    MW4 8396   3.147   0.171   3.494 -0.2747 -0.0001  0.3064
    1SOL     OW 8397   3.091   0.424   3.412 -0.6305 -0.1208  0.0004
    1SOL    HW2 8398   3.008   0.463   3.438 -1.0354 -0.2493 -1.1022
    1SOL    HW3 8399   3.092   0.428   3.317  0.7046  0.0273  0.0052
    1SOL    MW4 8400   3.081   0.430   3.403 -0.5076 -0.1182 -0.1447
    1SOL     OW 8401   3.367   0.469   3.468 -0.1438  0.0095  0.0846
    1SOL    HW2 8402   3.382   0.468   3.562 -1.3019  0.4734  0.2866
    1SOL    HW3 8403   3.273   0.453   3.458  0.1663 -1.2340 -1.0512
    1SOL    MW4 8404   3.356   0.467   3.479 -0.2558 -0.0934 -0.0386
    1SOL     OW 8405   3.346   0.750   3.378 -0.3561 -0.0994 -0.3191
    1SOL    HW2 8406   3.428   0.798   3.393 -0.2525  0.0542 -1.3266
    1SOL    HW3 8407   3.370   0.658   3.384  0.3836 -0.1222 -2.8879
    1SOL    MW4 8408   3.360   0.744   3.380 -0.2446 -0.0821 -0.7908
    1SOL     OW 8409   3.106   0.895   3.460 -0.1052  0.1101  0.3519
    1SOL    HW2 8410   3.116   0.978   3.415 -0.9465  0.2080  0.3279
    1SOL    HW3 8411   3.189   0.849   3.447 -0.0058  0.5296 -0.4777
    1SOL    MW4 8412   3.118   0.900   3.452 -0.2031  0.1784  0.2394
    1SOL     OW 8413   3.128   1.147   3.360 -0.0052 -0.2481  0.3121
    1SOL    HW2 8414   3.201   1.203   3.386  0.5607 -1.2728  0.9982
    1SOL    HW3 8415   3.124   1.155   3.265  0.1054  0.9001  0.4048
    1SOL    MW4 8416   3.137   1.155   3.351  0.0842 -0.2317  0.4148
    1SOL     OW 8417   3.337   1.289   3.500  0.0332  0.0342  0.4203
    1SOL    HW2 8418   3.416   1.242   3.472  0.1748  0.1614  0.6041
    1SOL    HW3 8419   3.347   1.377   3.465 -1.6718 -0.8928 -2.5429
    1SOL    MW4 8420   3.349   1.294   3.492 -0.1729 -0.0713  0.0539
    1SOL     OW 8421   3.383   1.542   3.409  0.2079  0.0713  0.0737
    1SOL    HW2 8422   3.456   1.593   3.442  0.2071  0.1822 -0.0957
    1SOL    HW3 8423   3.306   1.579   3.452  0.3596 -0.7477  1.0836
    1SOL    MW4 8424   3.382   1.553   3.419  0.2279 -0.0221  0.1848
    1SOL     OW 8425   3.170   1.713   3.466 -0.6642 -0.0626  0.1460
    1SOL    HW2 8426   3.150   1.784   3.405 -2.0254 -0.9552 -0.4550
    1SOL    HW3 8427   3.092   1.658   3.465 -0.5859 -0.2628  2.4511
    1SOL    MW4 8428   3.157   1.715   3.458 -0.8333 -0.2068  0.3707
    1SOL     OW 8429   3.147   1.965   3.357  0.1985  0.0075  0.0486
    1SOL    HW2 8430   3.080   2.013   3.407  0.4692  2.1956 -1.5946
    1SOL    HW3 8431   3.230   2.002   3.387  0.4372  0.2616 -0.9108
    1SOL    MW4 8432   3.149   1.976   3.368  0.2656  0.3297 -0.2947
    1SOL     OW 8433   3.361   2.068   3.521 -0.0619 -0.1990 -0.1013
    1SOL    HW2 8434   3.366   2.159   3.493  0.0534 -0.4202 -0.8257
    1SOL    HW3 8435   3.382   2.070   3.614 -0.9757  0.6132  0.0824
    1SOL    MW4 8436   3.365   2.080   3.529 -0.1674 -0.1211 -0.1729
    1SOL     OW 8437   3.399   2.318   3.405  0.7155  0.1880 -0.0256
    1SOL    HW2 8438   3.468   2.355   3.460 -0.0561  1.6726 -0.0395
    1SOL    HW3 8439   3.320   2.364   3.432 -0.4901 -2.2210  0.7189
    1SOL    MW4 8440   3.398   2.329   3.416  0.4547  0.0658  0.0706
    1SOL     OW 8441   3.158   2.418   3.484 -0.3554  0.3128 -0.1865
    1SOL    HW2 8442   3.160   2.510   3.460 -0.3762  0.5505  0.7157
    1SOL    HW3 8443   3.074   2.386   3.451 -0.1152  0.4840 -0.9676
    1SOL    MW4 8444   3.147   2.426   3.477 -0.3264  0.3667 -0.1702
    1SOL     OW 8445   3.153   2.692   3.368 -0.2840  0.2471 -0.2958
    1SOL    HW2 8446   3.233   2.724   3.410 -0.5101 -1.7001  1.6869
    1SOL    HW3 8447   3.082   2.742   3.409 -0.3992 -0.7605  0.7410
    1SOL    MW4 8448   3.154   2.703   3.379 -0.3290 -0.1428  0.1025
    1SOL     OW 8449   3.375   2.783   3.509  0.2543 -0.4643  0.2385
    1SOL    HW2 8450   3.386   2.796   3.603 -3.9334 -1.2807  0.9211
    1SOL    HW3 8451   3.363   2.871   3.473 -0.3042 -0.3103  0.8014
    1SOL    MW4 8452   3.375   2.797   3.516 -0.3722 -0.5517  0.4029
    1SOL     OW 8453   3.374   3.033   3.405 -0.3378 -0.1447 -0.1433
    1SOL    HW2 8454   3.452   3.076   3.438 -0.4321  0.5309 -0.7766
    1SOL    HW3 8455   3.302   3.091   3.430 -0.5921 -0.5384  0.0475
    1SOL    MW4 8456   3.374   3.046   3.412 -0.3839 -0.1075 -0.2017
    1SOL     OW 8457   3.175   3.237   3.496  0.1796 -0.1043 -0.0842
    1SOL    HW2 8458   3.178   3.324   3.455 -0.3264  0.0259  0.1561
    1SOL    HW3 8459   3.091   3.200   3.470 -0.7922  0.5581  1.9857
    1SOL    MW4 8460   3.165   3.244   3.488 -0.0155  0.0000  0.2203
    1SOL     OW 8461   3.138   3.486   3.364 -0.1905 -0.0143 -0.1950
    1SOL    HW2 8462   3.051   3.515   3.389 -0.6377 -0.5216 -1.1122
    1SOL    HW3 8463   3.142   3.504   3.270  0.5901 -0.2506 -0.2055
    1SOL    MW4 8464   3.127   3.492   3.355 -0.1466 -0.1123 -0.3176
    1SOL     OW 8465   3.370   3.604   3.488  0.6315 -0.2521 -0.3879
    1SOL    HW2 8466   3.375   3.690   3.446 -0.3078  0.0245  0.0626
    1SOL    HW3 8467   3.281   3.574   3.472  0.7444 -0.8417  0.0626
    1SOL    MW4 8468   3.359   3.611   3.480  0.5224 -0.2935 -0.2689
    1SOL     OW 8469   3.391   3.853   3.407 -0.0006  0.1976  0.3189
    1SOL    HW2 8470   3.462   3.897   3.454  0.6767 -0.2248 -0.2821
    1SOL    HW3 8471   3.313   3.872   3.457  0.4756  1.0571  0.7444
    1SOL    MW4 8472   3.390   3.861   3.420  0.1512  0.2549  0.2956
    1SOL     OW 8473   3.135   3.934   3.486 -0.0940 -0.1246 -0.5753
    1SOL    HW2 8474   3.124   3.943   3.580  0.4621 -0.5587 -0.4644
    1SOL    HW3 8475   3.133   4.024   3.453 -1.3359 -0.0261 -0.2811
    1SOL    MW4 8476   3.133   3.947   3.494 -0.1843 -0.1688 -0.5219
    1SOL     OW 8477   3.105   4.230   3.417 -0.2242 -0.1279  0.0041
    1SOL    HW2 8478   3.185   4.268   3.453 -0.3819 -0.5000  0.7483
    1SOL    HW3 8479   3.035   4.288   3.448 -0.6541 -1.8800  2.5063
    1SOL    MW4 8480   3.106   4.243   3.426 -0.3016 -0.4086  0.4327
    1SOL     OW 8481   3.329   4.376   3.511 -0.0661 -0.1234  0.2944
    1SOL    HW2 8482   3.334   4.391   3.605 -0.0802 -0.3421  0.3282
    1SOL    HW3 8483   3.333   4.464   3.473  2.4219 -0.1415  0.3847
    1SOL    MW4 8484   3.331   4.390   3.518  0.2604 -0.1545  0.3109
    1SOL     OW 8485   3.825   4.615   3.367  0.0662  0.7355  0.0528
    1SOL    HW2 8486   3.753   4.671   3.395 -0.3191  0.4211 -0.2956
    1SOL    HW3 8487   3.821   4.616   3.271 -0.0302  0.0093  0.0415
    1SOL    MW4 8488   3.815   4.622   3.358  0.0026  0.5980  0.0055
    1SOL     OW 8489   3.583   0.076   3.471  0.4178  0.3108  0.3879
    1SOL    HW2 8490   3.594   0.163   3.433  0.6787 -0.1721 -0.6746
    1SOL    HW3 8491   3.494   0.050   3.446  0.1007  0.5351  1.2646
    1SOL    MW4 8492   3.572   0.084   3.462  0.4101  0.2767  0.3633
    1SOL     OW 8493   3.613   0.326   3.379  0.0988 -0.0004 -0.0953
    1SOL    HW2 8494   3.666   0.387   3.431  0.0777 -0.2158  0.1838
    1SOL    HW3 8495   3.526   0.365   3.377 -0.3274 -0.8369  1.4866
    1SOL    MW4 8496   3.609   0.339   3.386  0.0398 -0.1392  0.1502
    1SOL     OW 8497   3.796   0.497   3.507  0.2556 -0.1847 -0.6694
    1SOL    HW2 8498   3.807   0.495   3.602 -0.2594  1.9153 -0.5499
    1SOL    HW3 8499   3.867   0.441   3.475  2.7584  2.0073  0.7941
    1SOL    MW4 8500   3.807   0.489   3.516  0.5178  0.3816 -0.4604
    1SOL     OW 8501   3.813   0.744   3.359  0.4178 -0.2277  0.5515
    1SOL    HW2 8502   3.888   0.780   3.406 -0.4943 -0.0197  1.9067
    1SOL    HW3 8503   3.795   0.661   3.404 -1.6476  0.8777  1.8628
    1SOL    MW4 8504   3.821   0.738   3.371  0.0248 -0.0544  0.9031
    1SOL     OW 8505   3.589   0.868   3.458  0.7210  0.5032  0.2404
    1SOL    HW2 8506   3.607   0.873   3.552  0.1266  0.7912  0.3412
    1SOL    HW3 8507   3.670   0.833   3.420  1.6631  2.1570  0.6447
    1SOL    MW4 8508   3.602   0.864   3.465  0.7670  0.7595  0.3071
    1SOL     OW 8509   3.567   1.140   3.404 -0.0594  0.6188  0.1687
    1SOL    HW2 8510   3.577   1.049   3.430  0.8971  0.4404 -0.7694
    1SOL    HW3 8511   3.566   1.138   3.308 -1.5569  1.4482  0.1511
    1SOL    MW4 8512   3.568   1.128   3.395 -0.1307  0.7048  0.0427
    1SOL     OW 8513   3.802   1.295   3.465 -0.4294  0.4367  0.0350
    1SOL    HW2 8514   3.791   1.289   3.560  0.4578 -0.4275  0.0838
    1SOL    HW3 8515   3.724   1.252   3.429 -1.9159  2.7704  0.3444
    1SOL    MW4 8516   3.790   1.289   3.472 -0.5083  0.6304  0.0823
    1SOL     OW 8517   3.826   1.570   3.388  0.3663 -0.0017  0.3260
    1SOL    HW2 8518   3.908   1.598   3.429 -0.3168  1.1733  0.9511
    1SOL    HW3 8519   3.817   1.478   3.412  1.5277 -0.1527  0.2070
    1SOL    MW4 8520   3.836   1.562   3.397  0.4294  0.1334  0.3927
    1SOL     OW 8521   3.605   1.671   3.505  0.0844 -0.1968  0.0340
    1SOL    HW2 8522   3.599   1.761   3.473  1.9631  0.0529  0.3241
    1SOL    HW3 8523   3.688   1.639   3.470  0.4386 -1.1204  1.6874
    1SOL    MW4 8524   3.615   1.678   3.496  0.3791 -0.2856  0.2902
    1SOL     OW 8525   3.581   1.927   3.400  0.2211  0.0372 -0.3218
    1SOL    HW2 8526   3.656   1.976   3.435  0.8524 -0.6160 -0.7694
    1SOL    HW3 8527   3.505   1.982   3.421  0.7204  0.2420  0.9869
    1SOL    MW4 8528   3.580   1.941   3.408  0.3705 -0.0221 -0.2081
    1SOL     OW 8529   3.807   2.072   3.500  0.1495 -0.3957 -0.3653
    1SOL    HW2 8530   3.818   2.061   3.595 -0.8681 -0.7063 -0.2814
    1SOL    HW3 8531   3.877   2.019   3.462  0.3390 -0.5601  0.2090
    1SOL    MW4 8532   3.818   2.063   3.508  0.0401 -0.4585 -0.2785
    1SOL     OW 8533   3.801   2.312   3.349 -0.0016 -0.0325 -0.5271
    1SOL    HW2 8534   3.886   2.343   3.380  0.0965 -0.5863 -0.2277
    1SOL    HW3 8535   3.792   2.225   3.388 -0.8066  0.1137 -0.3785
    1SOL    MW4 8536   3.811   2.304   3.358 -0.0951 -0.0865 -0.4678
    1SOL     OW 8537   3.613   2.431   3.530 -0.1913 -0.1997  0.6025
    1SOL    HW2 8538   3.607   2.519   3.493 -0.3925 -0.3198  0.3408
    1SOL    HW3 8539   3.673   2.385   3.471  0.4333 -0.0463  1.1223
    1SOL    MW4 8540   3.620   2.437   3.517 -0.1359 -0.1950  0.6366
    1SOL     OW 8541   3.604   2.665   3.409  0.2446 -0.0811  0.3503
    1SOL    HW2 8542   3.684   2.704   3.445  0.6175 -1.2480  0.8019
    1SOL    HW3 8543   3.533   2.712   3.453  0.6779  0.4627  0.4875
    1SOL    MW4 8544   3.605   2.677   3.420  0.3510 -0.1633  0.4280
    1SOL     OW 8545   3.825   2.796   3.496 -0.0699 -0.0606  0.0478
    1SOL    HW2 8546   3.802   2.798   3.589 -0.2222 -0.0687  0.0105
    1SOL    HW3 8547   3.818   2.886   3.467  0.9171  0.0968  0.2703
    1SOL    MW4 8548   3.821   2.808   3.504  0.0398 -0.0408  0.0722
    1SOL     OW 8549   3.818   3.073   3.442  0.1645  0.0017  0.7021
    1SOL    HW2 8550   3.897   3.119   3.471 -0.1512  1.2130 -0.3680
    1SOL    HW3 8551   3.819   3.080   3.347  0.4432 -2.7557  0.4676
    1SOL    MW4 8552   3.828   3.080   3.433  0.1595 -0.2022  0.5298
    1SOL     OW 8553   3.586   3.196   3.549  0.6498 -0.3988 -0.0496
    1SOL    HW2 8554   3.571   3.275   3.498 -0.2104 -0.4164  0.1689
    1SOL    HW3 8555   3.668   3.161   3.515 -0.2876 -0.8274 -1.9745
    1SOL    MW4 8556   3.595   3.202   3.538  0.4125 -0.4573 -0.2747
    1SOL     OW 8557   3.580   3.449   3.411 -0.1694  0.1491 -0.1262
    1SOL    HW2 8558   3.505   3.499   3.443  0.3173  0.2491  0.8877
    1SOL    HW3 8559   3.582   3.466   3.317 -1.8147 -0.3997 -0.2795
    1SOL    MW4 8560   3.570   3.458   3.403 -0.3223  0.0896 -0.0129
    1SOL     OW 8561   3.799   3.595   3.491  0.1854  0.1670 -0.2207
    1SOL    HW2 8562   3.795   3.596   3.587 -2.2699  0.2973 -0.2898
    1SOL    HW3 8563   3.720   3.548   3.464  0.5234  0.6817 -2.1965
    1SOL    MW4 8564   3.788   3.589   3.500 -0.0939  0.2520 -0.4904
    1SOL     OW 8565   3.811   3.861   3.399 -0.2010 -0.0873  0.1017
    1SOL    HW2 8566   3.749   3.900   3.460  0.3582  0.9463  0.0175
    1SOL    HW3 8567   3.805   3.767   3.415 -0.7841  0.1102  1.0463
    1SOL    MW4 8568   3.802   3.854   3.409 -0.2041  0.0753  0.2151
    1SOL     OW 8569   3.594   3.983   3.556  0.5172  0.0434 -0.1899
    1SOL    HW2 8570   3.573   3.994   3.649  0.5462 -0.7899 -0.0862
    1SOL    HW3 8571   3.577   4.070   3.518 -0.5914  0.0898  0.3821
    1SOL    MW4 8572   3.589   3.996   3.563  0.3748 -0.0608 -0.1009
    1SOL     OW 8573   3.568   4.239   3.440 -0.2242 -0.2833  0.2147
    1SOL    HW2 8574   3.489   4.288   3.462  0.1124  0.0685  0.6542
    1SOL    HW3 8575   3.582   4.257   3.347  0.3139  1.0725  0.5390
    1SOL    MW4 8576   3.560   4.248   3.431 -0.1087 -0.0587  0.3154
    1SOL     OW 8577   3.811   4.382   3.530 -0.3437  0.5577  0.0734
    1SOL    HW2 8578   3.731   4.335   3.506 -0.3447  0.8573 -0.4960
    1SOL    HW3 8579   3.805   4.465   3.484 -0.4616  1.2396  1.2865
    1SOL    MW4 8580   3.799   4.387   3.521 -0.3593  0.6871  0.1583
    1SOL     OW 8581   4.259   4.657   3.399  0.1590  0.0727  0.1786
    1SOL    HW2 8582   4.247   4.577   3.449  1.2527  0.2210  0.6912
    1SOL    HW3 8583   4.339   4.696   3.434  0.1683  0.8940 -0.7248
    1SOL    MW4 8584   4.268   4.652   3.410  0.3042  0.2007  0.1271
    1SOL     OW 8585   4.018   0.105   3.471 -0.3056  0.0639 -0.0792
    1SOL    HW2 8586   4.095   0.063   3.435 -0.2408  1.7210 -1.9143
    1SOL    HW3 8587   3.944   0.060   3.431 -0.2600  0.1979 -0.3136
    1SOL    MW4 8588   4.018   0.094   3.461 -0.2913  0.3003 -0.3524
    1SOL     OW 8589   4.014   0.362   3.385 -0.1191 -0.4435  0.0686
    1SOL    HW2 8590   4.041   0.276   3.418  0.2454 -0.6034 -0.6433
    1SOL    HW3 8591   4.011   0.352   3.290  0.5675  0.5112 -0.0603
    1SOL    MW4 8592   4.017   0.349   3.377  0.0191 -0.3387 -0.0424
    1SOL     OW 8593   4.249   0.474   3.494 -0.6087  0.0741  0.1670
    1SOL    HW2 8594   4.242   0.565   3.468 -0.7392  0.0017 -0.0485
    1SOL    HW3 8595   4.162   0.437   3.478 -1.0526  0.3483  1.8860
    1SOL    MW4 8596   4.237   0.481   3.489 -0.6843  0.1007  0.3650
    1SOL     OW 8597   4.258   0.737   3.416  0.4256  0.3074 -0.1981
    1SOL    HW2 8598   4.343   0.771   3.442  0.4338  1.2225 -1.3397
    1SOL    HW3 8599   4.253   0.755   3.322  0.2349 -2.4794 -0.7491
    1SOL    MW4 8600   4.268   0.744   3.407  0.4020  0.0604 -0.4215
    1SOL     OW 8601   4.021   0.867   3.506 -0.1411 -0.0410  0.3764
    1SOL    HW2 8602   4.020   0.953   3.465 -1.1040 -0.8407 -1.3101
    1SOL    HW3 8603   4.103   0.828   3.476 -0.3941 -0.2623 -0.0312
    1SOL    MW4 8604   4.032   0.873   3.497 -0.3014 -0.1757  0.1001
    1SOL     OW 8605   4.012   1.121   3.378  0.5251  0.4041 -0.0605
    1SOL    HW2 8606   4.089   1.159   3.419  0.4440 -0.7400  1.1696
    1SOL    HW3 8607   3.942   1.183   3.396  0.6207  0.2072  0.9943
    1SOL    MW4 8608   4.013   1.134   3.386  0.5264  0.2271  0.2408
    1SOL     OW 8609   4.239   1.244   3.499  0.0168 -0.4246  0.1872
    1SOL    HW2 8610   4.257   1.330   3.459 -0.8907 -0.0760  0.5110
    1SOL    HW3 8611   4.300   1.185   3.455  1.1881  0.5210  0.5064
    1SOL    MW4 8612   4.249   1.248   3.488  0.0520 -0.2539  0.2720
    1SOL     OW 8613   4.291   1.509   3.386 -0.0361 -0.5710  0.5840
    1SOL    HW2 8614   4.209   1.542   3.423 -0.1906 -0.3645  0.0662
    1SOL    HW3 8615   4.277   1.512   3.291  1.5946  2.1136  0.3975
    1SOL    MW4 8616   4.278   1.514   3.378  0.1588 -0.1895  0.4911
    1SOL     OW 8617   4.071   1.653   3.497  0.5246  0.3996  0.0370
    1SOL    HW2 8618   4.058   1.654   3.592  1.4224  1.3822  0.1703
    1SOL    HW3 8619   4.053   1.743   3.470  0.9640  0.2926 -0.6232
    1SOL    MW4 8620   4.067   1.665   3.506  0.7010  0.5152 -0.0324
    1SOL     OW 8621   4.047   1.937   3.437  0.1579  0.3280  0.1220
    1SOL    HW2 8622   4.129   1.974   3.470  0.4807 -0.8216  0.6561
    1SOL    HW3 8623   4.058   1.934   3.342  1.5008 -1.5225  0.3076
    1SOL    MW4 8624   4.059   1.941   3.429  0.3777 -0.0678  0.2167
    1SOL     OW 8625   4.292   2.067   3.489 -0.4687  0.0513  0.6803
    1SOL    HW2 8626   4.292   2.148   3.439  0.5664  0.5279  1.4394
    1SOL    HW3 8627   4.377   2.027   3.470 -1.1157 -1.0589  0.0141
    1SOL    MW4 8628   4.303   2.072   3.480 -0.4177 -0.0324  0.6926
    1SOL     OW 8629   4.306   2.300   3.332 -0.1405  0.5613 -0.3708
    1SOL    HW2 8630   4.220   2.341   3.344 -1.4534 -2.1191 -0.3155
    1SOL    HW3 8631   4.311   2.282   3.238  0.3971  0.7664 -0.3840
    1SOL    MW4 8632   4.295   2.303   3.321 -0.2427  0.2348 -0.3653
    1SOL     OW 8633   4.054   2.380   3.419 -0.4324  0.0988 -0.0324
    1SOL    HW2 8634   4.024   2.387   3.509 -0.3263  1.1286 -0.0705
    1SOL    HW3 8635   4.064   2.470   3.390 -0.4161 -0.2256 -1.0605
    1SOL    MW4 8636   4.051   2.393   3.427 -0.4163  0.1917 -0.1731
    1SOL     OW 8637   4.049   2.664   3.385  0.2948  0.5933  0.7228
    1SOL    HW2 8638   4.125   2.715   3.414 -0.1904  0.7371  1.7277
    1SOL    HW3 8639   3.974   2.704   3.428 -0.1916 -0.4713  0.8890
    1SOL    MW4 8640   4.049   2.676   3.394  0.1664  0.4718  0.8774
    1SOL     OW 8641   4.272   2.814   3.459  0.0829  0.0636  0.4567
    1SOL    HW2 8642   4.268   2.807   3.555  1.8293  0.0004  0.5480
    1SOL    HW3 8643   4.343   2.754   3.435  0.4638  1.0112 -0.7737
    1SOL    MW4 8644   4.281   2.805   3.469  0.3638  0.1802  0.3066
    1SOL     OW 8645   4.249   3.072   3.397 -0.0389 -0.0412  0.3247
    1SOL    HW2 8646   4.259   2.977   3.408  0.6225 -0.0886 -0.6422
    1SOL    HW3 8647   4.245   3.085   3.302 -0.9175  0.8255  0.4740
    1SOL    MW4 8648   4.250   3.061   3.386 -0.0677  0.0668  0.2170
    1SOL     OW 8649   4.041   3.233   3.503 -0.5389  0.6946 -0.2533
    1SOL    HW2 8650   4.046   3.322   3.468  0.1583  0.7441 -0.0445
    1SOL    HW3 8651   4.119   3.190   3.468 -0.5071  0.3733  0.2125
    1SOL    MW4 8652   4.052   3.239   3.493 -0.4425  0.6588 -0.1645
    1SOL     OW 8653   4.038   3.483   3.399  0.1471 -0.0908 -0.0748
    1SOL    HW2 8654   4.110   3.534   3.436 -0.1209 -0.4178  0.9376
    1SOL    HW3 8655   3.959   3.530   3.427 -0.0811 -0.6807  0.2837
    1SOL    MW4 8656   4.037   3.496   3.408  0.0811 -0.2117  0.1063
    1SOL     OW 8657   4.259   3.614   3.517  0.7627 -0.1469 -0.0328
    1SOL    HW2 8658   4.237   3.612   3.610 -1.6266 -1.5135 -0.5792
    1SOL    HW3 8659   4.280   3.706   3.499  0.8933  0.1828  1.7671
    1SOL    MW4 8660   4.259   3.626   3.527  0.4649 -0.2837  0.1323
    1SOL     OW 8661   4.297   3.891   3.436 -0.3959  0.1532  0.1610
    1SOL    HW2 8662   4.380   3.927   3.467 -0.4104 -0.0191  0.3927
    1SOL    HW3 8663   4.305   3.894   3.340 -0.5520  1.1431  0.1708
    1SOL    MW4 8664   4.309   3.896   3.427 -0.4187  0.2611  0.1926
    1SOL     OW 8665   4.050   4.024   3.506  0.1963 -0.1017  0.1219
    1SOL    HW2 8666   4.134   3.988   3.478  0.3037 -2.4876  3.3503
    1SOL    HW3 8667   3.985   3.973   3.459  0.4764 -0.6414  0.3214
    1SOL    MW4 8668   4.052   4.013   3.496  0.2475 -0.4873  0.5741
    1SOL     OW 8669   4.003   4.256   3.384 -0.0365  0.0207 -0.3323
    1SOL    HW2 8670   4.018   4.169   3.421  0.9251  0.5576  0.5512
    1SOL    HW3 8671   3.939   4.296   3.443  0.8212  0.5434  0.2549
    1SOL    MW4 8672   3.996   4.250   3.397  0.2034  0.1602 -0.1380
    1SOL     OW 8673   4.223   4.385   3.485  0.2805 -0.2418 -0.2323
    1SOL    HW2 8674   4.229   4.383   3.580 -0.1721 -0.1486 -0.2025
    1SOL    HW3 8675   4.146   4.333   3.464  0.3745 -0.2585 -0.5513
    1SOL    MW4 8676   4.214   4.378   3.494  0.2332 -0.2317 -0.2704
    1SOL     OW 8677   0.247   4.665   3.922  0.1362  0.1107  0.0665
    1SOL    HW2 8678   0.234   4.643   4.014 -0.0537 -1.2744 -0.2895
    1SOL    HW3 8679   0.171   4.718   3.899  1.1961  2.2178  1.2461
    1SOL    MW4 8680   0.235   4.669   3.931  0.2510  0.2060  0.1750
    1SOL     OW 8681   4.482   0.095   3.791  0.3530 -0.2437  0.0061
    1SOL    HW2 8682   4.501   0.186   3.814 -0.0951  0.1165 -1.0093
    1SOL    HW3 8683   4.482   0.094   3.695 -0.9455 -1.0303 -0.0020
    1SOL    MW4 8684   4.484   0.107   3.781  0.1230 -0.3000 -0.1290
    1SOL     OW 8685   0.038   0.362   3.863 -0.1914 -0.3029 -0.3518
    1SOL    HW2 8686  -0.043   0.412   3.847  0.0895 -0.1709 -1.3704
    1SOL    HW3 8687   0.106   0.412   3.818  0.4878 -0.3472  0.6133
    1SOL    MW4 8688   0.036   0.375   3.855 -0.0648 -0.2913 -0.3588
    1SOL     OW 8689   0.252   0.505   3.744 -0.0133 -0.1177 -0.1022
    1SOL    HW2 8690   0.273   0.598   3.757 -0.0477 -0.0755 -0.3567
    1SOL    HW3 8691   0.218   0.500   3.655  1.1377 -0.5723 -0.5296
    1SOL    MW4 8692   0.250   0.516   3.734  0.1340 -0.1722 -0.1924
    1SOL     OW 8693   0.244   0.782   3.844 -0.1195  0.4733  0.1370
    1SOL    HW2 8694   0.224   0.778   3.938 -3.1895 -0.5450 -0.4921
    1SOL    HW3 8695   0.173   0.835   3.807  0.1557 -0.5056 -1.8359
    1SOL    MW4 8696   0.232   0.789   3.852 -0.4882  0.2097 -0.2062
    1SOL     OW 8697   0.001   0.935   3.772  0.0741 -0.0796  0.2040
    1SOL    HW2 8698  -0.062   0.877   3.815  2.0924 -1.4993  1.3537
    1SOL    HW3 8699  -0.008   1.019   3.817  0.5476 -0.9103  1.8800
    1SOL    MW4 8700  -0.009   0.939   3.784  0.4029 -0.3765  0.5765
    1SOL     OW 8701   4.473   1.191   3.887 -0.3007 -0.0202  0.0111
    1SOL    HW2 8702   4.381   1.204   3.866 -0.0254  2.1231  0.0430
    1SOL    HW3 8703   4.474   1.171   3.981 -0.6754  0.7988  0.1923
    1SOL    MW4 8704   4.461   1.190   3.897 -0.3138  0.3705  0.0391
    1SOL     OW 8705   0.198   1.271   3.756 -0.1091 -0.3008  0.4770
    1SOL    HW2 8706   0.208   1.357   3.795 -0.8514 -0.2891  0.6491
    1SOL    HW3 8707   0.118   1.236   3.795 -0.5272 -0.5357 -0.5702
    1SOL    MW4 8708   0.189   1.277   3.766 -0.2622 -0.3303  0.3617
    1SOL     OW 8709   0.219   1.521   3.850 -0.4949 -0.6672 -0.0488
    1SOL    HW2 8710   0.218   1.507   3.945  0.5777  2.3735  0.4940
    1SOL    HW3 8711   0.143   1.577   3.833 -0.4501 -0.8646 -0.8962
    1SOL    MW4 8712   0.209   1.527   3.860 -0.3475 -0.2921 -0.0889
    1SOL     OW 8713   4.479   1.670   3.768  0.0401  0.3208  0.4799
    1SOL    HW2 8714   4.500   1.758   3.797  0.5088  0.1525  0.6429
    1SOL    HW3 8715   4.476   1.676   3.672  0.8662  0.3331  0.4529
    1SOL    MW4 8716   4.481   1.682   3.759  0.2117  0.3002  0.4978
    1SOL     OW 8717   0.016   1.923   3.840  0.0350 -0.2637 -0.3460
    1SOL    HW2 8718  -0.017   1.917   3.930 -1.1271  0.3263 -0.7254
    1SOL    HW3 8719  -0.053   1.969   3.792  2.0185  2.3236 -0.8292
    1SOL    MW4 8720   0.003   1.928   3.846  0.1434  0.1554 -0.4597
    1SOL     OW 8721   0.253   1.995   3.760 -0.3014  0.3268 -0.4911
    1SOL    HW2 8722   0.255   2.088   3.782 -0.6476  0.5579 -1.4223
    1SOL    HW3 8723   0.171   1.963   3.796 -0.1813  0.3752 -0.1693
    1SOL    MW4 8724   0.243   2.003   3.768 -0.3312  0.3638 -0.5713
    1SOL     OW 8725   0.221   2.263   3.831 -0.2115 -0.2843 -0.0908
    1SOL    HW2 8726   0.213   2.254   3.925 -1.2375 -2.8647 -0.3773
    1SOL    HW3 8727   0.142   2.310   3.804  0.5895  1.3919  0.4222
    1SOL    MW4 8728   0.210   2.268   3.840 -0.2412 -0.4036 -0.0608
    1SOL     OW 8729   4.484   2.415   3.732 -0.1604  0.5190 -0.1012
    1SOL    HW2 8730   4.397   2.385   3.759 -0.4547  0.4628 -1.0754
    1SOL    HW3 8731   4.490   2.505   3.762 -1.0144  0.8937 -1.0719
    1SOL    MW4 8732   4.474   2.423   3.740 -0.3128  0.5612 -0.3579
    1SOL     OW 8733   4.490   2.668   3.857  0.1337  0.1554  0.4453
    1SOL    HW2 8734   4.470   2.674   3.951 -1.7098  0.1359  0.0699
    1SOL    HW3 8735   4.568   2.721   3.846  0.0937  0.5442  1.9199
    1SOL    MW4 8736   4.497   2.675   3.868 -0.1149  0.2041  0.5903
    1SOL     OW 8737   0.245   2.787   3.798 -0.1009  0.3173 -0.3514
    1SOL    HW2 8738   0.305   2.718   3.827 -0.0784  0.6259  0.3404
    1SOL    HW3 8739   0.249   2.783   3.702 -0.5244 -1.0167 -0.3248
    1SOL    MW4 8740   0.254   2.777   3.789 -0.1538  0.1819 -0.2568
    1SOL     OW 8741   0.241   3.052   3.887  0.1744  0.4499 -0.3620
    1SOL    HW2 8742   0.262   3.045   3.980  1.1735  0.4561 -0.5792
    1SOL    HW3 8743   0.243   2.962   3.855  1.1224  0.5710 -0.6473
    1SOL    MW4 8744   0.244   3.040   3.895  0.4313  0.4666 -0.4284
    1SOL     OW 8745   4.477   3.191   3.829 -0.6836  0.1550  0.1739
    1SOL    HW2 8746   4.560   3.149   3.855 -0.8747 -0.4359 -0.1546
    1SOL    HW3 8747   4.478   3.187   3.734 -0.7201  0.8799  0.1429
    1SOL    MW4 8748   4.488   3.185   3.820 -0.7136  0.1726  0.1264
    1SOL     OW 8749   4.457   3.462   3.877  0.2855  0.0961  0.1865
    1SOL    HW2 8750   4.541   3.495   3.843 -0.5948  1.8720 -0.3470
    1SOL    HW3 8751   4.458   3.368   3.856  2.2037  0.0587  0.3343
    1SOL    MW4 8752   4.468   3.454   3.870  0.4220  0.3252  0.1359
    1SOL     OW 8753   0.201   3.581   3.762  0.0654 -0.0132 -0.2459
    1SOL    HW2 8754   0.288   3.557   3.792  0.1212 -0.8915 -1.0978
    1SOL    HW3 8755   0.186   3.668   3.799  0.1860 -0.9873  2.1618
    1SOL    MW4 8756   0.211   3.590   3.771  0.0887 -0.2577 -0.0405
    1SOL     OW 8757   0.162   3.859   3.892  0.1133 -0.1691 -0.3605
    1SOL    HW2 8758   0.239   3.909   3.864 -0.1994  0.6145  0.1766
    1SOL    HW3 8759   0.167   3.859   3.987 -0.3890 -0.3822 -0.3356
    1SOL    MW4 8760   0.173   3.866   3.901  0.0058 -0.0937 -0.2863
    1SOL     OW 8761   4.452   4.021   3.788 -0.3635  0.1540 -0.2749
    1SOL    HW2 8762   4.380   3.961   3.807 -0.2529  0.4514  1.1575
    1SOL    HW3 8763   4.527   3.984   3.834  0.2017  0.2900 -1.0760
    1SOL    MW4 8764   4.452   4.008   3.796 -0.2742  0.2112 -0.1912
    1SOL     OW 8765   4.439   4.266   3.899  0.4153  0.2663 -0.0404
    1SOL    HW2 8766   4.516   4.313   3.867 -0.6846  0.8947 -1.8215
    1SOL    HW3 8767   4.450   4.177   3.866  1.2211 -0.0862  1.1588
    1SOL    MW4 8768   4.450   4.260   3.890  0.3767  0.3028 -0.1173
    1SOL     OW 8769   0.181   4.415   3.800 -0.0585  0.5452 -0.3870
    1SOL    HW2 8770   0.265   4.373   3.821 -0.1792  0.8279  0.6984
    1SOL    HW3 8771   0.191   4.505   3.833 -1.8772 -0.2536  2.5143
    1SOL    MW4 8772   0.194   4.422   3.807 -0.3144  0.4768  0.1392
    1SOL     OW 8773   0.680   0.007   3.883 -0.6155  0.2095  0.0587
    1SOL    HW2 8774   0.656  -0.081   3.854 -0.7875  0.1184  0.4675
    1SOL    HW3 8775   0.623   0.066   3.833  1.2304  0.2488 -2.0683
    1SOL    MW4 8776   0.670   0.003   3.872 -0.3945  0.2027 -0.1678
    1SOL     OW 8777   0.458   0.133   3.779 -0.0089 -0.1633 -0.3168
    1SOL    HW2 8778   0.468   0.218   3.820  0.8220 -0.3495 -0.1259
    1SOL    HW3 8779   0.382   0.093   3.823 -0.1371  0.3017 -0.1194
    1SOL    MW4 8780   0.449   0.139   3.790  0.0838 -0.1265 -0.2658
    1SOL     OW 8781   0.477   0.385   3.882  0.0515  0.2035 -0.6264
    1SOL    HW2 8782   0.554   0.425   3.842 -0.2842  0.7732 -0.7093
    1SOL    HW3 8783   0.403   0.418   3.831 -0.1908 -0.9984 -1.0758
    1SOL    MW4 8784   0.477   0.395   3.870 -0.0247  0.1201 -0.6967
    1SOL     OW 8785   0.692   0.505   3.747 -0.5619  0.0128 -0.0626
    1SOL    HW2 8786   0.762   0.451   3.784 -0.2048  1.1074  0.8658
    1SOL    HW3 8787   0.705   0.591   3.786 -1.6797  0.5402 -0.8483
    1SOL    MW4 8788   0.703   0.509   3.757 -0.6623  0.2267 -0.0436
    1SOL     OW 8789   0.709   0.762   3.876 -0.2334 -0.0430  0.2687
    1SOL    HW2 8790   0.786   0.815   3.852 -0.3873 -0.4505 -1.2038
    1SOL    HW3 8791   0.635   0.808   3.837 -0.5301 -0.5891  0.1811
    1SOL    MW4 8792   0.710   0.775   3.867 -0.2928 -0.1689  0.0629
    1SOL     OW 8793   0.495   0.905   3.755  0.4652  0.1700 -0.2641
    1SOL    HW2 8794   0.479   0.996   3.780  0.4697  0.2280 -0.4715
    1SOL    HW3 8795   0.418   0.858   3.787  0.2638  0.3164 -0.5371
    1SOL    MW4 8796   0.483   0.910   3.763  0.4393  0.1970 -0.3276
    1SOL     OW 8797   0.394   1.143   3.899 -0.4405 -0.4637 -0.3528
    1SOL    HW2 8798   0.476   1.179   3.865  0.0640 -2.1529 -0.9882
    1SOL    HW3 8799   0.325   1.195   3.855  0.2699  0.6810 -0.1318
    1SOL    MW4 8800   0.395   1.155   3.888 -0.2802 -0.5354 -0.4072
    1SOL     OW 8801   0.646   1.223   3.796 -0.0115 -0.2270 -0.1470
    1SOL    HW2 8802   0.728   1.180   3.822  0.5998  1.0868  0.1019
    1SOL    HW3 8803   0.654   1.235   3.701  0.5502  0.8966  0.0455
    1SOL    MW4 8804   0.658   1.219   3.787  0.1432  0.0944 -0.0885
    1SOL     OW 8805   0.670   1.498   3.910 -0.0602  0.1152  0.0433
    1SOL    HW2 8806   0.753   1.520   3.866  0.3309  0.5945  1.0223
    1SOL    HW3 8807   0.644   1.415   3.869  1.5137 -0.6532  0.5577
    1SOL    MW4 8808   0.678   1.490   3.899  0.1991  0.0770  0.2406
    1SOL     OW 8809   0.470   1.629   3.793  0.4873  0.4302  0.2506
    1SOL    HW2 8810   0.530   1.573   3.842 -0.3964  0.3890  1.2948
    1SOL    HW3 8811   0.384   1.590   3.806  0.0248  1.3609  0.0114
    1SOL    MW4 8812   0.467   1.617   3.801  0.3097  0.5475  0.3567
    1SOL     OW 8813   0.498   1.887   3.886  0.0081 -0.6954 -0.0751
    1SOL    HW2 8814   0.497   1.797   3.855  0.5276 -1.0674  0.9601
    1SOL    HW3 8815   0.415   1.924   3.857 -0.8047 -1.9135  0.6890
    1SOL    MW4 8816   0.487   1.880   3.878 -0.0306 -0.9052  0.1621
    1SOL     OW 8817   0.716   2.006   3.734  0.0157 -0.4549  0.2004
    1SOL    HW2 8818   0.729   2.086   3.786 -1.3718  0.0316 -0.1538
    1SOL    HW3 8819   0.630   1.974   3.761 -1.6087  0.8584 -3.0918
    1SOL    MW4 8820   0.706   2.013   3.744 -0.3817 -0.2174 -0.2809
    1SOL     OW 8821   0.686   2.254   3.865 -0.1810  0.2884 -0.5049
    1SOL    HW2 8822   0.761   2.313   3.854  1.3602 -1.7139 -1.1404
    1SOL    HW3 8823   0.612   2.301   3.829  0.8110  2.2589 -0.0237
    1SOL    MW4 8824   0.686   2.268   3.859  0.1532  0.2842 -0.5248
    1SOL     OW 8825   0.456   2.363   3.739  0.0509 -0.2265  0.2886
    1SOL    HW2 8826   0.377   2.318   3.768  0.2955 -1.2706 -0.6501
    1SOL    HW3 8827   0.446   2.371   3.645  0.7335  0.2902  0.2560
    1SOL    MW4 8828   0.445   2.358   3.731  0.1732 -0.2961  0.1607
    1SOL     OW 8829   0.476   2.609   3.873  0.5638 -0.6499  0.3021
    1SOL    HW2 8830   0.528   2.672   3.822  0.4639 -1.3400 -0.6685
    1SOL    HW3 8831   0.471   2.532   3.817  1.3464 -1.8242  1.8141
    1SOL    MW4 8832   0.482   2.607   3.859  0.6539 -0.8957  0.3736
    1SOL     OW 8833   0.645   2.781   3.757 -0.6650  0.2998  0.5732
    1SOL    HW2 8834   0.731   2.761   3.793 -0.5252  0.5484  0.3825
    1SOL    HW3 8835   0.660   2.790   3.662 -0.5872  1.9886  0.7334
    1SOL    MW4 8836   0.659   2.780   3.749 -0.6363  0.5553  0.5689
    1SOL     OW 8837   0.656   3.058   3.821 -0.8217  0.5318 -0.2473
    1SOL    HW2 8838   0.681   3.065   3.913 -4.4399  2.5363  0.6628
    1SOL    HW3 8839   0.644   2.964   3.807  2.1494 -0.0341  0.5613
    1SOL    MW4 8840   0.658   3.046   3.831 -0.9072  0.7217 -0.0203
    1SOL     OW 8841   0.440   3.209   3.782  0.1219 -0.2268  0.0302
    1SOL    HW2 8842   0.516   3.153   3.797 -0.4972 -1.0537  0.0648
    1SOL    HW3 8843   0.367   3.163   3.824 -0.4830  0.3592 -0.3700
    1SOL    MW4 8844   0.441   3.196   3.789 -0.0396 -0.2584 -0.0181
    1SOL     OW 8845   0.444   3.506   3.868 -0.2011 -0.0947  0.3166
    1SOL    HW2 8846   0.527   3.544   3.839 -1.2926  0.5579 -2.0862
    1SOL    HW3 8847   0.454   3.412   3.851 -0.0878  0.0271 -0.3058
    1SOL    MW4 8848   0.457   3.498   3.862 -0.3302  0.0072 -0.0827
    1SOL     OW 8849   0.686   3.623   3.781 -0.0482 -0.4700 -0.1123
    1SOL    HW2 8850   0.675   3.713   3.813  2.8849 -0.2855  0.5286
    1SOL    HW3 8851   0.666   3.628   3.688  0.7291  1.0101 -0.2147
    1SOL    MW4 8852   0.682   3.635   3.773  0.4413 -0.2503 -0.0410
    1SOL     OW 8853   0.624   3.871   3.874 -0.2223  0.1029 -0.1923
    1SOL    HW2 8854   0.639   3.874   3.968 -0.9292 -0.3994 -0.0595
    1SOL    HW3 8855   0.683   3.938   3.838 -0.8205  1.1340  0.7157
    1SOL    MW4 8856   0.634   3.881   3.881 -0.3945  0.1726 -0.0548
    1SOL     OW 8857   0.395   4.026   3.827  0.1437 -0.1801  0.2898
    1SOL    HW2 8858   0.462   3.964   3.857 -0.4370 -0.0992  1.8233
    1SOL    HW3 8859   0.412   4.037   3.733  1.3396 -1.3092  0.3602
    1SOL    MW4 8860   0.406   4.019   3.818  0.2249 -0.3181  0.5014
    1SOL     OW 8861   0.411   4.290   3.907  0.1738 -0.5271 -0.0381
    1SOL    HW2 8862   0.483   4.328   3.857  0.6033  0.8509  1.5883
    1SOL    HW3 8863   0.421   4.196   3.897  0.7947 -0.2835 -1.7656
    1SOL    MW4 8864   0.421   4.283   3.899  0.3124 -0.3138 -0.0515
    1SOL     OW 8865   0.649   4.406   3.784 -0.0517 -0.0201  0.0439
    1SOL    HW2 8866   0.735   4.372   3.809 -0.8144 -0.4296  2.2446
    1SOL    HW3 8867   0.648   4.402   3.689  1.4529 -2.2549  0.0953
    1SOL    MW4 8868   0.660   4.401   3.775  0.0462 -0.3695  0.3412
    1SOL     OW 8869   1.122   4.648   3.860 -0.2933 -0.1546 -0.4531
    1SOL    HW2 8870   1.205   4.694   3.844 -0.6980  0.3665 -1.1273
    1SOL    HW3 8871   1.136   4.560   3.825  0.1365 -0.2107 -0.1328
    1SOL    MW4 8872   1.135   4.642   3.853 -0.2899 -0.0935 -0.5000
    1SOL     OW 8873   0.910   0.134   3.753 -0.1316  0.2644  0.0795
    1SOL    HW2 8874   0.977   0.071   3.779 -0.8895 -1.1827 -1.3375
    1SOL    HW3 8875   0.827   0.091   3.776 -0.7188 -0.0412 -2.4566
    1SOL    MW4 8876   0.908   0.120   3.759 -0.3090  0.0332 -0.4420
    1SOL     OW 8877   0.925   0.386   3.878 -0.2099 -0.2325  0.3903
    1SOL    HW2 8878   0.912   0.367   3.971  0.1555 -1.3123  0.2266
    1SOL    HW3 8879   0.939   0.300   3.838 -1.1954  0.1560 -0.7977
    1SOL    MW4 8880   0.925   0.372   3.885 -0.2917 -0.3237  0.2120
    1SOL     OW 8881   1.152   0.544   3.798 -0.4613 -0.0156  0.0249
    1SOL    HW2 8882   1.230   0.500   3.830 -0.1506  2.0769  2.2040
    1SOL    HW3 8883   1.079   0.495   3.837 -0.1238  1.1797  2.2059
    1SOL    MW4 8884   1.152   0.531   3.807 -0.3757  0.4182  0.6001
    1SOL     OW 8885   1.139   0.811   3.893  0.0010 -0.2271  0.2199
    1SOL    HW2 8886   1.147   0.805   3.988 -1.3617 -0.7329  0.3151
    1SOL    HW3 8887   1.154   0.722   3.862  0.9800  0.0386 -0.0939
    1SOL    MW4 8888   1.142   0.799   3.901 -0.0495 -0.2587  0.1910
    1SOL     OW 8889   0.912   0.919   3.780 -0.0156  0.3256 -0.2233
    1SOL    HW2 8890   0.992   0.874   3.807  0.4463  0.6165 -1.1183
    1SOL    HW3 8891   0.911   0.913   3.685 -0.9475  0.5162 -0.2357
    1SOL    MW4 8892   0.923   0.912   3.771 -0.0776  0.3892 -0.3431
    1SOL     OW 8893   0.898   1.165   3.914 -0.6678  0.6645 -0.2362
    1SOL    HW2 8894   0.897   1.150   4.008 -0.6740  0.2654 -0.2995
    1SOL    HW3 8895   0.908   1.078   3.876 -1.7038  0.7178 -0.6322
    1SOL    MW4 8896   0.899   1.151   3.921 -0.8053  0.6189 -0.2968
    1SOL     OW 8897   1.136   1.241   3.778 -0.1219 -0.0892 -0.1283
    1SOL    HW2 8898   1.139   1.336   3.785  0.8222 -0.1115 -0.1756
    1SOL    HW3 8899   1.064   1.215   3.836 -0.8239  0.6970 -0.6399
    1SOL    MW4 8900   1.127   1.250   3.787 -0.0901  0.0114 -0.2022
    1SOL     OW 8901   1.143   1.525   3.837 -0.0716  0.2499 -0.6484
    1SOL    HW2 8902   1.145   1.530   3.933 -0.7767  0.4883 -0.6457
    1SOL    HW3 8903   1.217   1.580   3.809 -0.0280  0.3984 -0.2505
    1SOL    MW4 8904   1.153   1.533   3.846 -0.1589  0.3010 -0.5956
    1SOL     OW 8905   0.888   1.578   3.760 -0.0958  0.4221  0.3725
    1SOL    HW2 8906   0.973   1.542   3.786 -0.4503 -0.2529  0.5848
    1SOL    HW3 8907   0.899   1.600   3.667  0.6505  1.3282  0.6684
    1SOL    MW4 8908   0.901   1.576   3.751 -0.0441  0.4525  0.4396
    1SOL     OW 8909   0.893   1.847   3.880  0.0890 -0.0625  0.1274
    1SOL    HW2 8910   0.898   1.760   3.840  1.2475 -0.0684  0.2911
    1SOL    HW3 8911   0.826   1.892   3.828 -1.2354 -1.3671  0.6693
    1SOL    MW4 8912   0.884   1.842   3.868  0.0671 -0.2353  0.2208
    1SOL     OW 8913   1.095   2.011   3.784  0.1142 -0.0359 -0.1678
    1SOL    HW2 8914   1.032   1.946   3.814  1.5781 -0.9345  1.0601
    1SOL    HW3 8915   1.096   2.001   3.689 -2.5035  0.8900 -0.3431
    1SOL    MW4 8916   1.087   2.001   3.775 -0.0380 -0.0324 -0.0288
    1SOL     OW 8917   1.162   2.281   3.836 -0.1058 -0.5869 -0.2122
    1SOL    HW2 8918   1.154   2.292   3.931  1.3669  0.2308 -0.1694
    1SOL    HW3 8919   1.125   2.195   3.818  0.6638 -1.2263  1.2529
    1SOL    MW4 8920   1.156   2.271   3.846  0.1901 -0.5634 -0.0131
    1SOL     OW 8921   0.907   2.404   3.802  0.0201  0.0406 -0.3840
    1SOL    HW2 8922   0.882   2.496   3.807  0.5268  0.0936  2.1939
    1SOL    HW3 8923   1.002   2.404   3.820 -0.1535 -1.0489  0.6249
    1SOL    MW4 8924   0.916   2.416   3.805  0.0641 -0.0963  0.0894
    1SOL     OW 8925   0.898   2.701   3.811  0.1099  0.3219  0.4075
    1SOL    HW2 8926   0.904   2.695   3.906 -0.9014 -2.0003  0.3556
    1SOL    HW3 8927   0.967   2.762   3.786  1.0055  0.2061  2.5524
    1SOL    MW4 8928   0.908   2.708   3.820  0.0947  0.0002  0.6835
    1SOL     OW 8929   1.141   2.839   3.770  0.5235  0.1445 -0.1977
    1SOL    HW2 8930   1.219   2.807   3.817  0.9612  0.9387 -0.3756
    1SOL    HW3 8931   1.131   2.930   3.800 -0.3082  0.0605 -0.2131
    1SOL    MW4 8932   1.150   2.847   3.780  0.4716  0.2382 -0.2236
    1SOL     OW 8933   1.089   3.077   3.902  0.2363  0.0245 -0.1677
    1SOL    HW2 8934   1.169   3.122   3.876 -0.2670  0.3027 -1.2346
    1SOL    HW3 8935   1.019   3.125   3.859 -0.4245 -0.8486 -0.0851
    1SOL    MW4 8936   1.090   3.089   3.893  0.0829 -0.0539 -0.2975
    1SOL     OW 8937   0.889   3.193   3.742 -0.0969 -0.4334 -0.7025
    1SOL    HW2 8938   0.800   3.160   3.750 -0.3121  0.3886  0.5857
    1SOL    HW3 8939   0.899   3.214   3.649 -2.0014  1.4661 -0.5224
    1SOL    MW4 8940   0.879   3.192   3.731 -0.3767 -0.0746 -0.5088
    1SOL     OW 8941   0.844   3.431   3.896 -0.0251  0.1169 -0.1602
    1SOL    HW2 8942   0.840   3.360   3.832  0.0473 -0.7628  0.7944
    1SOL    HW3 8943   0.787   3.499   3.860  0.5873 -0.0712 -1.5057
    1SOL    MW4 8944   0.836   3.431   3.883  0.0653 -0.0241 -0.2115
    1SOL     OW 8945   1.073   3.590   3.790 -0.4140 -0.1099 -0.1132
    1SOL    HW2 8946   1.065   3.677   3.828  0.2143 -0.2094  0.2541
    1SOL    HW3 8947   1.000   3.541   3.828 -0.6227  0.1903 -0.1291
    1SOL    MW4 8948   1.062   3.595   3.800 -0.3587 -0.0837 -0.0668
    1SOL     OW 8949   1.045   3.852   3.858  0.0770 -0.0023  0.1803
    1SOL    HW2 8950   1.050   3.842   3.953 -1.1939  1.0713  0.3820
    1SOL    HW3 8951   1.125   3.899   3.833  0.2869 -0.0626  0.7520
    1SOL    MW4 8952   1.056   3.857   3.867 -0.0629  0.1311  0.2823
    1SOL     OW 8953   0.814   4.030   3.771 -0.2500 -0.2863 -0.3242
    1SOL    HW2 8954   0.881   3.971   3.804 -1.1539 -1.2845 -0.2555
    1SOL    HW3 8955   0.819   4.022   3.676  0.2671  0.2538 -0.3464
    1SOL    MW4 8956   0.823   4.021   3.763 -0.3011 -0.3471 -0.3181
    1SOL     OW 8957   0.878   4.281   3.862 -0.1757 -0.0485 -0.1397
    1SOL    HW2 8958   0.888   4.280   3.957  1.4737  0.3471 -0.2919
    1SOL    HW3 8959   0.854   4.192   3.839  0.9066 -0.5255  0.5150
    1SOL    MW4 8960   0.877   4.269   3.872  0.1848 -0.0587 -0.0739
    1SOL     OW 8961   1.109   4.394   3.768 -0.5196 -0.0682  0.0576
    1SOL    HW2 8962   1.026   4.356   3.797 -0.6777  1.0472  1.0915
    1SOL    HW3 8963   1.105   4.391   3.672 -1.6231 -0.2729  0.1063
    1SOL    MW4 8964   1.098   4.388   3.759 -0.6860  0.0520  0.2005
    1SOL     OW 8965   1.543   0.016   3.849 -0.3547  0.3610  0.3859
    1SOL    HW2 8966   1.515   0.008   3.940  0.7325  0.0947  0.7039
    1SOL    HW3 8967   1.531  -0.072   3.813 -0.7888  0.4677  0.2644
    1SOL    MW4 8968   1.537   0.003   3.856 -0.2686  0.3400  0.4120
    1SOL     OW 8969   1.321   0.145   3.752  0.7814 -0.0518 -0.0548
    1SOL    HW2 8970   1.336   0.223   3.805 -0.9086 -0.5118  1.1619
    1SOL    HW3 8971   1.399   0.092   3.765  0.7117  0.1744  1.4447
    1SOL    MW4 8972   1.333   0.148   3.761  0.5492 -0.0826  0.3037
    1SOL     OW 8973   1.355   0.373   3.892 -0.1147 -0.5663  0.0565
    1SOL    HW2 8974   1.404   0.357   3.973 -0.8009 -0.8691  0.4077
    1SOL    HW3 8975   1.418   0.418   3.835  0.5904 -0.9916  0.4943
    1SOL    MW4 8976   1.370   0.377   3.895 -0.1123 -0.6624  0.1607
    1SOL     OW 8977   1.537   0.518   3.766 -0.0551  0.3462 -0.0766
    1SOL    HW2 8978   1.617   0.475   3.798 -0.0164  0.2293 -0.3312
    1SOL    HW3 8979   1.535   0.602   3.813 -0.7440 -0.4255  1.3067
    1SOL    MW4 8980   1.548   0.523   3.777 -0.1409  0.2289  0.0725
    1SOL     OW 8981   1.549   0.784   3.870  0.0632  0.1710  0.0433
    1SOL    HW2 8982   1.619   0.833   3.826  0.7622 -0.3343  0.5849
    1SOL    HW3 8983   1.469   0.830   3.845  0.5259  0.3802 -1.0913
    1SOL    MW4 8984   1.548   0.796   3.861  0.2165  0.1320 -0.0348
    1SOL     OW 8985   1.356   0.935   3.784  0.2208 -0.0807 -0.0184
    1SOL    HW2 8986   1.365   1.019   3.829 -0.4981 -0.3256  0.5956
    1SOL    HW3 8987   1.276   0.897   3.820  1.4648 -1.8126  0.9989
    1SOL    MW4 8988   1.346   0.941   3.794  0.2900 -0.3416  0.1969
    1SOL     OW 8989   1.378   1.184   3.898  0.1710 -0.0578  0.4790
    1SOL    HW2 8990   1.446   1.230   3.850 -0.0516 -0.8359 -0.6033
    1SOL    HW3 8991   1.297   1.203   3.850 -0.2029 -0.0803  1.0882
    1SOL    MW4 8992   1.376   1.193   3.885  0.0923 -0.1634  0.4165
    1SOL     OW 8993   1.588   1.306   3.746  0.3792 -0.1795  0.1956
    1SOL    HW2 8994   1.666   1.260   3.777  0.7782 -0.0244 -0.5615
    1SOL    HW3 8995   1.593   1.392   3.789  2.1798  0.9009 -2.0769
    1SOL    MW4 8996   1.599   1.311   3.756  0.6694 -0.0166 -0.2043
    1SOL     OW 8997   1.581   1.548   3.871  0.4721  0.2405  0.1296
    1SOL    HW2 8998   1.599   1.524   3.962  0.3790  0.3430  0.1747
    1SOL    HW3 8999   1.651   1.609   3.848  1.4065 -0.9907 -0.3625
    1SOL    MW4 9000   1.592   1.553   3.880  0.5832  0.0916  0.0708
    1SOL     OW 9001   1.370   1.666   3.737 -0.1467  0.4226 -0.2325
    1SOL    HW2 9002   1.373   1.755   3.772 -0.7777  0.2772  0.1958
    1SOL    HW3 9003   1.437   1.618   3.787  0.2426  0.6728 -0.5133
    1SOL    MW4 9004   1.379   1.671   3.748 -0.1785  0.4364 -0.2131
    1SOL     OW 9005   1.353   1.942   3.857  0.1726 -0.0417  0.1432
    1SOL    HW2 9006   1.346   1.925   3.951 -0.6154  0.9018  0.2633
    1SOL    HW3 9007   1.265   1.970   3.831  0.2924 -0.6473 -0.9526
    1SOL    MW4 9008   1.340   1.944   3.866  0.0844  0.0027  0.0148
    1SOL     OW 9009   1.583   2.086   3.775  0.1972  0.7431  0.2218
    1SOL    HW2 9010   1.514   2.024   3.802  0.7507  0.0614  0.0943
    1SOL    HW3 9011   1.584   2.079   3.679  1.7279 -0.6763  0.3154
    1SOL    MW4 9012   1.574   2.077   3.766  0.4722  0.4659  0.2172
    1SOL     OW 9013   1.567   2.347   3.876  0.2123  0.2320  0.1970
    1SOL    HW2 9014   1.564   2.354   3.972 -1.0317 -0.2868  0.1993
    1SOL    HW3 9015   1.567   2.253   3.859 -1.2507  0.3158 -0.3462
    1SOL    MW4 9016   1.567   2.336   3.887 -0.1448  0.1748  0.1256
    1SOL     OW 9017   1.356   2.473   3.759  0.3428 -0.1175 -0.2315
    1SOL    HW2 9018   1.444   2.436   3.771  0.0203 -0.9316 -0.3518
    1SOL    HW3 9019   1.298   2.397   3.761 -0.2819  0.3415 -0.9903
    1SOL    MW4 9020   1.360   2.458   3.761  0.2178 -0.1645 -0.3474
    1SOL     OW 9021   1.393   2.736   3.870 -0.1885  0.3183  0.2977
    1SOL    HW2 9022   1.410   2.712   3.962  1.4892  0.0448 -0.0683
    1SOL    HW3 9023   1.381   2.652   3.826  0.9022  0.3579 -0.0834
    1SOL    MW4 9024   1.394   2.722   3.877  0.1768  0.2873  0.1991
    1SOL     OW 9025   1.601   2.841   3.714  0.2104 -0.8802 -0.0962
    1SOL    HW2 9026   1.523   2.804   3.754 -0.3791  0.2839 -0.1747
    1SOL    HW3 9027   1.593   2.819   3.621 -0.1877 -0.4632 -0.1583
    1SOL    MW4 9028   1.590   2.833   3.707  0.0800 -0.6716 -0.1149
    1SOL     OW 9029   1.593   3.079   3.857  0.3930 -0.2200 -0.3639
    1SOL    HW2 9030   1.582   3.054   3.949  1.4845 -1.2326 -0.4897
    1SOL    HW3 9031   1.569   3.000   3.808 -2.6005  1.0812 -1.0722
    1SOL    MW4 9032   1.589   3.065   3.862  0.1421 -0.1817 -0.4740
    1SOL     OW 9033   1.344   3.217   3.782 -0.4021  0.0052  0.6368
    1SOL    HW2 9034   1.353   3.308   3.809 -2.6447  0.2033  0.8700
    1SOL    HW3 9035   1.415   3.171   3.825 -1.1663  1.1080  3.1600
    1SOL    MW4 9036   1.354   3.223   3.791 -0.7987  0.1769  1.0004
    1SOL     OW 9037   1.314   3.478   3.844 -0.5127 -0.4354 -0.3389
    1SOL    HW2 9038   1.393   3.533   3.837 -0.6526 -0.0073  1.2101
    1SOL    HW3 9039   1.244   3.533   3.809 -0.5418  0.1514  0.6109
    1SOL    MW4 9040   1.315   3.493   3.839 -0.5351 -0.3014 -0.0093
    1SOL     OW 9041   1.548   3.619   3.798 -0.2402  0.7842  0.0682
    1SOL    HW2 9042   1.626   3.571   3.828 -1.2819 -0.1082  1.4016
    1SOL    HW3 9043   1.563   3.709   3.828  0.9219  0.9332 -0.9220
    1SOL    MW4 9044   1.561   3.625   3.806 -0.2242  0.6859  0.1137
    1SOL     OW 9045   1.583   3.900   3.884 -0.0671  0.4485 -0.3052
    1SOL    HW2 9046   1.572   3.895   3.979 -0.6316  0.5679 -0.3601
    1SOL    HW3 9047   1.496   3.921   3.851 -0.1530 -0.8171 -0.9422
    1SOL    MW4 9048   1.570   3.902   3.892 -0.1529  0.2973 -0.3963
    1SOL     OW 9049   1.301   3.974   3.771  0.0890 -0.3599 -0.1591
    1SOL    HW2 9050   1.319   4.063   3.800  0.3914 -0.7917  1.0552
    1SOL    HW3 9051   1.313   3.976   3.677  0.9036  0.6984 -0.0472
    1SOL    MW4 9052   1.305   3.986   3.763  0.2365 -0.2773  0.0157
    1SOL     OW 9053   1.348   4.250   3.870  0.1723  0.0717  0.2997
    1SOL    HW2 9054   1.406   4.322   3.844 -0.3049  0.9021  1.4950
    1SOL    HW3 9055   1.260   4.281   3.848  0.0461 -0.5373 -0.0532
    1SOL    MW4 9056   1.344   4.264   3.864  0.0927  0.1006  0.4108
    1SOL     OW 9057   1.540   4.413   3.770  0.3745  0.3499 -0.9057
    1SOL    HW2 9058   1.626   4.394   3.806  0.6640  0.9575 -1.2577
    1SOL    HW3 9059   1.551   4.404   3.675 -0.7140 -2.5977 -0.8089
    1SOL    MW4 9060   1.553   4.410   3.762  0.2692  0.0410 -0.9394
    1SOL     OW 9061   2.010   0.048   3.864 -0.1284  0.1618 -0.1008
    1SOL    HW2 9062   2.094   0.078   3.828 -0.3010  0.1182 -0.5478
    1SOL    HW3 9063   2.007  -0.045   3.843 -0.1701  0.1048  0.1547
    1SOL    MW4 9064   2.021   0.040   3.856 -0.1566  0.1486 -0.1261
    1SOL     OW 9065   1.768   0.155   3.745 -0.1191 -0.3718  0.4024
    1SOL    HW2 9066   1.846   0.114   3.782  0.1699 -1.0928 -0.9582
    1SOL    HW3 9067   1.695   0.110   3.788  0.2057 -1.0886  0.2204
    1SOL    MW4 9068   1.769   0.143   3.756 -0.0383 -0.5615  0.1991
    1SOL     OW 9069   1.772   0.409   3.852  0.5591 -0.2683  0.2018
    1SOL    HW2 9070   1.771   0.386   3.944  1.8513 -0.2657  0.2183
    1SOL    HW3 9071   1.765   0.325   3.806  0.7046 -0.3306  0.2944
    1SOL    MW4 9072   1.771   0.395   3.858  0.7488 -0.2762  0.2162
    1SOL     OW 9073   2.011   0.488   3.770 -0.1355 -0.0108 -0.4032
    1SOL    HW2 9074   1.927   0.458   3.804 -0.7908  0.7518 -1.3073
    1SOL    HW3 9075   2.006   0.472   3.676  0.4126  0.7908 -0.5753
    1SOL    MW4 9076   2.000   0.482   3.762 -0.1498  0.1956 -0.5453
    1SOL     OW 9077   1.993   0.754   3.812  0.0779  0.5223  0.5838
    1SOL    HW2 9078   2.020   0.777   3.900  0.9867 -0.0211  0.4539
    1SOL    HW3 9079   2.013   0.660   3.805 -0.0670  0.5462 -0.1722
    1SOL    MW4 9080   1.999   0.744   3.823  0.1787  0.4537  0.4668
    1SOL     OW 9081   1.771   0.886   3.731 -0.2017 -0.0638  0.1523
    1SOL    HW2 9082   1.843   0.834   3.767  0.5447  1.0700  0.3254
    1SOL    HW3 9083   1.782   0.880   3.636 -0.5998 -0.8761  0.1521
    1SOL    MW4 9084   1.782   0.878   3.723 -0.1559 -0.0214  0.1750
    1SOL     OW 9085   1.758   1.121   3.860 -0.1062  0.1192  0.0471
    1SOL    HW2 9086   1.777   1.092   3.949 -0.9136 -1.8003 -0.3826
    1SOL    HW3 9087   1.766   1.042   3.806 -0.6567  1.0388 -1.4183
    1SOL    MW4 9088   1.761   1.107   3.865 -0.2854 -0.0128 -0.2027
    1SOL     OW 9089   1.961   1.275   3.778 -0.0484  0.0631  0.2614
    1SOL    HW2 9090   2.039   1.234   3.817 -1.2280 -0.4673  2.1127
    1SOL    HW3 9091   1.891   1.212   3.793 -1.4115  1.7599  1.0767
    1SOL    MW4 9092   1.962   1.261   3.785 -0.3840  0.2171  0.6135
    1SOL     OW 9093   2.015   1.556   3.878  0.0841  0.1048 -0.2913
    1SOL    HW2 9094   1.944   1.614   3.853 -0.4421 -0.5345 -0.2911
    1SOL    HW3 9095   1.981   1.468   3.864  1.1051 -0.2015 -0.9228
    1SOL    MW4 9096   2.001   1.552   3.873  0.1495 -0.0199 -0.3743
    1SOL     OW 9097   1.807   1.708   3.799  0.0751 -0.0308 -0.2863
    1SOL    HW2 9098   1.820   1.795   3.837  1.1234 -0.3387  0.0794
    1SOL    HW3 9099   1.831   1.717   3.707  0.0263  0.1009 -0.2853
    1SOL    MW4 9100   1.812   1.720   3.792  0.2071 -0.0541 -0.2377
    1SOL     OW 9101   1.797   1.965   3.910 -0.0691 -0.1791 -0.4791
    1SOL    HW2 9102   1.719   2.000   3.868 -0.7393  0.0985  0.9642
    1SOL    HW3 9103   1.870   1.998   3.857 -0.6745  3.2482  0.7018
    1SOL    MW4 9104   1.796   1.974   3.897 -0.2373  0.3097 -0.1333
    1SOL     OW 9105   1.970   2.338   3.876 -0.0700  0.2517 -0.4735
    1SOL    HW2 9106   2.059   2.363   3.853 -0.6827  1.4170 -1.6511
    1SOL    HW3 9107   1.954   2.378   3.961  0.6650 -0.3035 -0.0718
    1SOL    MW4 9108   1.979   2.346   3.884 -0.0539  0.3321 -0.5755
    1SOL     OW 9109   2.225   2.387   3.778 -0.4988 -0.1917  0.2029
    1SOL    HW2 9110   2.231   2.400   3.683 -0.1796  0.8083  0.3498
    1SOL    HW3 9111   2.314   2.367   3.805 -0.9516 -2.5886  0.0137
    1SOL    MW4 9112   2.237   2.386   3.769 -0.5167 -0.3760  0.1974
    1SOL     OW 9113   1.779   2.487   3.761  0.2634 -0.1380 -0.4605
    1SOL    HW2 9114   1.852   2.434   3.793  1.6578  0.5664 -2.3327
    1SOL    HW3 9115   1.701   2.445   3.796  1.5719 -0.7004  1.9188
    1SOL    MW4 9116   1.779   2.475   3.770  0.6201 -0.1192 -0.3934
    1SOL     OW 9117   3.156   2.575   4.535  0.3002 -0.1133 -0.3601
    1SOL    HW2 9118   3.062   2.584   4.521  0.4039 -1.4406 -2.0444
    1SOL    HW3 9119   3.190   2.664   4.525 -0.7783  0.3902  0.3880
    1SOL    MW4 9120   3.148   2.588   4.532  0.1717 -0.2220 -0.4840
    1SOL     OW 9121   2.061   3.150   3.844 -0.0976  0.1165  0.2104
    1SOL    HW2 9122   2.145   3.177   3.806  0.1393  1.6387  1.7236
    1SOL    HW3 9123   2.073   3.160   3.938 -1.8088 -0.1731  0.4798
    1SOL    MW4 9124   2.074   3.155   3.851 -0.2921  0.2792  0.4454
    1SOL     OW 9125   2.055   2.880   3.787 -0.4810 -0.6924  0.1595
    1SOL    HW2 9126   2.060   2.967   3.827 -0.8000 -0.5570 -0.0884
    1SOL    HW3 9127   1.970   2.845   3.816 -0.1029 -1.1528  0.7215
    1SOL    MW4 9128   2.044   2.887   3.796 -0.4735 -0.7353  0.2007
    1SOL     OW 9129   1.800   3.227   3.775  0.0564 -0.0777 -0.0418
    1SOL    HW2 9130   1.883   3.192   3.807 -0.1691 -1.4400 -0.9297
    1SOL    HW3 9131   1.736   3.159   3.794 -0.5800  0.2962 -0.8062
    1SOL    MW4 9132   1.802   3.213   3.782 -0.0572 -0.2081 -0.2596
    1SOL     OW 9133   1.785   3.482   3.884 -0.2271 -0.0232 -0.0424
    1SOL    HW2 9134   1.867   3.524   3.857 -0.9994  1.7433  0.2486
    1SOL    HW3 9135   1.785   3.398   3.839  1.5212  0.1585 -0.4225
    1SOL    MW4 9136   1.796   3.477   3.874 -0.0983  0.2337 -0.0541
    1SOL     OW 9137   2.034   3.618   3.813  0.3520  0.5485  0.2864
    1SOL    HW2 9138   2.101   3.562   3.852  1.0449  2.0293  1.3068
    1SOL    HW3 9139   2.047   3.611   3.719 -0.0055 -1.4944  0.3694
    1SOL    MW4 9140   2.044   3.610   3.806  0.3965  0.4747  0.4320
    1SOL     OW 9141   2.017   3.900   3.864  0.0519 -0.2436 -0.0383
    1SOL    HW2 9142   2.089   3.955   3.835  0.8031  0.1032  2.4213
    1SOL    HW3 9143   2.044   3.811   3.841  0.5393  0.0257 -0.5283
    1SOL    MW4 9144   2.030   3.895   3.857  0.2151 -0.1624  0.2215
    1SOL     OW 9145   1.783   4.046   3.755  0.2377  0.1400 -0.0081
    1SOL    HW2 9146   1.864   3.997   3.769 -0.3357 -0.7445  0.1973
    1SOL    HW3 9147   1.714   3.988   3.786 -0.3995  1.2747  0.7141
    1SOL    MW4 9148   1.785   4.032   3.761  0.0780  0.1736  0.1142
    1SOL     OW 9149   1.759   4.307   3.875 -0.0428  0.1859  0.0035
    1SOL    HW2 9150   1.845   4.350   3.873  0.2301 -0.4054 -1.5800
    1SOL    HW3 9151   1.775   4.220   3.838 -1.4460  0.2825 -0.8632
    1SOL    MW4 9152   1.773   4.301   3.870 -0.1919  0.1202 -0.3197
    1SOL     OW 9153   2.020   4.454   3.783  0.4890 -0.2494 -0.0756
    1SOL    HW2 9154   2.092   4.407   3.825  1.5486  1.0277 -0.4248
    1SOL    HW3 9155   2.022   4.425   3.691  0.4864 -0.2964 -0.0603
    1SOL    MW4 9156   2.030   4.444   3.776  0.6282 -0.0868 -0.1199
    1SOL     OW 9157   2.490   4.630   3.866 -0.3316 -0.7165 -0.2637
    1SOL    HW2 9158   2.493   4.625   3.962 -1.7709 -1.4985 -0.2345
    1SOL    HW3 9159   2.491   4.538   3.838 -1.1096 -0.5265 -0.9354
    1SOL    MW4 9160   2.490   4.617   3.875 -0.6242 -0.7947 -0.3486
    1SOL     OW 9161   2.263   0.130   3.780  0.1577  0.1633 -0.5953
    1SOL    HW2 9162   2.335   0.078   3.814 -0.7402 -0.6277  0.1490
    1SOL    HW3 9163   2.276   0.131   3.685  0.4658 -1.0089 -0.5729
    1SOL    MW4 9164   2.274   0.123   3.772  0.0796 -0.0957 -0.4942
    1SOL     OW 9165   2.197   0.357   3.905  0.0377 -0.6034  0.2031
    1SOL    HW2 9166   2.224   0.269   3.878  0.1362 -1.1052  1.8394
    1SOL    HW3 9167   2.130   0.382   3.842 -0.7915 -2.3160  0.3566
    1SOL    MW4 9168   2.192   0.348   3.893 -0.0587 -0.8955  0.4392
    1SOL     OW 9169   2.392   0.557   3.800 -0.0459 -0.4548  0.2710
    1SOL    HW2 9170   2.320   0.501   3.829 -1.9462  1.5138 -0.5455
    1SOL    HW3 9171   2.402   0.538   3.707  0.8679 -1.0930  0.4864
    1SOL    MW4 9172   2.384   0.547   3.792 -0.1762 -0.2793  0.1917
    1SOL     OW 9173   2.410   0.825   3.865 -0.0113  0.4629  0.1699
    1SOL    HW2 9174   2.335   0.869   3.824 -1.9920  0.1038  3.1569
    1SOL    HW3 9175   2.411   0.738   3.825 -0.2026  1.0052 -1.0367
    1SOL    MW4 9176   2.400   0.819   3.855 -0.2980  0.4870  0.4048
    1SOL     OW 9177   2.185   0.923   3.727  0.1716 -0.0256  0.0562
    1SOL    HW2 9178   2.117   0.857   3.741  0.2861 -0.3127 -0.7021
    1SOL    HW3 9179   2.204   0.918   3.634 -0.3948  1.6449 -0.1723
    1SOL    MW4 9180   2.178   0.914   3.717  0.1121  0.1569 -0.0744
    1SOL     OW 9181   2.212   1.185   3.860 -0.0609  0.2049 -0.3493
    1SOL    HW2 9182   2.223   1.160   3.952 -0.6435  1.1045 -0.0398
    1SOL    HW3 9183   2.198   1.101   3.815  1.4502 -0.3636  0.1896
    1SOL    MW4 9184   2.211   1.170   3.867  0.0615  0.2487 -0.2375
    1SOL     OW 9185   2.454   1.272   3.752  0.0817 -0.0759  0.2599
    1SOL    HW2 9186   2.461   1.364   3.777  0.9455  0.4709 -1.8961
    1SOL    HW3 9187   2.367   1.246   3.781 -0.0143  1.3165  1.2505
    1SOL    MW4 9188   2.444   1.281   3.759  0.1829  0.1800  0.1059
    1SOL     OW 9189   2.476   1.531   3.841 -0.2721 -0.1095  0.4630
    1SOL    HW2 9190   2.555   1.564   3.799 -0.1002 -0.5417  0.4425
    1SOL    HW3 9191   2.407   1.591   3.812  0.0846  0.4099  0.6725
    1SOL    MW4 9192   2.477   1.543   3.832 -0.2024 -0.0980  0.4878
    1SOL     OW 9193   2.248   1.657   3.783 -0.1367 -0.2686 -0.3886
    1SOL    HW2 9194   2.249   1.736   3.837  0.6039 -0.8788  0.5132
    1SOL    HW3 9195   2.167   1.612   3.809 -0.3638  0.0039 -0.6237
    1SOL    MW4 9196   2.237   1.661   3.794 -0.0689 -0.3132 -0.3004
    1SOL     OW 9197   2.260   1.903   3.883  0.0704  0.1685  0.0512
    1SOL    HW2 9198   2.184   1.951   3.851  0.0626 -0.3240 -0.6645
    1SOL    HW3 9199   2.333   1.937   3.831  0.1066 -0.4108 -0.2748
    1SOL    MW4 9200   2.260   1.914   3.872  0.0744  0.0271 -0.0863
    1SOL     OW 9201   2.463   2.048   3.757 -0.0329 -0.2801  0.5609
    1SOL    HW2 9202   2.462   2.041   3.662 -0.6372  1.0523  0.4507
    1SOL    HW3 9203   2.539   1.997   3.785  0.4406 -0.2571 -0.6780
    1SOL    MW4 9204   2.473   2.040   3.748 -0.0503 -0.1013  0.3827
    1SOL     OW 9205   2.249   2.685   3.856  0.3537  0.1430  0.0334
    1SOL    HW2 9206   2.174   2.741   3.838  0.7774  1.0301  0.9947
    1SOL    HW3 9207   2.232   2.606   3.805 -1.0477  0.4805 -0.0560
    1SOL    MW4 9208   2.237   2.682   3.847  0.2248  0.3047  0.1485
    1SOL     OW 9209   0.607   1.787   4.604  0.1898  0.6272 -0.1594
    1SOL    HW2 9210   0.587   1.880   4.601 -0.1263  0.5891  0.6197
    1SOL    HW3 9211   0.531   1.744   4.565 -0.0398  0.6504  0.2556
    1SOL    MW4 9212   0.594   1.793   4.599  0.1178  0.6251 -0.0024
    1SOL     OW 9213   2.027   2.069   3.784  0.3466  0.3154  0.3638
    1SOL    HW2 9214   2.026   2.158   3.821 -0.6032  0.9976 -1.2153
    1SOL    HW3 9215   2.055   2.082   3.693  0.6764 -1.0627  0.2703
    1SOL    MW4 9216   2.031   2.083   3.777  0.2649  0.2234  0.1433
    1SOL     OW 9217   2.500   2.823   3.794  0.0797  0.5576  0.2974
    1SOL    HW2 9218   2.414   2.780   3.795  0.2074  0.3233  1.7901
    1SOL    HW3 9219   2.514   2.845   3.702 -1.4565  0.3465 -0.0031
    1SOL    MW4 9220   2.490   2.820   3.782 -0.1059  0.4985  0.4547
    1SOL     OW 9221   2.489   3.089   3.868  0.2062 -0.5433 -0.0896
    1SOL    HW2 9222   2.463   3.110   3.958 -0.5023  0.4681 -0.5150
    1SOL    HW3 9223   2.480   2.994   3.861 -2.2052 -0.3603  0.1564
    1SOL    MW4 9224   2.484   3.079   3.879 -0.2055 -0.3860 -0.1132
    1SOL     OW 9225   2.301   3.244   3.739 -0.0072  0.1374 -0.4541
    1SOL    HW2 9226   2.291   3.320   3.797  1.6632  1.2545 -1.5956
    1SOL    HW3 9227   2.366   3.189   3.782  0.3086  0.3575 -0.6506
    1SOL    MW4 9228   2.308   3.247   3.753  0.2546  0.3140 -0.6304
    1SOL     OW 9229   2.239   3.457   3.912  0.1697  0.0876 -0.3599
    1SOL    HW2 9230   2.244   3.457   4.008  0.5026 -1.4921 -0.3667
    1SOL    HW3 9231   2.319   3.502   3.884  1.7563 -2.3375  0.0649
    1SOL    MW4 9232   2.250   3.463   3.921  0.4232 -0.4408 -0.3047
    1SOL     OW 9233   2.474   3.578   3.794  0.1958  0.2481 -0.4140
    1SOL    HW2 9234   2.548   3.530   3.831  0.8870  1.1331 -0.6651
    1SOL    HW3 9235   2.492   3.583   3.701  0.0285  0.8246 -0.4173
    1SOL    MW4 9236   2.486   3.572   3.787  0.2651  0.4411 -0.4478
    1SOL     OW 9237   2.435   3.875   3.908  0.2738 -0.0014 -0.0639
    1SOL    HW2 9238   2.511   3.917   3.868 -0.0012  0.1416 -0.4368
    1SOL    HW3 9239   2.438   3.785   3.876  0.0182  0.1292 -0.4628
    1SOL    MW4 9240   2.446   3.868   3.898  0.2038  0.0348 -0.1655
    1SOL     OW 9241   2.231   4.047   3.775 -0.0994 -0.6324  0.0363
    1SOL    HW2 9242   2.295   3.988   3.815 -0.6269 -2.1542 -1.3170
    1SOL    HW3 9243   2.239   4.030   3.681  0.1591  1.9097 -0.4308
    1SOL    MW4 9244   2.241   4.037   3.768 -0.1352 -0.4978 -0.2038
    1SOL     OW 9245   2.220   4.309   3.880  0.0460 -0.4101 -0.1160
    1SOL    HW2 9246   2.228   4.293   3.974  1.1845  0.5350 -0.0467
    1SOL    HW3 9247   2.215   4.221   3.841  3.3952 -0.9427  0.4934
    1SOL    MW4 9248   2.220   4.295   3.887  0.6385 -0.3552 -0.0262
    1SOL     OW 9249   2.474   4.374   3.771 -0.8533 -0.1239  0.2982
    1SOL    HW2 9250   2.537   4.313   3.810 -0.5359  0.1077  0.1440
    1SOL    HW3 9251   2.392   4.356   3.818 -0.8776 -0.9921 -0.0633
    1SOL    MW4 9252   2.471   4.363   3.783 -0.8149 -0.2079  0.2303
    1SOL     OW 9253   2.965   4.624   3.837 -0.2100  0.2478  0.1015
    1SOL    HW2 9254   2.963   4.611   3.932 -0.4494  0.2327  0.0957
    1SOL    HW3 9255   3.029   4.693   3.823  0.4524 -0.3350  0.2076
    1SOL    MW4 9256   2.973   4.631   3.848 -0.1543  0.1683  0.1149
    1SOL     OW 9257   2.723   0.128   3.784 -0.5697  0.0008  0.7200
    1SOL    HW2 9258   2.805   0.086   3.809 -1.2802 -0.6883  1.9339
    1SOL    HW3 9259   2.655   0.070   3.819 -1.5839  0.3803 -0.5724
    1SOL    MW4 9260   2.725   0.115   3.792 -0.7970 -0.0400  0.7098
    1SOL     OW 9261   2.656   0.433   3.818 -0.1576  0.1116  0.1577
    1SOL    HW2 9262   2.632   0.347   3.782  1.3835  0.3661 -1.5219
    1SOL    HW3 9263   2.576   0.485   3.811 -0.8475 -0.9020  0.3413
    1SOL    MW4 9264   2.642   0.428   3.813 -0.0453  0.0115 -0.0398
    1SOL     OW 9265   2.896   0.544   3.722  0.0302 -0.2124  0.1588
    1SOL    HW2 9266   2.971   0.501   3.762  0.0686  0.2123  0.5499
    1SOL    HW3 9267   2.820   0.496   3.755  0.1181 -0.5278 -0.0948
    1SOL    MW4 9268   2.896   0.532   3.731  0.0467 -0.1981  0.1771
    1SOL     OW 9269   2.904   0.778   3.863 -0.1409  0.0629  0.2762
    1SOL    HW2 9270   2.966   0.835   3.819 -0.6032 -0.0580 -0.5278
    1SOL    HW3 9271   2.905   0.696   3.813  1.2664 -1.0152  1.9976
    1SOL    MW4 9272   2.912   0.774   3.851 -0.0162 -0.0952  0.3974
    1SOL     OW 9273   2.660   0.939   3.811 -0.2812  0.0176 -0.3736
    1SOL    HW2 9274   2.726   0.882   3.849 -1.2462 -0.7771  0.1366
    1SOL    HW3 9275   2.577   0.905   3.844 -0.9549  0.9367 -1.0873
    1SOL    MW4 9276   2.658   0.927   3.820 -0.4973  0.0340 -0.4003
    1SOL     OW 9277   2.699   1.202   3.886  0.3186 -0.2761 -0.0287
    1SOL    HW2 9278   2.697   1.108   3.869  0.6430 -0.2272 -0.3590
    1SOL    HW3 9279   2.620   1.236   3.843  0.9846 -0.1940 -1.2276
    1SOL    MW4 9280   2.688   1.194   3.878  0.4494 -0.2587 -0.2306
    1SOL     OW 9281   2.962   1.292   3.761  0.6308  0.0968 -0.3064
    1SOL    HW2 9282   2.957   1.387   3.774  0.6396  0.0896 -0.2534
    1SOL    HW3 9283   2.891   1.256   3.813  0.9907  0.0267  0.1343
    1SOL    MW4 9284   2.952   1.300   3.769  0.6793  0.0867 -0.2413
    1SOL     OW 9285   2.949   1.567   3.828 -0.2074 -0.0864  0.2649
    1SOL    HW2 9286   2.941   1.562   3.923  0.4612 -3.2491  0.2310
    1SOL    HW3 9287   3.031   1.615   3.813 -0.5489  0.8144  1.2518
    1SOL    MW4 9288   2.959   1.573   3.838 -0.1643 -0.3848  0.3905
    1SOL     OW 9289   2.693   1.632   3.746 -0.1988 -0.5209 -0.1673
    1SOL    HW2 9290   2.777   1.601   3.777 -0.1516  0.1763  0.4247
    1SOL    HW3 9291   2.706   1.650   3.653  0.8072  1.2369  0.2863
    1SOL    MW4 9292   2.706   1.631   3.738 -0.0598 -0.1971 -0.0293
    1SOL     OW 9293   2.679   1.902   3.856 -0.1362  0.0095 -0.6921
    1SOL    HW2 9294   2.683   1.898   3.951 -1.3170  1.4127 -0.5572
    1SOL    HW3 9295   2.679   1.811   3.827 -2.5261 -0.5028  0.7983
    1SOL    MW4 9296   2.679   1.890   3.864 -0.6073  0.1271 -0.4776
    1SOL     OW 9297   2.948   2.257   3.851 -0.3293  0.3378  0.1715
    1SOL    HW2 9298   2.873   2.307   3.818 -0.4437  0.5007  0.6747
    1SOL    HW3 9299   3.024   2.313   3.836 -0.0785 -0.4584 -1.7849
    1SOL    MW4 9300   2.948   2.271   3.844 -0.3114  0.2539 -0.0200
    1SOL     OW 9301   2.573   2.469   4.706 -0.0288 -0.0283  0.1196
    1SOL    HW2 9302   2.636   2.401   4.728 -0.0394 -0.2327 -0.4931
    1SOL    HW3 9303   2.538   2.443   4.621 -0.2199  0.6054  0.0039
    1SOL    MW4 9304   2.576   2.456   4.698 -0.0556  0.0284  0.0238
    1SOL     OW 9305   2.732   2.404   3.768  0.1114 -0.2848  0.1920
    1SOL    HW2 9306   2.735   2.489   3.813 -0.1361 -1.0229  1.6429
    1SOL    HW3 9307   2.648   2.367   3.793  0.6537 -1.3934  0.4167
    1SOL    MW4 9308   2.722   2.410   3.778  0.1504 -0.5286  0.4132
    1SOL     OW 9309   2.729   2.663   3.914 -0.6228  0.1249 -0.1772
    1SOL    HW2 9310   2.648   2.702   3.880 -0.9942  0.2049  0.7864
    1SOL    HW3 9311   2.722   2.673   4.009 -0.0255 -0.9492 -0.0184
    1SOL    MW4 9312   2.717   2.670   3.922 -0.5929 -0.0062 -0.0293
    1SOL     OW 9313   2.934   2.795   3.768 -0.3406 -0.0262  0.0240
    1SOL    HW2 9314   2.928   2.885   3.799 -1.4512 -0.2460  0.4816
    1SOL    HW3 9315   2.857   2.751   3.805 -0.2517 -0.9580 -0.8505
    1SOL    MW4 9316   2.923   2.801   3.777 -0.4754 -0.1783 -0.0310
    1SOL     OW 9317   2.930   3.049   3.870 -0.0677 -0.0212 -0.4525
    1SOL    HW2 9318   3.002   3.107   3.844  0.0047 -0.5382 -1.4370
    1SOL    HW3 9319   2.851   3.095   3.842 -0.0305 -0.2319 -0.9012
    1SOL    MW4 9320   2.929   3.063   3.863 -0.0532 -0.1168 -0.6413
    1SOL     OW 9321   2.719   3.187   3.752 -0.1051 -0.3994  0.2431
    1SOL    HW2 9322   2.710   3.273   3.794  0.6727 -0.0045 -0.3936
    1SOL    HW3 9323   2.641   3.139   3.780  0.8431 -0.4667  2.8628
    1SOL    MW4 9324   2.707   3.192   3.761  0.1225 -0.3564  0.5045
    1SOL     OW 9325   2.674   3.420   3.884  0.0147  0.1398  0.1987
    1SOL    HW2 9326   2.667   3.442   3.977  0.2340 -0.7322  0.4266
    1SOL    HW3 9327   2.747   3.472   3.852 -0.2377  0.6514  0.4519
    1SOL    MW4 9328   2.683   3.430   3.892  0.0105  0.0923  0.2623
    1SOL     OW 9329   2.869   3.575   3.771  0.2032 -0.3523  0.1339
    1SOL    HW2 9330   2.950   3.538   3.808  0.4379  0.4003  0.3821
    1SOL    HW3 9331   2.882   3.569   3.676 -0.5516 -2.6217  0.1246
    1SOL    MW4 9332   2.882   3.569   3.763  0.1347 -0.5527  0.1655
    1SOL     OW 9333   2.877   3.831   3.888 -0.4280 -0.2052 -0.4108
    1SOL    HW2 9334   2.911   3.824   3.978 -0.3877 -0.2905 -0.4323
    1SOL    HW3 9335   2.869   3.740   3.859  2.2957 -0.1541 -1.5199
    1SOL    MW4 9336   2.881   3.818   3.896 -0.0634 -0.2098 -0.5600
    1SOL     OW 9337   2.668   3.972   3.793 -0.0758 -0.0426 -0.2268
    1SOL    HW2 9338   2.679   4.062   3.825 -0.3664  0.2594 -0.9413
    1SOL    HW3 9339   2.738   3.922   3.835  1.6060  1.0173 -1.6803
    1SOL    MW4 9340   2.678   3.978   3.802  0.1078  0.1373 -0.5128
    1SOL     OW 9341   2.690   4.228   3.885 -0.0743  0.0629  0.3016
    1SOL    HW2 9342   2.766   4.284   3.869 -0.6305  0.8420  0.3235
    1SOL    HW3 9343   2.677   4.233   3.980 -0.7583  0.7508  0.1792
    1SOL    MW4 9344   2.698   4.236   3.896 -0.2382  0.2561  0.2882
    1SOL     OW 9345   2.916   4.360   3.804  0.0913 -0.2921 -0.3326
    1SOL    HW2 9346   2.999   4.313   3.795  0.8298  1.1666 -1.2779
    1SOL    HW3 9347   2.942   4.451   3.819 -1.3358  0.0470  0.1281
    1SOL    MW4 9348   2.930   4.366   3.805  0.0005 -0.0553 -0.3963
    1SOL     OW 9349   3.339   4.664   3.848 -0.0236 -0.2515 -0.4999
    1SOL    HW2 9350   3.341   4.646   3.942 -1.7027 -1.1426 -0.6097
    1SOL    HW3 9351   3.427   4.696   3.828  0.5564 -0.6703  1.2501
    1SOL    MW4 9352   3.351   4.666   3.858 -0.1688 -0.4244 -0.2832
    1SOL     OW 9353   3.129   0.171   3.782 -0.2132 -0.3577 -0.1092
    1SOL    HW2 9354   3.210   0.128   3.808 -1.0029 -1.3461  0.7425
    1SOL    HW3 9355   3.128   0.166   3.687  0.9980  0.1596 -0.1518
    1SOL    MW4 9356   3.140   0.165   3.773 -0.1574 -0.4198 -0.0021
    1SOL     OW 9357   3.123   0.434   3.826  0.3653 -0.2328 -0.9305
    1SOL    HW2 9358   3.126   0.451   3.920 -1.5182  0.1955 -0.9395
    1SOL    HW3 9359   3.125   0.338   3.820 -1.8379 -0.3440 -0.3330
    1SOL    MW4 9360   3.124   0.423   3.838 -0.1740 -0.1909 -0.8528
    1SOL     OW 9361   3.379   0.505   3.745  0.0918  0.3796  0.1589
    1SOL    HW2 9362   3.451   0.451   3.778  0.8509  2.1202  1.4330
    1SOL    HW3 9363   3.301   0.471   3.789  0.6909  0.8422  1.6058
    1SOL    MW4 9364   3.378   0.494   3.755  0.2711  0.6703  0.5178
    1SOL     OW 9365   3.376   0.780   3.798  0.1960  0.0596 -0.9134
    1SOL    HW2 9366   3.388   0.769   3.892 -0.8567  1.2754 -0.6287
    1SOL    HW3 9367   3.378   0.691   3.763  0.9217 -0.3774  0.2077
    1SOL    MW4 9368   3.378   0.767   3.806  0.1528  0.1624 -0.7279
    1SOL     OW 9369   3.141   0.935   3.730 -0.2129  0.3873 -0.4398
    1SOL    HW2 9370   3.215   0.879   3.755  0.2252  1.0418 -0.2811
    1SOL    HW3 9371   3.128   0.917   3.637 -0.8018 -0.8329 -0.1321
    1SOL    MW4 9372   3.149   0.925   3.721 -0.2325  0.3127 -0.3781
    1SOL     OW 9373   3.177   1.159   3.880  0.1253  0.0092 -0.0617
    1SOL    HW2 9374   3.178   1.079   3.828  1.3659  0.1906 -0.3253
    1SOL    HW3 9375   3.095   1.203   3.856  0.3881 -0.2241 -1.3743
    1SOL    MW4 9376   3.166   1.154   3.870  0.3235  0.0024 -0.2699
    1SOL     OW 9377   3.362   1.317   3.768  0.0834  0.3026  0.2583
    1SOL    HW2 9378   3.289   1.270   3.807 -0.7365  0.8610 -0.5786
    1SOL    HW3 9379   3.345   1.313   3.674  1.1339  0.4270  0.0587
    1SOL    MW4 9380   3.350   1.310   3.761  0.1135  0.3926  0.1218
    1SOL     OW 9381   3.392   1.562   3.881  0.3257 -0.7178 -0.2019
    1SOL    HW2 9382   3.314   1.606   3.847  0.0666 -0.8917  0.1627
    1SOL    HW3 9383   3.386   1.473   3.846  0.5702 -0.6187 -0.4997
    1SOL    MW4 9384   3.381   1.556   3.872  0.3238 -0.7277 -0.1929
    1SOL     OW 9385   3.188   1.692   3.755 -0.3780 -0.0323  0.1822
    1SOL    HW2 9386   3.180   1.778   3.797 -1.8511 -0.0504 -0.0203
    1SOL    HW3 9387   3.191   1.712   3.661  1.2699 -0.0865  0.2222
    1SOL    MW4 9388   3.187   1.706   3.748 -0.3548 -0.0418  0.1609
    1SOL     OW 9389   3.143   1.929   3.912  0.0060 -0.5076 -0.4756
    1SOL    HW2 9390   3.100   1.930   3.997  0.3450  0.7493 -0.3010
    1SOL    HW3 9391   3.076   1.959   3.851 -0.1166 -1.0172 -0.5939
    1SOL    MW4 9392   3.129   1.933   3.915  0.0346 -0.4091 -0.4680
    1SOL     OW 9393   3.373   2.063   3.807  0.2646 -0.3080  0.4092
    1SOL    HW2 9394   3.310   2.009   3.855  0.7591 -1.0838  0.1897
    1SOL    HW3 9395   3.458   2.033   3.837  0.5459  0.3325  0.2624
    1SOL    MW4 9396   3.376   2.052   3.817  0.3667 -0.3259  0.3610
    1SOL     OW 9397   3.349   2.324   3.938 -0.5345  0.2296  0.0774
    1SOL    HW2 9398   3.294   2.368   3.873  0.7629  0.0052 -1.2062
    1SOL    HW3 9399   3.366   2.237   3.900 -0.5420 -0.2587  1.1676
    1SOL    MW4 9400   3.344   2.318   3.925 -0.3645  0.1354  0.0520
    1SOL     OW 9401   3.171   2.409   3.759  0.3491  0.3105  0.1614
    1SOL    HW2 9402   3.176   2.502   3.782  0.7390  0.4486 -0.4752
    1SOL    HW3 9403   3.164   2.408   3.664 -1.4709 -0.2560  0.2835
    1SOL    MW4 9404   3.171   2.421   3.750  0.1605  0.2544  0.0932
    1SOL     OW 9405   3.162   2.659   3.824 -0.4379  0.0461  0.6783
    1SOL    HW2 9406   3.165   2.666   3.919 -0.0854  0.6528  0.6219
    1SOL    HW3 9407   3.076   2.694   3.800 -1.3084 -1.8194  0.9123
    1SOL    MW4 9408   3.151   2.664   3.833 -0.5064 -0.1197  0.7019
    1SOL     OW 9409   3.380   2.824   3.779  0.2102 -0.7088  0.2359
    1SOL    HW2 9410   3.300   2.774   3.800  0.3521 -0.1495  2.2174
    1SOL    HW3 9411   3.364   2.911   3.816  1.1284 -0.1370 -0.6984
    1SOL    MW4 9412   3.367   2.829   3.787  0.3502 -0.5596  0.3741
    1SOL     OW 9413   3.371   3.080   3.893 -0.4641  0.3891  0.1242
    1SOL    HW2 9414   3.381   3.085   3.989  3.3780 -0.5187 -0.1344
    1SOL    HW3 9415   3.452   3.119   3.859 -0.9201 -1.0418 -2.7135
    1SOL    MW4 9416   3.383   3.086   3.901 -0.0169  0.0803 -0.2844
    1SOL     OW 9417   3.146   3.207   3.784  0.5326 -0.2623 -0.1817
    1SOL    HW2 9418   3.231   3.169   3.806  0.5534 -0.4843 -0.6358
    1SOL    HW3 9419   3.145   3.209   3.688 -0.7370 -1.9933 -0.2303
    1SOL    MW4 9420   3.157   3.203   3.774  0.3681 -0.5200 -0.2482
    1SOL     OW 9421   3.101   3.470   3.864 -0.0375  0.7512 -0.2645
    1SOL    HW2 9422   3.183   3.509   3.833  0.4347  0.3047  0.4032
    1SOL    HW3 9423   3.112   3.376   3.850  0.1177  0.5620  1.0820
    1SOL    MW4 9424   3.113   3.463   3.858  0.0453  0.6676  0.0012
    1SOL     OW 9425   3.366   3.550   3.763 -0.3713 -0.3232 -0.5147
    1SOL    HW2 9426   3.355   3.642   3.788 -0.2590  0.3093 -2.6459
    1SOL    HW3 9427   3.371   3.552   3.667  2.2710 -2.2671 -0.4808
    1SOL    MW4 9428   3.365   3.563   3.754 -0.0076 -0.4961 -0.7913
    1SOL     OW 9429   3.294   3.819   3.845 -0.2177 -0.3035 -0.5207
    1SOL    HW2 9430   3.372   3.874   3.834 -0.7330  0.5551  0.0342
    1SOL    HW3 9431   3.224   3.869   3.803 -0.9508  0.0650  1.0915
    1SOL    MW4 9432   3.295   3.833   3.838 -0.3824 -0.1416 -0.2348
    1SOL     OW 9433   3.071   3.964   3.752 -0.4726 -0.1776 -0.0134
    1SOL    HW2 9434   3.099   4.045   3.795 -1.2031  0.6540 -1.0559
    1SOL    HW3 9435   3.006   3.926   3.812  1.4775 -1.1659  1.5299
    1SOL    MW4 9436   3.066   3.970   3.766 -0.3119 -0.1984  0.0527
    1SOL     OW 9437   3.162   4.206   3.849 -0.0279 -0.1813 -0.2775
    1SOL    HW2 9438   3.136   4.209   3.941  0.2335  0.1068 -0.2127
    1SOL    HW3 9439   3.217   4.283   3.837  0.0745 -0.3084 -0.6352
    1SOL    MW4 9440   3.166   4.216   3.859  0.0203 -0.1602 -0.3161
    1SOL     OW 9441   3.362   4.381   3.784 -0.3848 -0.7662  0.0058
    1SOL    HW2 9442   3.445   4.347   3.817  0.5462  0.4621 -1.0026
    1SOL    HW3 9443   3.365   4.475   3.803 -1.3927 -0.6522 -0.3361
    1SOL    MW4 9444   3.373   4.389   3.791 -0.3946 -0.5898 -0.1721
    1SOL     OW 9445   3.799   0.008   3.872  0.0492  0.0052  0.7334
    1SOL    HW2 9446   3.880   0.050   3.843 -1.8032  1.7754 -2.0654
    1SOL    HW3 9447   3.812  -0.085   3.853  1.2436  0.3318 -0.0889
    1SOL    MW4 9448   3.812   0.001   3.866 -0.0377  0.2818  0.2556
    1SOL     OW 9449   3.565   0.102   3.732  0.1024  0.0054 -0.0295
    1SOL    HW2 9450   3.640   0.060   3.775 -0.0561 -0.7794 -0.4980
    1SOL    HW3 9451   3.580   0.087   3.639 -0.0577  0.8394 -0.1879
    1SOL    MW4 9452   3.577   0.094   3.726  0.0606  0.0119 -0.1121
    1SOL     OW 9453   3.592   0.366   3.864  0.2582 -0.1584  0.3495
    1SOL    HW2 9454   3.683   0.396   3.856  0.6381 -1.3401  0.1710
    1SOL    HW3 9455   3.595   0.273   3.840 -1.1451  0.0015 -0.5067
    1SOL    MW4 9456   3.604   0.358   3.860  0.1230 -0.2933  0.2127
    1SOL     OW 9457   3.849   0.471   3.780 -0.0707  0.1619 -0.1552
    1SOL    HW2 9458   3.930   0.432   3.812 -0.3011 -0.2032 -0.0185
    1SOL    HW3 9459   3.852   0.561   3.811  1.1645  0.6855 -1.7185
    1SOL    MW4 9460   3.860   0.478   3.788  0.0618  0.1829 -0.3433
    1SOL     OW 9461   3.821   0.765   3.905 -0.5294 -0.0913 -0.2330
    1SOL    HW2 9462   3.900   0.800   3.863 -0.0971  0.4645  1.0153
    1SOL    HW3 9463   3.749   0.795   3.849  0.1919 -1.3972 -1.9109
    1SOL    MW4 9464   3.822   0.774   3.892 -0.3772 -0.1903 -0.2902
    1SOL     OW 9465   3.626   0.859   3.744  0.0860 -0.1762 -0.4660
    1SOL    HW2 9466   3.622   0.953   3.760  0.2610 -0.1609 -0.5086
    1SOL    HW3 9467   3.538   0.827   3.765  0.6997 -0.3735  1.8939
    1SOL    MW4 9468   3.614   0.867   3.749  0.1900 -0.2003 -0.1602
    1SOL     OW 9469   3.570   1.127   3.792 -0.3058  0.2514  0.5244
    1SOL    HW2 9470   3.644   1.186   3.780 -0.5913  0.7010  0.9622
    1SOL    HW3 9471   3.493   1.181   3.776 -0.5165 -0.5825 -1.4709
    1SOL    MW4 9472   3.570   1.142   3.788 -0.3715  0.2005  0.3190
    1SOL     OW 9473   3.796   1.286   3.762 -0.1900 -0.0444 -0.1963
    1SOL    HW2 9474   3.870   1.245   3.806 -0.6321 -0.0563  0.5396
    1SOL    HW3 9475   3.781   1.367   3.809 -0.8600 -0.2020 -0.1257
    1SOL    MW4 9476   3.804   1.291   3.774 -0.3369 -0.0668 -0.0896
    1SOL     OW 9477   3.828   1.525   3.897  0.0764  0.3756 -0.1788
    1SOL    HW2 9478   3.835   1.520   3.992 -0.0952  0.6651 -0.1483
    1SOL    HW3 9479   3.760   1.591   3.882  0.8050  1.0618 -0.5128
    1SOL    MW4 9480   3.820   1.533   3.908  0.1500  0.5044 -0.2186
    1SOL     OW 9481   3.624   1.688   3.782  0.1925  0.5044  0.4291
    1SOL    HW2 9482   3.531   1.669   3.796  0.1513  1.8490  2.2737
    1SOL    HW3 9483   3.633   1.693   3.687 -1.5346 -0.1073  0.2060
    1SOL    MW4 9484   3.613   1.686   3.772 -0.0405  0.6012  0.6430
    1SOL     OW 9485   3.592   1.942   3.910  0.1570 -0.0814 -0.1830
    1SOL    HW2 9486   3.599   1.852   3.879 -0.1767  0.1387 -0.9110
    1SOL    HW3 9487   3.613   1.937   4.003 -0.0291 -0.9389 -0.1839
    1SOL    MW4 9488   3.595   1.930   3.918  0.0882 -0.1656 -0.2789
    1SOL     OW 9489   3.801   2.080   3.781  0.1242 -0.2925 -0.0514
    1SOL    HW2 9490   3.884   2.039   3.808  0.3918  0.1576 -0.1824
    1SOL    HW3 9491   3.733   2.020   3.812  0.4669 -0.2594  0.7651
    1SOL    MW4 9492   3.803   2.067   3.789  0.2048 -0.2289  0.0391
    1SOL     OW 9493   3.792   2.387   4.134 -0.3010  0.0729 -0.4257
    1SOL    HW2 9494   3.781   2.304   4.181 -0.4415  0.5343  0.3515
    1SOL    HW3 9495   3.745   2.374   4.051 -0.3710 -0.5986 -0.2799
    1SOL    MW4 9496   3.785   2.374   4.129 -0.3290  0.0451 -0.3037
    1SOL     OW 9497   3.773   2.359   3.822 -0.0256  0.3573  0.5663
    1SOL    HW2 9498   3.769   2.265   3.807  2.2158  0.3186  0.0184
    1SOL    HW3 9499   3.709   2.396   3.762  0.4956 -0.6774 -0.6307
    1SOL    MW4 9500   3.764   2.351   3.812  0.3388  0.2155  0.3364
    1SOL     OW 9501   3.594   2.754   3.950  0.0569  0.2208  0.5338
    1SOL    HW2 9502   3.577   2.665   3.979 -0.0283  1.1012  3.4123
    1SOL    HW3 9503   3.516   2.781   3.903 -1.1019 -0.2756  2.1432
    1SOL    MW4 9504   3.582   2.746   3.948 -0.1073  0.2716  1.1258
    1SOL     OW 9505   3.798   2.810   3.773  0.2474 -0.1346 -0.1997
    1SOL    HW2 9506   3.868   2.747   3.791  0.7625  0.4349 -0.1603
    1SOL    HW3 9507   3.725   2.782   3.827  1.0157  0.2395  1.0545
    1SOL    MW4 9508   3.798   2.798   3.783  0.4168 -0.0100 -0.0291
    1SOL     OW 9509   3.834   3.076   3.848 -0.1170  0.4447 -0.5670
    1SOL    HW2 9510   3.743   3.108   3.845 -0.3755 -0.3905 -1.9071
    1SOL    HW3 9511   3.834   2.998   3.792  1.1729 -0.2220  0.3478
    1SOL    MW4 9512   3.822   3.070   3.840  0.0191  0.2463 -0.6232
    1SOL     OW 9513   3.602   3.219   3.818  0.0319 -0.2710  0.2583
    1SOL    HW2 9514   3.595   3.313   3.836 -0.8983 -0.4936  1.1558
    1SOL    HW3 9515   3.593   3.212   3.723  0.9536  0.6097  0.0980
    1SOL    MW4 9516   3.600   3.231   3.808  0.0308 -0.1845  0.3555
    1SOL     OW 9517   3.594   3.478   3.899  0.2393 -0.2893  0.4943
    1SOL    HW2 9518   3.580   3.499   3.991  2.3511  0.7868  0.6173
    1SOL    HW3 9519   3.512   3.500   3.856 -0.4726  0.0272  1.9851
    1SOL    MW4 9520   3.581   3.484   3.905  0.4239 -0.1054  0.7071
    1SOL     OW 9521   3.797   3.615   3.771  0.0611  0.3959 -0.4730
    1SOL    HW2 9522   3.780   3.701   3.809  0.4758  0.5931 -0.7357
    1SOL    HW3 9523   3.732   3.558   3.813  0.0575  0.7499  0.0099
    1SOL    MW4 9524   3.786   3.619   3.782  0.1152  0.4687 -0.4437
    1SOL     OW 9525   3.769   3.849   3.903 -0.2413 -0.2814 -0.0729
    1SOL    HW2 9526   3.786   3.842   3.997 -0.9020  1.7624  0.2290
    1SOL    HW3 9527   3.842   3.902   3.869 -0.5373 -0.1588 -0.5292
    1SOL    MW4 9528   3.781   3.855   3.911 -0.3674  0.0045 -0.0935
    1SOL     OW 9529   3.534   3.986   3.836 -0.1585  0.3827  0.2103
    1SOL    HW2 9530   3.546   4.080   3.845 -0.5569  0.5653 -1.0123
    1SOL    HW3 9531   3.617   3.948   3.865  0.3421  1.1626 -0.1863
    1SOL    MW4 9532   3.547   3.993   3.841 -0.1450  0.5100 -0.0031
    1SOL     OW 9533   3.577   4.265   3.888  0.3985 -0.0196  0.1627
    1SOL    HW2 9534   3.574   4.254   3.983  0.6055 -1.8025 -0.0203
    1SOL    HW3 9535   3.658   4.315   3.872 -0.3391  1.4664  1.0113
    1SOL    MW4 9536   3.588   4.270   3.898  0.3285 -0.0582  0.2506
    1SOL     OW 9537   3.804   4.402   3.803  0.5333 -0.2918  0.2112
    1SOL    HW2 9538   3.880   4.354   3.835  1.2731  0.5225 -0.3107
    1SOL    HW3 9539   3.817   4.409   3.709  0.9518  1.7843  0.3968
    1SOL    MW4 9540   3.816   4.397   3.795  0.6862  0.0896  0.1669
    1SOL     OW 9541   4.227   4.650   3.844 -0.0658  0.4509 -0.3370
    1SOL    HW2 9542   4.225   4.632   3.938  0.7681 -1.3887 -0.6543
    1SOL    HW3 9543   4.319   4.667   3.825 -0.1020 -0.0394 -0.9695
    1SOL    MW4 9544   4.239   4.650   3.854  0.0396  0.1435 -0.4623
    1SOL     OW 9545   4.026   0.139   3.756  0.0805 -0.2669 -0.3958
    1SOL    HW2 9546   4.100   0.085   3.784 -0.7394 -0.3894  1.6557
    1SOL    HW3 9547   4.027   0.134   3.661  2.4154 -0.6568 -0.3771
    1SOL    MW4 9548   4.036   0.131   3.747  0.2799 -0.3345 -0.1230
    1SOL     OW 9549   4.082   0.375   3.901  0.0312 -0.2251 -0.1919
    1SOL    HW2 9550   4.036   0.354   3.982  1.1259 -1.2321  0.1809
    1SOL    HW3 9551   4.088   0.292   3.854  1.6899 -0.1637 -0.1134
    1SOL    MW4 9552   4.077   0.361   3.906  0.3943 -0.3498 -0.1323
    1SOL     OW 9553   4.293   0.504   3.795  0.2371 -0.1550 -0.2328
    1SOL    HW2 9554   4.214   0.474   3.840  0.6298 -0.0264  0.5645
    1SOL    HW3 9555   4.270   0.504   3.702 -0.7960  0.1687  0.0139
    1SOL    MW4 9556   4.280   0.500   3.789  0.1521 -0.0953 -0.0954
    1SOL     OW 9557   4.316   0.769   3.898  0.1394  0.1442 -0.3543
    1SOL    HW2 9558   4.231   0.803   3.869 -0.4942 -1.2556 -0.1837
    1SOL    HW3 9559   4.318   0.679   3.866  0.7143 -0.4635  1.3383
    1SOL    MW4 9560   4.305   0.762   3.890  0.1316 -0.1206 -0.1085
    1SOL     OW 9561   4.061   0.857   3.785  0.1069  0.3138  0.3436
    1SOL    HW2 9562   4.062   0.948   3.814 -1.1524 -0.1187  1.8344
    1SOL    HW3 9563   4.021   0.859   3.698 -2.2633  0.9139  1.4225
    1SOL    MW4 9564   4.056   0.869   3.777 -0.3719  0.3359  0.6826
    1SOL     OW 9565   3.984   1.113   3.859 -0.3177  0.3810  0.0971
    1SOL    HW2 9566   3.961   1.106   3.952  0.0472  0.7249  0.2128
    1SOL    HW3 9567   4.061   1.170   3.857 -0.2065  0.2143 -0.4005
    1SOL    MW4 9568   3.991   1.120   3.871 -0.2551  0.4044  0.0465
    1SOL     OW 9569   4.219   1.242   3.776 -0.6233 -0.2354 -0.5695
    1SOL    HW2 9570   4.224   1.336   3.795 -1.1055 -0.1988 -0.6150
    1SOL    HW3 9571   4.211   1.238   3.680  1.0902 -0.3903 -0.7139
    1SOL    MW4 9572   4.219   1.254   3.766 -0.4611 -0.2509 -0.5946
    1SOL     OW 9573   4.261   1.516   3.826 -0.3459  0.3115 -0.0077
    1SOL    HW2 9574   4.180   1.561   3.801  0.0931  0.6198 -0.8811
    1SOL    HW3 9575   4.331   1.577   3.802  0.1814 -0.2717  0.0466
    1SOL    MW4 9576   4.259   1.530   3.820 -0.2184  0.2754 -0.1159
    1SOL     OW 9577   4.035   1.665   3.775  0.0398 -0.3184  0.3051
    1SOL    HW2 9578   4.036   1.755   3.805  1.7869 -0.0523 -0.4345
    1SOL    HW3 9579   3.960   1.625   3.819  0.0897  1.1160  1.7371
    1SOL    MW4 9580   4.026   1.671   3.785  0.2766 -0.0941  0.3965
    1SOL     OW 9581   4.028   1.936   3.882 -0.9601 -0.0864  0.4683
    1SOL    HW2 9582   4.034   1.958   3.975 -1.1806  1.3888  0.1541
    1SOL    HW3 9583   4.093   1.991   3.839 -0.6041 -1.0228 -0.2137
    1SOL    MW4 9584   4.037   1.946   3.888 -0.9427 -0.0153  0.3371
    1SOL     OW 9585   4.239   2.057   3.758 -0.5622 -0.0156  0.1569
    1SOL    HW2 9586   4.249   2.149   3.781 -0.0959  0.1826 -0.8175
    1SOL    HW3 9587   4.245   2.056   3.662 -1.0493 -0.9940  0.1369
    1SOL    MW4 9588   4.241   2.069   3.748 -0.5651 -0.1187  0.0257
    1SOL     OW 9589   4.247   2.338   3.827 -0.2301 -0.3904 -0.1503
    1SOL    HW2 9590   4.219   2.335   3.919  0.8256  1.3808  0.2424
    1SOL    HW3 9591   4.165   2.351   3.778 -0.4797  1.7440  0.7776
    1SOL    MW4 9592   4.232   2.339   3.833 -0.1240  0.1249  0.0236
    1SOL     OW 9593   4.001   2.396   3.675 -0.0481 -0.1309  0.1683
    1SOL    HW2 9594   4.021   2.478   3.720  0.0170  0.5961 -1.1538
    1SOL    HW3 9595   3.928   2.359   3.724  0.4429  0.3158  1.2586
    1SOL    MW4 9596   3.994   2.402   3.687  0.0250  0.0241  0.1376
    1SOL     OW 9597   4.004   2.633   3.824  0.0640 -0.2711 -0.2381
    1SOL    HW2 9598   4.010   2.588   3.908  0.0874 -1.0489 -0.6472
    1SOL    HW3 9599   4.088   2.678   3.815  0.4295 -0.9384 -0.2565
    1SOL    MW4 9600   4.016   2.633   3.834  0.1154 -0.4618 -0.2947
    1SOL     OW 9601   4.244   2.787   3.752  0.0411 -0.1357 -0.0739
    1SOL    HW2 9602   4.242   2.873   3.793  0.7592  0.4361 -1.2147
    1SOL    HW3 9603   4.311   2.739   3.801 -2.0877 -0.9050  2.1857
    1SOL    MW4 9604   4.253   2.792   3.764 -0.1445 -0.1621  0.0737
    1SOL     OW 9605   4.257   3.039   3.876 -0.3840  0.6123 -0.3057
    1SOL    HW2 9606   4.183   3.098   3.860 -1.2309 -0.2069  0.5885
    1SOL    HW3 9607   4.334   3.094   3.862 -1.1669  1.6924 -0.4286
    1SOL    MW4 9608   4.258   3.054   3.872 -0.5999  0.6466 -0.2038
    1SOL     OW 9609   4.062   3.230   3.801  0.2512 -0.3818  0.0803
    1SOL    HW2 9610   3.988   3.175   3.827  0.7337 -1.1798 -0.2252
    1SOL    HW3 9611   4.069   3.218   3.706  0.0586  0.5856 -0.0650
    1SOL    MW4 9612   4.053   3.221   3.792  0.2894 -0.3598  0.0207
    1SOL     OW 9613   3.997   3.497   3.904  0.1915  0.0579  0.1355
    1SOL    HW2 9614   4.024   3.424   3.849  1.0918  0.9697 -0.6689
    1SOL    HW3 9615   3.930   3.542   3.854 -2.1860 -1.6173  1.7009
    1SOL    MW4 9616   3.992   3.493   3.890 -0.0036 -0.0427  0.2358
    1SOL     OW 9617   4.236   3.643   3.806 -0.0191 -0.0819  0.6139
    1SOL    HW2 9618   4.153   3.603   3.831  1.3441 -3.3837 -0.0062
    1SOL    HW3 9619   4.302   3.600   3.861  1.7843 -0.4314 -1.7296
    1SOL    MW4 9620   4.234   3.632   3.817  0.3986 -0.5636  0.2227
    1SOL     OW 9621   4.242   3.897   3.889 -0.2206  0.0462  0.2543
    1SOL    HW2 9622   4.154   3.923   3.865  0.5006  0.5015 -1.9962
    1SOL    HW3 9623   4.250   3.807   3.858  0.0868 -0.0195  0.5139
    1SOL    MW4 9624   4.232   3.888   3.882 -0.0854  0.0973 -0.0086
    1SOL     OW 9625   3.996   3.980   3.791  0.0471  0.2329 -0.0580
    1SOL    HW2 9626   4.002   4.063   3.838 -0.4505 -0.6578  1.6561
    1SOL    HW3 9627   4.019   4.001   3.701  0.6486  2.0852  0.5025
    1SOL    MW4 9628   4.000   3.994   3.785  0.0606  0.3600  0.2422
    1SOL     OW 9629   4.007   4.240   3.892  0.1378  0.2537 -0.1450
    1SOL    HW2 9630   4.022   4.281   3.977 -1.3622  2.4911 -0.9030
    1SOL    HW3 9631   4.075   4.277   3.835  0.7375 -0.7389 -0.0781
    1SOL    MW4 9632   4.018   4.251   3.896  0.0191  0.4177 -0.2360
    1SOL     OW 9633   4.232   4.367   3.760  0.2535  0.0511 -0.4234
    1SOL    HW2 9634   4.233   4.459   3.786 -0.2773 -0.4750  1.5669
    1SOL    HW3 9635   4.309   4.329   3.802  0.8935 -0.2744 -1.8510
    1SOL    MW4 9636   4.242   4.374   3.769  0.2680 -0.0610 -0.3490
    1SOL     OW 9637   3.253   1.961   4.502  0.5188  0.3107  0.1997
    1SOL    HW2 9638   3.176   2.014   4.482 -0.1821 -0.7276  0.0751
    1SOL    HW3 9639   3.320   1.991   4.440 -0.2070  0.3040 -0.5974
    1SOL    MW4 9640   3.252   1.972   4.491  0.3304  0.1729  0.0777
    1SOL     OW 9641   3.986   4.267   4.202 -0.3605 -0.2557 -0.0697
    1SOL    HW2 9642   3.967   4.176   4.225 -0.5727  0.0634  1.0398
    1SOL    HW3 9643   3.900   4.309   4.198 -0.1072  0.4832  1.9363
    1SOL    MW4 9644   3.972   4.261   4.204 -0.3550 -0.1154  0.3414
    1SOL     OW 9645   2.103   0.278   4.567  0.1418 -0.0156  0.0868
    1SOL    HW2 9646   2.015   0.302   4.595  0.0787  1.7452 -1.5398
    1SOL    HW3 9647   2.156   0.356   4.581  1.0975 -0.5477 -0.4316
    1SOL    MW4 9648   2.099   0.291   4.572  0.2594  0.1465 -0.1960
    1SOL     OW 9649   0.644   0.715   4.144 -0.0931 -0.3850 -0.1002
    1SOL    HW2 9650   0.715   0.764   4.186  0.0061 -1.3032  0.8215
    1SOL    HW3 9651   0.674   0.702   4.054  0.3255  0.3694 -0.0746
    1SOL    MW4 9652   0.657   0.720   4.138 -0.0248 -0.4066  0.0248
    1SOL     OW 9653   4.250   0.725   4.156 -0.5202 -0.2612  0.0826
    1SOL    HW2 9654   4.268   0.752   4.066 -0.1309 -1.0804 -0.0915
    1SOL    HW3 9655   4.325   0.758   4.207  0.3019 -1.5661 -0.2421
    1SOL    MW4 9656   4.263   0.732   4.151 -0.3605 -0.5414  0.0167
    1SOL     OW 9657   1.896   2.227   4.476  0.4547 -0.1358 -0.0313
    1SOL    HW2 9658   1.885   2.239   4.570  1.3996  0.5727 -0.0024
    1SOL    HW3 9659   1.986   2.253   4.459 -0.1995  1.4053 -1.3890
    1SOL    MW4 9660   1.906   2.232   4.486  0.4932  0.1612 -0.2065
    1SOL     OW 9661   4.475   1.129   4.158  0.1330  0.0378  0.3089
    1SOL    HW2 9662   4.390   1.166   4.180  0.1633  0.3615 -0.1112
    1SOL    HW3 9663   4.538   1.179   4.210  0.0542 -0.2904  0.7195
    1SOL    MW4 9664   4.472   1.140   4.167  0.1273  0.0372  0.3080
    1SOL     OW 9665   1.123   2.756   4.224 -0.1448 -0.2612  0.2134
    1SOL    HW2 9666   1.121   2.848   4.198  0.3038 -0.5058 -0.6976
    1SOL    HW3 9667   1.074   2.753   4.307 -1.8035  0.4949 -0.7066
    1SOL    MW4 9668   1.116   2.768   4.232 -0.3046 -0.1936 -0.0286
    1SOL     OW 9669   0.450   4.297   4.638 -0.0090  0.1041  0.2371
    1SOL    HW2 9670   0.382   4.357   4.609 -1.5563 -0.6136  2.2274
    1SOL    HW3 9671   0.429   4.214   4.595 -0.5248 -0.1604  0.9778
    1SOL    MW4 9672   0.438   4.294   4.629 -0.2812 -0.0253  0.5975
    1SOL     OW 9673   2.449   3.575   4.548  0.0702  0.0718  0.2148
    1SOL    HW2 9674   2.364   3.611   4.573 -0.9715 -1.4147 -1.1397
    1SOL    HW3 9675   2.436   3.480   4.547  2.4950 -0.3607  2.7168
    1SOL    MW4 9676   2.436   3.567   4.551  0.2527 -0.1812  0.3662
    1SOL     OW 9677   0.468   3.034   4.467  0.0409 -0.4376  0.2927
    1SOL    HW2 9678   0.485   3.066   4.556 -0.2461 -0.9643  0.5385
    1SOL    HW3 9679   0.373   3.030   4.461  0.0559 -0.1267 -0.1397
    1SOL    MW4 9680   0.458   3.038   4.478  0.0051 -0.4661  0.2675
    1SOL     OW 9681   1.335   3.936   4.241 -0.3487 -0.1414 -0.4748
    1SOL    HW2 9682   1.427   3.916   4.228 -0.5828 -1.8622  0.3135
    1SOL    HW3 9683   1.325   3.946   4.335 -0.9549  0.0621 -0.5537
    1SOL    MW4 9684   1.346   3.934   4.252 -0.4596 -0.3414 -0.3815
    1SOL     OW 9685   0.256   2.233   4.102 -0.2940  0.3610  0.6213
    1SOL    HW2 9686   0.253   2.147   4.145  0.7268 -0.5322 -1.0641
    1SOL    HW3 9687   0.330   2.278   4.142 -0.6303  0.3442  1.2732
    1SOL    MW4 9688   0.265   2.227   4.113 -0.2037  0.2410  0.4849
    1SOL     OW 9689   1.148   4.377   4.237  0.3491  0.2541 -0.1800
    1SOL    HW2 9690   1.142   4.374   4.332  0.1924  1.2510 -0.1485
    1SOL    HW3 9691   1.204   4.303   4.214 -0.6294 -0.7418  0.5845
    1SOL    MW4 9692   1.154   4.367   4.246  0.1993  0.2546 -0.0749
    1SOL     OW 9693   4.211   4.414   4.284 -0.1464  0.4950  0.2790
    1SOL    HW2 9694   4.193   4.488   4.226  1.2303 -0.6728 -1.6933
    1SOL    HW3 9695   4.150   4.346   4.255  1.0886 -0.3629 -0.3349
    1SOL    MW4 9696   4.200   4.415   4.273  0.1979  0.2279 -0.0620
    1SOL     OW 9697   0.075   1.638   4.530 -0.0086 -0.5029  0.1402
    1SOL    HW2 9698   0.170   1.649   4.523 -0.1200 -0.0200 -0.5923
    1SOL    HW3 9699   0.042   1.727   4.544 -0.2235 -0.8444  2.0088
    1SOL    MW4 9700   0.083   1.651   4.531 -0.0516 -0.4843  0.2899
    1SOL     OW 9701   0.238   2.786   4.207  0.0917 -0.0074 -0.0971
    1SOL    HW2 9702   0.245   2.877   4.177  1.4269  0.0911  0.4311
    1SOL    HW3 9703   0.147   2.763   4.194 -0.3318  1.5181  0.0286
    1SOL    MW4 9704   0.227   2.795   4.202  0.2120  0.2067 -0.0110
    1SOL     OW 9705   2.067   1.544   4.594  0.3744  0.3775 -0.0516
    1SOL    HW2 9706   2.059   1.504   4.507 -0.8947 -0.6069  0.4915
    1SOL    HW3 9707   2.014   1.488   4.651 -0.3772  2.0878  0.9946
    1SOL    MW4 9708   2.059   1.531   4.590  0.1075  0.4733  0.1578
    1SOL     OW 9709   4.286   3.095   4.148  0.2977  0.0558 -0.0410
    1SOL    HW2 9710   4.378   3.113   4.170  0.5192 -1.8405  0.6322
    1SOL    HW3 9711   4.288   3.072   4.055  0.7588 -1.7331  0.4048
    1SOL    MW4 9712   4.299   3.094   4.139  0.3881 -0.4301  0.1068
    1SOL     OW 9713   3.550   2.736   4.351  0.0299 -0.5129 -0.2777
    1SOL    HW2 9714   3.474   2.752   4.295  0.1646 -0.1851 -0.3709
    1SOL    HW3 9715   3.565   2.820   4.395 -0.4724 -0.9576  0.7478
    1SOL    MW4 9716   3.542   2.749   4.349 -0.0184 -0.5286 -0.1550
    1SOL     OW 9717   1.740   0.960   4.734 -0.7557  0.2620  0.4979
    1SOL    HW2 9718   1.651   0.954   4.771 -0.8833  1.1620  0.3475
    1SOL    HW3 9719   1.738   1.038   4.680 -0.2500 -0.4696 -0.5875
    1SOL    MW4 9720   1.728   0.969   4.732 -0.7058  0.2843  0.3357
    1SOL     OW 9721   1.512   1.936   4.516 -0.0692 -0.2565 -0.0474
    1SOL    HW2 9722   1.497   1.961   4.607  2.1338  0.4868  0.1494
    1SOL    HW3 9723   1.450   1.864   4.500  0.5108 -1.3786  2.4953
    1SOL    MW4 9724   1.502   1.930   4.526  0.2979 -0.3064  0.3142
    1SOL     OW 9725   0.185   4.364   4.273  0.3035 -0.4951  0.1309
    1SOL    HW2 9726   0.206   4.375   4.366 -1.8295 -1.2880  0.7459
    1SOL    HW3 9727   0.109   4.307   4.273  0.4456 -0.7158 -2.1419
    1SOL    MW4 9728   0.178   4.358   4.285  0.0408 -0.6289 -0.0873
    1SOL     OW 9729   3.189   1.203   4.158  0.3278  0.7454 -0.2334
    1SOL    HW2 9730   3.192   1.178   4.065  1.0420 -0.3391  0.0750
    1SOL    HW3 9731   3.105   1.247   4.168  0.0649  0.5024 -1.3141
    1SOL    MW4 9732   3.178   1.205   4.147  0.3870  0.5703 -0.3352
    1SOL     OW 9733   0.917   4.518   4.611  0.8124 -0.0362  0.5139
    1SOL    HW2 9734   0.901   4.601   4.566 -0.5473 -0.2283  0.5996
    1SOL    HW3 9735   0.848   4.460   4.578 -0.2307 -0.1733  2.8086
    1SOL    MW4 9736   0.906   4.521   4.601  0.4954 -0.0796  0.8283
    1SOL     OW 9737   0.807   0.038   4.133  0.0920  0.3251  0.0723
    1SOL    HW2 9738   0.858   0.119   4.127 -0.3466  0.5833 -0.1998
    1SOL    HW3 9739   0.770   0.026   4.046  0.9272 -0.6854 -0.1454
    1SOL    MW4 9740   0.809   0.047   4.121  0.1444  0.2258  0.0072
    1SOL     OW 9741   0.458   0.360   4.162  0.4112  0.0245  0.3176
    1SOL    HW2 9742   0.532   0.408   4.198 -0.9553  2.1233  0.4394
    1SOL    HW3 9743   0.470   0.365   4.067 -0.0508  1.2029  0.3072
    1SOL    MW4 9744   0.469   0.367   4.154  0.1699  0.4569  0.3319
    1SOL     OW 9745   0.864   0.835   4.240  0.0143  0.4027  0.1241
    1SOL    HW2 9746   0.865   0.930   4.228  2.2527  0.4138  0.1566
    1SOL    HW3 9747   0.886   0.823   4.332  2.5411 -0.1871 -0.5149
    1SOL    MW4 9748   0.867   0.846   4.250  0.6430  0.3264  0.0443
    1SOL     OW 9749   4.467   0.884   4.569  0.1766  0.4415 -0.2491
    1SOL    HW2 9750   4.412   0.960   4.591 -1.0658 -0.3208 -0.6555
    1SOL    HW3 9751   4.548   0.898   4.618 -1.3841  0.2460  2.5286
    1SOL    MW4 9752   4.470   0.896   4.578 -0.1931  0.3152  0.0634
    1SOL     OW 9753   2.742   1.926   4.125  0.4544 -0.6124 -0.5401
    1SOL    HW2 9754   2.687   1.984   4.177 -0.2157 -1.2168 -0.5712
    1SOL    HW3 9755   2.733   1.840   4.166  0.4994 -0.9438 -1.2019
    1SOL    MW4 9756   2.734   1.922   4.137  0.3717 -0.7360 -0.6309
    1SOL     OW 9757   0.712   1.504   4.193  0.1756  0.5741 -0.1684
    1SOL    HW2 9758   0.689   1.414   4.217  0.8620  0.5492  0.4107
    1SOL    HW3 9759   0.715   1.503   4.097 -0.2385  0.0838 -0.1778
    1SOL    MW4 9760   0.709   1.492   4.183  0.2114  0.5062 -0.0930
    1SOL     OW 9761   0.169   0.766   4.107  0.2869  0.1519  0.2431
    1SOL    HW2 9762   0.185   0.685   4.156 -0.1980  0.5533  1.0711
    1SOL    HW3 9763   0.094   0.806   4.150  0.4865  1.0158 -0.1994
    1SOL    MW4 9764   0.161   0.760   4.119  0.2493  0.3189  0.2942
    1SOL     OW 9765   0.663   2.516   4.502  0.0006 -0.6372 -0.0238
    1SOL    HW2 9766   0.646   2.608   4.482 -2.3055 -0.5084  2.3581
    1SOL    HW3 9767   0.758   2.508   4.494  0.2066  1.8487 -0.6430
    1SOL    MW4 9768   0.673   2.527   4.498 -0.2764 -0.2923  0.2089
    1SOL     OW 9769   4.099   1.250   4.506 -0.1575 -0.0821 -0.4200
    1SOL    HW2 9770   4.122   1.342   4.521  0.1683 -0.1762 -0.3505
    1SOL    HW3 9771   4.003   1.248   4.514 -0.0390 -0.0434  1.2019
    1SOL    MW4 9772   4.089   1.262   4.509 -0.0992 -0.0894 -0.1969
    1SOL     OW 9773   0.473   1.883   4.167 -0.0440 -0.1994 -0.1853
    1SOL    HW2 9774   0.548   1.933   4.200  0.1573  0.6036 -1.8292
    1SOL    HW3 9775   0.481   1.888   4.072 -2.3477  0.1342 -0.3815
    1SOL    MW4 9776   0.484   1.890   4.159 -0.3214 -0.0496 -0.4277
    1SOL     OW 9777   1.827   3.084   4.494 -0.5956 -0.0279 -0.3636
    1SOL    HW2 9778   1.922   3.092   4.502 -0.5665 -0.3456 -0.3830
    1SOL    HW3 9779   1.806   3.134   4.414 -0.7569  2.1495  0.9929
    1SOL    MW4 9780   1.837   3.092   4.484 -0.6130  0.2174 -0.1874
    1SOL     OW 9781   0.732   2.246   4.130  0.5302  0.0938  0.2320
    1SOL    HW2 9782   0.654   2.290   4.165  0.4090 -0.2223  0.3644
    1SOL    HW3 9783   0.717   2.243   4.036 -0.9103 -2.3819  0.4764
    1SOL    MW4 9784   0.720   2.251   4.123  0.3242 -0.2747  0.2823
    1SOL     OW 9785   2.538   4.360   4.691 -0.0382  0.0109  0.1164
    1SOL    HW2 9786   2.524   4.275   4.649  0.3666 -0.1248  0.2497
    1SOL    HW3 9787   2.577   4.339   4.776  0.3189  0.3410  0.0359
    1SOL    MW4 9788   2.542   4.346   4.696  0.0622  0.0367  0.1235
    1SOL     OW 9789   0.720   2.821   4.180 -0.3296 -0.4430  0.0152
    1SOL    HW2 9790   0.780   2.757   4.142  0.1881  0.3445 -0.5105
    1SOL    HW3 9791   0.636   2.776   4.183  0.4412 -1.8292  1.4921
    1SOL    MW4 9792   0.717   2.807   4.176 -0.1596 -0.5221  0.1402
    1SOL     OW 9793   1.601   2.826   4.257  0.1744 -0.1772  0.1381
    1SOL    HW2 9794   1.597   2.798   4.349  0.9822  0.7956  0.4820
    1SOL    HW3 9795   1.684   2.790   4.225  0.1549 -0.0503 -0.0557
    1SOL    MW4 9796   1.611   2.817   4.265  0.2784 -0.0319  0.1578
    1SOL     OW 9797   0.699   3.073   4.093 -0.0564 -0.3419  0.1188
    1SOL    HW2 9798   0.701   2.979   4.110  0.2050 -0.1088  1.4228
    1SOL    HW3 9799   0.619   3.104   4.135  0.5351  0.2193  0.8634
    1SOL    MW4 9800   0.689   3.065   4.101  0.0561 -0.2372  0.3886
    1SOL     OW 9801   0.024   3.176   4.245  0.2919 -0.1944  0.3124
    1SOL    HW2 9802   0.007   3.265   4.213 -1.9546 -1.0822 -1.0998
    1SOL    HW3 9803  -0.010   3.176   4.334  1.1286  0.6119  0.6379
    1SOL    MW4 9804   0.017   3.188   4.252  0.1059 -0.2053  0.1688
    1SOL     OW 9805   0.847   1.102   4.811 -0.1067 -0.1505  0.0217
    1SOL    HW2 9806   0.840   1.122   4.905  0.3627 -0.9006  0.2267
    1SOL    HW3 9807   0.895   1.177   4.775 -1.2742  0.6855  0.1711
    1SOL    MW4 9808   0.853   1.115   4.819 -0.1988 -0.1391  0.0687
    1SOL     OW 9809   3.688   3.819   4.626 -0.1561 -0.6335 -0.2296
    1SOL    HW2 9810   3.740   3.743   4.600 -0.5928 -1.3175  0.8577
    1SOL    HW3 9811   3.605   3.782   4.657  0.5719  0.0671  2.7517
    1SOL    MW4 9812   3.684   3.804   4.627 -0.1175 -0.6313  0.3071
    1SOL     OW 9813   0.658   3.615   4.292  0.0229  0.4235 -0.0521
    1SOL    HW2 9814   0.721   3.550   4.259  1.9604  1.7029  1.0357
    1SOL    HW3 9815   0.664   3.687   4.230  0.1317  0.8311  0.4303
    1SOL    MW4 9816   0.667   3.616   4.279  0.2928  0.6461  0.1545
    1SOL     OW 9817   2.749   0.300   4.564  0.5744 -0.0672  0.1222
    1SOL    HW2 9818   2.767   0.209   4.589 -0.6585  0.1616  1.9891
    1SOL    HW3 9819   2.832   0.345   4.576  0.9053 -0.7133  0.2978
    1SOL    MW4 9820   2.762   0.294   4.569  0.4554 -0.1223  0.3920
    1SOL     OW 9821   4.465   0.586   4.553  0.0671  0.2435  0.3262
    1SOL    HW2 9822   4.390   0.531   4.530  0.2952 -0.5679  1.4435
    1SOL    HW3 9823   4.429   0.674   4.562 -0.7367 -0.1175  0.7182
    1SOL    MW4 9824   4.450   0.590   4.551 -0.0091  0.0889  0.5255
    1SOL     OW 9825   0.020   4.294   4.621 -0.3041  0.3540 -0.7124
    1SOL    HW2 9826  -0.007   4.204   4.604 -1.5705  0.5792 -0.0226
    1SOL    HW3 9827  -0.059   4.346   4.602 -0.1154  1.1289  0.5503
    1SOL    MW4 9828   0.006   4.289   4.617 -0.4462  0.4864 -0.4544
    1SOL     OW 9829   1.152   4.645   4.134  0.2441 -0.2178  0.0425
    1SOL    HW2 9830   1.137   4.558   4.171  0.3883 -0.0386  0.5317
    1SOL    HW3 9831   1.131   4.636   4.042  0.9211 -0.9519 -0.0509
    1SOL    MW4 9832   1.148   4.632   4.127  0.3524 -0.2904  0.0944
    1SOL     OW 9833   1.057   0.190   4.294  0.2889  0.4822 -0.1775
    1SOL    HW2 9834   0.986   0.241   4.256 -0.4134  0.4283  1.0645
    1SOL    HW3 9835   1.088   0.135   4.221 -1.2152  0.1849 -0.6139
    1SOL    MW4 9836   1.052   0.189   4.279 -0.0021  0.4359 -0.0710
    1SOL     OW 9837   1.889   4.604   4.618  0.0509  0.3281  0.5740
    1SOL    HW2 9838   1.889   4.610   4.522  0.0640  0.0491  0.5538
    1SOL    HW3 9839   1.825   4.668   4.647  0.5532  0.9068  0.4115
    1SOL    MW4 9840   1.881   4.613   4.609  0.1190  0.3672  0.5498
    1SOL     OW 9841   0.443   1.616   4.253 -0.0371 -1.0092 -0.1076
    1SOL    HW2 9842   0.520   1.574   4.215 -0.2636 -0.7420 -0.8742
    1SOL    HW3 9843   0.452   1.708   4.229 -0.4488 -0.9286  0.0429
    1SOL    MW4 9844   0.454   1.623   4.244 -0.1214 -0.9632 -0.1888
    1SOL     OW 9845   1.124   0.776   4.159 -0.6435 -0.0231  0.4262
    1SOL    HW2 9846   1.170   0.821   4.229 -1.6297 -2.3494  2.6542
    1SOL    HW3 9847   1.033   0.805   4.168 -1.0520 -1.4560  1.1023
    1SOL    MW4 9848   1.118   0.786   4.169 -0.8276 -0.5190  0.8087
    1SOL     OW 9849   1.686   0.128   4.720  0.9013 -0.0422  0.0589
    1SOL    HW2 9850   1.736   0.210   4.720  0.1130  0.4372 -0.2552
    1SOL    HW3 9851   1.677   0.106   4.813 -0.3702  1.1468  0.2365
    1SOL    MW4 9852   1.691   0.136   4.733  0.6295  0.1779  0.0410
    1SOL     OW 9853   0.903   1.099   4.175 -0.6689 -0.0024 -0.2531
    1SOL    HW2 9854   0.837   1.153   4.220  0.0370 -0.6601  1.6057
    1SOL    HW3 9855   0.986   1.142   4.195 -0.1781 -1.3234  0.5983
    1SOL    MW4 9856   0.905   1.112   4.184 -0.5110 -0.2635  0.1049
    1SOL     OW 9857   4.441   1.408   4.615 -0.2938 -0.1166 -0.0060
    1SOL    HW2 9858   4.519   1.352   4.610  0.3390  0.7978 -0.6494
    1SOL    HW3 9859   4.475   1.496   4.599 -1.5777  0.1937 -1.0665
    1SOL    MW4 9860   4.456   1.412   4.612 -0.3800  0.0451 -0.2303
    1SOL     OW 9861   3.806   3.565   4.572  0.1303  0.2614 -0.2853
    1SOL    HW2 9862   3.749   3.499   4.611 -0.3354  0.6277 -0.3444
    1SOL    HW3 9863   3.795   3.552   4.477  0.8691 -0.2913 -0.2991
    1SOL    MW4 9864   3.797   3.555   4.564  0.1659  0.2367 -0.2952
    1SOL     OW 9865   1.259   3.705   4.675 -0.0225 -0.8251 -0.2752
    1SOL    HW2 9866   1.301   3.787   4.647  0.6103 -1.2244 -0.4913
    1SOL    HW3 9867   1.318   3.670   4.742 -0.5734 -0.8319  0.2100
    1SOL    MW4 9868   1.272   3.711   4.680 -0.0116 -0.8788 -0.2394
    1SOL     OW 9869   0.262   1.957   4.544 -0.2803  0.5106  0.3055
    1SOL    HW2 9870   0.299   1.869   4.551 -0.4857  0.4507  0.6163
    1SOL    HW3 9871   0.248   1.970   4.450 -2.3187 -0.6306  0.4381
    1SOL    MW4 9872   0.265   1.947   4.532 -0.5763  0.3521  0.3638
    1SOL     OW 9873   0.911   1.864   4.168 -0.0552  0.2466  0.2367
    1SOL    HW2 9874   0.981   1.929   4.171  2.1505 -2.0328  0.6938
    1SOL    HW3 9875   0.885   1.861   4.076  1.2449  0.3686 -0.1506
    1SOL    MW4 9876   0.917   1.872   4.156  0.4074 -0.0379  0.2460
    1SOL     OW 9877   2.493   2.222   4.493  0.0660 -0.5399  0.1062
    1SOL    HW2 9878   2.460   2.190   4.577  0.7964  0.2993  0.7269
    1SOL    HW3 9879   2.430   2.290   4.468  0.6392  0.2303  0.7063
    1SOL    MW4 9880   2.480   2.227   4.501  0.2379 -0.3276  0.2670
    1SOL     OW 9881   0.379   4.035   4.550 -0.0311 -0.0403  0.0556
    1SOL    HW2 9882   0.441   3.965   4.528 -0.1751 -0.2173  0.2064
    1SOL    HW3 9883   0.306   3.989   4.593 -0.1758  0.1903  0.0543
    1SOL    MW4 9884   0.378   4.019   4.553 -0.0692 -0.0334  0.0758
    1SOL     OW 9885   0.912   2.640   4.105 -0.1865  0.1613  0.4796
    1SOL    HW2 9886   0.896   2.552   4.140  0.3436 -0.2929 -0.3838
    1SOL    HW3 9887   0.992   2.669   4.149  0.5409 -0.4525 -0.4302
    1SOL    MW4 9888   0.920   2.632   4.115 -0.0206  0.0203  0.2460
    1SOL     OW 9889   1.004   3.643   4.528  0.3953 -0.6218  0.8853
    1SOL    HW2 9890   1.082   3.658   4.582  0.8661 -1.2596  0.3997
    1SOL    HW3 9891   1.038   3.636   4.439 -0.5323  1.8446  0.2975
    1SOL    MW4 9892   1.019   3.644   4.524  0.3350 -0.3808  0.7434
    1SOL     OW 9893   1.121   3.022   4.170  0.0322  0.0300 -0.3180
    1SOL    HW2 9894   1.103   3.036   4.077  0.7122 -1.2069 -0.6596
    1SOL    HW3 9895   1.049   3.065   4.216 -0.0648  1.0427 -1.3998
    1SOL    MW4 9896   1.109   3.029   4.164  0.1092  0.0005 -0.5059
    1SOL     OW 9897   3.478   0.189   4.250  0.4643  0.1650  0.1460
    1SOL    HW2 9898   3.556   0.137   4.229  0.0262 -0.0623 -0.9268
    1SOL    HW3 9899   3.503   0.279   4.227  0.7139  0.2155  0.6180
    1SOL    MW4 9900   3.492   0.194   4.244  0.4396  0.1417  0.0668
    1SOL     OW 9901   0.156   3.628   4.241 -0.3539 -0.0947 -0.2116
    1SOL    HW2 9902   0.154   3.720   4.214  2.0150  0.4098  1.2036
    1SOL    HW3 9903   0.237   3.594   4.202  0.0813 -0.8963  1.3547
    1SOL    MW4 9904   0.167   3.635   4.232  0.0160 -0.1340  0.1822
    1SOL     OW 9905   4.009   2.781   4.221  0.3309 -0.0077 -0.4055
    1SOL    HW2 9906   4.007   2.698   4.174 -2.4622 -0.2466  0.0560
    1SOL    HW3 9907   3.952   2.839   4.170  1.8377  1.4831 -0.4343
    1SOL    MW4 9908   4.001   2.778   4.208  0.1616  0.1574 -0.3486
    1SOL     OW 9909   2.065   2.874   4.205  0.1487 -0.4891  0.0970
    1SOL    HW2 9910   1.989   2.819   4.186  0.2031  0.0286 -1.6857
    1SOL    HW3 9911   2.140   2.822   4.175  0.3007  0.0227 -0.4124
    1SOL    MW4 9912   2.065   2.860   4.198  0.1760 -0.3531 -0.2050
    1SOL     OW 9913   0.494   3.190   4.250  0.4379  0.2043  0.3090
    1SOL    HW2 9914   0.463   3.278   4.270  0.6144  0.2976  0.1798
    1SOL    HW3 9915   0.483   3.141   4.331 -1.6181 -0.2306 -0.2218
    1SOL    MW4 9916   0.489   3.195   4.263  0.1899  0.1593  0.2217
    1SOL     OW 9917   0.914   4.254   4.149  0.4518 -0.1097 -0.2486
    1SOL    HW2 9918   0.841   4.309   4.179  0.4682  0.0679 -0.5289
    1SOL    HW3 9919   0.992   4.298   4.180  0.4816  0.2250 -0.7859
    1SOL    MW4 9920   0.914   4.267   4.157  0.4579 -0.0420 -0.3567
    1SOL     OW 9921   1.128   4.367   4.501 -0.2781 -0.2767  0.0282
    1SOL    HW2 9922   1.202   4.414   4.539  0.3878 -0.4528 -1.0356
    1SOL    HW3 9923   1.050   4.410   4.537  0.3354  0.8610 -0.0097
    1SOL    MW4 9924   1.127   4.379   4.511 -0.1094 -0.1497 -0.1168
    1SOL     OW 9925   2.739   3.995   4.286 -0.0992 -0.3220  0.0479
    1SOL    HW2 9926   2.725   3.967   4.376 -0.6719 -0.0306  0.0495
    1SOL    HW3 9927   2.660   3.969   4.239  0.4494 -1.0088 -0.5010
    1SOL    MW4 9928   2.727   3.988   4.291 -0.1025 -0.3743 -0.0243
    1SOL     OW 9929   1.430   0.023   4.090 -0.2020 -0.0429  0.0816
    1SOL    HW2 9930   1.478  -0.014   4.164  1.7397 -0.8246 -1.5076
    1SOL    HW3 9931   1.343  -0.017   4.096  0.3468 -1.1222  1.1899
    1SOL    MW4 9932   1.425   0.013   4.101  0.1266 -0.2884  0.0181
    1SOL     OW 9933   1.504   0.309   4.129 -0.0065 -0.7003 -0.6751
    1SOL    HW2 9934   1.598   0.313   4.110  0.0036  0.9752 -0.2591
    1SOL    HW3 9935   1.487   0.215   4.142  1.9105 -0.8707  0.8287
    1SOL    MW4 9936   1.514   0.297   4.128  0.2477 -0.5017 -0.4215
    1SOL     OW 9937   1.532   3.249   4.682 -0.0280 -0.2067 -0.2887
    1SOL    HW2 9938   1.506   3.161   4.710  1.0338 -0.1818  0.8072
    1SOL    HW3 9939   1.628   3.249   4.687 -0.0197  1.0462 -0.1487
    1SOL    MW4 9940   1.541   3.237   4.686  0.1131 -0.0379 -0.1249
    1SOL     OW 9941   2.230   2.003   4.424 -0.4580  0.1714 -0.0179
    1SOL    HW2 9942   2.219   2.097   4.410 -0.6367  0.2710  0.7857
    1SOL    HW3 9943   2.143   1.972   4.448 -0.3026 -0.1255  0.1581
    1SOL    MW4 9944   2.217   2.012   4.425 -0.4611  0.1454  0.1111
    1SOL     OW 9945   3.297   0.543   4.490 -0.3856 -0.5358 -0.0081
    1SOL    HW2 9946   3.278   0.450   4.479 -0.4921 -0.4814 -0.2948
    1SOL    HW3 9947   3.223   0.576   4.543 -1.4756 -0.1883 -1.7014
    1SOL    MW4 9948   3.285   0.535   4.496 -0.5434 -0.4827 -0.2689
    1SOL     OW 9949   0.897   3.191   4.250  0.5414 -0.1347 -0.2112
    1SOL    HW2 9950   0.856   3.208   4.334  1.5767  0.1077  0.2455
    1SOL    HW3 9951   0.828   3.148   4.198 -0.4974  0.8760  0.3118
    1SOL    MW4 9952   0.882   3.188   4.254  0.5409  0.0308 -0.0820
    1SOL     OW 9953   1.378   1.113   4.163 -0.1913 -1.0850  0.1931
    1SOL    HW2 9954   1.463   1.149   4.188 -0.8242  0.3826  0.2809
    1SOL    HW3 9955   1.371   1.130   4.069 -1.6287  1.4721  0.7168
    1SOL    MW4 9956   1.388   1.120   4.154 -0.4644 -0.5538  0.2737
    1SOL     OW 9957   3.174   2.854   4.521  0.1151 -0.2661  0.0945
    1SOL    HW2 9958   3.246   2.902   4.561 -1.6635  1.9804  0.6426
    1SOL    HW3 9959   3.096   2.906   4.540 -1.6520 -2.5634 -0.6404
    1SOL    MW4 9960   3.173   2.867   4.529 -0.3526 -0.2725  0.0696
    1SOL     OW 9961   3.367   4.460   4.514 -0.3753  0.2192  0.4513
    1SOL    HW2 9962   3.288   4.514   4.516 -0.9012 -0.5598  1.2173
    1SOL    HW3 9963   3.439   4.523   4.510 -0.9862  0.9766  1.2519
    1SOL    MW4 9964   3.366   4.475   4.514 -0.5255  0.2155  0.6576
    1SOL     OW 9965   2.792   2.356   4.353  0.4594 -0.1130 -0.1439
    1SOL    HW2 9966   2.788   2.323   4.443 -0.1869  2.3278  0.7467
    1SOL    HW3 9967   2.704   2.388   4.335  0.7900  0.1340 -1.3837
    1SOL    MW4 9968   2.780   2.356   4.362  0.4179  0.2415 -0.1903
    1SOL     OW 9969   1.363   0.472   4.296  0.2183 -0.2594 -0.1910
    1SOL    HW2 9970   1.407   0.417   4.231 -0.9882  0.1319 -1.3738
    1SOL    HW3 9971   1.272   0.475   4.266 -0.6382 -1.0581  2.2009
    1SOL    MW4 9972   1.356   0.465   4.284 -0.0539 -0.3132 -0.0315
    1SOL     OW 9973   2.240   0.505   4.625  0.3703  0.0354 -0.2839
    1SOL    HW2 9974   2.240   0.582   4.568 -1.2966  0.0113 -0.3372
    1SOL    HW3 9975   2.329   0.470   4.618  0.8366  1.3573 -1.0735
    1SOL    MW4 9976   2.252   0.510   4.616  0.2120  0.2066 -0.3953
    1SOL     OW 9977   1.834   2.753   3.859  0.3112  0.1289  0.2859
    1SOL    HW2 9978   1.756   2.795   3.822  0.8417  0.3662 -0.5926
    1SOL    HW3 9979   1.829   2.663   3.829 -0.0746 -0.0732  0.9563
    1SOL    MW4 9980   1.823   2.747   3.850  0.3303  0.1335  0.2584
    1SOL     OW 9981   3.195   3.692   4.498 -0.1714  0.2837 -0.1869
    1SOL    HW2 9982   3.258   3.674   4.568  0.4202  1.1073 -0.4972
    1SOL    HW3 9983   3.119   3.638   4.519  0.3793 -0.2009  0.5645
    1SOL    MW4 9984   3.193   3.683   4.510 -0.0207  0.3283 -0.1283
    1SOL     OW 9985   1.133   2.039   4.221  0.3867  0.5199  0.3274
    1SOL    HW2 9986   1.217   1.993   4.214  0.7225  0.8727  1.8511
    1SOL    HW3 9987   1.125   2.060   4.314 -1.4440  0.4110  0.2077
    1SOL    MW4 9988   1.143   2.036   4.233  0.1895  0.5522  0.5126
    1SOL     OW 9989   3.558   3.975   4.259 -0.0807 -0.1580 -0.0541
    1SOL    HW2 9990   3.636   3.924   4.238 -0.6723 -0.6743 -1.0045
    1SOL    HW3 9991   3.486   3.931   4.213 -0.7558  0.9682 -0.1105
    1SOL    MW4 9992   3.558   3.963   4.250 -0.2480 -0.0770 -0.1869
    1SOL     OW 9993   3.226   0.692   4.260  0.1519  0.2881  0.0926
    1SOL    HW2 9994   3.262   0.643   4.334 -0.3681 -0.5345 -0.1900
    1SOL    HW3 9995   3.180   0.765   4.301 -0.8464 -0.6211  0.6435
    1SOL    MW4 9996   3.225   0.695   4.276 -0.0482  0.0596  0.1283
    1SOL     OW 9997   3.552   0.026   4.479  0.6886 -0.7219  0.3108
    1SOL    HW2 9998   3.540   0.074   4.562  0.2358 -1.2687  0.5621
    1SOL    HW3 9999   3.517   0.085   4.412  0.8715 -0.3617  0.5298
    1SOL    MW410000   3.546   0.040   4.481  0.6528 -0.7465  0.3729
    1SOL     OW10001   1.863   4.611   4.332 -0.1785 -0.2698 -0.6794
    1SOL    HW210002   1.896   4.666   4.261  1.2946  0.0093  0.1877
    1SOL    HW310003   1.772   4.594   4.309 -0.5660  2.2215 -1.1930
    1SOL    MW410004   1.856   4.616   4.320 -0.0352  0.0958 -0.6328
    1SOL     OW10005   0.635   3.860   4.155 -0.1204 -0.0878 -0.0142
    1SOL    HW210006   0.566   3.909   4.202  0.6530 -1.0874  2.2176
    1SOL    HW310007   0.716   3.903   4.181  0.3056 -0.4499 -0.7381
    1SOL    MW410008   0.636   3.872   4.165  0.0378 -0.2675  0.1850
    1SOL     OW10009   0.863   3.977   4.223  0.7057 -0.6053  0.0714
    1SOL    HW210010   0.951   3.941   4.208  0.5689 -1.1056  0.4894
    1SOL    HW310011   0.872   4.070   4.201  0.9562 -0.9669 -1.3818
    1SOL    MW410012   0.876   3.985   4.218  0.7207 -0.7188 -0.0653
    1SOL     OW10013   1.470   0.717   4.346 -0.0051  0.2249  0.0752
    1SOL    HW210014   1.442   0.626   4.332 -0.9480  0.3225  1.2023
    1SOL    HW310015   1.541   0.731   4.283  0.7903 -1.5869  0.5453
    1SOL    MW410016   1.475   0.707   4.336 -0.0247 -0.0013  0.2856
    1SOL     OW10017   1.858   0.353   4.677  0.2564  0.1043  0.6796
    1SOL    HW210018   1.898   0.415   4.738 -0.8441 -0.2156  1.7430
    1SOL    HW310019   1.792   0.404   4.629  0.2968  0.0768  0.5935
    1SOL    MW410020   1.854   0.368   4.678  0.1166  0.0584  0.8092
    1SOL     OW10021   1.946   0.116   4.128  0.2416  0.0493 -0.1503
    1SOL    HW210022   2.025   0.143   4.175  0.9132 -0.4175 -1.0012
    1SOL    HW310023   1.977   0.091   4.041 -0.6300 -1.6520  0.0092
    1SOL    MW410024   1.960   0.116   4.123  0.2153 -0.2367 -0.2413
    1SOL     OW10025   2.093   0.670   4.254  0.0208  0.3784  0.1869
    1SOL    HW210026   2.144   0.593   4.227  0.1642  0.9654 -1.2637
    1SOL    HW310027   2.010   0.633   4.285  0.3510 -0.4140  0.1411
    1SOL    MW410028   2.088   0.655   4.255  0.0837  0.3513 -0.0110
    1SOL     OW10029   1.561   4.588   4.295  0.1562  0.1500 -0.1299
    1SOL    HW210030   1.548   4.631   4.380  0.9167  0.5131 -0.1856
    1SOL    HW310031   1.525   4.500   4.307  1.1951 -0.1517  0.9081
    1SOL    MW410032   1.555   4.582   4.308  0.3934  0.1588 -0.0010
    1SOL     OW10033   1.052   0.517   4.478  0.1766  0.0218 -0.2416
    1SOL    HW210034   0.987   0.456   4.513  0.7599 -1.2706 -1.3541
    1SOL    HW310035   1.008   0.602   4.479 -0.4905 -0.3067  1.7738
    1SOL    MW410036   1.038   0.520   4.483  0.1656 -0.1920 -0.1230
    1SOL     OW10037   3.809   0.802   4.186 -0.3041  0.0802 -0.1081
    1SOL    HW210038   3.729   0.855   4.191 -0.3402  0.1638 -1.3362
    1SOL    HW310039   3.831   0.801   4.093  0.7499 -0.5121  0.1398
    1SOL    MW410040   3.801   0.809   4.174 -0.1698  0.0131 -0.2375
    1SOL     OW10041   3.812   4.635   4.423 -0.0079  0.2716  0.2045
    1SOL    HW210042   3.809   4.546   4.459 -1.4161 -0.0877 -0.7583
    1SOL    HW310043   3.726   4.672   4.446 -0.2658  0.6223 -1.3012
    1SOL    MW410044   3.800   4.628   4.431 -0.2279  0.2704 -0.1216
    1SOL     OW10045   0.863   0.309   4.599  0.1455 -0.1105  0.1854
    1SOL    HW210046   0.862   0.227   4.550  1.4260  0.3750 -0.6654
    1SOL    HW310047   0.921   0.292   4.673 -1.1245 -0.5736  1.1024
    1SOL    MW410048   0.870   0.296   4.602  0.1469 -0.1076  0.1941
    1SOL     OW10049   1.759   1.795   4.517 -0.2901  0.0189 -0.0383
    1SOL    HW210050   1.686   1.851   4.493  0.6130  0.8167 -0.9415
    1SOL    HW310051   1.779   1.746   4.437 -0.4192 -0.8622  0.4623
    1SOL    MW410052   1.752   1.796   4.503 -0.1879  0.0080 -0.0916
    1SOL     OW10053   1.839   1.383   4.748 -0.4376 -0.4963  0.3871
    1SOL    HW210054   1.778   1.457   4.754  0.2921  0.2489 -1.0846
    1SOL    HW310055   1.890   1.387   4.828  0.4156  1.3499 -0.2166
    1SOL    MW410056   1.838   1.394   4.759 -0.2286 -0.1544  0.1135
    1SOL     OW10057   1.629   1.534   4.154 -0.2542 -0.5996 -0.1494
    1SOL    HW210058   1.680   1.613   4.170 -1.3624 -0.0707  0.8560
    1SOL    HW310059   1.539   1.559   4.174 -0.5330 -2.2764  0.8167
    1SOL    MW410060   1.624   1.548   4.159 -0.4371 -0.7511  0.1111
    1SOL     OW10061   1.148   1.508   4.131 -0.2729 -0.4958 -0.1310
    1SOL    HW210062   1.142   1.422   4.173  0.9271  0.3136  1.7481
    1SOL    HW310063   1.075   1.558   4.168  1.1314  0.4044  1.4363
    1SOL    MW410064   1.138   1.503   4.141  0.0707 -0.2702  0.3233
    1SOL     OW10065   0.434   2.343   4.513 -0.0648 -0.0823  0.3087
    1SOL    HW210066   0.468   2.261   4.549  0.7705 -1.1046 -2.6580
    1SOL    HW310067   0.508   2.404   4.519  0.3536 -0.5037 -0.4057
    1SOL    MW410068   0.448   2.340   4.518  0.1006 -0.2730 -0.1774
    1SOL     OW10069   3.792   2.911   4.094  0.5214  0.1081 -0.3068
    1SOL    HW210070   3.730   2.846   4.059 -0.6091  0.1383  1.5433
    1SOL    HW310071   3.804   2.974   4.023 -1.2757 -0.1329 -0.8520
    1SOL    MW410072   3.785   2.911   4.080  0.1349  0.0801 -0.1349
    1SOL     OW10073   2.882   1.986   4.622  0.3395 -0.2275  0.5396
    1SOL    HW210074   2.798   1.959   4.585  1.2538 -3.1124  0.4632
    1SOL    HW310075   2.920   2.043   4.556 -0.8242 -0.2346 -0.1621
    1SOL    MW410076   2.876   1.990   4.609  0.3066 -0.6090  0.4368
    1SOL     OW10077   2.270   2.695   4.147  0.1048  0.5579 -0.1522
    1SOL    HW210078   2.272   2.678   4.053  0.8390 -0.4715  0.0435
    1SOL    HW310079   2.266   2.608   4.187  2.8079  0.8614  0.8501
    1SOL    MW410080   2.270   2.681   4.140  0.5586  0.4623  0.0062
    1SOL     OW10081   2.026   1.593   4.152 -0.2564 -0.2191 -0.2398
    1SOL    HW210082   2.040   1.557   4.064  0.6219 -0.9024  0.1745
    1SOL    HW310083   2.112   1.625   4.179 -0.1759 -1.4149  0.9868
    1SOL    MW410084   2.040   1.593   4.144 -0.1297 -0.4668 -0.0238
    1SOL     OW10085   2.701   1.674   4.223  0.1592 -0.2547 -0.0364
    1SOL    HW210086   2.617   1.635   4.199  0.1345  0.2904 -0.8500
    1SOL    HW310087   2.765   1.626   4.170  0.3596 -0.6684  0.5804
    1SOL    MW410088   2.698   1.662   4.213  0.1824 -0.2372 -0.0625
    1SOL     OW10089   1.393   2.693   4.142 -0.4471  0.4640 -0.0099
    1SOL    HW210090   1.312   2.714   4.188 -1.9737 -1.1547 -1.8946
    1SOL    HW310091   1.458   2.754   4.179 -2.2838  1.1811  2.1411
    1SOL    MW410092   1.391   2.704   4.153 -0.8906  0.3450  0.0253
    1SOL     OW10093   2.013   3.607   4.211  0.3985  0.1828 -0.0985
    1SOL    HW210094   1.923   3.587   4.184  0.7147 -0.6905 -0.5276
    1SOL    HW310095   2.030   3.695   4.175 -0.3278  0.4090  0.1073
    1SOL    MW410096   2.004   3.616   4.203  0.3443  0.0973 -0.1283
    1SOL     OW10097   1.187   1.500   4.812 -0.6728  0.3219 -0.2491
    1SOL    HW210098   1.200   1.536   4.900  1.0181  0.0375 -0.3647
    1SOL    HW310099   1.159   1.575   4.759 -0.3276  0.7828  0.2229
    1SOL    MW410100   1.185   1.515   4.817 -0.4042  0.3452 -0.2022
    1SOL     OW10101   2.036   3.873   4.132 -0.0417 -0.3864  0.3357
    1SOL    HW210102   2.022   3.892   4.039 -1.0365  0.8197  0.7195
    1SOL    HW310103   1.957   3.906   4.175  1.0560  0.3907  1.7876
    1SOL    MW410104   2.023   3.880   4.125 -0.0281 -0.1247  0.5779
    1SOL     OW10105   1.331   4.198   4.161  0.0315  0.5107  0.1336
    1SOL    HW210106   1.342   4.204   4.066  1.0237  2.1964  0.3324
    1SOL    HW310107   1.328   4.104   4.179  0.4826  0.1656 -1.4871
    1SOL    MW410108   1.332   4.187   4.151  0.2218  0.6876 -0.0539
    1SOL     OW10109   1.568   3.845   4.156 -0.4267  0.0723 -0.5697
    1SOL    HW210110   1.563   3.758   4.194 -0.9269  0.3579  0.0219
    1SOL    HW310111   1.644   3.886   4.198 -0.9390  0.3638  0.0711
    1SOL    MW410112   1.578   3.839   4.167 -0.5604  0.1485 -0.4067
    1SOL     OW10113   2.472   2.892   4.154  0.0504 -0.0586  0.2540
    1SOL    HW210114   2.436   2.981   4.153 -1.4221 -0.6294  0.8030
    1SOL    HW310115   2.402   2.837   4.120  1.3384 -0.8927 -1.0944
    1SOL    MW410116   2.458   2.896   4.149  0.0260 -0.2441  0.1483
    1SOL     OW10117   2.481   4.639   4.140  0.1193 -0.1654 -0.2242
    1SOL    HW210118   2.574   4.649   4.162  0.1959 -2.1813  0.4783
    1SOL    HW310119   2.436   4.694   4.203  0.6663 -1.6969  1.5394
    1SOL    MW410120   2.488   4.647   4.151  0.2017 -0.6337  0.1020
    1SOL     OW10121   4.095   1.873   4.363 -0.8110  0.5802  0.2111
    1SOL    HW210122   4.076   1.782   4.339  0.3980  0.2564  0.4290
    1SOL    HW310123   4.056   1.883   4.450  0.0759 -0.1081  0.7017
    1SOL    MW410124   4.088   1.862   4.371 -0.5345  0.4467  0.3042
    1SOL     OW10125   1.116   4.630   4.776  0.5642  0.0056 -0.0554
    1SOL    HW210126   1.094   4.629   4.869  1.7096  0.0406  0.2325
    1SOL    HW310127   1.050   4.576   4.734  0.8085 -1.0916  0.9660
    1SOL    MW410128   1.105   4.623   4.783  0.7476 -0.1345  0.1173
    1SOL     OW10129   2.413   0.897   4.138 -0.3324 -0.2708  0.2180
    1SOL    HW210130   2.414   0.875   4.045 -2.3984 -0.3307  0.1728
    1SOL    HW310131   2.502   0.881   4.168  0.4021 -0.0835 -1.7848
    1SOL    MW410132   2.425   0.892   4.130 -0.5083 -0.2540 -0.0525
    1SOL     OW10133   3.685   2.891   4.544  0.3953 -0.3066  0.3474
    1SOL    HW210134   3.742   2.814   4.551  0.7771  0.0289  0.9136
    1SOL    HW310135   3.738   2.963   4.578  0.3917  0.3892 -1.1040
    1SOL    MW410136   3.700   2.890   4.549  0.4454 -0.1705  0.2303
    1SOL     OW10137   2.082   0.888   4.056 -0.0548  0.0141  0.4300
    1SOL    HW210138   2.141   0.960   4.077  0.9489 -0.6145 -0.1863
    1SOL    HW310139   2.101   0.822   4.123 -0.2302 -0.0912  0.3738
    1SOL    MW410140   2.092   0.889   4.068  0.0546 -0.0827  0.3409
    1SOL     OW10141   0.488   2.361   4.220  0.1414  0.1575 -0.1355
    1SOL    HW210142   0.473   2.354   4.314  2.1242  0.8626  0.2565
    1SOL    HW310143   0.483   2.454   4.201 -1.5200 -0.0860 -0.9719
    1SOL    MW410144   0.485   2.372   4.230  0.1839  0.2186 -0.1941
    1SOL     OW10145   0.205   1.256   4.280 -0.0059 -0.0653  0.0996
    1SOL    HW210146   0.204   1.334   4.225 -0.4315  0.8488  1.3765
    1SOL    HW310147   0.278   1.204   4.247  0.6427  1.1430 -0.3899
    1SOL    MW410148   0.214   1.259   4.268  0.0235  0.2146  0.2036
    1SOL     OW10149   2.703   1.162   4.162  0.4629 -0.1300  0.2179
    1SOL    HW210150   2.709   1.067   4.166 -0.3883 -0.2402 -0.9416
    1SOL    HW310151   2.685   1.181   4.070  0.9804  1.1751  0.3728
    1SOL    MW410152   2.701   1.152   4.150  0.4191  0.0277  0.0858
    1SOL     OW10153   3.152   2.659   4.108 -0.4935  0.1787  0.0633
    1SOL    HW210154   3.069   2.674   4.153 -0.4824 -0.5499  0.3302
    1SOL    HW310155   3.195   2.590   4.159  1.1317  1.8958  1.0570
    1SOL    MW410156   3.147   2.652   4.120 -0.2778  0.3090  0.2298
    1SOL     OW10157   0.418   4.259   4.171  0.2913  0.4036  0.0460
    1SOL    HW210158   0.413   4.255   4.075  1.5718  0.5214 -0.0424
    1SOL    HW310159   0.334   4.296   4.199 -0.0112  0.5479 -1.0435
    1SOL    MW410160   0.406   4.263   4.162  0.4203  0.4382 -0.1092
    1SOL     OW10161   1.245   1.984   4.701  0.5560 -0.3808  0.2036
    1SOL    HW210162   1.315   2.032   4.745  0.1262  0.5909 -0.1469
    1SOL    HW310163   1.220   2.041   4.628  0.5952 -1.5207 -0.7075
    1SOL    MW410164   1.251   1.998   4.697  0.5044 -0.4030  0.0372
    1SOL     OW10165   2.657   1.891   4.506  0.4048  0.0846  0.0940
    1SOL    HW210166   2.630   1.927   4.422 -0.2827 -4.0754 -1.5977
    1SOL    HW310167   2.575   1.875   4.553  0.5224 -1.7467 -0.2978
    1SOL    MW410168   2.643   1.893   4.501  0.3295 -0.7058 -0.1802
    1SOL     OW10169   2.935   1.552   4.114 -0.2855  0.1297 -0.0531
    1SOL    HW210170   3.005   1.607   4.147  0.3322 -0.5107 -0.2780
    1SOL    HW310171   2.936   1.474   4.170 -0.4334 -0.1360 -0.4114
    1SOL    MW410172   2.945   1.549   4.126 -0.2234  0.0101 -0.1302
    1SOL     OW10173   2.732   2.696   4.695 -0.5922  0.4233  0.2731
    1SOL    HW210174   2.682   2.615   4.703 -0.6789  0.3385 -0.9418
    1SOL    HW310175   2.795   2.679   4.625 -0.8312  1.4987 -0.2318
    1SOL    MW410176   2.733   2.683   4.687 -0.6351  0.5538  0.0463
    1SOL     OW10177   0.058   2.422   4.246 -0.2016  0.0133 -0.4164
    1SOL    HW210178   0.090   2.434   4.336  1.0490  1.0169 -0.9866
    1SOL    HW310179   0.125   2.369   4.203 -1.5735 -1.8438 -0.3385
    1SOL    MW410180   0.071   2.417   4.253 -0.2176 -0.0994 -0.4816
    1SOL     OW10181   4.041   3.197   4.270  0.1439 -0.3535 -0.3425
    1SOL    HW210182   4.121   3.157   4.237 -0.0469 -0.9844 -0.0464
    1SOL    HW310183   4.025   3.271   4.211  0.5975 -0.6048 -0.7812
    1SOL    MW410184   4.049   3.201   4.258  0.1788 -0.4702 -0.3610
    1SOL     OW10185   1.829   2.705   4.146  0.3628  0.2103  0.4525
    1SOL    HW210186   1.876   2.622   4.144  0.3986  0.2549 -1.5547
    1SOL    HW310187   1.808   2.723   4.055 -0.9646  1.6698  1.0219
    1SOL    MW410188   1.833   2.697   4.134  0.1923  0.4086  0.2632
    1SOL     OW10189   0.794   2.914   4.429 -0.4001 -0.4589  0.3151
    1SOL    HW210190   0.783   2.907   4.334 -1.4374 -0.5064  0.4357
    1SOL    HW310191   0.713   2.879   4.465  0.4002 -1.3491  1.2471
    1SOL    MW410192   0.782   2.909   4.421 -0.4314 -0.5827  0.4544
    1SOL     OW10193   0.085   3.639   4.513 -0.4229 -0.7293 -0.2797
    1SOL    HW210194   0.105   3.652   4.420  1.4860 -0.2470  0.1684
    1SOL    HW310195   0.111   3.721   4.555 -1.2801 -0.9359  0.6806
    1SOL    MW410196   0.091   3.652   4.506 -0.2841 -0.6928 -0.0944
    1SOL     OW10197   2.522   3.046   4.654 -0.2187  0.4301  0.1133
    1SOL    HW210198   2.456   2.993   4.699 -0.4202 -0.9617 -1.7804
    1SOL    HW310199   2.565   2.985   4.594  1.3013  1.8316 -0.2483
    1SOL    MW410200   2.519   3.031   4.652 -0.0448  0.4315 -0.1841
    1SOL     OW10201   2.230   4.054   4.261  0.5101 -0.2154 -0.1136
    1SOL    HW210202   2.311   4.013   4.232  1.1554  0.1961  1.0807
    1SOL    HW310203   2.160   4.003   4.219  1.3858 -0.4419 -1.3063
    1SOL    MW410204   2.231   4.042   4.252  0.7107 -0.1912 -0.1130
    1SOL     OW10205   2.445   4.408   4.271  0.2633  0.4334 -0.2150
    1SOL    HW210206   2.424   4.427   4.362 -2.3923  0.7643 -0.8389
    1SOL    HW310207   2.470   4.493   4.234 -1.4833  0.8863 -0.4499
    1SOL    MW410208   2.445   4.422   4.278 -0.3176  0.5374 -0.3281
    1SOL     OW10209   2.580   0.960   4.488 -0.2604 -0.5130  0.0200
    1SOL    HW210210   2.544   0.878   4.454 -0.4130 -0.1774 -0.6299
    1SOL    HW310211   2.543   1.028   4.432 -0.5022  0.0470  0.8457
    1SOL    MW410212   2.571   0.958   4.476 -0.3123 -0.3948  0.0434
    1SOL     OW10213   2.739   4.646   4.251  0.2996  0.0581  0.1915
    1SOL    HW210214   2.738   4.738   4.277  1.1375  0.4171 -1.0198
    1SOL    HW310215   2.813   4.638   4.191 -0.2020 -1.2498 -0.2844
    1SOL    MW410216   2.749   4.657   4.246  0.3443 -0.0671 -0.0310
    1SOL     OW10217   2.221   3.738   4.605 -0.4700 -0.3177  0.1253
    1SOL    HW210218   2.200   3.831   4.606 -1.2417 -0.4985  0.8650
    1SOL    HW310219   2.153   3.699   4.551  0.0387 -0.4199 -0.4537
    1SOL    MW410220   2.210   3.745   4.598 -0.5047 -0.3552  0.1464
    1SOL     OW10221   2.708   0.472   4.098 -0.1700 -0.0723  0.6237
    1SOL    HW210222   2.625   0.493   4.141 -0.1353  0.7729  0.2963
    1SOL    HW310223   2.683   0.425   4.018 -0.2669 -1.0202  1.2090
    1SOL    MW410224   2.694   0.469   4.093 -0.1781 -0.0859  0.6585
    1SOL     OW10225   0.661   4.368   4.271 -0.2393 -0.6660  0.1364
    1SOL    HW210226   0.578   4.330   4.244 -0.7141 -0.9841  1.9685
    1SOL    HW310227   0.665   4.352   4.366  0.5612  1.8512  0.5781
    1SOL    MW410228   0.650   4.361   4.280 -0.1963 -0.3757  0.4358
    1SOL     OW10229   2.876   0.710   4.131 -0.0202  0.1442 -0.0939
    1SOL    HW210230   2.820   0.634   4.117  0.0620 -0.0145  0.4435
    1SOL    HW310231   2.894   0.743   4.043 -1.7505  0.7713 -0.2325
    1SOL    MW410232   2.871   0.704   4.117 -0.2375  0.2060 -0.0410
    1SOL     OW10233   2.365   2.720   4.423 -0.0556 -0.1008  0.2201
    1SOL    HW210234   2.349   2.728   4.329 -1.9820 -0.3306  0.5170
    1SOL    HW310235   2.352   2.628   4.443 -1.8551  0.3272  1.1022
    1SOL    MW410236   2.361   2.709   4.414 -0.5474 -0.0746  0.3753
    1SOL     OW10237   2.389   4.526   4.523 -0.1549  0.5032 -0.6168
    1SOL    HW210238   2.314   4.578   4.552  0.1618  1.0777 -0.8163
    1SOL    HW310239   2.435   4.503   4.604 -0.0433  0.9248 -0.5587
    1SOL    MW410240   2.385   4.529   4.538 -0.0982  0.6347 -0.6356
    1SOL     OW10241   2.045   3.566   4.474  0.6861  0.1992  0.1019
    1SOL    HW210242   2.007   3.590   4.390  0.7538  0.6075  0.1870
    1SOL    HW310243   2.075   3.476   4.462 -1.1258 -0.4480  0.3160
    1SOL    MW410244   2.044   3.557   4.462  0.4559  0.1678  0.1411
    1SOL     OW10245   3.563   1.134   4.605 -0.1629  0.4726 -0.2975
    1SOL    HW210246   3.530   1.219   4.576 -3.4867 -0.0343  1.7243
    1SOL    HW310247   3.584   1.147   4.697  1.2728 -0.3640 -0.5088
    1SOL    MW410248   3.561   1.147   4.613 -0.4125  0.2953 -0.0587
    1SOL     OW10249   0.166   3.881   4.652 -0.0426  0.2460  0.0226
    1SOL    HW210250   0.153   3.865   4.746  0.6228  0.4571  0.1569
    1SOL    HW310251   0.088   3.929   4.625  0.5331  1.6522  0.8392
    1SOL    MW410252   0.154   3.885   4.661  0.1212  0.4594  0.1483
    1SOL     OW10253   3.606   3.383   4.694 -0.3739 -0.5170  0.2392
    1SOL    HW210254   3.528   3.347   4.653 -0.2361  0.1398 -0.6110
    1SOL    HW310255   3.676   3.322   4.671 -0.2110  0.0762 -0.9016
    1SOL    MW410256   3.605   3.371   4.686 -0.3340 -0.3521 -0.0234
    1SOL     OW10257   2.920   2.003   3.764 -0.3290  0.1700 -0.3813
    1SOL    HW210258   2.833   1.974   3.791 -0.2103 -0.5823 -0.7769
    1SOL    HW310259   2.927   2.093   3.796 -0.6604 -0.2877  0.9971
    1SOL    MW410260   2.909   2.011   3.772 -0.3572  0.0103 -0.2515
    1SOL     OW10261   0.230   4.433   4.533  0.2305  0.1872 -0.0281
    1SOL    HW210262   0.233   4.524   4.562 -0.1262 -0.1661  1.1432
    1SOL    HW310263   0.157   4.395   4.582  0.1043 -0.6119 -0.8422
    1SOL    MW410264   0.221   4.440   4.543  0.1668  0.0353  0.0186
    1SOL     OW10265   2.409   0.748   4.381 -0.2577  0.3683 -0.1989
    1SOL    HW210266   2.386   0.805   4.307  1.2507  0.3817 -0.6735
    1SOL    HW310267   2.351   0.777   4.452 -0.3980  1.6463 -0.8120
    1SOL    MW410268   2.399   0.760   4.380 -0.0772  0.5386 -0.3424
    1SOL     OW10269   4.241   3.071   4.661  0.1936 -0.0669 -0.3068
    1SOL    HW210270   4.228   2.993   4.606  0.2881 -0.8683  0.7844
    1SOL    HW310271   4.281   3.037   4.741 -1.4501  0.8701  0.9292
    1SOL    MW410272   4.245   3.056   4.665 -0.0114 -0.0489  0.0000
    1SOL     OW10273   2.514   1.411   4.509 -0.0522  0.0460 -0.2374
    1SOL    HW210274   2.433   1.463   4.506 -1.1553 -1.6654 -0.5651
    1SOL    HW310275   2.583   1.477   4.516 -1.5902  1.4931  2.7299
    1SOL    MW410276   2.512   1.427   4.510 -0.4008  0.0110  0.1111
    1SOL     OW10277   0.333   3.379   4.409 -0.2403  0.2522 -0.0704
    1SOL    HW210278   0.401   3.384   4.476  0.8164  0.3878 -1.1208
    1SOL    HW310279   0.354   3.450   4.348  1.4940 -2.5272 -2.9241
    1SOL    MW410280   0.345   3.389   4.409  0.1279 -0.0968 -0.5851
    1SOL     OW10281   2.785   3.007   4.786  0.2335 -0.6733 -0.3001
    1SOL    HW210282   2.775   2.912   4.796 -0.4095 -0.4441  1.4844
    1SOL    HW310283   2.702   3.036   4.749 -0.0475 -0.6581  0.3332
    1SOL    MW410284   2.773   2.998   4.782  0.1113 -0.6409  0.0186
    1SOL     OW10285   2.875   3.614   4.263  0.1861 -0.0177  0.3966
    1SOL    HW210286   2.887   3.580   4.352 -2.0454  2.4699  1.7368
    1SOL    HW310287   2.906   3.705   4.268 -1.2341  0.5660 -0.9605
    1SOL    MW410288   2.880   3.622   4.276 -0.2954  0.3877  0.3943
    1SOL     OW10289   2.556   3.257   4.280  0.2311  0.2300  0.5634
    1SOL    HW210290   2.596   3.340   4.255 -0.7400  1.1386  1.9597
    1SOL    HW310291   2.631   3.201   4.303  0.9333  0.4154 -1.1950
    1SOL    MW410292   2.571   3.260   4.280  0.1955  0.3746  0.5155
    1SOL     OW10293   2.944   3.867   4.163  0.2881 -0.2920 -0.0391
    1SOL    HW210294   2.865   3.911   4.197 -0.0622  0.3394 -1.6128
    1SOL    HW310295   3.016   3.906   4.211  0.0029  2.2646 -1.6082
    1SOL    MW410296   2.943   3.878   4.174  0.2043  0.1285 -0.4535
    1SOL     OW10297   2.661   4.248   4.183  0.1506 -0.4814  0.1326
    1SOL    HW210298   2.578   4.274   4.223  0.1291  0.8564 -0.7413
    1SOL    HW310299   2.682   4.164   4.224 -1.6539 -0.8636  0.3146
    1SOL    MW410300   2.653   4.241   4.194 -0.0904 -0.3552  0.0415
    1SOL     OW10301   2.491   3.925   4.178 -0.4824  0.2027 -0.0503
    1SOL    HW210302   2.474   3.920   4.084  1.4496  0.4897 -0.4398
    1SOL    HW310303   2.461   3.841   4.212 -0.6355 -0.1477 -1.0205
    1SOL    MW410304   2.485   3.913   4.170 -0.2477  0.1945 -0.2303
    1SOL     OW10305   2.912   4.356   4.297  0.0326 -0.0117 -0.1408
    1SOL    HW210306   2.826   4.326   4.268 -0.5970  1.3000  0.2743
    1SOL    HW310307   2.973   4.290   4.267 -1.1048 -0.8323 -0.6709
    1SOL    MW410308   2.909   4.344   4.289 -0.2005  0.0529 -0.1564
    1SOL     OW10309   3.366   4.598   4.110  0.2926 -0.0518  0.0498
    1SOL    HW210310   3.461   4.589   4.110  0.2612 -0.5176  1.2966
    1SOL    HW310311   3.350   4.671   4.170 -0.1040  0.4405 -0.6531
    1SOL    MW410312   3.377   4.607   4.118  0.2360 -0.0477  0.1221
    1SOL     OW10313   1.362   1.686   4.488  0.0024  0.0978 -0.1201
    1SOL    HW210314   1.281   1.698   4.537 -0.1163 -1.8249  0.1993
    1SOL    HW310315   1.412   1.621   4.538  1.0512  0.0914 -1.1333
    1SOL    MW410316   1.358   1.679   4.501  0.1252 -0.1566 -0.2117
    1SOL     OW10317   2.771   0.250   4.281 -0.5208 -0.1584  0.0556
    1SOL    HW210318   2.742   0.319   4.222 -0.0608  0.7111  0.8407
    1SOL    HW310319   2.756   0.285   4.369  0.2856 -0.8089  0.4638
    1SOL    MW410320   2.765   0.263   4.285 -0.3538 -0.1295  0.2131
    1SOL     OW10321   3.172   0.464   4.109 -0.1243 -0.0815  0.1023
    1SOL    HW210322   3.259   0.425   4.115 -0.1669  0.0158  1.4088
    1SOL    HW310323   3.182   0.551   4.148 -0.8915 -0.1968  0.5510
    1SOL    MW410324   3.185   0.470   4.115 -0.2310 -0.0839  0.3338
    1SOL     OW10325   1.905   3.731   4.641 -0.0473 -0.2220 -0.1734
    1SOL    HW210326   1.960   3.711   4.716  2.7969  1.9799 -1.5896
    1SOL    HW310327   1.928   3.665   4.576 -0.5542 -0.5013 -0.0744
    1SOL    MW410328   1.915   3.720   4.642  0.2609  0.0317 -0.3476
    1SOL     OW10329   4.173   3.947   4.608 -0.2145 -0.0716 -0.2574
    1SOL    HW210330   4.078   3.959   4.615  0.0866  1.7731  1.2932
    1SOL    HW310331   4.184   3.857   4.580 -2.3913 -0.8225  1.1645
    1SOL    MW410332   4.162   3.937   4.605 -0.4616  0.0727  0.1345
    1SOL     OW10333   3.161   1.000   4.372 -0.2272  0.1724  0.2082
    1SOL    HW210334   3.250   0.987   4.406  0.2908  0.1601 -1.1110
    1SOL    HW310335   3.173   1.056   4.295 -1.2649 -0.5941 -0.5183
    1SOL    MW410336   3.175   1.006   4.367 -0.2959  0.0696 -0.0620
    1SOL     OW10337   2.160   0.010   4.608 -0.1621  0.1107 -0.5714
    1SOL    HW210338   2.071  -0.021   4.625  0.0534  0.9314  2.2926
    1SOL    HW310339   2.155   0.105   4.613  1.1829  0.1146  1.5291
    1SOL    MW410340   2.148   0.018   4.611  0.0436  0.2198  0.0834
    1SOL     OW10341   2.748   3.078   4.352  0.0073 -0.1506  0.7826
    1SOL    HW210342   2.698   3.001   4.377  1.1662 -0.6207  1.7103
    1SOL    HW310343   2.794   3.051   4.272  1.1834 -0.7721  1.6545
    1SOL    MW410344   2.748   3.064   4.344  0.3152 -0.2949  1.0204
    1SOL     OW10345   2.465   1.566   4.136  0.1595  0.1514 -0.2497
    1SOL    HW210346   2.395   1.631   4.145  1.0194  0.8343  1.8848
    1SOL    HW310347   2.474   1.553   4.042  0.2785  3.4683 -0.7488
    1SOL    MW410348   2.457   1.573   4.125  0.2887  0.6791 -0.0339
    1SOL     OW10349   2.481   0.358   4.506 -0.0773 -0.0692  0.3966
    1SOL    HW210350   2.575   0.361   4.525 -0.0705  0.7632  0.2449
    1SOL    HW310351   2.471   0.411   4.427 -0.7897  0.5020  0.8665
    1SOL    MW410352   2.492   0.365   4.498 -0.1705  0.1160  0.4387
    1SOL     OW10353   2.398   2.292   4.110 -0.2033  0.3746 -0.5156
    1SOL    HW210354   2.392   2.201   4.140 -0.4770  0.0187 -1.6481
    1SOL    HW310355   2.324   2.336   4.152  0.7796  0.4245  1.2225
    1SOL    MW410356   2.388   2.286   4.120 -0.1097  0.3343 -0.4354
    1SOL     OW10357   3.420   0.945   4.440  0.4701 -0.0683 -0.1439
    1SOL    HW210358   3.472   0.997   4.500  0.0764  0.4014 -0.2074
    1SOL    HW310359   3.474   0.937   4.361  0.7036 -0.1152  0.0211
    1SOL    MW410360   3.434   0.951   4.438  0.4487 -0.0125 -0.1307
    1SOL     OW10361   3.198   1.454   4.578  0.2073  0.1293  0.2171
    1SOL    HW210362   3.114   1.411   4.592  0.3966 -0.2983  0.0523
    1SOL    HW310363   3.176   1.536   4.534 -0.1445  0.1327  0.3994
    1SOL    MW410364   3.184   1.459   4.574  0.1860  0.0733  0.2189
    1SOL     OW10365   3.529   2.500   4.038  0.0777  0.2191 -0.0196
    1SOL    HW210366   3.497   2.507   4.128 -0.2971  0.9522 -0.2033
    1SOL    HW310367   3.469   2.440   3.996 -0.5959  0.9684 -0.1474
    1SOL    MW410368   3.517   2.493   4.045 -0.0606  0.4148 -0.0606
    1SOL     OW10369   2.239   4.290   4.150  0.0266 -0.1586 -0.1398
    1SOL    HW210370   2.246   4.199   4.181 -1.8745 -0.3522 -0.2215
    1SOL    HW310371   2.313   4.334   4.190  0.0443 -1.3839  1.2361
    1SOL    MW410372   2.249   4.284   4.160 -0.2220 -0.3452  0.0310
    1SOL     OW10373   3.340   3.106   4.158 -0.0186  0.3620 -0.2651
    1SOL    HW210374   3.259   3.148   4.188 -0.3981 -0.7620  0.3230
    1SOL    HW310375   3.340   3.020   4.202  1.0238 -0.0209 -0.9954
    1SOL    MW410376   3.329   3.100   4.168  0.0689  0.1631 -0.2837
    1SOL     OW10377   2.354   3.141   4.120  0.4095  0.4146  0.6557
    1SOL    HW210378   2.415   3.180   4.183  0.9810 -1.2319  1.1495
    1SOL    HW310379   2.268   3.166   4.153  0.7341  0.3426  1.5823
    1SOL    MW410380   2.351   3.149   4.133  0.5276  0.1879  0.8426
    1SOL     OW10381   3.282   3.625   4.233  0.2320 -0.1899 -0.0308
    1SOL    HW210382   3.225   3.559   4.195  0.9610 -1.1482  0.5359
    1SOL    HW310383   3.259   3.627   4.325 -0.9220  1.5180 -0.3211
    1SOL    MW410384   3.271   3.617   4.240  0.1760 -0.0908  0.0057
    1SOL     OW10385   3.523   3.494   4.155  0.1092 -0.5176 -0.0882
    1SOL    HW210386   3.525   3.414   4.209 -0.6305 -1.8068 -1.9357
    1SOL    HW310387   3.438   3.533   4.172  0.1138 -0.6038  0.1304
    1SOL    MW410388   3.512   3.489   4.165  0.0122 -0.6993 -0.3023
    1SOL     OW10389   3.309   3.862   4.117 -0.2182 -0.0707  0.3012
    1SOL    HW210390   3.320   3.775   4.155  0.7961  0.1391  0.5166
    1SOL    HW310391   3.287   3.846   4.025  0.2219 -0.5598  0.2801
    1SOL    MW410392   3.308   3.849   4.110 -0.0262 -0.1078  0.3271
    1SOL     OW10393   4.487   2.701   4.140  0.2743 -0.3528  0.4972
    1SOL    HW210394   4.418   2.750   4.183 -0.1363  0.5963 -1.2042
    1SOL    HW310395   4.485   2.615   4.182 -1.5734 -0.1606  0.8533
    1SOL    MW410396   4.478   2.696   4.151 -0.0234 -0.2022  0.3195
    1SOL     OW10397   4.449   0.871   4.286  0.1343 -0.0859  0.1409
    1SOL    HW210398   4.471   0.882   4.379  0.7184 -0.0245 -0.0018
    1SOL    HW310399   4.451   0.960   4.251  0.8441 -0.2115 -0.1344
    1SOL    MW410400   4.452   0.885   4.294  0.3047 -0.0943  0.0858
    1SOL     OW10401   3.529   4.238   4.158  0.0376 -0.4983  0.7059
    1SOL    HW210402   3.450   4.267   4.204 -0.2084  0.6943 -0.4302
    1SOL    HW310403   3.540   4.147   4.184 -1.4604 -0.5437  1.2387
    1SOL    MW410404   3.520   4.230   4.167 -0.1924 -0.3467  0.6261
    1SOL     OW10405   3.644   4.656   4.153  0.5666  0.3679  0.3998
    1SOL    HW210406   3.687   4.576   4.185 -0.7889 -0.4962  0.0919
    1SOL    HW310407   3.676   4.666   4.063  0.9655  0.3403  0.5373
    1SOL    MW410408   3.654   4.647   4.145  0.4406  0.2503  0.3777
    1SOL     OW10409   2.281   2.014   4.139 -0.2095  0.0000 -0.0541
    1SOL    HW210410   2.275   1.992   4.046 -1.0978 -0.3006  0.0670
    1SOL    HW310411   2.208   2.075   4.153 -1.1600 -1.3395  0.8313
    1SOL    MW410412   2.271   2.019   4.128 -0.4523 -0.2167  0.0792
    1SOL     OW10413   3.502   0.436   4.105 -0.1116  0.1275 -0.3291
    1SOL    HW210414   3.583   0.436   4.156 -0.5837 -1.2185  0.4481
    1SOL    HW310415   3.529   0.414   4.016  0.5648  1.2460 -0.4049
    1SOL    MW410416   3.516   0.433   4.100 -0.0846  0.0975 -0.2365
    1SOL     OW10417   3.986   0.325   4.165 -0.2804  0.0208 -0.4936
    1SOL    HW210418   4.004   0.234   4.189 -0.1935  0.5033  1.3613
    1SOL    HW310419   4.071   0.369   4.175 -0.4609  0.4314 -0.7638
    1SOL    MW410420   4.000   0.319   4.169 -0.2928  0.1386 -0.2847
    1SOL     OW10421   1.341   4.524   4.636 -0.2074  0.0116  0.5498
    1SOL    HW210422   1.276   4.570   4.688  0.2738  0.2803  0.9145
    1SOL    HW310423   1.394   4.593   4.597  0.3010 -0.2198  0.8230
    1SOL    MW410424   1.339   4.539   4.638 -0.0767  0.0167  0.6342
    1SOL     OW10425   2.392   0.114   4.362 -0.1972  0.4716  0.1691
    1SOL    HW210426   2.441   0.176   4.416  2.9195 -0.4285 -1.5052
    1SOL    HW310427   2.399   0.031   4.409 -1.5824  0.6716  0.7584
    1SOL    MW410428   2.399   0.111   4.375  0.0312  0.3792  0.0257
    1SOL     OW10429   2.052   2.187   4.188 -0.2423 -0.0864 -0.7975
    1SOL    HW210430   2.036   2.270   4.144  2.2569 -0.4138 -2.4556
    1SOL    HW310431   2.106   2.210   4.263 -1.5974  0.0626  0.1399
    1SOL    MW410432   2.057   2.201   4.192 -0.0913 -0.1101 -0.8926
    1SOL     OW10433   4.344   2.513   4.607 -0.6253 -0.0548 -0.3896
    1SOL    HW210434   4.314   2.603   4.595 -1.2996  0.0395  1.8670
    1SOL    HW310435   4.438   2.521   4.622 -0.7416  0.3202  0.1581
    1SOL    MW410436   4.353   2.526   4.607 -0.7300  0.0072 -0.0196
    1SOL     OW10437   4.178   2.272   4.103  0.2883 -0.1616  0.0161
    1SOL    HW210438   4.233   2.246   4.177  0.5617 -0.6106 -0.3526
    1SOL    HW310439   4.105   2.209   4.104  0.5581 -0.4777 -0.4132
    1SOL    MW410440   4.175   2.260   4.113  0.3605 -0.2625 -0.0887
    1SOL     OW10441   3.388   1.613   4.152  0.1472  0.1140 -0.1175
    1SOL    HW210442   3.304   1.652   4.175 -0.2575 -0.5509 -0.4375
    1SOL    HW310443   3.386   1.606   4.057  0.2180 -0.6618 -0.0689
    1SOL    MW410444   3.377   1.617   4.142  0.1032 -0.0761 -0.1535
    1SOL     OW10445   3.624   1.921   4.200 -0.2825 -0.2282  0.9361
    1SOL    HW210446   3.536   1.957   4.212 -1.1277 -1.8882 -0.1439
    1SOL    HW310447   3.627   1.846   4.260  0.4214 -0.1444  1.0088
    1SOL    MW410448   3.613   1.916   4.210 -0.3011 -0.4362  0.8035
    1SOL     OW10449   1.711   1.199   4.585  0.3116  0.1721 -0.0946
    1SOL    HW210450   1.619   1.219   4.570  0.5047  0.6718 -0.6654
    1SOL    HW310451   1.740   1.264   4.648  0.0690 -0.5101  0.7310
    1SOL    MW410452   1.703   1.210   4.591  0.3051  0.1481 -0.0610
    1SOL     OW10453   0.870   0.068   4.464  0.4821 -0.1523 -0.3017
    1SOL    HW210454   0.799   0.029   4.414  1.2613 -1.9962 -0.0226
    1SOL    HW310455   0.939   0.085   4.400  0.1439  0.8006 -0.4230
    1SOL    MW410456   0.870   0.065   4.449  0.5403 -0.2699 -0.2813
    1SOL     OW10457   3.660   2.492   4.367 -0.3288 -0.1979 -0.3931
    1SOL    HW210458   3.623   2.580   4.364 -0.2112 -0.1144  0.4664
    1SOL    HW310459   3.678   2.471   4.275  0.7050  1.1331 -0.5175
    1SOL    MW410460   3.658   2.501   4.354 -0.1769 -0.0114 -0.2956
    1SOL     OW10461   3.589   1.667   4.341 -0.2260  0.0294  0.1530
    1SOL    HW210462   3.542   1.671   4.424  0.7134 -1.8258  0.7854
    1SOL    HW310463   3.519   1.656   4.275 -0.7386 -2.3383  1.0519
    1SOL    MW410464   3.573   1.666   4.343 -0.1698 -0.5280  0.3548
    1SOL     OW10465   1.578   4.045   4.611  0.1217  0.2319  0.1703
    1SOL    HW210466   1.568   4.140   4.619  1.0323  0.4116 -0.7760
    1SOL    HW310467   1.670   4.032   4.589  0.5986 -1.0234  2.7049
    1SOL    MW410468   1.589   4.056   4.609  0.3048  0.0896  0.3796
    1SOL     OW10469   3.776   3.124   4.307 -0.0251 -0.0215  0.2043
    1SOL    HW210470   3.869   3.144   4.315 -0.2101  0.9816 -0.0573
    1SOL    HW310471   3.771   3.061   4.236  0.2415  1.6078 -1.2902
    1SOL    MW410472   3.788   3.118   4.299 -0.0145  0.3257 -0.0272
    1SOL     OW10473   3.743   4.400   4.203 -0.2183 -0.2052 -0.5091
    1SOL    HW210474   3.657   4.358   4.200 -0.1232 -0.4968  0.5902
    1SOL    HW310475   3.765   4.402   4.296  0.7833  0.2420 -0.7531
    1SOL    MW410476   3.735   4.395   4.215 -0.0734 -0.1845 -0.3967
    1SOL     OW10477   3.523   3.247   4.287  0.1205  0.2258  0.2519
    1SOL    HW210478   3.466   3.187   4.239  1.5968 -0.7986 -0.2987
    1SOL    HW310479   3.605   3.198   4.297  0.7873  1.5168  1.3265
    1SOL    MW410480   3.527   3.232   4.282  0.4032  0.2608  0.3214
    1SOL     OW10481   1.221   2.385   4.532  0.0572 -0.3581 -0.0074
    1SOL    HW210482   1.297   2.389   4.589 -0.3655  0.5885  0.4888
    1SOL    HW310483   1.258   2.375   4.444  0.7033 -1.7956  0.3995
    1SOL    MW410484   1.236   2.384   4.528  0.0867 -0.4227  0.1125
    1SOL     OW10485   4.208   2.798   4.535 -0.1862  0.3710  0.1689
    1SOL    HW210486   4.240   2.828   4.449  0.5560 -0.2813  0.2158
    1SOL    HW310487   4.114   2.785   4.522 -0.0364  0.0169 -0.6258
    1SOL    MW410488   4.200   2.800   4.522 -0.0687  0.2382  0.0706
    1SOL     OW10489   1.274   3.478   4.119 -0.3553 -0.0300  0.0897
    1SOL    HW210490   1.274   3.474   4.023 -0.5236  0.2618  0.0767
    1SOL    HW310491   1.295   3.389   4.147 -0.3757 -0.1311 -0.2188
    1SOL    MW410492   1.277   3.466   4.110 -0.3800 -0.0048  0.0472
    1SOL     OW10493   3.127   4.213   4.132 -0.1923 -0.3757  0.7005
    1SOL    HW210494   3.152   4.135   4.181 -0.5304 -0.9151  0.0085
    1SOL    HW310495   3.185   4.282   4.165  1.0301 -1.2197  0.3357
    1SOL    MW410496   3.138   4.212   4.143 -0.0753 -0.5584  0.5617
    1SOL     OW10497   0.172   1.228   4.558 -0.4376 -0.3512 -0.1601
    1SOL    HW210498   0.212   1.145   4.583  1.7201  1.0677  1.2553
    1SOL    HW310499   0.196   1.240   4.466 -1.1303 -1.4834 -0.4924
    1SOL    MW410500   0.180   1.219   4.549 -0.2443 -0.3134 -0.0172
    1SOL     OW10501   4.452   0.014   4.492  0.0570  0.6269  0.4532
    1SOL    HW210502   4.532   0.041   4.537 -0.2920  2.5004 -0.0000
    1SOL    HW310503   4.461   0.049   4.404  0.2445 -2.1032 -0.6408
    1SOL    MW410504   4.464   0.022   4.487  0.0358  0.5138  0.2499
    1SOL     OW10505   4.330   2.250   4.322 -0.1632  0.1839 -0.6561
    1SOL    HW210506   4.272   2.282   4.392 -0.9939 -2.0854 -0.2535
    1SOL    HW310507   4.390   2.323   4.306 -1.5891  1.7032  0.6208
    1SOL    MW410508   4.330   2.264   4.329 -0.4611  0.0851 -0.4349
    1SOL     OW10509   3.294   0.255   4.511  0.1534  0.4884  0.6464
    1SOL    HW210510   3.348   0.265   4.589  0.0128  0.4531  0.7480
    1SOL    HW310511   3.355   0.227   4.442  0.0001 -1.0976  1.1336
    1SOL    MW410512   3.309   0.253   4.512  0.1147  0.2745  0.7243
    1SOL     OW10513   0.771   1.495   4.695 -0.6523  0.3077  0.5571
    1SOL    HW210514   0.814   1.562   4.642 -0.8259  0.0374  0.0745
    1SOL    HW310515   0.707   1.542   4.747 -1.1184  0.4542 -0.1399
    1SOL    MW410516   0.769   1.510   4.695 -0.7368  0.2915  0.4010
    1SOL     OW10517   0.235   0.528   4.469 -0.3704 -0.5441 -0.1894
    1SOL    HW210518   0.219   0.514   4.376 -2.1598 -2.2832  0.3419
    1SOL    HW310519   0.149   0.550   4.506  0.6731  2.1750  0.7331
    1SOL    MW410520   0.222   0.529   4.462 -0.4688 -0.4148  0.0019
    1SOL     OW10521   4.045   4.468   4.699 -0.1395  0.2109  0.3812
    1SOL    HW210522   4.121   4.476   4.641  0.1216 -0.4592  0.6345
    1SOL    HW310523   4.039   4.554   4.742  0.2803  0.3684  0.1318
    1SOL    MW410524   4.054   4.481   4.697 -0.0501  0.1435  0.3815
    1SOL     OW10525   3.982   1.107   4.143 -0.1856  0.5257  0.3958
    1SOL    HW210526   3.907   1.151   4.185 -0.1587  0.5062  0.4648
    1SOL    HW310527   3.992   1.026   4.193 -1.0832 -0.1981 -0.5692
    1SOL    MW410528   3.973   1.102   4.155 -0.3004  0.4277  0.2775
    1SOL     OW10529   2.913   0.679   4.417 -0.0214  0.3036 -0.2370
    1SOL    HW210530   2.912   0.769   4.451  0.8233  0.6765 -1.1933
    1SOL    HW310531   2.920   0.689   4.322 -0.2430 -0.7697 -0.3708
    1SOL    MW410532   2.914   0.693   4.409  0.0613  0.2112 -0.3805
    1SOL     OW10533   1.037   0.914   4.688  0.0821  0.4308 -0.1857
    1SOL    HW210534   1.086   0.862   4.752  2.2938  2.7550  0.0596
    1SOL    HW310535   0.977   0.967   4.740 -0.5577 -0.1776 -0.2906
    1SOL    MW410536   1.035   0.914   4.703  0.2894  0.6571 -0.1674
    1SOL     OW10537   1.814   0.578   4.275  0.1501 -0.0946  0.1373
    1SOL    HW210538   1.762   0.638   4.222  1.9486  1.5387  0.1497
    1SOL    HW310539   1.770   0.575   4.360 -0.8040 -0.0014 -0.3526
    1SOL    MW410540   1.801   0.585   4.279  0.2614  0.1332  0.0749
    1SOL     OW10541   1.108   4.097   4.543  0.1475  0.2066 -0.5462
    1SOL    HW210542   1.118   4.191   4.528  1.2132  0.2676  0.4317
    1SOL    HW310543   1.014   4.082   4.537  0.0703  1.1424 -1.7982
    1SOL    MW410544   1.097   4.108   4.540  0.2781  0.3381 -0.5827
    1SOL     OW10545   3.726   0.389   4.280 -0.3223 -0.5126 -0.1940
    1SOL    HW210546   3.764   0.472   4.310 -0.1406 -0.5485 -0.3255
    1SOL    HW310547   3.793   0.351   4.223 -0.4312 -0.7213 -0.1819
    1SOL    MW410548   3.740   0.395   4.276 -0.3130 -0.5449 -0.2093
    1SOL     OW10549   3.775   2.151   4.275  0.4201  0.5741  0.1912
    1SOL    HW210550   3.812   2.132   4.361  2.1011  0.3663 -0.5513
    1SOL    HW310551   3.728   2.070   4.251 -0.4505  0.7984  1.0873
    1SOL    MW410552   3.773   2.138   4.283  0.5271  0.5763  0.2117
    1SOL     OW10553   3.995   3.448   4.171 -0.5619  0.0727 -0.2446
    1SOL    HW210554   4.001   3.463   4.077 -1.2662  0.2049 -0.2711
    1SOL    HW310555   4.059   3.508   4.209 -1.4531  1.2111 -0.5298
    1SOL    MW410556   4.004   3.458   4.164 -0.7725  0.2403 -0.2856
    1SOL     OW10557   4.032   2.521   4.090 -0.4141  0.7044 -0.5571
    1SOL    HW210558   3.946   2.479   4.101 -0.7571  1.7086  0.7792
    1SOL    HW310559   4.095   2.454   4.115 -0.8037 -0.0289 -1.5071
    1SOL    MW410560   4.029   2.507   4.095 -0.5107  0.7403 -0.5064
    1SOL     OW10561   1.339   3.309   4.489 -0.0436  0.1150 -0.1462
    1SOL    HW210562   1.355   3.403   4.490 -2.8726  0.6300 -0.5504
    1SOL    HW310563   1.402   3.273   4.552  1.6383  2.1643 -0.6397
    1SOL    MW410564   1.349   3.317   4.498 -0.1949  0.4535 -0.2646
    1SOL     OW10565   3.637   0.407   4.561  0.1548  0.2845  0.0778
    1SOL    HW210566   3.680   0.398   4.476 -1.2999  0.7058 -0.7249
    1SOL    HW310567   3.607   0.498   4.563 -1.5332 -0.2442  0.1941
    1SOL    MW410568   3.638   0.418   4.550 -0.2599  0.2703 -0.0134
    1SOL     OW10569   3.774   3.566   4.293 -0.0951  0.2673 -0.1293
    1SOL    HW210570   3.691   3.534   4.257  0.3244 -1.8620  0.6676
    1SOL    HW310571   3.841   3.524   4.239  0.4682  1.5763 -0.4546
    1SOL    MW410572   3.772   3.556   4.281  0.0346  0.1590 -0.0677
    1SOL     OW10573   2.069   1.399   4.345 -0.0892 -0.1815  0.0007
    1SOL    HW210574   2.033   1.464   4.285  0.8991 -0.3645 -0.8073
    1SOL    HW310575   2.153   1.374   4.306  0.8808  0.1721  1.7785
    1SOL    MW410576   2.075   1.404   4.332  0.1693 -0.1590  0.1292
    1SOL     OW10577   4.238   3.613   4.245  0.7440  0.3401  0.3015
    1SOL    HW210578   4.306   3.547   4.229 -1.4562 -1.8793 -0.1070
    1SOL    HW310579   4.241   3.628   4.339  1.4508 -0.0994  0.3536
    1SOL    MW410580   4.247   3.606   4.255  0.5469 -0.0110  0.2546
    1SOL     OW10581   0.411   3.998   4.274 -0.0442  0.1772 -0.3605
    1SOL    HW210582   0.425   4.087   4.242  0.7613 -0.1250 -0.8576
    1SOL    HW310583   0.375   4.009   4.362 -1.7226  1.0068 -1.1356
    1SOL    MW410584   0.408   4.011   4.282 -0.1594  0.2470 -0.5279
    1SOL     OW10585   1.112   0.228   4.699  0.1073 -0.2533  0.3474
    1SOL    HW210586   1.108   0.133   4.714 -1.3964 -0.3160 -0.3562
    1SOL    HW310587   1.157   0.236   4.615 -1.0858 -0.4267 -0.3183
    1SOL    MW410588   1.118   0.216   4.690 -0.2486 -0.2844  0.1664
    1SOL     OW10589   3.794   3.833   4.178 -0.2666  0.4107 -0.6370
    1SOL    HW210590   3.863   3.888   4.214 -0.3898  0.5733 -0.6490
    1SOL    HW310591   3.790   3.757   4.237 -0.3937  0.6223 -0.3740
    1SOL    MW410592   3.803   3.830   4.190 -0.2995  0.4601 -0.6037
    1SOL     OW10593   2.868   0.003   4.520 -0.1176  0.0617  0.2441
    1SOL    HW210594   2.827  -0.014   4.435 -1.3643  0.4599  0.7419
    1SOL    HW310595   2.864  -0.081   4.566 -2.3944  0.5969  1.1021
    1SOL    MW410596   2.862  -0.010   4.515 -0.5825  0.1845  0.4230
    1SOL     OW10597   3.933   2.740   4.488  0.1536  0.4544  0.0422
    1SOL    HW210598   3.942   2.773   4.399 -1.4336  0.5604 -0.0936
    1SOL    HW310599   3.924   2.645   4.478  2.6924  0.1625  0.2927
    1SOL    MW410600   3.933   2.732   4.475  0.2792  0.4299  0.0572
    1SOL     OW10601   2.327   1.628   4.491  0.1177 -0.6891  0.1898
    1SOL    HW210602   2.352   1.710   4.533 -0.4965  0.0942 -0.9333
    1SOL    HW310603   2.242   1.606   4.530 -0.0986 -0.3553 -0.0847
    1SOL    MW410604   2.319   1.636   4.501  0.0083 -0.5417  0.0057
    1SOL     OW10605   4.351   1.966   4.318 -0.5859  0.0758  0.0448
    1SOL    HW210606   4.327   2.058   4.315 -1.4653 -0.0878  1.3082
    1SOL    HW310607   4.270   1.921   4.343 -0.4878 -1.1778 -1.8362
    1SOL    MW410608   4.337   1.972   4.321 -0.6890 -0.1111 -0.0362
    1SOL     OW10609   4.015   0.084   4.287  0.1333 -0.2742 -0.3126
    1SOL    HW210610   4.076   0.083   4.361  0.4686 -0.2692 -0.5857
    1SOL    HW310611   3.943   0.027   4.314  0.0560  0.0525  0.1809
    1SOL    MW410612   4.014   0.076   4.300  0.1674 -0.2305 -0.2842
    1SOL     OW10613   1.014   2.760   4.498  0.1145  0.1785  0.2526
    1SOL    HW210614   0.986   2.668   4.506  1.6817 -0.3843 -0.5776
    1SOL    HW310615   0.933   2.808   4.479 -1.0223 -0.7489  2.5796
    1SOL    MW410616   1.000   2.754   4.496  0.1713 -0.0179  0.4501
    1SOL     OW10617   1.722   0.558   4.536  0.1269 -0.2138 -0.2821
    1SOL    HW210618   1.646   0.583   4.589 -0.6082 -0.9577 -0.9570
    1SOL    HW310619   1.785   0.630   4.548 -0.6351  0.3540  0.3770
    1SOL    MW410620   1.720   0.571   4.545 -0.0708 -0.2370 -0.2837
    1SOL     OW10621   1.670   2.953   4.690 -0.0318 -0.3359 -0.2939
    1SOL    HW210622   1.723   2.995   4.622 -0.7534  0.8835 -0.1279
    1SOL    HW310623   1.733   2.904   4.743  0.6785 -0.4048 -1.1899
    1SOL    MW410624   1.685   2.952   4.688 -0.0333 -0.1841 -0.3905
    1SOL     OW10625   0.226   1.495   4.128  0.0233  0.0512 -0.3749
    1SOL    HW210626   0.153   1.545   4.164  0.0256  0.5968 -1.1196
    1SOL    HW310627   0.304   1.535   4.165 -0.1182 -1.7107  1.8944
    1SOL    MW410628   0.227   1.507   4.137  0.0049 -0.1092 -0.1740
    1SOL     OW10629   3.903   4.018   4.589  0.1322 -0.1077 -0.4316
    1SOL    HW210630   3.892   4.093   4.647  0.7971  0.6103 -1.2112
    1SOL    HW310631   3.839   3.954   4.620 -1.9342  1.5851 -1.0647
    1SOL    MW410632   3.893   4.020   4.601 -0.0525  0.2108 -0.6180
    1SOL     OW10633   0.374   1.682   4.509  0.2470  0.4866 -0.2283
    1SOL    HW210634   0.396   1.659   4.418 -2.3761  0.3240 -0.8528
    1SOL    HW310635   0.381   1.600   4.557  2.2514  0.6863 -0.1233
    1SOL    MW410636   0.378   1.668   4.503  0.1654  0.4915 -0.2971
    1SOL     OW10637   0.590   1.277   4.549  0.2306 -0.1618  0.0046
    1SOL    HW210638   0.591   1.186   4.575  0.2962  0.0090  0.6023
    1SOL    HW310639   0.656   1.319   4.603 -0.6670  0.4750  0.6308
    1SOL    MW410640   0.599   1.271   4.559  0.1209 -0.0552  0.1664
    1SOL     OW10641   0.006   1.878   4.115 -0.4771  0.5610 -0.1637
    1SOL    HW210642   0.024   1.791   4.151  0.0504  0.5603 -0.4309
    1SOL    HW310643  -0.045   1.922   4.183  1.2829  0.8808  0.9750
    1SOL    MW410644   0.001   1.872   4.129 -0.1753  0.6031 -0.0486
    1SOL     OW10645   2.233   4.010   4.540 -0.4053  0.5465  0.2623
    1SOL    HW210646   2.245   4.011   4.445 -0.7071  1.0174  0.2296
    1SOL    HW310647   2.173   4.082   4.558 -1.7252 -0.6230  0.6353
    1SOL    MW410648   2.227   4.020   4.530 -0.6196  0.4539  0.3071
    1SOL     OW10649   3.510   0.214   4.696 -0.3920 -0.2001 -0.1893
    1SOL    HW210650   3.536   0.222   4.788 -0.2824 -1.1931 -0.1303
    1SOL    HW310651   3.554   0.286   4.652 -0.0151 -0.0379  0.4482
    1SOL    MW410652   3.519   0.224   4.702 -0.3278 -0.3097 -0.0982
    1SOL     OW10653   0.418   3.528   4.161  0.2807 -0.2462 -0.5004
    1SOL    HW210654   0.510   3.542   4.183  0.8559  0.2576 -3.0981
    1SOL    HW310655   0.418   3.509   4.067 -2.2166 -0.8231 -0.4240
    1SOL    MW410656   0.430   3.527   4.152  0.0271 -0.2561 -0.8330
    1SOL     OW10657   2.947   1.715   4.664  0.0648  0.1223 -0.0695
    1SOL    HW210658   2.959   1.685   4.754 -1.7421 -1.1736 -0.2254
    1SOL    HW310659   2.934   1.809   4.672 -1.1379 -0.1233  1.1737
    1SOL    MW410660   2.947   1.723   4.677 -0.3324 -0.0812  0.0739
    1SOL     OW10661   4.195   0.138   4.498  0.2701 -0.1119 -0.0070
    1SOL    HW210662   4.281   0.095   4.504  0.3478 -0.1391 -1.2004
    1SOL    HW310663   4.146   0.103   4.572  0.4761 -1.9682 -0.7164
    1SOL    MW410664   4.200   0.128   4.509  0.3076 -0.3604 -0.2584
    1SOL     OW10665   3.544   0.702   4.508 -0.5107 -0.0419  0.0899
    1SOL    HW210666   3.461   0.656   4.501 -0.7208  0.2250  0.8441
    1SOL    HW310667   3.524   0.793   4.485 -0.3347 -0.0686 -0.1778
    1SOL    MW410668   3.531   0.708   4.504 -0.5150 -0.0102  0.1545
    1SOL     OW10669   0.997   1.323   4.734  0.5510 -0.3277  0.0907
    1SOL    HW210670   0.929   1.389   4.724  0.8707  0.1462  1.0124
    1SOL    HW310671   1.075   1.372   4.761  0.8742 -1.0438  0.4835
    1SOL    MW410672   0.999   1.338   4.736  0.6359 -0.3597  0.2646
    1SOL     OW10673   0.176   3.899   4.153  0.1281 -0.1436 -0.0573
    1SOL    HW210674   0.265   3.919   4.184  0.0401  1.7217 -0.9538
    1SOL    HW310675   0.120   3.956   4.205 -0.5526 -1.2046  0.3920
    1SOL    MW410676   0.180   3.909   4.164  0.0267 -0.0374 -0.1163
    1SOL     OW10677   1.907   0.733   4.647 -0.1685  0.0456  0.3830
    1SOL    HW210678   1.857   0.813   4.664 -0.4312 -0.1645  0.6138
    1SOL    HW310679   1.924   0.696   4.734  1.0303  0.4995  0.3516
    1SOL    MW410680   1.903   0.739   4.661 -0.0451  0.0778  0.4096
    1SOL     OW10681   1.832   4.339   4.667 -0.1353 -0.3691  0.3321
    1SOL    HW210682   1.850   4.433   4.663  0.7091 -0.5556 -0.2984
    1SOL    HW310683   1.746   4.329   4.626  0.5408 -0.0820 -1.1830
    1SOL    MW410684   1.823   4.350   4.661  0.0652 -0.3557  0.0491
    1SOL     OW10685   4.075   3.545   4.581 -0.0502  0.4046  0.6655
    1SOL    HW210686   3.980   3.559   4.579 -0.4866 -2.3590 -1.7710
    1SOL    HW310687   4.085   3.455   4.611  1.9559  1.3683  3.0862
    1SOL    MW410688   4.064   3.535   4.585  0.1569  0.1674  0.6633
    1SOL     OW10689   0.619   0.446   4.560 -0.3322  0.3671  0.6196
    1SOL    HW210690   0.692   0.391   4.587 -0.0134  0.5108  0.0503
    1SOL    HW310691   0.544   0.386   4.558  0.3424 -0.4501 -1.6726
    1SOL    MW410692   0.619   0.431   4.563 -0.2012  0.2782  0.2422
    1SOL     OW10693   0.382   1.427   4.667  0.0539  0.0455  0.0105
    1SOL    HW210694   0.303   1.378   4.644  0.2788  0.5915 -1.9992
    1SOL    HW310695   0.453   1.379   4.623  0.3145  1.9591 -1.7092
    1SOL    MW410696   0.381   1.414   4.658  0.1180  0.3700 -0.4811
    1SOL     OW10697   4.278   1.515   4.141 -0.2887 -0.7631 -0.5434
    1SOL    HW210698   4.292   1.422   4.161  1.4245 -0.8124 -1.8241
    1SOL    HW310699   4.275   1.519   4.045 -0.6142  0.4720 -0.4942
    1SOL    MW410700   4.279   1.503   4.131 -0.1059 -0.6065 -0.7057
    1SOL     OW10701   2.931   1.315   4.254 -0.4703 -0.0516 -0.0973
    1SOL    HW210702   2.867   1.245   4.241 -1.0482  0.6568 -1.1582
    1SOL    HW310703   2.945   1.318   4.349 -0.7697 -1.3021 -0.0052
    1SOL    MW410704   2.924   1.306   4.265 -0.5863 -0.1230 -0.2246
    1SOL     OW10705   3.763   3.165   4.587  0.4845 -0.4923 -0.5182
    1SOL    HW210706   3.733   3.151   4.497  0.4755 -2.0682 -0.2940
    1SOL    HW310707   3.856   3.189   4.578  1.0497 -2.6918 -0.8649
    1SOL    MW410708   3.772   3.166   4.574  0.5579 -0.9904 -0.5345
    1SOL     OW10709   3.822   2.145   4.580 -0.0419  0.2011  0.2477
    1SOL    HW210710   3.739   2.135   4.626 -0.8728 -0.1948 -1.3083
    1SOL    HW310711   3.880   2.082   4.621 -0.9929 -0.6689  0.2694
    1SOL    MW410712   3.819   2.136   4.591 -0.2770  0.0341  0.0448
    1SOL     OW10713   4.191   1.508   4.542 -0.1892 -0.2001  0.2382
    1SOL    HW210714   4.147   1.552   4.615 -0.3016 -0.5162  0.3601
    1SOL    HW310715   4.275   1.481   4.578 -0.3767 -0.6415  0.3414
    1SOL    MW410716   4.196   1.511   4.557 -0.2289 -0.3000  0.2670
    1SOL     OW10717   1.996   4.330   4.287 -0.1726 -0.1288 -0.2843
    1SOL    HW210718   1.988   4.424   4.305  1.1174 -0.0934  0.1750
    1SOL    HW310719   2.086   4.319   4.256 -0.1332 -1.2979  0.2109
    1SOL    MW410720   2.007   4.341   4.285  0.0029 -0.2785 -0.1583
    1SOL     OW10721   3.168   4.658   4.522 -0.2160 -0.4332  0.1815
    1SOL    HW210722   3.076   4.657   4.547  0.0656  0.7186  1.3387
    1SOL    HW310723   3.196   4.748   4.541  1.3480 -1.0052  0.5939
    1SOL    MW410724   3.160   4.670   4.528  0.0277 -0.3568  0.3891
    1SOL     OW10725   2.434   2.135   4.745  0.3178 -0.2865 -0.1095
    1SOL    HW210726   2.338   2.144   4.745  0.2916 -0.5804  0.2206
    1SOL    HW310727   2.450   2.041   4.746  0.6077 -0.2377  0.7396
    1SOL    MW410728   2.423   2.124   4.745  0.3521 -0.3188  0.0458
    1SOL     OW10729   1.100   0.493   4.205 -0.1061 -0.0308  0.3119
    1SOL    HW210730   1.083   0.511   4.298 -3.0936  1.4908 -0.4686
    1SOL    HW310731   1.110   0.580   4.165  2.0770 -0.6915 -0.6878
    1SOL    MW410732   1.099   0.507   4.212 -0.2123  0.0828  0.0772
    1SOL     OW10733   0.379   0.800   4.476  0.0548  0.0305  0.5317
    1SOL    HW210734   0.328   0.720   4.489 -2.3038  1.0713 -1.8990
    1SOL    HW310735   0.384   0.810   4.381  0.0808  2.9045  0.8010
    1SOL    MW410736   0.373   0.791   4.465 -0.2529  0.5470  0.2465
    1SOL     OW10737   0.681   0.482   4.275 -0.2229  0.6502 -0.2444
    1SOL    HW210738   0.661   0.483   4.369  0.8065  1.3381 -0.0266
    1SOL    HW310739   0.663   0.572   4.246 -0.5465  0.4359 -0.7089
    1SOL    MW410740   0.676   0.494   4.283 -0.1298  0.7127 -0.2766
    1SOL     OW10741   0.944   2.497   4.482 -0.3809 -0.0223 -0.2809
    1SOL    HW210742   1.019   2.464   4.531 -1.8819 -1.5904  1.0483
    1SOL    HW310743   0.943   2.445   4.402 -0.6869 -0.7572  0.1998
    1SOL    MW410744   0.954   2.486   4.478 -0.6194 -0.3262 -0.0420
    1SOL     OW10745   1.064   3.576   4.254 -0.2084  0.0290 -0.4379
    1SOL    HW210746   1.140   3.537   4.211  0.2693  0.1029  0.3218
    1SOL    HW310747   0.989   3.530   4.217  0.1917  0.0673 -1.3220
    1SOL    MW410748   1.064   3.565   4.243 -0.0927  0.0436 -0.4544
    1SOL     OW10749   3.116   3.244   4.279 -0.1893  0.0169 -0.0052
    1SOL    HW210750   3.082   3.328   4.248  0.6033  0.8039  1.2195
    1SOL    HW310751   3.113   3.251   4.375 -0.1052 -1.3475  0.1040
    1SOL    MW410752   3.111   3.256   4.288 -0.0737 -0.0594  0.1712
    1SOL     OW10753   3.506   2.274   4.476  0.2317  0.7798 -0.3156
    1SOL    HW210754   3.560   2.346   4.444  0.2657  1.4531  1.2179
    1SOL    HW310755   3.555   2.238   4.550 -0.2063 -0.2653 -0.5159
    1SOL    MW410756   3.520   2.279   4.482  0.1783  0.7308 -0.1392
    1SOL     OW10757   0.670   1.235   4.287  0.6173 -0.1476  0.4527
    1SOL    HW210758   0.642   1.267   4.373  0.4509 -3.1371  1.5914
    1SOL    HW310759   0.590   1.198   4.249  0.8019  0.7092 -0.7735
    1SOL    MW410760   0.656   1.234   4.293  0.6196 -0.4289  0.4411
    1SOL     OW10761   1.537   2.058   4.274 -0.0296  0.2263  0.0343
    1SOL    HW210762   1.631   2.062   4.255  0.1095 -1.8272  0.1816
    1SOL    HW310763   1.532   2.016   4.360 -1.1216 -0.5380 -0.3982
    1SOL    MW410764   1.549   2.053   4.283 -0.1554 -0.1459 -0.0033
    1SOL     OW10765   1.255   2.930   4.566 -0.0878 -0.3968 -0.1609
    1SOL    HW210766   1.220   3.000   4.620 -0.1094 -1.3413  1.0756
    1SOL    HW310767   1.178   2.882   4.535 -0.0292 -0.4475 -0.2298
    1SOL    MW410768   1.240   2.933   4.569 -0.0829 -0.5281 -0.0072
    1SOL     OW10769   1.447   3.499   4.793  0.2554 -0.0327 -0.2564
    1SOL    HW210770   1.525   3.554   4.783 -0.0427  0.2207 -1.2132
    1SOL    HW310771   1.476   3.411   4.767  0.4584 -0.1339  0.2895
    1SOL    MW410772   1.462   3.495   4.788  0.2429 -0.0126 -0.3109
    1SOL     OW10773   4.437   3.437   4.159 -0.2633 -0.5280  0.1410
    1SOL    HW210774   4.509   3.489   4.194 -1.8155  1.3076  0.6786
    1SOL    HW310775   4.445   3.445   4.064  1.0893 -1.5273  0.1648
    1SOL    MW410776   4.447   3.445   4.151 -0.2894 -0.4177  0.2146
    1SOL     OW10777   3.484   1.868   4.672 -0.5754  0.2177 -0.3032
    1SOL    HW210778   3.504   1.775   4.665 -0.8815  0.1366 -0.0815
    1SOL    HW310779   3.407   1.881   4.617 -0.3850  0.3834 -0.5273
    1SOL    MW410780   3.477   1.858   4.664 -0.5903  0.2289 -0.3037
    1SOL     OW10781   4.291   3.697   4.516 -0.0303 -0.1862 -0.4990
    1SOL    HW210782   4.226   3.632   4.541  1.2454 -2.4231 -2.7661
    1SOL    HW310783   4.373   3.663   4.550  0.3922  1.1770 -0.1252
    1SOL    MW410784   4.293   3.684   4.524  0.1941 -0.3016 -0.7491
    1SOL     OW10785   2.430   3.300   4.535  0.2691  0.5458  0.0426
    1SOL    HW210786   2.466   3.271   4.452  1.0834  0.8696  0.2846
    1SOL    HW310787   2.464   3.238   4.599 -0.5670  0.1387  0.1052
    1SOL    MW410788   2.439   3.288   4.533  0.2663  0.5348  0.0830
    1SOL     OW10789   0.249   0.989   4.665  0.0481  0.2382  0.1366
    1SOL    HW210790   0.306   0.935   4.610  0.1652  0.4953  0.0095
    1SOL    HW310791   0.307   1.027   4.730  0.1883  1.2830 -0.5826
    1SOL    MW410792   0.264   0.987   4.666  0.0820  0.4100  0.0248
    1SOL     OW10793   2.765   1.569   4.488  0.1700  0.1848  0.0773
    1SOL    HW210794   2.824   1.631   4.530 -0.0595  0.2388  0.3190
    1SOL    HW310795   2.741   1.611   4.405 -0.3769  0.6443  0.4625
    1SOL    MW410796   2.770   1.583   4.482  0.0675  0.2525  0.1602
    1SOL     OW10797   1.508   3.586   4.237 -0.3848  0.0092  0.2253
    1SOL    HW210798   1.432   3.569   4.183  0.3197 -0.6138 -0.5731
    1SOL    HW310799   1.474   3.587   4.327 -1.4787  0.6456 -0.1911
    1SOL    MW410800   1.494   3.584   4.242 -0.4361  0.0110  0.0648
    1SOL     OW10801   3.151   4.004   4.300  0.6959  0.0211  0.6869
    1SOL    HW210802   3.223   3.963   4.253  0.8510 -1.2238  1.9547
    1SOL    HW310803   3.171   3.988   4.392 -1.0773 -0.1273  1.0638
    1SOL    MW410804   3.164   3.997   4.306  0.4821 -0.1628  0.9036
    1SOL     OW10805   0.229   1.985   4.263 -0.0934 -0.2693 -0.8080
    1SOL    HW210806   0.158   1.951   4.208 -0.2003 -0.4184 -0.5784
    1SOL    HW310807   0.308   1.941   4.231 -0.0960 -0.0756 -1.0884
    1SOL    MW410808   0.230   1.975   4.252 -0.1078 -0.2635 -0.8144
    1SOL     OW10809   1.969   1.959   4.499 -0.3570 -0.1706  0.2360
    1SOL    HW210810   1.944   2.051   4.491 -0.3530 -0.1434  0.5389
    1SOL    HW310811   1.887   1.912   4.508 -0.4051 -0.2781 -0.6900
    1SOL    MW410812   1.955   1.965   4.499 -0.3629 -0.1812  0.1540
    1SOL     OW10813   2.716   3.611   4.656  0.7319 -0.5235  0.7229
    1SOL    HW210814   2.622   3.616   4.638  0.8639  0.4565  0.2653
    1SOL    HW310815   2.722   3.568   4.741 -0.1983  0.5562  1.3478
    1SOL    MW410816   2.705   3.606   4.665  0.6266 -0.2515  0.7453
    1SOL     OW10817   0.698   3.606   4.565  0.1650  0.4319 -0.2099
    1SOL    HW210818   0.670   3.602   4.474  0.9741  0.3796 -0.4643
    1SOL    HW310819   0.792   3.585   4.562  0.2303  0.5838  0.6132
    1SOL    MW410820   0.707   3.603   4.553  0.2804  0.4449 -0.1354
    1SOL     OW10821   1.802   3.206   4.218  0.6451  0.1619  0.3649
    1SOL    HW210822   1.734   3.152   4.177 -0.4465  0.7402  1.3857
    1SOL    HW310823   1.779   3.296   4.193  0.7308  0.4014  1.1326
    1SOL    MW410824   1.790   3.211   4.209  0.5124  0.2699  0.6013
    1SOL     OW10825   2.965   2.289   4.123 -0.5922  0.0721 -0.3370
    1SOL    HW210826   2.886   2.339   4.145  0.5380  1.2987  1.0549
    1SOL    HW310827   2.961   2.279   4.028 -1.8326  1.1152 -0.4139
    1SOL    MW410828   2.954   2.294   4.113 -0.6065  0.3717 -0.1636
    1SOL     OW10829   2.753   3.934   4.556  0.6235 -0.2361  0.1142
    1SOL    HW210830   2.756   3.847   4.596  1.0828 -0.8705 -1.2726
    1SOL    HW310831   2.825   3.982   4.598  0.0439 -0.3600  1.2480
    1SOL    MW410832   2.763   3.929   4.567  0.6075 -0.3362  0.0806
    1SOL     OW10833   1.481   0.079   4.517 -0.0051 -0.0729  0.0843
    1SOL    HW210834   1.532   0.105   4.594 -1.0724  0.7332  0.5189
    1SOL    HW310835   1.418   0.150   4.504 -0.6200 -0.7748 -0.8229
    1SOL    MW410836   1.480   0.092   4.526 -0.2270 -0.0591  0.0219
    1SOL     OW10837   4.483   1.904   4.602 -0.4419 -0.6975 -0.2087
    1SOL    HW210838   4.465   1.917   4.509 -0.5362  1.9694  0.1430
    1SOL    HW310839   4.574   1.932   4.613 -0.6895 -0.1726  0.6288
    1SOL    MW410840   4.493   1.910   4.591 -0.4870 -0.2763 -0.0520
    1SOL     OW10841   3.407   3.239   4.549  0.1790  0.2077  0.1533
    1SOL    HW210842   3.406   3.144   4.559  1.8480  0.1244 -0.3444
    1SOL    HW310843   3.439   3.254   4.460 -0.4438  1.2272  0.0851
    1SOL    MW410844   3.411   3.229   4.539  0.3173  0.3312  0.0787
    1SOL     OW10845   1.777   1.756   4.224 -0.4766  0.0652  0.2454
    1SOL    HW210846   1.850   1.718   4.175 -0.5110 -0.8115  0.8649
    1SOL    HW310847   1.787   1.851   4.212  1.1693 -0.0193  0.8901
    1SOL    MW410848   1.788   1.764   4.216 -0.2639 -0.0616  0.4120
    1SOL     OW10849   1.596   1.258   4.244  0.4651 -0.2248 -0.4216
    1SOL    HW210850   1.685   1.231   4.270  0.6869  0.5717 -0.3628
    1SOL    HW310851   1.607   1.345   4.207 -0.4598  0.3718  0.6792
    1SOL    MW410852   1.609   1.266   4.243  0.3724 -0.0410 -0.2689
    1SOL     OW10853   3.418   2.962   4.619 -0.4932  0.1207  0.3236
    1SOL    HW210854   3.403   2.938   4.711  1.9996  1.1378  1.0220
    1SOL    HW310855   3.507   2.933   4.601 -0.8655  0.1687 -1.7232
    1SOL    MW410856   3.428   2.955   4.629 -0.2134  0.2611  0.1459
    1SOL     OW10857   0.920   0.753   4.501  0.1744 -0.1983 -0.1175
    1SOL    HW210858   0.831   0.744   4.537  0.5907  0.8693  1.1983
    1SOL    HW310859   0.965   0.811   4.562  1.9477 -1.1456 -0.4941
    1SOL    MW410860   0.914   0.759   4.514  0.4633 -0.1824  0.0062
    1SOL     OW10861   2.244   2.878   4.625 -0.0092  0.3349 -0.1584
    1SOL    HW210862   2.203   2.826   4.695 -0.1604  0.4500 -0.1589
    1SOL    HW310863   2.285   2.814   4.568 -0.5861  0.1842 -0.4110
    1SOL    MW410864   2.244   2.863   4.627 -0.1054  0.3302 -0.1912
    1SOL     OW10865   4.010   1.644   4.725  0.2018 -0.4471  0.2245
    1SOL    HW210866   3.953   1.642   4.802  0.1813  2.2520  0.3427
    1SOL    HW310867   3.954   1.615   4.653 -0.9326  0.8179  0.5796
    1SOL    MW410868   3.995   1.640   4.726  0.0498  0.0759  0.2866
    1SOL     OW10869   1.551   2.452   4.175 -0.4015  0.0708 -0.1266
    1SOL    HW210870   1.522   2.541   4.153 -0.4104  0.3551  1.0210
    1SOL    HW310871   1.617   2.465   4.243 -0.7556 -0.8225  0.3941
    1SOL    MW410872   1.556   2.466   4.181 -0.4494 -0.0098  0.0935
    1SOL     OW10873   1.478   1.504   4.669  0.3363 -0.1840  0.1289
    1SOL    HW210874   1.406   1.467   4.720  1.0913 -0.9673  0.6361
    1SOL    HW310875   1.494   1.439   4.600 -0.4124  0.6785 -0.8811
    1SOL    MW410876   1.471   1.491   4.667  0.3371 -0.1737  0.0625
    1SOL     OW10877   3.823   4.355   4.476 -0.1137 -0.2449 -0.1573
    1SOL    HW210878   3.742   4.329   4.519  1.0566 -1.8572  1.1201
    1SOL    HW310879   3.890   4.299   4.515  1.2089 -0.7848 -3.0868
    1SOL    MW410880   3.821   4.344   4.486  0.2151 -0.5283 -0.3753
    1SOL     OW10881   2.098   3.040   4.465  0.3636  0.0392 -0.3029
    1SOL    HW210882   2.072   2.991   4.388  0.8162  0.1754 -0.5458
    1SOL    HW310883   2.149   2.978   4.517  1.1426  0.3200 -0.7262
    1SOL    MW410884   2.101   3.025   4.462  0.5262  0.0939 -0.3905
    1SOL     OW10885   4.225   3.889   4.177 -0.3805 -0.4763 -0.6186
    1SOL    HW210886   4.232   3.799   4.209  0.7801  0.0813  0.8201
    1SOL    HW310887   4.260   3.886   4.088  0.5512 -1.2812 -0.2353
    1SOL    MW410888   4.231   3.877   4.170 -0.1044 -0.5088 -0.3786
    1SOL     OW10889   0.266   2.719   4.471  0.5879 -0.4522 -0.5041
    1SOL    HW210890   0.216   2.789   4.514  0.3612 -0.9682  0.0944
    1SOL    HW310891   0.269   2.744   4.379 -0.6901 -0.3562 -0.5270
    1SOL    MW410892   0.260   2.732   4.465  0.3894 -0.5076 -0.4282
    1SOL     OW10893   1.220   0.505   4.695 -0.4563 -0.3782  0.0304
    1SOL    HW210894   1.181   0.548   4.619 -1.4868  0.7091  1.1447
    1SOL    HW310895   1.172   0.422   4.703 -0.9710 -0.0845  0.0201
    1SOL    MW410896   1.208   0.500   4.686 -0.6603 -0.1960  0.1755
    1SOL     OW10897   4.290   2.847   4.263 -0.5134 -0.3783  0.0982
    1SOL    HW210898   4.303   2.940   4.247  1.4135 -0.8332 -1.2548
    1SOL    HW310899   4.200   2.830   4.238 -0.2656  0.7568 -1.6381
    1SOL    MW410900   4.280   2.857   4.257 -0.2260 -0.2887 -0.3095
    1SOL     OW10901   0.188   4.613   4.183 -0.2066  0.3229  0.2811
    1SOL    HW210902   0.266   4.657   4.217 -0.0583 -0.5273  1.0569
    1SOL    HW310903   0.181   4.533   4.234 -1.0670 -0.0610 -0.4187
    1SOL    MW410904   0.197   4.608   4.194 -0.3006  0.1597  0.2909
    1SOL     OW10905   3.208   2.298   4.507 -0.2379 -0.0193 -0.2003
    1SOL    HW210906   3.198   2.392   4.525 -0.6179 -0.0242 -0.3858
    1SOL    HW310907   3.302   2.285   4.501 -0.1980  0.4357 -0.6125
    1SOL    MW410908   3.219   2.309   4.508 -0.2828  0.0403 -0.2799
    1SOL     OW10909   0.421   1.126   4.172  0.0843  0.0055  0.7371
    1SOL    HW210910   0.420   1.033   4.197  0.9362 -0.5558 -1.1779
    1SOL    HW310911   0.395   1.125   4.080 -0.8673  1.7823  0.9747
    1SOL    MW410912   0.417   1.113   4.163  0.0712  0.1658  0.5159
    1SOL     OW10913   2.173   3.326   4.440 -0.1723 -0.3425 -0.2548
    1SOL    HW210914   2.130   3.240   4.444 -2.4824  0.8453  1.6337
    1SOL    HW310915   2.244   3.321   4.504 -0.9650 -0.4970  0.6095
    1SOL    MW410916   2.177   3.314   4.449 -0.5820 -0.2060  0.1087
    1SOL     OW10917   4.441   0.079   4.242 -0.7303 -0.3798  0.3639
    1SOL    HW210918   4.523   0.037   4.217  0.3551  1.4059  0.8793
    1SOL    HW310919   4.455   0.172   4.226 -2.3592  0.0471  1.2706
    1SOL    MW410920   4.453   0.086   4.237 -0.8020 -0.0879  0.5512
    1SOL     OW10921   1.323   3.928   4.528 -0.3998 -0.1968  0.3003
    1SOL    HW210922   1.394   3.979   4.567 -0.2217 -0.0470 -0.2174
    1SOL    HW310923   1.245   3.982   4.540 -0.4510 -0.4172  0.9837
    1SOL    MW410924   1.322   3.942   4.535 -0.3830 -0.2058  0.3219
    1SOL     OW10925   0.571   3.356   4.572 -0.2191 -0.2105 -0.1366
    1SOL    HW210926   0.641   3.300   4.539 -0.1955 -0.1476 -0.1948
    1SOL    HW310927   0.616   3.437   4.598 -0.2308 -0.2794  0.0975
    1SOL    MW410928   0.586   3.360   4.571 -0.2176 -0.2110 -0.1130
    1SOL     OW10929   2.740   2.253   4.610 -0.1220  0.0528 -0.4737
    1SOL    HW210930   2.648   2.235   4.590  0.3441 -1.8163 -1.0371
    1SOL    HW310931   2.778   2.167   4.626  1.1609  0.9384  1.4110
    1SOL    MW410932   2.733   2.239   4.609  0.1087 -0.0772 -0.2995
    1SOL     OW10933   2.786   1.113   4.636 -0.1646 -0.0063  0.4557
    1SOL    HW210934   2.740   1.162   4.704 -0.2226 -0.4702  0.7473
    1SOL    HW310935   2.718   1.061   4.593 -0.3913  1.3337 -0.8995
    1SOL    MW410936   2.771   1.113   4.639 -0.2019  0.1094  0.3152
    1SOL     OW10937   1.289   0.915   4.341  0.1170 -0.0954  0.1997
    1SOL    HW210938   1.347   0.839   4.350 -2.2081 -1.8791  0.5883
    1SOL    HW310939   1.325   0.964   4.268  1.3511 -1.8804 -0.4225
    1SOL    MW410940   1.301   0.911   4.333 -0.0269 -0.5662  0.1693
    1SOL     OW10941   4.092   0.837   4.585  0.3601 -0.0824 -0.4758
    1SOL    HW210942   4.175   0.884   4.599  1.5219 -2.0498 -0.6428
    1SOL    HW310943   4.076   0.843   4.491  1.0443 -0.9091 -0.6452
    1SOL    MW410944   4.101   0.844   4.575  0.6042 -0.4510 -0.5198
    1SOL     OW10945   2.115   1.802   4.695  0.4325  0.2244  0.2861
    1SOL    HW210946   2.070   1.862   4.636  1.7362  0.5743 -0.3754
    1SOL    HW310947   2.081   1.716   4.672 -0.0137  0.4975 -0.0932
    1SOL    MW410948   2.104   1.799   4.684  0.5455  0.3066  0.1488
    1SOL     OW10949   1.320   3.208   4.209  0.1490  0.3223 -0.1411
    1SOL    HW210950   1.323   3.198   4.304 -1.4393 -1.5164 -0.2315
    1SOL    HW310951   1.260   3.138   4.180  0.7798  0.7138 -2.4992
    1SOL    MW410952   1.313   3.197   4.217  0.0228  0.1316 -0.4640
    1SOL     OW10953   1.178   2.270   4.115 -0.2654 -0.0789  0.7274
    1SOL    HW210954   1.257   2.295   4.163  0.9680 -2.5511  0.0553
    1SOL    HW310955   1.163   2.179   4.137 -0.5820 -0.8245 -2.2885
    1SOL    MW410956   1.186   2.262   4.124 -0.1445 -0.5038  0.2408
    1SOL     OW10957   4.298   1.099   4.652 -0.1773 -0.6370  0.2493
    1SOL    HW210958   4.235   1.139   4.592  0.5337 -0.4838 -0.4045
    1SOL    HW310959   4.344   1.173   4.691  1.4974 -0.7989 -1.3469
    1SOL    MW410960   4.296   1.114   4.649  0.1369 -0.6381 -0.0477
    1SOL     OW10961   3.861   0.360   4.721 -0.0075 -0.0628  0.3522
    1SOL    HW210962   3.790   0.370   4.657  1.2165 -1.0133 -1.1999
    1SOL    HW310963   3.925   0.427   4.696  1.0506 -1.2680 -0.2425
    1SOL    MW410964   3.860   0.371   4.709  0.2935 -0.3472  0.0682
    1SOL     OW10965   3.782   0.623   4.402 -0.2373  0.0116 -0.2598
    1SOL    HW210966   3.791   0.673   4.320 -0.1623  0.6626  0.1402
    1SOL    HW310967   3.696   0.648   4.435  0.0581  0.3531  0.2546
    1SOL    MW410968   3.772   0.633   4.395 -0.1886  0.1425 -0.1388
    1SOL     OW10969   3.252   3.972   4.564 -0.6667 -0.3649 -0.5104
    1SOL    HW210970   3.246   3.882   4.531 -2.3026 -0.5590  0.2769
    1SOL    HW310971   3.344   3.997   4.550 -0.6042 -1.5436 -2.3111
    1SOL    MW410972   3.264   3.964   4.558 -0.8745 -0.5460 -0.6437
    1SOL     OW10973   1.280   0.274   4.464  0.4690  0.0290  0.2281
    1SOL    HW210974   1.318   0.352   4.425 -0.2429  0.5481  0.5638
    1SOL    HW310975   1.225   0.237   4.395  0.1099  0.3159  0.3586
    1SOL    MW410976   1.277   0.279   4.450  0.3277  0.1353  0.2894
    1SOL     OW10977   0.516   2.054   4.558  0.2149 -0.5177  0.1908
    1SOL    HW210978   0.546   2.045   4.467  0.3717  1.7093 -0.0144
    1SOL    HW310979   0.421   2.041   4.553  0.4185 -2.0453 -0.0154
    1SOL    MW410980   0.507   2.051   4.545  0.2624 -0.4256  0.1364
    1SOL     OW10981   1.864   1.201   4.337  0.1409  0.0233 -0.7762
    1SOL    HW210982   1.928   1.273   4.341  0.3171 -0.1830  0.4080
    1SOL    HW310983   1.834   1.191   4.428  1.4133 -2.5446 -0.5916
    1SOL    MW410984   1.869   1.209   4.350  0.3319 -0.3427 -0.5956
    1SOL     OW10985   4.200   4.635   4.115 -0.3469 -0.2743 -0.1845
    1SOL    HW210986   4.132   4.675   4.169  1.4815  1.2552  1.0660
    1SOL    HW310987   4.282   4.673   4.147  1.0391 -1.4144 -2.2167
    1SOL    MW410988   4.202   4.645   4.127  0.0768 -0.2227 -0.2880
    1SOL     OW10989   2.610   2.859   4.475  0.6403 -0.1631 -0.3334
    1SOL    HW210990   2.529   2.814   4.450 -0.0632  0.5026  0.6830
    1SOL    HW310991   2.648   2.803   4.543  0.7422 -0.1754 -0.3994
    1SOL    MW410992   2.604   2.846   4.481  0.5610 -0.0770 -0.2084
    1SOL     OW10993   2.042   4.211   4.553 -0.1039 -0.0755  0.4794
    1SOL    HW210994   2.043   4.256   4.469 -0.4382 -0.6888  0.1513
    1SOL    HW310995   1.976   4.257   4.604 -0.7039 -0.4235  0.0173
    1SOL    MW410996   2.034   4.223   4.549 -0.2270 -0.2022  0.3753
    1SOL     OW10997   2.965   4.097   4.652  0.2174 -0.4083 -0.3736
    1SOL    HW210998   2.932   4.185   4.635 -0.9643 -0.4873  1.3800
    1SOL    HW310999   3.059   4.103   4.634  0.2346  1.3277  0.2090
    1SOL    MW411000   2.973   4.109   4.647  0.0637 -0.1898 -0.0653
    1SOL     OW11001   3.574   4.290   4.613  0.0809  0.1916 -0.1897
    1SOL    HW211002   3.545   4.202   4.590  0.3951  0.2026 -0.6299
    1SOL    HW311003   3.495   4.344   4.604 -0.1780 -0.0879  0.3486
    1SOL    MW411004   3.560   4.286   4.609  0.0882  0.1564 -0.1769
    1SOL     OW11005   3.014   2.137   4.392 -0.3313  0.2838 -0.0514
    1SOL    HW211006   3.077   2.205   4.416 -0.9612  1.0048 -0.4295
    1SOL    HW311007   2.944   2.184   4.347  0.3365 -0.9049 -2.4071
    1SOL    MW411008   3.013   2.152   4.390 -0.3262  0.2220 -0.4120
    1SOL     OW11009   1.752   4.234   4.168 -0.4440 -0.3106  0.5100
    1SOL    HW211010   1.744   4.262   4.077 -0.9397  0.4076  0.7705
    1SOL    HW311011   1.830   4.279   4.200  1.5214 -2.9076 -0.4034
    1SOL    MW411012   1.761   4.244   4.160 -0.2502 -0.5584  0.4239
    1SOL     OW11013   2.233   1.101   4.109 -0.1185  0.2991 -1.0175
    1SOL    HW211014   2.241   1.180   4.162 -0.6248 -1.1271  1.2771
    1SOL    HW311015   2.319   1.059   4.116 -0.6837 -0.7144  0.0752
    1SOL    MW411016   2.246   1.106   4.117 -0.2601 -0.0228 -0.5703
    1SOL     OW11017   0.706   4.352   4.551 -0.3938  0.2442 -0.1282
    1SOL    HW211018   0.733   4.262   4.532 -1.6345 -0.8189  2.9908
    1SOL    HW311019   0.624   4.344   4.599 -0.4295  3.0514  0.3907
    1SOL    MW411020   0.699   4.339   4.555 -0.5622  0.4745  0.3524
    1SOL     OW11021   2.904   0.953   4.423 -0.1287  0.1858 -0.3374
    1SOL    HW211022   2.890   1.007   4.501  0.9848  0.0166 -0.0087
    1SOL    HW311023   2.996   0.967   4.401  0.0268 -1.1500 -0.5769
    1SOL    MW411024   2.915   0.962   4.430  0.0389 -0.0127 -0.3257
    1SOL     OW11025   4.042   1.560   4.294 -0.0071  0.0240 -0.1573
    1SOL    HW211026   4.087   1.538   4.376  0.7803 -0.9467 -0.8498
    1SOL    HW311027   4.106   1.543   4.225 -0.6176  0.9692 -0.9791
    1SOL    MW411028   4.056   1.555   4.296  0.0162  0.0206 -0.3567
    1SOL     OW11029   1.857   1.863   4.816  0.0105 -0.1855  0.4300
    1SOL    HW211030   1.941   1.822   4.835  0.6709  0.8626 -0.1826
    1SOL    HW311031   1.799   1.790   4.796  0.9178 -0.8797  0.3036
    1SOL    MW411032   1.860   1.848   4.816  0.2172 -0.1388  0.3328
    1SOL     OW11033   1.134   2.125   4.482  0.2573 -0.0336 -0.0874
    1SOL    HW211034   1.167   2.213   4.500  0.0919 -0.2033  1.1270
    1SOL    HW311035   1.050   2.122   4.529 -1.3937  0.3283 -2.9449
    1SOL    MW411036   1.127   2.136   4.491  0.0176 -0.0081 -0.3042
    1SOL     OW11037   2.922   2.754   4.235 -0.5428  0.3460  0.4671
    1SOL    HW211038   2.925   2.843   4.200 -0.1283 -0.2415 -1.0496
    1SOL    HW311039   2.837   2.719   4.207 -0.5775  0.1672  0.7930
    1SOL    MW411040   2.911   2.761   4.227 -0.4930  0.2449  0.3095
    1SOL     OW11041   1.664   0.780   4.137  0.4849 -0.3557  0.2525
    1SOL    HW211042   1.729   0.850   4.138 -0.5731  0.6487  0.2259
    1SOL    HW311043   1.629   0.782   4.047  0.3060 -0.7703  0.3143
    1SOL    MW411044   1.668   0.790   4.125  0.3219 -0.2779  0.2575
    1SOL     OW11045   4.238   2.066   4.725 -0.3347 -0.3499 -0.4074
    1SOL    HW211046   4.318   2.019   4.704  0.8519  1.7911 -0.7384
    1SOL    HW311047   4.238   2.142   4.667 -1.7116  0.6105  0.8114
    1SOL    MW411048   4.248   2.070   4.715 -0.3600  0.0591 -0.2904
    1SOL     OW11049   3.992   3.997   4.304 -0.3687 -0.4771  0.5528
    1SOL    HW211050   4.080   3.966   4.283 -0.1254  1.0826 -0.9000
    1SOL    HW311051   3.985   3.988   4.399  1.0424 -1.4002  0.5817
    1SOL    MW411052   4.002   3.992   4.314 -0.1507 -0.3932  0.3648
    1SOL     OW11053   2.483   4.113   4.573 -0.2151 -0.3099  0.4185
    1SOL    HW211054   2.546   4.041   4.574 -1.0909 -1.1436 -1.2747
    1SOL    HW311055   2.397   4.070   4.577 -0.7560  0.5987 -0.8736
    1SOL    MW411056   2.480   4.098   4.574 -0.4022 -0.2999  0.0248
    1SOL     OW11057   0.189   0.067   4.627 -0.0559 -0.0661  0.2793
    1SOL    HW211058   0.191   0.069   4.722 -1.5296  0.9714  0.2921
    1SOL    HW311059   0.250   0.136   4.600 -0.1891  0.1237  0.4674
    1SOL    MW411060   0.197   0.076   4.636 -0.2679  0.0958  0.3061
    1SOL     OW11061   0.786   3.194   4.503 -0.2783  0.0406  0.6520
    1SOL    HW211062   0.795   3.099   4.514  1.3816  0.0651 -0.2839
    1SOL    HW311063   0.870   3.230   4.533 -0.2140  1.0409 -0.6393
    1SOL    MW411064   0.798   3.186   4.508 -0.0508  0.1760  0.3581
    1SOL     OW11065   0.154   2.468   4.506  0.8723  0.2400 -0.4973
    1SOL    HW211066   0.230   2.413   4.526  1.3628  0.7313 -0.9737
    1SOL    HW311067   0.191   2.554   4.489 -0.0241  1.0893  1.6902
    1SOL    MW411068   0.169   2.472   4.506  0.8187  0.4170 -0.2718
    1SOL     OW11069   2.504   1.179   4.345 -0.3663 -0.1891 -0.2477
    1SOL    HW211070   2.575   1.195   4.282  1.5946  1.1700  2.2422
    1SOL    HW311071   2.515   1.247   4.411 -1.3560 -2.5748  2.4782
    1SOL    MW411072   2.515   1.190   4.345 -0.2382 -0.3245  0.4411
    1SOL     OW11073   0.423   0.855   4.208 -0.5801 -0.1155 -0.0366
    1SOL    HW211074   0.499   0.806   4.176 -0.2089  0.8613 -0.6746
    1SOL    HW311075   0.349   0.821   4.157 -0.3885 -0.2930 -0.1984
    1SOL    MW411076   0.423   0.844   4.197 -0.5058 -0.0101 -0.1421
    1SOL     OW11077   2.250   1.739   4.244  0.0214  0.7668 -0.1290
    1SOL    HW211078   2.265   1.833   4.247  0.8275  0.6316  0.1034
    1SOL    HW311079   2.257   1.710   4.335 -0.4827  0.5151 -0.1634
    1SOL    MW411080   2.253   1.747   4.256  0.0610  0.7159 -0.1025
    1SOL     OW11081   3.584   2.137   4.718  0.0320  0.0537  0.7254
    1SOL    HW211082   3.568   2.045   4.699  1.4705 -0.4926  2.0763
    1SOL    HW311083   3.609   2.139   4.810  1.4554  1.5913  0.3377
    1SOL    MW411084   3.585   2.125   4.727  0.4096  0.1843  0.8531
    1SOL     OW11085   2.295   2.517   4.730  0.0417 -0.0430  0.5691
    1SOL    HW211086   2.309   2.503   4.636 -1.1250 -0.1053  0.3942
    1SOL    HW311087   2.383   2.517   4.768  0.5329  0.1881 -0.5512
    1SOL    MW411088   2.309   2.515   4.723 -0.0474 -0.0205  0.3982
    1SOL     OW11089   0.601   1.012   4.665 -0.1793  0.0746  0.0480
    1SOL    HW211090   0.680   1.010   4.720 -0.1088  0.4511 -0.0355
    1SOL    HW311091   0.601   0.928   4.619  0.4339  0.2711 -0.3184
    1SOL    MW411092   0.611   1.001   4.667 -0.0891  0.1503 -0.0110
    1SOL     OW11093   3.446   1.366   4.502  0.3830 -0.1658  0.4405
    1SOL    HW211094   3.433   1.340   4.411  0.6979 -0.9637  0.6219
    1SOL    HW311095   3.358   1.386   4.534  0.3370  0.7352 -0.2173
    1SOL    MW411096   3.433   1.365   4.494  0.4184 -0.1523  0.3777
    1SOL     OW11097   1.815   3.981   4.261  0.3461  0.3885 -0.5793
    1SOL    HW211098   1.780   4.064   4.227 -0.4008  0.3036 -0.0258
    1SOL    HW311099   1.815   3.993   4.356 -0.6453 -0.5952 -0.4477
    1SOL    MW411100   1.811   3.994   4.269  0.1167  0.2475 -0.4888
    1SOL     OW11101   4.039   0.882   4.288  0.0750  0.0203 -0.0994
    1SOL    HW211102   3.955   0.848   4.257 -0.2554  1.1238 -0.4422
    1SOL    HW311103   4.104   0.829   4.243 -0.4388 -1.4945  0.9092
    1SOL    MW411104   4.036   0.870   4.278 -0.0358 -0.0340 -0.0114
    1SOL     OW11105   0.209   0.500   4.201  0.3374 -0.0852 -0.1056
    1SOL    HW211106   0.130   0.451   4.179 -0.0756  0.4166  0.2494
    1SOL    HW311107   0.281   0.443   4.174 -0.1323 -0.9177  0.3874
    1SOL    MW411108   0.208   0.486   4.194  0.2209 -0.1288  0.0062
    1SOL     OW11109   1.045   3.307   4.542 -0.1168 -0.3612 -0.2627
    1SOL    HW211110   1.024   3.400   4.529  1.0407 -0.0542 -0.0350
    1SOL    HW311111   1.139   3.302   4.523 -0.3712 -1.6703 -1.2246
    1SOL    MW411112   1.055   3.319   4.538  0.0025 -0.4933 -0.3595
    1SOL     OW11113   1.605   3.716   4.652 -0.0815 -0.2006  0.2426
    1SOL    HW211114   1.562   3.800   4.635 -1.0681 -0.2825  2.1742
    1SOL    HW311115   1.698   3.737   4.655 -0.2598  0.6676 -0.1710
    1SOL    MW411116   1.611   3.730   4.650 -0.2352 -0.0970  0.4430
    1SOL     OW11117   4.454   4.009   4.288  0.1742  0.1372 -0.0796
    1SOL    HW211118   4.377   3.959   4.262 -0.4698  1.0023  0.1162
    1SOL    HW311119   4.437   4.098   4.256  0.8779  0.4404  0.3605
    1SOL    MW411120   4.442   4.014   4.281  0.1826  0.2918  0.0048
    1SOL     OW11121   0.639   4.645   4.334 -0.2591  0.0317  0.0445
    1SOL    HW211122   0.682   4.670   4.252 -0.2029  0.5488  0.2227
    1SOL    HW311123   0.648   4.550   4.339  3.3288  0.3622  1.4082
    1SOL    MW411124   0.646   4.636   4.324  0.2218  0.1435  0.2480
    1SOL     OW11125   0.188   2.992   4.553  0.0104  0.4238  0.4900
    1SOL    HW211126   0.113   3.051   4.545  1.0194  1.6880  0.1329
    1SOL    HW311127   0.245   3.035   4.616  1.0003  0.0915 -0.1673
    1SOL    MW411128   0.186   3.005   4.560  0.2741  0.5467  0.3562
    1SOL     OW11129   4.487   0.331   4.137 -0.2466 -0.2454 -0.3355
    1SOL    HW211130   4.522   0.327   4.048  0.5492  0.9521 -0.0992
    1SOL    HW311131   4.399   0.367   4.127 -0.1693 -0.1428 -0.6374
    1SOL    MW411132   4.480   0.335   4.124 -0.1321 -0.0739 -0.3438
    1SOL     OW11133   1.349   1.905   4.134  0.1755 -0.3911 -0.1133
    1SOL    HW211134   1.413   1.951   4.188 -1.1784 -1.0072  2.0958
    1SOL    HW311135   1.358   1.813   4.159 -1.1685 -0.5565 -0.1768
    1SOL    MW411136   1.359   1.899   4.144 -0.1804 -0.4944  0.1698
    1SOL     OW11137   1.563   3.073   4.126  0.3695  0.5801 -0.1302
    1SOL    HW211138   1.495   3.129   4.163 -0.0455 -0.5776  0.9065
    1SOL    HW311139   1.566   2.997   4.185  1.3348 -0.1986 -1.1570
    1SOL    MW411140   1.554   3.070   4.139  0.4421  0.3247 -0.1292
    1SOL     OW11141   2.434   3.655   4.260 -0.2976  0.6250  0.0093
    1SOL    HW211142   2.362   3.595   4.241  0.0921 -0.0692  0.7025
    1SOL    HW311143   2.451   3.644   4.353  0.9006  0.5554 -0.2070
    1SOL    MW411144   2.427   3.645   4.270 -0.0882  0.5240  0.0720
    1SOL     OW11145   2.546   2.455   4.293 -0.2517 -0.4992  0.0143
    1SOL    HW211146   2.515   2.398   4.223 -0.4956  0.2916 -0.5304
    1SOL    HW311147   2.469   2.467   4.349  0.2506 -2.0656  1.0622
    1SOL    MW411148   2.532   2.449   4.291 -0.2177 -0.6015  0.0806
    1SOL     OW11149   4.431   4.035   4.567  0.6112  0.0689  0.0146
    1SOL    HW211150   4.344   4.014   4.601  0.4974  2.4645  1.3288
    1SOL    HW311151   4.422   4.032   4.472 -0.5031 -1.2178  0.1515
    1SOL    MW411152   4.418   4.032   4.559  0.4497  0.2155  0.2060
    1SOL     OW11153   0.955   2.389   4.231 -0.5537  0.3268  0.0585
    1SOL    HW211154   1.036   2.354   4.194 -1.0592 -0.3240 -0.4710
    1SOL    HW311155   0.887   2.332   4.195 -1.2152  0.6945  0.7199
    1SOL    MW411156   0.957   2.377   4.221 -0.7077  0.2897  0.0758
    1SOL     OW11157   1.817   2.032   4.163 -0.4101 -0.2010 -0.1822
    1SOL    HW211158   1.890   2.094   4.168  0.3047 -1.0905  0.4909
    1SOL    HW311159   1.804   2.019   4.069  0.1731  0.1023 -0.3106
    1SOL    MW411160   1.825   2.039   4.151 -0.2388 -0.2782 -0.1111
    1SOL     OW11161   2.856   4.359   4.592 -0.2981  0.2092  0.0348
    1SOL    HW211162   2.872   4.362   4.497  0.1685 -0.6412  0.0857
    1SOL    HW311163   2.761   4.352   4.599 -0.3741  0.8185 -0.3623
    1SOL    MW411164   2.846   4.358   4.580 -0.2465  0.1774 -0.0105
    1SOL     OW11165   3.818   1.559   4.541 -0.0457 -0.1091  0.0313
    1SOL    HW211166   3.811   1.590   4.451  0.5742  1.9813  0.6789
    1SOL    HW311167   3.795   1.466   4.536 -3.1493  0.6804 -1.7830
    1SOL    MW411168   3.814   1.551   4.528 -0.3734  0.2708 -0.1230
    1SOL     OW11169   3.792   1.522   4.170 -0.1153  0.5712  0.2940
    1SOL    HW211170   3.729   1.579   4.213 -0.2572  0.1092  0.6997
    1SOL    HW311171   3.875   1.540   4.214 -0.1674  0.4400  0.4466
    1SOL    MW411172   3.795   1.532   4.181 -0.1409  0.4928  0.3672
    1SOL     OW11173   4.218   1.248   4.249 -0.4925  0.5120  0.5195
    1SOL    HW211174   4.138   1.211   4.210 -1.5629  2.1966  1.0462
    1SOL    HW311175   4.198   1.256   4.342 -0.0001  1.6557  0.5350
    1SOL    MW411176   4.205   1.244   4.256 -0.5689  0.8851  0.5913
    1SOL     OW11177   2.139   0.209   4.303 -0.3387  0.4285  0.1103
    1SOL    HW211178   2.222   0.162   4.308  0.0407  0.9661 -1.0893
    1SOL    HW311179   2.115   0.224   4.394  0.0219 -1.2286  0.5124
    1SOL    MW411180   2.146   0.205   4.316 -0.2410  0.2808  0.0048
    1SOL     OW11181   0.878   1.702   4.538 -0.5970  0.3378 -0.2088
    1SOL    HW211182   0.791   1.741   4.528 -1.2684 -1.0987 -0.1024
    1SOL    HW311183   0.896   1.660   4.454 -1.1252 -1.5620  0.6073
    1SOL    MW411184   0.869   1.701   4.526 -0.7553 -0.1024 -0.0873
    1SOL     OW11185   1.265   1.020   4.605  0.2596  0.1019 -0.2365
    1SOL    HW211186   1.187   0.986   4.647  0.6993 -0.6947 -0.0601
    1SOL    HW311187   1.260   0.989   4.515  0.4733 -0.1123 -0.1748
    1SOL    MW411188   1.254   1.012   4.599  0.3458 -0.0316 -0.2055
    1SOL     OW11189   3.432   1.325   4.217 -0.2045  0.1562 -0.1864
    1SOL    HW211190   3.424   1.420   4.209  0.5720  0.2145 -0.3586
    1SOL    HW311191   3.345   1.291   4.198 -0.8022  0.9167  1.1864
    1SOL    MW411192   3.420   1.333   4.213 -0.1807  0.2643 -0.0277
    1SOL     OW11193   1.830   1.002   4.103 -0.5597  0.1317  0.1449
    1SOL    HW211194   1.914   0.960   4.088 -1.0545 -1.3985  1.4632
    1SOL    HW311195   1.847   1.067   4.172 -0.1402  0.9665 -0.7307
    1SOL    MW411196   1.843   1.005   4.110 -0.5697  0.0399  0.2036
    1SOL     OW11197   1.378   1.632   4.210 -0.0051  0.1771 -0.2491
    1SOL    HW211198   1.302   1.578   4.185 -0.5179  0.7462  0.0593
    1SOL    HW311199   1.367   1.645   4.304  0.3774  0.4198 -0.2397
    1SOL    MW411200   1.366   1.627   4.219 -0.0223  0.2841 -0.2069
    1SOL     OW11201   2.522   2.046   4.278  0.0322  0.2586  0.1710
    1SOL    HW211202   2.431   2.023   4.257 -0.2608  1.8184 -0.3649
    1SOL    HW311203   2.515   2.111   4.348  0.7291  0.4712  0.0474
    1SOL    MW411204   2.509   2.052   4.284  0.0856  0.4923  0.0839
    1SOL     OW11205   3.224   2.239   4.165 -0.1630 -0.2289 -0.0495
    1SOL    HW211206   3.132   2.265   4.154  0.1543  0.0449 -2.3618
    1SOL    HW311207   3.269   2.277   4.090  2.0954  0.6814  1.7175
    1SOL    MW411208   3.217   2.247   4.154  0.1764 -0.0725 -0.1211
    1SOL     OW11209   1.847   3.978   4.542  0.0440  0.2081  0.1620
    1SOL    HW211210   1.926   4.031   4.552  0.3476 -0.2725  0.3074
    1SOL    HW311211   1.870   3.892   4.578 -0.2159 -0.2442 -0.7314
    1SOL    MW411212   1.860   3.974   4.548  0.0497  0.0849  0.0634
    1SOL     OW11213   1.767   2.434   4.363 -0.3017 -0.4494  0.1921
    1SOL    HW211214   1.795   2.348   4.393  1.3307  0.4242  1.2080
    1SOL    HW311215   1.795   2.495   4.431 -1.1672  0.9392 -0.6458
    1SOL    MW411216   1.774   2.431   4.376 -0.2005 -0.1509  0.2155
    1SOL     OW11217   3.794   1.291   4.510  0.3263  0.0508 -0.6408
    1SOL    HW211218   3.784   1.261   4.419 -0.4025  0.0282 -0.5588
    1SOL    HW311219   3.736   1.233   4.560  1.2927 -0.4202 -0.0571
    1SOL    MW411220   3.785   1.279   4.505  0.3576 -0.0144 -0.5527
    1SOL     OW11221   0.779   4.093   4.495  0.4282 -0.5042  0.2773
    1SOL    HW211222   0.816   4.065   4.412  0.0350  0.6472 -0.2967
    1SOL    HW311223   0.702   4.038   4.507 -1.5638  1.6974 -1.8841
    1SOL    MW411224   0.774   4.082   4.486  0.1135 -0.0615 -0.0834
    1SOL     OW11225   2.886   2.612   4.468 -0.1297  0.4468 -0.3807
    1SOL    HW211226   2.837   2.538   4.433 -0.5578  0.9388 -0.8264
    1SOL    HW311227   2.907   2.665   4.392  1.9696 -0.2648 -0.3249
    1SOL    MW411228   2.882   2.609   4.454  0.0908  0.4179 -0.4320
    1SOL     OW11229   2.949   3.035   4.145 -0.2029 -0.0669 -0.1417
    1SOL    HW211230   2.955   3.030   4.050 -0.3564  1.0207 -0.2232
    1SOL    HW311231   3.012   3.104   4.168 -1.8312  1.2960  0.3285
    1SOL    MW411232   2.958   3.044   4.135 -0.4380  0.2563 -0.0901
    1SOL     OW11233   1.487   2.815   4.512  0.2179 -0.6704 -0.5777
    1SOL    HW211234   1.529   2.873   4.575 -0.8206 -1.1147  0.5408
    1SOL    HW311235   1.397   2.847   4.506 -0.1917 -1.7732 -0.4162
    1SOL    MW411236   1.481   2.827   4.520  0.0267 -0.8748 -0.4091
    1SOL     OW11237   1.478   0.641   4.649  0.5282  0.1828 -0.9373
    1SOL    HW211238   1.412   0.576   4.673 -0.1521  0.9122 -0.8541
    1SOL    HW311239   1.456   0.666   4.559  0.9809  0.0763 -1.0822
    1SOL    MW411240   1.467   0.636   4.640  0.4982  0.2649 -0.9456
    1SOL     OW11241   1.211   0.759   4.831  0.5155  0.0511 -0.3017
    1SOL    HW211242   1.224   0.669   4.799 -0.2237 -0.7281  1.5026
    1SOL    HW311243   1.299   0.791   4.848  0.6885 -1.7621  2.7279
    1SOL    MW411244   1.224   0.751   4.829  0.4410 -0.2909  0.3366
    1SOL     OW11245   0.354   3.187   4.697 -0.4811  0.2055  0.0040
    1SOL    HW211246   0.436   3.234   4.712 -0.2232 -0.6029  1.1397
    1SOL    HW311247   0.286   3.249   4.721 -0.1784  0.4889  0.1336
    1SOL    MW411248   0.356   3.201   4.702 -0.4072  0.1361  0.1707
    1SOL     OW11249   3.406   2.069   4.301  0.0155  0.0672  0.9724
    1SOL    HW211250   3.456   2.130   4.356  1.4061  0.5405 -0.7801
    1SOL    HW311251   3.348   2.124   4.250  0.7693 -0.1057 -0.0965
    1SOL    MW411252   3.405   2.084   4.302  0.2983  0.1066  0.5999
    1SOL     OW11253   3.863   4.251   4.756  0.0833 -0.2392 -0.4676
    1SOL    HW211254   3.776   4.283   4.733  0.0702 -0.8233 -1.2558
    1SOL    HW311255   3.923   4.321   4.729 -0.1242  0.0667 -0.1304
    1SOL    MW411256   3.860   4.264   4.749  0.0541 -0.2761 -0.5274
    1SOL     OW11257   3.441   3.683   4.693 -0.4603  0.1879 -0.0079
    1SOL    HW211258   3.449   3.589   4.678 -1.8641  0.0341  0.1259
    1SOL    HW311259   3.434   3.693   4.788 -1.7238  0.2937 -0.1005
    1SOL    MW411260   3.441   3.672   4.703 -0.8123  0.1814 -0.0024
    1SOL     OW11261   0.609   3.865   4.496 -0.1641  0.0174  0.0639
    1SOL    HW211262   0.585   3.834   4.409 -1.3145 -0.0563  0.4098
    1SOL    HW311263   0.665   3.796   4.531  1.2663  0.5706 -1.0576
    1SOL    MW411264   0.613   3.852   4.489 -0.1272  0.0806 -0.0381
    1SOL     OW11265   3.030   0.338   4.295  0.2138  0.0091 -0.2915
    1SOL    HW211266   2.942   0.310   4.271  0.5648 -0.1473 -1.4348
    1SOL    HW311267   3.060   0.391   4.221  1.0548  0.1138  0.1100
    1SOL    MW411268   3.023   0.341   4.282  0.3710  0.0023 -0.3891
    1SOL     OW11269   0.262   3.053   4.175 -0.1547 -0.1540 -0.4502
    1SOL    HW211270   0.332   3.116   4.196  0.9250 -1.3299 -0.4674
    1SOL    HW311271   0.182   3.095   4.206  0.8944 -0.0016  2.1685
    1SOL    MW411272   0.261   3.067   4.181  0.1262 -0.2890 -0.1073
    1SOL     OW11273   1.450   0.898   4.776  0.6142  0.1942 -0.1665
    1SOL    HW211274   1.466   0.812   4.736  0.3042  0.0952 -0.0780
    1SOL    HW311275   1.388   0.941   4.716  0.0470 -0.0055  0.2713
    1SOL    MW411276   1.444   0.892   4.763  0.4984  0.1547 -0.0963
    1SOL     OW11277   2.254   3.470   4.202 -0.3624 -0.0597 -0.1618
    1SOL    HW211278   2.167   3.507   4.185 -1.5332 -2.5730  0.1230
    1SOL    HW311279   2.240   3.407   4.273  1.4088 -1.6224 -1.1570
    1SOL    MW411280   2.241   3.466   4.209 -0.2832 -0.5972 -0.2551
    1SOL     OW11281   4.242   0.441   4.489 -0.4310  0.0847  0.0045
    1SOL    HW211282   4.224   0.348   4.476 -0.5339  0.1698 -0.4674
    1SOL    HW311283   4.156   0.481   4.504 -0.3360  0.0233  0.7267
    1SOL    MW411284   4.228   0.434   4.490 -0.4330  0.0879  0.0372
    1SOL     OW11285   2.165   0.771   4.517  0.2907  0.7420  0.1622
    1SOL    HW211286   2.086   0.776   4.571  0.9518 -1.9034  1.4533
    1SOL    HW311287   2.133   0.754   4.429 -0.6099 -0.2395  0.6587
    1SOL    MW411288   2.150   0.770   4.513  0.2589  0.2635  0.3982
    1SOL     OW11289   4.470   3.172   4.513  0.2100 -0.1860  0.6260
    1SOL    HW211290   4.387   3.175   4.562  0.8576 -1.7571  1.8528
    1SOL    HW311291   4.515   3.253   4.539 -1.5610  1.4640 -1.2396
    1SOL    MW411292   4.465   3.183   4.523  0.0620 -0.1755  0.5417
    1SOL     OW11293   2.242   0.442   4.175  0.3529  0.4021 -0.4247
    1SOL    HW211294   2.251   0.415   4.084  2.1719  0.5984 -0.3169
    1SOL    HW311295   2.200   0.367   4.218 -2.4030  1.0918 -1.7907
    1SOL    MW411296   2.238   0.429   4.169  0.2294  0.5190 -0.5908
    1SOL     OW11297   3.552   0.919   4.188 -0.0942  0.1392 -0.2495
    1SOL    HW211298   3.520   0.856   4.123  0.4073 -0.0534 -0.3149
    1SOL    HW311299   3.551   1.003   4.141 -0.3952  0.1133 -0.2870
    1SOL    MW411300   3.548   0.921   4.173 -0.0677  0.1104 -0.2627
    1SOL     OW11301   0.552   2.790   4.482  0.0837  0.3093 -0.3754
    1SOL    HW211302   0.481   2.736   4.519  0.3409 -0.2687 -0.7269
    1SOL    HW311303   0.512   2.876   4.469 -0.6390 -0.0972 -0.8491
    1SOL    MW411304   0.537   2.794   4.485  0.0222  0.1795 -0.4845
    1SOL     OW11305   2.371   1.864   4.624  0.4549 -0.2108 -0.1849
    1SOL    HW211306   2.296   1.829   4.673  0.7123 -0.0580  0.3087
    1SOL    HW311307   2.331   1.917   4.555  0.1039 -0.1465  0.0639
    1SOL    MW411308   2.356   1.866   4.621  0.4427 -0.1822 -0.0868
    1SOL     OW11309   0.946   1.621   4.276  0.1365  0.0490 -0.0171
    1SOL    HW211310   0.863   1.582   4.250  1.2520 -0.3073 -3.2413
    1SOL    HW311311   0.946   1.707   4.236  1.4582 -0.0670 -0.2816
    1SOL    MW411312   0.935   1.627   4.268  0.4580 -0.0135 -0.4773
    1SOL     OW11313   3.565   1.608   4.619 -0.2265  0.2398  0.1628
    1SOL    HW211314   3.522   1.527   4.590  0.5642 -0.3316  0.5637
    1SOL    HW311315   3.658   1.588   4.615 -0.0520  0.8407  1.1251
    1SOL    MW411316   3.571   1.595   4.615 -0.0989  0.2437  0.3433
    1SOL     OW11317   3.295   2.840   4.270 -0.5380 -0.0036  0.0703
    1SOL    HW211318   3.238   2.788   4.214 -0.0770 -0.1232 -0.2846
    1SOL    HW311319   3.252   2.838   4.356 -1.5502  0.6833 -0.4137
    1SOL    MW411320   3.282   2.833   4.274 -0.6108  0.0713 -0.0401
    1SOL     OW11321   3.903   2.414   4.477 -0.2791  0.2254  0.6219
    1SOL    HW211322   3.873   2.329   4.511 -1.5559  0.7104  0.7186
    1SOL    HW311323   3.826   2.451   4.434  0.5354  0.9237 -0.2526
    1SOL    MW411324   3.889   2.407   4.476 -0.3402  0.3817  0.5188
    1SOL     OW11325   0.394   0.114   4.306  0.4030  0.3661  0.4229
    1SOL    HW211326   0.471   0.060   4.323  0.3187  0.4940  1.2728
    1SOL    HW311327   0.423   0.181   4.245  0.4042 -0.8820 -0.9553
    1SOL    MW411328   0.408   0.116   4.300  0.3921  0.2183  0.3533
    1SOL     OW11329   1.529   4.300   4.309  0.0359  0.0135 -0.3071
    1SOL    HW211330   1.606   4.273   4.260  0.6084  0.4166  0.3669
    1SOL    HW311331   1.455   4.266   4.258  0.6854 -1.3060 -0.3841
    1SOL    MW411332   1.529   4.292   4.296  0.1972 -0.1078 -0.2284
    1SOL     OW11333   3.015   1.953   4.152  0.3747  0.0254  0.0841
    1SOL    HW211334   2.921   1.959   4.134 -0.1560 -1.6453  2.0396
    1SOL    HW311335   3.040   2.040   4.183 -0.7479  0.1776  0.5575
    1SOL    MW411336   3.006   1.965   4.154  0.1566 -0.1750  0.4044
    1SOL     OW11337   3.588   1.152   4.065 -0.0380 -0.2389  0.1486
    1SOL    HW211338   3.580   1.152   3.970  0.4053  1.3850  0.0891
    1SOL    HW311339   3.516   1.207   4.096  1.1338  1.0936  0.5896
    1SOL    MW411340   3.578   1.159   4.057  0.1750  0.1510  0.1984
    1SOL     OW11341   1.792   0.327   4.104  0.2001 -0.0730 -0.6619
    1SOL    HW211342   1.829   0.395   4.162 -1.1552 -0.9260  1.2530
    1SOL    HW311343   1.851   0.252   4.115 -1.0359 -0.8335  1.0271
    1SOL    MW411344   1.805   0.326   4.113 -0.1419 -0.2859 -0.1860
    1SOL     OW11345   3.311   4.372   4.261  0.3859  0.3803  0.0980
    1SOL    HW211346   3.334   4.395   4.351 -0.2747  0.0766  0.3446
    1SOL    HW311347   3.324   4.453   4.211 -0.6671  0.9423  0.7243
    1SOL    MW411348   3.316   4.385   4.266  0.1600  0.4148  0.2131
    1SOL     OW11349   2.493   0.511   4.267  0.4245  0.2514  0.0022
    1SOL    HW211350   2.476   0.593   4.314  0.3382  0.3898 -0.2648
    1SOL    HW311351   2.407   0.487   4.230  0.5291  0.2449 -0.2397
    1SOL    MW411352   2.479   0.519   4.268  0.4270  0.2688 -0.0648
    1SOL     OW11353   2.667   2.687   4.181 -0.4347 -0.3101  0.2116
    1SOL    HW211354   2.617   2.768   4.177 -0.9390 -0.3706  3.4355
    1SOL    HW311355   2.604   2.620   4.208  0.2435 -1.5111 -1.1095
    1SOL    MW411356   2.652   2.689   4.184 -0.4115 -0.4766  0.4630
    1SOL     OW11357   2.312   1.349   4.240  0.4021 -0.0434  0.2005
    1SOL    HW211358   2.369   1.299   4.297 -1.4246 -1.0008  1.2559
    1SOL    HW311359   2.367   1.419   4.205  2.1801 -0.9272  1.1799
    1SOL    MW411360   2.326   1.352   4.243  0.3955 -0.2863  0.4687
    1SOL     OW11361   3.063   3.458   4.131  0.3830  0.1349  0.1897
    1SOL    HW211362   3.042   3.467   4.038  0.3223  0.1111  0.2015
    1SOL    HW311363   2.999   3.514   4.175 -0.4341 -0.8719  0.3127
    1SOL    MW411364   3.052   3.467   4.125  0.2668 -0.0010  0.2074
    1SOL     OW11365   3.533   4.042   4.542 -0.0875 -0.0967  0.1386
    1SOL    HW211366   3.535   4.014   4.451 -1.1128 -0.8355  0.3240
    1SOL    HW311367   3.587   3.978   4.588 -0.5597 -0.4337  0.2255
    1SOL    MW411368   3.540   4.030   4.536 -0.2851 -0.2384  0.1745
    1SOL     OW11369   3.773   1.258   4.239  0.6219  0.1893 -0.0145
    1SOL    HW211370   3.776   1.351   4.216  0.1715  0.4321  0.8903
    1SOL    HW311371   3.709   1.220   4.179  0.0898  0.6555  0.2547
    1SOL    MW411372   3.765   1.265   4.228  0.4921  0.2829  0.1397
    1SOL     OW11373   3.140   1.715   4.209 -0.0098 -0.2218 -0.0173
    1SOL    HW211374   3.145   1.703   4.304 -0.1968 -1.6553 -0.1720
    1SOL    HW311375   3.106   1.804   4.198 -2.5840 -0.9690  1.2993
    1SOL    MW411376   3.136   1.725   4.220 -0.3738 -0.5096  0.1359
    1SOL     OW11377   3.705   0.227   4.911  0.1668  0.0791 -0.5236
    1SOL    HW211378   3.764   0.277   4.854  0.9012  0.2155  0.3608
    1SOL    HW311379   3.750   0.144   4.926 -0.0333  0.0409 -0.1379
    1SOL    MW411380   3.718   0.223   4.905  0.2372  0.0920 -0.3562
    1SOL     OW11381   2.928   1.352   4.539  0.2159  0.0111 -0.1803
    1SOL    HW211382   2.858   1.407   4.502  0.5517  0.7524  0.2775
    1SOL    HW311383   2.883   1.272   4.567 -0.5770  0.7631  0.7311
    1SOL    MW411384   2.913   1.349   4.538  0.1554  0.2081  0.0000
    1SOL     OW11385   4.238   0.456   4.200  0.3349 -0.2417 -0.1313
    1SOL    HW211386   4.228   0.549   4.178  0.5661 -0.1056  0.3180
    1SOL    HW311387   4.256   0.456   4.294  2.2154 -0.6065 -0.4758
    1SOL    MW411388   4.239   0.468   4.209  0.6127 -0.2719 -0.1173
    1SOL     OW11389   3.980   0.082   4.690 -0.1259  0.0102 -0.3648
    1SOL    HW211390   3.946   0.172   4.693 -0.3910 -0.0146 -1.9930
    1SOL    HW311391   3.922   0.037   4.629 -0.3744 -1.4520  0.9310
    1SOL    MW411392   3.968   0.088   4.682 -0.1938 -0.1860 -0.4086
    1SOL     OW11393   2.045   3.133   4.112  0.0795  0.3102 -0.4213
    1SOL    HW211394   2.049   3.044   4.147  1.7292  0.6424  0.2567
    1SOL    HW311395   1.968   3.171   4.154  1.1712  0.2170  1.7409
    1SOL    MW411396   2.035   3.126   4.122  0.4413  0.3419 -0.0463
    1SOL     OW11397   1.178   1.264   4.511  0.1967 -0.7340 -0.0784
    1SOL    HW211398   1.203   1.179   4.548 -0.2172 -0.9199 -0.2352
    1SOL    HW311399   1.118   1.302   4.575 -1.5324 -1.6091 -1.1725
    1SOL    MW411400   1.174   1.258   4.524 -0.0861 -0.8740 -0.2437
    1SOL     OW11401   1.128   1.730   4.659  0.0172 -0.4787 -0.0079
    1SOL    HW211402   1.161   1.815   4.688  1.5643 -0.8532 -0.6257
    1SOL    HW311403   1.045   1.750   4.617  0.9700  0.9020 -1.2780
    1SOL    MW411404   1.122   1.744   4.658  0.3469 -0.3459 -0.2570
    1SOL     OW11405   2.999   0.451   4.548 -0.5842  0.2439  0.2938
    1SOL    HW211406   3.034   0.399   4.475 -0.2340  1.1967 -0.2277
    1SOL    HW311407   2.975   0.534   4.508 -2.8514 -0.1541  0.7762
    1SOL    MW411408   3.001   0.455   4.533 -0.8373  0.3170  0.2890
    1SOL     OW11409   3.413   0.695   4.062  0.4088 -0.3078 -0.4356
    1SOL    HW211410   3.434   0.603   4.078 -0.0826 -0.3815 -0.2069
    1SOL    HW311411   3.358   0.720   4.136  2.0309  0.6881  0.4694
    1SOL    MW411412   3.409   0.686   4.074  0.5579 -0.1861 -0.2861
    1SOL     OW11413   3.992   0.577   4.586 -0.0085  0.0419  0.3427
    1SOL    HW211414   4.025   0.662   4.615  0.5533 -0.0532 -0.0092
    1SOL    HW311415   3.927   0.598   4.519 -0.1000  0.2050  0.4836
    1SOL    MW411416   3.988   0.591   4.581  0.0532  0.0510  0.3147
    1SOL     OW11417   2.477   2.303   3.859 -0.4448 -0.1521 -0.6142
    1SOL    HW211418   2.452   2.292   3.951 -0.1002 -0.3147 -0.5396
    1SOL    HW311419   2.465   2.216   3.821  2.6820 -0.9335  0.0702
    1SOL    MW411420   2.472   2.290   3.866  0.0134 -0.2766 -0.5140
    1SOL     OW11421   2.021   0.523   4.829  0.2411  0.7471 -0.0741
    1SOL    HW211422   2.073   0.502   4.906 -0.1226 -1.3756 -0.3759
    1SOL    HW311423   2.084   0.525   4.757  0.2229  0.1503 -0.1157
    1SOL    MW411424   2.036   0.520   4.829  0.1907  0.3883 -0.1202
    1SOL     OW11425   3.158   1.705   4.482 -0.4336 -0.0663 -0.1265
    1SOL    HW211426   3.082   1.720   4.538 -0.9747 -0.0427 -0.8683
    1SOL    HW311427   3.209   1.786   4.489 -0.7328  0.1158 -0.0461
    1SOL    MW411428   3.155   1.717   4.491 -0.5445 -0.0392 -0.2136
    1SOL     OW11429   3.153   0.078   4.258 -0.1686  0.1804 -0.1848
    1SOL    HW211430   3.104   0.159   4.271  0.5055  0.4395  0.8588
    1SOL    HW311431   3.176   0.049   4.347  0.3382 -0.6877 -0.5843
    1SOL    MW411432   3.150   0.085   4.271 -0.0129  0.1000 -0.1006
    1SOL     OW11433   2.643   3.504   4.156 -0.1483 -0.2544  0.5195
    1SOL    HW211434   2.719   3.545   4.198  0.0922  0.1348 -0.2846
    1SOL    HW311435   2.568   3.551   4.190  0.1516  1.1708 -0.7274
    1SOL    MW411436   2.643   3.516   4.166 -0.0770 -0.0150  0.2494
    1SOL     OW11437   1.088   3.829   4.139 -0.0981 -1.0476  0.3130
    1SOL    HW211438   1.176   3.859   4.164  0.4265 -1.2294 -1.2748
    1SOL    HW311439   1.078   3.745   4.184  0.0595 -0.4834  1.4386
    1SOL    MW411440   1.098   3.822   4.148 -0.0080 -0.9971  0.2518
    1SOL     OW11441   0.380   0.296   4.531 -0.1382  0.4837 -0.2314
    1SOL    HW211442   0.324   0.370   4.507 -2.3628 -0.6164  1.4302
    1SOL    HW311443   0.386   0.243   4.451 -2.6965 -0.1349 -0.0456
    1SOL    MW411444   0.373   0.299   4.517 -0.7692  0.2569  0.0129
    1SOL     OW11445   0.691   2.011   4.295 -0.0587  0.2298 -0.2832
    1SOL    HW211446   0.770   1.960   4.278  0.2268  0.0085  1.5767
    1SOL    HW311447   0.707   2.095   4.250  0.6183 -0.3161 -1.0851
    1SOL    MW411448   0.704   2.015   4.287  0.0684  0.1290 -0.1440
    1SOL     OW11449   0.486   2.639   4.147  0.7569  0.0215  0.1166
    1SOL    HW211450   0.491   2.618   4.054  0.9889  1.2848 -0.1618
    1SOL    HW311451   0.408   2.693   4.156  1.2515  0.6861  0.4982
    1SOL    MW411452   0.477   2.644   4.136  0.8528  0.2759  0.1302
    1SOL     OW11453   1.383   2.290   4.297  0.3197 -0.0748  0.1487
    1SOL    HW211454   1.436   2.211   4.303  0.2049 -0.1219  0.6276
    1SOL    HW311455   1.442   2.356   4.260  0.6560 -0.1744  0.4980
    1SOL    MW411456   1.398   2.289   4.293  0.3490 -0.0942  0.2580
    1SOL     OW11457   2.982   3.073   4.585 -0.0484 -0.2597  0.0600
    1SOL    HW211458   2.937   3.061   4.669  0.0274  0.0559  0.1453
    1SOL    HW311459   2.911   3.088   4.523 -0.0622  0.2578  0.1980
    1SOL    MW411460   2.966   3.074   4.588 -0.0403 -0.1495  0.0892
    1SOL     OW11461   2.682   0.893   4.225 -0.0481 -0.2322  0.0827
    1SOL    HW211462   2.755   0.836   4.202 -0.2155 -0.2759 -0.3505
    1SOL    HW311463   2.697   0.916   4.317  0.5244 -0.2138 -0.0178
    1SOL    MW411464   2.693   0.889   4.234  0.0052 -0.2356  0.0119
    1SOL     OW11465   4.282   4.462   4.549 -0.2546  0.2465 -0.0226
    1SOL    HW211466   4.251   4.448   4.459 -0.0629  1.6627 -0.3279
    1SOL    HW311467   4.357   4.521   4.539  0.8474 -0.9649  0.9407
    1SOL    MW411468   4.288   4.468   4.536 -0.0844  0.2732  0.0644
    1SOL     OW11469   0.135   3.374   4.602  0.0968  0.5854  0.0045
    1SOL    HW211470   0.195   3.369   4.528 -1.3779  0.9878 -1.2400
    1SOL    HW311471   0.093   3.460   4.593 -0.9741  0.1348  0.6047
    1SOL    MW411472   0.137   3.385   4.591 -0.2390  0.5794 -0.0801
    1SOL     OW11473   3.123   3.308   4.569  0.0725 -0.1259 -0.0147
    1SOL    HW211474   3.080   3.223   4.583 -0.7734 -0.0320 -1.9392
    1SOL    HW311475   3.216   3.290   4.579 -0.0076 -1.5617 -1.6983
    1SOL    MW411476   3.130   3.295   4.572 -0.0498 -0.3030 -0.4907
    1SOL     OW11477   1.140   1.237   4.235 -0.8262 -0.1345  0.0349
    1SOL    HW211478   1.153   1.250   4.329  0.2815 -2.5538  0.2620
    1SOL    HW311479   1.221   1.196   4.205 -1.6828 -0.5799 -1.7283
    1SOL    MW411480   1.152   1.233   4.243 -0.7932 -0.5124 -0.1674
    1SOL     OW11481   1.455   1.297   4.472  0.1863 -0.1178 -0.5385
    1SOL    HW211482   1.365   1.266   4.457 -0.0386  0.3276 -0.1193
    1SOL    HW311483   1.496   1.292   4.385 -0.3499  0.0219 -0.8049
    1SOL    MW411484   1.448   1.292   4.458  0.0859 -0.0407 -0.5183
    1SOL     OW11485   4.010   2.040   4.154 -0.2467  0.1865 -0.0757
    1SOL    HW211486   3.933   2.089   4.182  0.5363  0.7039  1.2383
    1SOL    HW311487   4.029   1.981   4.227  0.0023 -0.6453 -0.8104
    1SOL    MW411488   4.002   2.039   4.167 -0.1106  0.1452  0.0005
    1SOL     OW11489   2.964   4.567   4.113 -0.1976  0.0715  0.2462
    1SOL    HW211490   3.031   4.621   4.155 -0.1952  0.9215 -0.8097
    1SOL    HW311491   2.953   4.492   4.171 -0.7631  1.5892  2.1745
    1SOL    MW411492   2.971   4.564   4.126 -0.2720  0.3839  0.3610
    1SOL     OW11493   0.635   0.739   4.549  0.4571  0.2910 -0.6778
    1SOL    HW211494   0.629   0.644   4.558  0.5955  0.4141  0.8938
    1SOL    HW311495   0.550   0.765   4.513 -0.2084 -0.2779  0.4384
    1SOL    MW411496   0.623   0.730   4.546  0.3875  0.2322 -0.3228
    1SOL     OW11497   1.548   4.325   4.586 -0.2771 -0.3936 -0.2543
    1SOL    HW211498   1.529   4.327   4.492 -1.8901 -1.4670  0.0426
    1SOL    HW311499   1.471   4.365   4.627  1.2426  1.8560  0.5178
    1SOL    MW411500   1.536   4.331   4.579 -0.2894 -0.2379 -0.1135
    1SOL     OW11501   4.011   1.911   4.626 -0.1262 -0.2693  0.2793
    1SOL    HW211502   4.034   1.825   4.660  0.5606 -0.6352 -1.0593
    1SOL    HW311503   4.086   1.966   4.650  0.1341 -0.4120 -0.1956
    1SOL    MW411504   4.024   1.907   4.634 -0.0014 -0.3364  0.0405
    1SOL     OW11505   4.171   2.312   4.536 -0.0144 -0.6032  0.1890
    1SOL    HW211506   4.091   2.364   4.531 -0.1036 -0.7874 -0.4433
    1SOL    HW311507   4.235   2.369   4.578 -0.3232 -0.2490  0.1798
    1SOL    MW411508   4.169   2.326   4.541 -0.0672 -0.5808  0.1044
    1SOL     OW11509   2.956   3.539   4.513 -0.3046  0.0086 -0.2924
    1SOL    HW211510   2.877   3.557   4.563 -1.3306 -1.7010 -1.2505
    1SOL    HW311511   2.998   3.466   4.559 -0.2953 -0.3668 -0.8980
    1SOL    MW411512   2.951   3.532   4.526 -0.4387 -0.2666 -0.4988
    1SOL     OW11513   1.425   3.583   4.492  0.6012 -0.3856 -0.0388
    1SOL    HW211514   1.346   3.610   4.539  0.3717  0.1418 -0.7131
    1SOL    HW311515   1.497   3.608   4.549  0.3235  0.2155  0.0552
    1SOL    MW411516   1.424   3.590   4.506  0.5343 -0.2367 -0.1149
    1SOL     OW11517   1.752   3.507   4.167 -0.0476 -0.0573 -0.1635
    1SOL    HW211518   1.745   3.489   4.073  0.1318 -1.9140  0.1457
    1SOL    HW311519   1.665   3.536   4.193 -0.3260 -0.3641 -0.7417
    1SOL    MW411520   1.740   3.508   4.158 -0.0606 -0.3428 -0.1993
    1SOL     OW11521   1.712   1.627   4.747 -0.3454 -0.0315 -0.4287
    1SOL    HW211522   1.742   1.661   4.662  0.1226 -1.2162 -0.7428
    1SOL    HW311523   1.620   1.605   4.732 -0.4708  0.4705 -0.4115
    1SOL    MW411524   1.704   1.629   4.734 -0.3003 -0.1216 -0.4673
    1SOL     OW11525   2.186   2.244   4.696  0.0460  0.3285 -0.3736
    1SOL    HW211526   2.193   2.237   4.601  0.1071  0.2353 -0.3622
    1SOL    HW311527   2.222   2.331   4.716 -1.2411  0.9269 -0.5747
    1SOL    MW411528   2.191   2.255   4.686 -0.1156  0.3951 -0.3986
    1SOL     OW11529   0.846   3.449   4.161 -0.0556 -0.0792 -0.0126
    1SOL    HW211530   0.857   3.365   4.204 -0.6977  0.5038  1.3091
    1SOL    HW311531   0.837   3.427   4.068 -0.6516 -1.5071  0.3667
    1SOL    MW411532   0.846   3.435   4.154 -0.2190 -0.1907  0.2117
    1SOL     OW11533   0.015   1.637   4.254  0.5276 -0.2795 -0.1884
    1SOL    HW211534   0.010   1.615   4.347 -0.3801  2.5692  0.4739
    1SOL    HW311535  -0.067   1.604   4.217  0.4687 -0.5642  0.1898
    1SOL    MW411536   0.004   1.629   4.261  0.4001  0.0588 -0.0505
    1SOL     OW11537   4.044   3.253   4.564  0.0200 -0.0806 -0.1279
    1SOL    HW211538   4.056   3.230   4.472  0.3865  0.2604 -0.1708
    1SOL    HW311539   4.102   3.194   4.611  0.5769  0.3973 -0.1982
    1SOL    MW411540   4.053   3.242   4.558  0.1421  0.0274 -0.1435
    1SOL     OW11541   3.304   2.486   4.275  0.2937 -0.3215  0.0122
    1SOL    HW211542   3.253   2.518   4.350  0.7035 -0.3801  0.3142
    1SOL    HW311543   3.282   2.392   4.271 -0.9621  0.0065 -0.9177
    1SOL    MW411544   3.294   2.478   4.285  0.1822 -0.2861 -0.0706
    1SOL     OW11545   4.412   4.255   4.180 -0.0751  0.3302 -0.5021
    1SOL    HW211546   4.344   4.316   4.208  2.4819  2.8419  0.5355
    1SOL    HW311547   4.420   4.269   4.086  0.2738  1.3803 -0.3176
    1SOL    MW411548   4.404   4.265   4.171  0.3090  0.8001 -0.3409
    1SOL     OW11549   1.961   2.457   4.148 -0.8937  0.1902  0.3560
    1SOL    HW211550   1.907   2.436   4.224 -0.6373  0.6333  0.6566
    1SOL    HW311551   2.049   2.468   4.182 -0.3451 -1.8537 -0.3180
    1SOL    MW411552   1.965   2.455   4.162 -0.7875 -0.0207  0.3066
    1SOL     OW11553   0.886   0.330   4.129 -0.3557  0.0138  0.0530
    1SOL    HW211554   0.966   0.380   4.146 -0.4375  0.5252 -0.9953
    1SOL    HW311555   0.822   0.364   4.191 -0.1482  0.5836 -0.0450
    1SOL    MW411556   0.888   0.341   4.139 -0.3392  0.1564 -0.0987
    1NA      NA11557   3.130   3.959   0.439 -0.1950 -0.1833  0.2269
    1NA      NA11558   0.926   2.458   0.679  0.2841  0.3034  0.0681
   4.49070   4.66690  10.00000
