Good gRace! Old Maple Actually Chews Slate
  199
    1DC     C4'    1  -0.105   0.619   1.022
    1DC     O5'    2   0.101   0.554   1.118
    1DC     O3'    3  -0.297   0.475   1.022
    1DC     O4'    4  -0.054   0.642   0.891
    1DC     C1'    5  -0.088   0.536   0.805
    1DC     C2'    6  -0.098   0.417   0.893
    1DC     C5'    7  -0.000   0.649   1.121
    1DC     C3'    8  -0.154   0.475   1.022
    1DC      C6    9   0.137   0.502   0.735
    1DC      C2   10  -0.028   0.555   0.573
    1DC      N1   11   0.009   0.525   0.702
    1DC      N3   12   0.065   0.552   0.476
    1DC      N4   13   0.281   0.525   0.406
    1DC      O2   14  -0.145   0.581   0.547
    1DC      C5   15   0.231   0.498   0.640
    1DC      C4   16   0.191   0.524   0.504
    2DC     C4'   17  -0.541   0.397   0.681
    2DC     O5'   18  -0.435   0.333   0.882
    2DC     O3'   19  -0.710   0.261   0.577
    2DC     O4'   20  -0.423   0.407   0.603
    2DC     C1'   21  -0.410   0.295   0.518
    2DC     OP1   22  -0.489   0.378   1.118
    2DC     C2'   23  -0.479   0.185   0.591
    2DC       P   24  -0.378   0.349   1.027
    2DC     OP2   25  -0.292   0.235   1.060
    2DC     C5'   26  -0.510   0.432   0.821
    2DC     C3'   27  -0.594   0.256   0.660
    2DC      C6   28  -0.190   0.245   0.593
    2DC      C2   29  -0.227   0.289   0.363
    2DC      N1   30  -0.273   0.270   0.492
    2DC      N3   31  -0.095   0.274   0.338
    2DC      N4   32   0.118   0.232   0.408
    2DC      O2   33  -0.305   0.317   0.273
    2DC      C5   34  -0.058   0.229   0.570
    2DC      C4   35  -0.012   0.243   0.435
    3DC     C4'   36  -0.720   0.163   0.163
    3DC     O5'   37  -0.754   0.114   0.391
    3DC     O3'   38  -0.810   0.026  -0.013
    3DC     O4'   39  -0.578   0.161   0.167
    3DC     C1'   40  -0.529   0.041   0.111
    3DC     OP1   41  -0.930   0.182   0.549
    3DC     C2'   42  -0.636  -0.059   0.136
    3DC       P   43  -0.790   0.140   0.541
    3DC     OP2   44  -0.748   0.027   0.623
    3DC     C5'   45  -0.772   0.209   0.293
    3DC     C3'   46  -0.763   0.023   0.122
    3DC      C6   47  -0.396  -0.011   0.302
    3DC      C2   48  -0.291   0.014   0.091
    3DC      N1   49  -0.404   0.009   0.170
    3DC      N3   50  -0.171  -0.008   0.147
    3DC      N4   51  -0.040  -0.053   0.330
    3DC      O2   52  -0.301   0.037  -0.028
    3DC      C5   53  -0.278  -0.034   0.360
    3DC      C4   54  -0.161  -0.034   0.277
    4DC     C4'   55  -0.589  -0.109  -0.350
    4DC     O5'   56  -0.752  -0.136  -0.182
    4DC     O3'   57  -0.573  -0.258  -0.539
    4DC     O4'   58  -0.475  -0.117  -0.265
    4DC     C1'   59  -0.414  -0.243  -0.276
    4DC     OP1   60  -0.980  -0.047  -0.158
    4DC     C2'   61  -0.524  -0.336  -0.312
    4DC       P   62  -0.865  -0.095  -0.082
    4DC     OP2   63  -0.887  -0.202   0.015
    4DC     C5'   64  -0.702  -0.050  -0.278
    4DC     C3'   65  -0.612  -0.251  -0.402
    4DC      C6   66  -0.420  -0.283  -0.041
    4DC      C2   67  -0.211  -0.282  -0.153
    4DC      N1   68  -0.349  -0.275  -0.154
    4DC      N3   69  -0.147  -0.304  -0.037
    4DC      N4   70  -0.149  -0.337   0.189
    4DC      O2   71  -0.148  -0.269  -0.257
    4DC      C5   72  -0.359  -0.306   0.076
    4DC      C4   73  -0.215  -0.318   0.075
    5DC     C4'   74  -0.211  -0.432  -0.679
    5DC     O5'   75  -0.443  -0.437  -0.635
    5DC     O3'   76  -0.103  -0.599  -0.816
    5DC     O4'   77  -0.168  -0.437  -0.544
    5DC     C1'   78  -0.123  -0.566  -0.510
    5DC     OP1   79  -0.634  -0.337  -0.752
    5DC     C2'   80  -0.199  -0.657  -0.599
    5DC       P   81  -0.588  -0.383  -0.621
    5DC     OP2   82  -0.672  -0.479  -0.550
    5DC     C5'   83  -0.340  -0.362  -0.688
    5DC     C3'   84  -0.213  -0.577  -0.727
    5DC      C6   85  -0.266  -0.584  -0.321
    5DC      C2   86  -0.031  -0.601  -0.291
    5DC      N1   87  -0.142  -0.589  -0.372
    5DC      N3   88  -0.047  -0.615  -0.159
    5DC      N4   89  -0.182  -0.628   0.026
    5DC      O2   90   0.081  -0.601  -0.340
    5DC      C5   91  -0.285  -0.598  -0.189
    5DC      C4   92  -0.169  -0.616  -0.106
    1DG     C3'   93   0.863  -0.707   0.253
    1DG     O4'   94   0.678  -0.848   0.220
    1DG     C2'   95   0.734  -0.628   0.247
    1DG     O5'   96   0.787  -0.846   0.488
    1DG     O3'   97   0.944  -0.685   0.137
    1DG     C1'   98   0.641  -0.720   0.177
    1DG     C4'   99   0.816  -0.852   0.254
    1DG     C5'  100   0.834  -0.922   0.382
    1DG      C4  101   0.410  -0.669   0.122
    1DG      N1  102   0.190  -0.641  -0.015
    1DG      N9  103   0.510  -0.680   0.214
    1DG      C8  104   0.449  -0.672   0.334
    1DG      O6  105   0.060  -0.627   0.165
    1DG      C2  106   0.311  -0.658  -0.076
    1DG      N2  107   0.311  -0.656  -0.209
    1DG      N3  108   0.426  -0.673  -0.012
    1DG      C6  109   0.172  -0.640   0.120
    1DG      C5  110   0.294  -0.652   0.192
    1DG      N7  111   0.320  -0.656   0.327
    2DG     OP2  112   0.993  -0.471   0.225
    2DG     C3'  113   0.836  -0.337  -0.233
    2DG     O4'  114   0.672  -0.492  -0.166
    2DG     OP1  115   1.132  -0.592   0.056
    2DG       P  116   1.000  -0.556   0.107
    2DG     C2'  117   0.725  -0.269  -0.156
    2DG     O5'  118   0.916  -0.495  -0.010
    2DG     O3'  119   0.834  -0.303  -0.371
    2DG     C1'  120   0.612  -0.365  -0.168
    2DG     C4'  121   0.804  -0.486  -0.217
    2DG     C5'  122   0.896  -0.561  -0.130
    2DG      C4  123   0.389  -0.332  -0.076
    2DG      N1  124   0.131  -0.316  -0.059
    2DG      N9  125   0.525  -0.339  -0.058
    2DG      C8  126   0.545  -0.343   0.075
    2DG      O6  127   0.128  -0.322   0.164
    2DG      C2  128   0.194  -0.319  -0.179
    2DG      N2  129   0.117  -0.311  -0.288
    2DG      N3  130   0.326  -0.328  -0.194
    2DG      C6  131   0.194  -0.323   0.062
    2DG      C5  132   0.335  -0.329   0.049
    2DG      N7  133   0.435  -0.337   0.144
    3DG     OP2  134   0.916  -0.090  -0.308
    3DG     C3'  135   0.519   0.053  -0.579
    3DG     O4'  136   0.430  -0.119  -0.444
    3DG     OP1  137   0.937  -0.190  -0.537
    3DG       P  138   0.857  -0.169  -0.416
    3DG     C2'  139   0.470   0.107  -0.446
    3DG     O5'  140   0.719  -0.108  -0.457
    3DG     O3'  141   0.436   0.094  -0.687
    3DG     C1'  142   0.374   0.002  -0.400
    3DG     C4'  143   0.508  -0.099  -0.562
    3DG     C5'  144   0.636  -0.169  -0.550
    3DG      C4  145   0.245   0.012  -0.194
    3DG      N1  146   0.043   0.004  -0.031
    3DG      N9  147   0.366   0.015  -0.259
    3DG      C8  148   0.459   0.007  -0.162
    3DG      O6  149   0.170  -0.013   0.152
    3DG      C2  150   0.026   0.013  -0.165
    3DG      N2  151  -0.100   0.020  -0.209
    3DG      N3  152   0.125   0.016  -0.253
    3DG      C6  153   0.166  -0.003   0.030
    3DG      C5  154   0.273   0.004  -0.061
    3DG      N7  155   0.409  -0.001  -0.042
    4DG     OP2  156   0.530   0.309  -0.664
    4DG     C3'  157   0.044   0.431  -0.643
    4DG     O4'  158   0.056   0.246  -0.499
    4DG     OP1  159   0.419   0.223  -0.871
    4DG       P  160   0.423   0.232  -0.725
    4DG     C2'  161   0.078   0.474  -0.502
    4DG     O5'  162   0.284   0.282  -0.674
    4DG     O3'  163  -0.088   0.470  -0.680
    4DG     C1'  164   0.032   0.359  -0.419
    4DG     C4'  165   0.051   0.278  -0.637
    4DG     C5'  166   0.165   0.219  -0.707
    4DG      C4  167   0.045   0.347  -0.177
    4DG      N1  168  -0.025   0.314   0.071
    4DG      N9  169   0.106   0.365  -0.298
    4DG      C8  170   0.238   0.359  -0.274
    4DG      O6  171   0.185   0.299   0.146
    4DG      C2  172  -0.117   0.328  -0.028
    4DG      N2  173  -0.245   0.326   0.010
    4DG      N3  174  -0.087   0.345  -0.156
    4DG      C6  175   0.111   0.314   0.050
    4DG      C5  176   0.145   0.335  -0.086
    4DG      N7  177   0.267   0.341  -0.148
    5DG     OP2  178  -0.007   0.692  -0.695
    5DG     C3'  179  -0.396   0.770  -0.389
    5DG     O4'  180  -0.294   0.580  -0.295
    5DG     OP1  181  -0.213   0.607  -0.808
    5DG       P  182  -0.126   0.608  -0.691
    5DG     C2'  183  -0.288   0.808  -0.290
    5DG     O5'  184  -0.212   0.643  -0.565
    5DG     O3'  185  -0.526   0.799  -0.340
    5DG     C1'  186  -0.273   0.686  -0.206
    5DG     C4'  187  -0.380   0.618  -0.401
    5DG     C5'  188  -0.325   0.572  -0.530
    5DG      C4  189  -0.122   0.663  -0.018
    5DG      N1  190  -0.034   0.612   0.221
    5DG      N9  191  -0.143   0.692  -0.150
    5DG      C8  192  -0.021   0.696  -0.206
    5DG      O6  193   0.181   0.610   0.160
    5DG      C2  194  -0.167   0.622   0.195
    5DG      N2  195  -0.249   0.608   0.299
    5DG      N3  196  -0.217   0.648   0.076
    5DG      C6  197   0.065   0.624   0.127
    5DG      C5  198   0.013   0.655  -0.002
    5DG      N7  199   0.076   0.675  -0.122
   0.00000   0.00000   0.00000
