Giant Rising Ordinary Mutants for A Clerical Setup
  164
    1DG     O5'    1   2.539   2.697   6.438
    1DG     H5T    2   2.608   2.720   6.506
    1DG     C5'    3   2.438   2.792   6.441
    1DG    H5'1    4   2.480   2.881   6.422
    1DG    H5'2    5   2.399   2.792   6.533
    1DG     C4'    6   2.333   2.762   6.341
    1DG     H4'    7   2.258   2.825   6.362
    1DG     O4'    8   2.383   2.786   6.211
    1DG     C1'    9   2.350   2.680   6.124
    1DG     H1'   10   2.271   2.708   6.069
    1DG      N9   11   2.440   2.653   6.027
    1DG      C8   12   2.571   2.622   6.035
    1DG      H8   13   2.616   2.597   6.121
    1DG      N7   14   2.633   2.627   5.921
    1DG      C5   15   2.535   2.664   5.831
    1DG      C6   16   2.541   2.688   5.691
    1DG      O6   17   2.638   2.681   5.617
    1DG      N1   18   2.420   2.724   5.639
    1DG      H1   19   2.415   2.741   5.541
    1DG      C2   20   2.307   2.738   5.712
    1DG      N2   21   2.196   2.773   5.645
    1DG     H21   22   2.200   2.787   5.546
    1DG     H22   23   2.110   2.785   5.694
    1DG      N3   24   2.299   2.719   5.843
    1DG      C4   25   2.417   2.681   5.895
    1DG     C3'   26   2.284   2.618   6.341
    1DG     H3'   27   2.308   2.563   6.421
    1DG     C2'   28   2.340   2.561   6.213
    1DG    H2'1   29   2.430   2.520   6.228
    1DG    H2'2   30   2.278   2.493   6.174
    1DG     O3'   31   2.141   2.618   6.341
    2DG       P   32   2.060   2.492   6.347
    2DG     O1P   33   1.949   2.522   6.437
    2DG     O2P   34   2.146   2.379   6.379
    2DG     O5'   35   2.004   2.476   6.202
    2DG     C5'   36   1.928   2.575   6.141
    2DG    H5'1   37   1.980   2.660   6.145
    2DG    H5'2   38   1.844   2.585   6.194
    2DG     C4'   39   1.897   2.540   6.001
    2DG     H4'   40   1.829   2.608   5.973
    2DG     O4'   41   2.015   2.550   5.922
    2DG     C1'   42   2.028   2.438   5.838
    2DG     H1'   43   1.997   2.464   5.747
    2DG      N9   44   2.155   2.399   5.812
    2DG      C8   45   2.255   2.363   5.896
    2DG      H8   46   2.241   2.344   5.993
    2DG      N7   47   2.371   2.355   5.838
    2DG      C5   48   2.346   2.388   5.707
    2DG      C6   49   2.433   2.399   5.596
    2DG      O6   50   2.554   2.381   5.592
    2DG      N1   51   2.367   2.435   5.481
    2DG      H1   52   2.421   2.443   5.397
    2DG      C2   53   2.234   2.460   5.474
    2DG      N2   54   2.186   2.493   5.354
    2DG     H21   55   2.247   2.498   5.275
    2DG     H22   56   2.089   2.513   5.343
    2DG      N3   57   2.151   2.453   5.577
    2DG      C4   58   2.214   2.416   5.690
    2DG     C3'   59   1.844   2.399   5.979
    2DG     H3'   60   1.811   2.351   6.060
    2DG     C2'   61   1.959   2.328   5.911
    2DG    H2'1   62   2.020   2.286   5.978
    2DG    H2'2   63   1.926   2.258   5.847
    2DG     O3'   64   1.728   2.405   5.897
    3DG       P   65   1.648   2.283   5.861
    3DG     O1P   66   1.508   2.326   5.869
    3DG     O2P   67   1.690   2.170   5.943
    3DG     O5'   68   1.684   2.257   5.711
    3DG     C5'   69   1.666   2.352   5.613
    3DG    H5'1   70   1.714   2.435   5.643
    3DG    H5'2   71   1.568   2.370   5.607
    3DG     C4'   72   1.718   2.307   5.483
    3DG     H4'   73   1.685   2.376   5.419
    3DG     O4'   74   1.860   2.304   5.486
    3DG     C1'   75   1.909   2.184   5.431
    3DG     H1'   76   1.938   2.201   5.337
    3DG      N9   77   2.024   2.138   5.486
    3DG      C8   78   2.054   2.106   5.613
    3DG      H8   79   1.985   2.097   5.685
    3DG      N7   80   2.181   2.088   5.634
    3DG      C5   81   2.240   2.110   5.511
    3DG      C6   82   2.375   2.107   5.470
    3DG      O6   83   2.474   2.084   5.537
    3DG      N1   84   2.390   2.135   5.337
    3DG      H1   85   2.483   2.133   5.299
    3DG      C2   86   2.288   2.165   5.253
    3DG      N2   87   2.320   2.189   5.126
    3DG     H21   88   2.416   2.184   5.097
    3DG     H22   89   2.249   2.212   5.060
    3DG      N3   90   2.161   2.171   5.289
    3DG      C4   91   2.144   2.142   5.419
    3DG     C3'   92   1.675   2.166   5.442
    3DG     H3'   93   1.598   2.127   5.492
    3DG     C2'   94   1.802   2.085   5.456
    3DG    H2'1   95   1.811   2.046   5.548
    3DG    H2'2   96   1.806   2.011   5.388
    3DG     O3'   97   1.628   2.169   5.307
    4DG       P   98   1.573   2.048   5.238
    4DG     O1P   99   1.458   2.097   5.161
    4DG     O2P  100   1.551   1.941   5.335
    4DG     O5'  101   1.686   2.007   5.138
    4DG     C5'  102   1.736   2.094   5.042
    4DG    H5'1  103   1.765   2.177   5.089
    4DG    H5'2  104   1.662   2.116   4.979
    4DG     C4'  105   1.849   2.034   4.969
    4DG     H4'  106   1.865   2.098   4.893
    4DG     O4'  107   1.963   2.026   5.054
    4DG     C1'  108   2.024   1.900   5.044
    4DG     H1'  109   2.103   1.909   4.983
    4DG      N9  110   2.083   1.854   5.157
    4DG      C8  111   2.031   1.833   5.280
    4DG      H8  112   1.933   1.834   5.299
    4DG      N7  113   2.121   1.812   5.371
    4DG      C5  114   2.241   1.820   5.304
    4DG      C6  115   2.375   1.808   5.349
    4DG      O6  116   2.415   1.787   5.462
    4DG      N1  117   2.466   1.823   5.248
    4DG      H1  118   2.563   1.814   5.271
    4DG      C2  119   2.433   1.849   5.119
    4DG      N2  120   2.534   1.860   5.032
    4DG     H21  121   2.628   1.849   5.063
    4DG     H22  122   2.515   1.879   4.936
    4DG      N3  123   2.309   1.863   5.074
    4DG      C4  124   2.219   1.847   5.172
    4DG     C3'  125   1.826   1.892   4.918
    4DG     H3'  126   1.731   1.860   4.916
    4DG     C2'  127   1.914   1.807   5.007
    4DG    H2'1  128   1.865   1.776   5.088
    4DG    H2'2  129   1.950   1.728   4.958
    4DG     O3'  130   1.865   1.885   4.781
    5DG       P  131   1.850   1.760   4.699
    5DG     O1P  132   1.804   1.807   4.568
    5DG     O2P  133   1.766   1.664   4.770
    5DG     O5'  134   1.995   1.706   4.685
    5DG     C5'  135   2.098   1.781   4.632
    5DG    H5'1  136   2.102   1.867   4.683
    5DG    H5'2  137   2.075   1.800   4.536
    5DG     C4'  138   2.227   1.711   4.641
    5DG     H4'  139   2.289   1.767   4.586
    5DG     O4'  140   2.270   1.706   4.776
    5DG     C1'  141   2.315   1.577   4.809
    5DG     H1'  142   2.415   1.577   4.803
    5DG      N9  143   2.294   1.539   4.938
    5DG      C8  144   2.180   1.532   5.009
    5DG      H8  145   2.089   1.539   4.968
    5DG      N7  146   2.199   1.515   5.136
    5DG      C5  147   2.336   1.512   5.150
    5DG      C6  148   2.418   1.499   5.265
    5DG      O6  149   2.384   1.486   5.381
    5DG      N1  150   2.552   1.501   5.235
    5DG      H1  151   2.617   1.490   5.310
    5DG      C2  152   2.601   1.517   5.109
    5DG      N2  153   2.734   1.515   5.097
    5DG     H21  154   2.791   1.502   5.178
    5DG     H22  155   2.776   1.526   5.007
    5DG      N3  156   2.527   1.532   5.001
    5DG      C4  157   2.396   1.528   5.029
    5DG     C3'  158   2.225   1.566   4.593
    5DG     H3'  159   2.146   1.538   4.538
    5DG     C2'  160   2.239   1.486   4.721
    5DG    H2'1  161   2.150   1.465   4.761
    5DG    H2'2  162   2.290   1.401   4.706
    5DG     O3'  163   2.335   1.545   4.504
    5DG     H3T  164   2.334   1.450   4.472
   4.49070   4.66690  10.00000
