Gromacs Runs On Most of All Computer Systems in water
11585
    1C      O5'    1   1.324   2.852   4.794 -0.5133  0.1216  0.0689
    1C      H5T    2   1.321   2.948   4.784  2.1381  0.1891 -0.6052
    1C      C5'    3   1.239   2.799   4.897  0.0982 -0.4611 -0.1955
    1C     H5'1    4   1.280   2.831   4.992 -0.5447  0.5228 -0.2413
    1C     H5'2    5   1.256   2.691   4.893 -0.1963 -0.4783 -1.0187
    1C      C4'    6   1.095   2.830   4.888  0.0655 -0.1348  0.0863
    1C      H4'    7   1.044   2.757   4.951  0.7773  1.2014  2.2742
    1C      O4'    8   1.075   2.960   4.941  0.6336 -0.3012 -0.1824
    1C      C1'    9   0.960   3.015   4.867  0.5480 -0.4195  0.7735
    1C      H1'   10   0.877   3.025   4.938  0.3141 -0.7473  0.5494
    1C       N1   11   1.000   3.152   4.817  0.1628  0.1286  0.2646
    1C       C6   12   1.135   3.198   4.808  0.0652  0.3582  0.4854
    1C       H6   13   1.214   3.128   4.828  1.1432  1.2246 -0.6367
    1C       C5   14   1.156   3.323   4.763 -0.3055  0.7296 -0.0753
    1C       H5   15   1.256   3.362   4.757  0.1189 -0.0565  1.8183
    1C       C4   16   1.046   3.407   4.730 -0.1051  0.2027  0.3620
    1C       N4   17   1.067   3.530   4.702  0.4851  0.1673  0.2742
    1C      H41   18   1.163   3.556   4.683  0.4098  0.5138  0.3678
    1C      H42   19   0.988   3.584   4.668  0.0243 -0.6417  0.0365
    1C       N3   20   0.923   3.360   4.734 -0.2687  0.1378 -0.5771
    1C       C2   21   0.900   3.236   4.771 -0.1567  0.1228 -0.0322
    1C       O2   22   0.784   3.200   4.769  0.0345 -0.2324 -0.1576
    1C      C3'   23   1.037   2.826   4.743  0.2033 -0.3448 -0.2467
    1C      H3'   24   1.111   2.880   4.684  0.4717 -0.2811  0.1415
    1C      C2'   25   0.915   2.907   4.766  0.5178 -0.2067 -0.0038
    1C     H2'1   26   0.878   2.943   4.670 -0.2155 -0.9160  0.0022
    1C      O2'   27   0.803   2.840   4.831 -0.4563  0.2867 -0.1996
    1C     HO'2   28   0.798   2.746   4.812  0.6160  0.3015 -0.5749
    1C      O3'   29   1.006   2.700   4.691 -0.3788 -0.0348  0.2869
    2G        P   30   0.990   2.680   4.538  0.2203  0.0680 -0.1114
    2G      O1P   31   1.013   2.807   4.466  0.3615 -0.1349 -0.0901
    2G      O2P   32   0.863   2.612   4.527  0.1410  0.6372 -0.4910
    2G      O5'   33   1.109   2.587   4.496  0.0094 -0.1950  0.1746
    2G      C5'   34   1.103   2.444   4.519 -0.1628 -0.4636 -0.2951
    2G     H5'1   35   1.076   2.390   4.429 -0.9456  0.5973 -0.7100
    2G     H5'2   36   1.028   2.428   4.597  1.1251  1.5507  1.4186
    2G      C4'   37   1.235   2.390   4.566 -0.2376 -0.4661  0.0501
    2G      H4'   38   1.232   2.282   4.571  1.3343 -0.5225 -0.0879
    2G      O4'   39   1.346   2.434   4.487  0.3662  0.0197 -0.0189
    2G      C1'   40   1.467   2.463   4.561  0.3064 -0.2426  0.7036
    2G      H1'   41   1.551   2.397   4.540  0.2837 -0.1031  0.1756
    2G       N9   42   1.506   2.608   4.544  0.2456  0.1567  0.0725
    2G       C8   43   1.422   2.718   4.517  0.2785  0.3472 -0.3452
    2G       H8   44   1.317   2.708   4.495  0.1872  0.3424  0.0802
    2G       N7   45   1.483   2.833   4.515 -0.0510 -0.0538  0.1516
    2G       C5   46   1.613   2.805   4.559 -0.2583 -0.0781  0.1482
    2G       C6   47   1.728   2.891   4.577  0.4828  0.5182 -0.0860
    2G       O6   48   1.743   3.013   4.566 -0.2268  0.1968 -0.2144
    2G       N1   49   1.847   2.819   4.594  0.1250 -0.1872 -0.0001
    2G       H1   50   1.932   2.874   4.599 -0.0363  0.2601 -1.8390
    2G       C2   51   1.856   2.687   4.600  0.0019 -0.1322  0.1963
    2G       N2   52   1.980   2.638   4.606 -0.7070 -0.0974 -0.0302
    2G      H21   53   2.056   2.704   4.614 -1.3946  0.9893 -2.1055
    2G      H22   54   1.992   2.540   4.624 -1.7688 -0.0108  1.2413
    2G       N3   55   1.753   2.605   4.584 -0.1586  0.3439 -0.1307
    2G       C4   56   1.633   2.670   4.563 -0.0115  0.0710 -0.6663
    2G      C3'   57   1.276   2.455   4.702 -0.1314  0.5351 -0.4700
    2G      H3'   58   1.249   2.561   4.702  0.0715  0.6090  1.5773
    2G      C2'   59   1.428   2.446   4.707 -0.6063  0.3271 -0.2876
    2G     H2'1   60   1.471   2.525   4.767 -0.0131  0.1645 -0.4893
    2G      O2'   61   1.476   2.316   4.754 -0.3530 -0.0177 -0.4034
    2G     HO'2   62   1.462   2.315   4.849 -0.6011  1.4537 -0.4117
    2G      O3'   63   1.224   2.399   4.827 -0.6883  0.2646  0.3268
    2G      H3T   64   1.129   2.398   4.814 -0.8693 -0.2898  1.6550
    5SOL     OW   65   0.890   2.234   0.462 -0.1493  0.3707  0.4675
    5SOL    HW2   66   0.886   2.328   0.442 -0.8609  0.0862 -0.7227
    5SOL    HW3   67   0.980   2.210   0.441 -0.1355  0.6520  0.1961
    5SOL    MW4   68   0.902   2.244   0.457 -0.2414  0.3705  0.2747
    6SOL     OW   69   1.592   0.669   0.833 -0.4579 -0.0474 -0.4582
    6SOL    HW2   70   1.516   0.699   0.785 -0.0448  0.7193 -0.6359
    6SOL    HW3   71   1.619   0.589   0.788 -0.5488  0.2307 -1.0119
    6SOL    MW4   72   1.585   0.662   0.821 -0.4154  0.0904 -0.5546
    7SOL     OW   73   2.807   3.709   0.426 -0.4204  0.0156  0.2676
    7SOL    HW2   74   2.747   3.642   0.395 -1.2214  0.6096  0.5118
    7SOL    HW3   75   2.893   3.667   0.426 -0.6795 -0.5164 -1.0810
    7SOL    MW4   76   2.810   3.695   0.422 -0.5603  0.0234  0.1219
    8SOL     OW   77   3.623   2.445   0.512 -0.2042 -0.3515 -0.0039
    8SOL    HW2   78   3.668   2.363   0.491  1.0297  0.5415 -0.9526
    8SOL    HW3   79   3.690   2.512   0.503 -0.7585  0.6042  2.4691
    8SOL    MW4   80   3.638   2.443   0.508 -0.1144 -0.1075  0.1972
    9SOL     OW   81   2.729   1.662   0.801  0.1266 -0.0975 -0.5459
    9SOL    HW2   82   2.797   1.597   0.818 -0.1429 -0.3234 -0.3303
    9SOL    HW3   83   2.648   1.618   0.824 -0.2459 -0.3564 -2.2684
    9SOL    MW4   84   2.728   1.648   0.806  0.0420 -0.1613 -0.7447
   10SOL     OW   85   3.876   2.811   0.282  0.4881 -0.4756 -0.8833
   10SOL    HW2   86   3.920   2.801   0.197  0.2512  0.8547 -1.1639
   10SOL    HW3   87   3.785   2.830   0.260  0.9788  2.6471 -0.3870
   10SOL    MW4   88   3.870   2.812   0.268  0.5217  0.1118 -0.8548
   11SOL     OW   89   3.648   0.145   0.754 -0.4641 -0.0746 -0.3673
   11SOL    HW2   90   3.732   0.105   0.777 -1.2459 -0.4087  1.9658
   11SOL    HW3   91   3.656   0.236   0.783 -0.7446  0.0258 -0.5969
   11SOL    MW4   92   3.660   0.152   0.761 -0.6042 -0.1054 -0.0897
   12SOL     OW   93   4.348   3.007   0.607  0.0874  0.2597  0.2181
   12SOL    HW2   94   4.424   2.970   0.561 -0.2327 -0.0081 -0.1047
   12SOL    HW3   95   4.295   3.044   0.537 -0.6941 -0.6739  0.3056
   12SOL    MW4   96   4.351   3.007   0.591 -0.0582  0.1011  0.1871
   13SOL     OW   97   1.236   1.264   0.425 -0.0462 -0.0834  0.1804
   13SOL    HW2   98   1.222   1.256   0.519  0.4487  1.4466  0.4120
   13SOL    HW3   99   1.212   1.355   0.405 -0.7518 -0.5722 -1.2842
   13SOL    MW4  100   1.231   1.275   0.435 -0.0740  0.0539  0.0177
   14SOL     OW  101   1.356   3.210   0.691 -0.4710  0.2383 -0.0514
   14SOL    HW2  102   1.443   3.171   0.681  0.0058  1.0420  0.8803
   14SOL    HW3  103   1.313   3.195   0.607  0.1982 -1.0733 -0.1770
   14SOL    MW4  104   1.361   3.203   0.679 -0.3198  0.1714  0.0549
   15SOL     OW  105   0.914   1.149   1.082  0.5029  0.0609  0.1439
   15SOL    HW2  106   0.894   1.059   1.109 -0.8218  0.4387  0.4673
   15SOL    HW3  107   1.000   1.167   1.119  0.6676 -0.9846  0.2867
   15SOL    MW4  108   0.923   1.140   1.090  0.3498 -0.0273  0.2053
   16SOL     OW  109   2.686   2.220   0.529 -0.1265 -0.5145 -0.4183
   16SOL    HW2  110   2.774   2.202   0.497 -0.4163 -0.0736 -1.4523
   16SOL    HW3  111   2.698   2.293   0.591  0.1292  0.0161 -1.0917
   16SOL    MW4  112   2.699   2.227   0.533 -0.1309 -0.3865 -0.6436
   17SOL     OW  113   0.950   1.671   0.703 -0.1427 -0.1982 -0.4193
   17SOL    HW2  114   0.951   1.745   0.764 -0.6050 -1.6941  1.4702
   17SOL    HW3  115   1.016   1.611   0.739 -0.9666 -1.4396 -0.9627
   17SOL    MW4  116   0.959   1.673   0.716 -0.3124 -0.5592 -0.2418
   18SOL     OW  117   0.955   2.754   0.321 -0.0262  0.1059 -0.5291
   18SOL    HW2  118   1.022   2.792   0.377  0.3270 -0.9235 -0.2438
   18SOL    HW3  119   1.003   2.699   0.259 -0.3295  1.9455 -2.4378
   18SOL    MW4  120   0.970   2.751   0.320 -0.0197  0.2129 -0.7433
   19SOL     OW  121   2.312   2.470   0.791 -0.6150 -0.0551 -0.3984
   19SOL    HW2  122   2.236   2.415   0.811 -0.5583 -0.2365 -0.6851
   19SOL    HW3  123   2.311   2.479   0.696 -0.7952  0.6857 -0.3335
   19SOL    MW4  124   2.302   2.464   0.781 -0.6313  0.0188 -0.4277
   20SOL     OW  125   4.049   4.009   1.261  0.5775  0.4114 -0.0533
   20SOL    HW2  126   4.124   3.968   1.216  0.8686 -0.4163  1.1751
   20SOL    HW3  127   3.973   3.980   1.210  0.9007 -0.5644  0.0099
   20SOL    MW4  128   4.049   3.999   1.248  0.6585  0.1736  0.1172
   21SOL     OW  129   4.461   0.265   0.344 -0.3029 -0.0749  0.3437
   21SOL    HW2  130   4.380   0.268   0.395  0.4131 -0.2955  1.4877
   21SOL    HW3  131   4.442   0.201   0.274 -0.7219 -0.9938  1.2836
   21SOL    MW4  132   4.448   0.257   0.341 -0.2632 -0.2253  0.6186
   22SOL     OW  133   2.730   2.722   0.372  0.1561  0.0871 -0.1863
   22SOL    HW2  134   2.784   2.645   0.390  0.5509  0.7068  1.3399
   22SOL    HW3  135   2.790   2.796   0.384 -0.9180  0.7610  1.0898
   22SOL    MW4  136   2.745   2.722   0.376  0.0663  0.2577  0.1835
   23SOL     OW  137   0.011   2.431   0.789 -0.1333 -0.1608 -0.0194
   23SOL    HW2  138   0.101   2.407   0.813  0.6151  1.3672 -1.2134
   23SOL    HW3  139  -0.003   2.516   0.830 -0.2312  0.6411 -1.6798
   23SOL    MW4  140   0.021   2.439   0.797 -0.0472  0.1464 -0.3960
   24SOL     OW  141   3.342   1.278   0.740  0.0572 -0.6892  0.1263
   24SOL    HW2  142   3.273   1.219   0.769 -1.3000  0.6782 -0.2531
   24SOL    HW3  143   3.330   1.357   0.793  0.5980 -0.0018 -0.7623
   24SOL    MW4  144   3.332   1.281   0.751 -0.0505 -0.4179 -0.0410
   25SOL     OW  145   4.266   0.554   0.734  0.0138 -0.2597  0.2598
   25SOL    HW2  146   4.220   0.530   0.653 -1.5667 -0.3260  1.1508
   25SOL    HW3  147   4.328   0.483   0.748 -0.4020 -0.7569 -0.3769
   25SOL    MW4  148   4.268   0.541   0.725 -0.2494 -0.3341  0.2934
   26SOL     OW  149   2.975   4.093   0.345  0.0630  0.4574 -0.6911
   26SOL    HW2  150   3.051   4.083   0.401 -0.2710  1.4879 -0.0362
   26SOL    HW3  151   2.916   4.022   0.370  0.0871  0.6741 -0.0358
   26SOL    MW4  152   2.977   4.082   0.355  0.0219  0.6218 -0.5182
   27SOL     OW  153   2.935   4.512   0.502 -0.1459  0.0840  0.0227
   27SOL    HW2  154   2.886   4.591   0.481 -1.5260 -0.1087  2.3575
   27SOL    HW3  155   2.890   4.442   0.455  1.1986  0.6779 -2.2050
   27SOL    MW4  156   2.923   4.513   0.493 -0.1504  0.1369  0.0368
   28SOL     OW  157   2.107   2.293   0.832  0.5789 -0.3631  0.5353
   28SOL    HW2  158   2.075   2.292   0.922  1.2791 -0.7083  0.7791
   28SOL    HW3  159   2.094   2.203   0.800 -1.2817  0.1740 -0.2802
   28SOL    MW4  160   2.101   2.281   0.839  0.4258 -0.3378  0.4598
   29SOL     OW  161   0.245   3.872   0.817  0.0827  0.6516 -0.2817
   29SOL    HW2  162   0.250   3.857   0.912  0.5890  0.2191 -0.3786
   29SOL    HW3  163   0.257   3.785   0.779  2.0587  1.1562 -0.8139
   29SOL    MW4  164   0.247   3.858   0.825  0.4102  0.6614 -0.3646
   30SOL     OW  165   0.608   4.318   0.482 -0.2798 -0.0330  0.2536
   30SOL    HW2  166   0.531   4.261   0.473  0.2564 -1.3140  3.0936
   30SOL    HW3  167   0.586   4.396   0.432 -2.5553 -1.2633 -0.7310
   30SOL    MW4  168   0.595   4.321   0.474 -0.5093 -0.3643  0.4984
   31SOL     OW  169   1.563   4.616   1.117  0.0119  0.7563  0.1730
   31SOL    HW2  170   1.555   4.521   1.126  1.8647  0.6234  0.6632
   31SOL    HW3  171   1.579   4.630   1.024  1.6709  0.4162  0.3939
   31SOL    MW4  172   1.564   4.605   1.106  0.4750  0.6943  0.2669
   32SOL     OW  173   3.159   2.441   0.743  0.2719  0.3675 -0.4869
   32SOL    HW2  174   3.240   2.401   0.776  0.4567  1.5710  0.5653
   32SOL    HW3  175   3.152   2.411   0.653  0.9791 -1.1482 -0.0438
   32SOL    MW4  176   3.169   2.432   0.736  0.3898  0.3262 -0.2896
   33SOL     OW  177   1.383   2.432   0.726  0.3916  0.2593 -0.5227
   33SOL    HW2  178   1.458   2.383   0.758  0.5368  0.6077 -0.3222
   33SOL    HW3  179   1.310   2.407   0.783  0.2159 -0.5360 -1.0980
   33SOL    MW4  180   1.383   2.422   0.738  0.3877  0.2005 -0.5722
   34SOL     OW  181   0.897   4.234   0.360  0.1130 -0.2764  0.1119
   34SOL    HW2  182   0.965   4.294   0.390  0.5021 -0.7651  0.2178
   34SOL    HW3  183   0.815   4.277   0.384  0.4216 -1.4247  3.4932
   34SOL    MW4  184   0.895   4.248   0.367  0.2050 -0.4921  0.5720
   35SOL     OW  185   1.827   1.625   0.793 -0.2392  0.1240 -0.1791
   35SOL    HW2  186   1.738   1.613   0.828 -0.6298 -0.6089 -1.3970
   35SOL    HW3  187   1.816   1.618   0.698  1.1568 -0.1374 -0.3225
   35SOL    MW4  188   1.814   1.622   0.785 -0.1065 -0.0070 -0.3588
   36SOL     OW  189   1.634   2.843   0.718  0.4123 -0.3283  0.6063
   36SOL    HW2  190   1.553   2.804   0.750  0.5551 -0.3740  0.9137
   36SOL    HW3  191   1.628   2.835   0.623  0.6880 -1.5951  0.6860
   36SOL    MW4  192   1.622   2.837   0.710  0.4675 -0.5016  0.6574
   37SOL     OW  193   1.657   4.337   0.482  0.1007 -0.2472  0.2125
   37SOL    HW2  194   1.582   4.346   0.424  0.2241 -2.2232 -0.2873
   37SOL    HW3  195   1.681   4.245   0.477  1.3074 -0.0593  1.9407
   37SOL    MW4  196   1.650   4.326   0.473  0.2763 -0.4835  0.3746
   38SOL     OW  197   2.751   3.177   0.758 -0.0346  0.2945 -0.2016
   38SOL    HW2  198   2.668   3.147   0.793  0.0544  1.4776  1.0523
   38SOL    HW3  199   2.754   3.270   0.780  2.4225 -0.1096  1.3899
   38SOL    MW4  200   2.740   3.185   0.765  0.3016  0.3974  0.1738
   39SOL     OW  201   1.544   0.666   0.394 -0.4616  0.2065  0.3367
   39SOL    HW2  202   1.484   0.623   0.456 -0.2920  0.7944  0.9143
   39SOL    HW3  203   1.615   0.603   0.383 -0.6680 -0.0532  0.4701
   39SOL    MW4  204   1.545   0.652   0.401 -0.4663  0.2498  0.4305
   40SOL     OW  205   0.724   1.571   0.825 -0.1009  0.1955  0.3379
   40SOL    HW2  206   0.806   1.601   0.785 -0.3818  1.6850  0.8393
   40SOL    HW3  207   0.655   1.619   0.779 -0.6655 -0.7931  0.1486
   40SOL    MW4  208   0.726   1.581   0.814 -0.2125  0.2617  0.3791
   41SOL     OW  209   3.408   2.841   0.749  0.2131 -0.2401  0.4713
   41SOL    HW2  210   3.468   2.780   0.792  0.6168  0.5559  1.0689
   41SOL    HW3  211   3.412   2.920   0.803 -1.1804 -0.0824  0.3775
   41SOL    MW4  212   3.416   2.844   0.762  0.0825 -0.1144  0.5378
   42SOL     OW  213   2.760   0.094   0.478 -0.0568  0.2118  0.0091
   42SOL    HW2  214   2.742   0.101   0.572  0.5299  1.2250  0.0487
   42SOL    HW3  215   2.676   0.066   0.440 -0.6201  0.9373  0.6947
   42SOL    MW4  216   2.746   0.091   0.485 -0.0536  0.4412  0.1048
   43SOL     OW  217   0.656   1.035   0.510 -0.3217  0.4112 -0.0858
   43SOL    HW2  218   0.612   0.978   0.572  0.9110  0.7022  1.0982
   43SOL    HW3  219   0.722   0.979   0.468 -0.3447  0.5106 -0.2558
   43SOL    MW4  220   0.659   1.020   0.513 -0.1621  0.4627  0.0481
   44SOL     OW  221   2.531   0.474   0.732  0.5271  0.2768  0.1563
   44SOL    HW2  222   2.613   0.445   0.773  0.2415  0.7154  1.0547
   44SOL    HW3  223   2.510   0.556   0.777  0.7267  1.2833 -1.5662
   44SOL    MW4  224   2.539   0.481   0.744  0.5157  0.4675  0.0475
   45SOL     OW  225   2.542   4.444   0.506  0.0764  0.0898  0.2482
   45SOL    HW2  226   2.630   4.409   0.493 -0.0381 -0.0059 -0.2830
   45SOL    HW3  227   2.519   4.418   0.595  0.4397 -0.2034  0.2582
   45SOL    MW4  228   2.551   4.436   0.516  0.1092  0.0381  0.1795
   46SOL     OW  229   3.403   4.139   0.422  0.0962  0.2735 -0.0092
   46SOL    HW2  230   3.366   4.131   0.334 -1.3138  1.0320  0.5045
   46SOL    HW3  231   3.421   4.232   0.432 -0.0903  0.2351  0.6522
   46SOL    MW4  232   3.401   4.150   0.411 -0.1144  0.3681  0.1459
   47SOL     OW  233   2.301   0.357   0.839  0.2438  0.4450  0.1911
   47SOL    HW2  234   2.386   0.378   0.800  0.0445 -0.8976 -1.0210
   47SOL    HW3  235   2.238   0.399   0.781  0.0420  0.9061  0.7377
   47SOL    MW4  236   2.304   0.365   0.826  0.1910  0.3287  0.1033
   48SOL     OW  237   2.529   2.333   1.140 -0.4295  0.2718 -0.3486
   48SOL    HW2  238   2.534   2.326   1.045 -1.0065 -0.1929 -0.3493
   48SOL    HW3  239   2.449   2.384   1.156 -0.3621  0.3050 -0.1172
   48SOL    MW4  240   2.519   2.339   1.129 -0.4966  0.2148 -0.3182
   49SOL     OW  241   0.195   1.387   0.498  0.0558 -0.7451 -0.0036
   49SOL    HW2  242   0.129   1.450   0.472  0.4707 -0.6361 -0.7877
   49SOL    HW3  243   0.158   1.302   0.475  0.7862 -0.6000 -1.7693
   49SOL    MW4  244   0.181   1.384   0.492  0.2069 -0.7116 -0.3400
   50SOL     OW  245   2.385   3.602   0.447 -0.4219 -0.6636 -0.4450
   50SOL    HW2  246   2.293   3.573   0.450 -0.1114 -1.6848 -0.6911
   50SOL    HW3  247   2.433   3.525   0.417  0.4509  0.0324 -0.8427
   50SOL    MW4  248   2.379   3.588   0.443 -0.2658 -0.7067 -0.5299
   51SOL     OW  249   4.262   2.291   0.826 -0.0906  0.3769  0.1471
   51SOL    HW2  250   4.348   2.331   0.813 -0.4273  0.5415 -1.7453
   51SOL    HW3  251   4.274   2.201   0.796 -0.6981  0.5404 -0.5993
   51SOL    MW4  252   4.275   2.284   0.820 -0.2146  0.4201 -0.2010
   52SOL     OW  253   1.339   4.033   0.716 -0.1302  0.3594  1.0595
   52SOL    HW2  254   1.329   4.114   0.766  0.5753  0.2133  1.4503
   52SOL    HW3  255   1.419   3.994   0.751  0.3405  0.2338 -0.1476
   52SOL    MW4  256   1.349   4.039   0.727  0.0249  0.3233  0.9518
   53SOL     OW  257   2.276   4.564   0.251 -0.4597 -0.1508 -0.5684
   53SOL    HW2  258   2.197   4.609   0.282 -1.0410 -0.9345 -0.9210
   53SOL    HW3  259   2.264   4.473   0.276  0.5747 -0.1786 -0.1585
   53SOL    MW4  260   2.264   4.558   0.258 -0.3998 -0.2584 -0.5608
   54SOL     OW  261   1.788   4.090   0.438  0.2707  0.3980 -0.1368
   54SOL    HW2  262   1.876   4.061   0.414 -0.1606 -1.8409  0.7734
   54SOL    HW3  263   1.730   4.040   0.381 -0.4741  0.3244  0.6689
   54SOL    MW4  264   1.792   4.079   0.428  0.1155  0.0930  0.0896
   55SOL     OW  265   4.094   0.512   0.508 -0.3247 -0.0149 -0.7231
   55SOL    HW2  266   4.012   0.468   0.527 -1.0067  1.4399 -0.2167
   55SOL    HW3  267   4.070   0.604   0.495  1.2751  0.5183 -0.0852
   55SOL    MW4  268   4.080   0.518   0.509 -0.2046  0.2474 -0.5721
   56SOL     OW  269   3.892   4.386   0.472  0.2014 -0.0117  0.2687
   56SOL    HW2  270   3.815   4.422   0.429  1.1762  1.2793 -0.4318
   56SOL    HW3  271   3.882   4.410   0.564 -0.7322 -0.7481  0.3664
   56SOL    MW4  272   3.881   4.394   0.478  0.2072  0.0610  0.1892
   57SOL     OW  273   1.380   0.121   0.737  0.3814  0.0239  0.2662
   57SOL    HW2  274   1.399   0.210   0.768  0.6645  0.1452 -0.2574
   57SOL    HW3  275   1.344   0.134   0.649  0.1197 -0.3580  0.3186
   57SOL    MW4  276   1.378   0.135   0.730  0.3842 -0.0105  0.2040
   58SOL     OW  277   1.139   0.036   0.828  0.0482 -0.1109  0.3329
   58SOL    HW2  278   1.226   0.070   0.812 -0.7754  2.3393  0.8903
   58SOL    HW3  279   1.081   0.088   0.771 -1.0779 -1.6394  0.0231
   58SOL    MW4  280   1.143   0.047   0.818 -0.2091  0.0107  0.3656
   59SOL     OW  281   3.396   4.425   0.457 -0.5284  0.1120 -0.4896
   59SOL    HW2  282   3.316   4.447   0.409 -0.6912 -0.6600 -0.5676
   59SOL    HW3  283   3.379   4.456   0.546 -1.3252 -0.9860 -0.2523
   59SOL    MW4  284   3.383   4.432   0.463 -0.6552 -0.1340 -0.4686
   60SOL     OW  285   1.829   1.923   0.845  0.1253  0.3158  0.1445
   60SOL    HW2  286   1.911   1.960   0.811  0.4980  0.2510  0.9609
   60SOL    HW3  287   1.837   1.829   0.827 -0.0020  0.3783 -0.2471
   60SOL    MW4  288   1.841   1.915   0.838  0.1577  0.3155  0.2005
   61SOL     OW  289   2.264   2.720   0.893 -0.2406  0.0250  0.1915
   61SOL    HW2  290   2.276   2.631   0.860 -1.3632 -0.8166  1.9853
   61SOL    HW3  291   2.190   2.754   0.843 -0.1010 -0.2101 -0.1809
   61SOL    MW4  292   2.256   2.713   0.882 -0.3700 -0.1171  0.3790
   62SOL     OW  293   3.821   4.400   0.759 -0.1703 -0.1594  0.0313
   62SOL    HW2  294   3.749   4.337   0.755 -0.4259  0.0100  1.5683
   62SOL    HW3  295   3.890   4.355   0.808 -0.8452  1.1957  2.3089
   62SOL    MW4  296   3.821   4.386   0.765 -0.2930  0.0415  0.5347
   63SOL     OW  297   3.831   2.616   0.483 -0.1979 -0.0994  0.0001
   63SOL    HW2  298   3.847   2.666   0.403  1.1499  0.5138  0.6304
   63SOL    HW3  299   3.816   2.682   0.551  0.1229 -0.5696  0.5364
   63SOL    MW4  300   3.831   2.631   0.481  0.0222 -0.0806  0.1540
   64SOL     OW  301   1.013   0.054   0.423  0.1709 -0.5329 -0.3867
   64SOL    HW2  302   0.997   0.085   0.512  0.7371 -0.8117 -0.1858
   64SOL    HW3  303   0.949   0.101   0.369 -0.1113 -0.2967  0.1532
   64SOL    MW4  304   1.003   0.064   0.428  0.2083 -0.5385 -0.2890
   65SOL     OW  305   0.956   2.733   0.863 -0.0092  0.1380 -0.1628
   65SOL    HW2  306   0.935   2.642   0.843  2.5426 -0.4779 -0.1672
   65SOL    HW3  307   0.965   2.736   0.958 -1.8631  0.8207  0.0271
   65SOL    MW4  308   0.954   2.722   0.873  0.0829  0.1469 -0.1383
   66SOL     OW  309   4.039   0.422   0.821 -0.2046 -0.0778  0.1841
   66SOL    HW2  310   4.114   0.477   0.799  0.3111 -0.1411  1.7170
   66SOL    HW3  311   3.966   0.460   0.772  0.4687  1.0413  0.0426
   66SOL    MW4  312   4.039   0.434   0.812 -0.0482  0.0615  0.3676
   67SOL     OW  313   4.178   3.302   0.484  0.5139 -0.0862 -0.0670
   67SOL    HW2  314   4.169   3.215   0.445  1.3796 -1.1981  2.1326
   67SOL    HW3  315   4.272   3.318   0.485  0.4188  0.4369  0.4422
   67SOL    MW4  316   4.189   3.292   0.479  0.6151 -0.1640  0.2904
   68SOL     OW  317   4.379   4.426   0.501  0.1651  0.0713 -0.1396
   68SOL    HW2  318   4.426   4.343   0.497  2.4539  1.2864  0.4274
   68SOL    HW3  319   4.301   4.412   0.448 -0.5709 -3.0868  1.6372
   68SOL    MW4  320   4.375   4.413   0.494  0.3691 -0.1855  0.1697
   69SOL     OW  321   1.510   1.250   0.469  0.5255  0.3280 -0.5512
   69SOL    HW2  322   1.415   1.236   0.469  0.5326  0.2568 -1.3968
   69SOL    HW3  323   1.532   1.264   0.561  0.0598 -2.2370  0.0093
   69SOL    MW4  324   1.500   1.250   0.481  0.4650 -0.0199 -0.5888
   70SOL     OW  325   3.460   3.596   0.536  0.0440 -0.0237  0.0389
   70SOL    HW2  326   3.441   3.574   0.628 -1.1608 -0.7756 -0.3849
   70SOL    HW3  327   3.526   3.532   0.510 -0.5962 -0.6637 -0.0176
   70SOL    MW4  328   3.466   3.585   0.545 -0.1996 -0.2072 -0.0245
   71SOL     OW  329   2.268   0.102   0.729 -0.1764 -0.4150  0.1284
   71SOL    HW2  330   2.268   0.184   0.777  2.0764 -0.3774  0.0888
   71SOL    HW3  331   2.298   0.125   0.641 -0.1726 -1.1780 -0.0793
   71SOL    MW4  332   2.272   0.116   0.723  0.1211 -0.5107  0.0957
   72SOL     OW  333   3.360   1.518   0.874 -0.1288  0.2045  0.6203
   72SOL    HW2  334   3.362   1.519   0.970 -0.4822 -1.1892  0.6529
   72SOL    HW3  335   3.278   1.563   0.851 -0.8638 -0.9098  1.0232
   72SOL    MW4  336   3.349   1.524   0.883 -0.2723 -0.1264  0.6777
   73SOL     OW  337   1.644   3.118   0.788 -0.1302 -0.3354  0.6811
   73SOL    HW2  338   1.613   3.114   0.879 -1.3689  0.7272  0.3266
   73SOL    HW3  339   1.650   3.027   0.761 -1.4110 -0.6140  1.2891
   73SOL    MW4  340   1.641   3.106   0.797 -0.4625 -0.2320  0.7145
   74SOL     OW  341   3.613   1.632   0.743 -0.6469 -0.2384  0.3543
   74SOL    HW2  342   3.536   1.582   0.767 -0.6120 -0.2996  0.3390
   74SOL    HW3  343   3.597   1.658   0.652 -0.7061 -0.1445  0.3918
   74SOL    MW4  344   3.601   1.629   0.734 -0.6504 -0.2340  0.3573
   75SOL     OW  345   0.912   4.293   0.827  0.1221  0.3404 -0.0162
   75SOL    HW2  346   0.919   4.198   0.815  0.5685  0.5328 -1.3381
   75SOL    HW3  347   0.824   4.315   0.795  0.3087  0.4787 -0.4358
   75SOL    MW4  348   0.901   4.283   0.821  0.2056  0.3839 -0.2460
   76SOL     OW  349   4.055   1.704   0.471  0.2574 -0.4026  0.1433
   76SOL    HW2  350   4.098   1.787   0.451 -0.2426  0.0187  0.7868
   76SOL    HW3  351   4.116   1.637   0.441  0.8134  0.1953 -0.0660
   76SOL    MW4  352   4.069   1.706   0.465  0.2651 -0.2681  0.2006
   77SOL     OW  353   0.577   3.689   0.366  0.0315 -0.5476 -0.1592
   77SOL    HW2  354   0.609   3.777   0.387 -0.0776 -0.1561 -1.5605
   77SOL    HW3  355   0.646   3.631   0.398  0.7715  0.1264 -0.4915
   77SOL    MW4  356   0.591   3.693   0.373  0.1148 -0.4072 -0.3880
   78SOL     OW  357   1.162   0.701   0.855 -0.0337 -0.0934  0.3090
   78SOL    HW2  358   1.140   0.608   0.855 -0.9036  0.1020  1.9551
   78SOL    HW3  359   1.096   0.741   0.798 -0.0287 -0.3947  0.0903
   78SOL    MW4  360   1.150   0.694   0.847 -0.1478 -0.1074  0.4973
   79SOL     OW  361   0.468   2.232   0.442 -0.3181 -0.0311  0.7827
   79SOL    HW2  362   0.494   2.323   0.427  1.3398 -0.5241  0.5254
   79SOL    HW3  363   0.549   2.189   0.468 -1.0652 -1.4739  0.7375
   79SOL    MW4  364   0.482   2.239   0.444 -0.1979 -0.2866  0.7428
   80SOL     OW  365   0.171   2.763   0.459 -0.0059  0.6156 -0.2654
   80SOL    HW2  366   0.182   2.769   0.554  1.2975 -0.4638 -0.3350
   80SOL    HW3  367   0.122   2.682   0.445 -1.5375  1.5498 -0.4342
   80SOL    MW4  368   0.166   2.753   0.470 -0.0360  0.5963 -0.2969
   81SOL     OW  369   1.327   4.280   0.836 -0.1426  0.0301  0.1325
   81SOL    HW2  370   1.255   4.323   0.790  0.8638  0.4184 -1.0989
   81SOL    HW3  371   1.296   4.273   0.927 -1.2912  1.1699 -0.1489
   81SOL    MW4  372   1.313   4.285   0.842 -0.1613  0.2313 -0.0671
   82SOL     OW  373   3.858   2.800   0.727  0.0957 -0.0868  0.2332
   82SOL    HW2  374   3.941   2.763   0.756  0.5348  0.1386 -0.7005
   82SOL    HW3  375   3.792   2.759   0.783  0.8405 -0.2433  0.9983
   82SOL    MW4  376   3.860   2.789   0.738  0.2520 -0.0775  0.2110
   83SOL     OW  377   0.267   2.843   1.224 -0.5467  0.1594  0.0784
   83SOL    HW2  378   0.184   2.805   1.196 -0.9867  1.3554 -0.2938
   83SOL    HW3  379   0.260   2.850   1.319 -1.0400  0.6199  0.0114
   83SOL    MW4  380   0.255   2.839   1.233 -0.6699  0.3781  0.0203
   84SOL     OW  381   0.645   0.136   0.273 -0.5189 -0.2549 -0.6098
   84SOL    HW2  382   0.583   0.207   0.286 -0.5928 -0.0953 -1.7714
   84SOL    HW3  383   0.613   0.065   0.329 -0.7609  0.4204  0.1137
   84SOL    MW4  384   0.633   0.136   0.282 -0.5606 -0.1447 -0.6676
   85SOL     OW  385   0.889   0.871   0.446 -0.1680 -0.0747  0.2940
   85SOL    HW2  386   0.965   0.911   0.404 -1.0682  1.3257 -0.0310
   85SOL    HW3  387   0.873   0.791   0.396  1.2513 -0.5300  0.5468
   85SOL    MW4  388   0.897   0.866   0.434 -0.0995  0.0499  0.2845
   86SOL     OW  389   0.529   0.884   0.703 -0.3977  0.3242  0.7474
   86SOL    HW2  390   0.605   0.843   0.746 -0.1024  0.1575  0.0793
   86SOL    HW3  391   0.517   0.966   0.750  1.2486  1.1432 -0.2059
   86SOL    MW4  392   0.538   0.889   0.715 -0.1415  0.4103  0.5335
   87SOL     OW  393   1.628   3.961   0.224 -0.4206 -0.3247  0.4968
   87SOL    HW2  394   1.592   3.883   0.267 -0.7507 -1.3144 -1.5013
   87SOL    HW3  395   1.551   4.016   0.206 -0.4211 -0.4474  0.1249
   87SOL    MW4  396   1.613   3.958   0.227 -0.4644 -0.4716  0.1841
   88SOL     OW  397   4.114   3.250   0.745  0.0387  0.5817  0.0574
   88SOL    HW2  398   4.193   3.210   0.782 -0.0274  2.4863  2.3743
   88SOL    HW3  399   4.132   3.254   0.651  1.5551 -1.4770  0.2051
   88SOL    MW4  400   4.127   3.245   0.737  0.2303  0.5615  0.3826
   89SOL     OW  401   0.980   0.873   0.736  0.0547  0.4445  0.1697
   89SOL    HW2  402   0.964   0.887   0.643  0.9694 -0.0566 -0.0704
   89SOL    HW3  403   0.964   0.958   0.777 -0.4172  0.6452 -0.4338
   89SOL    MW4  404   0.975   0.886   0.729  0.1131  0.4048  0.0584
   90SOL     OW  405   1.414   2.164   0.395  0.0184 -0.1591 -0.3627
   90SOL    HW2  406   1.485   2.141   0.335  1.0937 -0.0414  0.8549
   90SOL    HW3  407   1.427   2.257   0.413 -0.5368 -0.0998 -0.2501
   90SOL    MW4  408   1.425   2.173   0.389  0.0870 -0.1357 -0.1872
   91SOL     OW  409   2.033   1.460   0.859  0.5259 -0.1832  0.3008
   91SOL    HW2  410   2.099   1.508   0.810 -0.7943 -0.3100 -1.6576
   91SOL    HW3  411   1.950   1.502   0.835 -0.4642 -2.2553 -0.0453
   91SOL    MW4  412   2.031   1.472   0.850  0.2210 -0.4733 -0.0033
   92SOL     OW  413   0.222   2.044   0.693  0.5026 -0.0362 -0.5102
   92SOL    HW2  414   0.142   2.011   0.735 -0.0988  0.1747 -1.4932
   92SOL    HW3  415   0.292   2.013   0.750 -0.3287  0.6219  0.9297
   92SOL    MW4  416   0.220   2.036   0.706  0.3135  0.0787 -0.4499
   93SOL     OW  417   0.472   0.360   0.331  0.0089 -0.4461 -0.7298
   93SOL    HW2  418   0.382   0.384   0.306 -0.0353  0.3530  0.1869
   93SOL    HW3  419   0.461   0.298   0.403  0.2120  1.1491  0.6997
   93SOL    MW4  420   0.458   0.355   0.337  0.0299 -0.1302 -0.4202
   94SOL     OW  421   1.511   3.094   0.388  0.1834 -0.4278 -0.5894
   94SOL    HW2  422   1.588   3.150   0.381  0.5065 -0.8500 -0.4227
   94SOL    HW3  423   1.546   3.007   0.405 -0.3509 -0.5367 -0.0404
   94SOL    MW4  424   1.526   3.090   0.389  0.1556 -0.4981 -0.4950
   95SOL     OW  425   4.036   0.909   0.751  0.1392  0.0409 -0.4744
   95SOL    HW2  426   4.041   1.004   0.741  1.0370  0.1498  0.8584
   95SOL    HW3  427   4.128   0.882   0.759 -0.2208 -0.6362  1.6591
   95SOL    MW4  428   4.049   0.918   0.751  0.2098 -0.0341 -0.0170
   96SOL     OW  429   0.218   0.463   0.418  0.1852 -0.3293  0.3562
   96SOL    HW2  430   0.251   0.552   0.406  1.4573 -0.4826  2.4567
   96SOL    HW3  431   0.126   0.468   0.391  0.2688  1.5770  0.3130
   96SOL    MW4  432   0.210   0.476   0.413  0.3640 -0.0981  0.6276
   97SOL     OW  433   2.344   2.244   0.301 -0.4926  0.1104  0.2521
   97SOL    HW2  434   2.403   2.315   0.324  0.0510 -0.6481  1.2761
   97SOL    HW3  435   2.256   2.281   0.310 -0.1901  1.2449 -1.2963
   97SOL    MW4  436   2.340   2.258   0.305 -0.3810  0.1602  0.1830
   98SOL     OW  437   0.308   3.611   0.737  0.0772  0.5402  0.1253
   98SOL    HW2  438   0.315   3.574   0.649 -1.8237 -1.6744  0.8550
   98SOL    HW3  439   0.381   3.571   0.786  1.1063  1.7374 -0.4141
   98SOL    MW4  440   0.319   3.601   0.732 -0.0378  0.4060  0.1504
   99SOL     OW  441   3.687   3.179   0.518  0.0971  0.3486 -0.1831
   99SOL    HW2  442   3.610   3.124   0.501  0.4646  0.0963 -1.1063
   99SOL    HW3  443   3.761   3.117   0.514  0.4265  0.7474 -0.2839
   99SOL    MW4  444   3.687   3.163   0.515  0.1893  0.3679 -0.3182
  100SOL     OW  445   1.377   2.731   1.100 -0.1583 -0.3254  0.0020
  100SOL    HW2  446   1.304   2.770   1.148  0.3639  0.1070  0.4607
  100SOL    HW3  447   1.455   2.773   1.137  0.4653 -2.3169  1.0171
  100SOL    MW4  448   1.378   2.742   1.111 -0.0070 -0.5310  0.1965
  101SOL     OW  449   3.660   4.547   0.407  0.1134  0.2018  0.2714
  101SOL    HW2  450   3.575   4.504   0.399  0.6445 -0.7933 -0.1689
  101SOL    HW3  451   3.640   4.641   0.407 -0.9347 -0.0104 -0.4483
  101SOL    MW4  452   3.646   4.554   0.406  0.0453  0.0429  0.1184
  102SOL     OW  453   2.229   4.227   0.800 -0.0442 -0.1895 -0.1135
  102SOL    HW2  454   2.161   4.291   0.780  0.4737  0.1957 -0.6851
  102SOL    HW3  455   2.311   4.276   0.788  0.3818 -1.2353 -1.6011
  102SOL    MW4  456   2.231   4.242   0.796  0.0803 -0.2761 -0.3851
  103SOL     OW  457   2.220   3.231   0.398  0.0998  0.6752 -0.0072
  103SOL    HW2  458   2.142   3.176   0.405  0.6342 -0.4411 -2.1778
  103SOL    HW3  459   2.188   3.321   0.405 -1.2363  0.1863  0.1523
  103SOL    MW4  460   2.206   3.236   0.400 -0.0062  0.4632 -0.2726
  104SOL     OW  461   3.563   0.907   0.749 -0.0896  0.7150 -0.3975
  104SOL    HW2  462   3.573   0.932   0.657  0.0004  0.6490 -0.4066
  104SOL    HW3  463   3.571   0.989   0.797  0.8335  0.6308 -0.3869
  104SOL    MW4  464   3.566   0.921   0.743  0.0441  0.6952 -0.3973
  105SOL     OW  465   4.243   2.034   0.726 -0.3735  0.2978  0.3358
  105SOL    HW2  466   4.168   2.005   0.777  0.0636 -0.2714  0.6705
  105SOL    HW3  467   4.227   1.999   0.638 -0.5878  0.3313  0.3610
  105SOL    MW4  468   4.231   2.025   0.721 -0.3438  0.2272  0.3833
  106SOL     OW  469   2.624   0.999   0.562  0.1685  0.3061  0.0908
  106SOL    HW2  470   2.664   1.049   0.633  0.5873  0.2976 -0.1327
  106SOL    HW3  471   2.584   1.066   0.506 -1.4670  0.2066  1.1162
  106SOL    MW4  472   2.624   1.015   0.564  0.0079  0.2919  0.1966
  107SOL     OW  473   4.450   3.638   0.508 -0.0416 -0.4492 -0.1446
  107SOL    HW2  474   4.426   3.663   0.597  0.0314 -0.6103 -0.0791
  107SOL    HW3  475   4.451   3.542   0.510  0.5168 -0.4443 -0.1658
  107SOL    MW4  476   4.447   3.628   0.520  0.0415 -0.4697 -0.1388
  108SOL     OW  477   3.588   2.814   0.330  0.0514  0.2092 -0.0975
  108SOL    HW2  478   3.523   2.746   0.312  1.4182 -0.9748 -0.6105
  108SOL    HW3  479   3.536   2.889   0.362 -1.5987 -0.5375 -0.9794
  108SOL    MW4  480   3.573   2.815   0.332  0.0143 -0.0455 -0.2815
  109SOL     OW  481   3.134   1.940   0.350  0.3183  0.1174 -0.1720
  109SOL    HW2  482   3.101   1.854   0.378 -0.4809  0.8342  1.1167
  109SOL    HW3  483   3.229   1.933   0.360  0.1881 -0.2805  0.9376
  109SOL    MW4  484   3.142   1.928   0.355  0.1957  0.1595  0.1444
  110SOL     OW  485   4.205   1.495   0.367  0.2941  0.8294  0.0137
  110SOL    HW2  486   4.173   1.455   0.286 -0.0960  1.6778 -0.2666
  110SOL    HW3  487   4.220   1.422   0.427 -3.2440  0.4417  0.5365
  110SOL    MW4  488   4.203   1.480   0.364 -0.2241  0.8903  0.0457
  111SOL     OW  489   3.767   1.091   0.369 -0.4127 -0.1583  0.1088
  111SOL    HW2  490   3.738   1.182   0.378 -0.0581 -0.0220 -0.1043
  111SOL    HW3  491   3.860   1.094   0.391  0.2518  0.0236 -2.5919
  111SOL    MW4  492   3.775   1.104   0.373 -0.2782 -0.1165 -0.2757
  112SOL     OW  493   1.392   3.439   0.827 -0.4352  0.4258  0.3160
  112SOL    HW2  494   1.366   3.358   0.783 -1.7240  0.5722  0.7926
  112SOL    HW3  495   1.465   3.472   0.774 -0.3385 -0.6817 -0.2721
  112SOL    MW4  496   1.399   3.432   0.814 -0.5924  0.2990  0.3013
  113SOL     OW  497   4.145   4.334   0.376  0.4723  0.0268 -0.1194
  113SOL    HW2  498   4.145   4.297   0.288  0.2363 -1.2168  0.3854
  113SOL    HW3  499   4.054   4.356   0.393  0.5805  0.6467 -0.3402
  113SOL    MW4  500   4.133   4.332   0.367  0.4554 -0.0553 -0.0819
  114SOL     OW  501   1.553   1.276   0.737  0.6101  0.3517 -0.0904
  114SOL    HW2  502   1.559   1.358   0.786  0.8087 -0.2836  0.9521
  114SOL    HW3  503   1.633   1.229   0.760  0.7583  0.0901 -1.1061
  114SOL    MW4  504   1.565   1.281   0.746  0.6559  0.2333 -0.0870
  115SOL     OW  505   0.042   0.953   0.663 -0.3512  0.2776  0.1933
  115SOL    HW2  506   0.081   1.017   0.722 -1.1052 -0.1736  1.1887
  115SOL    HW3  507   0.112   0.889   0.648 -0.0125  0.6378  0.2342
  115SOL    MW4  508   0.057   0.953   0.669 -0.4060  0.2657  0.3300
  116SOL     OW  509   1.519   3.745   0.354  0.3629 -0.4269 -0.0905
  116SOL    HW2  510   1.588   3.757   0.419  0.6723 -1.8325 -0.1323
  116SOL    HW3  511   1.443   3.792   0.390  1.4109  1.3537 -0.1795
  116SOL    MW4  512   1.518   3.753   0.367  0.5420 -0.3774 -0.1078
  117SOL     OW  513   0.698   2.059   0.523 -0.0239 -0.9085 -0.1043
  117SOL    HW2  514   0.711   1.977   0.476  1.4076 -0.5895 -0.2892
  117SOL    HW3  515   0.772   2.114   0.497  0.6310 -0.6169  2.2833
  117SOL    MW4  516   0.709   2.056   0.513  0.2514 -0.8278  0.1863
  118SOL     OW  517   1.146   2.090   0.754 -0.3278  0.5605  0.2645
  118SOL    HW2  518   1.227   2.045   0.775 -1.1822 -0.3287  1.6897
  118SOL    HW3  519   1.077   2.028   0.775 -1.3903  1.1890 -1.2325
  118SOL    MW4  520   1.148   2.076   0.759 -0.5807  0.5262  0.2550
  119SOL     OW  521   0.605   3.942   0.460 -0.5068  0.0581 -0.2786
  119SOL    HW2  522   0.560   3.953   0.544  0.2564 -0.5767  0.2137
  119SOL    HW3  523   0.690   3.984   0.472  0.0794 -1.1002 -0.3308
  119SOL    MW4  524   0.610   3.949   0.473 -0.3287 -0.1786 -0.2206
  120SOL     OW  525   2.507   1.499   0.823  0.0119  0.3178  0.0594
  120SOL    HW2  526   2.485   1.489   0.916  0.6137 -1.2885  0.0350
  120SOL    HW3  527   2.496   1.412   0.786 -0.5250  1.0270 -1.4524
  120SOL    MW4  528   2.503   1.486   0.831  0.0203  0.1994 -0.1433
  121SOL     OW  529   2.798   4.298   0.376  0.1924  0.3141 -0.8705
  121SOL    HW2  530   2.858   4.223   0.377  1.0817  1.0325  0.5662
  121SOL    HW3  531   2.723   4.267   0.325 -0.0112 -2.0136  0.7267
  121SOL    MW4  532   2.796   4.284   0.369  0.2830  0.1016 -0.4703
  122SOL     OW  533   3.199   0.321   0.830  0.2103  0.0240  0.2430
  122SOL    HW2  534   3.135   0.367   0.777 -1.6643 -1.9747  0.6997
  122SOL    HW3  535   3.164   0.326   0.919  1.5028  0.2761  0.7464
  122SOL    MW4  536   3.186   0.328   0.835  0.1338 -0.2064  0.3697
  123SOL     OW  537   4.075   2.643   0.844  0.2308  0.3521 -0.2103
  123SOL    HW2  538   4.052   2.558   0.806  0.2558  0.6085 -0.8064
  123SOL    HW3  539   4.149   2.673   0.791 -0.2053  1.0473 -0.4235
  123SOL    MW4  540   4.082   2.636   0.832  0.1769  0.4776 -0.3170
  124SOL     OW  541   2.668   3.468   0.400  0.5173 -0.1825 -0.3345
  124SOL    HW2  542   2.662   3.501   0.489 -1.0216  0.3848 -0.6416
  124SOL    HW3  543   2.706   3.381   0.409 -0.2633 -0.3953  0.9274
  124SOL    MW4  544   2.672   3.461   0.413  0.2112 -0.1357 -0.2086
  125SOL     OW  545   3.469   3.575   0.828 -0.6836 -0.5051 -0.2361
  125SOL    HW2  546   3.557   3.548   0.855 -0.5726 -1.5172 -1.5415
  125SOL    HW3  547   3.471   3.670   0.831  0.3224 -0.5312  0.1425
  125SOL    MW4  548   3.481   3.584   0.832 -0.5362 -0.6421 -0.3585
  126SOL     OW  549   0.037   1.153   0.857  0.5646 -0.3699  0.1341
  126SOL    HW2  550   0.025   1.130   0.949  0.1516 -0.3140  0.0973
  126SOL    HW3  551  -0.051   1.174   0.826  0.6988 -0.4066 -0.2792
  126SOL    MW4  552   0.024   1.153   0.865  0.5279 -0.3674  0.0748
  127SOL     OW  553   3.252   3.744   0.424 -0.5297 -0.2387 -0.0141
  127SOL    HW2  554   3.324   3.696   0.464 -1.4495 -0.6033  1.2440
  127SOL    HW3  555   3.178   3.683   0.427 -2.0071  1.6009  2.6029
  127SOL    MW4  556   3.252   3.730   0.430 -0.8461 -0.0441  0.4972
  128SOL     OW  557   3.162   4.526   0.328 -0.1241  0.3505  0.5268
  128SOL    HW2  558   3.165   4.441   0.285 -1.8958  0.6383 -0.2049
  128SOL    HW3  559   3.089   4.519   0.390  1.0971  0.6306  2.0162
  128SOL    MW4  560   3.153   4.514   0.331 -0.1967  0.4253  0.6268
  129SOL     OW  561   1.585   3.848   0.802  0.2828 -0.1229 -0.1280
  129SOL    HW2  562   1.582   3.757   0.771  0.3094  0.1487 -0.9563
  129SOL    HW3  563   1.670   3.881   0.771 -0.4234  0.6747 -1.2674
  129SOL    MW4  564   1.596   3.840   0.794  0.1931  0.0179 -0.3875
  130SOL     OW  565   3.762   1.291   1.186  0.3497 -0.0433 -0.4378
  130SOL    HW2  566   3.784   1.273   1.277  1.2750  0.4165 -0.5643
  130SOL    HW3  567   3.784   1.384   1.174 -0.1772  0.0162 -1.0105
  130SOL    MW4  568   3.768   1.301   1.196  0.4025  0.0252 -0.5300
  131SOL     OW  569   0.902   3.993   0.476  0.2688  0.1237 -0.0728
  131SOL    HW2  570   0.892   4.077   0.431 -2.3310 -0.2654 -0.3363
  131SOL    HW3  571   0.917   4.016   0.567  1.0039  0.8743 -0.3773
  131SOL    MW4  572   0.902   4.007   0.482  0.0228  0.1717 -0.1477
  132SOL     OW  573   0.694   1.299   0.718  0.3949 -0.1577  0.0882
  132SOL    HW2  574   0.707   1.305   0.623 -1.4070 -0.3762 -0.1958
  132SOL    HW3  575   0.670   1.388   0.744  0.4080 -0.2058  0.2646
  132SOL    MW4  576   0.692   1.312   0.709  0.1589 -0.1929  0.0741
  133SOL     OW  577   1.992   4.408   0.750  0.1521 -0.2193 -0.5778
  133SOL    HW2  578   1.969   4.435   0.661  0.2778  0.2130 -0.4849
  133SOL    HW3  579   2.007   4.491   0.796 -0.7702 -0.4137  0.0752
  133SOL    MW4  580   1.991   4.423   0.744  0.0470 -0.1879 -0.4794
  134SOL     OW  581   3.323   0.561   0.465 -0.6555  0.2470 -0.0933
  134SOL    HW2  582   3.351   0.531   0.552  0.0033  1.8387  0.2589
  134SOL    HW3  583   3.396   0.537   0.407 -0.6874  0.0309 -0.0455
  134SOL    MW4  584   3.337   0.554   0.469 -0.5727  0.4286 -0.0405
  135SOL     OW  585   2.857   2.487   0.470  0.4864  0.3348  0.6893
  135SOL    HW2  586   2.943   2.446   0.477  0.4526  0.0720 -0.2798
  135SOL    HW3  587   2.822   2.486   0.559  0.8696 -0.8956  0.8328
  135SOL    MW4  588   2.864   2.481   0.482  0.5326  0.1378  0.5804
  136SOL     OW  589   2.078   2.597   0.192 -0.0371  0.4268 -0.4476
  136SOL    HW2  590   2.107   2.601   0.101 -0.5800 -0.4512 -0.6615
  136SOL    HW3  591   2.143   2.649   0.240 -0.4093  1.8920 -1.4942
  136SOL    MW4  592   2.090   2.604   0.187 -0.1581  0.5045 -0.6139
  137SOL     OW  593   4.166   4.160   0.153  0.3688 -0.1119 -0.2509
  137SOL    HW2  594   4.244   4.119   0.189 -0.8072 -0.5991  1.8220
  137SOL    HW3  595   4.162   4.129   0.062  1.8381 -1.1178  0.0100
  137SOL    MW4  596   4.176   4.151   0.146  0.4072 -0.3090  0.0570
  138SOL     OW  597   1.379   0.370   0.811  0.3289  0.3314  0.7349
  138SOL    HW2  598   1.374   0.359   0.906  1.2300  0.6240  0.8230
  138SOL    HW3  599   1.303   0.424   0.789  0.8669  1.4190  1.4774
  138SOL    MW4  600   1.369   0.376   0.821  0.5188  0.5135  0.8444
  139SOL     OW  601   2.482   4.638   0.858 -0.0358 -0.3799 -0.2795
  139SOL    HW2  602   2.399   4.668   0.820  0.1441 -0.4987 -0.7726
  139SOL    HW3  603   2.468   4.643   0.953 -0.5282 -0.1849 -0.3584
  139SOL    MW4  604   2.469   4.643   0.866 -0.0772 -0.3700 -0.3549
  140SOL     OW  605   3.180   0.064   0.736 -0.4732  0.0765  0.4877
  140SOL    HW2  606   3.182   0.157   0.757 -1.5195 -0.2326  2.0869
  140SOL    HW3  607   3.202   0.059   0.643 -0.6724  1.9286  0.3298
  140SOL    MW4  608   3.183   0.076   0.727 -0.6375  0.2801  0.6778
  141SOL     OW  609   0.474   4.583   0.390  0.4142 -0.2993 -0.2017
  141SOL    HW2  610   0.431   4.664   0.418 -0.6809 -0.8341 -0.3121
  141SOL    HW3  611   0.408   4.515   0.404  0.9704 -1.0260 -1.0855
  141SOL    MW4  612   0.459   4.585   0.396  0.3431 -0.4659 -0.3329
  142SOL     OW  613   0.047   4.285   0.869  0.3114 -0.1508  0.1483
  142SOL    HW2  614  -0.038   4.312   0.833  0.3403 -0.2440  0.0099
  142SOL    HW3  615   0.111   4.318   0.806  0.3880  0.0788  0.3473
  142SOL    MW4  616   0.044   4.293   0.856  0.3254 -0.1326  0.1563
  143SOL     OW  617   1.804   0.824   0.755 -0.0797  0.0876 -0.0841
  143SOL    HW2  618   1.782   0.844   0.664  1.0086  2.0433  0.0524
  143SOL    HW3  619   1.730   0.772   0.787 -0.3108 -0.9151 -2.1682
  143SOL    MW4  620   1.792   0.820   0.747  0.0334  0.2134 -0.3411
  144SOL     OW  621   0.714   2.826   0.735  0.4768  0.0612 -0.1136
  144SOL    HW2  622   0.802   2.815   0.771  0.1019 -0.0136  0.7943
  144SOL    HW3  623   0.727   2.826   0.640  1.3965 -0.4061  0.0061
  144SOL    MW4  624   0.728   2.825   0.727  0.5487 -0.0100  0.0221
  145SOL     OW  625   2.237   1.060   0.381 -0.1125  0.2984 -0.4041
  145SOL    HW2  626   2.316   1.115   0.388 -0.7159  0.9735  1.4360
  145SOL    HW3  627   2.265   0.975   0.413 -0.0371  0.4412 -0.0893
  145SOL    MW4  628   2.251   1.056   0.386 -0.1824  0.4065 -0.1198
  146SOL     OW  629   2.028   1.490   0.514  0.4242 -0.0606  0.3860
  146SOL    HW2  630   2.024   1.403   0.475  3.3482 -0.4629  0.8939
  146SOL    HW3  631   2.111   1.527   0.483  0.0375  1.8768  1.5585
  146SOL    MW4  632   2.038   1.483   0.504  0.7589  0.1421  0.6077
  147SOL     OW  633   0.738   3.517   0.492 -0.4263 -0.4600  0.2933
  147SOL    HW2  634   0.824   3.512   0.450 -1.1034 -0.4791 -1.1238
  147SOL    HW3  635   0.701   3.429   0.483 -1.0415 -0.1696 -0.1106
  147SOL    MW4  636   0.744   3.505   0.485 -0.5968 -0.4246  0.0530
  148SOL     OW  637   3.212   3.453   0.850  0.3263  0.2628 -0.1715
  148SOL    HW2  638   3.300   3.487   0.838  0.3138  0.1735 -0.5437
  148SOL    HW3  639   3.205   3.380   0.788  0.1206  0.0235  0.1274
  148SOL    MW4  640   3.222   3.448   0.840  0.2973  0.2193 -0.1812
  149SOL     OW  641   2.478   2.047   0.438 -0.5277 -0.3196  0.2101
  149SOL    HW2  642   2.418   2.094   0.380 -0.9556 -1.2984 -0.1394
  149SOL    HW3  643   2.541   2.114   0.467 -1.5415  0.6135  0.2651
  149SOL    MW4  644   2.479   2.062   0.434 -0.7179 -0.3254  0.1712
  150SOL     OW  645   0.137   0.098   0.495  0.2796 -0.1867 -0.0945
  150SOL    HW2  646   0.081   0.160   0.450 -0.1572 -0.7379 -0.3126
  150SOL    HW3  647   0.099   0.090   0.583 -0.0463 -0.6396 -0.2759
  150SOL    MW4  648   0.125   0.105   0.501  0.1790 -0.3192 -0.1472
  151SOL     OW  649   0.466   0.367   1.115  0.3146  0.1222 -0.0742
  151SOL    HW2  650   0.389   0.423   1.129  0.0414 -0.4733  0.8234
  151SOL    HW3  651   0.468   0.354   1.020 -0.7199  0.1080 -0.0990
  151SOL    MW4  652   0.456   0.373   1.104  0.1420  0.0417  0.0409
  152SOL     OW  653   3.157   1.419   0.300 -0.0921 -0.4591 -0.0152
  152SOL    HW2  654   3.233   1.411   0.357 -0.6996 -1.1573  0.7025
  152SOL    HW3  655   3.179   1.370   0.221  0.1537 -0.7499  0.2384
  152SOL    MW4  656   3.170   1.412   0.297 -0.1397 -0.5897  0.1130
  153SOL     OW  657   1.404   1.729   0.531  0.4597  0.0782 -0.0858
  153SOL    HW2  658   1.450   1.658   0.486  0.6967  0.5349 -0.5872
  153SOL    HW3  659   1.315   1.725   0.497  0.4770  0.0208 -0.1248
  153SOL    MW4  660   1.399   1.719   0.520  0.4933  0.1309 -0.1571
  154SOL     OW  661   0.860   3.112   0.478  0.0982 -0.1295  0.1971
  154SOL    HW2  662   0.827   3.025   0.498 -0.4896  0.1902  0.6228
  154SOL    HW3  663   0.782   3.163   0.455  0.1848  0.8141  1.9048
  154SOL    MW4  664   0.846   3.107   0.478  0.0320  0.0372  0.4786
  155SOL     OW  665   2.729   4.282   0.826 -0.0880  0.0941  0.3877
  155SOL    HW2  666   2.728   4.284   0.921  0.7378  0.5728  0.3912
  155SOL    HW3  667   2.821   4.297   0.803 -0.1469 -0.8053 -0.4608
  155SOL    MW4  668   2.741   4.284   0.835  0.0131  0.0391  0.2761
  156SOL     OW  669   0.872   1.577   0.451 -0.1658  0.3313  0.1518
  156SOL    HW2  670   0.833   1.490   0.445 -0.4986  0.4937 -0.0460
  156SOL    HW3  671   0.904   1.582   0.541  1.4152 -0.6536 -0.3436
  156SOL    MW4  672   0.871   1.566   0.462 -0.0011  0.2228  0.0603
  157SOL     OW  673   1.353   0.436   0.480  0.1901 -0.3099  0.1055
  157SOL    HW2  674   1.312   0.353   0.504 -0.4502  0.0024  0.0983
  157SOL    HW3  675   1.280   0.497   0.469  0.6276  0.1503 -0.2987
  157SOL    MW4  676   1.338   0.433   0.482  0.1633 -0.2080  0.0512
  158SOL     OW  677   3.395   0.720   1.138  0.2069 -0.1068 -0.6830
  158SOL    HW2  678   3.312   0.766   1.146 -0.0840 -0.5253 -1.3134
  158SOL    HW3  679   3.457   0.774   1.187 -0.9888 -1.1959  2.1683
  158SOL    MW4  680   3.393   0.733   1.146  0.0110 -0.3057 -0.3899
  159SOL     OW  681   4.052   3.839   0.537 -0.2098 -0.1327  0.2548
  159SOL    HW2  682   4.013   3.756   0.566  0.1313 -0.5680 -0.5273
  159SOL    HW3  683   4.004   3.862   0.458 -0.1512  0.3064  0.3451
  159SOL    MW4  684   4.040   3.831   0.530 -0.1569 -0.1321  0.1636
  160SOL     OW  685   1.657   2.098   0.281  0.1183 -0.0525  0.1517
  160SOL    HW2  686   1.731   2.158   0.293  1.1466 -0.9457 -1.3735
  160SOL    HW3  687   1.699   2.013   0.265 -1.3134 -1.3387  2.9190
  160SOL    MW4  688   1.673   2.095   0.280  0.0651 -0.3402  0.3156
  161SOL     OW  689   0.428   1.935   0.854 -0.0389 -0.4085  0.3779
  161SOL    HW2  690   0.440   1.847   0.817 -1.1895 -0.7078  0.7161
  161SOL    HW3  691   0.446   1.924   0.947  0.6464 -0.1031  0.2887
  161SOL    MW4  692   0.432   1.922   0.861 -0.1003 -0.4078  0.4107
  162SOL     OW  693   2.968   4.619   0.878 -0.1666  0.0061  0.5964
  162SOL    HW2  694   2.892   4.652   0.831 -0.2419  0.7824  1.2511
  162SOL    HW3  695   3.043   4.647   0.826 -0.3579 -1.6611 -0.6098
  162SOL    MW4  696   2.968   4.627   0.865 -0.2019 -0.1116  0.5236
  163SOL     OW  697   4.047   2.201   0.375  0.5244 -0.1627 -0.2640
  163SOL    HW2  698   3.955   2.179   0.390  0.7822  0.3060  2.1713
  163SOL    HW3  699   4.058   2.286   0.416  2.0415 -0.1772 -0.6179
  163SOL    MW4  700   4.037   2.209   0.382  0.7577 -0.1028  0.0106
  164SOL     OW  701   0.651   3.244   0.377 -0.3593  0.2982 -0.0451
  164SOL    HW2  702   0.660   3.213   0.286  0.3438 -1.2019  0.5196
  164SOL    HW3  703   0.558   3.259   0.388 -0.5405 -0.2349 -0.7850
  164SOL    MW4  704   0.640   3.242   0.366 -0.2905  0.0300 -0.0682
  165SOL     OW  705   3.053   1.670   0.439 -0.2182  0.1519  0.5241
  165SOL    HW2  706   2.959   1.664   0.455 -0.8780  2.5602 -2.0466
  165SOL    HW3  707   3.074   1.589   0.392 -1.4444  0.5544 -0.7484
  165SOL    MW4  708   3.043   1.658   0.435 -0.4668  0.5229  0.0170
  166SOL     OW  709   3.943   3.516   0.481  0.2247 -0.0927 -0.1804
  166SOL    HW2  710   4.002   3.441   0.475 -0.4076 -0.6759  0.6967
  166SOL    HW3  711   3.959   3.566   0.401  1.1015 -0.8310 -0.4755
  166SOL    MW4  712   3.953   3.513   0.470  0.2570 -0.2670 -0.1036
  167SOL     OW  713   2.507   0.578   0.481 -0.0688  0.3812 -0.1715
  167SOL    HW2  714   2.595   0.572   0.443 -0.5721  0.2221 -1.3502
  167SOL    HW3  715   2.511   0.527   0.561  1.3534  1.7098  0.6203
  167SOL    MW4  716   2.519   0.570   0.486  0.0525  0.5355 -0.2225
  168SOL     OW  717   3.360   2.286   0.839  0.1887 -0.0970 -0.3620
  168SOL    HW2  718   3.353   2.289   0.934  0.2956  1.4664 -0.3922
  168SOL    HW3  719   3.438   2.337   0.819  0.7314 -1.2490 -1.2375
  168SOL    MW4  720   3.369   2.293   0.849  0.2744 -0.0427 -0.4815
  169SOL     OW  721   3.402   3.858   0.852 -0.0768  0.4521  0.2836
  169SOL    HW2  722   3.408   3.872   0.946  1.2896  0.5644  0.1870
  169SOL    HW3  723   3.314   3.887   0.828 -0.3448  0.6205  1.4854
  169SOL    MW4  724   3.391   3.864   0.861  0.0682  0.4892  0.4295
  170SOL     OW  725   0.273   1.272   0.745  0.5346  0.3683 -0.0608
  170SOL    HW2  726   0.193   1.232   0.779  1.3093 -1.6015 -0.4885
  170SOL    HW3  727   0.247   1.310   0.661  0.3439 -1.5886 -0.9228
  170SOL    MW4  728   0.259   1.272   0.739  0.6117 -0.1497 -0.2310
  171SOL     OW  729   2.342   3.198   0.673  0.0508 -0.0897  0.3102
  171SOL    HW2  730   2.372   3.180   0.584  1.3035  1.1500  0.4596
  171SOL    HW3  731   2.404   3.149   0.729 -0.1734 -0.1235  0.5306
  171SOL    MW4  732   2.354   3.189   0.669  0.1864  0.0694  0.3591
  172SOL     OW  733   2.994   3.285   0.379  0.1921  0.3932  0.5523
  172SOL    HW2  734   2.909   3.251   0.406  0.2544 -0.8139 -0.7086
  172SOL    HW3  735   2.981   3.315   0.289  0.5926  2.1252  1.0434
  172SOL    MW4  736   2.981   3.285   0.370  0.2527  0.4625  0.4508
  173SOL     OW  737   3.851   3.899   1.087  0.3031  0.1451  0.1907
  173SOL    HW2  738   3.867   3.912   0.993  0.6239 -1.0123  0.0704
  173SOL    HW3  739   3.763   3.932   1.102 -0.0542 -0.3814 -0.6898
  173SOL    MW4  740   3.842   3.905   1.076  0.2980 -0.0770  0.0587
  174SOL     OW  741   4.375   3.676   0.796  0.0723  0.4227 -0.2544
  174SOL    HW2  742   4.335   3.762   0.780 -0.0952  0.4124  0.1107
  174SOL    HW3  743   4.304   3.622   0.831  0.6053  0.6647  1.2620
  174SOL    MW4  744   4.360   3.680   0.799  0.1206  0.4532 -0.0061
  175SOL     OW  745   3.399   1.911   0.454 -0.2588 -0.1807  0.1583
  175SOL    HW2  746   3.453   1.832   0.448  1.2507  0.8392  0.2060
  175SOL    HW3  747   3.408   1.940   0.544  0.1588  0.7209 -0.1644
  175SOL    MW4  748   3.407   1.904   0.465 -0.0045  0.0728  0.1220
  176SOL     OW  749   3.809   2.277   0.874  0.5407 -0.0156 -0.1063
  176SOL    HW2  750   3.887   2.322   0.841 -0.4341  2.6316  1.0904
  176SOL    HW3  751   3.825   2.265   0.967  0.4393 -1.5236 -0.2558
  176SOL    MW4  752   3.821   2.281   0.882  0.3984  0.1347  0.0319
  177SOL     OW  753   1.441   0.060   0.283 -0.2010 -0.4027 -0.0595
  177SOL    HW2  754   1.432   0.141   0.234 -1.7673 -0.3284  0.2999
  177SOL    HW3  755   1.530   0.031   0.267 -0.5374 -0.1323 -2.5460
  177SOL    MW4  756   1.451   0.067   0.275 -0.4518 -0.3572 -0.3401
  178SOL     OW  757   1.856   2.698   0.354  0.3996  0.0540 -0.5922
  178SOL    HW2  758   1.909   2.679   0.277  3.6442 -0.5530  1.6899
  178SOL    HW3  759   1.840   2.613   0.394  0.4162  0.5252  0.4456
  178SOL    MW4  760   1.861   2.684   0.349  0.8299  0.0358 -0.1542
  179SOL     OW  761   2.702   1.386   0.463 -0.3293  0.2831 -0.2956
  179SOL    HW2  762   2.723   1.476   0.487 -1.8466  0.8271 -0.9604
  179SOL    HW3  763   2.788   1.345   0.445  0.2831  2.0120 -1.4644
  179SOL    MW4  764   2.716   1.392   0.464 -0.4487  0.5831 -0.5375
  180SOL     OW  765   1.823   2.679   0.816  0.1499  0.2747  0.2059
  180SOL    HW2  766   1.760   2.734   0.770 -0.0404  0.9127  1.2056
  180SOL    HW3  767   1.904   2.730   0.816  0.1825  0.2226  0.4742
  180SOL    MW4  768   1.826   2.693   0.810  0.1292  0.3521  0.3732
  181SOL     OW  769   2.695   2.656   0.848  0.4882  0.0577 -0.0452
  181SOL    HW2  770   2.770   2.713   0.832 -0.5331  1.3011 -0.4520
  181SOL    HW3  771   2.662   2.683   0.934 -1.3917  1.6996 -1.2344
  181SOL    MW4  772   2.701   2.667   0.858  0.1054  0.4382 -0.2557
  182SOL     OW  773   2.233   1.159   0.851 -0.3297  0.3255  0.2178
  182SOL    HW2  774   2.153   1.192   0.810 -0.1545  1.0264  0.4292
  182SOL    HW3  775   2.218   1.170   0.945 -0.7414 -1.2958  0.3636
  182SOL    MW4  776   2.221   1.165   0.858 -0.3612  0.2041  0.2650
  183SOL     OW  777   3.877   4.657   0.825  0.1222  0.1158  0.3134
  183SOL    HW2  778   3.881   4.657   0.921  0.8339 -0.7097  0.2893
  183SOL    HW3  779   3.854   4.567   0.803  0.0066  0.2970 -0.2997
  183SOL    MW4  780   3.874   4.645   0.835  0.2005  0.0315  0.2294
  184SOL     OW  781   0.394   3.287   0.440  0.2012 -0.2713 -0.3168
  184SOL    HW2  782   0.407   3.266   0.533  0.8449 -0.8701 -0.5415
  184SOL    HW3  783   0.389   3.383   0.438 -0.7171 -0.2911  0.4438
  184SOL    MW4  784   0.395   3.297   0.452  0.1650 -0.3531 -0.2461
  185SOL     OW  785   4.047   4.232   0.825 -0.4803 -0.1560 -0.3173
  185SOL    HW2  786   4.136   4.265   0.812 -0.2842 -0.6609 -0.2908
  185SOL    HW3  787   4.039   4.221   0.920 -0.0299 -1.5574 -0.4239
  185SOL    MW4  788   4.058   4.235   0.836 -0.3948 -0.4077 -0.3279
  186SOL     OW  789   3.401   2.043   0.699 -0.0592 -0.1521 -0.2901
  186SOL    HW2  790   3.382   2.125   0.743  1.5077  0.0012  0.1320
  186SOL    HW3  791   3.333   1.983   0.730 -0.0752  0.4656  0.8973
  186SOL    MW4  792   3.390   2.046   0.709  0.1454 -0.0503 -0.0777
  187SOL     OW  793   1.967   1.983   0.484 -0.3558  0.3814 -0.5590
  187SOL    HW2  794   2.034   1.933   0.438  0.3646  0.8270  0.0014
  187SOL    HW3  795   1.884   1.944   0.455  0.1999 -1.6613  0.4621
  187SOL    MW4  796   1.965   1.971   0.474 -0.1875  0.1707 -0.3504
  188SOL     OW  797   0.473   2.760   0.430 -0.6924  0.0230  0.3082
  188SOL    HW2  798   0.489   2.667   0.447  0.3030  0.0686 -0.3525
  188SOL    HW3  799   0.378   2.770   0.438 -0.9051 -1.2364 -0.5043
  188SOL    MW4  800   0.462   2.749   0.433 -0.5892 -0.1371  0.1138
  189SOL     OW  801   1.888   3.220   0.717 -0.2249  0.2049  0.0402
  189SOL    HW2  802   1.812   3.176   0.755  1.2089 -0.4535  2.2476
  189SOL    HW3  803   1.876   3.312   0.741 -0.8435  0.2788 -0.5328
  189SOL    MW4  804   1.876   3.227   0.725 -0.1174  0.1280  0.2559
  190SOL     OW  805   4.480   1.601   0.431  0.1928  0.2235  0.4175
  190SOL    HW2  806   4.401   1.569   0.388  0.0458 -0.8460  1.4423
  190SOL    HW3  807   4.500   1.684   0.388 -0.6112 -0.2572 -0.8850
  190SOL    MW4  808   4.473   1.608   0.420  0.0672  0.0190  0.3809
  191SOL     OW  809   2.120   3.121   0.836  0.4647  0.5322 -0.6209
  191SOL    HW2  810   2.035   3.144   0.797 -0.1609 -2.1538 -0.9084
  191SOL    HW3  811   2.182   3.128   0.764 -0.1489 -1.1543 -1.3431
  191SOL    MW4  812   2.117   3.125   0.821  0.3011 -0.0446 -0.7542
  192SOL     OW  813   3.382   3.898   0.229 -0.2041 -0.3067  0.2985
  192SOL    HW2  814   3.377   3.867   0.139  0.6024  0.3049  0.0389
  192SOL    HW3  815   3.307   3.857   0.273 -0.1716 -1.2040 -0.4617
  192SOL    MW4  816   3.372   3.888   0.223 -0.0937 -0.3448  0.1639
  193SOL     OW  817   1.199   2.849   0.441 -0.0763 -0.0722 -0.0284
  193SOL    HW2  818   1.212   2.829   0.533 -0.0899  2.0101  0.4453
  193SOL    HW3  819   1.264   2.796   0.395 -0.1054 -1.1542  1.1547
  193SOL    MW4  820   1.209   2.839   0.447 -0.0819  0.0598  0.1902
  194SOL     OW  821   1.872   2.230   0.372  0.0100 -0.1802 -0.4201
  194SOL    HW2  822   1.949   2.278   0.343  0.1389 -0.4143 -0.4737
  194SOL    HW3  823   1.908   2.155   0.420 -0.2073  1.0202  1.6757
  194SOL    MW4  824   1.887   2.226   0.375 -0.0017 -0.0525 -0.1507
  195SOL     OW  825   3.802   1.600   0.361 -0.0998  0.1418 -0.3532
  195SOL    HW2  826   3.804   1.609   0.265  0.4975  0.8891 -0.2757
  195SOL    HW3  827   3.889   1.629   0.389  0.2218 -1.4071  0.3101
  195SOL    MW4  828   3.814   1.605   0.352  0.0212  0.0360 -0.2554
  196SOL     OW  829   4.316   4.620   0.889 -0.2508  0.0004 -0.8749
  196SOL    HW2  830   4.330   4.644   0.981 -0.8145  0.1860 -0.8352
  196SOL    HW3  831   4.256   4.687   0.856 -0.7978 -0.6077 -1.1242
  196SOL    MW4  832   4.310   4.632   0.897 -0.3977 -0.0553 -0.9026
  197SOL     OW  833   1.875   2.396   0.743  0.0525 -0.8138  0.2494
  197SOL    HW2  834   1.876   2.488   0.767  1.1070 -0.2729 -1.7586
  197SOL    HW3  835   1.958   2.361   0.774 -0.5711 -1.2293  1.4792
  197SOL    MW4  836   1.886   2.403   0.750  0.1093 -0.7970  0.1467
  198SOL     OW  837   2.464   4.366   0.768  0.0373  0.2214 -0.1097
  198SOL    HW2  838   2.551   4.334   0.790 -0.0918  0.2991  0.5283
  198SOL    HW3  839   2.469   4.460   0.784  0.4740  0.5666 -2.1618
  198SOL    MW4  840   2.476   4.374   0.773  0.0777  0.2770 -0.2962
  199SOL     OW  841   2.332   3.443   0.809 -0.1562  0.1736  0.5415
  199SOL    HW2  842   2.323   3.361   0.760 -0.4189  1.0373 -0.8559
  199SOL    HW3  843   2.408   3.486   0.770 -0.5597  1.0170  0.6867
  199SOL    MW4  844   2.341   3.438   0.798 -0.2439  0.3986  0.3762
  200SOL     OW  845   4.048   2.448   0.477 -0.1156  0.4968 -0.4514
  200SOL    HW2  846   3.979   2.514   0.468  0.1150  0.9624  1.1018
  200SOL    HW3  847   4.129   2.498   0.464  0.0089  0.2844 -0.4841
  200SOL    MW4  848   4.050   2.463   0.474 -0.0682  0.5300 -0.2508
  201SOL     OW  849   3.555   1.141   1.112 -0.2222 -0.2986  0.1634
  201SOL    HW2  850   3.479   1.177   1.157  0.8188  1.0427  0.9062
  201SOL    HW3  851   3.626   1.202   1.134  1.1851 -1.8481 -0.0147
  201SOL    MW4  852   3.554   1.154   1.121  0.1006 -0.3260  0.2378
  202SOL     OW  853   3.131   0.877   0.735  0.2467 -0.2283  0.6774
  202SOL    HW2  854   3.208   0.845   0.782  0.7435  0.1422  0.1272
  202SOL    HW3  855   3.159   0.880   0.643 -0.5422 -0.4438  0.4310
  202SOL    MW4  856   3.145   0.873   0.729  0.2084 -0.2078  0.5723
  203SOL     OW  857   1.607   2.824   0.433 -0.9235  0.2942 -0.0505
  203SOL    HW2  858   1.542   2.772   0.384 -1.1810  0.5694 -0.0030
  203SOL    HW3  859   1.691   2.794   0.400 -1.0530 -0.6021  0.4207
  203SOL    MW4  860   1.609   2.813   0.422 -0.9745  0.2120  0.0179
  204SOL     OW  861   0.243   2.293   0.857  0.1860  0.4241 -0.6720
  204SOL    HW2  862   0.248   2.198   0.842 -1.5626  0.2764 -0.4512
  204SOL    HW3  863   0.264   2.303   0.950  0.9056  0.3210 -0.8171
  204SOL    MW4  864   0.246   2.282   0.867  0.0502  0.3908 -0.6620
  205SOL     OW  865   2.316   3.863   0.373 -0.1879  0.2050 -0.0751
  205SOL    HW2  866   2.312   3.900   0.461  1.3389  0.3629 -0.0566
  205SOL    HW3  867   2.338   3.771   0.386 -0.4651  0.1076 -0.2753
  205SOL    MW4  868   2.318   3.856   0.386 -0.0229  0.2129 -0.0991
  206SOL     OW  869   3.416   4.358   0.773  0.1572  0.3160  0.2702
  206SOL    HW2  870   3.333   4.325   0.807 -0.5762  1.6756 -0.1613
  206SOL    HW3  871   3.420   4.449   0.803  1.0362  0.5465 -0.5186
  206SOL    MW4  872   3.405   4.365   0.781  0.1767  0.5255  0.1092
  207SOL     OW  873   3.571   1.189   0.839 -0.1305  0.2547 -0.0487
  207SOL    HW2  874   3.488   1.225   0.807  0.4427  0.3603 -1.4784
  207SOL    HW3  875   3.559   1.180   0.933 -0.7939  2.8682  0.1575
  207SOL    MW4  876   3.559   1.193   0.847 -0.1423  0.6135 -0.2101
  208SOL     OW  877   1.793   4.211   0.808 -0.0019  0.0330 -0.0432
  208SOL    HW2  878   1.865   4.273   0.813  1.0844 -1.1834 -0.5057
  208SOL    HW3  879   1.722   4.260   0.767  0.7640  1.0316 -0.1935
  208SOL    MW4  880   1.793   4.226   0.803  0.2425  0.0043 -0.1240
  209SOL     OW  881   4.279   3.837   0.402  0.3469  0.0492  0.0036
  209SOL    HW2  882   4.323   3.759   0.436 -0.7181 -1.3199 -1.6980
  209SOL    HW3  883   4.203   3.848   0.458  0.6607  0.0359  0.4327
  209SOL    MW4  884   4.275   3.828   0.414  0.2475 -0.1333 -0.1643
  210SOL     OW  885   4.293   2.355   0.266 -0.0836  0.3266 -0.1884
  210SOL    HW2  886   4.319   2.406   0.189  0.1588 -0.8898 -0.9193
  210SOL    HW3  887   4.202   2.329   0.249 -0.3066  0.7541  0.3182
  210SOL    MW4  888   4.284   2.358   0.254 -0.0806  0.2222 -0.2180
  211SOL     OW  889   2.964   3.108   1.149 -0.1282 -0.1875  0.0913
  211SOL    HW2  890   2.974   3.111   1.054 -0.6284  0.6336  0.0545
  211SOL    HW3  891   2.964   3.015   1.171 -0.6300 -0.3990 -0.7818
  211SOL    MW4  892   2.965   3.096   1.140 -0.2606 -0.1073 -0.0288
  212SOL     OW  893   1.359   4.163   0.267 -0.1319 -0.3915 -0.0824
  212SOL    HW2  894   1.282   4.140   0.216 -1.0202  1.0227  0.5854
  212SOL    HW3  895   1.352   4.258   0.279  0.7472 -0.5162  1.5308
  212SOL    MW4  896   1.348   4.172   0.262 -0.1332 -0.2213  0.2185
  213SOL     OW  897   0.930   4.029   0.766 -0.2532  0.1840  0.0783
  213SOL    HW2  898   1.017   3.992   0.777 -0.1402  0.7139  1.0303
  213SOL    HW3  899   0.871   3.955   0.783  0.0151 -0.4802 -1.8112
  213SOL    MW4  900   0.933   4.014   0.770 -0.2028  0.1664 -0.0454
  214SOL     OW  901   4.046   2.799   0.079  0.0572  0.1439  0.2993
  214SOL    HW2  902   4.034   2.870   0.017  0.1637  1.4965  1.8178
  214SOL    HW3  903   4.132   2.815   0.118 -0.3726 -0.1909  1.4195
  214SOL    MW4  904   4.056   2.810   0.076  0.0148  0.2780  0.6474
  215SOL     OW  905   1.469   3.445   0.439 -0.2163  0.3576 -0.0533
  215SOL    HW2  906   1.477   3.526   0.387 -2.6937  1.6872  1.5468
  215SOL    HW3  907   1.375   3.428   0.442  0.2969 -2.9034 -0.7609
  215SOL    MW4  908   1.458   3.453   0.432 -0.4754  0.1030  0.0645
  216SOL     OW  909   1.586   1.525   0.873 -0.7157 -0.3152 -0.4146
  216SOL    HW2  910   1.509   1.573   0.844 -0.5819  0.3916  0.3918
  216SOL    HW3  911   1.570   1.508   0.965  0.0740 -0.2074 -0.2551
  216SOL    MW4  912   1.574   1.529   0.881 -0.5938 -0.2077 -0.2871
  217SOL     OW  913   2.394   0.850   0.549  0.3346  0.2474 -0.2217
  217SOL    HW2  914   2.469   0.904   0.574  0.2734  1.1384 -1.8985
  217SOL    HW3  915   2.432   0.765   0.528  0.5355 -0.1215  1.6010
  217SOL    MW4  916   2.409   0.846   0.549  0.3531  0.3164 -0.2024
  218SOL     OW  917   0.741   0.765   0.847  0.4254 -0.4762  0.1534
  218SOL    HW2  918   0.721   0.683   0.802  0.5071 -0.0152 -0.7281
  218SOL    HW3  919   0.828   0.789   0.815  0.3106  0.0655  0.2556
  218SOL    MW4  920   0.750   0.757   0.837  0.4211 -0.3438  0.0505
  219SOL     OW  921   1.823   3.484   0.817 -0.0529  0.2825  0.3958
  219SOL    HW2  922   1.911   3.513   0.792  0.1122  0.6681  1.4152
  219SOL    HW3  923   1.822   3.489   0.913 -1.0785 -0.0324  0.4084
  219SOL    MW4  924   1.835   3.488   0.827 -0.1665  0.2921  0.5320
  220SOL     OW  925   0.085   4.560   0.323  0.2147  0.0134  0.1394
  220SOL    HW2  926   0.005   4.526   0.362 -0.3156  0.3973 -0.5889
  220SOL    HW3  927   0.109   4.635   0.378 -0.5709  0.5986 -0.3007
  220SOL    MW4  928   0.078   4.566   0.335  0.0410  0.1411 -0.0148
  221SOL     OW  929   1.470   2.469   0.455  0.2920  0.6243 -0.5320
  221SOL    HW2  930   1.564   2.452   0.446  0.2770  0.7687 -0.9625
  221SOL    HW3  931   1.454   2.462   0.549  0.3381 -1.5203 -0.6572
  221SOL    MW4  932   1.481   2.465   0.466  0.2961  0.3603 -0.6053
  222SOL     OW  933   2.235   0.484   0.491 -0.3796  0.2480  0.2642
  222SOL    HW2  934   2.322   0.524   0.492 -1.2053  2.1461 -0.7032
  222SOL    HW3  935   2.252   0.390   0.477  1.4403  0.8731 -2.1778
  222SOL    MW4  936   2.249   0.477   0.489 -0.2484  0.5809 -0.1856
  223SOL     OW  937   2.955   2.032   0.745  0.2112 -0.1844  0.3533
  223SOL    HW2  938   2.872   1.992   0.769 -0.4282  0.8748 -0.0737
  223SOL    HW3  939   2.956   2.116   0.791  0.4252  0.4118 -0.7139
  223SOL    MW4  940   2.944   2.038   0.754  0.1550  0.0339  0.1562
  224SOL     OW  941   0.476   1.736   0.429 -0.0565 -0.0479 -0.1009
  224SOL    HW2  942   0.563   1.763   0.401  0.3677  1.6793  2.7064
  224SOL    HW3  943   0.422   1.814   0.418 -1.1107 -0.8981 -1.1187
  224SOL    MW4  944   0.480   1.750   0.424 -0.1396  0.0677  0.1352
  225SOL     OW  945   2.001   2.889   0.476 -0.0098 -0.2481 -0.0385
  225SOL    HW2  946   1.955   2.971   0.465  2.1480  0.6883 -2.8416
  225SOL    HW3  947   1.946   2.824   0.432 -0.5578  0.1357  0.0808
  225SOL    MW4  948   1.988   2.891   0.469  0.2025 -0.0741 -0.3926
  226SOL     OW  949   3.120   3.045   0.491  0.0606 -0.0041  0.0045
  226SOL    HW2  950   3.100   3.128   0.448  0.0980  0.1167  0.2151
  226SOL    HW3  951   3.038   2.997   0.493  0.0828 -0.0523 -0.2926
  226SOL    MW4  952   3.107   3.050   0.486  0.0684  0.0057 -0.0069
  227SOL     OW  953   1.405   2.691   0.315  0.2400  0.5711 -0.0737
  227SOL    HW2  954   1.404   2.669   0.221  3.1086  0.2920 -0.0674
  227SOL    HW3  955   1.412   2.607   0.359 -0.0057  0.7747  0.3498
  227SOL    MW4  956   1.406   2.677   0.308  0.5860  0.5612 -0.0170
  228SOL     OW  957   0.931   0.166   0.669  0.0450  0.7448  0.4054
  228SOL    HW2  958   0.919   0.252   0.710  0.9570  0.8861  0.3833
  228SOL    HW3  959   0.859   0.113   0.703  1.5720  0.4460  3.2834
  228SOL    MW4  960   0.920   0.171   0.679  0.3667  0.7240  0.7823
  229SOL     OW  961   3.435   3.080   0.873  0.1063 -0.0754  0.0252
  229SOL    HW2  962   3.515   3.129   0.851  0.8910 -1.1700  0.4077
  229SOL    HW3  963   3.437   3.072   0.968 -1.0235  0.8122  0.1422
  229SOL    MW4  964   3.446   3.085   0.882  0.0608 -0.1028  0.0911
  230SOL     OW  965   2.696   0.910   1.260 -0.2784 -0.4505  0.0179
  230SOL    HW2  966   2.782   0.871   1.244 -1.1107 -2.6206  0.6572
  230SOL    HW3  967   2.702   0.997   1.221  1.6024 -1.2516 -1.5882
  230SOL    MW4  968   2.708   0.916   1.252 -0.1400 -0.8425 -0.1096
  231SOL     OW  969   2.901   3.830   0.829 -0.4361  0.5496 -0.0669
  231SOL    HW2  970   2.929   3.750   0.785  2.4327  1.6923 -0.4060
  231SOL    HW3  971   2.909   3.810   0.923 -1.7321 -0.2277 -0.1155
  231SOL    MW4  972   2.905   3.817   0.836 -0.2284  0.5977 -0.1180
  232SOL     OW  973   2.081   4.175   0.456  0.0686  0.4073  0.0222
  232SOL    HW2  974   2.105   4.083   0.447  1.4041  0.6338  1.2099
  232SOL    HW3  975   2.159   4.224   0.431 -0.3193  1.2134  0.3474
  232SOL    MW4  976   2.094   4.170   0.452  0.1936  0.5441  0.2218
  233SOL     OW  977   3.393   0.489   0.734  0.6375 -0.1159  0.2054
  233SOL    HW2  978   3.326   0.433   0.773  0.2820 -0.0273 -0.2732
  233SOL    HW3  979   3.382   0.574   0.779 -0.0344  0.1033 -0.3609
  233SOL    MW4  980   3.383   0.493   0.745  0.5021 -0.0753  0.0675
  234SOL     OW  981   3.379   0.483   1.248 -0.1189  0.4418  0.0660
  234SOL    HW2  982   3.314   0.444   1.190  1.4030  0.1398 -1.4634
  234SOL    HW3  983   3.385   0.574   1.219 -1.0066  0.8911  1.2521
  234SOL    MW4  984   3.371   0.490   1.236 -0.0348  0.4612  0.0209
  235SOL     OW  985   0.725   3.562   0.763 -0.3591 -0.1875  0.3735
  235SOL    HW2  986   0.735   3.545   0.669 -0.6762 -1.4332  0.5582
  235SOL    HW3  987   0.794   3.511   0.804 -1.6154 -1.4561  0.9703
  235SOL    MW4  988   0.735   3.553   0.756 -0.5667 -0.5190  0.4766
  236SOL     OW  989   3.629   4.214   0.827  0.0860  0.4205 -0.9198
  236SOL    HW2  990   3.623   4.130   0.783 -0.4529  0.9636 -1.9093
  236SOL    HW3  991   3.547   4.258   0.805 -0.1368  0.7580  0.5221
  236SOL    MW4  992   3.617   4.209   0.818 -0.0148  0.5364 -0.8602
  237SOL     OW  993   0.260   4.632   1.147  0.1156 -0.4323  0.6821
  237SOL    HW2  994   0.343   4.662   1.184 -0.7353  1.7680  0.8811
  237SOL    HW3  995   0.276   4.625   1.053 -0.2755  2.9961  0.2858
  237SOL    MW4  996   0.273   4.635   1.140 -0.0482  0.3099  0.6561
  238SOL     OW  997   3.519   2.130   0.323  0.0427  0.3093  0.2055
  238SOL    HW2  998   3.515   2.120   0.228 -0.1037 -0.1742  0.2582
  238SOL    HW3  999   3.458   2.064   0.356  0.2722  0.3140  0.6409
  238SOL    MW4 1000   3.510   2.120   0.315  0.0539  0.2460  0.2699
  239SOL     OW 1001   0.686   1.534   1.103  0.1200 -0.1926  0.0671
  239SOL    HW2 1002   0.762   1.581   1.137 -0.1887  0.1520  0.2803
  239SOL    HW3 1003   0.700   1.533   1.008  1.2271 -1.5838  0.2230
  239SOL    MW4 1004   0.698   1.540   1.095  0.2254 -0.3307  0.1158
  240SOL     OW 1005   1.189   1.266   0.704  0.0071 -0.5110 -0.1160
  240SOL    HW2 1006   1.263   1.226   0.750 -0.0426  0.0157  0.4302
  240SOL    HW3 1007   1.112   1.227   0.744 -0.0331 -0.1632  0.1514
  240SOL    MW4 1008   1.189   1.256   0.715 -0.0048 -0.3955 -0.0086
  241SOL     OW 1009   0.439   4.244   0.833  0.2877 -0.6086 -0.3789
  241SOL    HW2 1010   0.468   4.166   0.787 -2.7760 -1.8758 -0.2797
  241SOL    HW3 1011   0.431   4.217   0.924 -0.5838 -0.1417 -0.3095
  241SOL    MW4 1012   0.442   4.230   0.839 -0.2315 -0.7138 -0.3567
  242SOL     OW 1013   1.697   3.299   0.400  0.0128  0.3130 -0.2354
  242SOL    HW2 1014   1.609   3.335   0.392 -0.4032 -0.6993 -0.2976
  242SOL    HW3 1015   1.755   3.367   0.364 -0.6635  1.3313  0.5856
  242SOL    MW4 1016   1.693   3.313   0.394 -0.1311  0.3135 -0.1353
  243SOL     OW 1017   4.484   2.711   0.875 -0.6033  0.2740 -0.1137
  243SOL    HW2 1018   4.571   2.734   0.841 -0.7289 -1.2798 -1.5943
  243SOL    HW3 1019   4.493   2.717   0.970  1.3884 -0.6599 -0.2043
  243SOL    MW4 1020   4.497   2.715   0.883 -0.3571 -0.0541 -0.3210
  244SOL     OW 1021   4.021   1.179   0.786  0.4169  0.5615 -0.1601
  244SOL    HW2 1022   3.999   1.147   0.873 -0.4508 -0.5760 -0.7929
  244SOL    HW3 1023   3.941   1.222   0.755  0.3753  0.0019 -0.8323
  244SOL    MW4 1024   4.007   1.181   0.794  0.2975  0.3376 -0.3322
  245SOL     OW 1025   0.289   4.380   0.420  0.3369  0.1214  0.0031
  245SOL    HW2 1026   0.307   4.289   0.397  1.8335  0.6030 -0.8611
  245SOL    HW3 1027   0.218   4.406   0.362  1.5355  0.1945 -1.4703
  245SOL    MW4 1028   0.282   4.371   0.409  0.6925  0.1945 -0.3053
  246SOL     OW 1029   1.082   4.438   0.454  0.0428  0.1048 -0.2699
  246SOL    HW2 1030   1.038   4.522   0.450 -0.2832 -0.0764 -0.5099
  246SOL    HW3 1031   1.106   4.427   0.546 -1.8233 -0.5152  0.1616
  246SOL    MW4 1032   1.080   4.447   0.465 -0.2464 -0.0010 -0.2447
  247SOL     OW 1033   2.478   3.851   1.054 -0.5071 -0.7120 -0.0478
  247SOL    HW2 1034   2.407   3.901   1.095  0.2900  0.4802 -0.0933
  247SOL    HW3 1035   2.469   3.869   0.960  0.7929  0.7171  0.0818
  247SOL    MW4 1036   2.467   3.860   1.047 -0.2306 -0.3664 -0.0366
  248SOL     OW 1037   3.900   3.072   0.836 -0.2583  0.0188  0.4372
  248SOL    HW2 1038   3.973   3.121   0.800  0.0708 -0.0718  0.9815
  248SOL    HW3 1039   3.896   2.992   0.783 -0.4569  0.3790 -0.0961
  248SOL    MW4 1040   3.909   3.068   0.824 -0.2410  0.0544  0.4387
  249SOL     OW 1041   3.400   2.566   0.244  0.4418 -0.1300  0.4924
  249SOL    HW2 1042   3.306   2.578   0.229  0.1346 -0.2727  2.2064
  249SOL    HW3 1043   3.405   2.503   0.315  1.9009 -2.0928 -1.3112
  249SOL    MW4 1044   3.388   2.560   0.252  0.5937 -0.4077  0.4806
  250SOL     OW 1045   2.740   3.970   0.443 -0.3135  0.0923  0.0530
  250SOL    HW2 1046   2.746   3.978   0.538 -0.6760 -1.2835  0.1913
  250SOL    HW3 1047   2.770   3.882   0.423  0.0864  0.4846 -1.1440
  250SOL    MW4 1048   2.744   3.960   0.453 -0.3088 -0.0377 -0.0867
  251SOL     OW 1049   4.249   3.945   0.828 -0.1260 -0.1708  0.0483
  251SOL    HW2 1050   4.243   3.925   0.922 -1.2055 -0.1375 -0.0033
  251SOL    HW3 1051   4.335   3.985   0.818  0.2189 -0.6733  0.9350
  251SOL    MW4 1052   4.259   3.948   0.839 -0.2232 -0.2329  0.1584
  252SOL     OW 1053   2.011   1.215   0.461 -0.1815 -0.0863 -0.5902
  252SOL    HW2 1054   2.080   1.168   0.414 -0.8612  0.2811 -1.9884
  252SOL    HW3 1055   1.931   1.165   0.441 -0.3839 -0.3034  0.7206
  252SOL    MW4 1056   2.010   1.202   0.452 -0.2980 -0.0665 -0.6017
  253SOL     OW 1057   4.296   0.826   0.801 -1.0250  0.5190 -0.0117
  253SOL    HW2 1058   4.380   0.863   0.773  0.0017 -0.3545  1.7763
  253SOL    HW3 1059   4.302   0.734   0.777 -0.9976  0.2216  1.1000
  253SOL    MW4 1060   4.308   0.819   0.794 -0.8864  0.3645  0.3709
  254SOL     OW 1061   3.803   0.817   0.869 -0.1016  0.5918  0.1638
  254SOL    HW2 1062   3.873   0.862   0.823 -0.0038 -0.6286 -0.9178
  254SOL    HW3 1063   3.723   0.843   0.823 -0.1332  0.3549  0.0815
  254SOL    MW4 1064   3.802   0.826   0.857 -0.0927  0.3995  0.0104
  255SOL     OW 1065   0.362   3.551   0.460  0.2264  0.0373  0.2365
  255SOL    HW2 1066   0.281   3.599   0.444  0.0367 -0.2894  0.2118
  255SOL    HW3 1067   0.432   3.615   0.444 -0.0496  0.5957  1.2250
  255SOL    MW4 1068   0.361   3.566   0.456  0.1650  0.0679  0.3637
  256SOL     OW 1069   3.781   1.310   0.730  0.2894  0.3205 -0.1973
  256SOL    HW2 1070   3.790   1.390   0.781 -0.6138  0.8615 -0.8708
  256SOL    HW3 1071   3.707   1.264   0.769  0.3214  0.1818 -0.2984
  256SOL    MW4 1072   3.773   1.315   0.742  0.1745  0.3736 -0.2996
  257SOL     OW 1073   1.334   4.457   0.315  0.2570 -0.2685  0.0575
  257SOL    HW2 1074   1.354   4.547   0.288 -0.1371  0.2967  1.5780
  257SOL    HW3 1075   1.258   4.466   0.373 -0.4567 -1.7023 -0.6338
  257SOL    MW4 1076   1.326   4.470   0.319  0.1109 -0.3829  0.1669
  258SOL     OW 1077   0.287   1.953   0.455 -0.6320  0.0261  0.1895
  258SOL    HW2 1078   0.318   2.033   0.413  0.3790 -0.9114 -0.9025
  258SOL    HW3 1079   0.266   1.979   0.545 -0.5864  1.5589 -0.2274
  258SOL    MW4 1080   0.288   1.967   0.461 -0.4926  0.1048 -0.0096
  259SOL     OW 1081   3.431   4.638   0.828 -0.0862 -0.0581 -0.0317
  259SOL    HW2 1082   3.504   4.697   0.809  1.0263 -1.8086 -1.2858
  259SOL    HW3 1083   3.355   4.682   0.789  0.2273  1.8548  1.4238
  259SOL    MW4 1084   3.431   4.652   0.820  0.1020 -0.0367 -0.0052
  260SOL     OW 1085   3.599   1.918   0.846  0.0119  0.0317 -0.2501
  260SOL    HW2 1086   3.577   1.825   0.837 -1.3096  0.2319  0.7968
  260SOL    HW3 1087   3.530   1.964   0.800 -1.4302  0.6339  2.3938
  260SOL    MW4 1088   3.587   1.912   0.839 -0.3526  0.1374  0.2368
  261SOL     OW 1089   2.291   0.209   0.474  0.2337  0.2484  0.0867
  261SOL    HW2 1090   2.217   0.154   0.447 -0.5112  1.5799 -0.6763
  261SOL    HW3 1091   2.368   0.167   0.435 -0.3380 -0.1884 -0.5883
  261SOL    MW4 1092   2.291   0.196   0.465  0.0601  0.3664 -0.1030
  262SOL     OW 1093   3.794   2.060   0.696  0.0338 -0.0028  0.1694
  262SOL    HW2 1094   3.722   2.003   0.725  0.8304 -0.8253  0.5527
  262SOL    HW3 1095   3.800   2.127   0.764  0.1917 -0.4329  0.5854
  262SOL    MW4 1096   3.785   2.061   0.709  0.1597 -0.1681  0.2749
  263SOL     OW 1097   3.869   0.334   0.569 -0.3882  0.5897  0.3076
  263SOL    HW2 1098   3.779   0.326   0.538 -0.3112  0.1173  0.2035
  263SOL    HW3 1099   3.906   0.247   0.559  0.5531  1.1351 -1.0663
  263SOL    MW4 1100   3.862   0.322   0.564 -0.2537  0.5993  0.1127
  264SOL     OW 1101   2.095   2.363   0.328  0.3608 -0.0163  0.4526
  264SOL    HW2 1102   2.080   2.441   0.276 -0.2425  0.0094  0.6601
  264SOL    HW3 1103   2.136   2.395   0.408  0.6961  0.0152  0.2691
  264SOL    MW4 1104   2.098   2.377   0.332  0.3259 -0.0083  0.4558
  265SOL     OW 1105   1.784   1.614   0.533 -0.8055 -0.0981 -0.1111
  265SOL    HW2 1106   1.872   1.580   0.517 -0.7461  0.0604 -0.1277
  265SOL    HW3 1107   1.728   1.562   0.476 -0.3944  1.4738 -2.0207
  265SOL    MW4 1108   1.788   1.603   0.523 -0.7435  0.1303 -0.3653
  266SOL     OW 1109   0.491   0.122   0.756  0.1080 -0.4678  0.1436
  266SOL    HW2 1110   0.578   0.081   0.761  0.2473 -0.1796  0.1258
  266SOL    HW3 1111   0.431   0.056   0.791  0.3714 -0.5664  0.4150
  266SOL    MW4 1112   0.495   0.108   0.761  0.1612 -0.4428  0.1771
  267SOL     OW 1113   2.961   2.136   0.477  0.6839 -0.0917  0.0516
  267SOL    HW2 1114   2.976   2.098   0.564 -1.8229  0.2308  0.6490
  267SOL    HW3 1115   3.001   2.073   0.417  0.4973 -1.4423  1.3059
  267SOL    MW4 1116   2.968   2.123   0.481  0.3285 -0.2275  0.2959
  268SOL     OW 1117   4.095   1.035   0.372  0.0644  0.0313  0.5440
  268SOL    HW2 1118   4.080   0.957   0.424 -0.4866 -0.5822 -0.5393
  268SOL    HW3 1119   4.091   1.006   0.281  1.0091  1.0967  0.1409
  268SOL    MW4 1120   4.093   1.021   0.367  0.1163  0.0910  0.3478
  269SOL     OW 1121   4.159   3.046   0.403  0.0347  0.0110 -0.0295
  269SOL    HW2 1122   4.073   3.017   0.435  0.4435 -0.5884  0.5280
  269SOL    HW3 1123   4.197   2.969   0.362  0.4423  0.1867  0.0205
  269SOL    MW4 1124   4.153   3.032   0.402  0.1426 -0.0446  0.0506
  270SOL     OW 1125   2.860   2.940   0.487 -0.2357 -0.5127 -0.1515
  270SOL    HW2 1126   2.850   2.914   0.579  0.1670  0.6360  0.2341
  270SOL    HW3 1127   2.827   3.030   0.485  1.3534  0.0814 -0.7610
  270SOL    MW4 1128   2.854   2.948   0.499  0.0269 -0.2828 -0.1810
  271SOL     OW 1129   3.201   3.179   0.742  0.0859 -0.1211 -0.4997
  271SOL    HW2 1130   3.187   3.141   0.655  1.4687  2.0006 -1.6583
  271SOL    HW3 1131   3.282   3.139   0.773  0.2199  0.0189 -0.6725
  271SOL    MW4 1132   3.210   3.168   0.735  0.2861  0.1771 -0.6754
  272SOL     OW 1133   4.272   2.832   0.251 -0.2346  0.5226  0.4518
  272SOL    HW2 1134   4.269   2.745   0.291  1.0875 -0.9731 -2.5446
  272SOL    HW3 1135   4.363   2.860   0.260  0.4103 -0.4340 -2.6289
  272SOL    MW4 1136   4.283   2.824   0.257  0.0253  0.1991 -0.3500
  273SOL     OW 1137   3.580   3.754   0.352  0.0841 -0.1164  0.1762
  273SOL    HW2 1138   3.516   3.812   0.311  0.8884 -0.3169 -1.4286
  273SOL    HW3 1139   3.529   3.697   0.409 -0.9843  0.6560 -0.0071
  273SOL    MW4 1140   3.565   3.754   0.354  0.0491 -0.0410 -0.0598
  274SOL     OW 1141   0.554   2.491   0.492 -0.1025 -0.0823  0.0445
  274SOL    HW2 1142   0.648   2.506   0.488 -0.0886 -0.2316 -0.1620
  274SOL    HW3 1143   0.536   2.477   0.585  0.2168 -0.9590 -0.0165
  274SOL    MW4 1144   0.564   2.491   0.504 -0.0585 -0.2174  0.0092
  275SOL     OW 1145   3.843   1.535   0.865 -0.2596  0.2134  0.1952
  275SOL    HW2 1146   3.772   1.586   0.824  0.0713 -0.3461 -1.1097
  275SOL    HW3 1147   3.923   1.579   0.835 -0.0382  0.5545  1.2775
  275SOL    MW4 1148   3.844   1.548   0.856 -0.1867  0.1845  0.1657
  276SOL     OW 1149   0.405   0.171   0.506  0.1716  0.0623  0.5022
  276SOL    HW2 1150   0.438   0.150   0.593 -1.1797  0.1914  1.0645
  276SOL    HW3 1151   0.310   0.159   0.512  0.1009 -0.4109 -1.0912
  276SOL    MW4 1152   0.397   0.166   0.518 -0.0160  0.0169  0.3662
  277SOL     OW 1153   4.432   2.120   0.379 -0.0889  0.5077  0.7628
  277SOL    HW2 1154   4.513   2.164   0.405  0.5124  0.0236 -0.2855
  277SOL    HW3 1155   4.380   2.187   0.335  0.2007  0.5310  0.4628
  277SOL    MW4 1156   4.436   2.134   0.377  0.0291  0.4468  0.5849
  278SOL     OW 1157   1.120   0.614   0.478  0.4406  0.1200  0.4571
  278SOL    HW2 1158   1.168   0.693   0.456 -0.0047  0.0303 -0.8434
  278SOL    HW3 1159   1.041   0.618   0.425  0.6951 -1.4832 -0.0662
  278SOL    MW4 1160   1.116   0.625   0.468  0.4154 -0.1034  0.2164
  279SOL     OW 1161   2.258   1.600   0.741  0.2301 -0.3303  0.6231
  279SOL    HW2 1162   2.343   1.571   0.774  0.5046  1.1579  1.2540
  279SOL    HW3 1163   2.253   1.693   0.766 -1.3393 -0.2690  0.1111
  279SOL    MW4 1164   2.269   1.609   0.749  0.0591 -0.1259  0.6388
  280SOL     OW 1165   1.744   3.748   0.504 -0.5677  0.6439  0.3382
  280SOL    HW2 1166   1.777   3.821   0.555  0.2260  0.5155  0.0129
  280SOL    HW3 1167   1.698   3.693   0.568  1.4828 -0.1567  1.1582
  280SOL    MW4 1168   1.742   3.750   0.519 -0.1924  0.5212  0.4035
  281SOL     OW 1169   2.346   4.291   0.397  0.4012 -0.2249 -0.3080
  281SOL    HW2 1170   2.414   4.351   0.427  0.3091  0.2142 -0.9549
  281SOL    HW3 1171   2.394   4.214   0.365  0.4668 -0.9751  1.5483
  281SOL    MW4 1172   2.361   4.289   0.396  0.3977 -0.2666 -0.1484
  282SOL     OW 1173   4.013   2.391   0.758  0.5790  0.0686  0.6509
  282SOL    HW2 1174   4.086   2.335   0.783  1.3548  1.0946  0.7030
  282SOL    HW3 1175   4.026   2.406   0.664 -0.3260 -0.8391  0.3656
  282SOL    MW4 1176   4.024   2.385   0.749  0.5617  0.0842  0.6202
  283SOL     OW 1177   2.732   0.599   0.302 -0.1960  0.0772 -0.3535
  283SOL    HW2 1178   2.750   0.669   0.364 -1.4647  0.1103 -0.0088
  283SOL    HW3 1179   2.752   0.636   0.216 -0.1334  0.6053 -0.1088
  283SOL    MW4 1180   2.737   0.613   0.299 -0.3552  0.1512 -0.2757
  284SOL     OW 1181   0.837   0.596   0.369 -0.2236 -0.3379 -0.2449
  284SOL    HW2 1182   0.742   0.606   0.375 -0.1278 -0.1869  1.0246
  284SOL    HW3 1183   0.849   0.507   0.335 -0.8551  0.5292 -2.9106
  284SOL    MW4 1184   0.826   0.586   0.365 -0.2942 -0.2036 -0.4291
  285SOL     OW 1185   3.286   0.061   0.480 -0.2205 -0.0031 -0.2133
  285SOL    HW2 1186   3.246   0.140   0.444 -1.5397 -0.4589  0.1925
  285SOL    HW3 1187   3.263  -0.008   0.417 -0.3380 -0.3252  0.1773
  285SOL    MW4 1188   3.277   0.062   0.466 -0.4098 -0.1057 -0.1082
  286SOL     OW 1189   2.966   0.439   0.705 -0.0382  0.5349 -1.1020
  286SOL    HW2 1190   2.942   0.531   0.716 -0.9854  0.2929 -1.1086
  286SOL    HW3 1191   2.932   0.416   0.618 -2.8305 -0.7539  0.2888
  286SOL    MW4 1192   2.959   0.448   0.695 -0.5319  0.3329 -0.9194
  287SOL     OW 1193   0.024   1.686   0.711  0.3259  0.0114 -0.5013
  287SOL    HW2 1194   0.109   1.647   0.731  1.2567  2.3493  0.3571
  287SOL    HW3 1195   0.015   1.678   0.616  2.4004  1.3843 -0.8490
  287SOL    MW4 1196   0.034   1.680   0.701  0.7224  0.5010 -0.4340
  288SOL     OW 1197   0.959   1.141   0.809 -0.5527  0.4380 -0.1137
  288SOL    HW2 1198   0.886   1.177   0.760 -0.5880  0.9737  0.3226
  288SOL    HW3 1199   0.935   1.154   0.901  0.0068  0.4618  0.0320
  288SOL    MW4 1200   0.946   1.147   0.815 -0.4836  0.5118 -0.0370
  289SOL     OW 1201   1.265   0.168   0.480  0.4047  0.1668 -0.0659
  289SOL    HW2 1202   1.336   0.130   0.428  1.2206  0.4832  0.7951
  289SOL    HW3 1203   1.185   0.137   0.438  1.0270  1.1904 -2.0952
  289SOL    MW4 1204   1.264   0.159   0.468  0.5945  0.3436 -0.2201
  290SOL     OW 1205   0.740   3.828   0.816 -0.1415 -0.2433 -0.0820
  290SOL    HW2 1206   0.711   3.834   0.907 -0.2175 -0.2062 -0.1084
  290SOL    HW3 1207   0.719   3.738   0.790 -2.0806  0.3533 -0.7197
  290SOL    MW4 1208   0.733   3.817   0.825 -0.4073 -0.1597 -0.1696
  291SOL     OW 1209   2.945   2.291   0.870  0.1052 -0.1695 -0.3144
  291SOL    HW2 1210   3.022   2.344   0.850 -0.9668  1.9453  0.9969
  291SOL    HW3 1211   2.933   2.301   0.965 -1.8820 -0.3421 -0.5354
  291SOL    MW4 1212   2.954   2.299   0.880 -0.2985  0.0868 -0.1706
  292SOL     OW 1213   1.136   2.098   0.454 -0.6652  0.4220  0.1123
  292SOL    HW2 1214   1.139   2.119   0.547 -0.8392  0.0488  0.2045
  292SOL    HW3 1215   1.222   2.125   0.421 -0.8624  1.2089  0.2325
  292SOL    MW4 1216   1.148   2.104   0.462 -0.7142  0.4768  0.1403
  293SOL     OW 1217   1.926   0.624   0.447  0.1223  0.9106  0.0545
  293SOL    HW2 1218   1.861   0.558   0.424  0.8931 -0.2057  1.0145
  293SOL    HW3 1219   2.009   0.587   0.417  0.5599  1.4720  0.5615
  293SOL    MW4 1220   1.929   0.611   0.440  0.2818  0.8374  0.2480
  294SOL     OW 1221   0.480   2.716   1.131  0.0433 -0.2308  0.3710
  294SOL    HW2 1222   0.473   2.710   1.036 -0.1350  0.6393  0.3252
  294SOL    HW3 1223   0.400   2.761   1.158 -0.2506 -1.1103  1.0040
  294SOL    MW4 1224   0.468   2.721   1.122 -0.0190 -0.2322  0.4486
  295SOL     OW 1225   1.596   4.635   0.841 -0.5361  0.0667  0.3210
  295SOL    HW2 1226   1.595   4.547   0.802 -1.0959  0.2115  0.0084
  295SOL    HW3 1227   1.518   4.677   0.806 -0.4936  0.5462  0.8104
  295SOL    MW4 1228   1.586   4.629   0.831 -0.6044  0.1493  0.3443
  296SOL     OW 1229   1.408   2.700   0.818  0.0099  0.1039 -0.1593
  296SOL    HW2 1230   1.396   2.706   0.913 -1.1661  1.4712 -0.3794
  296SOL    HW3 1231   1.416   2.606   0.801  1.6459 -0.0826  1.4458
  296SOL    MW4 1232   1.408   2.689   0.828  0.0707  0.2599  0.0234
  297SOL     OW 1233   1.812   0.108   0.697 -0.0539  0.1523 -0.7380
  297SOL    HW2 1234   1.888   0.070   0.740 -0.4508  0.7457  0.4923
  297SOL    HW3 1235   1.737   0.062   0.734 -0.4869  1.5566  0.1932
  297SOL    MW4 1236   1.812   0.097   0.707 -0.1633  0.4159 -0.4527
  298SOL     OW 1237   0.255   1.546   0.804  0.2616  0.4046  0.1377
  298SOL    HW2 1238   0.237   1.557   0.898 -0.2592 -0.6460  0.1660
  298SOL    HW3 1239   0.255   1.452   0.790  2.4605  0.4899 -0.5314
  298SOL    MW4 1240   0.253   1.535   0.815  0.4829  0.2770  0.0532
  299SOL     OW 1241   2.528   3.581   0.676  0.0689  0.2841  0.1247
  299SOL    HW2 1242   2.536   3.668   0.714  0.1632  0.3585 -0.0689
  299SOL    HW3 1243   2.493   3.595   0.588  0.7423  0.1771 -0.1634
  299SOL    MW4 1244   2.524   3.594   0.670  0.1702  0.2799  0.0612
  300SOL     OW 1245   4.471   4.162   0.483 -0.3937  0.4644 -0.0646
  300SOL    HW2 1246   4.439   4.124   0.401  0.2703  0.6735 -0.4263
  300SOL    HW3 1247   4.520   4.091   0.525  0.4587  0.7669 -0.5238
  300SOL    MW4 1248   4.474   4.148   0.477 -0.1941  0.5322 -0.1729
  301SOL     OW 1249   2.450   1.259   0.444  0.2951 -0.4020 -0.2943
  301SOL    HW2 1250   2.533   1.307   0.449  0.4708 -0.5148 -1.9102
  301SOL    HW3 1251   2.384   1.326   0.426  0.2379 -0.5036 -0.4613
  301SOL    MW4 1252   2.452   1.274   0.442  0.3111 -0.4302 -0.5296
  302SOL     OW 1253   1.149   3.843   0.807 -0.2063  0.4581  0.0100
  302SOL    HW2 1254   1.159   3.764   0.754  1.1409 -0.5453  1.7085
  302SOL    HW3 1255   1.211   3.905   0.770 -0.1978  0.2144 -0.3880
  302SOL    MW4 1256   1.158   3.841   0.795 -0.0274  0.2937  0.1816
  303SOL     OW 1257   2.723   3.219   1.181  0.0494  0.3663 -0.4312
  303SOL    HW2 1258   2.802   3.169   1.160  0.7972  1.4461 -0.2036
  303SOL    HW3 1259   2.652   3.155   1.174  0.9150 -0.5636 -0.8422
  303SOL    MW4 1260   2.724   3.204   1.177  0.2625  0.3858 -0.4554
  304SOL     OW 1261   0.288   4.644   0.859  0.5772  0.3519 -0.0599
  304SOL    HW2 1262   0.281   4.565   0.806  0.0639 -0.8211  1.7069
  304SOL    HW3 1263   0.206   4.691   0.845  0.5930  0.2192 -0.5827
  304SOL    MW4 1264   0.277   4.640   0.850  0.5116  0.1793  0.1042
  305SOL     OW 1265   4.157   3.507   0.856 -0.4947  0.0579  0.0949
  305SOL    HW2 1266   4.129   3.425   0.815 -1.3137  1.1639 -1.6197
  305SOL    HW3 1267   4.125   3.501   0.946 -0.5879 -1.4771 -0.0212
  305SOL    MW4 1268   4.149   3.495   0.862 -0.6151  0.0012 -0.1466
  306SOL     OW 1269   2.048   0.714   0.819 -0.0691  0.0011  0.6787
  306SOL    HW2 1270   1.979   0.761   0.772 -0.5496 -0.5243  0.8530
  306SOL    HW3 1271   2.127   0.765   0.802 -0.1718 -0.3436 -0.9432
  306SOL    MW4 1272   2.049   0.727   0.810 -0.1462 -0.1137  0.4877
  307SOL     OW 1273   0.209   0.487   0.692 -0.4226 -0.0981 -0.3923
  307SOL    HW2 1274   0.233   0.468   0.601  0.7434  2.5215 -0.6879
  307SOL    HW3 1275   0.223   0.581   0.701 -2.0273 -0.0413  2.0733
  307SOL    MW4 1276   0.214   0.497   0.681 -0.4805  0.2550 -0.1060
  308SOL     OW 1277   0.012   4.024   0.802 -0.4017  0.0555  0.0099
  308SOL    HW2 1278   0.032   4.115   0.822 -1.5822 -0.0770  1.8896
  308SOL    HW3 1279   0.093   3.977   0.820  0.2397  0.7284 -1.0539
  308SOL    MW4 1280   0.025   4.030   0.807 -0.4728  0.1268  0.1176
  309SOL     OW 1281   0.741   1.820   0.389 -0.2267 -0.1683  0.1336
  309SOL    HW2 1282   0.782   1.739   0.420 -0.7255 -0.8469 -0.9313
  309SOL    HW3 1283   0.793   1.845   0.312 -0.7996 -0.1403 -0.2488
  309SOL    MW4 1284   0.754   1.813   0.383 -0.3681 -0.2542 -0.0574
  310SOL     OW 1285   3.577   0.196   0.501 -0.6986  0.1325  0.0892
  310SOL    HW2 1286   3.484   0.173   0.507 -0.7383  0.4085  0.4668
  310SOL    HW3 1287   3.615   0.169   0.585 -0.2562 -0.8212 -0.4042
  310SOL    MW4 1288   3.570   0.189   0.513 -0.6452  0.0430  0.0740
  311SOL     OW 1289   2.736   2.417   0.732 -0.8416  0.1078 -0.3896
  311SOL    HW2 1290   2.808   2.376   0.780 -2.2019 -1.7992  0.0671
  311SOL    HW3 1291   2.731   2.506   0.769  0.0996 -0.3348  0.8477
  311SOL    MW4 1292   2.745   2.423   0.743 -0.8969 -0.2024 -0.1661
  312SOL     OW 1293   2.920   1.233   0.736  0.1324 -0.4218  0.2629
  312SOL    HW2 1294   2.996   1.186   0.772  1.1211  0.1736 -0.9892
  312SOL    HW3 1295   2.937   1.235   0.642 -0.9261  0.6542  0.0950
  312SOL    MW4 1296   2.932   1.227   0.728  0.1230 -0.2013  0.0756
  313SOL     OW 1297   3.152   1.115   0.869  0.0747 -0.3480  0.1696
  313SOL    HW2 1298   3.130   1.098   0.960 -0.1175 -1.5415 -0.0897
  313SOL    HW3 1299   3.149   1.029   0.827  0.4034  0.1549 -0.9084
  313SOL    MW4 1300   3.149   1.101   0.875  0.0927 -0.4390 -0.0069
  314SOL     OW 1301   3.140   1.094   1.141  0.1130 -0.1488 -0.5702
  314SOL    HW2 1302   3.205   1.150   1.184 -0.8298 -0.4574  1.2598
  314SOL    HW3 1303   3.056   1.123   1.175 -0.5772 -1.0644 -1.4556
  314SOL    MW4 1304   3.138   1.105   1.151 -0.1023 -0.3104 -0.4456
  315SOL     OW 1305   3.635   3.948   0.758 -0.5776  0.4664 -0.1580
  315SOL    HW2 1306   3.625   3.949   0.663 -0.6240  0.2218 -0.1559
  315SOL    HW3 1307   3.555   3.907   0.791  0.1060 -0.8600 -0.1074
  315SOL    MW4 1308   3.623   3.943   0.750 -0.4935  0.2592 -0.1510
  316SOL     OW 1309   0.889   2.468   0.744  0.1519 -0.1443 -0.0263
  316SOL    HW2 1310   0.825   2.411   0.785 -0.3150 -0.3205 -0.9935
  316SOL    HW3 1311   0.974   2.438   0.777 -0.2865  0.5366  1.8074
  316SOL    MW4 1312   0.892   2.457   0.754  0.0324 -0.0777  0.0880
  317SOL     OW 1313   2.239   1.858   0.834 -0.1433 -0.0586 -0.0575
  317SOL    HW2 1314   2.232   1.879   0.927 -1.6525  1.3762 -0.4596
  317SOL    HW3 1315   2.308   1.916   0.802 -0.2913  0.1393 -0.0197
  317SOL    MW4 1316   2.247   1.869   0.842 -0.3619  0.1566 -0.1056
  318SOL     OW 1317   4.013   1.943   0.848  0.4603  0.2340  0.1107
  318SOL    HW2 1318   3.947   1.974   0.786  2.8227  0.7113 -2.2969
  318SOL    HW3 1319   4.026   1.851   0.827  1.4117  0.4457 -0.2940
  318SOL    MW4 1320   4.006   1.935   0.837  0.8974  0.3250 -0.2603
  319SOL     OW 1321   3.733   3.491   0.889  0.0730  0.2202 -0.4437
  319SOL    HW2 1322   3.724   3.402   0.856  1.4148 -0.7060  1.6013
  319SOL    HW3 1323   3.802   3.530   0.834  0.7836 -0.6064 -0.1506
  319SOL    MW4 1324   3.741   3.484   0.877  0.3436 -0.0112 -0.1352
  320SOL     OW 1325   4.299   1.545   0.815  0.1533  0.4989  0.0964
  320SOL    HW2 1326   4.379   1.587   0.784  0.0486 -0.2427 -1.2509
  320SOL    HW3 1327   4.304   1.549   0.910  2.3127 -0.5056  0.0433
  320SOL    MW4 1328   4.310   1.551   0.823  0.4249  0.2687 -0.0883
  321SOL     OW 1329   0.318   0.733   0.431 -0.0639 -0.0096  0.1333
  321SOL    HW2 1330   0.277   0.743   0.517 -0.4612  1.1691 -0.1742
  321SOL    HW3 1331   0.329   0.823   0.400  0.3515 -0.4165 -0.9168
  321SOL    MW4 1332   0.314   0.746   0.439 -0.0615  0.0922 -0.0458
  322SOL     OW 1333   3.930   3.608   0.744 -0.3292 -0.7261  0.6094
  322SOL    HW2 1334   3.940   3.569   0.657  0.6513 -0.2861  0.5122
  322SOL    HW3 1335   4.004   3.574   0.794 -0.7055 -0.7125  1.1744
  322SOL    MW4 1336   3.941   3.599   0.739 -0.2494 -0.6661  0.6711
  323SOL     OW 1337   4.263   4.395   1.203  0.2847 -0.4096  0.4055
  323SOL    HW2 1338   4.196   4.336   1.167  0.9597 -0.1460 -1.3477
  323SOL    HW3 1339   4.346   4.355   1.178  0.7596  0.2715  0.8812
  323SOL    MW4 1340   4.265   4.382   1.195  0.4363 -0.2856  0.2369
  324SOL     OW 1341   2.696   1.095   0.812  0.2167  0.1727 -0.2177
  324SOL    HW2 1342   2.764   1.152   0.776  0.5703  1.0574  1.7545
  324SOL    HW3 1343   2.615   1.144   0.802 -0.0222 -0.5045 -1.7524
  324SOL    MW4 1344   2.694   1.109   0.806  0.2315  0.2000 -0.1600
  325SOL     OW 1345   2.774   1.648   0.513 -0.0029  0.2256  0.3046
  325SOL    HW2 1346   2.700   1.691   0.470  0.1092  0.3568  0.2423
  325SOL    HW3 1347   2.759   1.661   0.606 -0.4266 -0.3587  0.3182
  325SOL    MW4 1348   2.763   1.656   0.519 -0.0441  0.1658  0.2981
  326SOL     OW 1349   2.660   1.918   1.107  0.1724  0.0355 -0.2578
  326SOL    HW2 1350   2.666   1.932   1.012  1.1169 -0.6396 -0.2989
  326SOL    HW3 1351   2.739   1.960   1.142 -0.4855  0.8251  0.2980
  326SOL    MW4 1352   2.671   1.926   1.099  0.2103  0.0505 -0.1899
  327SOL     OW 1353   2.907   0.703   0.750  0.1065  0.0507  0.1975
  327SOL    HW2 1354   2.857   0.731   0.827 -0.5201 -0.9285  0.1489
  327SOL    HW3 1355   2.970   0.774   0.736 -1.0303  1.1410  0.4665
  327SOL    MW4 1356   2.908   0.716   0.758 -0.1261  0.0653  0.2266
  328SOL     OW 1357   0.336   1.016   0.364 -0.2993 -0.3663 -0.2251
  328SOL    HW2 1358   0.414   1.072   0.364 -1.0503  0.6908 -0.2634
  328SOL    HW3 1359   0.264   1.075   0.342 -1.3444 -1.0133  1.3689
  328SOL    MW4 1360   0.337   1.031   0.361 -0.5363 -0.3121 -0.0198
  329SOL     OW 1361   1.173   2.810   0.714 -0.0044  0.5272 -0.3292
  329SOL    HW2 1362   1.242   2.757   0.753  0.7347  1.3054 -0.5667
  329SOL    HW3 1363   1.095   2.789   0.765  0.3311 -0.6022 -0.2660
  329SOL    MW4 1364   1.172   2.800   0.726  0.1373  0.4809 -0.3523
  330SOL     OW 1365   0.472   2.712   0.835  0.3498 -0.5885 -0.2782
  330SOL    HW2 1366   0.498   2.623   0.811  0.8672 -0.4701 -0.1730
  330SOL    HW3 1367   0.541   2.767   0.798  0.7239 -0.3409  0.7758
  330SOL    MW4 1368   0.484   2.707   0.827  0.4674 -0.5403 -0.1253
  331SOL     OW 1369   3.889   4.122   0.551  0.6504  0.0353  0.0971
  331SOL    HW2 1370   3.812   4.078   0.515  0.4513 -1.2383  2.0122
  331SOL    HW3 1371   3.881   4.212   0.520 -0.9468 -0.3823 -0.7643
  331SOL    MW4 1372   3.877   4.128   0.543  0.4134 -0.1879  0.2362
  332SOL     OW 1373   0.083   3.285   0.721 -0.7607 -0.1107  0.1376
  332SOL    HW2 1374   0.088   3.351   0.791  1.3250  0.4195 -0.4768
  332SOL    HW3 1375   0.148   3.220   0.746 -0.4300 -0.2206 -1.0092
  332SOL    MW4 1376   0.092   3.285   0.734 -0.4419 -0.0551 -0.0948
  333SOL     OW 1377   4.229   0.250   0.496  0.1007  0.6115  0.4039
  333SOL    HW2 1378   4.168   0.324   0.492  0.1305  0.7105  1.5767
  333SOL    HW3 1379   4.172   0.172   0.492 -0.1002  0.7043  1.2299
  333SOL    MW4 1380   4.213   0.249   0.495  0.0777  0.6368  0.6676
  334SOL     OW 1381   4.284   2.738   0.674  0.2055  0.2118  0.4201
  334SOL    HW2 1382   4.289   2.829   0.644 -0.8148  0.3269  0.5656
  334SOL    HW3 1383   4.348   2.732   0.744  0.0823  0.9035  0.5998
  334SOL    MW4 1384   4.293   2.750   0.679  0.0553  0.3181  0.4629
  335SOL     OW 1385   1.304   0.826   0.449  0.0810 -0.0502  0.1253
  335SOL    HW2 1386   1.320   0.839   0.543 -0.4610 -1.9186  0.4917
  335SOL    HW3 1387   1.391   0.811   0.412  0.1870 -0.4400  0.5232
  335SOL    MW4 1388   1.318   0.826   0.457  0.0235 -0.3482  0.2261
  336SOL     OW 1389   3.718   0.653   0.480 -0.0588 -0.1274  0.8660
  336SOL    HW2 1390   3.748   0.631   0.568 -1.2209 -1.2289  1.0009
  336SOL    HW3 1391   3.666   0.578   0.453  0.1664  0.2656 -0.7144
  336SOL    MW4 1392   3.715   0.640   0.488 -0.1822 -0.2209  0.6753
  337SOL     OW 1393   4.244   1.238   0.467 -0.4039  0.1523  0.7052
  337SOL    HW2 1394   4.264   1.220   0.558 -0.3003 -2.1174  0.2597
  337SOL    HW3 1395   4.182   1.169   0.441  0.8011 -0.2117 -1.3736
  337SOL    MW4 1396   4.238   1.227   0.475 -0.2313 -0.1953  0.3722
  338SOL     OW 1397   1.139   1.541   0.364  0.4017 -0.1122 -0.1079
  338SOL    HW2 1398   1.154   1.636   0.365 -0.3511  0.0099 -0.0569
  338SOL    HW3 1399   1.046   1.531   0.385  0.3810 -0.8413 -0.5131
  338SOL    MW4 1400   1.129   1.552   0.367  0.2996 -0.1923 -0.1546
  339SOL     OW 1401   1.804   4.227   1.081  0.0541  0.0836  0.4334
  339SOL    HW2 1402   1.832   4.139   1.107  0.5582  0.2103  0.3140
  339SOL    HW3 1403   1.792   4.222   0.986 -0.5120 -0.0211  0.5090
  339SOL    MW4 1404   1.806   4.215   1.072  0.0459  0.0868  0.4276
  340SOL     OW 1405   2.055   3.808   0.761  0.2809  0.2402  0.6633
  340SOL    HW2 1406   2.068   3.816   0.855 -2.3850 -1.9695  1.2973
  340SOL    HW3 1407   1.989   3.875   0.740 -1.4751 -1.3267  0.9980
  340SOL    MW4 1408   2.048   3.818   0.770 -0.3026 -0.2582  0.7911
  341SOL     OW 1409   1.083   4.092   0.179  0.4060 -0.3990 -0.2377
  341SOL    HW2 1410   1.051   4.003   0.194  2.8412 -1.4481 -1.1030
  341SOL    HW3 1411   1.024   4.148   0.231  0.2873 -2.7076  2.2123
  341SOL    MW4 1412   1.071   4.088   0.188  0.7116 -0.8421 -0.0286
  342SOL     OW 1413   0.495   3.475   0.892 -0.0475  0.1708 -0.1918
  342SOL    HW2 1414   0.505   3.479   0.987  1.9968 -0.0078 -0.3733
  342SOL    HW3 1415   0.584   3.490   0.858 -0.3382 -1.9528 -2.0118
  342SOL    MW4 1416   0.508   3.478   0.900  0.1839 -0.1328 -0.4559
  343SOL     OW 1417   4.462   0.355   0.806 -0.1639 -0.0527 -0.2153
  343SOL    HW2 1418   4.459   0.375   0.899  1.4871 -1.3690  0.1464
  343SOL    HW3 1419   4.526   0.415   0.770 -0.2733 -0.0304 -0.3743
  343SOL    MW4 1420   4.470   0.365   0.813  0.0396 -0.2234 -0.1885
  344SOL     OW 1421   0.046   0.095   0.762 -0.2820 -0.1593  0.0571
  344SOL    HW2 1422  -0.031   0.040   0.778 -0.3373  0.2822  1.3804
  344SOL    HW3 1423   0.011   0.184   0.757 -0.1389 -0.1697 -1.6633
  344SOL    MW4 1424   0.031   0.100   0.763 -0.2705 -0.1024  0.0047
  345SOL     OW 1425   0.709   1.332   0.442  0.0644 -0.2358 -0.0971
  345SOL    HW2 1426   0.621   1.371   0.446  0.5950  0.7692  2.9646
  345SOL    HW3 1427   0.693   1.238   0.450 -0.6873  0.0519  2.4256
  345SOL    MW4 1428   0.695   1.325   0.444  0.0353 -0.0654  0.6397
  346SOL     OW 1429   0.041   1.155   0.457  0.0136 -0.3388 -0.1779
  346SOL    HW2 1430   0.045   1.095   0.531 -0.6543  1.2083  1.1461
  346SOL    HW3 1431  -0.052   1.177   0.449  0.1863  0.1239 -0.9643
  346SOL    MW4 1432   0.029   1.150   0.466 -0.0517 -0.0736 -0.1070
  347SOL     OW 1433   2.297   2.497   0.520  0.3533  0.0956  0.0171
  347SOL    HW2 1434   2.377   2.484   0.471  0.2319  0.2057 -0.2106
  347SOL    HW3 1435   2.255   2.573   0.479  0.3176  0.2719  0.3711
  347SOL    MW4 1436   2.302   2.505   0.508  0.3324  0.1333  0.0337
  348SOL     OW 1437   1.227   3.149   0.456 -0.0460 -0.4029 -0.1907
  348SOL    HW2 1438   1.173   3.071   0.450 -0.2987 -0.2344 -0.1340
  348SOL    HW3 1439   1.310   3.125   0.413 -0.2922 -0.5519 -0.5861
  348SOL    MW4 1440   1.231   3.136   0.449 -0.1119 -0.4001 -0.2354
  349SOL     OW 1441   2.504   4.071   0.329 -0.0885  0.0375 -0.1689
  349SOL    HW2 1442   2.456   3.989   0.313  0.1744 -0.0379 -0.5946
  349SOL    HW3 1443   2.585   4.043   0.371 -0.1515  0.1121  0.0045
  349SOL    MW4 1444   2.508   4.056   0.332 -0.0622  0.0372 -0.2021
  350SOL     OW 1445   2.534   2.458   0.373 -0.1486 -0.5811  0.4109
  350SOL    HW2 1446   2.606   2.395   0.381 -0.0303 -0.8897 -2.5440
  350SOL    HW3 1447   2.574   2.537   0.338 -0.7305  0.2954  1.7029
  350SOL    MW4 1448   2.548   2.460   0.369 -0.2098 -0.5062  0.1915
  351SOL     OW 1449   3.901   3.889   0.821 -0.3082 -0.0515 -0.3465
  351SOL    HW2 1450   3.810   3.912   0.802 -0.8377 -0.7112  1.3246
  351SOL    HW3 1451   3.904   3.794   0.812  0.6420  0.1262 -2.0982
  351SOL    MW4 1452   3.890   3.880   0.818 -0.2525 -0.1149 -0.3572
  352SOL     OW 1453   1.542   1.522   0.391 -0.0283  0.0575  0.3225
  352SOL    HW2 1454   1.530   1.511   0.297 -0.6362 -0.0685  0.4139
  352SOL    HW3 1455   1.535   1.434   0.428  0.9081  0.0124  0.4137
  352SOL    MW4 1456   1.539   1.509   0.384  0.0149  0.0348  0.3467
  353SOL     OW 1457   0.494   1.129   0.847  0.3145  0.2090 -0.0103
  353SOL    HW2 1458   0.418   1.174   0.812 -0.4367  0.8977  2.4299
  353SOL    HW3 1459   0.569   1.174   0.809 -0.4747  1.2413 -0.3540
  353SOL    MW4 1460   0.494   1.141   0.837  0.1113  0.4359  0.2663
  354SOL     OW 1461   0.689   2.034   0.795 -0.4347  0.0215 -0.4601
  354SOL    HW2 1462   0.692   2.043   0.700  2.0893 -1.0352 -0.5252
  354SOL    HW3 1463   0.605   1.991   0.813 -1.3928  1.1563 -2.0998
  354SOL    MW4 1464   0.678   2.029   0.785 -0.2281  0.0317 -0.6850
  355SOL     OW 1465   3.979   4.012   0.304 -0.2012  0.1770  0.2878
  355SOL    HW2 1466   3.967   4.066   0.382  0.3579  0.6144  0.0709
  355SOL    HW3 1467   4.034   4.064   0.246  0.6229 -0.7632  0.2108
  355SOL    MW4 1468   3.985   4.026   0.307 -0.0188  0.1106  0.2491
  356SOL     OW 1469   1.754   1.103   0.844  0.1844 -0.0414  0.0192
  356SOL    HW2 1470   1.758   1.013   0.812 -0.6397  0.4393 -1.4878
  356SOL    HW3 1471   1.836   1.143   0.815 -0.0761  0.0806 -0.5681
  356SOL    MW4 1472   1.765   1.097   0.836  0.0414  0.0381 -0.2572
  357SOL     OW 1473   0.879   0.406   0.809 -0.0354  0.1783 -0.0992
  357SOL    HW2 1474   0.805   0.462   0.784  0.5231  1.4035  0.9103
  357SOL    HW3 1475   0.872   0.399   0.904  1.5465  0.9008  0.0816
  357SOL    MW4 1476   0.868   0.412   0.818  0.2470  0.4353  0.0579
  358SOL     OW 1477   0.263   3.085   0.826  0.0619 -0.0806 -0.1699
  358SOL    HW2 1478   0.329   3.148   0.797 -0.3996 -0.0167 -1.0894
  358SOL    HW3 1479   0.266   3.091   0.922  0.1272  1.2310 -0.2360
  358SOL    MW4 1480   0.272   3.094   0.835  0.0096  0.1011 -0.2999
  359SOL     OW 1481   0.860   0.309   0.364 -0.3875 -0.4226 -0.1173
  359SOL    HW2 1482   0.846   0.307   0.458 -0.7936 -1.4897 -0.1918
  359SOL    HW3 1483   0.787   0.259   0.328 -0.1700 -0.1212 -0.9873
  359SOL    MW4 1484   0.848   0.302   0.371 -0.4123 -0.5237 -0.2420
  360SOL     OW 1485   4.057   1.686   0.766  0.7545 -0.2938  0.1833
  360SOL    HW2 1486   4.055   1.697   0.671  0.9015 -2.5955 -0.0981
  360SOL    HW3 1487   4.137   1.635   0.783 -0.0314 -1.1478  1.3951
  360SOL    MW4 1488   4.068   1.681   0.756  0.6704 -0.7101  0.3061
  361SOL     OW 1489   2.885   0.380   0.440  0.1378  0.5702  0.2853
  361SOL    HW2 1490   2.842   0.295   0.432  0.7840  0.4215 -1.9627
  361SOL    HW3 1491   2.825   0.441   0.398  0.3362  0.9762  0.5960
  361SOL    MW4 1492   2.871   0.376   0.433  0.2491  0.6042  0.0297
  362SOL     OW 1493   2.490   2.809   0.756 -0.3034 -0.2736  0.1653
  362SOL    HW2 1494   2.557   2.747   0.786 -0.1447  0.1151  0.6144
  362SOL    HW3 1495   2.408   2.774   0.789  0.1066  1.3755  3.0775
  362SOL    MW4 1496   2.488   2.796   0.764 -0.2284 -0.0050  0.6088
  363SOL     OW 1497   1.332   3.924   0.449 -0.1289 -0.3962 -0.1703
  363SOL    HW2 1498   1.346   3.953   0.539  0.6896 -0.2303 -0.3450
  363SOL    HW3 1499   1.330   4.005   0.398  0.9165 -0.5563 -0.4908
  363SOL    MW4 1500   1.334   3.938   0.454  0.1172 -0.3955 -0.2356
  364SOL     OW 1501   3.583   2.433   0.796  0.0652  0.1088  0.0104
  364SOL    HW2 1502   3.664   2.394   0.828  1.2256  1.9980 -0.5380
  364SOL    HW3 1503   3.597   2.442   0.702 -0.2309  1.6556  0.0989
  364SOL    MW4 1504   3.596   2.429   0.788  0.1795  0.5622 -0.0502
  365SOL     OW 1505   1.863   3.783   0.193  0.2236 -0.3984  0.3042
  365SOL    HW2 1506   1.922   3.807   0.121  0.3511 -1.3030  0.0911
  365SOL    HW3 1507   1.792   3.847   0.189  0.5063 -0.1175 -0.2887
  365SOL    MW4 1508   1.862   3.794   0.183  0.2776 -0.4809  0.1979
  366SOL     OW 1509   2.068   0.016   0.423  0.5281 -0.2612  0.5181
  366SOL    HW2 1510   2.000   0.084   0.423  0.6320 -0.1466  1.5929
  366SOL    HW3 1511   2.021  -0.065   0.442  0.5856 -0.2992  0.4943
  366SOL    MW4 1512   2.053   0.014   0.426  0.5491 -0.2508  0.6568
  367SOL     OW 1513   1.167   3.423   0.444 -0.1171  0.0750  0.4923
  367SOL    HW2 1514   1.099   3.448   0.382  0.7019  0.4040 -0.2719
  367SOL    HW3 1515   1.166   3.327   0.444 -0.7220  0.0774  0.6491
  367SOL    MW4 1516   1.158   3.414   0.436 -0.0889  0.1187  0.4122
  368SOL     OW 1517   0.482   1.692   0.720  0.1765 -0.3061  0.1831
  368SOL    HW2 1518   0.410   1.638   0.752 -0.7592  0.3307 -0.8480
  368SOL    HW3 1519   0.474   1.691   0.625  1.5960 -0.3223  0.0476
  368SOL    MW4 1520   0.472   1.685   0.712  0.2403 -0.2241  0.0291
  369SOL     OW 1521   0.688   2.297   0.869 -0.1777 -0.0702 -0.0144
  369SOL    HW2 1522   0.700   2.294   0.964  0.9910 -0.6590 -0.1758
  369SOL    HW3 1523   0.693   2.206   0.840  0.4498  0.1878 -0.7498
  369SOL    MW4 1524   0.690   2.285   0.878  0.0593 -0.1137 -0.1327
  370SOL     OW 1525   3.556   0.435   0.356 -0.1700  0.5259 -0.5192
  370SOL    HW2 1526   3.570   0.400   0.269  1.9039 -1.1803  0.4569
  370SOL    HW3 1527   3.561   0.359   0.414  1.7995  2.0559  1.3866
  370SOL    MW4 1528   3.558   0.421   0.352  0.3633  0.5026 -0.1390
  371SOL     OW 1529   1.994   1.216   0.745 -0.2486 -0.6842  0.6308
  371SOL    HW2 1530   2.001   1.213   0.650  0.1090 -2.5259  0.6861
  371SOL    HW3 1531   2.007   1.308   0.768  1.3406 -0.4811 -0.9845
  371SOL    MW4 1532   1.997   1.227   0.735  0.0083 -0.9001  0.4250
  372SOL     OW 1533   3.122   2.366   0.480  0.0746  0.7205  0.1260
  372SOL    HW2 1534   3.081   2.283   0.456  1.3868 -0.6855  2.5047
  372SOL    HW3 1535   3.215   2.355   0.458  0.2146  1.6526  0.2240
  372SOL    MW4 1536   3.129   2.354   0.474  0.2661  0.6578  0.4528
  373SOL     OW 1537   2.222   2.732   0.397  0.4248 -0.0153 -0.0389
  373SOL    HW2 1538   2.158   2.790   0.437  0.5778 -0.4060  0.7895
  373SOL    HW3 1539   2.306   2.761   0.433  0.5757 -0.3101 -0.1540
  373SOL    MW4 1540   2.225   2.744   0.407  0.4652 -0.1059  0.0552
  374SOL     OW 1541   4.468   3.362   0.490 -0.2248  0.1275 -0.4482
  374SOL    HW2 1542   4.511   3.329   0.569 -2.0742 -2.7514 -0.5509
  374SOL    HW3 1543   4.530   3.344   0.420  0.3969  0.4251  0.0196
  374SOL    MW4 1544   4.482   3.355   0.491 -0.3867 -0.2127 -0.4000
  375SOL     OW 1545   2.485   0.029   0.371  0.7703 -0.0173  0.4957
  375SOL    HW2 1546   2.428   0.003   0.298 -0.3725 -1.1453  1.7534
  375SOL    HW3 1547   2.484  -0.046   0.430  1.5413  0.9390  1.7543
  375SOL    MW4 1548   2.477   0.016   0.369  0.7212 -0.0400  0.8277
  376SOL     OW 1549   2.472   0.730   0.899  0.4950 -0.4960 -0.3974
  376SOL    HW2 1550   2.404   0.787   0.862  2.5631  1.8262 -0.7301
  376SOL    HW3 1551   2.454   0.729   0.993 -1.0158 -1.3365 -0.6664
  376SOL    MW4 1552   2.461   0.737   0.906  0.5684 -0.3005 -0.4768
  377SOL     OW 1553   1.586   2.034   0.812 -0.1646  0.0658 -0.1927
  377SOL    HW2 1554   1.567   2.017   0.720 -0.9728 -0.4773  0.0735
  377SOL    HW3 1555   1.672   1.995   0.827 -0.1685 -0.1142 -0.6459
  377SOL    MW4 1556   1.595   2.027   0.802 -0.2718 -0.0296 -0.2173
  378SOL     OW 1557   2.747   3.197   0.476 -0.4566 -0.2149 -0.0665
  378SOL    HW2 1558   2.745   3.194   0.572 -0.0198  0.8872 -0.0197
  378SOL    HW3 1559   2.658   3.171   0.450  0.0496 -2.7780  0.5501
  378SOL    MW4 1560   2.735   3.193   0.485 -0.3324 -0.4075  0.0210
  379SOL     OW 1561   0.383   4.117   0.390  0.0591  0.3093 -0.4775
  379SOL    HW2 1562   0.327   4.072   0.454 -0.0489  0.9056 -0.1530
  379SOL    HW3 1563   0.459   4.059   0.381  0.5110  0.6515  0.8886
  379SOL    MW4 1564   0.386   4.103   0.397  0.1045  0.4339 -0.2544
  380SOL     OW 1565   3.397   1.356   0.473  0.1898  0.2664  0.3934
  380SOL    HW2 1566   3.387   1.327   0.564 -0.7885  0.0858  0.2347
  380SOL    HW3 1567   3.491   1.353   0.457  0.4829  1.5135  1.7971
  380SOL    MW4 1568   3.408   1.352   0.483  0.0994  0.4071  0.5576
  381SOL     OW 1569   1.624   0.454   0.667  0.0183 -0.4616 -0.2700
  381SOL    HW2 1570   1.543   0.420   0.707 -0.1142 -1.5256 -1.4030
  381SOL    HW3 1571   1.694   0.410   0.714 -0.0973 -0.4035 -0.0430
  381SOL    MW4 1572   1.622   0.444   0.679 -0.0145 -0.5943 -0.3895
  382SOL     OW 1573   1.750   2.456   0.474  0.0405  0.0592  0.0512
  382SOL    HW2 1574   1.789   2.459   0.561 -0.2989 -0.7483  0.2341
  382SOL    HW3 1575   1.782   2.374   0.436  0.5095  0.6038 -0.7317
  382SOL    MW4 1576   1.759   2.446   0.480  0.0577  0.0246 -0.0280
  383SOL     OW 1577   4.484   1.939   0.828  0.0536  0.5902 -0.2101
  383SOL    HW2 1578   4.480   1.853   0.786  1.5200  0.2020  0.3870
  383SOL    HW3 1579   4.405   1.985   0.799 -0.6955 -0.9259 -0.6115
  383SOL    MW4 1580   4.473   1.934   0.819  0.1478  0.3389 -0.1843
  384SOL     OW 1581   0.207   2.790   0.736  0.0644 -0.1710 -0.1428
  384SOL    HW2 1582   0.207   2.884   0.754 -0.1617 -0.4008  1.1157
  384SOL    HW3 1583   0.295   2.762   0.760 -0.5313 -0.6469  1.4947
  384SOL    MW4 1584   0.218   2.799   0.741 -0.0440 -0.2642  0.2392
  385SOL     OW 1585   3.439   3.004   0.493 -0.1733  0.2918  0.4055
  385SOL    HW2 1586   3.443   2.950   0.572  0.1417 -0.2924  0.0018
  385SOL    HW3 1587   3.352   2.988   0.458  0.3786 -1.0389 -0.4404
  385SOL    MW4 1588   3.428   2.994   0.499 -0.0589  0.0391  0.2406
  386SOL     OW 1589   2.029   3.066   1.124  0.3900 -0.1093  0.2813
  386SOL    HW2 1590   2.056   3.101   1.039 -0.2731 -0.6058 -0.1444
  386SOL    HW3 1591   1.950   3.115   1.146 -0.9532 -1.7729 -0.6535
  386SOL    MW4 1592   2.022   3.077   1.116  0.1254 -0.3941  0.1018
  387SOL     OW 1593   3.156   2.731   0.784  0.1487 -0.5217 -0.4476
  387SOL    HW2 1594   3.240   2.769   0.759 -0.8171  1.0659 -1.3612
  387SOL    HW3 1595   3.171   2.636   0.784  2.3280 -0.2035  0.8851
  387SOL    MW4 1596   3.169   2.723   0.781  0.3090 -0.2706 -0.3923
  388SOL     OW 1597   4.409   4.026   0.237  0.6733 -0.0773  0.0787
  388SOL    HW2 1598   4.502   4.005   0.225  0.2453 -1.6882 -0.6485
  388SOL    HW3 1599   4.377   3.958   0.296  0.3367  1.5183  1.7487
  388SOL    MW4 1600   4.417   4.014   0.243  0.5722 -0.0792  0.2031
  389SOL     OW 1601   0.260   0.764   0.728  0.2862  0.2738 -0.3883
  389SOL    HW2 1602   0.249   0.751   0.822 -0.3295 -0.9804 -0.6290
  389SOL    HW3 1603   0.344   0.808   0.720  0.1103  0.8584  0.7826
  389SOL    MW4 1604   0.270   0.768   0.739  0.1818  0.1855 -0.2655
  390SOL     OW 1605   3.193   1.906   0.808  0.1298 -0.4517 -0.3174
  390SOL    HW2 1606   3.111   1.952   0.791 -0.1316 -0.9104 -0.2829
  390SOL    HW3 1607   3.201   1.903   0.903  0.0148 -0.7118 -0.3151
  390SOL    MW4 1608   3.183   1.912   0.818  0.0801 -0.5465 -0.3125
  391SOL     OW 1609   0.929   3.189   0.745  0.0728 -0.4107 -0.3607
  391SOL    HW2 1610   1.012   3.153   0.775  0.9533 -0.4755 -2.8157
  391SOL    HW3 1611   0.915   3.150   0.659 -2.6697 -0.6451  0.1470
  391SOL    MW4 1612   0.938   3.179   0.738 -0.1729 -0.4504 -0.6176
  392SOL     OW 1613   1.584   4.374   0.742 -0.0781  0.5488  0.2679
  392SOL    HW2 1614   1.586   4.354   0.648  1.5910  0.3155  0.3250
  392SOL    HW3 1615   1.497   4.348   0.771  0.3479 -2.1171 -0.6686
  392SOL    MW4 1616   1.573   4.368   0.734  0.1982  0.1664  0.1519
  393SOL     OW 1617   2.978   3.575   0.726 -0.3402 -0.6669 -0.5240
  393SOL    HW2 1618   2.891   3.544   0.754 -1.0662  1.3661 -0.4494
  393SOL    HW3 1619   3.039   3.531   0.785 -1.5489  0.1640  1.3985
  393SOL    MW4 1620   2.974   3.565   0.737 -0.5956 -0.2890 -0.2605
  394SOL     OW 1621   2.431   2.044   0.738 -0.1376 -0.1034 -0.2157
  394SOL    HW2 1622   2.435   2.061   0.643 -1.2260  0.0144 -0.2495
  394SOL    HW3 1623   2.469   2.122   0.778 -0.8942  0.4267 -0.5196
  394SOL    MW4 1624   2.437   2.057   0.730 -0.3810 -0.0179 -0.2603
  395SOL     OW 1625   4.204   1.983   0.451  0.0687 -0.2267 -0.5499
  395SOL    HW2 1626   4.293   2.011   0.430  0.1900  0.6397  0.9895
  395SOL    HW3 1627   4.149   2.060   0.435 -0.0288  0.0176  0.8776
  395SOL    MW4 1628   4.208   1.997   0.446  0.0720 -0.0802 -0.1584
  396SOL     OW 1629   3.681   3.234   0.787 -0.2032 -0.3300 -0.2641
  396SOL    HW2 1630   3.746   3.165   0.797 -0.6456 -0.6713  0.3101
  396SOL    HW3 1631   3.663   3.236   0.693 -0.4669 -1.2695 -0.2426
  396SOL    MW4 1632   3.687   3.225   0.776 -0.2964 -0.4990 -0.1855
  397SOL     OW 1633   0.731   2.861   0.459  0.0375  0.5721 -0.2395
  397SOL    HW2 1634   0.653   2.820   0.423  0.5699 -0.1113 -0.6191
  397SOL    HW3 1635   0.801   2.836   0.399  0.2517  2.6361 -0.9240
  397SOL    MW4 1636   0.730   2.852   0.446  0.1360  0.7541 -0.3798
  398SOL     OW 1637   0.010   2.949   0.353 -0.4496  0.6115  0.1754
  398SOL    HW2 1638   0.065   3.026   0.342  1.5487 -1.2879 -4.4954
  398SOL    HW3 1639   0.068   2.884   0.393 -0.6837  0.0392 -0.4135
  398SOL    MW4 1640   0.025   2.950   0.357 -0.2168  0.2854 -0.5186
  399SOL     OW 1641   2.459   1.233   0.730  0.1731 -0.2502  0.0730
  399SOL    HW2 1642   2.440   1.242   0.636 -1.4544  0.5090  0.4650
  399SOL    HW3 1643   2.377   1.200   0.768  0.4592  0.5580  1.4087
  399SOL    MW4 1644   2.445   1.230   0.722 -0.0038 -0.0435  0.3010
  400SOL     OW 1645   1.137   1.809   0.450 -0.3037 -0.2554 -0.1635
  400SOL    HW2 1646   1.077   1.796   0.523 -1.0264  0.0061 -0.6992
  400SOL    HW3 1647   1.137   1.904   0.435 -1.2940 -0.4351 -1.4219
  400SOL    MW4 1648   1.129   1.820   0.457 -0.5298 -0.2447 -0.4002
  401SOL     OW 1649   1.298   4.269   1.111  0.3408  0.5690 -0.0440
  401SOL    HW2 1650   1.236   4.331   1.150  0.3369  0.3933  0.2332
  401SOL    HW3 1651   1.383   4.292   1.150  0.4977  0.9763 -0.6187
  401SOL    MW4 1652   1.301   4.280   1.121  0.3610  0.5999 -0.0833
  402SOL     OW 1653   3.182   4.270   0.227  0.0162  0.1099 -0.1983
  402SOL    HW2 1654   3.103   4.216   0.234  0.2486 -0.3498 -1.1001
  402SOL    HW3 1655   3.180   4.303   0.138 -1.0714  3.0576  0.8508
  402SOL    MW4 1656   3.171   4.267   0.216 -0.0966  0.4382 -0.1789
  403SOL     OW 1657   0.187   3.173   0.311  0.1398 -0.5646 -0.2939
  403SOL    HW2 1658   0.250   3.222   0.363  0.3737 -0.8998 -0.2527
  403SOL    HW3 1659   0.198   3.206   0.222  0.2279 -0.4783 -0.2507
  403SOL    MW4 1660   0.197   3.184   0.306  0.1823 -0.5972 -0.2828
  404SOL     OW 1661   1.077   3.793   0.380  0.2001 -0.3166  0.5313
  404SOL    HW2 1662   1.163   3.820   0.412  0.1172  0.3888  0.1678
  404SOL    HW3 1663   1.016   3.850   0.427 -0.0378 -0.4535  0.3874
  404SOL    MW4 1664   1.080   3.804   0.391  0.1578 -0.2415  0.4643
  405SOL     OW 1665   0.669   0.542   0.695 -0.2705 -0.1379 -0.4180
  405SOL    HW2 1666   0.643   0.583   0.612  0.3941  0.5216 -0.2973
  405SOL    HW3 1667   0.587   0.504   0.729 -0.8529  0.9102 -0.6215
  405SOL    MW4 1668   0.654   0.542   0.688 -0.2596  0.0874 -0.4289
  406SOL     OW 1669   0.482   2.451   0.756 -0.2601  0.6679  0.0450
  406SOL    HW2 1670   0.542   2.386   0.793 -0.3128  0.5955  0.0048
  406SOL    HW3 1671   0.395   2.419   0.780 -0.2514  1.1833  0.7602
  406SOL    MW4 1672   0.479   2.438   0.764 -0.2659  0.7265  0.1341
  407SOL     OW 1673   0.049   2.511   0.511  0.1809 -0.0518 -0.2090
  407SOL    HW2 1674   0.099   2.432   0.490 -0.0017 -0.3188  0.3427
  407SOL    HW3 1675   0.018   2.496   0.600 -1.4109 -0.1791 -0.7558
  407SOL    MW4 1676   0.051   2.498   0.520 -0.0532 -0.1037 -0.2084
  408SOL     OW 1677   3.168   0.309   0.426  0.0716 -0.2484  0.0858
  408SOL    HW2 1678   3.216   0.391   0.422  0.3579 -0.4065  0.2754
  408SOL    HW3 1679   3.077   0.334   0.414  0.1679  0.0847  0.0399
  408SOL    MW4 1680   3.162   0.323   0.424  0.1223 -0.2253  0.1048
  409SOL     OW 1681   0.457   3.256   0.709 -0.1981 -0.0480 -0.0884
  409SOL    HW2 1682   0.455   3.330   0.771 -0.6764 -1.7366  1.9723
  409SOL    HW3 1683   0.532   3.203   0.737 -1.9916 -2.2251  0.7741
  409SOL    MW4 1684   0.466   3.259   0.721 -0.4979 -0.5579  0.2973
  410SOL     OW 1685   1.934   4.430   0.468  0.0929 -0.0437 -0.0232
  410SOL    HW2 1686   1.840   4.409   0.466  0.2105 -0.6240  0.3874
  410SOL    HW3 1687   1.977   4.345   0.464  0.5856  0.1288  1.3781
  410SOL    MW4 1688   1.927   4.416   0.467  0.1733 -0.0978  0.2159
  411SOL     OW 1689   2.286   3.977   0.663  0.4651  0.0203 -0.1554
  411SOL    HW2 1690   2.207   3.924   0.674  0.5731 -0.4213 -1.3994
  411SOL    HW3 1691   2.258   4.066   0.685 -0.1262 -0.2878  0.3684
  411SOL    MW4 1692   2.272   3.982   0.667  0.4010 -0.0789 -0.2505
  412SOL     OW 1693   4.011   0.076   0.563 -0.2335  0.0849  0.7294
  412SOL    HW2 1694   3.959   0.004   0.600  0.2937 -0.7793 -0.1871
  412SOL    HW3 1695   4.069   0.102   0.634  2.2047 -2.9295 -0.0579
  412SOL    MW4 1696   4.012   0.070   0.577  0.1578 -0.4268  0.5046
  413SOL     OW 1697   1.141   1.513   0.821 -0.2588  0.2556 -0.0744
  413SOL    HW2 1698   1.150   1.436   0.765 -0.0284 -0.1620  0.5317
  413SOL    HW3 1699   1.224   1.560   0.809  0.6877 -0.9424  1.5531
  413SOL    MW4 1700   1.153   1.509   0.812 -0.1034  0.0426  0.2202
  414SOL     OW 1701   3.807   0.592   0.725 -0.2271 -0.2616  0.7671
  414SOL    HW2 1702   3.753   0.522   0.763 -1.5053  0.2299 -0.1171
  414SOL    HW3 1703   3.795   0.666   0.784 -1.1514  0.0855  0.1602
  414SOL    MW4 1704   3.798   0.592   0.738 -0.5178 -0.1509  0.5704
  415SOL     OW 1705   2.024   3.900   0.390  0.1181  0.3475 -0.2087
  415SOL    HW2 1706   1.968   3.861   0.323  0.3361 -0.9876  0.3895
  415SOL    HW3 1707   2.112   3.871   0.368  0.5158  1.8565 -0.7184
  415SOL    MW4 1708   2.028   3.891   0.378  0.1993  0.3705 -0.1970
  416SOL     OW 1709   1.739   1.854   0.406  0.0986  0.6370  0.3930
  416SOL    HW2 1710   1.759   1.773   0.453  0.7589  0.8282  0.4361
  416SOL    HW3 1711   1.669   1.895   0.458 -1.9336 -1.0601 -0.9057
  416SOL    MW4 1712   1.732   1.849   0.419 -0.0824  0.4383  0.2273
  417SOL     OW 1713   2.135   3.502   0.453 -0.1252 -0.4168  0.0542
  417SOL    HW2 1714   2.048   3.526   0.420 -0.2188  0.7792  1.1192
  417SOL    HW3 1715   2.126   3.507   0.548  0.3652 -3.0054  0.2690
  417SOL    MW4 1716   2.122   3.506   0.461 -0.0730 -0.6003  0.2231
  418SOL     OW 1717   4.014   0.788   0.508  0.2151  0.6688  0.0361
  418SOL    HW2 1718   3.921   0.768   0.519  0.3903 -0.6958 -0.8290
  418SOL    HW3 1719   4.043   0.815   0.596 -0.8702  0.5841  0.4292
  418SOL    MW4 1720   4.006   0.789   0.521  0.0949  0.4776 -0.0262
  419SOL     OW 1721   0.229   3.962   0.548  0.3940 -0.1366  0.2263
  419SOL    HW2 1722   0.216   3.880   0.500  2.6658 -0.2191 -0.2998
  419SOL    HW3 1723   0.233   3.936   0.640  1.1785 -0.6559  0.0582
  419SOL    MW4 1724   0.228   3.948   0.553  0.7973 -0.2160  0.1347
  420SOL     OW 1725   1.742   0.853   0.490  0.1829 -0.4133  0.1209
  420SOL    HW2 1726   1.813   0.789   0.477 -0.5784 -1.0679 -0.8768
  420SOL    HW3 1727   1.663   0.806   0.465 -0.4869  0.6635  0.2030
  420SOL    MW4 1728   1.741   0.838   0.485 -0.0061 -0.3577  0.0001
  421SOL     OW 1729   4.113   0.143   0.811  0.2931 -0.0913  0.0013
  421SOL    HW2 1730   4.074   0.229   0.829 -0.4896  0.2017 -2.8955
  421SOL    HW3 1731   4.046   0.080   0.840  0.7402  0.2306  1.8318
  421SOL    MW4 1732   4.099   0.146   0.817  0.2484 -0.0102 -0.1395
  422SOL     OW 1733   3.182   4.239   0.838  0.0770  0.0910  0.3591
  422SOL    HW2 1734   3.170   4.150   0.804  0.4099  0.4919 -0.8237
  422SOL    HW3 1735   3.102   4.285   0.814  0.7076  0.6360 -0.7300
  422SOL    MW4 1736   3.170   4.233   0.830  0.2041  0.2160  0.0594
  423SOL     OW 1737   2.794   0.784   0.494  0.1920 -0.8797  0.1499
  423SOL    HW2 1738   2.810   0.758   0.584  1.2799 -0.8291 -0.0267
  423SOL    HW3 1739   2.745   0.866   0.501  1.0414 -0.4138  0.6981
  423SOL    MW4 1740   2.790   0.791   0.507  0.4478 -0.8116  0.1990
  424SOL     OW 1741   2.292   1.536   0.458  0.0334  0.2135 -0.2107
  424SOL    HW2 1742   2.335   1.616   0.428  0.3321  0.6247  1.2710
  424SOL    HW3 1743   2.290   1.544   0.553  0.2847 -1.6624 -0.0213
  424SOL    MW4 1744   2.297   1.548   0.467  0.1063  0.0201  0.0098
  425SOL     OW 1745   2.903   2.832   0.747  0.0118 -0.2589  0.6251
  425SOL    HW2 1746   2.917   2.906   0.806 -0.1870 -0.6458  1.1612
  425SOL    HW3 1747   2.990   2.796   0.732  0.1803  0.4125 -0.0803
  425SOL    MW4 1748   2.916   2.837   0.753  0.0079 -0.2213  0.6028
  426SOL     OW 1749   2.023   0.006   0.849 -0.5384 -0.1242  0.1401
  426SOL    HW2 1750   2.035   0.000   0.944  0.3662 -2.3425 -0.0746
  426SOL    HW3 1751   2.104   0.045   0.816 -1.1377  1.3001  0.3373
  426SOL    MW4 1752   2.035   0.010   0.857 -0.4983 -0.2289  0.1377
  427SOL     OW 1753   3.687   1.358   0.468  0.1274  0.2761 -0.0427
  427SOL    HW2 1754   3.727   1.329   0.550 -1.2100 -2.1087 -0.1894
  427SOL    HW3 1755   3.742   1.431   0.439  2.3870 -0.7898  1.4169
  427SOL    MW4 1756   3.700   1.364   0.475  0.2491 -0.1793  0.1305
  428SOL     OW 1757   3.136   1.644   0.706  0.2153 -0.0705  0.1837
  428SOL    HW2 1758   3.139   1.732   0.743 -0.4748  0.3951 -0.8514
  428SOL    HW3 1759   3.122   1.658   0.613  1.6851 -1.2468 -0.2269
  428SOL    MW4 1760   3.134   1.657   0.699  0.3183 -0.1644 -0.0070
  429SOL     OW 1761   3.142   3.993   0.764 -0.0934 -0.0454  0.2863
  429SOL    HW2 1762   3.067   3.937   0.785  0.6937 -1.4882 -0.6119
  429SOL    HW3 1763   3.147   3.990   0.668  2.0551 -1.2648  0.4079
  429SOL    MW4 1764   3.132   3.985   0.754  0.2940 -0.3967  0.1837
  430SOL     OW 1765   3.643   0.403   0.833  0.4524 -0.4520  0.4213
  430SOL    HW2 1766   3.639   0.403   0.928  0.9121 -1.1880  0.4429
  430SOL    HW3 1767   3.553   0.419   0.805 -0.0091 -1.9995  0.9739
  430SOL    MW4 1768   3.631   0.405   0.842  0.4518 -0.7533  0.4970
  431SOL     OW 1769   3.525   1.655   0.477 -0.5131  0.1131 -0.2439
  431SOL    HW2 1770   3.601   1.626   0.425  0.2353 -1.1292  1.4839
  431SOL    HW3 1771   3.467   1.579   0.477 -1.5117  0.8715 -1.0792
  431SOL    MW4 1772   3.528   1.641   0.470 -0.5460  0.0492 -0.1261
  432SOL     OW 1773   1.129   4.427   0.720  0.1010 -0.1919 -0.4305
  432SOL    HW2 1774   1.126   4.504   0.777 -0.6543 -0.8599  0.4336
  432SOL    HW3 1775   1.055   4.373   0.748  0.4533 -1.0959 -1.2266
  432SOL    MW4 1776   1.119   4.430   0.731  0.0479 -0.3991 -0.4215
  433SOL     OW 1777   0.198   2.250   0.483  0.2725  0.1224  0.5329
  433SOL    HW2 1778   0.290   2.277   0.480  0.3602 -0.3128 -1.3367
  433SOL    HW3 1779   0.193   2.187   0.554  1.3013  0.5761  1.0146
  433SOL    MW4 1780   0.209   2.245   0.492  0.4198  0.1249  0.3498
  434SOL     OW 1781   0.661   4.406   0.749  0.7408 -0.2089  0.1975
  434SOL    HW2 1782   0.585   4.362   0.787 -0.2501  0.5209 -0.9247
  434SOL    HW3 1783   0.659   4.383   0.656  0.9507  1.1561 -0.1507
  434SOL    MW4 1784   0.651   4.397   0.742  0.6378  0.0672  0.0035
  435SOL     OW 1785   2.719   0.053   0.752  0.0553  0.1397  0.0548
  435SOL    HW2 1786   2.733   0.139   0.791  0.2994 -0.1443  0.5963
  435SOL    HW3 1787   2.633   0.026   0.783  1.0060 -0.8655  1.8635
  435SOL    MW4 1788   2.710   0.061   0.761  0.2131 -0.0304  0.3650
  436SOL     OW 1789   1.140   2.341   0.829  0.4510  0.4746 -0.1296
  436SOL    HW2 1790   1.166   2.251   0.805 -2.0110 -0.5928  1.0496
  436SOL    HW3 1791   1.138   2.340   0.925 -0.6123  1.4859 -0.1333
  436SOL    MW4 1792   1.143   2.329   0.839 -0.0142  0.4671  0.0255
  437SOL     OW 1793   3.438   0.006   1.112  0.5487  0.3570  0.5488
  437SOL    HW2 1794   3.418  -0.017   1.021 -0.8519 -0.1032  0.9507
  437SOL    HW3 1795   3.357   0.044   1.145  0.4273 -1.2058  2.1370
  437SOL    MW4 1796   3.424   0.008   1.104  0.3479  0.0901  0.8115
  438SOL     OW 1797   2.064   2.825   0.750  0.3261  0.3169 -0.3028
  438SOL    HW2 1798   2.050   2.844   0.657 -1.9047 -0.5276 -0.1744
  438SOL    HW3 1799   2.068   2.911   0.792 -1.6958  0.6621 -0.7843
  438SOL    MW4 1800   2.063   2.839   0.743 -0.2351  0.2511 -0.3494
  439SOL     OW 1801   3.891   2.984   0.493 -0.3786  0.1257  0.1490
  439SOL    HW2 1802   3.879   2.924   0.567  0.8893 -0.8627 -0.4111
  439SOL    HW3 1803   3.885   2.928   0.416 -1.6215  1.1404 -0.5078
  439SOL    MW4 1804   3.889   2.969   0.493 -0.3755  0.1290 -0.0116
  440SOL     OW 1805   3.065   3.537   0.483 -0.0997  0.3713  0.1117
  440SOL    HW2 1806   3.040   3.447   0.463  0.9353  0.2616 -0.7707
  440SOL    HW3 1807   3.028   3.554   0.569 -0.7474 -0.7266  0.0598
  440SOL    MW4 1808   3.057   3.527   0.491 -0.0486  0.2120 -0.0115
  441SOL     OW 1809   0.855   2.513   0.471 -0.4026  0.1037  0.3463
  441SOL    HW2 1810   0.874   2.509   0.565 -2.4233  0.1839  0.7831
  441SOL    HW3 1811   0.892   2.597   0.443 -1.4626  0.9646  1.4747
  441SOL    MW4 1812   0.863   2.523   0.480 -0.8091  0.2279  0.5529
  442SOL     OW 1813   1.604   2.308   0.849 -0.0971  0.0096  1.0135
  442SOL    HW2 1814   1.695   2.332   0.833 -0.6480  1.0296 -0.6934
  442SOL    HW3 1815   1.601   2.213   0.836  0.4659  0.1559 -0.2320
  442SOL    MW4 1816   1.616   2.298   0.845 -0.0955  0.1636  0.6240
  443SOL     OW 1817   0.044   1.872   0.329  0.0373 -0.2740 -0.3972
  443SOL    HW2 1818   0.131   1.895   0.362 -0.8164  0.0397  1.7041
  443SOL    HW3 1819  -0.001   1.956   0.319 -1.0302 -0.6107  1.4297
  443SOL    MW4 1820   0.050   1.886   0.332 -0.2162 -0.2770  0.1211
  444SOL     OW 1821   2.050   2.037   0.743 -0.6098 -0.0414  0.1232
  444SOL    HW2 1822   2.105   1.970   0.782  0.4774  0.8649  0.1646
  444SOL    HW3 1823   2.046   2.015   0.651  1.0270  0.6982 -0.1429
  444SOL    MW4 1824   2.057   2.025   0.736 -0.2508  0.1755  0.0936
  445SOL     OW 1825   2.710   4.025   0.714  0.4289  0.1652  0.2149
  445SOL    HW2 1826   2.709   4.110   0.758  1.8584  0.4813 -0.3223
  445SOL    HW3 1827   2.771   3.972   0.765  0.6627 -0.0627 -0.2937
  445SOL    MW4 1828   2.718   4.029   0.726  0.6485  0.1764  0.0769
  446SOL     OW 1829   3.040   0.971   0.427 -0.0055  0.1014  0.1947
  446SOL    HW2 1830   2.979   0.899   0.443 -0.0641 -0.0200 -0.5943
  446SOL    HW3 1831   3.125   0.928   0.420  0.1777  0.2662  1.2499
  446SOL    MW4 1832   3.043   0.956   0.428  0.0112  0.1072  0.2298
  447SOL     OW 1833   4.215   4.132   0.561  0.2727  0.1013  0.3339
  447SOL    HW2 1834   4.310   4.118   0.553 -0.0874 -2.3071  0.1189
  447SOL    HW3 1835   4.196   4.199   0.495  1.3673 -1.5188 -1.6865
  447SOL    MW4 1836   4.225   4.139   0.551  0.3695 -0.4301  0.0390
  448SOL     OW 1837   2.472   3.130   0.425  0.3081 -0.2032 -0.2579
  448SOL    HW2 1838   2.455   3.036   0.422  0.5822 -0.2358 -0.9410
  448SOL    HW3 1839   2.399   3.169   0.378  1.8964 -0.3206 -2.9133
  448SOL    MW4 1840   2.460   3.123   0.418  0.5536 -0.2232 -0.6983
  449SOL     OW 1841   2.956   1.488   0.844  0.3079 -0.1091 -0.0850
  449SOL    HW2 1842   3.027   1.522   0.789  0.4975 -0.4230 -0.0392
  449SOL    HW3 1843   2.950   1.395   0.820  1.0691 -0.4906  1.1313
  449SOL    MW4 1844   2.965   1.480   0.834  0.4334 -0.2007  0.0815
  450SOL     OW 1845   3.850   3.714   0.301  0.2873 -0.3747 -0.2892
  450SOL    HW2 1846   3.865   3.801   0.264 -0.4174 -0.0962  0.0745
  450SOL    HW3 1847   3.755   3.707   0.309  0.3969 -0.6719  0.8968
  450SOL    MW4 1848   3.839   3.724   0.297  0.2086 -0.3774 -0.0847
  451SOL     OW 1849   3.358   0.752   0.870  0.1376 -0.2994  0.7390
  451SOL    HW2 1850   3.427   0.808   0.835 -0.5025 -0.5830 -1.0380
  451SOL    HW3 1851   3.391   0.724   0.955  0.7420  2.2468  1.3868
  451SOL    MW4 1852   3.372   0.756   0.876  0.1330 -0.0008  0.5900
  452SOL     OW 1853   0.667   3.087   0.786 -0.1693  0.0804 -0.2472
  452SOL    HW2 1854   0.758   3.114   0.776  0.4335 -1.2592  1.2865
  452SOL    HW3 1855   0.667   2.994   0.764 -0.8138 -0.3428  1.4518
  452SOL    MW4 1856   0.679   3.078   0.782 -0.1748 -0.1521  0.1794
  453SOL     OW 1857   2.506   2.302   0.836 -0.5233  0.1782 -0.0886
  453SOL    HW2 1858   2.438   2.368   0.825 -0.4150  0.1611 -0.8512
  453SOL    HW3 1859   2.588   2.347   0.817 -0.4770 -0.2571 -0.9587
  453SOL    MW4 1860   2.508   2.316   0.832 -0.5026  0.1187 -0.3040
  454SOL     OW 1861   2.740   0.837   0.920 -0.0720  0.3687  0.1823
  454SOL    HW2 1862   2.721   0.928   0.898 -0.9593  0.7308  2.3552
  454SOL    HW3 1863   2.654   0.793   0.917  0.2909 -0.3175 -0.4321
  454SOL    MW4 1864   2.726   0.843   0.917 -0.1411  0.3259  0.3879
  455SOL     OW 1865   1.387   0.829   0.737  0.9140 -0.5853 -0.0197
  455SOL    HW2 1866   1.307   0.785   0.768  0.7084 -0.3439 -0.2039
  455SOL    HW3 1867   1.385   0.915   0.780 -0.1331  0.3184 -1.8308
  455SOL    MW4 1868   1.376   0.835   0.747  0.7489 -0.4342 -0.2829
  456SOL     OW 1869   3.184   3.997   0.494  0.0491 -0.2419  0.1272
  456SOL    HW2 1870   3.212   3.908   0.474 -1.3775 -0.2467 -1.8787
  456SOL    HW3 1871   3.265   4.049   0.492  0.6875 -1.2392 -0.0212
  456SOL    MW4 1872   3.198   3.992   0.491 -0.0548 -0.3741 -0.1571
  457SOL     OW 1873   0.414   4.228   1.118  0.3974  0.4986  0.2202
  457SOL    HW2 1874   0.333   4.277   1.137  1.0262  1.4913  0.3442
  457SOL    HW3 1875   0.484   4.284   1.151  1.0693 -0.9852  1.4081
  457SOL    MW4 1876   0.412   4.242   1.125  0.5690  0.4339  0.3934
  458SOL     OW 1877   1.365   1.645   0.795 -0.5001  0.4545  0.3451
  458SOL    HW2 1878   1.355   1.728   0.841 -0.8423  0.2102  0.7168
  458SOL    HW3 1879   1.397   1.669   0.708  1.3964  0.8413  1.1178
  458SOL    MW4 1880   1.368   1.659   0.789 -0.2949  0.4734  0.4960
  459SOL     OW 1881   0.468   1.444   0.458  0.3174 -0.1045 -0.2937
  459SOL    HW2 1882   0.378   1.413   0.456 -0.1726  1.3033 -0.4554
  459SOL    HW3 1883   0.465   1.531   0.420  1.4876  0.6056  1.1588
  459SOL    MW4 1884   0.456   1.451   0.453  0.4072  0.1749 -0.1234
  460SOL     OW 1885   3.677   3.447   0.456  0.1436  0.3996  0.0119
  460SOL    HW2 1886   3.769   3.474   0.457 -0.2297  1.7288 -0.4898
  460SOL    HW3 1887   3.680   3.351   0.455  1.5245  0.4330 -0.0160
  460SOL    MW4 1888   3.690   3.438   0.456  0.2766  0.5791 -0.0580
  461SOL     OW 1889   1.128   0.460   0.732 -0.0079  0.0584  0.0744
  461SOL    HW2 1890   1.113   0.517   0.657  0.4966  0.2577  0.1220
  461SOL    HW3 1891   1.040   0.434   0.761 -0.2222  0.4993 -0.1848
  461SOL    MW4 1892   1.114   0.464   0.726  0.0304  0.1428  0.0466
  462SOL     OW 1893   1.877   3.526   0.345 -0.6803  0.3633  0.5810
  462SOL    HW2 1894   1.826   3.576   0.409  2.2276  1.7857  1.9250
  462SOL    HW3 1895   1.884   3.585   0.269 -1.8790 -0.2520 -0.0199
  462SOL    MW4 1896   1.871   3.541   0.343 -0.4549  0.4699  0.6790
  463SOL     OW 1897   2.746   3.449   0.798 -0.1215  0.5755  0.1247
  463SOL    HW2 1898   2.736   3.448   0.893 -1.3246 -2.5118  0.0174
  463SOL    HW3 1899   2.671   3.500   0.767 -1.5754 -1.1342  0.7127
  463SOL    MW4 1900   2.734   3.455   0.807 -0.4721 -0.0572  0.1881
  464SOL     OW 1901   3.385   2.347   0.439  0.1074  0.3594  0.0348
  464SOL    HW2 1902   3.419   2.280   0.379  0.6477  0.8174 -0.1766
  464SOL    HW3 1903   3.463   2.380   0.485 -0.0233  1.5370 -0.5720
  464SOL    MW4 1904   3.400   2.342   0.437  0.1616  0.5753 -0.0731
  465SOL     OW 1905   0.961   1.920   0.852  0.3244 -0.1425 -0.1626
  465SOL    HW2 1906   0.879   1.962   0.825  0.9718  1.7705  0.7525
  465SOL    HW3 1907   0.958   1.922   0.948  2.0659  1.2374 -0.1103
  465SOL    MW4 1908   0.949   1.926   0.861  0.6396  0.2919 -0.0350
  466SOL     OW 1909   4.272   2.616   0.430  0.2766  0.0570  0.3547
  466SOL    HW2 1910   4.281   2.652   0.519 -0.3760  0.3156  0.3213
  466SOL    HW3 1911   4.349   2.561   0.419  0.7049  0.5474  0.8374
  466SOL    MW4 1912   4.283   2.614   0.441  0.2470  0.1557  0.4140
  467SOL     OW 1913   1.931   3.163   0.455 -0.1001  0.1439  0.7155
  467SOL    HW2 1914   1.863   3.209   0.407  0.2766  0.6960  0.6987
  467SOL    HW3 1915   1.922   3.192   0.545  0.7217  0.9764  0.5439
  467SOL    MW4 1916   1.921   3.173   0.460  0.0582  0.3269  0.6907
  468SOL     OW 1917   2.969   4.376   0.748 -0.3244  0.0347 -0.1546
  468SOL    HW2 1918   2.953   4.412   0.660  0.8410 -0.6757 -0.6725
  468SOL    HW3 1919   3.005   4.449   0.797  0.0821  0.1344 -0.5971
  468SOL    MW4 1920   2.971   4.390   0.743 -0.1171 -0.0458 -0.2813
  469SOL     OW 1921   0.451   0.379   0.825 -0.3429 -0.2539  0.5270
  469SOL    HW2 1922   0.456   0.286   0.802 -0.7023 -0.4658  1.2941
  469SOL    HW3 1923   0.375   0.411   0.776  0.7942  0.0402 -1.0864
  469SOL    MW4 1924   0.442   0.371   0.815 -0.2404 -0.2431  0.4154
  470SOL     OW 1925   1.871   0.202   0.443 -0.0554  0.1293  0.4542
  470SOL    HW2 1926   1.824   0.285   0.434  0.1554  0.3463  1.3543
  470SOL    HW3 1927   1.846   0.169   0.529  0.4183 -0.3960  0.3951
  470SOL    MW4 1928   1.861   0.209   0.453  0.0349  0.0886  0.5651
  471SOL     OW 1929   3.631   2.707   0.848 -0.0090  0.0516 -0.2815
  471SOL    HW2 1930   3.615   2.615   0.829 -0.4345  0.1472 -0.3990
  471SOL    HW3 1931   3.619   2.714   0.943 -0.6817  0.1178 -0.3637
  471SOL    MW4 1932   3.627   2.696   0.858 -0.1540  0.0730 -0.3079
  472SOL     OW 1933   2.749   0.332   0.846  0.7046  0.2056  0.3489
  472SOL    HW2 1934   2.739   0.335   0.941  0.3183 -0.3304  0.3244
  472SOL    HW3 1935   2.835   0.371   0.830  1.0548 -0.2958  0.9659
  472SOL    MW4 1936   2.759   0.338   0.857  0.6998  0.0688  0.4271
  473SOL     OW 1937   0.179   3.749   0.383 -0.1159  0.0691 -0.1147
  473SOL    HW2 1938   0.089   3.717   0.396  0.1832 -0.4675  0.6312
  473SOL    HW3 1939   0.172   3.807   0.307 -1.3166  0.9087  0.6092
  473SOL    MW4 1940   0.166   3.753   0.375 -0.2349  0.1090  0.0792
  474SOL     OW 1941   1.754   1.128   0.383 -0.1442  0.1322  0.0116
  474SOL    HW2 1942   1.666   1.149   0.414 -0.0074  0.4758  0.1709
  474SOL    HW3 1943   1.763   1.034   0.400 -0.4089  0.1357  0.1746
  474SOL    MW4 1944   1.744   1.118   0.390 -0.1609  0.1781  0.0542
  475SOL     OW 1945   3.302   0.851   0.440  0.0958  0.1209  0.4963
  475SOL    HW2 1946   3.300   0.757   0.461 -0.1170 -0.2076 -0.9340
  475SOL    HW3 1947   3.395   0.872   0.436  0.1664 -0.3337 -0.4388
  475SOL    MW4 1948   3.314   0.841   0.442  0.0770  0.0176  0.1842
  476SOL     OW 1949   1.375   1.079   0.842  0.0964  0.3952  0.2153
  476SOL    HW2 1950   1.356   1.104   0.932  0.6705  0.3757  0.3413
  476SOL    HW3 1951   1.456   1.126   0.820  0.9862 -1.0544  0.3288
  476SOL    MW4 1952   1.383   1.089   0.851  0.2896  0.2015  0.2469
  477SOL     OW 1953   2.499   3.840   0.774  0.2076  0.3210 -0.0838
  477SOL    HW2 1954   2.419   3.881   0.742 -0.2174 -0.1294  0.4015
  477SOL    HW3 1955   2.568   3.904   0.756 -0.4899  1.3532  0.9117
  477SOL    MW4 1956   2.498   3.854   0.767  0.0596  0.3979  0.1116
  478SOL     OW 1957   1.117   1.013   0.378  0.2850  0.1178 -0.0175
  478SOL    HW2 1958   1.195   0.966   0.405  0.7012  0.3449 -0.8142
  478SOL    HW3 1959   1.144   1.105   0.374 -0.3933  0.3778  1.0598
  478SOL    MW4 1960   1.131   1.019   0.381  0.2505  0.1822  0.0195
  479SOL     OW 1961   4.341   3.109   0.868 -0.4300  0.0300 -0.1439
  479SOL    HW2 1962   4.359   3.059   0.789  2.0815 -0.8970  0.9712
  479SOL    HW3 1963   4.395   3.188   0.860 -0.0587 -0.1288  0.6932
  479SOL    MW4 1964   4.350   3.113   0.857 -0.0496 -0.1132  0.1137
  480SOL     OW 1965   1.711   0.441   0.421  0.2183 -0.7306 -0.2568
  480SOL    HW2 1966   1.667   0.441   0.507  0.8767 -1.8289  0.0918
  480SOL    HW3 1967   1.648   0.400   0.362  0.0047 -0.5332 -0.1676
  480SOL    MW4 1968   1.697   0.435   0.425  0.2769 -0.8495 -0.1990
  481SOL     OW 1969   1.475   0.584   0.103  0.0247 -0.0247  0.2552
  481SOL    HW2 1970   1.498   0.622   0.019 -2.3198  0.6948 -0.1173
  481SOL    HW3 1971   1.475   0.658   0.164  0.0166 -0.2411  0.5237
  481SOL    MW4 1972   1.478   0.599   0.100 -0.2857  0.0418  0.2415
  482SOL     OW 1973   1.598   3.575   0.657  0.1313 -0.2798 -0.5032
  482SOL    HW2 1974   1.662   3.529   0.710  0.7477 -0.5231 -1.4459
  482SOL    HW3 1975   1.563   3.508   0.598  0.2854  0.2294 -1.1813
  482SOL    MW4 1976   1.602   3.560   0.656  0.2329 -0.2449 -0.7171
  483SOL     OW 1977   1.507   0.347   0.239  0.3728 -0.4640 -0.0443
  483SOL    HW2 1978   1.444   0.365   0.309 -1.0836 -3.6780 -0.4140
  483SOL    HW3 1979   1.500   0.422   0.180 -2.2685 -0.1944  0.5490
  483SOL    MW4 1980   1.497   0.359   0.241 -0.1677 -0.8525 -0.0148
  484SOL     OW 1981   2.508   1.758   0.408 -0.7698  0.2648  0.0808
  484SOL    HW2 1982   2.538   1.751   0.318  0.9661  0.5145  0.6153
  484SOL    HW3 1983   2.500   1.852   0.424 -1.4214  0.2127  0.0848
  484SOL    MW4 1984   2.511   1.769   0.399 -0.6268  0.2909  0.1518
  485SOL     OW 1985   0.229   4.380   1.244 -0.2213 -0.0403  0.2923
  485SOL    HW2 1986   0.244   4.369   1.338 -1.7270 -1.2262  0.4036
  485SOL    HW3 1987   0.245   4.473   1.228  1.7797 -0.1703  1.3850
  485SOL    MW4 1988   0.233   4.391   1.254 -0.1559 -0.2141  0.4512
  486SOL     OW 1989   0.013   0.389   1.094  0.3501 -0.1270  0.0212
  486SOL    HW2 1990   0.027   0.305   1.139 -0.4797 -0.2918 -0.0368
  486SOL    HW3 1991  -0.051   0.435   1.148 -0.0600 -0.0028 -0.5686
  486SOL    MW4 1992   0.007   0.384   1.107  0.1864 -0.1324 -0.0643
  487SOL     OW 1993   0.042   0.156   1.227  0.5440 -0.2264 -0.5102
  487SOL    HW2 1994  -0.033   0.098   1.223  1.2417 -1.1998  0.2917
  487SOL    HW3 1995   0.113   0.107   1.186  0.7443  0.6982 -1.2962
  487SOL    MW4 1996   0.042   0.142   1.221  0.6626 -0.2329 -0.5081
  488SOL     OW 1997   0.220   0.496   1.464  0.1683 -0.2321  0.0591
  488SOL    HW2 1998   0.201   0.515   1.372 -0.5823 -0.1641  0.2231
  488SOL    HW3 1999   0.139   0.457   1.497  0.6005 -0.7039  0.5684
  488SOL    MW4 2000   0.206   0.493   1.456  0.1263 -0.2854  0.1478
  489SOL     OW 2001   0.455   1.154   1.123  0.2806  0.5015 -0.4342
  489SOL    HW2 2002   0.537   1.197   1.148  0.1964  1.0734 -1.1206
  489SOL    HW3 2003   0.458   1.152   1.027 -0.1831 -0.1119 -0.4353
  489SOL    MW4 2004   0.466   1.160   1.114  0.2083  0.4960 -0.5248
  490SOL     OW 2005   0.007   0.867   1.207  0.1761  0.0937  0.4567
  490SOL    HW2 2006   0.010   0.851   1.301 -0.8306  0.1520  0.5007
  490SOL    HW3 2007  -0.083   0.845   1.182  0.3349  0.4450 -0.4235
  490SOL    MW4 2008  -0.004   0.862   1.216  0.0643  0.1478  0.3465
  491SOL     OW 2009   0.040   1.159   1.134 -0.2776  0.8157  0.1883
  491SOL    HW2 2010  -0.049   1.189   1.151 -0.6470  0.4329 -1.0168
  491SOL    HW3 2011   0.043   1.070   1.170  0.6915  2.0634  3.3782
  491SOL    MW4 2012   0.029   1.151   1.141 -0.1985  0.9298  0.4501
  492SOL     OW 2013   0.232   1.325   1.203  0.1976 -0.1959 -0.4519
  492SOL    HW2 2014   0.308   1.274   1.175 -0.5291 -1.0472 -0.9127
  492SOL    HW3 2015   0.158   1.266   1.189 -0.6260  0.9079 -0.7503
  492SOL    MW4 2016   0.232   1.310   1.198 -0.0070 -0.1625 -0.5521
  493SOL     OW 2017   0.231   1.573   1.071 -0.4221 -0.3444  0.0179
  493SOL    HW2 2018   0.219   1.488   1.115 -1.0742  0.1293  0.7801
  493SOL    HW3 2019   0.317   1.603   1.100  0.8613 -1.8250 -2.1305
  493SOL    MW4 2020   0.241   1.566   1.081 -0.3388 -0.4772 -0.1650
  494SOL     OW 2021   0.035   1.697   1.214  0.1433 -0.4043 -0.5058
  494SOL    HW2 2022   0.017   1.786   1.183  1.0332 -0.0563 -0.0106
  494SOL    HW3 2023   0.104   1.665   1.156  0.1062 -0.6263 -0.4271
  494SOL    MW4 2024   0.042   1.705   1.202  0.2558 -0.3877 -0.4301
  495SOL     OW 2025   0.010   1.951   1.119  0.2858  0.1536 -0.3363
  495SOL    HW2 2026  -0.073   1.982   1.156 -0.1039 -0.5954 -0.5989
  495SOL    HW3 2027  -0.004   1.950   1.025 -0.1739 -2.1959 -0.2547
  495SOL    MW4 2028  -0.002   1.955   1.112  0.1740 -0.2551 -0.3601
  496SOL     OW 2029   0.245   2.047   1.238  0.5984 -0.2853 -0.1427
  496SOL    HW2 2030   0.271   2.133   1.205 -2.5930  1.3117  1.2115
  496SOL    HW3 2031   0.165   2.027   1.189 -0.5671 -0.8824  1.9434
  496SOL    MW4 2032   0.238   2.056   1.227  0.0236 -0.1533  0.3111
  497SOL     OW 2033   0.266   2.295   1.134 -0.2488  0.0349  0.5392
  497SOL    HW2 2034   0.329   2.358   1.171 -0.5045  0.9332 -0.5556
  497SOL    HW3 2035   0.180   2.328   1.161 -0.4801  1.0939 -1.4516
  497SOL    MW4 2036   0.263   2.307   1.143 -0.3130  0.2933  0.1322
  498SOL     OW 2037   0.008   2.429   1.205 -0.3357 -0.2990  0.5129
  498SOL    HW2 2038  -0.006   2.429   1.300 -1.1206  1.8318  0.4253
  498SOL    HW3 2039  -0.076   2.403   1.168 -0.4409  0.2532  0.3611
  498SOL    MW4 2040  -0.005   2.426   1.213 -0.4531  0.0551  0.4812
  499SOL     OW 2041   0.032   2.730   1.146 -0.0411  0.5054 -0.2043
  499SOL    HW2 2042  -0.048   2.768   1.184 -1.1430  1.1036 -3.0139
  499SOL    HW3 2043   0.021   2.636   1.157 -0.7399  0.6197  0.1554
  499SOL    MW4 2044   0.020   2.723   1.153 -0.2787  0.5994 -0.5275
  500SOL     OW 2045   0.250   3.092   1.096  0.3805 -0.1612 -0.0742
  500SOL    HW2 2046   0.257   3.000   1.119 -1.3138 -0.2443  0.1554
  500SOL    HW3 2047   0.307   3.137   1.160 -0.7659 -0.8134  1.4430
  500SOL    MW4 2048   0.259   3.086   1.108  0.0057 -0.2584  0.1563
  501SOL     OW 2049   1.170   3.583   0.691 -0.0172 -0.2326 -0.3826
  501SOL    HW2 2050   1.245   3.543   0.734  1.0422  0.3301 -1.6480
  501SOL    HW3 2051   1.168   3.543   0.604 -0.3492  0.7569 -0.8389
  501SOL    MW4 2052   1.180   3.573   0.685  0.0787 -0.0279 -0.6098
  502SOL     OW 2053   0.020   3.235   1.185  0.4090 -0.2550  0.1212
  502SOL    HW2 2054  -0.053   3.175   1.173  0.5900 -0.5853  0.6757
  502SOL    HW3 2055   0.095   3.187   1.148  0.2901  0.2128 -0.7416
  502SOL    MW4 2056   0.021   3.220   1.178  0.4172 -0.2367  0.0805
  503SOL     OW 2057   0.020   3.505   1.136  0.4017 -0.6841 -0.0201
  503SOL    HW2 2058   0.019   3.410   1.146 -0.0337 -0.7596 -0.8144
  503SOL    HW3 2059   0.049   3.520   1.046  3.4039  0.0010  0.9719
  503SOL    MW4 2060   0.024   3.495   1.126  0.7403 -0.6037  0.0058
  504SOL     OW 2061   0.503   3.455   1.172  0.0770 -0.0883 -0.0677
  504SOL    HW2 2062   0.579   3.515   1.176 -0.5191  0.7222 -0.5850
  504SOL    HW3 2063   0.428   3.511   1.190 -0.3292 -1.0722  1.3394
  504SOL    MW4 2064   0.503   3.471   1.175 -0.0553 -0.1113  0.0496
  505SOL     OW 2065   0.265   3.582   1.235  0.1138 -0.5183 -0.1279
  505SOL    HW2 2066   0.260   3.590   1.330 -0.8290  1.0135 -0.2860
  505SOL    HW3 2067   0.178   3.551   1.210 -0.2010  0.7602 -0.6353
  505SOL    MW4 2068   0.253   3.579   1.244 -0.0522 -0.1478 -0.2158
  506SOL     OW 2069   4.271   3.904   1.125  0.4207  0.3820 -0.3944
  506SOL    HW2 2070   4.353   3.952   1.139 -0.3425  1.5644  0.0881
  506SOL    HW3 2071   4.288   3.818   1.162  1.6437  0.4281 -0.8169
  506SOL    MW4 2072   4.284   3.899   1.132  0.4811  0.5441 -0.3865
  507SOL     OW 2073   0.002   4.269   1.150 -0.3332 -0.6668  0.1917
  507SOL    HW2 2074   0.009   4.278   1.055 -0.1512 -1.0256  0.1714
  507SOL    HW3 2075   0.076   4.318   1.185 -0.6453 -0.1761  0.1643
  507SOL    MW4 2076   0.013   4.276   1.142 -0.3504 -0.6495  0.1855
  508SOL     OW 2077   0.465   3.968   1.203  0.3155  0.0654  0.2533
  508SOL    HW2 2078   0.390   3.920   1.168 -1.3374  0.6888  2.7786
  508SOL    HW3 2079   0.453   4.058   1.173  0.5460 -0.0308 -0.1208
  508SOL    MW4 2080   0.454   3.974   1.195  0.1278  0.1349  0.5372
  509SOL     OW 2081   0.733   4.666   0.798  0.1943 -0.2845 -0.5254
  509SOL    HW2 2082   0.713   4.575   0.776 -1.7082 -0.2330  0.9114
  509SOL    HW3 2083   0.730   4.669   0.893  0.9192  1.1407 -0.5457
  509SOL    MW4 2084   0.730   4.654   0.807  0.0390 -0.0901 -0.3386
  510SOL     OW 2085   0.684   4.656   1.071  0.2009  0.2484 -0.1668
  510SOL    HW2 2086   0.752   4.697   1.124  0.2530 -0.4486  0.3176
  510SOL    HW3 2087   0.677   4.567   1.105 -0.2910  0.0188 -0.8388
  510SOL    MW4 2088   0.692   4.649   1.082  0.1429  0.1264 -0.1915
  511SOL     OW 2089   0.223   0.545   1.171 -0.1581  0.0789  0.2304
  511SOL    HW2 2090   0.150   0.500   1.128 -0.6230  0.7966  0.2527
  511SOL    HW3 2091   0.240   0.620   1.114  0.1920  0.2204  0.5246
  511SOL    MW4 2092   0.215   0.549   1.158 -0.1732  0.1922  0.2720
  512SOL     OW 2093   0.691   0.487   1.262  0.5409 -0.0387  0.0484
  512SOL    HW2 2094   0.618   0.455   1.209  0.5329 -0.3393  0.2436
  512SOL    HW3 2095   0.708   0.575   1.227 -0.7246  0.5218  0.8234
  512SOL    MW4 2096   0.684   0.495   1.250  0.3728 -0.0045  0.1763
  513SOL     OW 2097   0.672   0.730   1.123 -0.3092 -0.1786 -0.6733
  513SOL    HW2 2098   0.591   0.778   1.141  0.0131 -0.0980  0.5945
  513SOL    HW3 2099   0.681   0.733   1.028 -1.8461 -0.2737 -0.8286
  513SOL    MW4 2100   0.663   0.737   1.113 -0.4695 -0.1805 -0.5265
  514SOL     OW 2101   0.242   0.779   1.012 -0.4629  0.7120 -0.0008
  514SOL    HW2 2102   0.314   0.793   1.074  0.7949  2.3893 -1.7791
  514SOL    HW3 2103   0.165   0.814   1.057 -0.0271 -0.2908  1.5656
  514SOL    MW4 2104   0.242   0.785   1.026 -0.2394  0.8010 -0.0287
  515SOL     OW 2105   0.443   0.872   1.185  0.2942  0.2927  0.5230
  515SOL    HW2 2106   0.436   0.963   1.155 -0.5622  0.4411  1.1423
  515SOL    HW3 2107   0.449   0.879   1.281  0.2134 -0.2977  0.5730
  515SOL    MW4 2108   0.443   0.885   1.194  0.1706  0.2345  0.6113
  516SOL     OW 2109   0.693   1.278   1.204  0.3667  0.4121  0.1010
  516SOL    HW2 2110   0.765   1.236   1.157 -0.9025 -0.4933 -1.0599
  516SOL    HW3 2111   0.686   1.364   1.164  0.9205  0.5729  0.3424
  516SOL    MW4 2112   0.701   1.284   1.193  0.2723  0.3140 -0.0204
  517SOL     OW 2113   0.903   1.675   1.233 -0.2293 -0.0420  0.1937
  517SOL    HW2 2114   0.968   1.610   1.206 -0.6317 -0.3895  0.0620
  517SOL    HW3 2115   0.932   1.756   1.190 -0.6085 -0.4846 -0.9163
  517SOL    MW4 2116   0.916   1.677   1.223 -0.3325 -0.1460  0.0299
  518SOL     OW 2117   0.454   1.656   1.205 -0.0064  0.3101  0.0266
  518SOL    HW2 2118   0.459   1.640   1.299  0.2599  0.2339 -0.0023
  518SOL    HW3 2119   0.526   1.606   1.167 -1.7571 -1.8469 -0.5175
  518SOL    MW4 2120   0.464   1.648   1.212 -0.2022  0.0155 -0.0490
  519SOL     OW 2121   0.480   1.935   1.122  0.1438 -0.6027  0.3467
  519SOL    HW2 2122   0.396   1.965   1.155 -0.6195  0.3435 -2.3077
  519SOL    HW3 2123   0.482   1.842   1.142 -1.6379 -0.6716  0.2891
  519SOL    MW4 2124   0.470   1.927   1.129 -0.1920 -0.4869 -0.0111
  520SOL     OW 2125   0.708   2.043   1.235  0.3946  0.2930 -0.7987
  520SOL    HW2 2126   0.675   2.042   1.325  0.9811 -1.1108 -0.5842
  520SOL    HW3 2127   0.631   2.023   1.182  0.0173  1.2609 -0.6252
  520SOL    MW4 2128   0.693   2.040   1.240  0.4222  0.2351 -0.7476
  521SOL     OW 2129   0.709   2.307   1.152  0.0023 -0.0768  0.1170
  521SOL    HW2 2130   0.631   2.348   1.190 -0.2578 -0.4420 -0.0206
  521SOL    HW3 2131   0.708   2.218   1.185 -0.3674 -0.4749 -0.9468
  521SOL    MW4 2132   0.698   2.301   1.161 -0.0808 -0.1776 -0.0415
  522SOL     OW 2133   0.481   2.444   1.229 -0.0927 -0.5510 -0.0064
  522SOL    HW2 2134   0.481   2.466   1.323 -0.7167 -1.9270  0.3237
  522SOL    HW3 2135   0.470   2.528   1.185  0.1624  0.1033  1.1595
  522SOL    MW4 2136   0.479   2.458   1.236 -0.1413 -0.6461  0.1910
  523SOL     OW 2137   4.295   1.243   0.749  0.4305 -0.4833  0.1044
  523SOL    HW2 2138   4.215   1.211   0.791 -0.2599 -0.9791 -1.5374
  523SOL    HW3 2139   4.293   1.338   0.764 -0.5542 -0.4669 -0.0652
  523SOL    MW4 2140   4.284   1.251   0.756  0.2093 -0.5467 -0.1345
  524SOL     OW 2141   0.711   2.849   1.240 -0.0850 -0.4459 -0.3727
  524SOL    HW2 2142   0.697   2.915   1.172 -0.7146 -0.6808 -0.4762
  524SOL    HW3 2143   0.645   2.782   1.223  0.0321 -0.7180  0.2144
  524SOL    MW4 2144   0.701   2.849   1.229 -0.1525 -0.5126 -0.3089
  525SOL     OW 2145   0.694   3.086   1.076 -0.1777 -0.3328  0.2895
  525SOL    HW2 2146   0.776   3.128   1.099 -0.0441  0.5724 -1.7364
  525SOL    HW3 2147   0.693   3.084   0.980 -1.4340 -2.4773  0.2975
  525SOL    MW4 2148   0.704   3.091   1.066 -0.3258 -0.4961  0.0234
  526SOL     OW 2149   0.492   3.187   1.237 -0.3720 -0.1658  0.3307
  526SOL    HW2 2150   0.497   3.280   1.216 -2.4252 -0.2002 -0.3998
  526SOL    HW3 2151   0.564   3.148   1.187 -0.3727  0.8428 -0.4834
  526SOL    MW4 2152   0.502   3.194   1.227 -0.6430 -0.0372  0.1268
  527SOL     OW 2153   2.090   3.538   0.729  0.1477 -0.2211 -0.1255
  527SOL    HW2 2154   2.083   3.633   0.739 -0.4489 -0.3068  0.2904
  527SOL    HW3 2155   2.169   3.515   0.778  0.4621  0.0972 -0.4786
  527SOL    MW4 2156   2.099   3.548   0.737  0.1104 -0.1903 -0.1171
  528SOL     OW 2157   0.724   3.614   1.190  0.4365  0.2324  0.4503
  528SOL    HW2 2158   0.716   3.604   1.285  0.2364  0.4643  0.4605
  528SOL    HW3 2159   0.810   3.577   1.169  1.3269  1.9217  0.9914
  528SOL    MW4 2160   0.734   3.608   1.200  0.5277  0.4861  0.5231
  529SOL     OW 2161   0.683   3.859   1.097  0.0506 -0.3954 -0.0589
  529SOL    HW2 2162   0.601   3.892   1.133  0.1101 -0.1703 -0.1306
  529SOL    HW3 2163   0.690   3.770   1.131  0.1611 -0.1458  0.5730
  529SOL    MW4 2164   0.673   3.852   1.106  0.0730 -0.3328  0.0151
  530SOL     OW 2165   0.231   3.845   1.091 -0.2545  0.2375 -0.2117
  530SOL    HW2 2166   0.225   3.755   1.124  0.0129 -0.0114 -0.8322
  530SOL    HW3 2167   0.162   3.893   1.137  0.7835  0.1431  1.5115
  530SOL    MW4 2168   0.221   3.840   1.101 -0.0823  0.1922 -0.0660
  531SOL     OW 2169   2.940   1.250   0.441  0.3758 -0.0847 -0.4282
  531SOL    HW2 2170   3.012   1.302   0.405  0.7098 -0.8403 -0.8382
  531SOL    HW3 2171   2.958   1.160   0.415 -1.2990 -0.1414 -1.4951
  531SOL    MW4 2172   2.952   1.245   0.433  0.1988 -0.1918 -0.6231
  532SOL     OW 2173   0.625   4.398   1.198  0.2912 -0.5901 -0.3631
  532SOL    HW2 2174   0.638   4.390   1.293  1.7642 -1.4455 -0.6026
  532SOL    HW3 2175   0.701   4.352   1.161  0.6599  1.2631 -1.9524
  532SOL    MW4 2176   0.637   4.391   1.206  0.5342 -0.4578 -0.6045
  533SOL     OW 2177   1.133   0.025   1.115 -0.0887 -0.0619 -0.1012
  533SOL    HW2 2178   1.117  -0.069   1.129 -1.9157  0.3564  0.8908
  533SOL    HW3 2179   1.137   0.034   1.020 -0.7360 -1.0291 -0.2359
  533SOL    MW4 2180   1.131   0.013   1.104 -0.4153 -0.1340  0.0120
  534SOL     OW 2181   0.895   0.128   1.198  0.3983  0.0012 -0.4077
  534SOL    HW2 2182   0.887   0.122   1.293  0.5504  0.4337 -0.3670
  534SOL    HW3 2183   0.974   0.078   1.178  1.1753  1.1087 -0.1567
  534SOL    MW4 2184   0.904   0.121   1.208  0.5208  0.2044 -0.3693
  535SOL     OW 2185   0.895   0.378   1.094 -0.4605  0.0856  0.1910
  535SOL    HW2 2186   0.895   0.285   1.116  1.3901  0.1515  0.5562
  535SOL    HW3 2187   0.831   0.416   1.153 -0.1775 -0.7417  1.0506
  535SOL    MW4 2188   0.887   0.370   1.104 -0.1789 -0.0149  0.3525
  536SOL     OW 2189   1.169   0.432   1.200  0.0922  0.1472  0.1881
  536SOL    HW2 2190   1.085   0.414   1.157  0.2187 -0.2441  0.0993
  536SOL    HW3 2191   1.149   0.433   1.293 -0.1956  1.0603  0.1222
  536SOL    MW4 2192   1.155   0.430   1.206  0.0709  0.2160  0.1677
  537SOL     OW 2193   1.137   0.726   1.130 -0.4360  0.3012 -0.0818
  537SOL    HW2 2194   1.161   0.727   1.037  1.4210 -0.2773  0.3926
  537SOL    HW3 2195   1.162   0.639   1.161 -0.9590  0.5256  0.9936
  537SOL    MW4 2196   1.143   0.715   1.122 -0.2600  0.2545  0.1227
  538SOL     OW 2197   0.925   0.881   1.183 -0.4295  0.0606 -0.0454
  538SOL    HW2 2198   0.999   0.824   1.164  0.4057  0.5775  1.5297
  538SOL    HW3 2199   0.848   0.829   1.161  0.3624 -1.1283 -0.0421
  538SOL    MW4 2200   0.925   0.867   1.177 -0.2148 -0.0281  0.1628
  539SOL     OW 2201   2.266   0.894   0.802 -0.1133  0.2077 -0.0351
  539SOL    HW2 2202   2.288   0.884   0.709 -1.1226  1.1549 -0.3951
  539SOL    HW3 2203   2.256   0.989   0.814  1.0833  0.1757  1.3051
  539SOL    MW4 2204   2.268   0.905   0.791 -0.0889  0.3285  0.0942
  540SOL     OW 2205   1.158   1.298   1.235  0.3351 -0.4518 -0.6352
  540SOL    HW2 2206   1.144   1.284   1.328  0.3764 -0.1550 -0.5833
  540SOL    HW3 2207   1.219   1.229   1.209 -0.3985 -1.0975 -0.6385
  540SOL    MW4 2208   1.164   1.287   1.244  0.2439 -0.4979 -0.6287
  541SOL     OW 2209   1.111   1.539   1.129 -0.0456 -0.2338  0.0902
  541SOL    HW2 2210   1.098   1.543   1.034 -1.5627 -0.2909  0.2870
  541SOL    HW3 2211   1.122   1.446   1.148 -0.8635 -0.3282  0.1098
  541SOL    MW4 2212   1.111   1.528   1.119 -0.3537 -0.2538  0.1187
  542SOL     OW 2213   0.930   1.927   1.123 -0.7899  0.1233  0.5101
  542SOL    HW2 2214   1.001   1.984   1.153 -0.4107 -0.8813  1.5253
  542SOL    HW3 2215   0.850   1.969   1.155 -0.5776  0.5923  0.4327
  542SOL    MW4 2216   0.929   1.940   1.131 -0.7120  0.0526  0.6338
  543SOL     OW 2217   2.987   3.077   0.872 -0.2381  0.2368 -0.5037
  543SOL    HW2 2218   2.908   3.122   0.842 -0.3695  0.0601 -0.4212
  543SOL    HW3 2219   3.059   3.126   0.831 -0.3695  0.6998 -0.1915
  543SOL    MW4 2220   2.986   3.090   0.863 -0.2728  0.2747 -0.4516
  544SOL     OW 2221   1.121   2.090   1.243 -0.3024 -0.1399  0.2358
  544SOL    HW2 2222   1.123   2.180   1.211 -2.2458 -0.8958 -2.1208
  544SOL    HW3 2223   1.113   2.099   1.338  0.8186  2.1469  0.1589
  544SOL    MW4 2224   1.120   2.103   1.252 -0.4109  0.0620 -0.0852
  545SOL     OW 2225   1.159   2.356   1.103 -0.6559 -0.4104  0.0691
  545SOL    HW2 2226   1.094   2.405   1.153 -0.7928 -0.6558  0.1332
  545SOL    HW3 2227   1.242   2.398   1.125 -0.9773  0.9580 -1.3055
  545SOL    MW4 2228   1.162   2.368   1.113 -0.7163 -0.2620 -0.1037
  546SOL     OW 2229   0.927   2.460   1.224 -0.6021  0.2760  0.2000
  546SOL    HW2 2230   0.914   2.460   1.319 -0.8831 -0.4181  0.1662
  546SOL    HW3 2231   0.856   2.405   1.190 -0.1093 -0.0254 -0.3534
  546SOL    MW4 2232   0.916   2.453   1.232 -0.5741  0.1445  0.1224
  547SOL     OW 2233   1.174   2.848   1.257 -0.4431  0.1848 -0.0108
  547SOL    HW2 2234   1.169   2.850   1.353  0.2678  0.2088  0.0334
  547SOL    HW3 2235   1.091   2.810   1.229  0.2519 -1.9455  0.7224
  547SOL    MW4 2236   1.163   2.843   1.266 -0.2577 -0.0932  0.0919
  548SOL     OW 2237   1.148   3.089   1.104 -0.5601 -0.0369  0.2133
  548SOL    HW2 2238   1.147   3.003   1.146 -0.4397 -0.0996  0.0885
  548SOL    HW3 2239   1.156   3.070   1.011  0.7716  0.1369  0.2746
  548SOL    MW4 2240   1.149   3.075   1.097 -0.3685 -0.0224  0.2049
  549SOL     OW 2241   0.917   3.208   1.203  0.0062 -0.0263  0.0217
  549SOL    HW2 2242   0.995   3.162   1.173 -0.7828 -1.3609 -0.0412
  549SOL    HW3 2243   0.934   3.300   1.182  1.5149 -0.3116 -0.0580
  549SOL    MW4 2244   0.929   3.214   1.196  0.1011 -0.2403  0.0029
  550SOL     OW 2245   0.948   2.746   1.163 -0.2486 -0.3830  0.2906
  550SOL    HW2 2246   0.873   2.785   1.207  0.3791  0.3495  0.7252
  550SOL    HW3 2247   0.944   2.653   1.185 -0.9337 -0.3234  0.4314
  550SOL    MW4 2248   0.938   2.739   1.172 -0.2561 -0.2785  0.3666
  551SOL     OW 2249   0.955   3.477   1.125 -0.3573 -0.1218  0.4439
  551SOL    HW2 2250   0.967   3.478   1.030 -2.2705 -0.2669  0.1930
  551SOL    HW3 2251   1.038   3.511   1.159  0.8263 -1.2869 -1.2085
  551SOL    MW4 2252   0.968   3.482   1.117 -0.4536 -0.2947  0.1928
  552SOL     OW 2253   1.172   3.601   1.235 -0.2198  0.1540 -0.4067
  552SOL    HW2 2254   1.151   3.678   1.181  0.3778 -0.4916 -1.5889
  552SOL    HW3 2255   1.250   3.564   1.194  0.2446 -0.3611  0.9210
  552SOL    MW4 2256   1.180   3.606   1.222 -0.0796  0.0010 -0.3873
  553SOL     OW 2257   1.137   3.847   1.082  0.2053 -0.1756  0.3526
  553SOL    HW2 2258   1.054   3.889   1.104  1.3387  1.9851  0.6431
  553SOL    HW3 2259   1.140   3.847   0.986 -0.3788 -0.7822  0.3314
  553SOL    MW4 2260   1.126   3.852   1.072  0.2779  0.0296  0.3883
  554SOL     OW 2261   0.916   4.005   1.184  0.0301  0.4591  0.0361
  554SOL    HW2 2262   0.921   3.996   1.279  2.1259 -1.0095 -0.1777
  554SOL    HW3 2263   0.838   3.956   1.159 -0.0073  0.0757  0.9045
  554SOL    MW4 2264   0.906   3.997   1.193  0.3017  0.2151  0.1223
  555SOL     OW 2265   0.867   4.288   1.101 -0.2354  0.1915 -0.1401
  555SOL    HW2 2266   0.901   4.200   1.114  2.2233  1.1487  0.2647
  555SOL    HW3 2267   0.875   4.303   1.006  1.0034  0.5961  0.0188
  555SOL    MW4 2268   0.873   4.279   1.090  0.2525  0.3715 -0.0656
  556SOL     OW 2269   1.103   4.442   1.207 -0.2631  0.6192 -0.3073
  556SOL    HW2 2270   1.101   4.432   1.302 -0.9050  2.9442 -0.0451
  556SOL    HW3 2271   1.026   4.395   1.176 -0.4579  0.4837  0.3884
  556SOL    MW4 2272   1.093   4.435   1.215 -0.3735  0.9084 -0.1808
  557SOL     OW 2273   1.800   0.077   1.218  0.3911  0.3353  0.0218
  557SOL    HW2 2274   1.788   0.167   1.185 -0.1989  0.9200  1.7547
  557SOL    HW3 2275   1.728   0.028   1.178  0.4916  0.7262 -0.6457
  557SOL    MW4 2276   1.789   0.083   1.208  0.3265  0.4640  0.1624
  558SOL     OW 2277   1.383   0.095   1.247 -0.0383 -0.0347  0.3561
  558SOL    HW2 2278   1.444   0.031   1.209 -0.9129 -0.3083 -0.6179
  558SOL    HW3 2279   1.299   0.077   1.204 -0.8826  0.1494  1.8881
  558SOL    MW4 2280   1.380   0.084   1.236 -0.2650 -0.0465  0.4297
  559SOL     OW 2281   1.390   0.331   1.097 -0.0442  0.2424 -0.3416
  559SOL    HW2 2282   1.399   0.251   1.149  1.0098  0.7996  0.3419
  559SOL    HW3 2283   1.311   0.373   1.130 -0.6058 -0.5034 -0.7028
  559SOL    MW4 2284   1.381   0.326   1.108  0.0205  0.2176 -0.2991
  560SOL     OW 2285   1.562   0.475   1.255  0.3598  0.0080  0.4796
  560SOL    HW2 2286   1.501   0.425   1.201  1.3275  0.8401 -1.4182
  560SOL    HW3 2287   1.567   0.561   1.214  3.0206 -0.1387  0.3854
  560SOL    MW4 2288   1.555   0.480   1.243  0.8385  0.0984  0.2170
  561SOL     OW 2289   1.549   0.718   1.117  0.0896  0.3997 -0.2937
  561SOL    HW2 2290   1.629   0.766   1.140  0.9158 -1.5368  1.0258
  561SOL    HW3 2291   1.557   0.704   1.023  1.2649  0.3136 -0.1990
  561SOL    MW4 2292   1.561   0.723   1.108  0.3537  0.1329 -0.1072
  562SOL     OW 2293   1.344   0.867   1.222 -0.5562 -0.1049 -0.3748
  562SOL    HW2 2294   1.417   0.815   1.189 -0.0429  0.0189  0.5382
  562SOL    HW3 2295   1.266   0.828   1.182 -0.0072 -0.3743 -1.1845
  562SOL    MW4 2296   1.343   0.855   1.212 -0.4160 -0.1242 -0.3613
  563SOL     OW 2297   1.345   1.133   1.117 -0.1729  0.0500  0.3941
  563SOL    HW2 2298   1.342   1.042   1.147 -0.7382 -0.2528 -0.5689
  563SOL    HW3 2299   1.422   1.170   1.160  0.4092 -1.0527  0.3040
  563SOL    MW4 2300   1.355   1.126   1.127 -0.1707 -0.1355  0.2551
  564SOL     OW 2301   1.563   1.256   1.226  0.2146 -0.0318 -0.0098
  564SOL    HW2 2302   1.644   1.221   1.188  1.3154  1.2478  1.0977
  564SOL    HW3 2303   1.578   1.252   1.321 -1.7641 -1.4833  0.2859
  564SOL    MW4 2304   1.576   1.251   1.233  0.0987 -0.0544  0.1752
  565SOL     OW 2305   1.561   1.542   1.153 -0.2265 -0.2713  0.0502
  565SOL    HW2 2306   1.633   1.579   1.203 -0.3305 -1.1234  0.8396
  565SOL    HW3 2307   1.555   1.451   1.182 -0.6321 -0.6355 -1.1207
  565SOL    MW4 2308   1.570   1.535   1.163 -0.2937 -0.4318 -0.0001
  566SOL     OW 2309   1.325   1.681   1.248 -0.1901 -0.2069  0.0942
  566SOL    HW2 2310   1.404   1.632   1.225  0.1912 -1.3365  3.4709
  566SOL    HW3 2311   1.254   1.635   1.205  0.9738  1.1782 -3.4949
  566SOL    MW4 2312   1.326   1.669   1.239  0.0137 -0.1731  0.0662
  567SOL     OW 2313   1.346   1.953   1.184 -0.0812 -0.0727  0.2063
  567SOL    HW2 2314   1.329   1.862   1.210 -0.6968  0.4051  1.5273
  567SOL    HW3 2315   1.267   2.000   1.209  0.0235  0.7458 -0.9681
  567SOL    MW4 2316   1.334   1.947   1.191 -0.1487  0.0982  0.2255
  568SOL     OW 2317   1.588   2.044   1.235 -0.3621 -0.0391 -0.2108
  568SOL    HW2 2318   1.586   2.134   1.201 -0.0468 -0.2614 -0.8307
  568SOL    HW3 2319   1.499   2.012   1.223 -0.6346  0.4101  0.6102
  568SOL    MW4 2320   1.576   2.052   1.229 -0.3566 -0.0093 -0.1841
  569SOL     OW 2321   1.595   2.304   1.124  0.5780  1.1532 -0.3589
  569SOL    HW2 2322   1.523   2.355   1.161  0.2719  1.4856 -1.4099
  569SOL    HW3 2323   1.582   2.308   1.029 -0.3793 -2.2310 -0.4337
  569SOL    MW4 2324   1.584   2.311   1.116  0.4113  0.7505 -0.5075
  570SOL     OW 2325   0.944   3.549   0.330  0.0320  0.2221 -0.3252
  570SOL    HW2 2326   0.881   3.569   0.260  0.4418 -1.3705 -1.1890
  570SOL    HW3 2327   1.002   3.625   0.332 -2.3903  2.1062  1.0692
  570SOL    MW4 2328   0.943   3.561   0.321 -0.2336  0.2608 -0.2552
  571SOL     OW 2329   1.389   2.474   1.186  0.6219 -0.3159  0.1429
  571SOL    HW2 2330   1.386   2.491   1.280 -0.2298 -0.1208  0.0841
  571SOL    HW3 2331   1.380   2.560   1.145 -0.2735 -0.5226 -0.1206
  571SOL    MW4 2332   1.387   2.488   1.193  0.3915 -0.3176  0.1003
  572SOL     OW 2333   1.627   2.850   1.223 -0.3165  0.1007  0.2542
  572SOL    HW2 2334   1.682   2.791   1.172 -0.6406  0.2717 -0.2985
  572SOL    HW3 2335   1.615   2.926   1.167 -1.3406 -0.0473  0.2634
  572SOL    MW4 2336   1.632   2.852   1.209 -0.4944  0.1040  0.1824
  573SOL     OW 2337   1.589   3.103   1.070 -0.5887 -0.1834  0.2043
  573SOL    HW2 2338   1.662   3.145   1.116 -0.9869 -0.1866  0.8514
  573SOL    HW3 2339   1.514   3.116   1.129 -0.7712 -1.5562  0.2754
  573SOL    MW4 2340   1.589   3.111   1.084 -0.6652 -0.3645  0.2991
  574SOL     OW 2341   1.375   3.190   1.224 -0.2746 -0.1435  0.0506
  574SOL    HW2 2342   1.357   3.180   1.317 -1.1025 -0.1757 -0.1096
  574SOL    HW3 2343   1.290   3.182   1.182 -0.1446  1.6225 -0.5761
  574SOL    MW4 2344   1.362   3.188   1.230 -0.3667  0.0856 -0.0532
  575SOL     OW 2345   0.555   0.612   0.398  0.2486  0.3946  0.1470
  575SOL    HW2 2346   0.475   0.664   0.401  0.4023  0.6424 -0.0959
  575SOL    HW3 2347   0.527   0.525   0.368 -0.0444  0.2657  0.7849
  575SOL    MW4 2348   0.541   0.607   0.395  0.2303  0.4103  0.1991
  576SOL     OW 2349   1.376   3.441   1.094 -0.2378 -0.0347 -0.5551
  576SOL    HW2 2350   1.381   3.427   0.999 -1.4060 -1.1547 -0.4542
  576SOL    HW3 2351   1.404   3.358   1.132 -0.6198  0.1293  0.0871
  576SOL    MW4 2352   1.381   3.428   1.087 -0.4424 -0.1607 -0.4570
  577SOL     OW 2353   1.348   3.995   1.184  0.0961  0.4027 -0.5052
  577SOL    HW2 2354   1.273   3.941   1.158  0.4720 -0.4385  0.1463
  577SOL    HW3 2355   1.339   4.075   1.131 -0.9186  0.0552 -0.8731
  577SOL    MW4 2356   1.337   3.999   1.173  0.0117  0.2463 -0.4678
  578SOL     OW 2357   1.375   3.984   1.474 -0.1148 -0.7206 -0.3835
  578SOL    HW2 2358   1.382   4.065   1.525 -0.1595 -0.8272 -0.2099
  578SOL    HW3 2359   1.348   4.013   1.387 -0.9523 -0.6196 -0.0956
  578SOL    MW4 2360   1.372   3.999   1.469 -0.2311 -0.7210 -0.3227
  579SOL     OW 2361   1.164   3.057   0.830  0.0036 -0.2161 -0.2156
  579SOL    HW2 2362   1.239   3.107   0.798 -0.4306  0.2285 -0.5427
  579SOL    HW3 2363   1.165   2.976   0.780  0.5587 -0.4246  0.1334
  579SOL    MW4 2364   1.174   3.053   0.819  0.0196 -0.1850 -0.2127
  580SOL     OW 2365   1.561   4.331   1.162  0.1600 -0.0917  0.1450
  580SOL    HW2 2366   1.558   4.332   1.258 -0.2585  0.6599  0.1236
  580SOL    HW3 2367   1.647   4.295   1.142  0.5360  0.4187  0.8089
  580SOL    MW4 2368   1.572   4.326   1.172  0.1545  0.0749  0.2296
  581SOL     OW 2369   2.036   4.666   1.142  0.4712 -0.0381  0.3414
  581SOL    HW2 2370   2.048   4.572   1.153 -0.1805  0.0038  1.4094
  581SOL    HW3 2371   1.948   4.684   1.173  0.9247  1.0678  1.0390
  581SOL    MW4 2372   2.026   4.656   1.148  0.4451  0.1135  0.5745
  582SOL     OW 2373   1.773   0.330   1.091 -0.2550  0.0475  0.1949
  582SOL    HW2 2374   1.771   0.331   0.995 -0.2286 -0.7088  0.1826
  582SOL    HW3 2375   1.694   0.377   1.117 -0.3181  0.1613 -0.1937
  582SOL    MW4 2376   1.763   0.336   1.082 -0.2599 -0.0373  0.1422
  583SOL     OW 2377   1.841   0.346   0.818 -0.1728  0.1963 -0.0082
  583SOL    HW2 2378   1.832   0.263   0.770  0.2247 -0.8015  1.6117
  583SOL    HW3 2379   1.924   0.383   0.786  0.1726 -0.5408  0.0181
  583SOL    MW4 2380   1.851   0.340   0.807 -0.0747 -0.0326  0.2090
  584SOL     OW 2381   2.006   0.469   1.178  0.0936 -0.1139  0.4873
  584SOL    HW2 2382   1.990   0.459   1.272  0.7339  0.1671  0.6297
  584SOL    HW3 2383   1.933   0.423   1.136 -1.3676  1.5678  1.1042
  584SOL    MW4 2384   1.994   0.462   1.185 -0.0147  0.1450  0.5876
  585SOL     OW 2385   2.012   0.748   1.105  0.3305 -0.1737  0.0925
  585SOL    HW2 2386   2.002   0.660   1.141 -2.0699 -0.0165 -0.0985
  585SOL    HW3 2387   2.014   0.734   1.010 -0.3598  0.0056  0.0526
  585SOL    MW4 2388   2.011   0.734   1.097 -0.0775 -0.1293  0.0620
  586SOL     OW 2389   1.764   0.866   1.169 -0.1381 -0.2721 -0.3176
  586SOL    HW2 2390   1.768   0.845   1.263 -0.3756 -0.2528 -0.3029
  586SOL    HW3 2391   1.849   0.840   1.135  0.2113  0.3669  0.0431
  586SOL    MW4 2392   1.776   0.860   1.177 -0.1234 -0.1852 -0.2681
  587SOL     OW 2393   1.794   1.131   1.113 -0.5146  0.0711 -0.2004
  587SOL    HW2 2394   1.792   1.039   1.139  0.2990 -0.0805 -0.6351
  587SOL    HW3 2395   1.784   1.129   1.018 -1.2940  0.4858 -0.1326
  587SOL    MW4 2396   1.792   1.119   1.104 -0.5101  0.1059 -0.2488
  588SOL     OW 2397   2.004   1.271   1.238 -0.1327  0.4153  0.1284
  588SOL    HW2 2398   2.072   1.222   1.192 -0.1182  0.0667  0.5113
  588SOL    HW3 2399   1.922   1.240   1.200 -0.1726 -0.6095  1.0231
  588SOL    MW4 2400   2.002   1.260   1.227 -0.1359  0.2341  0.2968
  589SOL     OW 2401   2.035   1.531   1.119  0.2743  0.0557  0.5568
  589SOL    HW2 2402   2.030   1.445   1.161 -0.4272  0.5158  1.4396
  589SOL    HW3 2403   2.039   1.512   1.025 -0.0489 -0.9320  0.7348
  589SOL    MW4 2404   2.035   1.517   1.112  0.1392 -0.0141  0.6967
  590SOL     OW 2405   1.831   1.646   1.247 -0.1041  0.0884  0.3077
  590SOL    HW2 2406   1.845   1.732   1.207  0.0186 -0.1024 -0.0601
  590SOL    HW3 2407   1.890   1.587   1.200 -1.4890 -0.5456 -0.6694
  590SOL    MW4 2408   1.840   1.650   1.236 -0.2707 -0.0205  0.1302
  591SOL     OW 2409   1.815   1.903   1.135  0.1586 -0.0193  0.2711
  591SOL    HW2 2410   1.739   1.955   1.162  0.5147  0.3836  0.5093
  591SOL    HW3 2411   1.821   1.917   1.041  0.1003  0.1658  0.2938
  591SOL    MW4 2412   1.806   1.912   1.126  0.1979  0.0583  0.3054
  592SOL     OW 2413   2.033   2.044   1.236  0.0388  0.0598 -0.2717
  592SOL    HW2 2414   2.019   2.043   1.331  2.0044  1.2098  0.0541
  592SOL    HW3 2415   1.962   1.990   1.201 -0.6564 -0.4605  1.8547
  592SOL    MW4 2416   2.022   2.037   1.244  0.2065  0.1426  0.0520
  593SOL     OW 2417   2.057   2.297   1.113 -0.0253 -0.3949 -0.1943
  593SOL    HW2 2418   2.139   2.333   1.148  0.5763 -1.0788 -0.8841
  593SOL    HW3 2419   2.047   2.213   1.157 -0.7106 -0.0219  0.3777
  593SOL    MW4 2420   2.067   2.291   1.124 -0.0360 -0.4358 -0.2097
  594SOL     OW 2421   1.822   2.429   1.224 -0.5352 -0.6365  0.1086
  594SOL    HW2 2422   1.747   2.381   1.189 -0.0946 -1.6974  0.6178
  594SOL    HW3 2423   1.899   2.387   1.185 -0.2115  0.7425 -0.7775
  594SOL    MW4 2424   1.822   2.417   1.214 -0.4343 -0.5946  0.0590
  595SOL     OW 2425   1.816   2.678   1.106  0.2332  0.0161 -0.2471
  595SOL    HW2 2426   1.813   2.594   1.151 -2.3212 -0.0025 -0.4007
  595SOL    HW3 2427   1.822   2.655   1.013  0.3368  0.0106 -0.2390
  595SOL    MW4 2428   1.816   2.664   1.100 -0.0901  0.0131 -0.2663
  596SOL     OW 2429   2.003   2.833   1.266 -0.2144  0.2385 -0.4448
  596SOL    HW2 2430   1.989   2.918   1.224  1.5219  0.2648 -1.0037
  596SOL    HW3 2431   1.938   2.775   1.226 -2.3622  1.6079  0.9428
  596SOL    MW4 2432   1.993   2.837   1.255 -0.2686  0.4225 -0.3353
  597SOL     OW 2433   1.812   3.215   1.185  0.0636 -0.1695  0.5134
  597SOL    HW2 2434   1.812   3.221   1.281 -2.5674  0.4194  0.5189
  597SOL    HW3 2435   1.812   3.306   1.156  0.0963 -0.3462 -0.0339
  597SOL    MW4 2436   1.812   3.228   1.194 -0.2792 -0.1152  0.4419
  598SOL     OW 2437   1.811   3.477   1.099 -0.1237  0.5268  0.2648
  598SOL    HW2 2438   1.739   3.530   1.132  1.0138  1.6512  0.9635
  598SOL    HW3 2439   1.890   3.522   1.129  0.8852 -0.1570 -1.3274
  598SOL    MW4 2440   1.812   3.490   1.107  0.1595  0.5848  0.1470
  599SOL     OW 2441   4.297   4.375   0.769 -0.9956  0.2599  0.0108
  599SOL    HW2 2442   4.304   4.463   0.804 -0.7346  0.5582 -0.7703
  599SOL    HW3 2443   4.301   4.387   0.674  1.0537 -0.7526 -0.0750
  599SOL    MW4 2444   4.299   4.388   0.761 -0.6909  0.1659 -0.1037
  600SOL     OW 2445   2.036   3.589   1.182 -0.2477 -0.1599 -0.4014
  600SOL    HW2 2446   2.040   3.608   1.276 -0.8833  0.5532 -0.5116
  600SOL    HW3 2447   2.105   3.524   1.168  0.2175  0.1310  0.4641
  600SOL    MW4 2448   2.045   3.583   1.193 -0.2697 -0.0274 -0.3017
  601SOL     OW 2449   2.046   3.818   1.035  0.1820 -0.0606  0.5426
  601SOL    HW2 2450   1.973   3.871   1.066 -0.4296 -0.6363  0.1104
  601SOL    HW3 2451   2.030   3.731   1.074  1.3259  0.1452  1.4856
  601SOL    MW4 2452   2.034   3.813   1.045  0.2522 -0.1092  0.6099
  602SOL     OW 2453   1.563   3.854   1.090  0.1926  0.0638 -0.1343
  602SOL    HW2 2454   1.485   3.888   1.134 -0.7636 -1.0469 -0.9295
  602SOL    HW3 2455   1.546   3.870   0.997  2.1261  2.2666 -0.1574
  602SOL    MW4 2456   1.550   3.861   1.083  0.3214  0.2079 -0.2422
  603SOL     OW 2457   1.821   3.946   1.167 -0.0398  0.5905 -0.0463
  603SOL    HW2 2458   1.828   3.963   1.261 -0.0315  0.3349 -0.0000
  603SOL    HW3 2459   1.732   3.913   1.156  0.3555 -0.5386  0.0558
  603SOL    MW4 2460   1.810   3.944   1.178  0.0135  0.4077 -0.0267
  604SOL     OW 2461   2.028   4.391   1.173  0.1611  0.5936 -0.1765
  604SOL    HW2 2462   2.029   4.365   1.265  0.2618 -1.3921 -0.7156
  604SOL    HW3 2463   1.945   4.358   1.140  0.7143  0.1496 -1.1251
  604SOL    MW4 2464   2.017   4.384   1.181  0.2477  0.2732 -0.3728
  605SOL     OW 2465   2.473   4.619   1.135 -0.3546 -0.2778  0.0399
  605SOL    HW2 2466   2.549   4.666   1.167 -0.0012 -0.9987  0.2700
  605SOL    HW3 2467   2.398   4.673   1.160 -0.0973 -0.8669  2.1619
  605SOL    MW4 2468   2.473   4.632   1.142 -0.2742 -0.4501  0.3502
  606SOL     OW 2469   2.266   0.119   1.232  0.3703  0.4434 -0.1423
  606SOL    HW2 2470   2.262   0.207   1.193 -0.3837 -0.5426 -2.3300
  606SOL    HW3 2471   2.186   0.076   1.203  0.6770 -0.9585  1.0277
  606SOL    MW4 2472   2.255   0.125   1.223  0.3114  0.1284 -0.2767
  607SOL     OW 2473   2.268   0.384   1.124 -0.1821 -0.6230 -0.0759
  607SOL    HW2 2474   2.180   0.420   1.133 -0.0694 -0.0803 -1.0296
  607SOL    HW3 2475   2.282   0.378   1.030  1.0988  0.0389  0.0596
  607SOL    MW4 2476   2.258   0.388   1.113  0.0017 -0.4641 -0.1839
  608SOL     OW 2477   2.518   0.482   1.216 -0.1016 -0.0165 -0.0313
  608SOL    HW2 2478   2.498   0.473   1.309  0.6314  0.8162  0.2093
  608SOL    HW3 2479   2.438   0.454   1.171  0.1046 -2.0158  0.8116
  608SOL    MW4 2480   2.505   0.477   1.222  0.0224 -0.1704  0.1116
  609SOL     OW 2481   2.493   2.836   0.466  0.4762  0.4282  0.9733
  609SOL    HW2 2482   2.509   2.822   0.559  0.2863 -0.5798  0.8571
  609SOL    HW3 2483   2.571   2.802   0.422 -0.6137 -1.7256  0.6016
  609SOL    MW4 2484   2.506   2.830   0.472  0.3068  0.0110  0.9089
  610SOL     OW 2485   2.229   0.881   1.222  0.3340 -0.7483 -0.7948
  610SOL    HW2 2486   2.303   0.829   1.189  0.4162 -0.2183 -1.4616
  610SOL    HW3 2487   2.154   0.849   1.172  0.3395 -0.4081 -1.0211
  610SOL    MW4 2488   2.229   0.870   1.211  0.3455 -0.6335 -0.9125
  611SOL     OW 2489   2.213   1.147   1.118  0.0662 -0.4377 -0.6688
  611SOL    HW2 2490   2.291   1.197   1.143 -0.1554 -0.0447 -0.7535
  611SOL    HW3 2491   2.227   1.060   1.156  0.3422 -0.2366 -0.3030
  611SOL    MW4 2492   2.225   1.142   1.127  0.0737 -0.3594 -0.6318
  612SOL     OW 2493   2.433   1.274   1.197  0.0779 -0.7650  0.2827
  612SOL    HW2 2494   2.519   1.234   1.184  0.2966  0.0951 -1.0302
  612SOL    HW3 2495   2.444   1.365   1.169 -1.5705 -0.9733 -1.1765
  612SOL    MW4 2496   2.446   1.280   1.191 -0.1106 -0.6790 -0.0831
  613SOL     OW 2497   0.510   3.990   0.743  0.0989 -0.0604 -0.1925
  613SOL    HW2 2498   0.449   3.925   0.778  0.3368 -0.4412 -0.4787
  613SOL    HW3 2499   0.596   3.955   0.762  0.2437  0.8472  0.8953
  613SOL    MW4 2500   0.513   3.977   0.750  0.1494  0.0091 -0.0867
  614SOL     OW 2501   2.258   1.667   1.199 -0.4788 -0.0649  0.3767
  614SOL    HW2 2502   2.244   1.749   1.152 -0.0373 -0.9126 -1.2676
  614SOL    HW3 2503   2.187   1.610   1.168  0.6685 -1.1040 -0.4046
  614SOL    MW4 2504   2.247   1.670   1.188 -0.2689 -0.3138  0.0566
  615SOL     OW 2505   2.231   1.917   1.092 -0.0195 -0.3147 -0.1474
  615SOL    HW2 2506   2.171   1.956   1.156 -0.5333 -1.0571 -0.1586
  615SOL    HW3 2507   2.315   1.961   1.107 -0.5478  0.6825 -0.0781
  615SOL    MW4 2508   2.234   1.928   1.102 -0.1571 -0.2810 -0.1397
  616SOL     OW 2509   2.450   2.073   1.212 -0.3679  0.6910  0.4391
  616SOL    HW2 2510   2.521   2.024   1.172 -0.7348  0.2097  0.3719
  616SOL    HW3 2511   2.467   2.165   1.189 -0.6156  0.4176 -0.8875
  616SOL    MW4 2512   2.461   2.079   1.204 -0.4489  0.5913  0.2553
  617SOL     OW 2513   2.684   1.943   0.830  0.2511 -0.1080  1.0129
  617SOL    HW2 2514   2.705   1.852   0.807  0.4541  0.1855  0.0339
  617SOL    HW3 2515   2.613   1.967   0.771  0.1406  0.3442  1.3311
  617SOL    MW4 2516   2.678   1.934   0.819  0.2635 -0.0097  0.9257
  618SOL     OW 2517   2.285   2.430   1.213 -0.6248 -0.1785 -0.3156
  618SOL    HW2 2518   2.280   2.441   1.308 -2.2944 -0.3653 -0.3710
  618SOL    HW3 2519   2.276   2.519   1.178 -1.7928 -0.3042 -0.3504
  618SOL    MW4 2520   2.283   2.443   1.221 -0.9992 -0.2196 -0.3275
  619SOL     OW 2521   2.230   2.703   1.162 -0.2312  0.3387  0.0373
  619SOL    HW2 2522   2.231   2.722   1.068 -0.3585  1.1469  0.2010
  619SOL    HW3 2523   2.149   2.741   1.194 -0.2766 -0.0979  0.4446
  619SOL    MW4 2524   2.220   2.710   1.154 -0.2542  0.3877  0.1125
  620SOL     OW 2525   2.476   2.789   1.257 -0.2736 -0.4502  0.6670
  620SOL    HW2 2526   2.468   2.787   1.353  0.5875 -0.6324  0.7393
  620SOL    HW3 2527   2.386   2.778   1.226 -0.5763 -0.2883  1.4538
  620SOL    MW4 2528   2.463   2.787   1.266 -0.1998 -0.4528  0.7803
  621SOL     OW 2529   2.499   3.067   1.185 -0.1276  0.3480  0.2388
  621SOL    HW2 2530   2.491   2.978   1.220 -0.7015  0.1507 -0.3828
  621SOL    HW3 2531   2.412   3.105   1.196 -0.1448  0.4942 -0.3853
  621SOL    MW4 2532   2.487   3.060   1.191 -0.2055  0.3414  0.0745
  622SOL     OW 2533   2.256   3.199   1.213  0.6324 -0.0477  0.0154
  622SOL    HW2 2534   2.255   3.280   1.161  0.0039  0.8477  1.4020
  622SOL    HW3 2535   2.170   3.160   1.198  0.3212  0.3878  0.6416
  622SOL    MW4 2536   2.244   3.205   1.204  0.5083  0.1278  0.2810
  623SOL     OW 2537   2.272   3.449   1.088 -0.1980  0.2408  0.2306
  623SOL    HW2 2538   2.352   3.490   1.122 -0.8473  1.5633  0.2104
  623SOL    HW3 2539   2.285   3.450   0.993 -0.9315  1.9761  0.1265
  623SOL    MW4 2540   2.285   3.455   1.080 -0.3805  0.6442  0.2142
  624SOL     OW 2541   2.741   3.483   1.081  0.2742  0.2109 -0.8312
  624SOL    HW2 2542   2.661   3.527   1.109 -0.0741 -0.4325 -0.8029
  624SOL    HW3 2543   2.737   3.397   1.123  1.7687  0.7512  0.4745
  624SOL    MW4 2544   2.729   3.478   1.090  0.4256  0.1972 -0.6552
  625SOL     OW 2545   2.938   3.831   1.127  0.2437 -0.2384 -0.0983
  625SOL    HW2 2546   2.971   3.746   1.157  0.6854 -0.1374 -0.2920
  625SOL    HW3 2547   3.013   3.890   1.135  0.7487 -0.4901 -2.5976
  625SOL    MW4 2548   2.952   3.828   1.132  0.3686 -0.2582 -0.4536
  626SOL     OW 2549   2.259   4.006   1.162 -0.1432 -0.1463 -0.2094
  626SOL    HW2 2550   2.242   4.092   1.122 -0.3334 -0.8238 -1.6058
  626SOL    HW3 2551   2.176   3.960   1.155  0.4804 -1.1454 -1.2595
  626SOL    MW4 2552   2.246   4.011   1.156 -0.0858 -0.3676 -0.5320
  627SOL     OW 2553   2.242   4.264   1.059  0.3606 -0.2597 -0.2171
  627SOL    HW2 2554   2.228   4.251   0.966  1.2311 -0.5296 -0.3119
  627SOL    HW3 2555   2.170   4.320   1.087  0.7350  0.7492 -1.2689
  627SOL    MW4 2556   2.231   4.269   1.051  0.5250 -0.1626 -0.3684
  628SOL     OW 2557   2.480   4.336   1.157 -0.1338  0.4256  0.3121
  628SOL    HW2 2558   2.404   4.301   1.111  1.1679 -0.5529 -1.1407
  628SOL    HW3 2559   2.478   4.430   1.138  0.1853  0.0906 -1.4629
  628SOL    MW4 2560   2.469   4.344   1.148  0.0801  0.2522 -0.1137
  629SOL     OW 2561   2.944   4.641   1.153  0.4344  0.0741  0.0398
  629SOL    HW2 2562   2.929   4.641   1.059 -0.3807 -0.7538  0.1565
  629SOL    HW3 2563   2.949   4.548   1.176  0.8705  0.2762  0.7737
  629SOL    MW4 2564   2.943   4.629   1.144  0.3843 -0.0086  0.1521
  630SOL     OW 2565   2.703   0.086   1.244 -0.3810 -0.0030 -0.4704
  630SOL    HW2 2566   2.701   0.085   1.340  0.4019  1.7330 -0.4082
  630SOL    HW3 2567   2.782   0.037   1.221 -0.5334 -0.3641 -0.2196
  630SOL    MW4 2568   2.713   0.079   1.254 -0.2978  0.1784 -0.4289
  631SOL     OW 2569   2.742   0.357   1.140  0.1082  0.2260  0.0218
  631SOL    HW2 2570   2.725   0.273   1.182 -0.2220  0.5958  0.6330
  631SOL    HW3 2571   2.671   0.414   1.169 -0.3350  0.3845 -1.3372
  631SOL    MW4 2572   2.731   0.353   1.149  0.0064  0.2957 -0.0769
  632SOL     OW 2573   2.961   0.496   1.241  0.2889  0.1143 -0.2735
  632SOL    HW2 2574   2.945   0.587   1.215  0.8234  0.3863  0.3399
  632SOL    HW3 2575   2.890   0.447   1.200 -0.3471  0.8949 -0.1261
  632SOL    MW4 2576   2.949   0.502   1.232  0.2756  0.2531 -0.1732
  633SOL     OW 2577   3.580   0.908   0.472  0.5949 -0.0298  0.1162
  633SOL    HW2 2578   3.635   0.973   0.429 -0.0767  0.8267  0.5589
  633SOL    HW3 2579   3.635   0.829   0.475  1.5546  0.6292 -0.0395
  633SOL    MW4 2580   3.595   0.906   0.467  0.6328  0.1702  0.1541
  634SOL     OW 2581   2.488   0.767   1.165  0.1700  0.5561 -0.0149
  634SOL    HW2 2582   2.501   0.680   1.202 -0.6152 -0.7032 -2.5447
  634SOL    HW3 2583   2.559   0.820   1.202  1.0840 -1.3419  1.0130
  634SOL    MW4 2584   2.499   0.763   1.174  0.1869  0.1396 -0.2130
  635SOL     OW 2585   2.678   1.147   1.134  0.1797  0.4015 -0.0995
  635SOL    HW2 2586   2.760   1.189   1.162  0.4849  0.3987 -0.9619
  635SOL    HW3 2587   2.694   1.123   1.043 -0.0280 -1.5067  0.3539
  635SOL    MW4 2588   2.691   1.149   1.126  0.1924  0.1494 -0.1534
  636SOL     OW 2589   2.927   1.246   1.219 -0.5109 -0.2756  0.0628
  636SOL    HW2 2590   2.927   1.240   1.314 -1.4484 -0.8802  0.0254
  636SOL    HW3 2591   2.910   1.339   1.201 -2.8550 -0.6104  0.4648
  636SOL    MW4 2592   2.925   1.258   1.229 -0.9441 -0.3995  0.1109
  637SOL     OW 2593   2.914   1.506   1.123 -0.1560 -0.4958  0.0306
  637SOL    HW2 2594   2.986   1.564   1.150 -1.1112  0.6230  0.2319
  637SOL    HW3 2595   2.939   1.475   1.036  0.2169  0.5021 -0.2256
  637SOL    MW4 2596   2.927   1.510   1.115 -0.2329 -0.2166  0.0235
  638SOL     OW 2597   2.705   1.668   1.212  0.2217  0.3987 -0.0215
  638SOL    HW2 2598   2.777   1.620   1.170  1.1957 -0.4701  2.5212
  638SOL    HW3 2599   2.708   1.755   1.173  0.5142 -0.6182 -2.3662
  638SOL    MW4 2600   2.715   1.673   1.201  0.3889  0.1500  0.0045
  639SOL     OW 2601   2.480   1.526   1.112  0.4763  0.5020 -0.1559
  639SOL    HW2 2602   2.550   1.571   1.160  0.2897  0.8107 -0.1719
  639SOL    HW3 2603   2.400   1.571   1.139  0.4178  0.9398 -1.0754
  639SOL    MW4 2604   2.479   1.538   1.122  0.4437  0.6003 -0.2793
  640SOL     OW 2605   2.907   2.028   1.173  0.0049  0.4372  0.0157
  640SOL    HW2 2606   2.911   2.009   1.266  0.2023  1.0940  0.1449
  640SOL    HW3 2607   2.917   2.123   1.167 -0.2788  0.4325 -0.6543
  640SOL    MW4 2608   2.909   2.038   1.184 -0.0067  0.5231 -0.0557
  641SOL     OW 2609   2.951   2.299   1.150 -0.1241 -0.0268  0.9814
  641SOL    HW2 2610   3.027   2.357   1.158  1.4202 -1.9076  0.5357
  641SOL    HW3 2611   2.879   2.346   1.192  1.2839  1.8299  1.3489
  641SOL    MW4 2612   2.952   2.313   1.156  0.2656 -0.0298  0.9711
  642SOL     OW 2613   2.748   2.459   1.238 -0.7837 -0.0583 -0.2341
  642SOL    HW2 2614   2.728   2.459   1.331 -1.1528 -0.8620 -0.3021
  642SOL    HW3 2615   2.669   2.422   1.197 -0.1029 -0.9748 -0.7385
  642SOL    MW4 2616   2.735   2.454   1.245 -0.7427 -0.2851 -0.3095
  643SOL     OW 2617   2.701   2.713   1.142  0.2672  0.2128  0.2353
  643SOL    HW2 2618   2.621   2.742   1.185 -1.4004 -2.1894 -1.1262
  643SOL    HW3 2619   2.729   2.636   1.191  0.0003 -0.7858 -1.1604
  643SOL    MW4 2620   2.694   2.707   1.154  0.0119 -0.2360 -0.1285
  644SOL     OW 2621   2.929   2.841   1.197 -0.1002  0.3288  0.3510
  644SOL    HW2 2622   2.934   2.835   1.292  0.1374 -0.5932  0.2817
  644SOL    HW3 2623   2.839   2.816   1.176 -0.1418  0.4947  0.3271
  644SOL    MW4 2624   2.918   2.837   1.206 -0.0741  0.2289  0.3388
  645SOL     OW 2625   2.075   0.449   0.723 -0.0020  0.0054 -0.4137
  645SOL    HW2 2626   2.100   0.457   0.631 -1.0296  0.2505 -0.6868
  645SOL    HW3 2627   2.067   0.539   0.754  0.1005 -0.0747 -0.1513
  645SOL    MW4 2628   2.077   0.462   0.715 -0.1242  0.0272 -0.4151
  646SOL     OW 2629   1.351   1.916   0.893  0.3011 -0.1718 -0.1573
  646SOL    HW2 2630   1.344   1.924   0.988  0.0775  0.7017 -0.2448
  646SOL    HW3 2631   1.439   1.948   0.873  0.1150  0.2468 -0.3093
  646SOL    MW4 2632   1.362   1.921   0.903  0.2470 -0.0013 -0.1889
  647SOL     OW 2633   2.499   3.609   1.153 -0.5182  0.6339 -0.3565
  647SOL    HW2 2634   2.495   3.627   1.247  0.9058  0.6316 -0.2913
  647SOL    HW3 2635   2.492   3.694   1.111  0.4816  0.7934 -0.2021
  647SOL    MW4 2636   2.497   3.622   1.160 -0.1984  0.6547 -0.3276
  648SOL     OW 2637   2.984   3.579   1.223 -0.3496 -0.1258 -0.1630
  648SOL    HW2 2638   2.901   3.548   1.187 -1.0024  0.2103  1.0021
  648SOL    HW3 2639   3.049   3.517   1.191 -1.3851 -1.7554  0.7666
  648SOL    MW4 2640   2.981   3.567   1.214 -0.5724 -0.2964  0.1134
  649SOL     OW 2641   1.824   3.960   0.688 -0.9514  0.4151 -0.1175
  649SOL    HW2 2642   1.826   3.999   0.601  0.9291  1.2224  0.2622
  649SOL    HW3 2643   1.816   4.034   0.748  1.3495  0.1684  0.5465
  649SOL    MW4 2644   1.823   3.975   0.685 -0.3996  0.4892  0.0201
  650SOL     OW 2645   2.709   3.972   1.195 -0.2039 -0.1031  0.3595
  650SOL    HW2 2646   2.777   3.919   1.153  0.2624  1.2293 -0.5996
  650SOL    HW3 2647   2.627   3.939   1.160  0.0468 -0.6321  0.2711
  650SOL    MW4 2648   2.707   3.961   1.185 -0.1094  0.0026  0.2213
  651SOL     OW 2649   2.724   4.219   1.107  0.1484 -0.0713  0.1041
  651SOL    HW2 2650   2.734   4.137   1.154 -0.2436  0.7448  1.6306
  651SOL    HW3 2651   2.636   4.249   1.128  0.1077  0.4913 -0.8421
  651SOL    MW4 2652   2.714   4.212   1.116  0.0913  0.1101  0.1806
  652SOL     OW 2653   3.207   4.253   1.118  0.1082  0.1144 -0.6300
  652SOL    HW2 2654   3.281   4.310   1.135  0.1724 -0.3126  0.5881
  652SOL    HW3 2655   3.190   4.262   1.025  3.3299 -1.7248 -1.4652
  652SOL    MW4 2656   3.214   4.261   1.108  0.5419 -0.1845 -0.5795
  653SOL     OW 2657   3.423   4.391   1.211  0.0034 -0.2658  0.2308
  653SOL    HW2 2658   3.437   4.485   1.209  0.2889 -0.3189 -0.4837
  653SOL    HW3 2659   3.507   4.353   1.187  0.3972 -0.7551  2.2616
  653SOL    MW4 2660   3.436   4.398   1.208  0.0932 -0.3376  0.4045
  654SOL     OW 2661   3.200   0.098   1.209 -0.3533 -0.1827 -0.0784
  654SOL    HW2 2662   3.184   0.076   1.300 -1.9818 -0.1716 -0.3346
  654SOL    HW3 2663   3.129   0.055   1.161  0.1745  0.2468 -1.2755
  654SOL    MW4 2664   3.188   0.090   1.214 -0.4983 -0.1246 -0.2702
  655SOL     OW 2665   3.177   0.367   1.102  0.3753 -0.0817 -0.1136
  655SOL    HW2 2666   3.191   0.279   1.137  0.6488 -0.4399 -1.1090
  655SOL    HW3 2667   3.107   0.404   1.156 -0.2911 -1.2032 -0.2030
  655SOL    MW4 2668   3.170   0.361   1.114  0.3235 -0.2769 -0.2567
  656SOL     OW 2669   3.151   0.833   1.179  0.4234 -0.2657 -0.1019
  656SOL    HW2 2670   3.142   0.822   1.274 -0.4561 -0.3746 -0.1877
  656SOL    HW3 2671   3.170   0.926   1.167  0.3495 -0.2136  0.1738
  656SOL    MW4 2672   3.152   0.844   1.190  0.2975 -0.2732 -0.0768
  657SOL     OW 2673   2.891   0.766   1.144 -0.0133 -0.3186 -0.0853
  657SOL    HW2 2674   2.977   0.806   1.151  0.5029 -1.1822 -1.4444
  657SOL    HW3 2675   2.848   0.811   1.071 -0.7513  0.1522  0.6207
  657SOL    MW4 2676   2.896   0.778   1.136 -0.0427 -0.3704 -0.1714
  658SOL     OW 2677   2.517   3.061   0.874  0.1045 -0.4566  0.1774
  658SOL    HW2 2678   2.507   2.973   0.838 -0.9032 -0.3011  0.0359
  658SOL    HW3 2679   2.506   3.050   0.969 -1.1939 -0.3348  0.0526
  658SOL    MW4 2680   2.514   3.048   0.882 -0.1993 -0.4201  0.1423
  659SOL     OW 2681   0.202   3.989   0.191  0.0412 -0.1210 -0.1079
  659SOL    HW2 2682   0.255   4.058   0.231  0.9336 -1.3298  0.8226
  659SOL    HW3 2683   0.214   4.001   0.097  1.9927 -0.3807  0.0854
  659SOL    MW4 2684   0.210   4.000   0.184  0.4165 -0.3145  0.0404
  660SOL     OW 2685   3.330   1.267   1.243 -0.3061 -0.5552  0.1623
  660SOL    HW2 2686   3.320   1.270   1.338 -1.4369 -0.2479  0.0346
  660SOL    HW3 2687   3.338   1.358   1.216  0.8739 -0.6812  0.0404
  660SOL    MW4 2688   3.330   1.279   1.252 -0.2997 -0.5313  0.1295
  661SOL     OW 2689   3.374   1.511   1.144 -0.3992  0.0834  0.3840
  661SOL    HW2 2690   3.451   1.552   1.184  0.8352 -2.4103  0.6585
  661SOL    HW3 2691   3.302   1.571   1.164  0.9076  0.9155  2.8165
  661SOL    MW4 2692   3.375   1.525   1.152 -0.0639 -0.1358  0.7411
  662SOL     OW 2693   3.148   1.674   1.210  0.0273  0.1336 -0.1943
  662SOL    HW2 2694   3.142   1.686   1.305 -1.3998 -1.2083 -0.0868
  662SOL    HW3 2695   3.140   1.762   1.174 -0.4174  0.5560  0.9016
  662SOL    MW4 2696   3.146   1.687   1.218 -0.2198  0.0124 -0.0355
  663SOL     OW 2697   3.158   1.928   1.100 -0.1812  0.2535 -0.1184
  663SOL    HW2 2698   3.083   1.988   1.103  0.2370  0.7460  0.4023
  663SOL    HW3 2699   3.221   1.964   1.162 -0.0751 -0.9265  0.4836
  663SOL    MW4 2700   3.156   1.940   1.108 -0.1118  0.1628  0.0298
  664SOL     OW 2701   3.361   2.044   1.262  0.0333  0.0450  0.0170
  664SOL    HW2 2702   3.429   1.990   1.222 -0.4370 -0.6717  0.1629
  664SOL    HW3 2703   3.378   2.132   1.230  2.2727  0.2652  1.6586
  664SOL    MW4 2704   3.372   2.048   1.253  0.2666 -0.0205  0.2527
  665SOL     OW 2705   3.382   2.286   1.129  0.4830 -0.2144  0.1019
  665SOL    HW2 2706   3.458   2.331   1.166  1.5271 -0.9154 -1.1773
  665SOL    HW3 2707   3.307   2.340   1.156  1.5006  0.9461  0.6505
  665SOL    MW4 2708   3.382   2.299   1.138  0.7548 -0.1535  0.0055
  666SOL     OW 2709   3.155   2.467   1.214 -0.0714  0.7907  0.2555
  666SOL    HW2 2710   3.149   2.470   1.310  1.7244 -0.8498  0.4519
  666SOL    HW3 2711   3.147   2.559   1.187 -0.4402  1.2924  1.9794
  666SOL    MW4 2712   3.153   2.480   1.223  0.1171  0.6402  0.5089
  667SOL     OW 2713   3.147   2.707   1.075 -0.0955  0.1155  0.1307
  667SOL    HW2 2714   3.062   2.735   1.109  0.1656 -0.3935  1.2239
  667SOL    HW3 2715   3.139   2.717   0.980 -1.0415  0.9878  0.2923
  667SOL    MW4 2716   3.135   2.712   1.067 -0.1857  0.1636  0.2962
  668SOL     OW 2717   3.359   2.822   1.253  0.0428 -0.1188 -0.2867
  668SOL    HW2 2718   3.397   2.901   1.214  1.1185 -0.6967 -0.4343
  668SOL    HW3 2719   3.300   2.788   1.186  2.0044 -1.1975 -1.5378
  668SOL    MW4 2720   3.356   2.828   1.239  0.4435 -0.3374 -0.4714
  669SOL     OW 2721   3.448   3.066   1.153  0.2198 -0.5298  0.3943
  669SOL    HW2 2722   3.524   3.116   1.183 -0.4646 -0.4573  2.0731
  669SOL    HW3 2723   3.375   3.128   1.160  0.0092 -0.5491 -1.3519
  669SOL    MW4 2724   3.448   3.081   1.158  0.1018 -0.5229  0.3855
  670SOL     OW 2725   3.202   3.198   1.218  0.1515  0.2643 -0.0063
  670SOL    HW2 2726   3.200   3.285   1.179  0.4822  0.2559 -0.0443
  670SOL    HW3 2727   3.124   3.154   1.184 -0.1636  0.6403  0.2346
  670SOL    MW4 2728   3.192   3.204   1.208  0.1535  0.3128  0.0204
  671SOL     OW 2729   3.205   3.457   1.133  0.2277  0.3053  1.0004
  671SOL    HW2 2730   3.273   3.518   1.160  1.5742 -1.0429  0.7075
  671SOL    HW3 2731   3.214   3.453   1.037 -0.0779 -0.0998  0.9911
  671SOL    MW4 2732   3.215   3.465   1.124  0.3650  0.0739  0.9606
  672SOL     OW 2733   3.402   3.625   1.247 -0.0715 -0.1661 -0.4657
  672SOL    HW2 2734   3.422   3.618   1.340  0.1658  1.8183 -0.3523
  672SOL    HW3 2735   3.478   3.586   1.203  1.4277  2.0637  0.1040
  672SOL    MW4 2736   3.415   3.619   1.253  0.1576  0.3901 -0.3756
  673SOL     OW 2737   3.404   3.874   1.145 -0.0346 -0.0256 -0.2205
  673SOL    HW2 2738   3.414   3.787   1.183  1.6317  0.3912  0.3176
  673SOL    HW3 2739   3.333   3.914   1.197  0.4874 -0.3852  0.7889
  673SOL    MW4 2740   3.396   3.868   1.157  0.2542 -0.0179 -0.0165
  674SOL     OW 2741   3.167   3.983   1.217 -0.0001  0.0028  0.3162
  674SOL    HW2 2742   3.172   3.987   1.313 -0.0113 -0.3003  0.3295
  674SOL    HW3 2743   3.193   4.070   1.188 -2.7258  0.9918  0.6932
  674SOL    MW4 2744   3.171   3.995   1.226 -0.3612  0.0930  0.3678
  675SOL     OW 2745   2.945   4.381   1.239  0.0879 -0.0402 -0.1201
  675SOL    HW2 2746   3.025   4.345   1.200 -0.3533  0.1971 -1.2533
  675SOL    HW3 2747   2.874   4.336   1.194 -0.4272 -0.1877  0.8325
  675SOL    MW4 2748   2.947   4.370   1.228 -0.0381 -0.0281 -0.1440
  676SOL     OW 2749   3.853   4.411   1.201  0.2832 -0.2113  0.2517
  676SOL    HW2 2750   3.838   4.395   1.294  0.7909  1.1664  0.5775
  676SOL    HW3 2751   3.777   4.373   1.157  0.4269 -1.5900  1.1510
  676SOL    MW4 2752   3.841   4.404   1.207  0.3691 -0.2112  0.4134
  677SOL     OW 2753   3.636   0.168   1.250 -0.4796 -0.3930  0.2839
  677SOL    HW2 2754   3.576   0.103   1.213  0.8244 -0.7537 -1.2419
  677SOL    HW3 2755   3.631   0.243   1.191  0.7667 -0.5272 -0.0023
  677SOL    MW4 2756   3.628   0.169   1.237 -0.1431 -0.4583  0.0449
  678SOL     OW 2757   3.838   0.035   1.124  0.4203  0.3439 -0.0187
  678SOL    HW2 2758   3.767   0.081   1.170  0.6885  0.7428 -0.0068
  678SOL    HW3 2759   3.848  -0.047   1.173 -0.2549  0.1408 -0.2175
  678SOL    MW4 2760   3.830   0.030   1.137  0.3667  0.3697 -0.0434
  679SOL     OW 2761   3.617   0.410   1.114  0.3945 -0.0129  0.3688
  679SOL    HW2 2762   3.691   0.463   1.145  0.1108  0.0045  1.0323
  679SOL    HW3 2763   3.546   0.430   1.175 -0.7048  1.3132 -1.3090
  679SOL    MW4 2764   3.618   0.420   1.126  0.2122  0.1644  0.2351
  680SOL     OW 2765   3.830   0.558   1.223  0.2670  0.0043 -0.1096
  680SOL    HW2 2766   3.913   0.520   1.195  0.1995 -1.2198  1.2594
  680SOL    HW3 2767   3.835   0.650   1.197  1.9530 -0.1126 -0.2555
  680SOL    MW4 2768   3.841   0.565   1.216  0.4804 -0.1726  0.0519
  681SOL     OW 2769   3.849   0.817   1.168 -0.0422 -0.8040 -0.2727
  681SOL    HW2 2770   3.924   0.876   1.176 -1.2836  1.0586 -1.8761
  681SOL    HW3 2771   3.817   0.831   1.079 -1.6780 -2.3281  0.0540
  681SOL    MW4 2772   3.855   0.827   1.157 -0.4215 -0.7592 -0.4412
  682SOL     OW 2773   3.644   4.010   0.463  0.3878 -0.0339  0.0890
  682SOL    HW2 2774   3.559   4.050   0.448 -0.1686 -1.1023  0.2904
  682SOL    HW3 2775   3.639   3.926   0.417  0.2496 -1.3862  2.4806
  682SOL    MW4 2776   3.632   4.004   0.455  0.2964 -0.3529  0.4311
  683SOL     OW 2777   3.592   0.891   1.253  0.0654  0.0267  0.1457
  683SOL    HW2 2778   3.579   0.973   1.206  0.1029 -0.1554 -0.1785
  683SOL    HW3 2779   3.680   0.863   1.229 -0.4506 -0.8012 -0.8035
  683SOL    MW4 2780   3.602   0.899   1.244  0.0024 -0.1066 -0.0223
  684SOL     OW 2781   3.851   1.561   1.133 -0.6314  0.2881 -0.3197
  684SOL    HW2 2782   3.835   1.551   1.039 -0.2545  0.7802 -0.4413
  684SOL    HW3 2783   3.929   1.616   1.138 -0.2213 -0.3430  0.2840
  684SOL    MW4 2784   3.859   1.567   1.121 -0.5276  0.2697 -0.2562
  685SOL     OW 2785   1.539   1.975   0.547 -0.3428  0.4167  0.1072
  685SOL    HW2 2786   1.490   1.895   0.530 -0.1571  0.5220 -1.0001
  685SOL    HW3 2787   1.502   2.039   0.486  1.5635  0.3215 -1.1953
  685SOL    MW4 2788   1.528   1.973   0.537 -0.0668  0.4182 -0.2108
  686SOL     OW 2789   3.613   1.650   1.237  0.2324 -0.0735  0.0431
  686SOL    HW2 2790   3.591   1.739   1.208 -0.1370  0.1868  1.1030
  686SOL    HW3 2791   3.695   1.629   1.193  0.0046  0.5631 -0.6863
  686SOL    MW4 2792   3.621   1.659   1.227  0.1538  0.0447  0.0865
  687SOL     OW 2793   3.581   1.933   1.125 -0.3352 -0.1531 -0.2756
  687SOL    HW2 2794   3.584   1.954   1.032  1.4778  0.0999 -0.1848
  687SOL    HW3 2795   3.669   1.954   1.157 -0.6280 -1.2028  1.2834
  687SOL    MW4 2796   3.593   1.938   1.117 -0.1345 -0.2583 -0.0579
  688SOL     OW 2797   3.797   2.011   1.277 -0.4464  0.0097 -0.1742
  688SOL    HW2 2798   3.801   2.023   1.372 -0.8987 -0.0995 -0.1426
  688SOL    HW3 2799   3.888   1.994   1.252 -0.5454 -1.4674  0.4279
  688SOL    MW4 2800   3.810   2.010   1.287 -0.5193 -0.1996 -0.0905
  689SOL     OW 2801   3.817   2.286   1.157  0.1459  0.4435 -0.2273
  689SOL    HW2 2802   3.897   2.329   1.188 -1.1725  2.0933  0.9327
  689SOL    HW3 2803   3.818   2.200   1.199  1.7990  0.0436 -1.0193
  689SOL    MW4 2804   3.828   2.280   1.167  0.1903  0.6084 -0.1788
  690SOL     OW 2805   3.590   2.438   1.229  0.0767 -0.1832 -0.1160
  690SOL    HW2 2806   3.584   2.439   1.325  1.4443  1.6302 -0.0122
  690SOL    HW3 2807   3.679   2.407   1.212  0.0708  0.1610 -0.7690
  690SOL    MW4 2808   3.601   2.434   1.240  0.2565  0.1018 -0.1885
  691SOL     OW 2809   3.573   2.705   1.128  0.5203 -0.3317  0.3174
  691SOL    HW2 2810   3.506   2.731   1.192 -0.2784 -0.6531 -0.3693
  691SOL    HW3 2811   3.579   2.610   1.137 -1.3760 -0.6946 -1.7534
  691SOL    MW4 2812   3.565   2.696   1.138  0.1647 -0.4220 -0.0465
  692SOL     OW 2813   3.818   2.826   1.194  0.0858 -0.0662 -0.0433
  692SOL    HW2 2814   3.828   2.822   1.290 -0.0462 -0.4332 -0.0447
  692SOL    HW3 2815   3.732   2.788   1.177  0.3949 -0.6318 -0.3633
  692SOL    MW4 2816   3.808   2.820   1.205  0.1090 -0.1893 -0.0857
  693SOL     OW 2817   3.869   3.093   1.143  0.2880 -0.0960  0.2763
  693SOL    HW2 2818   3.879   3.108   1.049 -1.4329  1.1535  0.2632
  693SOL    HW3 2819   3.855   2.999   1.151 -0.0676 -0.1439 -0.7653
  693SOL    MW4 2820   3.868   3.083   1.131  0.0136  0.0627  0.1371
  694SOL     OW 2821   3.654   3.233   1.262 -0.0794  0.1440  0.0099
  694SOL    HW2 2822   3.672   3.324   1.240  0.1385 -0.1626 -1.0852
  694SOL    HW3 2823   3.732   3.185   1.236 -0.6358 -0.5155 -0.4847
  694SOL    MW4 2824   3.666   3.239   1.256 -0.1237  0.0162 -0.1998
  695SOL     OW 2825   3.639   3.499   1.186  0.4900  0.5723  0.2172
  695SOL    HW2 2826   3.658   3.493   1.093 -0.0343  0.4601  0.1119
  695SOL    HW3 2827   3.712   3.548   1.223  0.7961  0.4480 -0.2203
  695SOL    MW4 2828   3.651   3.505   1.179  0.4611  0.5410  0.1456
  696SOL     OW 2829   3.881   3.662   1.232  0.0150 -0.3672  0.1362
  696SOL    HW2 2830   3.855   3.660   1.324 -0.8818 -0.2232 -0.1114
  696SOL    HW3 2831   3.878   3.754   1.207 -0.5974 -0.4877 -0.2682
  696SOL    MW4 2832   3.877   3.674   1.240 -0.1841 -0.3643  0.0501
  697SOL     OW 2833   3.614   4.015   1.229  0.2767 -0.2490 -0.4219
  697SOL    HW2 2834   3.633   4.001   1.322  0.4854 -0.2413 -0.4645
  697SOL    HW3 2835   3.537   3.961   1.212 -0.6273  0.8317  0.1093
  697SOL    MW4 2836   3.606   4.006   1.239  0.1853 -0.1054 -0.3574
  698SOL     OW 2837   3.641   4.262   1.105 -0.4268  0.1305 -0.0914
  698SOL    HW2 2838   3.644   4.173   1.142  1.8163 -0.1452 -0.8474
  698SOL    HW3 2839   3.639   4.249   1.011  1.0041  0.8799 -0.2369
  698SOL    MW4 2840   3.641   4.249   1.098  0.0582  0.1931 -0.2103
  699SOL     OW 2841   0.987   3.462   0.849  0.1093 -0.4703 -0.0148
  699SOL    HW2 2842   1.048   3.509   0.792 -0.4310 -1.0661 -1.1025
  699SOL    HW3 2843   0.980   3.375   0.811 -1.1812 -0.5039  0.2636
  699SOL    MW4 2844   0.994   3.457   0.836 -0.1324 -0.5536 -0.1215
  700SOL     OW 2845   0.087   3.516   0.881  0.0496  0.1241 -0.5243
  700SOL    HW2 2846   0.017   3.577   0.861 -0.0988 -0.2793 -1.2641
  700SOL    HW3 2847   0.164   3.553   0.837  0.7410  1.5231  1.7769
  700SOL    MW4 2848   0.088   3.529   0.872  0.1213  0.2556 -0.3183
  701SOL     OW 2849   4.309   4.660   1.157 -0.2856  0.1417 -0.0773
  701SOL    HW2 2850   4.287   4.568   1.167  0.1880 -0.0313 -0.6755
  701SOL    HW3 2851   4.228   4.706   1.178 -0.1920 -0.3553  1.4492
  701SOL    MW4 2852   4.295   4.654   1.161 -0.2108  0.0533  0.0452
  702SOL     OW 2853   4.076   0.133   1.249 -0.2223  0.0646 -0.0792
  702SOL    HW2 2854   4.059   0.108   1.340 -0.9650 -1.3817 -0.5867
  702SOL    HW3 2855   3.998   0.104   1.202  0.1889  0.7342 -1.1872
  702SOL    MW4 2856   4.063   0.126   1.255 -0.2656 -0.0379 -0.2923
  703SOL     OW 2857   4.069   0.429   1.096  0.2002 -0.2001  0.4193
  703SOL    HW2 2858   4.060   0.336   1.116  0.5321 -0.4258 -0.4587
  703SOL    HW3 2859   4.045   0.436   1.003  1.7774  0.3240  0.0417
  703SOL    MW4 2860   4.065   0.418   1.086  0.4520 -0.1607  0.2537
  704SOL     OW 2861   4.297   0.535   1.192 -0.5661  0.4576 -0.0536
  704SOL    HW2 2862   4.286   0.528   1.286  0.2377 -0.7993 -0.0399
  704SOL    HW3 2863   4.222   0.487   1.155 -0.2822 -0.0050 -0.0370
  704SOL    MW4 2864   4.285   0.528   1.199 -0.4225  0.2307 -0.0497
  705SOL     OW 2865   4.254   0.807   1.088  0.0487  0.4143 -0.0333
  705SOL    HW2 2866   4.254   0.713   1.106  1.0762  0.6606  1.4145
  705SOL    HW3 2867   4.255   0.813   0.993  0.5788 -1.0548 -0.1427
  705SOL    MW4 2868   4.254   0.795   1.078  0.2546  0.2529  0.1433
  706SOL     OW 2869   4.065   0.978   1.223 -0.2532  0.7732  0.2634
  706SOL    HW2 2870   4.063   0.961   1.317 -1.4821  1.4047  0.3671
  706SOL    HW3 2871   4.120   0.908   1.187  0.1685  0.4902  1.4375
  706SOL    MW4 2872   4.072   0.967   1.231 -0.3591  0.8192  0.4320
  707SOL     OW 2873   4.018   1.217   1.092 -0.2124 -0.3172 -0.0549
  707SOL    HW2 2874   4.044   1.139   1.140  0.1196  0.5941  1.2665
  707SOL    HW3 2875   3.931   1.239   1.127  0.6677  1.2148  1.2310
  707SOL    MW4 2876   4.010   1.210   1.103 -0.0525  0.0050  0.2891
  708SOL     OW 2877   4.281   1.287   1.172 -0.1042  0.3875 -0.1037
  708SOL    HW2 2878   4.260   1.277   1.265  2.2233  2.5139  0.6964
  708SOL    HW3 2879   4.199   1.265   1.127 -0.5057 -3.4175  2.2360
  708SOL    MW4 2880   4.267   1.283   1.179  0.1497  0.1662  0.3105
  709SOL     OW 2881   4.304   1.551   1.101 -0.1090 -0.0096 -0.1383
  709SOL    HW2 2882   4.374   1.582   1.158 -0.4127 -0.2438  0.3705
  709SOL    HW3 2883   4.291   1.459   1.126  1.0171 -0.6436 -1.8808
  709SOL    MW4 2884   4.311   1.543   1.112 -0.0010 -0.1241 -0.3010
  710SOL     OW 2885   4.086   1.698   1.196  0.0538 -0.0316  0.3979
  710SOL    HW2 2886   4.088   1.681   1.291 -1.1368  1.9295  0.7973
  710SOL    HW3 2887   4.164   1.653   1.163 -0.1822 -1.7999  2.1108
  710SOL    MW4 2888   4.097   1.690   1.204 -0.1349 -0.0061  0.6766
  711SOL     OW 2889   4.036   1.963   1.131 -0.1719  0.2259  0.4006
  711SOL    HW2 2890   4.049   1.871   1.153 -1.2590  0.1031  0.5656
  711SOL    HW3 2891   4.009   1.963   1.039 -0.2305  0.3806  0.4172
  711SOL    MW4 2892   4.034   1.951   1.122 -0.3233  0.2301  0.4245
  712SOL     OW 2893   4.292   2.077   1.255  0.0390 -0.1186 -0.0783
  712SOL    HW2 2894   4.294   2.151   1.196 -2.4580 -0.0670 -0.1402
  712SOL    HW3 2895   4.213   2.029   1.232 -1.4574  0.3337  3.6899
  712SOL    MW4 2896   4.282   2.080   1.244 -0.4883 -0.0522  0.4107
  713SOL     OW 2897   4.246   2.311   1.117 -0.1295 -0.3606 -0.1157
  713SOL    HW2 2898   4.158   2.329   1.150  0.0764  0.7936 -0.1493
  713SOL    HW3 2899   4.241   2.328   1.023  0.4869  1.2741  0.1136
  713SOL    MW4 2900   4.234   2.316   1.109 -0.0210  0.0076 -0.0899
  714SOL     OW 2901   4.026   2.435   1.240 -0.5543  0.0960  0.3271
  714SOL    HW2 2902   4.022   2.438   1.335 -1.2795 -1.3117  0.3447
  714SOL    HW3 2903   4.029   2.527   1.214  0.0029  0.4865  1.7129
  714SOL    MW4 2904   4.026   2.448   1.249 -0.5760 -0.0381  0.5124
  715SOL     OW 2905   4.047   2.699   1.130  0.2535  0.4422  0.0674
  715SOL    HW2 2906   3.971   2.755   1.146  0.3247  0.5122  0.1703
  715SOL    HW3 2907   4.050   2.687   1.035  1.1311  1.8778 -0.0995
  715SOL    MW4 2908   4.038   2.705   1.120  0.3786  0.6409  0.0590
  716SOL     OW 2909   4.294   2.815   1.254  0.3386 -0.1008  0.0327
  716SOL    HW2 2910   4.279   2.906   1.227 -1.5564 -0.3799  0.0767
  716SOL    HW3 2911   4.220   2.767   1.216  0.8501 -1.4708  0.7728
  716SOL    MW4 2912   4.282   2.821   1.245  0.1559 -0.3183  0.1361
  717SOL     OW 2913   4.286   3.076   1.155 -0.2590  0.2015 -0.3569
  717SOL    HW2 2914   4.218   3.141   1.173 -0.0570  0.2176  0.3678
  717SOL    HW3 2915   4.289   3.070   1.059  1.2871  2.9667 -0.5459
  717SOL    MW4 2916   4.277   3.084   1.145 -0.0286  0.5684 -0.2862
  718SOL     OW 2917   4.085   3.260   1.241  0.0419  0.7938 -0.4684
  718SOL    HW2 2918   4.081   3.250   1.336  2.6191  0.3332 -0.3726
  718SOL    HW3 2919   4.008   3.214   1.208 -0.6569  0.6348  1.3679
  718SOL    MW4 2920   4.075   3.253   1.249  0.2899  0.7122 -0.2135
  719SOL     OW 2921   4.073   3.519   1.120  0.1650  0.6863  0.3917
  719SOL    HW2 2922   4.060   3.437   1.167  0.1485  1.3155  1.5193
  719SOL    HW3 2923   3.998   3.573   1.145  1.6797  2.1080  2.0259
  719SOL    MW4 2924   4.062   3.515   1.130  0.3629  0.9565  0.7561
  720SOL     OW 2925   4.292   3.639   1.240  0.1601 -0.2285 -0.2261
  720SOL    HW2 2926   4.214   3.599   1.203 -0.2220  1.7058 -1.5932
  720SOL    HW3 2927   4.365   3.593   1.199 -0.2582 -1.4426  0.3888
  720SOL    MW4 2928   4.291   3.628   1.230  0.0544 -0.1335 -0.3253
  721SOL     OW 2929   0.033   4.003   1.188 -0.4912  0.1052 -0.0784
  721SOL    HW2 2930   0.020   4.098   1.175 -0.0358  0.0484 -0.9857
  721SOL    HW3 2931   0.032   3.992   1.283  0.9590  1.2356  0.0811
  721SOL    MW4 2932   0.031   4.014   1.199 -0.2398  0.2475 -0.1771
  722SOL     OW 2933   4.059   4.241   1.099 -0.3043 -0.2722  0.3309
  722SOL    HW2 2934   3.992   4.302   1.129 -0.3412  0.1698 -0.6326
  722SOL    HW3 2935   4.051   4.166   1.157 -0.2482  0.6458  1.5336
  722SOL    MW4 2936   4.049   4.239   1.110 -0.3023 -0.0920  0.3624
  723SOL     OW 2937   0.255   4.404   0.708 -0.4383 -0.9342  0.1542
  723SOL    HW2 2938   0.327   4.352   0.744 -0.0191  0.5478  1.4980
  723SOL    HW3 2939   0.269   4.402   0.613  0.1066 -2.4780  0.2551
  723SOL    MW4 2940   0.266   4.397   0.700 -0.3111 -0.9422  0.3448
  724SOL     OW 2941   3.754   2.207   0.456 -0.3083  0.7864  0.4042
  724SOL    HW2 2942   3.755   2.143   0.527  0.2816 -1.6778 -1.7314
  724SOL    HW3 2943   3.681   2.180   0.400 -0.9761  2.8804  0.2157
  724SOL    MW4 2944   3.745   2.195   0.458 -0.3185  0.7379  0.0975
  725SOL     OW 2945   0.267   4.619   1.612  0.0647  0.1054 -0.4395
  725SOL    HW2 2946   0.352   4.651   1.581 -0.6455  2.2893 -0.2297
  725SOL    HW3 2947   0.203   4.672   1.564 -1.1735 -1.0614 -0.1042
  725SOL    MW4 2948   0.270   4.630   1.602 -0.1924  0.2394 -0.3674
  726SOL     OW 2949   0.068   0.108   1.506 -0.0709  0.1227 -0.4319
  726SOL    HW2 2950  -0.023   0.086   1.526  0.2160  0.1380  0.9821
  726SOL    HW3 2951   0.068   0.131   1.413 -1.4781 -0.0147 -0.4757
  726SOL    MW4 2952   0.056   0.108   1.497 -0.2187  0.1066 -0.2512
  727SOL     OW 2953   0.012   0.361   1.565  0.0263  0.1636  0.3628
  727SOL    HW2 2954   0.007   0.381   1.659  2.2912  0.3191  0.4628
  727SOL    HW3 2955   0.049   0.273   1.562 -1.1619 -0.3230 -0.3751
  727SOL    MW4 2956   0.016   0.352   1.577  0.1684  0.1199  0.2787
  728SOL     OW 2957   0.461   0.349   1.575 -0.2079 -0.4883  0.0511
  728SOL    HW2 2958   0.376   0.380   1.544 -0.4381  0.6124  1.7618
  728SOL    HW3 2959   0.522   0.420   1.551 -0.2780  0.0699  1.4791
  728SOL    MW4 2960   0.458   0.363   1.567 -0.2475 -0.2695  0.4653
  729SOL     OW 2961   0.224   0.785   1.523 -0.1220  0.3767 -0.4508
  729SOL    HW2 2962   0.306   0.827   1.500  0.2985 -0.1206  0.1210
  729SOL    HW3 2963   0.234   0.694   1.494 -0.8238  0.5311 -1.2043
  729SOL    MW4 2964   0.236   0.779   1.516 -0.1591  0.3315 -0.4747
  730SOL     OW 2965   4.466   0.882   1.494 -0.0835 -0.0333 -0.5784
  730SOL    HW2 2966   4.473   0.971   1.530 -0.4744 -0.1552 -0.1995
  730SOL    HW3 2967   4.553   0.845   1.506  0.0728  0.2882 -0.7026
  730SOL    MW4 2968   4.479   0.889   1.500 -0.1144 -0.0069 -0.5447
  731SOL     OW 2969   4.285   1.271   1.463 -0.4250  0.6302 -0.2051
  731SOL    HW2 2970   4.204   1.228   1.490 -0.0332 -0.1717 -0.2787
  731SOL    HW3 2971   4.354   1.213   1.497  0.0897  0.1281 -2.0708
  731SOL    MW4 2972   4.283   1.257   1.471 -0.3047  0.4580 -0.4609
  732SOL     OW 2973   0.241   1.279   1.473 -0.0622  0.2547 -0.3712
  732SOL    HW2 2974   0.220   1.366   1.508 -0.9170 -0.4316  0.8690
  732SOL    HW3 2975   0.237   1.290   1.378 -1.7985  1.1895 -0.2105
  732SOL    MW4 2976   0.237   1.292   1.465 -0.4041  0.2874 -0.1863
  733SOL     OW 2977   0.235   1.526   1.606  0.3166  0.2563 -0.4471
  733SOL    HW2 2978   0.245   1.527   1.701 -0.3219 -0.4910 -0.3752
  733SOL    HW3 2979   0.143   1.543   1.590  0.6949  1.9221 -0.9894
  733SOL    MW4 2980   0.224   1.528   1.616  0.2823  0.3775 -0.5091
  734SOL     OW 2981   0.017   1.647   1.500 -0.2395  0.1230 -0.5048
  734SOL    HW2 2982   0.043   1.729   1.543  0.8898 -0.4352 -0.1235
  734SOL    HW3 2983   0.035   1.663   1.407 -0.1563  0.3579 -0.4496
  734SOL    MW4 2984   0.022   1.660   1.493 -0.0796  0.0803 -0.4473
  735SOL     OW 2985   0.019   1.913   1.625  0.1159  0.0398 -0.5556
  735SOL    HW2 2986   0.011   1.912   1.720 -1.1739 -1.8975 -0.6537
  735SOL    HW3 2987  -0.059   1.960   1.595  0.1168 -0.0421 -0.6889
  735SOL    MW4 2988   0.007   1.919   1.634 -0.0544 -0.2265 -0.5863
  736SOL     OW 2989   0.238   2.053   1.503 -0.0878  0.3001 -0.1288
  736SOL    HW2 2990   0.162   2.006   1.536  0.0520 -0.4021 -0.7731
  736SOL    HW3 2991   0.239   2.035   1.409 -0.2826  1.9835 -0.4677
  736SOL    MW4 2992   0.228   2.044   1.495 -0.0950  0.4292 -0.2584
  737SOL     OW 2993   0.185   2.297   1.589  0.2431  0.1183  0.3357
  737SOL    HW2 2994   0.197   2.289   1.683  0.8475  1.0098  0.3438
  737SOL    HW3 2995   0.218   2.215   1.553  3.8593  1.3429  0.5859
  737SOL    MW4 2996   0.191   2.285   1.597  0.8000  0.3972  0.3697
  738SOL     OW 2997   4.490   2.474   1.493 -0.2457 -0.1536 -0.1239
  738SOL    HW2 2998   4.406   2.441   1.527 -0.5109 -1.2433 -1.7485
  738SOL    HW3 2999   4.556   2.424   1.540 -0.5171  0.5262  0.9846
  738SOL    MW4 3000   4.487   2.463   1.504 -0.3164 -0.2074 -0.1920
  739SOL     OW 3001   0.036   2.716   1.619  0.0806 -0.0794  0.1680
  739SOL    HW2 3002  -0.050   2.756   1.601  0.7487  0.7658 -1.2393
  739SOL    HW3 3003   0.032   2.631   1.575 -0.1437 -0.1679  0.3577
  739SOL    MW4 3004   0.024   2.710   1.611  0.1392  0.0205  0.0074
  740SOL     OW 3005   0.228   2.852   1.489  0.0041  0.5254  0.0911
  740SOL    HW2 3006   0.304   2.819   1.535 -0.7481  1.0321  1.7301
  740SOL    HW3 3007   0.154   2.802   1.524 -0.6558  1.3120 -0.1414
  740SOL    MW4 3008   0.228   2.841   1.499 -0.1822  0.6959  0.2767
  741SOL     OW 3009   0.209   3.111   1.598  0.6470 -0.0730  0.2557
  741SOL    HW2 3010   0.143   3.164   1.553  2.2060  0.6403 -1.2420
  741SOL    HW3 3011   0.201   3.024   1.559  0.1287 -0.1821  0.5908
  741SOL    MW4 3012   0.199   3.107   1.587  0.7843  0.0064  0.1023
  742SOL     OW 3013   0.000   3.254   1.480  0.6712  0.3402 -0.5299
  742SOL    HW2 3014   0.011   3.347   1.500  1.7986  0.2172 -0.5085
  742SOL    HW3 3015   0.016   3.248   1.385 -0.9720  0.3905 -0.8199
  742SOL    MW4 3016   0.004   3.266   1.470  0.6032  0.3307 -0.5653
  743SOL     OW 3017   0.032   3.513   1.588  0.2260  0.0716 -0.2522
  743SOL    HW2 3018   0.028   3.487   1.680  0.3774  0.7438 -0.0592
  743SOL    HW3 3019  -0.030   3.585   1.580 -0.2814 -0.4268 -0.8225
  743SOL    MW4 3020   0.024   3.519   1.599  0.1791  0.0944 -0.3021
  744SOL     OW 3021   0.284   3.598   1.507  0.0048 -0.1817  0.2526
  744SOL    HW2 3022   0.257   3.688   1.529  0.7048 -0.2285  1.3410
  744SOL    HW3 3023   0.214   3.543   1.543 -0.3419 -0.0817 -0.2680
  744SOL    MW4 3024   0.271   3.603   1.515  0.0514 -0.1750  0.3276
  745SOL     OW 3025   0.236   3.858   1.602 -0.0131  0.1416 -0.1262
  745SOL    HW2 3026   0.225   3.848   1.697  1.0677 -1.4536 -0.1461
  745SOL    HW3 3027   0.324   3.893   1.592  0.2642 -0.6583 -0.5684
  745SOL    MW4 3028   0.246   3.861   1.614  0.1661 -0.1745 -0.1873
  746SOL     OW 3029   0.043   3.996   1.458  0.3076  0.4886  0.4162
  746SOL    HW2 3030   0.034   4.085   1.491  0.6465  0.3129  0.9952
  746SOL    HW3 3031   0.107   3.955   1.517 -0.4561 -0.3742  0.6660
  746SOL    MW4 3032   0.050   4.002   1.470  0.2515  0.3514  0.5256
  747SOL     OW 3033   0.028   4.238   1.587  0.0996  0.3336 -0.2142
  747SOL    HW2 3034   0.008   4.240   1.681 -0.5986 -0.5353 -0.3298
  747SOL    HW3 3035  -0.036   4.297   1.548 -0.4711 -0.3247 -0.2834
  747SOL    MW4 3036   0.017   4.246   1.594 -0.0677  0.1321 -0.2385
  748SOL     OW 3037   0.263   4.357   1.515  0.1373  0.0690 -0.0809
  748SOL    HW2 3038   0.181   4.316   1.542  0.3175  0.3919  0.9981
  748SOL    HW3 3039   0.266   4.439   1.564  1.7004 -0.5444  0.9040
  748SOL    MW4 3040   0.253   4.362   1.525  0.3673  0.0310  0.1915
  749SOL     OW 3041   0.685   4.622   1.617  0.0029  0.4685  0.4177
  749SOL    HW2 3042   0.757   4.667   1.574 -0.1335 -0.0832 -0.4075
  749SOL    HW3 3043   0.608   4.674   1.596  0.0858  0.7668  0.8567
  749SOL    MW4 3044   0.684   4.635   1.608 -0.0041  0.4349  0.3667
  750SOL     OW 3045   0.495   0.107   1.232  0.3695  0.1343  0.2030
  750SOL    HW2 3046   0.490   0.200   1.208 -1.7861  0.4010  1.5646
  750SOL    HW3 3047   0.560   0.070   1.172  1.0716  2.4643 -0.5204
  750SOL    MW4 3048   0.503   0.115   1.221  0.1777  0.4769  0.2872
  751SOL     OW 3049   0.474   0.077   1.507 -0.4010 -0.0459 -0.0841
  751SOL    HW2 3050   0.456   0.169   1.525 -2.5620 -0.3492 -0.6318
  751SOL    HW3 3051   0.488   0.074   1.413  1.8936  0.0547  0.2210
  751SOL    MW4 3052   0.474   0.089   1.497 -0.3834 -0.0726 -0.1161
  752SOL     OW 3053   0.682   0.522   1.543  0.1666 -0.5659 -0.0555
  752SOL    HW2 3054   0.691   0.615   1.562  2.2485 -0.7656  0.0548
  752SOL    HW3 3055   0.688   0.516   1.448 -0.9522 -0.5006 -0.1370
  752SOL    MW4 3056   0.684   0.534   1.533  0.2937 -0.5836 -0.0517
  753SOL     OW 3057   0.706   0.796   1.578  0.2519 -0.9535 -0.4344
  753SOL    HW2 3058   0.712   0.796   1.674 -1.9952  1.2817 -0.2469
  753SOL    HW3 3059   0.787   0.839   1.550 -0.5145  1.2804  0.6450
  753SOL    MW4 3060   0.718   0.802   1.587 -0.1457 -0.3639 -0.2670
  754SOL     OW 3061   0.478   0.909   1.447 -0.0885 -0.5083  0.0538
  754SOL    HW2 3062   0.473   0.988   1.501  0.2670  0.5957 -1.4805
  754SOL    HW3 3063   0.555   0.862   1.481  0.8592  0.7752 -0.2545
  754SOL    MW4 3064   0.488   0.913   1.458  0.0834 -0.1932 -0.1893
  755SOL     OW 3065   0.461   1.138   1.597  0.1684  0.0154  0.0447
  755SOL    HW2 3066   0.540   1.172   1.554 -0.1341 -0.7692 -1.1683
  755SOL    HW3 3067   0.390   1.191   1.560  0.3052  2.0584  2.6026
  755SOL    MW4 3068   0.462   1.149   1.586  0.1466  0.1814  0.2222
  756SOL     OW 3069   0.699   1.259   1.485  0.3342 -0.3487 -0.2654
  756SOL    HW2 3070   0.678   1.345   1.520  1.6347  0.0831 -0.5114
  756SOL    HW3 3071   0.690   1.268   1.390  1.0978 -0.2854 -0.3412
  756SOL    MW4 3072   0.695   1.271   1.477  0.6066 -0.2835 -0.3079
  757SOL     OW 3073   0.669   1.508   1.594  0.1827  0.4807  0.7633
  757SOL    HW2 3074   0.737   1.567   1.561 -0.3005  1.1124  0.8857
  757SOL    HW3 3075   0.588   1.539   1.554  0.2356 -1.4865 -0.9459
  757SOL    MW4 3076   0.667   1.520   1.584  0.1259  0.3046  0.5538
  758SOL     OW 3077   0.460   1.639   1.480 -0.4683  0.2853  0.1331
  758SOL    HW2 3078   0.457   1.722   1.527 -0.8253 -0.1246  0.8565
  758SOL    HW3 3079   0.384   1.590   1.514 -0.0253 -0.4916  0.0179
  758SOL    MW4 3080   0.449   1.643   1.491 -0.4569  0.1286  0.2134
  759SOL     OW 3081   0.431   1.901   1.596  0.2621 -0.4894  0.0553
  759SOL    HW2 3082   0.441   1.922   1.689  1.4511  0.9914 -0.3946
  759SOL    HW3 3083   0.358   1.956   1.567 -0.0439 -0.8783  0.0799
  759SOL    MW4 3084   0.423   1.911   1.605  0.3786 -0.3452 -0.0010
  760SOL     OW 3085   0.632   2.051   1.493 -0.5512 -0.0195  0.3258
  760SOL    HW2 3086   0.706   2.019   1.544 -0.7394 -1.0240 -0.0150
  760SOL    HW3 3087   0.558   1.998   1.523 -0.6364 -0.7183 -1.0897
  760SOL    MW4 3088   0.632   2.040   1.504 -0.5873 -0.2441  0.0939
  761SOL     OW 3089   0.636   2.311   1.618 -0.9486  0.1530 -0.4411
  761SOL    HW2 3090   0.579   2.372   1.570 -1.2616 -1.4450 -2.1610
  761SOL    HW3 3091   0.630   2.229   1.569  0.5433 -0.8819  1.0524
  761SOL    MW4 3092   0.628   2.309   1.605 -0.7932 -0.1945 -0.4711
  762SOL     OW 3093   0.422   2.478   1.505  0.0025 -0.2852  0.3291
  762SOL    HW2 3094   0.415   2.566   1.542 -0.4097  0.1895 -0.8307
  762SOL    HW3 3095   0.336   2.439   1.519 -0.6176  0.4151 -1.3596
  762SOL    MW4 3096   0.410   2.485   1.512 -0.1337 -0.1304 -0.0467
  763SOL     OW 3097   0.441   2.740   1.615  0.2927 -0.2792 -0.6019
  763SOL    HW2 3098   0.424   2.756   1.708 -0.5295 -0.4805 -0.7111
  763SOL    HW3 3099   0.521   2.788   1.596  0.3119 -0.0142  0.1497
  763SOL    MW4 3100   0.449   2.748   1.625  0.1868 -0.2711 -0.5171
  764SOL     OW 3101   0.663   2.849   1.511 -0.1921 -0.2828 -0.1705
  764SOL    HW2 3102   0.660   2.939   1.544 -1.1739 -0.1208 -0.7038
  764SOL    HW3 3103   0.664   2.859   1.416  1.1443 -0.7981 -0.2162
  764SOL    MW4 3104   0.663   2.862   1.503 -0.1453 -0.3293 -0.2468
  765SOL     OW 3105   0.643   3.095   1.634  0.2209 -0.4309  0.2815
  765SOL    HW2 3106   0.716   3.144   1.597  1.2882 -2.4672 -0.3555
  765SOL    HW3 3107   0.565   3.133   1.592  1.1982 -0.7819 -1.9155
  765SOL    MW4 3108   0.642   3.106   1.624  0.4907 -0.7458 -0.0924
  766SOL     OW 3109   0.437   3.239   1.521  0.2464  0.9249  0.1183
  766SOL    HW2 3110   0.353   3.201   1.546 -0.0797  1.3345 -0.3243
  766SOL    HW3 3111   0.453   3.207   1.432  1.3998 -0.5306  0.8363
  766SOL    MW4 3112   0.428   3.230   1.513  0.3556  0.7870  0.1547
  767SOL     OW 3113   0.509   3.487   1.651 -0.5461 -0.2395  0.3027
  767SOL    HW2 3114   0.497   3.400   1.613 -1.1193 -0.6216  1.3381
  767SOL    HW3 3115   0.439   3.540   1.613  0.3885  0.0386 -1.0798
  767SOL    MW4 3116   0.498   3.482   1.641 -0.4984 -0.2532  0.2569
  768SOL     OW 3117   0.710   3.603   1.479  0.2334  0.2991  0.2413
  768SOL    HW2 3118   0.792   3.573   1.519 -0.3058 -1.9814 -0.3041
  768SOL    HW3 3119   0.642   3.558   1.528 -0.5299 -0.7537 -1.7363
  768SOL    MW4 3120   0.712   3.593   1.490  0.0616 -0.1409 -0.0916
  769SOL     OW 3121   0.689   3.859   1.544  0.0637 -0.3356 -0.0220
  769SOL    HW2 3122   0.772   3.893   1.511 -0.0916 -0.2429 -0.3145
  769SOL    HW3 3123   0.684   3.770   1.510  0.7708 -0.8810  1.2661
  769SOL    MW4 3124   0.699   3.852   1.536  0.1365 -0.3955  0.1094
  770SOL     OW 3125   0.454   4.000   1.499 -0.8761 -0.1668 -0.4699
  770SOL    HW2 3126   0.541   3.959   1.501 -1.3526 -1.1788 -0.2102
  770SOL    HW3 3127   0.440   4.022   1.406 -0.5832 -0.5162 -0.5976
  770SOL    MW4 3128   0.464   3.997   1.487 -0.9003 -0.3467 -0.4524
  771SOL     OW 3129   0.475   4.241   1.624 -0.3046  0.2467 -0.0391
  771SOL    HW2 3130   0.471   4.150   1.596  0.2114  0.2628 -0.1728
  771SOL    HW3 3131   0.398   4.282   1.585 -0.1849  0.0136 -0.5208
  771SOL    MW4 3132   0.465   4.234   1.615 -0.2207  0.2174 -0.1203
  772SOL     OW 3133   0.676   4.393   1.493 -0.0082 -0.2357  0.0101
  772SOL    HW2 3134   0.609   4.343   1.541 -1.4333  0.1216 -1.5497
  772SOL    HW3 3135   0.677   4.478   1.537  1.0250 -0.9645  1.4386
  772SOL    MW4 3136   0.667   4.397   1.506 -0.0599 -0.2842 -0.0072
  773SOL     OW 3137   1.079   4.633   1.593 -0.0140  0.4948 -0.5256
  773SOL    HW2 3138   1.100   4.616   1.685  1.5024 -3.2198 -1.4448
  773SOL    HW3 3139   1.161   4.666   1.556  0.0656 -0.2207 -1.0064
  773SOL    MW4 3140   1.093   4.635   1.600  0.1966 -0.0901 -0.7104
  774SOL     OW 3141   0.871   0.124   1.488 -0.2642 -0.2080  0.1939
  774SOL    HW2 3142   0.885   0.211   1.525 -0.2171 -0.4012  0.6351
  774SOL    HW3 3143   0.947   0.073   1.515  0.9922  0.3015 -2.2211
  774SOL    MW4 3144   0.883   0.129   1.496 -0.0922 -0.1663 -0.0666
  775SOL     OW 3145   0.886   0.358   1.624  0.1652 -0.4511  0.4973
  775SOL    HW2 3146   0.887   0.357   1.719 -1.3935 -0.5483  0.5194
  775SOL    HW3 3147   0.809   0.410   1.600  0.8237  0.0079 -0.7132
  775SOL    MW4 3148   0.876   0.365   1.633  0.0464 -0.4034  0.3406
  776SOL     OW 3149   1.136   0.457   1.473 -0.0225 -0.3216  0.5018
  776SOL    HW2 3150   1.138   0.546   1.509  0.1515 -0.4022  0.6882
  776SOL    HW3 3151   1.063   0.415   1.518  1.0616 -0.8612  1.7851
  776SOL    MW4 3152   1.126   0.463   1.483  0.1435 -0.4035  0.6957
  777SOL     OW 3153   1.140   0.729   1.555 -0.4724 -0.4876  0.0437
  777SOL    HW2 3154   1.122   0.741   1.648  0.5954  0.9567  0.0803
  777SOL    HW3 3155   1.223   0.774   1.540 -0.2887 -1.2808 -1.4764
  777SOL    MW4 3156   1.149   0.736   1.565 -0.3073 -0.4017 -0.1521
  778SOL     OW 3157   0.946   0.904   1.459  0.9581  0.0644 -0.2427
  778SOL    HW2 3158   1.015   0.841   1.482  0.6623 -0.3155 -0.3997
  778SOL    HW3 3159   0.931   0.891   1.366 -0.4835 -1.0001  0.1208
  778SOL    MW4 3160   0.953   0.894   1.450  0.7289 -0.1262 -0.2155
  779SOL     OW 3161   0.903   1.115   1.632  0.8692 -0.3617  0.3383
  779SOL    HW2 3162   0.922   1.041   1.574  1.8456 -0.4438  0.7548
  779SOL    HW3 3163   0.843   1.170   1.581  0.5176 -1.1883 -0.1624
  779SOL    MW4 3164   0.897   1.112   1.617  0.9516 -0.4816  0.3272
  780SOL     OW 3165   1.122   1.267   1.510  0.0833 -0.2862 -0.0600
  780SOL    HW2 3166   1.206   1.226   1.532 -0.9624 -2.3583  0.2148
  780SOL    HW3 3167   1.057   1.217   1.560 -1.3887  0.7759 -0.8740
  780SOL    MW4 3168   1.125   1.255   1.520 -0.2488 -0.4194 -0.1312
  781SOL     OW 3169   1.123   1.540   1.601 -0.2451 -0.3104  0.0824
  781SOL    HW2 3170   1.201   1.587   1.571  0.6558 -0.3633  2.2185
  781SOL    HW3 3171   1.137   1.450   1.571  1.0123 -0.5331  1.2705
  781SOL    MW4 3172   1.135   1.534   1.593  0.0397 -0.3469  0.5211
  782SOL     OW 3173   0.898   1.677   1.526  0.0119 -0.1789  0.1414
  782SOL    HW2 3174   0.976   1.625   1.544  0.3653  0.6295  0.9649
  782SOL    HW3 3175   0.900   1.691   1.431  0.2953 -1.0444  0.0146
  782SOL    MW4 3176   0.909   1.672   1.515  0.0960 -0.1864  0.2335
  783SOL     OW 3177   0.855   1.939   1.619  0.1851  0.1145 -0.4350
  783SOL    HW2 3178   0.936   1.981   1.591  1.1768 -1.2011  0.4280
  783SOL    HW3 3179   0.861   1.850   1.587 -1.0777  0.0830 -0.6379
  783SOL    MW4 3180   0.866   1.933   1.611  0.1493 -0.0632 -0.3479
  784SOL     OW 3181   1.104   2.056   1.528 -0.3676  0.2497  0.0303
  784SOL    HW2 3182   1.185   2.013   1.554 -0.8507  0.2510  1.5844
  784SOL    HW3 3183   1.113   2.146   1.558 -1.3722 -0.0159  1.1630
  784SOL    MW4 3184   1.116   2.062   1.535 -0.5639  0.2151  0.3848
  785SOL     OW 3185   1.156   2.341   1.594 -0.0892 -0.0170 -0.0600
  785SOL    HW2 3186   1.231   2.374   1.545 -0.5679 -0.3221 -1.0066
  785SOL    HW3 3187   1.080   2.381   1.553 -0.5233 -0.5765  0.1827
  785SOL    MW4 3188   1.156   2.351   1.582 -0.2097 -0.1311 -0.1528
  786SOL     OW 3189   0.909   2.435   1.498 -0.1967  0.3015  0.3881
  786SOL    HW2 3190   0.916   2.520   1.541 -1.1203  0.4779  0.2076
  786SOL    HW3 3191   0.840   2.389   1.547  0.3000 -0.3462  0.4870
  786SOL    MW4 3192   0.901   2.440   1.510 -0.2531  0.2391  0.3773
  787SOL     OW 3193   0.890   2.704   1.566 -0.3739  0.3236  0.5594
  787SOL    HW2 3194   0.876   2.696   1.660  1.0651  1.8073  0.9157
  787SOL    HW3 3195   0.812   2.749   1.533  0.9798  3.5660  1.6774
  787SOL    MW4 3196   0.878   2.709   1.574 -0.0055  0.9472  0.7538
  788SOL     OW 3197   1.137   2.841   1.555 -0.2111 -0.1234  0.6809
  788SOL    HW2 3198   1.116   2.929   1.585  0.5853  0.3517 -0.0943
  788SOL    HW3 3199   1.053   2.798   1.545 -0.6683  0.8901  0.0870
  788SOL    MW4 3200   1.123   2.847   1.557 -0.1663  0.0732  0.5002
  789SOL     OW 3201   1.097   3.111   1.610  0.2451 -0.8082 -0.1890
  789SOL    HW2 3202   1.103   3.121   1.705  0.7979 -1.5678 -0.1411
  789SOL    HW3 3203   1.181   3.143   1.577 -0.6129  1.1185 -0.5697
  789SOL    MW4 3204   1.109   3.116   1.618  0.2049 -0.6542 -0.2329
  790SOL     OW 3205   0.861   3.201   1.478 -0.0397 -0.1092 -0.3610
  790SOL    HW2 3206   0.936   3.152   1.512 -0.0362  0.0263 -0.1710
  790SOL    HW3 3207   0.868   3.192   1.383  0.7573  0.6855 -0.3878
  790SOL    MW4 3208   0.872   3.193   1.470  0.0659  0.0136 -0.3394
  791SOL     OW 3209   0.897   3.450   1.601 -0.1981 -0.1831 -0.0653
  791SOL    HW2 3210   0.984   3.483   1.580 -0.6171  0.6967 -0.4215
  791SOL    HW3 3211   0.888   3.371   1.548 -0.4622  0.9130 -1.6522
  791SOL    MW4 3212   0.908   3.444   1.592 -0.2882  0.0772 -0.3217
  792SOL     OW 3213   1.116   3.619   1.517 -0.3058 -0.1660  0.1334
  792SOL    HW2 3214   1.192   3.573   1.555 -0.9645 -1.6325 -0.3011
  792SOL    HW3 3215   1.133   3.619   1.423  0.0834  1.2081  0.2037
  792SOL    MW4 3216   1.128   3.613   1.510 -0.3413 -0.1781  0.0854
  793SOL     OW 3217   1.145   3.891   1.583 -0.6194 -0.3975  0.3757
  793SOL    HW2 3218   1.228   3.918   1.543 -0.5455 -0.4214  0.5141
  793SOL    HW3 3219   1.145   3.795   1.576 -1.3145 -0.3032 -0.9811
  793SOL    MW4 3220   1.156   3.882   1.577 -0.7014 -0.3879  0.2148
  794SOL     OW 3221   0.928   4.006   1.456  0.2096 -0.4551 -0.0343
  794SOL    HW2 3222   0.905   4.091   1.493  1.0267  0.0715 -0.7395
  794SOL    HW3 3223   1.001   3.975   1.510  0.5178 -0.2945 -0.3607
  794SOL    MW4 3224   0.934   4.013   1.468  0.3580 -0.3643 -0.1705
  795SOL     OW 3225   0.900   4.260   1.562  0.3877  0.0337  0.2290
  795SOL    HW2 3226   0.898   4.265   1.658 -1.0378 -0.1775  0.2156
  795SOL    HW3 3227   0.820   4.305   1.534  0.5480 -0.3349 -0.8453
  795SOL    MW4 3228   0.889   4.267   1.571  0.2207 -0.0424  0.0855
  796SOL     OW 3229   1.111   4.397   1.477 -0.1740 -0.2108  0.0233
  796SOL    HW2 3230   1.036   4.342   1.499 -0.3276 -0.7588 -1.8393
  796SOL    HW3 3231   1.094   4.480   1.523 -0.6033 -1.2322  1.7358
  796SOL    MW4 3232   1.099   4.401   1.486 -0.2508 -0.4177  0.0036
  797SOL     OW 3233   1.556   4.602   1.569  0.0716 -0.2228 -0.1777
  797SOL    HW2 3234   1.577   4.603   1.662 -0.1655 -2.6302 -0.0692
  797SOL    HW3 3235   1.472   4.646   1.562 -0.3422 -0.8306  0.8827
  797SOL    MW4 3236   1.548   4.608   1.580 -0.0143 -0.6199 -0.0235
  798SOL     OW 3237   1.324   0.067   1.511 -0.4170 -0.3150  0.0618
  798SOL    HW2 3238   1.330   0.153   1.553 -1.0464 -0.2683  0.0636
  798SOL    HW3 3239   1.345   0.084   1.419  0.1343 -0.2764  0.1906
  798SOL    MW4 3240   1.328   0.081   1.504 -0.4272 -0.3037  0.0790
  799SOL     OW 3241   1.357   0.337   1.606  0.3657  0.0478  0.1445
  799SOL    HW2 3242   1.435   0.380   1.570  0.0741  1.0158  0.6658
  799SOL    HW3 3243   1.283   0.386   1.572 -0.0891 -1.5286 -1.2223
  799SOL    MW4 3244   1.358   0.349   1.597  0.2671 -0.0325  0.0329
  800SOL     OW 3245   1.587   0.479   1.531 -0.2561  0.6375  0.1751
  800SOL    HW2 3246   1.669   0.439   1.561 -0.1566  0.7261  0.0196
  800SOL    HW3 3247   1.589   0.471   1.436 -1.6798 -1.8310  0.3032
  800SOL    MW4 3248   1.598   0.473   1.522 -0.4309  0.3235  0.1717
  801SOL     OW 3249   1.586   0.761   1.583  0.1106  0.9913  0.0549
  801SOL    HW2 3250   1.583   0.765   1.678  1.8865  1.9530  0.0814
  801SOL    HW3 3251   1.601   0.668   1.563  0.8631  0.9574  0.7539
  801SOL    MW4 3252   1.587   0.749   1.593  0.4442  1.1137  0.1506
  802SOL     OW 3253   1.361   0.893   1.501 -0.2127  0.0251  0.9102
  802SOL    HW2 3254   1.441   0.842   1.514 -0.1686  0.0357  0.6881
  802SOL    HW3 3255   1.350   0.895   1.406 -0.1514  0.5252  0.9157
  802SOL    MW4 3256   1.370   0.886   1.490 -0.1987  0.0925  0.8817
  803SOL     OW 3257   1.362   1.153   1.571 -0.0538  0.0529 -0.3972
  803SOL    HW2 3258   1.357   1.148   1.666 -1.2663 -0.3787 -0.4839
  803SOL    HW3 3259   1.342   1.065   1.541 -0.2321  0.3217 -1.0820
  803SOL    MW4 3260   1.359   1.141   1.579 -0.2373  0.0314 -0.4990
  804SOL     OW 3261   1.609   1.266   1.508 -0.1078  0.3185  0.7466
  804SOL    HW2 3262   1.532   1.221   1.542  0.1737  0.6163  1.8022
  804SOL    HW3 3263   1.683   1.215   1.539  0.1428  0.2887  0.1125
  804SOL    MW4 3264   1.609   1.254   1.516 -0.0376  0.3539  0.8022
  805SOL     OW 3265   1.555   1.544   1.595 -0.2201 -0.0505  0.2351
  805SOL    HW2 3266   1.547   1.557   1.689 -1.8780 -1.9222  0.3821
  805SOL    HW3 3267   1.591   1.456   1.585  0.7105  0.4308 -0.8800
  805SOL    MW4 3268   1.558   1.535   1.606 -0.3160 -0.2340  0.1074
  806SOL     OW 3269   1.325   1.688   1.520  0.0394 -0.3731  0.3787
  806SOL    HW2 3270   1.406   1.646   1.545  1.0809  0.7031 -1.0976
  806SOL    HW3 3271   1.331   1.697   1.425 -1.3960  0.5458  0.3612
  806SOL    MW4 3272   1.336   1.684   1.511 -0.0126 -0.1099  0.1814
  807SOL     OW 3273   1.348   1.952   1.619 -0.0723 -0.6447  0.0960
  807SOL    HW2 3274   1.354   1.954   1.714  0.2469  0.2523  0.0659
  807SOL    HW3 3275   1.348   1.859   1.596  2.0256 -0.8614  0.8405
  807SOL    MW4 3276   1.349   1.940   1.628  0.2465 -0.5550  0.1903
  808SOL     OW 3277   1.617   2.068   1.511 -0.2415  0.6824  0.0888
  808SOL    HW2 3278   1.529   2.048   1.543 -0.4528  0.5760 -0.5435
  808SOL    HW3 3279   1.610   2.057   1.416  0.6175  0.0642  0.0983
  808SOL    MW4 3280   1.604   2.064   1.503 -0.1562  0.5867  0.0066
  809SOL     OW 3281   1.606   2.341   1.600  0.0619 -0.0610 -0.4405
  809SOL    HW2 3282   1.684   2.390   1.574 -0.7360  0.9036 -1.0375
  809SOL    HW3 3283   1.618   2.255   1.560  0.6391  0.2137 -0.8685
  809SOL    MW4 3284   1.618   2.336   1.591  0.0328  0.1025 -0.5757
  810SOL     OW 3285   1.381   2.464   1.481  0.1311  0.1008  0.0007
  810SOL    HW2 3286   1.379   2.556   1.509 -1.0152  0.0962 -0.0390
  810SOL    HW3 3287   1.463   2.430   1.517  0.6882  1.2080 -0.2100
  810SOL    MW4 3288   1.391   2.471   1.490  0.0534  0.2460 -0.0323
  811SOL     OW 3289   1.375   2.719   1.593  0.4792  0.1550  0.3973
  811SOL    HW2 3290   1.440   2.777   1.554 -0.7827  0.1661 -1.7970
  811SOL    HW3 3291   1.292   2.766   1.584 -0.3578 -1.3619 -0.1588
  811SOL    MW4 3292   1.372   2.733   1.587  0.2024 -0.0436  0.0343
  812SOL     OW 3293   1.618   2.835   1.498 -0.3572  0.5100  0.4092
  812SOL    HW2 3294   1.682   2.768   1.524 -0.1923  0.5786  0.1884
  812SOL    HW3 3295   1.624   2.837   1.402 -1.1002  0.1128  0.3494
  812SOL    MW4 3296   1.627   2.826   1.489 -0.4334  0.4668  0.3721
  813SOL     OW 3297   1.571   3.094   1.603  0.5891  0.5079 -0.0967
  813SOL    HW2 3298   1.639   3.140   1.554  0.8778  1.3344  1.0446
  813SOL    HW3 3299   1.590   3.001   1.589  1.4424  0.7370 -0.4928
  813SOL    MW4 3300   1.582   3.088   1.595  0.7398  0.6468  0.0017
  814SOL     OW 3301   1.332   3.190   1.495 -0.0462 -0.1449 -0.1979
  814SOL    HW2 3302   1.327   3.285   1.507 -0.0155 -0.1529 -0.1278
  814SOL    HW3 3303   1.401   3.162   1.554  0.7125 -0.0641 -1.0336
  814SOL    MW4 3304   1.341   3.199   1.504  0.0579 -0.1352 -0.2990
  815SOL     OW 3305   1.344   3.465   1.582 -0.3730  0.1723  0.3160
  815SOL    HW2 3306   1.368   3.469   1.675  0.1072 -1.5565  0.2883
  815SOL    HW3 3307   1.421   3.496   1.536 -1.1478  2.5048  0.5322
  815SOL    MW4 3308   1.357   3.469   1.588 -0.4120  0.2518  0.3408
  816SOL     OW 3309   1.584   3.610   1.201  0.0130 -0.4666  0.6210
  816SOL    HW2 3310   1.568   3.696   1.163  0.3156 -0.9916 -0.7236
  816SOL    HW3 3311   1.520   3.553   1.158  0.4333 -1.0921  0.8250
  816SOL    MW4 3312   1.573   3.614   1.191  0.1082 -0.6182  0.4705
  817SOL     OW 3313   1.590   3.564   1.474  0.3672 -0.1887 -0.0789
  817SOL    HW2 3314   1.585   3.657   1.498 -0.4165 -0.2611  0.0785
  817SOL    HW3 3315   1.591   3.563   1.379 -1.1842 -0.0681 -0.1130
  817SOL    MW4 3316   1.589   3.576   1.465  0.0591 -0.1822 -0.0626
  818SOL     OW 3317   1.599   3.829   1.551 -0.8927 -0.5049  0.0170
  818SOL    HW2 3318   1.603   3.828   1.647  0.3176 -0.3464 -0.0309
  818SOL    HW3 3319   1.517   3.874   1.531 -0.5496  0.5568  0.9595
  818SOL    MW4 3320   1.589   3.834   1.561 -0.6876 -0.3438  0.1351
  819SOL     OW 3321   1.334   4.249   1.585  0.1878 -0.0404 -0.1702
  819SOL    HW2 3322   1.408   4.295   1.544 -0.9910  1.1588 -1.0106
  819SOL    HW3 3323   1.260   4.308   1.573 -0.9369 -1.2748  0.5736
  819SOL    MW4 3324   1.334   4.263   1.578 -0.1160 -0.0448 -0.1830
  820SOL     OW 3325   1.539   4.352   1.438 -0.2364  0.7299 -0.0045
  820SOL    HW2 3326   1.615   4.305   1.475 -0.5128 -0.2654 -0.6853
  820SOL    HW3 3327   1.542   4.438   1.480  0.9010  0.4760  0.4641
  820SOL    MW4 3328   1.550   4.357   1.449 -0.1228  0.5646 -0.0324
  821SOL     OW 3329   2.027   4.617   1.573  0.2609  0.3753  0.6652
  821SOL    HW2 3330   2.032   4.621   1.668 -0.9951 -0.8065  0.8006
  821SOL    HW3 3331   1.941   4.652   1.551 -0.8352 -2.4254  0.2336
  821SOL    MW4 3332   2.017   4.622   1.582 -0.0496 -0.1502  0.6261
  822SOL     OW 3333   1.783   0.084   1.482  0.0308  0.0231  0.2233
  822SOL    HW2 3334   1.715   0.021   1.505  0.3580 -0.3093  0.2840
  822SOL    HW3 3335   1.796   0.071   1.388  0.4113 -0.3111  0.3198
  822SOL    MW4 3336   1.776   0.074   1.472  0.1241 -0.0649  0.2440
  823SOL     OW 3337   1.810   0.330   1.581  0.3653 -0.0559 -0.0149
  823SOL    HW2 3338   1.881   0.363   1.526  1.0197 -0.5954  0.5057
  823SOL    HW3 3339   1.788   0.245   1.542  0.8735 -0.4691  0.5900
  823SOL    MW4 3340   1.816   0.323   1.568  0.5187 -0.1816  0.1338
  824SOL     OW 3341   2.020   0.432   1.464  0.0702  0.2551  0.1748
  824SOL    HW2 3342   2.091   0.395   1.517 -0.7391 -0.9833  0.4045
  824SOL    HW3 3343   2.004   0.518   1.502  1.0352  0.2953  0.5034
  824SOL    MW4 3344   2.027   0.438   1.476  0.0908  0.0971  0.2486
  825SOL     OW 3345   2.009   0.707   1.596  0.2298 -0.7181 -0.2019
  825SOL    HW2 3346   2.086   0.753   1.561  0.4241  0.0764  1.2268
  825SOL    HW3 3347   1.934   0.750   1.554  0.5019 -0.4807 -0.4456
  825SOL    MW4 3348   2.009   0.719   1.586  0.2913 -0.5819 -0.0455
  826SOL     OW 3349   1.809   0.864   1.463  0.1603 -0.4099 -0.3748
  826SOL    HW2 3350   1.818   0.954   1.494  0.8062 -0.6024  0.0013
  826SOL    HW3 3351   1.727   0.833   1.503  0.7018 -0.4745  0.7137
  826SOL    MW4 3352   1.799   0.872   1.473  0.3171 -0.4438 -0.1816
  827SOL     OW 3353   1.822   1.127   1.603 -0.1691 -0.1675 -0.0343
  827SOL    HW2 3354   1.899   1.178   1.576 -0.6752  1.0216  0.7321
  827SOL    HW3 3355   1.816   1.140   1.697 -1.3058 -0.2467 -0.0881
  827SOL    MW4 3356   1.831   1.136   1.612 -0.3858 -0.0211  0.0598
  828SOL     OW 3357   2.053   1.259   1.508  0.5832  0.1569  0.4004
  828SOL    HW2 3358   2.056   1.348   1.542  0.6157  0.1551  0.4023
  828SOL    HW3 3359   2.025   1.268   1.417  0.5694  0.1677  0.4057
  828SOL    MW4 3360   2.050   1.272   1.500  0.5856  0.1581  0.4015
  829SOL     OW 3361   2.026   1.513   1.591 -0.2663  0.2661 -0.1295
  829SOL    HW2 3362   2.091   1.551   1.532 -1.2370 -0.2491 -1.5723
  829SOL    HW3 3363   1.945   1.560   1.571 -0.8380 -0.6367  0.0455
  829SOL    MW4 3364   2.024   1.524   1.581 -0.4697  0.0790 -0.2970
  830SOL     OW 3365   1.787   1.664   1.534  0.1275 -0.1081  0.4140
  830SOL    HW2 3366   1.704   1.620   1.553  1.0935 -2.6497 -0.8839
  830SOL    HW3 3367   1.794   1.661   1.439  1.2630  0.9621  0.4529
  830SOL    MW4 3368   1.777   1.657   1.524  0.4047 -0.3023  0.2478
  831SOL     OW 3369   1.822   1.932   1.638  0.6795  0.3568  0.0685
  831SOL    HW2 3370   1.807   1.841   1.610  0.5431 -0.1458  1.7301
  831SOL    HW3 3371   1.745   1.979   1.606 -0.4979 -0.6215  1.4018
  831SOL    MW4 3372   1.810   1.926   1.630  0.5062  0.1614  0.4636
  832SOL     OW 3373   1.999   2.068   1.496  0.2386 -0.1759  0.2013
  832SOL    HW2 3374   2.078   2.016   1.513  0.2691  0.1371  1.0385
  832SOL    HW3 3375   1.930   2.024   1.547  0.2887  0.6714  1.0040
  832SOL    MW4 3376   2.000   2.055   1.505  0.2493 -0.0229  0.4177
  833SOL     OW 3377   2.060   2.325   1.606  0.1086  0.1639 -0.3276
  833SOL    HW2 3378   2.068   2.326   1.702 -0.3701  0.2571 -0.2857
  833SOL    HW3 3379   2.056   2.232   1.584 -2.7843  0.1608  0.0203
  833SOL    MW4 3380   2.060   2.313   1.616 -0.3364  0.1760 -0.2762
  834SOL     OW 3381   1.837   2.448   1.508  0.4072  0.2921  0.1055
  834SOL    HW2 3382   1.920   2.416   1.542  0.6743  0.6135 -0.2513
  834SOL    HW3 3383   1.844   2.439   1.413  0.9545  2.5147 -0.0941
  834SOL    MW4 3384   1.849   2.443   1.500  0.5146  0.6273  0.0319
  835SOL     OW 3385   1.822   2.692   1.609  0.2074  0.1106 -0.2077
  835SOL    HW2 3386   1.904   2.732   1.580  0.2409  0.3532  0.2028
  835SOL    HW3 3387   1.829   2.600   1.584  0.6708  0.0984 -0.0374
  835SOL    MW4 3388   1.833   2.685   1.602  0.2729  0.1414 -0.1311
  836SOL     OW 3389   2.058   2.842   1.531 -0.0878 -0.3925 -0.3618
  836SOL    HW2 3390   2.032   2.929   1.562 -0.7660 -0.5466 -0.4873
  836SOL    HW3 3391   2.041   2.845   1.436 -1.8271 -1.2599 -0.0938
  836SOL    MW4 3392   2.052   2.854   1.522 -0.4067 -0.5271 -0.3431
  837SOL     OW 3393   1.993   3.102   1.598 -0.3189 -0.7805  0.4499
  837SOL    HW2 3394   2.079   3.134   1.571 -0.5982 -0.0435  0.4202
  837SOL    HW3 3395   1.998   3.101   1.694 -0.3886 -0.4109  0.4601
  837SOL    MW4 3396   2.005   3.106   1.607 -0.3648 -0.6344  0.4473
  838SOL     OW 3397   1.795   3.229   1.462  0.3379  0.3025 -0.0124
  838SOL    HW2 3398   1.810   3.317   1.494  1.5578  0.1366 -0.0934
  838SOL    HW3 3399   1.867   3.177   1.499  0.3643 -0.3895 -1.0137
  838SOL    MW4 3400   1.807   3.233   1.471  0.5023  0.1891 -0.1553
  839SOL     OW 3401   1.855   3.480   1.595 -0.1345  0.0058 -0.2750
  839SOL    HW2 3402   1.824   3.463   1.684  0.5873  3.3907  0.7087
  839SOL    HW3 3403   1.778   3.517   1.550  0.5774  2.2101  0.2331
  839SOL    MW4 3404   1.841   3.483   1.601  0.0546  0.7432 -0.0783
  840SOL     OW 3405   2.060   3.632   1.488 -0.7627  0.3467  0.3489
  840SOL    HW2 3406   2.141   3.592   1.519 -0.4382  0.7793  0.0675
  840SOL    HW3 3407   1.990   3.578   1.525 -0.3082 -1.5005 -1.4304
  840SOL    MW4 3408   2.061   3.620   1.497 -0.6599  0.1600  0.0772
  841SOL     OW 3409   2.043   3.906   1.554  0.1012  0.4439 -0.2595
  841SOL    HW2 3410   2.121   3.948   1.518  0.4683 -0.3201 -0.3654
  841SOL    HW3 3411   2.050   3.815   1.527 -1.5274  0.6481 -1.4214
  841SOL    MW4 3412   2.054   3.899   1.546 -0.0653  0.3700 -0.4268
  842SOL     OW 3413   1.803   3.985   1.441 -0.6754 -0.6548 -0.4224
  842SOL    HW2 3414   1.883   3.959   1.486 -0.4047  0.0735 -0.4688
  842SOL    HW3 3415   1.735   3.928   1.478 -0.4473 -0.1110  0.8738
  842SOL    MW4 3416   1.805   3.974   1.452 -0.6095 -0.4869 -0.2575
  843SOL     OW 3417   1.763   4.250   1.549 -0.2106  0.0649 -0.1709
  843SOL    HW2 3418   1.831   4.307   1.512 -0.0138  0.4528  0.7613
  843SOL    HW3 3419   1.791   4.161   1.527 -0.3743  0.3060 -1.4006
  843SOL    MW4 3420   1.775   4.246   1.541 -0.2061  0.1478 -0.2102
  844SOL     OW 3421   1.997   4.356   1.448 -0.3870  0.4447  0.0547
  844SOL    HW2 3422   2.070   4.309   1.488 -1.4763 -0.3581  1.1376
  844SOL    HW3 3423   2.005   4.445   1.483 -0.4255  0.1407  0.8445
  844SOL    MW4 3424   2.008   4.362   1.458 -0.5360  0.2985  0.3017
  845SOL     OW 3425   2.503   4.590   1.570 -0.3121 -0.4609 -0.2243
  845SOL    HW2 3426   2.478   4.582   1.662  1.0165 -2.6257 -0.0144
  845SOL    HW3 3427   2.431   4.640   1.530 -0.9167  0.4883  1.9591
  845SOL    MW4 3428   2.490   4.596   1.577 -0.2162 -0.6218  0.0914
  846SOL     OW 3429   2.265   0.073   1.508  0.0514 -0.1461 -0.4906
  846SOL    HW2 3430   2.181   0.030   1.523 -0.1678  0.4521  0.0742
  846SOL    HW3 3431   2.264   0.097   1.416 -1.1626  1.4067 -0.1046
  846SOL    MW4 3432   2.254   0.071   1.498 -0.1378  0.1377 -0.3651
  847SOL     OW 3433   2.266   0.338   1.566 -0.2070  0.0827  0.4273
  847SOL    HW2 3434   2.249   0.350   1.660 -1.4169  0.3195  0.1820
  847SOL    HW3 3435   2.267   0.243   1.554 -1.3175  0.0546  0.4677
  847SOL    MW4 3436   2.264   0.327   1.577 -0.5128  0.1103  0.4003
  848SOL     OW 3437   2.484   0.484   1.496  0.0943 -0.2170 -0.2943
  848SOL    HW2 3438   2.551   0.426   1.532 -0.3279 -0.5370 -0.0160
  848SOL    HW3 3439   2.401   0.444   1.524 -0.1795  1.4588  1.4060
  848SOL    MW4 3440   2.482   0.471   1.505  0.0024 -0.0380 -0.0333
  849SOL     OW 3441   2.492   0.747   1.575 -0.5518  0.2107 -0.1675
  849SOL    HW2 3442   2.412   0.782   1.536 -0.8117 -0.4026 -0.1752
  849SOL    HW3 3443   2.490   0.653   1.556  1.7430  0.6349 -2.9962
  849SOL    MW4 3444   2.481   0.739   1.567 -0.2835  0.1857 -0.5418
  850SOL     OW 3445   2.232   0.852   1.496  0.2482  0.0274 -0.6005
  850SOL    HW2 3446   2.240   0.942   1.528 -0.9593 -0.1987  0.3553
  850SOL    HW3 3447   2.236   0.859   1.401  0.4857  1.0512 -0.5141
  850SOL    MW4 3448   2.234   0.865   1.488  0.1204  0.1326 -0.4630
  851SOL     OW 3449   2.253   1.101   1.587 -0.1359 -0.7185  0.4598
  851SOL    HW2 3450   2.245   1.114   1.682  0.7860  2.2341  0.2005
  851SOL    HW3 3451   2.176   1.146   1.551  0.3632 -0.4319 -0.2563
  851SOL    MW4 3452   2.241   1.109   1.595  0.0517 -0.2911  0.3310
  852SOL     OW 3453   2.454   1.258   1.488 -0.2149  0.2651  0.2275
  852SOL    HW2 3454   2.381   1.205   1.520  0.1719 -0.4919 -0.1363
  852SOL    HW3 3455   2.443   1.261   1.394 -1.1614  2.2210  0.3890
  852SOL    MW4 3456   2.443   1.251   1.480 -0.2887  0.4232  0.2010
  853SOL     OW 3457   2.465   1.525   1.592 -0.7168 -0.2520 -0.1762
  853SOL    HW2 3458   2.551   1.553   1.561 -1.6605  0.9198 -1.8115
  853SOL    HW3 3459   2.459   1.433   1.567  1.3979 -1.3661  3.0000
  853SOL    MW4 3460   2.476   1.516   1.585 -0.5622 -0.2444  0.0272
  854SOL     OW 3461   2.252   1.675   1.466  0.1908 -0.7375 -0.1018
  854SOL    HW2 3462   2.334   1.637   1.497  0.2863 -0.4358  0.0200
  854SOL    HW3 3463   2.263   1.682   1.371  0.8431  0.5575  0.0576
  854SOL    MW4 3464   2.265   1.671   1.458  0.2894 -0.5268 -0.0646
  855SOL     OW 3465   2.212   1.942   1.588  0.4458  0.1186  0.4787
  855SOL    HW2 3466   2.205   1.924   1.682  0.4221  0.4833  0.5469
  855SOL    HW3 3467   2.230   1.857   1.549 -0.7415 -0.2321  0.6813
  855SOL    MW4 3468   2.214   1.929   1.595  0.2861  0.1205  0.5144
  856SOL     OW 3469   2.476   2.044   1.520  0.1309  0.5408 -0.0002
  856SOL    HW2 3470   2.391   2.020   1.557  0.0469 -2.1805 -1.8100
  856SOL    HW3 3471   2.461   2.045   1.426  2.4679 -1.5837 -0.4262
  856SOL    MW4 3472   2.463   2.041   1.513  0.4280 -0.0987 -0.2952
  857SOL     OW 3473   2.493   2.310   1.587  0.2785  0.5012  0.0599
  857SOL    HW2 3474   2.488   2.313   1.682  0.1985  0.3125  0.0625
  857SOL    HW3 3475   2.499   2.217   1.566 -0.0948  0.5185 -0.1381
  857SOL    MW4 3476   2.493   2.298   1.596  0.2186  0.4785  0.0341
  858SOL     OW 3477   2.277   2.467   1.491 -0.4047 -0.1675  0.1590
  858SOL    HW2 3478   2.351   2.414   1.520 -0.6768 -0.4274  0.3782
  858SOL    HW3 3479   2.200   2.426   1.531 -1.0344 -1.8387 -2.5916
  858SOL    MW4 3480   2.276   2.454   1.500 -0.5236 -0.4222 -0.1752
  859SOL     OW 3481   2.252   2.696   1.660 -0.7825  0.0606 -0.2917
  859SOL    HW2 3482   2.269   2.617   1.609 -0.2873  0.2627 -0.4343
  859SOL    HW3 3483   2.190   2.746   1.607 -0.3586  0.2152 -0.6408
  859SOL    MW4 3484   2.246   2.692   1.647 -0.6611  0.1075 -0.3566
  860SOL     OW 3485   2.447   2.826   1.519 -0.0426  0.2979  0.3057
  860SOL    HW2 3486   2.461   2.915   1.551  1.8527 -0.3498  1.4022
  860SOL    HW3 3487   2.374   2.793   1.571 -0.5729  1.1234  0.0865
  860SOL    MW4 3488   2.439   2.833   1.530  0.1373  0.3214  0.4213
  861SOL     OW 3489   2.455   3.084   1.617  0.2243 -0.1615  0.1934
  861SOL    HW2 3490   2.522   3.130   1.567  0.6438 -0.2304  0.6793
  861SOL    HW3 3491   2.372   3.123   1.589  0.2374 -1.9034 -2.3407
  861SOL    MW4 3492   2.453   3.095   1.607  0.2813 -0.4003 -0.0769
  862SOL     OW 3493   2.234   3.214   1.501 -0.0168 -0.1982 -0.3024
  862SOL    HW2 3494   2.233   3.306   1.530  1.2393 -0.6614  1.3044
  862SOL    HW3 3495   2.250   3.219   1.407 -1.9394  1.2922 -0.5668
  862SOL    MW4 3496   2.236   3.227   1.493 -0.1047 -0.0627 -0.1253
  863SOL     OW 3497   2.290   3.489   1.567 -0.2836 -0.4248  0.2053
  863SOL    HW2 3498   2.296   3.478   1.662 -0.1056  0.0411  0.2473
  863SOL    HW3 3499   2.368   3.538   1.543  0.2090 -1.4558 -0.3303
  863SOL    MW4 3500   2.301   3.494   1.576 -0.1953 -0.4992  0.1402
  864SOL     OW 3501   2.509   3.642   1.452 -0.1108  0.2474 -0.8809
  864SOL    HW2 3502   2.579   3.594   1.497 -0.1414  0.1942 -0.8892
  864SOL    HW3 3503   2.519   3.733   1.480 -1.1369 -0.0601  0.5187
  864SOL    MW4 3504   2.519   3.647   1.461 -0.2501  0.1996 -0.6974
  865SOL     OW 3505   2.504   3.888   1.563  0.2100 -0.0150 -0.4690
  865SOL    HW2 3506   2.475   3.891   1.654  1.2957 -0.4762 -0.1048
  865SOL    HW3 3507   2.585   3.939   1.562 -0.6328  1.3314 -1.4945
  865SOL    MW4 3508   2.511   3.895   1.575  0.2418  0.1018 -0.5562
  866SOL     OW 3509   2.282   4.024   1.450  0.1014  0.2645 -0.0412
  866SOL    HW2 3510   2.365   3.989   1.483  0.5378  0.0704 -1.3094
  866SOL    HW3 3511   2.291   4.020   1.354 -0.6984  1.8160 -0.1908
  866SOL    MW4 3512   2.294   4.019   1.442  0.0534  0.4435 -0.2280
  867SOL     OW 3513   2.232   4.255   1.565 -0.2180  0.1497  0.6556
  867SOL    HW2 3514   2.301   4.315   1.538 -0.9161  0.5180 -0.3505
  867SOL    HW3 3515   2.257   4.171   1.528 -0.2564  0.2587  0.3826
  867SOL    MW4 3516   2.244   4.252   1.557 -0.3152  0.2127  0.4869
  868SOL     OW 3517   2.466   4.341   1.444  0.3710  0.2689  0.0609
  868SOL    HW2 3518   2.494   4.428   1.473  0.7052  0.3835 -0.5805
  868SOL    HW3 3519   2.463   4.348   1.348  2.1695 -0.9517 -0.1058
  868SOL    MW4 3520   2.469   4.353   1.435  0.6523  0.1235 -0.0457
  869SOL     OW 3521   2.972   4.595   1.615  0.1917  0.4020 -0.8632
  869SOL    HW2 3522   2.980   4.605   1.710 -0.1196 -0.4802 -0.7332
  869SOL    HW3 3523   2.891   4.641   1.594 -0.8343 -1.1074 -0.3843
  869SOL    MW4 3524   2.962   4.602   1.625  0.0153  0.0863 -0.7828
  870SOL     OW 3525   2.737   0.076   1.535  0.0406 -0.0859  0.5058
  870SOL    HW2 3526   2.721   0.169   1.545  0.2520 -0.1927  1.9132
  870SOL    HW3 3527   2.655   0.034   1.561  0.2771 -0.3317  0.8631
  870SOL    MW4 3528   2.724   0.083   1.539  0.0999 -0.1324  0.7386
  871SOL     OW 3529   2.684   0.334   1.590  0.1099 -0.3252  0.0754
  871SOL    HW2 3530   2.676   0.347   1.685 -0.5339 -0.3745  0.0332
  871SOL    HW3 3531   2.757   0.390   1.564 -0.2044  0.2796  0.4811
  871SOL    MW4 3532   2.693   0.343   1.599 -0.0165 -0.2519  0.1234
  872SOL     OW 3533   2.906   0.478   1.524 -0.0320 -0.2877 -0.2553
  872SOL    HW2 3534   2.912   0.568   1.557  0.5728 -0.7923  1.0284
  872SOL    HW3 3535   2.927   0.485   1.431  2.4024  0.5544  0.3399
  872SOL    MW4 3536   2.909   0.491   1.516  0.3691 -0.2432 -0.0074
  873SOL     OW 3537   2.924   0.740   1.613 -0.2400  0.2254  0.0847
  873SOL    HW2 3538   2.921   0.735   1.708 -0.5121 -0.7093  0.0383
  873SOL    HW3 3539   2.860   0.807   1.590 -1.1836 -0.5074  0.5006
  873SOL    MW4 3540   2.915   0.748   1.622 -0.4005  0.0053  0.1334
  874SOL     OW 3541   2.716   0.909   1.558 -0.1820 -0.6053  0.4052
  874SOL    HW2 3542   2.645   0.846   1.571  0.3403 -1.2592  0.0999
  874SOL    HW3 3543   2.709   0.934   1.465 -0.6135  0.0629  0.6133
  874SOL    MW4 3544   2.706   0.904   1.547 -0.1702 -0.6034  0.3926
  875SOL     OW 3545   2.677   1.171   1.626  0.5315 -0.5598 -0.5292
  875SOL    HW2 3546   2.679   1.076   1.613 -0.8941 -0.8336  1.1219
  875SOL    HW3 3547   2.602   1.200   1.574  0.5493 -0.4129 -0.4709
  875SOL    MW4 3548   2.667   1.162   1.617  0.3459 -0.5765 -0.3037
  876SOL     OW 3549   2.919   1.262   1.510 -0.0205  0.2317  0.3288
  876SOL    HW2 3550   2.990   1.203   1.536  0.1105  0.0530 -0.4205
  876SOL    HW3 3551   2.841   1.226   1.553 -0.1199 -1.0557 -0.9022
  876SOL    MW4 3552   2.918   1.250   1.519 -0.0165  0.0383  0.0676
  877SOL     OW 3553   2.912   1.531   1.623 -0.2603  0.0392 -0.5629
  877SOL    HW2 3554   2.833   1.573   1.587 -0.5437  1.4590  1.5908
  877SOL    HW3 3555   2.913   1.445   1.583 -2.8845  0.0221 -0.7243
  877SOL    MW4 3556   2.902   1.525   1.613 -0.6440  0.2244 -0.3002
  878SOL     OW 3557   2.695   1.646   1.494  0.3808 -0.4280 -0.0560
  878SOL    HW2 3558   2.704   1.739   1.515  0.5849  0.0976 -2.3419
  878SOL    HW3 3559   2.693   1.643   1.398  0.6415 -2.8149 -0.0153
  878SOL    MW4 3560   2.696   1.658   1.484  0.4423 -0.6734 -0.3521
  879SOL     OW 3561   2.692   1.909   1.602 -0.3523 -0.2318  0.1445
  879SOL    HW2 3562   2.610   1.938   1.560 -0.4233 -1.8017 -0.8170
  879SOL    HW3 3563   2.678   1.926   1.695 -1.1959  0.8958 -0.1776
  879SOL    MW4 3564   2.679   1.915   1.609 -0.4728 -0.2902 -0.0247
  880SOL     OW 3565   2.931   2.040   1.461  0.5649 -0.2485 -0.3330
  880SOL    HW2 3566   2.938   2.128   1.498 -0.4805 -0.2482 -0.1182
  880SOL    HW3 3567   2.860   1.999   1.511  0.6990 -1.0361 -0.7833
  880SOL    MW4 3568   2.923   2.046   1.473  0.4444 -0.3526 -0.3641
  881SOL     OW 3569   2.956   2.297   1.574  0.2358 -0.1612  0.0870
  881SOL    HW2 3570   2.955   2.292   1.670  1.0059 -1.3000  0.0432
  881SOL    HW3 3571   2.870   2.333   1.552 -0.0022 -0.0002  1.2004
  881SOL    MW4 3572   2.944   2.301   1.584  0.3061 -0.2899  0.2282
  882SOL     OW 3573   2.727   2.444   1.526 -0.2618  0.0452 -0.4042
  882SOL    HW2 3574   2.726   2.529   1.570 -0.2715 -0.1860  0.0505
  882SOL    HW3 3575   2.646   2.402   1.555  0.1230 -0.4319 -0.0004
  882SOL    MW4 3576   2.716   2.450   1.536 -0.2124 -0.0482 -0.2910
  883SOL     OW 3577   2.702   2.711   1.623  0.0888  0.1707  0.3936
  883SOL    HW2 3578   2.776   2.751   1.577  0.1033  0.1000  0.3560
  883SOL    HW3 3579   2.625   2.752   1.583 -0.0050 -1.7139 -1.4411
  883SOL    MW4 3580   2.701   2.722   1.611  0.0782 -0.0875  0.1467
  884SOL     OW 3581   2.914   2.834   1.488 -0.4203 -0.0019 -0.1424
  884SOL    HW2 3582   2.996   2.803   1.528  0.1849  1.2381 -0.4131
  884SOL    HW3 3583   2.910   2.927   1.511 -0.4091  0.5690 -2.3575
  884SOL    MW4 3584   2.925   2.842   1.497 -0.3390  0.2367 -0.4703
  885SOL     OW 3585   2.932   3.111   1.536 -0.3013  0.2385  0.8168
  885SOL    HW2 3586   2.935   3.115   1.632  0.4548  2.4520  0.7241
  885SOL    HW3 3587   3.023   3.125   1.509 -0.2774 -1.7363 -0.2000
  885SOL    MW4 3588   2.944   3.113   1.545 -0.1984  0.2699  0.6703
  886SOL     OW 3589   2.660   3.194   1.481 -0.1471 -0.1355  0.0435
  886SOL    HW2 3590   2.752   3.171   1.486 -0.1884 -0.2693  0.1987
  886SOL    HW3 3591   2.643   3.203   1.387 -0.0462 -0.4046 -0.0030
  886SOL    MW4 3592   2.670   3.192   1.469 -0.1392 -0.1888  0.0578
  887SOL     OW 3593   2.723   3.469   1.554 -0.2265  0.3852  0.0085
  887SOL    HW2 3594   2.721   3.474   1.649  0.5107  0.9280 -0.0041
  887SOL    HW3 3595   2.706   3.377   1.535  0.6305  0.0795  0.7009
  887SOL    MW4 3596   2.721   3.457   1.564 -0.0165  0.4165  0.0982
  888SOL     OW 3597   2.975   3.578   1.507  0.3183  0.0159  0.0765
  888SOL    HW2 3598   2.889   3.541   1.529  0.7066 -0.1282  1.4011
  888SOL    HW3 3599   2.976   3.580   1.411 -1.1562  0.0042  0.0453
  888SOL    MW4 3600   2.964   3.573   1.497  0.1750 -0.0048  0.2471
  889SOL     OW 3601   2.983   3.830   1.607  0.6466 -0.2844 -0.2566
  889SOL    HW2 3602   2.913   3.878   1.561  0.3682  0.1317  0.6008
  889SOL    HW3 3603   2.982   3.743   1.566 -0.6993 -0.4381  0.0574
  889SOL    MW4 3604   2.973   3.825   1.595  0.4323 -0.2496 -0.1020
  890SOL     OW 3605   2.766   3.969   1.491  0.1039  0.2621  0.2115
  890SOL    HW2 3606   2.755   4.056   1.530 -0.6825 -0.4570  1.6202
  890SOL    HW3 3607   2.765   3.985   1.397 -1.2495  1.6406  0.4422
  890SOL    MW4 3608   2.765   3.983   1.484 -0.1786  0.3490  0.4277
  891SOL     OW 3609   2.694   4.226   1.589  0.6839 -0.2204 -0.2470
  891SOL    HW2 3610   2.772   4.279   1.572 -0.4625  0.8600 -2.2923
  891SOL    HW3 3611   2.628   4.261   1.529 -2.1514  0.5621  3.1890
  891SOL    MW4 3612   2.696   4.238   1.579  0.1588  0.0257 -0.0635
  892SOL     OW 3613   2.951   4.324   1.524  0.0270  0.2740  0.0150
  892SOL    HW2 3614   2.961   4.410   1.565 -1.9139  0.0551  0.9650
  892SOL    HW3 3615   2.932   4.343   1.433  2.1304  0.7890 -0.3603
  892SOL    MW4 3616   2.950   4.338   1.518  0.0486  0.3123  0.0907
  893SOL     OW 3617   3.406   4.640   1.661 -0.0372 -0.2696  0.1465
  893SOL    HW2 3618   3.474   4.689   1.616 -0.1827 -0.3068 -0.1169
  893SOL    HW3 3619   3.405   4.555   1.616  1.0480 -0.9491  1.3946
  893SOL    MW4 3620   3.415   4.635   1.649  0.0865 -0.3638  0.2764
  894SOL     OW 3621   3.193   0.053   1.500 -0.3775  0.0397 -0.1968
  894SOL    HW2 3622   3.266   0.034   1.559 -0.9910  0.2909  0.6478
  894SOL    HW3 3623   3.119   0.005   1.538 -1.2312  1.7031  0.3008
  894SOL    MW4 3624   3.193   0.044   1.513 -0.5713  0.2923 -0.0198
  895SOL     OW 3625   3.173   0.322   1.583  0.0417  0.8322 -0.6894
  895SOL    HW2 3626   3.172   0.230   1.556 -0.4573  0.1035  1.6831
  895SOL    HW3 3627   3.084   0.353   1.568  0.2215  0.9487 -1.5315
  895SOL    MW4 3628   3.161   0.314   1.578 -0.0002  0.7515 -0.4874
  896SOL     OW 3629   3.389   0.488   1.529  0.2204 -0.1517  0.6132
  896SOL    HW2 3630   3.319   0.426   1.550  0.8226 -0.8347  0.5984
  896SOL    HW3 3631   3.392   0.490   1.433 -0.2828  0.4459  0.6085
  896SOL    MW4 3632   3.380   0.480   1.519  0.2334 -0.1629  0.6107
  897SOL     OW 3633   3.337   0.748   1.606 -0.2896 -0.0538  0.0967
  897SOL    HW2 3634   3.333   0.752   1.702  0.5206 -1.8772  0.2417
  897SOL    HW3 3635   3.366   0.658   1.588  0.3835  0.5449 -1.8393
  897SOL    MW4 3636   3.340   0.736   1.616 -0.0939 -0.2154 -0.1396
  898SOL     OW 3637   3.125   0.835   1.452  0.0052 -0.3725 -0.0995
  898SOL    HW2 3638   3.200   0.817   1.508  0.3243 -0.0512 -0.4239
  898SOL    HW3 3639   3.051   0.791   1.496  0.7472 -2.3860 -0.8185
  898SOL    MW4 3640   3.125   0.827   1.465  0.1454 -0.5957 -0.2371
  899SOL     OW 3641   3.122   1.092   1.565 -0.4448 -0.0544 -0.2552
  899SOL    HW2 3642   3.120   1.083   1.660 -2.1982  0.7108 -0.2046
  899SOL    HW3 3643   3.127   1.001   1.533  0.0268 -0.3213  0.5549
  899SOL    MW4 3644   3.123   1.079   1.574 -0.6137  0.0114 -0.1415
  900SOL     OW 3645   3.340   1.253   1.529  0.2204  0.1342 -0.0904
  900SOL    HW2 3646   3.430   1.218   1.535 -0.3412 -1.1265  1.5400
  900SOL    HW3 3647   3.284   1.176   1.539 -1.0457  1.0422 -0.0725
  900SOL    MW4 3648   3.345   1.238   1.531 -0.0210  0.0876  0.1271
  901SOL     OW 3649   3.344   1.536   1.594  0.1044 -0.2736  0.0055
  901SOL    HW2 3650   3.348   1.524   1.689 -2.3933  0.1464  0.1949
  901SOL    HW3 3651   3.343   1.446   1.559 -1.2207 -0.4560  0.4994
  901SOL    MW4 3652   3.345   1.522   1.602 -0.4001 -0.2421  0.0956
  902SOL     OW 3653   3.115   1.656   1.485 -0.1376 -0.5138 -0.4265
  902SOL    HW2 3654   3.188   1.605   1.518  1.3635  1.5283 -0.4983
  902SOL    HW3 3655   3.038   1.620   1.530  1.1835 -1.2122  1.3135
  902SOL    MW4 3656   3.114   1.645   1.495  0.2348 -0.3365 -0.2065
  903SOL     OW 3657   3.137   1.925   1.612  0.1156  0.4255 -0.0086
  903SOL    HW2 3658   3.128   1.835   1.579 -1.3532  0.2079  0.9532
  903SOL    HW3 3659   3.069   1.974   1.567  1.1604  1.1694 -0.8164
  903SOL    MW4 3660   3.127   1.920   1.602  0.0596  0.4950  0.0116
  904SOL     OW 3661   3.389   2.042   1.536  0.4537 -0.2356  0.4120
  904SOL    HW2 3662   3.314   1.996   1.575  1.4055 -1.6499  0.6129
  904SOL    HW3 3663   3.373   2.037   1.441  0.4305 -0.7897  0.4415
  904SOL    MW4 3664   3.377   2.035   1.528  0.5763 -0.4954  0.4424
  905SOL     OW 3665   3.384   2.302   1.590  0.7162  0.1056 -0.1268
  905SOL    HW2 3666   3.472   2.335   1.570  0.5986  0.8383  0.5535
  905SOL    HW3 3667   3.387   2.210   1.564  2.3269 -0.4283  1.8226
  905SOL    MW4 3668   3.396   2.294   1.584  0.9131  0.1318  0.2202
  906SOL     OW 3669   3.147   2.481   1.487  0.0832  0.2651  0.0070
  906SOL    HW2 3670   3.222   2.430   1.516  0.9036  1.1218 -0.5825
  906SOL    HW3 3671   3.071   2.430   1.516  0.8772 -0.1932  1.3522
  906SOL    MW4 3672   3.147   2.468   1.495  0.2959  0.3178  0.1068
  907SOL     OW 3673   3.147   2.732   1.592 -0.6834  0.2242 -0.1550
  907SOL    HW2 3674   3.240   2.754   1.591 -0.6494  0.0818 -0.2213
  907SOL    HW3 3675   3.143   2.646   1.549 -0.9137  0.5061 -0.7014
  907SOL    MW4 3676   3.159   2.723   1.586 -0.7093  0.2422 -0.2358
  908SOL     OW 3677   3.407   2.831   1.519  0.1801 -0.5689  0.0832
  908SOL    HW2 3678   3.400   2.925   1.536  2.4425 -0.4208  0.3606
  908SOL    HW3 3679   3.371   2.820   1.431  0.4054  0.6487 -0.1715
  908SOL    MW4 3680   3.401   2.842   1.510  0.5083 -0.3889  0.0862
  909SOL     OW 3681   3.423   3.093   1.576 -0.2816  0.0663  0.3963
  909SOL    HW2 3682   3.419   3.088   1.672  0.7512  0.9841  0.5020
  909SOL    HW3 3683   3.511   3.127   1.558 -0.9028  1.0627 -0.8184
  909SOL    MW4 3684   3.434   3.097   1.586 -0.2272  0.3188  0.2500
  910SOL     OW 3685   3.191   3.203   1.486  0.0597  0.3052  0.2302
  910SOL    HW2 3686   3.275   3.177   1.522 -0.0793  0.8486  0.9590
  910SOL    HW3 3687   3.205   3.209   1.392  0.1153 -2.3392  0.0286
  910SOL    MW4 3688   3.204   3.200   1.479  0.0486  0.0281  0.2998
  911SOL     OW 3689   3.186   3.449   1.642  0.1118  0.2187  0.0416
  911SOL    HW2 3690   3.196   3.374   1.583  0.0216  0.5471 -0.4033
  911SOL    HW3 3691   3.115   3.501   1.601 -1.1417 -0.4279  1.3618
  911SOL    MW4 3692   3.178   3.446   1.629 -0.0651  0.1769  0.1571
  912SOL     OW 3693   3.431   3.559   1.530  0.1865  0.2256  0.1797
  912SOL    HW2 3694   3.505   3.535   1.586  0.6680 -1.9732 -1.3260
  912SOL    HW3 3695   3.354   3.527   1.576  0.4083  0.1581  0.5032
  912SOL    MW4 3696   3.431   3.552   1.543  0.2794 -0.0734  0.0238
  913SOL     OW 3697   3.400   3.832   1.605 -0.2999  0.5190 -0.4099
  913SOL    HW2 3698   3.321   3.876   1.573 -0.7909  1.2167  1.6766
  913SOL    HW3 3699   3.388   3.740   1.580 -1.3268  0.7920 -0.9563
  913SOL    MW4 3700   3.388   3.826   1.598 -0.5004  0.6471 -0.2067
  914SOL     OW 3701   3.203   3.972   1.507  0.1933  0.0839 -0.1477
  914SOL    HW2 3702   3.200   4.062   1.541  2.2196 -0.2228  0.8974
  914SOL    HW3 3703   3.128   3.929   1.547  0.8355  0.5497  1.5919
  914SOL    MW4 3704   3.192   3.979   1.517  0.5453  0.1049  0.2196
  915SOL     OW 3705   3.203   4.238   1.609  0.1224  0.2480 -0.2811
  915SOL    HW2 3706   3.201   4.224   1.704  1.1451  1.8810  0.0158
  915SOL    HW3 3707   3.115   4.268   1.587 -0.4876 -1.3392 -0.0688
  915SOL    MW4 3708   3.191   4.240   1.619  0.1769  0.2542 -0.2141
  916SOL     OW 3709   3.399   4.389   1.491  0.8723  0.5096  0.4448
  916SOL    HW2 3710   3.324   4.339   1.524  0.7202 -0.6602 -1.5553
  916SOL    HW3 3711   3.391   4.383   1.396  2.6935  1.6298  0.1963
  916SOL    MW4 3712   3.388   4.382   1.483  1.0927  0.5031  0.1481
  917SOL     OW 3713   3.810   4.642   1.628  0.4165  0.4103  0.0330
  917SOL    HW2 3714   3.815   4.655   1.723 -1.2094  1.0912  0.0275
  917SOL    HW3 3715   3.889   4.685   1.594  0.0959  1.6996  0.9104
  917SOL    MW4 3716   3.821   4.649   1.636  0.1597  0.6704  0.1479
  918SOL     OW 3717   3.596   0.129   1.529  0.2956 -0.6901 -0.2152
  918SOL    HW2 3718   3.673   0.077   1.554  0.7558 -0.2047 -0.6219
  918SOL    HW3 3719   3.607   0.144   1.435  1.0821  1.6548  0.2202
  918SOL    MW4 3720   3.608   0.124   1.520  0.4601 -0.3167 -0.2114
  919SOL     OW 3721   3.613   0.386   1.637 -0.5434 -0.0414 -0.0015
  919SOL    HW2 3722   3.613   0.296   1.606  0.5100 -0.0494  0.0264
  919SOL    HW3 3723   3.529   0.422   1.605 -1.3320 -1.2515  0.6812
  919SOL    MW4 3724   3.602   0.379   1.629 -0.5085 -0.2021  0.0923
  920SOL     OW 3725   3.823   0.517   1.533 -0.3642 -0.1830 -0.3786
  920SOL    HW2 3726   3.747   0.470   1.567 -0.4568 -0.7845 -1.3931
  920SOL    HW3 3727   3.810   0.519   1.438  0.3778  0.6004 -0.4696
  920SOL    MW4 3728   3.811   0.511   1.525 -0.2785 -0.1590 -0.5244
  921SOL     OW 3729   3.821   0.786   1.646 -0.0242 -0.0276  0.0117
  921SOL    HW2 3730   3.738   0.823   1.616  0.5639  1.5350  0.2749
  921SOL    HW3 3731   3.826   0.700   1.604 -1.4452  0.1650 -0.5618
  921SOL    MW4 3732   3.811   0.779   1.637 -0.1342  0.2041 -0.0293
  922SOL     OW 3733   3.576   0.894   1.547  0.1065  0.2699  0.1304
  922SOL    HW2 3734   3.500   0.846   1.580  1.2143 -1.5869  0.1091
  922SOL    HW3 3735   3.566   0.891   1.451  1.2170 -1.7761  0.0448
  922SOL    MW4 3736   3.565   0.887   1.538  0.3989 -0.2450  0.1162
  923SOL     OW 3737   3.608   1.149   1.611 -0.1158  0.8456  0.4628
  923SOL    HW2 3738   3.667   1.199   1.555 -1.2063  1.8986  0.2352
  923SOL    HW3 3739   3.625   1.057   1.587  0.8133  1.1784 -0.1956
  923SOL    MW4 3740   3.618   1.143   1.600 -0.1371  1.0285  0.3459
  924SOL     OW 3741   3.804   1.266   1.460 -0.1966 -0.1424  0.1489
  924SOL    HW2 3742   3.871   1.221   1.512  2.7900  2.1615 -1.5276
  924SOL    HW3 3743   3.815   1.359   1.481 -1.0522  0.5364 -2.1748
  924SOL    MW4 3744   3.814   1.272   1.470  0.0844  0.2509 -0.3790
  925SOL     OW 3745   3.838   1.519   1.565 -0.1230  0.3530  0.1984
  925SOL    HW2 3746   3.845   1.513   1.660 -0.8764 -0.4881  0.2086
  925SOL    HW3 3747   3.749   1.549   1.549 -1.0341 -2.4022 -0.3032
  925SOL    MW4 3748   3.827   1.522   1.575 -0.3426 -0.1214  0.1336
  926SOL     OW 3749   3.586   1.625   1.514  0.3287 -0.4506  0.2452
  926SOL    HW2 3750   3.502   1.599   1.552 -0.0758  0.5360  0.0245
  926SOL    HW3 3751   3.568   1.637   1.421  0.8655 -0.8909  0.0822
  926SOL    MW4 3752   3.573   1.623   1.507  0.3462 -0.3785  0.1945
  927SOL     OW 3753   3.604   1.900   1.627 -0.0744  0.1199  0.5428
  927SOL    HW2 3754   3.599   1.818   1.577  1.2409 -0.4200  1.2653
  927SOL    HW3 3755   3.531   1.953   1.594 -0.7434 -1.2123 -0.1613
  927SOL    MW4 3756   3.594   1.896   1.616  0.0110 -0.1272  0.5454
  928SOL     OW 3757   3.827   2.039   1.552 -0.0379  0.4580 -0.2086
  928SOL    HW2 3758   3.827   2.131   1.579 -0.9741  0.7759 -1.2142
  928SOL    HW3 3759   3.754   2.000   1.600 -0.6709  0.6372 -1.0102
  928SOL    MW4 3760   3.817   2.046   1.562 -0.2451  0.5236 -0.4470
  929SOL     OW 3761   3.849   2.311   1.622  0.4304  0.0181 -0.0496
  929SOL    HW2 3762   3.836   2.314   1.717  1.5445 -1.7833  0.1961
  929SOL    HW3 3763   3.929   2.361   1.607  0.1111  0.5265 -0.0849
  929SOL    MW4 3764   3.858   2.318   1.633  0.5352 -0.1521 -0.0219
  930SOL     OW 3765   3.626   2.420   1.513 -0.3031  0.0082 -0.2133
  930SOL    HW2 3766   3.636   2.507   1.552  0.3593  0.5852 -1.6280
  930SOL    HW3 3767   3.705   2.373   1.538 -1.3639 -0.7146  1.8442
  930SOL    MW4 3768   3.638   2.426   1.521 -0.3555 -0.0110 -0.1285
  931SOL     OW 3769   3.634   2.693   1.611  0.0152 -0.1155 -0.4723
  931SOL    HW2 3770   3.639   2.703   1.706  0.0321 -0.1144 -0.4733
  931SOL    HW3 3771   3.553   2.738   1.586  0.0185 -0.1026 -0.4602
  931SOL    MW4 3772   3.624   2.700   1.620  0.0179 -0.1135 -0.4708
  932SOL     OW 3773   3.842   2.828   1.460  0.7522  0.2535 -0.4780
  932SOL    HW2 3774   3.917   2.793   1.508 -0.5573 -1.8167  0.0869
  932SOL    HW3 3775   3.766   2.793   1.504 -0.5571  1.0796 -2.0048
  932SOL    MW4 3776   3.842   2.819   1.472  0.4065  0.0894 -0.6050
  933SOL     OW 3777   3.878   3.066   1.616 -0.1081 -0.1797  0.3151
  933SOL    HW2 3778   3.952   3.120   1.589  1.0363 -1.7213  0.3077
  933SOL    HW3 3779   3.878   2.993   1.554 -0.9255 -0.7795  1.0098
  933SOL    MW4 3780   3.888   3.063   1.604 -0.0651 -0.4621  0.4058
  934SOL     OW 3781   3.656   3.253   1.544  0.1697  0.1003 -0.0746
  934SOL    HW2 3782   3.723   3.185   1.550 -0.2656 -0.2476  0.8585
  934SOL    HW3 3783   3.644   3.265   1.450  0.3536 -1.0092 -0.2508
  934SOL    MW4 3784   3.663   3.245   1.532  0.1369 -0.0920  0.0253
  935SOL     OW 3785   3.646   3.490   1.666 -0.3513  0.3689 -0.4550
  935SOL    HW2 3786   3.717   3.535   1.620  0.0130  0.2369 -0.0235
  935SOL    HW3 3787   3.646   3.402   1.628 -1.0494  0.7143 -1.2832
  935SOL    MW4 3788   3.655   3.484   1.655 -0.3955  0.3972 -0.5074
  936SOL     OW 3789   3.850   3.649   1.520 -0.4502 -0.5582 -0.3437
  936SOL    HW2 3790   3.926   3.609   1.563  0.9128 -1.2119 -3.2477
  936SOL    HW3 3791   3.837   3.732   1.565  2.2528 -0.2526 -0.0810
  936SOL    MW4 3792   3.858   3.654   1.532  0.0863 -0.6044 -0.6922
  937SOL     OW 3793   3.833   3.902   1.651 -0.2864 -0.5621 -0.2539
  937SOL    HW2 3794   3.896   3.968   1.622 -0.0670 -0.4259  0.5429
  937SOL    HW3 3795   3.750   3.929   1.611 -0.4598  0.8735  1.0657
  937SOL    MW4 3796   3.830   3.914   1.642 -0.2806 -0.3545  0.0254
  938SOL     OW 3797   3.611   3.976   1.514  0.1675  0.3177 -0.0584
  938SOL    HW2 3798   3.613   4.067   1.543  0.2480 -0.0154  1.0099
  938SOL    HW3 3799   3.521   3.947   1.529 -0.4890  0.9098 -2.6320
  938SOL    MW4 3800   3.600   3.984   1.519  0.0913  0.3519 -0.2571
  939SOL     OW 3801   3.619   4.246   1.569 -0.2572 -0.0862 -0.2407
  939SOL    HW2 3802   3.627   4.265   1.662 -0.1332  0.1231 -0.2938
  939SOL    HW3 3803   3.541   4.292   1.541  0.2816  0.6954 -0.4612
  939SOL    MW4 3804   3.610   4.254   1.577 -0.1695  0.0448 -0.2768
  940SOL     OW 3805   3.857   4.384   1.491 -0.1549 -0.2174 -0.4462
  940SOL    HW2 3806   3.773   4.339   1.505 -0.9620  1.2727 -0.3171
  940SOL    HW3 3807   3.843   4.471   1.528  1.2994  0.2195 -0.8967
  940SOL    MW4 3808   3.844   4.390   1.498 -0.0696  0.0367 -0.4886
  941SOL     OW 3809   4.310   0.025   1.572  0.0536  0.0679 -0.1954
  941SOL    HW2 3810   4.312   0.033   1.667 -0.3024  0.7628 -0.2425
  941SOL    HW3 3811   4.325  -0.068   1.555  0.5469  0.0145  0.5244
  941SOL    MW4 3812   4.312   0.014   1.582  0.0710  0.1526 -0.1066
  942SOL     OW 3813   4.037   0.082   1.511  0.0029  0.2933  0.2828
  942SOL    HW2 3814   4.041   0.174   1.536 -0.5043  0.1336  0.9544
  942SOL    HW3 3815   4.128   0.051   1.518  0.1098  0.6405  0.4235
  942SOL    MW4 3816   4.050   0.090   1.515 -0.0496  0.3180  0.3899
  943SOL     OW 3817   4.054   0.360   1.594  0.4520 -0.4986  0.3363
  943SOL    HW2 3818   4.057   0.350   1.689  0.2679  0.7512  0.4778
  943SOL    HW3 3819   3.987   0.426   1.579 -0.3022 -1.4893 -0.7348
  943SOL    MW4 3820   4.046   0.367   1.604  0.3285 -0.4644  0.2137
  944SOL     OW 3821   4.285   0.489   1.480 -0.2422 -0.2749 -0.7212
  944SOL    HW2 3822   4.219   0.434   1.523  0.5184 -0.0490  0.7705
  944SOL    HW3 3823   4.368   0.445   1.498  0.3387  1.1878  0.2008
  944SOL    MW4 3824   4.287   0.476   1.488 -0.0648 -0.0521 -0.4028
  945SOL     OW 3825   4.258   0.736   1.601 -0.3538  0.0494 -0.0570
  945SOL    HW2 3826   4.271   0.648   1.566  1.1350  0.3380 -0.2497
  945SOL    HW3 3827   4.331   0.787   1.566 -1.4118  1.4629 -0.2568
  945SOL    MW4 3828   4.269   0.731   1.592 -0.2971  0.2739 -0.1087
  946SOL     OW 3829   4.041   0.880   1.509  0.1315 -0.2666 -0.4388
  946SOL    HW2 3830   4.120   0.837   1.538  0.3481 -0.1501 -0.8535
  946SOL    HW3 3831   3.970   0.833   1.552  0.3779 -0.8932 -0.7145
  946SOL    MW4 3832   4.042   0.868   1.518  0.1926 -0.3339 -0.5299
  947SOL     OW 3833   4.044   1.159   1.574  0.0247 -0.1843  0.2754
  947SOL    HW2 3834   4.057   1.161   1.669  0.7998 -1.2133  0.1945
  947SOL    HW3 3835   4.056   1.068   1.549 -0.1157  0.0842 -0.8271
  947SOL    MW4 3836   4.048   1.147   1.583  0.1082 -0.2847  0.1192
  948SOL     OW 3837   0.015   1.153   1.574 -0.1287  0.2048  0.1308
  948SOL    HW2 3838   0.015   1.168   1.668 -1.6655  0.2682  0.1246
  948SOL    HW3 3839   0.095   1.196   1.543  1.0457 -0.9172  1.5583
  948SOL    MW4 3840   0.026   1.161   1.582 -0.1765  0.0652  0.3184
  949SOL     OW 3841   4.277   1.514   1.605  0.2570  0.5377 -0.6834
  949SOL    HW2 3842   4.274   1.424   1.571  1.1677 -1.1370  3.4087
  949SOL    HW3 3843   4.356   1.552   1.567 -0.3913 -0.1876 -2.8158
  949SOL    MW4 3844   4.287   1.507   1.595  0.2913  0.2210 -0.4247
  950SOL     OW 3845   4.062   1.669   1.484  0.4626  0.3659 -0.5149
  950SOL    HW2 3846   4.125   1.625   1.541  1.0710  0.8358 -0.8146
  950SOL    HW3 3847   3.978   1.628   1.504  0.3082  1.8909  2.1373
  950SOL    MW4 3848   4.059   1.658   1.494  0.5226  0.6291 -0.2046
  951SOL     OW 3849   4.065   1.919   1.603  0.3817  0.3665  0.3179
  951SOL    HW2 3850   4.065   1.837   1.553 -0.8701  0.1602  0.6393
  951SOL    HW3 3851   3.980   1.959   1.583  1.1394  1.7573 -0.1132
  951SOL    MW4 3852   4.054   1.913   1.594  0.3166  0.5229  0.3034
  952SOL     OW 3853   4.305   2.084   1.540 -0.4434 -0.2801  0.2544
  952SOL    HW2 3854   4.235   2.026   1.569  0.4520 -1.0697  0.8739
  952SOL    HW3 3855   4.314   2.067   1.446  0.7161 -2.1533  0.6805
  952SOL    MW4 3856   4.297   2.074   1.531 -0.1726 -0.6313  0.3923
  953SOL     OW 3857   4.260   2.352   1.591 -0.5692 -0.2507  0.4659
  953SOL    HW2 3858   4.246   2.352   1.686 -0.7149 -0.2961  0.4440
  953SOL    HW3 3859   4.266   2.259   1.568  0.8460 -0.2153  0.6373
  953SOL    MW4 3860   4.259   2.339   1.601 -0.4020 -0.2520  0.4857
  954SOL     OW 3861   4.034   2.474   1.521  0.1110  0.5295  0.1739
  954SOL    HW2 3862   4.038   2.567   1.543  1.3523  0.4550  0.2947
  954SOL    HW3 3863   4.122   2.441   1.541 -0.2927 -0.6447  0.0300
  954SOL    MW4 3864   4.046   2.482   1.527  0.2217  0.3645  0.1708
  955SOL     OW 3865   4.060   2.739   1.596  0.4447  0.0125  0.2847
  955SOL    HW2 3866   4.048   2.735   1.691 -0.9955  0.5927  0.1411
  955SOL    HW3 3867   4.147   2.778   1.585  0.3266  0.6079  1.3584
  955SOL    MW4 3868   4.070   2.744   1.607  0.2389  0.1676  0.4075
  956SOL     OW 3869   4.297   2.837   1.529  0.8398 -0.1030 -0.4211
  956SOL    HW2 3870   4.302   2.931   1.546  0.2819 -0.0701 -0.4219
  956SOL    HW3 3871   4.282   2.830   1.435  2.5482 -0.2462 -0.7010
  956SOL    MW4 3872   4.296   2.848   1.519  0.9918 -0.1178 -0.4581
  957SOL     OW 3873   4.300   3.117   1.629 -0.0897  0.4557 -0.0600
  957SOL    HW2 3874   4.303   3.123   1.725 -0.2431 -0.5004  0.0095
  957SOL    HW3 3875   4.382   3.157   1.600  0.4375 -0.1731  0.5234
  957SOL    MW4 3876   4.311   3.123   1.638 -0.0401  0.2465  0.0261
  958SOL     OW 3877   4.075   3.236   1.516  0.3971 -0.2276 -0.3169
  958SOL    HW2 3878   4.070   3.316   1.569  0.8044  0.3842 -1.2022
  958SOL    HW3 3879   4.151   3.190   1.550  0.5751  0.0969 -0.2717
  958SOL    MW4 3880   4.084   3.241   1.528  0.4745 -0.1040 -0.4277
  959SOL     OW 3881   4.064   3.502   1.637  0.0505 -0.0767 -0.0329
  959SOL    HW2 3882   4.073   3.495   1.732  0.9226 -1.1417 -0.1843
  959SOL    HW3 3883   4.142   3.550   1.609 -0.1480  0.1353 -0.2209
  959SOL    MW4 3884   4.075   3.508   1.645  0.1388 -0.1891 -0.0777
  960SOL     OW 3885   4.263   3.644   1.532 -0.4010 -0.1858  0.2052
  960SOL    HW2 3886   4.265   3.738   1.550 -3.4010 -0.1178  0.3870
  960SOL    HW3 3887   4.260   3.638   1.436 -1.4196 -0.0553  0.2269
  960SOL    MW4 3888   4.263   3.656   1.521 -0.9313 -0.1595  0.2321
  961SOL     OW 3889   4.294   3.904   1.586  0.1699 -0.0050  0.1830
  961SOL    HW2 3890   4.233   3.976   1.569 -0.2367 -0.6107 -1.0140
  961SOL    HW3 3891   4.376   3.933   1.546 -0.2160 -0.5431 -1.0165
  961SOL    MW4 3892   4.297   3.918   1.578  0.0653 -0.1559 -0.1333
  962SOL     OW 3893   4.041   4.044   1.535  0.1590 -0.4493 -0.0193
  962SOL    HW2 3894   4.059   4.137   1.550 -0.0669 -0.4678  0.3768
  962SOL    HW3 3895   4.029   4.037   1.440 -0.4701  0.0469  0.0180
  962SOL    MW4 3896   4.042   4.055   1.525  0.0467 -0.3867  0.0378
  963SOL     OW 3897   4.101   4.305   1.601 -0.4430  0.1109  0.1163
  963SOL    HW2 3898   4.100   4.301   1.696 -0.5677  0.1149  0.1145
  963SOL    HW3 3899   4.015   4.339   1.577  0.0257  1.2671  0.0487
  963SOL    MW4 3900   4.090   4.309   1.610 -0.3977  0.2642  0.1070
  964SOL     OW 3901   4.320   4.412   1.490  0.4104  0.3726  0.4980
  964SOL    HW2 3902   4.242   4.373   1.531  1.2258 -1.7692  0.0615
  964SOL    HW3 3903   4.312   4.390   1.397  2.1197 -0.9027  0.6295
  964SOL    MW4 3904   4.309   4.404   1.483  0.7439 -0.0782  0.4579
  965SOL     OW 3905   0.231   4.642   1.893  0.5268 -0.2789  0.4383
  965SOL    HW2 3906   0.294   4.711   1.918  1.0805 -0.9001  0.7761
  965SOL    HW3 3907   0.232   4.642   1.798  0.0492  0.6127  0.4256
  965SOL    MW4 3908   0.240   4.651   1.884  0.5369 -0.2432  0.4812
  966SOL     OW 3909   0.012   0.154   1.984  0.3511 -0.2088 -0.1275
  966SOL    HW2 3910   0.020   0.240   1.943 -0.1649 -0.6324 -1.1238
  966SOL    HW3 3911   0.091   0.107   1.957  0.2163 -0.3450 -0.2827
  966SOL    MW4 3912   0.024   0.159   1.975  0.2646 -0.2826 -0.2794
  967SOL     OW 3913   0.014   0.406   1.853 -0.2116  0.3095  0.4984
  967SOL    HW2 3914  -0.057   0.434   1.910 -0.2339  0.4500  0.4027
  967SOL    HW3 3915   0.087   0.464   1.875  0.1010 -0.3203  1.1156
  967SOL    MW4 3916   0.014   0.417   1.864 -0.1733  0.2449  0.5673
  968SOL     OW 3917   0.240   0.551   1.941 -0.0952  0.5329 -0.2590
  968SOL    HW2 3918   0.319   0.515   1.900  0.4647  1.1906  0.2292
  968SOL    HW3 3919   0.232   0.638   1.903 -0.4791  0.5382 -0.1589
  968SOL    MW4 3920   0.250   0.557   1.930 -0.0720  0.6204 -0.1814
  969SOL     OW 3921   0.209   0.794   1.809 -0.2816 -0.4882  0.2178
  969SOL    HW2 3922   0.284   0.848   1.834 -0.1287 -1.1814  1.3007
  969SOL    HW3 3923   0.214   0.787   1.713  0.7183 -0.0792  0.2419
  969SOL    MW4 3924   0.219   0.800   1.799 -0.1295 -0.5257  0.3638
  970SOL     OW 3925   4.473   0.893   1.963  0.3522 -0.8508 -0.0539
  970SOL    HW2 3926   4.402   0.836   1.933 -0.1635  0.3878 -1.2715
  970SOL    HW3 3927   4.549   0.865   1.913 -0.0541 -0.0685 -1.1319
  970SOL    MW4 3928   4.473   0.882   1.952  0.2308 -0.5841 -0.3569
  971SOL     OW 3929   0.032   1.161   1.869 -0.0495 -0.4544  0.2256
  971SOL    HW2 3930   0.029   1.069   1.895  0.8834 -0.4736  0.2888
  971SOL    HW3 3931  -0.056   1.194   1.886 -0.8144 -1.7086 -1.2014
  971SOL    MW4 3932   0.020   1.153   1.875 -0.0274 -0.6225  0.0457
  972SOL     OW 3933   0.265   1.279   1.973 -0.0145 -0.0916  0.1821
  972SOL    HW2 3934   0.259   1.361   1.923  0.4491  0.5032  1.0851
  972SOL    HW3 3935   0.183   1.233   1.953  0.8037 -0.5518 -2.2915
  972SOL    MW4 3936   0.253   1.284   1.964  0.1546 -0.0740 -0.0252
  973SOL     OW 3937   0.246   1.533   1.876 -0.5289 -0.1352  0.3591
  973SOL    HW2 3938   0.315   1.595   1.899 -0.2894 -0.9355  1.8214
  973SOL    HW3 3939   0.165   1.575   1.906 -0.6649  0.6847 -1.1199
  973SOL    MW4 3940   0.244   1.547   1.883 -0.5153 -0.1326  0.3569
  974SOL     OW 3941   0.017   1.670   1.992  0.0900 -0.5598  0.0673
  974SOL    HW2 3942   0.027   1.678   2.087  1.7637 -2.6056  0.1014
  974SOL    HW3 3943  -0.060   1.614   1.981  1.1383 -2.0804  0.2962
  974SOL    MW4 3944   0.008   1.664   2.003  0.4492 -1.0302  0.1020
  975SOL     OW 3945   0.002   1.915   1.891  0.2283 -0.3917 -0.4822
  975SOL    HW2 3946  -0.079   1.958   1.921  0.3590 -0.5820  0.1484
  975SOL    HW3 3947  -0.011   1.822   1.913  1.3598 -0.1596  1.2805
  975SOL    MW4 3948  -0.011   1.908   1.898  0.3948 -0.3861 -0.1665
  976SOL     OW 3949   0.222   2.036   2.005  0.0412 -0.1302  0.0574
  976SOL    HW2 3950   0.219   2.126   1.972 -0.1486 -0.2634 -0.2954
  976SOL    HW3 3951   0.146   1.994   1.964 -2.0175  0.5228  3.0501
  976SOL    MW4 3952   0.211   2.043   1.995 -0.2554 -0.0618  0.4057
  977SOL     OW 3953   0.249   2.284   1.875  0.4064 -0.4563  0.1974
  977SOL    HW2 3954   0.320   2.343   1.900 -0.2460  0.1240  0.7109
  977SOL    HW3 3955   0.170   2.329   1.903 -0.1258 -1.3945  0.2179
  977SOL    MW4 3956   0.248   2.298   1.882  0.2501 -0.5035  0.2677
  978SOL     OW 3957   0.026   2.432   1.977  0.1438  0.2533 -0.2373
  978SOL    HW2 3958   0.012   2.440   2.071  2.4780  0.2575  0.1373
  978SOL    HW3 3959   0.020   2.522   1.944  1.3809  0.5171  0.2288
  978SOL    MW4 3960   0.023   2.445   1.985  0.6156  0.2887 -0.1264
  979SOL     OW 3961   4.477   2.688   1.894  0.4382  0.0665 -0.5475
  979SOL    HW2 3962   4.403   2.743   1.920  0.5534  0.0081 -0.0827
  979SOL    HW3 3963   4.483   2.698   1.799 -0.7313 -0.6404 -0.7056
  979SOL    MW4 3964   4.468   2.697   1.885  0.2995 -0.0343 -0.5070
  980SOL     OW 3965   0.203   2.839   1.980 -0.2490  0.0574 -0.1540
  980SOL    HW2 3966   0.179   2.927   1.951 -1.1655  0.5335  2.0057
  980SOL    HW3 3967   0.138   2.782   1.939  0.2019  0.3774 -1.3644
  980SOL    MW4 3968   0.191   2.843   1.970 -0.3104  0.1624 -0.0287
  981SOL     OW 3969   0.190   3.095   1.882  0.1119 -0.3160  0.2701
  981SOL    HW2 3970   0.275   3.130   1.909 -0.7512  1.6675  0.5581
  981SOL    HW3 3971   0.188   3.107   1.787 -0.9619  2.4236  0.5607
  981SOL    MW4 3972   0.201   3.101   1.873 -0.1436  0.3068  0.3464
  982SOL     OW 3973   0.012   3.245   2.038 -1.0108 -0.1378  0.0291
  982SOL    HW2 3974  -0.069   3.217   1.995 -0.3250  0.4812 -1.6819
  982SOL    HW3 3975   0.082   3.207   1.985 -0.1306  1.0967  0.2948
  982SOL    MW4 3976   0.011   3.236   2.026 -0.8041  0.1066 -0.1616
  983SOL     OW 3977   0.034   3.455   1.860 -0.0425 -0.3545  0.4360
  983SOL    HW2 3978   0.114   3.501   1.888  1.1756 -1.8993 -0.4397
  983SOL    HW3 3979   0.028   3.380   1.920  0.2329 -1.2991 -0.7054
  983SOL    MW4 3980   0.044   3.451   1.872  0.1546 -0.6831  0.1699
  984SOL     OW 3981   0.246   3.576   1.988 -0.1381 -0.3632 -0.3238
  984SOL    HW2 3982   0.233   3.620   2.072 -1.6131 -1.9819  0.3259
  984SOL    HW3 3983   0.338   3.549   1.989 -0.3083 -0.9291  1.0552
  984SOL    MW4 3984   0.256   3.578   1.999 -0.3551 -0.6511 -0.0560
  985SOL     OW 3985   0.227   3.838   1.888 -0.3878 -0.0945 -0.2561
  985SOL    HW2 3986   0.296   3.888   1.931 -0.2883 -1.7824  1.6519
  985SOL    HW3 3987   0.249   3.746   1.907 -1.2266 -0.8206 -2.6049
  985SOL    MW4 3988   0.239   3.832   1.896 -0.4853 -0.4129 -0.3142
  986SOL     OW 3989   0.006   4.020   1.969  0.0728 -0.1049 -0.3138
  986SOL    HW2 3990   0.034   4.104   1.932  0.2576 -0.7068 -1.6004
  986SOL    HW3 3991   0.076   3.959   1.944  0.3149 -0.4878  1.2585
  986SOL    MW4 3992   0.019   4.023   1.961  0.1291 -0.2351 -0.2760
  987SOL     OW 3993   4.470   4.271   1.869 -0.1929 -0.1412  0.0059
  987SOL    HW2 3994   4.397   4.331   1.884  0.0662  0.4417 -1.0228
  987SOL    HW3 3995   4.545   4.313   1.911 -0.1829 -0.1200 -0.0325
  987SOL    MW4 3996   4.470   4.285   1.876 -0.1574 -0.0610 -0.1349
  988SOL     OW 3997   0.212   4.378   1.979 -0.2825  0.2133  0.3382
  988SOL    HW2 3998   0.213   4.373   2.075  2.2042  1.2581  0.4026
  988SOL    HW3 3999   0.223   4.472   1.961  2.1386 -0.2824 -0.9591
  988SOL    MW4 4000   0.213   4.390   1.989  0.3650  0.2861  0.1756
  989SOL     OW 4001   0.688   0.005   1.911  0.1974 -0.5427  0.4033
  989SOL    HW2 4002   0.678  -0.086   1.938 -1.8302 -0.7661 -0.9739
  989SOL    HW3 4003   0.713   0.000   1.819 -0.2539  0.2861  0.2336
  989SOL    MW4 4004   0.690  -0.008   1.903 -0.1296 -0.4629  0.1991
  990SOL     OW 4005   0.446   0.148   1.947 -0.0856  0.2772 -0.2779
  990SOL    HW2 4006   0.462   0.236   1.912  2.0086  1.3390  3.1384
  990SOL    HW3 4007   0.522   0.097   1.921  0.3658  0.4332  0.7361
  990SOL    MW4 4008   0.458   0.153   1.939  0.2503  0.4379  0.3065
  991SOL     OW 4009   0.454   0.394   1.839  0.7372  0.2528 -0.0586
  991SOL    HW2 4010   0.540   0.429   1.864  0.1949  1.8352 -0.3917
  991SOL    HW3 4011   0.460   0.380   1.745  1.1204 -1.0652  0.1471
  991SOL    MW4 4012   0.466   0.396   1.830  0.7163  0.2876 -0.0753
  992SOL     OW 4013   0.665   0.502   1.966  0.6620 -0.4233  0.1183
  992SOL    HW2 4014   0.652   0.484   2.060 -1.5380 -0.5930 -0.1940
  992SOL    HW3 4015   0.742   0.450   1.943 -0.0258 -2.0760  1.3765
  992SOL    MW4 4016   0.674   0.493   1.976  0.2810 -0.6638  0.2432
  993SOL     OW 4017   0.671   0.764   1.868  0.4052  0.0817 -0.0117
  993SOL    HW2 4018   0.747   0.812   1.901  0.2174 -0.1495  0.7556
  993SOL    HW3 4019   0.667   0.685   1.922 -0.4837  0.1738  0.0652
  993SOL    MW4 4020   0.680   0.760   1.879  0.2632  0.0634  0.0998
  994SOL     OW 4021   0.437   0.916   1.904  0.3156 -0.4013 -0.5648
  994SOL    HW2 4022   0.464   1.007   1.898  0.2212 -0.3384 -0.0958
  994SOL    HW3 4023   0.515   0.866   1.880  0.3229 -0.1955 -0.9677
  994SOL    MW4 4024   0.450   0.921   1.900  0.3041 -0.3659 -0.5560
  995SOL     OW 4025   0.501   1.178   1.863 -0.0720 -0.1340  0.0836
  995SOL    HW2 4026   0.423   1.230   1.886 -0.1587 -0.2565  0.0654
  995SOL    HW3 4027   0.489   1.158   1.770  0.9000  1.4466 -0.4023
  995SOL    MW4 4028   0.489   1.182   1.854  0.0448  0.0584  0.0172
  996SOL     OW 4029   0.926   1.153   1.933 -0.2014  0.3110 -0.0296
  996SOL    HW2 4030   0.852   1.210   1.953  0.1648  0.6646  0.3411
  996SOL    HW3 4031   0.931   1.151   1.838 -1.8410 -1.2196 -0.1120
  996SOL    MW4 4032   0.917   1.160   1.923 -0.3694  0.1557  0.0085
  997SOL     OW 4033   0.706   1.594   1.847 -0.2092  0.2973 -0.3749
  997SOL    HW2 4034   0.711   1.512   1.896  2.9379  0.6473  0.0263
  997SOL    HW3 4035   0.698   1.567   1.755  0.2051 -0.4682 -0.1937
  997SOL    MW4 4036   0.706   1.580   1.841  0.2607  0.2424 -0.2981
  998SOL     OW 4037   0.467   1.691   1.969  0.0594 -0.0995  0.2026
  998SOL    HW2 4038   0.468   1.666   2.061  0.7544 -0.9085 -0.0164
  998SOL    HW3 4039   0.554   1.666   1.936 -0.2281  0.0563 -0.7018
  998SOL    MW4 4040   0.479   1.685   1.977  0.1131 -0.1856  0.0544
  999SOL     OW 4041   0.451   1.944   1.885 -0.7660 -0.1488 -0.0787
  999SOL    HW2 4042   0.463   1.860   1.928 -1.8415 -0.2632  0.0041
  999SOL    HW3 4043   0.371   1.980   1.923 -0.3930  0.8565 -0.2062
  999SOL    MW4 4044   0.442   1.938   1.896 -0.8587 -0.0314 -0.0846
 1000SOL     OW 4045   0.681   2.060   2.006  0.0898  0.0106  0.3156
 1000SOL    HW2 4046   0.688   2.045   2.100  0.1203 -1.6692  0.0598
 1000SOL    HW3 4047   0.599   2.017   1.981 -0.1844  0.8913 -0.3520
 1000SOL    MW4 4048   0.671   2.053   2.015  0.0576 -0.0951  0.1936
 1001SOL     OW 4049   0.662   2.332   1.892  0.1990 -0.0160 -0.3830
 1001SOL    HW2 4050   0.655   2.244   1.929  1.0558 -0.0099 -0.2119
 1001SOL    HW3 4051   0.661   2.318   1.797 -1.2460 -0.0852 -0.3716
 1001SOL    MW4 4052   0.661   2.319   1.884  0.1214 -0.0243 -0.3589
 1002SOL     OW 4053   0.428   2.476   1.980  0.3613  0.3942  0.1354
 1002SOL    HW2 4054   0.424   2.481   2.076  0.6407  2.1517  0.0759
 1002SOL    HW3 4055   0.508   2.427   1.962 -1.0166 -2.2166  0.8107
 1002SOL    MW4 4056   0.438   2.471   1.990  0.2164  0.2818  0.2167
 1003SOL     OW 4057   0.448   2.732   1.894  0.3932  0.1993  0.1437
 1003SOL    HW2 4058   0.445   2.638   1.910  2.5990  0.3701  1.7343
 1003SOL    HW3 4059   0.367   2.766   1.933 -0.2637 -0.9702 -0.1838
 1003SOL    MW4 4060   0.437   2.724   1.901  0.5976  0.0675  0.3105
 1004SOL     OW 4061   0.690   2.851   1.989  0.1072  0.1636  0.0073
 1004SOL    HW2 4062   0.678   2.844   2.084  1.0474  0.7138  0.1616
 1004SOL    HW3 4063   0.609   2.813   1.953 -0.1803 -0.2135  1.0171
 1004SOL    MW4 4064   0.678   2.845   1.997  0.1933  0.1867  0.1608
 1005SOL     OW 4065   0.643   3.107   1.918 -0.1591 -0.2799 -0.0617
 1005SOL    HW2 4066   0.650   3.022   1.961  0.3624  0.2127  0.8370
 1005SOL    HW3 4067   0.639   3.087   1.825  0.4321 -1.2562  0.1227
 1005SOL    MW4 4068   0.643   3.093   1.911 -0.0123 -0.3433  0.0812
 1006SOL     OW 4069   0.408   3.227   1.992  0.1069  0.0231 -0.5861
 1006SOL    HW2 4070   0.432   3.314   1.960  1.7158 -0.2180 -0.0880
 1006SOL    HW3 4071   0.485   3.172   1.973  0.2911 -0.5935  1.7406
 1006SOL    MW4 4072   0.422   3.231   1.985  0.3435 -0.0899 -0.2135
 1007SOL     OW 4073   0.504   3.482   1.928  0.5051 -0.0462  0.7874
 1007SOL    HW2 4074   0.577   3.541   1.950  1.0224 -0.2089 -0.4639
 1007SOL    HW3 4075   0.508   3.473   1.833 -0.9188 -0.3764  0.7507
 1007SOL    MW4 4076   0.514   3.489   1.919  0.3855 -0.1111  0.6175
 1008SOL     OW 4077   0.710   3.656   2.020  0.0642 -0.1007  0.1475
 1008SOL    HW2 4078   0.781   3.609   1.978 -0.1301 -1.0091  0.8237
 1008SOL    HW3 4079   0.688   3.726   1.958  2.1645  0.7873  0.3568
 1008SOL    MW4 4080   0.716   3.659   2.006  0.3157 -0.1032  0.2646
 1009SOL     OW 4081   0.686   3.868   1.830 -0.0359  0.3701  0.1678
 1009SOL    HW2 4082   0.774   3.898   1.853  0.0829 -0.3790  0.6872
 1009SOL    HW3 4083   0.691   3.850   1.736  0.6374 -0.6149  0.3882
 1009SOL    MW4 4084   0.698   3.869   1.820  0.0686  0.1414  0.2655
 1010SOL     OW 4085   0.458   3.977   1.984 -0.4800 -0.3486  0.2978
 1010SOL    HW2 4086   0.458   4.070   1.962  1.3496 -0.1893  0.8673
 1010SOL    HW3 4087   0.530   3.940   1.932  0.4190 -0.9511  1.9156
 1010SOL    MW4 4088   0.468   3.985   1.975 -0.1200 -0.4070  0.5864
 1011SOL     OW 4089   0.435   4.245   1.910 -0.5365  0.4739  0.4724
 1011SOL    HW2 4090   0.357   4.296   1.934 -1.0504 -0.5810  1.1019
 1011SOL    HW3 4091   0.437   4.248   1.815  0.2640  2.8621  0.5437
 1011SOL    MW4 4092   0.425   4.252   1.901 -0.4987  0.6499  0.5647
 1012SOL     OW 4093   0.667   4.404   1.972 -0.2754 -0.4873  0.0589
 1012SOL    HW2 4094   0.737   4.360   1.924  0.2102  0.8123 -0.4269
 1012SOL    HW3 4095   0.589   4.352   1.953 -0.1256  0.1173 -2.3051
 1012SOL    MW4 4096   0.666   4.391   1.963 -0.1916 -0.2360 -0.3171
 1013SOL     OW 4097   1.133   4.609   1.874 -0.6436  0.4772 -0.2146
 1013SOL    HW2 4098   1.222   4.644   1.882 -0.1864 -0.6146 -0.5125
 1013SOL    HW3 4099   1.132   4.533   1.931 -1.2685  0.2491 -0.5301
 1013SOL    MW4 4100   1.145   4.604   1.882 -0.6657  0.3033 -0.2955
 1014SOL     OW 4101   0.929   0.112   2.003 -0.2430 -0.3459  0.1078
 1014SOL    HW2 4102   0.998   0.053   1.971 -0.0407  1.2764 -2.6064
 1014SOL    HW3 4103   0.848   0.075   1.968 -0.3119 -0.0567 -0.0420
 1014SOL    MW4 4104   0.928   0.099   1.994 -0.2254 -0.0937 -0.2701
 1015SOL     OW 4105   0.903   0.372   1.908  0.1343  0.4329  0.0633
 1015SOL    HW2 4106   0.968   0.428   1.951  2.7299 -1.3335 -1.3997
 1015SOL    HW3 4107   0.909   0.288   1.953 -0.8202  0.1195 -0.3753
 1015SOL    MW4 4108   0.913   0.369   1.919  0.3509  0.1585 -0.1875
 1016SOL     OW 4109   1.131   0.494   1.998  0.2931  0.2058  0.0924
 1016SOL    HW2 4110   1.208   0.450   1.961  0.1069 -0.3521  0.3761
 1016SOL    HW3 4111   1.122   0.573   1.945  1.1013  0.3053  0.0944
 1016SOL    MW4 4112   1.140   0.499   1.986  0.3752  0.1453  0.1302
 1017SOL     OW 4113   1.112   0.732   1.820  0.3797  0.3882 -0.2997
 1017SOL    HW2 4114   1.189   0.768   1.863  0.1563  0.1134  0.3241
 1017SOL    HW3 4115   1.037   0.772   1.865  0.1294 -0.8722  0.4106
 1017SOL    MW4 4116   1.112   0.742   1.831  0.3172  0.1856 -0.1239
 1018SOL     OW 4117   0.908   0.884   1.990  0.1800  0.3559  0.1873
 1018SOL    HW2 4118   0.887   0.869   2.082 -0.2778 -0.9788 -0.1228
 1018SOL    HW3 4119   0.923   0.978   1.984 -0.7904  0.6066  1.4306
 1018SOL    MW4 4120   0.907   0.895   2.001 -0.0085  0.2128  0.3104
 1019SOL     OW 4121   0.725   1.344   1.972  0.2418 -0.8016 -0.6517
 1019SOL    HW2 4122   0.693   1.336   2.062  0.9844  2.5735 -0.0230
 1019SOL    HW3 4123   0.666   1.289   1.921 -1.3044 -1.3740  1.6414
 1019SOL    MW4 4124   0.713   1.335   1.977  0.1358 -0.4318 -0.2662
 1020SOL     OW 4125   1.160   1.290   1.982 -0.0640  0.6599 -0.0737
 1020SOL    HW2 4126   1.152   1.381   1.954 -1.2970  0.8659  0.9020
 1020SOL    HW3 4127   1.072   1.255   1.975  0.4825 -0.6010 -0.8530
 1020SOL    MW4 4128   1.148   1.297   1.978 -0.1546  0.5206 -0.0479
 1021SOL     OW 4129   1.109   1.552   1.882 -0.0092  0.5360  0.7157
 1021SOL    HW2 4130   1.038   1.610   1.907 -0.8196 -0.0841 -0.1514
 1021SOL    HW3 4131   1.107   1.550   1.786  0.2498 -0.6059  0.7217
 1021SOL    MW4 4132   1.100   1.559   1.873 -0.0819  0.3036  0.6020
 1022SOL     OW 4133   0.908   1.718   1.973  0.0649 -0.0502 -0.3301
 1022SOL    HW2 4134   0.910   1.807   1.940 -0.8814  0.0400 -0.1404
 1022SOL    HW3 4135   0.851   1.670   1.913  0.1940 -0.4181 -0.1652
 1022SOL    MW4 4136   0.901   1.723   1.961 -0.0429 -0.0868 -0.2835
 1023SOL     OW 4137   0.899   1.974   1.877 -0.5638 -0.4628  0.1144
 1023SOL    HW2 4138   0.817   2.009   1.912 -0.1554  0.5680  0.0693
 1023SOL    HW3 4139   0.884   1.968   1.782  0.0893  1.6375 -0.1421
 1023SOL    MW4 4140   0.886   1.978   1.869 -0.4238 -0.0496  0.0745
 1024SOL     OW 4141   1.136   2.062   1.970  0.0824 -0.1473  0.6750
 1024SOL    HW2 4142   1.119   2.156   1.960  0.0887 -0.3875 -2.0128
 1024SOL    HW3 4143   1.053   2.021   1.947  1.2159 -0.9165 -2.3806
 1024SOL    MW4 4144   1.123   2.069   1.965  0.2327 -0.2806 -0.0827
 1025SOL     OW 4145   1.127   2.325   1.864  0.0211 -0.0684 -0.0317
 1025SOL    HW2 4146   1.199   2.371   1.906  0.1875  0.3281 -0.7480
 1025SOL    HW3 4147   1.147   2.330   1.770 -1.2687  0.6240 -0.2794
 1025SOL    MW4 4148   1.139   2.332   1.857 -0.1272  0.0756 -0.1590
 1026SOL     OW 4149   0.900   2.460   1.963  0.0995 -0.2314 -0.0886
 1026SOL    HW2 4150   0.985   2.440   1.925  0.7168 -0.2732  1.3008
 1026SOL    HW3 4151   0.846   2.384   1.940  0.6115 -0.5082 -0.4038
 1026SOL    MW4 4152   0.904   2.447   1.955  0.2486 -0.2735  0.0530
 1027SOL     OW 4153   0.855   2.695   1.824 -0.0208 -0.3788 -0.2933
 1027SOL    HW2 4154   0.863   2.621   1.884  0.8241  0.6682  0.9004
 1027SOL    HW3 4155   0.806   2.761   1.873  0.6893  0.4896 -0.7397
 1027SOL    MW4 4156   0.850   2.694   1.838  0.1843 -0.1261 -0.1948
 1028SOL     OW 4157   1.083   2.835   1.917 -0.1329 -0.0076 -0.0907
 1028SOL    HW2 4158   1.083   2.830   2.012  0.2490 -0.5851 -0.1209
 1028SOL    HW3 4159   1.005   2.786   1.890 -0.4110  0.4170 -0.0644
 1028SOL    MW4 4160   1.072   2.828   1.926 -0.1190 -0.0277 -0.0913
 1029SOL     OW 4161   1.122   3.117   1.891  0.3251 -0.1108 -0.1039
 1029SOL    HW2 4162   1.041   3.166   1.909  0.0198 -0.1017 -1.4371
 1029SOL    HW3 4163   1.094   3.025   1.894  0.5595 -0.1596  0.7834
 1029SOL    MW4 4164   1.107   3.111   1.894  0.3158 -0.1159 -0.1627
 1030SOL     OW 4165   0.890   3.239   1.971  0.7628  0.0280 -0.2840
 1030SOL    HW2 4166   0.885   3.235   2.067  1.0728  1.3410 -0.1966
 1030SOL    HW3 4167   0.802   3.217   1.942  0.9808 -1.5904  0.2534
 1030SOL    MW4 4168   0.877   3.236   1.980  0.8324 -0.0124 -0.2016
 1031SOL     OW 4169   0.901   3.499   1.870  0.1735 -0.3455  0.2053
 1031SOL    HW2 4170   0.899   3.411   1.907 -0.2920 -0.3799  0.1027
 1031SOL    HW3 4171   0.899   3.485   1.775  0.9148 -0.2461  0.1741
 1031SOL    MW4 4172   0.901   3.486   1.862  0.2098 -0.3369  0.1875
 1032SOL     OW 4173   1.132   3.624   1.946  0.3895 -0.0739 -0.2142
 1032SOL    HW2 4174   1.131   3.604   2.040  0.5952 -1.1515 -0.4377
 1032SOL    HW3 4175   1.048   3.591   1.914  0.9679 -1.0958 -0.6902
 1032SOL    MW4 4176   1.121   3.617   1.954  0.4929 -0.3507 -0.3064
 1033SOL     OW 4177   1.157   3.888   1.869  0.0438 -0.0262  0.0086
 1033SOL    HW2 4178   1.151   3.798   1.901 -0.0117  0.5310  1.5628
 1033SOL    HW3 4179   1.158   3.879   1.773 -0.1489 -1.6619  0.1519
 1033SOL    MW4 4180   1.157   3.875   1.860  0.0110 -0.1683  0.2325
 1034SOL     OW 4181   0.904   4.016   1.940  0.0867  0.1275  0.0357
 1034SOL    HW2 4182   0.884   3.993   2.031  0.5485  1.1354  0.4001
 1034SOL    HW3 4183   0.989   3.975   1.923  0.1746  0.2451  0.1846
 1034SOL    MW4 4184   0.912   4.008   1.950  0.1593  0.2761  0.1034
 1035SOL     OW 4185   0.885   4.272   1.851 -0.1965 -0.7585  0.0933
 1035SOL    HW2 4186   0.967   4.299   1.892 -0.6024 -2.3246  2.0107
 1035SOL    HW3 4187   0.873   4.181   1.879 -2.6677 -0.5064 -0.0145
 1035SOL    MW4 4188   0.894   4.264   1.860 -0.5761 -0.9313  0.3321
 1036SOL     OW 4189   1.097   4.353   2.001  0.0425  0.4619  0.0205
 1036SOL    HW2 4190   1.091   4.343   2.096  1.7175  2.3233  0.3549
 1036SOL    HW3 4191   1.187   4.327   1.981  0.0886  1.3276 -0.8919
 1036SOL    MW4 4192   1.108   4.348   2.011  0.2695  0.8211 -0.0558
 1037SOL     OW 4193   1.580   4.628   1.848 -0.0335 -0.0545 -0.1485
 1037SOL    HW2 4194   1.655   4.667   1.893  0.9782 -0.0837 -1.7542
 1037SOL    HW3 4195   1.578   4.537   1.879  0.0809  0.1745  0.5384
 1037SOL    MW4 4196   1.590   4.621   1.858  0.1150 -0.0281 -0.2699
 1038SOL     OW 4197   1.358   0.095   1.936  0.1161 -0.0653  0.0642
 1038SOL    HW2 4198   1.358   0.097   2.032  1.2736 -0.4054  0.0734
 1038SOL    HW3 4199   1.438   0.049   1.913 -0.4544 -0.5170 -1.0664
 1038SOL    MW4 4200   1.368   0.089   1.946  0.1936 -0.1698 -0.0838
 1039SOL     OW 4201   1.363   0.366   1.875 -0.1223  0.2041  0.3825
 1039SOL    HW2 4202   1.360   0.272   1.888  1.0957 -0.0132 -0.7697
 1039SOL    HW3 4203   1.364   0.377   1.780  1.8472  1.2664  0.4809
 1039SOL    MW4 4204   1.363   0.355   1.864  0.2983  0.3156  0.2434
 1040SOL     OW 4205   1.594   0.525   1.960  0.0403 -0.2702 -0.2231
 1040SOL    HW2 4206   1.665   0.473   1.923  0.6938 -0.3134  1.0447
 1040SOL    HW3 4207   1.515   0.476   1.938  0.5074 -0.8787 -0.5848
 1040SOL    MW4 4208   1.593   0.511   1.952  0.1881 -0.3561 -0.1036
 1041SOL     OW 4209   1.556   0.772   1.860 -0.3846 -0.0430  0.3619
 1041SOL    HW2 4210   1.639   0.818   1.873 -0.5890  0.1708  0.9004
 1041SOL    HW3 4211   1.572   0.684   1.893 -0.0698 -0.2943 -0.4438
 1041SOL    MW4 4212   1.569   0.767   1.866 -0.3700 -0.0479  0.3265
 1042SOL     OW 4213   1.299   0.886   1.941  0.6063  0.0303 -0.1592
 1042SOL    HW2 4214   1.301   0.904   2.035  0.7954  3.9038 -0.8425
 1042SOL    HW3 4215   1.385   0.846   1.924  1.3875  1.1404  1.0025
 1042SOL    MW4 4216   1.311   0.883   1.951  0.7342  0.6878 -0.0961
 1043SOL     OW 4217   1.338   1.151   1.852  0.5951  0.0087  0.1520
 1043SOL    HW2 4218   1.343   1.060   1.883 -0.0543 -0.5680 -1.4004
 1043SOL    HW3 4219   1.264   1.188   1.899 -0.1851 -0.7674 -0.4466
 1043SOL    MW4 4220   1.329   1.144   1.863  0.4066 -0.1698 -0.1317
 1044SOL     OW 4221   1.570   1.284   1.965  0.8713  0.2474 -0.2052
 1044SOL    HW2 4222   1.585   1.370   1.924 -0.7165  0.9217  0.5856
 1044SOL    HW3 4223   1.482   1.259   1.937 -0.2489  0.7271  2.7626
 1044SOL    MW4 4224   1.560   1.292   1.956  0.5139  0.3997  0.2908
 1045SOL     OW 4225   1.576   1.542   1.864 -0.2271 -0.6486  0.5080
 1045SOL    HW2 4226   1.651   1.593   1.894  0.3494 -0.7058 -0.8021
 1045SOL    HW3 4227   1.501   1.585   1.904  0.3556  0.5037  0.3980
 1045SOL    MW4 4228   1.576   1.554   1.873 -0.0741 -0.5040  0.3207
 1046SOL     OW 4229   1.362   1.670   1.956  0.1124 -0.0480 -0.0210
 1046SOL    HW2 4230   1.355   1.682   2.051  1.6492 -0.1493  0.1153
 1046SOL    HW3 4231   1.273   1.646   1.929 -0.0001 -1.6346  1.6295
 1046SOL    MW4 4232   1.349   1.668   1.965  0.3003 -0.2707  0.2148
 1047SOL     OW 4233   1.361   1.939   1.897 -0.4080  0.0730 -0.1041
 1047SOL    HW2 4234   1.357   1.846   1.918 -0.9036 -0.0615 -0.7754
 1047SOL    HW3 4235   1.273   1.972   1.918 -0.2011  0.4149  0.2410
 1047SOL    MW4 4236   1.349   1.931   1.902 -0.4462  0.1004 -0.1471
 1048SOL     OW 4237   1.606   2.075   1.997 -0.3640 -0.2470 -0.3168
 1048SOL    HW2 4238   1.591   2.167   1.975 -0.4090 -0.0146  0.6609
 1048SOL    HW3 4239   1.528   2.029   1.965 -0.2214  0.0103 -1.0452
 1048SOL    MW4 4240   1.594   2.081   1.990 -0.3512 -0.1824 -0.2840
 1049SOL     OW 4241   1.594   2.329   1.881 -0.3726 -0.0814  0.3310
 1049SOL    HW2 4242   1.676   2.362   1.917  0.1798 -1.3154  0.2523
 1049SOL    HW3 4243   1.604   2.338   1.786 -0.0051 -0.9102  0.2796
 1049SOL    MW4 4244   1.606   2.334   1.873 -0.2512 -0.3536  0.3139
 1050SOL     OW 4245   1.346   2.439   1.980 -0.5482  0.5372  0.2114
 1050SOL    HW2 4246   1.333   2.521   1.933 -0.3072  0.3919 -0.1151
 1050SOL    HW3 4247   1.428   2.404   1.945  0.1346  0.8846  1.4053
 1050SOL    MW4 4248   1.355   2.445   1.969 -0.4263  0.5639  0.3258
 1051SOL     OW 4249   1.320   2.690   1.892 -0.1949 -0.2770  0.5487
 1051SOL    HW2 4250   1.249   2.752   1.908 -0.2227 -0.1767  0.0502
 1051SOL    HW3 4251   1.334   2.693   1.798 -0.5247 -1.3875  0.4569
 1051SOL    MW4 4252   1.313   2.699   1.882 -0.2421 -0.4101  0.4709
 1052SOL     OW 4253   1.549   2.821   1.974 -0.0044 -0.5689 -0.6963
 1052SOL    HW2 4254   1.624   2.763   1.964  0.2634 -0.0612 -1.7277
 1052SOL    HW3 4255   1.475   2.773   1.938 -0.0834 -0.8768 -0.1269
 1052SOL    MW4 4256   1.549   2.807   1.968  0.0206 -0.5426 -0.7573
 1053SOL     OW 4257   1.580   3.073   1.881  0.0578  0.3052  0.2527
 1053SOL    HW2 4258   1.566   2.982   1.909 -0.2917  0.1357 -0.4407
 1053SOL    HW3 4259   1.577   3.068   1.786  0.5638  0.9696  0.2061
 1053SOL    MW4 4260   1.577   3.060   1.872  0.0786  0.3703  0.1552
 1054SOL     OW 4261   1.356   3.210   1.991  0.4340 -0.1758  0.3438
 1054SOL    HW2 4262   1.438   3.175   1.956 -0.3659 -2.1694  0.4168
 1054SOL    HW3 4263   1.288   3.156   1.951 -0.9290  1.9986 -0.3920
 1054SOL    MW4 4264   1.358   3.198   1.981  0.1487 -0.1519  0.2564
 1055SOL     OW 4265   1.341   3.458   1.869 -0.0835 -0.1312  0.2417
 1055SOL    HW2 4266   1.333   3.370   1.905 -0.7553 -0.1911 -0.0495
 1055SOL    HW3 4267   1.264   3.504   1.901  0.2331  0.3385  0.3412
 1055SOL    MW4 4268   1.330   3.453   1.878 -0.1302 -0.0772  0.2162
 1056SOL     OW 4269   1.565   3.592   1.962 -0.0304  0.2183 -0.3917
 1056SOL    HW2 4270   1.573   3.583   2.057  2.9708 -1.1108 -0.6896
 1056SOL    HW3 4271   1.488   3.540   1.940  0.0383 -0.6197  1.1899
 1056SOL    MW4 4272   1.556   3.584   1.972  0.3747 -0.0677 -0.2222
 1057SOL     OW 4273   1.601   3.833   1.831 -0.3708 -0.0334 -0.2094
 1057SOL    HW2 4274   1.674   3.877   1.876  0.1330 -1.1248  0.0491
 1057SOL    HW3 4275   1.597   3.746   1.870 -0.1654 -0.8847 -2.0212
 1057SOL    MW4 4276   1.610   3.827   1.842 -0.2773 -0.2897 -0.4144
 1058SOL     OW 4277   1.399   4.007   1.900  0.2241  0.1169  0.5391
 1058SOL    HW2 4278   1.456   3.947   1.852 -0.2423  0.3262 -0.2860
 1058SOL    HW3 4279   1.311   3.970   1.890  0.1242  0.1357  1.2798
 1058SOL    MW4 4280   1.395   3.994   1.892  0.1494  0.1469  0.5279
 1059SOL     OW 4281   1.344   4.271   1.884  0.2615 -0.0373  0.1591
 1059SOL    HW2 4282   1.366   4.179   1.890  1.5071  0.1878 -0.8131
 1059SOL    HW3 4283   1.339   4.288   1.790  0.7809  1.0509  0.3202
 1059SOL    MW4 4284   1.346   4.261   1.872  0.4945  0.1359  0.0521
 1060SOL     OW 4285   1.594   4.379   1.946 -0.1200 -0.3256  0.1148
 1060SOL    HW2 4286   1.615   4.378   2.040  1.5459 -1.7339 -0.2586
 1060SOL    HW3 4287   1.505   4.342   1.941 -0.3041 -0.0556  1.1428
 1060SOL    MW4 4288   1.585   4.374   1.958  0.0756 -0.4754  0.2012
 1061SOL     OW 4289   2.044   4.622   1.858  0.1982 -0.0028  0.1156
 1061SOL    HW2 4290   2.125   4.671   1.867  0.7964 -1.1064  0.8120
 1061SOL    HW3 4291   2.056   4.544   1.912 -0.7448 -0.9119 -0.9313
 1061SOL    MW4 4292   2.056   4.618   1.866  0.1526 -0.2680  0.0693
 1062SOL     OW 4293   1.804   0.087   1.961 -0.4031  0.2390 -0.5666
 1062SOL    HW2 4294   1.803   0.085   2.056 -0.1982  0.7654 -0.5512
 1062SOL    HW3 4295   1.879   0.034   1.936 -0.4580  0.0993 -0.4331
 1062SOL    MW4 4296   1.814   0.080   1.970 -0.3833  0.2900 -0.5469
 1063SOL     OW 4297   1.780   0.359   1.859 -0.3000 -0.1566 -0.4944
 1063SOL    HW2 4298   1.775   0.270   1.893 -0.8629 -0.3861 -1.1691
 1063SOL    HW3 4299   1.795   0.347   1.765  0.4486  0.4641 -0.4613
 1063SOL    MW4 4300   1.781   0.346   1.851 -0.2755 -0.1049 -0.5789
 1064SOL     OW 4301   2.015   0.501   1.973  0.2568  0.0408 -0.2798
 1064SOL    HW2 4302   2.022   0.591   1.943 -1.4470  0.6584  1.0289
 1064SOL    HW3 4303   1.941   0.465   1.924  0.5446 -0.4508 -0.3577
 1064SOL    MW4 4304   2.006   0.508   1.963  0.0699  0.0574 -0.1173
 1065SOL     OW 4305   2.003   0.765   1.876  0.1068 -0.1947  0.0525
 1065SOL    HW2 4306   2.086   0.809   1.893  0.9438 -1.8297  0.3240
 1065SOL    HW3 4307   2.008   0.740   1.784  0.5633 -1.5502  0.4207
 1065SOL    MW4 4308   2.015   0.768   1.866  0.2773 -0.5893  0.1369
 1066SOL     OW 4309   1.780   0.893   1.993  0.7762 -0.1408 -0.4854
 1066SOL    HW2 4310   1.777   0.889   2.089  1.1759 -0.8519 -0.5027
 1066SOL    HW3 4311   1.860   0.846   1.969  0.4485 -0.3427 -1.1972
 1066SOL    MW4 4312   1.791   0.886   2.003  0.7859 -0.2613 -0.5815
 1067SOL     OW 4313   1.782   1.142   1.864 -0.4322 -0.0019  0.2237
 1067SOL    HW2 4314   1.703   1.192   1.885  1.4827  2.4277  1.8653
 1067SOL    HW3 4315   1.783   1.071   1.929 -1.0334  0.2187  0.4807
 1067SOL    MW4 4316   1.772   1.139   1.876 -0.2589  0.3479  0.4743
 1068SOL     OW 4317   2.005   1.292   1.938  0.1054 -0.0993 -0.1428
 1068SOL    HW2 4318   2.079   1.235   1.917  1.3956  1.3389  0.3875
 1068SOL    HW3 4319   1.928   1.243   1.909  1.3144 -1.2943 -1.4275
 1068SOL    MW4 4320   2.005   1.278   1.931  0.4351 -0.0672 -0.2424
 1069SOL     OW 4321   2.019   1.556   1.863  0.2018  0.2086 -0.1171
 1069SOL    HW2 4322   2.012   1.464   1.886 -0.3937  0.3960  0.4874
 1069SOL    HW3 4323   2.023   1.558   1.767  2.8628 -0.6022 -0.0765
 1069SOL    MW4 4324   2.019   1.544   1.853  0.4742  0.1264 -0.0321
 1070SOL     OW 4325   1.799   1.668   1.972 -0.0088  0.0653 -0.1202
 1070SOL    HW2 4326   1.803   1.763   1.958  0.5771  0.1200  0.4009
 1070SOL    HW3 4327   1.878   1.634   1.931 -0.1424 -0.1817 -0.1761
 1070SOL    MW4 4328   1.810   1.676   1.965  0.0510  0.0399 -0.0588
 1071SOL     OW 4329   1.815   1.932   1.933  0.1070  0.3491  0.1951
 1071SOL    HW2 4330   1.740   1.983   1.963 -0.8359 -1.2369  0.6252
 1071SOL    HW3 4331   1.818   1.947   1.838 -0.5609  0.6833  0.2218
 1071SOL    MW4 4332   1.805   1.940   1.924 -0.1053  0.1838  0.2555
 1072SOL     OW 4333   2.034   2.096   1.982 -0.4803 -0.0386  0.2880
 1072SOL    HW2 4334   2.105   2.045   1.941  0.1942  0.3879  0.9126
 1072SOL    HW3 4335   1.954   2.048   1.959 -0.2030  0.6554 -2.2455
 1072SOL    MW4 4336   2.033   2.083   1.973 -0.3545  0.1092  0.0362
 1073SOL     OW 4337   2.053   2.346   1.889 -0.5513  0.1867 -0.1067
 1073SOL    HW2 4338   2.128   2.387   1.933 -1.2361  0.9511  0.3741
 1073SOL    HW3 4339   2.049   2.257   1.926 -0.6018  0.5416  0.7610
 1073SOL    MW4 4340   2.062   2.340   1.900 -0.6480  0.3345  0.0712
 1074SOL     OW 4341   1.815   2.462   2.006 -0.4501 -0.1534  0.0628
 1074SOL    HW2 4342   1.808   2.437   2.098 -0.3374 -0.3580  0.0145
 1074SOL    HW3 4343   1.893   2.417   1.974 -0.8386 -0.5794 -0.2947
 1074SOL    MW4 4344   1.824   2.453   2.014 -0.4865 -0.2367  0.0093
 1075SOL     OW 4345   1.768   2.687   1.882  0.4157 -0.1525 -0.2548
 1075SOL    HW2 4346   1.779   2.597   1.914 -1.7170 -0.2203  0.3666
 1075SOL    HW3 4347   1.797   2.684   1.791 -0.7008 -1.7511 -0.5868
 1075SOL    MW4 4348   1.774   2.675   1.875 -0.0130 -0.3724 -0.2166
 1076SOL     OW 4349   1.965   2.833   2.015 -0.2698  0.0228 -0.1225
 1076SOL    HW2 4350   1.980   2.821   2.109  0.5398 -1.0127 -0.3703
 1076SOL    HW3 4351   1.890   2.777   1.995 -0.4095  0.2031 -0.1069
 1076SOL    MW4 4352   1.957   2.824   2.025 -0.1814 -0.0901 -0.1528
 1077SOL     OW 4353   1.993   3.089   1.872  0.0426 -0.3208  0.3454
 1077SOL    HW2 4354   1.923   3.130   1.922 -0.4531 -1.6036  0.7361
 1077SOL    HW3 4355   1.994   2.998   1.903  0.0141 -1.0267 -1.6834
 1077SOL    MW4 4356   1.984   3.082   1.883 -0.0266 -0.5832  0.1292
 1078SOL     OW 4357   1.787   3.212   2.000  0.0143  0.5867 -0.2106
 1078SOL    HW2 4358   1.781   3.204   2.095  0.2496  0.1743 -0.2234
 1078SOL    HW3 4359   1.709   3.168   1.967  0.5823 -0.4226 -0.2402
 1078SOL    MW4 4360   1.776   3.205   2.008  0.1202  0.3991 -0.2160
 1079SOL     OW 4361   1.782   3.457   1.858 -0.1160  0.0474  0.6526
 1079SOL    HW2 4362   1.780   3.371   1.902  1.8085 -0.6291 -0.5171
 1079SOL    HW3 4363   1.718   3.509   1.906 -0.3052 -1.6159  2.2973
 1079SOL    MW4 4364   1.774   3.452   1.870  0.1129 -0.2613  0.7154
 1080SOL     OW 4365   2.040   3.552   1.933 -0.5942 -0.0628 -0.1209
 1080SOL    HW2 4366   2.024   3.639   1.894  0.3964  0.1681 -0.0352
 1080SOL    HW3 4367   1.964   3.501   1.908 -0.4619  0.3806 -1.5365
 1080SOL    MW4 4368   2.028   3.557   1.924 -0.4461  0.0262 -0.2962
 1081SOL     OW 4369   2.018   3.803   1.815  0.4734 -0.3726  0.3085
 1081SOL    HW2 4370   2.083   3.856   1.860  1.0683 -0.5264 -0.3755
 1081SOL    HW3 4371   2.016   3.837   1.726 -2.4155  1.5217  1.0243
 1081SOL    MW4 4372   2.026   3.814   1.809  0.1705 -0.1428  0.3126
 1082SOL     OW 4373   1.837   3.967   1.945  0.1237  0.0287  0.1923
 1082SOL    HW2 4374   1.836   4.048   1.894 -2.2821 -0.9374 -1.4045
 1082SOL    HW3 4375   1.900   3.911   1.901 -0.5037 -0.0832 -0.5737
 1082SOL    MW4 4376   1.845   3.970   1.933 -0.2764 -0.1135 -0.1194
 1083SOL     OW 4377   1.791   4.219   1.826  0.0798 -0.2306 -0.0361
 1083SOL    HW2 4378   1.728   4.273   1.874 -0.3419 -1.3339  0.6504
 1083SOL    HW3 4379   1.776   4.243   1.734 -0.6425  0.2523  0.1974
 1083SOL    MW4 4380   1.780   4.230   1.820 -0.0713 -0.3128  0.0854
 1084SOL     OW 4381   2.019   4.356   1.983  0.0148 -0.2147 -0.5330
 1084SOL    HW2 4382   2.083   4.291   1.952 -0.1558 -0.2495 -0.8148
 1084SOL    HW3 4383   1.934   4.317   1.964 -0.0887 -0.1973 -0.0917
 1084SOL    MW4 4384   2.016   4.343   1.976 -0.0215 -0.2170 -0.5120
 1085SOL     OW 4385   2.475   4.621   1.828 -0.2385 -0.6549 -0.0574
 1085SOL    HW2 4386   2.563   4.647   1.855  0.1744 -0.5221 -1.5050
 1085SOL    HW3 4387   2.464   4.532   1.864  0.7011 -0.8935 -0.3490
 1085SOL    MW4 4388   2.485   4.612   1.837 -0.0601 -0.6690 -0.2869
 1086SOL     OW 4389   2.268   0.122   1.889  0.4473  0.5134 -0.2304
 1086SOL    HW2 4390   2.305   0.113   1.978  1.5474  1.2131 -0.6034
 1086SOL    HW3 4391   2.333   0.081   1.832  0.7940  2.0190 -0.9337
 1086SOL    MW4 4392   2.282   0.116   1.894  0.6380  0.8043 -0.3724
 1087SOL     OW 4393   2.226   0.378   1.835  0.2023  0.0762 -0.0067
 1087SOL    HW2 4394   2.224   0.287   1.863  1.5257  0.2843  0.8170
 1087SOL    HW3 4395   2.153   0.419   1.883 -1.7161 -0.9475 -1.9546
 1087SOL    MW4 4396   2.216   0.372   1.845  0.1237 -0.0314 -0.1550
 1088SOL     OW 4397   2.470   0.466   1.939  0.0366 -0.3834  0.0809
 1088SOL    HW2 4398   2.529   0.403   1.897 -0.2488 -0.0272 -0.8568
 1088SOL    HW3 4399   2.382   0.429   1.925 -0.0066 -0.6316  0.9943
 1088SOL    MW4 4400   2.466   0.453   1.932 -0.0067 -0.3692  0.0777
 1089SOL     OW 4401   2.486   0.745   1.867  0.1394 -0.2841 -0.2385
 1089SOL    HW2 4402   2.490   0.652   1.887 -1.8846 -0.2459  0.5107
 1089SOL    HW3 4403   2.497   0.750   1.772 -1.1458 -1.4250 -0.4643
 1089SOL    MW4 4404   2.488   0.734   1.857 -0.2975 -0.4296 -0.1695
 1090SOL     OW 4405   2.239   0.892   1.969  0.1193 -0.1886  0.2718
 1090SOL    HW2 4406   2.237   0.890   2.065 -2.0882 -1.0585  0.2242
 1090SOL    HW3 4407   2.309   0.831   1.945  0.0214 -0.7119  1.3104
 1090SOL    MW4 4408   2.248   0.884   1.978 -0.1848 -0.3724  0.4027
 1091SOL     OW 4409   2.237   1.164   1.866  0.2756 -0.0030 -0.2211
 1091SOL    HW2 4410   2.313   1.210   1.900 -0.2927  0.4267  0.4913
 1091SOL    HW3 4411   2.235   1.081   1.914  0.5876 -0.2522 -0.6233
 1091SOL    MW4 4412   2.247   1.159   1.877  0.2418  0.0206 -0.1802
 1092SOL     OW 4413   2.451   1.299   1.965 -0.3434  0.2751 -0.3376
 1092SOL    HW2 4414   2.444   1.298   2.061  1.1353 -0.6040 -0.2165
 1092SOL    HW3 4415   2.484   1.386   1.944  0.3026  0.1345  0.0520
 1092SOL    MW4 4416   2.455   1.310   1.975 -0.0632  0.1405 -0.2702
 1093SOL     OW 4417   2.500   1.539   1.872 -0.4669  0.2670 -0.0553
 1093SOL    HW2 4418   2.423   1.592   1.894 -1.7813 -0.8726 -1.7141
 1093SOL    HW3 4419   2.494   1.527   1.777  0.2955 -2.0726  0.1609
 1093SOL    MW4 4420   2.489   1.544   1.862 -0.5395 -0.1923 -0.2456
 1094SOL     OW 4421   2.249   1.677   1.941 -0.2532 -0.3829 -0.2835
 1094SOL    HW2 4422   2.250   1.663   2.036 -1.9264 -0.4359 -0.2629
 1094SOL    HW3 4423   2.166   1.638   1.912  0.0755 -0.0331 -1.7184
 1094SOL    MW4 4424   2.238   1.670   1.950 -0.4303 -0.3437 -0.4703
 1095SOL     OW 4425   2.230   1.948   1.875  0.0756 -0.2527 -0.0637
 1095SOL    HW2 4426   2.234   1.856   1.903  1.9161 -0.5489 -1.2254
 1095SOL    HW3 4427   2.302   1.990   1.921 -0.2653  0.4383 -0.1605
 1095SOL    MW4 4428   2.240   1.941   1.884  0.2732 -0.2006 -0.2297
 1096SOL     OW 4429   2.453   2.076   1.994 -0.1868 -0.1410  0.0745
 1096SOL    HW2 4430   2.524   2.018   1.965  1.4409  1.8030  0.0895
 1096SOL    HW3 4431   2.462   2.154   1.940 -1.9740  0.3799  0.4919
 1096SOL    MW4 4432   2.463   2.078   1.983 -0.2079  0.1841  0.1316
 1097SOL     OW 4433   2.473   2.329   1.856  0.0192  0.2327 -0.3082
 1097SOL    HW2 4434   2.551   2.350   1.907  0.2514  1.8285 -1.3094
 1097SOL    HW3 4435   2.400   2.361   1.910 -0.0786 -2.3150  1.1835
 1097SOL    MW4 4436   2.473   2.336   1.870  0.0370  0.1070 -0.2435
 1098SOL     OW 4437   2.280   2.443   2.022  0.2948  0.0709 -0.1882
 1098SOL    HW2 4438   2.272   2.440   2.117  0.7293  0.4851 -0.1354
 1098SOL    HW3 4439   2.280   2.536   2.000 -1.4325 -0.0402 -0.7512
 1098SOL    MW4 4440   2.279   2.455   2.031  0.1245  0.1111 -0.2553
 1099SOL     OW 4441   2.249   2.719   1.929  0.0570  0.0688  0.1575
 1099SOL    HW2 4442   2.174   2.777   1.939  0.0299 -0.1171  1.0303
 1099SOL    HW3 4443   2.259   2.710   1.834 -1.5531 -0.5729  0.0213
 1099SOL    MW4 4444   2.240   2.725   1.918 -0.1590 -0.0403  0.2546
 1100SOL     OW 4445   2.479   2.837   2.008  0.3918 -0.3448  0.4464
 1100SOL    HW2 4446   2.480   2.926   1.973 -0.1441 -0.9832 -1.2472
 1100SOL    HW3 4447   2.394   2.802   1.981 -0.3784 -0.5943  3.1150
 1100SOL    MW4 4448   2.468   2.844   2.000  0.2196 -0.4621  0.5748
 1101SOL     OW 4449   2.493   3.092   1.896 -0.1573  0.4049  0.5067
 1101SOL    HW2 4450   2.410   3.133   1.918 -1.8209 -2.9237  0.7620
 1101SOL    HW3 4451   2.492   3.087   1.800 -1.1039 -1.1769  0.5705
 1101SOL    MW4 4452   2.482   3.097   1.886 -0.5016 -0.2429  0.5490
 1102SOL     OW 4453   2.249   3.199   1.926  0.2648  0.0740 -0.3023
 1102SOL    HW2 4454   2.240   3.207   2.021  0.5115 -2.7078  0.0076
 1102SOL    HW3 4455   2.164   3.165   1.897  0.1635  0.9847 -1.0829
 1102SOL    MW4 4456   2.236   3.195   1.934  0.2837 -0.1729 -0.3644
 1103SOL     OW 4457   2.284   3.453   1.844  0.2126  0.4760  0.2605
 1103SOL    HW2 4458   2.271   3.359   1.858  1.2040  0.4512  1.0710
 1103SOL    HW3 4459   2.197   3.491   1.853 -0.4401 -0.5322 -1.5683
 1103SOL    MW4 4460   2.271   3.446   1.847  0.2575  0.3397  0.1261
 1104SOL     OW 4461   2.490   3.597   1.947  0.3618 -0.3967  0.3047
 1104SOL    HW2 4462   2.482   3.599   2.043  1.6466 -0.6296  0.4239
 1104SOL    HW3 4463   2.414   3.545   1.919 -0.3346  0.1312  1.1459
 1104SOL    MW4 4464   2.479   3.590   1.956  0.4394 -0.3579  0.4314
 1105SOL     OW 4465   2.486   3.865   1.858  0.1771  0.2850  0.6888
 1105SOL    HW2 4466   2.403   3.890   1.899 -1.8240 -1.6598 -1.9682
 1105SOL    HW3 4467   2.491   3.770   1.870  2.6981  0.5297  1.9221
 1105SOL    MW4 4468   2.476   3.856   1.865  0.2456  0.0608  0.5009
 1106SOL     OW 4469   2.230   3.956   1.938  0.3870 -0.2270 -0.4085
 1106SOL    HW2 4470   2.219   3.959   2.033 -1.0934 -0.8077 -0.5534
 1106SOL    HW3 4471   2.222   4.048   1.911 -0.6504 -0.2325 -0.1307
 1106SOL    MW4 4472   2.227   3.969   1.947  0.0548 -0.3045 -0.3910
 1107SOL     OW 4473   2.214   4.203   1.840  0.2349  0.1692 -0.6584
 1107SOL    HW2 4474   2.297   4.240   1.869  0.4354 -0.4223 -0.4623
 1107SOL    HW3 4475   2.205   4.232   1.749  0.2267  0.9651 -0.4001
 1107SOL    MW4 4476   2.224   4.212   1.832  0.2606  0.1960 -0.5984
 1108SOL     OW 4477   2.434   4.340   1.932 -0.0272 -0.1404 -0.2769
 1108SOL    HW2 4478   2.448   4.353   2.026 -0.1140 -0.5159 -0.2104
 1108SOL    HW3 4479   2.517   4.306   1.900  0.1116  0.3112 -0.3997
 1108SOL    MW4 4480   2.447   4.337   1.941 -0.0203 -0.1307 -0.2843
 1109SOL     OW 4481   2.952   4.625   1.891  0.0558  0.2727 -0.5893
 1109SOL    HW2 4482   2.983   4.542   1.928  0.5294  0.1266 -1.3144
 1109SOL    HW3 4483   3.015   4.690   1.923 -0.3215  0.3584 -0.0124
 1109SOL    MW4 4484   2.965   4.622   1.900  0.0684  0.2646 -0.6089
 1110SOL     OW 4485   2.704   0.059   1.935 -0.6538 -0.1014 -0.0671
 1110SOL    HW2 4486   2.697   0.078   2.029 -0.9431  0.0108 -0.1102
 1110SOL    HW3 4487   2.788   0.013   1.926 -0.3686  0.3680  0.1703
 1110SOL    MW4 4488   2.714   0.056   1.946 -0.6545 -0.0246 -0.0414
 1111SOL     OW 4489   2.700   0.337   1.853 -0.1899 -0.1600 -0.3087
 1111SOL    HW2 4490   2.777   0.381   1.889 -0.4416  0.8051 -0.9157
 1111SOL    HW3 4491   2.704   0.248   1.887  0.2173  0.3970  1.1335
 1111SOL    MW4 4492   2.710   0.331   1.862 -0.1693  0.0409 -0.1986
 1112SOL     OW 4493   2.906   0.463   1.969 -0.1887  0.3341  0.1030
 1112SOL    HW2 4494   2.983   0.427   1.925 -0.3047  0.7537 -0.4560
 1112SOL    HW3 4495   2.909   0.557   1.949 -0.2596  0.5252  0.9718
 1112SOL    MW4 4496   2.916   0.471   1.960 -0.2131  0.4147  0.1438
 1113SOL     OW 4497   2.896   0.732   1.900 -0.1259  0.2717 -0.5312
 1113SOL    HW2 4498   2.974   0.777   1.934 -0.4809 -0.1789  0.9337
 1113SOL    HW3 4499   2.823   0.779   1.939 -0.5172 -1.1131  0.4466
 1113SOL    MW4 4500   2.897   0.744   1.910 -0.2241  0.0296 -0.2090
 1114SOL     OW 4501   2.666   0.866   2.013  0.2250  0.0163  0.1419
 1114SOL    HW2 4502   2.660   0.953   1.976 -0.0657  0.2336  0.6961
 1114SOL    HW3 4503   2.603   0.814   1.963 -0.8206  0.5174  0.9115
 1114SOL    MW4 4504   2.657   0.870   2.002  0.0489  0.1110  0.3164
 1115SOL     OW 4505   2.685   1.151   1.902  0.2669  0.3907  0.3471
 1115SOL    HW2 4506   2.612   1.194   1.946 -0.4534  0.6251 -1.0408
 1115SOL    HW3 4507   2.657   1.145   1.810  1.8678  0.2282 -0.1383
 1115SOL    MW4 4508   2.672   1.156   1.895  0.3829  0.4002  0.0999
 1116SOL     OW 4509   2.931   1.269   1.993 -0.4628  0.2020 -0.3054
 1116SOL    HW2 4510   2.933   1.359   1.959  0.2080  0.0777 -0.6118
 1116SOL    HW3 4511   2.852   1.230   1.955 -0.7770  0.6684 -0.1397
 1116SOL    MW4 4512   2.921   1.276   1.984 -0.4158  0.2472 -0.3238
 1117SOL     OW 4513   2.920   1.535   1.911 -0.2872 -0.1473  0.4517
 1117SOL    HW2 4514   3.003   1.566   1.948  1.0895 -2.3649 -0.6289
 1117SOL    HW3 4515   2.927   1.555   1.817 -1.4383  0.6318  0.5338
 1117SOL    MW4 4516   2.932   1.541   1.903 -0.2575 -0.3371  0.3198
 1118SOL     OW 4517   2.708   1.676   1.997 -0.0359  0.4301  0.1637
 1118SOL    HW2 4518   2.782   1.618   1.982  1.0167  1.5155  1.1498
 1118SOL    HW3 4519   2.636   1.636   1.946  1.1410 -0.7326 -0.6163
 1118SOL    MW4 4520   2.708   1.663   1.988  0.2584  0.4199  0.1907
 1119SOL     OW 4521   2.683   1.937   1.884  0.1298 -0.2232 -0.2031
 1119SOL    HW2 4522   2.762   1.986   1.905 -0.7208  0.8833  0.4757
 1119SOL    HW3 4523   2.702   1.847   1.913  0.4397  0.4415  1.7129
 1119SOL    MW4 4524   2.696   1.931   1.891  0.0584  0.0106  0.1392
 1120SOL     OW 4525   2.931   2.072   1.961 -0.5741  0.0543 -0.0298
 1120SOL    HW2 4526   2.902   2.086   2.051 -1.5704 -1.9043 -0.0350
 1120SOL    HW3 4527   2.997   2.003   1.967  0.3427  0.8441 -0.6643
 1120SOL    MW4 4528   2.936   2.065   1.974 -0.5846 -0.0997 -0.1142
 1121SOL     OW 4529   2.981   2.318   1.849 -0.3413 -0.5476  0.1470
 1121SOL    HW2 4530   3.051   2.364   1.895 -0.2476 -0.0488 -0.4837
 1121SOL    HW3 4531   2.975   2.233   1.892 -0.9650  0.3089  1.7819
 1121SOL    MW4 4532   2.989   2.313   1.861 -0.4110 -0.3686  0.2795
 1122SOL     OW 4533   2.719   2.435   1.939  0.1305 -0.5864 -0.3943
 1122SOL    HW2 4534   2.733   2.529   1.927  0.6605 -0.6798 -0.5362
 1122SOL    HW3 4535   2.806   2.396   1.927 -0.3149 -1.2214 -1.7226
 1122SOL    MW4 4536   2.732   2.442   1.936  0.1416 -0.6826 -0.5884
 1123SOL     OW 4537   2.697   2.695   1.899 -0.3109 -0.1111  0.0050
 1123SOL    HW2 4538   2.624   2.748   1.933 -0.1844  0.1122 -0.0722
 1123SOL    HW3 4539   2.687   2.699   1.804 -0.4150 -0.3864  0.0047
 1123SOL    MW4 4540   2.686   2.702   1.891 -0.3078 -0.1178 -0.0051
 1124SOL     OW 4541   2.923   2.842   1.980  0.5819 -0.0630 -0.3153
 1124SOL    HW2 4542   2.918   2.928   1.938  1.0547  0.3384  0.4405
 1124SOL    HW3 4543   2.842   2.799   1.954  0.1202  0.7891 -0.3280
 1124SOL    MW4 4544   2.911   2.848   1.971  0.5834  0.1023 -0.2172
 1125SOL     OW 4545   2.956   3.074   1.818 -0.1707  0.3006  0.0557
 1125SOL    HW2 4546   3.037   3.111   1.853  0.9012 -2.4545  0.6450
 1125SOL    HW3 4547   2.887   3.131   1.851  1.2161  0.4322  2.8864
 1125SOL    MW4 4548   2.957   3.086   1.827  0.1538 -0.0455  0.5069
 1126SOL     OW 4549   2.739   3.214   1.939 -0.6926 -0.6366  0.0755
 1126SOL    HW2 4550   2.728   3.299   1.896 -0.5892 -0.5454  0.2309
 1126SOL    HW3 4551   2.652   3.175   1.938 -0.5769 -0.8918 -0.7618
 1126SOL    MW4 4552   2.726   3.220   1.933 -0.6638 -0.6583 -0.0144
 1127SOL     OW 4553   2.718   3.478   1.823 -0.3071  0.0488  0.3402
 1127SOL    HW2 4554   2.793   3.532   1.845 -0.3047  0.3831 -0.4622
 1127SOL    HW3 4555   2.646   3.515   1.874 -0.0043 -0.0712  0.8608
 1127SOL    MW4 4556   2.718   3.490   1.833 -0.2668  0.0772  0.3029
 1128SOL     OW 4557   2.930   3.606   1.975 -0.0836 -0.0998 -0.4460
 1128SOL    HW2 4558   2.915   3.597   2.069 -0.8220 -0.5822 -0.6100
 1128SOL    HW3 4559   3.016   3.567   1.960  0.7682  1.4589  0.2854
 1128SOL    MW4 4560   2.939   3.600   1.985 -0.0684  0.0422 -0.3711
 1129SOL     OW 4561   2.954   3.855   1.870  0.2187  0.4363 -0.4912
 1129SOL    HW2 4562   2.941   3.769   1.909 -2.3220  0.8006 -0.4881
 1129SOL    HW3 4563   2.951   3.840   1.776 -0.5584  0.5806 -0.4869
 1129SOL    MW4 4564   2.952   3.842   1.863 -0.2189  0.5035 -0.4903
 1130SOL     OW 4565   2.731   3.993   1.950 -0.2454  0.3326 -0.1385
 1130SOL    HW2 4566   2.797   3.931   1.918  0.1554  0.6544  0.0662
 1130SOL    HW3 4567   2.648   3.947   1.940  0.3189 -1.4150  2.8866
 1130SOL    MW4 4568   2.729   3.979   1.944 -0.1183  0.1447  0.2875
 1131SOL     OW 4569   2.697   4.246   1.866  0.1442 -0.0621 -0.1363
 1131SOL    HW2 4570   2.693   4.156   1.900  0.4863  0.2812  0.8385
 1131SOL    HW3 4571   2.696   4.236   1.771  0.0830 -1.0971 -0.0318
 1131SOL    MW4 4572   2.696   4.233   1.858  0.1812 -0.1540  0.0061
 1132SOL     OW 4573   2.935   4.335   1.962  0.5755  0.2275  0.7601
 1132SOL    HW2 4574   2.928   4.345   2.057 -1.0958  1.0444  0.5675
 1132SOL    HW3 4575   2.848   4.306   1.934  1.2250 -0.6165 -0.4589
 1132SOL    MW4 4576   2.922   4.333   1.970  0.4408  0.2241  0.5738
 1133SOL     OW 4577   3.369   4.630   1.930  0.3839 -0.4292 -0.1124
 1133SOL    HW2 4578   3.365   4.541   1.964 -2.2328  0.2355  1.4081
 1133SOL    HW3 4579   3.384   4.619   1.836  0.7774 -2.4389  0.1580
 1133SOL    MW4 4580   3.371   4.617   1.922  0.0906 -0.6070  0.1239
 1134SOL     OW 4581   3.156   0.125   1.969 -0.0702  0.1134 -0.0931
 1134SOL    HW2 4582   3.149   0.139   2.064 -0.2981  1.4989 -0.2968
 1134SOL    HW3 4583   3.231   0.067   1.959 -0.1051 -0.1338  0.9451
 1134SOL    MW4 4584   3.165   0.119   1.980 -0.1051  0.2636  0.0170
 1135SOL     OW 4585   3.132   0.377   1.858  0.0347  0.0922  0.1439
 1135SOL    HW2 4586   3.146   0.290   1.896 -0.5830  0.0772  0.3330
 1135SOL    HW3 4587   3.139   0.363   1.764 -1.5083 -0.4287  0.0966
 1135SOL    MW4 4588   3.135   0.364   1.851 -0.2506  0.0215  0.1627
 1136SOL     OW 4589   3.340   0.494   1.991 -0.3909 -0.0435  0.1634
 1136SOL    HW2 4590   3.418   0.447   1.962  0.3686  0.3579  1.4871
 1136SOL    HW3 4591   3.267   0.446   1.952  0.5347 -0.0948 -1.5438
 1136SOL    MW4 4592   3.341   0.481   1.982 -0.1683  0.0027  0.1128
 1137SOL     OW 4593   3.371   0.760   1.878  0.0683  0.0462  0.3726
 1137SOL    HW2 4594   3.287   0.804   1.892  0.1056  0.2092  0.0882
 1137SOL    HW3 4595   3.360   0.673   1.916  0.1185  0.4351  1.2837
 1137SOL    MW4 4596   3.359   0.754   1.885  0.0794  0.1190  0.4553
 1138SOL     OW 4597   3.113   0.866   1.980  0.8007 -0.5423  0.6403
 1138SOL    HW2 4598   3.120   0.873   2.075 -0.2865 -1.0801  0.7719
 1138SOL    HW3 4599   3.129   0.955   1.948 -0.6119  0.0154  1.4491
 1138SOL    MW4 4600   3.116   0.879   1.988  0.4706 -0.5397  0.7644
 1139SOL     OW 4601   3.129   1.120   1.868 -0.1637 -0.1246 -0.3602
 1139SOL    HW2 4602   3.202   1.172   1.903 -0.2233 -1.1503  1.3351
 1139SOL    HW3 4603   3.051   1.167   1.897 -0.2229 -1.2622  1.4104
 1139SOL    MW4 4604   3.128   1.133   1.876 -0.1795 -0.4098  0.0972
 1140SOL     OW 4605   3.349   1.260   1.985  0.0489 -0.0376  0.2561
 1140SOL    HW2 4606   3.345   1.270   2.081 -1.1054 -0.2601  0.2328
 1140SOL    HW3 4607   3.349   1.350   1.953 -1.2660  0.0210  0.4044
 1140SOL    MW4 4608   3.348   1.274   1.994 -0.2768 -0.0592  0.2726
 1141SOL     OW 4609   3.365   1.513   1.867 -0.2398 -0.0212  0.0706
 1141SOL    HW2 4610   3.439   1.561   1.907 -0.1470 -0.8249  0.8857
 1141SOL    HW3 4611   3.289   1.541   1.917 -0.1419 -0.9405  0.7468
 1141SOL    MW4 4612   3.365   1.523   1.879 -0.2148 -0.2486  0.2673
 1142SOL     OW 4613   3.160   1.640   2.023  0.2636 -0.0444 -0.1739
 1142SOL    HW2 4614   3.143   1.652   2.116  0.2319  1.3391 -0.3546
 1142SOL    HW3 4615   3.158   1.728   1.986  0.5468 -0.5547 -1.4398
 1142SOL    MW4 4616   3.158   1.653   2.030  0.2968  0.0708 -0.3645
 1143SOL     OW 4617   3.142   1.896   1.916 -0.1904  0.3597  0.1230
 1143SOL    HW2 4618   3.225   1.934   1.945 -0.2808 -0.2458  1.1960
 1143SOL    HW3 4619   3.132   1.926   1.826  0.8471  1.0183  0.2230
 1143SOL    MW4 4620   3.152   1.905   1.908 -0.0656  0.3667  0.2778
 1144SOL     OW 4621   3.373   2.033   2.023  0.0944 -0.2076  0.1121
 1144SOL    HW2 4622   3.449   1.983   1.993  0.5222  0.1826  0.5445
 1144SOL    HW3 4623   3.377   2.115   1.974 -1.4083 -1.1501 -1.6639
 1144SOL    MW4 4624   3.383   2.037   2.013 -0.0474 -0.2806 -0.0651
 1145SOL     OW 4625   3.384   2.282   1.873  0.4519 -0.4208 -0.1461
 1145SOL    HW2 4626   3.313   2.333   1.913 -0.7127 -2.2453  0.1610
 1145SOL    HW3 4627   3.373   2.295   1.779  0.3517  0.1187 -0.0658
 1145SOL    MW4 4628   3.373   2.291   1.866  0.2854 -0.5903 -0.0950
 1146SOL     OW 4629   3.194   2.435   1.991  0.3433  0.3336 -0.2756
 1146SOL    HW2 4630   3.171   2.446   2.084  1.6964  0.1450  0.0847
 1146SOL    HW3 4631   3.178   2.521   1.952 -1.4847  0.0677 -0.1453
 1146SOL    MW4 4632   3.189   2.448   1.998  0.2806  0.2737 -0.2108
 1147SOL     OW 4633   3.140   2.688   1.880 -0.3925 -0.0301  0.1423
 1147SOL    HW2 4634   3.064   2.736   1.913 -0.1867 -0.6730  1.6022
 1147SOL    HW3 4635   3.135   2.697   1.785 -1.5930  0.9912  0.2937
 1147SOL    MW4 4636   3.129   2.696   1.872 -0.5238  0.0198  0.3550
 1148SOL     OW 4637   3.373   2.847   1.974  0.0543  0.0901  0.1580
 1148SOL    HW2 4638   3.379   2.840   2.070  0.4337  2.8012  0.3685
 1148SOL    HW3 4639   3.297   2.794   1.951  0.1771 -0.8884  1.9241
 1148SOL    MW4 4640   3.364   2.839   1.984  0.1204  0.3185  0.4187
 1149SOL     OW 4641   3.389   3.102   1.845  0.0234  0.4597 -0.2101
 1149SOL    HW2 4642   3.460   3.150   1.889 -1.8617  1.5009  1.7825
 1149SOL    HW3 4643   3.384   3.018   1.892 -0.0211  0.3414 -0.4230
 1149SOL    MW4 4644   3.398   3.097   1.857 -0.2313  0.5815  0.0246
 1150SOL     OW 4645   3.168   3.205   1.958  0.3650 -0.3111  0.5399
 1150SOL    HW2 4646   3.162   3.301   1.954 -0.8610 -0.4366 -0.6678
 1150SOL    HW3 4647   3.250   3.185   1.914 -0.0534  0.0940 -0.4315
 1150SOL    MW4 4648   3.178   3.215   1.952  0.1481 -0.2742  0.2525
 1151SOL     OW 4649   3.168   3.492   1.927  0.2358 -0.1344 -0.0894
 1151SOL    HW2 4650   3.247   3.538   1.956 -0.4935  0.6507  0.7004
 1151SOL    HW3 4651   3.174   3.490   1.832  0.5859  1.0428 -0.0961
 1151SOL    MW4 4652   3.180   3.498   1.919  0.1857  0.1247  0.0139
 1152SOL     OW 4653   3.389   3.648   1.995 -0.1826 -0.0568  0.2877
 1152SOL    HW2 4654   3.471   3.606   1.968  0.1126  0.9063 -0.3556
 1152SOL    HW3 4655   3.393   3.735   1.955 -1.2947  0.1747  0.6718
 1152SOL    MW4 4656   3.400   3.654   1.986 -0.2906  0.1009  0.2536
 1153SOL     OW 4657   3.432   3.889   1.870 -0.3488  0.2194 -0.1181
 1153SOL    HW2 4658   3.344   3.924   1.885 -0.2698  0.0299  0.7899
 1153SOL    HW3 4659   3.439   3.882   1.775 -0.7422  1.7010 -0.2715
 1153SOL    MW4 4660   3.421   3.893   1.859 -0.3905  0.3898 -0.0186
 1154SOL     OW 4661   3.202   3.969   1.973  0.0560  0.0908  0.2921
 1154SOL    HW2 4662   3.182   3.986   2.065  0.4556  0.1582  0.3682
 1154SOL    HW3 4663   3.118   3.944   1.934  0.0516 -0.8121  0.8693
 1154SOL    MW4 4664   3.188   3.968   1.980  0.1082 -0.0196  0.3784
 1155SOL     OW 4665   3.174   4.236   1.913 -0.0722 -0.3910 -0.1285
 1155SOL    HW2 4666   3.196   4.152   1.953 -0.2223  0.1326  1.0652
 1155SOL    HW3 4667   3.084   4.253   1.939  0.0509  0.2798 -0.1272
 1155SOL    MW4 4668   3.165   4.227   1.921 -0.0758 -0.2332  0.0291
 1156SOL     OW 4669   3.387   4.368   2.018 -0.1754 -0.4553  0.2591
 1156SOL    HW2 4670   3.448   4.337   1.951  2.3253  1.0532  1.7544
 1156SOL    HW3 4671   3.301   4.340   1.987  1.0543 -0.9662 -2.8802
 1156SOL    MW4 4672   3.383   4.360   2.005  0.3169 -0.3228  0.0422
 1157SOL     OW 4673   3.849   4.666   1.908 -0.2704 -0.2916 -0.0864
 1157SOL    HW2 4674   3.845   4.571   1.912  1.2051 -0.3845 -0.5178
 1157SOL    HW3 4675   3.763   4.695   1.936 -0.3232 -1.7223  1.2839
 1157SOL    MW4 4676   3.837   4.658   1.912 -0.0825 -0.4926  0.0376
 1158SOL     OW 4677   3.593   0.095   1.996  0.4028 -0.2618 -0.9846
 1158SOL    HW2 4678   3.587   0.107   2.091  1.4218  1.0662 -1.0665
 1158SOL    HW3 4679   3.512   0.049   1.973 -1.2126  1.8501  0.1633
 1158SOL    MW4 4680   3.581   0.091   2.006  0.3242  0.1920 -0.8438
 1159SOL     OW 4681   3.562   0.364   1.910  0.0523 -0.2899  0.1503
 1159SOL    HW2 4682   3.560   0.270   1.928  0.7191 -0.1937  0.7653
 1159SOL    HW3 4683   3.571   0.370   1.815 -1.4645 -0.8289 -0.0372
 1159SOL    MW4 4684   3.563   0.352   1.900 -0.0601 -0.3483  0.2067
 1160SOL     OW 4685   3.811   0.455   1.987  0.2762 -0.2304 -0.6886
 1160SOL    HW2 4686   3.797   0.547   1.963  0.2868  0.3997  1.6144
 1160SOL    HW3 4687   3.728   0.412   1.966 -0.8315  0.9564  1.1593
 1160SOL    MW4 4688   3.798   0.462   1.981  0.1316  0.0093 -0.1409
 1161SOL     OW 4689   3.808   0.728   1.911  0.4237  0.5948 -0.3044
 1161SOL    HW2 4690   3.733   0.779   1.941  0.0378  0.1157 -0.4461
 1161SOL    HW3 4691   3.807   0.740   1.816  0.0588 -0.0402 -0.3853
 1161SOL    MW4 4692   3.798   0.736   1.902  0.3247  0.4479 -0.3338
 1162SOL     OW 4693   3.590   0.878   1.993 -0.4162  0.4924 -0.0121
 1162SOL    HW2 4694   3.592   0.958   1.941 -1.9860 -0.0354 -0.8937
 1162SOL    HW3 4695   3.519   0.826   1.956 -0.8913 -0.3515  1.9786
 1162SOL    MW4 4696   3.581   0.882   1.982 -0.6862  0.3114  0.1342
 1163SOL     OW 4697   3.596   1.134   1.901 -0.1549 -0.3011  0.3683
 1163SOL    HW2 4698   3.513   1.175   1.923  0.2413  0.4554  0.4721
 1163SOL    HW3 4699   3.602   1.143   1.805 -0.5267 -0.9971  0.2795
 1163SOL    MW4 4700   3.586   1.141   1.891 -0.1519 -0.2931  0.3704
 1164SOL     OW 4701   3.845   1.253   1.967 -0.6078  0.0646  0.4992
 1164SOL    HW2 4702   3.833   1.269   2.061 -0.9258  1.7700  0.1737
 1164SOL    HW3 4703   3.762   1.216   1.938  0.1320 -2.3005  1.2488
 1164SOL    MW4 4704   3.832   1.250   1.976 -0.5522 -0.0225  0.5550
 1165SOL     OW 4705   3.841   1.521   1.848 -0.1385 -0.1555 -0.2478
 1165SOL    HW2 4706   3.913   1.576   1.880 -1.4047  0.5256  1.4983
 1165SOL    HW3 4707   3.848   1.441   1.900 -0.5785 -0.1311 -0.1541
 1165SOL    MW4 4708   3.852   1.518   1.859 -0.3636 -0.0623 -0.0051
 1166SOL     OW 4709   3.610   1.642   1.957 -0.6044  0.1402 -0.2715
 1166SOL    HW2 4710   3.614   1.734   1.933  0.3263  0.6010  1.5095
 1166SOL    HW3 4711   3.682   1.601   1.909  0.6868  0.8756  0.9975
 1166SOL    MW4 4712   3.620   1.649   1.948 -0.3114  0.2980  0.1310
 1167SOL     OW 4713   3.610   1.910   1.904  0.0126 -0.1349 -0.1871
 1167SOL    HW2 4714   3.688   1.960   1.929 -0.1968 -0.6592  1.5708
 1167SOL    HW3 4715   3.607   1.917   1.809  1.7164  0.6278 -0.2074
 1167SOL    MW4 4716   3.620   1.917   1.895  0.2098 -0.1035  0.0422
 1168SOL     OW 4717   3.824   2.073   1.985  0.4733 -0.0264 -0.0310
 1168SOL    HW2 4718   3.908   2.037   1.955  1.0820 -0.8457  2.5691
 1168SOL    HW3 4719   3.826   2.164   1.955  1.5044 -0.5054 -1.5205
 1168SOL    MW4 4720   3.835   2.081   1.977  0.6897 -0.1976  0.1155
 1169SOL     OW 4721   3.828   2.331   1.899 -0.1537 -0.3047  0.4442
 1169SOL    HW2 4722   3.890   2.398   1.926  0.3045 -0.8672  0.7991
 1169SOL    HW3 4723   3.742   2.365   1.923  0.1787 -0.4091  1.7820
 1169SOL    MW4 4724   3.825   2.344   1.905 -0.0496 -0.3927  0.6675
 1170SOL     OW 4725   3.589   2.448   1.967 -0.2357  0.1239  0.3987
 1170SOL    HW2 4726   3.589   2.532   1.921 -1.1908  1.5296  2.8526
 1170SOL    HW3 4727   3.524   2.395   1.923  0.1703  0.7727 -0.9926
 1170SOL    MW4 4728   3.581   2.452   1.955 -0.3078  0.3951  0.5389
 1171SOL     OW 4729   3.600   2.719   1.884  0.1004  0.0487  0.1411
 1171SOL    HW2 4730   3.670   2.754   1.940  0.1129  0.6397 -0.2440
 1171SOL    HW3 4731   3.520   2.760   1.918  0.0811  0.2389 -0.1349
 1171SOL    MW4 4732   3.599   2.729   1.896  0.0997  0.1516  0.0538
 1172SOL     OW 4733   3.814   2.812   2.049 -0.0065 -0.7088  0.0222
 1172SOL    HW2 4734   3.824   2.812   2.144 -0.0100  0.1106  0.0297
 1172SOL    HW3 4735   3.819   2.904   2.025 -0.0226 -0.9135 -0.7724
 1172SOL    MW4 4736   3.816   2.824   2.058 -0.0091 -0.6275 -0.0815
 1173SOL     OW 4737   3.816   3.076   1.916 -0.0551 -0.1948  0.0054
 1173SOL    HW2 4738   3.753   3.147   1.927 -1.3127 -1.4104  0.6822
 1173SOL    HW3 4739   3.839   3.079   1.823  1.1057  2.0937  0.3314
 1173SOL    MW4 4740   3.811   3.086   1.905 -0.0682 -0.0536  0.1377
 1174SOL     OW 4741   3.593   3.245   1.972 -0.3181  0.0803 -0.2445
 1174SOL    HW2 4742   3.577   3.236   2.066 -0.1247  0.0193 -0.2161
 1174SOL    HW3 4743   3.595   3.339   1.957 -1.0481  0.0884 -0.3119
 1174SOL    MW4 4744   3.591   3.256   1.982 -0.3889  0.0732 -0.2496
 1175SOL     OW 4745   3.621   3.516   1.935 -0.2236 -0.9499  0.2487
 1175SOL    HW2 4746   3.702   3.556   1.965 -0.7400 -0.1057  0.5312
 1175SOL    HW3 4747   3.637   3.496   1.843 -0.6116  1.6463 -0.4126
 1175SOL    MW4 4748   3.634   3.519   1.927 -0.3428 -0.4961  0.1987
 1176SOL     OW 4749   3.870   3.630   2.034 -0.2828  0.2347 -0.2995
 1176SOL    HW2 4750   3.947   3.587   1.996 -0.4835  0.3160 -0.8021
 1176SOL    HW3 4751   3.860   3.710   1.984 -0.2980  0.5563  0.2120
 1176SOL    MW4 4752   3.879   3.635   2.023 -0.3111  0.2878 -0.2985
 1177SOL     OW 4753   3.830   3.888   1.922 -0.2371 -0.9244 -0.2078
 1177SOL    HW2 4754   3.760   3.939   1.962  1.1672  0.6378  0.3278
 1177SOL    HW3 4755   3.822   3.904   1.828 -1.1765 -1.5178 -0.2329
 1177SOL    MW4 4756   3.820   3.896   1.915 -0.1760 -0.7963 -0.1403
 1178SOL     OW 4757   3.595   4.067   1.982 -0.6259  0.0140 -0.2010
 1178SOL    HW2 4758   3.589   4.050   2.076  0.5010 -0.5447 -0.2207
 1178SOL    HW3 4759   3.530   4.009   1.943 -0.4400 -0.4426  0.1578
 1178SOL    MW4 4760   3.585   4.057   1.990 -0.4525 -0.1202 -0.1562
 1179SOL     OW 4761   3.589   4.305   1.850 -0.2940 -0.0284 -0.3790
 1179SOL    HW2 4762   3.657   4.363   1.886 -1.2940  0.3399  0.9437
 1179SOL    HW3 4763   3.603   4.222   1.896 -1.2992  0.3137  0.5556
 1179SOL    MW4 4764   3.600   4.301   1.861 -0.5584  0.0658 -0.0812
 1180SOL     OW 4765   3.827   4.402   1.957 -0.3070  0.1118  0.3955
 1180SOL    HW2 4766   3.842   4.402   2.052 -0.2113 -0.0899  0.3793
 1180SOL    HW3 4767   3.902   4.354   1.921 -0.4649 -0.0141  0.2375
 1180SOL    MW4 4768   3.839   4.396   1.965 -0.3152  0.0682  0.3726
 1181SOL     OW 4769   4.303   0.046   1.858  0.0919  0.3984 -0.1794
 1181SOL    HW2 4770   4.223   0.071   1.902  0.1561  2.4830 -1.1953
 1181SOL    HW3 4771   4.373   0.086   1.909  0.6010 -2.0711  1.1687
 1181SOL    MW4 4772   4.302   0.054   1.870  0.1683  0.3481 -0.1357
 1182SOL     OW 4773   4.077   0.118   2.000 -0.2341 -0.3391 -0.2880
 1182SOL    HW2 4774   4.074   0.113   2.096 -0.0133 -3.2949 -0.3990
 1182SOL    HW3 4775   3.996   0.076   1.971  0.8484 -1.6790 -1.4301
 1182SOL    MW4 4776   4.066   0.112   2.009 -0.0615 -0.9059 -0.4532
 1183SOL     OW 4777   4.050   0.359   1.875  0.2320 -0.2523 -0.3971
 1183SOL    HW2 4778   4.068   0.277   1.921 -1.2963 -0.7972 -0.7556
 1183SOL    HW3 4779   3.973   0.394   1.919  0.1288  0.3627 -1.0788
 1183SOL    MW4 4780   4.042   0.353   1.887  0.0172 -0.2431 -0.5343
 1184SOL     OW 4781   4.270   0.462   1.992 -0.2463 -0.0762 -0.1226
 1184SOL    HW2 4782   4.247   0.477   2.083 -0.1657 -1.9258  0.2171
 1184SOL    HW3 4783   4.191   0.425   1.953 -0.7363  1.9421 -1.1641
 1184SOL    MW4 4784   4.257   0.459   1.999 -0.3009 -0.0539 -0.2152
 1185SOL     OW 4785   4.277   0.704   1.875 -0.1229  0.1987  0.2815
 1185SOL    HW2 4786   4.272   0.609   1.889  1.5877  0.1744  0.8260
 1185SOL    HW3 4787   4.268   0.715   1.781 -2.8683 -0.3026  0.4431
 1185SOL    MW4 4788   4.275   0.693   1.864 -0.2599  0.1293  0.3747
 1186SOL     OW 4789   4.036   0.871   1.955  0.3998 -0.7065  0.0958
 1186SOL    HW2 4790   4.099   0.810   1.917 -1.2468 -1.0799 -2.1027
 1186SOL    HW3 4791   3.952   0.825   1.949 -0.5596  1.0182  0.1277
 1186SOL    MW4 4792   4.033   0.857   1.949  0.0558 -0.5282 -0.1900
 1187SOL     OW 4793   4.053   1.132   1.860 -0.2196  0.2221 -0.5522
 1187SOL    HW2 4794   4.051   1.042   1.893  0.3360  0.5213  0.3359
 1187SOL    HW3 4795   3.979   1.175   1.903  0.6825  0.6911  0.5641
 1187SOL    MW4 4796   4.043   1.126   1.870 -0.0272  0.3234 -0.2878
 1188SOL     OW 4797   4.274   1.260   1.955 -0.3102 -0.3258  0.0594
 1188SOL    HW2 4798   4.278   1.252   2.051 -2.2720 -1.3200  0.0789
 1188SOL    HW3 4799   4.191   1.219   1.931 -0.2010  0.6112 -2.0087
 1188SOL    MW4 4800   4.263   1.254   1.965 -0.5546 -0.3334 -0.2110
 1189SOL     OW 4801   4.282   1.535   1.901  0.0601 -0.4020  0.1651
 1189SOL    HW2 4802   4.273   1.442   1.923 -0.7155 -0.1731  0.8535
 1189SOL    HW3 4803   4.265   1.540   1.807 -2.9813 -0.5471  0.6736
 1189SOL    MW4 4804   4.279   1.523   1.892 -0.4439 -0.3910  0.3229
 1190SOL     OW 4805   4.050   1.656   1.977  0.2160  0.2520 -0.0714
 1190SOL    HW2 4806   4.058   1.668   2.071 -0.4209  0.2155 -0.0108
 1190SOL    HW3 4807   4.129   1.608   1.952 -0.0795 -0.5986  0.5951
 1190SOL    MW4 4808   4.062   1.651   1.986  0.0930  0.1349  0.0247
 1191SOL     OW 4809   4.032   1.921   1.890  0.0474  0.1308  0.1101
 1191SOL    HW2 4810   4.030   1.832   1.922 -0.5164 -0.3080 -1.0837
 1191SOL    HW3 4811   4.047   1.912   1.795 -1.8312  1.1897 -0.3272
 1191SOL    MW4 4812   4.033   1.908   1.881 -0.2747  0.2127 -0.1051
 1192SOL     OW 4813   4.260   2.057   1.979 -0.0303 -0.2283  0.1518
 1192SOL    HW2 4814   4.253   2.059   2.074  1.4069 -1.5039  0.2968
 1192SOL    HW3 4815   4.188   2.001   1.951 -0.1729 -0.2290  0.5158
 1192SOL    MW4 4816   4.250   2.050   1.988  0.1402 -0.3967  0.2190
 1193SOL     OW 4817   4.275   2.322   1.886  0.1123 -0.0258 -0.1258
 1193SOL    HW2 4818   4.279   2.229   1.908 -0.9498 -0.0160  0.1400
 1193SOL    HW3 4819   4.351   2.360   1.931 -0.0515 -0.5831  0.6341
 1193SOL    MW4 4820   4.286   2.315   1.895 -0.0496 -0.0982  0.0094
 1194SOL     OW 4821   4.055   2.472   1.975 -0.0395 -0.6235 -0.0364
 1194SOL    HW2 4822   4.036   2.449   2.066 -0.3780 -0.0827  0.0265
 1194SOL    HW3 4823   4.127   2.413   1.951 -0.8491 -1.7101  0.1556
 1194SOL    MW4 4824   4.062   2.461   1.984 -0.1912 -0.6957 -0.0027
 1195SOL     OW 4825   4.034   2.722   1.873  0.1637  0.2335 -0.1946
 1195SOL    HW2 4826   4.054   2.635   1.906  0.7167 -0.1673 -1.5645
 1195SOL    HW3 4827   3.961   2.753   1.928 -0.7554 -1.5090 -0.4169
 1195SOL    MW4 4828   4.027   2.715   1.885  0.1154 -0.0489 -0.4047
 1196SOL     OW 4829   4.265   2.873   1.946 -0.2451  0.4711  0.0248
 1196SOL    HW2 4830   4.260   2.865   2.041 -0.2009 -1.1604 -0.1086
 1196SOL    HW3 4831   4.187   2.828   1.913  0.1176  0.3890 -0.7462
 1196SOL    MW4 4832   4.254   2.866   1.954 -0.1917  0.2446 -0.0944
 1197SOL     OW 4833   4.271   3.136   1.895  0.5557  0.1079 -0.6416
 1197SOL    HW2 4834   4.192   3.180   1.926  1.3663  1.0537  0.1208
 1197SOL    HW3 4835   4.263   3.047   1.927 -0.7186 -0.0909 -1.5024
 1197SOL    MW4 4836   4.260   3.130   1.903  0.4950  0.2062 -0.6546
 1198SOL     OW 4837   4.051   3.218   2.022 -0.2408 -0.2993 -0.5245
 1198SOL    HW2 4838   4.048   3.217   2.118  0.9476 -1.3221 -0.4827
 1198SOL    HW3 4839   3.982   3.157   1.996  0.8911 -1.7190 -0.2550
 1198SOL    MW4 4840   4.042   3.210   2.032  0.0658 -0.6216 -0.4835
 1199SOL     OW 4841   4.095   3.489   1.920  0.4672  0.4104  0.3260
 1199SOL    HW2 4842   4.182   3.510   1.953  1.0916 -0.1882 -0.8908
 1199SOL    HW3 4843   4.080   3.399   1.949 -0.3664  1.0155  1.7892
 1199SOL    MW4 4844   4.105   3.480   1.928  0.4396  0.4113  0.3585
 1200SOL     OW 4845   4.340   3.605   1.999 -0.0838 -0.1715 -0.0521
 1200SOL    HW2 4846   4.326   3.691   1.959  1.3403  0.8179  1.4909
 1200SOL    HW3 4847   4.406   3.564   1.943  1.0475  0.7461  0.5785
 1200SOL    MW4 4848   4.347   3.611   1.986  0.2532  0.0803  0.2347
 1201SOL     OW 4849   4.296   3.850   1.881 -0.0058 -0.1269 -0.0564
 1201SOL    HW2 4850   4.364   3.914   1.901 -1.3671  1.2522  0.1937
 1201SOL    HW3 4851   4.285   3.855   1.786 -0.1734  0.0684 -0.0263
 1201SOL    MW4 4852   4.304   3.859   1.871 -0.2079  0.0806 -0.0193
 1202SOL     OW 4853   4.077   4.000   1.986  0.1726 -0.1781  0.4511
 1202SOL    HW2 4854   4.139   3.930   1.968 -0.4640 -1.0325  1.4948
 1202SOL    HW3 4855   3.994   3.970   1.949  0.2548  0.7554 -0.5302
 1202SOL    MW4 4856   4.074   3.987   1.979  0.0997 -0.1676  0.4593
 1203SOL     OW 4857   4.053   4.269   1.891  0.7890  0.1120 -0.8282
 1203SOL    HW2 4858   4.127   4.322   1.922  1.2389 -0.7096 -0.4988
 1203SOL    HW3 4859   4.065   4.184   1.934  0.1714 -0.3156 -1.5086
 1203SOL    MW4 4860   4.065   4.265   1.901  0.7668 -0.0529 -0.8745
 1204SOL     OW 4861   4.264   4.448   1.935 -0.0348  0.4781 -0.1900
 1204SOL    HW2 4862   4.286   4.460   2.027 -1.8489  0.2938  0.2843
 1204SOL    HW3 4863   4.285   4.533   1.894 -0.0505  0.8444  0.5528
 1204SOL    MW4 4864   4.269   4.461   1.942 -0.2766  0.5021 -0.0294
 1205SOL     OW 4865   0.206   4.624   2.335 -0.4099  0.7606 -0.0426
 1205SOL    HW2 4866   0.234   4.622   2.427  1.0876 -2.8899 -0.4519
 1205SOL    HW3 4867   0.283   4.658   2.288  0.0574 -0.5156 -0.2335
 1205SOL    MW4 4868   0.220   4.628   2.341 -0.1507  0.1111 -0.1218
 1206SOL     OW 4869   4.490   0.109   2.265 -0.0343 -0.1846  0.4911
 1206SOL    HW2 4870   4.565   0.052   2.282  0.3917  0.3191  0.3431
 1206SOL    HW3 4871   4.494   0.125   2.170  1.0079  1.6441  0.8096
 1206SOL    MW4 4872   4.501   0.104   2.255  0.1594  0.1232  0.5136
 1207SOL     OW 4873   4.454   0.383   2.345 -0.0034  1.0476  0.3563
 1207SOL    HW2 4874   4.524   0.425   2.295  0.2832  1.2043  0.8875
 1207SOL    HW3 4875   4.462   0.290   2.324 -0.3153  1.1901 -0.4201
 1207SOL    MW4 4876   4.464   0.376   2.336 -0.0067  1.0871  0.3242
 1208SOL     OW 4877   0.199   0.513   2.213  0.3050 -0.3576  0.3916
 1208SOL    HW2 4878   0.284   0.489   2.249 -0.0240 -0.2672  1.2426
 1208SOL    HW3 4879   0.213   0.518   2.119  1.3704  0.1691  0.5674
 1208SOL    MW4 4880   0.212   0.511   2.205  0.4021 -0.2761  0.5269
 1209SOL     OW 4881   0.222   0.770   2.325  0.0217  0.4726  0.1913
 1209SOL    HW2 4882   0.222   0.762   2.420 -0.2856 -1.7556  0.0355
 1209SOL    HW3 4883   0.210   0.681   2.293 -1.1588  1.3430 -1.9358
 1209SOL    MW4 4884   0.221   0.757   2.333 -0.1746  0.2935 -0.1101
 1210SOL     OW 4885   4.478   0.883   2.236  0.1414  0.5419 -0.1138
 1210SOL    HW2 4886   4.560   0.838   2.254 -0.0371  0.2424 -0.0390
 1210SOL    HW3 4887   4.477   0.895   2.141 -0.2465 -0.4667 -0.2456
 1210SOL    MW4 4888   4.489   0.879   2.226  0.0668  0.3693 -0.1214
 1211SOL     OW 4889   0.024   1.121   2.349  0.2362  0.0028  0.0874
 1211SOL    HW2 4890   0.036   1.130   2.444 -0.9941  0.3260  0.2279
 1211SOL    HW3 4891   0.025   1.026   2.334  0.1730 -0.0615  0.4729
 1211SOL    MW4 4892   0.026   1.109   2.360  0.0655  0.0371  0.1569
 1212SOL     OW 4893   0.234   1.270   2.247 -0.1577 -0.2002  0.0084
 1212SOL    HW2 4894   0.151   1.228   2.271  0.4601 -0.8738  0.9873
 1212SOL    HW3 4895   0.227   1.282   2.153 -1.7673  0.6103  0.2072
 1212SOL    MW4 4896   0.222   1.266   2.238 -0.2886 -0.1823  0.1636
 1213SOL     OW 4897   0.240   1.523   2.391 -0.0017 -0.3503  0.1416
 1213SOL    HW2 4898   0.214   1.503   2.480  1.8278 -0.1733  0.7331
 1213SOL    HW3 4899   0.243   1.438   2.347  0.3063 -0.5695  0.5846
 1213SOL    MW4 4900   0.237   1.509   2.397  0.2803 -0.3558  0.2780
 1214SOL     OW 4901   0.023   1.637   2.261  0.3022 -0.0428 -0.1326
 1214SOL    HW2 4902  -0.000   1.719   2.305  0.0167  0.1760 -0.6733
 1214SOL    HW3 4903   0.107   1.613   2.298 -0.1014 -0.0609  0.7944
 1214SOL    MW4 4904   0.031   1.645   2.271  0.2117 -0.0163 -0.0815
 1215SOL     OW 4905   4.461   1.905   2.353 -0.5882 -0.0521 -0.2179
 1215SOL    HW2 4906   4.377   1.942   2.326 -0.7672  1.0231  1.7135
 1215SOL    HW3 4907   4.526   1.972   2.329 -0.4583 -0.2202 -0.3375
 1215SOL    MW4 4908   4.459   1.919   2.346 -0.5946  0.0677  0.0212
 1216SOL     OW 4909   0.197   2.032   2.279  0.2855 -0.3739 -0.4136
 1216SOL    HW2 4910   0.274   1.997   2.323  0.1265 -1.7451 -1.2043
 1216SOL    HW3 4911   0.213   2.018   2.186 -1.3906 -1.7371 -0.5368
 1216SOL    MW4 4912   0.209   2.025   2.273  0.0434 -0.7346 -0.5341
 1217SOL     OW 4913   0.201   2.302   2.362  0.0083  0.3766 -0.0448
 1217SOL    HW2 4914   0.230   2.292   2.452  3.2214 -1.6043 -1.2092
 1217SOL    HW3 4915   0.192   2.213   2.329 -1.0653  1.0738 -1.7203
 1217SOL    MW4 4916   0.204   2.289   2.369  0.2906  0.2074 -0.4194
 1218SOL     OW 4917   4.486   2.448   2.266 -0.3623 -0.0054 -0.3498
 1218SOL    HW2 4918   4.478   2.538   2.298 -0.9767 -0.3973  0.6240
 1218SOL    HW3 4919   4.562   2.413   2.312 -0.4449 -0.1458 -0.3188
 1218SOL    MW4 4920   4.495   2.455   2.276 -0.4539 -0.0758 -0.2172
 1219SOL     OW 4921   4.490   2.691   2.367 -0.0691 -0.4471 -0.1231
 1219SOL    HW2 4922   4.495   2.702   2.462 -0.0652  1.4697 -0.3202
 1219SOL    HW3 4923   4.571   2.731   2.334  1.0331 -3.1129 -0.8090
 1219SOL    MW4 4924   4.501   2.698   2.375  0.0768 -0.5462 -0.2394
 1220SOL     OW 4925   0.228   2.815   2.256  0.1678 -0.2712  0.1333
 1220SOL    HW2 4926   0.310   2.781   2.290 -0.5394 -1.3616  0.7660
 1220SOL    HW3 4927   0.230   2.792   2.163 -0.0218 -1.5065  0.4262
 1220SOL    MW4 4928   0.239   2.808   2.248  0.0495 -0.5779  0.2556
 1221SOL     OW 4929   0.246   3.077   2.378 -0.1813 -0.5696  0.2782
 1221SOL    HW2 4930   0.243   2.999   2.323 -0.0401  0.7067 -1.6178
 1221SOL    HW3 4931   0.164   3.123   2.359  1.1220  1.3010 -1.0591
 1221SOL    MW4 4932   0.235   3.073   2.368  0.0093 -0.1545 -0.1485
 1222SOL     OW 4933   4.486   3.238   2.322 -0.1069  0.1013 -0.2903
 1222SOL    HW2 4934   4.495   3.331   2.344  0.7256 -0.0027 -0.2022
 1222SOL    HW3 4935   4.484   3.236   2.227  1.1624  0.0873 -0.3176
 1222SOL    MW4 4936   4.487   3.250   2.312  0.1704  0.0858 -0.2823
 1223SOL     OW 4937   0.011   3.508   2.390  0.1016  0.4408  0.1386
 1223SOL    HW2 4938   0.002   3.492   2.484  1.1299 -0.9486  0.0269
 1223SOL    HW3 4939  -0.074   3.541   2.362 -1.0490 -1.6063  1.1090
 1223SOL    MW4 4940  -0.001   3.510   2.398  0.0854 -0.0124  0.2518
 1224SOL     OW 4941   0.209   3.640   2.259 -0.5330  0.3271  0.5795
 1224SOL    HW2 4942   0.286   3.608   2.306  1.1076  1.1670 -1.4611
 1224SOL    HW3 4943   0.135   3.601   2.306  1.1622 -1.8017  1.6058
 1224SOL    MW4 4944   0.210   3.631   2.272 -0.0929  0.1569  0.4456
 1225SOL     OW 4945   0.177   3.879   2.389 -0.0769 -0.3377  0.4417
 1225SOL    HW2 4946   0.102   3.922   2.349 -0.3354  1.1239  2.4367
 1225SOL    HW3 4947   0.180   3.793   2.346 -1.0842  0.6802 -1.7598
 1225SOL    MW4 4948   0.167   3.873   2.378 -0.2439 -0.0105  0.4144
 1226SOL     OW 4949   4.464   4.017   2.247  0.0569 -0.3503  0.0223
 1226SOL    HW2 4950   4.456   4.105   2.284 -1.0851 -0.6117  0.4087
 1226SOL    HW3 4951   4.449   4.029   2.154 -1.8129 -0.3823  0.3138
 1226SOL    MW4 4952   4.461   4.031   2.240 -0.3405 -0.3891  0.1116
 1227SOL     OW 4953   4.453   4.262   2.345 -0.1647  0.4852  0.0920
 1227SOL    HW2 4954   4.444   4.260   2.440 -0.5253  0.0136  0.0537
 1227SOL    HW3 4955   4.532   4.312   2.329 -0.9683  1.9272  0.5901
 1227SOL    MW4 4956   4.462   4.268   2.355 -0.3181  0.6132  0.1526
 1228SOL     OW 4957   0.212   4.359   2.268 -0.4443  0.3641  0.5179
 1228SOL    HW2 4958   0.286   4.313   2.307 -1.7059 -0.3552  2.0868
 1228SOL    HW3 4959   0.213   4.445   2.310 -0.9230  0.1088  1.0467
 1228SOL    MW4 4960   0.222   4.365   2.279 -0.6739  0.2356  0.7949
 1229SOL     OW 4961   0.677   4.646   2.328 -0.2093  0.2573  0.0024
 1229SOL    HW2 4962   0.666   4.638   2.423  2.4636  0.1573  0.3530
 1229SOL    HW3 4963   0.765   4.682   2.318 -1.0595  1.7915 -2.4094
 1229SOL    MW4 4964   0.687   4.650   2.339  0.0312  0.4473 -0.2697
 1230SOL     OW 4965   0.456   0.096   2.227  0.0839 -0.0308  0.0793
 1230SOL    HW2 4966   0.537   0.051   2.252  1.2337  1.0187 -1.5875
 1230SOL    HW3 4967   0.467   0.113   2.133 -1.9884  0.3245 -0.1181
 1230SOL    MW4 4968   0.468   0.093   2.218 -0.0378  0.1545 -0.1667
 1231SOL     OW 4969   0.414   0.373   2.317  0.0948 -0.4193  0.3021
 1231SOL    HW2 4970   0.426   0.373   2.412 -3.2438  0.5408  0.7585
 1231SOL    HW3 4971   0.402   0.280   2.295  1.4878 -0.7106  0.6909
 1231SOL    MW4 4972   0.414   0.360   2.327 -0.1619 -0.3310  0.4139
 1232SOL     OW 4973   0.666   0.453   2.251  0.1613 -0.0932 -0.0268
 1232SOL    HW2 4974   0.653   0.539   2.293 -1.2521  0.3552 -1.3270
 1232SOL    HW3 4975   0.581   0.411   2.256 -0.1116  0.0550 -2.5932
 1232SOL    MW4 4976   0.653   0.459   2.257 -0.0612 -0.0145 -0.5369
 1233SOL     OW 4977   0.637   0.721   2.335  0.2459  0.1719  0.3170
 1233SOL    HW2 4978   0.626   0.737   2.429 -0.2574 -0.7141  0.4112
 1233SOL    HW3 4979   0.564   0.767   2.294 -0.1505 -0.3487  0.4424
 1233SOL    MW4 4980   0.626   0.729   2.342  0.1273 -0.0136  0.3459
 1234SOL     OW 4981   0.448   0.893   2.198 -0.0606  0.5651  0.1719
 1234SOL    HW2 4982   0.355   0.880   2.218  0.2367 -3.0470 -0.4017
 1234SOL    HW3 4983   0.452   0.898   2.103  0.1804  2.4848  0.2603
 1234SOL    MW4 4984   0.436   0.892   2.188  0.0104  0.3418  0.1080
 1235SOL     OW 4985   0.458   1.141   2.328  0.1979  0.2337 -0.2032
 1235SOL    HW2 4986   0.462   1.054   2.289 -0.2103 -0.2975  0.8964
 1235SOL    HW3 4987   0.371   1.174   2.307 -0.3339 -0.4021  0.9598
 1235SOL    MW4 4988   0.447   1.134   2.320  0.0739  0.0798  0.0951
 1236SOL     OW 4989   0.669   1.291   2.245 -0.0374 -0.5587 -0.5272
 1236SOL    HW2 4990   0.666   1.380   2.280  0.8447 -1.2799  1.4107
 1236SOL    HW3 4991   0.590   1.250   2.280 -0.0508 -0.7601 -0.7979
 1236SOL    MW4 4992   0.658   1.297   2.254  0.0772 -0.6804 -0.3076
 1237SOL     OW 4993   0.694   1.537   2.381 -0.1351  0.8815  0.2812
 1237SOL    HW2 4994   0.687   1.554   2.475  0.2269  0.1676  0.4446
 1237SOL    HW3 4995   0.774   1.583   2.354 -0.2409  1.0889  0.3252
 1237SOL    MW4 4996   0.704   1.545   2.390 -0.1012  0.8146  0.3083
 1238SOL     OW 4997   0.457   1.653   2.249  0.3517  0.0430  0.0627
 1238SOL    HW2 4998   0.539   1.632   2.295  0.6498 -1.7896 -1.2769
 1238SOL    HW3 4999   0.392   1.594   2.289  0.2852 -0.4643 -0.7921
 1238SOL    MW4 5000   0.459   1.642   2.261  0.3822 -0.2656 -0.2270
 1239SOL     OW 5001   0.452   1.923   2.350  0.4928 -0.5536 -0.8509
 1239SOL    HW2 5002   0.529   1.975   2.325 -0.3869  0.1556 -2.1251
 1239SOL    HW3 5003   0.466   1.838   2.309  1.4051 -1.0012  0.3353
 1239SOL    MW4 5004   0.464   1.919   2.341  0.4971 -0.5192 -0.8626
 1240SOL     OW 5005   0.698   2.053   2.282  0.1970 -0.2627 -0.3928
 1240SOL    HW2 5006   0.770   2.006   2.324  1.0515  0.6565 -0.8145
 1240SOL    HW3 5007   0.698   2.139   2.323  0.1526  0.1774 -1.3082
 1240SOL    MW4 5008   0.707   2.058   2.293  0.3038 -0.0834 -0.5693
 1241SOL     OW 5009   0.655   2.332   2.339  0.1115 -0.2406  0.6989
 1241SOL    HW2 5010   0.658   2.332   2.435  0.0058 -0.6705  0.7013
 1241SOL    HW3 5011   0.731   2.385   2.313 -0.0865  0.2079  1.0248
 1241SOL    MW4 5012   0.665   2.339   2.348  0.0714 -0.2382  0.7422
 1242SOL     OW 5013   0.431   2.444   2.240 -0.1163  0.2155  0.0689
 1242SOL    HW2 5014   0.505   2.386   2.259 -0.5189 -0.2495  0.2206
 1242SOL    HW3 5015   0.354   2.395   2.269 -0.3947  1.1671  0.9820
 1242SOL    MW4 5016   0.431   2.430   2.246 -0.2061  0.2797  0.2093
 1243SOL     OW 5017   0.458   2.704   2.356 -0.0899  0.3539 -0.2010
 1243SOL    HW2 5018   0.444   2.691   2.450  0.5217 -1.6035 -0.3646
 1243SOL    HW3 5019   0.457   2.616   2.319  2.2611  0.8928 -1.6503
 1243SOL    MW4 5020   0.456   2.691   2.364  0.3010  0.1667 -0.4139
 1244SOL     OW 5021   0.646   2.865   2.259 -0.2849 -0.2665  0.3910
 1244SOL    HW2 5022   0.731   2.836   2.295 -0.1198  1.3728  1.3663
 1244SOL    HW3 5023   0.584   2.800   2.292  0.3492 -0.5480  1.0679
 1244SOL    MW4 5024   0.649   2.852   2.268 -0.1794 -0.0875  0.6089
 1245SOL     OW 5025   0.644   3.137   2.359 -0.2127  0.1788 -0.6890
 1245SOL    HW2 5026   0.573   3.194   2.329 -0.5860  0.8604  1.3572
 1245SOL    HW3 5027   0.615   3.049   2.337 -1.2753  0.5278 -0.7344
 1245SOL    MW4 5028   0.631   3.133   2.352 -0.4022  0.3150 -0.4249
 1246SOL     OW 5029   0.433   3.266   2.266 -0.5281 -0.0886  0.0851
 1246SOL    HW2 5030   0.380   3.193   2.299 -1.5568  0.3106 -0.6446
 1246SOL    HW3 5031   0.423   3.262   2.171 -0.2505  0.7454  0.0172
 1246SOL    MW4 5032   0.425   3.256   2.258 -0.6272  0.0741 -0.0203
 1247SOL     OW 5033   0.432   3.536   2.385  0.2977  0.1347 -0.2274
 1247SOL    HW2 5034   0.516   3.568   2.353  0.1630 -0.3272 -1.0458
 1247SOL    HW3 5035   0.412   3.460   2.330 -1.4496  1.2280 -1.1435
 1247SOL    MW4 5036   0.440   3.530   2.374  0.0494  0.2179 -0.4563
 1248SOL     OW 5037   0.696   3.632   2.293  0.6184  0.8151  0.0798
 1248SOL    HW2 5038   0.679   3.722   2.320 -0.7606  0.7357 -0.4841
 1248SOL    HW3 5039   0.710   3.637   2.199 -1.8773  0.1503 -0.3637
 1248SOL    MW4 5040   0.696   3.645   2.284  0.1072  0.7172 -0.0532
 1249SOL     OW 5041   0.663   3.883   2.365  0.1333  0.1787 -0.0084
 1249SOL    HW2 5042   0.651   3.875   2.460 -0.1297 -1.4850 -0.1610
 1249SOL    HW3 5043   0.576   3.905   2.332  0.0498 -0.0282  0.0688
 1249SOL    MW4 5044   0.650   3.885   2.373  0.0876 -0.0679 -0.0181
 1250SOL     OW 5045   0.403   3.983   2.285  0.5520  0.1751  0.3292
 1250SOL    HW2 5046   0.324   3.954   2.330  0.9203 -0.1393  0.7845
 1250SOL    HW3 5047   0.376   3.993   2.194 -0.0870  0.3747  0.5371
 1250SOL    MW4 5048   0.389   3.980   2.279  0.5163  0.1602  0.4168
 1251SOL     OW 5049   0.443   4.238   2.390 -0.0155 -0.5567 -0.3147
 1251SOL    HW2 5050   0.524   4.281   2.364  0.2029 -0.6873  0.1417
 1251SOL    HW3 5051   0.445   4.154   2.345 -0.4310 -0.1007 -1.1871
 1251SOL    MW4 5052   0.454   4.232   2.381 -0.0415 -0.5140 -0.3695
 1252SOL     OW 5053   0.660   4.379   2.249 -0.1776 -0.0562  0.1300
 1252SOL    HW2 5054   0.667   4.472   2.272 -1.7731  0.4053 -1.1812
 1252SOL    HW3 5055   0.648   4.379   2.154 -3.0780 -1.4484  0.4567
 1252SOL    MW4 5056   0.659   4.391   2.239 -0.7707 -0.1793  0.0000
 1253SOL     OW 5057   1.161   4.636   2.347  0.1995 -0.2171 -0.0300
 1253SOL    HW2 5058   1.166   4.637   2.443  0.0730  1.3778 -0.0229
 1253SOL    HW3 5059   1.083   4.687   2.327 -0.5550 -1.7209 -0.9503
 1253SOL    MW4 5060   1.152   4.643   2.357  0.0832 -0.2055 -0.1504
 1254SOL     OW 5061   0.925   0.086   2.282 -0.1190  0.4566 -0.2074
 1254SOL    HW2 5062   0.921   0.177   2.308  0.9240  0.7793 -1.1180
 1254SOL    HW3 5063   0.941   0.088   2.188  1.1085 -0.6458 -0.0464
 1254SOL    MW4 5064   0.927   0.098   2.273  0.1805  0.3537 -0.3059
 1255SOL     OW 5065   0.906   0.355   2.358  0.4791  0.1378 -0.5770
 1255SOL    HW2 5066   0.970   0.417   2.322  1.6839 -0.1492  1.0007
 1255SOL    HW3 5067   0.821   0.392   2.336  1.1907  1.8048 -0.5723
 1255SOL    MW4 5068   0.903   0.368   2.350  0.7320  0.3199 -0.3681
 1256SOL     OW 5069   1.109   0.542   2.286  0.0509  0.1345 -0.3626
 1256SOL    HW2 5070   1.174   0.477   2.312 -1.0034 -1.0094 -0.4945
 1256SOL    HW3 5071   1.128   0.560   2.194 -0.1273 -0.5722 -0.5404
 1256SOL    MW4 5072   1.120   0.536   2.277 -0.1116 -0.1097 -0.4034
 1257SOL     OW 5073   1.098   0.794   2.385 -0.3881 -0.5993  0.2338
 1257SOL    HW2 5074   1.018   0.813   2.336 -1.0691 -0.9526  1.2025
 1257SOL    HW3 5075   1.121   0.704   2.360 -1.2272 -1.0982  1.2209
 1257SOL    MW4 5076   1.091   0.785   2.375 -0.5885 -0.7117  0.4921
 1258SOL     OW 5077   0.867   0.888   2.281  0.1128 -0.1105  0.5639
 1258SOL    HW2 5078   0.853   0.971   2.327  1.2350  0.1926  0.3702
 1258SOL    HW3 5079   0.793   0.833   2.308 -0.3152  0.7482  1.1580
 1258SOL    MW4 5080   0.855   0.891   2.291  0.2044  0.0428  0.6168
 1259SOL     OW 5081   0.865   1.144   2.370  0.2469  0.0719  0.3289
 1259SOL    HW2 5082   0.947   1.178   2.335  0.7294  0.3281  1.6744
 1259SOL    HW3 5083   0.797   1.195   2.327  0.8174  0.2215 -0.3986
 1259SOL    MW4 5084   0.867   1.155   2.360  0.3858  0.1255  0.4106
 1260SOL     OW 5085   1.098   1.284   2.259 -0.5885  0.2787 -0.6993
 1260SOL    HW2 5086   1.174   1.234   2.288  0.2500  1.6928 -0.4309
 1260SOL    HW3 5087   1.111   1.295   2.165 -1.1017 -0.5530 -0.8723
 1260SOL    MW4 5088   1.110   1.279   2.251 -0.5456  0.3556 -0.6869
 1261SOL     OW 5089   1.130   1.560   2.354  0.1541 -0.5082  0.2019
 1261SOL    HW2 5090   1.070   1.614   2.302 -0.4365  0.2086  1.5988
 1261SOL    HW3 5091   1.110   1.470   2.327  0.0464 -0.1328 -0.9993
 1261SOL    MW4 5092   1.119   1.555   2.344  0.0619 -0.3642  0.2277
 1262SOL     OW 5093   0.894   1.683   2.246  0.3800 -0.0175  0.4923
 1262SOL    HW2 5094   0.904   1.772   2.280 -1.1204  0.6397 -0.7421
 1262SOL    HW3 5095   0.888   1.694   2.152 -0.3669 -1.3834  0.3778
 1262SOL    MW4 5096   0.895   1.696   2.238  0.0836 -0.1110  0.3145
 1263SOL     OW 5097   0.933   1.936   2.358 -0.4347 -0.0044 -0.2591
 1263SOL    HW2 5098   0.969   1.921   2.445 -1.1313  0.9368  0.1937
 1263SOL    HW3 5099   0.999   1.990   2.314  0.7963 -2.0282 -0.9675
 1263SOL    MW4 5100   0.947   1.941   2.364 -0.3641 -0.1472 -0.2928
 1264SOL     OW 5101   1.153   2.070   2.240 -0.1334 -0.0544 -0.3919
 1264SOL    HW2 5102   1.225   2.026   2.285 -0.1052 -1.4526 -1.7581
 1264SOL    HW3 5103   1.165   2.048   2.148 -0.6391  2.1108 -1.0163
 1264SOL    MW4 5104   1.164   2.061   2.234 -0.1963  0.0470 -0.6545
 1265SOL     OW 5105   1.125   2.351   2.370 -0.0721 -0.5845 -0.2501
 1265SOL    HW2 5106   1.203   2.397   2.342 -0.9598  1.0887 -0.0266
 1265SOL    HW3 5107   1.122   2.272   2.315  1.2317 -0.1767 -0.9186
 1265SOL    MW4 5108   1.135   2.347   2.359 -0.0172 -0.3097 -0.3088
 1266SOL     OW 5109   0.880   2.483   2.265  0.1455 -0.2364 -0.1408
 1266SOL    HW2 5110   0.961   2.464   2.312  0.3812 -2.0422 -1.2148
 1266SOL    HW3 5111   0.902   2.469   2.173 -1.4609 -1.0560 -0.4152
 1266SOL    MW4 5112   0.893   2.479   2.259 -0.0353 -0.5832 -0.3188
 1267SOL     OW 5113   0.888   2.755   2.336 -0.0496  0.2247 -0.2260
 1267SOL    HW2 5114   0.895   2.747   2.431  0.4343 -0.1154 -0.2884
 1267SOL    HW3 5115   0.882   2.665   2.305 -0.6067  0.3502 -0.4933
 1267SOL    MW4 5116   0.888   2.742   2.345 -0.0592  0.1965 -0.2694
 1268SOL     OW 5117   1.111   2.814   2.198  0.2724 -0.0587 -0.1672
 1268SOL    HW2 5118   1.191   2.785   2.242  0.0778  0.3221  0.4354
 1268SOL    HW3 5119   1.040   2.791   2.258  0.0279  0.6904 -0.1675
 1268SOL    MW4 5120   1.112   2.807   2.212  0.2145  0.0904 -0.0877
 1269SOL     OW 5121   1.085   3.073   2.341  0.4637 -0.2802  0.1468
 1269SOL    HW2 5122   1.003   3.117   2.317 -0.1040 -1.0475  0.6617
 1269SOL    HW3 5123   1.089   2.998   2.282  0.6205 -0.4443  0.3684
 1269SOL    MW4 5124   1.075   3.069   2.330  0.4096 -0.4032  0.2441
 1270SOL     OW 5125   0.874   3.242   2.252  0.2349  0.1367 -0.0777
 1270SOL    HW2 5126   0.900   3.323   2.296  1.2851 -0.7170  0.9154
 1270SOL    HW3 5127   0.799   3.210   2.301  0.4938 -0.0551  0.1926
 1270SOL    MW4 5128   0.868   3.248   2.264  0.4077 -0.0014  0.0889
 1271SOL     OW 5129   0.928   3.496   2.357  0.3724  0.6495 -0.5277
 1271SOL    HW2 5130   0.913   3.485   2.451  1.0814 -0.1758 -0.5085
 1271SOL    HW3 5131   0.849   3.540   2.326 -0.2343  0.1686  0.3059
 1271SOL    MW4 5132   0.916   3.501   2.366  0.3859  0.4771 -0.4153
 1272SOL     OW 5133   1.144   3.593   2.228 -0.2543  0.5135 -0.0305
 1272SOL    HW2 5134   1.226   3.563   2.268 -0.4259  1.8007  1.3219
 1272SOL    HW3 5135   1.075   3.559   2.284 -0.6473 -0.1561 -0.9006
 1272SOL    MW4 5136   1.146   3.585   2.241 -0.3287  0.5953  0.0331
 1273SOL     OW 5137   1.133   3.879   2.322 -0.0510  0.4293 -0.3332
 1273SOL    HW2 5138   1.210   3.928   2.294 -0.2340  0.7368 -0.2990
 1273SOL    HW3 5139   1.142   3.793   2.280 -0.3093  0.8694 -1.2986
 1273SOL    MW4 5140   1.144   3.874   2.313 -0.1093  0.5279 -0.4559
 1274SOL     OW 5141   0.892   3.981   2.235  0.2546  0.2990  0.2861
 1274SOL    HW2 5142   0.981   3.955   2.261  0.3749 -0.1605 -0.5634
 1274SOL    HW3 5143   0.835   3.940   2.299  0.6891  1.0204  1.1425
 1274SOL    MW4 5144   0.896   3.972   2.247  0.3278  0.3335  0.2871
 1275SOL     OW 5145   0.873   4.251   2.357 -0.3732  0.7005 -0.1046
 1275SOL    HW2 5146   0.874   4.170   2.306  1.0329  0.6812 -0.0596
 1275SOL    HW3 5147   0.800   4.301   2.321 -0.5780 -0.1258 -0.8553
 1275SOL    MW4 5148   0.864   4.247   2.346 -0.2148  0.5889 -0.1979
 1276SOL     OW 5149   1.122   4.362   2.276  0.5124 -0.1821  0.1846
 1276SOL    HW2 5150   1.037   4.331   2.307  2.0614 -3.1172  1.7260
 1276SOL    HW3 5151   1.131   4.450   2.314 -1.9666  0.3117 -0.3109
 1276SOL    MW4 5152   1.112   4.369   2.285  0.3896 -0.5040  0.3226
 1277SOL     OW 5153   1.582   4.645   2.345 -0.4363 -0.4083  0.4488
 1277SOL    HW2 5154   1.657   4.695   2.314 -0.7652 -0.1303  0.0907
 1277SOL    HW3 5155   1.506   4.694   2.315 -0.7636 -0.7027  0.7829
 1277SOL    MW4 5156   1.582   4.658   2.337 -0.5229 -0.4101  0.4458
 1278SOL     OW 5157   1.350   0.112   2.225  0.3672 -0.3919  0.2717
 1278SOL    HW2 5158   1.337   0.200   2.261 -0.1903  0.4188 -1.8081
 1278SOL    HW3 5159   1.284   0.058   2.268 -0.0563  0.4648  0.7013
 1278SOL    MW4 5160   1.340   0.117   2.235  0.2378 -0.1719  0.0541
 1279SOL     OW 5161   1.333   0.384   2.335  0.1037  0.1220  0.3935
 1279SOL    HW2 5162   1.326   0.381   2.430  0.4629 -0.4984  0.4039
 1279SOL    HW3 5163   1.417   0.427   2.318 -0.1958  0.6998  0.3457
 1279SOL    MW4 5164   1.343   0.389   2.345  0.1116  0.1163  0.3881
 1280SOL     OW 5165   1.571   0.518   2.241  0.1333 -0.1690  0.5258
 1280SOL    HW2 5166   1.650   0.472   2.270  0.8496  0.9208  0.2924
 1280SOL    HW3 5167   1.576   0.518   2.146 -0.4332 -0.5780  0.4895
 1280SOL    MW4 5168   1.582   0.512   2.232  0.1531 -0.0792  0.4904
 1281SOL     OW 5169   1.539   0.774   2.362 -0.3799 -0.0063 -0.4654
 1281SOL    HW2 5170   1.549   0.760   2.456  0.7159  0.5574 -0.4985
 1281SOL    HW3 5171   1.546   0.687   2.324 -0.3414 -0.1745 -0.0758
 1281SOL    MW4 5172   1.541   0.761   2.369 -0.2303  0.0460 -0.4184
 1282SOL     OW 5173   1.309   0.879   2.226  0.1929  0.5645  0.1274
 1282SOL    HW2 5174   1.381   0.847   2.280  0.2013 -0.3427 -0.4155
 1282SOL    HW3 5175   1.230   0.852   2.273  0.2013  0.2641 -0.0330
 1282SOL    MW4 5176   1.308   0.871   2.239  0.1953  0.4052  0.0343
 1283SOL     OW 5177   1.316   1.132   2.315 -0.0005  0.3934 -0.0814
 1283SOL    HW2 5178   1.331   1.111   2.408  1.1492  1.8485  0.0771
 1283SOL    HW3 5179   1.314   1.046   2.272 -1.1055 -0.3261  1.3553
 1283SOL    MW4 5180   1.318   1.118   2.322  0.0055  0.4904  0.1290
 1284SOL     OW 5181   1.536   1.294   2.259 -0.2289  0.3084  0.1816
 1284SOL    HW2 5182   1.458   1.240   2.270  0.0203 -0.3606 -1.1540
 1284SOL    HW3 5183   1.564   1.277   2.169  2.0459 -0.2633  0.9620
 1284SOL    MW4 5184   1.530   1.285   2.249  0.1041  0.1447  0.1082
 1285SOL     OW 5185   1.547   1.544   2.387  0.0223  0.3821 -0.1965
 1285SOL    HW2 5186   1.627   1.575   2.344  0.6528  0.0110  0.6960
 1285SOL    HW3 5187   1.535   1.455   2.355 -0.2966  0.5959 -0.6838
 1285SOL    MW4 5188   1.556   1.537   2.377  0.0633  0.3613 -0.1431
 1286SOL     OW 5189   1.353   1.688   2.231  0.3612  0.0184  0.3701
 1286SOL    HW2 5190   1.426   1.657   2.284 -1.2658 -1.1472  1.9787
 1286SOL    HW3 5191   1.275   1.654   2.274 -1.0561 -0.4960 -2.4384
 1286SOL    MW4 5192   1.352   1.679   2.244 -0.0404 -0.2033  0.2120
 1287SOL     OW 5193   1.355   1.924   2.398  0.0149 -0.5372  0.0621
 1287SOL    HW2 5194   1.347   1.838   2.357 -0.2464  0.5125 -2.1285
 1287SOL    HW3 5195   1.434   1.962   2.359  0.5347 -0.0508  1.5522
 1287SOL    MW4 5196   1.364   1.917   2.388  0.0491 -0.3345 -0.0303
 1288SOL     OW 5197   1.565   2.027   2.258  0.8155  0.1271  0.1885
 1288SOL    HW2 5198   1.644   1.989   2.297  0.8443 -0.1057 -0.0905
 1288SOL    HW3 5199   1.586   2.032   2.164  0.2939 -0.4383  0.0427
 1288SOL    MW4 5200   1.578   2.023   2.251  0.7505  0.0219  0.1323
 1289SOL     OW 5201   1.565   2.282   2.370  0.7225  0.0888 -0.3129
 1289SOL    HW2 5202   1.578   2.273   2.464 -0.5869  1.0576 -0.0372
 1289SOL    HW3 5203   1.565   2.192   2.338 -2.2318 -0.4538  1.0863
 1289SOL    MW4 5204   1.567   2.269   2.378  0.1597  0.1447 -0.0920
 1290SOL     OW 5205   1.357   2.465   2.260 -0.6048  0.3600  0.4971
 1290SOL    HW2 5206   1.431   2.418   2.298  0.3928  1.0841 -0.5277
 1290SOL    HW3 5207   1.356   2.440   2.168 -1.0882  1.0547  0.3041
 1290SOL    MW4 5208   1.366   2.455   2.253 -0.5370  0.5474  0.3364
 1291SOL     OW 5209   1.337   2.729   2.343 -0.0801 -0.5555  0.4594
 1291SOL    HW2 5210   1.421   2.769   2.319  0.5398 -0.5861  2.4637
 1291SOL    HW3 5211   1.339   2.643   2.300  1.0559 -0.6633  0.6953
 1291SOL    MW4 5212   1.349   2.723   2.334  0.1516 -0.5739  0.7551
 1292SOL     OW 5213   1.578   2.832   2.262  0.0400 -0.0321 -0.7521
 1292SOL    HW2 5214   1.576   2.923   2.291 -0.5610 -0.2286 -0.1557
 1292SOL    HW3 5215   1.554   2.836   2.169  0.2496  0.4395 -0.7863
 1292SOL    MW4 5216   1.575   2.845   2.254 -0.0117  0.0043 -0.6778
 1293SOL     OW 5217   1.538   3.071   2.371  0.4969 -0.4027 -0.0579
 1293SOL    HW2 5218   1.560   3.081   2.464  1.0221  0.8625 -0.2956
 1293SOL    HW3 5219   1.454   3.116   2.362  0.4304 -0.5544 -0.1916
 1293SOL    MW4 5220   1.529   3.079   2.382  0.5574 -0.2558 -0.1070
 1294SOL     OW 5221   1.318   3.224   2.274 -0.0093  0.4407 -0.4860
 1294SOL    HW2 5222   1.228   3.193   2.273 -0.1900  0.9602 -0.5729
 1294SOL    HW3 5223   1.346   3.223   2.182  0.7871 -1.7432 -0.2530
 1294SOL    MW4 5224   1.310   3.220   2.262  0.0720  0.2210 -0.4666
 1295SOL     OW 5225   1.381   3.483   2.346  0.0704  0.0003 -0.1449
 1295SOL    HW2 5226   1.370   3.496   2.440  1.5630  0.1496  0.0169
 1295SOL    HW3 5227   1.349   3.394   2.330 -1.2615  0.3773  0.2983
 1295SOL    MW4 5228   1.375   3.473   2.356  0.0916  0.0696 -0.0651
 1296SOL     OW 5229   1.603   3.612   2.243 -0.1239 -0.0902  0.0469
 1296SOL    HW2 5230   1.578   3.700   2.267 -1.2771 -0.2567 -0.5332
 1296SOL    HW3 5231   1.528   3.557   2.266  1.1510 -1.1530  1.7943
 1296SOL    MW4 5232   1.590   3.616   2.249 -0.1079 -0.2522  0.2010
 1297SOL     OW 5233   1.560   3.875   2.311  0.2400  0.1038  0.1779
 1297SOL    HW2 5234   1.573   3.886   2.406  0.1863 -0.2960  0.2298
 1297SOL    HW3 5235   1.642   3.906   2.272  0.5024 -0.3294  0.3874
 1297SOL    MW4 5236   1.572   3.881   2.319  0.2675 -0.0062  0.2124
 1298SOL     OW 5237   1.340   4.000   2.209  0.0278  0.3032  0.0069
 1298SOL    HW2 5238   1.408   3.946   2.249 -1.6695 -2.9969 -1.3857
 1298SOL    HW3 5239   1.351   3.986   2.115 -2.6212 -0.4403 -0.2268
 1298SOL    MW4 5240   1.350   3.991   2.202 -0.5455 -0.2303 -0.2074
 1299SOL     OW 5241   1.378   4.257   2.307 -0.1478  0.0340  0.1854
 1299SOL    HW2 5242   1.380   4.168   2.272  0.5430 -0.1893  0.7826
 1299SOL    HW3 5243   1.286   4.283   2.299 -0.5073 -1.0147  0.7113
 1299SOL    MW4 5244   1.366   4.248   2.302 -0.1040 -0.1340  0.3338
 1300SOL     OW 5245   1.620   4.401   2.228  0.3642 -0.1120  0.1370
 1300SOL    HW2 5246   1.536   4.356   2.227 -0.0453  0.6699 -1.1108
 1300SOL    HW3 5247   1.605   4.481   2.277  0.0970  0.5445 -0.9959
 1300SOL    MW4 5248   1.607   4.406   2.234  0.2750  0.0777 -0.1771
 1301SOL     OW 5249   2.057   4.656   2.303 -0.0390 -0.4147  0.0343
 1301SOL    HW2 5250   2.126   4.692   2.247 -0.1565  0.0555  0.1923
 1301SOL    HW3 5251   2.050   4.564   2.277  0.3258 -0.3450 -0.3039
 1301SOL    MW4 5252   2.065   4.648   2.292 -0.0062 -0.3438  0.0105
 1302SOL     OW 5253   1.805   0.114   2.245 -0.6304  0.4636 -0.4587
 1302SOL    HW2 5254   1.798   0.205   2.274 -0.3065 -0.4113  2.5380
 1302SOL    HW3 5255   1.897   0.092   2.258 -0.6594 -0.2225 -1.3907
 1302SOL    MW4 5256   1.816   0.123   2.250 -0.5914  0.2576 -0.1860
 1303SOL     OW 5257   1.796   0.362   2.361  0.3306  0.5456 -0.5013
 1303SOL    HW2 5258   1.805   0.376   2.455  2.0988  0.4742 -0.6445
 1303SOL    HW3 5259   1.884   0.379   2.326 -0.6795  2.1547 -2.3400
 1303SOL    MW4 5260   1.809   0.366   2.369  0.4307  0.7485 -0.7629
 1304SOL     OW 5261   2.014   0.477   2.248 -0.1688 -0.1600  0.4436
 1304SOL    HW2 5262   2.019   0.571   2.267  2.4500 -0.3115  0.7205
 1304SOL    HW3 5263   2.015   0.473   2.153 -1.3676  0.1275  0.4123
 1304SOL    MW4 5264   2.015   0.489   2.238  0.0186 -0.1421  0.4761
 1305SOL     OW 5265   2.037   0.750   2.321  0.0740  0.3187 -0.2534
 1305SOL    HW2 5266   2.106   0.809   2.292  0.2588  0.7337  0.9877
 1305SOL    HW3 5267   1.956   0.802   2.316 -0.0082  0.1409 -0.7757
 1305SOL    MW4 5268   2.035   0.765   2.317  0.0875  0.3501 -0.1585
 1306SOL     OW 5269   1.802   0.877   2.274  0.0906  0.2726 -0.2919
 1306SOL    HW2 5270   1.814   0.965   2.309  0.3601 -0.3814  1.2907
 1306SOL    HW3 5271   1.710   0.856   2.293 -0.2651  0.6038 -1.5972
 1306SOL    MW4 5272   1.791   0.886   2.281  0.0792  0.2301 -0.2556
 1307SOL     OW 5273   1.770   1.149   2.356  0.1162 -0.4907 -0.2027
 1307SOL    HW2 5274   1.838   1.190   2.303 -1.2003 -0.4759 -1.9181
 1307SOL    HW3 5275   1.692   1.201   2.340 -0.5598 -1.1230  0.9524
 1307SOL    MW4 5276   1.769   1.161   2.347 -0.1466 -0.5722 -0.2768
 1308SOL     OW 5277   1.987   1.267   2.219  0.2623  0.0081 -0.4362
 1308SOL    HW2 5278   1.993   1.357   2.250  1.5929 -0.0963 -0.3690
 1308SOL    HW3 5279   1.994   1.273   2.124 -0.7048  0.0590 -0.5092
 1308SOL    MW4 5280   1.989   1.279   2.211  0.3102  0.0010 -0.4368
 1309SOL     OW 5281   2.010   1.535   2.352  0.1591  0.0852 -0.0985
 1309SOL    HW2 5282   2.018   1.546   2.447  1.1573  1.2211 -0.3050
 1309SOL    HW3 5283   1.925   1.572   2.330 -0.7106 -1.4795  0.5361
 1309SOL    MW4 5284   2.000   1.541   2.361  0.1760  0.0287 -0.0422
 1310SOL     OW 5285   1.771   1.657   2.255 -0.0578  0.3910  0.1847
 1310SOL    HW2 5286   1.768   1.748   2.284 -1.0335  0.5962 -0.5332
 1310SOL    HW3 5287   1.788   1.662   2.161 -0.3264 -0.1633  0.1048
 1310SOL    MW4 5288   1.773   1.669   2.247 -0.2220  0.3449  0.0794
 1311SOL     OW 5289   1.788   1.916   2.356  0.1135 -0.0664 -0.3583
 1311SOL    HW2 5290   1.782   1.914   2.452  1.2851  0.6509 -0.2643
 1311SOL    HW3 5291   1.878   1.942   2.338 -0.0453 -0.3896 -1.6643
 1311SOL    MW4 5292   1.799   1.919   2.366  0.2471 -0.0143 -0.5181
 1312SOL     OW 5293   2.042   2.023   2.248  0.4938 -0.2424 -0.4406
 1312SOL    HW2 5294   2.128   1.981   2.252  1.3972  1.5902  0.1151
 1312SOL    HW3 5295   2.036   2.057   2.159  0.5771  0.1131 -0.3097
 1312SOL    MW4 5296   2.052   2.022   2.237  0.6242  0.0463 -0.3500
 1313SOL     OW 5297   2.027   2.264   2.373  0.1789  0.4594  0.0549
 1313SOL    HW2 5298   2.106   2.311   2.349  2.6396 -2.1356  2.7007
 1313SOL    HW3 5299   2.039   2.177   2.336 -1.5180  0.0637  0.4021
 1313SOL    MW4 5300   2.039   2.259   2.365  0.2797  0.0648  0.4499
 1314SOL     OW 5301   1.802   2.430   2.295 -0.0816 -0.4946 -0.0083
 1314SOL    HW2 5302   1.878   2.384   2.331  0.3879 -0.2151 -0.6157
 1314SOL    HW3 5303   1.728   2.374   2.314  0.3540 -1.0234  0.1369
 1314SOL    MW4 5304   1.802   2.417   2.302  0.0378 -0.5276 -0.0694
 1315SOL     OW 5305   1.776   2.691   2.387  0.2475  0.4089 -0.0688
 1315SOL    HW2 5306   1.773   2.604   2.349  0.2269 -0.4293  1.7752
 1315SOL    HW3 5307   1.694   2.733   2.360  0.2612 -0.1423 -0.9547
 1315SOL    MW4 5308   1.764   2.685   2.379  0.2468  0.2255  0.0579
 1316SOL     OW 5309   1.994   2.824   2.292 -0.2707  0.4707  0.2903
 1316SOL    HW2 5310   2.075   2.789   2.328  0.1426  0.1439 -0.9404
 1316SOL    HW3 5311   1.926   2.763   2.320 -0.0950  0.6939  1.2387
 1316SOL    MW4 5312   1.996   2.812   2.300 -0.1931  0.4570  0.2530
 1317SOL     OW 5313   2.009   3.096   2.327  0.4115  0.2543 -0.3177
 1317SOL    HW2 5314   2.091   3.119   2.284 -0.5220  1.6367 -1.4067
 1317SOL    HW3 5315   1.994   3.005   2.302  1.9630 -0.2455  0.4952
 1317SOL    MW4 5316   2.018   3.087   2.318  0.4930  0.3707 -0.3541
 1318SOL     OW 5317   1.757   3.221   2.271  0.1693 -0.2190  0.1844
 1318SOL    HW2 5318   1.834   3.170   2.295  0.1569 -0.3290 -0.0139
 1318SOL    HW3 5319   1.684   3.175   2.313  0.1978 -0.1686  0.2922
 1318SOL    MW4 5320   1.757   3.208   2.280  0.1714 -0.2270  0.1724
 1319SOL     OW 5321   1.821   3.475   2.358  0.1452  0.5282  0.2981
 1319SOL    HW2 5322   1.806   3.389   2.320  0.0959  0.9005 -0.5386
 1319SOL    HW3 5323   1.744   3.526   2.334  0.3636  0.9258  0.4363
 1319SOL    MW4 5324   1.809   3.470   2.349  0.1675  0.6299  0.2058
 1320SOL     OW 5325   1.997   3.643   2.199  0.1777  0.3563  0.1962
 1320SOL    HW2 5326   1.924   3.585   2.223  1.7364 -0.8632  2.2372
 1320SOL    HW3 5327   2.019   3.619   2.109 -1.5224  0.2831 -0.2073
 1320SOL    MW4 5328   1.990   3.632   2.191  0.1591  0.1862  0.4122
 1321SOL     OW 5329   2.019   3.878   2.354  0.0733  0.2443  0.3686
 1321SOL    HW2 5330   2.030   3.848   2.444  0.2143  1.2472  0.6919
 1321SOL    HW3 5331   1.997   3.799   2.305  0.1136 -0.3281  1.2612
 1321SOL    MW4 5332   2.017   3.864   2.359  0.0973  0.3011  0.5291
 1322SOL     OW 5333   1.809   3.990   2.231 -0.2777 -0.7071  0.2055
 1322SOL    HW2 5334   1.891   3.961   2.272  0.5248  0.7875 -0.2675
 1322SOL    HW3 5335   1.826   3.984   2.137  0.0932  1.6484  0.0879
 1322SOL    MW4 5336   1.822   3.986   2.224 -0.1229 -0.1991  0.1273
 1323SOL     OW 5337   1.807   4.237   2.335  0.0941  0.0279  0.1802
 1323SOL    HW2 5338   1.781   4.153   2.297  1.0507  0.3894 -1.3318
 1323SOL    HW3 5339   1.746   4.300   2.296 -0.3215  0.1022  0.9482
 1323SOL    MW4 5340   1.795   4.234   2.325  0.1653  0.0854  0.0820
 1324SOL     OW 5341   2.039   4.395   2.263 -0.5314 -0.4849 -0.2497
 1324SOL    HW2 5342   1.972   4.332   2.289 -0.8051 -0.4501 -0.8669
 1324SOL    HW3 5343   2.042   4.389   2.167 -0.7648  0.6415 -0.3335
 1324SOL    MW4 5344   2.030   4.386   2.254 -0.5980 -0.3314 -0.3421
 1325SOL     OW 5345   2.489   4.647   2.299  0.0439  0.5145 -0.0473
 1325SOL    HW2 5346   2.568   4.697   2.279  0.0328  1.2438  1.6909
 1325SOL    HW3 5347   2.506   4.560   2.263  1.2069  0.9565 -0.5858
 1325SOL    MW4 5348   2.501   4.642   2.292  0.1960  0.6690  0.1109
 1326SOL     OW 5349   2.276   0.105   2.163 -0.2178 -0.2452  0.0342
 1326SOL    HW2 5350   2.255   0.197   2.178 -1.1519 -0.6503  1.2431
 1326SOL    HW3 5351   2.349   0.088   2.223  1.9073  0.4515 -2.2541
 1326SOL    MW4 5352   2.283   0.115   2.173 -0.0606 -0.2067 -0.1080
 1327SOL     OW 5353   2.265   0.366   2.340 -0.2661  0.0998  0.5175
 1327SOL    HW2 5354   2.340   0.412   2.302 -1.2230 -0.7726 -2.5574
 1327SOL    HW3 5355   2.190   0.420   2.317 -0.9969 -1.0155  0.2734
 1327SOL    MW4 5356   2.265   0.379   2.332 -0.4888 -0.1625  0.0794
 1328SOL     OW 5357   2.468   0.528   2.223 -0.0796  0.3997 -0.1290
 1328SOL    HW2 5358   2.549   0.483   2.245 -0.9459 -1.5871 -0.8731
 1328SOL    HW3 5359   2.461   0.522   2.128  0.1757  2.8546 -0.3469
 1328SOL    MW4 5360   2.478   0.521   2.213 -0.1600  0.4615 -0.2561
 1329SOL     OW 5361   2.442   0.749   2.391  0.0994  1.0102 -0.0339
 1329SOL    HW2 5362   2.521   0.802   2.375  0.9199  0.5921  2.3415
 1329SOL    HW3 5363   2.456   0.670   2.339  0.9320  1.2364 -0.1745
 1329SOL    MW4 5364   2.454   0.746   2.382  0.3173  0.9848  0.2613
 1330SOL     OW 5365   2.245   0.893   2.240 -0.0595 -0.0061 -0.0111
 1330SOL    HW2 5366   2.225   0.975   2.284 -1.2394  0.0205 -0.5833
 1330SOL    HW3 5367   2.303   0.847   2.300  1.3917  1.6577 -0.1101
 1330SOL    MW4 5368   2.250   0.897   2.253 -0.0238  0.2169 -0.0997
 1331SOL     OW 5369   2.222   1.144   2.340  0.5507  0.0567 -0.1785
 1331SOL    HW2 5370   2.298   1.198   2.319 -0.1758  0.8966 -0.6343
 1331SOL    HW3 5371   2.152   1.178   2.285  0.0214 -1.1839 -0.2901
 1331SOL    MW4 5372   2.223   1.155   2.330  0.3848  0.0038 -0.2534
 1332SOL     OW 5373   2.437   1.282   2.236 -0.0385 -0.8353 -0.2637
 1332SOL    HW2 5374   2.502   1.230   2.282  0.6503  0.0812 -0.1834
 1332SOL    HW3 5375   2.450   1.371   2.269 -1.4681 -0.6776 -0.0942
 1332SOL    MW4 5376   2.447   1.287   2.247 -0.1364 -0.6936 -0.2308
 1333SOL     OW 5377   2.450   1.540   2.349 -0.0056  0.1814  0.1434
 1333SOL    HW2 5378   2.453   1.541   2.444  0.2466 -0.3956  0.1475
 1333SOL    HW3 5379   2.526   1.592   2.322 -0.0086  0.2452  0.2570
 1333SOL    MW4 5380   2.460   1.547   2.358  0.0274  0.1137  0.1588
 1334SOL     OW 5381   2.231   1.652   2.213  0.0224  0.4335 -0.2653
 1334SOL    HW2 5382   2.302   1.614   2.264  0.4036  0.3761 -0.8310
 1334SOL    HW3 5383   2.151   1.615   2.251  0.2372  1.1797  0.9452
 1334SOL    MW4 5384   2.230   1.642   2.224  0.1011  0.5243 -0.1805
 1335SOL     OW 5385   2.285   1.912   2.324  0.4857 -0.1636  0.5915
 1335SOL    HW2 5386   2.372   1.945   2.305 -0.2794  1.2402 -0.5524
 1335SOL    HW3 5387   2.288   1.819   2.298  1.2215  0.2317 -0.7791
 1335SOL    MW4 5388   2.297   1.904   2.318  0.4816  0.0738  0.2596
 1336SOL     OW 5389   2.472   2.114   2.271  0.2701  0.0655  0.0611
 1336SOL    HW2 5390   2.558   2.075   2.288  1.2701  1.7525 -1.0140
 1336SOL    HW3 5391   2.457   2.100   2.178 -0.6019 -0.1398  0.2218
 1336SOL    MW4 5392   2.481   2.107   2.261  0.2873  0.2611 -0.0596
 1337SOL     OW 5393   2.495   2.366   2.386 -0.6578  0.4523 -0.0956
 1337SOL    HW2 5394   2.557   2.403   2.323 -0.5629  0.1501 -0.1759
 1337SOL    HW3 5395   2.480   2.277   2.356 -1.8330  0.8075 -0.5925
 1337SOL    MW4 5396   2.501   2.359   2.374 -0.8004  0.4592 -0.1717
 1338SOL     OW 5397   2.249   2.445   2.280 -0.2026  0.3892  0.2050
 1338SOL    HW2 5398   2.243   2.539   2.296 -2.6372  0.3736 -0.3672
 1338SOL    HW3 5399   2.338   2.421   2.307  0.5891  2.9127 -0.0332
 1338SOL    MW4 5400   2.260   2.454   2.286 -0.4196  0.7200  0.0980
 1339SOL     OW 5401   2.237   2.712   2.342  0.4951 -0.2271 -0.0720
 1339SOL    HW2 5402   2.238   2.698   2.436  1.8222  0.6964  0.0566
 1339SOL    HW3 5403   2.322   2.750   2.322 -1.2593  3.3546 -1.0694
 1339SOL    MW4 5404   2.248   2.715   2.351  0.4385  0.3672 -0.1864
 1340SOL     OW 5405   2.452   2.849   2.281 -0.0287  0.7035 -0.4446
 1340SOL    HW2 5406   2.531   2.812   2.322  0.2722  0.5123 -1.1864
 1340SOL    HW3 5407   2.468   2.840   2.187 -0.7110  1.1489 -0.6027
 1340SOL    MW4 5408   2.464   2.843   2.274 -0.0792  0.7372 -0.5634
 1341SOL     OW 5409   2.484   3.108   2.317  0.4536  0.4038 -0.1705
 1341SOL    HW2 5410   2.572   3.130   2.288  0.5898  0.1065  0.0193
 1341SOL    HW3 5411   2.478   3.013   2.308  0.8404  0.1753  1.7037
 1341SOL    MW4 5412   2.495   3.098   2.312  0.5226  0.3343  0.1018
 1342SOL     OW 5413   2.248   3.194   2.190  0.4265 -0.2319  0.6136
 1342SOL    HW2 5414   2.253   3.288   2.202  0.3539 -0.4508  2.5360
 1342SOL    HW3 5415   2.331   3.161   2.226 -0.0739 -0.9999  1.0803
 1342SOL    MW4 5416   2.260   3.202   2.196  0.3510 -0.3624  0.9289
 1343SOL     OW 5417   2.259   3.462   2.287  0.1176  0.2583 -0.0003
 1343SOL    HW2 5418   2.262   3.438   2.380  0.1633 -0.6433 -0.2222
 1343SOL    HW3 5419   2.174   3.504   2.276 -0.7864 -1.5092  0.0391
 1343SOL    MW4 5420   2.248   3.464   2.298  0.0043 -0.0939 -0.0243
 1344SOL     OW 5421   2.477   3.628   2.215  0.3659 -0.1242 -0.3595
 1344SOL    HW2 5422   2.479   3.712   2.260  0.0188 -0.1176 -0.3544
 1344SOL    HW3 5423   2.407   3.579   2.258 -0.0209 -0.0883 -0.9263
 1344SOL    MW4 5424   2.468   3.633   2.226  0.2689 -0.1185 -0.4337
 1345SOL     OW 5425   2.497   3.872   2.323 -0.1134 -0.3031 -0.0430
 1345SOL    HW2 5426   2.481   3.869   2.417  0.5842  2.1259  0.1880
 1345SOL    HW3 5427   2.414   3.903   2.285 -0.4342 -1.3986 -0.2571
 1345SOL    MW4 5428   2.484   3.875   2.330 -0.0637 -0.1271 -0.0405
 1346SOL     OW 5429   2.236   3.990   2.223  0.1965  0.3727  0.5154
 1346SOL    HW2 5430   2.242   4.085   2.238 -1.3554  0.5305  0.1594
 1346SOL    HW3 5431   2.163   3.961   2.278  0.2644 -0.5196  0.1486
 1346SOL    MW4 5432   2.227   3.999   2.232  0.0005  0.2756  0.4201
 1347SOL     OW 5433   2.275   4.258   2.296 -0.0802  0.3852  0.2821
 1347SOL    HW2 5434   2.286   4.262   2.391 -1.4551 -0.7704  0.5096
 1347SOL    HW3 5435   2.206   4.321   2.277 -1.3030 -0.9164  0.3252
 1347SOL    MW4 5436   2.267   4.267   2.306 -0.4230  0.0615  0.3178
 1348SOL     OW 5437   2.504   4.394   2.199 -0.0962  0.4184  0.1453
 1348SOL    HW2 5438   2.577   4.340   2.229 -0.0471  0.4360  0.0572
 1348SOL    HW3 5439   2.426   4.347   2.227 -0.0702 -0.2595 -0.9085
 1348SOL    MW4 5440   2.504   4.381   2.207 -0.0863  0.3304 -0.0052
 1349SOL     OW 5441   2.932   0.011   2.343  0.0493  0.0650 -0.0867
 1349SOL    HW2 5442   3.003   0.062   2.305 -0.1896  0.8107  0.4638
 1349SOL    HW3 5443   2.941  -0.075   2.302  0.6219  0.4572 -0.8083
 1349SOL    MW4 5444   2.943   0.006   2.332  0.0935  0.2146 -0.1090
 1350SOL     OW 5445   2.699   0.113   2.213  0.3463  0.5986 -0.1055
 1350SOL    HW2 5446   2.699   0.195   2.262 -0.3157  0.3488  0.3183
 1350SOL    HW3 5447   2.774   0.063   2.248 -0.0550  0.4696  0.5631
 1350SOL    MW4 5448   2.709   0.117   2.224  0.2060  0.5486  0.0389
 1351SOL     OW 5449   2.672   0.357   2.350 -0.1158  0.0352  0.0515
 1351SOL    HW2 5450   2.681   0.337   2.443 -0.7686 -0.4761  0.0028
 1351SOL    HW3 5451   2.758   0.392   2.325  0.2945 -0.5111  0.6786
 1351SOL    MW4 5452   2.685   0.359   2.359 -0.1478 -0.1043  0.1278
 1352SOL     OW 5453   2.896   0.495   2.255 -0.0625  0.0738 -0.1583
 1352SOL    HW2 5454   2.891   0.589   2.274 -0.2260 -0.1086  0.7400
 1352SOL    HW3 5455   2.897   0.490   2.160 -0.4823  0.9634 -0.2168
 1352SOL    MW4 5456   2.896   0.507   2.245 -0.1392  0.1671 -0.0474
 1353SOL     OW 5457   2.884   0.756   2.319 -0.5790 -0.3018 -0.0940
 1353SOL    HW2 5458   2.888   0.739   2.413  0.9484  0.2557 -0.0366
 1353SOL    HW3 5459   2.800   0.800   2.305 -0.9551 -0.6797  0.9482
 1353SOL    MW4 5460   2.874   0.760   2.329 -0.4270 -0.2781  0.0510
 1354SOL     OW 5461   2.643   0.897   2.300 -0.1201 -0.1066  0.3744
 1354SOL    HW2 5462   2.655   0.989   2.322  2.1563 -0.5580  1.2386
 1354SOL    HW3 5463   2.623   0.897   2.207 -0.1405  1.2729  0.3667
 1354SOL    MW4 5464   2.642   0.909   2.291  0.1774  0.0159  0.4871
 1355SOL     OW 5465   2.668   1.181   2.349  0.1456 -0.2953 -0.1336
 1355SOL    HW2 5466   2.689   1.181   2.443 -2.5201  0.8735  0.4832
 1355SOL    HW3 5467   2.744   1.223   2.308  2.0200 -2.1304  1.2882
 1355SOL    MW4 5468   2.681   1.186   2.356  0.0412 -0.3831  0.1354
 1356SOL     OW 5469   2.904   1.297   2.270  0.1285  0.1287 -0.3634
 1356SOL    HW2 5470   2.971   1.232   2.292 -1.4159 -0.8924  1.4644
 1356SOL    HW3 5471   2.892   1.287   2.175  1.2490 -0.9356 -0.4176
 1356SOL    MW4 5472   2.911   1.287   2.260  0.0727 -0.1465 -0.1295
 1357SOL     OW 5473   2.880   1.539   2.386  0.1448  0.0177  0.0125
 1357SOL    HW2 5474   2.903   1.529   2.478  1.2634 -0.4769 -0.3143
 1357SOL    HW3 5475   2.888   1.451   2.349  0.0669  0.2787 -0.6368
 1357SOL    MW4 5476   2.884   1.526   2.393  0.2820 -0.0131 -0.1163
 1358SOL     OW 5477   2.689   1.694   2.275  0.3024  0.0528 -0.1151
 1358SOL    HW2 5478   2.770   1.656   2.310  0.3766  0.7835  0.5001
 1358SOL    HW3 5479   2.701   1.693   2.180  1.1874  0.5146 -0.0043
 1358SOL    MW4 5480   2.701   1.689   2.267  0.4289  0.2102 -0.0191
 1359SOL     OW 5481   2.685   1.953   2.353  0.3673  0.2087 -0.1917
 1359SOL    HW2 5482   2.674   1.963   2.448  0.9642  2.4499 -0.3280
 1359SOL    HW3 5483   2.696   1.859   2.340 -0.1326 -0.1696  1.9174
 1359SOL    MW4 5484   2.685   1.942   2.364  0.3800  0.4545  0.0689
 1360SOL     OW 5485   2.906   2.081   2.253  0.0260  0.4276  0.0350
 1360SOL    HW2 5486   2.978   2.023   2.280 -1.5223 -2.0122 -0.9746
 1360SOL    HW3 5487   2.827   2.030   2.269 -1.3893  2.3074 -0.8221
 1360SOL    MW4 5488   2.905   2.067   2.259 -0.3648  0.3536 -0.2112
 1361SOL     OW 5489   2.900   2.335   2.346 -0.0159  0.1769  0.4515
 1361SOL    HW2 5490   2.890   2.333   2.441  1.8535  0.3415  0.6617
 1361SOL    HW3 5491   2.908   2.243   2.320 -1.5561  0.0656  0.3210
 1361SOL    MW4 5492   2.900   2.323   2.355  0.0272  0.1841  0.4621
 1362SOL     OW 5493   2.698   2.470   2.232 -0.0142  0.1202 -0.5972
 1362SOL    HW2 5494   2.777   2.426   2.262 -1.0921 -1.1926  0.3568
 1362SOL    HW3 5495   2.713   2.485   2.138  1.1988 -0.4526 -0.5055
 1362SOL    MW4 5496   2.710   2.466   2.223  0.0036 -0.1285 -0.4592
 1363SOL     OW 5497   2.671   2.711   2.368 -0.1109 -0.0439 -0.1541
 1363SOL    HW2 5498   2.742   2.767   2.336  0.1782 -0.3037  0.0377
 1363SOL    HW3 5499   2.681   2.629   2.320  0.1564 -0.3374  0.3984
 1363SOL    MW4 5500   2.682   2.708   2.357 -0.0374 -0.1171 -0.0560
 1364SOL     OW 5501   2.906   2.841   2.260  0.0422 -0.0911 -0.0024
 1364SOL    HW2 5502   2.917   2.931   2.291  0.8165 -0.0580 -0.3559
 1364SOL    HW3 5503   2.918   2.847   2.165 -1.4887 -0.3169 -0.2121
 1364SOL    MW4 5504   2.909   2.854   2.252 -0.0577 -0.1166 -0.0768
 1365SOL     OW 5505   2.923   3.089   2.366  0.4429 -0.1296  0.2229
 1365SOL    HW2 5506   2.996   3.125   2.316  0.5965 -1.4074 -0.4927
 1365SOL    HW3 5507   2.846   3.135   2.332  0.8418  0.7985  0.5715
 1365SOL    MW4 5508   2.922   3.100   2.354  0.5155 -0.1757  0.1745
 1366SOL     OW 5509   2.720   3.210   2.213 -0.1995 -0.1989  0.1911
 1366SOL    HW2 5510   2.716   3.301   2.241 -2.1615 -0.5317  1.0800
 1366SOL    HW3 5511   2.725   3.215   2.117 -1.7196  0.8384  0.1428
 1366SOL    MW4 5512   2.720   3.223   2.204 -0.6590 -0.1061  0.3018
 1367SOL     OW 5513   2.682   3.460   2.308  0.3165  0.2512  0.2176
 1367SOL    HW2 5514   2.767   3.486   2.272 -0.0535 -1.4834 -2.0255
 1367SOL    HW3 5515   2.620   3.523   2.272  0.4541  0.7358  0.8158
 1367SOL    MW4 5516   2.685   3.471   2.299  0.2863  0.0865  0.0005
 1368SOL     OW 5517   2.931   3.584   2.255 -0.4700 -0.4110  0.0714
 1368SOL    HW2 5518   3.024   3.563   2.265  0.0050 -0.1515 -3.3090
 1368SOL    HW3 5519   2.921   3.669   2.298  0.8054 -0.5192  0.6053
 1368SOL    MW4 5520   2.942   3.593   2.262 -0.2391 -0.3915 -0.3040
 1369SOL     OW 5521   2.943   3.836   2.353  0.0335  0.8482  0.0112
 1369SOL    HW2 5522   2.952   3.849   2.448  1.4022  1.8852 -0.2382
 1369SOL    HW3 5523   2.867   3.889   2.328 -0.2194  0.7153  0.4937
 1369SOL    MW4 5524   2.934   3.845   2.362  0.1807  0.9675  0.0417
 1370SOL     OW 5525   2.730   3.998   2.255  0.4535  0.0764  0.2194
 1370SOL    HW2 5526   2.645   3.954   2.262  0.7506 -0.4121  0.7749
 1370SOL    HW3 5527   2.752   3.992   2.162 -0.6141  1.1409 -0.1173
 1370SOL    MW4 5528   2.722   3.992   2.244  0.3519  0.1526  0.2482
 1371SOL     OW 5529   2.707   4.265   2.327 -0.3736  0.3055  0.4601
 1371SOL    HW2 5530   2.685   4.257   2.420 -1.0788  0.0745  0.2813
 1371SOL    HW3 5531   2.708   4.175   2.295  1.6970  0.2587  0.6455
 1371SOL    MW4 5532   2.704   4.252   2.335 -0.1936  0.2689  0.4611
 1372SOL     OW 5533   2.942   4.410   2.238  0.2177 -0.1482 -0.7748
 1372SOL    HW2 5534   3.017   4.362   2.276 -0.5250  0.6277  1.8040
 1372SOL    HW3 5535   2.866   4.377   2.287 -0.5081  2.5026 -0.0606
 1372SOL    MW4 5536   2.942   4.399   2.250  0.0238  0.3037 -0.3402
 1373SOL     OW 5537   3.366   4.627   2.375 -0.4567 -0.0687  0.3302
 1373SOL    HW2 5538   3.363   4.642   2.469 -3.3526  3.2527 -0.1620
 1373SOL    HW3 5539   3.447   4.670   2.346  0.5816 -1.3399  1.2861
 1373SOL    MW4 5540   3.376   4.635   2.384 -0.7019  0.2017  0.3912
 1374SOL     OW 5541   3.176   0.127   2.249  0.1268  0.1269 -0.3042
 1374SOL    HW2 5542   3.173   0.219   2.277  1.3715  0.2568 -0.5848
 1374SOL    HW3 5543   3.243   0.087   2.304  0.0850 -0.4491 -0.6729
 1374SOL    MW4 5544   3.184   0.134   2.260  0.2854  0.0681 -0.3901
 1375SOL     OW 5545   3.161   0.392   2.335 -0.1828  0.3350 -0.0094
 1375SOL    HW2 5546   3.225   0.452   2.297  0.4807  0.1529  0.8111
 1375SOL    HW3 5547   3.084   0.402   2.279  0.8502 -0.1075 -1.5588
 1375SOL    MW4 5548   3.160   0.401   2.323  0.0410  0.2526 -0.1056
 1376SOL     OW 5549   3.378   0.543   2.274 -0.0380  0.4149  0.2644
 1376SOL    HW2 5550   3.460   0.497   2.292  0.3777  1.9793  2.6879
 1376SOL    HW3 5551   3.361   0.527   2.182  1.3442 -2.5498  0.4582
 1376SOL    MW4 5552   3.387   0.535   2.265  0.1993  0.2301  0.6099
 1377SOL     OW 5553   3.373   0.821   2.352  0.1137  0.1925 -0.3481
 1377SOL    HW2 5554   3.447   0.857   2.304 -0.1254  0.7361 -0.3079
 1377SOL    HW3 5555   3.381   0.726   2.340  0.9219  0.2340 -0.1836
 1377SOL    MW4 5556   3.384   0.813   2.344  0.1886  0.2697 -0.3211
 1378SOL     OW 5557   3.141   0.887   2.248  0.5766  0.3930  0.0868
 1378SOL    HW2 5558   3.220   0.868   2.298  0.1691  0.0828  0.6140
 1378SOL    HW3 5559   3.071   0.840   2.293 -0.0371  1.2267  0.0324
 1378SOL    MW4 5560   3.142   0.878   2.260  0.4416  0.4621  0.1495
 1379SOL     OW 5561   3.136   1.134   2.367  0.0218 -0.0325 -0.0357
 1379SOL    HW2 5562   3.225   1.162   2.342 -0.2773  1.6718  0.7369
 1379SOL    HW3 5563   3.128   1.045   2.332  0.6647  1.2015 -3.5015
 1379SOL    MW4 5564   3.147   1.126   2.359  0.0670  0.3551 -0.3912
 1380SOL     OW 5565   3.371   1.263   2.253  0.1127  0.1011  0.2704
 1380SOL    HW2 5566   3.456   1.230   2.280  1.2384  0.7520 -2.3298
 1380SOL    HW3 5567   3.365   1.350   2.292 -0.2834 -0.7574  2.1706
 1380SOL    MW4 5568   3.381   1.270   2.262  0.2091  0.0737  0.1783
 1381SOL     OW 5569   3.320   1.516   2.343  0.2420  0.2069 -0.1321
 1381SOL    HW2 5570   3.344   1.537   2.434  0.6422  0.5537 -0.3146
 1381SOL    HW3 5571   3.247   1.574   2.324  1.4933  1.6334 -0.7108
 1381SOL    MW4 5572   3.314   1.526   2.352  0.4597  0.4408 -0.2322
 1382SOL     OW 5573   3.087   1.694   2.283 -0.2595  0.4264  0.4518
 1382SOL    HW2 5574   3.074   1.782   2.318  1.1694  1.0571 -0.5817
 1382SOL    HW3 5575   3.014   1.643   2.319 -1.7703  2.2919  0.1251
 1382SOL    MW4 5576   3.075   1.699   2.292 -0.2706  0.7558  0.2723
 1383SOL     OW 5577   3.125   1.946   2.378 -0.3245 -0.2396  0.3196
 1383SOL    HW2 5578   3.124   1.938   2.473 -2.5292 -1.3150  0.2355
 1383SOL    HW3 5579   3.206   1.992   2.359  0.3280 -0.3387  2.6914
 1383SOL    MW4 5580   3.135   1.951   2.388 -0.5295 -0.3946  0.6213
 1384SOL     OW 5581   3.356   2.068   2.312  0.2842 -0.2704 -0.3137
 1384SOL    HW2 5582   3.418   2.004   2.348  1.4186  1.1056  0.2069
 1384SOL    HW3 5583   3.361   2.056   2.217 -0.2637 -1.6316 -0.1843
 1384SOL    MW4 5584   3.365   2.058   2.304  0.3612 -0.2685 -0.2279
 1385SOL     OW 5585   3.366   2.336   2.403  0.4643  0.0490  0.3768
 1385SOL    HW2 5586   3.288   2.377   2.365  0.9733 -0.0018 -0.7292
 1385SOL    HW3 5587   3.360   2.244   2.378  0.4734 -0.1216  0.9820
 1385SOL    MW4 5588   3.355   2.330   2.395  0.5326  0.0198  0.3107
 1386SOL     OW 5589   3.152   2.441   2.279 -0.3600  0.0617  0.0192
 1386SOL    HW2 5590   3.139   2.533   2.302 -0.9029  0.1285 -0.5563
 1386SOL    HW3 5591   3.067   2.400   2.294  0.3727 -0.7674  2.1924
 1386SOL    MW4 5592   3.139   2.448   2.284 -0.3350 -0.0389  0.2301
 1387SOL     OW 5593   3.155   2.727   2.362 -0.1522  0.2848  0.4554
 1387SOL    HW2 5594   3.158   2.719   2.457  1.2577 -0.7851  0.3379
 1387SOL    HW3 5595   3.064   2.749   2.343 -0.9661 -1.6643  1.9014
 1387SOL    MW4 5596   3.143   2.729   2.372 -0.0737 -0.1135  0.6306
 1388SOL     OW 5597   3.376   2.845   2.245 -0.0841  0.3720 -0.0976
 1388SOL    HW2 5598   3.367   2.931   2.287  1.1473 -0.2391  1.4593
 1388SOL    HW3 5599   3.296   2.798   2.269 -0.9620  1.2290 -1.3167
 1388SOL    MW4 5600   3.364   2.850   2.254 -0.0374  0.4046 -0.0529
 1389SOL     OW 5601   3.357   3.100   2.353 -0.1360  0.0800 -0.6316
 1389SOL    HW2 5602   3.433   3.145   2.316 -1.0167  0.7428 -1.6527
 1389SOL    HW3 5603   3.282   3.153   2.326 -0.9811 -0.6592  0.2298
 1389SOL    MW4 5604   3.358   3.113   2.344 -0.3638  0.0699 -0.6528
 1390SOL     OW 5605   3.137   3.202   2.227  0.1127  0.2421 -0.7035
 1390SOL    HW2 5606   3.132   3.295   2.248 -0.1151  0.3883 -1.4189
 1390SOL    HW3 5607   3.141   3.198   2.132  1.1004 -0.4388 -0.6436
 1390SOL    MW4 5608   3.137   3.214   2.217  0.2129  0.1714 -0.7901
 1391SOL     OW 5609   3.170   3.455   2.310  0.1294  0.0706 -0.6780
 1391SOL    HW2 5610   3.161   3.448   2.405 -1.9770 -0.1590 -0.8688
 1391SOL    HW3 5611   3.252   3.503   2.297  0.8659 -0.6158  1.2291
 1391SOL    MW4 5612   3.179   3.460   2.321 -0.0513 -0.0503 -0.4516
 1392SOL     OW 5613   3.394   3.625   2.272 -0.4841  0.0201 -0.3110
 1392SOL    HW2 5614   3.459   3.564   2.306 -0.3423  0.7129  0.6768
 1392SOL    HW3 5615   3.412   3.629   2.178  0.8835  0.1791 -0.0472
 1392SOL    MW4 5616   3.405   3.617   2.264 -0.2849  0.1326 -0.1459
 1393SOL     OW 5617   3.385   3.883   2.361  0.3103  0.0484 -0.1265
 1393SOL    HW2 5618   3.455   3.925   2.312  1.3605 -0.9553  0.4824
 1393SOL    HW3 5619   3.390   3.790   2.337 -0.7951 -0.0377 -0.0701
 1393SOL    MW4 5620   3.395   3.876   2.352  0.3030 -0.0954 -0.0386
 1394SOL     OW 5621   3.148   4.009   2.245  0.9116 -0.4666 -0.1089
 1394SOL    HW2 5622   3.230   3.970   2.274  0.8893 -0.4655 -0.0449
 1394SOL    HW3 5623   3.080   3.958   2.289  0.9059  0.4122  0.9565
 1394SOL    MW4 5624   3.150   3.997   2.255  0.9079 -0.3505  0.0401
 1395SOL     OW 5625   3.139   4.275   2.361  0.1708  0.0333  0.4020
 1395SOL    HW2 5626   3.225   4.310   2.338 -1.1088  1.5032 -2.4481
 1395SOL    HW3 5627   3.144   4.182   2.337  0.1729  0.6801 -2.3602
 1395SOL    MW4 5628   3.151   4.267   2.355  0.0024  0.3128 -0.3381
 1396SOL     OW 5629   3.388   4.363   2.319  0.3162 -0.1322 -0.5488
 1396SOL    HW2 5630   3.379   4.457   2.334  0.8394 -0.0354 -0.8068
 1396SOL    HW3 5631   3.389   4.354   2.224 -1.7562 -0.6151 -0.5357
 1396SOL    MW4 5632   3.387   4.375   2.308  0.1121 -0.1836 -0.5810
 1397SOL     OW 5633   3.820   0.004   2.371  0.5004  0.4158  0.1168
 1397SOL    HW2 5634   3.846   0.002   2.464 -0.2575 -0.7228  0.3129
 1397SOL    HW3 5635   3.892   0.049   2.327  2.1605 -1.4507  0.8514
 1397SOL    MW4 5636   3.833   0.010   2.378  0.6194  0.0186  0.2401
 1398SOL     OW 5637   3.582   0.115   2.271  0.2668 -0.8848 -0.2885
 1398SOL    HW2 5638   3.576   0.211   2.267  0.5831 -0.8998 -1.2643
 1398SOL    HW3 5639   3.652   0.098   2.334  0.3219 -0.4727 -0.2373
 1398SOL    MW4 5640   3.590   0.126   2.279  0.3157 -0.8324 -0.4106
 1399SOL     OW 5641   3.584   0.387   2.335  0.0779  0.1966 -0.2557
 1399SOL    HW2 5642   3.581   0.358   2.426 -1.4250  0.7655 -0.1066
 1399SOL    HW3 5643   3.674   0.416   2.322 -0.1731  1.9056  1.6067
 1399SOL    MW4 5644   3.595   0.387   2.345 -0.1533  0.4972  0.0095
 1400SOL     OW 5645   3.837   0.465   2.251 -0.2613  0.3359 -0.1585
 1400SOL    HW2 5646   3.823   0.558   2.271  0.6601  0.6430 -0.8779
 1400SOL    HW3 5647   3.836   0.461   2.155  1.3080 -0.1276 -0.1746
 1400SOL    MW4 5648   3.835   0.477   2.241  0.0677  0.3153 -0.2553
 1401SOL     OW 5649   3.809   0.723   2.336  0.1154  0.0739  0.3335
 1401SOL    HW2 5650   3.812   0.749   2.428  1.0975  2.0208 -0.2221
 1401SOL    HW3 5651   3.888   0.761   2.298 -0.3431 -0.6205 -1.3500
 1401SOL    MW4 5652   3.820   0.731   2.343  0.1841  0.2392  0.0381
 1402SOL     OW 5653   3.619   0.928   2.258 -0.0491 -0.2746  0.4664
 1402SOL    HW2 5654   3.656   0.845   2.287 -1.9561 -1.7253 -1.1182
 1402SOL    HW3 5655   3.601   0.916   2.165  0.9766  2.4312 -0.1202
 1402SOL    MW4 5656   3.621   0.916   2.250 -0.1650 -0.1091  0.1800
 1403SOL     OW 5657   3.611   1.192   2.354  0.1596  0.0601 -0.0308
 1403SOL    HW2 5658   3.603   1.177   2.448 -0.1355  0.0230 -0.0628
 1403SOL    HW3 5659   3.643   1.108   2.320  0.3547  0.1013  0.0462
 1403SOL    MW4 5660   3.614   1.179   2.362  0.1462  0.0604 -0.0246
 1404SOL     OW 5661   3.844   1.290   2.256  0.2226 -0.0200  0.1838
 1404SOL    HW2 5662   3.851   1.379   2.291 -1.2109  0.4320 -0.6371
 1404SOL    HW3 5663   3.762   1.256   2.291 -0.0452 -0.4253 -0.8211
 1404SOL    MW4 5664   3.834   1.297   2.265 -0.0019 -0.0139 -0.0570
 1405SOL     OW 5665   3.822   1.555   2.352  0.0934 -0.3375 -0.0746
 1405SOL    HW2 5666   3.807   1.547   2.447 -1.1810 -0.4338 -0.2729
 1405SOL    HW3 5667   3.734   1.565   2.315  0.6845  1.1943 -1.1142
 1405SOL    MW4 5668   3.808   1.555   2.360  0.0031 -0.1479 -0.2379
 1406SOL     OW 5669   3.575   1.602   2.246 -0.3408 -0.3718  0.5843
 1406SOL    HW2 5670   3.492   1.567   2.278 -0.5937 -0.1269  0.2064
 1406SOL    HW3 5671   3.562   1.610   2.151 -0.6012  1.5808  0.7567
 1406SOL    MW4 5672   3.562   1.599   2.237 -0.4084 -0.0819  0.5572
 1407SOL     OW 5673   3.556   1.862   2.332  0.5532  0.3788 -0.2594
 1407SOL    HW2 5674   3.639   1.907   2.314  1.2007 -0.4100  0.7319
 1407SOL    HW3 5675   3.568   1.775   2.294  0.2147  0.2186  0.0034
 1407SOL    MW4 5676   3.569   1.857   2.324  0.5939  0.2537 -0.0942
 1408SOL     OW 5677   3.757   2.028   2.247 -0.2527  0.3205  0.0276
 1408SOL    HW2 5678   3.840   1.997   2.283 -0.2327 -1.1612 -1.2022
 1408SOL    HW3 5679   3.778   2.052   2.156 -1.2781 -0.6525 -0.4789
 1408SOL    MW4 5680   3.771   2.027   2.240 -0.3853 -0.0033 -0.2015
 1409SOL     OW 5681   3.810   2.282   2.359 -0.0527 -0.2734 -0.1237
 1409SOL    HW2 5682   3.741   2.331   2.314 -0.3425 -0.2204  0.3755
 1409SOL    HW3 5683   3.802   2.193   2.325  0.3886 -0.0123 -0.9332
 1409SOL    MW4 5684   3.799   2.277   2.349 -0.0327 -0.2322 -0.1647
 1410SOL     OW 5685   3.591   2.410   2.254  0.6099  0.0359  0.1290
 1410SOL    HW2 5686   3.505   2.390   2.292  0.8894  0.2372  0.8924
 1410SOL    HW3 5687   3.574   2.424   2.161 -0.1362 -0.2331  0.2197
 1410SOL    MW4 5688   3.577   2.409   2.247  0.5481  0.0274  0.2418
 1411SOL     OW 5689   3.581   2.681   2.362  0.1072 -0.4608  0.7008
 1411SOL    HW2 5690   3.580   2.598   2.315  0.8201 -1.2184  1.9950
 1411SOL    HW3 5691   3.520   2.737   2.314 -1.7652 -2.3246  0.8744
 1411SOL    MW4 5692   3.573   2.677   2.350 -0.0458 -0.8066  0.8943
 1412SOL     OW 5693   3.806   2.826   2.329  0.4176 -0.0278 -0.5153
 1412SOL    HW2 5694   3.805   2.911   2.372  1.2358 -0.6868  0.8610
 1412SOL    HW3 5695   3.735   2.777   2.370  0.8524 -0.4816 -0.3027
 1412SOL    MW4 5696   3.797   2.831   2.340  0.5829 -0.1743 -0.3057
 1413SOL     OW 5697   3.787   3.092   2.399 -0.4938 -0.3174 -0.0121
 1413SOL    HW2 5698   3.793   3.114   2.492  0.1455  1.4221 -0.4473
 1413SOL    HW3 5699   3.875   3.108   2.364 -0.9892  0.0403 -1.1276
 1413SOL    MW4 5700   3.799   3.097   2.407 -0.4747 -0.0405 -0.2167
 1414SOL     OW 5701   3.586   3.195   2.256  0.1053  0.1824 -0.0139
 1414SOL    HW2 5702   3.601   3.284   2.289  1.8629  0.1991 -0.7858
 1414SOL    HW3 5703   3.654   3.142   2.298 -1.3801 -0.9488  0.9994
 1414SOL    MW4 5704   3.597   3.200   2.266  0.1414  0.0353  0.0179
 1415SOL     OW 5705   3.601   3.452   2.355 -0.0141  0.1883 -0.1882
 1415SOL    HW2 5706   3.615   3.445   2.450  0.0766 -1.0432 -0.2857
 1415SOL    HW3 5707   3.675   3.505   2.324  0.2387  0.1624  0.3586
 1415SOL    MW4 5708   3.613   3.458   2.363  0.0315  0.0222 -0.1290
 1416SOL     OW 5709   3.828   3.605   2.296 -0.4026  0.0899  0.0345
 1416SOL    HW2 5710   3.805   3.692   2.329  2.0452  0.5847  0.4737
 1416SOL    HW3 5711   3.844   3.618   2.203  1.6205  0.4382  0.4269
 1416SOL    MW4 5712   3.827   3.618   2.288  0.1874  0.2015  0.1442
 1417SOL     OW 5713   3.786   3.897   2.357  0.4441  0.6252  0.1332
 1417SOL    HW2 5714   3.800   3.897   2.452  0.1697 -0.6072  0.1803
 1417SOL    HW3 5715   3.865   3.939   2.322  0.8386  0.5064  0.8653
 1417SOL    MW4 5716   3.799   3.903   2.365  0.4601  0.4468  0.2360
 1418SOL     OW 5717   3.584   4.048   2.260  0.1159  0.0537 -0.1009
 1418SOL    HW2 5718   3.578   4.123   2.318 -1.0740  0.0963 -0.2707
 1418SOL    HW3 5719   3.666   4.005   2.284  0.1197  0.6358  0.9216
 1418SOL    MW4 5720   3.594   4.052   2.270 -0.0403  0.1354  0.0114
 1419SOL     OW 5721   3.635   4.287   2.394 -0.2959  0.3321 -0.1017
 1419SOL    HW2 5722   3.691   4.339   2.337  0.9031  0.5429  1.2353
 1419SOL    HW3 5723   3.546   4.310   2.368  0.2245  0.4742 -1.8258
 1419SOL    MW4 5724   3.631   4.297   2.383 -0.0689  0.3786 -0.1528
 1420SOL     OW 5725   3.836   4.419   2.236 -0.0813  0.2945  0.3377
 1420SOL    HW2 5726   3.906   4.365   2.271  0.6597  1.0424  0.0460
 1420SOL    HW3 5727   3.846   4.503   2.282 -1.2496  0.1767  0.8335
 1420SOL    MW4 5728   3.847   4.423   2.247 -0.1376  0.3772  0.3648
 1421SOL     OW 5729   4.277   4.635   2.377 -0.1206 -0.3441 -0.3990
 1421SOL    HW2 5730   4.279   4.647   2.472 -0.0377  0.0829 -0.4545
 1421SOL    HW3 5731   4.358   4.676   2.346  0.6686 -1.9345 -0.4905
 1421SOL    MW4 5732   4.288   4.642   2.386 -0.0052 -0.4973 -0.4184
 1422SOL     OW 5733   4.069   0.125   2.288 -0.1156 -0.0194 -0.3014
 1422SOL    HW2 5734   4.070   0.213   2.326  0.7552 -0.2390  0.2125
 1422SOL    HW3 5735   4.138   0.078   2.335 -0.8182 -1.0854 -0.3287
 1422SOL    MW4 5736   4.078   0.130   2.299 -0.0935 -0.1891 -0.2375
 1423SOL     OW 5737   4.058   0.386   2.406 -0.3976  0.5068 -0.2056
 1423SOL    HW2 5738   4.121   0.449   2.371 -0.9636  1.5194  0.5454
 1423SOL    HW3 5739   3.975   0.411   2.364 -0.7314  0.6271  0.5162
 1423SOL    MW4 5740   4.055   0.398   2.396 -0.5159  0.6563 -0.0114
 1424SOL     OW 5741   4.239   0.518   2.257  0.3995 -0.0183 -0.2696
 1424SOL    HW2 5742   4.254   0.602   2.300  2.4112  0.1012 -1.1234
 1424SOL    HW3 5743   4.313   0.464   2.286  0.4246 -0.7181 -1.6315
 1424SOL    MW4 5744   4.251   0.522   2.267  0.6685 -0.0949 -0.5617
 1425SOL     OW 5745   4.254   0.780   2.369  0.2668  0.1589  0.0001
 1425SOL    HW2 5746   4.169   0.806   2.333  0.3172 -1.3208 -1.2661
 1425SOL    HW3 5747   4.317   0.817   2.307  0.4075 -1.3027 -0.7517
 1425SOL    MW4 5748   4.251   0.788   2.356  0.2923 -0.2292 -0.2661
 1426SOL     OW 5749   4.017   0.848   2.245  0.1190 -0.0180 -0.1035
 1426SOL    HW2 5750   4.013   0.940   2.271 -0.8272  0.1364 -0.7633
 1426SOL    HW3 5751   4.031   0.850   2.151 -0.3451 -0.5472 -0.1892
 1426SOL    MW4 5752   4.018   0.860   2.236 -0.0672 -0.0674 -0.2019
 1427SOL     OW 5753   4.050   1.119   2.346  0.1918  0.3273 -0.0994
 1427SOL    HW2 5754   4.035   1.114   2.441 -0.0673 -1.1454 -0.2094
 1427SOL    HW3 5755   3.977   1.171   2.313 -0.8390 -0.8552  0.2689
 1427SOL    MW4 5756   4.039   1.125   2.354  0.0210 -0.0230 -0.0653
 1428SOL     OW 5757   4.286   1.224   2.247 -0.1816 -0.0919 -0.0383
 1428SOL    HW2 5758   4.356   1.166   2.278  0.0102 -0.5517 -1.2959
 1428SOL    HW3 5759   4.206   1.186   2.283  0.0098 -0.7675 -0.3129
 1428SOL    MW4 5760   4.285   1.211   2.255 -0.1311 -0.2418 -0.2403
 1429SOL     OW 5761   4.282   1.510   2.339  0.1442 -0.6908 -0.2258
 1429SOL    HW2 5762   4.282   1.419   2.310  0.3185 -1.5132  2.2847
 1429SOL    HW3 5763   4.369   1.543   2.315  0.3961 -1.4304 -0.3371
 1429SOL    MW4 5764   4.294   1.502   2.332  0.2007 -0.8968  0.0908
 1430SOL     OW 5765   4.064   1.665   2.249  0.2130 -0.1991 -0.0419
 1430SOL    HW2 5766   4.138   1.614   2.281 -0.0342 -2.2435 -2.5618
 1430SOL    HW3 5767   3.987   1.615   2.277 -0.0210 -1.6183 -2.9231
 1430SOL    MW4 5768   4.063   1.651   2.257  0.1488 -0.6560 -0.7546
 1431SOL     OW 5769   4.012   1.917   2.345  0.0563 -0.0906 -0.2585
 1431SOL    HW2 5770   4.021   1.907   2.440  0.8200 -0.5296 -0.3753
 1431SOL    HW3 5771   4.040   1.833   2.309 -0.9958 -0.2054 -0.8375
 1431SOL    MW4 5772   4.017   1.905   2.353  0.0181 -0.1636 -0.3502
 1432SOL     OW 5773   4.249   2.053   2.256 -0.2061 -0.4418  0.1133
 1432SOL    HW2 5774   4.251   2.144   2.287  0.4252 -0.4192  0.0049
 1432SOL    HW3 5775   4.160   2.023   2.275 -0.7774  0.5637 -0.8753
 1432SOL    MW4 5776   4.237   2.061   2.262 -0.1988 -0.3061 -0.0315
 1433SOL     OW 5777   4.267   2.300   2.353  0.4437  0.2717 -0.2180
 1433SOL    HW2 5778   4.195   2.344   2.308 -0.9461 -1.3204  0.3878
 1433SOL    HW3 5779   4.346   2.335   2.311 -0.6711  1.8746 -1.0545
 1433SOL    MW4 5780   4.268   2.310   2.341  0.1130  0.2730 -0.2482
 1434SOL     OW 5781   4.037   2.406   2.256  0.1831  0.3616  0.3600
 1434SOL    HW2 5782   4.018   2.493   2.292 -0.9974  0.1298  0.3112
 1434SOL    HW3 5783   3.959   2.355   2.274  2.0018 -1.6186  3.1256
 1434SOL    MW4 5784   4.024   2.411   2.263  0.2675  0.0696  0.7186
 1435SOL     OW 5785   4.052   2.667   2.347  0.0028 -0.0984  0.3689
 1435SOL    HW2 5786   4.046   2.688   2.440 -1.4621  0.9863  0.0460
 1435SOL    HW3 5787   3.975   2.708   2.308  0.3743 -0.9073 -1.2612
 1435SOL    MW4 5788   4.041   2.675   2.354 -0.1416 -0.0618  0.1113
 1436SOL     OW 5789   4.276   2.837   2.247 -0.2016  0.1765  0.4785
 1436SOL    HW2 5790   4.210   2.781   2.289 -0.2927  1.8249  2.6523
 1436SOL    HW3 5791   4.359   2.802   2.279 -0.0727 -0.9269 -1.0217
 1436SOL    MW4 5792   4.278   2.825   2.257 -0.1965  0.2482  0.5674
 1437SOL     OW 5793   4.266   3.088   2.403  0.2017 -0.6809  0.3505
 1437SOL    HW2 5794   4.271   3.005   2.356  0.6646  0.0207 -0.8885
 1437SOL    HW3 5795   4.346   3.134   2.376 -0.5514  0.5679  0.2200
 1437SOL    MW4 5796   4.278   3.083   2.393  0.1640 -0.4237  0.1698
 1438SOL     OW 5797   4.025   3.198   2.295 -0.0663 -0.6369  0.3310
 1438SOL    HW2 5798   4.034   3.289   2.322  1.1032 -1.1938  1.9270
 1438SOL    HW3 5799   4.109   3.158   2.320  0.6899 -1.4346 -3.2696
 1438SOL    MW4 5800   4.038   3.205   2.302  0.1874 -0.8156  0.0668
 1439SOL     OW 5801   4.044   3.462   2.363  0.3934  0.2081 -0.5779
 1439SOL    HW2 5802   4.118   3.513   2.329  1.1061 -0.5769 -0.2244
 1439SOL    HW3 5803   3.967   3.513   2.340  1.0797  1.2918 -0.5234
 1439SOL    MW4 5804   4.044   3.476   2.356  0.5779  0.2475 -0.5240
 1440SOL     OW 5805   4.283   3.601   2.272 -0.2792  0.0819  0.0399
 1440SOL    HW2 5806   4.273   3.696   2.282  0.7849  0.1358  0.6979
 1440SOL    HW3 5807   4.305   3.589   2.180  0.0548  0.5224  0.0581
 1440SOL    MW4 5808   4.285   3.612   2.262 -0.0944  0.1473  0.1290
 1441SOL     OW 5809   4.246   3.860   2.338 -0.3112  0.5071  0.1866
 1441SOL    HW2 5810   4.257   3.861   2.433 -0.8714  1.0277  0.2468
 1441SOL    HW3 5811   4.317   3.916   2.305  1.0295 -1.1736  0.1721
 1441SOL    MW4 5812   4.257   3.868   2.346 -0.2084  0.3543  0.1929
 1442SOL     OW 5813   4.019   3.999   2.253  0.1067  0.3574 -0.1914
 1442SOL    HW2 5814   4.088   3.956   2.304  0.2818  1.0708  0.1879
 1442SOL    HW3 5815   4.039   3.978   2.162  0.5566  0.1640 -0.0485
 1442SOL    MW4 5816   4.031   3.991   2.248  0.1888  0.4261 -0.1225
 1443SOL     OW 5817   4.036   4.272   2.345  0.1042  0.1754 -0.4227
 1443SOL    HW2 5818   4.121   4.310   2.323 -0.7952  1.6271 -1.4326
 1443SOL    HW3 5819   4.040   4.183   2.310  0.2731  1.0821 -2.7616
 1443SOL    MW4 5820   4.048   4.265   2.338  0.0072  0.4859 -0.8645
 1444SOL     OW 5821   4.253   4.414   2.211  0.3829  0.3883  0.0725
 1444SOL    HW2 5822   4.260   4.492   2.266 -1.5344  0.1195  0.7501
 1444SOL    HW3 5823   4.318   4.353   2.247  1.1299  1.2611  0.2222
 1444SOL    MW4 5824   4.262   4.416   2.223  0.2284  0.4678  0.1817
 1445SOL     OW 5825   0.234   4.635   2.624 -0.0229 -0.2648  0.2801
 1445SOL    HW2 5826   0.229   4.548   2.664 -0.9693 -0.3967 -0.1046
 1445SOL    HW3 5827   0.168   4.687   2.671  0.0211  0.0416  0.0065
 1445SOL    MW4 5828   0.225   4.631   2.636 -0.1420 -0.2418  0.1929
 1446SOL     OW 5829   0.062   0.124   2.750  0.4403  0.0386 -0.3701
 1446SOL    HW2 5830   0.038   0.140   2.841 -0.5213 -1.0396 -0.4301
 1446SOL    HW3 5831   0.052   0.209   2.707  0.4914  0.4534  0.4328
 1446SOL    MW4 5832   0.058   0.137   2.756  0.3202 -0.0490 -0.2723
 1447SOL     OW 5833   4.489   0.381   2.633  0.6963  0.0771 -0.4728
 1447SOL    HW2 5834   4.568   0.433   2.648  1.6189 -0.7795 -2.2727
 1447SOL    HW3 5835   4.482   0.374   2.538 -0.3558 -1.6660 -0.2858
 1447SOL    MW4 5836   4.498   0.387   2.623  0.6790 -0.2659 -0.6857
 1448SOL     OW 5837   0.244   0.516   2.705 -0.2728  0.2223 -0.0222
 1448SOL    HW2 5838   0.254   0.511   2.800 -0.5510  0.7990  0.0354
 1448SOL    HW3 5839   0.314   0.460   2.671  0.2561  0.5664  0.5021
 1448SOL    MW4 5840   0.254   0.508   2.713 -0.2398  0.3438  0.0546
 1449SOL     OW 5841   0.205   0.767   2.609  0.5586 -0.2673  0.0149
 1449SOL    HW2 5842   0.284   0.815   2.635  0.5644 -0.1271 -0.2645
 1449SOL    HW3 5843   0.219   0.679   2.644  0.2988  0.0730  1.0078
 1449SOL    MW4 5844   0.217   0.762   2.617  0.5251 -0.2039  0.1094
 1450SOL     OW 5845   4.489   0.875   2.746  0.3315 -0.3511  0.0489
 1450SOL    HW2 5846   4.410   0.831   2.715  0.5410 -0.9328  0.3206
 1450SOL    HW3 5847   4.560   0.839   2.692  0.2090  1.3676 -1.3022
 1450SOL    MW4 5848   4.488   0.865   2.735  0.3428 -0.2010 -0.0932
 1451SOL     OW 5849   0.028   1.125   2.623 -0.0789  0.2027 -0.2438
 1451SOL    HW2 5850   0.088   1.169   2.683 -1.0264  1.4811 -0.2292
 1451SOL    HW3 5851   0.023   1.035   2.656  0.9634  0.3749  0.3978
 1451SOL    MW4 5852   0.036   1.119   2.635 -0.0664  0.3942 -0.1574
 1452SOL     OW 5853   0.260   1.248   2.743 -0.2997 -0.0569 -0.5199
 1452SOL    HW2 5854   0.330   1.206   2.692 -0.7364  0.4325 -1.5355
 1452SOL    HW3 5855   0.248   1.333   2.702  2.3925  2.2218  3.1604
 1452SOL    MW4 5856   0.267   1.253   2.731 -0.0021  0.3085 -0.1686
 1453SOL     OW 5857   0.197   1.513   2.683  0.1227  0.5647 -0.1415
 1453SOL    HW2 5858   0.271   1.572   2.697 -0.1249  0.8474 -0.0244
 1453SOL    HW3 5859   0.120   1.568   2.696 -0.1115  0.7313 -2.1265
 1453SOL    MW4 5860   0.197   1.528   2.687  0.0592  0.6241 -0.3877
 1454SOL     OW 5861   4.465   1.659   2.741  0.1431 -0.1463 -0.3492
 1454SOL    HW2 5862   4.464   1.667   2.836 -1.0659 -1.4383 -0.2365
 1454SOL    HW3 5863   4.455   1.748   2.709 -0.4200  0.1823  0.7389
 1454SOL    MW4 5864   4.464   1.672   2.749 -0.0906 -0.2733 -0.1910
 1455SOL     OW 5865   4.460   1.947   2.633 -0.0908  0.3632 -0.0821
 1455SOL    HW2 5866   4.546   1.985   2.652 -1.6021  3.0390  1.6857
 1455SOL    HW3 5867   4.445   1.969   2.541  1.0931 -0.1228 -0.4079
 1455SOL    MW4 5868   4.469   1.955   2.623 -0.1340  0.6521  0.1085
 1456SOL     OW 5869   0.210   2.026   2.727 -0.2069 -0.3331  0.3084
 1456SOL    HW2 5870   0.284   1.974   2.695 -0.9941 -1.3126  0.0708
 1456SOL    HW3 5871   0.228   2.115   2.695 -0.0987 -0.9366 -1.3649
 1456SOL    MW4 5872   0.222   2.031   2.719 -0.2964 -0.5419  0.0560
 1457SOL     OW 5873   0.250   2.283   2.633 -0.0521 -0.5556  0.3187
 1457SOL    HW2 5874   0.323   2.340   2.658 -1.2688  1.1877  0.0100
 1457SOL    HW3 5875   0.172   2.326   2.670 -1.3271 -0.5247 -2.2724
 1457SOL    MW4 5876   0.249   2.296   2.642 -0.3808 -0.3214 -0.0639
 1458SOL     OW 5877   0.003   2.406   2.727  0.4851  0.2474  0.1264
 1458SOL    HW2 5878   0.001   2.414   2.822 -2.1248  0.7889  0.0681
 1458SOL    HW3 5879  -0.082   2.369   2.704  1.3570 -0.5745 -1.9484
 1458SOL    MW4 5880  -0.009   2.402   2.736  0.2556  0.2105 -0.1550
 1459SOL     OW 5881   4.469   2.672   2.652  0.0959 -0.1587  0.1900
 1459SOL    HW2 5882   4.391   2.697   2.702  0.5456  0.3489  0.6464
 1459SOL    HW3 5883   4.483   2.580   2.674 -0.1181 -0.1272  0.4574
 1459SOL    MW4 5884   4.461   2.663   2.662  0.1273 -0.0875  0.2856
 1460SOL     OW 5885   0.236   2.800   2.732  0.6505  0.1770  0.2723
 1460SOL    HW2 5886   0.254   2.888   2.697  1.4161 -0.5745 -1.2640
 1460SOL    HW3 5887   0.148   2.779   2.701  0.9677 -0.1095 -0.4517
 1460SOL    MW4 5888   0.227   2.809   2.723  0.7934  0.0398 -0.0257
 1461SOL     OW 5889   0.232   3.060   2.661 -0.1346 -0.2317 -0.4870
 1461SOL    HW2 5890   0.311   3.105   2.691 -0.1419 -0.1663 -0.5663
 1461SOL    HW3 5891   0.234   3.069   2.566 -0.5607  0.3047 -0.4448
 1461SOL    MW4 5892   0.243   3.067   2.653 -0.1918 -0.1523 -0.4919
 1462SOL     OW 5893   0.000   3.180   2.780  0.0930 -0.3570  0.5205
 1462SOL    HW2 5894  -0.080   3.147   2.739  0.3148  0.0340 -0.2400
 1462SOL    HW3 5895   0.070   3.124   2.745  0.6022  1.4688 -1.5394
 1462SOL    MW4 5896  -0.001   3.168   2.770  0.1894 -0.0644  0.1485
 1463SOL     OW 5897   4.453   3.432   2.655  0.1354  0.3985  1.0333
 1463SOL    HW2 5898   4.534   3.476   2.679  1.2582 -0.2359 -1.4441
 1463SOL    HW3 5899   4.465   3.341   2.682  1.9118 -0.6135 -2.7599
 1463SOL    MW4 5900   4.465   3.426   2.661  0.5174  0.1812  0.2062
 1464SOL     OW 5901   0.183   3.578   2.718  0.3990  0.1314  0.2480
 1464SOL    HW2 5902   0.183   3.569   2.814 -0.5253  2.4286  0.5166
 1464SOL    HW3 5903   0.266   3.539   2.690  0.3179 -1.2939  1.8941
 1464SOL    MW4 5904   0.194   3.572   2.727  0.2663  0.2465  0.5007
 1465SOL     OW 5905   0.255   3.849   2.648 -0.0009 -0.0840 -0.1883
 1465SOL    HW2 5906   0.237   3.758   2.671 -1.1681  0.2428  0.2045
 1465SOL    HW3 5907   0.233   3.855   2.555 -1.0785  0.0904  0.0727
 1465SOL    MW4 5908   0.250   3.838   2.639 -0.2971 -0.0179 -0.1020
 1466SOL     OW 5909   0.018   3.981   2.714  0.2297  0.0805  0.3344
 1466SOL    HW2 5910   0.027   4.065   2.669  0.5572  0.9228  1.9383
 1466SOL    HW3 5911   0.101   3.936   2.696 -0.1279 -0.0929 -0.9046
 1466SOL    MW4 5912   0.030   3.986   2.706  0.2255  0.1688  0.3827
 1467SOL     OW 5913   4.485   4.243   2.632  0.7229  0.4588 -0.2697
 1467SOL    HW2 5914   4.433   4.303   2.685  0.2969  0.0751 -0.2500
 1467SOL    HW3 5915   4.575   4.263   2.656  0.6247  1.6109 -0.8144
 1467SOL    MW4 5916   4.490   4.254   2.642  0.6542  0.5603 -0.3390
 1468SOL     OW 5917   0.212   4.375   2.725 -0.1352 -0.5030  0.1912
 1468SOL    HW2 5918   0.200   4.377   2.820 -1.9598 -1.4025 -0.0140
 1468SOL    HW3 5919   0.287   4.317   2.712 -0.4327 -1.0748  1.0248
 1468SOL    MW4 5920   0.221   4.368   2.736 -0.4152 -0.6971  0.2739
 1469SOL     OW 5921   0.655   4.654   2.598 -0.3979  0.2026 -0.0866
 1469SOL    HW2 5922   0.739   4.689   2.629 -0.2329  0.4755 -0.8259
 1469SOL    HW3 5923   0.589   4.707   2.641 -0.2464 -1.1360  1.8714
 1469SOL    MW4 5924   0.658   4.665   2.608 -0.3561  0.0620  0.0739
 1470SOL     OW 5925   0.445   0.128   2.735  0.3659 -0.0482 -0.1212
 1470SOL    HW2 5926   0.461   0.127   2.829 -0.1289  1.5569  0.0087
 1470SOL    HW3 5927   0.371   0.068   2.723  0.0004  0.2446  0.6088
 1470SOL    MW4 5928   0.437   0.120   2.746  0.2524  0.2022 -0.0081
 1471SOL     OW 5929   0.451   0.387   2.598  0.1180 -0.1069 -0.2207
 1471SOL    HW2 5930   0.538   0.412   2.629 -1.2297  2.1274  1.9803
 1471SOL    HW3 5931   0.437   0.299   2.632  1.0451 -0.0119  0.4150
 1471SOL    MW4 5932   0.461   0.379   2.606  0.0625  0.2005  0.1533
 1472SOL     OW 5933   0.685   0.462   2.719  0.2141 -0.2832  0.2492
 1472SOL    HW2 5934   0.681   0.453   2.814  0.8214  1.7531  0.4997
 1472SOL    HW3 5935   0.770   0.426   2.694  0.1542 -0.5954  0.4927
 1472SOL    MW4 5936   0.695   0.456   2.728  0.2863 -0.0557  0.3140
 1473SOL     OW 5937   0.645   0.738   2.624  0.3481 -0.2642  0.8954
 1473SOL    HW2 5938   0.713   0.796   2.658  0.1958 -0.2929  1.2514
 1473SOL    HW3 5939   0.656   0.656   2.672  0.6489 -0.5807  0.2983
 1473SOL    MW4 5940   0.655   0.735   2.635  0.3677 -0.3097  0.8636
 1474SOL     OW 5941   0.445   0.887   2.732 -0.2268 -0.4093 -0.1609
 1474SOL    HW2 5942   0.455   0.978   2.705 -0.4468 -0.2533  0.2683
 1474SOL    HW3 5943   0.514   0.840   2.686  0.0259  0.0126 -0.2144
 1474SOL    MW4 5944   0.455   0.893   2.722 -0.2224 -0.3331 -0.1111
 1475SOL     OW 5945   0.481   1.135   2.626  0.1310  0.0302  0.0349
 1475SOL    HW2 5946   0.537   1.205   2.658 -0.1963 -0.2566  1.2455
 1475SOL    HW3 5947   0.474   1.151   2.532 -0.0549  1.6884  0.3267
 1475SOL    MW4 5948   0.488   1.146   2.617  0.0633  0.2111  0.2332
 1476SOL     OW 5949   0.669   1.289   2.736  0.1605 -0.2564 -0.1066
 1476SOL    HW2 5950   0.687   1.286   2.830  1.3162  0.6626 -0.2936
 1476SOL    HW3 5951   0.743   1.244   2.696  0.0083 -0.0511 -0.6206
 1476SOL    MW4 5952   0.681   1.282   2.743  0.2929 -0.1080 -0.1991
 1477SOL     OW 5953   0.659   1.570   2.650  0.4610  0.0094 -0.6425
 1477SOL    HW2 5954   0.580   1.613   2.683  0.2905 -0.5725 -0.2853
 1477SOL    HW3 5955   0.656   1.481   2.687  2.9753  0.9763  2.1337
 1477SOL    MW4 5956   0.648   1.564   2.659  0.7703  0.0602 -0.2291
 1478SOL     OW 5957   0.416   1.654   2.737  0.4050  0.2920  0.1322
 1478SOL    HW2 5958   0.411   1.683   2.828  0.6722  0.4714  0.0913
 1478SOL    HW3 5959   0.409   1.735   2.686  0.3442  0.2011 -0.0041
 1478SOL    MW4 5960   0.415   1.669   2.742  0.4323  0.3036  0.1092
 1479SOL     OW 5961   0.433   1.919   2.624 -0.4982  0.2110 -0.1803
 1479SOL    HW2 5962   0.521   1.934   2.657  0.2033 -0.4390 -1.7033
 1479SOL    HW3 5963   0.441   1.926   2.529 -1.5296 -2.4939 -0.5329
 1479SOL    MW4 5964   0.445   1.922   2.616 -0.5417 -0.2315 -0.4277
 1480SOL     OW 5965   0.689   2.022   2.694 -0.5640  0.0572 -0.5068
 1480SOL    HW2 5966   0.676   2.033   2.788 -0.2372  2.3657 -0.6949
 1480SOL    HW3 5967   0.781   1.997   2.686 -0.5723 -0.0709 -0.2222
 1480SOL    MW4 5968   0.700   2.020   2.706 -0.5220  0.3448 -0.4942
 1481SOL     OW 5969   0.673   2.297   2.610 -0.5292 -0.0128 -0.2490
 1481SOL    HW2 5970   0.752   2.324   2.656 -0.9036  1.1518 -0.2562
 1481SOL    HW3 5971   0.676   2.202   2.609  1.3485  0.0265 -1.0580
 1481SOL    MW4 5972   0.684   2.288   2.616 -0.3309  0.1459 -0.3564
 1482SOL     OW 5973   0.472   2.397   2.746  0.2027  0.0480 -0.2570
 1482SOL    HW2 5974   0.470   2.484   2.706 -0.0943  0.4079  0.5111
 1482SOL    HW3 5975   0.542   2.350   2.701  2.2715  1.6170  1.1913
 1482SOL    MW4 5976   0.481   2.402   2.735  0.4365  0.3023  0.0353
 1483SOL     OW 5977   0.442   2.655   2.639 -0.8463 -0.0341  0.1596
 1483SOL    HW2 5978   0.516   2.711   2.660 -0.9401  0.2375 -0.2288
 1483SOL    HW3 5979   0.369   2.691   2.690 -0.9676  0.3522 -0.2884
 1483SOL    MW4 5980   0.442   2.667   2.649 -0.8746  0.0527  0.0494
 1484SOL     OW 5981   0.675   2.824   2.704  0.2453 -0.5061  0.1128
 1484SOL    HW2 5982   0.680   2.822   2.800  1.0355 -0.3957  0.0743
 1484SOL    HW3 5983   0.676   2.918   2.683 -1.8811 -0.4479  0.0855
 1484SOL    MW4 5984   0.676   2.836   2.714  0.0691 -0.4838  0.1042
 1485SOL     OW 5985   0.664   3.102   2.638 -0.3862 -0.6136  0.0782
 1485SOL    HW2 5986   0.751   3.132   2.665  0.3123 -3.6862  1.5113
 1485SOL    HW3 5987   0.663   3.115   2.543  0.8407  1.3614  0.3020
 1485SOL    MW4 5988   0.676   3.107   2.629 -0.1321 -0.7586  0.2968
 1486SOL     OW 5989   0.437   3.207   2.748 -0.6432 -0.2858  0.4889
 1486SOL    HW2 5990   0.443   3.223   2.842 -1.0573 -1.5293  0.7365
 1486SOL    HW3 5991   0.524   3.177   2.723 -0.4509  0.3280  0.4167
 1486SOL    MW4 5992   0.449   3.205   2.757 -0.6724 -0.3686  0.5119
 1487SOL     OW 5993   0.430   3.483   2.654 -0.0910  0.3585  0.4551
 1487SOL    HW2 5994   0.435   3.388   2.664 -0.3967  0.2949  0.0070
 1487SOL    HW3 5995   0.429   3.497   2.559 -1.5849  0.7248  0.5095
 1487SOL    MW4 5996   0.431   3.472   2.643 -0.3284  0.3984  0.4032
 1488SOL     OW 5997   0.668   3.600   2.733 -0.5548 -0.2217  0.1361
 1488SOL    HW2 5998   0.665   3.610   2.828 -0.8514 -0.0428  0.1096
 1488SOL    HW3 5999   0.581   3.566   2.710 -0.2851 -0.8046 -0.0096
 1488SOL    MW4 6000   0.656   3.597   2.742 -0.5583 -0.2751  0.1135
 1489SOL     OW 6001   0.661   3.863   2.646 -0.2258 -0.0130 -0.4724
 1489SOL    HW2 6002   0.587   3.894   2.697  2.1112  0.0517  3.0649
 1489SOL    HW3 6003   0.671   3.772   2.671  0.8551 -0.0296 -0.9323
 1489SOL    MW4 6004   0.653   3.855   2.656  0.2252 -0.0064 -0.0663
 1490SOL     OW 6005   0.446   3.982   2.776 -0.2123  0.2558 -0.3049
 1490SOL    HW2 6006   0.436   4.069   2.739  1.6914  0.1665 -1.0889
 1490SOL    HW3 6007   0.378   3.929   2.735 -1.3773  1.3663  0.1840
 1490SOL    MW4 6008   0.436   3.986   2.766 -0.1148  0.3908 -0.3436
 1491SOL     OW 6009   0.441   4.242   2.684  0.5054  0.1869 -0.5340
 1491SOL    HW2 6010   0.517   4.284   2.724  0.4506  1.2536 -1.5094
 1491SOL    HW3 6011   0.459   4.243   2.590  0.1271 -1.2585 -0.6356
 1491SOL    MW4 6012   0.453   4.248   2.677  0.4482  0.1373 -0.6764
 1492SOL     OW 6013   0.681   4.409   2.757  0.2030  0.1141  0.0988
 1492SOL    HW2 6014   0.758   4.364   2.722 -1.4668 -1.5622 -1.4586
 1492SOL    HW3 6015   0.664   4.480   2.695  1.4175  1.4926  1.2994
 1492SOL    MW4 6016   0.689   4.413   2.744  0.1430  0.0758  0.0520
 1493SOL     OW 6017   1.115   4.620   2.621  0.0006 -0.2264 -0.8037
 1493SOL    HW2 6018   1.194   4.649   2.668  0.5756 -1.4125 -1.0285
 1493SOL    HW3 6019   1.110   4.526   2.639 -1.4221 -0.1377 -0.7123
 1493SOL    MW4 6020   1.125   4.611   2.630 -0.1111 -0.3710 -0.8214
 1494SOL     OW 6021   0.899   0.078   2.716  0.5257 -0.0151 -0.2667
 1494SOL    HW2 6022   0.920   0.092   2.808  2.8603 -0.8375 -0.6595
 1494SOL    HW3 6023   0.967   0.019   2.684 -0.8005 -0.4872 -2.2933
 1494SOL    MW4 6024   0.910   0.072   2.724  0.6587 -0.1859 -0.5858
 1495SOL     OW 6025   0.922   0.344   2.640  0.0191  0.3352 -0.3986
 1495SOL    HW2 6026   0.918   0.249   2.650  0.8551  0.3124 -0.2723
 1495SOL    HW3 6027   0.927   0.359   2.546  0.1442  0.2403 -0.4073
 1495SOL    MW4 6028   0.922   0.333   2.629  0.1459  0.3197 -0.3829
 1496SOL     OW 6029   1.140   0.466   2.761  0.3523 -0.1507 -0.0878
 1496SOL    HW2 6030   1.143   0.548   2.712  1.3964 -0.5466 -0.6800
 1496SOL    HW3 6031   1.060   0.423   2.731 -0.2043  0.6449  0.2282
 1496SOL    MW4 6032   1.130   0.471   2.751  0.4165 -0.0980 -0.1240
 1497SOL     OW 6033   1.085   0.735   2.641 -0.2053  0.1349 -0.1704
 1497SOL    HW2 6034   1.164   0.780   2.671 -0.7817  0.5236  0.8122
 1497SOL    HW3 6035   1.070   0.769   2.553 -0.3827  1.5400  0.3875
 1497SOL    MW4 6036   1.094   0.746   2.633 -0.3047  0.3716  0.0329
 1498SOL     OW 6037   0.857   0.885   2.726  0.0899  0.3235  0.4035
 1498SOL    HW2 6038   0.842   0.881   2.820  1.0476  2.5375  0.6992
 1498SOL    HW3 6039   0.939   0.838   2.712 -0.3326 -0.4692  0.5947
 1498SOL    MW4 6040   0.866   0.879   2.736  0.1605  0.5111  0.4675
 1499SOL     OW 6041   0.900   1.146   2.646  0.3167  0.5036 -0.1055
 1499SOL    HW2 6042   0.883   1.057   2.676  0.4513  0.8334  0.9750
 1499SOL    HW3 6043   0.900   1.140   2.551  2.3584 -1.0189 -0.0257
 1499SOL    MW4 6044   0.898   1.134   2.637  0.6039  0.3462  0.0477
 1500SOL     OW 6045   1.162   1.242   2.705  0.0979 -0.3079  0.2633
 1500SOL    HW2 6046   1.147   1.336   2.692  0.0941 -0.2194  0.8863
 1500SOL    HW3 6047   1.076   1.202   2.692  0.1914 -0.2837 -0.4809
 1500SOL    MW4 6048   1.148   1.249   2.701  0.1098 -0.2930  0.2472
 1501SOL     OW 6049   1.109   1.492   2.622  0.2840 -0.2015  0.2402
 1501SOL    HW2 6050   1.025   1.530   2.648  0.7542  0.8200  0.2646
 1501SOL    HW3 6051   1.112   1.502   2.527  0.9033  0.8482  0.3647
 1501SOL    MW4 6052   1.098   1.498   2.613  0.4278  0.0718  0.2599
 1502SOL     OW 6053   0.947   1.915   2.632 -0.0562  0.1167 -0.3270
 1502SOL    HW2 6054   1.014   1.953   2.689  0.1597 -0.2621 -0.3278
 1502SOL    HW3 6055   0.930   1.829   2.670 -1.2735  0.6149  0.2661
 1502SOL    MW4 6056   0.954   1.909   2.645 -0.1884  0.1326 -0.2489
 1503SOL     OW 6057   0.902   1.644   2.739  0.1204  0.0655 -0.6197
 1503SOL    HW2 6058   0.895   1.650   2.834  1.7583  0.8585 -0.5243
 1503SOL    HW3 6059   0.818   1.609   2.710  0.2075 -1.7734  1.2699
 1503SOL    MW4 6060   0.890   1.640   2.747  0.3480 -0.0724 -0.3581
 1504SOL     OW 6061   1.150   2.044   2.771 -0.3993  0.2274  0.1943
 1504SOL    HW2 6062   1.229   1.999   2.741  0.4777  1.5179  0.5036
 1504SOL    HW3 6063   1.154   2.130   2.727 -0.5067  1.1045  1.8734
 1504SOL    MW4 6064   1.161   2.050   2.761 -0.2977  0.5136  0.4566
 1505SOL     OW 6065   1.148   2.290   2.637  0.0059  0.1003  0.4200
 1505SOL    HW2 6066   1.220   2.348   2.662 -0.1318 -0.0693  1.2207
 1505SOL    HW3 6067   1.141   2.300   2.542  0.8092  0.4351  0.3939
 1505SOL    MW4 6068   1.156   2.299   2.628  0.0938  0.1221  0.5221
 1506SOL     OW 6069   0.906   2.413   2.735  0.4775  0.1399 -0.1191
 1506SOL    HW2 6070   0.888   2.501   2.703 -0.1667  0.0352 -0.0527
 1506SOL    HW3 6071   0.994   2.393   2.704  1.5357  1.6816  1.7341
 1506SOL    MW4 6072   0.915   2.422   2.727  0.5322  0.3295  0.1342
 1507SOL     OW 6073   0.886   2.676   2.597  0.6237  0.7183 -0.2790
 1507SOL    HW2 6074   0.957   2.715   2.649  0.8334  1.4889 -1.1318
 1507SOL    HW3 6075   0.807   2.723   2.625  0.4166 -0.2604  0.7964
 1507SOL    MW4 6076   0.885   2.687   2.608  0.6241  0.6907 -0.2494
 1508SOL     OW 6077   1.106   2.835   2.723  0.2835 -0.0892 -1.0208
 1508SOL    HW2 6078   1.104   2.840   2.818  1.0861  1.4636 -1.0735
 1508SOL    HW3 6079   1.183   2.781   2.703 -0.2090 -0.8825 -0.7795
 1508SOL    MW4 6080   1.116   2.828   2.733  0.3245  0.0110 -0.9956
 1509SOL     OW 6081   1.148   3.096   2.609  0.0000  0.0000  0.1325
 1509SOL    HW2 6082   1.122   3.007   2.632  0.0000  0.0000  0.1298
 1509SOL    HW3 6083   1.136   3.101   2.515  0.0000  0.0000  0.1325
 1509SOL    MW4 6084   1.143   3.085   2.600  0.0000  0.0000  0.1321
 1510SOL     OW 6085   0.919   3.208   2.734  0.0000  0.0000 -0.1824
 1510SOL    HW2 6086   0.903   3.287   2.682  0.0000  0.0000 -0.1646
 1510SOL    HW3 6087   1.006   3.179   2.705  0.0000  0.0000 -0.2066
 1510SOL    MW4 6088   0.928   3.215   2.724  0.0000  0.0000 -0.1833
 1511SOL     OW 6089   0.887   3.462   2.628  0.0000  0.0000 -0.0733
 1511SOL    HW2 6090   0.961   3.508   2.669  0.0000  0.0000 -0.0520
 1511SOL    HW3 6091   0.810   3.512   2.657  0.0000  0.0000 -0.0903
 1511SOL    MW4 6092   0.887   3.475   2.637  0.0000  0.0000 -0.0730
 1512SOL     OW 6093   1.102   3.599   2.738  0.0000  0.0000  0.2957
 1512SOL    HW2 6094   1.101   3.626   2.830  0.0000  0.0000  0.2954
 1512SOL    HW3 6095   1.100   3.681   2.689  0.0000  0.0000  0.2955
 1512SOL    MW4 6096   1.102   3.613   2.744  0.0000  0.0000  0.2954
 1513SOL     OW 6097   1.098   3.851   2.608  0.0000  0.0000 -0.1472
 1513SOL    HW2 6098   1.178   3.889   2.645  0.0000  0.0000 -0.1377
 1513SOL    HW3 6099   1.110   3.859   2.513  0.0000  0.0000 -0.1457
 1513SOL    MW4 6100   1.110   3.857   2.600  0.0000  0.0000 -0.1459
 1514SOL     OW 6101   0.893   4.008   2.746  0.0000  0.0000 -0.3051
 1514SOL    HW2 6102   0.958   3.963   2.692  0.0000  0.0000 -0.2831
 1514SOL    HW3 6103   0.809   3.969   2.720  0.0000  0.0000 -0.3429
 1514SOL    MW4 6104   0.890   3.997   2.736  0.0000  0.0000 -0.3073
 1515SOL     OW 6105   0.888   4.266   2.632  0.0000  0.0000  0.3165
 1515SOL    HW2 6106   0.892   4.173   2.657  0.0000  0.0000  0.3192
 1515SOL    HW3 6107   0.884   4.265   2.537  0.0000  0.0000  0.3165
 1515SOL    MW4 6108   0.888   4.254   2.623  0.0000  0.0000  0.3171
 1516SOL     OW 6109   1.144   4.351   2.697  0.0000  0.0000 -0.1752
 1516SOL    HW2 6110   1.137   4.378   2.789  0.0000  0.0000 -0.1761
 1516SOL    HW3 6111   1.055   4.327   2.672  0.0000  0.0000 -0.1686
 1516SOL    MW4 6112   1.131   4.351   2.706  0.0000  0.0000 -0.1745
 1517SOL     OW 6113   1.593   4.643   2.624  0.0000  0.0000  0.1843
 1517SOL    HW2 6114   1.588   4.549   2.641  0.0000  0.0000  0.1730
 1517SOL    HW3 6115   1.581   4.652   2.529  0.0000  0.0000  0.1852
 1517SOL    MW4 6116   1.591   4.632   2.614  0.0000  0.0000  0.1829
 1518SOL     OW 6117   1.344   0.069   2.695 -0.1809 -0.2757 -0.6756
 1518SOL    HW2 6118   1.350   0.161   2.670 -0.8777 -0.1242 -0.3086
 1518SOL    HW3 6119   1.426   0.030   2.667  0.6705  0.7606  0.3459
 1518SOL    MW4 6120   1.355   0.076   2.688 -0.1607 -0.1190 -0.4923
 1519SOL     OW 6121   1.334   0.346   2.604 -0.1938 -0.0138 -0.2322
 1519SOL    HW2 6122   1.422   0.367   2.635 -0.5122  2.3482 -0.8822
 1519SOL    HW3 6123   1.275   0.395   2.662 -1.2073 -2.9125  1.3139
 1519SOL    MW4 6124   1.338   0.355   2.616 -0.3694 -0.0846 -0.1140
 1520SOL     OW 6125   1.571   0.453   2.731 -0.3798 -0.3259 -0.4317
 1520SOL    HW2 6126   1.654   0.420   2.696 -0.0063  0.3725 -0.2219
 1520SOL    HW3 6127   1.563   0.541   2.694 -1.3132 -0.6051 -0.9063
 1520SOL    MW4 6128   1.581   0.460   2.722 -0.4536 -0.2706 -0.4663
 1521SOL     OW 6129   1.542   0.710   2.624 -0.0865 -0.0946  0.2072
 1521SOL    HW2 6130   1.468   0.750   2.668 -0.1911  0.0837 -0.1283
 1521SOL    HW3 6131   1.616   0.768   2.644 -0.1807  0.1108 -0.0459
 1521SOL    MW4 6132   1.542   0.723   2.632 -0.1129 -0.0439  0.1297
 1522SOL     OW 6133   1.326   0.856   2.704 -0.2980  0.2246  0.1580
 1522SOL    HW2 6134   1.324   0.892   2.793  0.3414  1.5388 -0.3513
 1522SOL    HW3 6135   1.313   0.932   2.647 -1.4341 -0.7173 -0.8543
 1522SOL    MW4 6136   1.324   0.871   2.708 -0.3636  0.2736 -0.0429
 1523SOL     OW 6137   1.352   1.096   2.588 -0.2516  0.0074  0.4725
 1523SOL    HW2 6138   1.430   1.123   2.637 -0.8776  1.2595  0.8357
 1523SOL    HW3 6139   1.281   1.148   2.627 -0.8653  0.6290 -1.4159
 1523SOL    MW4 6140   1.353   1.107   2.600 -0.4152  0.2544  0.2713
 1524SOL     OW 6141   1.548   1.238   2.734 -0.2510 -0.5380  0.1433
 1524SOL    HW2 6142   1.587   1.264   2.818 -0.0953 -0.6479  0.1047
 1524SOL    HW3 6143   1.620   1.196   2.687  0.2085  1.2968 -0.8460
 1524SOL    MW4 6144   1.563   1.236   2.739 -0.1699 -0.3102  0.0074
 1525SOL     OW 6145   1.541   1.521   2.669 -0.2015 -0.3180 -0.8744
 1525SOL    HW2 6146   1.540   1.426   2.667 -2.0584 -0.3714  1.1560
 1525SOL    HW3 6147   1.539   1.547   2.577  0.1727 -2.2157 -1.4338
 1525SOL    MW4 6148   1.541   1.512   2.657 -0.3971 -0.5754 -0.6804
 1526SOL     OW 6149   1.302   1.626   2.781 -0.0713  0.3151 -0.2204
 1526SOL    HW2 6150   1.384   1.579   2.770  0.3484  1.2176 -1.0134
 1526SOL    HW3 6151   1.238   1.574   2.732  0.4323  0.6599 -1.2720
 1526SOL    MW4 6152   1.304   1.613   2.773  0.0505  0.4797 -0.4637
 1527SOL     OW 6153   1.372   1.883   2.710 -0.3732 -0.2373  0.0769
 1527SOL    HW2 6154   1.353   1.793   2.736 -1.1691 -0.1334 -0.1292
 1527SOL    HW3 6155   1.360   1.884   2.614 -1.9107  0.4417  0.2515
 1527SOL    MW4 6156   1.367   1.871   2.700 -0.6812 -0.1339  0.0727
 1528SOL     OW 6157   1.564   2.060   2.771 -0.2374 -0.1324 -0.0250
 1528SOL    HW2 6158   1.642   2.018   2.734 -1.1326 -1.7323 -0.1307
 1528SOL    HW3 6159   1.492   2.001   2.748 -1.3294  0.7754  1.0324
 1528SOL    MW4 6160   1.565   2.047   2.763 -0.4996 -0.2236  0.1006
 1529SOL     OW 6161   1.557   2.318   2.656 -0.2153 -0.3594  0.2519
 1529SOL    HW2 6162   1.637   2.357   2.692 -0.3258 -0.7217  0.8983
 1529SOL    HW3 6163   1.548   2.234   2.701 -0.4131 -0.7849 -0.5594
 1529SOL    MW4 6164   1.567   2.312   2.667 -0.2559 -0.4632  0.2301
 1530SOL     OW 6165   1.335   2.468   2.735  0.1644 -0.3422 -0.3706
 1530SOL    HW2 6166   1.344   2.557   2.701  0.0465 -0.6154 -1.1274
 1530SOL    HW3 6167   1.412   2.422   2.702  0.2413 -0.5066  0.0472
 1530SOL    MW4 6168   1.346   2.473   2.726  0.1590 -0.4001 -0.4153
 1531SOL     OW 6169   1.344   2.710   2.619 -0.0428 -0.5190  0.0013
 1531SOL    HW2 6170   1.416   2.761   2.658 -0.5278  0.7330 -0.6903
 1531SOL    HW3 6171   1.353   2.726   2.525 -0.1204 -1.8469 -0.2309
 1531SOL    MW4 6172   1.355   2.719   2.612 -0.1171 -0.5291 -0.1204
 1532SOL     OW 6173   1.565   2.854   2.722 -0.1061  0.0569  0.0331
 1532SOL    HW2 6174   1.545   2.854   2.815 -1.1525 -0.8850 -0.1864
 1532SOL    HW3 6175   1.643   2.800   2.714  0.1331  0.3449  0.3851
 1532SOL    MW4 6176   1.573   2.847   2.733 -0.2127 -0.0293  0.0510
 1533SOL     OW 6177   1.610   3.098   2.624 -0.3809  0.6236 -0.6214
 1533SOL    HW2 6178   1.700   3.123   2.645 -0.9544  1.6615  0.6712
 1533SOL    HW3 6179   1.601   3.008   2.656 -0.3749  1.1860  0.9791
 1533SOL    MW4 6180   1.621   3.089   2.631 -0.4559  0.8347 -0.2396
 1534SOL     OW 6181   1.382   3.217   2.699 -0.4926 -0.0222 -0.0495
 1534SOL    HW2 6182   1.468   3.180   2.681 -0.1267  0.7453  0.1063
 1534SOL    HW3 6183   1.320   3.158   2.656  0.2651  0.9864 -2.6174
 1534SOL    MW4 6184   1.385   3.205   2.691 -0.3444  0.2122 -0.3676
 1535SOL     OW 6185   1.339   3.483   2.642 -0.0637 -0.0378  0.3930
 1535SOL    HW2 6186   1.352   3.394   2.673 -1.3809 -0.4195 -0.1027
 1535SOL    HW3 6187   1.251   3.506   2.673  0.5131  1.3210  1.0705
 1535SOL    MW4 6188   1.329   3.475   2.650 -0.1614  0.0913  0.4168
 1536SOL     OW 6189   1.583   3.631   2.707 -0.3045 -0.3361 -0.0571
 1536SOL    HW2 6190   1.653   3.568   2.692 -0.3590 -0.1444 -1.1426
 1536SOL    HW3 6191   1.502   3.582   2.692 -0.3845 -0.3838  0.5289
 1536SOL    MW4 6192   1.581   3.616   2.703 -0.3222 -0.3169 -0.1233
 1537SOL     OW 6193   1.570   3.875   2.580  0.3465  0.1912  0.5785
 1537SOL    HW2 6194   1.499   3.915   2.631 -0.5782 -0.1075 -0.4353
 1537SOL    HW3 6195   1.574   3.785   2.610 -0.1306  0.0409  0.1926
 1537SOL    MW4 6196   1.561   3.869   2.591  0.1616  0.1321  0.3936
 1538SOL     OW 6197   1.335   3.974   2.714 -0.2158  0.0702  0.7782
 1538SOL    HW2 6198   1.359   3.990   2.805  1.6222  1.6827  0.0410
 1538SOL    HW3 6199   1.329   4.061   2.675 -0.5408 -0.6180 -0.7662
 1538SOL    MW4 6200   1.337   3.987   2.721 -0.0161  0.1922  0.4771
 1539SOL     OW 6201   1.367   4.223   2.604  0.3485  0.4829  0.4831
 1539SOL    HW2 6202   1.283   4.255   2.637 -0.3660 -0.8363 -0.0111
 1539SOL    HW3 6203   1.365   4.246   2.511  0.2550 -0.1141  0.3371
 1539SOL    MW4 6204   1.356   4.230   2.596  0.2419  0.2308  0.3986
 1540SOL     OW 6205   1.584   4.380   2.700  0.4891 -0.0969 -0.0473
 1540SOL    HW2 6206   1.576   4.384   2.796  0.7930  1.9141 -0.0878
 1540SOL    HW3 6207   1.500   4.346   2.671 -0.2976  1.0579  0.8285
 1540SOL    MW4 6208   1.572   4.376   2.709  0.4253  0.3209  0.0632
 1541SOL     OW 6209   2.019   4.663   2.580  0.3024 -0.0023 -0.2553
 1541SOL    HW2 6210   2.096   4.705   2.617  0.2206 -0.6111  0.6202
 1541SOL    HW3 6211   2.037   4.657   2.486  0.9575  0.6117 -0.1704
 1541SOL    MW4 6212   2.031   4.668   2.573  0.3779 -0.0014 -0.1285
 1542SOL     OW 6213   1.815   0.097   2.744 -0.1494 -0.5436  0.0986
 1542SOL    HW2 6214   1.877   0.058   2.683 -1.0438 -0.8710 -0.6111
 1542SOL    HW3 6215   1.731   0.057   2.723 -0.9152  1.0636 -0.0170
 1542SOL    MW4 6216   1.812   0.087   2.733 -0.3684 -0.3747 -0.0105
 1543SOL     OW 6217   1.823   0.355   2.629 -0.4347 -0.0759 -0.1661
 1543SOL    HW2 6218   1.904   0.393   2.664 -1.3433  0.4286  1.4135
 1543SOL    HW3 6219   1.821   0.266   2.664 -3.1591  1.5624  4.2040
 1543SOL    MW4 6220   1.833   0.348   2.638 -0.9140  0.2068  0.6189
 1544SOL     OW 6221   2.031   0.512   2.723  0.5434  0.1383 -0.2809
 1544SOL    HW2 6222   2.112   0.481   2.681 -0.3821 -0.3012 -1.7776
 1544SOL    HW3 6223   2.047   0.500   2.817  1.8238 -0.9141 -0.6112
 1544SOL    MW4 6224   2.044   0.507   2.730  0.5901 -0.0585 -0.5219
 1545SOL     OW 6225   2.021   0.771   2.605 -0.2287  0.1229 -0.5466
 1545SOL    HW2 6226   2.017   0.682   2.640 -0.9978 -0.1250 -1.2650
 1545SOL    HW3 6227   2.039   0.759   2.512  1.0628  0.7587 -0.3890
 1545SOL    MW4 6228   2.023   0.758   2.598 -0.1597  0.1741 -0.6206
 1546SOL     OW 6229   1.754   0.872   2.712 -0.3462  0.2906 -0.4871
 1546SOL    HW2 6230   1.743   0.964   2.689  0.0311  0.7382  1.0362
 1546SOL    HW3 6231   1.841   0.849   2.679  1.0544  1.4953  2.1881
 1546SOL    MW4 6232   1.764   0.881   2.705 -0.1117  0.5085  0.0670
 1547SOL     OW 6233   1.793   1.141   2.638 -0.4843 -0.5144  0.2086
 1547SOL    HW2 6234   1.872   1.179   2.675  0.0707 -0.5397 -0.9439
 1547SOL    HW3 6235   1.802   1.153   2.544 -3.3247  2.4204  0.2034
 1547SOL    MW4 6236   1.804   1.147   2.631 -0.7858 -0.1305  0.0560
 1548SOL     OW 6237   2.019   1.339   2.725  0.2419 -0.4689 -0.1167
 1548SOL    HW2 6238   2.014   1.321   2.819 -0.1021  0.4490  0.0392
 1548SOL    HW3 6239   2.086   1.278   2.693 -1.2217 -2.3698  0.3147
 1548SOL    MW4 6240   2.027   1.329   2.733  0.0036 -0.5985 -0.0391
 1549SOL     OW 6241   2.014   1.593   2.611 -0.2866  0.4469  0.0965
 1549SOL    HW2 6242   1.935   1.634   2.646 -1.4261 -0.3186 -1.5138
 1549SOL    HW3 6243   2.022   1.511   2.659  0.6376  1.3966  1.6143
 1549SOL    MW4 6244   2.005   1.588   2.622 -0.3147  0.4711  0.0844
 1550SOL     OW 6245   1.797   1.665   2.757  0.1163 -0.4550  0.1464
 1550SOL    HW2 6246   1.781   1.679   2.851 -1.5190  0.2696 -0.2265
 1550SOL    HW3 6247   1.724   1.610   2.729  1.2046 -1.5976 -0.4836
 1550SOL    MW4 6248   1.785   1.660   2.766  0.0440 -0.5101  0.0141
 1551SOL     OW 6249   1.785   1.914   2.632  0.1903 -0.0442  0.3284
 1551SOL    HW2 6250   1.870   1.944   2.665  0.7955 -0.5426 -0.7341
 1551SOL    HW3 6251   1.768   1.834   2.680  0.5955 -0.2431  0.1443
 1551SOL    MW4 6252   1.794   1.908   2.643  0.3235 -0.1363  0.1640
 1552SOL     OW 6253   2.033   2.030   2.696  0.2775 -0.0761 -0.0451
 1552SOL    HW2 6254   2.035   2.013   2.791 -0.3666 -1.1566 -0.2094
 1552SOL    HW3 6255   2.019   2.124   2.689 -1.3142 -0.2136  0.9551
 1552SOL    MW4 6256   2.031   2.040   2.708 -0.0176 -0.2367  0.0651
 1553SOL     OW 6257   2.006   2.302   2.667  0.1224  0.3939 -0.2108
 1553SOL    HW2 6258   2.088   2.344   2.691  1.1907 -1.5003 -0.4287
 1553SOL    HW3 6259   2.013   2.289   2.572  0.5344 -1.7363  0.0918
 1553SOL    MW4 6260   2.018   2.306   2.657  0.3178 -0.1371 -0.1998
 1554SOL     OW 6261   1.780   2.443   2.759 -0.3073  0.0079 -0.1103
 1554SOL    HW2 6262   1.795   2.439   2.853  0.5875  0.9708 -0.2068
 1554SOL    HW3 6263   1.857   2.401   2.720 -1.3660 -1.7550 -0.3839
 1554SOL    MW4 6264   1.792   2.437   2.766 -0.3290 -0.0975 -0.1590
 1555SOL     OW 6265   1.797   2.710   2.669 -0.2819 -0.1379  0.4479
 1555SOL    HW2 6266   1.803   2.703   2.574  1.6812  0.3004  0.5247
 1555SOL    HW3 6267   1.796   2.619   2.700  0.5822 -0.2711  0.0932
 1555SOL    MW4 6268   1.797   2.697   2.660  0.0910 -0.0978  0.4108
 1556SOL     OW 6269   2.025   2.865   2.707  0.0814 -0.0763  0.3724
 1556SOL    HW2 6270   2.094   2.806   2.676  0.1029 -0.4335  1.0924
 1556SOL    HW3 6271   1.945   2.830   2.669  0.2580  0.1725 -0.2341
 1556SOL    MW4 6272   2.024   2.852   2.698  0.1075 -0.0906  0.3874
 1557SOL     OW 6273   2.074   3.104   2.599 -0.3464  0.0110  0.1316
 1557SOL    HW2 6274   2.046   3.018   2.630 -0.0909 -0.0502  0.1931
 1557SOL    HW3 6275   2.072   3.097   2.503 -0.3362 -0.0588  0.1368
 1557SOL    MW4 6276   2.070   3.092   2.590 -0.3116 -0.0062  0.1404
 1558SOL     OW 6277   1.847   3.224   2.709  0.0359  0.1271 -0.2093
 1558SOL    HW2 6278   1.837   3.311   2.670 -1.2307 -0.9711 -2.3841
 1558SOL    HW3 6279   1.929   3.191   2.673  0.2378  0.1945  0.1872
 1558SOL    MW4 6280   1.856   3.231   2.699 -0.1044 -0.0086 -0.4439
 1559SOL     OW 6281   1.812   3.493   2.637  0.7043  0.2200  0.2927
 1559SOL    HW2 6282   1.898   3.525   2.666  1.1508 -1.9391  1.4934
 1559SOL    HW3 6283   1.814   3.500   2.542  1.5964  1.6930  0.4129
 1559SOL    MW4 6284   1.824   3.498   2.629  0.8810  0.1292  0.4671
 1560SOL     OW 6285   2.078   3.594   2.710  0.0108  0.3182  0.1133
 1560SOL    HW2 6286   2.090   3.577   2.804 -0.7693  0.7048  0.2846
 1560SOL    HW3 6287   2.142   3.537   2.667  0.4935  0.2702  0.8893
 1560SOL    MW4 6288   2.088   3.584   2.717 -0.0281  0.3626  0.2382
 1561SOL     OW 6289   2.048   3.846   2.615  0.0379  0.4152 -0.3846
 1561SOL    HW2 6290   1.971   3.887   2.655 -1.1063 -0.5733 -1.5436
 1561SOL    HW3 6291   2.049   3.758   2.651 -0.0860  0.0303 -1.3297
 1561SOL    MW4 6292   2.038   3.840   2.625 -0.1299  0.2339 -0.6621
 1562SOL     OW 6293   1.808   3.987   2.705 -0.2064  0.1437 -0.3601
 1562SOL    HW2 6294   1.801   4.079   2.677 -2.4790  0.3156  0.6429
 1562SOL    HW3 6295   1.728   3.946   2.670  0.3978 -1.2735 -0.0984
 1562SOL    MW4 6296   1.796   3.994   2.696 -0.4264 -0.0203 -0.1934
 1563SOL     OW 6297   1.823   4.239   2.608 -0.2021 -0.1538  0.4212
 1563SOL    HW2 6298   1.737   4.276   2.629 -0.1026 -0.1513  0.8381
 1563SOL    HW3 6299   1.823   4.231   2.513 -0.5649  0.0910  0.3978
 1563SOL    MW4 6300   1.812   4.243   2.598 -0.2366 -0.1211  0.4730
 1564SOL     OW 6301   2.060   4.394   2.701 -0.5761 -0.2413  0.1512
 1564SOL    HW2 6302   1.982   4.340   2.692  0.5832 -1.6805 -1.5464
 1564SOL    HW3 6303   2.036   4.479   2.664 -1.4070 -0.5847 -0.0953
 1564SOL    MW4 6304   2.046   4.398   2.695 -0.5326 -0.4764 -0.1054
 1565SOL     OW 6305   2.454   4.645   2.585  0.1492 -0.4941  0.1564
 1565SOL    HW2 6306   2.529   4.697   2.616  1.5094 -2.3356  0.0724
 1565SOL    HW3 6307   2.468   4.637   2.491 -0.8289  0.1897 -0.0470
 1565SOL    MW4 6308   2.466   4.651   2.577  0.1996 -0.6468  0.1187
 1566SOL     OW 6309   2.244   0.107   2.703  0.0692 -0.0494  0.2112
 1566SOL    HW2 6310   2.239   0.095   2.798  0.1148 -1.1824  0.0840
 1566SOL    HW3 6311   2.330   0.074   2.679  0.6110  1.5557 -0.0506
 1566SOL    MW4 6312   2.255   0.101   2.712  0.1466  0.0128  0.1600
 1567SOL     OW 6313   2.268   0.379   2.636  0.2443 -0.5012 -0.0043
 1567SOL    HW2 6314   2.289   0.290   2.665 -1.6738 -0.7566  0.6842
 1567SOL    HW3 6315   2.269   0.375   2.541 -0.0204 -1.3095  0.0281
 1567SOL    MW4 6316   2.271   0.367   2.627 -0.0436 -0.6415  0.0908
 1568SOL     OW 6317   2.496   0.503   2.767  0.4319  0.2457 -0.1628
 1568SOL    HW2 6318   2.495   0.590   2.726 -0.9944  0.7548  0.9071
 1568SOL    HW3 6319   2.412   0.464   2.742  1.3682 -1.1379 -1.2393
 1568SOL    MW4 6320   2.485   0.510   2.758  0.3674  0.1304 -0.1638
 1569SOL     OW 6321   2.477   0.765   2.668  0.3898  0.1181  0.4111
 1569SOL    HW2 6322   2.407   0.815   2.710  0.7696  0.7816  0.2689
 1569SOL    HW3 6323   2.449   0.757   2.577  0.2975  0.0190  0.4484
 1569SOL    MW4 6324   2.464   0.770   2.661  0.4280  0.1925  0.3970
 1570SOL     OW 6325   2.233   0.896   2.745 -0.2563 -0.0039 -0.0833
 1570SOL    HW2 6326   2.229   0.914   2.839  1.6012 -1.4009  0.2862
 1570SOL    HW3 6327   2.159   0.838   2.729 -0.1309 -0.3770  0.6607
 1570SOL    MW4 6328   2.223   0.891   2.756  0.0055 -0.2375  0.0637
 1571SOL     OW 6329   2.214   1.174   2.630  0.0505  0.2098  0.0218
 1571SOL    HW2 6330   2.199   1.085   2.663  0.1946  0.7113  1.4666
 1571SOL    HW3 6331   2.224   1.163   2.535 -1.5847 -1.1179 -0.0235
 1571SOL    MW4 6332   2.213   1.161   2.621 -0.1462  0.1007  0.2065
 1572SOL     OW 6333   2.459   1.278   2.709 -0.4456  0.5531 -0.2162
 1572SOL    HW2 6334   2.540   1.236   2.680 -0.0408 -0.2575  2.0409
 1572SOL    HW3 6335   2.390   1.231   2.661  0.2505 -0.3704 -0.3332
 1572SOL    MW4 6336   2.460   1.266   2.699 -0.3004  0.3244  0.0663
 1573SOL     OW 6337   2.466   1.548   2.623  0.2118 -0.1523 -0.0737
 1573SOL    HW2 6338   2.406   1.599   2.677  2.0308  1.0645  0.8817
 1573SOL    HW3 6339   2.456   1.458   2.654 -0.3577  0.1988  0.7902
 1573SOL    MW4 6340   2.457   1.543   2.634  0.3767  0.0546  0.1662
 1574SOL     OW 6341   2.256   1.700   2.724 -0.2237 -0.2719 -0.6581
 1574SOL    HW2 6342   2.259   1.789   2.689 -0.1041  0.1453  0.3878
 1574SOL    HW3 6343   2.192   1.655   2.669 -1.6518  0.9692 -0.0460
 1574SOL    MW4 6344   2.248   1.706   2.712 -0.3965 -0.0530 -0.4394
 1575SOL     OW 6345   2.270   1.944   2.604  0.3289 -0.5076  0.0746
 1575SOL    HW2 6346   2.187   1.979   2.637 -0.1933 -1.2499 -0.4250
 1575SOL    HW3 6347   2.270   1.967   2.511  1.2373  0.5176  0.3112
 1575SOL    MW4 6348   2.259   1.952   2.596  0.3800 -0.4703  0.0401
 1576SOL     OW 6349   2.469   2.074   2.746 -0.5092  0.2564  0.2652
 1576SOL    HW2 6350   2.467   2.168   2.726  0.8649  0.1909 -0.2482
 1576SOL    HW3 6351   2.397   2.038   2.695 -0.7719  0.9674  0.1187
 1576SOL    MW4 6352   2.460   2.082   2.737 -0.3624  0.3417  0.1781
 1577SOL     OW 6353   2.477   2.354   2.649 -0.5094 -0.1873  0.3437
 1577SOL    HW2 6354   2.564   2.384   2.675 -1.0013  1.5865  0.0407
 1577SOL    HW3 6355   2.477   2.361   2.553 -1.3774  1.0366  0.4133
 1577SOL    MW4 6356   2.488   2.359   2.639 -0.6890  0.2081  0.3130
 1578SOL     OW 6357   2.229   2.450   2.742 -0.0678 -0.1533  0.3875
 1578SOL    HW2 6358   2.226   2.443   2.838  0.7650  1.5697  0.5596
 1578SOL    HW3 6359   2.313   2.411   2.718  0.1033  0.1810  0.4396
 1578SOL    MW4 6360   2.239   2.444   2.752  0.0646  0.1185  0.4170
 1579SOL     OW 6361   2.237   2.698   2.626  0.2354 -0.3080  0.0797
 1579SOL    HW2 6362   2.312   2.743   2.664  0.4676 -1.6452  1.2463
 1579SOL    HW3 6363   2.229   2.617   2.677 -1.7518 -0.3666 -0.2778
 1579SOL    MW4 6364   2.246   2.693   2.638  0.0038 -0.4921  0.1867
 1580SOL     OW 6365   2.449   2.837   2.713  0.5429 -0.3086 -0.2514
 1580SOL    HW2 6366   2.526   2.782   2.698 -0.2457 -1.4945  0.0136
 1580SOL    HW3 6367   2.467   2.917   2.664  1.7589 -0.7445 -0.5309
 1580SOL    MW4 6368   2.462   2.841   2.705  0.5989 -0.5226 -0.2537
 1581SOL     OW 6369   2.488   3.086   2.614 -0.2270  0.1426  0.0420
 1581SOL    HW2 6370   2.409   3.131   2.644 -0.2354 -0.1010  0.3803
 1581SOL    HW3 6371   2.479   3.084   2.519 -0.5042  0.3464  0.0624
 1581SOL    MW4 6372   2.476   3.092   2.605 -0.2649  0.1376  0.0892
 1582SOL     OW 6373   2.281   3.235   2.746  0.3912 -0.0379  0.4540
 1582SOL    HW2 6374   2.277   3.217   2.840  1.4174  0.4177  0.5898
 1582SOL    HW3 6375   2.210   3.183   2.708  0.5874 -0.9753  1.3645
 1582SOL    MW4 6376   2.271   3.226   2.753  0.5522 -0.1018  0.5920
 1583SOL     OW 6377   2.289   3.458   2.579 -0.4152  0.1249 -0.7596
 1583SOL    HW2 6378   2.358   3.515   2.615 -0.1296 -0.5368 -0.2570
 1583SOL    HW3 6379   2.294   3.378   2.631 -0.8679 -0.3380 -1.4197
 1583SOL    MW4 6380   2.299   3.455   2.591 -0.4375 -0.0234 -0.7803
 1584SOL     OW 6381   2.485   3.616   2.694 -0.1388 -0.0836 -0.0771
 1584SOL    HW2 6382   2.471   3.617   2.789  0.3241 -1.2521  0.0160
 1584SOL    HW3 6383   2.513   3.705   2.673  2.1810 -0.4577  1.2755
 1584SOL    MW4 6384   2.487   3.628   2.704  0.2286 -0.2871  0.1135
 1585SOL     OW 6385   2.481   3.864   2.602  0.4124  0.1725 -0.5746
 1585SOL    HW2 6386   2.553   3.913   2.642 -0.5675  0.7096  0.5419
 1585SOL    HW3 6387   2.403   3.890   2.652 -0.3205 -1.5569 -0.7994
 1585SOL    MW4 6388   2.480   3.874   2.614  0.1864  0.0153 -0.4568
 1586SOL     OW 6389   2.257   4.003   2.716 -0.3569 -0.0142  0.0330
 1586SOL    HW2 6390   2.269   4.006   2.811  0.9095  0.3924 -0.1378
 1586SOL    HW3 6391   2.189   3.936   2.703  0.6665 -1.2864  1.1075
 1586SOL    MW4 6392   2.250   3.995   2.727 -0.0548 -0.1287  0.1523
 1587SOL     OW 6393   2.262   4.260   2.598 -0.1605  0.0745  0.1715
 1587SOL    HW2 6394   2.260   4.173   2.637  1.1121  0.6297  1.5828
 1587SOL    HW3 6395   2.191   4.307   2.642 -0.5778 -0.1390 -0.2810
 1587SOL    MW4 6396   2.252   4.255   2.609 -0.0477  0.1202  0.2980
 1588SOL     OW 6397   2.463   4.403   2.738  0.1699  0.2242  0.0933
 1588SOL    HW2 6398   2.388   4.362   2.694  0.0005  0.8637 -0.2150
 1588SOL    HW3 6399   2.468   4.491   2.701  0.5148  0.4985  0.7773
 1588SOL    MW4 6400   2.454   4.409   2.728  0.1929  0.3448  0.1426
 1589SOL     OW 6401   2.946   4.645   2.618 -0.3727 -0.3079  0.7341
 1589SOL    HW2 6402   3.029   4.675   2.656 -0.9297  1.4302  0.6391
 1589SOL    HW3 6403   2.955   4.663   2.524 -0.8360 -0.1540  0.7171
 1589SOL    MW4 6404   2.958   4.652   2.611 -0.5074 -0.0583  0.7193
 1590SOL     OW 6405   2.694   0.086   2.724 -0.4045 -0.0444 -0.3024
 1590SOL    HW2 6406   2.695   0.088   2.820  0.2794 -0.3068 -0.2981
 1590SOL    HW3 6407   2.774   0.038   2.700 -0.4429  0.2289 -1.0072
 1590SOL    MW4 6408   2.705   0.080   2.733 -0.3192 -0.0429 -0.3948
 1591SOL     OW 6409   2.706   0.359   2.648  0.1305  0.0904  0.0244
 1591SOL    HW2 6410   2.695   0.272   2.685 -0.4956 -0.0030 -0.3662
 1591SOL    HW3 6411   2.636   0.411   2.688  1.6809  0.9028  1.7149
 1591SOL    MW4 6412   2.695   0.355   2.658  0.2522  0.1852  0.1960
 1592SOL     OW 6413   2.945   0.482   2.724 -0.1302  0.3937 -0.1743
 1592SOL    HW2 6414   2.914   0.562   2.680 -1.5689  0.1563  0.3620
 1592SOL    HW3 6415   2.871   0.421   2.716  1.0527 -0.9714 -0.7886
 1592SOL    MW4 6416   2.931   0.485   2.717 -0.1640  0.1823 -0.1845
 1593SOL     OW 6417   2.916   0.716   2.588  0.1483 -0.1256  0.3711
 1593SOL    HW2 6418   2.984   0.766   2.633 -0.2553  0.1700  0.6628
 1593SOL    HW3 6419   2.834   0.761   2.611 -0.1540 -0.5345  0.1074
 1593SOL    MW4 6420   2.914   0.728   2.597  0.0548 -0.1405  0.3746
 1594SOL     OW 6421   2.726   0.890   2.719  0.2209 -0.4388 -0.0665
 1594SOL    HW2 6422   2.721   0.899   2.814  1.0658  1.4208 -0.1622
 1594SOL    HW3 6423   2.648   0.841   2.694 -0.3939 -0.2693  1.5083
 1594SOL    MW4 6424   2.715   0.885   2.728  0.2513 -0.1711  0.1285
 1595SOL     OW 6425   2.691   1.149   2.633  0.1289  0.1798 -0.3264
 1595SOL    HW2 6426   2.766   1.203   2.660  1.2706 -0.5454 -1.9488
 1595SOL    HW3 6427   2.707   1.064   2.673 -1.0106  0.6389  1.1664
 1595SOL    MW4 6428   2.703   1.145   2.642  0.1292  0.1447 -0.3436
 1596SOL     OW 6429   2.911   1.271   2.731 -0.0049  0.1864 -0.1742
 1596SOL    HW2 6430   2.925   1.272   2.825 -2.9142 -2.2244  0.3928
 1596SOL    HW3 6431   2.979   1.213   2.697 -1.3305 -2.1705  1.0193
 1596SOL    MW4 6432   2.922   1.264   2.739 -0.5634 -0.4426  0.0582
 1597SOL     OW 6433   2.924   1.545   2.654 -0.2274  0.2233 -0.2451
 1597SOL    HW2 6434   2.839   1.576   2.686 -0.2250 -0.1357  0.1301
 1597SOL    HW3 6435   2.929   1.455   2.687  0.5138  0.4082  0.1492
 1597SOL    MW4 6436   2.913   1.537   2.663 -0.1292  0.2005 -0.1440
 1598SOL     OW 6437   2.692   1.651   2.737  0.2764 -0.8321 -0.0734
 1598SOL    HW2 6438   2.661   1.653   2.828  1.7015 -0.9133  0.4151
 1598SOL    HW3 6439   2.615   1.623   2.687 -1.3108  1.7392  0.7673
 1598SOL    MW4 6440   2.677   1.648   2.742  0.2551 -0.5037  0.1020
 1599SOL     OW 6441   2.667   1.927   2.624 -0.1816 -0.1883 -0.2051
 1599SOL    HW2 6442   2.675   1.842   2.668  0.8229  0.4534  0.8707
 1599SOL    HW3 6443   2.594   1.970   2.667 -0.5299 -0.3974 -0.5813
 1599SOL    MW4 6444   2.658   1.922   2.635 -0.0951 -0.1312 -0.1128
 1600SOL     OW 6445   2.893   2.048   2.722 -0.0084 -0.0534  0.1245
 1600SOL    HW2 6446   2.894   2.135   2.681 -1.3239  1.0105  2.2567
 1600SOL    HW3 6447   2.820   2.002   2.680  0.7425 -0.1861 -1.0661
 1600SOL    MW4 6448   2.883   2.053   2.711 -0.0827  0.0691  0.2487
 1601SOL     OW 6449   2.909   2.301   2.639 -0.2098  0.1975  0.4198
 1601SOL    HW2 6450   2.986   2.344   2.676 -0.3324  0.5908  0.2229
 1601SOL    HW3 6451   2.835   2.353   2.672 -0.4121 -0.3972  0.9031
 1601SOL    MW4 6452   2.909   2.314   2.648 -0.2527  0.1707  0.4575
 1602SOL     OW 6453   2.714   2.445   2.754  0.6931 -0.5903  0.1519
 1602SOL    HW2 6454   2.694   2.464   2.846  0.8497 -0.6895  0.2069
 1602SOL    HW3 6455   2.732   2.531   2.715  0.3089 -0.5146  0.1377
 1602SOL    MW4 6456   2.714   2.459   2.761  0.6628 -0.5934  0.1574
 1603SOL     OW 6457   2.706   2.700   2.644  0.5275 -0.0290  0.0436
 1603SOL    HW2 6458   2.786   2.749   2.662 -0.8978  2.9017 -1.1523
 1603SOL    HW3 6459   2.694   2.710   2.549 -0.2607 -2.0402 -0.0820
 1603SOL    MW4 6460   2.715   2.708   2.634  0.2353  0.0923 -0.1307
 1604SOL     OW 6461   2.946   2.843   2.744 -0.3029  0.3133  0.1226
 1604SOL    HW2 6462   2.953   2.838   2.839 -2.7060  0.6026  0.3368
 1604SOL    HW3 6463   2.946   2.936   2.724 -0.5773  0.2631 -0.1106
 1604SOL    MW4 6464   2.947   2.854   2.754 -0.6561  0.3450  0.1199
 1605SOL     OW 6465   2.952   3.119   2.641 -0.0476 -0.0883  0.5797
 1605SOL    HW2 6466   2.873   3.163   2.675 -0.9368 -1.1471 -0.0660
 1605SOL    HW3 6467   2.942   3.121   2.546  0.3029 -0.9626  0.5234
 1605SOL    MW4 6468   2.940   3.125   2.633 -0.1187 -0.3431  0.4871
 1606SOL     OW 6469   2.713   3.209   2.732  0.2368  0.3598 -0.0339
 1606SOL    HW2 6470   2.713   3.296   2.691 -0.6772  0.9279  1.1338
 1606SOL    HW3 6471   2.638   3.165   2.694  0.8864 -0.0435 -0.8637
 1606SOL    MW4 6472   2.703   3.215   2.722  0.2019  0.3817  0.0105
 1607SOL     OW 6473   2.706   3.457   2.623  0.1992  0.5337  0.3231
 1607SOL    HW2 6474   2.623   3.494   2.653 -0.4983  0.3632 -1.3212
 1607SOL    HW3 6475   2.699   3.457   2.527  1.1992 -1.4838  0.2222
 1607SOL    MW4 6476   2.694   3.462   2.614  0.2391  0.2451  0.0927
 1608SOL     OW 6477   2.919   3.602   2.704 -0.0113 -0.6548 -0.5519
 1608SOL    HW2 6478   2.914   3.607   2.799 -1.7793  1.6164 -0.7098
 1608SOL    HW3 6479   2.842   3.550   2.678 -1.8264  2.0733 -0.8982
 1608SOL    MW4 6480   2.908   3.596   2.713 -0.4840  0.0050 -0.6182
 1609SOL     OW 6481   2.916   3.869   2.624  0.1248 -0.1823 -0.1382
 1609SOL    HW2 6482   2.987   3.911   2.672 -0.5051  0.0361  0.6080
 1609SOL    HW3 6483   2.927   3.776   2.641  0.4573 -0.1805 -0.3348
 1609SOL    MW4 6484   2.927   3.862   2.632  0.0858 -0.1533 -0.0658
 1610SOL     OW 6485   2.688   4.009   2.730 -0.0890  0.0103  0.1075
 1610SOL    HW2 6486   2.674   4.089   2.680 -2.2548  0.1910  0.9761
 1610SOL    HW3 6487   2.762   3.967   2.686  0.8700  2.3055 -0.5503
 1610SOL    MW4 6488   2.696   4.014   2.718 -0.2484  0.3371  0.1349
 1611SOL     OW 6489   2.675   4.272   2.612  0.0877 -0.4142  0.3998
 1611SOL    HW2 6490   2.748   4.325   2.644  0.2591 -0.1571 -0.4004
 1611SOL    HW3 6491   2.599   4.304   2.660  0.1457  0.7282 -0.2462
 1611SOL    MW4 6492   2.675   4.283   2.623  0.1180 -0.2298  0.2091
 1612SOL     OW 6493   2.901   4.386   2.702 -0.2112 -0.0145  0.1464
 1612SOL    HW2 6494   2.910   4.385   2.797  2.8222  0.8380 -0.0860
 1612SOL    HW3 6495   2.900   4.479   2.679  1.4081 -0.2128 -0.8089
 1612SOL    MW4 6496   2.902   4.398   2.711  0.4027  0.0720 -0.0103
 1613SOL     OW 6497   3.393   4.645   2.648  0.0775 -0.4721  0.1701
 1613SOL    HW2 6498   3.390   4.559   2.691 -0.0874 -0.9718 -0.8177
 1613SOL    HW3 6499   3.321   4.694   2.688 -1.0405 -1.4495 -0.5883
 1613SOL    MW4 6500   3.383   4.640   2.659 -0.0918 -0.6666 -0.0601
 1614SOL     OW 6501   3.157   0.119   2.753 -0.7794 -0.2215 -0.4480
 1614SOL    HW2 6502   3.134   0.135   2.844  0.9882 -1.6798  0.2946
 1614SOL    HW3 6503   3.156   0.206   2.712 -1.6002  0.4378  0.9472
 1614SOL    MW4 6504   3.154   0.133   2.759 -0.6545 -0.3269 -0.1659
 1615SOL     OW 6505   3.186   0.369   2.631  0.0599 -0.0517  0.1046
 1615SOL    HW2 6506   3.112   0.420   2.664  0.4865  0.7018 -0.0928
 1615SOL    HW3 6507   3.181   0.378   2.536  0.5261  0.1760  0.0998
 1615SOL    MW4 6508   3.176   0.377   2.623  0.1779  0.0778  0.0777
 1616SOL     OW 6509   3.401   0.497   2.743  0.0786 -0.2771  0.5861
 1616SOL    HW2 6510   3.395   0.589   2.716 -1.8787 -0.2926  0.9006
 1616SOL    HW3 6511   3.323   0.456   2.706  0.6145 -1.6785  0.9826
 1616SOL    MW4 6512   3.389   0.504   2.735 -0.1092 -0.4641  0.6800
 1617SOL     OW 6513   3.364   0.772   2.636  0.3184  0.2084 -0.2042
 1617SOL    HW2 6514   3.432   0.833   2.663  0.6131  0.2301 -0.9978
 1617SOL    HW3 6515   3.358   0.782   2.541  0.2687 -0.8966 -0.3235
 1617SOL    MW4 6516   3.372   0.781   2.627  0.3507  0.0656 -0.3245
 1618SOL     OW 6517   3.113   0.863   2.713  0.0289 -0.5483  0.0511
 1618SOL    HW2 6518   3.105   0.871   2.808  0.1993 -0.0175  0.0238
 1618SOL    HW3 6519   3.204   0.834   2.700  0.8123  1.8400 -0.0669
 1618SOL    MW4 6520   3.124   0.860   2.724  0.1547 -0.1631  0.0319
 1619SOL     OW 6521   3.155   1.137   2.657  0.0507 -0.0219 -0.0174
 1619SOL    HW2 6522   3.141   1.052   2.698  0.5790 -0.2183 -0.2328
 1619SOL    HW3 6523   3.170   1.117   2.564 -0.4603  0.3614 -0.1850
 1619SOL    MW4 6524   3.155   1.123   2.650  0.0529  0.0029 -0.0682
 1620SOL     OW 6525   3.379   1.293   2.728  0.1464  0.3842  0.3935
 1620SOL    HW2 6526   3.381   1.298   2.824  0.3431  1.7525  0.3278
 1620SOL    HW3 6527   3.298   1.246   2.709  0.6962 -0.9686  1.2521
 1620SOL    MW4 6528   3.369   1.288   2.738  0.2449  0.3864  0.4983
 1621SOL     OW 6529   3.378   1.569   2.619  0.1583 -0.1664  0.3293
 1621SOL    HW2 6530   3.306   1.603   2.672 -0.0599  0.7656 -0.5535
 1621SOL    HW3 6531   3.398   1.484   2.658 -0.5774  0.1215  1.3615
 1621SOL    MW4 6532   3.371   1.562   2.631  0.0324 -0.0055  0.3490
 1622SOL     OW 6533   3.151   1.663   2.745  0.1981  0.0786  0.3552
 1622SOL    HW2 6534   3.155   1.756   2.720  0.0065 -0.3559 -1.3978
 1622SOL    HW3 6535   3.088   1.625   2.683  0.7929 -1.3488  0.6114
 1622SOL    MW4 6536   3.143   1.670   2.733  0.2513 -0.1671  0.1578
 1623SOL     OW 6537   3.117   1.925   2.640  0.1990 -0.2942 -0.3589
 1623SOL    HW2 6538   3.183   1.975   2.688  0.8455  0.0479 -1.5782
 1623SOL    HW3 6539   3.034   1.968   2.662  0.2218 -1.4306  2.0850
 1623SOL    MW4 6540   3.115   1.938   2.649  0.2871 -0.3990 -0.1974
 1624SOL     OW 6541   3.349   2.065   2.711  0.0576 -0.1578  0.0355
 1624SOL    HW2 6542   3.343   2.060   2.806 -2.2460  1.0343  0.0030
 1624SOL    HW3 6543   3.363   2.158   2.693  0.9407 -0.4459 -0.7683
 1624SOL    MW4 6544   3.350   2.076   2.721 -0.1299 -0.0384 -0.0749
 1625SOL     OW 6545   3.380   2.327   2.674  0.1032 -0.1798  0.2356
 1625SOL    HW2 6546   3.454   2.379   2.706 -0.9104  1.2140  0.3575
 1625SOL    HW3 6547   3.377   2.345   2.580 -2.4190  2.8572  0.8143
 1625SOL    MW4 6548   3.390   2.337   2.666 -0.3631  0.4048  0.3283
 1626SOL     OW 6549   3.135   2.436   2.722  0.2491 -0.2111 -0.2576
 1626SOL    HW2 6550   3.133   2.528   2.695  0.6834  0.2310  1.1434
 1626SOL    HW3 6551   3.225   2.409   2.708  0.4810  0.0250  0.6929
 1626SOL    MW4 6552   3.146   2.445   2.717  0.3369 -0.1216  0.0529
 1627SOL     OW 6553   3.171   2.716   2.634  0.2227  0.7787  0.4024
 1627SOL    HW2 6554   3.245   2.769   2.662  0.9113  0.2827 -0.4433
 1627SOL    HW3 6555   3.095   2.759   2.672  0.7306  2.5704 -0.5317
 1627SOL    MW4 6556   3.171   2.729   2.643  0.3805  0.9494  0.1676
 1628SOL     OW 6557   3.385   2.845   2.719  0.0482  0.0887  0.0158
 1628SOL    HW2 6558   3.407   2.825   2.810  0.0458 -0.6621 -0.1423
 1628SOL    HW3 6559   3.467   2.829   2.672  0.0082  0.3287 -0.1297
 1628SOL    MW4 6560   3.399   2.840   2.725  0.0427  0.0212 -0.0243
 1629SOL     OW 6561   3.379   3.106   2.643  0.1906  0.1529  0.1052
 1629SOL    HW2 6562   3.378   3.017   2.677  1.4762 -0.1842 -0.7345
 1629SOL    HW3 6563   3.378   3.096   2.548 -0.4221  1.0534  0.0064
 1629SOL    MW4 6564   3.379   3.093   2.635  0.2797  0.2270 -0.0188
 1630SOL     OW 6565   3.167   3.254   2.748  0.5191 -0.3064  0.5197
 1630SOL    HW2 6566   3.233   3.200   2.703  0.1679 -0.1872 -0.1356
 1630SOL    HW3 6567   3.084   3.227   2.710  0.1738 -0.5550  1.4554
 1630SOL    MW4 6568   3.165   3.243   2.737  0.4272 -0.3235  0.5567
 1631SOL     OW 6569   3.154   3.493   2.590 -0.2645  0.1431 -0.2663
 1631SOL    HW2 6570   3.171   3.424   2.654 -1.6064 -0.9637 -1.0615
 1631SOL    HW3 6571   3.070   3.531   2.616  0.3424  1.3261  0.0161
 1631SOL    MW4 6572   3.145   3.489   2.602 -0.3617  0.1533 -0.3343
 1632SOL     OW 6573   3.401   3.607   2.681  0.1467 -0.4415  0.0503
 1632SOL    HW2 6574   3.395   3.616   2.776 -0.8289 -0.3051 -0.0190
 1632SOL    HW3 6575   3.321   3.561   2.656  0.1803 -0.0799 -0.7518
 1632SOL    MW4 6576   3.390   3.602   2.690  0.0222 -0.3760 -0.0648
 1633SOL     OW 6577   3.379   3.894   2.636  0.1507  0.2102  0.1246
 1633SOL    HW2 6578   3.376   3.803   2.664 -0.1854  0.3533  0.5704
 1633SOL    HW3 6579   3.376   3.890   2.541  1.0890 -0.2760  0.1118
 1633SOL    MW4 6580   3.378   3.882   2.627  0.2301  0.1650  0.1819
 1634SOL     OW 6581   3.135   4.005   2.760 -0.7406 -0.2127 -0.1531
 1634SOL    HW2 6582   3.128   4.096   2.730 -1.3668 -0.2744 -0.1964
 1634SOL    HW3 6583   3.220   3.976   2.726 -0.8321  0.1466 -0.7012
 1634SOL    MW4 6584   3.146   4.014   2.751 -0.8354 -0.1740 -0.2313
 1635SOL     OW 6585   3.134   4.260   2.640 -0.0482  0.0158  0.2683
 1635SOL    HW2 6586   3.051   4.303   2.657  0.3009  1.1031 -0.7531
 1635SOL    HW3 6587   3.140   4.254   2.545  1.1093  0.0836  0.3283
 1635SOL    MW4 6588   3.124   4.265   2.630  0.1507  0.1674  0.1414
 1636SOL     OW 6589   3.372   4.370   2.733  0.1926  0.5143 -0.4539
 1636SOL    HW2 6590   3.357   4.366   2.828  2.3398 -1.0175 -0.1499
 1636SOL    HW3 6591   3.292   4.335   2.694 -0.1046 -0.2432  0.8252
 1636SOL    MW4 6592   3.359   4.365   2.740  0.4365  0.2127 -0.2449
 1637SOL     OW 6593   3.869   4.663   2.640  0.0958 -0.1547  0.4759
 1637SOL    HW2 6594   3.856   4.575   2.677  1.1693  0.2356  1.8212
 1637SOL    HW3 6595   3.791   4.712   2.667 -0.6942 -0.7981 -0.6170
 1637SOL    MW4 6596   3.857   4.658   2.649  0.1333 -0.1874  0.5090
 1638SOL     OW 6597   3.652   0.113   2.726  0.0085  0.2765 -0.0202
 1638SOL    HW2 6598   3.631   0.205   2.707 -0.3787  0.4429  1.1917
 1638SOL    HW3 6599   3.573   0.065   2.701 -0.0641  0.3624  0.0428
 1638SOL    MW4 6600   3.638   0.119   2.720 -0.0525  0.3098  0.1478
 1639SOL     OW 6601   3.615   0.370   2.634  0.0876 -0.3906  0.3435
 1639SOL    HW2 6602   3.698   0.410   2.660  0.3505  0.4590 -1.6608
 1639SOL    HW3 6603   3.548   0.423   2.676  0.5025  0.5247 -0.1373
 1639SOL    MW4 6604   3.617   0.382   2.643  0.1771 -0.1578  0.0155
 1640SOL     OW 6605   3.822   0.529   2.739 -0.4334 -0.3821  0.1266
 1640SOL    HW2 6606   3.828   0.538   2.834  1.3418 -0.8160  0.0711
 1640SOL    HW3 6607   3.900   0.480   2.714 -1.2842 -0.9660 -1.4749
 1640SOL    MW4 6608   3.833   0.524   2.748 -0.3114 -0.5164 -0.0920
 1641SOL     OW 6609   3.800   0.776   2.617 -0.1753 -0.0126  0.2689
 1641SOL    HW2 6610   3.717   0.811   2.649 -0.2785  0.0381 -0.0486
 1641SOL    HW3 6611   3.807   0.690   2.659 -1.5425 -1.0355 -1.4984
 1641SOL    MW4 6612   3.790   0.769   2.627 -0.3691 -0.1409 -0.0062
 1642SOL     OW 6613   3.576   0.900   2.728  0.1077 -0.1862  0.3420
 1642SOL    HW2 6614   3.586   0.904   2.823 -0.2228  0.2539  0.3583
 1642SOL    HW3 6615   3.589   0.990   2.698  0.3790 -0.3514 -0.0480
 1642SOL    MW4 6616   3.579   0.912   2.736  0.1001 -0.1500  0.2928
 1643SOL     OW 6617   3.606   1.161   2.634  0.7008  0.1405 -0.2238
 1643SOL    HW2 6618   3.680   1.209   2.671  0.4696  1.1306 -1.0141
 1643SOL    HW3 6619   3.529   1.200   2.675  0.5343  0.1757 -0.5650
 1643SOL    MW4 6620   3.605   1.173   2.644  0.6483  0.2757 -0.3731
 1644SOL     OW 6621   3.813   1.288   2.755 -0.2441  0.0151  0.0633
 1644SOL    HW2 6622   3.890   1.247   2.715 -0.3487 -0.3940  0.2855
 1644SOL    HW3 6623   3.806   1.373   2.711  0.9584  0.5005  0.7755
 1644SOL    MW4 6624   3.822   1.294   2.744 -0.0989  0.0253  0.1864
 1645SOL     OW 6625   3.834   1.536   2.640  0.7258  0.3400 -0.0507
 1645SOL    HW2 6626   3.906   1.577   2.687  0.1439 -0.6281  1.7194
 1645SOL    HW3 6627   3.757   1.588   2.663  0.8650  1.4429 -2.0256
 1645SOL    MW4 6628   3.833   1.548   2.649  0.6676  0.3579 -0.0780
 1646SOL     OW 6629   3.589   1.679   2.743 -0.4686 -0.0073  0.0612
 1646SOL    HW2 6630   3.609   1.761   2.698  0.7202 -0.6036 -0.5038
 1646SOL    HW3 6631   3.515   1.642   2.695 -0.2577  0.1580 -0.3862
 1646SOL    MW4 6632   3.582   1.685   2.731 -0.2840 -0.0641 -0.0725
 1647SOL     OW 6633   3.591   1.928   2.601 -0.0670 -0.4555  0.4102
 1647SOL    HW2 6634   3.511   1.979   2.616  0.1100  0.1297 -0.5842
 1647SOL    HW3 6635   3.578   1.889   2.515  0.7473 -0.3065  0.2184
 1647SOL    MW4 6636   3.579   1.930   2.592  0.0637 -0.3585  0.2537
 1648SOL     OW 6637   3.780   2.060   2.718 -0.1679 -0.0633  0.3356
 1648SOL    HW2 6638   3.851   2.002   2.692 -0.7880 -0.7345  0.1345
 1648SOL    HW3 6639   3.701   2.022   2.679 -0.4465  1.4537 -0.6483
 1648SOL    MW4 6640   3.779   2.048   2.709 -0.2863  0.0482  0.1795
 1649SOL     OW 6641   3.778   2.338   2.630  0.2872  0.1989 -0.2855
 1649SOL    HW2 6642   3.755   2.257   2.675  0.1403 -0.4396 -1.4871
 1649SOL    HW3 6643   3.781   2.313   2.537  0.6851  1.4645 -0.6134
 1649SOL    MW4 6644   3.775   2.324   2.624  0.3200  0.2816 -0.4873
 1650SOL     OW 6645   3.599   2.521   2.734  0.0361  0.2068  0.1528
 1650SOL    HW2 6646   3.608   2.495   2.825 -1.5493 -1.0471 -0.0238
 1650SOL    HW3 6647   3.663   2.468   2.687  1.3105  1.3217  0.5943
 1650SOL    MW4 6648   3.609   2.511   2.739 -0.0050  0.1884  0.1876
 1651SOL     OW 6649   3.621   2.766   2.617 -0.5699 -0.3197  0.0559
 1651SOL    HW2 6650   3.611   2.683   2.665 -0.9539  0.4832  1.3995
 1651SOL    HW3 6651   3.598   2.744   2.527  1.5164 -2.1861 -0.0647
 1651SOL    MW4 6652   3.616   2.752   2.612 -0.3452 -0.4599  0.2172
 1652SOL     OW 6653   3.831   2.870   2.762  0.6829  0.0982 -0.5302
 1652SOL    HW2 6654   3.911   2.841   2.717  0.9115 -0.4743  0.2283
 1652SOL    HW3 6655   3.760   2.826   2.717  0.8861 -0.2144 -0.5472
 1652SOL    MW4 6656   3.832   2.861   2.750  0.7401 -0.0186 -0.4325
 1653SOL     OW 6657   3.805   3.117   2.679  0.7051 -0.3887  0.2473
 1653SOL    HW2 6658   3.729   3.158   2.718  0.1093 -0.3611 -0.9163
 1653SOL    HW3 6659   3.803   3.027   2.711  0.3592 -0.3075  0.4563
 1653SOL    MW4 6660   3.795   3.111   2.688  0.5810 -0.3746  0.1214
 1654SOL     OW 6661   3.575   3.249   2.771  0.8967 -0.2508  0.1918
 1654SOL    HW2 6662   3.592   3.329   2.721 -0.2916  0.7676  1.4154
 1654SOL    HW3 6663   3.510   3.202   2.719  0.9106 -0.0030 -0.0526
 1654SOL    MW4 6664   3.569   3.253   2.757  0.7420 -0.0837  0.3211
 1655SOL     OW 6665   3.635   3.491   2.631  0.0210 -0.3366 -0.4801
 1655SOL    HW2 6666   3.691   3.555   2.675  0.9906 -0.9345 -0.8064
 1655SOL    HW3 6667   3.546   3.523   2.643  0.4420  0.6441  0.0434
 1655SOL    MW4 6668   3.631   3.504   2.638  0.2046 -0.2861 -0.4539
 1656SOL     OW 6669   3.842   3.671   2.745  0.0802  0.2254 -0.0639
 1656SOL    HW2 6670   3.913   3.615   2.714 -0.1616 -0.6573  0.9585
 1656SOL    HW3 6671   3.846   3.748   2.688  0.8906 -0.4881 -0.9994
 1656SOL    MW4 6672   3.852   3.674   2.733  0.1552  0.0148 -0.0527
 1657SOL     OW 6673   3.815   3.920   2.625 -0.1394 -0.6531 -0.0525
 1657SOL    HW2 6674   3.874   3.983   2.666 -0.2155  0.0794 -1.0338
 1657SOL    HW3 6675   3.731   3.933   2.669  0.0725 -0.7075  0.3687
 1657SOL    MW4 6676   3.812   3.930   2.636 -0.1216 -0.5636 -0.1264
 1658SOL     OW 6677   3.597   3.996   2.762 -0.1538  0.0796  0.5043
 1658SOL    HW2 6678   3.605   4.085   2.728 -0.0126  0.3025  1.1245
 1658SOL    HW3 6679   3.517   3.963   2.722  0.1673  0.2306 -0.2936
 1658SOL    MW4 6680   3.588   4.003   2.752 -0.0930  0.1292  0.4811
 1659SOL     OW 6681   3.629   4.254   2.659  0.3412  0.4865  0.4594
 1659SOL    HW2 6682   3.550   4.304   2.678 -2.1177 -2.4194 -1.7842
 1659SOL    HW3 6683   3.635   4.254   2.563  2.1536 -0.6973  0.5467
 1659SOL    MW4 6684   3.620   4.261   2.648  0.2556 -0.0529  0.1748
 1660SOL     OW 6685   3.848   4.406   2.755 -0.1847 -0.2007 -0.7191
 1660SOL    HW2 6686   3.929   4.363   2.728 -0.2000 -0.5434 -0.2242
 1660SOL    HW3 6687   3.779   4.344   2.733 -0.1205 -0.9379  1.0108
 1660SOL    MW4 6688   3.849   4.392   2.749 -0.1781 -0.3438 -0.4256
 1661SOL     OW 6689   4.308   4.662   2.678 -0.0065 -0.1880  0.0245
 1661SOL    HW2 6690   4.234   4.713   2.712  0.4962  0.9075 -0.4720
 1661SOL    HW3 6691   4.385   4.709   2.710  0.4740  0.4583 -1.9864
 1661SOL    MW4 6692   4.308   4.675   2.686  0.1235  0.0418 -0.3064
 1662SOL     OW 6693   4.088   0.131   2.766  0.0481  0.0194 -0.1091
 1662SOL    HW2 6694   4.087   0.133   2.861 -1.1456  3.4259 -0.1432
 1662SOL    HW3 6695   4.002   0.096   2.742 -0.7551  1.8051  0.0758
 1662SOL    MW4 6696   4.076   0.126   2.775 -0.2155  0.7044 -0.0892
 1663SOL     OW 6697   4.057   0.390   2.674  0.2953 -0.3039  0.1308
 1663SOL    HW2 6698   4.062   0.297   2.698  1.7595 -0.3122 -0.1609
 1663SOL    HW3 6699   4.067   0.390   2.579 -2.1672 -0.0084 -0.1739
 1663SOL    MW4 6700   4.059   0.377   2.665  0.1636 -0.2660  0.0522
 1664SOL     OW 6701   4.288   0.493   2.780  0.1621 -0.3283 -0.3013
 1664SOL    HW2 6702   4.364   0.453   2.736 -0.0718 -0.0572 -0.9513
 1664SOL    HW3 6703   4.212   0.454   2.738 -0.0697 -0.9354  0.6588
 1664SOL    MW4 6704   4.288   0.483   2.769  0.1011 -0.3726 -0.2604
 1665SOL     OW 6705   4.239   0.775   2.645  0.2101  0.1992 -0.3072
 1665SOL    HW2 6706   4.248   0.682   2.666  0.9319  0.4280  0.4328
 1665SOL    HW3 6707   4.246   0.780   2.550 -0.4162 -0.5684 -0.3965
 1665SOL    MW4 6708   4.241   0.764   2.635  0.2227  0.1281 -0.2215
 1666SOL     OW 6709   4.006   0.880   2.759  0.1779 -0.2877  0.1120
 1666SOL    HW2 6710   4.083   0.838   2.722 -0.3154 -0.3772 -0.8057
 1666SOL    HW3 6711   3.932   0.840   2.714 -0.3771  0.3393  0.4567
 1666SOL    MW4 6712   4.007   0.869   2.748  0.0396 -0.2168  0.0362
 1667SOL     OW 6713   4.013   1.128   2.617  0.6428 -0.3338 -0.1672
 1667SOL    HW2 6714   4.097   1.158   2.652 -0.0071 -0.0446  1.1688
 1667SOL    HW3 6715   4.000   1.042   2.655  1.2806 -1.2578 -1.9749
 1667SOL    MW4 6716   4.022   1.121   2.626  0.6409 -0.4174 -0.2294
 1668SOL     OW 6717   4.266   1.212   2.703 -0.3820  0.0489 -0.3929
 1668SOL    HW2 6718   4.259   1.302   2.671  1.6685 -0.0030 -1.0671
 1668SOL    HW3 6719   4.346   1.179   2.662 -0.0412 -1.4335  1.4499
 1668SOL    MW4 6720   4.276   1.219   2.693 -0.0668 -0.1535 -0.2384
 1669SOL     OW 6721   4.275   1.500   2.642 -0.2852  0.1389  0.5087
 1669SOL    HW2 6722   4.346   1.551   2.680  1.4989 -2.5649  0.9024
 1669SOL    HW3 6723   4.296   1.495   2.549 -0.2488 -0.1873  0.5336
 1669SOL    MW4 6724   4.287   1.506   2.635 -0.0448 -0.2611  0.5641
 1670SOL     OW 6725   4.052   1.651   2.737  0.0680 -0.2919 -0.2768
 1670SOL    HW2 6726   4.065   1.664   2.831  0.2831 -0.5200 -0.2755
 1670SOL    HW3 6727   4.129   1.601   2.708  1.0461  1.5595 -0.9565
 1670SOL    MW4 6728   4.064   1.646   2.745  0.2255 -0.0776 -0.3664
 1671SOL     OW 6729   4.001   1.898   2.627  0.1486 -0.3213  0.1804
 1671SOL    HW2 6730   4.064   1.957   2.668  0.4716 -0.8200  0.4116
 1671SOL    HW3 6731   4.029   1.810   2.655 -0.8858 -0.5199  0.6212
 1671SOL    MW4 6732   4.013   1.894   2.636  0.0544 -0.4134  0.2689
 1672SOL     OW 6733   4.223   2.032   2.766 -0.1970 -0.1739 -0.0831
 1672SOL    HW2 6734   4.234   2.124   2.740 -0.0966 -0.5201 -1.2800
 1672SOL    HW3 6735   4.303   1.989   2.736 -0.0138 -0.5643  0.9341
 1672SOL    MW4 6736   4.235   2.039   2.758 -0.1593 -0.2711 -0.1068
 1673SOL     OW 6737   4.245   2.298   2.642 -0.5083 -0.0869  0.7363
 1673SOL    HW2 6738   4.172   2.354   2.667  0.9242  2.3420 -0.3637
 1673SOL    HW3 6739   4.256   2.314   2.548  1.1482 -0.7846  0.7922
 1673SOL    MW4 6740   4.237   2.307   2.633 -0.1011  0.1414  0.5984
 1674SOL     OW 6741   4.009   2.452   2.732 -0.0217 -0.3108  0.5184
 1674SOL    HW2 6742   4.013   2.428   2.824  0.5317 -5.2250 -0.6469
 1674SOL    HW3 6743   3.929   2.411   2.700  0.5818  0.0648 -1.5480
 1674SOL    MW4 6744   3.999   2.444   2.740  0.1311 -0.9098  0.0920
 1675SOL     OW 6745   4.022   2.715   2.632  0.1018  0.0063  0.1531
 1675SOL    HW2 6746   4.110   2.739   2.662 -0.2232 -0.1581  1.2474
 1675SOL    HW3 6747   4.013   2.623   2.656  0.4749 -0.6329 -1.9868
 1675SOL    MW4 6748   4.032   2.706   2.639  0.1078 -0.0997  0.0153
 1676SOL     OW 6749   4.252   2.792   2.761 -0.0675  0.2509 -0.6205
 1676SOL    HW2 6750   4.235   2.811   2.854 -0.3548 -0.0022 -0.6214
 1676SOL    HW3 6751   4.264   2.878   2.721  1.4636  0.3008 -0.0821
 1676SOL    MW4 6752   4.252   2.806   2.768  0.0968  0.2239 -0.5496
 1677SOL     OW 6753   4.265   3.063   2.677 -0.0543 -0.4890 -0.1108
 1677SOL    HW2 6754   4.182   3.102   2.706 -1.2324 -2.0829 -1.2291
 1677SOL    HW3 6755   4.270   3.084   2.584  0.8708 -0.2966 -0.0228
 1677SOL    MW4 6756   4.254   3.071   2.669 -0.0873 -0.6740 -0.2468
 1678SOL     OW 6757   4.041   3.232   2.737 -0.0591  0.6093 -0.0222
 1678SOL    HW2 6758   4.028   3.322   2.706  1.1210  0.3770 -1.2847
 1678SOL    HW3 6759   3.957   3.189   2.722 -0.5846  1.4675  0.4442
 1678SOL    MW4 6760   4.028   3.238   2.731  0.0277  0.6917 -0.1273
 1679SOL     OW 6761   4.031   3.512   2.644  0.2155  0.3186 -0.3058
 1679SOL    HW2 6762   4.121   3.537   2.664  0.5187  0.0597 -1.2899
 1679SOL    HW3 6763   4.031   3.498   2.549 -0.5999 -0.7218 -0.1622
 1679SOL    MW4 6764   4.043   3.513   2.634  0.1478  0.1473 -0.4170
 1680SOL     OW 6765   4.280   3.628   2.710 -0.1312  0.2709 -0.3269
 1680SOL    HW2 6766   4.279   3.634   2.806 -1.4223 -0.6578 -0.2651
 1680SOL    HW3 6767   4.343   3.558   2.691 -0.3116  0.0493 -0.1197
 1680SOL    MW4 6768   4.288   3.620   2.720 -0.3247  0.1190 -0.2913
 1681SOL     OW 6769   4.262   3.883   2.615  0.2508 -0.0978 -0.2461
 1681SOL    HW2 6770   4.256   3.793   2.645 -0.0077 -0.6891 -2.0272
 1681SOL    HW3 6771   4.343   3.916   2.653 -0.2381 -0.6955  1.3722
 1681SOL    MW4 6772   4.272   3.876   2.624  0.1521 -0.2546 -0.2677
 1682SOL     OW 6773   4.060   4.035   2.716  0.1879  0.3710 -0.0073
 1682SOL    HW2 6774   4.057   4.027   2.811  0.0660 -1.5473 -0.1402
 1682SOL    HW3 6775   4.136   3.982   2.690 -0.2677  0.2018 -1.0217
 1682SOL    MW4 6776   4.070   4.027   2.725  0.1116  0.0954 -0.1588
 1683SOL     OW 6777   4.067   4.293   2.633 -0.3650 -0.4732 -0.4712
 1683SOL    HW2 6778   4.056   4.201   2.654 -1.0672 -0.2111  0.3325
 1683SOL    HW3 6779   4.060   4.297   2.537  0.8419 -1.3955 -0.6138
 1683SOL    MW4 6780   4.065   4.282   2.623 -0.2985 -0.5603 -0.3841
 1684SOL     OW 6781   4.310   4.400   2.775  0.0435 -0.3146 -0.1851
 1684SOL    HW2 6782   4.225   4.370   2.743  0.2423 -0.8623 -0.1994
 1684SOL    HW3 6783   4.312   4.493   2.752 -0.7019 -0.2087  0.1280
 1684SOL    MW4 6784   4.299   4.409   2.768 -0.0291 -0.3729 -0.1457
 1685SOL     OW 6785   0.214   4.657   3.099 -0.4027 -0.4414 -0.1761
 1685SOL    HW2 6786   0.199   4.647   3.193  1.1091 -1.9107 -0.0613
 1685SOL    HW3 6787   0.135   4.699   3.067 -0.4815  1.1143  1.9322
 1685SOL    MW4 6788   0.202   4.661   3.108 -0.2136 -0.4296  0.1171
 1686SOL     OW 6789   4.481   0.106   3.012  0.0201 -0.4054 -0.1488
 1686SOL    HW2 6790   4.424   0.048   3.063  0.5371 -0.3419  0.4972
 1686SOL    HW3 6791   4.462   0.194   3.045  0.4399 -0.3751  0.0064
 1686SOL    MW4 6792   4.471   0.110   3.023  0.1435 -0.3930 -0.0429
 1687SOL     OW 6793   0.020   0.377   3.122 -0.2218 -0.6656 -0.1053
 1687SOL    HW2 6794  -0.001   0.375   3.215 -1.0039 -0.7346 -0.2829
 1687SOL    HW3 6795  -0.056   0.417   3.080  1.3201  2.1380 -0.3916
 1687SOL    MW4 6796   0.007   0.382   3.128 -0.1216 -0.3048 -0.1667
 1688SOL     OW 6797   0.242   0.492   3.005  0.1075 -1.1049 -0.2767
 1688SOL    HW2 6798   0.307   0.428   3.036  0.5422 -0.8807 -0.7119
 1688SOL    HW3 6799   0.163   0.472   3.054  0.6190 -1.1352  0.5332
 1688SOL    MW4 6800   0.241   0.481   3.015  0.2323 -1.0793 -0.2272
 1689SOL     OW 6801   0.269   0.762   3.122 -0.5187  0.2440  0.1959
 1689SOL    HW2 6802   0.251   0.764   3.216  0.0183  0.5088  0.2952
 1689SOL    HW3 6803   0.258   0.670   3.097 -1.3128  0.2872  0.3868
 1689SOL    MW4 6804   0.265   0.750   3.131 -0.5526  0.2847  0.2344
 1690SOL     OW 6805   0.025   0.881   3.013 -0.0842 -0.3279  0.6625
 1690SOL    HW2 6806   0.101   0.832   3.043 -0.2335 -0.5964  0.6139
 1690SOL    HW3 6807   0.027   0.872   2.918 -0.1874 -0.3604  0.6621
 1690SOL    MW4 6808   0.035   0.873   3.004 -0.1175 -0.3675  0.6561
 1691SOL     OW 6809   0.032   1.156   3.076 -0.7042  0.0566 -0.0247
 1691SOL    HW2 6810  -0.053   1.185   3.045 -0.9830 -0.6737  0.0487
 1691SOL    HW3 6811   0.029   1.061   3.069 -0.0154  0.0085  0.2861
 1691SOL    MW4 6812   0.021   1.147   3.071 -0.6501 -0.0461  0.0260
 1692SOL     OW 6813   0.240   1.314   3.016  0.1665 -0.2211  0.4290
 1692SOL    HW2 6814   0.153   1.277   3.035  0.4359 -0.9310  0.3167
 1692SOL    HW3 6815   0.250   1.304   2.921  0.6786 -0.8338  0.5469
 1692SOL    MW4 6816   0.230   1.307   3.006  0.2696 -0.3955  0.4296
 1693SOL     OW 6817   0.268   1.562   3.113  0.0557  0.0563 -0.5038
 1693SOL    HW2 6818   0.183   1.603   3.098  0.0604  0.4821  0.5590
 1693SOL    HW3 6819   0.260   1.475   3.075 -0.3615  0.6115 -1.7029
 1693SOL    MW4 6820   0.256   1.556   3.106  0.0013  0.1857 -0.5219
 1694SOL     OW 6821   0.019   1.653   3.038 -0.2945  0.0170 -0.0560
 1694SOL    HW2 6822  -0.048   1.592   3.068  0.7556 -0.2830  1.6976
 1694SOL    HW3 6823   0.014   1.727   3.099  1.3781 -0.2840  0.4581
 1694SOL    MW4 6824   0.009   1.655   3.050  0.0648 -0.0623  0.2432
 1695SOL     OW 6825   0.013   1.900   3.159 -0.3060 -1.1152  0.4379
 1695SOL    HW2 6826  -0.047   1.959   3.113  0.9253 -0.5738 -0.5085
 1695SOL    HW3 6827   0.097   1.915   3.117  0.3942 -2.2225  1.4319
 1695SOL    MW4 6828   0.016   1.910   3.147 -0.0512 -1.1898  0.4442
 1696SOL     OW 6829   0.234   2.034   3.007 -0.0076 -0.2046 -0.4789
 1696SOL    HW2 6830   0.209   2.118   3.045 -2.0345 -0.8758 -0.2556
 1696SOL    HW3 6831   0.229   2.048   2.913 -0.3269 -0.0717 -0.4424
 1696SOL    MW4 6832   0.230   2.047   3.000 -0.3171 -0.2754 -0.4447
 1697SOL     OW 6833   0.194   2.293   3.131 -0.0859  0.2059  0.4126
 1697SOL    HW2 6834   0.201   2.285   3.226 -0.6090  0.0033  0.4377
 1697SOL    HW3 6835   0.269   2.346   3.106 -0.3079  0.8112  1.0139
 1697SOL    MW4 6836   0.205   2.299   3.140 -0.1842  0.2589  0.4954
 1698SOL     OW 6837   4.467   2.442   3.013 -0.0744 -0.0593 -0.1499
 1698SOL    HW2 6838   4.471   2.531   3.048 -1.9722 -0.5335  1.4290
 1698SOL    HW3 6839   4.535   2.394   3.061  1.6985  0.7871 -1.8089
 1698SOL    MW4 6840   4.476   2.447   3.024 -0.0911 -0.0103 -0.1605
 1699SOL     OW 6841   0.000   2.714   3.086  0.2450 -0.3570  0.0961
 1699SOL    HW2 6842  -0.013   2.740   3.177 -0.8395  1.6751 -0.6193
 1699SOL    HW3 6843   0.079   2.762   3.059  0.6473 -1.0673 -0.0118
 1699SOL    MW4 6844   0.009   2.724   3.095  0.1550 -0.1826 -0.0124
 1700SOL     OW 6845   0.212   2.857   3.000 -0.1494  0.2982  0.0139
 1700SOL    HW2 6846   0.291   2.810   3.024  0.0250  0.6056  0.0331
 1700SOL    HW3 6847   0.199   2.835   2.907  1.2670  2.1280 -0.6431
 1700SOL    MW4 6848   0.220   2.847   2.991  0.0605  0.5803 -0.0703
 1701SOL     OW 6849   0.245   3.113   3.090 -0.0685  0.1175 -0.1731
 1701SOL    HW2 6850   0.169   3.161   3.058 -0.3194 -0.2158 -0.0860
 1701SOL    HW3 6851   0.233   3.024   3.057 -0.4296 -0.2733  1.0094
 1701SOL    MW4 6852   0.234   3.108   3.081 -0.1492  0.0219 -0.0052
 1702SOL     OW 6853   0.017   3.261   3.038  0.0834  0.2172 -0.5544
 1702SOL    HW2 6854  -0.046   3.211   3.089 -0.5400  0.1404 -1.3907
 1702SOL    HW3 6855   0.001   3.235   2.947  0.0046  1.6365 -0.9630
 1702SOL    MW4 6856   0.007   3.251   3.032 -0.0092  0.3946 -0.7186
 1703SOL     OW 6857   4.417   3.505   3.133 -0.2717 -0.5912  0.1122
 1703SOL    HW2 6858   4.361   3.554   3.072 -0.8221 -1.0361  0.2551
 1703SOL    HW3 6859   4.443   3.427   3.084  0.0104 -0.5129  0.1374
 1703SOL    MW4 6860   4.413   3.501   3.118 -0.3071 -0.6397  0.1345
 1704SOL     OW 6861   0.151   3.569   2.999  0.1873  0.2369  0.5823
 1704SOL    HW2 6862   0.174   3.658   3.024 -0.1970 -0.3040  2.9499
 1704SOL    HW3 6863   0.080   3.544   3.059 -1.0557 -0.9799 -1.3113
 1704SOL    MW4 6864   0.145   3.577   3.010 -0.0274  0.0052  0.6447
 1705SOL     OW 6865   0.226   3.829   3.093 -0.0300 -0.2104  0.3167
 1705SOL    HW2 6866   0.223   3.832   3.189 -0.7113 -1.2349  0.3306
 1705SOL    HW3 6867   0.297   3.889   3.070 -0.3314  0.6024  1.4257
 1705SOL    MW4 6868   0.235   3.837   3.103 -0.1597 -0.2384  0.4649
 1706SOL     OW 6869   4.489   3.978   3.012 -0.0247 -0.0054 -0.2630
 1706SOL    HW2 6870   4.575   3.946   3.037 -1.3632 -4.0255 -0.4699
 1706SOL    HW3 6871   4.490   3.978   2.916 -0.3230 -0.2584 -0.2673
 1706SOL    MW4 6872   4.500   3.974   3.002 -0.2407 -0.5689 -0.2909
 1707SOL     OW 6873   0.023   4.217   3.132  0.7888  0.3156 -0.4801
 1707SOL    HW2 6874   0.013   4.200   3.226 -1.7171  1.3269 -0.5176
 1707SOL    HW3 6875   0.012   4.132   3.091 -0.9712  0.3218 -0.0320
 1707SOL    MW4 6876   0.021   4.204   3.139  0.2259  0.4497 -0.4261
 1708SOL     OW 6877   0.213   4.376   3.013  0.1409  0.0502 -0.1200
 1708SOL    HW2 6878   0.142   4.332   3.061  0.7063  0.3490  1.0069
 1708SOL    HW3 6879   0.205   4.468   3.038  0.5660  0.1764 -0.4536
 1708SOL    MW4 6880   0.203   4.382   3.023  0.2716  0.1063 -0.0153
 1709SOL     OW 6881   0.695   0.019   3.098  0.4298  0.1163 -0.0789
 1709SOL    HW2 6882   0.695  -0.075   3.077  1.1704 -0.0701  0.7814
 1709SOL    HW3 6883   0.607   0.048   3.072 -0.5147 -1.2217  1.4836
 1709SOL    MW4 6884   0.683   0.010   3.091  0.4029 -0.0849  0.2408
 1710SOL     OW 6885   0.455   0.095   3.022 -0.4133  0.3524 -0.0479
 1710SOL    HW2 6886   0.455   0.181   3.065 -1.2386  1.0189 -1.3460
 1710SOL    HW3 6887   0.372   0.055   3.048  0.5660 -0.6261  1.6421
 1710SOL    MW4 6888   0.444   0.101   3.031 -0.3930  0.3113  0.0038
 1711SOL     OW 6889   0.451   0.348   3.136 -0.0138 -0.1576  0.1564
 1711SOL    HW2 6890   0.445   0.347   3.232  0.5627 -0.3790  0.1892
 1711SOL    HW3 6891   0.531   0.397   3.117  0.4536 -1.0428 -0.1787
 1711SOL    MW4 6892   0.461   0.354   3.146  0.1239 -0.3035  0.1166
 1712SOL     OW 6893   0.691   0.475   3.002 -0.2636  0.0935 -0.3958
 1712SOL    HW2 6894   0.768   0.441   3.048 -0.4536  0.5494  0.2615
 1712SOL    HW3 6895   0.690   0.568   3.022 -2.9918 -0.4928  2.5651
 1712SOL    MW4 6896   0.701   0.483   3.010 -0.6486  0.0763  0.0818
 1713SOL     OW 6897   0.673   0.736   3.086 -0.0308 -0.0018  0.4879
 1713SOL    HW2 6898   0.687   0.711   3.177  0.8176  0.7457  0.5667
 1713SOL    HW3 6899   0.587   0.778   3.087  0.5031  1.1049  1.1798
 1713SOL    MW4 6900   0.663   0.738   3.098  0.1516  0.2429  0.5894
 1714SOL     OW 6901   0.450   0.929   3.013 -0.4329 -0.6315 -0.6083
 1714SOL    HW2 6902   0.388   0.863   3.045 -1.2288 -0.3343 -1.5059
 1714SOL    HW3 6903   0.447   0.920   2.918  0.0643  0.1522 -0.7003
 1714SOL    MW4 6904   0.442   0.919   3.004 -0.4723 -0.4889 -0.7386
 1715SOL     OW 6905   0.473   1.177   3.132  0.0669 -0.3276 -0.2015
 1715SOL    HW2 6906   0.466   1.093   3.088  1.0845 -0.7024  0.3344
 1715SOL    HW3 6907   0.394   1.225   3.107 -0.5672 -1.4854 -0.4099
 1715SOL    MW4 6908   0.462   1.172   3.123  0.1175 -0.5299 -0.1585
 1716SOL     OW 6909   0.693   1.291   3.017 -0.3968 -0.2098  0.1317
 1716SOL    HW2 6910   0.771   1.247   3.052 -0.6914  0.3799  1.5450
 1716SOL    HW3 6911   0.620   1.244   3.055 -0.7702 -1.2202 -1.7622
 1716SOL    MW4 6912   0.694   1.279   3.026 -0.4850 -0.2652  0.0682
 1717SOL     OW 6913   0.677   1.570   3.078  0.0816  0.5830  0.5347
 1717SOL    HW2 6914   0.688   1.576   3.173  0.6210 -0.8804  0.5717
 1717SOL    HW3 6915   0.649   1.480   3.063 -1.3798  1.2137 -0.5765
 1717SOL    MW4 6916   0.674   1.559   3.089 -0.0401  0.4731  0.3929
 1718SOL     OW 6917   0.451   1.733   3.003 -0.5450  0.2914 -0.5277
 1718SOL    HW2 6918   0.539   1.700   3.021 -0.1554  1.2862 -0.5910
 1718SOL    HW3 6919   0.392   1.668   3.042  0.2141 -0.3957 -0.5199
 1718SOL    MW4 6920   0.455   1.720   3.010 -0.3934  0.3320 -0.5350
 1719SOL     OW 6921   0.470   1.963   3.136 -0.0839  0.2366  0.3528
 1719SOL    HW2 6922   0.457   1.876   3.099 -0.3856 -0.4340  1.9666
 1719SOL    HW3 6923   0.412   2.020   3.086 -1.0386 -0.7702  0.3013
 1719SOL    MW4 6924   0.461   1.959   3.125 -0.2497  0.0154  0.5589
 1720SOL     OW 6925   0.664   2.067   2.972  0.0950  0.2964 -0.1232
 1720SOL    HW2 6926   0.599   2.016   3.020 -0.5052  0.8605 -0.3294
 1720SOL    HW3 6927   0.675   2.147   3.025 -1.1770  1.2972 -1.3159
 1720SOL    MW4 6928   0.657   2.071   2.985 -0.1519  0.5028 -0.3078
 1721SOL     OW 6929   0.689   2.324   3.117 -0.2486  0.0642  0.0067
 1721SOL    HW2 6930   0.683   2.337   3.212  0.4883 -0.6650  0.1598
 1721SOL    HW3 6931   0.605   2.356   3.083 -0.6389  0.0466  0.9347
 1721SOL    MW4 6932   0.677   2.330   3.125 -0.2029 -0.0343  0.1493
 1722SOL     OW 6933   0.453   2.407   3.015 -0.1864  0.1206  0.1458
 1722SOL    HW2 6934   0.456   2.502   3.027  1.4983  0.2456 -1.0943
 1722SOL    HW3 6935   0.466   2.395   2.921 -0.3799 -1.3472  0.3042
 1722SOL    MW4 6936   0.455   2.418   3.004  0.0104 -0.0567  0.0031
 1723SOL     OW 6937   0.443   2.707   3.062 -0.4040  0.2087 -0.0315
 1723SOL    HW2 6938   0.529   2.744   3.044 -0.7403  0.9515 -0.0935
 1723SOL    HW3 6939   0.431   2.717   3.157 -0.4875  0.2264 -0.0442
 1723SOL    MW4 6940   0.453   2.713   3.072 -0.4593  0.3090 -0.0415
 1724SOL     OW 6941   0.683   2.827   2.981 -0.2527 -0.2247  0.1192
 1724SOL    HW2 6942   0.750   2.791   3.040 -0.4355  0.2727  0.6366
 1724SOL    HW3 6943   0.686   2.921   2.995 -1.0207 -0.1926  0.1068
 1724SOL    MW4 6944   0.692   2.834   2.991 -0.3781 -0.1550  0.1860
 1725SOL     OW 6945   0.694   3.101   3.073  0.1202 -0.3162 -0.4032
 1725SOL    HW2 6946   0.682   3.090   3.168  1.0113 -0.6254 -0.3221
 1725SOL    HW3 6947   0.614   3.145   3.044  1.3763  3.1738  1.0779
 1725SOL    MW4 6948   0.682   3.106   3.082  0.4035  0.1035 -0.1972
 1726SOL     OW 6949   0.471   3.254   3.017  0.0809  0.7011 -0.1181
 1726SOL    HW2 6950   0.458   3.344   3.048 -1.0354  0.9194 -1.2117
 1726SOL    HW3 6951   0.397   3.205   3.051  0.5892  0.2200  0.3182
 1726SOL    MW4 6952   0.460   3.259   3.025  0.0007  0.6666 -0.2046
 1727SOL     OW 6953   0.449   3.517   3.090  0.0155  0.2757  0.2562
 1727SOL    HW2 6954   0.442   3.492   3.182  1.0937 -0.7023  0.0921
 1727SOL    HW3 6955   0.361   3.507   3.055 -0.0697 -0.9046  0.8001
 1727SOL    MW4 6956   0.437   3.513   3.097  0.1466 -0.0091  0.3064
 1728SOL     OW 6957   0.670   3.628   3.015 -0.6931  0.3164 -0.4410
 1728SOL    HW2 6958   0.738   3.576   3.058 -0.5183  1.8573  1.2106
 1728SOL    HW3 6959   0.588   3.593   3.048 -0.5892  0.7035  0.2440
 1728SOL    MW4 6960   0.668   3.617   3.025 -0.6564  0.5708 -0.1328
 1729SOL     OW 6961   0.684   3.890   3.130  0.1495 -0.1155  0.4790
 1729SOL    HW2 6962   0.686   3.884   3.226  0.7017 -0.5102  0.4437
 1729SOL    HW3 6963   0.701   3.801   3.100  0.0232  0.0185  0.0156
 1729SOL    MW4 6964   0.687   3.878   3.139  0.2056 -0.1502  0.4134
 1730SOL     OW 6965   0.423   4.006   3.043  0.0152  0.2724  0.2412
 1730SOL    HW2 6966   0.504   3.962   3.067 -0.3797 -0.3509  0.4314
 1730SOL    HW3 6967   0.424   4.008   2.947  0.4861  0.7023  0.2548
 1730SOL    MW4 6968   0.434   4.000   3.033  0.0253  0.2470  0.2682
 1731SOL     OW 6969   0.454   4.269   3.105  0.1364  0.3207  0.2283
 1731SOL    HW2 6970   0.443   4.177   3.083  0.1589 -0.0320  1.6789
 1731SOL    HW3 6971   0.370   4.309   3.081 -0.2686 -0.2839  0.6207
 1731SOL    MW4 6972   0.441   4.262   3.099  0.0859  0.1941  0.4711
 1732SOL     OW 6973   0.679   4.429   3.025  0.7384  0.1180 -0.1754
 1732SOL    HW2 6974   0.596   4.385   3.042  1.3011 -1.0609 -0.4355
 1732SOL    HW3 6975   0.686   4.429   2.929  1.6128 -0.8747 -0.1148
 1732SOL    MW4 6976   0.669   4.423   3.014  0.9279 -0.1688 -0.2015
 1733SOL     OW 6977   1.119   4.654   3.094  0.1852 -0.0007 -0.3981
 1733SOL    HW2 6978   1.203   4.697   3.077 -0.0053  0.8883  0.8498
 1733SOL    HW3 6979   1.055   4.708   3.046 -0.2487  2.0430  2.3621
 1733SOL    MW4 6980   1.121   4.667   3.085  0.1028  0.3867  0.1307
 1734SOL     OW 6981   0.926   0.147   2.986  0.2629  0.2462 -0.3336
 1734SOL    HW2 6982   0.921   0.235   3.021  1.3587  0.6782 -1.2328
 1734SOL    HW3 6983   0.853   0.100   3.027  1.6244  0.6467  2.6994
 1734SOL    MW4 6984   0.916   0.152   2.996  0.5871  0.3560 -0.0520
 1735SOL     OW 6985   0.935   0.395   3.106 -0.1966 -0.1252  0.0581
 1735SOL    HW2 6986   0.953   0.384   3.199 -0.7101  0.6688  0.2531
 1735SOL    HW3 6987   1.016   0.432   3.070 -0.5560  1.1025  0.4852
 1735SOL    MW4 6988   0.948   0.398   3.113 -0.3118  0.1415  0.1402
 1736SOL     OW 6989   1.168   0.527   3.033 -0.4341  0.1701 -0.0354
 1736SOL    HW2 6990   1.240   0.468   3.055 -0.1865  0.5905  0.2981
 1736SOL    HW3 6991   1.158   0.520   2.938  0.6910  0.8337 -0.2182
 1736SOL    MW4 6992   1.176   0.519   3.023 -0.2528  0.3131 -0.0155
 1737SOL     OW 6993   1.101   0.792   3.153  0.2248 -0.2823  0.4304
 1737SOL    HW2 6994   1.102   0.784   3.249  1.3235  1.3486  0.5745
 1737SOL    HW3 6995   1.125   0.705   3.122 -1.4719 -1.2001  1.5931
 1737SOL    MW4 6996   1.104   0.779   3.162  0.1459 -0.1882  0.6027
 1738SOL     OW 6997   0.877   0.881   2.999  0.1093  0.1349 -0.4933
 1738SOL    HW2 6998   0.952   0.835   3.037 -0.8606 -0.7100  0.4211
 1738SOL    HW3 6999   0.801   0.831   3.028 -0.9372  1.9552  0.0043
 1738SOL    MW4 7000   0.877   0.868   3.008 -0.1568  0.2635 -0.3071
 1739SOL     OW 7001   0.913   1.152   3.120  0.5586 -0.1203  0.2287
 1739SOL    HW2 7002   1.001   1.167   3.085  0.0347  0.3357 -0.9018
 1739SOL    HW3 7003   0.895   1.060   3.100  1.4024 -0.6572  1.8744
 1739SOL    MW4 7004   0.922   1.142   3.113  0.6008 -0.1310  0.2966
 1740SOL     OW 7005   1.137   1.259   2.981  0.2726 -0.2694 -0.3461
 1740SOL    HW2 7006   1.215   1.220   3.022  1.0417  0.1303 -1.3964
 1740SOL    HW3 7007   1.154   1.252   2.887 -1.3751 -0.9783 -0.6084
 1740SOL    MW4 7008   1.150   1.253   2.974  0.1566 -0.3101 -0.5193
 1741SOL     OW 7009   1.075   1.489   3.162 -0.0431  0.0474 -0.0428
 1741SOL    HW2 7010   1.094   1.408   3.115  0.2046 -0.0677  0.2472
 1741SOL    HW3 7011   1.022   1.541   3.102  0.6852  0.1084 -0.6251
 1741SOL    MW4 7012   1.070   1.485   3.148  0.0858  0.0402 -0.0815
 1742SOL     OW 7013   0.921   1.659   3.006  0.3949  0.3500  0.0394
 1742SOL    HW2 7014   0.913   1.751   3.031 -2.0559  0.0017  0.6272
 1742SOL    HW3 7015   0.834   1.623   3.019  1.0326 -1.7809 -1.3614
 1742SOL    MW4 7016   0.909   1.667   3.011  0.1557  0.0228 -0.0677
 1743SOL     OW 7017   0.878   1.944   3.114 -0.4080 -0.3577 -0.5073
 1743SOL    HW2 7018   0.957   1.991   3.090 -0.5387 -0.3142 -0.8579
 1743SOL    HW3 7019   0.811   1.975   3.053 -0.6797 -0.4427 -0.2575
 1743SOL    MW4 7020   0.879   1.954   3.103 -0.4610 -0.3631 -0.5207
 1744SOL     OW 7021   1.118   2.070   3.053 -0.3516  0.0086 -0.1017
 1744SOL    HW2 7022   1.173   2.005   3.096 -0.3999 -0.4918 -0.7823
 1744SOL    HW3 7023   1.133   2.056   2.959 -0.9522  0.4629 -0.2701
 1744SOL    MW4 7024   1.127   2.059   3.046 -0.4371  0.0029 -0.2136
 1745SOL     OW 7025   1.148   2.321   3.149  0.2959 -0.2788 -0.6380
 1745SOL    HW2 7026   1.065   2.362   3.124  0.7012  0.4132 -0.8501
 1745SOL    HW3 7027   1.139   2.230   3.120 -0.3931 -0.2058 -0.6530
 1745SOL    MW4 7028   1.136   2.314   3.142  0.2584 -0.1779 -0.6680
 1746SOL     OW 7029   0.928   2.443   3.013 -0.3036  0.3380  0.3878
 1746SOL    HW2 7030   0.852   2.402   3.054  0.3274 -1.4285 -0.1476
 1746SOL    HW3 7031   0.926   2.410   2.923  0.8767  0.5862  0.2681
 1746SOL    MW4 7032   0.918   2.434   3.006 -0.0646  0.1378  0.3014
 1747SOL     OW 7033   0.879   2.683   3.125  0.2065 -0.6415 -0.2514
 1747SOL    HW2 7034   0.872   2.670   3.219 -0.9242 -1.2754 -0.4197
 1747SOL    HW3 7035   0.903   2.596   3.091  0.8075 -0.3699 -0.5279
 1747SOL    MW4 7036   0.881   2.670   3.133  0.1366 -0.6893 -0.3102
 1748SOL     OW 7037   1.109   2.842   3.003 -0.2382 -0.0190 -0.0674
 1748SOL    HW2 7038   1.114   2.929   3.042  0.3076  0.1815 -0.5951
 1748SOL    HW3 7039   1.039   2.798   3.052 -0.0841  0.4979  0.6170
 1748SOL    MW4 7040   1.100   2.848   3.015 -0.1459  0.0756 -0.0467
 1749SOL     OW 7041   1.151   3.108   3.112 -0.1998  0.4301 -0.1914
 1749SOL    HW2 7042   1.073   3.154   3.080 -0.6907 -1.3955 -1.7655
 1749SOL    HW3 7043   1.225   3.157   3.076 -0.6936  0.6012 -0.9915
 1749SOL    MW4 7044   1.150   3.121   3.103 -0.3297  0.2120 -0.5043
 1750SOL     OW 7045   0.920   3.242   3.002  0.1508  0.3092 -0.5188
 1750SOL    HW2 7046   0.842   3.194   3.031  0.1598  0.3166 -0.4814
 1750SOL    HW3 7047   0.916   3.240   2.907  1.4154 -1.8076 -0.5428
 1750SOL    MW4 7048   0.909   3.236   2.994  0.3188  0.0310 -0.5174
 1751SOL     OW 7049   0.886   3.479   3.157 -0.0563  0.3565 -0.0570
 1751SOL    HW2 7050   0.968   3.525   3.138  0.4935 -0.3334  0.6197
 1751SOL    HW3 7051   0.895   3.394   3.114 -1.8573  1.5495 -2.9288
 1751SOL    MW4 7052   0.898   3.474   3.149 -0.2213  0.4230 -0.3467
 1752SOL     OW 7053   1.115   3.610   3.040  0.1170  0.1344  0.2509
 1752SOL    HW2 7054   1.198   3.565   3.022 -0.2549 -0.7587  0.7710
 1752SOL    HW3 7055   1.141   3.700   3.060  0.7397  0.5788 -2.3257
 1752SOL    MW4 7056   1.130   3.616   3.040  0.1501  0.0753 -0.0207
 1753SOL     OW 7057   1.143   3.878   3.106  0.0675 -0.0626  0.5677
 1753SOL    HW2 7058   1.140   3.865   3.201 -0.2293 -0.2567  0.5330
 1753SOL    HW3 7059   1.064   3.927   3.086  0.3575  0.3648  0.4788
 1753SOL    MW4 7060   1.133   3.883   3.116  0.0666 -0.0317  0.5512
 1754SOL     OW 7061   0.907   4.030   3.032  0.3803 -0.2037  0.1794
 1754SOL    HW2 7062   0.834   3.979   3.067 -0.2310  1.6734  1.6975
 1754SOL    HW3 7063   0.892   4.031   2.937 -1.1276 -0.4847  0.4095
 1754SOL    MW4 7064   0.896   4.024   3.024  0.1007  0.0072  0.4101
 1755SOL     OW 7065   0.914   4.298   3.114 -0.2768 -0.1008  0.1249
 1755SOL    HW2 7066   0.917   4.205   3.091 -0.7658  0.2676 -1.4798
 1755SOL    HW3 7067   0.829   4.328   3.081 -0.4818  0.7216  1.3881
 1755SOL    MW4 7068   0.903   4.289   3.107 -0.3684  0.0558  0.0799
 1756SOL     OW 7069   1.134   4.417   2.957 -0.1728 -0.4283  0.0920
 1756SOL    HW2 7070   1.058   4.378   3.000 -1.0858 -0.9099 -1.8864
 1756SOL    HW3 7071   1.133   4.509   2.984 -0.8377 -0.6703  0.9022
 1756SOL    MW4 7072   1.124   4.424   2.966 -0.3811 -0.5236 -0.0622
 1757SOL     OW 7073   1.596   4.658   3.106 -0.0085  0.2497 -0.1662
 1757SOL    HW2 7074   1.596   4.635   3.199 -0.9311 -1.3069 -0.5300
 1757SOL    HW3 7075   1.514   4.706   3.094  0.4206  1.0214 -0.0544
 1757SOL    MW4 7076   1.585   4.662   3.117 -0.0736  0.1464 -0.1996
 1758SOL     OW 7077   1.354   0.099   3.014  0.8572  0.0616 -0.1923
 1758SOL    HW2 7078   1.366   0.192   3.034 -2.1681  0.5188 -0.3304
 1758SOL    HW3 7079   1.340   0.097   2.920 -1.1741 -0.3013  0.1136
 1758SOL    MW4 7080   1.354   0.111   3.004  0.1900  0.0740 -0.1702
 1759SOL     OW 7081   1.372   0.349   3.109  0.0633  0.1252 -0.0321
 1759SOL    HW2 7082   1.379   0.362   3.204 -0.8944 -2.5383  0.4667
 1759SOL    HW3 7083   1.452   0.387   3.073  0.8250  0.4387  1.9452
 1759SOL    MW4 7084   1.384   0.356   3.117  0.0374 -0.1849  0.2947
 1760SOL     OW 7085   1.600   0.481   3.003 -0.0077  0.0291 -0.1904
 1760SOL    HW2 7086   1.571   0.569   3.030 -1.3995 -0.3818 -0.3076
 1760SOL    HW3 7087   1.591   0.481   2.908  1.7034  0.3420 -0.3757
 1760SOL    MW4 7088   1.595   0.493   2.994  0.0345  0.0162 -0.2303
 1761SOL     OW 7089   1.545   0.762   3.081  0.4860 -0.3035  0.2372
 1761SOL    HW2 7090   1.539   0.762   3.176  0.0895 -1.8475  0.2327
 1761SOL    HW3 7091   1.465   0.806   3.052  1.7425  2.3303  0.6345
 1761SOL    MW4 7092   1.533   0.768   3.089  0.5995 -0.1597  0.2892
 1762SOL     OW 7093   1.323   0.902   3.005 -0.4865  0.1952  0.1575
 1762SOL    HW2 7094   1.349   0.987   3.039 -0.6193  0.1406  0.3918
 1762SOL    HW3 7095   1.255   0.871   3.065  0.0942 -0.4141  0.5069
 1762SOL    MW4 7096   1.318   0.909   3.017 -0.4272  0.1076  0.2346
 1763SOL     OW 7097   1.376   1.176   3.104 -0.2466  0.1077 -0.2713
 1763SOL    HW2 7098   1.391   1.191   3.197  1.1066  1.2728 -0.6753
 1763SOL    HW3 7099   1.447   1.223   3.060 -0.9379 -0.3488 -1.8947
 1763SOL    MW4 7100   1.388   1.184   3.111 -0.1593  0.2012 -0.5388
 1764SOL     OW 7101   1.642   1.288   2.999  0.4516 -0.2823  0.0434
 1764SOL    HW2 7102   1.697   1.240   3.061 -0.1412 -0.5546  0.3534
 1764SOL    HW3 7103   1.606   1.360   3.050 -0.8741 -1.1055  0.2914
 1764SOL    MW4 7104   1.645   1.291   3.014  0.1986 -0.4269  0.1171
 1765SOL     OW 7105   1.550   1.529   3.131 -0.7943 -0.5514 -0.2919
 1765SOL    HW2 7106   1.616   1.582   3.085 -0.2145 -1.6303 -0.7205
 1765SOL    HW3 7107   1.466   1.560   3.096 -0.4454 -0.1325 -0.7726
 1765SOL    MW4 7108   1.548   1.540   3.120 -0.6717 -0.6385 -0.4120
 1766SOL     OW 7109   1.305   1.624   3.062  0.7409  0.3575 -0.1622
 1766SOL    HW2 7110   1.226   1.577   3.090  1.2442  0.1342  0.8963
 1766SOL    HW3 7111   1.302   1.620   2.967  1.0118 -2.2139 -0.0746
 1766SOL    MW4 7112   1.294   1.618   3.053  0.8430 -0.0112 -0.0110
 1767SOL     OW 7113   1.312   1.891   3.124  0.0887 -0.3113 -0.2632
 1767SOL    HW2 7114   1.322   1.898   3.219  0.7847 -1.2251 -0.2652
 1767SOL    HW3 7115   1.297   1.798   3.108 -2.0584  0.1026 -0.8675
 1767SOL    MW4 7116   1.311   1.880   3.135 -0.1026 -0.3773 -0.3431
 1768SOL     OW 7117   1.539   2.038   3.036 -0.2011  0.3247 -0.2049
 1768SOL    HW2 7118   1.470   1.974   3.052  0.6307 -0.5738 -0.1158
 1768SOL    HW3 7119   1.551   2.037   2.941 -0.5668  0.7577 -0.2567
 1768SOL    MW4 7120   1.531   2.029   3.025 -0.1396  0.2632 -0.1998
 1769SOL     OW 7121   1.572   2.304   3.126  0.5287 -0.2329  0.1433
 1769SOL    HW2 7122   1.506   2.358   3.084  0.5810 -0.5959 -0.4176
 1769SOL    HW3 7123   1.559   2.217   3.089  1.2902 -0.3175  0.0585
 1769SOL    MW4 7124   1.562   2.299   3.116  0.6361 -0.2916  0.0579
 1770SOL     OW 7125   1.359   2.443   3.003  0.0859 -0.0915  0.0706
 1770SOL    HW2 7126   1.275   2.406   3.034 -0.1156  1.1690  1.0928
 1770SOL    HW3 7127   1.349   2.448   2.908 -0.7776 -0.4749  0.1285
 1770SOL    MW4 7128   1.346   2.439   2.995 -0.0546  0.0241  0.2131
 1771SOL     OW 7129   1.335   2.695   3.124 -0.4040  0.1370  0.0679
 1771SOL    HW2 7130   1.345   2.602   3.103 -0.2460  0.1700  0.0004
 1771SOL    HW3 7131   1.259   2.723   3.072  0.1251  0.2715 -0.6357
 1771SOL    MW4 7132   1.326   2.686   3.114 -0.3134  0.1590 -0.0341
 1772SOL     OW 7133   1.565   2.828   2.991 -0.4013 -0.1970 -0.4040
 1772SOL    HW2 7134   1.629   2.762   3.019  0.1770  0.1099 -0.9875
 1772SOL    HW3 7135   1.480   2.789   3.010 -0.0579 -1.0685 -0.6319
 1772SOL    MW4 7136   1.562   2.814   2.997 -0.2797 -0.2716 -0.5112
 1773SOL     OW 7137   1.588   3.082   3.108 -0.2462 -0.2356  0.0535
 1773SOL    HW2 7138   1.572   3.089   3.202  0.7444 -0.9306  0.2860
 1773SOL    HW3 7139   1.579   2.988   3.089  1.2153 -0.3287 -0.2241
 1773SOL    MW4 7140   1.585   3.070   3.118  0.0774 -0.3395  0.0479
 1774SOL     OW 7141   1.374   3.227   2.972  0.1375  0.0652 -0.1184
 1774SOL    HW2 7142   1.456   3.191   3.006  0.0167 -0.0139  0.0888
 1774SOL    HW3 7143   1.379   3.211   2.878  0.3714  0.0822 -0.1101
 1774SOL    MW4 7144   1.386   3.220   2.964  0.1525  0.0570 -0.0899
 1775SOL     OW 7145   1.367   3.491   3.048  0.5542  0.4748 -0.8090
 1775SOL    HW2 7146   1.389   3.476   3.140 -1.6763  1.7896 -0.0354
 1775SOL    HW3 7147   1.356   3.403   3.012  0.9542 -0.0392  0.2960
 1775SOL    MW4 7148   1.369   3.477   3.055  0.3127  0.5803 -0.5612
 1776SOL     OW 7149   1.592   3.634   2.976 -0.0428 -0.1011 -0.2522
 1776SOL    HW2 7150   1.512   3.589   3.001  1.6891 -2.6584  0.9364
 1776SOL    HW3 7151   1.589   3.638   2.881 -2.0735  0.8169 -0.1661
 1776SOL    MW4 7152   1.581   3.629   2.967 -0.0823 -0.3173 -0.0839
 1777SOL     OW 7153   1.594   3.889   3.096 -0.1485  0.0792 -0.4338
 1777SOL    HW2 7154   1.682   3.904   3.062 -0.7644  0.7426 -1.7710
 1777SOL    HW3 7155   1.570   3.802   3.064  0.5246 -0.6805  1.0629
 1777SOL    MW4 7156   1.602   3.880   3.087 -0.1410  0.0663 -0.4127
 1778SOL     OW 7157   1.373   4.025   2.990  0.0203  0.4525 -0.3619
 1778SOL    HW2 7158   1.443   3.992   3.047  0.2275  0.3757 -0.6594
 1778SOL    HW3 7159   1.295   3.977   3.017  0.2120  0.0950 -0.4450
 1778SOL    MW4 7160   1.372   4.015   3.001  0.0730  0.3953 -0.4122
 1779SOL     OW 7161   1.333   4.262   3.095  0.1999 -0.0547 -0.3212
 1779SOL    HW2 7162   1.325   4.173   3.063  0.0094 -0.5651  1.1105
 1779SOL    HW3 7163   1.271   4.312   3.041 -0.7978 -1.0669 -0.1399
 1779SOL    MW4 7164   1.324   4.257   3.084  0.0432 -0.2556 -0.1082
 1780SOL     OW 7165   1.573   4.396   2.979  0.2495 -0.3127 -0.4786
 1780SOL    HW2 7166   1.504   4.348   3.023  0.5401 -0.1382  0.1682
 1780SOL    HW3 7167   1.585   4.476   3.031 -0.1803  0.4341 -1.4955
 1780SOL    MW4 7168   1.565   4.400   2.991  0.2310 -0.1912 -0.5276
 1781SOL     OW 7169   2.079   4.653   3.113  0.1122  0.0371  0.1880
 1781SOL    HW2 7170   2.069   4.681   3.204 -1.1340  0.3372 -0.0352
 1781SOL    HW3 7171   2.010   4.700   3.065  0.8080 -0.0520 -0.9259
 1781SOL    MW4 7172   2.068   4.663   3.118  0.0396  0.0650  0.0117
 1782SOL     OW 7173   1.833   0.096   3.022 -0.3707 -0.6988 -0.0803
 1782SOL    HW2 7174   1.741   0.069   3.029 -0.3074 -1.3363 -1.5182
 1782SOL    HW3 7175   1.856   0.080   2.930  0.8013  0.6707 -0.0386
 1782SOL    MW4 7176   1.824   0.090   3.011 -0.2078 -0.6022 -0.2646
 1783SOL     OW 7177   1.823   0.373   3.104  0.2503  0.1610 -0.0962
 1783SOL    HW2 7178   1.810   0.280   3.084  1.9019  0.0634 -0.7501
 1783SOL    HW3 7179   1.745   0.416   3.069 -0.3133 -0.9242 -0.1995
 1783SOL    MW4 7180   1.811   0.367   3.097  0.3937  0.0050 -0.1960
 1784SOL     OW 7181   2.056   0.506   2.995 -0.2923  0.3630  0.0064
 1784SOL    HW2 7182   1.977   0.465   3.030 -0.5854  2.0481  1.3742
 1784SOL    HW3 7183   2.129   0.463   3.040 -0.6302  1.8426  2.0212
 1784SOL    MW4 7184   2.055   0.495   3.006 -0.3755  0.7805  0.4528
 1785SOL     OW 7185   2.043   0.793   3.102  0.1408  0.1162 -0.4923
 1785SOL    HW2 7186   1.956   0.817   3.069  1.3647  2.4887 -2.0732
 1785SOL    HW3 7187   2.060   0.707   3.063 -0.2429  0.9768 -2.6249
 1785SOL    MW4 7188   2.034   0.785   3.093  0.2520  0.5428 -0.9820
 1786SOL     OW 7189   1.794   0.853   2.992 -0.4036 -0.3314 -0.4314
 1786SOL    HW2 7190   1.706   0.826   3.016 -1.2951  1.3194 -1.7077
 1786SOL    HW3 7191   1.790   0.865   2.897  1.5167 -1.3956 -0.6633
 1786SOL    MW4 7192   1.782   0.851   2.983 -0.2680 -0.2540 -0.6304
 1787SOL     OW 7193   1.808   1.138   3.144 -0.0200  0.0985 -0.0359
 1787SOL    HW2 7194   1.796   1.138   3.239 -0.5129  0.1403 -0.0918
 1787SOL    HW3 7195   1.786   1.048   3.117  1.2346 -0.2251  0.0168
 1787SOL    MW4 7196   1.803   1.126   3.153  0.0805  0.0612 -0.0362
 1788SOL     OW 7197   2.003   1.272   2.995 -0.4190  0.1692 -0.3285
 1788SOL    HW2 7198   2.087   1.250   3.034 -1.3856 -3.0700  0.0275
 1788SOL    HW3 7199   1.938   1.232   3.053 -2.1430  1.1511 -1.5362
 1788SOL    MW4 7200   2.005   1.264   3.008 -0.7739 -0.1286 -0.4411
 1789SOL     OW 7201   2.017   1.540   3.109 -0.1928 -0.2897  0.2205
 1789SOL    HW2 7202   2.001   1.551   3.202 -0.2680 -0.4545  0.2271
 1789SOL    HW3 7203   2.004   1.447   3.093 -1.2092 -0.0960 -0.1396
 1789SOL    MW4 7204   2.013   1.530   3.119 -0.3366 -0.2859  0.1738
 1790SOL     OW 7205   1.756   1.662   3.020 -0.4416  0.4199 -0.0529
 1790SOL    HW2 7206   1.745   1.744   3.068 -0.9533  1.0890 -1.2726
 1790SOL    HW3 7207   1.843   1.631   3.043 -1.1559  0.0586  2.2914
 1790SOL    MW4 7208   1.766   1.669   3.029 -0.6034  0.4606  0.0956
 1791SOL     OW 7209   1.772   1.912   3.143  0.7114 -0.0237 -0.8116
 1791SOL    HW2 7210   1.850   1.945   3.099  1.0912 -0.2120 -0.2710
 1791SOL    HW3 7211   1.701   1.966   3.108  0.9908 -0.2416 -1.7449
 1791SOL    MW4 7212   1.773   1.923   3.133  0.7983 -0.0775 -0.8636
 1792SOL     OW 7213   1.999   1.996   3.014 -0.3595 -0.5010  0.3250
 1792SOL    HW2 7214   2.083   1.968   3.052  0.6157  0.6674 -0.9293
 1792SOL    HW3 7215   1.994   2.089   3.034  0.0031  0.0608 -2.0993
 1792SOL    MW4 7216   2.010   2.005   3.022 -0.1831 -0.2728 -0.1602
 1793SOL     OW 7217   2.011   2.274   3.116  0.7027  0.2365  0.0517
 1793SOL    HW2 7218   2.093   2.303   3.075 -0.1281 -1.8573 -3.2694
 1793SOL    HW3 7219   1.944   2.329   3.076  0.0640 -0.7529 -0.2476
 1793SOL    MW4 7220   2.013   2.285   3.105  0.5090 -0.1705 -0.4258
 1794SOL     OW 7221   1.818   2.422   3.023 -0.7584  0.2317 -0.1939
 1794SOL    HW2 7222   1.808   2.513   3.051 -1.1278  0.4708 -1.0838
 1794SOL    HW3 7223   1.742   2.377   3.061  0.1350  0.0195  1.3538
 1794SOL    MW4 7224   1.807   2.428   3.032 -0.6891  0.2351 -0.1073
 1795SOL     OW 7225   1.772   2.681   3.122  0.2734  0.3712 -0.0405
 1795SOL    HW2 7226   1.787   2.674   3.216 -1.3072  1.3037  0.2971
 1795SOL    HW3 7227   1.840   2.742   3.092 -0.0510  1.1343  0.7302
 1795SOL    MW4 7228   1.783   2.688   3.131  0.0221  0.5949  0.1056
 1796SOL     OW 7229   1.977   2.817   2.980  0.3843  0.3495 -0.0183
 1796SOL    HW2 7230   1.976   2.903   3.022 -0.2521  0.8270 -0.9835
 1796SOL    HW3 7231   1.986   2.836   2.886 -0.3281 -0.6109 -0.2903
 1796SOL    MW4 7232   1.978   2.830   2.973  0.2062  0.2856 -0.1819
 1797SOL     OW 7233   2.015   3.078   3.126  0.2415  0.0952 -0.7381
 1797SOL    HW2 7234   2.025   3.086   3.221  0.2406 -0.5868 -0.6798
 1797SOL    HW3 7235   1.934   3.124   3.106  0.3756  0.4624 -0.4432
 1797SOL    MW4 7236   2.006   3.085   3.136  0.2592  0.0536 -0.6914
 1798SOL     OW 7237   1.806   3.222   3.012 -0.2928 -0.5017 -0.3546
 1798SOL    HW2 7238   1.727   3.171   3.032 -0.9812  0.8739  0.4826
 1798SOL    HW3 7239   1.822   3.204   2.919 -2.0004 -0.2472 -0.7168
 1798SOL    MW4 7240   1.797   3.213   3.002 -0.6089 -0.2866 -0.2918
 1799SOL     OW 7241   1.812   3.501   3.090 -0.4919 -0.4437 -0.1012
 1799SOL    HW2 7242   1.815   3.414   3.050  0.6878 -0.6657  0.4340
 1799SOL    HW3 7243   1.733   3.541   3.055 -0.3125 -1.2221 -1.4431
 1799SOL    MW4 7244   1.802   3.495   3.080 -0.3126 -0.5755 -0.2079
 1800SOL     OW 7245   2.057   3.611   2.985 -0.5321 -0.0148  0.1373
 1800SOL    HW2 7246   2.052   3.703   3.009  1.0963 -0.5325  2.6199
 1800SOL    HW3 7247   1.973   3.575   3.013  0.2723 -0.0265  2.6463
 1800SOL    MW4 7248   2.045   3.618   2.992 -0.2110 -0.0844  0.7958
 1801SOL     OW 7249   2.057   3.861   3.109 -0.0868  0.0140 -0.2266
 1801SOL    HW2 7250   2.037   3.850   3.202  0.9296 -0.6322 -0.0841
 1801SOL    HW3 7251   1.979   3.904   3.073 -1.4982 -1.9119  0.4359
 1801SOL    MW4 7252   2.044   3.866   3.117 -0.1388 -0.3254 -0.1202
 1802SOL     OW 7253   1.828   3.983   2.987 -0.1144 -0.3359 -0.8975
 1802SOL    HW2 7254   1.793   4.067   3.016 -1.8611 -1.1614 -0.5930
 1802SOL    HW3 7255   1.845   3.995   2.893  0.2013  0.5264 -0.7341
 1802SOL    MW4 7256   1.826   3.995   2.978 -0.3031 -0.3312 -0.8361
 1803SOL     OW 7257   1.760   4.229   3.088 -0.3977  0.0841  0.5923
 1803SOL    HW2 7258   1.845   4.272   3.083 -0.3946 -0.0679 -0.8842
 1803SOL    HW3 7259   1.698   4.294   3.054 -0.8129  0.0291  1.2334
 1803SOL    MW4 7260   1.763   4.243   3.083 -0.4520  0.0572  0.4818
 1804SOL     OW 7261   2.007   4.397   3.024  0.4167 -0.0044 -0.6736
 1804SOL    HW2 7262   2.035   4.481   3.061  1.7029  0.7153 -3.2287
 1804SOL    HW3 7263   1.996   4.414   2.931 -0.9388 -2.2914 -0.9661
 1804SOL    MW4 7264   2.009   4.411   3.017  0.4075 -0.2117 -1.0493
 1805SOL     OW 7265   2.467   4.663   3.135  0.3825 -0.0025 -0.8307
 1805SOL    HW2 7266   2.480   4.586   3.079 -0.1773 -0.5185 -0.2641
 1805SOL    HW3 7267   2.395   4.710   3.094  1.3960  0.7716 -1.7549
 1805SOL    MW4 7268   2.459   4.659   3.122  0.4425  0.0315 -0.8776
 1806SOL     OW 7269   2.278   0.132   2.983 -0.0072  0.1944 -0.2617
 1806SOL    HW2 7270   2.283   0.222   3.013 -1.9531  0.7142 -1.3842
 1806SOL    HW3 7271   2.202   0.095   3.028 -1.9141  0.4783 -3.0805
 1806SOL    MW4 7272   2.268   0.139   2.993 -0.5155  0.3005 -0.7818
 1807SOL     OW 7273   2.288   0.400   3.108 -0.3993 -0.0129 -0.2717
 1807SOL    HW2 7274   2.290   0.396   3.203 -1.6936  1.1392 -0.1801
 1807SOL    HW3 7275   2.356   0.463   3.085  0.0795 -0.4755 -0.1282
 1807SOL    MW4 7276   2.297   0.408   3.117 -0.5069  0.0780 -0.2403
 1808SOL     OW 7277   2.502   0.556   3.043 -0.3844 -0.1772  0.6172
 1808SOL    HW2 7278   2.499   0.546   2.948 -0.4203 -1.8996  0.7732
 1808SOL    HW3 7279   2.565   0.489   3.071 -0.3808  0.3168  1.7981
 1808SOL    MW4 7280   2.510   0.546   3.034 -0.3886 -0.3393  0.7937
 1809SOL     OW 7281   2.477   0.831   3.114  0.1502  0.1030 -0.2184
 1809SOL    HW2 7282   2.546   0.889   3.080 -1.0687  0.3060 -2.4099
 1809SOL    HW3 7283   2.503   0.744   3.087  0.8399 -0.1490  1.1824
 1809SOL    MW4 7284   2.490   0.827   3.106  0.0799  0.0966 -0.3228
 1810SOL     OW 7285   2.254   0.960   3.016  0.3398 -0.4874  0.4010
 1810SOL    HW2 7286   2.329   0.911   3.049  0.5598 -0.0457  0.5518
 1810SOL    HW3 7287   2.178   0.913   3.050  0.5624 -0.1339  1.3929
 1810SOL    MW4 7288   2.254   0.947   3.025  0.3982 -0.3825  0.5517
 1811SOL     OW 7289   2.244   1.231   3.117  0.1029 -0.8029 -0.0434
 1811SOL    HW2 7290   2.246   1.228   3.212 -1.7690 -1.3441  0.0044
 1811SOL    HW3 7291   2.253   1.140   3.089  0.1948 -0.6980 -0.3633
 1811SOL    MW4 7292   2.245   1.219   3.126 -0.1321 -0.8606 -0.0796
 1812SOL     OW 7293   2.493   1.310   2.987 -0.3841 -0.6706  0.3994
 1812SOL    HW2 7294   2.411   1.282   3.026 -0.4040 -0.8080  0.2625
 1812SOL    HW3 7295   2.482   1.293   2.893 -0.0231 -1.1312  0.4401
 1812SOL    MW4 7296   2.481   1.304   2.980 -0.3393 -0.7496  0.3870
 1813SOL     OW 7297   2.447   1.566   3.115 -0.2347  0.4876 -0.0756
 1813SOL    HW2 7298   2.375   1.603   3.064 -2.2917 -0.7475  1.7983
 1813SOL    HW3 7299   2.465   1.481   3.074 -0.8611  0.1579  0.3191
 1813SOL    MW4 7300   2.440   1.559   3.103 -0.5887  0.2812  0.2236
 1814SOL     OW 7301   2.261   1.706   2.993 -0.1635  0.1180 -0.2674
 1814SOL    HW2 7302   2.176   1.667   3.013 -0.6761  0.3675 -1.9244
 1814SOL    HW3 7303   2.263   1.712   2.898  2.1614 -0.8711 -0.3033
 1814SOL    MW4 7304   2.250   1.702   2.983  0.0758  0.0204 -0.4909
 1815SOL     OW 7305   2.240   1.922   3.156 -0.0238 -0.0473 -0.3988
 1815SOL    HW2 7306   2.300   1.988   3.122  0.8001  0.2247  1.5135
 1815SOL    HW3 7307   2.252   1.846   3.099  1.0399  0.5192 -0.9365
 1815SOL    MW4 7308   2.249   1.920   3.144  0.2253  0.0633 -0.2177
 1816SOL     OW 7309   2.450   2.079   3.021 -0.1082 -0.5417  0.0157
 1816SOL    HW2 7310   2.521   2.025   3.057  0.9889  0.3428 -0.7668
 1816SOL    HW3 7311   2.471   2.084   2.927 -0.9224  0.1722 -0.1252
 1816SOL    MW4 7312   2.462   2.072   3.013 -0.0710 -0.3309 -0.1061
 1817SOL     OW 7313   2.459   2.352   3.110  0.1004 -0.3049 -0.0623
 1817SOL    HW2 7314   2.454   2.357   3.206  0.7421 -0.9376  0.0132
 1817SOL    HW3 7315   2.452   2.258   3.092 -0.1168 -0.1752 -0.6490
 1817SOL    MW4 7316   2.457   2.340   3.121  0.1562 -0.3712 -0.1297
 1818SOL     OW 7317   2.216   2.438   3.021  0.2843  0.0024 -0.0754
 1818SOL    HW2 7318   2.222   2.530   3.046 -0.6395  0.1930 -0.5339
 1818SOL    HW3 7319   2.295   2.398   3.056 -0.0922  0.6451  1.5172
 1818SOL    MW4 7320   2.227   2.445   3.029  0.1128  0.1125  0.0741
 1819SOL     OW 7321   2.214   2.695   3.104 -0.2527 -0.4710 -0.2301
 1819SOL    HW2 7322   2.290   2.747   3.076 -0.8267 -0.0280 -0.9614
 1819SOL    HW3 7323   2.139   2.737   3.063 -0.9664 -0.6085  0.8996
 1819SOL    MW4 7324   2.214   2.707   3.095 -0.4227 -0.4306 -0.1771
 1820SOL     OW 7325   2.444   2.820   2.998  0.0940 -0.3878 -0.1678
 1820SOL    HW2 7326   2.437   2.906   3.039  1.4317 -0.1989 -0.3301
 1820SOL    HW3 7327   2.441   2.838   2.904 -0.6684 -0.6213 -0.1963
 1820SOL    MW4 7328   2.442   2.834   2.991  0.1700 -0.3936 -0.1931
 1821SOL     OW 7329   2.478   3.069   3.121  0.3531  0.2388  0.0791
 1821SOL    HW2 7330   2.552   3.118   3.087 -0.1945  0.0089 -1.5147
 1821SOL    HW3 7331   2.401   3.119   3.093 -0.1689 -0.8781 -0.5332
 1821SOL    MW4 7332   2.477   3.082   3.112  0.2120  0.0613 -0.2120
 1822SOL     OW 7333   2.249   3.195   3.013  0.0083 -0.1876  0.2158
 1822SOL    HW2 7334   2.232   3.276   3.061  0.1073  0.1513 -0.3112
 1822SOL    HW3 7335   2.175   3.138   3.035 -0.6098  0.4290 -0.2203
 1822SOL    MW4 7336   2.237   3.198   3.022 -0.0601 -0.0615  0.0885
 1823SOL     OW 7337   2.263   3.462   3.108 -0.2538  0.4811 -0.1773
 1823SOL    HW2 7338   2.340   3.495   3.062 -0.6244  0.0274 -1.1368
 1823SOL    HW3 7339   2.190   3.509   3.069 -0.5372  0.3480  0.1916
 1823SOL    MW4 7340   2.263   3.472   3.097 -0.3400  0.4039 -0.2551
 1824SOL     OW 7341   2.471   3.588   2.970 -0.0678  0.5728 -0.1406
 1824SOL    HW2 7342   2.554   3.555   3.005 -0.7683 -0.8674  0.2047
 1824SOL    HW3 7343   2.461   3.674   3.010  0.8601  0.4084  0.4683
 1824SOL    MW4 7344   2.480   3.595   2.980 -0.0377  0.3610 -0.0148
 1825SOL     OW 7345   2.489   3.833   3.088  0.3884 -0.2275 -0.1673
 1825SOL    HW2 7346   2.475   3.830   3.183 -0.1438 -2.3462 -0.2964
 1825SOL    HW3 7347   2.572   3.880   3.078  1.4764 -1.7338  1.4527
 1825SOL    MW4 7348   2.498   3.839   3.099  0.4616 -0.7057  0.0296
 1826SOL     OW 7349   2.266   3.987   2.992  0.2458 -0.0327  0.0472
 1826SOL    HW2 7350   2.352   3.949   3.012  0.7414  1.1822  0.2759
 1826SOL    HW3 7351   2.207   3.947   3.055  0.5117 -1.3816 -0.5395
 1826SOL    MW4 7352   2.270   3.976   3.003  0.3462 -0.0505  0.0000
 1827SOL     OW 7353   2.253   4.257   3.080 -0.3406 -0.7739  0.6373
 1827SOL    HW2 7354   2.258   4.169   3.042  1.4254 -0.8234  0.9162
 1827SOL    HW3 7355   2.173   4.295   3.044 -0.8661 -2.3268  0.1391
 1827SOL    MW4 7356   2.243   4.250   3.070 -0.1769 -0.9851  0.6080
 1828SOL     OW 7357   2.483   4.412   3.012 -0.0911 -0.0225  0.3497
 1828SOL    HW2 7358   2.410   4.361   3.045 -0.0351 -0.8689 -0.8046
 1828SOL    HW3 7359   2.475   4.407   2.916  0.6684  1.0288  0.2215
 1828SOL    MW4 7360   2.472   4.405   3.003  0.0165  0.0052  0.1805
 1829SOL     OW 7361   2.937   4.652   3.121 -0.4047  0.2787  0.1846
 1829SOL    HW2 7362   3.004   4.712   3.089  0.1700 -0.4834 -0.0452
 1829SOL    HW3 7363   2.951   4.571   3.072 -1.7598  0.2407 -0.1806
 1829SOL    MW4 7364   2.948   4.649   3.111 -0.5076  0.1731  0.1063
 1830SOL     OW 7365   2.704   0.083   3.011  0.2399  0.1684 -0.1418
 1830SOL    HW2 7366   2.777   0.033   3.049  1.3407  2.1202  0.3576
 1830SOL    HW3 7367   2.626   0.046   3.052  0.8638 -2.2374 -0.9841
 1830SOL    MW4 7368   2.703   0.071   3.021  0.4673  0.1085 -0.1872
 1831SOL     OW 7369   2.710   0.356   3.126 -0.1530 -0.4310 -0.2851
 1831SOL    HW2 7370   2.705   0.269   3.087  2.2878 -0.6655 -0.1896
 1831SOL    HW3 7371   2.775   0.402   3.073 -1.1463  1.2252 -0.1053
 1831SOL    MW4 7372   2.718   0.350   3.114  0.0379 -0.2434 -0.2487
 1832SOL     OW 7373   2.899   0.519   3.003 -0.6788 -0.2992 -0.1209
 1832SOL    HW2 7374   2.977   0.479   3.042 -0.4557  0.1630 -0.0845
 1832SOL    HW3 7375   2.918   0.522   2.909 -1.2003 -1.3783 -0.2603
 1832SOL    MW4 7376   2.912   0.514   2.995 -0.7184 -0.3806 -0.1345
 1833SOL     OW 7377   2.907   0.756   3.133 -0.4637  0.1046 -0.0330
 1833SOL    HW2 7378   2.885   0.669   3.099  0.2021  0.6473 -1.9500
 1833SOL    HW3 7379   2.908   0.745   3.228 -0.8938 -1.8589 -0.2264
 1833SOL    MW4 7380   2.904   0.743   3.141 -0.4323 -0.0829 -0.3114
 1834SOL     OW 7381   2.714   0.940   3.002 -0.0120 -0.4489 -0.1825
 1834SOL    HW2 7382   2.722   1.030   3.032 -0.6552 -0.6576  0.6257
 1834SOL    HW3 7383   2.778   0.892   3.054  1.1991 -0.2629 -1.4716
 1834SOL    MW4 7384   2.723   0.946   3.013  0.0629 -0.4519 -0.2460
 1835SOL     OW 7385   2.707   1.190   3.107  0.2664 -0.1449  0.0763
 1835SOL    HW2 7386   2.783   1.228   3.065  1.0738  0.2562  1.8598
 1835SOL    HW3 7387   2.632   1.233   3.066  1.0343  0.1948 -0.9636
 1835SOL    MW4 7388   2.707   1.200   3.096  0.4745 -0.0472  0.1743
 1836SOL     OW 7389   2.940   1.308   3.010  0.1463  0.1509 -0.2146
 1836SOL    HW2 7390   3.024   1.282   3.049 -1.0679 -0.9532  1.7501
 1836SOL    HW3 7391   2.921   1.394   3.048  0.4152  0.4253 -0.7018
 1836SOL    MW4 7392   2.949   1.316   3.020  0.0217  0.0415 -0.0200
 1837SOL     OW 7393   2.888   1.563   3.121 -0.0038  0.2746  0.0751
 1837SOL    HW2 7394   2.890   1.562   3.217 -1.1909  0.8351  0.1215
 1837SOL    HW3 7395   2.969   1.608   3.096  0.6010 -0.3953  0.7893
 1837SOL    MW4 7396   2.899   1.569   3.131 -0.0808  0.2601  0.1752
 1838SOL     OW 7397   2.670   1.678   3.001 -0.3403  0.1272 -0.0110
 1838SOL    HW2 7398   2.740   1.623   3.036 -0.7319 -1.2435 -1.3396
 1838SOL    HW3 7399   2.593   1.653   3.053 -0.7466 -1.3460 -1.2804
 1838SOL    MW4 7400   2.669   1.667   3.013 -0.4456 -0.2481 -0.3538
 1839SOL     OW 7401   2.673   1.933   3.115  0.2916 -0.0146  0.3516
 1839SOL    HW2 7402   2.752   1.974   3.080  0.2081 -0.3906 -0.2850
 1839SOL    HW3 7403   2.668   1.848   3.070 -1.0652  0.4645 -0.4356
 1839SOL    MW4 7404   2.683   1.927   3.105  0.1016 -0.0010  0.1640
 1840SOL     OW 7405   2.893   2.044   2.997  0.1753 -0.4569  0.2166
 1840SOL    HW2 7406   2.907   2.133   3.027  0.4564 -0.5228  0.2883
 1840SOL    HW3 7407   2.881   2.052   2.903  1.1732 -0.4402  0.0830
 1840SOL    MW4 7408   2.893   2.057   2.989  0.3443 -0.4635  0.2086
 1841SOL     OW 7409   2.906   2.308   3.080 -0.2703  0.5847 -0.0122
 1841SOL    HW2 7410   2.981   2.362   3.055 -0.3306  0.1904 -1.0444
 1841SOL    HW3 7411   2.831   2.366   3.069 -0.0683  1.2257  1.7558
 1841SOL    MW4 7412   2.906   2.323   3.076 -0.2513  0.6173  0.0846
 1842SOL     OW 7413   2.691   2.477   3.035 -0.3872  0.3894 -0.1084
 1842SOL    HW2 7414   2.684   2.568   3.067 -1.0553  0.2632  0.1083
 1842SOL    HW3 7415   2.605   2.439   3.052 -0.0090 -0.3860  0.0970
 1842SOL    MW4 7416   2.679   2.484   3.042 -0.4251  0.2706 -0.0527
 1843SOL     OW 7417   2.708   2.756   3.076 -0.1740  0.4716 -0.2093
 1843SOL    HW2 7418   2.709   2.758   3.172 -0.3452  1.8602 -0.2179
 1843SOL    HW3 7419   2.619   2.783   3.052  0.0408  0.6991 -0.7671
 1843SOL    MW4 7420   2.697   2.760   3.085 -0.1681  0.6850 -0.2842
 1844SOL     OW 7421   2.944   2.850   3.010 -0.1489 -0.2613 -0.8371
 1844SOL    HW2 7422   3.002   2.787   3.054 -0.5725 -0.3423 -0.3905
 1844SOL    HW3 7423   2.856   2.824   3.037 -0.2177  1.8334  1.0633
 1844SOL    MW4 7424   2.940   2.838   3.019 -0.2141  0.0043 -0.5276
 1845SOL     OW 7425   2.940   3.115   3.102  0.0375 -0.1121 -0.4318
 1845SOL    HW2 7426   2.854   3.140   3.070  0.6397 -0.1377 -2.0905
 1845SOL    HW3 7427   2.956   3.029   3.064  0.5382 -0.3754  0.3647
 1845SOL    MW4 7428   2.931   3.107   3.093  0.1831 -0.1502 -0.5455
 1846SOL     OW 7429   2.681   3.203   3.009  0.3250 -0.1459  0.3862
 1846SOL    HW2 7430   2.690   3.297   3.019  1.4076 -0.2630  0.5763
 1846SOL    HW3 7431   2.701   3.186   2.917 -1.9417  0.0398 -0.1590
 1846SOL    MW4 7432   2.685   3.213   2.998  0.1688 -0.1371  0.3393
 1847SOL     OW 7433   2.714   3.478   3.067 -0.1696  0.3100  0.1645
 1847SOL    HW2 7434   2.729   3.478   3.162  2.9305 -1.3011 -0.2519
 1847SOL    HW3 7435   2.792   3.522   3.031 -0.2515 -1.0596 -1.7415
 1847SOL    MW4 7436   2.727   3.484   3.075  0.2286 -0.0834 -0.1421
 1848SOL     OW 7437   2.930   3.600   2.976  0.2887  0.0372 -0.6418
 1848SOL    HW2 7438   3.014   3.558   2.992 -0.3185 -1.6464 -1.7733
 1848SOL    HW3 7439   2.934   3.681   3.026  2.2089 -0.4788  0.0780
 1848SOL    MW4 7440   2.942   3.605   2.984  0.4621 -0.2527 -0.6962
 1849SOL     OW 7441   2.938   3.839   3.101  0.3026  0.2793 -0.4870
 1849SOL    HW2 7442   2.930   3.835   3.196  0.9262  0.0699 -0.4421
 1849SOL    HW3 7443   2.855   3.877   3.071 -0.4541 -0.8885  0.0501
 1849SOL    MW4 7444   2.926   3.843   3.109  0.2851  0.0978 -0.4103
 1850SOL     OW 7445   2.712   3.986   3.015 -0.2934 -0.1648  0.0230
 1850SOL    HW2 7446   2.703   4.073   3.053 -1.4245 -0.5545  0.6732
 1850SOL    HW3 7447   2.716   4.002   2.921  1.5807  0.7334  0.2329
 1850SOL    MW4 7448   2.711   4.000   3.007 -0.1953 -0.0975  0.1364
 1851SOL     OW 7449   2.714   4.254   3.088 -0.5918  0.3048  0.1498
 1851SOL    HW2 7450   2.734   4.270   3.180  1.5558 -0.1002 -0.2089
 1851SOL    HW3 7451   2.644   4.316   3.067  1.4776  3.0286  1.0711
 1851SOL    MW4 7452   2.707   4.264   3.097 -0.0355  0.6108  0.2239
 1852SOL     OW 7453   2.932   4.410   2.966 -0.0811  0.3247 -0.2385
 1852SOL    HW2 7454   3.002   4.367   3.016  0.6491 -0.4860 -1.9236
 1852SOL    HW3 7455   2.853   4.361   2.990  0.1421  0.3988  0.6700
 1852SOL    MW4 7456   2.931   4.398   2.976  0.0446  0.2275 -0.3409
 1853SOL     OW 7457   3.370   0.009   3.066 -0.0117 -0.1811  0.0790
 1853SOL    HW2 7458   3.380  -0.018   3.158 -2.3586 -0.7101  0.2293
 1853SOL    HW3 7459   3.371  -0.074   3.017  0.5896  0.0540 -0.3094
 1853SOL    MW4 7460   3.371  -0.006   3.072 -0.2420 -0.2199  0.0477
 1854SOL     OW 7461   3.134   0.170   3.041  0.7202 -0.1260 -0.1258
 1854SOL    HW2 7462   3.147   0.261   3.070 -0.2787  0.5885 -1.8833
 1854SOL    HW3 7463   3.220   0.130   3.049  1.1316  0.9206  0.8411
 1854SOL    MW4 7464   3.147   0.177   3.046  0.6430  0.1064 -0.2303
 1855SOL     OW 7465   3.151   0.470   3.111  0.1026 -0.0104  0.0525
 1855SOL    HW2 7466   3.242   0.461   3.082 -0.1392 -1.9649 -0.2244
 1855SOL    HW3 7467   3.153   0.443   3.203  0.0613  1.4750  0.4927
 1855SOL    MW4 7468   3.163   0.465   3.119  0.0651 -0.0723  0.0741
 1856SOL     OW 7469   3.409   0.555   3.023 -0.1437  0.0460  0.0738
 1856SOL    HW2 7470   3.476   0.503   3.068 -0.4063  0.7894  1.3564
 1856SOL    HW3 7471   3.412   0.524   2.932  0.1196 -1.7663  0.6774
 1856SOL    MW4 7472   3.418   0.544   3.017 -0.1440 -0.0951  0.3226
 1857SOL     OW 7473   3.340   0.818   3.084 -0.0405 -0.1739  0.0294
 1857SOL    HW2 7474   3.338   0.822   3.180 -1.2567  0.0261  0.0056
 1857SOL    HW3 7475   3.331   0.725   3.063 -0.0681 -0.1893  0.1095
 1857SOL    MW4 7476   3.339   0.807   3.094 -0.2046 -0.1496  0.0370
 1858SOL     OW 7477   3.094   0.902   2.996  0.2693 -0.0711  0.7770
 1858SOL    HW2 7478   3.176   0.864   3.027  0.2932 -2.4114 -1.9430
 1858SOL    HW3 7479   3.026   0.850   3.039  0.2379  0.0111  0.8268
 1858SOL    MW4 7480   3.096   0.890   3.006  0.2680 -0.3690  0.4246
 1859SOL     OW 7481   3.149   1.164   3.104  0.5423  0.4300 -0.1589
 1859SOL    HW2 7482   3.243   1.182   3.093  1.1394 -1.8313  0.9183
 1859SOL    HW3 7483   3.141   1.071   3.082 -1.0578  0.0313  2.0349
 1859SOL    MW4 7484   3.161   1.154   3.099  0.4101  0.0789  0.2725
 1860SOL     OW 7485   3.376   1.265   3.006  0.4934  0.4663 -0.3970
 1860SOL    HW2 7486   3.438   1.219   3.062  0.3637  0.6059 -0.1402
 1860SOL    HW3 7487   3.367   1.352   3.046 -1.3203 -0.1738  0.6488
 1860SOL    MW4 7488   3.383   1.271   3.018  0.2370  0.4002 -0.2251
 1861SOL     OW 7489   3.353   1.494   3.126  0.4593 -0.5444  0.3183
 1861SOL    HW2 7490   3.337   1.505   3.220  1.2965 -0.2598  0.4329
 1861SOL    HW3 7491   3.435   1.540   3.110  0.8396 -1.4320 -0.3582
 1861SOL    MW4 7492   3.362   1.501   3.136  0.6199 -0.6239  0.2444
 1862SOL     OW 7493   3.137   1.640   3.029  0.2069  0.5346  0.0192
 1862SOL    HW2 7494   3.210   1.582   3.049  0.0402  0.1782 -0.3928
 1862SOL    HW3 7495   3.127   1.634   2.934 -2.8065 -2.3988  0.4265
 1862SOL    MW4 7496   3.146   1.631   3.019 -0.2129  0.1006  0.0188
 1863SOL     OW 7497   3.149   1.905   3.089  0.3746  0.5130 -0.2492
 1863SOL    HW2 7498   3.161   1.814   3.061 -0.3849 -0.2175  1.7069
 1863SOL    HW3 7499   3.060   1.927   3.061  1.1692  1.2678 -2.2824
 1863SOL    MW4 7500   3.139   1.896   3.081  0.3793  0.5162 -0.2594
 1864SOL     OW 7501   3.369   2.042   2.994  0.6747  0.2289 -0.3665
 1864SOL    HW2 7502   3.434   1.986   3.036  0.5127 -0.0592 -0.4960
 1864SOL    HW3 7503   3.285   2.006   3.022  0.5471 -0.6547 -1.8101
 1864SOL    MW4 7504   3.367   2.030   3.003  0.6363  0.0744 -0.5741
 1865SOL     OW 7505   3.374   2.312   3.088  0.2128  0.1439  0.3706
 1865SOL    HW2 7506   3.365   2.317   3.183 -0.2799  0.4587  0.3121
 1865SOL    HW3 7507   3.376   2.219   3.068  2.0581  0.0754  0.8456
 1865SOL    MW4 7508   3.373   2.300   3.098  0.3910  0.1764  0.4253
 1866SOL     OW 7509   3.151   2.449   2.989 -0.4383  0.1142 -0.2285
 1866SOL    HW2 7510   3.221   2.391   3.020 -0.2120  0.3268 -0.3415
 1866SOL    HW3 7511   3.156   2.443   2.894  0.1669  1.0154 -0.2555
 1866SOL    MW4 7512   3.161   2.440   2.981 -0.3283  0.2613 -0.2470
 1867SOL     OW 7513   3.146   2.703   3.106 -0.3923 -0.2619 -0.2337
 1867SOL    HW2 7514   3.155   2.709   3.201 -1.5615 -1.0213 -0.0612
 1867SOL    HW3 7515   3.178   2.615   3.085 -0.3032 -0.1609 -0.5304
 1867SOL    MW4 7516   3.152   2.692   3.115 -0.5350 -0.3490 -0.2501
 1868SOL     OW 7517   3.376   2.833   3.025  0.1135  0.3307 -0.0425
 1868SOL    HW2 7518   3.379   2.924   3.055 -0.4753  0.1063  0.7254
 1868SOL    HW3 7519   3.290   2.802   3.053  0.2162 -0.3966 -0.5124
 1868SOL    MW4 7520   3.365   2.841   3.033  0.0496  0.2053 -0.0031
 1869SOL     OW 7521   3.397   3.094   3.123  0.0520 -0.2241 -0.7536
 1869SOL    HW2 7522   3.379   3.110   3.216  1.7398  0.2979 -0.5023
 1869SOL    HW3 7523   3.320   3.130   3.078 -0.2504  0.5794  0.3642
 1869SOL    MW4 7524   3.384   3.101   3.130  0.2348 -0.0494 -0.5729
 1870SOL     OW 7525   3.177   3.221   3.025 -0.7417  0.1043  0.3727
 1870SOL    HW2 7526   3.094   3.184   3.056 -1.6671  1.9464  0.1322
 1870SOL    HW3 7527   3.174   3.211   2.930  0.0434 -1.2853  0.4749
 1870SOL    MW4 7528   3.166   3.214   3.017 -0.7601  0.1640  0.3548
 1871SOL     OW 7529   3.158   3.486   3.096 -0.3279 -0.4666 -0.1884
 1871SOL    HW2 7530   3.234   3.522   3.050  0.2048 -1.6183 -0.2223
 1871SOL    HW3 7531   3.162   3.392   3.080 -0.6020 -0.7958  1.5261
 1871SOL    MW4 7532   3.168   3.478   3.088 -0.2937 -0.6621  0.0334
 1872SOL     OW 7533   3.372   3.605   2.977  0.1866  0.4590 -0.1867
 1872SOL    HW2 7534   3.451   3.564   3.013 -0.0100 -0.4342 -0.7731
 1872SOL    HW3 7535   3.370   3.691   3.019  0.7181 -0.0330  0.8864
 1872SOL    MW4 7536   3.382   3.611   2.988  0.2308  0.2763 -0.1225
 1873SOL     OW 7537   3.379   3.857   3.094 -0.0673  0.3477 -0.1330
 1873SOL    HW2 7538   3.379   3.852   3.190 -0.2241  0.0238 -0.1500
 1873SOL    HW3 7539   3.303   3.909   3.072 -0.1927  0.1821 -0.0932
 1873SOL    MW4 7540   3.369   3.863   3.104 -0.1047  0.2832 -0.1302
 1874SOL     OW 7541   3.142   4.035   3.057  0.2352  0.5240  0.1949
 1874SOL    HW2 7542   3.060   3.987   3.072 -0.0848  1.4826  1.6501
 1874SOL    HW3 7543   3.150   4.040   2.961 -1.4238  0.4284  0.0338
 1874SOL    MW4 7544   3.132   4.030   3.046 -0.0260  0.6375  0.3655
 1875SOL     OW 7545   3.124   4.308   3.139 -0.1794 -0.4535 -0.1367
 1875SOL    HW2 7546   3.127   4.307   3.235  1.3730  0.4321 -0.1646
 1875SOL    HW3 7547   3.126   4.215   3.114 -0.3913 -0.6822  0.6827
 1875SOL    MW4 7548   3.125   4.295   3.148 -0.0024 -0.3667 -0.0327
 1876SOL     OW 7549   3.363   4.373   3.004  0.0566 -0.3899 -0.1210
 1876SOL    HW2 7550   3.446   4.345   3.041 -0.0246 -0.6760 -0.1554
 1876SOL    HW3 7551   3.297   4.342   3.066 -0.0005  0.1928  0.1178
 1876SOL    MW4 7552   3.365   4.365   3.017  0.0381 -0.3510 -0.0939
 1877SOL     OW 7553   3.854   0.003   3.135  0.5111 -0.3537 -0.2860
 1877SOL    HW2 7554   3.844  -0.090   3.113  0.8801 -0.6218  0.6504
 1877SOL    HW3 7555   3.781   0.046   3.090  0.1821 -1.1334 -0.5118
 1877SOL    MW4 7556   3.843  -0.004   3.126  0.5162 -0.4916 -0.1922
 1878SOL     OW 7557   3.638   0.148   3.004 -0.3996  0.6043 -0.2406
 1878SOL    HW2 7558   3.549   0.124   3.028 -0.3853  1.4869  0.7141
 1878SOL    HW3 7559   3.642   0.132   2.909 -1.3989  0.0541 -0.2005
 1878SOL    MW4 7560   3.627   0.142   2.994 -0.5295  0.6481 -0.1094
 1879SOL     OW 7561   3.599   0.401   3.155 -0.0013  0.8555 -0.1719
 1879SOL    HW2 7562   3.682   0.439   3.127  0.5117  0.2569  0.5230
 1879SOL    HW3 7563   3.605   0.309   3.129  0.1653  0.4714  1.1864
 1879SOL    MW4 7564   3.611   0.394   3.147  0.0885  0.7259  0.0992
 1880SOL     OW 7565   3.840   0.491   3.031  0.0730  0.2018  0.2545
 1880SOL    HW2 7566   3.897   0.435   3.085 -1.2234 -0.4172  1.0046
 1880SOL    HW3 7567   3.855   0.579   3.064  0.2130 -0.0219  0.7997
 1880SOL    MW4 7568   3.850   0.495   3.043 -0.0799  0.0906  0.4256
 1881SOL     OW 7569   3.809   0.756   3.104 -0.4814 -0.1997 -0.4689
 1881SOL    HW2 7570   3.814   0.754   3.200  0.4717  1.0890 -0.4822
 1881SOL    HW3 7571   3.889   0.800   3.077 -0.3386 -1.2965 -1.9123
 1881SOL    MW4 7572   3.820   0.761   3.113 -0.3369 -0.1743 -0.6611
 1882SOL     OW 7573   3.585   0.887   2.999  0.1355  0.4688 -0.1593
 1882SOL    HW2 7574   3.647   0.826   3.039 -1.6157 -1.4694 -0.3350
 1882SOL    HW3 7575   3.500   0.844   3.008 -0.9290  2.2129 -1.6398
 1882SOL    MW4 7576   3.582   0.873   3.005 -0.2360  0.4432 -0.3777
 1883SOL     OW 7577   3.581   1.151   3.133 -0.7879  0.6363  0.3105
 1883SOL    HW2 7578   3.645   1.199   3.081 -2.5042  1.2116 -1.3093
 1883SOL    HW3 7579   3.590   1.060   3.103  0.0069  0.5278  0.8617
 1883SOL    MW4 7580   3.591   1.145   3.122 -0.9096  0.6979  0.1693
 1884SOL     OW 7581   3.814   1.281   3.025 -0.2255  0.2707  0.1798
 1884SOL    HW2 7582   3.816   1.374   3.048 -0.1705  0.6200 -1.1789
 1884SOL    HW3 7583   3.810   1.280   2.929  2.1581 -1.1440  0.0442
 1884SOL    MW4 7584   3.814   1.293   3.015  0.0963  0.1302 -0.0172
 1885SOL     OW 7585   3.811   1.539   3.118 -0.5595 -0.4918 -0.0531
 1885SOL    HW2 7586   3.797   1.524   3.211 -0.5317  0.6361  0.1485
 1885SOL    HW3 7587   3.727   1.574   3.086  0.0107  0.9708 -0.0202
 1885SOL    MW4 7588   3.798   1.542   3.126 -0.4807 -0.1500 -0.0224
 1886SOL     OW 7589   3.573   1.635   3.038  0.2615 -0.0550  0.0695
 1886SOL    HW2 7590   3.579   1.727   3.065  0.1663 -0.0345  0.0193
 1886SOL    HW3 7591   3.577   1.638   2.942 -0.5335 -0.0467  0.0367
 1886SOL    MW4 7592   3.574   1.648   3.029  0.1440 -0.0511  0.0587
 1887SOL     OW 7593   3.610   1.916   3.106 -0.4480  0.5094 -0.2845
 1887SOL    HW2 7594   3.614   1.939   3.199  0.7980  1.5592 -0.5831
 1887SOL    HW3 7595   3.685   1.961   3.067 -0.1596 -1.0217 -1.5598
 1887SOL    MW4 7596   3.621   1.925   3.113 -0.2460  0.4458 -0.4919
 1888SOL     OW 7597   3.848   2.022   2.983 -0.1087 -0.4163  0.2292
 1888SOL    HW2 7598   3.841   2.112   3.013  1.0299 -0.4823  0.7121
 1888SOL    HW3 7599   3.815   2.024   2.893 -0.3999  0.4129  0.3513
 1888SOL    MW4 7600   3.842   2.034   2.975  0.0031 -0.3157  0.3090
 1889SOL     OW 7601   3.794   2.272   3.127 -0.1157 -0.1817 -0.2386
 1889SOL    HW2 7602   3.797   2.279   3.222 -0.5544 -0.7665 -0.1775
 1889SOL    HW3 7603   3.722   2.329   3.101  0.8432  1.0118 -0.3376
 1889SOL    MW4 7604   3.785   2.280   3.136 -0.0474 -0.1016 -0.2432
 1890SOL     OW 7605   3.601   2.438   3.001  0.1453  0.0324 -0.1939
 1890SOL    HW2 7606   3.594   2.521   3.048  1.9596 -0.4137  0.9220
 1890SOL    HW3 7607   3.522   2.390   3.026 -0.1146  0.7796  0.4368
 1890SOL    MW4 7608   3.589   2.442   3.011  0.3505  0.0722  0.0365
 1891SOL     OW 7609   3.584   2.696   3.121 -0.4945  0.1495 -0.2799
 1891SOL    HW2 7610   3.657   2.741   3.079 -0.1564  1.2261  1.4144
 1891SOL    HW3 7611   3.506   2.743   3.091 -0.2673  0.8148  0.1690
 1891SOL    MW4 7612   3.583   2.708   3.112 -0.4199  0.3793  0.0026
 1892SOL     OW 7613   3.834   2.807   3.020  0.1359  0.2640  0.1659
 1892SOL    HW2 7614   3.836   2.890   3.067  1.7317  0.1510  0.3274
 1892SOL    HW3 7615   3.848   2.831   2.928  0.5008  0.1848  0.2004
 1892SOL    MW4 7616   3.836   2.821   3.014  0.3948  0.2384  0.1919
 1893SOL     OW 7617   3.855   3.107   3.107  0.1484 -0.0203 -0.1436
 1893SOL    HW2 7618   3.933   3.155   3.079  0.6479 -0.8062 -0.0956
 1893SOL    HW3 7619   3.783   3.149   3.059  0.7342 -0.0053 -1.0284
 1893SOL    MW4 7620   3.855   3.119   3.097  0.2918 -0.1221 -0.2539
 1894SOL     OW 7621   3.608   3.242   3.053  0.3260  0.3372 -0.6044
 1894SOL    HW2 7622   3.533   3.198   3.093  0.8367  0.7791  0.8344
 1894SOL    HW3 7623   3.583   3.251   2.960 -0.7961 -0.7873 -0.4248
 1894SOL    MW4 7624   3.595   3.237   3.046  0.2453  0.2472 -0.3910
 1895SOL     OW 7625   3.595   3.519   3.104 -0.3027  0.4492 -0.2860
 1895SOL    HW2 7626   3.668   3.557   3.056  0.1745  2.0568  1.6151
 1895SOL    HW3 7627   3.609   3.424   3.098 -0.4601  0.5860 -3.5151
 1895SOL    MW4 7628   3.607   3.512   3.097 -0.2604  0.6793 -0.4613
 1896SOL     OW 7629   3.811   3.667   3.007  0.1665 -0.2816 -0.2011
 1896SOL    HW2 7630   3.796   3.759   3.027 -0.6160 -0.2456 -0.9227
 1896SOL    HW3 7631   3.837   3.666   2.915  1.8388 -0.6252  0.2602
 1896SOL    MW4 7632   3.812   3.679   2.998  0.2840 -0.3223 -0.2356
 1897SOL     OW 7633   3.811   3.937   3.108 -0.5544  0.3025  0.2720
 1897SOL    HW2 7634   3.806   3.930   3.203  1.4739 -0.4412  0.3582
 1897SOL    HW3 7635   3.727   3.974   3.081 -0.5719  1.8985  2.4806
 1897SOL    MW4 7636   3.799   3.941   3.117 -0.2892  0.4151  0.5746
 1898SOL     OW 7637   3.576   4.028   3.019 -0.3410  0.5537 -0.2486
 1898SOL    HW2 7638   3.522   3.959   3.057 -0.5914  1.1106  0.4192
 1898SOL    HW3 7639   3.582   4.005   2.926 -2.0263  0.6513 -0.4098
 1898SOL    MW4 7640   3.570   4.016   3.012 -0.5965  0.6399 -0.1817
 1899SOL     OW 7641   3.594   4.284   3.133  0.1443 -0.4206 -0.2514
 1899SOL    HW2 7642   3.675   4.319   3.096  0.9683 -1.6007  0.3681
 1899SOL    HW3 7643   3.594   4.192   3.107 -0.6519 -0.6012  0.3500
 1899SOL    MW4 7644   3.605   4.276   3.125  0.1481 -0.6003 -0.0904
 1900SOL     OW 7645   3.810   4.428   3.041  0.0600 -0.0755 -0.0265
 1900SOL    HW2 7646   3.880   4.367   3.062 -1.5786 -2.3577 -1.0260
 1900SOL    HW3 7647   3.801   4.423   2.946  0.0422  1.9161 -0.1605
 1900SOL    MW4 7648   3.818   4.419   3.031 -0.1585 -0.1135 -0.1760
 1901SOL     OW 7649   4.313   4.618   3.174  0.2268  0.0258  0.4580
 1901SOL    HW2 7650   4.294   4.616   3.268 -0.9779 -0.1769  0.2191
 1901SOL    HW3 7651   4.297   4.528   3.145 -2.2521  0.7338 -0.4815
 1901SOL    MW4 7652   4.309   4.606   3.183 -0.2599  0.0925  0.3028
 1902SOL     OW 7653   4.096   0.097   3.061 -0.2826  0.5033 -0.3036
 1902SOL    HW2 7654   4.159   0.039   3.102 -1.2712 -0.8826 -0.6844
 1902SOL    HW3 7655   4.010   0.060   3.084 -0.8802  0.4326 -2.4831
 1902SOL    MW4 7656   4.093   0.085   3.069 -0.4916  0.3111 -0.6413
 1903SOL     OW 7657   4.052   0.359   3.155 -0.3017 -0.0746  0.0282
 1903SOL    HW2 7658   4.133   0.404   3.129 -0.4660  0.0068 -0.3446
 1903SOL    HW3 7659   4.065   0.268   3.128 -0.6800  0.1157 -0.8087
 1903SOL    MW4 7660   4.064   0.353   3.148 -0.3729 -0.0387 -0.1316
 1904SOL     OW 7661   4.278   0.502   3.051 -0.1223 -0.2418 -0.1404
 1904SOL    HW2 7662   4.276   0.593   3.080 -2.2463 -0.2579 -0.1960
 1904SOL    HW3 7663   4.269   0.505   2.956 -0.1002 -0.5170 -0.1538
 1904SOL    MW4 7664   4.277   0.514   3.043 -0.3991 -0.2802 -0.1495
 1905SOL     OW 7665   4.288   0.770   3.121  0.0495  0.5170  0.1896
 1905SOL    HW2 7666   4.211   0.814   3.084 -0.3441 -0.5175 -0.2400
 1905SOL    HW3 7667   4.362   0.821   3.089 -0.4400  1.2373  0.2040
 1905SOL    MW4 7668   4.287   0.782   3.112 -0.0672  0.4755  0.1347
 1906SOL     OW 7669   4.034   0.870   3.037 -0.2492 -0.1018 -0.0815
 1906SOL    HW2 7670   4.003   0.953   3.071 -0.1721 -0.5286  1.0533
 1906SOL    HW3 7671   4.041   0.883   2.942 -0.7425  1.0049  0.0371
 1906SOL    MW4 7672   4.031   0.882   3.029 -0.3037 -0.0121  0.0837
 1907SOL     OW 7673   4.036   1.158   3.113 -0.4584 -0.2455  0.1875
 1907SOL    HW2 7674   4.045   1.174   3.207 -0.2633  0.8032 -0.0133
 1907SOL    HW3 7675   3.958   1.205   3.087 -1.6022 -2.0971  0.1789
 1907SOL    MW4 7676   4.027   1.166   3.122 -0.5836 -0.3514  0.1600
 1908SOL     OW 7677   4.276   1.231   2.985  0.4382 -0.4657  0.0171
 1908SOL    HW2 7678   4.193   1.200   3.020 -0.0094  0.7486  0.0495
 1908SOL    HW3 7679   4.273   1.207   2.892 -0.1651  0.0183 -0.0908
 1908SOL    MW4 7680   4.265   1.223   2.977  0.2995 -0.2416  0.0074
 1909SOL     OW 7681   4.293   1.503   3.055  0.4184 -0.4210 -0.0995
 1909SOL    HW2 7682   4.214   1.538   3.013  0.2215  0.6146  1.1255
 1909SOL    HW3 7683   4.293   1.410   3.029  0.3135  0.1744 -2.3799
 1909SOL    MW4 7684   4.282   1.495   3.046  0.3786 -0.2059 -0.2389
 1910SOL     OW 7685   4.051   1.653   3.005  0.4149 -0.1501 -0.3949
 1910SOL    HW2 7686   4.045   1.742   3.040  0.9172 -0.5630  0.7801
 1910SOL    HW3 7687   3.980   1.605   3.049 -0.4532 -0.1094 -1.7285
 1910SOL    MW4 7688   4.041   1.658   3.015  0.3662 -0.1992 -0.4158
 1911SOL     OW 7689   4.052   1.913   3.104 -0.1503  0.0756  0.3427
 1911SOL    HW2 7690   4.133   1.960   3.083 -0.2515 -0.3194 -0.9797
 1911SOL    HW3 7691   3.986   1.953   3.048 -0.7560 -0.0183  0.9761
 1911SOL    MW4 7692   4.054   1.925   3.094 -0.2437  0.0111  0.2518
 1912SOL     OW 7693   4.295   2.037   3.041 -0.1084  0.3364  0.2072
 1912SOL    HW2 7694   4.268   2.119   3.082  1.0924  1.4240 -1.1315
 1912SOL    HW3 7695   4.271   2.047   2.949  0.2975 -0.7015 -0.0188
 1912SOL    MW4 7696   4.289   2.049   3.034  0.1035  0.3428  0.0007
 1913SOL     OW 7697   4.262   2.291   3.134  0.3479  0.0386  0.5259
 1913SOL    HW2 7698   4.182   2.324   3.093  0.6348 -0.2046 -0.2240
 1913SOL    HW3 7699   4.332   2.346   3.098  0.7537 -1.0015 -0.2745
 1913SOL    MW4 7700   4.261   2.303   3.124  0.4396 -0.1307  0.3211
 1914SOL     OW 7701   4.032   2.396   3.001  0.0118  0.4583  0.3849
 1914SOL    HW2 7702   4.034   2.486   3.034 -2.0752  0.5694  0.3124
 1914SOL    HW3 7703   3.953   2.358   3.040  0.1378 -0.9212 -0.6493
 1914SOL    MW4 7704   4.022   2.403   3.011 -0.2475  0.2913  0.2387
 1915SOL     OW 7705   4.065   2.666   3.083 -0.7725 -0.3958  0.3313
 1915SOL    HW2 7706   4.061   2.661   3.179 -1.6652  0.3995  0.3518
 1915SOL    HW3 7707   3.985   2.713   3.059  0.3817  1.0746 -0.6848
 1915SOL    MW4 7708   4.054   2.671   3.092 -0.7381 -0.0966  0.1996
 1916SOL     OW 7709   4.255   2.846   3.033  0.1349  0.2192  0.0760
 1916SOL    HW2 7710   4.186   2.788   3.066  1.1312 -0.7331  0.4783
 1916SOL    HW3 7711   4.336   2.797   3.044  0.7550  0.8399 -1.5705
 1916SOL    MW4 7712   4.256   2.832   3.038  0.3486  0.1755 -0.0880
 1917SOL     OW 7713   4.295   3.112   3.100  0.0138 -0.2263  0.2598
 1917SOL    HW2 7714   4.227   3.163   3.057 -0.1296  0.0809  0.8393
 1917SOL    HW3 7715   4.281   3.022   3.070  0.8685  0.2209 -1.5298
 1917SOL    MW4 7716   4.284   3.107   3.091  0.1078 -0.1266  0.1001
 1918SOL     OW 7717   4.068   3.254   2.997 -0.7143 -0.2046  0.1429
 1918SOL    HW2 7718   4.038   3.340   3.028 -1.2216 -0.3253  0.0001
 1918SOL    HW3 7719   4.050   3.255   2.903  2.0716  0.6772 -0.4128
 1918SOL    MW4 7720   4.061   3.266   2.988 -0.4139 -0.1042  0.0508
 1919SOL     OW 7721   4.020   3.498   3.112  0.0593 -0.2262 -0.9141
 1919SOL    HW2 7722   4.035   3.488   3.206  2.7440  0.0249 -1.2850
 1919SOL    HW3 7723   3.932   3.534   3.105 -0.9103 -2.0198  1.4226
 1919SOL    MW4 7724   4.010   3.501   3.123  0.2861 -0.4299 -0.6547
 1920SOL     OW 7725   4.236   3.633   2.987  0.1963  0.2352  0.2970
 1920SOL    HW2 7726   4.246   3.720   3.025  0.6572  0.6666 -0.8153
 1920SOL    HW3 7727   4.150   3.603   3.018 -0.4252  1.5085 -0.1734
 1920SOL    MW4 7728   4.226   3.640   2.996  0.1750  0.4599  0.0882
 1921SOL     OW 7729   4.255   3.888   3.118 -0.2562 -0.6047  0.4660
 1921SOL    HW2 7730   4.184   3.941   3.081 -0.4444 -0.0418  1.6299
 1921SOL    HW3 7731   4.335   3.927   3.083 -0.5444 -1.6998 -1.4499
 1921SOL    MW4 7732   4.256   3.900   3.109 -0.3195 -0.6747  0.3664
 1922SOL     OW 7733   4.042   4.041   2.989 -0.0084  0.0679 -0.0293
 1922SOL    HW2 7734   4.040   4.125   3.034 -2.5595  0.5487 -0.9706
 1922SOL    HW3 7735   3.960   3.998   3.015  0.2307 -1.1866 -1.3034
 1922SOL    MW4 7736   4.031   4.046   2.998 -0.3133 -0.0339 -0.3216
 1923SOL     OW 7737   4.033   4.278   3.129  0.1738  0.1475  0.1793
 1923SOL    HW2 7738   4.021   4.275   3.224  0.3261 -2.5466  0.1642
 1923SOL    HW3 7739   4.125   4.305   3.117  0.2853  0.0431  0.8043
 1923SOL    MW4 7740   4.044   4.281   3.140  0.2089 -0.2217  0.2596
 1924SOL     OW 7741   4.291   4.359   3.059 -0.3088  0.0234  0.2843
 1924SOL    HW2 7742   4.370   4.311   3.084  0.4512  1.2233  0.2165
 1924SOL    HW3 7743   4.294   4.363   2.964 -1.2279 -1.2066  0.1825
 1924SOL    MW4 7744   4.301   4.353   3.050 -0.3304  0.0191  0.2623
 1925SOL     OW 7745   0.163   4.641   3.371  0.6310 -0.8197 -0.1894
 1925SOL    HW2 7746   0.249   4.676   3.392  0.2012  0.3269 -0.2838
 1925SOL    HW3 7747   0.167   4.549   3.395  1.7267 -0.6580  0.2472
 1925SOL    MW4 7748   0.175   4.634   3.377  0.7188 -0.6475 -0.1442
 1926SOL     OW 7749   4.453   0.116   3.502  0.5142  0.0450  0.3328
 1926SOL    HW2 7750   4.457   0.201   3.457 -1.3908 -0.2032 -0.3692
 1926SOL    HW3 7751   4.533   0.072   3.476  0.5861  0.8656 -0.9282
 1926SOL    MW4 7752   4.464   0.122   3.492  0.2723  0.1205  0.0737
 1927SOL     OW 7753   4.468   0.358   3.393 -0.0601  0.3389  0.4237
 1927SOL    HW2 7754   4.395   0.413   3.422 -0.5929  0.5268 -1.2418
 1927SOL    HW3 7755   4.545   0.397   3.434 -0.6438  1.3554  0.5713
 1927SOL    MW4 7756   4.468   0.370   3.402 -0.2069  0.4978  0.2234
 1928SOL     OW 7757   0.195   0.472   3.501 -0.1305 -0.1956  0.1939
 1928SOL    HW2 7758   0.268   0.417   3.472 -0.5075 -1.0606  0.8546
 1928SOL    HW3 7759   0.211   0.557   3.461  0.8657 -0.5818 -0.2333
 1928SOL    MW4 7760   0.206   0.476   3.492 -0.0488 -0.3607  0.2244
 1929SOL     OW 7761   0.249   0.719   3.386  0.1936 -0.0834 -0.2945
 1929SOL    HW2 7762   0.327   0.763   3.419 -0.2205  0.7623 -0.4431
 1929SOL    HW3 7763   0.177   0.778   3.408 -0.6908 -1.8986  1.8623
 1929SOL    MW4 7764   0.250   0.732   3.393  0.0223 -0.2113 -0.0296
 1930SOL     OW 7765   0.051   0.884   3.471 -0.3925  0.1164 -0.4577
 1930SOL    HW2 7766   0.040   0.912   3.562  1.3764 -0.1026 -0.1606
 1930SOL    HW3 7767   0.039   0.963   3.420  0.6028  0.6285  0.1025
 1930SOL    MW4 7768   0.048   0.898   3.477 -0.0278  0.1552 -0.3445
 1931SOL     OW 7769   0.027   1.148   3.359 -0.5845 -0.0746  0.0858
 1931SOL    HW2 7770   0.098   1.197   3.400  0.2004 -1.6285  0.6091
 1931SOL    HW3 7771   0.042   1.158   3.265  0.6120 -0.8141  0.1960
 1931SOL    MW4 7772   0.038   1.156   3.352 -0.3231 -0.3773  0.1690
 1932SOL     OW 7773   0.227   1.300   3.472 -0.2508 -0.1215  0.1090
 1932SOL    HW2 7774   0.306   1.252   3.447 -0.9925 -1.1139 -0.3603
 1932SOL    HW3 7775   0.239   1.387   3.434  1.2488  0.1807  1.2361
 1932SOL    MW4 7776   0.239   1.305   3.463 -0.1508 -0.2127  0.1955
 1933SOL     OW 7777   0.231   1.567   3.388 -0.2202 -0.4085  0.0838
 1933SOL    HW2 7778   0.308   1.609   3.427 -0.4896  0.2120 -0.0576
 1933SOL    HW3 7779   0.251   1.563   3.294  0.1800 -1.3854  0.2046
 1933SOL    MW4 7780   0.244   1.572   3.381 -0.2030 -0.4555  0.0811
 1934SOL     OW 7781   4.488   1.654   3.506 -0.4095 -0.3162 -0.2997
 1934SOL    HW2 7782   4.421   1.609   3.453  0.6855 -1.1385 -0.9995
 1934SOL    HW3 7783   4.571   1.623   3.470  0.3480  0.6826  0.5938
 1934SOL    MW4 7784   4.490   1.644   3.494 -0.1655 -0.2929 -0.2739
 1935SOL     OW 7785   4.449   1.924   3.441 -0.0792  0.2484  0.4072
 1935SOL    HW2 7786   4.453   1.831   3.464 -0.1919  0.2065  0.2559
 1935SOL    HW3 7787   4.451   1.926   3.346 -0.0126  0.4058  0.4107
 1935SOL    MW4 7788   4.450   1.912   3.432 -0.0854  0.2636  0.3877
 1936SOL     OW 7789   0.174   2.091   3.502 -0.0363 -0.0661 -0.1480
 1936SOL    HW2 7790   0.188   2.069   3.594  0.7758 -3.2485 -0.9669
 1936SOL    HW3 7791   0.097   2.040   3.477  0.5439 -0.2793 -1.5639
 1936SOL    MW4 7792   0.165   2.081   3.511  0.1474 -0.5140 -0.4427
 1937SOL     OW 7793   0.218   2.337   3.391 -0.2254  0.0298 -0.4817
 1937SOL    HW2 7794   0.137   2.388   3.401 -0.5676 -0.4209 -0.8830
 1937SOL    HW3 7795   0.205   2.260   3.447 -0.0356 -0.0036 -0.4826
 1937SOL    MW4 7796   0.205   2.333   3.400 -0.2455 -0.0341 -0.5350
 1938SOL     OW 7797   4.490   2.473   3.478 -0.1375 -1.0605 -0.2591
 1938SOL    HW2 7798   4.525   2.464   3.567  0.2100 -1.1832 -0.4075
 1938SOL    HW3 7799   4.420   2.409   3.473  0.0942 -1.3217 -0.1967
 1938SOL    MW4 7800   4.486   2.464   3.489 -0.0611 -1.1113 -0.2708
 1939SOL     OW 7801   4.471   2.734   3.378  0.0740  0.3061  0.3179
 1939SOL    HW2 7802   4.550   2.778   3.408  0.7561 -0.6978  0.0062
 1939SOL    HW3 7803   4.473   2.649   3.420  0.0133 -0.3572 -1.0044
 1939SOL    MW4 7804   4.482   2.729   3.387  0.1560  0.0861  0.1023
 1940SOL     OW 7805   0.204   2.834   3.473 -0.1233  0.1067 -0.0275
 1940SOL    HW2 7806   0.281   2.792   3.435 -0.4538 -0.7326  0.2321
 1940SOL    HW3 7807   0.208   2.924   3.440  0.9972  0.0904  0.0193
 1940SOL    MW4 7808   0.215   2.840   3.464 -0.0191 -0.0060  0.0129
 1941SOL     OW 7809   0.235   3.091   3.374  0.4019  0.6800  0.4160
 1941SOL    HW2 7810   0.157   3.126   3.417  0.4160 -1.1619  2.0154
 1941SOL    HW3 7811   0.217   3.100   3.280 -1.8543  0.0115  0.7553
 1941SOL    MW4 7812   0.222   3.097   3.367  0.1061  0.3488  0.6716
 1942SOL     OW 7813   0.005   3.202   3.488 -0.2254  0.0664  0.2787
 1942SOL    HW2 7814  -0.076   3.172   3.446  0.1309  1.2198 -1.2765
 1942SOL    HW3 7815   0.007   3.296   3.472  2.4751 -0.2638 -1.5368
 1942SOL    MW4 7816  -0.006   3.210   3.480  0.1779  0.1752 -0.1662
 1943SOL     OW 7817   4.443   3.487   3.410 -0.1435 -0.0963 -0.2766
 1943SOL    HW2 7818   4.377   3.552   3.433  1.6059  1.8994 -0.7436
 1943SOL    HW3 7819   4.438   3.481   3.315 -0.5005 -0.8686 -0.2097
 1943SOL    MW4 7820   4.434   3.495   3.400  0.0401  0.0653 -0.3295
 1944SOL     OW 7821   0.212   3.602   3.465 -0.3616 -0.0024  0.3874
 1944SOL    HW2 7822   0.205   3.588   3.559  0.4772 -2.2063  0.1454
 1944SOL    HW3 7823   0.129   3.568   3.430 -0.5744  0.6000  0.2988
 1944SOL    MW4 7824   0.200   3.596   3.472 -0.2790 -0.2136  0.3438
 1945SOL     OW 7825   0.203   3.851   3.369 -0.3751  0.4730  0.3809
 1945SOL    HW2 7826   0.128   3.892   3.413  0.9411  0.9567  2.1924
 1945SOL    HW3 7827   0.211   3.765   3.409 -1.5383 -0.6340 -1.6411
 1945SOL    MW4 7828   0.194   3.845   3.380 -0.3549  0.3910  0.3529
 1946SOL     OW 7829   4.484   3.953   3.515 -0.1350 -0.6025  0.3654
 1946SOL    HW2 7830   4.487   3.952   3.611 -1.1342 -0.7345  0.3997
 1946SOL    HW3 7831   4.495   4.045   3.491 -0.8089 -0.4451  0.6475
 1946SOL    MW4 7832   4.486   3.965   3.524 -0.3558 -0.5991  0.4070
 1947SOL     OW 7833   4.482   4.216   3.414 -0.0350  0.3347  0.0307
 1947SOL    HW2 7834   4.419   4.271   3.461 -0.7911  0.0083 -0.5915
 1947SOL    HW3 7835   4.567   4.245   3.446 -0.5901 -0.9989  2.8573
 1947SOL    MW4 7836   4.485   4.227   3.424 -0.2080  0.1154  0.3214
 1948SOL     OW 7837   0.219   4.370   3.463  0.0046 -0.5290  0.0037
 1948SOL    HW2 7838   0.222   4.384   3.557  0.0182  1.1394 -0.2306
 1948SOL    HW3 7839   0.303   4.328   3.442  1.4080  2.0480  0.2923
 1948SOL    MW4 7840   0.230   4.366   3.473  0.1915  0.0310  0.0110
 1949SOL     OW 7841   0.688   0.009   3.381  0.3766 -0.3061  0.1813
 1949SOL    HW2 7842   0.769   0.057   3.399  0.0324  0.6996 -0.8269
 1949SOL    HW3 7843   0.678   0.016   3.286 -1.2559  0.1903  0.3802
 1949SOL    MW4 7844   0.698   0.016   3.371  0.1158 -0.1082  0.0746
 1950SOL     OW 7845   0.439   0.071   3.471  0.4441  0.2761  0.1552
 1950SOL    HW2 7846   0.435   0.070   3.567  2.6869  1.2205  0.3051
 1950SOL    HW3 7847   0.532   0.058   3.451 -0.0079  0.0210 -1.9005
 1950SOL    MW4 7848   0.451   0.069   3.481  0.6804  0.3670 -0.0961
 1951SOL     OW 7849   0.433   0.352   3.411 -0.1413 -0.6003 -0.1459
 1951SOL    HW2 7850   0.508   0.404   3.438 -1.1485  1.0015 -0.4143
 1951SOL    HW3 7851   0.445   0.268   3.457  1.4010 -0.0966  0.4016
 1951SOL    MW4 7852   0.445   0.347   3.421 -0.0707 -0.3225 -0.1090
 1952SOL     OW 7853   0.674   0.487   3.493 -0.1475 -0.1996  0.3540
 1952SOL    HW2 7854   0.695   0.483   3.586  0.2214 -2.1299  0.2113
 1952SOL    HW3 7855   0.758   0.473   3.449 -0.4510 -0.1108 -0.2567
 1952SOL    MW4 7856   0.688   0.485   3.499 -0.1389 -0.4426  0.2546
 1953SOL     OW 7857   0.698   0.725   3.366 -0.0006 -0.1422 -0.3858
 1953SOL    HW2 7858   0.626   0.769   3.411  0.3793  0.0907 -0.0041
 1953SOL    HW3 7859   0.702   0.638   3.406  1.0014  0.4193  0.7535
 1953SOL    MW4 7860   0.689   0.719   3.377  0.1817 -0.0374 -0.1853
 1954SOL     OW 7861   0.486   0.860   3.477  0.0771  0.2998  0.1071
 1954SOL    HW2 7862   0.476   0.886   3.568  1.2311  0.5378  0.1674
 1954SOL    HW3 7863   0.465   0.939   3.427  0.3758  0.4302  0.1903
 1954SOL    MW4 7864   0.482   0.874   3.482  0.2688  0.3484  0.1261
 1955SOL     OW 7865   0.439   1.132   3.415 -0.5680 -0.3489  0.0568
 1955SOL    HW2 7866   0.503   1.185   3.462 -0.3622  0.0985 -0.7260
 1955SOL    HW3 7867   0.469   1.133   3.324 -1.1871 -0.8819 -0.1570
 1955SOL    MW4 7868   0.452   1.139   3.409 -0.6226 -0.3603 -0.0746
 1956SOL     OW 7869   0.657   1.289   3.472 -0.3376  0.5760 -0.0333
 1956SOL    HW2 7870   0.749   1.268   3.452 -0.5161  0.2022 -0.4794
 1956SOL    HW3 7871   0.644   1.377   3.436 -0.1753  0.5968 -0.0416
 1956SOL    MW4 7872   0.668   1.298   3.464 -0.3398  0.5294 -0.0935
 1957SOL     OW 7873   0.676   1.549   3.371  0.1002 -0.0332  0.2977
 1957SOL    HW2 7874   0.743   1.581   3.430  0.3409 -1.5758  0.8981
 1957SOL    HW3 7875   0.598   1.600   3.393  1.2288  2.2685 -0.8996
 1957SOL    MW4 7876   0.674   1.560   3.382  0.2809  0.0670  0.2189
 1958SOL     OW 7877   0.459   1.707   3.472 -0.0833  0.2396  0.0385
 1958SOL    HW2 7878   0.465   1.684   3.565 -1.2305 -0.2254  0.0104
 1958SOL    HW3 7879   0.449   1.803   3.472  3.7469  0.6834  0.1951
 1958SOL    MW4 7880   0.458   1.717   3.484  0.2707  0.2369  0.0556
 1959SOL     OW 7881   0.402   1.967   3.411  0.0286  0.3558  0.5687
 1959SOL    HW2 7882   0.319   2.012   3.429  0.5332  1.2654  0.6532
 1959SOL    HW3 7883   0.403   1.955   3.316 -0.4039 -0.0589  0.6164
 1959SOL    MW4 7884   0.391   1.972   3.401  0.0381  0.4212  0.5863
 1960SOL     OW 7885   0.633   2.103   3.502 -0.4815  0.0474 -0.7035
 1960SOL    HW2 7886   0.710   2.055   3.473  0.4612  2.2714 -2.0233
 1960SOL    HW3 7887   0.560   2.059   3.459  0.2847 -0.7630 -1.1818
 1960SOL    MW4 7888   0.633   2.091   3.493 -0.2561  0.2339 -0.9408
 1961SOL     OW 7889   0.665   2.334   3.383  0.0016 -0.0351 -0.6068
 1961SOL    HW2 7890   0.747   2.368   3.419 -0.9843  1.7002  0.0731
 1961SOL    HW3 7891   0.653   2.250   3.428  0.2277  0.7850  1.0548
 1961SOL    MW4 7892   0.674   2.327   3.394 -0.0986  0.3021 -0.2980
 1962SOL     OW 7893   0.447   2.467   3.491  0.2635 -0.4555  0.2804
 1962SOL    HW2 7894   0.527   2.423   3.463 -0.0033 -1.7441  1.5392
 1962SOL    HW3 7895   0.376   2.408   3.464 -0.2379  0.3595 -0.2201
 1962SOL    MW4 7896   0.448   2.454   3.483  0.1622 -0.5178  0.3805
 1963SOL     OW 7897   0.433   2.734   3.361 -0.0793  0.2869  0.4457
 1963SOL    HW2 7898   0.439   2.645   3.395  3.1423 -0.2608 -1.4238
 1963SOL    HW3 7899   0.501   2.783   3.407 -0.7235  1.3760  0.2630
 1963SOL    MW4 7900   0.442   2.729   3.371  0.2607  0.3586  0.1745
 1964SOL     OW 7901   0.644   2.824   3.505 -0.0382 -0.1283  0.1260
 1964SOL    HW2 7902   0.726   2.779   3.485  1.4143  2.3066  0.4224
 1964SOL    HW3 7903   0.642   2.828   3.601 -0.5919 -0.3279  0.1248
 1964SOL    MW4 7904   0.655   2.818   3.515  0.0803  0.1667  0.1650
 1965SOL     OW 7905   0.682   3.079   3.352  0.0259  0.5940  0.7651
 1965SOL    HW2 7906   0.613   3.138   3.384 -0.8300 -0.3771  0.7439
 1965SOL    HW3 7907   0.670   3.000   3.404  0.9320  0.3067  0.5305
 1965SOL    MW4 7908   0.671   3.077   3.363  0.0325  0.4280  0.7312
 1966SOL     OW 7909   0.459   3.221   3.751  0.0348  0.4027  0.1580
 1966SOL    HW2 7910   0.530   3.179   3.800 -0.7315 -1.9953 -0.6710
 1966SOL    HW3 7911   0.379   3.183   3.787 -0.6351  0.2697 -1.4021
 1966SOL    MW4 7912   0.458   3.210   3.762 -0.1547  0.0687 -0.1571
 1967SOL     OW 7913   0.490   3.218   3.478 -0.2081  0.0200 -0.2353
 1967SOL    HW2 7914   0.476   3.218   3.572 -2.0141  0.5731 -0.4811
 1967SOL    HW3 7915   0.417   3.168   3.443  0.1939  0.2186 -1.3791
 1967SOL    MW4 7916   0.478   3.211   3.486 -0.3933  0.1192 -0.4189
 1968SOL     OW 7917   0.441   3.464   3.363  0.0906 -0.2791  0.6140
 1968SOL    HW2 7918   0.449   3.382   3.413  0.1394 -0.1865  0.7580
 1968SOL    HW3 7919   0.360   3.503   3.395  0.7507  0.3874  1.5194
 1968SOL    MW4 7920   0.431   3.458   3.374  0.1841 -0.1788  0.7524
 1969SOL     OW 7921   0.679   3.871   3.400  0.3979  0.2037  0.1202
 1969SOL    HW2 7922   0.589   3.897   3.421 -0.1021  1.3792 -3.2165
 1969SOL    HW3 7923   0.679   3.776   3.413 -0.6374  0.4673  2.4004
 1969SOL    MW4 7924   0.667   3.862   3.405  0.1953  0.3936 -0.0193
 1970SOL     OW 7925   0.429   3.972   3.470  0.1175 -0.1545  0.1823
 1970SOL    HW2 7926   0.422   4.061   3.438  1.2372 -0.0262  0.2615
 1970SOL    HW3 7927   0.351   3.927   3.437 -0.4891  0.8688  0.2168
 1970SOL    MW4 7928   0.418   3.978   3.462  0.1853 -0.0026  0.1976
 1971SOL     OW 7929   0.453   4.235   3.379  0.3479  0.1014  0.1030
 1971SOL    HW2 7930   0.530   4.283   3.411  0.5049 -0.1967  0.1770
 1971SOL    HW3 7931   0.465   4.231   3.284 -0.5552  1.7396 -0.0871
 1971SOL    MW4 7932   0.465   4.240   3.371  0.2494  0.2785  0.0875
 1972SOL     OW 7933   0.656   4.390   3.474 -0.0997  0.0438 -0.4657
 1972SOL    HW2 7934   0.642   4.484   3.458 -1.6877 -0.0394  0.2605
 1972SOL    HW3 7935   0.742   4.372   3.438  0.0373  1.6956 -1.0287
 1972SOL    MW4 7936   0.665   4.400   3.467 -0.2912  0.2508 -0.4442
 1973SOL     OW 7937   1.127   4.661   3.374 -0.5680  0.2627 -0.1801
 1973SOL    HW2 7938   1.211   4.703   3.393  0.0426 -1.4695  1.0819
 1973SOL    HW3 7939   1.124   4.657   3.279  0.5486  0.7978 -0.2527
 1973SOL    MW4 7940   1.138   4.666   3.364 -0.3402  0.1048 -0.0236
 1974SOL     OW 7941   0.902   0.141   3.494  0.4257 -0.1270  0.0526
 1974SOL    HW2 7942   0.921   0.141   3.588  1.6150 -0.7067 -0.1844
 1974SOL    HW3 7943   0.977   0.098   3.454 -0.4227 -0.5567 -1.1019
 1974SOL    MW4 7944   0.914   0.135   3.501  0.4706 -0.2601 -0.1309
 1975SOL     OW 7945   0.943   0.397   3.395 -0.1489 -0.2732 -0.2401
 1975SOL    HW2 7946   1.020   0.417   3.448 -0.6237  0.4279  0.1879
 1975SOL    HW3 7947   0.905   0.319   3.437  0.8099 -1.1551 -0.9743
 1975SOL    MW4 7948   0.948   0.389   3.407 -0.0851 -0.2970 -0.2804
 1976SOL     OW 7949   1.152   0.504   3.522 -0.0373 -0.2180 -0.1205
 1976SOL    HW2 7950   1.139   0.514   3.616 -2.4420  0.2954 -0.4625
 1976SOL    HW3 7951   1.142   0.593   3.488  1.7699 -0.2496 -0.7806
 1976SOL    MW4 7952   1.149   0.517   3.530 -0.1161 -0.1544 -0.2527
 1977SOL     OW 7953   1.122   0.775   3.431  0.1484 -0.3721  0.0282
 1977SOL    HW2 7954   1.192   0.840   3.443  0.1336 -0.5917  1.4137
 1977SOL    HW3 7955   1.045   0.817   3.468  0.1651 -1.2244  1.0347
 1977SOL    MW4 7956   1.121   0.789   3.437  0.1487 -0.5136  0.3438
 1978SOL     OW 7957   0.857   0.902   3.494  0.0163 -0.7135 -0.0554
 1978SOL    HW2 7958   0.862   0.985   3.447  1.2437 -0.6307  0.2059
 1978SOL    HW3 7959   0.795   0.849   3.444  0.1694 -0.0845 -0.9052
 1978SOL    MW4 7960   0.849   0.906   3.481  0.1984 -0.6196 -0.1330
 1979SOL     OW 7961   0.905   1.155   3.399  0.1422 -0.1619 -0.2154
 1979SOL    HW2 7962   0.985   1.192   3.435 -0.0759 -0.2690  0.3896
 1979SOL    HW3 7963   0.916   1.161   3.305  0.5724  0.4548 -0.1333
 1979SOL    MW4 7964   0.917   1.161   3.392  0.1702 -0.0947 -0.1245
 1980SOL     OW 7965   1.137   1.291   3.505 -0.7604  0.2330  0.2038
 1980SOL    HW2 7966   1.134   1.283   3.600  2.4950 -0.0194  0.3491
 1980SOL    HW3 7967   1.122   1.384   3.489  1.1525  0.7632  1.1980
 1980SOL    MW4 7968   1.135   1.303   3.515 -0.0786  0.2697  0.3543
 1981SOL     OW 7969   1.093   1.568   3.437  0.0552  0.2314 -0.3960
 1981SOL    HW2 7970   1.014   1.616   3.462 -0.4778  0.5902 -2.7178
 1981SOL    HW3 7971   1.082   1.550   3.344  0.6007 -3.6877  0.2110
 1981SOL    MW4 7972   1.081   1.572   3.428  0.0567 -0.2382 -0.6223
 1982SOL     OW 7973   0.869   1.704   3.503  0.0080 -0.1164  0.2630
 1982SOL    HW2 7974   0.853   1.795   3.478 -0.4863 -0.0662  0.7560
 1982SOL    HW3 7975   0.869   1.705   3.598 -3.0627 -1.1510  0.3085
 1982SOL    MW4 7976   0.867   1.716   3.512 -0.4623 -0.2464  0.3340
 1983SOL     OW 7977   0.858   1.972   3.395 -0.1664 -0.6994  0.4255
 1983SOL    HW2 7978   0.945   2.012   3.405 -0.1017 -0.7654  0.1211
 1983SOL    HW3 7979   0.851   1.951   3.302 -0.7347 -0.1834  0.3471
 1983SOL    MW4 7980   0.869   1.975   3.384 -0.2328 -0.6399  0.3750
 1984SOL     OW 7981   1.119   2.077   3.475  0.4730  0.5796  0.2068
 1984SOL    HW2 7982   1.140   2.171   3.472 -0.2630  0.7497  0.3740
 1984SOL    HW3 7983   1.115   2.056   3.568 -1.0649  0.7766  0.2061
 1984SOL    MW4 7984   1.121   2.087   3.487  0.1730  0.6280  0.2289
 1985SOL     OW 7985   1.156   2.345   3.440 -0.0116 -0.4042  0.3419
 1985SOL    HW2 7986   1.243   2.368   3.470 -0.0408  1.4805 -0.8933
 1985SOL    HW3 7987   1.166   2.331   3.345 -1.0936  0.1613  0.1348
 1985SOL    MW4 7988   1.168   2.346   3.431 -0.1583 -0.0811  0.1516
 1986SOL     OW 7989   0.895   2.425   3.499 -0.3947  0.1907 -0.0828
 1986SOL    HW2 7990   0.885   2.415   3.594  0.3455  1.4903  0.1414
 1986SOL    HW3 7991   0.989   2.417   3.483 -0.7076 -2.0793 -0.9795
 1986SOL    MW4 7992   0.906   2.423   3.509 -0.3383  0.0629 -0.1719
 1987SOL     OW 7993   0.886   2.694   3.405 -0.4006 -0.1761  0.1698
 1987SOL    HW2 7994   0.975   2.716   3.432 -1.1230 -1.3017  3.7137
 1987SOL    HW3 7995   0.866   2.612   3.452 -3.5439  0.4450  0.0351
 1987SOL    MW4 7996   0.895   2.686   3.415 -0.9105 -0.2427  0.6196
 1988SOL     OW 7997   1.124   2.817   3.464  0.1131 -0.5332  0.0706
 1988SOL    HW2 7998   1.111   2.801   3.558 -1.0659 -1.6034 -0.2628
 1988SOL    HW3 7999   1.203   2.767   3.443 -0.2301 -1.1717  0.2738
 1988SOL    MW4 8000   1.133   2.808   3.474 -0.0877 -0.7586  0.0534
 1989SOL     OW 8001   1.127   3.076   3.387  0.0783  0.2895  0.1923
 1989SOL    HW2 8002   1.112   2.987   3.420 -2.4564  0.6210  0.0162
 1989SOL    HW3 8003   1.133   3.066   3.292  0.7548  0.2110  0.2358
 1989SOL    MW4 8004   1.126   3.063   3.379 -0.1670  0.3228  0.1748
 1990SOL     OW 8005   0.905   3.188   3.505 -0.0326  0.0223  0.0230
 1990SOL    HW2 8006   0.984   3.145   3.471  0.1508  0.3462  0.0375
 1990SOL    HW3 8007   0.834   3.156   3.450  0.4432  1.5554 -1.5128
 1990SOL    MW4 8008   0.906   3.178   3.493  0.0544  0.2670 -0.1776
 1991SOL     OW 8009   0.924   3.464   3.425 -0.3158 -0.1715 -0.0693
 1991SOL    HW2 8010   0.934   3.375   3.458 -0.7892 -0.2541 -0.1453
 1991SOL    HW3 8011   0.910   3.453   3.331 -0.6544 -0.0305 -0.0355
 1991SOL    MW4 8012   0.923   3.451   3.417 -0.4229 -0.1638 -0.0749
 1992SOL     OW 8013   1.170   3.589   3.480 -0.3037 -0.0525 -0.0785
 1992SOL    HW2 8014   1.176   3.602   3.574 -0.1863  1.0411 -0.2233
 1992SOL    HW3 8015   1.080   3.559   3.465 -0.5582  0.5062  0.3085
 1992SOL    MW4 8016   1.159   3.587   3.490 -0.3219  0.1655 -0.0465
 1993SOL     OW 8017   1.131   3.844   3.375 -0.2488 -0.2354 -0.3641
 1993SOL    HW2 8018   1.206   3.898   3.398 -0.7991  0.2744  0.2550
 1993SOL    HW3 8019   1.152   3.757   3.408  0.8107 -0.5122 -1.7068
 1993SOL    MW4 8020   1.144   3.840   3.382 -0.1817 -0.2046 -0.4599
 1994SOL     OW 8021   0.912   4.035   3.434 -0.4862 -0.5625 -0.5444
 1994SOL    HW2 8022   0.995   3.987   3.427 -0.3034 -0.4129  0.5715
 1994SOL    HW3 8023   0.845   3.970   3.413 -0.1491 -0.9520 -0.4204
 1994SOL    MW4 8024   0.914   4.020   3.430 -0.4176 -0.5941 -0.3805
 1995SOL     OW 8025   0.908   4.299   3.383  0.1462 -0.2149  0.3120
 1995SOL    HW2 8026   0.895   4.209   3.411  1.3560 -0.9269 -1.3594
 1995SOL    HW3 8027   0.919   4.294   3.289  1.9469  1.4945  0.3942
 1995SOL    MW4 8028   0.907   4.287   3.375  0.5434 -0.0834  0.1023
 1996SOL     OW 8029   1.141   4.394   3.481  0.0786 -0.0106  0.1291
 1996SOL    HW2 8030   1.063   4.343   3.457  0.7595 -0.1320 -1.9640
 1996SOL    HW3 8031   1.124   4.481   3.445  0.9899 -0.1043 -0.5492
 1996SOL    MW4 8032   1.129   4.398   3.473  0.2886 -0.0396 -0.2363
 1997SOL     OW 8033   1.572   4.639   3.387  0.0385  0.1579  0.2682
 1997SOL    HW2 8034   1.570   4.558   3.438  0.6599 -0.5787 -0.8425
 1997SOL    HW3 8035   1.498   4.690   3.419 -0.6239 -1.0489  0.6888
 1997SOL    MW4 8036   1.562   4.635   3.398  0.0331 -0.0987  0.1769
 1998SOL     OW 8037   1.357   0.131   3.465  0.3073 -0.4670  0.5434
 1998SOL    HW2 8038   1.356   0.145   3.559 -1.9711  0.0899  0.4737
 1998SOL    HW3 8039   1.376   0.217   3.428 -1.1825 -0.1561  0.4563
 1998SOL    MW4 8040   1.359   0.144   3.472 -0.1898 -0.3525  0.5226
 1999SOL     OW 8041   1.362   0.415   3.373 -0.0785  0.3083 -0.9738
 1999SOL    HW2 8042   1.429   0.460   3.423 -0.3262 -2.6232  2.1703
 1999SOL    HW3 8043   1.280   0.434   3.419 -0.1123 -3.6549  0.7832
 1999SOL    MW4 8044   1.360   0.423   3.386 -0.1156 -0.6014 -0.3271
 2000SOL     OW 8045   1.572   0.530   3.518 -0.2887  0.0446  0.4180
 2000SOL    HW2 8046   1.579   0.526   3.614  0.2772  0.4878  0.3983
 2000SOL    HW3 8047   1.637   0.467   3.487 -0.7490 -0.3919  0.3248
 2000SOL    MW4 8048   1.581   0.521   3.527 -0.2747  0.0455  0.4029
 2001SOL     OW 8049   1.578   0.760   3.350  0.2348 -0.3561 -0.0109
 2001SOL    HW2 8050   1.500   0.803   3.385  0.0107 -1.0407  0.3371
 2001SOL    HW3 8051   1.582   0.676   3.396  0.1403 -1.1197 -1.3673
 2001SOL    MW4 8052   1.568   0.754   3.361  0.1928 -0.5472 -0.1442
 2002SOL     OW 8053   1.371   0.900   3.474 -0.0925  0.1277 -0.1798
 2002SOL    HW2 8054   1.373   0.905   3.569  0.8703  0.1880 -0.2016
 2002SOL    HW3 8055   1.384   0.990   3.444 -1.9839  0.3583 -0.3566
 2002SOL    MW4 8056   1.373   0.913   3.482 -0.2151  0.1661 -0.2062
 2003SOL     OW 8057   1.359   1.170   3.393 -0.0241 -0.0705  0.2888
 2003SOL    HW2 8058   1.434   1.207   3.440 -0.9048 -0.2180  1.8615
 2003SOL    HW3 8059   1.286   1.226   3.419 -0.5734 -0.2778 -0.7833
 2003SOL    MW4 8060   1.359   1.182   3.403 -0.2127 -0.1173  0.3548
 2004SOL     OW 8061   1.588   1.281   3.531  0.2655  0.4557  0.5187
 2004SOL    HW2 8062   1.586   1.292   3.626  1.7673  2.8903  0.3020
 2004SOL    HW3 8063   1.674   1.243   3.513 -0.0097  0.0079  0.1235
 2004SOL    MW4 8064   1.599   1.277   3.541  0.4272  0.7179  0.4377
 2005SOL     OW 8065   1.550   1.556   3.413 -0.3902  0.0052  0.1239
 2005SOL    HW2 8066   1.581   1.474   3.450 -3.7505 -1.2497  0.3010
 2005SOL    HW3 8067   1.567   1.548   3.319 -2.5765 -1.8304 -0.1624
 2005SOL    MW4 8068   1.556   1.544   3.405 -1.1220 -0.4026  0.1097
 2006SOL     OW 8069   1.329   1.682   3.506 -0.2914  0.3389 -0.1123
 2006SOL    HW2 8070   1.403   1.633   3.472 -0.1614 -0.4562  1.2855
 2006SOL    HW3 8071   1.253   1.626   3.489 -0.4285  0.6305 -0.4775
 2006SOL    MW4 8072   1.329   1.669   3.499 -0.2924  0.2724  0.0238
 2007SOL     OW 8073   1.339   1.931   3.392 -0.3924 -0.1357  0.0620
 2007SOL    HW2 8074   1.346   1.846   3.436 -0.6321 -0.3695 -0.3476
 2007SOL    HW3 8075   1.258   1.968   3.426 -1.5309 -1.1078 -1.5366
 2007SOL    MW4 8076   1.330   1.924   3.403 -0.5741 -0.2948 -0.2029
 2008SOL     OW 8077   1.574   2.047   3.491 -0.0800 -0.3496  0.1341
 2008SOL    HW2 8078   1.492   2.012   3.457 -0.0350  0.2497 -0.6117
 2008SOL    HW3 8079   1.574   2.139   3.463  1.4144 -0.6593 -0.9490
 2008SOL    MW4 8080   1.563   2.055   3.483  0.1230 -0.3111 -0.1068
 2009SOL     OW 8081   1.598   2.298   3.409  0.4520  0.1653  0.0176
 2009SOL    HW2 8082   1.520   2.342   3.444  0.3643 -1.0866  1.4884
 2009SOL    HW3 8083   1.581   2.289   3.316 -0.6890  0.8931  0.1491
 2009SOL    MW4 8084   1.585   2.303   3.402  0.2900  0.0961  0.2291
 2010SOL     OW 8085   1.391   2.440   3.525  0.0883  0.2419 -0.7447
 2010SOL    HW2 8086   1.362   2.440   3.616  1.0976 -3.1613 -0.3339
 2010SOL    HW3 8087   1.396   2.532   3.501 -0.3555  1.2021  2.5873
 2010SOL    MW4 8088   1.388   2.452   3.534  0.1628 -0.0801 -0.2506
 2011SOL     OW 8089   1.391   2.693   3.404  0.2366 -0.1880  0.6046
 2011SOL    HW2 8090   1.450   2.763   3.433  0.0385 -0.2990  1.2852
 2011SOL    HW3 8091   1.386   2.704   3.309  2.1472 -0.8030  0.4095
 2011SOL    MW4 8092   1.398   2.704   3.395  0.4627 -0.2840  0.6688
 2012SOL     OW 8093   1.589   2.837   3.520  0.5006 -0.0793  0.0867
 2012SOL    HW2 8094   1.664   2.798   3.475 -0.0410 -0.2853 -0.6489
 2012SOL    HW3 8095   1.576   2.922   3.476 -1.5513 -1.3246 -1.8479
 2012SOL    MW4 8096   1.597   2.843   3.508  0.1583 -0.2708 -0.2656
 2013SOL     OW 8097   1.545   3.107   3.372 -0.1966  0.1868 -0.2853
 2013SOL    HW2 8098   1.627   3.150   3.397  0.0708 -0.5573  0.1409
 2013SOL    HW3 8099   1.478   3.156   3.420  0.1725 -0.3108  0.7557
 2013SOL    MW4 8100   1.547   3.119   3.381 -0.1127  0.0231 -0.0918
 2014SOL     OW 8101   1.350   3.235   3.489 -0.2334 -0.1818 -0.0380
 2014SOL    HW2 8102   1.334   3.229   3.583 -1.1943 -0.3892 -0.2047
 2014SOL    HW3 8103   1.288   3.174   3.450 -0.5511  0.6508 -0.8677
 2014SOL    MW4 8104   1.340   3.226   3.496 -0.4021 -0.0989 -0.1695
 2015SOL     OW 8105   1.379   3.465   3.333  0.1250  0.1246  0.0891
 2015SOL    HW2 8106   1.379   3.384   3.384 -0.3864  0.3789  0.5073
 2015SOL    HW3 8107   1.301   3.512   3.364  0.5141  0.8476 -0.0252
 2015SOL    MW4 8108   1.369   3.460   3.344  0.1088  0.2537  0.1292
 2016SOL     OW 8109   1.580   3.617   3.460 -0.4430 -0.6956 -0.4457
 2016SOL    HW2 8110   1.571   3.595   3.552  0.4300 -2.4670 -0.7601
 2016SOL    HW3 8111   1.508   3.571   3.416  0.2806 -1.4354 -0.8763
 2016SOL    MW4 8112   1.570   3.608   3.466 -0.2323 -1.0271 -0.5441
 2017SOL     OW 8113   1.568   3.877   3.375  0.1275 -0.6341  0.5814
 2017SOL    HW2 8114   1.581   3.786   3.403 -0.1506 -1.0961 -0.7136
 2017SOL    HW3 8115   1.567   3.872   3.279  0.2910  0.7664  0.4977
 2017SOL    MW4 8116   1.570   3.864   3.366  0.1123 -0.5102  0.3996
 2018SOL     OW 8117   1.335   4.024   3.427  0.2858  0.3634 -0.2663
 2018SOL    HW2 8118   1.342   4.118   3.410 -0.5237 -0.0045 -2.8248
 2018SOL    HW3 8119   1.425   3.992   3.421  0.6252  1.0192  1.0720
 2018SOL    MW4 8120   1.348   4.032   3.424  0.2238  0.4010 -0.4272
 2019SOL     OW 8121   1.375   4.300   3.363 -0.3450  0.3781  0.2911
 2019SOL    HW2 8122   1.291   4.342   3.381 -0.2940  0.9963 -0.8704
 2019SOL    HW3 8123   1.374   4.284   3.269  0.6296 -0.0937  0.3561
 2019SOL    MW4 8124   1.364   4.303   3.353 -0.2096  0.3972  0.1464
 2020SOL     OW 8125   1.592   4.394   3.496 -0.1300  0.1278  0.0120
 2020SOL    HW2 8126   1.657   4.343   3.448 -0.1055  1.0546 -0.9512
 2020SOL    HW3 8127   1.508   4.368   3.459 -0.1544  0.4281 -0.1445
 2020SOL    MW4 8128   1.590   4.384   3.485 -0.1301  0.2894 -0.1357
 2021SOL     OW 8129   2.021   0.002   3.403 -0.2931  0.1278 -0.1100
 2021SOL    HW2 8130   2.086   0.060   3.444 -0.8916  0.5250  0.2797
 2021SOL    HW3 8131   1.936   0.039   3.428 -0.6749 -0.6912 -0.1900
 2021SOL    MW4 8132   2.018   0.015   3.412 -0.4225  0.0720 -0.0691
 2022SOL     OW 8133   1.789   0.115   3.498  0.0667  0.1950 -0.1404
 2022SOL    HW2 8134   1.770   0.115   3.592  1.2036  0.0190  0.1042
 2022SOL    HW3 8135   1.721   0.061   3.459 -0.5425  0.4585  0.5572
 2022SOL    MW4 8136   1.778   0.108   3.505  0.1364  0.2066 -0.0157
 2023SOL     OW 8137   1.781   0.372   3.409 -0.1313  0.1143  0.3280
 2023SOL    HW2 8138   1.790   0.283   3.442 -0.0479 -0.0204 -0.0584
 2023SOL    HW3 8139   1.791   0.364   3.314 -0.5008  0.4804  0.2542
 2023SOL    MW4 8140   1.783   0.359   3.401 -0.1690  0.1449  0.2675
 2024SOL     OW 8141   2.008   0.494   3.498 -0.1959  0.2710  0.1746
 2024SOL    HW2 8142   1.995   0.583   3.466  0.8714  0.4326  0.1846
 2024SOL    HW3 8143   1.932   0.446   3.465  0.0885  0.7930 -1.2660
 2024SOL    MW4 8144   1.996   0.499   3.490 -0.0178  0.3612 -0.0141
 2025SOL     OW 8145   1.995   0.745   3.380  0.5556 -0.1435  0.0544
 2025SOL    HW2 8146   2.073   0.792   3.410  0.3570  1.2959 -1.5879
 2025SOL    HW3 8147   1.998   0.751   3.285 -0.2595 -2.2464 -0.1417
 2025SOL    MW4 8148   2.006   0.752   3.371  0.4220 -0.2310 -0.1879
 2026SOL     OW 8149   1.784   0.874   3.491 -0.0512  0.1533 -0.2799
 2026SOL    HW2 8150   1.850   0.818   3.452  1.8556  1.2633  1.2727
 2026SOL    HW3 8151   1.702   0.848   3.449  1.2883 -1.5680 -1.8759
 2026SOL    MW4 8152   1.782   0.863   3.480  0.3772  0.0727 -0.2854
 2027SOL     OW 8153   1.798   1.134   3.414  0.2262 -0.4874  0.2851
 2027SOL    HW2 8154   1.872   1.181   3.451  0.2011 -0.1548 -0.0833
 2027SOL    HW3 8155   1.814   1.042   3.437  0.3957 -0.3304  0.7969
 2027SOL    MW4 8156   1.810   1.128   3.422  0.2452 -0.4228  0.3042
 2028SOL     OW 8157   2.006   1.300   3.501  0.5159  0.0487  0.0545
 2028SOL    HW2 8158   2.007   1.329   3.593  2.2351 -0.4713  0.2200
 2028SOL    HW3 8159   1.985   1.380   3.452  1.5106  0.7737  0.7714
 2028SOL    MW4 8160   2.003   1.315   3.507  0.8740  0.0758  0.1712
 2029SOL     OW 8161   1.963   1.565   3.385  0.3892  0.3501 -0.9477
 2029SOL    HW2 8162   2.047   1.596   3.421 -0.0051  0.1399  0.1866
 2029SOL    HW3 8163   1.898   1.619   3.430 -0.0883  0.4392 -1.7514
 2029SOL    MW4 8164   1.966   1.577   3.396  0.2743  0.3343 -0.9043
 2030SOL     OW 8165   1.762   1.704   3.513 -0.3953 -0.1163 -0.1161
 2030SOL    HW2 8166   1.768   1.792   3.475  1.0990 -0.4174 -0.6289
 2030SOL    HW3 8167   1.679   1.669   3.480 -1.6110  1.5594  1.1025
 2030SOL    MW4 8168   1.752   1.711   3.503 -0.3586  0.0651 -0.0231
 2031SOL     OW 8169   1.816   1.969   3.409  0.4560 -0.1826  0.1762
 2031SOL    HW2 8170   1.732   1.994   3.447  1.4767  1.5339  1.3576
 2031SOL    HW3 8171   1.799   1.963   3.315 -1.0064  0.0354  0.4198
 2031SOL    MW4 8172   1.803   1.972   3.401  0.3977  0.0726  0.3643
 2032SOL     OW 8173   2.020   2.076   3.561 -0.2904  0.2210 -0.1089
 2032SOL    HW2 8174   2.096   2.031   3.525 -0.2392  0.7920 -0.7193
 2032SOL    HW3 8175   1.946   2.040   3.513 -0.4441 -0.5332  0.6729
 2032SOL    MW4 8176   2.020   2.065   3.550 -0.3040  0.1969 -0.0861
 2033SOL     OW 8177   2.059   2.328   3.396  0.8062 -0.0514 -0.2801
 2033SOL    HW2 8178   2.068   2.241   3.434 -1.6125  0.0491  0.6284
 2033SOL    HW3 8179   2.050   2.313   3.302  1.4369 -0.6839 -0.2455
 2033SOL    MW4 8180   2.059   2.315   3.389  0.5703 -0.1216 -0.1557
 2034SOL     OW 8181   1.818   2.424   3.525  0.1971 -0.6338  0.4774
 2034SOL    HW2 8182   1.893   2.391   3.476 -0.4386 -0.1957 -0.8299
 2034SOL    HW3 8183   1.746   2.366   3.500 -0.0224 -0.7337  1.3197
 2034SOL    MW4 8184   1.818   2.412   3.515  0.0842 -0.5891  0.4160
 2035SOL     OW 8185   1.821   2.682   3.416 -0.0333 -0.6037  0.0868
 2035SOL    HW2 8186   1.908   2.712   3.443  0.4258 -0.9461 -0.9976
 2035SOL    HW3 8187   1.810   2.598   3.461  0.4192 -0.8156 -0.1925
 2035SOL    MW4 8188   1.831   2.675   3.426  0.0870 -0.6766 -0.0932
 2036SOL     OW 8189   2.036   2.806   3.520  0.0763  0.2277  0.3253
 2036SOL    HW2 8190   2.024   2.815   3.614  1.2929  0.7465  0.4353
 2036SOL    HW3 8191   2.029   2.896   3.486 -0.1427  0.0698 -0.0528
 2036SOL    MW4 8192   2.034   2.819   3.528  0.2079  0.2754  0.2897
 2037SOL     OW 8193   2.018   3.084   3.396 -0.0169  0.0743 -0.1198
 2037SOL    HW2 8194   2.082   3.135   3.446 -0.2412 -1.1576  1.4622
 2037SOL    HW3 8195   1.933   3.119   3.423 -0.1136  0.0408 -0.3743
 2037SOL    MW4 8196   2.015   3.096   3.406 -0.0594 -0.0925  0.0553
 2038SOL     OW 8197   1.791   3.218   3.459 -0.1608 -0.4476  0.3295
 2038SOL    HW2 8198   1.801   3.223   3.554 -0.8102 -0.0894  0.3762
 2038SOL    HW3 8199   1.792   3.309   3.430  0.3278 -0.5653 -0.0431
 2038SOL    MW4 8200   1.793   3.231   3.468 -0.1822 -0.4160  0.2866
 2039SOL     OW 8201   1.819   3.475   3.361  0.1785 -0.0534 -0.3454
 2039SOL    HW2 8202   1.734   3.514   3.381 -0.5631 -1.2440 -1.1419
 2039SOL    HW3 8203   1.824   3.474   3.266  0.1967 -1.8766 -0.3453
 2039SOL    MW4 8204   1.809   3.480   3.351  0.0830 -0.4506 -0.4504
 2040SOL     OW 8205   2.030   3.580   3.500  0.1950  0.3928 -0.4618
 2040SOL    HW2 8206   2.114   3.546   3.470  0.2778 -0.0179  0.2181
 2040SOL    HW3 8207   1.966   3.550   3.435  0.4793  0.1368 -0.6205
 2040SOL    MW4 8208   2.032   3.572   3.488  0.2437  0.3049 -0.3934
 2041SOL     OW 8209   2.000   3.841   3.385 -0.0142 -0.2872 -0.3803
 2041SOL    HW2 8210   1.935   3.900   3.424  0.2019 -0.5831  0.4386
 2041SOL    HW3 8211   1.996   3.762   3.439  0.4517 -0.6175 -0.8245
 2041SOL    MW4 8212   1.990   3.838   3.397  0.0758 -0.3700 -0.3309
 2042SOL     OW 8213   1.795   4.011   3.466  0.0067 -0.8188  0.0222
 2042SOL    HW2 8214   1.800   3.995   3.560  0.4127  1.4200  0.4224
 2042SOL    HW3 8215   1.713   3.971   3.438 -0.3904 -0.9900  1.4299
 2042SOL    MW4 8216   1.785   4.004   3.475  0.0079 -0.5460  0.2606
 2043SOL     OW 8217   1.794   4.264   3.363  0.6268  0.3454 -0.0365
 2043SOL    HW2 8218   1.818   4.177   3.396 -2.1755 -0.3360  0.2964
 2043SOL    HW3 8219   1.768   4.249   3.272  0.4985  0.8895 -0.0915
 2043SOL    MW4 8220   1.794   4.250   3.356  0.2402  0.3271  0.0002
 2044SOL     OW 8221   2.034   4.380   3.459 -0.2260 -0.0699  0.0326
 2044SOL    HW2 8222   1.953   4.345   3.421 -0.0270  0.8112 -1.2155
 2044SOL    HW3 8223   2.027   4.475   3.449  0.4011  0.0974  1.0733
 2044SOL    MW4 8224   2.023   4.388   3.453 -0.1168  0.0682  0.0052
 2045SOL     OW 8225   2.445   4.645   3.417 -0.2252 -0.3902  0.0767
 2045SOL    HW2 8226   2.458   4.553   3.438  1.5762  0.0635  1.1114
 2045SOL    HW3 8227   2.455   4.650   3.322  0.6098 -1.1449  0.1140
 2045SOL    MW4 8228   2.448   4.634   3.407  0.1228 -0.4301  0.2182
 2046SOL     OW 8229   2.254   0.152   3.511 -0.3899 -0.2775 -0.0277
 2046SOL    HW2 8230   2.277   0.227   3.456  1.6622 -0.5524  0.4393
 2046SOL    HW3 8231   2.306   0.080   3.477 -0.2746 -0.8267  1.2907
 2046SOL    MW4 8232   2.264   0.152   3.499 -0.1040 -0.3862  0.2081
 2047SOL     OW 8233   2.276   0.409   3.391  0.1036 -0.3102 -0.2018
 2047SOL    HW2 8234   2.350   0.452   3.434  0.5757 -1.8374  0.5596
 2047SOL    HW3 8235   2.199   0.450   3.430  0.5378 -0.9034  1.3439
 2047SOL    MW4 8236   2.275   0.420   3.402  0.2232 -0.5900  0.1028
 2048SOL     OW 8237   2.484   0.533   3.505  0.3013  0.0958 -0.4287
 2048SOL    HW2 8238   2.549   0.486   3.454  0.1254  0.3240 -0.8672
 2048SOL    HW3 8239   2.495   0.625   3.479  1.2992  0.4375  1.1348
 2048SOL    MW4 8240   2.494   0.539   3.495  0.4101  0.1709 -0.2801
 2049SOL     OW 8241   2.487   0.784   3.388  0.3379 -0.0648 -0.0709
 2049SOL    HW2 8242   2.563   0.838   3.408  0.3621 -0.4206  0.8360
 2049SOL    HW3 8243   2.477   0.789   3.293  0.9899  0.6556 -0.0994
 2049SOL    MW4 8244   2.495   0.792   3.378  0.4272 -0.0166  0.0448
 2050SOL     OW 8245   2.212   0.886   3.462 -0.3952  0.2420  0.3115
 2050SOL    HW2 8246   2.197   0.979   3.444  0.7209  0.4936  0.6617
 2050SOL    HW3 8247   2.299   0.868   3.426 -0.4313 -0.5661  0.6120
 2050SOL    MW4 8248   2.221   0.896   3.455 -0.2527  0.1686  0.3974
 2051SOL     OW 8249   2.249   1.167   3.408  0.2459  0.4036 -0.7425
 2051SOL    HW2 8250   2.326   1.212   3.443  0.6543 -2.2430  2.0280
 2051SOL    HW3 8251   2.175   1.218   3.441  0.7493  0.7848 -0.1709
 2051SOL    MW4 8252   2.249   1.179   3.417  0.3662  0.1047 -0.3016
 2052SOL     OW 8253   2.461   1.283   3.516 -0.5554 -0.0537  0.1713
 2052SOL    HW2 8254   2.475   1.276   3.610  0.5934  0.8473  0.0828
 2052SOL    HW3 8255   2.544   1.255   3.477 -1.1811 -0.8847 -0.5951
 2052SOL    MW4 8256   2.474   1.279   3.523 -0.4864 -0.0446  0.0587
 2053SOL     OW 8257   2.414   1.561   3.426  0.4902 -0.3649  0.1620
 2053SOL    HW2 8258   2.435   1.469   3.443  0.9241 -0.0408  1.3868
 2053SOL    HW3 8259   2.423   1.570   3.331  0.7655 -1.5044  0.0705
 2053SOL    MW4 8260   2.418   1.550   3.416  0.5834 -0.4724  0.3116
 2054SOL     OW 8261   2.172   1.688   3.481 -0.3468  0.1645 -0.0053
 2054SOL    HW2 8262   2.197   1.780   3.473 -0.0095  0.1696  1.0672
 2054SOL    HW3 8263   2.253   1.639   3.465 -0.4014  0.0748 -0.0118
 2054SOL    MW4 8264   2.186   1.694   3.478 -0.3095  0.1534  0.1354
 2055SOL     OW 8265   2.224   1.947   3.426  0.2491 -0.0881  0.0979
 2055SOL    HW2 8266   2.233   1.922   3.334  0.3929  0.7157 -0.1058
 2055SOL    HW3 8267   2.312   1.972   3.452  0.2986 -0.7540  0.5883
 2055SOL    MW4 8268   2.237   1.947   3.417  0.2747 -0.0699  0.1357
 2056SOL     OW 8269   2.464   2.075   3.523  0.3168 -0.0028  0.3554
 2056SOL    HW2 8270   2.481   2.096   3.614  1.2636  1.7669 -0.2022
 2056SOL    HW3 8271   2.450   2.160   3.481  1.4220 -0.6917 -1.4504
 2056SOL    MW4 8272   2.464   2.089   3.529  0.5877  0.1397  0.0436
 2057SOL     OW 8273   2.462   2.327   3.412  0.1482 -0.0887 -0.4827
 2057SOL    HW2 8274   2.392   2.371   3.462  1.5983 -0.4376  1.9313
 2057SOL    HW3 8275   2.536   2.387   3.416  1.3371 -1.5711  0.6804
 2057SOL    MW4 8276   2.462   2.341   3.419  0.4964 -0.3304 -0.0107
 2058SOL     OW 8277   2.258   2.706   3.385  0.1193  0.0403  0.2199
 2058SOL    HW2 8278   2.227   2.706   3.294 -1.0598 -0.8403  0.6099
 2058SOL    HW3 8279   2.180   2.726   3.437  0.7411  0.3030  1.0684
 2058SOL    MW4 8280   2.244   2.709   3.380  0.0455 -0.0410  0.3831
 2059SOL     OW 8281   2.252   2.461   3.547  0.0295 -0.1889  0.1112
 2059SOL    HW2 8282   2.168   2.422   3.526  0.7762 -1.0097 -1.4538
 2059SOL    HW3 8283   2.260   2.536   3.487 -0.3180  0.9043  1.4108
 2059SOL    MW4 8284   2.242   2.466   3.536  0.0823 -0.1531  0.0763
 2060SOL     OW 8285   2.468   2.840   3.508 -0.4185  0.3875  0.5073
 2060SOL    HW2 8286   2.463   2.930   3.475  0.3119 -0.5923 -2.4291
 2060SOL    HW3 8287   2.397   2.794   3.464  0.8081 -1.0617 -0.0051
 2060SOL    MW4 8288   2.458   2.846   3.498 -0.1600  0.0670  0.0522
 2061SOL     OW 8289   2.442   3.100   3.412  0.1545  0.4480  0.1680
 2061SOL    HW2 8290   2.523   3.146   3.434  1.1838 -1.5861  0.7697
 2061SOL    HW3 8291   2.447   3.087   3.318  1.0554 -0.5961  0.3460
 2061SOL    MW4 8292   2.453   3.104   3.403  0.4091  0.0417  0.2708
 2062SOL     OW 8293   2.220   3.223   3.502 -0.3352 -0.2911  0.1192
 2062SOL    HW2 8294   2.232   3.213   3.597  1.0191 -1.5350 -0.1756
 2062SOL    HW3 8295   2.296   3.179   3.463 -0.6713  0.5606 -1.5378
 2062SOL    MW4 8296   2.232   3.216   3.510 -0.2007 -0.3426 -0.1383
 2063SOL     OW 8297   2.268   3.491   3.398  0.0044 -0.7113  0.2469
 2063SOL    HW2 8298   2.253   3.402   3.430  0.3798 -1.0526 -0.5043
 2063SOL    HW3 8299   2.270   3.482   3.303  0.3254  0.0536  0.1795
 2063SOL    MW4 8300   2.267   3.478   3.390  0.0961 -0.6554  0.1390
 2064SOL     OW 8301   2.521   3.594   3.471  0.1760  0.2104 -0.3911
 2064SOL    HW2 8302   2.503   3.687   3.458 -1.1917  0.0312  0.1102
 2064SOL    HW3 8303   2.442   3.550   3.439  0.5417 -0.7442 -0.0070
 2064SOL    MW4 8304   2.508   3.600   3.465  0.0439  0.0608 -0.2742
 2065SOL     OW 8305   2.480   3.852   3.361 -0.0790  0.3493 -0.3000
 2065SOL    HW2 8306   2.550   3.914   3.383  0.9716 -0.8958 -0.0418
 2065SOL    HW3 8307   2.403   3.887   3.405  0.7658  0.8430  0.8462
 2065SOL    MW4 8308   2.479   3.865   3.370  0.1709  0.2501 -0.1147
 2066SOL     OW 8309   2.242   3.935   3.485  0.1012  0.3209  0.1565
 2066SOL    HW2 8310   2.240   4.028   3.460  0.1778 -0.0928 -1.4421
 2066SOL    HW3 8311   2.166   3.897   3.442  1.7180 -0.9547 -1.6696
 2066SOL    MW4 8312   2.232   3.942   3.476  0.3247  0.0980 -0.2952
 2067SOL     OW 8313   2.244   4.230   3.360 -0.0239 -0.5266 -0.0892
 2067SOL    HW2 8314   2.168   4.283   3.383  1.2351  1.2657  0.0964
 2067SOL    HW3 8315   2.256   4.245   3.266  0.0741 -0.8329 -0.1243
 2067SOL    MW4 8316   2.236   4.239   3.351  0.1554 -0.3304 -0.0694
 2068SOL     OW 8317   2.452   4.368   3.468 -0.0239  0.0971  0.3089
 2068SOL    HW2 8318   2.445   4.360   3.563 -1.1439  0.5803  0.2701
 2068SOL    HW3 8319   2.369   4.334   3.434 -0.1566  1.1212 -0.4241
 2068SOL    MW4 8320   2.440   4.362   3.476 -0.1891  0.2956  0.2069
 2069SOL     OW 8321   2.936   4.661   3.411 -0.1394  0.0633 -0.1965
 2069SOL    HW2 8322   2.854   4.693   3.449 -0.8706 -1.2776 -0.6027
 2069SOL    HW3 8323   2.925   4.674   3.317 -0.1197 -0.6304 -0.2968
 2069SOL    MW4 8324   2.924   4.667   3.403 -0.2332 -0.2050 -0.2635
 2070SOL     OW 8325   2.674   0.102   3.502 -0.2199 -0.2298  0.3863
 2070SOL    HW2 8326   2.669   0.191   3.468 -0.5048 -0.3333  0.1472
 2070SOL    HW3 8327   2.588   0.064   3.481 -0.3411 -0.3393  1.0949
 2070SOL    MW4 8328   2.662   0.109   3.494 -0.2735 -0.2579  0.4482
 2071SOL     OW 8329   2.700   0.370   3.410 -0.0442 -0.5394 -0.2315
 2071SOL    HW2 8330   2.778   0.419   3.436  0.0215 -1.4992  1.4909
 2071SOL    HW3 8331   2.706   0.363   3.315  1.1655  0.7257 -0.2671
 2071SOL    MW4 8332   2.711   0.375   3.401  0.1242 -0.4991 -0.0091
 2072SOL     OW 8333   2.937   0.493   3.476 -0.4605  0.2530  0.2356
 2072SOL    HW2 8334   2.923   0.469   3.568  1.6896 -1.4214  0.1693
 2072SOL    HW3 8335   2.931   0.589   3.475 -0.1199  0.3182  2.1962
 2072SOL    MW4 8336   2.934   0.503   3.488 -0.1318  0.0407  0.4854
 2073SOL     OW 8337   2.913   0.763   3.413 -0.1073 -0.1704 -0.0421
 2073SOL    HW2 8338   2.978   0.820   3.453 -0.2058 -0.6920  0.8908
 2073SOL    HW3 8339   2.829   0.800   3.440 -0.2573  1.7944 -3.0742
 2073SOL    MW4 8340   2.910   0.775   3.422 -0.1400  0.0199 -0.3192
 2074SOL     OW 8341   2.699   0.918   3.479  0.8929 -0.2530  0.2879
 2074SOL    HW2 8342   2.678   0.916   3.572  0.3722 -0.4695  0.1683
 2074SOL    HW3 8343   2.684   1.009   3.453  1.6207 -0.0559  0.5445
 2074SOL    MW4 8344   2.694   0.929   3.488  0.9201 -0.2556  0.3061
 2075SOL     OW 8345   2.685   1.188   3.391  0.2815  0.5309  0.3543
 2075SOL    HW2 8346   2.767   1.229   3.420  0.7220 -0.8810  1.1514
 2075SOL    HW3 8347   2.694   1.180   3.296 -0.1066  2.8983  0.0796
 2075SOL    MW4 8348   2.697   1.193   3.383  0.2885  0.6570  0.4230
 2076SOL     OW 8349   2.918   1.320   3.471  0.1538  0.3571  0.1108
 2076SOL    HW2 8350   2.933   1.302   3.564  0.2768 -2.0134 -0.3239
 2076SOL    HW3 8351   2.982   1.265   3.425 -0.8558  0.4016 -1.4017
 2076SOL    MW4 8352   2.928   1.310   3.477  0.0367  0.0504 -0.1464
 2077SOL     OW 8353   2.857   1.586   3.389  0.0242  0.0735 -0.1533
 2077SOL    HW2 8354   2.793   1.628   3.447 -0.1494  0.6029 -0.7197
 2077SOL    HW3 8355   2.849   1.493   3.408 -0.7954  0.1508 -0.0896
 2077SOL    MW4 8356   2.847   1.579   3.399 -0.1066  0.1537 -0.2196
 2078SOL     OW 8357   2.656   1.688   3.548 -0.1021  0.2759  0.3649
 2078SOL    HW2 8358   2.679   1.776   3.520 -0.7379  0.1890 -0.4651
 2078SOL    HW3 8359   2.572   1.670   3.504  1.3675 -1.8046 -1.7107
 2078SOL    MW4 8360   2.648   1.697   3.538  0.0081 -0.0100 -0.0186
 2079SOL     OW 8361   2.680   1.942   3.410  0.0279  0.2344  0.2049
 2079SOL    HW2 8362   2.598   1.985   3.435 -0.5571 -0.6031 -0.2612
 2079SOL    HW3 8363   2.680   1.944   3.314  0.5992  0.3127  0.2048
 2079SOL    MW4 8364   2.669   1.948   3.401  0.0260  0.1342  0.1435
 2080SOL     OW 8365   2.900   2.082   3.490 -0.1057  0.0157  0.0707
 2080SOL    HW2 8366   2.890   2.070   3.585 -0.7795  2.0334  0.2745
 2080SOL    HW3 8367   2.823   2.040   3.452  0.8164 -1.9571  0.2940
 2080SOL    MW4 8368   2.889   2.075   3.498 -0.0730  0.0217  0.1268
 2081SOL     OW 8369   2.927   2.319   3.362  0.2473  0.6267  0.2144
 2081SOL    HW2 8370   2.921   2.237   3.411  1.4382  0.7326  0.5702
 2081SOL    HW3 8371   2.932   2.293   3.271 -1.5870  0.4080  0.1555
 2081SOL    MW4 8372   2.927   2.305   3.357  0.1626  0.6115  0.2537
 2082SOL     OW 8373   2.697   2.475   3.443  0.4360  0.4054  0.0133
 2082SOL    HW2 8374   2.690   2.456   3.536  1.1276 -0.9226 -0.1895
 2082SOL    HW3 8375   2.772   2.424   3.414  0.0103  0.5290 -1.3390
 2082SOL    MW4 8376   2.706   2.466   3.451  0.4711  0.2465 -0.1919
 2083SOL     OW 8377   2.667   2.734   3.356 -0.0153 -0.4047  0.1393
 2083SOL    HW2 8378   2.672   2.641   3.379 -0.3306 -0.3090  0.6189
 2083SOL    HW3 8379   2.602   2.769   3.417  0.0369  0.1103 -0.1052
 2083SOL    MW4 8380   2.659   2.726   3.367 -0.0498 -0.3240  0.1702
 2084SOL     OW 8381   2.930   2.817   3.436  0.4604 -0.5270  0.2197
 2084SOL    HW2 8382   2.928   2.834   3.530  0.6476 -0.7627  0.2658
 2084SOL    HW3 8383   2.838   2.810   3.411  0.4206 -0.7609  0.4351
 2084SOL    MW4 8384   2.918   2.819   3.445  0.4799 -0.5889  0.2542
 2085SOL     OW 8385   2.928   3.104   3.401  0.4842 -0.3472 -0.0838
 2085SOL    HW2 8386   2.925   3.009   3.411 -1.3196 -0.3375 -0.3428
 2085SOL    HW3 8387   2.950   3.117   3.309  0.0242 -0.5211 -0.2199
 2085SOL    MW4 8388   2.931   3.093   3.390  0.1853 -0.3688 -0.1359
 2086SOL     OW 8389   2.680   3.222   3.471  0.1849  0.3329 -0.5954
 2086SOL    HW2 8390   2.700   3.241   3.562  2.5994  0.7201 -1.1903
 2086SOL    HW3 8391   2.754   3.170   3.440 -0.4149  0.5517 -2.4534
 2086SOL    MW4 8392   2.692   3.218   3.479  0.4241  0.4127 -0.9189
 2087SOL     OW 8393   2.720   3.459   3.348 -0.2525  0.3812  0.0969
 2087SOL    HW2 8394   2.704   3.379   3.397 -1.4138  0.0007 -0.8718
 2087SOL    HW3 8395   2.646   3.516   3.370 -0.1756  0.6467 -0.3175
 2087SOL    MW4 8396   2.708   3.456   3.357 -0.3955  0.3662 -0.0856
 2088SOL     OW 8397   2.912   3.585   3.503  0.1957  0.0940  0.2115
 2088SOL    HW2 8398   2.835   3.535   3.478  0.9321 -0.7600 -0.4027
 2088SOL    HW3 8399   2.900   3.602   3.597 -0.0245 -1.3474  0.4689
 2088SOL    MW4 8400   2.901   3.580   3.512  0.2639 -0.2091  0.1645
 2089SOL     OW 8401   2.899   3.841   3.371 -0.1572  0.8958  0.0833
 2089SOL    HW2 8402   2.834   3.889   3.423 -0.4211  0.9126 -0.2594
 2089SOL    HW3 8403   2.908   3.757   3.415  0.0085  1.1058  0.4573
 2089SOL    MW4 8404   2.891   3.836   3.384 -0.1700  0.9258  0.0875
 2090SOL     OW 8405   2.685   4.007   3.464  0.5040  0.0041  0.2885
 2090SOL    HW2 8406   2.659   4.013   3.556  0.0283  0.2242  0.1462
 2090SOL    HW3 8407   2.700   4.098   3.437 -0.1390  0.0173 -0.0593
 2090SOL    MW4 8408   2.683   4.020   3.472  0.3564  0.0353  0.2239
 2091SOL     OW 8409   2.703   4.274   3.405 -0.3612  0.0658  0.2011
 2091SOL    HW2 8410   2.771   4.338   3.425 -0.4164  0.8264 -1.8529
 2091SOL    HW3 8411   2.621   4.321   3.416 -0.4573 -0.1147  0.2613
 2091SOL    MW4 8412   2.701   4.288   3.409 -0.3810  0.1426 -0.0618
 2092SOL     OW 8413   2.934   4.399   3.494  0.8065 -0.3078 -0.2775
 2092SOL    HW2 8414   2.920   4.402   3.589  0.8216 -0.4713 -0.2696
 2092SOL    HW3 8415   2.937   4.491   3.467  0.4578 -0.2663 -0.1700
 2092SOL    MW4 8416   2.933   4.411   3.503  0.7622 -0.3242 -0.2620
 2093SOL     OW 8417   3.383   4.638   3.375  0.0918  0.1189  0.2871
 2093SOL    HW2 8418   3.364   4.551   3.409 -0.6761 -0.2384 -1.0261
 2093SOL    HW3 8419   3.305   4.689   3.397 -0.1968  0.0159 -0.4975
 2093SOL    MW4 8420   3.370   4.633   3.383 -0.0477  0.0587  0.0105
 2094SOL     OW 8421   3.168   0.119   3.480  0.0951  0.2949 -0.3002
 2094SOL    HW2 8422   3.156   0.204   3.438 -0.0455  0.5062  0.1578
 2094SOL    HW3 8423   3.095   0.066   3.449 -0.7728  0.8738  0.7214
 2094SOL    MW4 8424   3.157   0.123   3.471 -0.0377  0.3991 -0.1047
 2095SOL     OW 8425   3.164   0.378   3.355 -0.4544 -0.7359  0.6054
 2095SOL    HW2 8426   3.075   0.398   3.385 -0.7593  0.7486 -1.2155
 2095SOL    HW3 8427   3.220   0.438   3.403 -0.4837 -1.3507  1.4090
 2095SOL    MW4 8428   3.160   0.388   3.365 -0.4985 -0.6212  0.4714
 2096SOL     OW 8429   3.357   0.530   3.511  0.2495  0.2143 -0.3378
 2096SOL    HW2 8430   3.353   0.520   3.606  1.2072  1.2670 -0.1835
 2096SOL    HW3 8431   3.430   0.474   3.483 -0.3070 -0.4379 -0.5171
 2096SOL    MW4 8432   3.366   0.521   3.520  0.3026  0.2671 -0.3414
 2097SOL     OW 8433   3.375   0.776   3.348 -0.0988 -0.1708  0.3710
 2097SOL    HW2 8434   3.451   0.814   3.391  0.2105 -0.8819  0.4561
 2097SOL    HW3 8435   3.362   0.692   3.392 -0.0892 -0.6722 -0.5675
 2097SOL    MW4 8436   3.383   0.770   3.359 -0.0570 -0.3308  0.2582
 2098SOL     OW 8437   3.159   0.896   3.495 -0.7162 -0.3222 -0.4939
 2098SOL    HW2 8438   3.144   0.984   3.461  0.7028  0.8985  1.8925
 2098SOL    HW3 8439   3.214   0.853   3.429 -1.3166  0.6235 -1.6051
 2098SOL    MW4 8440   3.164   0.902   3.482 -0.6082 -0.0364 -0.3257
 2099SOL     OW 8441   3.099   1.155   3.369  0.0417  0.5190  0.3740
 2099SOL    HW2 8442   3.182   1.196   3.391 -0.8423  2.2738  0.4780
 2099SOL    HW3 8443   3.093   1.161   3.274  1.7461 -2.9948 -0.0366
 2099SOL    MW4 8444   3.109   1.161   3.360  0.1497  0.2868  0.3331
 2100SOL     OW 8445   3.343   1.265   3.436 -0.1114  0.0410 -0.5116
 2100SOL    HW2 8446   3.430   1.229   3.418 -0.3068  0.1441 -1.6781
 2100SOL    HW3 8447   3.355   1.360   3.431 -0.0822  0.0834  0.3168
 2100SOL    MW4 8448   3.356   1.273   3.433 -0.1333  0.0602 -0.5565
 2101SOL     OW 8449   3.358   1.535   3.394 -0.0619 -0.1802  0.3517
 2101SOL    HW2 8450   3.430   1.570   3.447 -0.5857 -1.2091  1.7956
 2101SOL    HW3 8451   3.279   1.575   3.431 -0.2503  0.9788 -1.2546
 2101SOL    MW4 8452   3.357   1.545   3.406 -0.1559 -0.1631  0.3302
 2102SOL     OW 8453   3.116   1.648   3.488  0.1519 -0.3003  0.3868
 2102SOL    HW2 8454   3.132   1.740   3.464  0.7974  0.0576  2.1124
 2102SOL    HW3 8455   3.032   1.628   3.447 -0.3594  1.3125  0.5749
 2102SOL    MW4 8456   3.107   1.658   3.480  0.1695 -0.0404  0.6392
 2103SOL     OW 8457   3.121   1.913   3.385  0.1144  0.3774  0.5567
 2103SOL    HW2 8458   3.042   1.964   3.401 -0.1518  0.0108  0.4147
 2103SOL    HW3 8459   3.126   1.908   3.289 -0.5131 -0.8767  0.5807
 2103SOL    MW4 8460   3.111   1.919   3.374 -0.0033  0.1637  0.5412
 2104SOL     OW 8461   3.317   2.053   3.503 -0.3688  0.0581  0.1269
 2104SOL    HW2 8462   3.334   2.130   3.450  0.0934 -0.2879 -0.2274
 2104SOL    HW3 8463   3.246   2.008   3.457  0.0984 -0.2927 -0.2526
 2104SOL    MW4 8464   3.310   2.057   3.490 -0.2458 -0.0339  0.0300
 2105SOL     OW 8465   3.369   2.303   3.360 -0.2581  0.2700 -0.3122
 2105SOL    HW2 8466   3.442   2.347   3.405 -0.7841  0.6533  0.1768
 2105SOL    HW3 8467   3.291   2.349   3.390 -0.6373  0.4551 -1.5388
 2105SOL    MW4 8468   3.368   2.315   3.370 -0.3777  0.3452 -0.4094
 2106SOL     OW 8469   3.145   2.422   3.489 -0.4805  0.0715 -0.1723
 2106SOL    HW2 8470   3.140   2.514   3.463 -3.3787  0.1879  0.6888
 2106SOL    HW3 8471   3.073   2.379   3.442  0.9750 -1.8284 -0.7473
 2106SOL    MW4 8472   3.135   2.428   3.479 -0.6709 -0.1638 -0.1345
 2107SOL     OW 8473   3.139   2.672   3.373  0.3808  0.2893 -0.1548
 2107SOL    HW2 8474   3.204   2.728   3.417  0.2842 -0.1112  0.5063
 2107SOL    HW3 8475   3.055   2.710   3.397  0.3605  0.6167 -0.7487
 2107SOL    MW4 8476   3.137   2.684   3.382  0.3655  0.2794 -0.1462
 2108SOL     OW 8477   3.357   2.820   3.481  0.2048 -0.9974  0.0248
 2108SOL    HW2 8478   3.433   2.770   3.452 -0.6103 -0.1781 -3.6799
 2108SOL    HW3 8479   3.378   2.911   3.459 -1.5530 -0.6721 -0.3684
 2108SOL    MW4 8480   3.370   2.826   3.474 -0.1342 -0.8464 -0.5162
 2109SOL     OW 8481   3.385   3.103   3.408  0.4283  0.2067  0.4892
 2109SOL    HW2 8482   3.464   3.144   3.444  1.3333  0.7179 -1.9918
 2109SOL    HW3 8483   3.312   3.149   3.450  1.4423  0.7571  1.6690
 2109SOL    MW4 8484   3.386   3.115   3.418  0.6816  0.3469  0.3176
 2110SOL     OW 8485   3.144   3.231   3.512 -0.2520  0.6219  0.4559
 2110SOL    HW2 8486   3.156   3.310   3.459 -1.0101 -0.1692 -0.9212
 2110SOL    HW3 8487   3.065   3.191   3.477  0.4737 -1.0704  0.7392
 2110SOL    MW4 8488   3.135   3.236   3.500 -0.2561  0.2944  0.3114
 2111SOL     OW 8489   3.161   3.488   3.384 -0.3088  0.5067 -0.1462
 2111SOL    HW2 8490   3.152   3.492   3.289 -0.8065 -1.3292 -0.1952
 2111SOL    HW3 8491   3.078   3.520   3.418 -0.9156 -0.7792 -0.3781
 2111SOL    MW4 8492   3.149   3.493   3.376 -0.4544  0.0947 -0.1836
 2112SOL     OW 8493   3.385   3.604   3.497 -0.2252  0.3044 -0.4192
 2112SOL    HW2 8494   3.376   3.694   3.466  1.1442  0.3164 -0.7897
 2112SOL    HW3 8495   3.310   3.559   3.458 -0.3172  1.0422 -1.1185
 2112SOL    MW4 8496   3.374   3.610   3.488 -0.0567  0.4034 -0.5605
 2113SOL     OW 8497   3.382   3.869   3.371 -0.0507  0.1499 -0.1106
 2113SOL    HW2 8498   3.445   3.927   3.414  0.6607 -0.2570 -0.5947
 2113SOL    HW3 8499   3.296   3.906   3.392  0.3082  0.1547  1.3649
 2113SOL    MW4 8500   3.379   3.882   3.380  0.0906  0.0970  0.0203
 2114SOL     OW 8501   3.141   3.961   3.472 -0.0043  0.2922 -0.0191
 2114SOL    HW2 8502   3.067   3.914   3.433 -0.8742  1.7452 -0.1209
 2114SOL    HW3 8503   3.122   3.961   3.566 -0.3138  0.9557 -0.0777
 2114SOL    MW4 8504   3.129   3.955   3.480 -0.1600  0.5717 -0.0403
 2115SOL     OW 8505   3.155   4.237   3.420 -0.0047  0.1841 -0.3627
 2115SOL    HW2 8506   3.078   4.281   3.458  0.4497  1.2030 -0.5927
 2115SOL    HW3 8507   3.138   4.144   3.433 -2.0951  0.2992 -1.9530
 2115SOL    MW4 8508   3.142   4.231   3.427 -0.2201  0.3338 -0.6027
 2116SOL     OW 8509   3.357   4.398   3.492  0.3867  0.1506  0.2795
 2116SOL    HW2 8510   3.362   4.383   3.587 -0.6849  0.1996  0.3589
 2116SOL    HW3 8511   3.303   4.325   3.461 -0.0423  0.6514 -0.1548
 2116SOL    MW4 8512   3.350   4.386   3.501  0.1886  0.2232  0.2327
 2117SOL     OW 8513   3.800   4.636   3.406 -0.1709 -0.1579  0.0890
 2117SOL    HW2 8514   3.714   4.667   3.436  0.2645  0.6609  0.4968
 2117SOL    HW3 8515   3.799   4.653   3.311 -0.4203 -0.0375  0.1114
 2117SOL    MW4 8516   3.788   4.643   3.397 -0.1462 -0.0343  0.1457
 2118SOL     OW 8517   3.594   0.104   3.517  0.2375  0.6516 -0.1830
 2118SOL    HW2 8518   3.602   0.190   3.475  0.7038  0.1603 -1.1119
 2118SOL    HW3 8519   3.511   0.069   3.485  1.2222 -0.2820 -1.7397
 2118SOL    MW4 8520   3.584   0.111   3.507  0.4289  0.4636 -0.5107
 2119SOL     OW 8521   3.581   0.375   3.419  0.4404  0.0248  0.2923
 2119SOL    HW2 8522   3.603   0.382   3.326 -0.0680 -2.3207 -0.0254
 2119SOL    HW3 8523   3.655   0.418   3.463  0.5864  1.3528 -1.1727
 2119SOL    MW4 8524   3.594   0.382   3.412  0.3927 -0.1095  0.0570
 2120SOL     OW 8525   3.800   0.507   3.522 -0.1814  0.1225 -0.0195
 2120SOL    HW2 8526   3.798   0.499   3.618  1.1168 -1.3804 -0.0851
 2120SOL    HW3 8527   3.877   0.455   3.496 -0.3964  0.7069 -1.8541
 2120SOL    MW4 8528   3.810   0.499   3.531 -0.0386  0.0013 -0.2701
 2121SOL     OW 8529   3.815   0.744   3.388 -0.0502 -0.0289 -0.1465
 2121SOL    HW2 8530   3.896   0.785   3.419 -1.1972  0.9153  1.6922
 2121SOL    HW3 8531   3.809   0.661   3.437 -0.2285 -0.0631 -0.2225
 2121SOL    MW4 8532   3.825   0.738   3.399 -0.2251  0.0911  0.0861
 2122SOL     OW 8533   3.593   0.888   3.480  0.5059  0.2244 -0.1648
 2122SOL    HW2 8534   3.590   0.879   3.576  0.8492  1.0684 -0.0687
 2122SOL    HW3 8535   3.664   0.832   3.452 -1.4482 -2.3041 -0.2170
 2122SOL    MW4 8536   3.602   0.880   3.489  0.2933  0.0021 -0.1593
 2123SOL     OW 8537   3.597   1.162   3.406  0.2703 -0.1966  0.0851
 2123SOL    HW2 8538   3.625   1.074   3.431  0.8025 -0.4281 -1.2983
 2123SOL    HW3 8539   3.592   1.159   3.310  2.3206  1.8803 -0.1217
 2123SOL    MW4 8540   3.600   1.150   3.397  0.6108  0.0470 -0.1245
 2124SOL     OW 8541   3.816   1.299   3.513 -0.4308 -0.1228 -0.7185
 2124SOL    HW2 8542   3.796   1.305   3.607 -1.2032 -0.2157 -0.8716
 2124SOL    HW3 8543   3.741   1.253   3.475 -0.0557 -0.2124 -1.3622
 2124SOL    MW4 8544   3.803   1.294   3.521 -0.4835 -0.1469 -0.8235
 2125SOL     OW 8545   3.785   1.544   3.386  0.2010 -0.0853  0.0813
 2125SOL    HW2 8546   3.867   1.588   3.407  0.5397 -0.2586 -0.8471
 2125SOL    HW3 8547   3.790   1.460   3.431  1.1012 -0.6311 -1.0285
 2125SOL    MW4 8548   3.796   1.539   3.395  0.3643 -0.1801 -0.1876
 2126SOL     OW 8549   3.578   1.675   3.522 -0.2032 -0.2001  0.5742
 2126SOL    HW2 8550   3.548   1.754   3.477 -2.4936 -0.0529  2.2589
 2126SOL    HW3 8551   3.652   1.644   3.470 -1.0739  1.4573 -1.7286
 2126SOL    MW4 8552   3.584   1.681   3.509 -0.6204  0.0380  0.4926
 2127SOL     OW 8553   3.542   1.940   3.386  0.5662 -0.2819 -0.0571
 2127SOL    HW2 8554   3.617   1.981   3.430  0.4398 -1.1441  0.9784
 2127SOL    HW3 8555   3.466   1.985   3.422  0.5432  0.0974 -0.5747
 2127SOL    MW4 8556   3.542   1.952   3.397  0.5467 -0.3457  0.0112
 2128SOL     OW 8557   3.779   2.070   3.504 -0.0425 -0.5519  0.3797
 2128SOL    HW2 8558   3.780   2.045   3.596  1.3987 -0.6863  0.3252
 2128SOL    HW3 8559   3.854   2.026   3.465 -0.2077  0.0962 -0.7059
 2128SOL    MW4 8560   3.789   2.061   3.511  0.1259 -0.4842  0.2294
 2129SOL     OW 8561   3.822   2.330   3.402 -0.5727  0.1553  0.1290
 2129SOL    HW2 8562   3.898   2.374   3.440  0.7847 -1.3501 -0.7608
 2129SOL    HW3 8563   3.817   2.246   3.449 -0.3680 -0.6686 -1.3078
 2129SOL    MW4 8564   3.831   2.324   3.413 -0.3664 -0.1519 -0.1779
 2130SOL     OW 8565   3.590   2.417   3.490  0.1274 -0.3050  0.0410
 2130SOL    HW2 8566   3.581   2.502   3.446  0.2420 -0.8311 -1.0231
 2130SOL    HW3 8567   3.682   2.394   3.479  0.1589 -0.4261  0.5814
 2130SOL    MW4 8568   3.601   2.425   3.483  0.1471 -0.3905 -0.0284
 2131SOL     OW 8569   3.599   2.687   3.396 -0.0897 -0.4517 -0.4025
 2131SOL    HW2 8570   3.675   2.724   3.442 -0.3205  0.8389 -1.0445
 2131SOL    HW3 8571   3.620   2.699   3.303 -1.8567  1.5515 -0.5816
 2131SOL    MW4 8572   3.612   2.694   3.389 -0.3533 -0.0174 -0.5107
 2132SOL     OW 8573   3.842   2.837   3.495 -0.2259  0.3278  0.3910
 2132SOL    HW2 8574   3.848   2.856   3.588  1.5649  0.4528  0.2685
 2132SOL    HW3 8575   3.845   2.923   3.453  1.6290  0.1577  0.1214
 2132SOL    MW4 8576   3.843   2.851   3.502  0.2551  0.3219  0.3390
 2133SOL     OW 8577   3.838   3.105   3.386  0.4827 -0.0233  0.2793
 2133SOL    HW2 8578   3.911   3.161   3.411  0.1133  1.3431 -1.5579
 2133SOL    HW3 8579   3.840   3.103   3.290 -1.3473 -0.6862  0.2176
 2133SOL    MW4 8580   3.848   3.112   3.377  0.1922  0.0694  0.0286
 2134SOL     OW 8581   3.620   3.245   3.515  0.0391 -0.2075 -0.1822
 2134SOL    HW2 8582   3.622   3.334   3.479 -1.3944 -0.5017 -1.0071
 2134SOL    HW3 8583   3.690   3.199   3.469 -1.6402 -0.5281 -2.4953
 2134SOL    MW4 8584   3.630   3.251   3.504 -0.3717 -0.2887 -0.5958
 2135SOL     OW 8585   3.634   3.489   3.393 -0.2620 -0.6722 -0.0426
 2135SOL    HW2 8586   3.555   3.539   3.416 -1.3220 -1.0998 -2.6291
 2135SOL    HW3 8587   3.642   3.499   3.298  1.3199 -2.7904 -0.1596
 2135SOL    MW4 8588   3.625   3.497   3.384 -0.1926 -1.0083 -0.3994
 2136SOL     OW 8589   3.813   3.662   3.526 -0.4152 -0.0735 -0.5269
 2136SOL    HW2 8590   3.812   3.646   3.620 -1.2324 -1.3954 -0.7454
 2136SOL    HW3 8591   3.748   3.601   3.490  1.4914 -1.2316 -2.1795
 2136SOL    MW4 8592   3.804   3.652   3.534 -0.2716 -0.4010 -0.7739
 2137SOL     OW 8593   3.796   3.903   3.408  0.4336  0.1441  0.2318
 2137SOL    HW2 8594   3.710   3.925   3.443  0.4193  0.8746 -0.2640
 2137SOL    HW3 8595   3.813   3.815   3.442 -0.1462  0.3193  1.0023
 2137SOL    MW4 8596   3.787   3.894   3.417  0.3552  0.2639  0.2682
 2138SOL     OW 8597   3.566   4.019   3.520 -0.4498  0.0274  0.1579
 2138SOL    HW2 8598   3.558   4.024   3.615  0.4652 -0.7290  0.2882
 2138SOL    HW3 8599   3.581   4.109   3.492 -0.9839  0.2874  0.7036
 2138SOL    MW4 8600   3.567   4.032   3.529 -0.3994 -0.0377  0.2468
 2139SOL     OW 8601   3.585   4.267   3.404 -0.1094  0.4529 -0.1173
 2139SOL    HW2 8602   3.508   4.313   3.438 -0.9004  0.5058 -1.9565
 2139SOL    HW3 8603   3.579   4.276   3.309 -0.2380 -3.3876 -0.5369
 2139SOL    MW4 8604   3.574   4.274   3.396 -0.2308 -0.0467 -0.4153
 2140SOL     OW 8605   3.820   4.382   3.510 -0.0725  0.1150 -0.2567
 2140SOL    HW2 8606   3.756   4.322   3.473  1.5887 -0.7395 -1.8183
 2140SOL    HW3 8607   3.810   4.463   3.459  0.2342 -0.0941 -0.6525
 2140SOL    MW4 8608   3.811   4.385   3.499  0.1869 -0.0253 -0.5150
 2141SOL     OW 8609   4.245   4.614   3.433  0.0567  0.0008 -0.1843
 2141SOL    HW2 8610   4.265   4.525   3.462 -1.6877 -0.4044 -0.1543
 2141SOL    HW3 8611   4.321   4.666   3.459  0.6486 -1.2932  0.7010
 2141SOL    MW4 8612   4.258   4.609   3.440 -0.0949 -0.2232 -0.0632
 2142SOL     OW 8613   4.024   0.087   3.537 -0.4598  0.3100 -0.5035
 2142SOL    HW2 8614   4.099   0.038   3.506 -0.1868 -0.3341  1.1221
 2142SOL    HW3 8615   3.949   0.048   3.492  0.0875  0.4763 -1.5757
 2142SOL    MW4 8616   4.024   0.076   3.527 -0.3519  0.2470 -0.4306
 2143SOL     OW 8617   4.028   0.393   3.440 -0.1450  0.1841 -0.0967
 2143SOL    HW2 8618   4.023   0.307   3.483  0.2592  0.3529  0.2832
 2143SOL    HW3 8619   4.061   0.374   3.352  1.1767  0.0941  0.4118
 2143SOL    MW4 8620   4.031   0.379   3.434  0.0830  0.1945  0.0203
 2144SOL     OW 8621   4.257   0.516   3.501 -0.2516  0.1523 -0.2612
 2144SOL    HW2 8622   4.260   0.604   3.463 -1.0827  0.2150 -0.1876
 2144SOL    HW3 8623   4.172   0.482   3.475  0.2560 -0.8051 -0.6627
 2144SOL    MW4 8624   4.246   0.523   3.493 -0.2937  0.0342 -0.3047
 2145SOL     OW 8625   4.301   0.771   3.403 -0.1976 -0.1892 -0.2300
 2145SOL    HW2 8626   4.384   0.800   3.441 -0.6168  0.1413  0.4525
 2145SOL    HW3 8627   4.316   0.773   3.309  1.3249 -2.4159 -0.0599
 2145SOL    MW4 8628   4.314   0.775   3.396 -0.0525 -0.4395 -0.1175
 2146SOL     OW 8629   4.040   0.879   3.489 -0.3951  0.0375 -0.2041
 2146SOL    HW2 8630   4.027   0.966   3.451 -0.3385  0.2067  0.1605
 2146SOL    HW3 8631   4.128   0.854   3.463 -0.0885  0.4598  0.4161
 2146SOL    MW4 8632   4.050   0.887   3.481 -0.3471  0.1155 -0.0741
 2147SOL     OW 8633   4.041   1.142   3.407 -0.2105 -0.0398 -0.6024
 2147SOL    HW2 8634   4.130   1.172   3.425 -0.5408 -0.2792  1.6176
 2147SOL    HW3 8635   3.985   1.211   3.443 -0.9366 -0.3903 -1.0430
 2147SOL    MW4 8636   4.045   1.155   3.414 -0.3500 -0.1177 -0.3676
 2148SOL     OW 8637   4.275   1.272   3.455 -0.4178 -0.0655 -0.0482
 2148SOL    HW2 8638   4.268   1.361   3.421  1.7625  0.3191  0.4577
 2148SOL    HW3 8639   4.353   1.236   3.413 -0.1778 -1.0802  1.2235
 2148SOL    MW4 8640   4.284   1.279   3.445 -0.0987 -0.1488  0.1862
 2149SOL     OW 8641   4.279   1.515   3.356  0.3186  0.1943  0.1270
 2149SOL    HW2 8642   4.192   1.549   3.379  1.1971  2.3272  0.4565
 2149SOL    HW3 8643   4.279   1.513   3.261 -0.0846  0.2161  0.1244
 2149SOL    MW4 8644   4.267   1.519   3.347  0.3805  0.4785  0.1702
 2150SOL     OW 8645   4.033   1.663   3.452  0.0405 -0.1792  0.2798
 2150SOL    HW2 8646   4.066   1.673   3.541 -0.9883 -2.9615  1.0408
 2150SOL    HW3 8647   4.039   1.750   3.413  0.3097  1.1109  3.1404
 2150SOL    MW4 8648   4.038   1.676   3.458 -0.0596 -0.3760  0.7575
 2151SOL     OW 8649   4.023   1.947   3.409 -0.0308  0.0061  0.1362
 2151SOL    HW2 8650   4.071   2.020   3.449 -0.3360  0.5819 -0.5319
 2151SOL    HW3 8651   4.030   1.963   3.315 -0.8192 -0.3624  0.0104
 2151SOL    MW4 8652   4.030   1.959   3.402 -0.1750  0.0335  0.0312
 2152SOL     OW 8653   4.248   2.088   3.527  0.3342 -0.9053 -0.3627
 2152SOL    HW2 8654   4.270   2.172   3.486 -0.2179 -0.1070  0.9701
 2152SOL    HW3 8655   4.319   2.029   3.500  0.2481 -0.2629 -2.0505
 2152SOL    MW4 8656   4.261   2.091   3.518  0.2499 -0.7150 -0.4094
 2153SOL     OW 8657   4.277   2.325   3.410 -0.1629  0.2281 -0.4922
 2153SOL    HW2 8658   4.190   2.359   3.432 -0.4789 -0.5492 -0.5457
 2153SOL    HW3 8659   4.274   2.313   3.315  0.4463  1.4303 -0.6807
 2153SOL    MW4 8660   4.265   2.328   3.401 -0.1249  0.2842 -0.5243
 2154SOL     OW 8661   4.035   2.465   3.506 -0.4569 -0.1115  0.1848
 2154SOL    HW2 8662   4.052   2.476   3.600  0.7918 -0.1829 -0.0206
 2154SOL    HW3 8663   4.040   2.553   3.470 -2.1987  0.0854  0.3644
 2154SOL    MW4 8664   4.038   2.478   3.514 -0.5221 -0.0949  0.1812
 2155SOL     OW 8665   4.046   2.704   3.367  0.4170  0.8825 -0.5792
 2155SOL    HW2 8666   4.113   2.764   3.401  0.4074  0.6316 -0.1093
 2155SOL    HW3 8667   3.965   2.733   3.409  0.7049 -0.5298  0.9817
 2155SOL    MW4 8668   4.044   2.716   3.377  0.4544  0.6633 -0.3116
 2156SOL     OW 8669   4.242   2.873   3.461 -0.1531  0.3843  0.2697
 2156SOL    HW2 8670   4.231   2.880   3.556 -0.9100  2.1244  0.0856
 2156SOL    HW3 8671   4.318   2.817   3.449 -0.1133  0.0722  1.9067
 2156SOL    MW4 8672   4.250   2.867   3.472 -0.2480  0.5727  0.4616
 2157SOL     OW 8673   4.233   3.140   3.382 -0.5073  0.0098  0.1322
 2157SOL    HW2 8674   4.226   3.050   3.411 -1.3840 -0.2468 -0.8230
 2157SOL    HW3 8675   4.250   3.134   3.288 -2.2846  0.8456 -0.2597
 2157SOL    MW4 8676   4.235   3.127   3.373 -0.8574  0.0863 -0.0455
 2158SOL     OW 8677   4.019   3.263   3.497 -0.4643  0.0026  0.3939
 2158SOL    HW2 8678   4.004   3.353   3.468  0.1322 -0.0088  0.0374
 2158SOL    HW3 8679   4.094   3.233   3.445  0.2634 -0.2068  1.5565
 2158SOL    MW4 8680   4.027   3.271   3.486 -0.2899 -0.0267  0.5004
 2159SOL     OW 8681   4.028   3.517   3.374 -0.3223 -0.1304 -0.2871
 2159SOL    HW2 8682   4.102   3.566   3.408  0.0875 -1.5979  1.0113
 2159SOL    HW3 8683   3.951   3.560   3.412 -0.0800  0.5906 -0.5990
 2159SOL    MW4 8684   4.027   3.529   3.383 -0.2360 -0.2286 -0.1569
 2160SOL     OW 8685   4.238   3.657   3.510 -0.1817 -0.2949 -0.2604
 2160SOL    HW2 8686   4.265   3.653   3.602  0.4082 -0.1429 -0.4190
 2160SOL    HW3 8687   4.252   3.748   3.485  1.0957 -0.6546 -0.9128
 2160SOL    MW4 8688   4.244   3.668   3.519  0.0648 -0.3223 -0.3676
 2161SOL     OW 8689   4.254   3.906   3.400 -0.5904 -0.2324  0.0461
 2161SOL    HW2 8690   4.346   3.929   3.416 -0.8487 -0.5309  2.0256
 2161SOL    HW3 8691   4.251   3.884   3.307  1.3713 -0.3163 -0.0166
 2161SOL    MW4 8692   4.266   3.906   3.390 -0.3657 -0.2825  0.2987
 2162SOL     OW 8693   4.029   3.995   3.550 -0.2235  0.2192  0.3429
 2162SOL    HW2 8694   4.094   3.964   3.488 -0.8739  0.7059 -0.6106
 2162SOL    HW3 8695   3.945   3.976   3.508 -0.6784  0.3419  1.1832
 2162SOL    MW4 8696   4.026   3.989   3.536 -0.3695  0.2995  0.3281
 2163SOL     OW 8697   4.057   4.255   3.424 -0.7293 -0.2790  0.1017
 2163SOL    HW2 8698   4.052   4.174   3.474 -0.8504 -0.1657  0.2775
 2163SOL    HW3 8699   3.990   4.311   3.464 -0.1070  0.1891  0.5069
 2163SOL    MW4 8700   4.048   4.252   3.436 -0.6638 -0.2027  0.1783
 2164SOL     OW 8701   4.290   4.357   3.536  0.1618 -0.0591 -0.3726
 2164SOL    HW2 8702   4.284   4.365   3.631 -1.6827  2.1735 -0.6314
 2164SOL    HW3 8703   4.206   4.320   3.509 -0.4207  1.8836 -1.3446
 2164SOL    MW4 8704   4.278   4.353   3.545 -0.1588  0.4916 -0.5350
 2165SOL     OW 8705   0.186   4.638   3.893  0.0651 -0.3269  0.0418
 2165SOL    HW2 8706   0.192   4.637   3.989  0.7986  2.0305  0.0616
 2165SOL    HW3 8707   0.099   4.672   3.874  0.6801  1.1882 -0.1085
 2165SOL    MW4 8708   0.175   4.642   3.903  0.2430  0.1836  0.0246
 2166SOL     OW 8709   4.428   0.051   3.807  0.3249  0.2191 -0.2237
 2166SOL    HW2 8710   4.430   0.141   3.839 -0.5249  0.1719 -0.0216
 2166SOL    HW3 8711   4.418   0.059   3.712  0.9368  0.3412 -0.2792
 2166SOL    MW4 8712   4.427   0.064   3.799  0.2937  0.2290 -0.2043
 2167SOL     OW 8713   4.280   0.519   3.784  0.1292  0.6223 -0.1529
 2167SOL    HW2 8714   4.198   0.491   3.825  0.9605  0.0871  1.1287
 2167SOL    HW3 8715   4.259   0.523   3.690 -0.8139 -1.4090 -0.0353
 2167SOL    MW4 8716   4.266   0.516   3.777  0.1144  0.2837  0.0317
 2168SOL     OW 8717   0.188   0.490   3.772 -0.0622 -0.4805  0.0185
 2168SOL    HW2 8718   0.182   0.486   3.676  1.1947  0.0277 -0.0819
 2168SOL    HW3 8719   0.186   0.583   3.792 -0.7052 -0.5970  0.5225
 2168SOL    MW4 8720   0.187   0.502   3.762  0.0188 -0.4288  0.0718
 2169SOL     OW 8721   0.214   0.769   3.832  0.1452  0.0598  0.1511
 2169SOL    HW2 8722   0.218   0.776   3.928  0.9743 -0.5362  0.1587
 2169SOL    HW3 8723   0.141   0.826   3.808 -0.2998 -0.0663  1.1677
 2169SOL    MW4 8724   0.205   0.778   3.842  0.1959 -0.0355  0.2861
 2170SOL     OW 8725   0.003   0.939   3.741 -0.2014  0.6481 -0.1906
 2170SOL    HW2 8726  -0.078   0.898   3.771 -0.3371  0.5007 -0.7458
 2170SOL    HW3 8727   0.012   1.018   3.794 -0.0131 -0.0273  0.7966
 2170SOL    MW4 8728  -0.006   0.944   3.752 -0.1945  0.5395 -0.1338
 2171SOL     OW 8729   0.007   1.190   3.890 -0.5146 -0.6165  0.0353
 2171SOL    HW2 8730   0.085   1.224   3.847  0.4559 -0.4746  1.8347
 2171SOL    HW3 8731  -0.066   1.232   3.845  0.4668 -0.2331 -1.2277
 2171SOL    MW4 8732   0.007   1.200   3.879 -0.2571 -0.5473  0.1061
 2172SOL     OW 8733   0.217   1.267   3.761 -0.0621  0.0919  0.3214
 2172SOL    HW2 8734   0.235   1.360   3.775  1.6198 -0.2634  0.7161
 2172SOL    HW3 8735   0.216   1.257   3.666  1.7632  0.1870  0.2624
 2172SOL    MW4 8736   0.219   1.278   3.751  0.4006  0.0576  0.3657
 2173SOL     OW 8737   0.245   1.516   3.834 -0.3696 -0.8789  0.0972
 2173SOL    HW2 8738   0.248   1.514   3.930 -1.0134  1.3703  0.1856
 2173SOL    HW3 8739   0.160   1.555   3.814  0.4312  0.1462 -1.3788
 2173SOL    MW4 8740   0.234   1.521   3.844 -0.3489 -0.4468 -0.0861
 2174SOL     OW 8741   0.008   1.647   3.790 -1.0150  0.3626 -0.1138
 2174SOL    HW2 8742   0.011   1.734   3.831  0.3719  0.0838  0.4228
 2174SOL    HW3 8743   0.007   1.665   3.696 -1.4457  0.9741  0.0033
 2174SOL    MW4 8744   0.008   1.661   3.783 -0.8888  0.4065 -0.0274
 2175SOL     OW 8745   0.016   1.921   3.875  0.5984 -0.4240  0.3962
 2175SOL    HW2 8746   0.023   1.925   3.971 -0.0054  0.0302  0.4217
 2175SOL    HW3 8747  -0.045   1.990   3.852  1.5356  0.1460 -0.4203
 2175SOL    MW4 8748   0.009   1.930   3.885  0.6423 -0.2888  0.2918
 2176SOL     OW 8749   0.222   2.051   3.775 -0.2695 -0.0301  0.0680
 2176SOL    HW2 8750   0.233   2.139   3.812  2.1700 -0.9332  1.6427
 2176SOL    HW3 8751   0.143   2.017   3.817 -1.4808  1.5365 -0.8764
 2176SOL    MW4 8752   0.213   2.058   3.786 -0.1075  0.0572  0.1514
 2177SOL     OW 8753   0.243   2.327   3.847 -0.1404  0.8336 -0.0442
 2177SOL    HW2 8754   0.235   2.335   3.942 -0.6921 -0.9921  0.0836
 2177SOL    HW3 8755   0.163   2.366   3.812 -0.8601 -0.2623  0.3482
 2177SOL    MW4 8756   0.232   2.333   3.855 -0.3082  0.4480  0.0243
 2178SOL     OW 8757   0.022   2.459   3.752 -0.0393 -0.3711 -0.1458
 2178SOL    HW2 8758  -0.051   2.405   3.783 -0.6262 -0.3781 -1.5175
 2178SOL    HW3 8759   0.000   2.548   3.779 -0.0914 -0.5127  0.2798
 2178SOL    MW4 8760   0.009   2.463   3.760 -0.1236 -0.3908 -0.2704
 2179SOL     OW 8761   0.003   2.720   3.822  0.0364  0.0930  0.1244
 2179SOL    HW2 8762   0.009   2.726   3.917  2.0004 -1.0497  0.1083
 2179SOL    HW3 8763   0.080   2.768   3.791  0.4276 -1.1134 -0.8111
 2179SOL    MW4 8764   0.014   2.727   3.830  0.3471 -0.2167 -0.0012
 2180SOL     OW 8765   0.245   2.865   3.766 -0.0651 -0.1201 -0.4552
 2180SOL    HW2 8766   0.316   2.807   3.794  0.3731  0.5737 -0.0983
 2180SOL    HW3 8767   0.238   2.852   3.672  0.2749 -0.4804 -0.4298
 2180SOL    MW4 8768   0.253   2.856   3.758  0.0376 -0.0763 -0.4046
 2181SOL     OW 8769   0.236   3.117   3.880 -0.0229  0.1871  0.0325
 2181SOL    HW2 8770   0.230   3.099   3.974 -0.4110 -2.0605 -0.3788
 2181SOL    HW3 8771   0.228   3.031   3.839  0.9743  1.0428 -2.0393
 2181SOL    MW4 8772   0.234   3.103   3.887  0.0575  0.0036 -0.2952
 2182SOL     OW 8773   0.002   3.217   3.767  0.2369 -0.1977  0.3613
 2182SOL    HW2 8774   0.091   3.194   3.796  0.5116  0.3970  0.0016
 2182SOL    HW3 8775   0.007   3.214   3.672  0.6377  2.6138  0.2583
 2182SOL    MW4 8776   0.015   3.213   3.759  0.3262  0.2518  0.3004
 2183SOL     OW 8777   4.480   3.462   3.894 -0.1664 -1.0168 -0.2111
 2183SOL    HW2 8778   4.473   3.372   3.861  1.5181 -1.7588  1.4134
 2183SOL    HW3 8779   4.560   3.496   3.854 -0.7110 -0.2834 -0.6888
 2183SOL    MW4 8780   4.489   3.455   3.884 -0.0157 -1.0178 -0.0601
 2184SOL     OW 8781   0.190   3.587   3.744  0.1581 -0.2723 -0.3347
 2184SOL    HW2 8782   0.268   3.547   3.784  0.1376  0.5620  0.5533
 2184SOL    HW3 8783   0.187   3.676   3.780  0.8057  0.9164 -3.1178
 2184SOL    MW4 8784   0.200   3.593   3.754  0.2409 -0.0052 -0.5846
 2185SOL     OW 8785   0.197   3.828   3.890 -0.2727 -0.1197  0.0396
 2185SOL    HW2 8786   0.201   3.844   3.984  0.2437 -0.8934  0.1605
 2185SOL    HW3 8787   0.271   3.877   3.854  0.1198 -0.6120  0.1640
 2185SOL    MW4 8788   0.207   3.836   3.897 -0.1528 -0.2866  0.0720
 2186SOL     OW 8789   4.485   3.984   3.803  0.0557 -0.6417  0.1904
 2186SOL    HW2 8790   4.411   3.936   3.841 -0.3640 -0.4606 -0.3988
 2186SOL    HW3 8791   4.562   3.945   3.844 -0.4368  0.1937  1.9509
 2186SOL    MW4 8792   4.486   3.972   3.813 -0.0648 -0.5078  0.3450
 2187SOL     OW 8793   0.011   4.244   3.890 -0.0613  0.3049  0.2647
 2187SOL    HW2 8794   0.087   4.284   3.847  0.2778  0.6391  1.1695
 2187SOL    HW3 8795   0.016   4.151   3.867 -0.5584  0.6700 -1.4103
 2187SOL    MW4 8796   0.021   4.237   3.881 -0.0821  0.3977  0.1631
 2188SOL     OW 8797   0.192   4.379   3.737  0.0793 -0.2194 -0.1278
 2188SOL    HW2 8798   0.271   4.344   3.778  0.0723  0.2819  0.3164
 2188SOL    HW3 8799   0.170   4.457   3.789 -1.3345 -0.9774  0.4287
 2188SOL    MW4 8800   0.200   4.385   3.749 -0.1082 -0.2532  0.0043
 2189SOL     OW 8801   0.660   4.654   3.859  0.0692 -0.1637  0.1815
 2189SOL    HW2 8802   0.652   4.565   3.827  1.2525 -0.4014  0.5365
 2189SOL    HW3 8803   0.578   4.697   3.833 -0.2537 -1.1885 -0.4800
 2189SOL    MW4 8804   0.648   4.648   3.852  0.1828 -0.3300  0.1414
 2190SOL     OW 8805   0.423   0.084   3.752 -0.0420  0.0709  0.0001
 2190SOL    HW2 8806   0.433   0.177   3.772  0.8713 -0.3769  1.6971
 2190SOL    HW3 8807   0.341   0.059   3.794 -0.0103 -0.0230  0.0050
 2190SOL    MW4 8808   0.414   0.093   3.760  0.0826 -0.0006  0.2248
 2191SOL     OW 8809   0.452   0.341   3.834 -0.1161 -0.4713 -0.2319
 2191SOL    HW2 8810   0.511   0.409   3.802 -0.0944  0.0973  0.9913
 2191SOL    HW3 8811   0.364   0.375   3.814 -0.1118  0.0073  0.5443
 2191SOL    MW4 8812   0.448   0.355   3.827 -0.1127 -0.3331  0.0322
 2192SOL     OW 8813   0.693   0.479   3.782 -0.2388  0.0914  0.4702
 2192SOL    HW2 8814   0.758   0.430   3.833  0.8354  0.1730 -0.8100
 2192SOL    HW3 8815   0.677   0.558   3.834  0.2244 -0.2176  1.0931
 2192SOL    MW4 8816   0.699   0.483   3.796 -0.0360  0.0614  0.3836
 2193SOL     OW 8817   0.662   0.729   3.913  0.3127  0.0216  0.0054
 2193SOL    HW2 8818   0.734   0.773   3.868  0.4520 -0.6636 -0.4663
 2193SOL    HW3 8819   0.583   0.770   3.877  0.4789  1.2575  1.0422
 2193SOL    MW4 8820   0.661   0.740   3.902  0.3529  0.0942  0.0796
 2194SOL     OW 8821   0.472   0.879   3.762 -0.2235  0.2608  0.0805
 2194SOL    HW2 8822   0.466   0.963   3.805 -1.5887  0.9002 -1.3250
 2194SOL    HW3 8823   0.386   0.839   3.772 -0.2905  0.0356 -1.2558
 2194SOL    MW4 8824   0.460   0.885   3.769 -0.4125  0.3155 -0.2811
 2195SOL     OW 8825   0.458   1.146   3.870 -0.2828  0.0510 -0.1816
 2195SOL    HW2 8826   0.528   1.198   3.830  0.3193 -0.1090  0.6603
 2195SOL    HW3 8827   0.377   1.189   3.840  0.1986  1.1064  0.0140
 2195SOL    MW4 8828   0.456   1.159   3.860 -0.1398  0.1690 -0.0446
 2196SOL     OW 8829   0.680   1.298   3.746  0.2181 -0.1702  0.0923
 2196SOL    HW2 8830   0.767   1.262   3.764  0.2441 -1.1804 -1.8894
 2196SOL    HW3 8831   0.679   1.309   3.651 -1.6479  0.2974  0.1593
 2196SOL    MW4 8832   0.692   1.295   3.736 -0.0247 -0.2418 -0.1605
 2197SOL     OW 8833   0.659   1.534   3.879  0.2512  0.4355  0.3434
 2197SOL    HW2 8834   0.674   1.456   3.825 -0.5723  0.2166  0.4274
 2197SOL    HW3 8835   0.685   1.507   3.967  0.1361  0.3155  0.3406
 2197SOL    MW4 8836   0.664   1.520   3.883  0.1274  0.3909  0.3541
 2198SOL     OW 8837   0.459   1.660   3.749 -0.4867 -0.4536 -0.0194
 2198SOL    HW2 8838   0.536   1.630   3.796  0.5605  0.6980 -0.9693
 2198SOL    HW3 8839   0.387   1.609   3.786  0.9111 -2.5118 -0.0305
 2198SOL    MW4 8840   0.460   1.649   3.760 -0.1641 -0.5733 -0.1464
 2199SOL     OW 8841   0.436   1.904   3.870  0.6741 -0.1539 -0.3127
 2199SOL    HW2 8842   0.445   1.818   3.829 -0.3661 -0.3470 -0.1328
 2199SOL    HW3 8843   0.360   1.944   3.828  0.3735  0.1600  0.5243
 2199SOL    MW4 8844   0.427   1.898   3.859  0.4972 -0.1379 -0.1786
 2200SOL     OW 8845   0.639   2.070   3.790  0.4665  0.2348 -0.1932
 2200SOL    HW2 8846   0.664   2.070   3.697 -0.3893 -0.7076 -0.4269
 2200SOL    HW3 8847   0.556   2.023   3.792  0.6157  0.0287  1.0875
 2200SOL    MW4 8848   0.632   2.064   3.778  0.3734  0.0830 -0.0551
 2201SOL     OW 8849   3.358   1.461   4.343  0.4773 -0.0929 -0.2089
 2201SOL    HW2 8850   3.440   1.506   4.362  0.6960 -0.8850  0.7666
 2201SOL    HW3 8851   3.325   1.503   4.264  1.1423  1.1460  0.1644
 2201SOL    MW4 8852   3.364   1.472   4.335  0.5939 -0.0340 -0.0315
 2202SOL     OW 8853   0.473   2.450   3.789 -0.0734 -0.5633  0.5552
 2202SOL    HW2 8854   0.394   2.399   3.807  1.0170 -2.2402  0.7405
 2202SOL    HW3 8855   0.472   2.465   3.694 -2.1632  2.0914  0.9531
 2202SOL    MW4 8856   0.463   2.445   3.779 -0.2052 -0.4344  0.6323
 2203SOL     OW 8857   0.423   2.695   3.890  0.0478 -0.1056  0.2619
 2203SOL    HW2 8858   0.433   2.603   3.865  2.0886 -0.3415  1.7820
 2203SOL    HW3 8859   0.399   2.693   3.983 -0.7150  0.8902  0.1004
 2203SOL    MW4 8860   0.421   2.683   3.899  0.2164 -0.0050  0.4411
 2204SOL     OW 8861   0.860   2.682   3.877 -0.0192 -0.0782  0.2231
 2204SOL    HW2 8862   0.946   2.702   3.841  1.3127 -2.0219  2.1552
 2204SOL    HW3 8863   0.843   2.592   3.850 -1.7349  0.4775 -0.6280
 2204SOL    MW4 8864   0.869   2.673   3.869 -0.0698 -0.2615  0.3657
 2205SOL     OW 8865   0.643   2.824   3.801 -0.4089 -0.0481 -0.6038
 2205SOL    HW2 8866   0.719   2.781   3.840  0.2568  0.1851 -1.6522
 2205SOL    HW3 8867   0.568   2.781   3.843  0.2837 -0.3761  0.3263
 2205SOL    MW4 8868   0.643   2.813   3.812 -0.2297 -0.0608 -0.6194
 2206SOL     OW 8869   0.425   3.469   3.853  0.1576 -0.0903  0.2449
 2206SOL    HW2 8870   0.497   3.516   3.811  0.6156  0.6610  1.8156
 2206SOL    HW3 8871   0.420   3.386   3.807 -0.2200  1.1977 -2.1671
 2206SOL    MW4 8872   0.434   3.465   3.841  0.1681  0.1788  0.1340
 2207SOL     OW 8873   0.702   3.110   4.153 -0.5904 -0.0798 -0.3904
 2207SOL    HW2 8874   0.690   3.015   4.162  0.3351 -0.2011 -0.4501
 2207SOL    HW3 8875   0.620   3.147   4.186 -0.0054 -0.7923  1.9810
 2207SOL    MW4 8876   0.689   3.102   4.158 -0.3911 -0.1900 -0.0854
 2208SOL     OW 8877   0.674   3.591   3.451 -0.3541  0.0951  0.2166
 2208SOL    HW2 8878   0.596   3.542   3.426  0.3240 -1.1296  0.4915
 2208SOL    HW3 8879   0.747   3.536   3.424  0.4469  1.6853 -0.9580
 2208SOL    MW4 8880   0.673   3.578   3.444 -0.1590  0.1435  0.0980
 2209SOL     OW 8881   0.635   3.854   3.839 -0.0558  0.0491  0.3629
 2209SOL    HW2 8882   0.649   3.856   3.934  0.2873 -0.7026  0.3343
 2209SOL    HW3 8883   0.696   3.920   3.805 -1.1422  1.2748  0.7702
 2209SOL    MW4 8884   0.645   3.863   3.847 -0.1538  0.1118  0.4129
 2210SOL     OW 8885   0.414   3.978   3.742  0.4264  0.2390  0.6535
 2210SOL    HW2 8886   0.485   3.929   3.783 -0.5804 -1.6197  0.2165
 2210SOL    HW3 8887   0.431   3.970   3.648  0.7015  1.4037  0.6029
 2210SOL    MW4 8888   0.425   3.970   3.735  0.3299  0.1473  0.5891
 2211SOL     OW 8889   0.664   4.389   3.758 -0.2265  0.5493 -0.2400
 2211SOL    HW2 8890   0.656   4.387   3.663 -1.0864 -0.7647 -0.1506
 2211SOL    HW3 8891   0.753   4.358   3.776 -0.9228 -1.7398 -0.5328
 2211SOL    MW4 8892   0.675   4.385   3.748 -0.4318  0.0739 -0.2668
 2212SOL     OW 8893   0.900   4.273   3.852 -0.5051  0.4327  0.4444
 2212SOL    HW2 8894   0.875   4.270   3.944 -1.0599  0.8557  0.3121
 2212SOL    HW3 8895   0.879   4.185   3.819  1.2745 -0.2682  1.1095
 2212SOL    MW4 8896   0.894   4.261   3.860 -0.3434  0.3963  0.5145
 2213SOL     OW 8897   1.133   4.658   3.878  0.1527  0.0076 -0.3595
 2213SOL    HW2 8898   1.130   4.571   3.839  1.0175 -0.6751  1.0509
 2213SOL    HW3 8899   1.207   4.701   3.836  1.7095 -1.0784  1.2085
 2213SOL    MW4 8900   1.143   4.652   3.867  0.4722 -0.2255  0.0331
 2214SOL     OW 8901   0.903   0.133   3.780  0.3974 -0.1038  0.0547
 2214SOL    HW2 8902   0.828   0.080   3.806  0.6598 -0.2046  0.6339
 2214SOL    HW3 8903   0.979   0.082   3.810  0.6687  0.3469  0.1376
 2214SOL    MW4 8904   0.903   0.119   3.788  0.4678 -0.0576  0.1419
 2215SOL     OW 8905   0.918   0.387   3.901 -0.3285 -0.1871 -0.1580
 2215SOL    HW2 8906   0.909   0.360   3.993 -1.3287 -0.5197 -0.3537
 2215SOL    HW3 8907   0.923   0.305   3.853 -0.4396 -0.0122 -0.4651
 2215SOL    MW4 8908   0.917   0.372   3.907 -0.4751 -0.2079 -0.2241
 2216SOL     OW 8909   1.116   0.529   3.784  0.2310 -0.2348 -0.1849
 2216SOL    HW2 8910   1.198   0.494   3.820  0.5884 -0.4216 -1.1703
 2216SOL    HW3 8911   1.047   0.481   3.831  0.6886 -0.2414  0.4809
 2216SOL    MW4 8912   1.118   0.518   3.795  0.3387 -0.2604 -0.2275
 2217SOL     OW 8913   1.138   0.810   3.845 -0.0490  0.0858  0.2759
 2217SOL    HW2 8914   1.152   0.809   3.940  0.1359 -2.2495  0.2674
 2217SOL    HW3 8915   1.140   0.718   3.820 -1.2333  0.5916 -1.8446
 2217SOL    MW4 8916   1.140   0.798   3.854 -0.1808 -0.1556 -0.0050
 2218SOL     OW 8917   0.854   0.873   3.774  0.1636 -0.7521 -0.3995
 2218SOL    HW2 8918   0.939   0.850   3.811  0.5452  0.8036 -0.2674
 2218SOL    HW3 8919   0.869   0.874   3.679 -0.0273 -1.6666 -0.4476
 2218SOL    MW4 8920   0.867   0.870   3.766  0.1888 -0.6675 -0.3881
 2219SOL     OW 8921   0.901   1.155   3.847  0.1097 -0.0455  0.2953
 2219SOL    HW2 8922   0.921   1.148   3.941 -0.3634 -0.2342  0.3876
 2219SOL    HW3 8923   0.879   1.066   3.821 -2.1380  0.3897  0.5744
 2219SOL    MW4 8924   0.901   1.143   3.856 -0.2493 -0.0130  0.3443
 2220SOL     OW 8925   1.131   1.276   3.794 -0.1773 -0.0433  0.5632
 2220SOL    HW2 8926   1.122   1.359   3.840  0.7068 -0.8038  2.1578
 2220SOL    HW3 8927   1.046   1.233   3.804 -0.3906  0.3384  0.3972
 2220SOL    MW4 8928   1.119   1.281   3.802 -0.0888 -0.0935  0.7517
 2221SOL     OW 8929   1.111   1.536   3.888  0.0049  0.0982  0.2733
 2221SOL    HW2 8930   1.118   1.556   3.981  1.3007 -0.2568  0.2620
 2221SOL    HW3 8931   1.187   1.579   3.848 -0.4849  0.1632 -0.6049
 2221SOL    MW4 8932   1.122   1.544   3.895  0.1112  0.0601  0.1557
 2222SOL     OW 8933   0.883   1.694   3.776  0.3169  0.2053 -0.1740
 2222SOL    HW2 8934   0.957   1.656   3.822 -0.2850  1.9402  2.3215
 2222SOL    HW3 8935   0.807   1.646   3.809  0.1733 -0.5208 -1.5545
 2222SOL    MW4 8936   0.883   1.683   3.786  0.2186  0.3384 -0.0267
 2223SOL     OW 8937   0.869   1.939   3.888  0.0546  0.1966 -0.3928
 2223SOL    HW2 8938   0.783   1.971   3.860 -1.0903 -0.8231  1.8600
 2223SOL    HW3 8939   0.878   1.854   3.844 -0.3791  0.0017 -0.1042
 2223SOL    MW4 8940   0.859   1.932   3.878 -0.1537  0.0364 -0.0577
 2224SOL     OW 8941   1.089   2.039   3.744 -0.0422  0.0852  0.0380
 2224SOL    HW2 8942   1.011   2.003   3.787  0.2920  0.3271  0.8542
 2224SOL    HW3 8943   1.162   2.000   3.792  0.3437 -0.0220 -0.6295
 2224SOL    MW4 8944   1.088   2.029   3.756  0.0529  0.1030  0.0577
 2225SOL     OW 8945   1.097   2.317   3.883  0.2921  0.0988  0.2078
 2225SOL    HW2 8946   1.104   2.227   3.850 -0.2890  0.4723 -0.9444
 2225SOL    HW3 8947   1.078   2.307   3.976 -1.3458 -0.9945 -0.2208
 2225SOL    MW4 8948   1.096   2.304   3.891 -0.0007  0.0038 -0.0010
 2226SOL     OW 8949   0.857   2.406   3.772 -0.0187  0.0065 -0.0862
 2226SOL    HW2 8950   0.794   2.370   3.835 -0.3374  1.2592  0.3212
 2226SOL    HW3 8951   0.942   2.376   3.805 -0.4021 -1.9101 -0.7868
 2226SOL    MW4 8952   0.860   2.397   3.785 -0.1113 -0.0811 -0.1252
 2227SOL     OW 8953   0.666   2.297   3.931  0.3895 -0.1932 -0.2817
 2227SOL    HW2 8954   0.599   2.354   3.895  0.6660  1.4229  1.6784
 2227SOL    HW3 8955   0.662   2.218   3.878 -2.8296  0.0142 -0.4168
 2227SOL    MW4 8956   0.657   2.294   3.919  0.0013  0.0472 -0.0408
 2228SOL     OW 8957   1.099   2.834   3.748  0.0389 -0.5518  0.2068
 2228SOL    HW2 8958   1.075   2.919   3.785  0.3193 -0.2067 -0.3803
 2228SOL    HW3 8959   1.180   2.810   3.793  1.3084  0.6741 -1.3640
 2228SOL    MW4 8960   1.106   2.842   3.758  0.2433 -0.3443 -0.0782
 2229SOL     OW 8961   1.093   3.089   3.875  0.3284  0.1242  0.0544
 2229SOL    HW2 8962   1.176   3.121   3.839  0.6508 -0.7591  0.0013
 2229SOL    HW3 8963   1.027   3.146   3.836  0.8787  0.6327 -0.1519
 2229SOL    MW4 8964   1.095   3.101   3.865  0.4436  0.0746  0.0203
 2230SOL     OW 8965   0.897   3.259   3.768 -0.1308  0.0578  0.6780
 2230SOL    HW2 8966   0.809   3.225   3.788  1.0083 -2.7965  1.1052
 2230SOL    HW3 8967   0.910   3.237   3.676  0.2911  0.1125  0.7275
 2230SOL    MW4 8968   0.887   3.252   3.759  0.0752 -0.3116  0.7408
 2231SOL     OW 8969   0.658   3.596   3.738  0.1676  0.0283 -0.2775
 2231SOL    HW2 8970   0.683   3.603   3.645 -1.7562 -1.4333 -0.9378
 2231SOL    HW3 8971   0.655   3.686   3.769  1.7597  0.4929 -1.3716
 2231SOL    MW4 8972   0.661   3.608   3.730  0.1239 -0.1032 -0.5088
 2232SOL     OW 8973   1.133   3.629   3.755 -0.5723 -0.0660 -0.6067
 2232SOL    HW2 8974   1.136   3.718   3.790 -0.1682 -0.9954  1.8633
 2232SOL    HW3 8975   1.047   3.596   3.780 -0.6373 -0.4380 -1.3146
 2232SOL    MW4 8976   1.122   3.636   3.763 -0.5276 -0.2377 -0.3743
 2233SOL     OW 8977   1.116   3.918   3.784 -0.3450  0.5185 -0.0545
 2233SOL    HW2 8978   1.125   3.934   3.878  2.1160  0.0944 -0.1854
 2233SOL    HW3 8979   1.197   3.951   3.747 -0.4948 -1.0466 -1.8172
 2233SOL    MW4 8980   1.128   3.925   3.792 -0.0401  0.2561 -0.3042
 2234SOL     OW 8981   0.840   4.031   3.737 -0.2608  0.0764  0.0127
 2234SOL    HW2 8982   0.927   3.994   3.754 -0.0175  1.0100  0.8646
 2234SOL    HW3 8983   0.829   4.023   3.643  0.8035  0.0409 -0.1221
 2234SOL    MW4 8984   0.850   4.025   3.727 -0.0882  0.1945  0.1073
 2235SOL     OW 8985   1.600   0.786   3.914 -0.3806 -0.1829  0.0861
 2235SOL    HW2 8986   1.669   0.841   3.878  0.6578 -1.4320  0.1169
 2235SOL    HW3 8987   1.521   0.814   3.869  0.3329  0.5219 -0.7546
 2235SOL    MW4 8988   1.599   0.797   3.904 -0.1494 -0.2547 -0.0210
 2236SOL     OW 8989   1.136   4.403   3.763  0.0720 -0.4097  0.6766
 2236SOL    HW2 8990   1.064   4.354   3.802 -0.4275 -0.2155  0.0020
 2236SOL    HW3 8991   1.120   4.398   3.669  1.0675 -0.5621  0.5110
 2236SOL    MW4 8992   1.124   4.396   3.756  0.1376 -0.4039  0.5658
 2237SOL     OW 8993   1.560   0.012   3.882 -0.2935 -0.2956  0.2650
 2237SOL    HW2 8994   1.531   0.016   3.973 -0.1099 -0.4443  0.3294
 2237SOL    HW3 8995   1.574  -0.082   3.865 -1.8294 -0.4290 -0.3832
 2237SOL    MW4 8996   1.558  -0.000   3.892 -0.4719 -0.3328  0.1884
 2238SOL     OW 8997   1.341   0.144   3.736  0.0546  0.6954  0.2878
 2238SOL    HW2 8998   1.330   0.230   3.776  0.4035  0.1719  1.5520
 2238SOL    HW3 8999   1.412   0.103   3.786 -0.1488 -0.3425 -0.2550
 2238SOL    MW4 9000   1.349   0.150   3.748  0.0738  0.4894  0.3831
 2239SOL     OW 9001   1.345   0.386   3.874 -0.1846  0.1071 -0.0082
 2239SOL    HW2 9002   1.339   0.372   3.968  0.8084 -0.8504 -0.0730
 2239SOL    HW3 9003   1.427   0.433   3.861 -1.1122  1.7040 -0.2621
 2239SOL    MW4 9004   1.355   0.390   3.884 -0.1760  0.1915 -0.0501
 2240SOL     OW 9005   1.576   0.538   3.801  0.2393  0.6335 -0.1221
 2240SOL    HW2 9006   1.643   0.489   3.850  0.9028  1.4075 -0.2564
 2240SOL    HW3 9007   1.577   0.625   3.840 -1.5813  0.2923  0.7298
 2240SOL    MW4 9008   1.585   0.543   3.813  0.0868  0.6906 -0.0274
 2241SOL     OW 9009   3.975   0.692   4.641  0.1742 -0.6747 -0.2510
 2241SOL    HW2 9010   3.959   0.783   4.615  0.9460  0.3242  2.6472
 2241SOL    HW3 9011   3.891   0.649   4.627 -0.7961  0.9754  0.2755
 2241SOL    MW4 9012   3.962   0.698   4.636  0.1481 -0.3251  0.2012
 2242SOL     OW 9013   1.394   0.899   3.773 -0.0256 -0.0451  0.1683
 2242SOL    HW2 9014   1.382   0.991   3.795  0.2988  0.0755 -0.1665
 2242SOL    HW3 9015   1.312   0.857   3.800 -0.5608  0.5072 -0.6033
 2242SOL    MW4 9016   1.381   0.906   3.780 -0.0535  0.0437  0.0222
 2243SOL     OW 9017   1.362   1.167   3.879  0.5792  0.0326 -0.5105
 2243SOL    HW2 9018   1.284   1.215   3.851  0.6993  0.2358 -0.4934
 2243SOL    HW3 9019   1.434   1.228   3.866  0.7543 -0.2060 -0.6564
 2243SOL    MW4 9020   1.361   1.181   3.874  0.6181  0.0280 -0.5276
 2244SOL     OW 9021   0.952   1.114   4.125 -0.1091  0.1176  0.8676
 2244SOL    HW2 9022   0.938   1.028   4.163 -0.3545  0.0187  0.5583
 2244SOL    HW3 9023   1.013   1.157   4.184  1.3849 -0.9097  0.0902
 2244SOL    MW4 9024   0.958   1.108   4.137  0.0557 -0.0310  0.7238
 2245SOL     OW 9025   1.839   1.180   3.895  0.5831  0.2719  0.4182
 2245SOL    HW2 9026   1.850   1.093   3.856 -0.0402  0.5292 -0.3306
 2245SOL    HW3 9027   1.909   1.232   3.855 -0.2360  0.6122 -0.5960
 2245SOL    MW4 9028   1.850   1.175   3.885  0.3928  0.3506  0.1857
 2246SOL     OW 9029   1.344   1.653   3.787  0.2920  0.1908 -0.3092
 2246SOL    HW2 9030   1.336   1.741   3.823 -2.1833  0.1389 -0.6827
 2246SOL    HW3 9031   1.342   1.665   3.692  0.3540 -0.2465 -0.3673
 2246SOL    MW4 9032   1.343   1.666   3.779 -0.0265  0.1262 -0.3662
 2247SOL     OW 9033   1.537   2.072   3.774 -0.0480  0.2483  0.6023
 2247SOL    HW2 9034   1.553   2.070   3.679 -2.7403 -0.3250  0.1227
 2247SOL    HW3 9035   1.535   2.165   3.796  1.7851  0.3693  0.3339
 2247SOL    MW4 9036   1.539   2.084   3.764 -0.1612  0.1886  0.5040
 2248SOL     OW 9037   1.813   1.975   4.207 -0.2640  0.6657 -0.2929
 2248SOL    HW2 9038   1.802   1.983   4.112 -1.1452  0.1935 -0.2296
 2248SOL    HW3 9039   1.731   2.007   4.244 -0.8544 -1.3585  0.2228
 2248SOL    MW4 9040   1.801   1.980   4.199 -0.4581  0.3365 -0.2170
 2249SOL     OW 9041   1.758   1.952   3.917 -0.2473 -0.1280 -0.1765
 2249SOL    HW2 9042   1.766   1.861   3.888 -0.6760 -0.0821 -0.4398
 2249SOL    HW3 9043   1.673   1.980   3.885 -0.5533  0.0479  0.7790
 2249SOL    MW4 9044   1.748   1.944   3.909 -0.3444 -0.0986 -0.0849
 2250SOL     OW 9045   1.326   2.456   3.813  0.3089  0.3176  0.0326
 2250SOL    HW2 9046   1.408   2.419   3.846  0.7925  2.6243  1.5597
 2250SOL    HW3 9047   1.260   2.391   3.835  1.4008 -0.5060  0.9576
 2250SOL    MW4 9048   1.328   2.443   3.820  0.5168  0.5133  0.3564
 2251SOL     OW 9049   1.345   2.744   3.847  0.3046 -0.3191  0.4790
 2251SOL    HW2 9050   1.341   2.733   3.942 -2.1879 -0.5157  0.3753
 2251SOL    HW3 9051   1.342   2.654   3.813 -0.6588 -0.1818  0.1798
 2251SOL    MW4 9052   1.344   2.730   3.855 -0.1513 -0.3269  0.4263
 2252SOL     OW 9053   1.603   2.788   3.796  0.1627  0.4198 -0.4657
 2252SOL    HW2 9054   1.513   2.777   3.826 -0.1499  2.1818 -0.7345
 2252SOL    HW3 9055   1.596   2.804   3.702  0.8777 -1.1076 -0.7942
 2252SOL    MW4 9056   1.590   2.789   3.788  0.2158  0.4506 -0.5443
 2253SOL     OW 9057   1.567   3.063   3.855 -0.4451 -0.3279  0.0066
 2253SOL    HW2 9058   1.549   3.065   3.949  0.6551 -0.8708  0.2400
 2253SOL    HW3 9059   1.589   2.972   3.836  3.3013  0.4900  0.0286
 2253SOL    MW4 9060   1.568   3.051   3.865  0.1943 -0.2918  0.0405
 2254SOL     OW 9061   1.333   3.181   3.763 -0.2714 -0.4198 -0.2305
 2254SOL    HW2 9062   1.339   3.275   3.777 -1.0014 -0.4257  0.1576
 2254SOL    HW3 9063   1.419   3.147   3.785 -0.0433  0.1443 -0.2557
 2254SOL    MW4 9064   1.345   3.189   3.768 -0.3377 -0.3462 -0.1826
 2255SOL     OW 9065   1.341   3.456   3.848 -0.3472 -0.0549 -0.0697
 2255SOL    HW2 9066   1.267   3.501   3.808 -0.2118 -0.7013 -1.0610
 2255SOL    HW3 9067   1.418   3.493   3.804 -0.1480 -0.1554  0.1947
 2255SOL    MW4 9068   1.342   3.467   3.837 -0.3030 -0.1535 -0.1655
 2256SOL     OW 9069   1.567   3.579   3.732  0.1756  0.3505  0.2163
 2256SOL    HW2 9070   1.649   3.541   3.764  0.8864  1.1507 -0.6133
 2256SOL    HW3 9071   1.559   3.662   3.780 -0.7477 -0.2625  1.1384
 2256SOL    MW4 9072   1.577   3.585   3.742  0.1476  0.3753  0.2282
 2257SOL     OW 9073   1.559   3.856   3.831 -0.0751 -0.1160  0.4191
 2257SOL    HW2 9074   1.543   3.871   3.925 -0.4806  1.1385  0.1663
 2257SOL    HW3 9075   1.491   3.908   3.787 -0.1956 -1.1076 -0.5633
 2257SOL    MW4 9076   1.548   3.865   3.838 -0.1445 -0.0815  0.2563
 2258SOL     OW 9077   1.354   4.024   3.702  0.0938  0.3331  0.3803
 2258SOL    HW2 9078   1.373   4.109   3.742 -1.0170  0.0609  1.5095
 2258SOL    HW3 9079   1.334   4.044   3.611  2.7463  0.9624 -0.1048
 2258SOL    MW4 9080   1.354   4.038   3.695  0.2973  0.3800  0.4654
 2259SOL     OW 9081   1.602   4.425   3.790  0.4970 -0.4630 -0.0856
 2259SOL    HW2 9082   1.683   4.378   3.810  1.9083  1.3474 -1.2915
 2259SOL    HW3 9083   1.591   4.414   3.695  0.2211  0.6470 -0.1886
 2259SOL    MW4 9084   1.611   4.417   3.780  0.6467 -0.0782 -0.2582
 2260SOL     OW 9085   1.785   4.215   3.832  0.2641 -0.7496  0.1823
 2260SOL    HW2 9086   1.785   4.126   3.797  1.9784 -0.9781  0.7206
 2260SOL    HW3 9087   1.867   4.254   3.799 -1.0707  1.0760 -1.1246
 2260SOL    MW4 9088   1.796   4.208   3.823  0.3140 -0.5383  0.0808
 2261SOL     OW 9089   2.013   4.616   3.889  0.4261 -0.0248 -0.1126
 2261SOL    HW2 9090   2.000   4.549   3.822  0.5042  0.0499 -0.2025
 2261SOL    HW3 9091   2.094   4.660   3.864  1.0559 -0.7322  0.6564
 2261SOL    MW4 9092   2.022   4.613   3.877  0.5195 -0.1078 -0.0229
 2262SOL     OW 9093   1.795   0.121   3.789 -0.2241  0.0044 -0.6433
 2262SOL    HW2 9094   1.870   0.070   3.821  0.1933 -0.7577 -2.7599
 2262SOL    HW3 9095   1.719   0.068   3.814 -0.0152  0.1926  0.4460
 2262SOL    MW4 9096   1.795   0.107   3.797 -0.1415 -0.0713 -0.7789
 2263SOL     OW 9097   1.749   0.357   3.915  0.0159 -0.5393 -0.1056
 2263SOL    HW2 9098   1.758   0.335   4.007 -0.3989 -1.2654 -0.2337
 2263SOL    HW3 9099   1.776   0.277   3.868 -0.7328 -0.5131 -0.5907
 2263SOL    MW4 9100   1.754   0.343   3.921 -0.1378 -0.6316 -0.1867
 2264SOL     OW 9101   1.981   0.493   3.811  0.7017 -0.0266  0.2406
 2264SOL    HW2 9102   1.906   0.448   3.851 -0.4381  1.2014 -0.4364
 2264SOL    HW3 9103   1.967   0.483   3.717  0.4298  1.6919  0.0756
 2264SOL    MW4 9104   1.969   0.486   3.804  0.5155  0.3621  0.1295
 2265SOL     OW 9105   3.004   0.428   4.932 -0.3535 -0.0551 -0.1739
 2265SOL    HW2 9106   3.097   0.407   4.928 -0.2084  0.3953  0.7908
 2265SOL    HW3 9107   3.001   0.524   4.936 -0.8160 -0.1166  1.0474
 2265SOL    MW4 9108   3.016   0.438   4.932 -0.3953 -0.0038  0.1144
 2266SOL     OW 9109   1.835   0.912   3.797  0.1460 -0.1616 -0.3442
 2266SOL    HW2 9110   1.902   0.845   3.809 -0.2184 -0.2773  1.1813
 2266SOL    HW3 9111   1.808   0.903   3.705  2.5653  0.2431 -1.1387
 2266SOL    MW4 9112   1.840   0.902   3.786  0.4170 -0.1234 -0.2480
 2267SOL     OW 9113   2.025   1.332   3.769 -0.4913  0.3629 -0.3595
 2267SOL    HW2 9114   2.018   1.411   3.823 -0.1205  0.0673  0.1234
 2267SOL    HW3 9115   2.095   1.282   3.809  0.1370  0.3805 -1.4306
 2267SOL    MW4 9116   2.033   1.336   3.781 -0.3595  0.3263 -0.4373
 2268SOL     OW 9117   2.009   1.561   3.931 -0.3134  0.4928  0.1383
 2268SOL    HW2 9118   1.933   1.601   3.888 -0.1822  0.3031 -0.2744
 2268SOL    HW3 9119   2.084   1.605   3.891 -0.1922  0.3551  0.2167
 2268SOL    MW4 9120   2.009   1.572   3.920 -0.2799  0.4497  0.0942
 2269SOL     OW 9121   2.227   1.656   3.780 -0.2315 -0.0295 -0.1154
 2269SOL    HW2 9122   2.197   1.660   3.689 -1.1865 -0.4288  0.1752
 2269SOL    HW3 9123   2.244   1.747   3.804 -3.3912  0.4662  0.4151
 2269SOL    MW4 9124   2.226   1.668   3.771 -0.7741 -0.0168 -0.0069
 2270SOL     OW 9125   1.810   1.704   3.819 -0.1865 -0.3484 -0.0114
 2270SOL    HW2 9126   1.815   1.708   3.723 -0.1389 -0.6167 -0.0189
 2270SOL    HW3 9127   1.728   1.659   3.837 -0.4858  0.2280  0.0804
 2270SOL    MW4 9128   1.800   1.699   3.808 -0.2196 -0.3077 -0.0002
 2271SOL     OW 9129   1.046   4.243   4.658  0.0295 -0.3767 -0.0866
 2271SOL    HW2 9130   0.961   4.285   4.652  0.3798  0.2653 -0.5186
 2271SOL    HW3 9131   1.108   4.308   4.627  0.5750 -1.2077 -0.7718
 2271SOL    MW4 9132   1.043   4.257   4.653  0.1477 -0.4020 -0.2341
 2272SOL     OW 9133   2.008   2.089   3.853  0.2303  0.4344  0.1791
 2272SOL    HW2 9134   2.022   2.095   3.758  0.4172 -2.0438 -0.0015
 2272SOL    HW3 9135   1.924   2.043   3.861  1.0274 -0.8980  1.1686
 2272SOL    MW4 9136   1.999   2.083   3.841  0.3601 -0.0684  0.2859
 2273SOL     OW 9137   2.039   2.350   3.936 -0.0665  0.4515  0.8749
 2273SOL    HW2 9138   1.954   2.383   3.907  1.0745  1.8217 -1.0362
 2273SOL    HW3 9139   2.040   2.258   3.910 -0.4679  0.7632 -0.2662
 2273SOL    MW4 9140   2.028   2.342   3.929  0.0310  0.6735  0.4723
 2274SOL     OW 9141   1.814   2.455   3.809 -0.1573 -0.1117 -0.5070
 2274SOL    HW2 9142   1.817   2.550   3.822 -1.0305 -0.0416 -0.8117
 2274SOL    HW3 9143   1.837   2.442   3.717  1.9510 -0.3429  0.0145
 2274SOL    MW4 9144   1.818   2.466   3.799  0.0056 -0.1330 -0.4783
 2275SOL     OW 9145   1.848   2.709   3.923 -0.2697  0.1817  0.3873
 2275SOL    HW2 9146   1.849   2.701   4.018 -2.0975 -1.6841  0.2781
 2275SOL    HW3 9147   1.756   2.723   3.900  0.0610 -0.0423 -1.1436
 2275SOL    MW4 9148   1.836   2.710   3.932 -0.4672 -0.0942  0.1712
 2276SOL     OW 9149   2.041   2.864   3.786 -0.3046  0.2918  0.0501
 2276SOL    HW2 9150   1.982   2.807   3.837  0.6413 -0.4032  0.3830
 2276SOL    HW3 9151   2.127   2.850   3.825  0.1596  0.9647 -0.7260
 2276SOL    MW4 9152   2.044   2.855   3.798 -0.1185  0.2892 -0.0086
 2277SOL     OW 9153   1.802   3.200   3.732 -0.2029 -0.1332 -0.1722
 2277SOL    HW2 9154   1.880   3.180   3.785 -1.1409 -2.0031  0.5633
 2277SOL    HW3 9155   1.730   3.161   3.781 -1.3769 -0.0308 -1.7848
 2277SOL    MW4 9156   1.803   3.192   3.746 -0.4817 -0.3660 -0.2878
 2278SOL     OW 9157   1.799   3.454   3.834 -0.1512  0.6554  0.6108
 2278SOL    HW2 9158   1.886   3.490   3.818 -0.6344  1.5425 -0.0346
 2278SOL    HW3 9159   1.804   3.365   3.799  1.0912 -0.0200  2.3647
 2278SOL    MW4 9160   1.811   3.447   3.828 -0.0510  0.6833  0.7567
 2279SOL     OW 9161   0.911   0.081   4.283 -0.2431 -0.0162 -0.4855
 2279SOL    HW2 9162   0.988   0.045   4.241 -0.8545 -1.6440 -0.2228
 2279SOL    HW3 9163   0.927   0.069   4.377 -0.7228 -0.1490 -0.4206
 2279SOL    MW4 9164   0.923   0.075   4.290 -0.3871 -0.2485 -0.4420
 2280SOL     OW 9165   2.042   3.588   3.779  0.2252  0.3074  0.1673
 2280SOL    HW2 9166   2.125   3.549   3.807  0.5630  0.5216 -0.5225
 2280SOL    HW3 9167   2.037   3.570   3.685 -1.1926 -0.9507  0.4547
 2280SOL    MW4 9168   2.052   3.581   3.770  0.0825  0.1695  0.1144
 2281SOL     OW 9169   2.012   3.831   3.898  0.2142 -0.3299 -0.1216
 2281SOL    HW2 9170   2.078   3.890   3.861  1.5365 -1.1355  0.8822
 2281SOL    HW3 9171   2.027   3.748   3.853 -0.5316 -0.3431 -0.3408
 2281SOL    MW4 9172   2.023   3.828   3.887  0.2904 -0.4377 -0.0179
 2282SOL     OW 9173   1.801   3.956   3.742  0.1184 -0.4750 -0.4256
 2282SOL    HW2 9174   1.868   3.909   3.790 -0.0835  0.3736  0.7190
 2282SOL    HW3 9175   1.718   3.929   3.782 -0.1263 -0.5328 -0.9625
 2282SOL    MW4 9176   1.799   3.946   3.753  0.0594 -0.3705 -0.3455
 2283SOL     OW 9177   1.743   4.236   4.118  0.1624  0.0528 -0.0708
 2283SOL    HW2 9178   1.753   4.224   4.023 -0.7177  0.6334 -0.2394
 2283SOL    HW3 9179   1.756   4.149   4.154  0.7282 -0.1391 -0.7027
 2283SOL    MW4 9180   1.746   4.223   4.110  0.1210  0.1044 -0.1764
 2284SOL     OW 9181   1.989   4.362   3.741 -0.1235 -0.2333  0.0834
 2284SOL    HW2 9182   1.993   4.356   3.646  1.3498 -1.0651  0.1743
 2284SOL    HW3 9183   2.076   4.334   3.770 -0.0653  1.4466  1.6053
 2284SOL    MW4 9184   2.001   4.357   3.733  0.0784 -0.1216  0.2964
 2285SOL     OW 9185   2.460   4.620   3.828 -0.2316  0.5919  0.2308
 2285SOL    HW2 9186   2.457   4.615   3.924 -0.6926 -0.1146  0.1871
 2285SOL    HW3 9187   2.532   4.679   3.809 -0.6359  1.3639  1.0376
 2285SOL    MW4 9188   2.469   4.627   3.839 -0.3457  0.6008  0.3319
 2286SOL     OW 9189   2.228   0.086   3.789 -0.0466 -0.4896  0.1887
 2286SOL    HW2 9190   2.301   0.026   3.802  1.1221  1.0399  0.9469
 2286SOL    HW3 9191   2.227   0.102   3.694  1.8031  0.8799  0.3596
 2286SOL    MW4 9192   2.238   0.081   3.778  0.3514 -0.1071  0.3109
 2287SOL     OW 9193   2.238   0.356   3.880  0.3928 -0.6652  0.8606
 2287SOL    HW2 9194   2.150   0.394   3.872  0.4993 -0.8845 -1.7484
 2287SOL    HW3 9195   2.227   0.264   3.857  1.5233 -0.3711 -0.9765
 2287SOL    MW4 9196   2.225   0.349   3.876  0.5562 -0.6554  0.2742
 2288SOL     OW 9197   2.433   0.529   3.780  0.2692  0.2706 -0.0673
 2288SOL    HW2 9198   2.353   0.480   3.799  0.0299  0.6314 -0.1373
 2288SOL    HW3 9199   2.437   0.530   3.684  0.3115  0.3270 -0.0644
 2288SOL    MW4 9200   2.423   0.522   3.770  0.2437  0.3256 -0.0763
 2289SOL     OW 9201   2.440   0.766   3.924 -0.1858 -0.4206  0.1008
 2289SOL    HW2 9202   2.435   0.694   3.860 -0.2769 -0.9279  0.6800
 2289SOL    HW3 9203   2.379   0.832   3.890 -0.0689 -0.5907 -0.4549
 2289SOL    MW4 9204   2.432   0.765   3.911 -0.1824 -0.5100  0.1040
 2290SOL     OW 9205   2.272   0.929   3.754 -0.1064  0.4009  0.5069
 2290SOL    HW2 9206   2.202   0.865   3.772  0.3600 -0.3909 -0.4828
 2290SOL    HW3 9207   2.275   0.935   3.659  0.8691  0.8005  0.5645
 2290SOL    MW4 9208   2.263   0.922   3.744  0.0839  0.3491  0.3841
 2291SOL     OW 9209   2.232   1.167   3.879  1.0088 -0.3035 -0.4278
 2291SOL    HW2 9210   2.241   1.085   3.830  1.0873 -0.0209 -0.8907
 2291SOL    HW3 9211   2.206   1.140   3.967  0.9137 -0.8187 -0.6137
 2291SOL    MW4 9212   2.230   1.153   3.884  1.0068 -0.3343 -0.5136
 2292SOL     OW 9213   2.492   1.244   3.792 -0.6182  0.1222 -0.2891
 2292SOL    HW2 9214   2.481   1.336   3.818  0.2681  0.2276 -0.2392
 2292SOL    HW3 9215   2.420   1.198   3.833 -1.5440  0.9350 -0.9844
 2292SOL    MW4 9216   2.481   1.250   3.801 -0.6232  0.2433 -0.3743
 2293SOL     OW 9217   2.886   1.515   3.885 -0.2917  0.1825 -0.2028
 2293SOL    HW2 9218   2.921   1.486   3.970 -0.5459  1.8802  0.5039
 2293SOL    HW3 9219   2.959   1.562   3.845 -0.6345  0.6363 -0.2917
 2293SOL    MW4 9220   2.900   1.517   3.891 -0.3705  0.4663 -0.1211
 2294SOL     OW 9221   2.444   1.531   3.905 -0.1457 -0.0192  0.2283
 2294SOL    HW2 9222   2.370   1.574   3.862  0.2350  1.5699  1.1383
 2294SOL    HW3 9223   2.519   1.588   3.888  0.7894 -1.3595 -0.2588
 2294SOL    MW4 9224   2.444   1.544   3.897  0.0279  0.0136  0.2840
 2295SOL     OW 9225   2.224   1.923   3.862  0.1357 -0.3616 -0.5072
 2295SOL    HW2 9226   2.290   1.990   3.845 -0.7229  0.1129 -2.0109
 2295SOL    HW3 9227   2.141   1.971   3.865 -0.1707 -0.9592  1.3431
 2295SOL    MW4 9228   2.222   1.938   3.861 -0.0179 -0.3778 -0.4616
 2296SOL     OW 9229   2.427   2.110   3.801 -0.2824 -0.7155  0.4395
 2296SOL    HW2 9230   2.431   2.190   3.853  0.3924 -0.2832 -0.2793
 2296SOL    HW3 9231   2.511   2.067   3.817  0.3039 -0.1344 -0.9896
 2296SOL    MW4 9232   2.439   2.115   3.810 -0.1159 -0.5817  0.1559
 2297SOL     OW 9233   2.515   2.372   3.901 -0.0063  0.0505  0.0757
 2297SOL    HW2 9234   2.581   2.392   3.835 -0.1764 -1.7641 -0.6579
 2297SOL    HW3 9235   2.435   2.412   3.868 -0.0564 -0.7256 -0.7417
 2297SOL    MW4 9236   2.513   2.380   3.888 -0.0355 -0.2916 -0.1287
 2298SOL     OW 9237   2.250   2.486   3.820  0.1391  0.1488 -0.3204
 2298SOL    HW2 9238   2.172   2.444   3.857  0.7776 -1.5027 -0.7993
 2298SOL    HW3 9239   2.237   2.480   3.725  0.2462  1.0343 -0.3911
 2298SOL    MW4 9240   2.238   2.480   3.812  0.2375  0.0477 -0.3929
 2299SOL     OW 9241   2.283   2.745   3.888 -0.2188  0.3709 -0.0341
 2299SOL    HW2 9242   2.293   2.742   3.983  0.7361 -0.0545 -0.1492
 2299SOL    HW3 9243   2.266   2.655   3.863  0.0739  0.3987 -0.3311
 2299SOL    MW4 9244   2.282   2.733   3.898 -0.0544  0.3185 -0.0885
 2300SOL     OW 9245   2.522   2.815   3.770 -0.3975  0.6351  0.2090
 2300SOL    HW2 9246   2.443   2.780   3.809 -0.5983  0.6930 -0.1421
 2300SOL    HW3 9247   2.502   2.821   3.677  0.4530 -0.5146 -0.0586
 2300SOL    MW4 9248   2.509   2.812   3.763 -0.3116  0.4911  0.1273
 2301SOL     OW 9249   2.461   3.083   3.864 -0.4223  0.1292  0.2294
 2301SOL    HW2 9250   2.486   2.994   3.837  0.1973  0.3983 -0.0979
 2301SOL    HW3 9251   2.480   3.086   3.957  1.2122  0.4692 -0.0995
 2301SOL    MW4 9252   2.467   3.072   3.872 -0.1252  0.2096  0.1428
 2302SOL     OW 9253   1.538   1.520   4.154  0.2145 -0.0402 -0.2946
 2302SOL    HW2 9254   1.603   1.564   4.209  1.7066 -0.6956 -1.4983
 2302SOL    HW3 9255   1.524   1.435   4.196  0.7434 -0.2205 -0.4876
 2302SOL    MW4 9256   1.545   1.515   4.167  0.4811 -0.1506 -0.4792
 2303SOL     OW 9257   2.239   3.218   3.774 -0.1361 -0.2010  0.4951
 2303SOL    HW2 9258   2.310   3.168   3.814  0.1344  0.4324  0.7987
 2303SOL    HW3 9259   2.256   3.309   3.798 -1.2752 -0.0906  0.9159
 2303SOL    MW4 9260   2.250   3.223   3.783 -0.2506 -0.1030  0.5908
 2304SOL     OW 9261   2.467   3.635   3.766 -0.6528 -0.0883  0.0041
 2304SOL    HW2 9262   2.533   3.577   3.805  0.3774  0.4739 -0.8562
 2304SOL    HW3 9263   2.470   3.615   3.673  0.6038  2.1644 -0.4811
 2304SOL    MW4 9264   2.476   3.625   3.759 -0.3512  0.2832 -0.1733
 2305SOL     OW 9265   2.443   3.900   3.881 -0.2465 -0.2124  0.0430
 2305SOL    HW2 9266   2.447   3.902   3.977  2.6906 -0.4564 -0.0220
 2305SOL    HW3 9267   2.447   3.807   3.858 -0.7240 -0.1452 -0.3224
 2305SOL    MW4 9268   2.444   3.888   3.891  0.0780 -0.2356 -0.0138
 2306SOL     OW 9269   2.203   3.963   3.762  0.2853  0.0679  0.1196
 2306SOL    HW2 9270   2.285   3.928   3.797 -0.2562  0.2128  1.5650
 2306SOL    HW3 9271   2.213   3.957   3.667  2.2337  0.6966  0.2597
 2306SOL    MW4 9272   2.216   3.957   3.754  0.4709  0.1702  0.3290
 2307SOL     OW 9273   2.220   4.239   3.820 -0.4125 -0.0052 -0.5712
 2307SOL    HW2 9274   2.205   4.254   3.914 -0.8584  0.3939 -0.7008
 2307SOL    HW3 9275   2.227   4.144   3.812  0.7073  0.0180  0.0196
 2307SOL    MW4 9276   2.219   4.228   3.831 -0.3235  0.0505 -0.5102
 2308SOL     OW 9277   2.480   4.341   3.748  0.6101 -0.0971  0.5148
 2308SOL    HW2 9278   2.403   4.297   3.784  0.9229 -2.0102 -1.0467
 2308SOL    HW3 9279   2.470   4.433   3.774 -2.4863 -0.2077 -0.0785
 2308SOL    MW4 9280   2.468   4.347   3.756  0.2429 -0.3633  0.2306
 2309SOL     OW 9281   2.914   4.666   3.859  0.4407 -0.0789 -0.3208
 2309SOL    HW2 9282   2.916   4.677   3.954  0.1286 -0.8098 -0.2226
 2309SOL    HW3 9283   2.998   4.699   3.829 -0.2905  2.1674 -0.0212
 2309SOL    MW4 9284   2.925   4.672   3.868  0.3028  0.1210 -0.2682
 2310SOL     OW 9285   2.678   0.135   3.781 -0.0587 -0.5212  0.0755
 2310SOL    HW2 9286   2.756   0.088   3.810  0.3640  0.3220  0.2875
 2310SOL    HW3 9287   2.678   0.124   3.686 -0.6471 -2.0247  0.2253
 2310SOL    MW4 9288   2.688   0.127   3.773 -0.0806 -0.6083  0.1230
 2311SOL     OW 9289   2.667   0.401   3.868 -0.1367  0.0257  0.3925
 2311SOL    HW2 9290   2.654   0.312   3.835  0.3390  0.0230  0.2194
 2311SOL    HW3 9291   2.587   0.447   3.842  0.0672 -0.0735 -0.4352
 2311SOL    MW4 9292   2.655   0.395   3.860 -0.0470  0.0122  0.2606
 2312SOL     OW 9293   2.896   0.471   3.738 -0.0372  0.3067 -0.1117
 2312SOL    HW2 9294   2.976   0.436   3.777  0.0302 -0.0687 -0.5774
 2312SOL    HW3 9295   2.825   0.435   3.792  0.0503 -0.2867 -0.3797
 2312SOL    MW4 9296   2.897   0.461   3.750 -0.0167  0.1789 -0.2086
 2313SOL     OW 9297   2.851   0.727   3.815 -0.0731 -0.0757  0.0999
 2313SOL    HW2 9298   2.923   0.778   3.779 -0.3438  0.2273 -0.0243
 2313SOL    HW3 9299   2.868   0.637   3.788  0.3474 -0.0314  0.2187
 2313SOL    MW4 9300   2.862   0.722   3.807 -0.0532 -0.0299  0.0992
 2314SOL     OW 9301   2.634   0.887   3.748  0.6194 -0.2852 -0.0694
 2314SOL    HW2 9302   2.698   0.822   3.776  0.1204 -1.0398 -0.6458
 2314SOL    HW3 9303   2.551   0.855   3.782  0.3122 -0.1712 -0.6992
 2314SOL    MW4 9304   2.632   0.874   3.756  0.5131 -0.3698 -0.2286
 2315SOL     OW 9305   2.729   1.121   3.875  0.6517 -0.4883  0.5672
 2315SOL    HW2 9306   2.703   1.036   3.839 -0.5070  0.6202 -1.2869
 2315SOL    HW3 9307   2.655   1.179   3.855  2.0702  1.3190  0.4465
 2315SOL    MW4 9308   2.716   1.117   3.868  0.6857 -0.1036  0.3066
 2316SOL     OW 9309   2.955   1.267   3.768  0.3507 -0.4454 -0.5108
 2316SOL    HW2 9310   2.929   1.348   3.811 -0.1664 -0.5627 -0.5938
 2316SOL    HW3 9311   2.893   1.201   3.801  1.6554 -1.1011  0.6349
 2316SOL    MW4 9312   2.943   1.269   3.778  0.4544 -0.5474 -0.3707
 2317SOL     OW 9313   3.560   2.098   4.110  0.1371  0.4977  0.1698
 2317SOL    HW2 9314   3.573   2.057   4.025  1.6015  0.8198  0.2122
 2317SOL    HW3 9315   3.633   2.067   4.163  0.0593  1.4456  0.8541
 2317SOL    MW4 9316   3.572   2.089   4.106  0.3204  0.6649  0.2651
 2318SOL     OW 9317   2.664   1.969   3.897  0.1951 -0.2230  0.4375
 2318SOL    HW2 9318   2.665   1.875   3.879  0.1677 -0.3977  1.3310
 2318SOL    HW3 9319   2.628   1.976   3.985 -2.6220  0.8221 -0.7651
 2318SOL    MW4 9320   2.660   1.958   3.906 -0.1802 -0.1081  0.3967
 2319SOL     OW 9321   0.563   3.936   4.490 -0.2165  0.5824  0.0268
 2319SOL    HW2 9322   0.534   3.954   4.401  0.4652  0.6033 -0.1987
 2319SOL    HW3 9323   0.594   3.845   4.487 -0.0694  0.6258  0.2061
 2319SOL    MW4 9324   0.563   3.926   4.478 -0.1071  0.5908  0.0210
 2320SOL     OW 9325   2.900   2.033   3.766 -0.5912  0.1095  0.4379
 2320SOL    HW2 9326   2.932   2.119   3.792  1.2801 -1.0950  2.3386
 2320SOL    HW3 9327   2.822   2.020   3.820  1.3794 -0.9687  3.2039
 2320SOL    MW4 9328   2.894   2.043   3.777 -0.0844 -0.1919  1.0536
 2321SOL     OW 9329   2.933   2.295   3.829  0.6885  0.4326  0.6958
 2321SOL    HW2 9330   3.017   2.336   3.812  0.9764 -0.2540  0.4507
 2321SOL    HW3 9331   2.916   2.312   3.921  1.9177 -0.9110  1.1873
 2321SOL    MW4 9332   2.942   2.303   3.839  0.8886  0.1647  0.7286
 2322SOL     OW 9333   2.701   2.453   3.707  0.0042  0.0814 -0.5169
 2322SOL    HW2 9334   2.732   2.538   3.737  1.5270 -0.5001 -0.4049
 2322SOL    HW3 9335   2.773   2.393   3.726 -0.2549 -0.8718 -2.4357
 2322SOL    MW4 9336   2.715   2.456   3.713  0.1707 -0.1209 -0.7553
 2323SOL     OW 9337   2.918   2.815   4.517 -0.4572 -0.0435 -0.1603
 2323SOL    HW2 9338   2.877   2.729   4.505 -0.2081 -0.2079  0.1574
 2323SOL    HW3 9339   2.986   2.800   4.584 -1.8591  0.8562  1.5133
 2323SOL    MW4 9340   2.922   2.801   4.525 -0.6092  0.0536  0.1020
 2324SOL     OW 9341   2.938   2.860   3.729  0.4159  0.0579 -0.7694
 2324SOL    HW2 9342   2.934   2.940   3.781 -0.8725  0.4716 -1.4798
 2324SOL    HW3 9343   2.881   2.798   3.776  1.3931 -0.4514 -0.2312
 2324SOL    MW4 9344   2.930   2.862   3.742  0.3748  0.0453 -0.7920
 2325SOL     OW 9345   2.670   3.243   3.755 -0.6336  0.2281 -0.2737
 2325SOL    HW2 9346   2.665   3.310   3.823  0.2856 -0.9454  0.9627
 2325SOL    HW3 9347   2.609   3.175   3.783  1.2571 -1.2052  0.4617
 2325SOL    MW4 9348   2.662   3.243   3.768 -0.2627 -0.1159 -0.0134
 2326SOL     OW 9349   2.657   3.470   3.918 -0.1261 -0.3876 -0.0342
 2326SOL    HW2 9350   2.729   3.517   3.876 -0.4083 -0.3972 -0.5346
 2326SOL    HW3 9351   2.677   3.474   4.011  0.1462  0.2383 -0.1181
 2326SOL    MW4 9352   2.669   3.477   3.924 -0.1273 -0.3061 -0.1113
 2327SOL     OW 9353   2.488   3.089   4.137  0.3691  0.4949  0.1084
 2327SOL    HW2 9354   2.556   3.142   4.178 -0.5338  1.3487  0.5176
 2327SOL    HW3 9355   2.406   3.120   4.176 -0.1515 -1.4192  0.6134
 2327SOL    MW4 9356   2.486   3.100   4.148  0.1814  0.3550  0.2294
 2328SOL     OW 9357   2.876   3.591   3.777  0.0370 -0.3257  0.3557
 2328SOL    HW2 9358   2.882   3.682   3.805  0.8163 -0.7467  1.6293
 2328SOL    HW3 9359   2.957   3.551   3.808 -0.9438 -1.7871  1.1241
 2328SOL    MW4 9360   2.887   3.597   3.785  0.0100 -0.5741  0.6251
 2329SOL     OW 9361   3.125   3.947   3.760 -0.3297  0.1841  0.0899
 2329SOL    HW2 9362   3.126   4.041   3.777  0.7687  0.3877 -1.0739
 2329SOL    HW3 9363   3.046   3.916   3.804 -0.2822  1.5201  1.1477
 2329SOL    MW4 9364   3.115   3.955   3.768 -0.1788  0.3874  0.0758
 2330SOL     OW 9365   2.679   3.995   3.737 -0.1109 -0.3662 -0.1039
 2330SOL    HW2 9366   2.699   4.081   3.775 -0.2309 -0.1828 -0.4579
 2330SOL    HW3 9367   2.602   3.965   3.784  0.5538 -0.7541  0.7645
 2330SOL    MW4 9368   2.672   4.002   3.748 -0.0391 -0.3934 -0.0360
 2331SOL     OW 9369   2.702   4.230   3.857  0.0486  0.1776 -0.3547
 2331SOL    HW2 9370   2.783   4.280   3.844  0.3626 -0.6245 -1.5449
 2331SOL    HW3 9371   2.635   4.282   3.814  0.3579 -0.3496 -1.4995
 2331SOL    MW4 9372   2.704   4.243   3.850  0.1309  0.0024 -0.6626
 2332SOL     OW 9373   2.922   4.375   3.770  0.0718 -0.0960 -0.0235
 2332SOL    HW2 9374   2.997   4.319   3.784 -0.6360 -1.1296 -0.3166
 2332SOL    HW3 9375   2.945   4.457   3.813  0.6441 -0.9913  1.4023
 2332SOL    MW4 9376   2.935   4.379   3.777  0.0539 -0.3505  0.1259
 2333SOL     OW 9377   3.346   4.628   3.858  0.0553  0.4390 -0.1210
 2333SOL    HW2 9378   3.330   4.644   3.951  0.3721  0.5155 -0.0781
 2333SOL    HW3 9379   3.434   4.664   3.843  1.0369 -1.7576  0.1142
 2333SOL    MW4 9380   3.356   4.635   3.868  0.2265  0.1593 -0.0844
 2334SOL     OW 9381   3.155   0.157   3.764  0.0469 -0.1890  0.3145
 2334SOL    HW2 9382   3.223   0.099   3.800 -0.4024 -0.3993  0.8382
 2334SOL    HW3 9383   3.164   0.150   3.670 -1.4206 -2.8410  0.3256
 2334SOL    MW4 9384   3.165   0.148   3.757 -0.2060 -0.5667  0.3850
 2335SOL     OW 9385   3.121   0.417   3.887  0.0127 -0.2627  0.0952
 2335SOL    HW2 9386   3.127   0.397   3.980 -4.3524 -1.3928  0.2430
 2335SOL    HW3 9387   3.148   0.337   3.843 -1.2073 -0.8879  0.4657
 2335SOL    MW4 9388   3.125   0.404   3.893 -0.7241 -0.4943  0.1636
 2336SOL     OW 9389   3.349   0.522   3.794 -0.6560  0.1173  0.3116
 2336SOL    HW2 9390   3.411   0.472   3.848  0.4768 -0.0965 -1.1465
 2336SOL    HW3 9391   3.264   0.485   3.816 -0.0957 -0.7275  1.1326
 2336SOL    MW4 9392   3.346   0.510   3.804 -0.4325 -0.0224  0.2277
 2337SOL     OW 9393   3.351   0.788   3.871 -0.1265  0.1325  0.2032
 2337SOL    HW2 9394   3.354   0.778   3.966  0.8316  0.4278  0.2061
 2337SOL    HW3 9395   3.348   0.698   3.838 -1.4847  0.0411  0.5310
 2337SOL    MW4 9396   3.351   0.774   3.879 -0.1793  0.1594  0.2465
 2338SOL     OW 9397   3.088   0.869   3.762 -0.2221 -0.3589  0.6570
 2338SOL    HW2 9398   3.163   0.816   3.787  0.1760  0.6337  1.6637
 2338SOL    HW3 9399   3.109   0.903   3.675 -0.2476 -1.3915  0.2390
 2338SOL    MW4 9400   3.100   0.867   3.754 -0.1731 -0.3641  0.7348
 2339SOL     OW 9401   3.173   1.124   3.858  0.0625 -0.3309  0.2905
 2339SOL    HW2 9402   3.143   1.034   3.841  1.3092 -0.6351 -0.3282
 2339SOL    HW3 9403   3.094   1.177   3.848 -0.6465 -1.3277  0.4517
 2339SOL    MW4 9404   3.159   1.119   3.855  0.1338 -0.5027  0.2303
 2340SOL     OW 9405   3.377   1.278   3.750  0.5745 -0.6680 -0.0379
 2340SOL    HW2 9406   3.306   1.234   3.796 -0.9693  1.0126 -0.7271
 2340SOL    HW3 9407   3.353   1.272   3.658  0.6310  1.0421 -0.1792
 2340SOL    MW4 9408   3.364   1.272   3.744  0.3781 -0.2205 -0.1473
 2341SOL     OW 9409   3.358   1.537   3.857  0.1242  0.1024 -0.1371
 2341SOL    HW2 9410   3.369   1.445   3.835  2.2564  0.6730 -1.6204
 2341SOL    HW3 9411   3.279   1.564   3.811  0.3189 -0.6174 -0.9023
 2341SOL    MW4 9412   3.349   1.529   3.848  0.4313  0.0829 -0.4337
 2342SOL     OW 9413   3.120   1.598   3.763  0.1076 -0.2235  0.1309
 2342SOL    HW2 9414   3.104   1.689   3.788 -2.2173 -0.5842  0.0306
 2342SOL    HW3 9415   3.105   1.596   3.668 -2.4205 -1.2056  0.5075
 2342SOL    MW4 9416   3.116   1.610   3.754 -0.5329 -0.4005  0.1674
 2343SOL     OW 9417   3.337   2.028   3.789 -0.3737 -0.1312 -0.3025
 2343SOL    HW2 9418   3.263   1.971   3.813 -0.5894  0.3399  0.1567
 2343SOL    HW3 9419   3.331   2.036   3.694 -1.1582  0.2305 -0.2325
 2343SOL    MW4 9420   3.326   2.021   3.780 -0.5057 -0.0212 -0.2327
 2344SOL     OW 9421   3.124   1.856   3.856 -0.2734  0.2103  0.1660
 2344SOL    HW2 9422   3.130   1.847   3.951  1.8087  0.8769  0.1093
 2344SOL    HW3 9423   3.051   1.918   3.843  0.7931  1.7840  1.4196
 2344SOL    MW4 9424   3.115   1.863   3.867  0.1421  0.5059  0.3238
 2345SOL     OW 9425   3.381   2.311   3.882  0.0384 -0.0422  0.1797
 2345SOL    HW2 9426   3.306   2.349   3.836  0.4573  0.6641  0.0696
 2345SOL    HW3 9427   3.380   2.219   3.858 -0.5790  0.0394 -0.1148
 2345SOL    MW4 9428   3.371   2.304   3.873  0.0124  0.0615  0.1264
 2346SOL     OW 9429   3.171   2.421   3.755 -0.2909  0.2246 -0.3395
 2346SOL    HW2 9430   3.172   2.514   3.777 -0.5247  0.1503 -0.0187
 2346SOL    HW3 9431   3.176   2.419   3.659  0.5699  0.5467 -0.3033
 2346SOL    MW4 9432   3.172   2.433   3.745 -0.2084  0.2575 -0.2923
 2347SOL     OW 9433   3.153   2.689   3.848 -0.0770  0.1195  0.0295
 2347SOL    HW2 9434   3.129   2.712   3.938  0.1841 -1.3329  0.4893
 2347SOL    HW3 9435   3.102   2.748   3.794 -0.3672  0.9036  1.1298
 2347SOL    MW4 9436   3.143   2.700   3.853 -0.0806  0.0312  0.2353
 2348SOL     OW 9437   3.385   2.841   3.762 -0.5888 -0.0892  0.1352
 2348SOL    HW2 9438   3.311   2.790   3.794 -0.9004  0.1396 -0.2210
 2348SOL    HW3 9439   3.384   2.830   3.667  0.4087 -0.8580  0.2111
 2348SOL    MW4 9440   3.375   2.833   3.754 -0.4983 -0.1605  0.0982
 2349SOL     OW 9441   3.358   3.094   3.908  0.3443  0.4020 -0.3139
 2349SOL    HW2 9442   3.443   3.134   3.889  2.1816 -2.3423  1.6197
 2349SOL    HW3 9443   3.365   3.005   3.872 -1.6961  0.1617 -0.1363
 2349SOL    MW4 9444   3.370   3.087   3.901  0.3176  0.0081 -0.0350
 2350SOL     OW 9445   3.144   3.240   3.811  0.2061 -0.1348 -0.4994
 2350SOL    HW2 9446   3.220   3.197   3.851 -0.1832  0.1996  0.6305
 2350SOL    HW3 9447   3.152   3.221   3.718  1.9581  0.3315 -0.4738
 2350SOL    MW4 9448   3.155   3.232   3.804  0.3855 -0.0293 -0.3471
 2351SOL     OW 9449   3.107   3.495   3.883  0.1047  0.0678 -0.0509
 2351SOL    HW2 9450   3.127   3.407   3.851 -0.7064 -0.5203  1.0277
 2351SOL    HW3 9451   3.186   3.546   3.864  1.9928 -1.7483  2.5246
 2351SOL    MW4 9452   3.120   3.490   3.876  0.2468 -0.2494  0.4311
 2352SOL     OW 9453   3.350   3.593   3.786  0.0242  0.4514  0.1039
 2352SOL    HW2 9454   3.352   3.685   3.810 -0.2908  0.3812  0.4203
 2352SOL    HW3 9455   3.362   3.592   3.691  2.4758  0.6617  0.4000
 2352SOL    MW4 9456   3.352   3.605   3.777  0.3061  0.4699  0.1845
 2353SOL     OW 9457   3.352   3.842   3.899  0.2747 -0.2474  0.1168
 2353SOL    HW2 9458   3.427   3.895   3.871 -0.9229  2.2550  1.5281
 2353SOL    HW3 9459   3.278   3.878   3.851 -0.1306 -2.5045 -1.0209
 2353SOL    MW4 9460   3.352   3.854   3.889  0.0634 -0.2151  0.1528
 2354SOL     OW 9461   2.878   3.849   3.877 -0.1194 -0.1051 -0.3344
 2354SOL    HW2 9462   2.850   3.859   3.968  0.5593 -0.4838 -0.0870
 2354SOL    HW3 9463   2.809   3.892   3.826 -1.8030 -2.1243  0.1945
 2354SOL    MW4 9464   2.865   3.856   3.882 -0.2520 -0.4218 -0.2320
 2355SOL     OW 9465   3.142   4.218   3.860 -0.3315  0.0534  0.2623
 2355SOL    HW2 9466   3.154   4.217   3.955  1.3666  1.2029  0.0811
 2355SOL    HW3 9467   3.221   4.261   3.826 -1.1455  0.1016 -1.6358
 2355SOL    MW4 9468   3.154   4.223   3.868 -0.2148  0.2117 -0.0122
 2356SOL     OW 9469   3.351   4.375   3.776 -0.2269 -0.3310 -0.2132
 2356SOL    HW2 9470   3.436   4.367   3.819 -0.1641  1.3066  0.0045
 2356SOL    HW3 9471   3.322   4.464   3.798 -1.3268 -0.3690 -1.4806
 2356SOL    MW4 9472   3.358   4.386   3.784 -0.3638 -0.1202 -0.3517
 2357SOL     OW 9473   3.784   4.663   3.899 -0.4692 -0.0823 -0.6197
 2357SOL    HW2 9474   3.859   4.698   3.851  0.9643 -1.0657  0.8658
 2357SOL    HW3 9475   3.783   4.570   3.876  0.1657 -0.5451  1.1099
 2357SOL    MW4 9476   3.794   4.655   3.890 -0.1962 -0.2732 -0.1955
 2358SOL     OW 9477   3.571   0.118   3.796  0.2120  0.4954  0.0301
 2358SOL    HW2 9478   3.645   0.071   3.833 -0.4504 -0.8455 -0.3444
 2358SOL    HW3 9479   3.591   0.125   3.702 -0.9026 -1.3641 -0.3772
 2358SOL    MW4 9480   3.584   0.113   3.788 -0.0226  0.0732 -0.0732
 2359SOL     OW 9481   3.577   0.377   3.901  0.2934 -0.1218  0.5232
 2359SOL    HW2 9482   3.657   0.417   3.867 -0.6825  0.3867 -1.2419
 2359SOL    HW3 9483   3.582   0.286   3.872  0.0956 -0.0220  0.1798
 2359SOL    MW4 9484   3.588   0.370   3.893  0.1383 -0.0415  0.2449
 2360SOL     OW 9485   3.803   0.505   3.794  0.1328  0.2962  0.7594
 2360SOL    HW2 9486   3.876   0.451   3.826  0.4428  0.1689 -0.1532
 2360SOL    HW3 9487   3.832   0.595   3.810  0.8937  0.2746 -0.4438
 2360SOL    MW4 9488   3.817   0.510   3.800  0.2742  0.2766  0.4804
 2361SOL     OW 9489   3.848   0.763   3.881 -0.5861  0.1699  0.2909
 2361SOL    HW2 9490   3.921   0.807   3.837 -0.8682  1.0869  0.7148
 2361SOL    HW3 9491   3.770   0.795   3.834 -0.8043  0.2522  0.7073
 2361SOL    MW4 9492   3.847   0.773   3.869 -0.6521  0.3018  0.4017
 2362SOL     OW 9493   3.613   0.857   3.772  0.3703  0.0679  0.0403
 2362SOL    HW2 9494   3.622   0.949   3.799  1.6393 -0.0116 -0.0891
 2362SOL    HW3 9495   3.526   0.831   3.804 -0.3620  1.5700 -0.6838
 2362SOL    MW4 9496   3.602   0.866   3.780  0.4411  0.2556 -0.0725
 2363SOL     OW 9497   3.623   1.119   3.863  0.3362  0.0363 -0.0105
 2363SOL    HW2 9498   3.687   1.188   3.847  0.2634  0.6151  2.0505
 2363SOL    HW3 9499   3.546   1.146   3.814  0.6199  0.9399  0.0370
 2363SOL    MW4 9500   3.622   1.131   3.854  0.3641  0.2319  0.2673
 2364SOL     OW 9501   3.797   1.318   3.795 -0.3376  0.2454 -0.2162
 2364SOL    HW2 9502   3.884   1.278   3.803 -1.0158 -0.8080  2.2547
 2364SOL    HW3 9503   3.808   1.405   3.832 -0.2109  0.3407 -0.4699
 2364SOL    MW4 9504   3.810   1.324   3.801 -0.4103  0.1190  0.0761
 2365SOL     OW 9505   3.825   1.590   3.893  0.3506 -0.6786 -0.0052
 2365SOL    HW2 9506   3.826   1.589   3.989 -0.0873 -0.2365  0.0057
 2365SOL    HW3 9507   3.740   1.626   3.871  0.6798 -0.2459 -0.5644
 2365SOL    MW4 9508   3.814   1.595   3.903  0.3359 -0.5633 -0.0775
 2366SOL     OW 9509   3.588   1.701   3.808  0.2572  0.3512  0.3096
 2366SOL    HW2 9510   3.507   1.654   3.826  1.1174 -0.9740  0.7634
 2366SOL    HW3 9511   3.600   1.692   3.713  1.0667 -1.4573  0.5548
 2366SOL    MW4 9512   3.579   1.694   3.798  0.4778 -0.0623  0.4020
 2367SOL     OW 9513   3.589   1.964   3.867 -0.1915  0.3080  0.6346
 2367SOL    HW2 9514   3.601   1.871   3.850  0.2035  0.4111  0.3273
 2367SOL    HW3 9515   3.505   1.985   3.827  0.4159  0.3986 -0.6069
 2367SOL    MW4 9516   3.580   1.955   3.859 -0.0594  0.3337  0.4303
 2368SOL     OW 9517   3.830   2.059   3.783 -0.1526 -0.0941 -0.4272
 2368SOL    HW2 9518   3.904   2.008   3.816 -0.5075 -0.3911 -0.0886
 2368SOL    HW3 9519   3.753   2.022   3.826 -0.3073  1.4125  0.6375
 2368SOL    MW4 9520   3.830   2.047   3.793 -0.2198  0.0656 -0.2420
 2369SOL     OW 9521   3.844   2.312   3.883 -0.4196 -0.2306 -0.0791
 2369SOL    HW2 9522   3.765   2.361   3.859 -0.6962 -1.1582 -1.0909
 2369SOL    HW3 9523   3.836   2.229   3.836  0.2213 -1.1154  1.3273
 2369SOL    MW4 9524   3.832   2.307   3.874 -0.3715 -0.4694 -0.0269
 2370SOL     OW 9525   3.607   2.439   3.792  0.2813  0.1856  0.0973
 2370SOL    HW2 9526   3.528   2.402   3.832  0.6351  0.6271  1.2347
 2370SOL    HW3 9527   3.591   2.435   3.698 -0.8371 -0.2951  0.3035
 2370SOL    MW4 9528   3.595   2.434   3.785  0.1805  0.1802  0.2747
 2371SOL     OW 9529   3.613   2.711   3.890  0.7996 -0.1167 -0.2439
 2371SOL    HW2 9530   3.599   2.619   3.870  1.0847 -0.2724  0.2565
 2371SOL    HW3 9531   3.545   2.757   3.841  0.4070 -0.6253 -0.1822
 2371SOL    MW4 9532   3.602   2.705   3.881  0.7856 -0.2041 -0.1700
 2372SOL     OW 9533   3.854   2.835   3.803  0.3225  0.3075  0.4620
 2372SOL    HW2 9534   3.920   2.793   3.858  0.1298  0.8639  1.1219
 2372SOL    HW3 9535   3.772   2.792   3.827  0.7293 -1.7839 -1.7868
 2372SOL    MW4 9536   3.852   2.824   3.813  0.3505  0.1049  0.2525
 2373SOL     OW 9537   3.846   3.099   3.881  0.0254  0.0206  0.2219
 2373SOL    HW2 9538   3.859   3.123   3.973  1.2257 -0.7265  0.2455
 2373SOL    HW3 9539   3.851   3.004   3.880  2.7319  0.1502 -1.0393
 2373SOL    MW4 9540   3.848   3.090   3.893  0.5407 -0.0610  0.0589
 2374SOL     OW 9541   3.592   3.212   3.790 -0.0648  0.0025  0.5841
 2374SOL    HW2 9542   3.678   3.179   3.816 -0.7364 -1.4829  0.9581
 2374SOL    HW3 9543   3.599   3.226   3.696  0.4466 -0.5657  0.5344
 2374SOL    MW4 9544   3.604   3.210   3.781 -0.0861 -0.2685  0.6266
 2375SOL     OW 9545   3.590   3.473   3.903  0.2241 -0.4213 -0.4253
 2375SOL    HW2 9546   3.509   3.518   3.880 -0.8679 -1.5827  1.0213
 2375SOL    HW3 9547   3.578   3.384   3.868  1.3821 -0.2661 -1.2458
 2375SOL    MW4 9548   3.578   3.467   3.895  0.2327 -0.5538 -0.3426
 2376SOL     OW 9549   3.782   3.626   3.798  0.0714  0.2570 -0.3819
 2376SOL    HW2 9550   3.713   3.577   3.841  0.0914  0.2082 -0.4065
 2376SOL    HW3 9551   3.863   3.592   3.835  0.0788  0.3737 -0.2902
 2376SOL    MW4 9552   3.784   3.615   3.808  0.0751  0.2658 -0.3731
 2377SOL     OW 9553   3.803   3.905   3.838 -0.1991  0.0961  0.4934
 2377SOL    HW2 9554   3.804   3.809   3.830  0.9303  0.3116 -2.6150
 2377SOL    HW3 9555   3.895   3.929   3.846 -0.4397  0.9811  0.5707
 2377SOL    MW4 9556   3.815   3.895   3.838 -0.0820  0.2413  0.0932
 2378SOL     OW 9557   3.551   4.014   3.811 -0.0178 -0.8623  0.5795
 2378SOL    HW2 9558   3.577   4.103   3.836 -0.2965 -1.0211  1.4375
 2378SOL    HW3 9559   3.633   3.965   3.810  0.4932 -0.0448 -2.2855
 2378SOL    MW4 9560   3.566   4.019   3.814  0.0129 -0.7753  0.3147
 2379SOL     OW 9561   3.588   4.284   3.872 -0.0757  0.1220 -0.3348
 2379SOL    HW2 9562   3.594   4.290   3.967  1.0183 -1.1087 -0.3089
 2379SOL    HW3 9563   3.670   4.322   3.840  0.7462 -1.8584 -0.6614
 2379SOL    MW4 9564   3.600   4.290   3.880  0.1771 -0.3018 -0.3746
 2380SOL     OW 9565   3.813   4.416   3.785  0.2796 -0.3140 -0.1191
 2380SOL    HW2 9566   3.893   4.371   3.811  0.7934  0.9691  0.5911
 2380SOL    HW3 9567   3.809   4.407   3.690  0.6597 -1.3507 -0.0447
 2380SOL    MW4 9568   3.823   4.409   3.776  0.3974 -0.2813 -0.0155
 2381SOL     OW 9569   4.204   4.589   3.931  0.4676  0.3059  0.2754
 2381SOL    HW2 9570   4.203   4.596   4.026 -1.2038  0.9391  0.2261
 2381SOL    HW3 9571   4.280   4.641   3.903  0.5993  0.6192  1.2199
 2381SOL    MW4 9572   4.214   4.597   3.940  0.2651  0.4306  0.3936
 2382SOL     OW 9573   4.017   0.093   3.804 -0.3083  0.6352 -0.0442
 2382SOL    HW2 9574   4.081   0.035   3.846 -1.0432 -0.0061  0.2054
 2382SOL    HW3 9575   4.030   0.081   3.710 -1.0121 -0.5591  0.0078
 2382SOL    MW4 9576   4.027   0.084   3.797 -0.4983  0.3930 -0.0045
 2383SOL     OW 9577   4.460   0.373   4.170 -0.1025 -0.8263  0.0142
 2383SOL    HW2 9578   4.387   0.430   4.193  0.8283 -0.3052  1.7881
 2383SOL    HW3 9579   4.448   0.355   4.077 -2.4577 -0.7390  0.2719
 2383SOL    MW4 9580   4.449   0.378   4.161 -0.2904 -0.7460  0.2828
 2384SOL     OW 9581   4.044   0.370   3.887 -0.4303  0.0302 -0.5532
 2384SOL    HW2 9582   4.028   0.367   3.981  0.0539  1.1226 -0.4200
 2384SOL    HW3 9583   4.038   0.279   3.858 -1.3665 -0.2124  0.3972
 2384SOL    MW4 9584   4.041   0.358   3.896 -0.4902  0.1424 -0.4101
 2385SOL     OW 9585   4.303   0.787   3.889  0.0272 -0.4495  0.4173
 2385SOL    HW2 9586   4.213   0.801   3.859 -0.1653 -0.2975  1.0489
 2385SOL    HW3 9587   4.326   0.700   3.857 -0.6827 -0.8801  1.0732
 2385SOL    MW4 9588   4.294   0.777   3.881 -0.0920 -0.4863  0.5872
 2386SOL     OW 9589   4.067   0.908   3.777  0.3091 -0.4201 -0.1052
 2386SOL    HW2 9590   4.042   0.997   3.802  0.0332 -0.6175  0.3333
 2386SOL    HW3 9591   4.071   0.910   3.681 -0.4303 -0.1247 -0.1351
 2386SOL    MW4 9592   4.064   0.920   3.767  0.1745 -0.4072 -0.0515
 2387SOL     OW 9593   4.040   1.171   3.823 -0.2566 -0.0063 -0.2237
 2387SOL    HW2 9594   4.054   1.173   3.918 -1.4646 -1.3307 -0.0014
 2387SOL    HW3 9595   4.125   1.196   3.786  0.1806  0.6787  1.2018
 2387SOL    MW4 9596   4.053   1.175   3.830 -0.3581 -0.0907 -0.0064
 2388SOL     OW 9597   4.293   1.262   3.724  0.2479  0.0359  0.0000
 2388SOL    HW2 9598   4.291   1.356   3.742 -1.5790  0.3793 -1.8462
 2388SOL    HW3 9599   4.299   1.256   3.629 -0.4976 -1.7119  0.0525
 2388SOL    MW4 9600   4.293   1.274   3.714 -0.0916 -0.1495 -0.2365
 2389SOL     OW 9601   4.264   1.526   3.836  0.3366  0.1297  0.1841
 2389SOL    HW2 9602   4.200   1.582   3.792  0.8978  0.1170 -0.6536
 2389SOL    HW3 9603   4.347   1.573   3.829  0.8065 -0.8016 -0.5217
 2389SOL    MW4 9604   4.266   1.540   3.829  0.4725  0.0052 -0.0196
 2390SOL     OW 9605   4.055   1.680   3.743  0.4427 -0.0146  0.3312
 2390SOL    HW2 9606   4.055   1.750   3.808 -1.3757  1.2544 -0.9814
 2390SOL    HW3 9607   3.983   1.623   3.769  0.3798 -0.0761  0.0240
 2390SOL    MW4 9608   4.046   1.682   3.755  0.1945  0.1446  0.1175
 2391SOL     OW 9609   4.036   1.905   3.903 -0.0369 -0.3657 -0.0797
 2391SOL    HW2 9610   4.019   1.900   3.997  0.1870 -1.6293 -0.1002
 2391SOL    HW3 9611   4.115   1.959   3.896  0.6966 -1.3484  0.5434
 2391SOL    MW4 9612   4.044   1.912   3.914  0.0892 -0.6621 -0.0002
 2392SOL     OW 9613   4.276   2.079   3.814  0.0323 -0.6999  0.0422
 2392SOL    HW2 9614   4.292   2.172   3.829  0.8348 -0.6544 -1.0322
 2392SOL    HW3 9615   4.246   2.075   3.723  1.7899 -1.6754 -0.5155
 2392SOL    MW4 9616   4.274   2.091   3.804  0.3700 -0.8225 -0.1729
 2393SOL     OW 9617   4.285   2.336   3.889  0.0040  0.4848 -0.2241
 2393SOL    HW2 9618   4.203   2.379   3.867  0.4273  0.7082 -1.4144
 2393SOL    HW3 9619   4.289   2.338   3.984 -1.4380  0.3440 -0.1511
 2393SOL    MW4 9620   4.275   2.342   3.898 -0.1307  0.4959 -0.3712
 2394SOL     OW 9621   4.065   2.466   3.790  0.1487  0.2155 -0.1577
 2394SOL    HW2 9622   4.062   2.552   3.833  1.8901  0.5581 -0.6747
 2394SOL    HW3 9623   3.987   2.420   3.822 -0.3949  1.7106  0.7090
 2394SOL    MW4 9624   4.055   2.471   3.800  0.3066  0.4578 -0.1116
 2395SOL     OW 9625   4.084   2.719   3.943 -0.7135 -0.3305  0.2725
 2395SOL    HW2 9626   4.101   2.729   4.037 -0.3845 -1.0006  0.2806
 2395SOL    HW3 9627   4.143   2.782   3.901  0.5236 -1.4018  0.4018
 2395SOL    MW4 9628   4.094   2.729   3.950 -0.5069 -0.5600  0.2909
 2396SOL     OW 9629   4.269   2.858   3.770  0.0557 -0.3012  0.2959
 2396SOL    HW2 9630   4.276   2.939   3.820  1.4827  0.0174 -0.3866
 2396SOL    HW3 9631   4.350   2.811   3.789  0.0960 -0.6946 -0.7862
 2396SOL    MW4 9632   4.281   2.862   3.779  0.2499 -0.3111  0.0632
 2397SOL     OW 9633   4.249   3.106   3.868 -0.0628  0.6440 -0.2268
 2397SOL    HW2 9634   4.175   3.153   3.830 -0.2136  1.5134  1.1069
 2397SOL    HW3 9635   4.327   3.146   3.829 -0.2349  1.0305 -0.1686
 2397SOL    MW4 9636   4.250   3.117   3.858 -0.1049  0.8097 -0.0434
 2398SOL     OW 9637   4.050   3.249   3.763  0.1283 -0.3759 -0.1126
 2398SOL    HW2 9638   3.972   3.207   3.799  0.1417 -0.3105 -0.0056
 2398SOL    HW3 9639   4.034   3.253   3.668 -0.8380  1.3224  0.0945
 2398SOL    MW4 9640   4.038   3.244   3.755  0.0024 -0.1435 -0.0708
 2399SOL     OW 9641   4.020   3.493   3.883 -0.4144 -0.1838 -0.3026
 2399SOL    HW2 9642   4.014   3.407   3.842 -1.2371 -0.2314 -0.0958
 2399SOL    HW3 9643   4.052   3.475   3.971 -0.8512 -0.3061 -0.1681
 2399SOL    MW4 9644   4.023   3.479   3.889 -0.5803 -0.2062 -0.2577
 2400SOL     OW 9645   4.258   3.615   3.787 -0.0436 -0.1167 -0.1519
 2400SOL    HW2 9646   4.183   3.573   3.831  1.5910 -1.8996  1.0270
 2400SOL    HW3 9647   4.333   3.562   3.813  1.8786  2.5825 -0.0152
 2400SOL    MW4 9648   4.258   3.602   3.796  0.4258  0.0045  0.0215
 2401SOL     OW 9649   4.293   3.858   3.916  0.3692  0.2774 -0.0100
 2401SOL    HW2 9650   4.221   3.915   3.889 -0.3878 -0.6891 -0.0404
 2401SOL    HW3 9651   4.284   3.781   3.861  0.2267 -0.7068  1.3809
 2401SOL    MW4 9652   4.282   3.856   3.905  0.2508  0.0200  0.1698
 2402SOL     OW 9653   4.058   3.979   3.828 -0.3829  0.2112  0.2033
 2402SOL    HW2 9654   4.057   4.074   3.842 -0.1780  0.4792 -1.4072
 2402SOL    HW3 9655   4.043   3.969   3.734  0.0498 -1.3362  0.2809
 2402SOL    MW4 9656   4.056   3.990   3.817 -0.2985  0.0424  0.0010
 2403SOL     OW 9657   4.037   4.282   3.879  0.1328  0.7835 -0.4964
 2403SOL    HW2 9658   4.119   4.324   3.851  0.5730  0.5464  0.4059
 2403SOL    HW3 9659   4.043   4.280   3.974 -0.1886 -0.7052 -0.4949
 2403SOL    MW4 9660   4.049   4.287   3.888  0.1478  0.5560 -0.3767
 2404SOL     OW 9661   4.279   4.359   3.812 -0.0086 -0.0170 -0.1442
 2404SOL    HW2 9662   4.265   4.437   3.865 -1.1395 -0.8322  0.7763
 2404SOL    HW3 9663   4.350   4.312   3.857 -0.4281 -0.3075  0.2350
 2404SOL    MW4 9664   4.287   4.363   3.825 -0.2131 -0.1626  0.0272
 2405SOL     OW 9665   0.518   2.365   4.747  0.1812  0.2575  0.2674
 2405SOL    HW2 9666   0.607   2.399   4.762 -0.2654  1.1956  0.8254
 2405SOL    HW3 9667   0.488   2.410   4.668  0.1760 -0.0139  0.1133
 2405SOL    MW4 9668   0.526   2.376   4.738  0.1215  0.3455  0.3209
 2406SOL     OW 9669   4.460   0.337   3.879 -0.1414 -0.3438 -0.3199
 2406SOL    HW2 9670   4.547   0.372   3.860  0.6981 -1.5888  1.1173
 2406SOL    HW3 9671   4.400   0.401   3.841  1.3968  0.2565 -1.8101
 2406SOL    MW4 9672   4.464   0.350   3.872  0.1726 -0.4289 -0.3271
 2407SOL     OW 9673   3.357   3.919   4.175 -0.3577 -0.1922 -0.3910
 2407SOL    HW2 9674   3.267   3.934   4.203 -0.1293  0.7525 -0.1677
 2407SOL    HW3 9675   3.353   3.916   4.079 -0.2734  2.1519 -0.4786
 2407SOL    MW4 9676   3.345   3.920   4.166 -0.3164  0.2418 -0.3738
 2408SOL     OW 9677   3.240   2.087   4.447  0.3441  0.0976 -0.1466
 2408SOL    HW2 9678   3.273   2.078   4.536 -1.5124  0.1675  0.5560
 2408SOL    HW3 9679   3.147   2.064   4.452  0.3651 -0.5846 -2.1929
 2408SOL    MW4 9680   3.232   2.083   4.459  0.1020  0.0169 -0.3238
 2409SOL     OW 9681   1.456   3.315   4.462 -0.3958  0.3780 -0.2788
 2409SOL    HW2 9682   1.433   3.282   4.375  1.3409 -1.1935 -0.1842
 2409SOL    HW3 9683   1.420   3.250   4.523 -0.7018  0.9307  0.1397
 2409SOL    MW4 9684   1.448   3.302   4.459 -0.2071  0.2434 -0.2112
 2410SOL     OW 9685   1.785   3.930   4.504 -0.0742  0.2725 -0.1265
 2410SOL    HW2 9686   1.858   3.887   4.550 -0.8481 -0.7177  0.1909
 2410SOL    HW3 9687   1.709   3.875   4.524 -0.7765  0.9188 -1.0247
 2410SOL    MW4 9688   1.785   3.917   4.513 -0.2691  0.2272 -0.2031
 2411SOL     OW 9689   2.552   1.092   4.589  0.2209  0.5410 -0.6028
 2411SOL    HW2 9690   2.470   1.105   4.542  0.5044 -1.1794 -1.6372
 2411SOL    HW3 9691   2.564   0.997   4.589  2.9701  0.8652 -1.7963
 2411SOL    MW4 9692   2.543   1.081   4.583  0.6211  0.3568 -0.8965
 2412SOL     OW 9693   4.324   2.843   4.249  0.1324  0.2596 -0.5550
 2412SOL    HW2 9694   4.398   2.801   4.206  1.2959  0.7567  0.9332
 2412SOL    HW3 9695   4.355   2.863   4.338 -1.4535  1.3433 -0.2140
 2412SOL    MW4 9696   4.338   2.840   4.255  0.0768  0.4680 -0.3138
 2413SOL     OW 9697   3.811   4.252   4.533  0.0347  0.8012  0.4026
 2413SOL    HW2 9698   3.845   4.319   4.592  1.6947 -0.2180  0.6328
 2413SOL    HW3 9699   3.812   4.293   4.447  0.5985  1.2290  0.6110
 2413SOL    MW4 9700   3.816   4.266   4.530  0.3281  0.7234  0.4601
 2414SOL     OW 9701   2.852   0.526   4.220  0.2318 -0.2992  0.1190
 2414SOL    HW2 9702   2.846   0.539   4.315 -2.3002 -1.1320  0.1302
 2414SOL    HW3 9703   2.836   0.614   4.184  1.1717  0.0154  0.4574
 2414SOL    MW4 9704   2.849   0.540   4.228  0.0217 -0.3676  0.1650
 2415SOL     OW 9705   0.023   2.279   4.614  0.2876 -0.4834 -0.0241
 2415SOL    HW2 9706  -0.014   2.296   4.701 -1.2221  1.7593 -1.0355
 2415SOL    HW3 9707  -0.043   2.225   4.570 -0.6861  1.4281 -0.9774
 2415SOL    MW4 9708   0.009   2.274   4.619 -0.0401  0.0644 -0.2837
 2416SOL     OW 9709   4.048   2.453   4.245  0.1432  0.2297  0.1794
 2416SOL    HW2 9710   4.023   2.545   4.252 -0.0575  0.4023 -2.3123
 2416SOL    HW3 9711   3.966   2.408   4.222  0.0399 -0.7297  2.2928
 2416SOL    MW4 9712   4.034   2.459   4.243  0.1030  0.1261  0.1292
 2417SOL     OW 9713   2.653   0.075   4.208  0.3648  0.0078  0.1428
 2417SOL    HW2 9714   2.663   0.168   4.193 -0.4602  0.0791 -0.0005
 2417SOL    HW3 9715   2.572   0.051   4.163  1.7877 -1.2590 -1.8362
 2417SOL    MW4 9716   2.643   0.084   4.200  0.4437 -0.1500 -0.1373
 2418SOL     OW 9717   1.777   1.142   4.163 -0.1350 -0.3124 -0.3175
 2418SOL    HW2 9718   1.791   1.150   4.069  0.0333  0.2857 -0.2457
 2418SOL    HW3 9719   1.695   1.187   4.180  0.2165  0.2486 -0.0749
 2418SOL    MW4 9720   1.768   1.149   4.153 -0.0664 -0.1595 -0.2761
 2419SOL     OW 9721   0.057   1.202   4.511 -0.0149  0.3257  0.0273
 2419SOL    HW2 9722   0.067   1.113   4.546  1.8429 -0.5684 -2.6751
 2419SOL    HW3 9723   0.142   1.244   4.527 -0.4196  1.1566  0.0149
 2419SOL    MW4 9724   0.069   1.196   4.518  0.1768  0.3173 -0.3309
 2420SOL     OW 9725   0.449   3.212   4.231 -0.1448  0.2311 -0.0450
 2420SOL    HW2 9726   0.373   3.154   4.221  0.3472 -0.3183 -0.6643
 2420SOL    HW3 9727   0.448   3.238   4.323 -2.0180  1.5260 -0.4196
 2420SOL    MW4 9728   0.439   3.208   4.242 -0.3270  0.3293 -0.1769
 2421SOL     OW 9729   3.607   3.325   4.742 -0.4512 -0.0218  0.1005
 2421SOL    HW2 9730   3.519   3.355   4.720 -0.9828 -2.0935 -0.6536
 2421SOL    HW3 9731   3.602   3.230   4.738  1.1899 -0.2600  2.5511
 2421SOL    MW4 9732   3.595   3.317   4.739 -0.3049 -0.3262  0.3238
 2422SOL     OW 9733   2.207   4.258   4.109  0.1910  0.0958  0.2209
 2422SOL    HW2 9734   2.216   4.177   4.159  0.9922 -0.9382 -1.5772
 2422SOL    HW3 9735   2.127   4.298   4.143 -0.1991 -1.4259  1.1430
 2422SOL    MW4 9736   2.198   4.253   4.120  0.2453 -0.2413  0.1059
 2423SOL     OW 9737   1.114   0.520   4.248  0.1553  0.0601  0.2023
 2423SOL    HW2 9738   1.045   0.459   4.223 -0.7420  1.2886 -0.3788
 2423SOL    HW3 9739   1.132   0.500   4.340 -0.4981 -0.7199  0.1689
 2423SOL    MW4 9740   1.107   0.509   4.257 -0.0495  0.1193  0.1216
 2424SOL     OW 9741   0.397   2.494   4.281  0.4452 -0.0981 -0.4791
 2424SOL    HW2 9742   0.482   2.452   4.268  0.4159 -0.1457 -0.5166
 2424SOL    HW3 9743   0.407   2.580   4.239  0.9756  0.4962  0.8515
 2424SOL    MW4 9744   0.410   2.500   4.274  0.5113 -0.0260 -0.3085
 2425SOL     OW 9745   3.362   2.425   4.598  0.1024  0.0630  0.8073
 2425SOL    HW2 9746   3.446   2.465   4.578  0.8529 -1.3505  1.1192
 2425SOL    HW3 9747   3.317   2.419   4.514  0.2828  0.8661  0.6522
 2425SOL    MW4 9748   3.367   2.430   4.585  0.2251 -0.0174  0.8278
 2426SOL     OW 9749   3.239   1.536   4.112 -0.0794  0.2623 -0.4637
 2426SOL    HW2 9750   3.261   1.529   4.019  0.1976 -0.1841 -0.3636
 2426SOL    HW3 9751   3.154   1.494   4.120  0.4606 -0.8022 -0.2972
 2426SOL    MW4 9752   3.231   1.530   4.101  0.0284  0.0629 -0.4287
 2427SOL     OW 9753   0.060   4.567   4.645  0.0983 -0.1517  0.1329
 2427SOL    HW2 9754   0.011   4.648   4.628  0.7126  0.1213 -0.3966
 2427SOL    HW3 9755  -0.002   4.497   4.628 -0.2638  0.1994 -0.0070
 2427SOL    MW4 9756   0.046   4.569   4.640  0.1317 -0.0691  0.0443
 2428SOL     OW 9757   2.179   0.331   4.591 -0.6599 -0.3371  0.8364
 2428SOL    HW2 9758   2.267   0.369   4.591 -1.5889  2.0102 -2.3767
 2428SOL    HW3 9759   2.195   0.237   4.579  1.4501 -0.0776  1.3140
 2428SOL    MW4 9760   2.193   0.323   4.589 -0.5040  0.0069  0.4749
 2429SOL     OW 9761   3.080   3.253   4.242  0.0460 -0.2271 -0.1202
 2429SOL    HW2 9762   3.096   3.338   4.200  1.4858 -0.3482  0.1700
 2429SOL    HW3 9763   3.000   3.220   4.200 -1.0408  1.6653  0.3858
 2429SOL    MW4 9764   3.071   3.260   4.231  0.0927  0.0067 -0.0148
 2430SOL     OW 9765   2.462   3.614   4.250 -0.2740 -0.4279 -0.1923
 2430SOL    HW2 9766   2.395   3.561   4.206 -1.8127  0.7438  0.6997
 2430SOL    HW3 9767   2.458   3.699   4.206  0.6230 -0.3477 -0.1229
 2430SOL    MW4 9768   2.453   3.618   4.238 -0.3588 -0.2625 -0.0653
 2431SOL     OW 9769   4.105   2.310   4.507 -0.0471 -0.0741 -0.1960
 2431SOL    HW2 9770   4.033   2.249   4.519  0.1420 -0.3662 -0.5068
 2431SOL    HW3 9771   4.090   2.347   4.420  0.5622 -0.6676 -0.5623
 2431SOL    MW4 9772   4.094   2.307   4.497  0.0587 -0.1910 -0.2856
 2432SOL     OW 9773   1.304   0.145   4.269 -0.3149 -0.1301  0.3829
 2432SOL    HW2 9774   1.391   0.107   4.265 -0.6009 -0.7930  0.4844
 2432SOL    HW3 9775   1.248   0.084   4.221 -0.6128  0.5983 -0.2180
 2432SOL    MW4 9776   1.308   0.132   4.262 -0.3920 -0.1214  0.3171
 2433SOL     OW 9777   3.098   0.404   4.158 -0.0043 -0.0335  0.1609
 2433SOL    HW2 9778   3.020   0.456   4.178 -0.3987 -0.5673  0.0165
 2433SOL    HW3 9779   3.166   0.440   4.215 -0.3643  0.4102  0.3130
 2433SOL    MW4 9780   3.097   0.416   4.168 -0.1040 -0.0454  0.1626
 2434SOL     OW 9781   0.435   0.090   4.246  0.2955  0.2662 -0.0832
 2434SOL    HW2 9782   0.516   0.057   4.207 -0.6378 -0.8618 -1.1052
 2434SOL    HW3 9783   0.420   0.174   4.202  0.7891  0.3693 -0.0566
 2434SOL    MW4 9784   0.443   0.097   4.235  0.2375  0.1310 -0.2141
 2435SOL     OW 9785   2.291   1.403   4.597 -0.1315  0.0013 -0.0756
 2435SOL    HW2 9786   2.376   1.383   4.638 -0.6820  1.0429  1.6234
 2435SOL    HW3 9787   2.303   1.490   4.560 -0.3702  0.0412 -0.0589
 2435SOL    MW4 9788   2.304   1.412   4.598 -0.2356  0.1439  0.1507
 2436SOL     OW 9789   1.563   0.475   4.283  0.2222  0.3488 -0.0924
 2436SOL    HW2 9790   1.590   0.559   4.246  1.6671  0.1204  0.3994
 2436SOL    HW3 9791   1.483   0.452   4.236  1.1805  0.8031 -2.0011
 2436SOL    MW4 9792   1.556   0.483   4.272  0.5392  0.3786 -0.2794
 2437SOL     OW 9793   3.580   4.050   4.255 -0.0119 -0.3825 -0.1498
 2437SOL    HW2 9794   3.507   4.010   4.208 -0.8075  0.0928  0.6568
 2437SOL    HW3 9795   3.658   4.017   4.211 -0.7393  0.4758 -2.1304
 2437SOL    MW4 9796   3.581   4.041   4.243 -0.2127 -0.2060 -0.3042
 2438SOL     OW 9797   2.933   1.336   4.552  0.0280 -0.5164 -0.3667
 2438SOL    HW2 9798   2.879   1.267   4.515 -0.7774 -0.0778 -0.0247
 2438SOL    HW3 9799   2.917   1.412   4.496  1.8636 -0.9361 -1.4898
 2438SOL    MW4 9800   2.924   1.337   4.540  0.1640 -0.5139 -0.4697
 2439SOL     OW 9801   3.356   1.180   4.270 -0.0811 -0.1916  0.8259
 2439SOL    HW2 9802   3.372   1.266   4.307  0.0165 -0.0002  0.3388
 2439SOL    HW3 9803   3.427   1.167   4.207 -0.0189 -0.6814  0.9956
 2439SOL    MW4 9804   3.367   1.189   4.267 -0.0603 -0.2309  0.7844
 2440SOL     OW 9805   3.243   4.393   4.538  0.6066  0.6639 -0.0969
 2440SOL    HW2 9806   3.260   4.479   4.576  2.8984 -0.1644  0.8619
 2440SOL    HW3 9807   3.148   4.383   4.543  0.2122  3.4106 -0.8865
 2440SOL    MW4 9808   3.233   4.403   4.544  0.8569  0.9170 -0.0744
 2441SOL     OW 9809   3.311   4.423   4.248 -0.4261 -0.2289  0.2932
 2441SOL    HW2 9810   3.249   4.372   4.196  1.7439 -1.7227 -0.9034
 2441SOL    HW3 9811   3.283   4.409   4.338 -1.7216 -1.0169 -0.2042
 2441SOL    MW4 9812   3.299   4.415   4.253 -0.3107 -0.5302  0.0701
 2442SOL     OW 9813   2.425   4.602   4.119  0.3883 -0.0279  0.2903
 2442SOL    HW2 9814   2.356   4.654   4.159  1.2398 -0.1591  1.9870
 2442SOL    HW3 9815   2.425   4.520   4.168  0.1423 -0.9950 -1.2936
 2442SOL    MW4 9816   2.416   4.598   4.131  0.4683 -0.1726  0.3052
 2443SOL     OW 9817   3.370   3.359   4.601  0.3194  0.2324  0.3768
 2443SOL    HW2 9818   3.283   3.319   4.592  0.7588 -0.6074 -0.2541
 2443SOL    HW3 9819   3.361   3.445   4.561 -0.2793  0.2302  0.4957
 2443SOL    MW4 9820   3.357   3.365   4.595  0.2985  0.1216  0.3090
 2444SOL     OW 9821   0.195   4.638   4.196 -0.4717  0.3725 -0.3021
 2444SOL    HW2 9822   0.204   4.546   4.222 -1.5548  0.2660 -0.2661
 2444SOL    HW3 9823   0.281   4.677   4.213 -0.4629 -0.2627  1.2095
 2444SOL    MW4 9824   0.207   4.631   4.202 -0.6134  0.2742 -0.0973
 2445SOL     OW 9825   2.087   4.274   4.469 -0.1932 -0.0046 -0.1786
 2445SOL    HW2 9826   2.118   4.183   4.469 -2.4447 -0.7842 -0.4476
 2445SOL    HW3 9827   2.041   4.284   4.386 -0.6503  1.1653  0.2066
 2445SOL    MW4 9828   2.085   4.263   4.458 -0.5505  0.0467 -0.1631
 2446SOL     OW 9829   2.617   4.126   4.701 -0.1012  0.2927 -0.8305
 2446SOL    HW2 9830   2.616   4.105   4.795 -1.2881  0.1495 -0.8618
 2446SOL    HW3 9831   2.584   4.216   4.696 -0.5194  0.1212 -1.1532
 2446SOL    MW4 9832   2.612   4.135   4.713 -0.3130  0.2513 -0.8769
 2447SOL     OW 9833   2.003   0.498   4.238 -0.3400 -0.1700 -0.2084
 2447SOL    HW2 9834   2.072   0.440   4.205  1.0622  1.3708 -0.0428
 2447SOL    HW3 9835   2.015   0.497   4.333 -0.7722 -0.1864 -0.1558
 2447SOL    MW4 9836   2.014   0.490   4.246 -0.2120  0.0311 -0.1793
 2448SOL     OW 9837   2.888   0.770   4.670  0.0832 -0.0778  0.0023
 2448SOL    HW2 9838   2.932   0.762   4.754  0.6716  0.4937 -0.2473
 2448SOL    HW3 9839   2.937   0.837   4.623  0.8695 -1.6627 -1.4904
 2448SOL    MW4 9840   2.900   0.778   4.675  0.2644 -0.2115 -0.2275
 2449SOL     OW 9841   1.359   3.987   4.226 -0.2929  0.5551 -0.4148
 2449SOL    HW2 9842   1.428   3.958   4.165  0.1928 -0.1426  0.4558
 2449SOL    HW3 9843   1.367   4.082   4.228  0.5833  0.4862 -0.4011
 2449SOL    MW4 9844   1.369   3.996   4.218 -0.1134  0.4542 -0.2985
 2450SOL     OW 9845   0.227   2.869   4.395 -0.5395  0.0801 -0.1497
 2450SOL    HW2 9846   0.266   2.923   4.463 -0.5504  0.8250 -0.7190
 2450SOL    HW3 9847   0.135   2.861   4.421 -0.7367  1.0695 -0.5025
 2450SOL    MW4 9848   0.220   2.875   4.407 -0.5669  0.3092 -0.2713
 2451SOL     OW 9849   4.283   1.315   4.243  0.2587  0.8226  0.1275
 2451SOL    HW2 9850   4.369   1.272   4.233 -0.1769  0.1861 -0.9783
 2451SOL    HW3 9851   4.291   1.364   4.324  1.0594 -0.7156  1.0124
 2451SOL    MW4 9852   4.296   1.316   4.252  0.3066  0.5356  0.0978
 2452SOL     OW 9853   4.488   3.989   4.286 -0.1674  0.4628  0.6764
 2452SOL    HW2 9854   4.421   3.921   4.296  1.1880 -0.7424  2.0077
 2452SOL    HW3 9855   4.506   4.017   4.376  2.0802 -0.2455  0.4810
 2452SOL    MW4 9856   4.482   3.984   4.299  0.3079  0.2105  0.8264
 2453SOL     OW 9857   2.050   2.847   4.273 -0.0326 -0.3476 -1.0972
 2453SOL    HW2 9858   2.024   2.924   4.223 -0.5362 -1.1398 -2.0642
 2453SOL    HW3 9859   1.973   2.791   4.272 -0.2112 -0.1783  0.9708
 2453SOL    MW4 9860   2.037   2.850   4.266 -0.1225 -0.4299 -0.9522
 2454SOL     OW 9861   3.787   3.918   4.130 -0.0389  0.6944 -0.0136
 2454SOL    HW2 9862   3.781   3.914   4.034  0.0293 -1.0109  0.0412
 2454SOL    HW3 9863   3.801   3.827   4.157  0.2566  1.2038  1.6007
 2454SOL    MW4 9864   3.788   3.906   4.121  0.0088  0.5364  0.2069
 2455SOL     OW 9865   1.978   4.334   4.231  0.1089 -0.3150  0.1189
 2455SOL    HW2 9866   1.964   4.428   4.220 -0.5571 -0.4820 -0.5470
 2455SOL    HW3 9867   1.899   4.294   4.195 -0.3809 -1.0697  1.9697
 2455SOL    MW4 9868   1.965   4.341   4.225 -0.0436 -0.4373  0.2751
 2456SOL     OW 9869   2.479   3.893   4.150  0.0790 -0.0316  0.0309
 2456SOL    HW2 9870   2.392   3.921   4.177 -0.1164 -1.4549  0.9259
 2456SOL    HW3 9871   2.539   3.937   4.210 -0.0266  0.7900 -0.4603
 2456SOL    MW4 9872   2.476   3.902   4.161  0.0393 -0.1111  0.0844
 2457SOL     OW 9873   4.390   3.862   4.711  0.0014  0.0178 -0.1220
 2457SOL    HW2 9874   4.327   3.915   4.760 -0.8216 -2.4835  1.6488
 2457SOL    HW3 9875   4.339   3.787   4.680  0.9305  0.6516 -3.3403
 2457SOL    MW4 9876   4.375   3.859   4.713  0.0153 -0.2286 -0.3128
 2458SOL     OW 9877   2.968   2.104   4.534 -0.1955 -0.1324  0.0145
 2458SOL    HW2 9878   2.937   2.034   4.590 -1.3453  0.6201  0.3432
 2458SOL    HW3 9879   2.983   2.178   4.593 -0.8724  0.4923 -0.5748
 2458SOL    MW4 9880   2.966   2.105   4.549 -0.4368  0.0494 -0.0200
 2459SOL     OW 9881   1.339   1.725   4.280 -0.4199 -0.2956  0.2794
 2459SOL    HW2 9882   1.369   1.728   4.371 -0.8509 -0.5420  0.4304
 2459SOL    HW3 9883   1.401   1.666   4.236 -0.4571 -0.5000  0.5045
 2459SOL    MW4 9884   1.351   1.718   4.286 -0.4816 -0.3550  0.3295
 2460SOL     OW 9885   4.042   2.971   4.683  0.1311  0.3146  0.2835
 2460SOL    HW2 9886   4.065   2.890   4.727  2.6258  0.5305 -0.5632
 2460SOL    HW3 9887   3.964   2.949   4.632 -0.8056 -0.8081  2.1576
 2460SOL    MW4 9888   4.035   2.957   4.682  0.3371  0.1950  0.4191
 2461SOL     OW 9889   3.854   3.683   4.517 -0.2273 -0.6791 -0.3482
 2461SOL    HW2 9890   3.902   3.735   4.582 -0.1173  1.0495 -1.7670
 2461SOL    HW3 9891   3.866   3.592   4.545  1.4442 -0.0893  0.9475
 2461SOL    MW4 9892   3.862   3.678   4.529  0.0079 -0.3734 -0.3648
 2462SOL     OW 9893   0.272   1.294   4.240 -0.0411 -0.0976 -0.0346
 2462SOL    HW2 9894   0.188   1.248   4.232 -0.2411  0.4529 -1.0760
 2462SOL    HW3 9895   0.336   1.233   4.204 -0.2213  0.1848 -0.8278
 2462SOL    MW4 9896   0.269   1.280   4.235 -0.0913  0.0123 -0.2766
 2463SOL     OW 9897   2.859   3.135   4.119 -0.2633 -0.2156 -0.1577
 2463SOL    HW2 9898   2.878   3.121   4.026  2.1365  0.1112  0.2367
 2463SOL    HW3 9899   2.883   3.053   4.161 -0.1166  0.0671  0.3193
 2463SOL    MW4 9900   2.865   3.123   4.112  0.0725 -0.1354 -0.0429
 2464SOL     OW 9901   1.829   1.747   4.513 -0.4223  0.7051 -0.2157
 2464SOL    HW2 9902   1.791   1.751   4.425  0.5753  0.2760 -0.6725
 2464SOL    HW3 9903   1.760   1.779   4.570 -1.5560 -0.2717 -1.0176
 2464SOL    MW4 9904   1.815   1.751   4.509 -0.4401  0.5196 -0.3819
 2465SOL     OW 9905   0.254   4.223   4.713  0.6108 -0.4245  0.2684
 2465SOL    HW2 9906   0.281   4.231   4.805 -2.5702  1.0278  1.1346
 2465SOL    HW3 9907   0.287   4.302   4.671  0.7100 -0.3221  0.5384
 2465SOL    MW4 9908   0.262   4.234   4.720  0.2042 -0.2193  0.4182
 2466SOL     OW 9909   3.533   0.351   4.187 -0.4921 -0.1844 -0.2516
 2466SOL    HW2 9910   3.536   0.353   4.091 -0.0963 -2.8600 -0.3416
 2466SOL    HW3 9911   3.608   0.403   4.215 -0.1397 -0.0580 -1.4054
 2466SOL    MW4 9912   3.543   0.358   4.178 -0.3934 -0.5207 -0.4158
 2467SOL     OW 9913   0.851   2.452   4.285 -0.4528  0.1989 -0.7141
 2467SOL    HW2 9914   0.846   2.528   4.227  1.2034  0.8223 -0.0878
 2467SOL    HW3 9915   0.863   2.490   4.373  0.1635 -0.7625 -0.3752
 2467SOL    MW4 9916   0.852   2.467   4.289 -0.1530  0.1543 -0.5865
 2468SOL     OW 9917   0.434   4.241   3.838  0.2493  0.2183  0.0592
 2468SOL    HW2 9918   0.518   4.282   3.819 -0.7076  1.7960 -0.8828
 2468SOL    HW3 9919   0.434   4.162   3.783  0.4914  1.0068 -1.1011
 2468SOL    MW4 9920   0.445   4.236   3.828  0.1550  0.5302 -0.2182
 2469SOL     OW 9921   3.562   4.306   4.144  0.2890  0.4606 -0.5308
 2469SOL    HW2 9922   3.560   4.219   4.182  0.6621  0.5677 -0.2611
 2469SOL    HW3 9923   3.482   4.348   4.177 -0.1158  0.0791 -1.0135
 2469SOL    MW4 9924   3.551   4.300   4.154  0.2851  0.4249 -0.5584
 2470SOL     OW 9925   1.750   3.269   4.500  0.1723 -0.5012  0.2159
 2470SOL    HW2 9926   1.657   3.291   4.492 -0.0636 -1.2433  0.8269
 2470SOL    HW3 9927   1.750   3.176   4.523  1.0635 -0.4912  0.2545
 2470SOL    MW4 9928   1.738   3.260   4.502  0.2588 -0.5977  0.3014
 2471SOL     OW 9929   0.059   2.534   4.515  0.4067  0.1343 -0.0668
 2471SOL    HW2 9930   0.048   2.443   4.543  0.3564  0.2552  0.3092
 2471SOL    HW3 9931   0.151   2.554   4.533  0.1809  0.4614  0.7648
 2471SOL    MW4 9932   0.069   2.525   4.521  0.3702  0.1936  0.0920
 2472SOL     OW 9933   3.037   1.296   4.954 -0.1979  0.2544 -0.2478
 2472SOL    HW2 9934   3.072   1.371   5.002  0.4115  0.2063 -0.6109
 2472SOL    HW3 9935   2.951   1.325   4.924 -0.2723  0.5450  0.2447
 2472SOL    MW4 9936   3.031   1.310   4.956 -0.1273  0.2863 -0.2308
 2473SOL     OW 9937   3.823   1.561   4.165  0.8459 -0.2330 -0.2047
 2473SOL    HW2 9938   3.759   1.595   4.228  2.4663  0.0801  1.3105
 2473SOL    HW3 9939   3.817   1.466   4.174 -0.1136 -0.2345 -0.7986
 2473SOL    MW4 9940   3.814   1.553   4.174  0.9332 -0.1918 -0.0830
 2474SOL     OW 9941   1.773   0.338   4.194  0.5771 -0.0441 -0.7096
 2474SOL    HW2 9942   1.849   0.395   4.203  0.4080 -0.2749  2.5467
 2474SOL    HW3 9943   1.700   0.391   4.226 -0.0359 -1.0957 -0.3632
 2474SOL    MW4 9944   1.773   0.352   4.199  0.4739 -0.2133 -0.2346
 2475SOL     OW 9945   1.303   3.489   4.123  0.3939 -0.1662 -0.4697
 2475SOL    HW2 9946   1.239   3.560   4.130 -0.2984 -0.9162  0.8400
 2475SOL    HW3 9947   1.322   3.483   4.029 -1.1405  0.3369 -0.8243
 2475SOL    MW4 9948   1.297   3.498   4.111  0.1001 -0.1988 -0.3438
 2476SOL     OW 9949   0.865   3.484   4.129 -0.3558  0.1574 -0.3532
 2476SOL    HW2 9950   0.930   3.554   4.121  0.5099 -0.7754 -1.5141
 2476SOL    HW3 9951   0.834   3.469   4.040 -3.6467  1.9398  0.4040
 2476SOL    MW4 9952   0.869   3.491   4.116 -0.6758  0.2694 -0.4067
 2477SOL     OW 9953   3.172   1.282   4.701  0.1406  0.1019  0.1548
 2477SOL    HW2 9954   3.097   1.291   4.642 -0.3472 -0.8743  0.6113
 2477SOL    HW3 9955   3.134   1.282   4.789  0.8874  1.7598  0.4917
 2477SOL    MW4 9956   3.157   1.283   4.705  0.1748  0.1917  0.2594
 2478SOL     OW 9957   2.657   0.344   4.136  0.0206  0.1166  0.3650
 2478SOL    HW2 9958   2.642   0.354   4.042  0.1630  1.3382  0.4591
 2478SOL    HW3 9959   2.722   0.411   4.157  2.1350 -2.0148  0.8159
 2478SOL    MW4 9960   2.664   0.354   4.127  0.3183 -0.0035  0.4368
 2479SOL     OW 9961   3.174   2.496   4.798 -0.6620 -0.3863  0.2619
 2479SOL    HW2 9962   3.143   2.581   4.765 -2.2047 -0.2324  2.0088
 2479SOL    HW3 9963   3.254   2.479   4.748 -1.3248  1.2126 -1.4271
 2479SOL    MW4 9964   3.181   2.505   4.787 -0.9532 -0.1550  0.2699
 2480SOL     OW 9965   1.721   3.512   4.101 -0.1672  0.5364  0.4992
 2480SOL    HW2 9966   1.736   3.506   4.007  1.1986  0.6799  0.6870
 2480SOL    HW3 9967   1.753   3.429   4.136  1.2046  1.2782  1.0398
 2480SOL    MW4 9968   1.727   3.501   4.093  0.1940  0.6533  0.5956
 2481SOL     OW 9969   3.065   3.301   4.527 -0.0789 -0.0887  0.2766
 2481SOL    HW2 9970   3.084   3.289   4.434 -1.7537  0.0131 -0.0973
 2481SOL    HW3 9971   3.048   3.213   4.560  0.2472 -0.0948  0.4355
 2481SOL    MW4 9972   3.066   3.288   4.519 -0.2568 -0.0758  0.2484
 2482SOL     OW 9973   2.496   2.858   4.291 -0.5969 -0.3575  0.0210
 2482SOL    HW2 9974   2.504   2.940   4.242 -0.5994 -0.3407  0.0486
 2482SOL    HW3 9975   2.481   2.886   4.382  0.7110 -0.3714  0.2579
 2482SOL    MW4 9976   2.495   2.873   4.297 -0.4249 -0.3572  0.0563
 2483SOL     OW 9977   2.115   1.830   4.537 -0.0776 -0.2031 -0.1011
 2483SOL    HW2 9978   2.022   1.808   4.531 -0.3446  0.7723  0.3269
 2483SOL    HW3 9979   2.117   1.926   4.545  0.8017 -0.4367  3.2814
 2483SOL    MW4 9980   2.103   1.840   4.537  0.0036 -0.1051  0.4015
 2484SOL     OW 9981   2.685   0.338   4.587 -0.0567  0.2137  0.6080
 2484SOL    HW2 9982   2.724   0.321   4.673  1.1902 -1.5466 -0.2659
 2484SOL    HW3 9983   2.740   0.407   4.549  1.3930 -1.2787 -0.0562
 2484SOL    MW4 9984   2.698   0.345   4.593  0.2990 -0.2155  0.4053
 2485SOL     OW 9985   0.053   2.715   4.115  0.1429  0.4517 -0.2947
 2485SOL    HW2 9986   0.039   2.638   4.169  0.1373  1.9030  1.8016
 2485SOL    HW3 9987   0.148   2.722   4.107  0.1280 -0.5906 -1.7505
 2485SOL    MW4 9988   0.064   2.705   4.121  0.1402  0.5057 -0.2103
 2486SOL     OW 9989   2.006   3.825   4.169  0.4515 -0.2286 -0.4980
 2486SOL    HW2 9990   2.004   3.817   4.074  0.3050 -0.1958 -0.4976
 2486SOL    HW3 9991   2.015   3.735   4.200 -1.1919 -0.4073 -0.4969
 2486SOL    MW4 9992   2.007   3.812   4.161  0.2153 -0.2480 -0.4978
 2487SOL     OW 9993   3.424   1.740   4.688  0.3826 -0.3206  0.0993
 2487SOL    HW2 9994   3.366   1.807   4.722  0.4027  0.0494 -0.5757
 2487SOL    HW3 9995   3.366   1.669   4.661  0.4513 -1.0882  1.9346
 2487SOL    MW4 9996   3.409   1.739   4.689  0.3943 -0.3731  0.2527
 2488SOL     OW 9997   3.101   3.545   4.160 -0.4463 -0.5759 -0.1516
 2488SOL    HW2 9998   3.094   3.534   4.065  0.6199 -0.4487 -0.2466
 2488SOL    HW3 9999   3.192   3.572   4.175 -0.7894  0.0596  0.8429
 2488SOL    MW410000   3.112   3.547   4.149 -0.3512 -0.4756 -0.0334
 2489SOL     OW10001   3.035   0.941   4.505 -0.1786  0.0654  0.3137
 2489SOL    HW210002   3.070   0.920   4.419 -0.0979 -1.6421  0.7472
 2489SOL    HW310003   2.958   0.996   4.487  0.6850  0.9309 -0.7681
 2489SOL    MW410004   3.029   0.946   4.491 -0.0541 -0.0457  0.2284
 2490SOL     OW10005   1.543   1.259   4.293 -0.4637 -0.0645  0.3940
 2490SOL    HW210006   1.567   1.211   4.372 -0.1870  0.8829  0.8873
 2490SOL    HW310007   1.470   1.209   4.256  0.3411 -1.3122  0.4628
 2490SOL    MW410008   1.537   1.246   4.298 -0.3210 -0.1042  0.4683
 2491SOL     OW10009   0.235   0.770   4.134  0.0213  0.0138 -0.3043
 2491SOL    HW210010   0.317   0.796   4.176  0.1573  0.0300 -0.5730
 2491SOL    HW310011   0.225   0.677   4.154 -0.4227  0.2583  0.5929
 2491SOL    MW410012   0.245   0.761   4.142 -0.0193  0.0482 -0.2217
 2492SOL     OW10013   0.584   0.341   4.549 -0.3998 -0.1883 -0.6734
 2492SOL    HW210014   0.512   0.281   4.568 -0.4157 -0.0180 -0.1913
 2492SOL    HW310015   0.619   0.310   4.466 -1.4546  0.1297 -1.2558
 2492SOL    MW410016   0.579   0.329   4.541 -0.5410 -0.1239 -0.6871
 2493SOL     OW10017   1.291   0.261   4.529 -0.0714  0.1601 -0.4310
 2493SOL    HW210018   1.291   0.226   4.440 -0.7617  0.8625 -0.7121
 2493SOL    HW310019   1.382   0.252   4.558 -0.1664 -1.5541 -0.6074
 2493SOL    MW410020   1.303   0.255   4.521 -0.1750  0.0266 -0.4907
 2494SOL     OW10021   2.585   0.104   4.483 -0.4568 -0.2878 -0.1508
 2494SOL    HW210022   2.621   0.185   4.519  2.3264 -2.6944  2.8174
 2494SOL    HW310023   2.624   0.096   4.397  1.2350  0.3142  0.5380
 2494SOL    MW410024   2.595   0.114   4.477  0.1338 -0.5259  0.3314
 2495SOL     OW10025   2.577   3.448   4.644  0.2141  0.1393 -0.1173
 2495SOL    HW210026   2.663   3.476   4.674 -0.0653  0.5287  0.3161
 2495SOL    HW310027   2.546   3.521   4.590 -0.0967  0.2451  0.2080
 2495SOL    MW410028   2.584   3.461   4.641  0.1361  0.2043 -0.0172
 2496SOL     OW10029   4.039   1.920   4.187  0.2206  0.0236 -0.1277
 2496SOL    HW210030   4.042   1.835   4.232  0.9723  1.0714  1.8818
 2496SOL    HW310031   4.129   1.952   4.192 -0.1555  1.1368 -0.4705
 2496SOL    MW410032   4.051   1.913   4.194  0.2704  0.3088  0.0925
 2497SOL     OW10033   2.455   0.684   4.675 -0.2991 -0.4945 -0.2626
 2497SOL    HW210034   2.537   0.726   4.647 -0.7953  0.2367 -0.6474
 2497SOL    HW310035   2.441   0.614   4.612  0.0269 -0.6112 -0.2052
 2497SOL    MW410036   2.464   0.680   4.663 -0.3216 -0.4135 -0.3057
 2498SOL     OW10037   2.705   1.929   4.351 -0.2622 -0.2324 -0.5099
 2498SOL    HW210038   2.778   1.875   4.323  0.7258 -0.3921  2.2221
 2498SOL    HW310039   2.740   2.018   4.356 -0.3331 -0.2527  0.4754
 2498SOL    MW410040   2.719   1.933   4.348 -0.1411 -0.2562 -0.0191
 2499SOL     OW10041   0.220   0.500   4.216 -0.0459 -0.3531  0.6879
 2499SOL    HW210042   0.242   0.479   4.307  0.7902  0.7516  0.7553
 2499SOL    HW310043   0.143   0.446   4.196  0.7414 -1.8190  1.5290
 2499SOL    MW410044   0.213   0.490   4.225  0.1683 -0.4007  0.8082
 2500SOL     OW10045   2.220   3.192   4.501 -0.2458  0.3030 -0.2447
 2500SOL    HW210046   2.207   3.102   4.531  2.9038 -0.5326 -1.2705
 2500SOL    HW310047   2.246   3.241   4.580  1.1692 -0.3828 -0.2807
 2500SOL    MW410048   2.221   3.187   4.515  0.3564  0.1020 -0.3848
 2501SOL     OW10049   2.516   2.023   4.146 -0.2579 -0.1261 -0.1424
 2501SOL    HW210050   2.496   2.117   4.154  1.1745  0.1675  0.1389
 2501SOL    HW310051   2.576   2.006   4.219 -0.2076 -1.1782 -0.4338
 2501SOL    MW410052   2.521   2.033   4.157 -0.0622 -0.2263 -0.1440
 2502SOL     OW10053   3.815   1.862   4.599  0.4549  0.5421  0.0024
 2502SOL    HW210054   3.783   1.818   4.678  0.4052  0.1189 -0.2495
 2502SOL    HW310055   3.737   1.871   4.544  0.5116  0.7397 -0.0455
 2502SOL    MW410056   3.800   1.857   4.602  0.4563  0.5124 -0.0372
 2503SOL     OW10057   3.531   0.085   4.255  0.8490  0.5495  0.0239
 2503SOL    HW210058   3.450   0.060   4.211  0.3039 -1.0611  1.8594
 2503SOL    HW310059   3.540   0.179   4.238 -1.3634  0.7394 -0.2692
 2503SOL    MW410060   3.521   0.094   4.247  0.4854  0.3621  0.2275
 2504SOL     OW10061   0.818   4.378   4.573  1.0111  0.2299 -0.3595
 2504SOL    HW210062   0.805   4.287   4.546  2.0289 -0.2201  0.5978
 2504SOL    HW310063   0.734   4.421   4.558  0.1701 -1.1671  0.3392
 2504SOL    MW410064   0.805   4.372   4.567  1.0344 -0.0138 -0.1411
 2505SOL     OW10065   3.222   1.952   4.714  0.5085 -0.2468 -0.4003
 2505SOL    HW210066   3.180   1.878   4.668 -0.4181  0.6536 -1.0326
 2505SOL    HW310067   3.153   1.986   4.770  0.5318  0.9500 -1.0877
 2505SOL    MW410068   3.207   1.946   4.715  0.3893  0.0299 -0.5746
 2506SOL     OW10069   2.319   4.431   4.508 -0.1076 -0.0306  0.1274
 2506SOL    HW210070   2.366   4.424   4.426 -1.2980  0.3535 -0.6020
 2506SOL    HW310071   2.243   4.374   4.497 -1.3448  1.5699  0.1774
 2506SOL    MW410072   2.315   4.423   4.496 -0.4280  0.2308  0.0381
 2507SOL     OW10073   2.442   0.463   4.275  0.2095 -0.0471 -0.6584
 2507SOL    HW210074   2.507   0.416   4.224  0.1550  0.6896 -1.4054
 2507SOL    HW310075   2.454   0.555   4.252 -0.1517  0.2435  0.2691
 2507SOL    MW410076   2.452   0.469   4.265  0.1545  0.0884 -0.6342
 2508SOL     OW10077   1.569   2.846   4.237 -0.0985 -0.1394 -0.4880
 2508SOL    HW210078   1.496   2.797   4.199 -1.2132  2.2199 -1.4517
 2508SOL    HW310079   1.542   2.864   4.327  0.3369 -1.3094 -0.1152
 2508SOL    MW410080   1.556   2.842   4.244 -0.1881  0.0176 -0.5651
 2509SOL     OW10081   2.653   0.834   4.563  0.2888  0.2580 -0.1772
 2509SOL    HW210082   2.684   0.845   4.474  0.0264  0.2084 -0.2737
 2509SOL    HW310083   2.729   0.804   4.612  0.6759  1.2119 -0.1886
 2509SOL    MW410084   2.667   0.831   4.558  0.3052  0.3773 -0.1917
 2510SOL     OW10085   2.800   1.723   4.703  0.4755 -0.2436  0.2620
 2510SOL    HW210086   2.767   1.638   4.732 -0.5013  0.4915  1.3588
 2510SOL    HW310087   2.730   1.758   4.647  0.1580  0.5315  1.1277
 2510SOL    MW410088   2.786   1.716   4.699  0.3049 -0.0443  0.5217
 2511SOL     OW10089   1.518   0.595   4.536  0.1875  0.0756 -0.5560
 2511SOL    HW210090   1.530   0.555   4.449  0.0453 -0.9665 -0.1059
 2511SOL    HW310091   1.607   0.612   4.567  0.2626 -0.1801 -0.6247
 2511SOL    MW410092   1.531   0.592   4.529  0.1786 -0.0957 -0.5054
 2512SOL     OW10093   2.681   4.023   4.304 -0.6950  0.6033  0.5340
 2512SOL    HW210094   2.674   4.099   4.246  0.7076 -0.3562 -0.9313
 2512SOL    HW310095   2.743   4.049   4.371 -1.2486  1.2274  0.8036
 2512SOL    MW410096   2.688   4.036   4.305 -0.5829  0.5589  0.3762
 2513SOL     OW10097   2.670   3.259   4.295 -0.3154  0.2217 -0.2656
 2513SOL    HW210098   2.666   3.352   4.269  0.7487 -0.0531 -1.4307
 2513SOL    HW310099   2.746   3.225   4.250 -0.8431 -1.2944 -0.0211
 2513SOL    MW410100   2.679   3.267   4.286 -0.2446 -0.0148 -0.3872
 2514SOL     OW10101   0.030   4.058   4.566 -0.3327  0.3161 -0.0598
 2514SOL    HW210102  -0.008   3.978   4.603 -2.1479  0.7423 -0.9518
 2514SOL    HW310103   0.110   4.073   4.617  0.4115 -2.4401 -0.3394
 2514SOL    MW410104   0.036   4.049   4.578 -0.4740  0.0091 -0.2146
 2515SOL     OW10105   1.607   0.739   4.181 -0.3565 -0.3072  0.4327
 2515SOL    HW210106   1.528   0.776   4.220 -0.0493  0.2954  0.4872
 2515SOL    HW310107   1.598   0.756   4.088 -1.1352 -1.8317  0.2173
 2515SOL    MW410108   1.595   0.746   4.174 -0.4187 -0.4289  0.4110
 2516SOL     OW10109   3.121   4.241   4.138  0.3181  0.1248  0.1927
 2516SOL    HW210110   3.131   4.151   4.170 -1.4822  0.1187  0.8201
 2516SOL    HW310111   3.029   4.261   4.154  0.5624  1.8641 -0.5333
 2516SOL    MW410112   3.110   4.232   4.145  0.1130  0.3529  0.1798
 2517SOL     OW10113   1.779   4.239   4.563 -0.7443 -0.1386 -0.3967
 2517SOL    HW210114   1.871   4.261   4.545 -0.6755 -0.2071 -0.1315
 2517SOL    HW310115   1.771   4.148   4.533 -0.6234 -0.2611 -0.0646
 2517SOL    MW410116   1.790   4.230   4.557 -0.7191 -0.1636 -0.3181
 2518SOL     OW10117   3.804   4.360   4.279  0.4508 -0.8597 -0.3147
 2518SOL    HW210118   3.721   4.328   4.242  0.5769 -1.1067 -0.3868
 2518SOL    HW310119   3.798   4.455   4.272 -0.5204 -0.7980  1.1621
 2518SOL    MW410120   3.792   4.368   4.273  0.3395 -0.8841 -0.1297
 2519SOL     OW10121   0.623   2.837   4.221 -0.2062 -0.5482  0.1122
 2519SOL    HW210122   0.700   2.786   4.195 -0.0688 -0.9794  1.3127
 2519SOL    HW310123   0.641   2.862   4.312 -1.5356 -0.7284  0.4259
 2519SOL    MW410124   0.636   2.834   4.230 -0.3635 -0.6289  0.3119
 2520SOL     OW10125   3.543   3.008   4.622 -0.3778 -0.7707 -0.3005
 2520SOL    HW210126   3.481   2.936   4.612 -2.5340  0.9191  0.4680
 2520SOL    HW310127   3.512   3.075   4.561 -0.3465  0.7612  1.3246
 2520SOL    MW410128   3.531   3.008   4.612 -0.6578 -0.3455  0.0157
 2521SOL     OW10129   4.312   2.120   4.504  0.5241  0.1463  0.2297
 2521SOL    HW210130   4.242   2.179   4.530  1.6517  1.4177  0.4866
 2521SOL    HW310131   4.301   2.109   4.409  1.5109  2.4608 -0.1989
 2521SOL    MW410132   4.302   2.126   4.495  0.8030  0.6194  0.2069
 2522SOL     OW10133   0.185   0.270   4.592 -0.1242  0.2820  0.0828
 2522SOL    HW210134   0.108   0.216   4.578  0.3964 -0.4565  0.0647
 2522SOL    HW310135   0.258   0.217   4.562  0.5617  0.3224  1.6269
 2522SOL    MW410136   0.185   0.256   4.587  0.0350  0.1899  0.2842
 2523SOL     OW10137   2.714   3.514   4.187  0.0275 -0.0236 -0.1733
 2523SOL    HW210138   2.783   3.558   4.236  0.2663 -0.1012 -0.4414
 2523SOL    HW310139   2.633   3.556   4.217 -0.0398 -1.5534  1.8899
 2523SOL    MW410140   2.712   3.526   4.197  0.0501 -0.2358  0.0639
 2524SOL     OW10141   3.095   3.965   4.228 -0.1378  0.0704  0.5056
 2524SOL    HW210142   3.083   3.980   4.321  0.5142  0.6823  0.5012
 2524SOL    HW310143   3.017   3.917   4.200 -0.6871  0.5476  1.2126
 2524SOL    MW410144   3.084   3.960   4.236 -0.1242  0.2143  0.5980
 2525SOL     OW10145   3.202   0.059   4.896 -0.0526 -0.0794 -0.2285
 2525SOL    HW210146   3.181   0.027   4.984  0.2293 -0.4890 -0.3095
 2525SOL    HW310147   3.120   0.050   4.848 -0.9551  2.6651  0.7187
 2525SOL    MW410148   3.188   0.053   4.902 -0.1347  0.2287 -0.1144
 2526SOL     OW10149   3.937   1.221   4.496 -0.1107  0.0018  0.1445
 2526SOL    HW210150   3.854   1.221   4.542 -0.8724  0.2801 -1.2075
 2526SOL    HW310151   3.986   1.294   4.534 -1.3320  1.1933 -0.5438
 2526SOL    MW410152   3.933   1.230   4.507 -0.3724  0.1957 -0.1245
 2527SOL     OW10153   2.566   1.358   4.668  0.3851  0.0619 -0.1071
 2527SOL    HW210154   2.586   1.397   4.583 -0.1895 -0.3358 -0.4250
 2527SOL    HW310155   2.550   1.266   4.650  0.0088  0.0230  0.3946
 2527SOL    MW410156   2.567   1.351   4.655  0.2596  0.0043 -0.0830
 2528SOL     OW10157   0.217   3.860   4.170  0.1307  0.3765  0.3323
 2528SOL    HW210158   0.222   3.772   4.208  0.3419  0.0388 -0.4743
 2528SOL    HW310159   0.141   3.900   4.214 -1.1677 -0.8902 -0.6907
 2528SOL    MW410160   0.207   3.853   4.181 -0.0128  0.1647  0.0906
 2529SOL     OW10161   0.711   3.180   4.483  0.1943  0.1436 -0.3869
 2529SOL    HW210162   0.749   3.222   4.560  0.4410  0.4947 -0.6988
 2529SOL    HW310163   0.764   3.212   4.410  0.0046 -0.2423 -0.6947
 2529SOL    MW410164   0.723   3.190   4.484  0.2018  0.1390 -0.4687
 2530SOL     OW10165   0.337   3.949   4.636 -0.1787 -0.3627 -0.2769
 2530SOL    HW210166   0.322   4.041   4.658 -3.0261 -0.8003 -0.1848
 2530SOL    HW310167   0.397   3.951   4.562 -1.1375  1.6205 -1.0250
 2530SOL    MW410168   0.343   3.962   4.629 -0.6810 -0.1585 -0.3633
 2531SOL     OW10169   3.572   2.596   4.507 -0.0338  0.4186  0.0786
 2531SOL    HW210170   3.650   2.608   4.561 -0.5155  0.7082  0.7179
 2531SOL    HW310171   3.605   2.559   4.425  0.5846 -0.9447  0.9312
 2531SOL    MW410172   3.587   2.593   4.503 -0.0157  0.2770  0.2756
 2532SOL     OW10173   1.121   3.948   4.067 -0.0574 -0.7700 -0.3415
 2532SOL    HW210174   1.199   3.988   4.105 -0.0248 -2.3162  1.2408
 2532SOL    HW310175   1.048   3.996   4.106  0.0172 -1.2867  0.4232
 2532SOL    MW410176   1.121   3.960   4.077 -0.0433 -1.0424 -0.0315
 2533SOL     OW10177   3.621   1.574   4.382  0.0310 -0.5494 -0.1517
 2533SOL    HW210178   3.612   1.665   4.410  0.1595 -0.4656 -0.3798
 2533SOL    HW310179   3.686   1.536   4.441  0.4353 -0.3244 -0.4555
 2533SOL    MW410180   3.628   1.581   4.393  0.1013 -0.5087 -0.2222
 2534SOL     OW10181   2.292   2.493   4.299 -0.4147 -0.3298  0.2830
 2534SOL    HW210182   2.199   2.470   4.293 -0.3255 -1.2295  1.8386
 2534SOL    HW310183   2.304   2.564   4.237 -2.9034  2.1536  2.5148
 2534SOL    MW410184   2.281   2.499   4.290 -0.7312 -0.1209  0.7830
 2535SOL     OW10185   0.623   2.353   4.193  0.3895  0.0469 -0.4078
 2535SOL    HW210186   0.708   2.387   4.222  0.6096  0.5500 -1.6072
 2535SOL    HW310187   0.634   2.341   4.099 -0.7310 -0.3206 -0.4887
 2535SOL    MW410188   0.636   2.356   4.184  0.2707  0.0651 -0.5765
 2536SOL     OW10189   1.348   3.237   4.226  0.1186  0.0289  0.0748
 2536SOL    HW210190   1.269   3.188   4.203  0.9922 -0.6745 -1.4911
 2536SOL    HW310191   1.333   3.325   4.191 -0.3955  0.1783  0.6700
 2536SOL    MW410192   1.335   3.243   4.218  0.1661 -0.0441 -0.0534
 2537SOL     OW10193   2.786   2.187   4.338  0.0555 -0.1756 -0.0705
 2537SOL    HW210194   2.742   2.269   4.362  0.4821  0.1577 -0.4335
 2537SOL    HW310195   2.853   2.175   4.405 -0.1708 -0.3616  0.1255
 2537SOL    MW410196   2.789   2.196   4.350  0.0820 -0.1559 -0.0925
 2538SOL     OW10197   0.641   3.676   4.483 -0.0709 -0.6840 -0.6121
 2538SOL    HW210198   0.620   3.596   4.530  0.4955 -1.4172 -1.5957
 2538SOL    HW310199   0.636   3.652   4.390  0.3010  0.3661 -0.9141
 2538SOL    MW410200   0.637   3.662   4.477  0.0529 -0.6421 -0.7815
 2539SOL     OW10201   0.038   1.943   4.142 -0.5746  0.0367 -0.1271
 2539SOL    HW210202   0.119   1.986   4.170 -1.2220  1.6139 -0.6026
 2539SOL    HW310203   0.047   1.852   4.172  0.1961  0.8524  2.2305
 2539SOL    MW410204   0.050   1.937   4.150 -0.5583  0.3525  0.1216
 2540SOL     OW10205   4.024   3.838   4.661 -0.0318 -0.3713  0.0849
 2540SOL    HW210206   4.022   3.900   4.588  0.6910  0.0979  0.4577
 2540SOL    HW310207   4.079   3.766   4.630  0.9902  0.2300  0.4739
 2540SOL    MW410208   4.031   3.837   4.647  0.1984 -0.2301  0.1855
 2541SOL     OW10209   1.599   1.855   4.641 -0.0827  0.5411  0.2206
 2541SOL    HW210210   1.568   1.939   4.607  2.9364  1.0820 -1.3319
 2541SOL    HW310211   1.528   1.794   4.621 -1.4773  2.2976 -0.4176
 2541SOL    MW410212   1.585   1.858   4.634  0.1315  0.8442 -0.0687
 2542SOL     OW10213   1.328   0.383   4.146 -0.2261 -0.0768 -0.4934
 2542SOL    HW210214   1.318   0.296   4.183  0.3177  0.1005  0.0754
 2542SOL    HW310215   1.245   0.427   4.165 -0.5014 -0.4663 -0.7851
 2542SOL    MW410216   1.316   0.377   4.153 -0.1906 -0.1048 -0.4568
 2543SOL     OW10217   0.426   0.905   4.560 -0.0581  0.0886  0.3467
 2543SOL    HW210218   0.448   0.824   4.605  0.5413  0.6773  1.1378
 2543SOL    HW310219   0.441   0.887   4.467 -1.7120 -1.2789  0.3132
 2543SOL    MW410220   0.431   0.892   4.554 -0.1973 -0.0142  0.4468
 2544SOL     OW10221   2.040   0.566   4.505  0.3445 -0.1770  0.1949
 2544SOL    HW210222   2.094   0.495   4.540  1.9427  1.1231  0.3680
 2544SOL    HW310223   2.097   0.642   4.505 -1.2874  1.0587 -0.2554
 2544SOL    MW410224   2.054   0.566   4.510  0.3400  0.1576  0.1583
 2545SOL     OW10225   0.886   1.683   4.294 -0.3304 -0.1468 -0.0733
 2545SOL    HW210226   0.812   1.632   4.262  1.0320 -2.4335  0.3484
 2545SOL    HW310227   0.866   1.697   4.387  0.4909 -2.1154  0.4196
 2545SOL    MW410228   0.873   1.678   4.302 -0.0423 -0.7083  0.0477
 2546SOL     OW10229   0.259   0.537   4.496  0.3146  0.0092 -0.1309
 2546SOL    HW210230   0.347   0.565   4.520  0.8664 -1.4589 -0.3881
 2546SOL    HW310231   0.248   0.452   4.539 -0.8783  0.0721 -0.3022
 2546SOL    MW410232   0.269   0.530   4.505  0.2300 -0.1762 -0.1879
 2547SOL     OW10233   1.565   2.059   4.303 -0.4042  0.6092  0.0602
 2547SOL    HW210234   1.561   2.147   4.265 -0.7332 -0.2386 -1.8917
 2547SOL    HW310235   1.548   2.073   4.396 -1.8993  2.4468 -0.4561
 2547SOL    MW410236   1.562   2.073   4.310 -0.6448  0.7398 -0.2656
 2548SOL     OW10237   3.125   2.761   4.129 -0.0551 -0.3745 -0.0054
 2548SOL    HW210238   3.123   2.674   4.167  1.7798 -0.9942 -1.2411
 2548SOL    HW310239   3.207   2.799   4.162  0.8696 -0.4154 -2.1585
 2548SOL    MW410240   3.136   2.755   4.138  0.3090 -0.4616 -0.4530
 2549SOL     OW10241   3.681   1.199   4.649 -0.5758  0.2235 -0.0764
 2549SOL    HW210242   3.680   1.148   4.730 -0.1960  0.2880 -0.0310
 2549SOL    HW310243   3.607   1.165   4.598 -1.7103  1.1766  0.9128
 2549SOL    MW410244   3.671   1.188   4.653 -0.6754  0.3579  0.0601
 2550SOL     OW10245   3.772   1.478   4.620 -0.3330  0.2164  0.7381
 2550SOL    HW210246   3.737   1.390   4.628 -0.2521  0.2288  1.2491
 2550SOL    HW310247   3.867   1.467   4.619 -0.3296  0.2685  0.4310
 2550SOL    MW410248   3.780   1.465   4.621 -0.3219  0.2248  0.7644
 2551SOL     OW10249   3.238   2.351   4.356  0.1593  0.5342  0.2674
 2551SOL    HW210250   3.306   2.345   4.289 -0.9412  1.0641 -0.9303
 2551SOL    HW310251   3.237   2.265   4.397 -0.0911 -0.2604 -1.3600
 2551SOL    MW410252   3.247   2.339   4.353 -0.0188  0.4992 -0.1054
 2552SOL     OW10253   3.797   2.068   4.272 -0.1327  0.2669  0.5776
 2552SOL    HW210254   3.867   2.009   4.244  0.0351  0.8321 -0.1942
 2552SOL    HW310255   3.824   2.097   4.359  0.3712  0.1194  0.4737
 2552SOL    MW410256   3.810   2.064   4.280 -0.0441  0.3221  0.4616
 2553SOL     OW10257   0.242   2.071   4.519  0.2803  0.0880 -0.3025
 2553SOL    HW210258   0.183   2.127   4.568 -0.1380 -0.2549 -0.4065
 2553SOL    HW310259   0.325   2.076   4.566  0.2410  0.7765 -0.3066
 2553SOL    MW410260   0.245   2.079   4.531  0.2200  0.1335 -0.3166
 2554SOL     OW10261   2.180   3.590   4.582  0.2198 -0.4304  0.4197
 2554SOL    HW210262   2.134   3.528   4.525 -1.0462  1.2788 -0.4818
 2554SOL    HW310263   2.268   3.597   4.545  0.0648 -0.9609 -0.0512
 2554SOL    MW410264   2.185   3.583   4.570  0.0324 -0.2749  0.2384
 2555SOL     OW10265   2.018   3.816   4.613  0.0978  0.3781  0.0276
 2555SOL    HW210266   2.064   3.732   4.607 -1.3657 -0.5487  1.4363
 2555SOL    HW310267   2.028   3.842   4.704  0.1190  1.5003 -0.2887
 2555SOL    MW410268   2.025   3.808   4.624 -0.0927  0.4039  0.1721
 2556SOL     OW10269   1.522   3.620   4.254  0.1169  0.0036  0.1738
 2556SOL    HW210270   1.445   3.569   4.229  0.2108 -0.2807  0.4498
 2556SOL    HW310271   1.595   3.575   4.210 -0.2228  2.1295 -2.6865
 2556SOL    MW410272   1.522   3.607   4.245  0.0844  0.2463 -0.1669
 2557SOL     OW10273   4.275   1.553   4.096 -0.2421  0.0183 -0.0293
 2557SOL    HW210274   4.256   1.544   4.003 -0.5639 -1.4241  0.1577
 2557SOL    HW310275   4.275   1.463   4.129 -0.1559  0.5191  1.3691
 2557SOL    MW410276   4.273   1.540   4.088 -0.2737 -0.1060  0.1798
 2558SOL     OW10277   2.437   0.449   4.540  0.2929  0.0896  0.0841
 2558SOL    HW210278   2.436   0.445   4.445  0.9058 -1.3121  0.1236
 2558SOL    HW310279   2.520   0.409   4.565  0.3964  0.9640  1.1925
 2558SOL    MW410280   2.448   0.443   4.531  0.3874  0.0200  0.2351
 2559SOL     OW10281   0.673   0.687   4.190  0.4393 -0.0140  0.1233
 2559SOL    HW210282   0.753   0.732   4.217  0.0481  0.5766  0.3176
 2559SOL    HW310283   0.667   0.703   4.096  0.6889 -0.2840  0.0610
 2559SOL    MW410284   0.682   0.695   4.181  0.4206  0.0283  0.1411
 2560SOL     OW10285   1.116   2.067   4.299  0.1516 -0.1076 -0.0899
 2560SOL    HW210286   1.181   2.025   4.242  0.9672 -0.4255  1.0586
 2560SOL    HW310287   1.039   2.010   4.293  0.2493 -0.1662 -0.8365
 2560SOL    MW410288   1.115   2.054   4.290  0.2720 -0.1574 -0.0367
 2561SOL     OW10289   2.745   2.709   3.864 -0.0999 -0.0335  0.6127
 2561SOL    HW210290   2.751   2.747   3.951 -0.1405 -0.2290  0.6998
 2561SOL    HW310291   2.664   2.746   3.828  0.2896  0.6107  0.3848
 2561SOL    MW410292   2.735   2.719   3.870 -0.0539  0.0257  0.5941
 2562SOL     OW10293   0.379   2.526   4.557  0.2628 -0.0479 -0.0157
 2562SOL    HW210294   0.416   2.612   4.577  2.0788 -0.5346 -1.1453
 2562SOL    HW310295   0.387   2.518   4.462 -1.6316 -0.7033 -0.1407
 2562SOL    MW410296   0.385   2.537   4.547  0.2525 -0.1988 -0.1812
 2563SOL     OW10297   2.608   2.044   4.636 -0.5028  0.3056  0.1542
 2563SOL    HW210298   2.600   1.962   4.587 -0.7566  0.3958  0.0436
 2563SOL    HW310299   2.544   2.103   4.595  0.9745  1.1628 -0.9498
 2563SOL    MW410300   2.598   2.041   4.624 -0.3412  0.4306 -0.0062
 2564SOL     OW10301   3.760   4.623   4.178 -0.2331  0.2520 -0.3113
 2564SOL    HW210302   3.679   4.669   4.199  0.9196  2.8058 -1.2582
 2564SOL    HW310303   3.769   4.631   4.083  0.5239 -1.0669 -0.3707
 2564SOL    MW410304   3.751   4.630   4.168  0.0188  0.4150 -0.4439
 2565SOL     OW10305   2.448   1.236   4.216 -0.3685 -0.7479  0.2092
 2565SOL    HW210306   2.522   1.183   4.185 -1.5529 -1.6933 -1.0527
 2565SOL    HW310307   2.371   1.196   4.176 -1.5670  0.3093  1.4053
 2565SOL    MW410308   2.448   1.223   4.207 -0.6828 -0.7333  0.2007
 2566SOL     OW10309   1.129   3.680   4.397 -0.4343 -0.0137 -0.0687
 2566SOL    HW210310   1.185   3.627   4.454  0.1820  1.1943  0.4665
 2566SOL    HW310311   1.043   3.678   4.439 -0.6170 -1.2466 -0.4833
 2566SOL    MW410312   1.125   3.673   4.410 -0.3771 -0.0167 -0.0525
 2567SOL     OW10313   3.319   3.130   4.207  0.2265  0.4868  0.4141
 2567SOL    HW210314   3.325   3.132   4.112  0.3688 -0.3755  0.4003
 2567SOL    HW310315   3.229   3.156   4.226  0.1060  0.3465  0.0353
 2567SOL    MW410316   3.308   3.134   4.197  0.2296  0.3545  0.3624
 2568SOL     OW10317   0.586   4.522   4.481  0.2899 -0.8274 -0.0016
 2568SOL    HW210318   0.494   4.496   4.483 -0.1158  0.6324  0.1294
 2568SOL    HW310319   0.617   4.492   4.395 -0.2404 -1.4784  0.0260
 2568SOL    MW410320   0.578   4.514   4.470  0.1664 -0.7205  0.0196
 2569SOL     OW10321   1.788   3.272   4.217 -0.2697 -0.0432  0.0855
 2569SOL    HW210322   1.769   3.270   4.311 -0.8385 -0.0901 -0.0282
 2569SOL    HW310323   1.726   3.210   4.179  0.2518 -0.3478 -0.2716
 2569SOL    MW410324   1.778   3.264   4.224 -0.2759 -0.0896  0.0234
 2570SOL     OW10325   3.305   0.010   4.125 -0.2881 -0.0464  0.0689
 2570SOL    HW210326   3.240   0.065   4.170 -0.5073  0.6188 -1.0467
 2570SOL    HW310327   3.299  -0.074   4.170 -0.5469  0.5802  1.2497
 2570SOL    MW410328   3.296   0.006   4.137 -0.3517  0.1240  0.0777
 2571SOL     OW10329   0.516   0.633   4.571  0.0178 -0.1096  0.2743
 2571SOL    HW210330   0.597   0.675   4.542 -0.4943  0.4277 -0.4091
 2571SOL    HW310331   0.536   0.540   4.574  0.4993 -0.0330 -0.4372
 2571SOL    MW410332   0.530   0.627   4.568  0.0137 -0.0286  0.0901
 2572SOL     OW10333   0.708   1.508   4.140  0.1016 -0.0431  0.0890
 2572SOL    HW210334   0.623   1.538   4.172  0.2456 -0.1749  0.6009
 2572SOL    HW310335   0.715   1.417   4.170  0.4367 -0.0215  0.0833
 2572SOL    MW410336   0.698   1.500   4.149  0.1647 -0.0578  0.1559
 2573SOL     OW10337   3.495   3.196   4.424 -0.3842  0.3063  0.0922
 2573SOL    HW210338   3.427   3.176   4.360  0.0342  0.4993 -0.4168
 2573SOL    HW310339   3.455   3.263   4.480 -1.0059 -0.3800  0.4821
 2573SOL    MW410340   3.481   3.202   4.423 -0.4110  0.2413  0.0763
 2574SOL     OW10341   3.818   0.749   4.164  0.0514 -0.0145  0.1147
 2574SOL    HW210342   3.834   0.751   4.070  0.5927 -1.1333  0.1720
 2574SOL    HW310343   3.876   0.816   4.200  1.6438 -1.2335 -0.1084
 2574SOL    MW410344   3.828   0.758   4.156  0.3331 -0.3230  0.0925
 2575SOL     OW10345   0.070   3.020   4.739  0.0719 -0.5495 -0.5470
 2575SOL    HW210346   0.051   3.107   4.705  0.8788 -1.4528 -3.3814
 2575SOL    HW310347   0.059   3.029   4.834 -0.2122  2.5308 -0.8225
 2575SOL    MW410348   0.066   3.033   4.747  0.1409 -0.2625 -0.9570
 2576SOL     OW10349   4.029   3.999   4.204  0.1927  0.0625 -0.2451
 2576SOL    HW210350   4.009   3.996   4.297  1.5371 -0.0794  0.0487
 2576SOL    HW310351   3.950   3.966   4.161  0.1618 -1.4088  0.9312
 2576SOL    MW410352   4.016   3.994   4.210  0.3662 -0.1502 -0.0510
 2577SOL     OW10353   1.024   0.736   4.490  0.1484  0.0476  0.1522
 2577SOL    HW210354   1.062   0.817   4.523  0.4311  0.3347 -0.8570
 2577SOL    HW310355   1.084   0.668   4.520 -0.1028  0.2062  1.0251
 2577SOL    MW410356   1.037   0.738   4.498  0.1526  0.1065  0.1345
 2578SOL     OW10357   2.277   3.460   3.863  0.0147 -0.2579  0.0271
 2578SOL    HW210358   2.337   3.533   3.844 -0.9174  0.2897 -0.8550
 2578SOL    HW310359   2.279   3.451   3.958  2.1674 -0.8160 -0.0468
 2578SOL    MW410360   2.285   3.468   3.873  0.1760 -0.2594 -0.0992
 2579SOL     OW10361   4.092   2.588   4.608 -0.1235  0.3384 -0.1312
 2579SOL    HW210362   4.074   2.601   4.514  0.8268  0.3037 -0.3198
 2579SOL    HW310363   4.086   2.494   4.620  2.0126  0.1029 -0.6429
 2579SOL    MW410364   4.089   2.578   4.597  0.2832  0.3026 -0.2236
 2580SOL     OW10365   2.774   2.154   4.820  0.0537 -0.1640 -0.1853
 2580SOL    HW210366   2.715   2.165   4.895 -1.6751  1.6908 -1.7726
 2580SOL    HW310367   2.719   2.116   4.751  0.6352  1.6908 -1.7242
 2580SOL    MW410368   2.759   2.151   4.821 -0.0978  0.3252 -0.5980
 2581SOL     OW10369   3.747   0.507   4.274  0.1687  0.0252  0.0665
 2581SOL    HW210370   3.770   0.591   4.233 -0.0462  0.1114  0.1243
 2581SOL    HW310371   3.824   0.452   4.260 -0.2972 -0.2796 -1.3460
 2581SOL    MW410372   3.761   0.511   4.267  0.0789 -0.0037 -0.1121
 2582SOL     OW10373   0.910   4.286   4.139  0.0643 -0.0761  0.1780
 2582SOL    HW210374   0.911   4.196   4.169 -1.1625  0.5948  2.3379
 2582SOL    HW310375   0.987   4.326   4.179 -0.7638  0.4463  1.2818
 2582SOL    MW410376   0.920   4.280   4.148 -0.2068  0.0815  0.6084
 2583SOL     OW10377   0.899   0.883   4.262 -0.1501 -0.0080  0.3127
 2583SOL    HW210378   0.863   0.845   4.342 -0.8051 -0.2671 -0.0913
 2583SOL    HW310379   0.980   0.835   4.247 -0.5618 -0.7080  0.2493
 2583SOL    MW410380   0.905   0.871   4.270 -0.2908 -0.1345  0.2513
 2584SOL     OW10381   2.893   2.324   4.100  0.0493  0.7194 -0.4458
 2584SOL    HW210382   2.893   2.273   4.181  0.1795  1.0755 -0.2202
 2584SOL    HW310383   2.806   2.365   4.098  0.4151  1.5333  0.0379
 2584SOL    MW410384   2.881   2.323   4.110  0.1147  0.8736 -0.3519
 2585SOL     OW10385   1.771   1.450   4.573 -0.0446  0.5223  0.0007
 2585SOL    HW210386   1.856   1.409   4.589 -0.1705  0.1632 -0.2459
 2585SOL    HW310387   1.793   1.540   4.546  0.1752  1.0126  1.7591
 2585SOL    MW410388   1.785   1.457   4.572 -0.0322  0.5397  0.2003
 2586SOL     OW10389   2.963   1.955   4.811 -0.1517  0.2618  0.3076
 2586SOL    HW210390   2.900   2.028   4.814 -1.3388 -0.6486 -1.3572
 2586SOL    HW310391   2.910   1.877   4.826  0.7175 -0.4509 -0.2947
 2586SOL    MW410392   2.948   1.955   4.813 -0.1936  0.0477  0.0081
 2587SOL     OW10393   0.024   1.187   4.167 -0.2084  0.0144  0.2471
 2587SOL    HW210394   0.019   1.187   4.071 -0.0279  1.3221  0.2281
 2587SOL    HW310395  -0.002   1.098   4.192  1.3136 -0.8367 -1.0861
 2587SOL    MW410396   0.020   1.175   4.158  0.0162  0.0746  0.0682
 2588SOL     OW10397   1.108   4.654   4.142 -0.2853  0.1859  0.1428
 2588SOL    HW210398   1.110   4.562   4.168  0.2227  0.0644 -0.3056
 2588SOL    HW310399   1.128   4.653   4.048  1.9131  0.8990  0.5661
 2588SOL    MW410400   1.111   4.642   4.133  0.0716  0.2632  0.1397
 2589SOL     OW10401   0.859   0.344   4.607  0.0096 -0.0797  0.4392
 2589SOL    HW210402   0.880   0.254   4.584  1.0449  0.3225 -0.2191
 2589SOL    HW310403   0.763   0.348   4.601  0.1207 -0.4374 -2.2506
 2589SOL    MW410404   0.849   0.333   4.603  0.1609 -0.0738 -0.0024
 2590SOL     OW10405   0.741   1.194   4.799 -0.2102 -0.1662 -0.1520
 2590SOL    HW210406   0.780   1.141   4.729 -0.5315  1.6483 -1.7556
 2590SOL    HW310407   0.802   1.186   4.872  1.8247  0.4350 -1.7078
 2590SOL    MW410408   0.754   1.186   4.799  0.0159  0.1526 -0.5684
 2591SOL     OW10409   3.090   0.152   4.524 -0.0680 -0.1011  0.3068
 2591SOL    HW210410   3.159   0.098   4.564  0.2798 -0.2970 -0.5432
 2591SOL    HW310411   3.115   0.242   4.545  0.5578 -0.1616 -0.1665
 2591SOL    MW410412   3.103   0.156   4.532  0.0608 -0.1350  0.1326
 2592SOL     OW10413   4.035   4.266   4.146 -0.2330 -0.2752 -0.0338
 2592SOL    HW210414   3.953   4.296   4.184 -1.0816 -0.4170 -1.6780
 2592SOL    HW310415   4.039   4.173   4.167 -0.2221 -0.1455  0.5235
 2592SOL    MW410416   4.025   4.257   4.154 -0.3438 -0.2766 -0.1774
 2593SOL     OW10417   3.658   0.869   4.473 -0.3955 -0.3059  0.1201
 2593SOL    HW210418   3.603   0.948   4.471  0.3942  0.2304 -0.5574
 2593SOL    HW310419   3.648   0.831   4.386  0.1747 -0.3022  0.0549
 2593SOL    MW410420   3.650   0.875   4.461 -0.2158 -0.2347  0.0224
 2594SOL     OW10421   2.166   2.116   4.495 -0.1567  0.0217 -0.2880
 2594SOL    HW210422   2.147   2.119   4.401  0.7472  1.0299 -0.4349
 2594SOL    HW310423   2.258   2.139   4.502 -0.0086 -0.8687  0.7852
 2594SOL    MW410424   2.175   2.119   4.483 -0.0179  0.0370 -0.1664
 2595SOL     OW10425   3.098   1.148   4.140  0.0917 -0.2991  0.3262
 2595SOL    HW210426   3.181   1.170   4.182  0.0582 -0.5587  0.5290
 2595SOL    HW310427   3.120   1.141   4.047  0.1623  0.2839  0.2967
 2595SOL    MW410428   3.112   1.150   4.133  0.0966 -0.2564  0.3490
 2596SOL     OW10429   1.399   0.884   4.532 -0.1810 -0.2410 -0.0847
 2596SOL    HW210430   1.428   0.796   4.557  0.6611 -0.1195 -0.6057
 2596SOL    HW310431   1.473   0.940   4.554 -0.1803  0.1394 -1.0233
 2596SOL    MW410432   1.412   0.880   4.538 -0.0699 -0.1748 -0.2770
 2597SOL     OW10433   1.143   0.992   4.559  0.2560 -0.0536  0.2239
 2597SOL    HW210434   1.228   0.949   4.546  0.5848  0.0477  1.9079
 2597SOL    HW310435   1.165   1.085   4.571 -0.0417 -0.0801  1.0227
 2597SOL    MW410436   1.157   0.999   4.559  0.2600 -0.0438  0.5517
 2598SOL     OW10437   2.517   1.497   4.175  0.1234  0.2766  0.5695
 2598SOL    HW210438   2.495   1.405   4.187 -1.3217  0.5091 -0.1908
 2598SOL    HW310439   2.505   1.512   4.081  0.9787  1.0724  0.5875
 2598SOL    MW410440   2.512   1.487   4.164  0.0453  0.4122  0.4711
 2599SOL     OW10441   2.766   4.575   4.633  0.1025  0.1518 -0.3600
 2599SOL    HW210442   2.725   4.651   4.591 -1.5094 -0.4591  0.0599
 2599SOL    HW310443   2.839   4.611   4.682  0.3494  1.2275 -1.5019
 2599SOL    MW410444   2.770   4.590   4.634 -0.0777  0.2131 -0.4554
 2600SOL     OW10445   2.207   0.330   4.170 -0.3134 -0.1293 -0.0316
 2600SOL    HW210446   2.286   0.372   4.205 -0.4922  0.2540 -0.0846
 2600SOL    HW310447   2.214   0.340   4.075 -0.1622 -0.5695 -0.0681
 2600SOL    MW410448   2.218   0.337   4.162 -0.3169 -0.1369 -0.0434
 2601SOL     OW10449   0.461   3.982   4.222  0.2464  0.4006 -0.7365
 2601SOL    HW210450   0.441   4.072   4.195  1.4337  0.6464 -0.8226
 2601SOL    HW310451   0.379   3.935   4.210 -0.4264  1.5004 -0.5738
 2601SOL    MW410452   0.447   3.988   4.217  0.3143  0.5782 -0.7267
 2602SOL     OW10453   3.601   3.539   4.188  0.1615 -0.0859  0.2761
 2602SOL    HW210454   3.643   3.464   4.231  1.2185  0.0697 -0.4802
 2602SOL    HW310455   3.589   3.512   4.097  1.1751  0.9162 -0.1641
 2602SOL    MW410456   3.605   3.525   4.182  0.4346  0.0670  0.1183
 2603SOL     OW10457   3.740   0.551   4.551 -0.1352 -0.1519 -0.4496
 2603SOL    HW210458   3.741   0.521   4.460 -3.6597 -0.6498 -0.4133
 2603SOL    HW310459   3.732   0.471   4.603 -1.3828  0.3028  0.0873
 2603SOL    MW410460   3.739   0.537   4.546 -0.7648 -0.1576 -0.3738
 2604SOL     OW10461   0.876   2.702   4.152 -0.2686 -0.0810 -0.3524
 2604SOL    HW210462   0.872   2.711   4.056 -0.5239  0.1605 -0.3185
 2604SOL    HW310463   0.959   2.743   4.176 -0.9693  1.3737 -0.3011
 2604SOL    MW410464   0.886   2.709   4.142 -0.3947  0.1428 -0.3409
 2605SOL     OW10465   3.982   0.051   4.331 -0.2321 -0.5237  0.0705
 2605SOL    HW210466   3.911   0.035   4.269 -0.9539 -2.2155  1.3044
 2605SOL    HW310467   4.062   0.034   4.280 -0.5862  2.6270 -1.6872
 2605SOL    MW410468   3.983   0.047   4.316 -0.3743 -0.3312  0.0014
 2606SOL     OW10469   2.850   3.850   4.164  0.0966 -0.3655 -0.0354
 2606SOL    HW210470   2.791   3.910   4.209 -0.7979 -0.9710 -0.3922
 2606SOL    HW310471   2.860   3.776   4.224  1.5883  0.3568  0.6164
 2606SOL    MW410472   2.844   3.848   4.178  0.1752 -0.3502  0.0029
 2607SOL     OW10473   1.479   2.100   4.570 -0.0580  0.4499 -0.1944
 2607SOL    HW210474   1.387   2.079   4.552 -0.3237  1.8520 -0.5915
 2607SOL    HW310475   1.475   2.172   4.633  0.6763  2.4956 -2.3764
 2607SOL    MW410476   1.466   2.107   4.576  0.0038  0.9048 -0.5350
 2608SOL     OW10477   4.444   0.108   4.275 -0.4203  0.2943  0.1937
 2608SOL    HW210478   4.442   0.199   4.245 -0.5664  0.5409  0.9502
 2608SOL    HW310479   4.523   0.071   4.236 -0.2747  0.7917  0.0219
 2608SOL    MW410480   4.454   0.115   4.266 -0.4203  0.3925  0.2713
 2609SOL     OW10481   2.290   2.745   4.159  0.1059  0.1034  0.6894
 2609SOL    HW210482   2.216   2.777   4.211 -0.0085 -0.2992  0.7835
 2609SOL    HW310483   2.367   2.781   4.202 -0.0925  1.4542 -0.0790
 2609SOL    MW410484   2.290   2.754   4.172  0.0644  0.2289  0.6003
 2610SOL     OW10485   0.482   1.645   4.229  0.1414  0.4298  0.1164
 2610SOL    HW210486   0.475   1.738   4.205 -0.6349  0.2655 -0.3023
 2610SOL    HW310487   0.438   1.639   4.313 -2.7119 -0.1525 -1.3779
 2610SOL    MW410488   0.476   1.657   4.237 -0.3375  0.3313 -0.1364
 2611SOL     OW10489   1.130   1.594   4.164 -0.1901  0.2765  0.2724
 2611SOL    HW210490   1.051   1.621   4.212  1.0510  2.3594  1.2429
 2611SOL    HW310491   1.202   1.641   4.208  1.5093 -1.0699 -0.9897
 2611SOL    MW410492   1.129   1.604   4.176  0.1978  0.3737  0.2332
 2612SOL     OW10493   3.082   3.962   4.495  0.2595  0.0274 -0.4444
 2612SOL    HW210494   3.161   4.010   4.520  0.7260 -1.0481  0.2204
 2612SOL    HW310495   3.088   3.879   4.543 -0.5461 -0.6759 -1.5131
 2612SOL    MW410496   3.093   3.957   4.505  0.2146 -0.2074 -0.4973
 2613SOL     OW10497   1.141   0.780   4.130 -0.4589 -0.0829 -0.4064
 2613SOL    HW210498   1.129   0.690   4.160  0.1942  0.0710  0.3316
 2613SOL    HW310499   1.220   0.810   4.174 -0.0175  0.4686 -1.5520
 2613SOL    MW410500   1.150   0.772   4.140 -0.3146  0.0102 -0.4606
 2614SOL     OW10501   1.181   0.016   4.626  0.0651  0.3373  0.4695
 2614SOL    HW210502   1.198   0.101   4.585  0.6607 -0.0151 -0.0144
 2614SOL    HW310503   1.224   0.022   4.711  0.7016  0.2737  0.1564
 2614SOL    MW410504   1.189   0.028   4.632  0.2277  0.2828  0.3643
 2615SOL     OW10505   2.998   1.426   4.124 -0.1212  0.1468 -1.0113
 2615SOL    HW210506   2.969   1.465   4.207  0.3339  2.0295 -1.7039
 2615SOL    HW310507   3.029   1.339   4.148 -2.4378 -0.3380  0.3847
 2615SOL    MW410508   2.998   1.420   4.138 -0.3667  0.3313 -0.9184
 2616SOL     OW10509   1.554   0.014   4.172 -0.4883 -0.5660  0.1680
 2616SOL    HW210510   1.543  -0.079   4.191 -1.5889 -0.0900  2.0007
 2616SOL    HW310511   1.643   0.034   4.201 -0.1987 -1.0833 -0.3648
 2616SOL    MW410512   1.564   0.005   4.179 -0.5953 -0.5714  0.3390
 2617SOL     OW10513   0.185   3.720   4.699  0.3195 -0.2149 -0.0579
 2617SOL    HW210514   0.226   3.802   4.673 -0.5172 -0.4003 -2.0257
 2617SOL    HW310515   0.099   3.746   4.734 -0.4721 -0.3085 -1.8485
 2617SOL    MW410516   0.179   3.734   4.700  0.1047 -0.2518 -0.5536
 2618SOL     OW10517   3.441   2.351   4.150  0.4968  0.2080  0.0966
 2618SOL    HW210518   3.502   2.277   4.148 -0.0887 -0.2773  0.1158
 2618SOL    HW310519   3.413   2.361   4.059 -2.6627 -2.3120  0.6934
 2618SOL    MW410520   3.446   2.342   4.137  0.0029 -0.1884  0.1783
 2619SOL     OW10521   1.125   0.479   4.551  0.2124  0.3810 -0.2285
 2619SOL    HW210522   1.043   0.435   4.571  0.2053  0.8726  0.8739
 2619SOL    HW310523   1.192   0.413   4.565  0.1091  0.3627  0.1756
 2619SOL    MW410524   1.123   0.465   4.555  0.1978  0.4434 -0.0300
 2620SOL     OW10525   3.856   3.408   4.565  0.1032  0.5495 -0.4586
 2620SOL    HW210526   3.800   3.394   4.641  0.8948  2.2189  0.4574
 2620SOL    HW310527   3.923   3.339   4.572 -0.9266 -0.4787 -0.7008
 2620SOL    MW410528   3.858   3.397   4.576  0.0720  0.6342 -0.3691
 2621SOL     OW10529   0.674   0.015   4.131 -0.1214  0.0235 -0.4200
 2621SOL    HW210530   0.758   0.040   4.170  0.3871 -0.9670 -0.8382
 2621SOL    HW310531   0.690   0.021   4.036 -0.9331  1.1131 -0.4940
 2621SOL    MW410532   0.688   0.019   4.124 -0.1613  0.0362 -0.4849
 2622SOL     OW10533   2.788   0.294   4.838  0.3348  0.3163  0.8457
 2622SOL    HW210534   2.715   0.353   4.854  1.0025  1.2119  0.6216
 2622SOL    HW310535   2.865   0.342   4.869  0.9655 -0.1449  0.0110
 2622SOL    MW410536   2.789   0.308   4.844  0.5064  0.3736  0.7057
 2623SOL     OW10537   1.150   1.317   4.237  0.1398 -0.7391 -0.0049
 2623SOL    HW210538   1.155   1.312   4.332  0.8952  0.1986  0.0176
 2623SOL    HW310539   1.124   1.408   4.219  1.8862 -0.3523 -0.7341
 2623SOL    MW410540   1.147   1.328   4.247  0.4698 -0.5645 -0.0982
 2624SOL     OW10541   3.128   3.735   4.635 -0.2705 -0.1326 -0.2722
 2624SOL    HW210542   3.155   3.771   4.719 -0.9714  0.3985 -0.2641
 2624SOL    HW310543   3.210   3.716   4.589  0.1145  0.3447  0.2074
 2624SOL    MW410544   3.142   3.737   4.640 -0.3121  0.0002 -0.2084
 2625SOL     OW10545   4.228   0.342   4.589 -0.2429 -0.6165  0.2933
 2625SOL    HW210546   4.258   0.429   4.562 -0.5744 -0.3835  0.6637
 2625SOL    HW310547   4.157   0.360   4.651 -1.6905 -1.1526 -1.1863
 2625SOL    MW410548   4.222   0.356   4.594 -0.4778 -0.6565  0.1464
 2626SOL     OW10549   2.439   3.640   4.511 -0.1375  0.4388  0.5099
 2626SOL    HW210550   2.448   3.628   4.416 -0.3054 -0.4170  0.5969
 2626SOL    HW310551   2.465   3.731   4.526 -0.4959  0.7010 -0.4085
 2626SOL    MW410552   2.444   3.650   4.500 -0.2067  0.3603  0.4001
 2627SOL     OW10553   2.071   2.111   4.242 -0.4048 -0.1626  0.1195
 2627SOL    HW210554   1.990   2.061   4.234 -0.8337  0.9558 -2.9300
 2627SOL    HW310555   2.139   2.051   4.209 -0.0426 -0.8389  2.0130
 2627SOL    MW410556   2.069   2.096   4.237 -0.4134 -0.1042 -0.0324
 2628SOL     OW10557   3.673   2.304   4.660  0.0690 -0.3169  0.1893
 2628SOL    HW210558   3.675   2.399   4.645  2.2794 -0.6634 -1.8034
 2628SOL    HW310559   3.592   2.275   4.618 -0.0552  0.5328 -0.1645
 2628SOL    MW410560   3.662   2.313   4.653  0.3445 -0.2503 -0.1202
 2629SOL     OW10561   1.386   1.672   4.546 -0.0220 -0.1528 -0.0454
 2629SOL    HW210562   1.410   1.580   4.552 -1.0586 -0.5114 -1.2307
 2629SOL    HW310563   1.302   1.678   4.591  0.7517  0.5075  1.3413
 2629SOL    MW410564   1.378   1.661   4.553 -0.0567 -0.1130 -0.0186
 2630SOL     OW10565   2.359   2.771   4.568 -0.4354  0.0840 -0.1685
 2630SOL    HW210566   2.396   2.683   4.565  0.4955  0.4590  0.1819
 2630SOL    HW310567   2.432   2.828   4.592 -1.1285  0.8927  0.0888
 2630SOL    MW410568   2.373   2.767   4.571 -0.4041  0.2403 -0.0882
 2631SOL     OW10569   2.222   3.978   4.230 -0.2620  0.1589 -0.6554
 2631SOL    HW210570   2.213   3.974   4.325  0.2590  0.7176 -0.5781
 2631SOL    HW310571   2.141   3.939   4.197 -0.3295 -0.2805  0.0119
 2631SOL    MW410572   2.210   3.973   4.238 -0.2019  0.1748 -0.5569
 2632SOL     OW10573   2.828   1.444   4.800  0.7472  0.0368 -0.0755
 2632SOL    HW210574   2.877   1.410   4.725  1.1304 -0.2317  0.2899
 2632SOL    HW310575   2.741   1.405   4.791  1.0828 -0.7800  0.1489
 2632SOL    MW410576   2.823   1.434   4.789  0.8421 -0.1065  0.0019
 2633SOL     OW10577   1.994   3.555   4.226  0.4013 -0.5315  0.1067
 2633SOL    HW210578   1.906   3.547   4.190  0.5349  1.6567 -0.7845
 2633SOL    HW310579   1.994   3.499   4.303 -0.6309 -3.4665 -1.9503
 2633SOL    MW410580   1.982   3.547   4.231  0.2828 -0.6301 -0.2828
 2634SOL     OW10581   1.979   1.264   4.306 -0.3150  0.1450 -0.1341
 2634SOL    HW210582   1.967   1.351   4.267 -0.2092 -0.1673 -0.8762
 2634SOL    HW310583   1.905   1.212   4.273 -0.4961  0.0052  0.4743
 2634SOL    MW410584   1.967   1.269   4.297 -0.3248  0.0855 -0.1512
 2635SOL     OW10585   4.011   0.933   4.270 -0.0322  0.0445  0.1331
 2635SOL    HW210586   4.009   0.928   4.365 -2.8534 -2.7068  0.0319
 2635SOL    HW310587   4.091   0.886   4.245  0.0537 -0.3407  1.1216
 2635SOL    MW410588   4.021   0.926   4.279 -0.3929 -0.3694  0.2499
 2636SOL     OW10589   0.939   2.138   4.659  0.3544  0.0082  0.5496
 2636SOL    HW210590   0.940   2.207   4.726  0.2312 -1.3473  1.9735
 2636SOL    HW310591   0.846   2.120   4.644  0.3735  0.5309 -0.2342
 2636SOL    MW410592   0.927   2.145   4.666  0.3406 -0.1018  0.6342
 2637SOL     OW10593   3.567   1.846   4.460 -0.1747  0.1233 -0.2492
 2637SOL    HW210594   3.516   1.806   4.531  0.9309 -0.2815  0.3274
 2637SOL    HW310595   3.504   1.857   4.389 -1.4388  1.1042  1.0074
 2637SOL    MW410596   3.552   1.842   4.460 -0.1955  0.1994 -0.0072
 2638SOL     OW10597   0.133   0.894   4.524 -0.1375 -0.5659 -0.2132
 2638SOL    HW210598   0.085   0.823   4.568  0.4310 -1.1498 -0.5241
 2638SOL    HW310599   0.225   0.869   4.532  0.0680  0.1368 -0.3355
 2638SOL    MW410600   0.139   0.881   4.531 -0.0353 -0.5503 -0.2704
 2639SOL     OW10601   2.460   0.734   4.214  0.2731 -0.3397  0.0326
 2639SOL    HW210602   2.465   0.744   4.119  0.7239 -0.5058  0.0325
 2639SOL    HW310603   2.380   0.778   4.240  1.1866  1.4763 -0.1830
 2639SOL    MW410604   2.450   0.741   4.205  0.4530 -0.1220  0.0048
 2640SOL     OW10605   0.434   3.472   4.124  0.2104 -0.4399  0.0807
 2640SOL    HW210606   0.423   3.458   4.029 -0.3847  0.1492  0.0559
 2640SOL    HW310607   0.437   3.384   4.161 -1.2468 -0.6771 -0.3101
 2640SOL    MW410608   0.433   3.459   4.116 -0.0604 -0.3936  0.0257
 2641SOL     OW10609   0.757   1.444   4.654  0.2437 -0.4534  0.1161
 2641SOL    HW210610   0.687   1.507   4.672  0.6301 -0.7449  2.7523
 2641SOL    HW310611   0.742   1.373   4.716  2.4498 -0.8754  0.1973
 2641SOL    MW410612   0.746   1.443   4.664  0.5857 -0.5475  0.4749
 2642SOL     OW10613   0.919   0.069   4.558  0.4403  0.4246 -0.9102
 2642SOL    HW210614   1.001   0.034   4.592  0.0215 -0.3900 -0.7213
 2642SOL    HW310615   0.854   0.001   4.577 -0.2419  0.9794 -1.2250
 2642SOL    MW410616   0.921   0.055   4.565  0.2951  0.3904 -0.9265
 2643SOL     OW10617   1.068   2.322   4.164 -0.3243 -0.2163 -0.3597
 2643SOL    HW210618   0.999   2.377   4.201 -0.9967 -0.8970 -0.5823
 2643SOL    HW310619   1.068   2.244   4.219  0.7315  0.0768  0.0544
 2643SOL    MW410620   1.058   2.319   4.176 -0.2736 -0.2673 -0.3338
 2644SOL     OW10621   3.071   1.733   4.545  0.1210  0.3279  0.6553
 2644SOL    HW210622   2.991   1.725   4.598 -0.1262 -0.4989  0.1737
 2644SOL    HW310623   3.116   1.649   4.558  1.0347  0.8837  1.1162
 2644SOL    MW410624   3.066   1.721   4.554  0.2086  0.2921  0.6523
 2645SOL     OW10625   4.491   1.661   4.486  0.4094  0.7018  0.1543
 2645SOL    HW210626   4.416   1.716   4.512  0.0236  0.2547  0.0077
 2645SOL    HW310627   4.498   1.673   4.391  0.9789  1.3009  0.2697
 2645SOL    MW410628   4.482   1.669   4.477  0.4334  0.7218  0.1502
 2646SOL     OW10629   0.425   0.338   4.116  0.6135 -0.0557 -0.5236
 2646SOL    HW210630   0.361   0.400   4.151  1.2021  0.1932  0.1199
 2646SOL    HW310631   0.420   0.350   4.021 -0.2356  0.0131 -0.4732
 2646SOL    MW410632   0.416   0.348   4.108  0.5791 -0.0138 -0.4325
 2647SOL     OW10633   3.850   2.924   4.270  0.5142 -0.0188  0.1080
 2647SOL    HW210634   3.796   2.861   4.223 -0.8567  0.0742  1.5230
 2647SOL    HW310635   3.841   3.006   4.221 -1.6173  0.3047  0.9634
 2647SOL    MW410636   3.842   2.927   4.258  0.0525  0.0360  0.4082
 2648SOL     OW10637   0.714   1.249   4.448 -0.1807  0.5691 -0.2755
 2648SOL    HW210638   0.739   1.323   4.503  0.5992 -0.4530  0.7583
 2648SOL    HW310639   0.636   1.213   4.491 -0.7131  0.9359 -0.9226
 2648SOL    MW410640   0.707   1.254   4.461 -0.1481  0.4827 -0.2241
 2649SOL     OW10641   4.248   0.600   4.542 -0.0911 -0.2140 -0.3286
 2649SOL    HW210642   4.338   0.628   4.557  0.0733  0.4671 -2.4346
 2649SOL    HW310643   4.194   0.669   4.581  0.2930 -0.8364  1.3045
 2649SOL    MW410644   4.253   0.613   4.549 -0.0191 -0.2062 -0.3915
 2650SOL     OW10645   2.904   3.100   3.854 -0.1605 -0.0286  0.0003
 2650SOL    HW210646   2.994   3.132   3.854 -0.4832  0.8833 -0.1116
 2650SOL    HW310647   2.858   3.156   3.791 -1.1196  0.4009  1.0608
 2650SOL    MW410648   2.910   3.112   3.846 -0.3297  0.1483  0.1254
 2651SOL     OW10649   0.027   0.629   4.611 -0.3968  0.2396  0.4416
 2651SOL    HW210650   0.114   0.613   4.575 -1.0243 -1.3037 -0.4685
 2651SOL    HW310651   0.014   0.559   4.674 -1.3857 -0.1634 -0.1998
 2651SOL    MW410652   0.037   0.618   4.615 -0.6100 -0.0172  0.2365
 2652SOL     OW10653   2.845   4.140   4.497  0.1185 -0.0002 -0.5870
 2652SOL    HW210654   2.778   4.124   4.565  0.5438 -0.2664 -0.2237
 2652SOL    HW310655   2.912   4.074   4.515  1.1578  1.1857 -0.0609
 2652SOL    MW410656   2.845   4.129   4.509  0.3116  0.1211 -0.4687
 2653SOL     OW10657   4.004   4.045   4.476  0.2901 -0.3693  0.4780
 2653SOL    HW210658   3.918   4.086   4.479  0.3438 -0.2494  0.3641
 2653SOL    HW310659   4.065   4.114   4.503  0.4897 -0.0733 -0.7058
 2653SOL    MW410660   4.001   4.059   4.480  0.3233 -0.3142  0.3071
 2654SOL     OW10661   2.566   1.776   4.535  0.3014 -0.1298  0.1749
 2654SOL    HW210662   2.596   1.813   4.452  0.7818 -0.1318  0.3409
 2654SOL    HW310663   2.475   1.752   4.520  0.5447 -0.6191 -0.5063
 2654SOL    MW410664   2.558   1.778   4.522  0.3965 -0.1947  0.1068
 2655SOL     OW10665   2.449   2.294   4.214  0.5582  0.1670  0.0417
 2655SOL    HW210666   2.375   2.353   4.228  0.3792 -0.2410  0.8270
 2655SOL    HW310667   2.526   2.347   4.233  0.3344 -0.3175  2.4773
 2655SOL    MW410668   2.449   2.308   4.218  0.5052  0.0494  0.4668
 2656SOL     OW10669   2.878   1.528   4.358  0.5658 -0.0972  0.2446
 2656SOL    HW210670   2.880   1.622   4.343  1.3442 -0.0623  0.5238
 2656SOL    HW310671   2.787   1.509   4.381  0.6295  0.7691  1.2778
 2656SOL    MW410672   2.866   1.538   4.359  0.6769  0.0216  0.4177
 2657SOL     OW10673   3.063   0.890   4.236 -0.6329 -0.3472 -0.7294
 2657SOL    HW210674   3.068   0.983   4.215 -1.7368 -0.2421 -0.5659
 2657SOL    HW310675   3.149   0.855   4.214 -0.2416  0.7001 -0.8582
 2657SOL    MW410676   3.075   0.897   4.230 -0.7272 -0.1952 -0.7253
 2658SOL     OW10677   0.351   1.617   4.477  0.5029 -0.0773 -0.3903
 2658SOL    HW210678   0.282   1.666   4.520  0.8736 -0.2265  0.3814
 2658SOL    HW310679   0.329   1.525   4.493  0.8354 -0.1259 -0.2161
 2658SOL    MW410680   0.339   1.611   4.485  0.5957 -0.1032 -0.2651
 2659SOL     OW10681   0.218   3.606   4.262  0.1319  0.0572  0.2825
 2659SOL    HW210682   0.293   3.565   4.219 -0.3380 -0.0806 -0.4216
 2659SOL    HW310683   0.225   3.579   4.354  0.9714  0.0996  0.2354
 2659SOL    MW410684   0.228   3.597   4.269  0.1806  0.0443  0.1831
 2660SOL     OW10685   0.468   0.872   4.261 -0.2400  0.0025 -0.4228
 2660SOL    HW210686   0.502   0.945   4.209  1.3054  1.1005  2.0314
 2660SOL    HW310687   0.538   0.807   4.259 -0.4517 -0.2272 -0.3092
 2660SOL    MW410688   0.482   0.873   4.254 -0.0640  0.1171 -0.0839
 2661SOL     OW10689   4.071   2.742   4.249  0.2915  0.1261 -0.1439
 2661SOL    HW210690   4.159   2.776   4.261  0.0823  0.3880  0.6373
 2661SOL    HW310691   4.013   2.817   4.263 -0.0905 -0.1982  0.0417
 2661SOL    MW410692   4.075   2.756   4.252  0.2136  0.1178 -0.0167
 2662SOL     OW10693   3.508   0.275   4.697 -0.1674  0.1963  0.1209
 2662SOL    HW210694   3.509   0.194   4.647  2.1964  0.1254  0.2091
 2662SOL    HW310695   3.599   0.285   4.728 -0.2378  3.2503 -0.5115
 2662SOL    MW410696   3.520   0.265   4.695  0.1352  0.5899  0.0491
 2663SOL     OW10697   0.478   2.092   4.691  0.2381  0.0775  0.1706
 2663SOL    HW210698   0.478   2.049   4.776  0.4701  0.6995  0.4867
 2663SOL    HW310699   0.482   2.186   4.711 -1.4174  0.2927 -0.4956
 2663SOL    MW410700   0.479   2.099   4.705  0.0503  0.1879  0.1249
 2664SOL     OW10701   4.100   3.241   4.276  0.0569  0.2677 -0.0664
 2664SOL    HW210702   4.102   3.325   4.230  1.0321 -0.0022 -0.5396
 2664SOL    HW310703   4.171   3.190   4.236 -0.0941 -0.5390  0.6734
 2664SOL    MW410704   4.110   3.245   4.265  0.1650  0.1259 -0.0310
 2665SOL     OW10705   4.135   4.244   4.633  0.0156  0.4052 -0.1728
 2665SOL    HW210706   4.213   4.287   4.599  0.4948  0.4455  0.9579
 2665SOL    HW310707   4.168   4.183   4.699 -0.8205 -0.3295 -0.4207
 2665SOL    MW410708   4.150   4.241   4.637 -0.0315  0.3133 -0.0563
 2666SOL     OW10709   1.350   4.257   4.144  0.0505 -0.0416  0.1019
 2666SOL    HW210710   1.425   4.311   4.170 -0.6068  0.1071  1.6923
 2666SOL    HW310711   1.362   4.245   4.049  1.9470  0.1747  0.2904
 2666SOL    MW410712   1.362   4.263   4.135  0.2139  0.0067  0.3366
 2667SOL     OW10713   2.814   1.117   4.432  0.3694 -0.2286  0.1439
 2667SOL    HW210714   2.734   1.092   4.478  0.3838 -0.3034  0.1290
 2667SOL    HW310715   2.792   1.112   4.339  0.8181 -1.6955  0.1089
 2667SOL    MW410716   2.801   1.113   4.426  0.4306 -0.4321  0.1373
 2668SOL     OW10717   0.898   4.039   4.238  0.1727 -0.0002  0.4065
 2668SOL    HW210718   0.829   3.978   4.210  0.2984 -0.2382  0.6121
 2668SOL    HW310719   0.874   4.062   4.328 -0.6344  1.3418 -0.1488
 2668SOL    MW410720   0.886   4.034   4.246  0.0829  0.1450  0.3605
 2669SOL     OW10721   2.001   3.099   4.169 -0.2201  0.4923  0.3564
 2669SOL    HW210722   1.936   3.167   4.186  1.8827  2.6853 -0.1494
 2669SOL    HW310723   1.999   3.088   4.074  0.7813  1.2601  0.2321
 2669SOL    MW410724   1.992   3.107   4.158  0.1894  0.8826  0.2728
 2670SOL     OW10725   2.188   1.124   4.140  0.1392  0.0470  0.1120
 2670SOL    HW210726   2.117   1.178   4.176 -1.5410 -1.9091 -0.2125
 2670SOL    HW310727   2.196   1.051   4.200  0.1380 -1.0828 -1.2364
 2670SOL    MW410728   2.180   1.122   4.153 -0.0827 -0.3601 -0.1087
 2671SOL     OW10729   2.926   2.537   4.474  0.0742 -0.0851  0.3588
 2671SOL    HW210730   2.978   2.511   4.397  0.9726 -0.6174  1.1365
 2671SOL    HW310731   2.950   2.474   4.542 -0.2651  0.7366  1.2526
 2671SOL    MW410732   2.936   2.526   4.473  0.1481 -0.0470  0.5794
 2672SOL     OW10733   2.415   4.369   4.260 -0.2562 -0.1215  0.1934
 2672SOL    HW210734   2.492   4.328   4.219 -0.9875 -1.5984  0.2406
 2672SOL    HW310735   2.342   4.340   4.205 -0.8775  0.5541  0.6679
 2672SOL    MW410736   2.416   4.359   4.247 -0.4346 -0.2275  0.2623
 2673SOL     OW10737   1.197   2.047   4.551 -0.0950  0.1691 -0.3200
 2673SOL    HW210738   1.117   2.067   4.600  0.0920 -0.7509  0.3638
 2673SOL    HW310739   1.170   2.049   4.459 -0.8860 -0.0517 -0.0959
 2673SOL    MW410740   1.183   2.050   4.546 -0.1748  0.0186 -0.2003
 2674SOL     OW10741   2.875   0.549   4.496 -0.3303 -0.3712 -0.1712
 2674SOL    HW210742   2.935   0.489   4.539 -0.8624 -0.7426  0.0684
 2674SOL    HW310743   2.878   0.629   4.550 -2.0061 -1.3022  1.3741
 2674SOL    MW410744   2.883   0.552   4.509 -0.6216 -0.5431  0.0639
 2675SOL     OW10745   2.248   1.617   4.195 -0.1146  0.0572 -0.3588
 2675SOL    HW210746   2.334   1.580   4.173  0.4688  0.9977  0.2948
 2675SOL    HW310747   2.256   1.710   4.174 -0.8628  0.2151  0.0429
 2675SOL    MW410748   2.261   1.625   4.189 -0.1364  0.2022 -0.2193
 2676SOL     OW10749   4.077   3.244   4.571  0.4563 -0.1568 -0.0866
 2676SOL    HW210750   4.086   3.221   4.479  1.4634 -0.1878  0.0132
 2676SOL    HW310751   4.062   3.161   4.615 -0.5230 -0.0910 -0.2676
 2676SOL    MW410752   4.076   3.230   4.565  0.4601 -0.1523 -0.0973
 2677SOL     OW10753   3.280   1.514   4.593  0.9152 -0.2239  0.3417
 2677SOL    HW210754   3.258   1.432   4.636  0.0051 -0.6296 -0.8685
 2677SOL    HW310755   3.294   1.491   4.502 -0.5319  1.1205 -0.2611
 2677SOL    MW410756   3.279   1.500   4.587  0.6042 -0.1001  0.1025
 2678SOL     OW10757   3.389   2.861   4.223  0.1970 -0.3394 -0.2139
 2678SOL    HW210758   3.384   2.954   4.203 -0.2025  0.0184  1.4488
 2678SOL    HW310759   3.482   2.840   4.216  0.5978  0.7077  1.5388
 2678SOL    MW410760   3.401   2.870   4.220  0.1972 -0.1540  0.2365
 2679SOL     OW10761   0.214   3.049   4.169 -0.0099  0.7684 -0.0732
 2679SOL    HW210762   0.224   2.997   4.249 -0.2930  0.2091 -0.3979
 2679SOL    HW310763   0.133   3.098   4.183  0.5515  1.5546  0.4678
 2679SOL    MW410764   0.204   3.049   4.181  0.0268  0.7982 -0.0448
 2680SOL     OW10765   2.604   2.925   4.552  0.0345  0.2764 -0.1393
 2680SOL    HW210766   2.684   2.878   4.531  0.3016  0.9798 -0.6910
 2680SOL    HW310767   2.632   3.014   4.571 -0.4942  0.2668  0.7142
 2680SOL    MW410768   2.618   2.930   4.552 -0.0002  0.3679 -0.0997
 2681SOL     OW10769   4.292   1.830   4.529  0.1056 -0.1870  0.1466
 2681SOL    HW210770   4.282   1.923   4.509  1.2338 -0.0349  0.2681
 2681SOL    HW310771   4.205   1.803   4.558 -0.0600  0.9844  0.7872
 2681SOL    MW410772   4.279   1.839   4.530  0.2322 -0.0124  0.2475
 2682SOL     OW10773   1.322   1.137   4.151  0.0458 -0.1264  0.0628
 2682SOL    HW210774   1.247   1.190   4.175  1.9794  2.0566  1.5006
 2682SOL    HW310775   1.328   1.145   4.055 -1.4654 -0.2371 -0.0445
 2682SOL    MW410776   1.313   1.145   4.141  0.1016  0.1471  0.2384
 2683SOL     OW10777   3.479   1.067   4.491  0.1347  0.1480 -0.2259
 2683SOL    HW210778   3.404   1.032   4.539  0.1741  1.9672  1.1920
 2683SOL    HW310779   3.440   1.105   4.412 -0.3249  0.2772  0.0608
 2683SOL    MW410780   3.464   1.067   4.487  0.0794  0.4051 -0.0010
 2684SOL     OW10781   0.753   0.785   4.506 -0.2486  0.1619 -0.2815
 2684SOL    HW210782   0.774   0.867   4.551  0.1997 -0.3597  0.4685
 2684SOL    HW310783   0.830   0.731   4.518 -1.0092 -0.8140  0.2492
 2684SOL    MW410784   0.766   0.789   4.513 -0.2898 -0.0357 -0.1121
 2685SOL     OW10785   3.707   3.347   4.330 -0.1200  0.5674  0.4327
 2685SOL    HW210786   3.645   3.281   4.359  0.3298 -0.0077  0.1044
 2685SOL    HW310787   3.755   3.372   4.409 -0.6620  0.9077  0.6589
 2685SOL    MW410788   3.705   3.342   4.344 -0.1321  0.5364  0.4191
 2686SOL     OW10789   3.626   2.515   4.247  0.1371 -0.2960 -0.6091
 2686SOL    HW210790   3.544   2.479   4.214 -0.4703  0.2618  0.2574
 2686SOL    HW310791   3.691   2.448   4.228 -0.6945 -1.1582 -0.4655
 2686SOL    MW410792   3.624   2.501   4.240 -0.0527 -0.3359 -0.4754
 2687SOL     OW10793   3.802   2.630   4.650 -0.1206  0.1076  0.4267
 2687SOL    HW210794   3.785   2.723   4.640 -2.3157 -0.1819  1.2818
 2687SOL    HW310795   3.898   2.623   4.655  0.1467  2.1017 -1.4306
 2687SOL    MW410796   3.813   2.641   4.649 -0.3750  0.3326  0.2947
 2688SOL     OW10797   1.561   2.339   3.888 -0.2394  0.3690  0.5003
 2688SOL    HW210798   1.574   2.316   3.980 -2.4551 -0.4662  0.6388
 2688SOL    HW310799   1.642   2.384   3.863  0.7199 -0.0986  2.6192
 2688SOL    MW410800   1.574   2.342   3.897 -0.4053  0.1972  0.7977
 2689SOL     OW10801   1.136   2.830   4.221  0.0989 -0.2990 -0.2032
 2689SOL    HW210802   1.088   2.821   4.303  0.8931  0.2759  0.3359
 2689SOL    HW310803   1.139   2.924   4.205  1.8776 -0.2436  0.3023
 2689SOL    MW410804   1.130   2.841   4.230  0.4383 -0.2160 -0.0653
 2690SOL     OW10805   3.284   0.333   4.854  0.0329 -0.1540  0.1601
 2690SOL    HW210806   3.256   0.248   4.890 -1.4469  0.6521  0.9302
 2690SOL    HW310807   3.359   0.311   4.799 -0.1203 -1.9331  0.6140
 2690SOL    MW410808   3.290   0.319   4.852 -0.1829 -0.2823  0.3214
 2691SOL     OW10809   4.074   1.641   4.245 -0.4347  0.2444  0.1146
 2691SOL    HW210810   3.997   1.607   4.198  0.0820  2.7419 -2.6796
 2691SOL    HW310811   4.149   1.611   4.194  0.4013 -0.7323  1.8700
 2691SOL    MW410812   4.073   1.633   4.232 -0.2561  0.4450 -0.0224
 2692SOL     OW10813   0.888   3.727   4.567  0.3171  0.2791 -0.1574
 2692SOL    HW210814   0.922   3.816   4.566 -1.0340  0.8482  1.7054
 2692SOL    HW310815   0.797   3.735   4.537  0.8237 -0.7865 -2.0571
 2692SOL    MW410816   0.880   3.740   4.563  0.2057  0.2139 -0.1626
 2693SOL     OW10817   2.964   0.059   4.765  0.0476  0.0049  0.1006
 2693SOL    HW210818   2.989   0.092   4.679 -1.2258  1.4069  0.2545
 2693SOL    HW310819   2.893   0.116   4.793 -1.0045 -1.7747  1.1527
 2693SOL    MW410820   2.958   0.071   4.757 -0.2592 -0.0449  0.2599
 2694SOL     OW10821   2.911   2.898   4.241  0.1285 -0.1628  0.2441
 2694SOL    HW210822   2.985   2.865   4.190  0.4443  1.2213 -0.2224
 2694SOL    HW310823   2.932   2.876   4.331 -0.3717 -2.5247 -0.1902
 2694SOL    MW410824   2.924   2.891   4.246  0.1040 -0.2918  0.1254
 2695SOL     OW10825   0.253   2.093   4.231 -0.5977 -0.3048 -0.2223
 2695SOL    HW210826   0.334   2.042   4.220 -0.4835 -0.0997 -0.3225
 2695SOL    HW310827   0.240   2.096   4.326  0.8959  1.8447 -0.0529
 2695SOL    MW410828   0.262   2.086   4.242 -0.3856  0.0062 -0.2131
 2696SOL     OW10829   2.432   2.212   4.488  0.2445  0.0722  0.5294
 2696SOL    HW210830   2.440   2.232   4.395 -0.2807 -0.1875  0.4294
 2696SOL    HW310831   2.418   2.296   4.530  1.3228  0.2930  0.4676
 2696SOL    MW410832   2.431   2.226   4.481  0.3176  0.0670  0.5083
 2697SOL     OW10833   4.088   1.161   4.101 -0.2007  0.1767  0.0075
 2697SOL    HW210834   4.062   1.082   4.149  1.7842 -0.3463  0.2868
 2697SOL    HW310835   4.167   1.191   4.146  0.1035  1.2787 -1.2287
 2697SOL    MW410836   4.095   1.154   4.113  0.1016  0.2531 -0.1187
 2698SOL     OW10837   1.581   2.300   4.171  0.4193  0.2993 -0.2627
 2698SOL    HW210838   1.502   2.346   4.199  0.5318 -0.3573  1.2242
 2698SOL    HW310839   1.652   2.347   4.215  0.6216 -0.6226  0.4255
 2698SOL    MW410840   1.580   2.312   4.181  0.4609  0.0911  0.0238
 2699SOL     OW10841   1.306   1.934   3.878  0.1863  0.2716  0.3529
 2699SOL    HW210842   1.309   1.958   3.971 -0.8071  2.2852 -0.1001
 2699SOL    HW310843   1.392   1.960   3.844 -0.2030  1.5383  0.2819
 2699SOL    MW410844   1.318   1.941   3.886  0.0038  0.7043  0.2840
 2700SOL     OW10845   1.769   0.092   4.301  0.3432 -0.3879  0.1940
 2700SOL    HW210846   1.777   0.184   4.276 -0.8984  0.0221  1.2519
 2700SOL    HW310847   1.851   0.052   4.270  0.6280  0.9240 -0.8319
 2700SOL    MW410848   1.781   0.099   4.293  0.2170 -0.1607  0.1984
 2701SOL     OW10849   2.621   1.502   4.426  0.2363 -0.1168  0.0369
 2701SOL    HW210850   2.589   1.492   4.337  1.8127  1.5080 -0.7460
 2701SOL    HW310851   2.580   1.582   4.458  0.0784 -0.4135  0.5920
 2701SOL    MW410852   2.611   1.511   4.419  0.4234  0.0583  0.0067
 2702SOL     OW10853   0.570   1.664   4.628  0.4077  0.2408  0.3162
 2702SOL    HW210854   0.502   1.659   4.560  0.5563  0.0416  0.1807
 2702SOL    HW310855   0.532   1.719   4.696 -0.6347 -1.4196  1.0960
 2702SOL    MW410856   0.556   1.671   4.628  0.2897 -0.0045  0.4010
 2703SOL     OW10857   1.995   4.609   4.186  0.5723  0.1440 -0.1627
 2703SOL    HW210858   2.022   4.608   4.094 -0.5685 -0.2067 -0.5008
 2703SOL    HW310859   2.068   4.651   4.232  0.9960  0.6441 -1.2743
 2703SOL    MW410860   2.008   4.615   4.180  0.4776  0.1636 -0.3538
 2704SOL     OW10861   2.889   4.386   4.227  0.3372  0.1037  0.0528
 2704SOL    HW210862   2.910   4.476   4.202  0.3676 -0.0943 -0.6578
 2704SOL    HW310863   2.925   4.376   4.315 -0.4733  1.0726  0.5152
 2704SOL    MW410864   2.896   4.396   4.235  0.2344  0.2055  0.0200
 2705SOL     OW10865   2.229   0.779   4.546  0.4859  0.0629  0.2888
 2705SOL    HW210866   2.303   0.752   4.599 -1.2236 -0.8710  2.2591
 2705SOL    HW310867   2.202   0.863   4.583  0.1292  0.0619  0.0333
 2705SOL    MW410868   2.235   0.787   4.558  0.2131 -0.0604  0.5155
 2706SOL     OW10869   1.353   2.699   4.119  0.1798 -0.2675  0.3180
 2706SOL    HW210870   1.277   2.744   4.157 -2.1331 -2.3496 -1.6131
 2706SOL    HW310871   1.343   2.608   4.148  1.4688 -0.7254 -0.6559
 2706SOL    MW410872   1.341   2.693   4.128  0.0446 -0.6025 -0.0653
 2707SOL     OW10873   2.964   4.375   4.509  0.2247  0.6226 -0.0689
 2707SOL    HW210874   2.898   4.436   4.542  1.1264  0.4696  2.0837
 2707SOL    HW310875   2.924   4.289   4.519  0.0464  0.6462 -0.5231
 2707SOL    MW410876   2.950   4.372   4.514  0.3202  0.6056  0.1550
 2708SOL     OW10877   4.290   2.041   4.229 -0.3870  0.5120 -0.1769
 2708SOL    HW210878   4.293   2.131   4.197  0.7406  0.1206 -1.2447
 2708SOL    HW310879   4.370   2.001   4.194 -0.4218 -0.6546  1.0287
 2708SOL    MW410880   4.301   2.047   4.221 -0.2427  0.3061 -0.1583
 2709SOL     OW10881   1.333   1.969   4.162 -0.1909 -0.1293 -0.1126
 2709SOL    HW210882   1.399   2.029   4.196 -0.2889  0.5723 -1.1326
 2709SOL    HW310883   1.343   1.889   4.214 -0.3335  0.9122  1.5480
 2709SOL    MW410884   1.343   1.966   4.174 -0.2226  0.1007 -0.0277
 2710SOL     OW10885   0.063   3.284   4.544 -0.3574  0.1125 -0.2109
 2710SOL    HW210886   0.129   3.353   4.542  0.3530 -0.5351  1.0111
 2710SOL    HW310887   0.048   3.263   4.451 -1.1991  2.4711 -0.6484
 2710SOL    MW410888   0.070   3.290   4.531 -0.3747  0.3383 -0.1073
 2711SOL     OW10889   4.471   3.487   4.173 -0.0654 -0.4259  0.1194
 2711SOL    HW210890   4.461   3.492   4.078  0.2597 -0.2743  0.0914
 2711SOL    HW310891   4.554   3.533   4.191 -1.9019  2.8196  0.8090
 2711SOL    MW410892   4.481   3.494   4.163 -0.2646  0.0224  0.2065
 2712SOL     OW10893   2.243   0.073   4.272 -0.0927  0.4580  0.0804
 2712SOL    HW210894   2.227   0.166   4.255  1.3691  0.7958  0.4527
 2712SOL    HW310895   2.258   0.069   4.367  0.2628 -0.0868 -0.0009
 2712SOL    MW410896   2.243   0.085   4.282  0.1471  0.4307  0.1187
 2713SOL     OW10897   1.551   0.300   4.604 -0.0520 -0.1657 -0.3989
 2713SOL    HW210898   1.640   0.290   4.636  0.2253  0.3302 -1.0046
 2713SOL    HW310899   1.539   0.395   4.593 -0.7048 -0.2163 -0.1721
 2713SOL    MW410900   1.561   0.311   4.607 -0.1014 -0.1070 -0.4492
 2714SOL     OW10901   2.697   3.174   4.575  0.1182 -0.1382  0.1832
 2714SOL    HW210902   2.701   3.206   4.485 -0.6003 -0.0689  0.1773
 2714SOL    HW310903   2.651   3.242   4.623  1.5852  0.4015  0.8657
 2714SOL    MW410904   2.691   3.187   4.570  0.2170 -0.0579  0.2723
 2715SOL     OW10905   0.309   4.461   4.514  0.1631 -0.5110  0.5671
 2715SOL    HW210906   0.277   4.427   4.431 -0.1750 -0.5222  0.7004
 2715SOL    HW310907   0.232   4.504   4.554  0.9801  1.9970 -0.4255
 2715SOL    MW410908   0.294   4.462   4.508  0.2263 -0.1817  0.4535
 2716SOL     OW10909   0.668   3.117   3.881 -0.2352  0.0806 -0.0391
 2716SOL    HW210910   0.661   3.113   3.977 -2.3690 -1.3391 -0.2233
 2716SOL    HW310911   0.648   3.028   3.852 -1.5351  0.9577 -1.9251
 2716SOL    MW410912   0.665   3.105   3.890 -0.6883  0.0091 -0.3121
 2717SOL     OW10913   3.699   1.692   4.779  0.1066 -0.1062  0.2570
 2717SOL    HW210914   3.606   1.698   4.758 -0.1533  0.4468  1.5378
 2717SOL    HW310915   3.728   1.610   4.738 -0.1106  1.4685 -3.1911
 2717SOL    MW410916   3.691   1.682   4.771  0.0436  0.1745 -0.0291
 2718SOL     OW10917   2.678   2.457   4.377  0.0457  0.2133 -0.2308
 2718SOL    HW210918   2.741   2.510   4.425  0.8005 -0.9910  0.1245
 2718SOL    HW310919   2.686   2.486   4.286  1.5017 -0.3059 -0.2796
 2718SOL    MW410920   2.687   2.468   4.371  0.3374 -0.0141 -0.1898
 2719SOL     OW10921   1.825   0.891   4.258  0.4507 -0.1576 -0.6082
 2719SOL    HW210922   1.758   0.835   4.219 -1.8176  1.2446  1.1167
 2719SOL    HW310923   1.807   0.978   4.221  1.7815  0.0975 -0.6642
 2719SOL    MW410924   1.813   0.895   4.248  0.3270  0.0610 -0.3877
 2720SOL     OW10925   0.466   1.905   4.148 -0.2308 -0.2774 -0.3804
 2720SOL    HW210926   0.553   1.944   4.159 -1.2573  1.8454  0.3910
 2720SOL    HW310927   0.450   1.909   4.054  0.4896 -0.6856 -0.5311
 2720SOL    MW410928   0.476   1.910   4.137 -0.2712 -0.0510 -0.2985
 2721SOL     OW10929   4.266   0.400   4.961  0.4063 -0.6372 -0.7877
 2721SOL    HW210930   4.332   0.402   4.893  0.9238 -1.5848 -0.3264
 2721SOL    HW310931   4.316   0.394   5.043 -0.1576  1.5791 -0.2288
 2721SOL    MW410932   4.281   0.400   4.963  0.4001 -0.4698 -0.6533
 2722SOL     OW10933   3.274   0.746   4.754 -0.0668 -0.6630  0.5574
 2722SOL    HW210934   3.354   0.718   4.711 -1.3616 -1.4551 -1.4216
 2722SOL    HW310935   3.260   0.835   4.722 -0.4184 -0.8341  0.2293
 2722SOL    MW410936   3.283   0.754   4.744 -0.2842 -0.7901  0.2532
 2723SOL     OW10937   1.090   3.073   4.498 -0.2923  0.0871  0.2888
 2723SOL    HW210938   1.046   3.109   4.421  0.4470  0.8370  0.2078
 2723SOL    HW310939   1.081   2.978   4.489 -0.2722  0.1693 -0.6898
 2723SOL    MW410940   1.083   3.065   4.487 -0.1922  0.1972  0.1488
 2724SOL     OW10941   3.243   1.017   4.645 -0.2693 -0.0313  0.1486
 2724SOL    HW210942   3.164   0.992   4.597 -0.0460 -0.8543  0.1955
 2724SOL    HW310943   3.233   1.110   4.662 -0.2213  0.3578 -1.7775
 2724SOL    MW410944   3.232   1.026   4.641 -0.2337 -0.0885 -0.0992
 2725SOL     OW10945   1.557   3.772   4.513 -0.3424  0.3988 -0.0289
 2725SOL    HW210946   1.540   3.731   4.429 -1.7768  2.3046 -0.7277
 2725SOL    HW310947   1.483   3.833   4.525  0.5716  1.1746  1.9349
 2725SOL    MW410948   1.545   3.775   4.504 -0.4110  0.7527  0.1373
 2726SOL     OW10949   0.008   3.232   4.279 -0.0331  0.6855  0.2253
 2726SOL    HW210950  -0.000   3.316   4.234  0.1703  0.4563 -0.2348
 2726SOL    HW310951  -0.072   3.185   4.257  0.8930 -0.1560 -1.4056
 2726SOL    MW410952  -0.003   3.237   4.270  0.1159  0.5443 -0.0505
 2727SOL     OW10953   0.792   4.097   4.521 -0.1369 -0.0934  0.0181
 2727SOL    HW210954   0.858   4.040   4.559  0.7758 -0.6927 -2.3761
 2727SOL    HW310955   0.710   4.050   4.531  0.0288 -0.0831  1.5136
 2727SOL    MW410956   0.790   4.083   4.527  0.0054 -0.1712 -0.1006
 2728SOL     OW10957   0.667   2.067   4.266  0.0113  0.1577  0.1387
 2728SOL    HW210958   0.644   2.158   4.250 -0.6628  0.2903  1.7017
 2728SOL    HW310959   0.753   2.056   4.227 -0.6945  0.9630 -1.6752
 2728SOL    MW410960   0.675   2.077   4.259 -0.1708  0.2813  0.1059
 2729SOL     OW10961   3.559   0.860   4.202 -0.1342 -0.3339 -0.6742
 2729SOL    HW210962   3.594   0.942   4.168  0.7790  0.2310  1.5377
 2729SOL    HW310963   3.627   0.795   4.181 -0.0536 -0.1909 -0.8587
 2729SOL    MW410964   3.573   0.862   4.195 -0.0029 -0.2405 -0.4067
 2730SOL     OW10965   1.799   0.662   4.586  0.1389  0.2749 -0.1405
 2730SOL    HW210966   1.806   0.757   4.590 -1.0896  0.5276 -2.9731
 2730SOL    HW310967   1.887   0.632   4.563  0.4828  0.7267  0.5715
 2730SOL    MW410968   1.811   0.671   4.584  0.0222  0.3679 -0.4206
 2731SOL     OW10969   3.803   0.299   4.708 -0.5188 -0.0498 -0.0141
 2731SOL    HW210970   3.834   0.215   4.674 -0.3819 -0.1554  0.3764
 2731SOL    HW310971   3.881   0.342   4.742 -1.0079 -0.9094  2.2663
 2731SOL    MW410972   3.817   0.294   4.708 -0.5653 -0.1772  0.3381
 2732SOL     OW10973   3.795   2.895   4.560 -0.2874  0.1839  0.0879
 2732SOL    HW210974   3.715   2.945   4.576  0.0115  0.4453  0.8158
 2732SOL    HW310975   3.812   2.907   4.467 -1.5087 -0.5081 -0.2249
 2732SOL    MW410976   3.787   2.903   4.550 -0.4091  0.1271  0.1431
 2733SOL     OW10977   0.699   2.039   4.537 -0.0839  0.2959  0.2059
 2733SOL    HW210978   0.685   2.052   4.443 -0.9709 -1.1241  0.1315
 2733SOL    HW310979   0.615   2.061   4.577 -0.1738 -0.5717  0.5109
 2733SOL    MW410980   0.686   2.043   4.530 -0.2127 -0.0060  0.2360
 2734SOL     OW10981   3.313   0.766   4.143 -0.1184 -0.5929  0.1681
 2734SOL    HW210982   3.317   0.672   4.157 -0.8959 -0.9674 -1.9935
 2734SOL    HW310983   3.399   0.798   4.170  0.7013 -2.1306 -0.5744
 2734SOL    MW410984   3.325   0.758   4.149 -0.1130 -0.8452 -0.2151
 2735SOL     OW10985   1.341   3.109   4.600  0.0849  0.0572 -0.3030
 2735SOL    HW210986   1.254   3.115   4.561  0.5165 -0.2668 -1.3169
 2735SOL    HW310987   1.373   3.021   4.576  0.5341  0.0139  0.4015
 2735SOL    MW410988   1.334   3.098   4.592  0.2010  0.0088 -0.3438
 2736SOL     OW10989   4.487   4.226   4.149  0.1306  0.3280  0.3636
 2736SOL    HW210990   4.482   4.132   4.166  1.7454  0.1816  0.1215
 2736SOL    HW310991   4.492   4.233   4.054  1.7656  0.5633  0.4625
 2736SOL    MW410992   4.487   4.215   4.139  0.5593  0.3390  0.3448
 2737SOL     OW10993   0.946   2.371   4.844  0.4904  0.2854 -0.2075
 2737SOL    HW210994   0.891   2.443   4.814  0.5797  0.5019  0.1455
 2737SOL    HW310995   0.923   2.360   4.936 -1.2649 -1.7232 -0.8480
 2737SOL    MW410996   0.936   2.379   4.852  0.2706  0.0489 -0.2460
 2738SOL     OW10997   0.719   1.236   4.164 -0.8093  0.3534 -0.1980
 2738SOL    HW210998   0.795   1.188   4.130 -0.2400  1.5535 -0.6605
 2738SOL    HW310999   0.724   1.225   4.259 -1.7601 -2.0642 -0.3891
 2738SOL    MW411000   0.730   1.228   4.172 -0.8596  0.1926 -0.2847
 2739SOL     OW11001   3.533   0.057   4.523  0.0257 -0.4761  0.2637
 2739SOL    HW211002   3.523   0.064   4.428  0.9725  0.7468  0.2348
 2739SOL    HW311003   3.627   0.042   4.536  0.0161  0.1134  1.0387
 2739SOL    MW411004   3.544   0.056   4.513  0.1493 -0.2370  0.3619
 2740SOL     OW11005   4.257   4.618   4.191 -0.5015  0.1749  0.3891
 2740SOL    HW211006   4.331   4.675   4.210  0.5717 -0.9866 -0.3164
 2740SOL    HW311007   4.268   4.544   4.250  0.6676 -1.5329 -1.9148
 2740SOL    MW411008   4.268   4.616   4.201 -0.2060 -0.2041 -0.0081
 2741SOL     OW11009   2.065   0.760   4.174 -0.2449  0.3656 -0.0074
 2741SOL    HW211010   1.996   0.810   4.216 -0.2359 -0.2060  0.6848
 2741SOL    HW311011   2.045   0.669   4.193  0.6546  0.1886  0.1475
 2741SOL    MW411012   2.053   0.755   4.182 -0.1252  0.2668  0.1049
 2742SOL     OW11013   1.479   1.419   4.545 -0.1312  0.0610  0.7810
 2742SOL    HW211014   1.503   1.398   4.455  0.5439  3.2545  0.1629
 2742SOL    HW311015   1.563   1.429   4.591 -0.4701 -1.6914  1.8111
 2742SOL    MW411016   1.493   1.418   4.540 -0.0869  0.2512  0.8354
 2743SOL     OW11017   0.434   3.280   4.513  0.2587  0.0107  0.0914
 2743SOL    HW211018   0.526   3.273   4.541  0.0742  0.1805  0.7685
 2743SOL    HW311019   0.386   3.224   4.575 -0.2564  0.9995  0.5919
 2743SOL    MW411020   0.440   3.271   4.525  0.1664  0.1636  0.2470
 2744SOL     OW11021   2.324   0.051   4.540  0.3261 -0.4276  0.4006
 2744SOL    HW211022   2.418   0.064   4.527 -0.0648  0.4010 -1.7894
 2744SOL    HW311023   2.314  -0.043   4.553  1.3325 -0.6551 -0.4558
 2744SOL    MW411024   2.335   0.040   4.540  0.4072 -0.3482 -0.0014
 2745SOL     OW11025   2.258   0.895   4.300  0.0823 -0.5449  0.1637
 2745SOL    HW211026   2.196   0.840   4.253  0.6640 -1.9955  1.0842
 2745SOL    HW311027   2.260   0.860   4.388 -0.4042  1.6758  1.0914
 2745SOL    MW411028   2.251   0.883   4.305  0.0949 -0.4433  0.4072
 2746SOL     OW11029   0.341   3.024   4.632 -0.5247 -0.0621  0.0687
 2746SOL    HW211030   0.410   3.038   4.697 -0.2596  0.9407 -0.4220
 2746SOL    HW311031   0.260   3.031   4.681 -0.2748 -2.8058  0.9580
 2746SOL    MW411032   0.340   3.027   4.647 -0.4568 -0.2916  0.1216
 2747SOL     OW11033   4.463   2.855   4.504  0.0413  0.3751  0.1192
 2747SOL    HW211034   4.482   2.912   4.579 -1.6232  0.2207  0.6740
 2747SOL    HW311035   4.441   2.771   4.543 -0.4217  0.1779 -0.5575
 2747SOL    MW411036   4.463   2.852   4.519 -0.2394  0.3288  0.1030
 2748SOL     OW11037   4.037   0.428   4.776 -0.1679  0.0790  0.8995
 2748SOL    HW211038   4.029   0.517   4.740  2.3868 -0.1610 -0.3629
 2748SOL    HW311039   4.093   0.438   4.853  0.6086 -0.5083  0.4194
 2748SOL    MW411040   4.043   0.441   4.781  0.2713 -0.0301  0.6695
 2749SOL     OW11041   3.355   0.475   4.546 -0.4144  0.3003  0.0012
 2749SOL    HW211042   3.401   0.553   4.579 -0.0956  0.2687 -0.3727
 2749SOL    HW311043   3.422   0.407   4.545 -0.3662  0.3644 -0.9576
 2749SOL    MW411044   3.370   0.476   4.551 -0.3664  0.3046 -0.1740
 2750SOL     OW11045   4.420   0.130   4.549  0.7521 -0.1744  0.0833
 2750SOL    HW211046   4.422   0.108   4.456  1.5709  0.1017  0.0262
 2750SOL    HW311047   4.344   0.187   4.560  0.8178  0.0164 -0.4684
 2750SOL    MW411048   4.411   0.134   4.538  0.8693 -0.1128  0.0029
 2751SOL     OW11049   0.846   1.783   4.564  0.1103  0.1197 -0.5212
 2751SOL    HW211050   0.776   1.747   4.618  1.0602  0.5309  1.0069
 2751SOL    HW311051   0.819   1.873   4.546 -0.8453 -0.4246 -1.8641
 2751SOL    MW411052   0.834   1.790   4.569  0.1096  0.1022 -0.4964
 2752SOL     OW11053   2.641   4.251   4.136 -0.1209  0.1799 -0.2901
 2752SOL    HW211054   2.721   4.302   4.146  0.0086  0.1095 -0.9249
 2752SOL    HW311055   2.639   4.228   4.043 -2.3311  2.5981 -0.9169
 2752SOL    MW411056   2.651   4.255   4.125 -0.3958  0.4897 -0.4563
 2753SOL     OW11057   1.228   1.283   4.513 -0.0190  0.1120  0.2508
 2753SOL    HW211058   1.181   1.341   4.572 -0.5459 -0.4437  0.3796
 2753SOL    HW311059   1.320   1.304   4.526 -0.2176  1.0668  0.1441
 2753SOL    MW411060   1.234   1.293   4.522 -0.1148  0.1647  0.2542
 2754SOL     OW11061   1.142   4.413   4.261  0.0848 -0.1760 -0.0926
 2754SOL    HW211062   1.209   4.357   4.221  0.1133  0.2833 -0.7018
 2754SOL    HW311063   1.170   4.423   4.352  1.4968  0.9865 -0.6354
 2754SOL    MW411064   1.154   4.407   4.268  0.2748  0.0381 -0.2451
 2755SOL     OW11065   1.585   1.105   4.531  0.0010  0.1114  0.3003
 2755SOL    HW211066   1.664   1.050   4.536  0.2640  0.4271 -0.2954
 2755SOL    HW311067   1.604   1.179   4.589  0.6543  0.8103 -0.7788
 2755SOL    MW411068   1.598   1.108   4.539  0.1220  0.2452  0.0792
 2756SOL     OW11069   2.020   3.109   3.890 -0.0464  0.4625  0.0958
 2756SOL    HW211070   2.098   3.155   3.858 -0.2560  1.0240  0.3821
 2756SOL    HW311071   2.021   3.025   3.844 -0.8263  1.5999 -2.0653
 2756SOL    MW411072   2.030   3.104   3.879 -0.1769  0.6864 -0.1516
 2757SOL     OW11073   3.400   1.942   4.273 -0.3047  0.5912  0.0502
 2757SOL    HW211074   3.444   2.000   4.210  1.0689  0.6840  1.0675
 2757SOL    HW311075   3.354   2.002   4.332 -1.5159  0.5079 -0.8037
 2757SOL    MW411076   3.400   1.958   4.272 -0.2832  0.5925  0.0720
 2758SOL     OW11077   2.916   3.659   4.339 -0.0332 -0.3630  0.0628
 2758SOL    HW211078   2.935   3.611   4.420  2.2043  0.5341  0.1057
 2758SOL    HW311079   2.991   3.641   4.283  0.5192  2.5019 -0.1861
 2758SOL    MW411080   2.928   3.650   4.342  0.3350  0.1333  0.0362
 2759SOL     OW11081   2.211   3.987   4.507 -0.4837 -0.0335  0.0978
 2759SOL    HW211082   2.147   3.924   4.539  0.6937 -1.0746  0.4563
 2759SOL    HW311083   2.294   3.959   4.546  0.1552  1.4210 -0.1667
 2759SOL    MW411084   2.214   3.975   4.516 -0.2439  0.0210  0.1097
 2760SOL     OW11085   2.033   2.403   4.237 -0.1305 -0.2409  0.2767
 2760SOL    HW211086   2.036   2.310   4.260  0.3776 -0.4139 -0.4854
 2760SOL    HW311087   2.033   2.404   4.141 -0.1382  0.5493  0.2835
 2760SOL    MW411088   2.033   2.390   4.228 -0.0644 -0.1595  0.1769
 2761SOL     OW11089   1.784   3.982   4.229  0.0605  0.0280  0.1839
 2761SOL    HW211090   1.780   3.976   4.324  0.6601 -0.8726  0.1668
 2761SOL    HW311091   1.860   3.928   4.205 -2.1531 -2.6412 -1.0528
 2761SOL    MW411092   1.794   3.974   4.238 -0.1525 -0.4427  0.0181
 2762SOL     OW11093   0.397   1.834   4.797  0.4611  0.1532  0.2689
 2762SOL    HW211094   0.378   1.781   4.874  0.3506 -0.3188 -0.0788
 2762SOL    HW311095   0.314   1.840   4.750  0.0004  2.2621  1.2829
 2762SOL    MW411096   0.383   1.828   4.801  0.3857  0.3692  0.3562
 2763SOL     OW11097   2.072   1.051   4.516 -0.5232 -0.4824 -0.0270
 2763SOL    HW211098   2.034   1.131   4.552  0.0659  1.1379 -2.8475
 2763SOL    HW311099   2.154   1.080   4.475 -0.5062 -2.4328 -1.4301
 2763SOL    MW411100   2.078   1.065   4.515 -0.4435 -0.5260 -0.5841
 2764SOL     OW11101   0.025   2.471   4.247  0.1842  0.0383  0.3791
 2764SOL    HW211102   0.099   2.423   4.209 -0.6471 -1.6544  0.8714
 2764SOL    HW311103   0.052   2.486   4.338 -0.3272 -1.1503  0.7401
 2764SOL    MW411104   0.038   2.466   4.254  0.0070 -0.3421  0.4916
 2765SOL     OW11105   2.488   3.924   4.537  0.3854  0.1813  0.3408
 2765SOL    HW211106   2.537   3.980   4.597  1.5319  0.1651 -0.5759
 2765SOL    HW311107   2.514   3.954   4.450 -1.8792  0.7693 -0.1850
 2765SOL    MW411108   2.498   3.936   4.533  0.2379  0.2570  0.1502
 2766SOL     OW11109   4.166   4.025   4.811  0.0976  0.1161  0.2473
 2766SOL    HW211110   4.129   3.960   4.751  0.6310 -0.7975  0.9136
 2766SOL    HW311111   4.145   3.993   4.898 -0.4490  1.3179  0.5716
 2766SOL    MW411112   4.158   4.012   4.814  0.0954  0.1540  0.3781
 2767SOL     OW11113   1.819   2.693   4.199  0.0056 -0.4723 -0.4936
 2767SOL    HW211114   1.783   2.615   4.240 -1.0953 -0.0084 -0.5519
 2767SOL    HW311115   1.745   2.753   4.193  0.9013  0.6927 -0.1633
 2767SOL    MW411116   1.804   2.691   4.204 -0.0215 -0.2573 -0.4573
 2768SOL     OW11117   1.572   3.122   4.127 -0.0413  0.0065 -0.0230
 2768SOL    HW211118   1.577   3.030   4.153  0.8581 -0.1824 -0.8308
 2768SOL    HW311119   1.490   3.153   4.164  0.0854 -0.8826  1.0309
 2768SOL    MW411120   1.562   3.114   4.136  0.0942 -0.1357  0.0095
 2769SOL     OW11121   4.288   3.107   4.148  0.5303  0.1825  0.1150
 2769SOL    HW211122   4.304   3.015   4.171  0.9128  0.0703 -0.5714
 2769SOL    HW311123   4.287   3.107   4.052 -0.2608  0.7642  0.1215
 2769SOL    MW411124   4.290   3.095   4.138  0.4764  0.2444  0.0257
 2770SOL     OW11125   3.365   2.810   4.501 -0.3038 -0.2534 -0.0171
 2770SOL    HW211126   3.422   2.733   4.502  0.7698  0.5342 -0.1744
 2770SOL    HW311127   3.361   2.836   4.408  0.6595  0.8469  0.2393
 2770SOL    MW411128   3.372   2.803   4.489 -0.0350 -0.0045 -0.0043
 2771SOL     OW11129   1.818   0.919   4.537  0.5313 -0.7824  0.1753
 2771SOL    HW211130   1.910   0.945   4.535  0.1091  0.7020 -1.1805
 2771SOL    HW311131   1.804   0.874   4.454  0.2196 -1.6918  0.7148
 2771SOL    MW411132   1.828   0.917   4.526  0.4345 -0.7066  0.0677
 2772SOL     OW11133   2.833   0.758   4.089 -0.0971 -0.1474 -0.3631
 2772SOL    HW211134   2.847   0.721   4.001  0.1214 -0.7143 -0.0930
 2772SOL    HW311135   2.918   0.796   4.112 -0.2616  0.3355 -0.5537
 2772SOL    MW411136   2.846   0.758   4.080 -0.0899 -0.1585 -0.3529
 2773SOL     OW11137   0.300   1.339   4.497 -0.2083 -0.5021  0.1386
 2773SOL    HW211138   0.372   1.284   4.529  1.0869  0.8880 -0.3675
 2773SOL    HW311139   0.280   1.304   4.410  0.6593 -0.1208 -0.2119
 2773SOL    MW411140   0.307   1.327   4.490  0.0770 -0.2683  0.0257
 2774SOL     OW11141   1.119   1.773   4.610 -0.2772 -0.4206  0.6122
 2774SOL    HW211142   1.029   1.767   4.580 -0.2369  0.4685  0.2817
 2774SOL    HW311143   1.149   1.858   4.578  1.2331 -1.4557 -0.7658
 2774SOL    MW411144   1.111   1.784   4.602 -0.0725 -0.4399  0.3867
 2775SOL     OW11145   0.240   3.492   4.515 -0.1402  0.3836 -0.4457
 2775SOL    HW211146   0.321   3.444   4.533 -1.0307 -0.4795  1.4510
 2775SOL    HW311147   0.227   3.547   4.592 -0.6900  1.4664 -1.2979
 2775SOL    MW411148   0.249   3.493   4.528 -0.3302  0.4127 -0.3080
 2776SOL     OW11149   4.241   3.666   4.593 -0.5344 -0.2147  0.1452
 2776SOL    HW211150   4.273   3.583   4.630  1.5661  1.0766  1.2985
 2776SOL    HW311151   4.251   3.655   4.498  2.2038 -0.3414  0.4170
 2776SOL    MW411152   4.247   3.653   4.585  0.1040 -0.0610  0.3338
 2777SOL     OW11153   3.353   3.662   4.226  0.4692 -0.0500  0.3258
 2777SOL    HW211154   3.441   3.622   4.228  0.5028  0.0783  3.5137
 2777SOL    HW311155   3.370   3.756   4.218  0.5726 -0.1228 -0.3595
 2777SOL    MW411156   3.367   3.669   4.225  0.4876 -0.0427  0.6557
 2778SOL     OW11157   4.080   3.497   4.166 -0.3703 -0.0687  0.1318
 2778SOL    HW211158   4.003   3.547   4.192 -0.2479 -0.2103  0.7863
 2778SOL    HW311159   4.151   3.536   4.217 -0.0662 -0.1418 -0.2341
 2778SOL    MW411160   4.080   3.509   4.176 -0.3142 -0.0970  0.1698
 2779SOL     OW11161   2.018   1.320   4.571  0.0026  0.3070 -0.0735
 2779SOL    HW211162   2.007   1.305   4.477  1.5535 -1.2078 -0.0362
 2779SOL    HW311163   2.104   1.361   4.578 -0.4061  1.0643  0.6383
 2779SOL    MW411164   2.028   1.324   4.559  0.1531  0.2072  0.0253
 2780SOL     OW11165   0.903   0.323   4.168 -0.1209  0.4436  0.1038
 2780SOL    HW211166   0.824   0.364   4.204  0.2482  1.2380  0.0117
 2780SOL    HW311167   0.903   0.235   4.205  0.0062  1.0863  1.6682
 2780SOL    MW411168   0.892   0.317   4.177 -0.0554  0.6332  0.2985
 2781SOL     OW11169   0.249   1.522   4.108 -0.2802  0.3679 -0.5266
 2781SOL    HW211170   0.250   1.438   4.153  1.1026  0.3464 -0.5845
 2781SOL    HW311171   0.319   1.573   4.149 -1.2916  1.5940 -0.3019
 2781SOL    MW411172   0.259   1.518   4.119 -0.2312  0.5269 -0.5040
 2782SOL     OW11173   4.385   4.323   4.554  0.0374 -0.0469  0.4295
 2782SOL    HW211174   4.428   4.239   4.547 -0.5034 -0.2711 -0.2422
 2782SOL    HW311175   4.348   4.339   4.468  1.2691  1.5001  0.1597
 2782SOL    MW411176   4.385   4.314   4.542  0.1283  0.1278  0.3057
 2783SOL     OW11177   2.114   2.918   4.548  0.1158 -0.7912 -0.4074
 2783SOL    HW211178   2.197   2.871   4.553 -0.5452 -2.1136 -1.5934
 2783SOL    HW311179   2.082   2.902   4.459 -1.1539  0.1566 -0.1424
 2783SOL    MW411180   2.120   2.910   4.537 -0.1388 -0.8407 -0.5283
 2784SOL     OW11181   4.481   0.399   4.766 -0.8163 -0.2423  0.1456
 2784SOL    HW211182   4.566   0.362   4.743  0.1255  1.0480  1.4927
 2784SOL    HW311183   4.419   0.350   4.712  0.8959 -0.2024 -1.9268
 2784SOL    MW411184   4.484   0.388   4.756 -0.4668 -0.0668  0.0505
 2785SOL     OW11185   2.258   3.201   4.236  0.0287 -0.0196 -0.1110
 2785SOL    HW211186   2.175   3.163   4.208  0.4725 -1.0218 -0.0747
 2785SOL    HW311187   2.253   3.201   4.332 -0.9424  2.1984 -0.1276
 2785SOL    MW411188   2.246   3.196   4.245 -0.0412  0.1411 -0.1087
 2786SOL     OW11189   2.251   1.909   4.134 -0.4984 -0.4148  0.3378
 2786SOL    HW211190   2.342   1.939   4.136 -0.8147  0.5279  0.5875
 2786SOL    HW311191   2.232   1.898   4.041 -0.0538 -0.8762  0.2911
 2786SOL    MW411192   2.261   1.911   4.122 -0.4814 -0.3513  0.3643
 2787SOL     OW11193   2.905   3.540   4.578 -0.0440  0.2656 -0.0098
 2787SOL    HW211194   2.963   3.601   4.623  0.4365  0.2022 -0.5306
 2787SOL    HW311195   2.956   3.458   4.573 -0.6131 -0.1181  0.5269
 2787SOL    MW411196   2.920   3.537   4.583 -0.0558  0.2062 -0.0076
 2788SOL     OW11197   2.698   2.762   4.145 -0.2957 -0.1316  0.2188
 2788SOL    HW211198   2.625   2.783   4.203 -0.8287  0.4809 -0.6606
 2788SOL    HW311199   2.770   2.816   4.178 -0.3351 -0.4985  0.8948
 2788SOL    MW411200   2.698   2.772   4.157 -0.3712 -0.0992  0.1917
 2789SOL     OW11201   3.271   4.663   4.618 -0.2662  0.1718  0.0764
 2789SOL    HW211202   3.362   4.672   4.589 -0.0564 -1.3879  0.1762
 2789SOL    HW311203   3.276   4.671   4.713  0.0297 -1.6887  0.2318
 2789SOL    MW411204   3.284   4.665   4.626 -0.1996 -0.2794  0.1097
 2790SOL     OW11205   3.300   4.116   4.575  0.0683  0.1538 -0.5123
 2790SOL    HW211206   3.298   4.210   4.556  0.7991  0.4633  0.8613
 2790SOL    HW311207   3.393   4.095   4.583 -0.1027 -0.6273 -0.5220
 2790SOL    MW411208   3.312   4.126   4.573  0.1423  0.0920 -0.3324
 2791SOL     OW11209   0.911   3.222   4.266 -0.4637  0.2021  0.0928
 2791SOL    HW211210   0.841   3.172   4.224  0.0537 -0.5793  0.1488
 2791SOL    HW311211   0.898   3.311   4.235 -2.2865  0.3187  1.1405
 2791SOL    MW411212   0.900   3.227   4.256 -0.6359  0.1144  0.2384
 2792SOL     OW11213   3.895   2.115   4.533 -0.9571 -0.0158  0.1926
 2792SOL    HW211214   3.837   2.166   4.590 -0.3060 -0.4408  1.2480
 2792SOL    HW311215   3.883   2.025   4.562  0.4431 -0.0787  0.5983
 2792SOL    MW411216   3.885   2.110   4.544 -0.6864 -0.0806  0.3853
 2793SOL     OW11217   1.297   3.891   4.471 -0.0657 -0.1635  0.0477
 2793SOL    HW211218   1.251   3.813   4.441  0.0282 -0.2357  0.0934
 2793SOL    HW311219   1.314   3.941   4.391 -0.0153 -0.2486  0.0053
 2793SOL    MW411220   1.293   3.887   4.457 -0.0467 -0.1843  0.0482
 2794SOL     OW11221   1.587   1.563   3.891  0.0081 -0.4384  0.6878
 2794SOL    HW211222   1.575   1.546   3.984  0.2219  1.8521  1.1479
 2794SOL    HW311223   1.501   1.591   3.860  0.5073  1.2383  0.7588
 2794SOL    MW411224   1.574   1.564   3.899  0.1020  0.0851  0.7577
 2795SOL     OW11225   3.978   0.336   4.220 -0.1130 -0.4395 -0.1249
 2795SOL    HW211226   4.049   0.396   4.246  0.7724 -0.8918 -1.4439
 2795SOL    HW311227   4.004   0.252   4.257 -0.2252 -0.4936 -0.1711
 2795SOL    MW411228   3.991   0.333   4.228 -0.0110 -0.5063 -0.3047
 2796SOL     OW11229   4.269   3.602   4.328 -0.0413 -0.4937 -0.2429
 2796SOL    HW211230   4.350   3.569   4.290  1.0261  1.0216  0.6540
 2796SOL    HW311231   4.257   3.689   4.288  0.2142  0.4167  1.6020
 2796SOL    MW411232   4.278   3.609   4.318  0.1326 -0.1738  0.1192
 2797SOL     OW11233   0.723   2.580   4.757 -0.1559 -0.2001 -0.1319
 2797SOL    HW211234   0.642   2.627   4.738 -0.4176 -0.5072  0.2040
 2797SOL    HW311235   0.776   2.589   4.678 -0.8035 -0.5903 -0.6056
 2797SOL    MW411236   0.720   2.587   4.744 -0.2760 -0.2921 -0.1497
 2798SOL     OW11237   3.819   0.035   4.568  0.2933  0.0686 -0.1587
 2798SOL    HW211238   3.866  -0.022   4.629 -1.2465 -0.2631  0.7466
 2798SOL    HW311239   3.870   0.031   4.487  0.5181 -2.1862  0.0646
 2798SOL    MW411240   3.832   0.027   4.565  0.1197 -0.2727 -0.0100
 2799SOL     OW11241   3.924   0.933   4.531 -0.1264  0.3213 -0.0801
 2799SOL    HW211242   3.836   0.915   4.499 -0.5390  1.4465  0.4047
 2799SOL    HW311243   3.930   1.028   4.534  0.3656  0.2518  1.8873
 2799SOL    MW411244   3.913   0.943   4.528 -0.1159  0.4605  0.2432
 2800SOL     OW11245   1.569   0.043   4.508  0.0262  0.2685  0.0763
 2800SOL    HW211246   1.570   0.120   4.565  0.2699 -0.2736  0.8203
 2800SOL    HW311247   1.627   0.065   4.436 -1.5838  1.6010 -0.8181
 2800SOL    MW411248   1.577   0.056   4.506 -0.1540  0.3728  0.0563
 2801SOL     OW11249   4.334   1.407   4.502 -0.1051 -0.6501 -0.2841
 2801SOL    HW211250   4.385   1.487   4.508 -0.2359 -0.4895 -1.2557
 2801SOL    HW311251   4.399   1.337   4.511 -0.1008 -0.4497  1.4253
 2801SOL    MW411252   4.350   1.408   4.504 -0.1216 -0.6024 -0.1869
 2802SOL     OW11253   3.113   0.151   4.261  0.4796  0.3868  0.0890
 2802SOL    HW211254   3.102   0.141   4.356  1.3956 -1.3181  0.0482
 2802SOL    HW311255   3.102   0.244   4.245  0.0390  0.6582  1.8421
 2802SOL    MW411256   3.110   0.162   4.271  0.5424  0.1977  0.3147
 2803SOL     OW11257   0.420   0.133   4.529  0.1713  0.0779 -0.4411
 2803SOL    HW211258   0.417   0.128   4.433  0.9122 -1.4256 -0.3953
 2803SOL    HW311259   0.468   0.055   4.556 -0.9149 -0.0392  1.2226
 2803SOL    MW411260   0.426   0.122   4.520  0.1257 -0.1359 -0.2155
 2804SOL     OW11261   0.430   4.225   4.124  0.2087  0.2031 -0.1677
 2804SOL    HW211262   0.505   4.278   4.151 -0.1141  0.5254  0.1071
 2804SOL    HW311263   0.429   4.232   4.028 -1.5816  3.1616 -0.0168
 2804SOL    MW411264   0.440   4.233   4.114 -0.0701  0.6361 -0.1116
 2805SOL     OW11265   2.308   3.367   4.715  0.1866  0.1613  0.1109
 2805SOL    HW211266   2.254   3.446   4.716  0.7149  0.5720 -1.4556
 2805SOL    HW311267   2.396   3.399   4.696  0.4992 -0.7634 -0.0195
 2805SOL    MW411268   2.313   3.381   4.713  0.2978  0.0935 -0.1135
 2806SOL     OW11269   3.859   3.671   4.233 -0.2989  0.6618  0.4559
 2806SOL    HW211270   3.770   3.647   4.206 -0.2385  0.4898  0.4064
 2806SOL    HW311271   3.858   3.662   4.328 -0.2262  0.2787  0.4241
 2806SOL    MW411272   3.847   3.666   4.242 -0.2809  0.5887  0.4454
 2807SOL     OW11273   0.485   1.165   4.590 -0.1409  0.3542  0.3559
 2807SOL    HW211274   0.502   1.169   4.684 -1.1613  1.5322  0.5137
 2807SOL    HW311275   0.467   1.073   4.572  0.4776  0.0543  1.2298
 2807SOL    MW411276   0.485   1.154   4.600 -0.1939  0.4699  0.4916
 2808SOL     OW11277   2.322   1.650   4.458  0.1348 -0.1156  0.1067
 2808SOL    HW211278   2.262   1.716   4.491  0.4351 -0.0852  0.6017
 2808SOL    HW311279   2.285   1.623   4.374 -0.6032 -0.1483  0.4419
 2808SOL    MW411280   2.309   1.655   4.451  0.0772 -0.1159  0.2165
 2809SOL     OW11281   2.451   2.500   4.528 -0.3092  0.0863 -0.4440
 2809SOL    HW211282   2.536   2.492   4.485  0.2095  0.5590  0.4727
 2809SOL    HW311283   2.387   2.497   4.457  0.4984  0.2150 -1.1807
 2809SOL    MW411284   2.453   2.498   4.513 -0.1340  0.1655 -0.4206
 2810SOL     OW11285   1.037   3.968   4.580  0.1443 -0.2058 -0.1244
 2810SOL    HW211286   1.116   3.937   4.538  1.1627  0.7816  1.0186
 2810SOL    HW311287   1.060   4.054   4.616 -0.9623 -0.5716  1.5640
 2810SOL    MW411288   1.050   3.976   4.579  0.1326 -0.1237  0.2494
 2811SOL     OW11289   4.293   2.317   4.154 -0.4394 -0.2271 -0.1882
 2811SOL    HW211290   4.361   2.378   4.182  0.3715 -0.8392 -0.7974
 2811SOL    HW311291   4.210   2.363   4.170  0.1056  0.3842  0.8813
 2811SOL    MW411292   4.291   2.331   4.160 -0.2604 -0.2270 -0.1278
 2812SOL     OW11293   0.524   2.764   4.677 -0.4030 -0.3178  0.5688
 2812SOL    HW211294   0.456   2.831   4.664  0.3868  0.6731  1.4421
 2812SOL    HW311295   0.601   2.799   4.632 -0.6528 -1.7691 -1.0285
 2812SOL    MW411296   0.525   2.778   4.669 -0.3318 -0.3784  0.4735
 2813SOL     OW11297   3.859   1.281   4.221 -0.0642 -0.2835 -0.0317
 2813SOL    HW211298   3.895   1.271   4.309 -1.7878 -0.5765  0.6618
 2813SOL    HW311299   3.924   1.240   4.164  0.0388 -2.1078  1.3330
 2813SOL    MW411300   3.872   1.274   4.225 -0.2780 -0.5629  0.2403
 2814SOL     OW11301   3.592   3.773   4.559 -0.1400  0.1992 -0.1817
 2814SOL    HW211302   3.679   3.735   4.544  0.0813  0.1434  1.2182
 2814SOL    HW311303   3.610   3.865   4.580 -0.4850  0.4015 -0.7584
 2814SOL    MW411304   3.606   3.780   4.560 -0.1564  0.2186 -0.0730
 2815SOL     OW11305   1.063   1.460   4.659 -0.3537 -0.1615 -0.2164
 2815SOL    HW211306   0.969   1.464   4.676  0.0711  0.2215  2.2780
 2815SOL    HW311307   1.090   1.552   4.649 -0.2403 -0.2657 -0.8642
 2815SOL    MW411308   1.054   1.473   4.660 -0.2828 -0.1246  0.0277
 2816SOL     OW11309   0.699   2.907   4.476 -0.3395  0.7628 -0.8208
 2816SOL    HW211310   0.790   2.883   4.460  0.0105  0.5598  1.2752
 2816SOL    HW311311   0.700   3.003   4.482 -0.3567  0.7942 -1.3082
 2816SOL    MW411312   0.711   2.917   4.475 -0.2955  0.7401 -0.6084
 2817SOL     OW11313   1.517   4.414   4.509  0.3119  0.0321 -0.2105
 2817SOL    HW211314   1.584   4.369   4.559  0.8673  1.1870  0.1115
 2817SOL    HW311315   1.542   4.507   4.514 -0.8562  0.3844 -0.7593
 2817SOL    MW411316   1.529   4.420   4.516  0.2310  0.2308 -0.2403
 2818SOL     OW11317   3.146   2.758   4.674 -0.4203 -0.2042 -0.2352
 2818SOL    HW211318   3.205   2.723   4.607  0.3160  1.7113 -0.6281
 2818SOL    HW311319   3.203   2.812   4.729 -1.1740 -1.1021  1.4460
 2818SOL    MW411320   3.162   2.761   4.672 -0.4222 -0.0699 -0.0648
 2819SOL     OW11321   4.255   3.844   4.207 -0.3248  0.0890 -0.0620
 2819SOL    HW211322   4.174   3.895   4.210 -0.1696  0.2899  0.9882
 2819SOL    HW311323   4.278   3.841   4.114 -2.6930 -1.8115 -0.6364
 2819SOL    MW411324   4.248   3.851   4.195 -0.6166 -0.1352  0.0010
 2820SOL     OW11325   4.277   4.351   4.285  0.1229 -0.1414 -0.0945
 2820SOL    HW211326   4.347   4.300   4.245  0.4926  0.4880 -0.2526
 2820SOL    HW311327   4.196   4.316   4.246  0.4508  0.2157 -1.1210
 2820SOL    MW411328   4.275   4.340   4.274  0.2146 -0.0114 -0.2508
 2821SOL     OW11329   0.902   1.947   4.163  0.2485 -0.1209  0.1502
 2821SOL    HW211330   0.899   1.852   4.177  1.4122 -0.1605  0.1563
 2821SOL    HW311331   0.898   1.958   4.068  0.8841 -0.2061  0.1144
 2821SOL    MW411332   0.901   1.936   4.152  0.4859 -0.1373  0.1464
 2822SOL     OW11333   2.940   3.079   4.650 -0.0856 -0.1572  0.3731
 2822SOL    HW211334   2.927   3.002   4.596 -0.0407 -1.2035  1.8195
 2822SOL    HW311335   2.865   3.136   4.631  0.5697  0.0459 -1.6708
 2822SOL    MW411336   2.928   3.077   4.641  0.0069 -0.2682  0.2947
 2823SOL     OW11337   3.346   3.645   4.506 -0.2035 -0.0498 -0.2061
 2823SOL    HW211338   3.349   3.674   4.415  0.3964  0.2494 -0.0902
 2823SOL    HW311339   3.427   3.677   4.544 -0.7963  0.4619  0.6302
 2823SOL    MW411340   3.357   3.653   4.499 -0.2027  0.0570 -0.0806
 2824SOL     OW11341   0.361   2.735   4.162 -0.1355 -0.1701  0.4596
 2824SOL    HW211342   0.315   2.776   4.236  0.4111  0.4168  0.4723
 2824SOL    HW311343   0.451   2.767   4.169  0.1638 -0.9223  0.1362
 2824SOL    MW411344   0.367   2.744   4.173 -0.0240 -0.1919  0.4187
 2825SOL     OW11345   4.030   1.687   4.517  0.4895 -0.1641 -0.5399
 2825SOL    HW211346   3.954   1.745   4.516  1.6918  1.4678 -1.8404
 2825SOL    HW311347   4.051   1.674   4.424  1.5155 -0.9659 -0.2100
 2825SOL    MW411348   4.023   1.693   4.504  0.7834 -0.0545 -0.6671
 2826SOL     OW11349   3.181   1.818   4.127  0.2154  0.3022  0.1222
 2826SOL    HW211350   3.250   1.868   4.169 -0.9107  0.2057  2.1701
 2826SOL    HW311351   3.215   1.729   4.121  0.4021  0.3309  0.7843
 2826SOL    MW411352   3.194   1.813   4.132  0.0916  0.2933  0.4802
 2827SOL     OW11353   3.576   4.071   4.543  0.1488  0.0548 -0.0142
 2827SOL    HW211354   3.579   4.051   4.449  1.5277  1.0250 -0.1912
 2827SOL    HW311355   3.640   4.141   4.554  1.8953 -1.7969  2.0634
 2827SOL    MW411356   3.585   4.077   4.532  0.5610 -0.0615  0.2365
 2828SOL     OW11357   0.240   2.330   4.107  0.2629  0.1300 -0.1179
 2828SOL    HW211358   0.241   2.241   4.143 -1.4498  0.1112 -0.0668
 2828SOL    HW311359   0.296   2.381   4.166  0.9019 -0.8053  0.1005
 2828SOL    MW411360   0.248   2.325   4.119  0.1212  0.0043 -0.0820
 2829SOL     OW11361   1.769   2.443   4.342 -0.0390  0.2199  0.3503
 2829SOL    HW211362   1.771   2.472   4.433  0.7221  0.0878  0.3848
 2829SOL    HW311363   1.860   2.421   4.323 -0.5670 -2.0401  0.3070
 2829SOL    MW411364   1.781   2.444   4.352 -0.0085 -0.0956  0.3495
 2830SOL     OW11365   4.251   0.808   4.177 -0.7337 -0.0835  0.5054
 2830SOL    HW211366   4.263   0.799   4.083 -0.7145 -1.3021  0.6128
 2830SOL    HW311367   4.333   0.847   4.209  0.4344 -2.3623  0.3914
 2830SOL    MW411368   4.263   0.812   4.169 -0.5774 -0.5450  0.5045
 2831SOL     OW11369   0.446   3.618   4.767 -0.1660 -0.2253  0.6094
 2831SOL    HW211370   0.493   3.701   4.772 -0.6412  0.0792  0.1869
 2831SOL    HW311371   0.355   3.644   4.748  0.1194 -0.9397 -1.8372
 2831SOL    MW411372   0.440   3.632   4.765 -0.1910 -0.2794  0.2313
 2832SOL     OW11373   2.699   1.102   4.151  0.3821 -0.1692  0.1063
 2832SOL    HW211374   2.726   1.088   4.060  3.4749 -0.3602  1.0089
 2832SOL    HW311375   2.681   1.014   4.185  0.3422 -0.1982  0.0100
 2832SOL    MW411376   2.700   1.089   4.143  0.7851 -0.1982  0.2127
 2833SOL     OW11377   0.854   1.021   4.598  0.2971 -0.1812  0.0308
 2833SOL    HW211378   0.949   1.014   4.592  0.4283  1.0432  0.7165
 2833SOL    HW311379   0.831   1.092   4.539 -0.1869 -0.3577  0.0015
 2833SOL    MW411380   0.864   1.029   4.589  0.2505 -0.0430  0.1178
 2834SOL     OW11381   1.378   0.873   4.264  0.1076 -0.0447  0.4317
 2834SOL    HW211382   1.368   0.965   4.239 -0.6605 -0.1123  0.4921
 2834SOL    HW311383   1.408   0.876   4.355 -2.7015  0.1108  1.3906
 2834SOL    MW411384   1.381   0.885   4.273 -0.3644 -0.0331  0.5660
 2835SOL     OW11385   2.070   0.755   3.878  0.2611  0.2102  0.5692
 2835SOL    HW211386   2.061   0.753   3.973 -0.4949  0.1324  0.5013
 2835SOL    HW311387   2.053   0.665   3.850  0.4275  0.2439  0.3564
 2835SOL    MW411388   2.067   0.743   3.887  0.1833  0.2044  0.5322
 2836SOL     OW11389   0.568   3.050   4.776 -0.0388 -0.4425 -0.3481
 2836SOL    HW211390   0.621   2.973   4.800  0.3237  0.0498  0.4249
 2836SOL    HW311391   0.631   3.122   4.772 -0.5446  0.0095 -0.1245
 2836SOL    MW411392   0.583   3.049   4.778 -0.0577 -0.3176 -0.2165
 2837SOL     OW11393   0.653   3.635   4.219  0.1858  0.5547  0.4207
 2837SOL    HW211394   0.573   3.588   4.195 -0.3840  1.0303  1.3576
 2837SOL    HW311395   0.724   3.576   4.194 -0.4570  0.0668 -0.2787
 2837SOL    MW411396   0.652   3.621   4.212  0.0257  0.5529  0.4520
 2838SOL     OW11397   3.829   2.326   4.167 -0.5298  0.3009  0.0854
 2838SOL    HW211398   3.825   2.325   4.071  1.1790  2.1797 -0.0312
 2838SOL    HW311399   3.813   2.236   4.192 -1.3456 -0.1621 -1.9617
 2838SOL    MW411400   3.826   2.314   4.157 -0.4122  0.4871 -0.2003
 2839SOL     OW11401   2.554   0.466   4.832  0.2273 -0.0583 -0.3472
 2839SOL    HW211402   2.537   0.559   4.813  0.4724 -0.2416 -1.4712
 2839SOL    HW311403   2.495   0.418   4.774  1.1190 -0.6314 -0.7772
 2839SOL    MW411404   2.544   0.472   4.822  0.3774 -0.1580 -0.5527
 2840SOL     OW11405   0.222   4.352   4.265 -0.4311  0.1931 -0.1083
 2840SOL    HW211406   0.141   4.315   4.230 -0.3684 -0.7012  0.6845
 2840SOL    HW311407   0.292   4.315   4.210 -0.5497  0.9156 -0.7533
 2840SOL    MW411408   0.221   4.342   4.253 -0.4385  0.1698 -0.0887
 2841SOL     OW11409   1.562   4.411   4.228 -0.3373 -0.0314 -0.5709
 2841SOL    HW211410   1.634   4.353   4.204 -0.0558  0.6825 -1.4910
 2841SOL    HW311411   1.561   4.410   4.323 -0.0590 -1.2004 -0.5727
 2841SOL    MW411412   1.572   4.404   4.237 -0.2635 -0.0925 -0.6919
 2842SOL     OW11413   3.614   1.137   4.147 -0.2017 -0.1917 -0.1373
 2842SOL    HW211414   3.683   1.194   4.182 -0.2160 -0.0433 -0.3528
 2842SOL    HW311415   3.622   1.145   4.052  1.2322 -2.2721 -0.2082
 2842SOL    MW411416   3.624   1.146   4.139 -0.0143 -0.4466 -0.1760
 2843SOL     OW11417   0.191   1.812   4.614 -0.2292 -0.2108 -0.2389
 2843SOL    HW211418   0.122   1.768   4.566  0.3896 -0.4253 -0.9530
 2843SOL    HW311419   0.210   1.890   4.562 -0.3293  0.1419  0.2537
 2843SOL    MW411420   0.185   1.817   4.601 -0.1607 -0.1924 -0.2680
 2844SOL     OW11421   3.075   0.416   4.617 -0.2647  0.6035 -0.2377
 2844SOL    HW211422   3.093   0.406   4.710 -1.8286  0.7136  0.0883
 2844SOL    HW311423   3.158   0.447   4.580  0.1803  1.2129  1.2203
 2844SOL    MW411424   3.088   0.419   4.624 -0.4125  0.6984 -0.0024
 2845SOL     OW11425   2.958   1.788   4.303 -0.3033  0.0992  0.0496
 2845SOL    HW211426   3.031   1.807   4.244  0.2401 -0.9836  0.3464
 2845SOL    HW311427   3.000   1.774   4.388 -0.7574 -1.3441  0.0554
 2845SOL    MW411428   2.973   1.789   4.307 -0.2913 -0.2340  0.0896
 2846SOL     OW11429   1.614   1.291   3.809  0.0919 -0.3980  0.1881
 2846SOL    HW211430   1.610   1.384   3.831 -0.7641 -0.2881 -0.4098
 2846SOL    HW311431   1.700   1.262   3.841  0.6427  0.7525 -0.2200
 2846SOL    MW411432   1.625   1.299   3.816  0.0517 -0.2317  0.0553
 2847SOL     OW11433   0.656   0.412   4.272  0.3535  0.0662  0.1117
 2847SOL    HW211434   0.666   0.506   4.255  0.9752 -0.4347 -2.4793
 2847SOL    HW311435   0.585   0.385   4.214  1.1430 -1.3291 -0.2191
 2847SOL    MW411436   0.648   0.421   4.262  0.5397 -0.1840 -0.2732
 2848SOL     OW11437   2.047   2.356   4.613 -0.7047  0.3800  0.4478
 2848SOL    HW211438   2.101   2.293   4.565 -2.6256  0.0603 -1.3540
 2848SOL    HW311439   2.017   2.307   4.689  1.1309  0.4254  1.2476
 2848SOL    MW411440   2.051   2.341   4.617 -0.7160  0.3438  0.3161
 2849SOL     OW11441   2.905   4.658   4.151 -0.4431 -0.6519 -0.1554
 2849SOL    HW211442   2.956   4.724   4.197  0.3507 -1.6341  0.3784
 2849SOL    HW311443   2.814   4.681   4.170 -0.1573 -0.1622  0.6434
 2849SOL    MW411444   2.899   4.670   4.159 -0.3006 -0.7167  0.0200
 2850SOL     OW11445   1.328   2.430   4.197 -0.0926  0.1226  0.0275
 2850SOL    HW211446   1.246   2.385   4.177  0.4557 -0.3855 -1.1068
 2850SOL    HW311447   1.320   2.453   4.289 -0.1678 -2.7545  0.7776
 2850SOL    MW411448   1.316   2.427   4.206 -0.0302 -0.3240 -0.0238
 2851SOL     OW11449   1.237   4.429   4.521  0.1224  0.0780  0.8164
 2851SOL    HW211450   1.229   4.521   4.546 -0.5068  0.1239  0.4384
 2851SOL    HW311451   1.332   4.413   4.522  0.2467  0.7698  0.7408
 2851SOL    MW411452   1.249   4.439   4.524  0.0557  0.1750  0.7567
 2852SOL     OW11453   1.742   1.705   4.252  0.1899  0.2640  0.1336
 2852SOL    HW211454   1.824   1.657   4.250  0.2691  0.3558  1.1762
 2852SOL    HW311455   1.764   1.792   4.219  0.0656 -0.3578 -1.6610
 2852SOL    MW411456   1.756   1.710   4.247  0.1839  0.1941  0.0339
 2853SOL     OW11457   2.012   3.392   4.457  0.1082  0.4626  0.1257
 2853SOL    HW211458   1.930   3.352   4.485 -0.6514 -0.1155 -2.8314
 2853SOL    HW311459   2.079   3.326   4.475 -0.2615  0.3213  1.0384
 2853SOL    MW411460   2.010   3.378   4.463 -0.0408  0.3676 -0.1435
 2854SOL     OW11461   3.530   0.691   4.636 -0.1612 -0.3268 -0.0341
 2854SOL    HW211462   3.547   0.773   4.591 -0.4411 -0.1085  0.2594
 2854SOL    HW311463   3.605   0.636   4.615  0.5255  0.3591  0.5996
 2854SOL    MW411464   3.542   0.694   4.627 -0.1078 -0.2075  0.0877
 2855SOL     OW11465   1.086   3.686   4.131  0.1142  0.5648  0.1516
 2855SOL    HW211466   1.085   3.776   4.099  1.7554  0.6774  0.3623
 2855SOL    HW311467   1.103   3.694   4.225  0.5764  0.0340  0.1186
 2855SOL    MW411468   1.088   3.699   4.139  0.3918  0.5095  0.1750
 2856SOL     OW11469   4.115   2.747   4.821 -0.1324  0.1290 -0.6932
 2856SOL    HW211470   4.166   2.690   4.878 -1.8529 -0.9390 -0.1544
 2856SOL    HW311471   4.106   2.698   4.739  0.4468  0.6904 -1.0953
 2856SOL    MW411472   4.120   2.733   4.818 -0.2832  0.0620 -0.6747
 2857SOL     OW11473   0.641   4.408   4.208 -0.1283  0.2450 -0.7133
 2857SOL    HW211474   0.668   4.492   4.169 -0.3782  1.1637  1.0738
 2857SOL    HW311475   0.724   4.364   4.229  0.0600  1.8997  2.2629
 2857SOL    MW411476   0.656   4.413   4.205 -0.1364  0.5851 -0.0844
 2858SOL     OW11477   3.649   2.767   4.139 -0.2862 -0.3544  0.1079
 2858SOL    HW211478   3.648   2.682   4.183  1.1123 -1.1277 -1.2922
 2858SOL    HW311479   3.639   2.746   4.046  0.1522  1.0039 -0.2580
 2858SOL    MW411480   3.648   2.753   4.133 -0.0436 -0.2773 -0.1249
 2859SOL     OW11481   1.124   3.087   4.151  0.1530  0.8097  0.8085
 2859SOL    HW211482   1.048   3.140   4.175  0.8976  2.2172  0.1108
 2859SOL    HW311483   1.122   3.085   4.055  0.7985  0.5472  0.7989
 2859SOL    MW411484   1.114   3.094   4.141  0.3364  0.9603  0.7153
 2860SOL     OW11485   0.636   3.451   4.639 -0.2449  0.0616  0.0872
 2860SOL    HW211486   0.575   3.492   4.701 -0.3675 -1.6757  1.1274
 2860SOL    HW311487   0.720   3.450   4.684  0.1300  0.6277 -0.5750
 2860SOL    MW411488   0.639   3.457   4.653 -0.2116 -0.0927  0.1369
 2861SOL     OW11489   2.309   1.183   4.438 -0.0538 -0.7171 -0.3365
 2861SOL    HW211490   2.364   1.196   4.360  0.0523 -1.2430 -0.3554
 2861SOL    HW311491   2.305   1.269   4.480  1.0573 -0.7412 -0.1630
 2861SOL    MW411492   2.316   1.196   4.433  0.1068 -0.7895 -0.3166
 2862SOL     OW11493   3.035   0.720   4.905  0.6858 -0.3447 -0.2031
 2862SOL    HW211494   3.054   0.768   4.986 -0.0158 -1.9734  0.9734
 2862SOL    HW311495   3.116   0.724   4.855  1.4776 -0.2066  1.0619
 2862SOL    MW411496   3.048   0.726   4.909  0.6976 -0.5414  0.1192
 2863SOL     OW11497   2.257   3.465   4.133  0.1577 -0.5191 -0.2074
 2863SOL    HW211498   2.267   3.382   4.180 -2.1564 -1.1288 -0.7461
 2863SOL    HW311499   2.167   3.493   4.151  1.0025  2.0619  0.2285
 2863SOL    MW411500   2.247   3.458   4.141 -0.0362 -0.2589 -0.2213
 2864SOL     OW11501   4.212   0.514   4.260  0.4345 -0.2817  0.3371
 2864SOL    HW211502   4.215   0.535   4.353  0.1507 -1.0071  0.5207
 2864SOL    HW311503   4.223   0.597   4.215  2.4478 -0.1633  1.0104
 2864SOL    MW411504   4.214   0.528   4.267  0.6623 -0.3619  0.4501
 2865SOL     OW11505   1.343   3.562   4.558 -0.2105 -0.2317 -0.1839
 2865SOL    HW211506   1.375   3.476   4.533 -0.1747 -0.2509 -0.0753
 2865SOL    HW311507   1.419   3.620   4.552  0.0792 -0.4619  0.9826
 2865SOL    MW411508   1.357   3.558   4.554 -0.1675 -0.2646 -0.0157
 2866SOL     OW11509   2.649   2.470   4.111  0.1219  0.1913 -0.0214
 2866SOL    HW211510   2.598   2.429   4.041  1.1668  0.2131 -0.7988
 2866SOL    HW311511   2.668   2.558   4.078  0.7604  0.1409  0.2245
 2866SOL    MW411512   2.645   2.476   4.097  0.3440  0.1876 -0.0920
 2867SOL     OW11513   3.844   3.177   4.154  0.8612 -0.2254  0.5117
 2867SOL    HW211514   3.777   3.223   4.204 -0.4733 -2.0069  0.4396
 2867SOL    HW311515   3.927   3.208   4.190 -0.0199  0.8512  1.6700
 2867SOL    MW411516   3.846   3.187   4.165  0.5689 -0.3183  0.6547
 2868SOL     OW11517   0.017   1.679   4.207  0.0342  0.0519  0.7651
 2868SOL    HW211518   0.085   1.614   4.189  0.3491  0.5198  0.2717
 2868SOL    HW311519  -0.061   1.643   4.165  0.2164  0.0072  0.4618
 2868SOL    MW411520   0.016   1.666   4.199  0.0998  0.1078  0.6599
 2869SOL     OW11521   0.697   3.890   4.119  0.1730 -0.0465 -0.2576
 2869SOL    HW211522   0.621   3.934   4.156 -1.0892 -2.4599  0.1132
 2869SOL    HW311523   0.694   3.802   4.156  3.9490  0.1946  0.9006
 2869SOL    MW411524   0.687   3.884   4.129  0.5047 -0.3331 -0.0563
 2870SOL     OW11525   2.958   2.337   4.686  0.6314 -0.6651 -0.0997
 2870SOL    HW211526   2.909   2.290   4.754 -0.6539 -1.1995 -1.3632
 2870SOL    HW311527   3.025   2.385   4.734 -1.2980  0.2996  1.7158
 2870SOL    MW411528   2.960   2.337   4.701  0.2074 -0.6084 -0.0267
 2871SOL     OW11529   3.064   2.497   4.222  0.3123 -0.1102 -0.2124
 2871SOL    HW211530   3.016   2.437   4.164  0.9831 -0.5360 -0.3208
 2871SOL    HW311531   3.125   2.442   4.269  1.0358  0.5099 -0.4204
 2871SOL    MW411532   3.065   2.482   4.220  0.4961 -0.0844 -0.2537
 2872SOL     OW11533   0.023   0.903   4.251 -0.0680  0.3951 -0.5526
 2872SOL    HW211534   0.041   0.905   4.345  0.0965  0.6275 -0.5906
 2872SOL    HW311535   0.101   0.863   4.212  0.8433  2.3858 -0.8310
 2872SOL    MW411536   0.035   0.898   4.258  0.0739  0.6884 -0.5941
 2873SOL     OW11537   1.984   1.546   4.207  0.0876 -0.2095 -0.1050
 2873SOL    HW211538   1.980   1.543   4.111  1.1543  0.0329 -0.1525
 2873SOL    HW311539   2.072   1.577   4.227  0.0066 -0.6471  0.9634
 2873SOL    MW411540   1.995   1.549   4.197  0.2177 -0.2352  0.0305
 2874SOL     OW11541   4.319   3.408   4.654  0.0775  0.2342 -0.1421
 2874SOL    HW211542   4.401   3.383   4.610  0.0291 -0.9059  0.4002
 2874SOL    HW311543   4.256   3.343   4.625 -1.0593  2.0136 -1.7897
 2874SOL    MW411544   4.322   3.396   4.645 -0.0787  0.3185 -0.2880
 2875SOL     OW11545   1.561   3.869   4.106  0.3104  0.1889 -0.1575
 2875SOL    HW211546   1.639   3.906   4.148 -0.3459  0.3890  0.8959
 2875SOL    HW311547   1.546   3.786   4.150 -0.2320  0.2791 -0.1655
 2875SOL    MW411548   1.569   3.863   4.117  0.1523  0.2270 -0.0191
 2876SOL     OW11549   0.472   1.121   4.142  0.0096 -0.0742 -0.2884
 2876SOL    HW211550   0.464   1.123   4.047  0.1350 -0.7969 -0.3114
 2876SOL    HW311551   0.559   1.158   4.159 -0.9387  2.2550 -0.3269
 2876SOL    MW411552   0.483   1.126   4.132 -0.0990  0.1376 -0.2966
 2877SOL     OW11553   2.687   0.846   4.290 -0.1026  0.0458  0.0546
 2877SOL    HW211554   2.753   0.811   4.230  0.0503  2.2329 -1.1077
 2877SOL    HW311555   2.608   0.794   4.271  0.3365 -0.2436 -1.0190
 2877SOL    MW411556   2.685   0.835   4.280 -0.0248  0.2961 -0.2398
 2878SOL     OW11557   2.515   4.375   4.704 -0.5661 -0.0976 -0.2212
 2878SOL    HW211558   2.566   4.456   4.701 -1.7789  0.7666  1.8514
 2878SOL    HW311559   2.450   4.385   4.635 -1.1184  0.9879  0.4498
 2878SOL    MW411560   2.513   4.387   4.694 -0.7994  0.1597  0.1411
 2879SOL     OW11561   3.952   4.461   4.702  0.0605  0.1047  0.1714
 2879SOL    HW211562   3.982   4.472   4.792  0.7140 -1.2744  0.1343
 2879SOL    HW311563   4.014   4.399   4.663 -0.1398  0.7706 -1.2612
 2879SOL    MW411564   3.964   4.455   4.708  0.1204  0.0110 -0.0224
 2880SOL     OW11565   0.899   3.514   3.850  0.5686  0.2388  0.2534
 2880SOL    HW211566   0.820   3.546   3.806  0.6170  0.8130  0.5832
 2880SOL    HW311567   0.909   3.425   3.818  0.6827  0.6994 -1.0083
 2880SOL    MW411568   0.890   3.507   3.840  0.5900  0.3755  0.1302
 2881SOL     OW11569   4.072   1.424   4.609  0.0739  0.3061  0.0113
 2881SOL    HW211570   4.060   1.518   4.601 -0.9066  0.0896 -1.1574
 2881SOL    HW311571   4.165   1.410   4.588  0.2811  1.0248  0.4354
 2881SOL    MW411572   4.083   1.434   4.605 -0.0277  0.3724 -0.0868
 2882SOL     OW11573   3.312   0.509   4.280 -0.0110  0.5403  0.1776
 2882SOL    HW211574   3.331   0.513   4.373  1.7451  1.2400 -0.1902
 2882SOL    HW311575   3.381   0.453   4.243 -0.4406  0.6097 -0.7645
 2882SOL    MW411576   3.324   0.502   4.287  0.1640  0.6418  0.0043
 2883SOL     OW11577   1.381   4.270   3.855 -0.3231 -0.3733  0.2551
 2883SOL    HW211578   1.461   4.320   3.843 -0.8397  0.2763 -0.5948
 2883SOL    HW311579   1.311   4.334   3.839 -0.9903 -1.3919 -0.9800
 2883SOL    MW411580   1.382   4.285   3.851 -0.4793 -0.4215 -0.0200
 2884SOL     OW11581   2.672   1.687   3.838  0.2638 -0.0271  0.0493
 2884SOL    HW211582   2.662   1.700   3.744 -1.9418  0.9265  0.3788
 2884SOL    HW311583   2.737   1.617   3.846 -0.1113 -0.6664 -2.1887
 2884SOL    MW411584   2.679   1.679   3.827 -0.0768  0.0144 -0.2024
 2885NA      NA11585   4.059   4.025   0.694  0.0198 -0.2916  0.4457
   4.49070   4.66690  10.00000
