Gromacs Runs On Most of All Computer Systems in water
11622
    1U      O5'    1   3.022   2.433   4.632 -0.0520  0.2474 -0.6297
    1U      H5T    2   3.024   2.523   4.665 -0.3325 -0.2945  0.9301
    1U      C5'    3   2.920   2.445   4.537 -0.2115  0.5051 -0.6845
    1U     H5'1    4   2.945   2.388   4.447  1.3654  1.2810 -0.7513
    1U     H5'2    5   2.916   2.549   4.502 -1.6254  1.3376  1.8143
    1U      C4'    6   2.788   2.386   4.591  0.2287  0.0460 -0.5716
    1U      H4'    7   2.718   2.405   4.510  0.2158 -1.0673 -0.8252
    1U      O4'    8   2.792   2.244   4.601  0.0997  0.0446 -0.0594
    1U      C1'    9   2.719   2.210   4.715 -0.1649 -0.0524 -0.1043
    1U      H1'   10   2.616   2.182   4.694 -0.7877  1.5049  0.7666
    1U       N1   11   2.784   2.093   4.769  0.3283  0.3122  0.6979
    1U       C6   12   2.918   2.104   4.796  0.0625  0.5309  0.3436
    1U       H6   13   2.966   2.199   4.779 -2.2797  1.6132 -0.3417
    1U       C5   14   2.989   2.004   4.851  0.0032 -0.4589  0.0729
    1U       H5   15   3.094   2.010   4.878  0.1195 -0.1005 -0.4536
    1U       C4   16   2.929   1.873   4.863  0.6120 -0.5400  0.0786
    1U       O4   17   2.981   1.771   4.908  0.0767  0.6454 -0.2770
    1U       N3   18   2.792   1.871   4.834 -0.4882  0.5398 -0.2055
    1U       H3   19   2.749   1.781   4.851 -0.3602  0.5448  0.1454
    1U       C2   20   2.718   1.971   4.775  0.3659  0.0360 -0.1864
    1U       O2   21   2.607   1.949   4.737 -0.1703 -0.2552 -0.3130
    1U      C3'   22   2.727   2.451   4.718  0.1827 -0.0658 -0.1019
    1U      H3'   23   2.792   2.526   4.763  0.0862 -0.3808  0.5615
    1U      C2'   24   2.720   2.330   4.814  0.4055 -0.2232 -0.4790
    1U     H2'1   25   2.805   2.330   4.881 -0.8084 -0.8942  1.0983
    1U      O2'   26   2.606   2.322   4.899  0.0710  0.7656  0.1295
    1U     HO'2   27   2.534   2.348   4.842  0.1873 -0.3630 -0.5465
    1U      O3'   28   2.596   2.502   4.688 -0.2717  0.3583 -0.3055
    2RG3      P   29   2.566   2.632   4.611 -0.2312  0.3751 -0.3747
    2RG3    O1P   30   2.424   2.655   4.617  0.1271 -0.2558 -0.1494
    2RG3    O2P   31   2.632   2.628   4.481 -0.3208  0.0559 -0.2211
    2RG3    O5'   32   2.625   2.747   4.699 -0.3085  0.1390  0.3944
    2RG3    C5'   33   2.577   2.781   4.831 -0.1420  0.4993 -0.4673
    2RG3   H5'1   34   2.594   2.694   4.895 -0.6536  1.0304  0.4134
    2RG3   H5'2   35   2.472   2.807   4.818  0.1580  1.3075 -1.2904
    2RG3    C4'   36   2.646   2.908   4.891  0.1621 -0.0133 -0.8362
    2RG3    H4'   37   2.592   2.944   4.979 -0.0661  2.0187 -1.7634
    2RG3    O4'   38   2.776   2.872   4.927  0.3387 -0.0071 -0.0333
    2RG3    C1'   39   2.867   2.958   4.863 -0.0240 -0.5983  0.0661
    2RG3    H1'   40   2.903   3.032   4.934  0.0609 -1.8964  1.4002
    2RG3     N9   41   2.981   2.878   4.807  0.0139  0.2858  0.0346
    2RG3     C8   42   2.973   2.770   4.728  0.1858  0.5345  0.6582
    2RG3     H8   43   2.878   2.738   4.688 -0.3684  1.1928  1.4198
    2RG3     N7   44   3.084   2.701   4.716  0.3796 -0.0042  0.2386
    2RG3     C5   45   3.169   2.775   4.798  0.3716  0.1274 -0.9106
    2RG3     C6   46   3.306   2.755   4.826  0.6877  0.0134 -0.3829
    2RG3     O6   47   3.380   2.664   4.788 -0.3189 -0.5637  0.0726
    2RG3     N1   48   3.353   2.845   4.917  0.1637 -0.6918 -0.2066
    2RG3     H1   49   3.449   2.835   4.947  0.4607  1.2892 -0.3666
    2RG3     C2   50   3.281   2.951   4.960  0.2315 -0.1666 -0.2405
    2RG3     N2   51   3.335   3.033   5.040 -0.4544  0.4401 -0.0477
    2RG3    H21   52   3.435   3.027   5.056 -0.0330 -0.4158 -2.6493
    2RG3    H22   53   3.271   3.106   5.066 -0.4450  0.3935  0.1066
    2RG3     N3   54   3.155   2.974   4.938 -0.4706 -0.2189 -0.7219
    2RG3     C4   55   3.103   2.879   4.854  0.2300 -0.0066 -0.4546
    2RG3    C3'   56   2.648   3.018   4.791 -0.0364 -0.1555  0.3545
    2RG3    H3'   57   2.576   3.007   4.710 -1.8644  2.1312  1.6020
    2RG3    C2'   58   2.795   3.028   4.743 -0.4344 -0.3859 -0.3743
    2RG3   H2'1   59   2.802   2.965   4.654 -0.5811 -1.3143  0.2642
    2RG3    O2'   60   2.837   3.159   4.717  0.0719 -0.1667  0.6155
    2RG3   HO'2   61   2.766   3.198   4.665  1.4809  0.2633 -1.0097
    2RG3    O3'   62   2.601   3.140   4.858  0.1362  0.2473 -0.3601
    2RG3    H3T   63   2.620   3.212   4.797 -1.4318 -0.5423 -1.8179
    3RG35     P   64   2.670   3.403   4.574 -0.3099 -0.3560  0.1357
    3RG35   O1P   65   2.603   3.302   4.654 -0.5309 -0.0837  0.2667
    3RG35   O2P   66   2.582   3.497   4.505 -0.1576  0.2882 -0.1217
    3RG35   O5'   67   2.758   3.480   4.677  0.3528  0.3623 -0.0575
    3RG35   C5'   68   2.705   3.532   4.799 -0.2050 -0.7059 -0.0216
    3RG35  H5'1   69   2.680   3.444   4.858 -4.0281 -0.0099 -0.5256
    3RG35  H5'2   70   2.611   3.581   4.777  0.4353 -0.4181 -2.2278
    3RG35   C4'   71   2.809   3.619   4.877 -0.8836  0.0017  0.1891
    3RG35   H4'   72   2.760   3.656   4.967  2.3519 -0.8615  2.3547
    3RG35   O4'   73   2.917   3.540   4.920 -0.5765  0.0431  0.0368
    3RG35   C1'   74   3.039   3.592   4.863  0.1768  0.2263 -0.1928
    3RG35   H1'   75   3.084   3.654   4.941 -1.4828  1.1468  0.0647
    3RG35    N9   76   3.141   3.488   4.831  0.1381 -0.1295  0.5248
    3RG35    C8   77   3.117   3.355   4.800  0.1374  0.6931  0.4028
    3RG35    H8   78   3.014   3.325   4.798 -0.5649  3.0684 -0.4454
    3RG35    N7   79   3.223   3.281   4.774 -0.1277  0.0325 -0.4419
    3RG35    C5   80   3.325   3.365   4.809  0.7627  0.7533 -0.0056
    3RG35    C6   81   3.467   3.350   4.818 -0.0896 -0.9309 -0.1600
    3RG35    O6   82   3.526   3.246   4.811  0.7440  0.0839 -0.0819
    3RG35    N1   83   3.534   3.464   4.854 -0.0819 -0.1009  0.2157
    3RG35    H1   84   3.635   3.466   4.863  0.0609 -1.6933 -0.8671
    3RG35    C2   85   3.475   3.586   4.861  0.7374  0.4315 -0.0375
    3RG35    N2   86   3.558   3.690   4.883 -0.2150 -0.3209  0.1555
    3RG35   H21   87   3.657   3.679   4.901  0.0279  2.1231  0.4597
    3RG35   H22   88   3.515   3.779   4.903 -0.6270 -0.8454  1.6824
    3RG35    N3   89   3.346   3.605   4.858 -0.3504  0.2989 -0.4700
    3RG35    C4   90   3.273   3.493   4.827 -0.4821 -0.2473  0.0013
    3RG35   C3'   91   2.862   3.734   4.787 -0.1238  0.4934 -0.2623
    3RG35   H3'   92   2.799   3.753   4.700  0.2685 -1.3295 -0.9651
    3RG35   C2'   93   2.999   3.679   4.745 -0.0614 -0.0293  0.2216
    3RG35  H2'1   94   2.980   3.618   4.657 -1.2369  1.0984 -0.3174
    3RG35   O2'   95   3.093   3.784   4.719  0.1883 -0.1591 -0.4352
    3RG35  HO'2   96   3.086   3.852   4.786 -1.0363 -1.5223  0.8389
    3RG35   O3'   97   2.862   3.853   4.860  0.1500  0.0845 -0.0221
    3RG35   H3T   98   2.781   3.904   4.852 -0.3282 -0.7388 -0.5100
    3RG35   O3P   99   2.771   3.340   4.484  0.2671  0.5225 -0.0045
    7SOL     OW  100   0.375   0.122   0.500 -0.2821  0.0528 -0.1638
    7SOL    HW2  101   0.449   0.061   0.502 -0.7481 -0.5000  0.9613
    7SOL    HW3  102   0.298   0.066   0.493 -0.6142  0.6107 -0.9900
    7SOL    MW4  103   0.375   0.106   0.500 -0.3874  0.0534 -0.1243
    8SOL     OW  104   3.921   0.252   0.453  0.5096  0.0171  0.2775
    8SOL    HW2  105   4.001   0.287   0.414 -0.6372  1.4837 -0.8165
    8SOL    HW3  106   3.915   0.162   0.421 -0.1644  1.0467 -2.6119
    8SOL    MW4  107   3.930   0.245   0.444  0.2697  0.3465 -0.2480
    9SOL     OW  108   4.284   0.539   0.476  0.6561  0.6311 -0.0657
    9SOL    HW2  109   4.237   0.616   0.445  1.9252  1.4640  0.0074
    9SOL    HW3  110   4.265   0.471   0.412  0.2011  1.2513 -0.5973
    9SOL    MW4  111   4.276   0.540   0.464  0.7634  0.8228 -0.1261
   10SOL     OW  112   0.001   1.750   0.527  0.3023 -0.3643 -0.0388
   10SOL    HW2  113   0.021   1.734   0.619  0.5536 -0.5220 -0.1200
   10SOL    HW3  114  -0.030   1.665   0.494 -1.0525  0.0134  0.2258
   10SOL    MW4  115  -0.000   1.736   0.534  0.1564 -0.3352 -0.0147
   11SOL     OW  116   1.384   1.129   0.277  0.3532 -0.1993 -0.1788
   11SOL    HW2  117   1.301   1.091   0.307 -0.4330  0.9343 -0.9100
   11SOL    HW3  118   1.394   1.096   0.188  0.4910 -0.0144 -0.2314
   11SOL    MW4  119   1.375   1.119   0.270  0.2676 -0.0253 -0.2822
   12SOL     OW  120   0.037   0.899   0.456 -0.1391  0.3292 -0.1934
   12SOL    HW2  121  -0.049   0.927   0.424 -1.3111 -0.6443  2.0284
   12SOL    HW3  122   0.042   0.806   0.434  1.2591  0.8248 -2.1744
   12SOL    MW4  123   0.026   0.891   0.449 -0.1093  0.2661 -0.1616
   13SOL     OW  124   0.467   0.957   0.458 -0.1697 -0.2425  0.1320
   13SOL    HW2  125   0.491   0.936   0.548 -1.0846 -1.3599  0.1307
   13SOL    HW3  126   0.451   0.872   0.417 -2.6970  0.3783 -0.2613
   13SOL    MW4  127   0.468   0.943   0.465 -0.6239 -0.3080  0.0800
   14SOL     OW  128   0.856   0.874   0.400 -0.0906  0.1899  0.7856
   14SOL    HW2  129   0.932   0.856   0.345 -0.6600  1.4944 -0.4487
   14SOL    HW3  130   0.894   0.887   0.488  1.3324  2.4754 -0.1083
   14SOL    MW4  131   0.871   0.873   0.404  0.0221  0.6635  0.5048
   15SOL     OW  132   0.715   1.104   0.327 -0.0236 -0.7048  0.0470
   15SOL    HW2  133   0.780   1.034   0.332 -0.5795 -1.2087  0.1935
   15SOL    HW3  134   0.632   1.062   0.349 -0.8231 -0.6276 -2.6225
   15SOL    MW4  135   0.713   1.090   0.331 -0.2024 -0.7612 -0.2858
   16SOL     OW  136   4.315   1.865   0.191 -0.3989  0.0668  0.0224
   16SOL    HW2  137   4.325   1.771   0.176 -0.0393 -0.1236  1.4628
   16SOL    HW3  138   4.229   1.873   0.233 -0.6814  0.4442 -0.6247
   16SOL    MW4  139   4.305   1.853   0.194 -0.3891  0.0914  0.1271
   17SOL     OW  140   4.072   1.456   0.352  0.2273  0.0601  0.3344
   17SOL    HW2  141   4.026   1.528   0.395 -1.4279  1.0240 -2.9189
   17SOL    HW3  142   4.142   1.498   0.302 -0.9402 -0.4677 -1.8335
   17SOL    MW4  143   4.075   1.471   0.351 -0.1450  0.1178 -0.3808
   18SOL     OW  144   0.073   1.976   0.179  0.0409 -0.7570  0.1201
   18SOL    HW2  145  -0.016   1.942   0.186  0.1712 -1.0601  0.2977
   18SOL    HW3  146   0.094   1.969   0.086 -0.4213  0.0766 -0.0603
   18SOL    MW4  147   0.064   1.971   0.168 -0.0029 -0.6871  0.1197
   19SOL     OW  148   0.010   2.189   0.352 -0.1486  0.6795 -0.7630
   19SOL    HW2  149   0.021   2.130   0.277  1.1336  0.3700 -0.3418
   19SOL    HW3  150   0.097   2.194   0.392 -1.2021 -0.6102  1.8102
   19SOL    MW4  151   0.023   2.182   0.347 -0.1184  0.4685 -0.3679
   20SOL     OW  152   0.038   2.824   0.450  0.4046  0.5892 -0.2606
   20SOL    HW2  153   0.124   2.796   0.420  0.3348 -0.0055  0.0798
   20SOL    HW3  154   0.037   2.803   0.544 -0.9177 -1.5333 -0.7060
   20SOL    MW4  155   0.049   2.817   0.459  0.2209  0.2306 -0.2744
   21SOL     OW  156   0.056   3.313   0.260 -0.2844  0.0988 -0.0022
   21SOL    HW2  157   0.084   3.367   0.187 -0.5135 -0.7241 -0.7063
   21SOL    HW3  158   0.129   3.315   0.321 -0.0520  0.7059 -0.2940
   21SOL    MW4  159   0.069   3.320   0.258 -0.2840  0.0703 -0.1336
   22SOL     OW  160   0.235   3.333   0.479  0.0549  0.1975  0.4041
   22SOL    HW2  161   0.310   3.290   0.520  1.2177  0.7866 -1.0411
   22SOL    HW3  162   0.165   3.327   0.544  1.0408 -1.3042  1.3599
   22SOL    MW4  163   0.236   3.326   0.493  0.3384  0.0770  0.3395
   23SOL     OW  164   0.968   3.536   0.542  0.2126 -0.0096  0.3076
   23SOL    HW2  165   0.936   3.615   0.499  1.6161  0.6970  0.5510
   23SOL    HW3  166   1.050   3.515   0.497  1.1927  0.1740  1.9564
   23SOL    MW4  167   0.975   3.543   0.530  0.5271  0.1080  0.5572
   24SOL     OW  168   0.935   3.766   0.400 -0.0060  0.2751 -0.2870
   24SOL    HW2  169   1.030   3.769   0.386  0.0910 -0.4672  0.1758
   24SOL    HW3  170   0.910   3.857   0.418  0.3925  0.7032 -1.8540
   24SOL    MW4  171   0.944   3.778   0.401  0.0594  0.2337 -0.4327
   25SOL     OW  172   3.838   3.388   0.423  0.5185 -0.0933  0.3945
   25SOL    HW2  173   3.861   3.445   0.497  1.2921 -1.0318  0.8810
   25SOL    HW3  174   3.914   3.332   0.411 -0.6280 -1.7182  0.5694
   25SOL    MW4  175   3.851   3.389   0.432  0.4692 -0.4313  0.4817
   26SOL     OW  176   4.309   3.851   0.335  0.5873 -0.1318 -0.0377
   26SOL    HW2  177   4.263   3.933   0.352  0.5238 -0.6031  2.2570
   26SOL    HW3  178   4.243   3.783   0.351  1.7340 -0.7635  2.1154
   26SOL    MW4  179   4.294   3.852   0.339  0.7305 -0.2775  0.5491
   27SOL     OW  180   4.405   4.623   0.402 -0.4270  0.1038  0.2351
   27SOL    HW2  181   4.366   4.688   0.462 -0.2915  0.4679 -0.0695
   27SOL    HW3  182   4.368   4.539   0.431 -0.5128  0.3012  0.7070
   27SOL    MW4  183   4.395   4.621   0.414 -0.4206  0.1779  0.2572
   28SOL     OW  184   4.301   4.403   0.535  0.1030 -0.2906 -0.3743
   28SOL    HW2  185   4.356   4.324   0.533  1.9614  0.9738 -1.0071
   28SOL    HW3  186   4.276   4.412   0.626  2.1530 -0.1221  0.2011
   28SOL    MW4  187   4.305   4.394   0.547  0.6185 -0.1016 -0.3819
   29SOL     OW  188   4.239   0.066   0.199 -0.0011 -0.0581  0.1438
   29SOL    HW2  189   4.294   0.056   0.121 -0.5306 -1.0795 -0.1152
   29SOL    HW3  190   4.294   0.036   0.271  0.2408  0.1820  0.0568
   29SOL    MW4  191   4.253   0.061   0.198 -0.0391 -0.1612  0.0982
   30SOL     OW  192   0.589   3.946   0.538  0.0273 -0.1857  0.0427
   30SOL    HW2  193   0.680   3.974   0.537  0.3338 -0.9827  2.0979
   30SOL    HW3  194   0.539   4.027   0.533  0.8458  0.3033 -0.3541
   30SOL    MW4  195   0.594   3.960   0.537  0.1757 -0.2263  0.2614
   31SOL     OW  196   0.600   4.637   0.488  0.0727  0.1231 -0.2040
   31SOL    HW2  197   0.682   4.686   0.492  0.1051  0.1181 -0.8589
   31SOL    HW3  198   0.601   4.594   0.403 -1.4286  1.5717 -0.9621
   31SOL    MW4  199   0.611   4.638   0.477 -0.1210  0.3133 -0.3904
   32SOL     OW  200   0.459   0.653   0.361 -0.0593  0.7971  0.4788
   32SOL    HW2  201   0.409   0.664   0.280  0.5807  0.5472  0.0501
   32SOL    HW3  202   0.416   0.580   0.406 -0.4395  0.9627  0.3937
   32SOL    MW4  203   0.447   0.645   0.356 -0.0251  0.7860  0.4110
   33SOL     OW  204   4.125   0.766   0.389  0.0093  0.2701 -0.4925
   33SOL    HW2  205   4.061   0.818   0.437 -0.3841 -0.0980 -0.6110
   33SOL    HW3  206   4.145   0.818   0.311 -0.1752  0.3684 -0.4746
   33SOL    MW4  207   4.119   0.779   0.385 -0.0672  0.2345 -0.5057
   34SOL     OW  208   0.804   4.298   0.425  0.0211  0.1617 -0.4311
   34SOL    HW2  209   0.762   4.319   0.509  1.7785 -0.2417  0.5882
   34SOL    HW3  210   0.865   4.371   0.411 -0.2328  0.1982 -1.3315
   34SOL    MW4  211   0.807   4.311   0.434  0.2195  0.1135 -0.4154
   35SOL     OW  212   1.191   1.015   0.434 -0.0959 -0.1617  0.3874
   35SOL    HW2  213   1.154   1.103   0.441  0.6002  0.0538  1.6491
   35SOL    HW3  214   1.201   0.986   0.525  1.1368 -0.9320  0.0212
   35SOL    MW4  215   1.188   1.022   0.447  0.1585 -0.2350  0.5055
   36SOL     OW  216   0.872   0.362   0.466 -0.0037  0.1750 -0.0458
   36SOL    HW2  217   0.966   0.362   0.483 -0.0780 -0.0579  0.3804
   36SOL    HW3  218   0.852   0.451   0.436  0.3936  0.1543 -0.3701
   36SOL    MW4  219   0.881   0.374   0.464  0.0390  0.1415 -0.0324
   37SOL     OW  220   0.238   1.102   0.443 -0.3199 -0.3336  0.0452
   37SOL    HW2  221   0.163   1.044   0.428 -1.0073 -0.0076  2.0651
   37SOL    HW3  222   0.314   1.045   0.440 -0.6955 -0.7897 -1.2719
   37SOL    MW4  223   0.238   1.087   0.441 -0.4601 -0.3507  0.1379
   38SOL     OW  224   0.543   1.466   0.348  0.0370 -0.2610 -0.7788
   38SOL    HW2  225   0.583   1.421   0.423  0.8172  1.6356 -0.0157
   38SOL    HW3  226   0.591   1.432   0.272  2.5726  1.2892  0.0432
   38SOL    MW4  227   0.555   1.456   0.348  0.4745  0.1940 -0.5697
   39SOL     OW  228   4.273   1.547   0.194 -0.3259 -0.5284 -0.0323
   39SOL    HW2  229   4.283   1.480   0.126 -0.5743 -0.3316 -0.2641
   39SOL    HW3  230   4.349   1.536   0.251 -1.2153 -2.1165  0.8841
   39SOL    MW4  231   4.284   1.537   0.193 -0.4759 -0.7119  0.0580
   40SOL     OW  232   0.218   2.066   0.523  0.1024  0.4920 -0.2619
   40SOL    HW2  233   0.306   2.104   0.524 -0.4206  1.7293  0.1341
   40SOL    HW3  234   0.227   1.986   0.471  1.4426  0.6429 -0.2798
   40SOL    MW4  235   0.231   2.061   0.516  0.2102  0.6752 -0.2120
   41SOL     OW  236   4.264   2.717   0.436 -0.1113  0.1805 -0.5057
   41SOL    HW2  237   4.267   2.625   0.412 -0.6741 -0.0046  0.1260
   41SOL    HW3  238   4.354   2.748   0.425 -0.0078 -0.3362 -1.1223
   41SOL    MW4  239   4.277   2.709   0.431 -0.1717  0.0880 -0.5037
   42SOL     OW  240   3.636   2.186   0.359  0.0030 -0.2184 -0.1412
   42SOL    HW2  241   3.604   2.276   0.368  0.8611  0.1143 -0.3982
   42SOL    HW3  242   3.561   2.131   0.386 -0.5143  0.5649  0.0331
   42SOL    MW4  243   3.622   2.190   0.364  0.0479 -0.0713 -0.1521
   43SOL     OW  244   0.476   2.481   0.455 -0.1699 -0.5381  0.3994
   43SOL    HW2  245   0.431   2.407   0.415 -1.3234  0.5294 -0.3110
   43SOL    HW3  246   0.561   2.446   0.482  0.8838 -1.1545 -3.4957
   43SOL    MW4  247   0.482   2.467   0.453 -0.1831 -0.4787 -0.2083
   44SOL     OW  248   0.334   2.722   0.523  0.4430  0.0055 -0.2527
   44SOL    HW2  249   0.356   2.653   0.461  1.3592  0.0401  0.0335
   44SOL    HW3  250   0.405   2.786   0.515  0.6943 -0.1005  1.0016
   44SOL    MW4  251   0.346   2.722   0.514  0.5970 -0.0041 -0.0495
   45SOL     OW  252   4.068   3.216   0.453  0.0681  0.1157  0.0533
   45SOL    HW2  253   4.080   3.125   0.425 -1.9569  0.0893 -0.7968
   45SOL    HW3  254   4.047   3.209   0.546  2.2458 -0.1016  0.5588
   45SOL    MW4  255   4.067   3.203   0.462  0.0882  0.0834  0.0078
   46SOL     OW  256   4.400   3.057   0.296 -0.3251  0.3303 -0.2168
   46SOL    HW2  257   4.437   3.139   0.263 -0.0022  1.1767  2.1456
   46SOL    HW3  258   4.477   3.005   0.320 -0.5782  0.7630  1.5846
   46SOL    MW4  259   4.415   3.061   0.295 -0.3161  0.4992  0.3326
   47SOL     OW  260   0.590   4.419   0.296  0.0717  0.1115 -0.2342
   47SOL    HW2  261   0.665   4.367   0.326  0.0696 -0.7236 -1.6548
   47SOL    HW3  262   0.518   4.357   0.290 -0.3247  0.5855 -0.4679
   47SOL    MW4  263   0.591   4.404   0.299  0.0191  0.0634 -0.4525
   48SOL     OW  264   0.132   3.937   0.426 -0.0664  0.1121 -0.2146
   48SOL    HW2  265   0.093   4.024   0.426  0.3819  0.3264  0.5530
   48SOL    HW3  266   0.226   3.953   0.437  0.4996 -0.3167 -3.9123
   48SOL    MW4  267   0.139   3.950   0.428  0.0674  0.0837 -0.6012
   49SOL     OW  268   0.447   3.717   0.599 -0.3738 -0.3981  0.0582
   49SOL    HW2  269   0.503   3.786   0.561 -1.0519  0.3491  0.4002
   49SOL    HW3  270   0.508   3.660   0.645  0.3425 -0.7241 -1.2654
   49SOL    MW4  271   0.463   3.719   0.600 -0.3688 -0.3426 -0.0713
   50SOL     OW  272   1.047   2.860   0.506 -0.3305 -0.1384  0.0898
   50SOL    HW2  273   0.971   2.917   0.506 -0.0516  0.2361 -0.2366
   50SOL    HW3  274   1.012   2.775   0.478 -0.5933  0.0880 -0.2873
   50SOL    MW4  275   1.032   2.856   0.502 -0.3283 -0.0591 -0.0030
   51SOL     OW  276   0.449   4.189   0.530 -0.1736 -0.1612 -0.2976
   51SOL    HW2  277   0.510   4.253   0.565  0.9990 -1.1087 -0.5765
   51SOL    HW3  278   0.368   4.238   0.515  0.6525  1.2055 -0.3412
   51SOL    MW4  279   0.446   4.204   0.533  0.0901 -0.1059 -0.3402
   52SOL     OW  280   0.825   3.043   0.476 -0.1851  0.0149  0.1908
   52SOL    HW2  281   0.735   3.012   0.471 -0.2641 -0.5923  3.7335
   52SOL    HW3  282   0.817   3.138   0.469 -1.1903  0.0054  0.9349
   52SOL    MW4  283   0.812   3.052   0.475 -0.3282 -0.0665  0.7564
   53SOL     OW  284   0.157   4.622   0.534  0.3181  0.3053  0.1910
   53SOL    HW2  285   0.119   4.693   0.586  0.0969 -0.7563  1.4987
   53SOL    HW3  286   0.090   4.602   0.468  0.2979  1.1741 -0.0507
   53SOL    MW4  287   0.143   4.629   0.532  0.2862  0.2799  0.3316
   54SOL     OW  288   0.874   0.083   0.513 -1.1183  0.3133 -0.1411
   54SOL    HW2  289   0.881   0.176   0.494  0.4428  0.6076  1.7141
   54SOL    HW3  290   0.885   0.076   0.608 -2.4173 -1.6491 -0.1024
   54SOL    MW4  291   0.877   0.094   0.523 -1.0837  0.0932  0.1088
   55SOL     OW  292   0.748   0.615   0.454  0.3682  0.0609 -0.0721
   55SOL    HW2  293   0.786   0.703   0.444  0.5136 -0.0075 -0.1209
   55SOL    HW3  294   0.671   0.617   0.397  1.0092 -0.2134 -0.9686
   55SOL    MW4  295   0.743   0.627   0.445  0.4719  0.0157 -0.1968
   56SOL     OW  296   0.300   0.460   0.510  0.4038 -0.5449  0.6464
   56SOL    HW2  297   0.300   0.366   0.528  1.2244 -0.3831  1.5215
   56SOL    HW3  298   0.284   0.500   0.595  0.5728  0.1229  0.3614
   56SOL    MW4  299   0.298   0.453   0.523  0.5344 -0.4354  0.7243
   57SOL     OW  300   1.298   0.506   0.268 -0.0625 -0.1434 -0.5747
   57SOL    HW2  301   1.351   0.450   0.212 -1.4935 -0.6302 -1.4790
   57SOL    HW3  302   1.361   0.563   0.313  1.2825 -1.4126 -0.8258
   57SOL    MW4  303   1.313   0.506   0.267 -0.0738 -0.3752 -0.7272
   58SOL     OW  304   1.671   0.563   0.307 -0.1285  0.5556  0.3414
   58SOL    HW2  305   1.678   0.486   0.363 -1.7896 -1.0329 -1.5395
   58SOL    HW3  306   1.606   0.618   0.350  0.1316  0.3122  1.0472
   58SOL    MW4  307   1.663   0.560   0.320 -0.3133  0.3139  0.1863
   59SOL     OW  308   1.499   0.958   0.479 -0.0514 -0.3379 -0.0332
   59SOL    HW2  309   1.448   0.960   0.560  0.4760  2.1271  0.2930
   59SOL    HW3  310   1.459   1.025   0.424  1.3367 -0.0460 -0.7073
   59SOL    MW4  311   1.487   0.967   0.482  0.2012  0.0258 -0.0791
   60SOL     OW  312   0.242   1.387   0.347 -0.0107 -0.5113 -0.6723
   60SOL    HW2  313   0.322   1.429   0.377 -1.5243  0.3288  2.4185
   60SOL    HW3  314   0.258   1.293   0.360  0.4237 -0.3426  0.0376
   60SOL    MW4  315   0.255   1.380   0.352 -0.1531 -0.3781 -0.1708
   61SOL     OW  316   0.749   1.328   0.516  0.1788 -0.3126 -0.1436
   61SOL    HW2  317   0.743   1.246   0.467  1.3665 -0.9256  0.7102
   61SOL    HW3  318   0.828   1.371   0.483  0.3281 -0.1655  0.3935
   61SOL    MW4  319   0.759   1.323   0.505  0.3552 -0.3742  0.0399
   62SOL     OW  320   1.658   1.399   0.482 -0.2100 -0.2853  0.0374
   62SOL    HW2  321   1.714   1.476   0.494 -0.5456  0.0424 -0.4576
   62SOL    HW3  322   1.718   1.329   0.458  0.1928 -0.3771  1.2785
   62SOL    MW4  323   1.674   1.400   0.481 -0.2012 -0.2543  0.1359
   63SOL     OW  324   0.934   1.470   0.359  0.1040  0.0201  0.2880
   63SOL    HW2  325   0.893   1.457   0.274 -1.2261  0.7607  0.8018
   63SOL    HW3  326   0.934   1.564   0.372  2.0188  0.0461  0.2975
   63SOL    MW4  327   0.929   1.480   0.350  0.1812  0.1212  0.3570
   64SOL     OW  328   1.153   1.825   0.400  0.1813 -0.3639 -0.3698
   64SOL    HW2  329   1.220   1.758   0.411  0.9081  0.1775 -1.3780
   64SOL    HW3  330   1.196   1.907   0.426 -0.5499 -0.2139  0.4028
   64SOL    MW4  331   1.168   1.827   0.405  0.1807 -0.2726 -0.4009
   65SOL     OW  332   0.479   1.740   0.457  0.0127  0.1189  0.1742
   65SOL    HW2  333   0.387   1.755   0.436  0.4264  0.5310 -1.3611
   65SOL    HW3  334   0.510   1.679   0.389  1.5631  2.0754 -0.9318
   65SOL    MW4  335   0.471   1.734   0.445  0.2719  0.4314 -0.1742
   66SOL     OW  336   0.768   1.337   0.168 -0.3032 -0.0363 -0.0040
   66SOL    HW2  337   0.751   1.317   0.076 -0.3743 -0.1342  0.0311
   66SOL    HW3  338   0.756   1.254   0.214  0.1074 -0.0754  0.0405
   66SOL    MW4  339   0.764   1.323   0.162 -0.2584 -0.0544  0.0065
   67SOL     OW  340   0.758   2.405   0.474  0.1151  0.0756 -0.3251
   67SOL    HW2  341   0.790   2.326   0.431 -0.0307 -0.1419 -0.0335
   67SOL    HW3  342   0.787   2.396   0.565  0.8523  0.7611 -0.4781
   67SOL    MW4  343   0.766   2.394   0.481  0.1932  0.1373 -0.3068
   68SOL     OW  344   0.688   1.938   0.433 -0.3399  0.4245  0.3600
   68SOL    HW2  345   0.750   1.865   0.426 -1.0149 -0.2581  1.3903
   68SOL    HW3  346   0.602   1.898   0.422 -0.6055  1.3793 -1.0997
   68SOL    MW4  347   0.685   1.923   0.431 -0.4640  0.4604  0.3034
   69SOL     OW  348   0.955   2.604   0.407 -0.2794  0.1906  0.2982
   69SOL    HW2  349   0.913   2.526   0.444 -0.2787  0.4770  0.8958
   69SOL    HW3  350   0.888   2.642   0.350 -0.5996  0.2814  0.7393
   69SOL    MW4  351   0.940   2.598   0.404 -0.3216  0.2403  0.4352
   70SOL     OW  352   0.485   2.161   0.512  0.3469 -0.1759  0.3386
   70SOL    HW2  353   0.558   2.134   0.456  0.3740 -0.3296  0.4456
   70SOL    HW3  354   0.516   2.141   0.601  0.0851 -0.4452  0.3675
   70SOL    MW4  355   0.499   2.155   0.516  0.3159 -0.2320  0.3566
   71SOL     OW  356   0.568   2.944   0.526  0.0497 -0.0424  0.0315
   71SOL    HW2  357   0.603   2.932   0.614  1.6347  0.4904 -0.5256
   71SOL    HW3  358   0.517   3.025   0.531 -0.3914 -0.3505  0.6114
   71SOL    MW4  359   0.566   2.953   0.538  0.2006 -0.0129  0.0345
   72SOL     OW  360   0.759   3.317   0.511  0.1063  0.1083 -0.4273
   72SOL    HW2  361   0.763   3.286   0.601 -0.5761  0.6793 -0.1941
   72SOL    HW3  362   0.824   3.387   0.507 -1.2690  1.4387  0.1714
   72SOL    MW4  363   0.768   3.322   0.522 -0.1653  0.3595 -0.3176
   73SOL     OW  364   1.337   3.608   0.593 -0.0807  0.2801  0.4012
   73SOL    HW2  365   1.305   3.553   0.665  0.7726 -0.8726 -0.0863
   73SOL    HW3  366   1.426   3.632   0.619 -0.7943  2.2871  1.0809
   73SOL    MW4  367   1.345   3.604   0.606 -0.0622  0.3929  0.4265
   74SOL     OW  368   1.257   3.807   0.424  0.1007 -0.3161 -0.1667
   74SOL    HW2  369   1.347   3.834   0.408 -0.1131  1.6301  1.6373
   74SOL    HW3  370   1.264   3.736   0.488  0.2889  0.9473  1.2320
   74SOL    MW4  371   1.270   3.801   0.430  0.0973  0.1073  0.2559
   75SOL     OW  372   0.909   4.050   0.495  0.2749 -0.1925  0.2111
   75SOL    HW2  373   0.908   4.042   0.590 -0.6903  1.4178  0.3478
   75SOL    HW3  374   0.875   4.137   0.477  0.1838 -0.5747 -1.6280
   75SOL    MW4  375   0.904   4.060   0.505  0.1355 -0.0305 -0.0135
   76SOL     OW  376   1.216   4.475   0.494 -0.1127 -0.1066 -0.3905
   76SOL    HW2  377   1.191   4.449   0.583 -0.7548 -1.4871 -0.9525
   76SOL    HW3  378   1.134   4.503   0.454  0.4705  2.2620  0.0037
   76SOL    MW4  379   1.202   4.475   0.501 -0.1204  0.0238 -0.4126
   77SOL     OW  380   1.142   0.378   0.454  0.2483 -0.2471  0.3745
   77SOL    HW2  381   1.182   0.293   0.471  0.3279 -0.0595  1.1671
   77SOL    HW3  382   1.203   0.422   0.395 -0.3483 -1.1671 -0.9361
   77SOL    MW4  383   1.155   0.373   0.448  0.1800 -0.3437  0.3062
   78SOL     OW  384   0.966   4.526   0.377  0.4640 -0.0763 -0.2022
   78SOL    HW2  385   0.953   4.607   0.426 -1.0813 -0.3215 -0.1975
   78SOL    HW3  386   0.944   4.548   0.287 -0.3526 -0.5894 -0.1341
   78SOL    MW4  387   0.961   4.539   0.372  0.1525 -0.1764 -0.1926
   79SOL     OW  388   1.533   0.382   0.150  0.4693  0.3564 -0.2819
   79SOL    HW2  389   1.545   0.389   0.055 -3.4554  1.0272 -0.8087
   79SOL    HW3  390   1.580   0.457   0.186  1.3708  0.5221 -1.7461
   79SOL    MW4  391   1.541   0.393   0.142  0.0706  0.4668 -0.5446
   80SOL     OW  392   1.463   0.665   0.445  0.1510  0.4022  0.1802
   80SOL    HW2  393   1.454   0.620   0.529 -0.0369 -0.3933 -0.2540
   80SOL    HW3  394   1.477   0.757   0.468  2.4988 -0.1655  1.1459
   80SOL    MW4  395   1.463   0.671   0.459  0.4359  0.2224  0.2503
   81SOL     OW  396   1.239   0.114   0.500 -0.2613 -0.6632  0.1830
   81SOL    HW2  397   1.236   0.018   0.505  1.1626 -0.7030  0.5263
   81SOL    HW3  398   1.313   0.132   0.442 -1.4566  0.2107 -1.0968
   81SOL    MW4  399   1.249   0.103   0.493 -0.2311 -0.5531  0.0594
   82SOL     OW  400   1.951   0.266   0.393  0.4841 -0.2272 -0.1133
   82SOL    HW2  401   1.865   0.294   0.422 -0.3515 -1.9899 -0.8324
   82SOL    HW3  402   1.955   0.173   0.414  1.5611 -0.5372 -1.5537
   82SOL    MW4  403   1.941   0.257   0.399  0.5159 -0.5007 -0.3982
   83SOL     OW  404   2.212   0.768   0.317  0.0747 -0.4157 -0.3049
   83SOL    HW2  405   2.235   0.735   0.230  0.2889 -0.2934 -0.2949
   83SOL    HW3  406   2.117   0.776   0.315  0.2060  1.0790 -1.0625
   83SOL    MW4  407   2.203   0.765   0.306  0.1204 -0.2024 -0.4035
   84SOL     OW  408   1.789   0.921   0.487  0.1340 -0.0724  0.0203
   84SOL    HW2  409   1.805   0.921   0.582 -0.6427  0.0288  0.1632
   84SOL    HW3  410   1.693   0.929   0.480  0.1329 -0.7473 -0.7694
   84SOL    MW4  411   1.778   0.922   0.499  0.0312 -0.1481 -0.0650
   85SOL     OW  412   1.398   1.384   0.389 -0.4039  0.0528 -0.1359
   85SOL    HW2  413   1.488   1.394   0.419 -0.3417  1.6142 -0.7811
   85SOL    HW3  414   1.399   1.306   0.334  0.4773 -0.1279  0.1385
   85SOL    MW4  415   1.410   1.375   0.386 -0.2794  0.2350 -0.1848
   86SOL     OW  416   1.124   1.310   0.472 -0.3501  0.0236  0.3101
   86SOL    HW2  417   1.205   1.343   0.434 -1.2548  2.0517  0.1148
   86SOL    HW3  418   1.055   1.363   0.432 -1.8554 -2.0748 -0.0061
   86SOL    MW4  419   1.125   1.321   0.462 -0.6680  0.0143  0.2426
   87SOL     OW  420   1.382   1.633   0.494 -0.6247  0.2229  0.3472
   87SOL    HW2  421   1.358   1.628   0.586 -0.2763 -0.4782  0.3986
   87SOL    HW3  422   1.388   1.542   0.465 -0.6615  0.4366 -0.3477
   87SOL    MW4  423   1.380   1.621   0.502 -0.5835  0.1588  0.2623
   88SOL     OW  424   0.886   1.753   0.439 -0.4797  0.0556 -0.2245
   88SOL    HW2  425   0.974   1.789   0.427 -1.4411  2.6335  0.1488
   88SOL    HW3  426   0.891   1.703   0.521  0.6620  0.0247 -0.3044
   88SOL    MW4  427   0.898   1.751   0.448 -0.4559  0.3917 -0.1858
   89SOL     OW  428   1.234   2.593   0.468  0.0251 -0.3961 -0.1708
   89SOL    HW2  429   1.216   2.630   0.554 -0.0242 -1.9737  0.5037
   89SOL    HW3  430   1.152   2.604   0.419  0.3308  1.3182 -0.3359
   89SOL    MW4  431   1.221   2.599   0.473  0.0588 -0.3784 -0.1036
   90SOL     OW  432   1.976   1.995   0.491  0.9620 -0.5629  0.0235
   90SOL    HW2  433   1.965   2.006   0.586  0.6565  1.3548 -0.2117
   90SOL    HW3  434   2.056   2.043   0.471 -0.0247  0.7185 -0.9567
   90SOL    MW4  435   1.985   2.003   0.501  0.7914 -0.1409 -0.1369
   91SOL     OW  436   1.528   2.054   0.434 -0.4122 -0.3865 -0.2360
   91SOL    HW2  437   1.574   1.975   0.408 -0.8513 -0.4776 -0.7577
   91SOL    HW3  438   1.435   2.034   0.418 -0.4944  0.3550 -0.7146
   91SOL    MW4  439   1.522   2.041   0.428 -0.4809 -0.3009 -0.3680
   92SOL     OW  440   0.911   2.161   0.450 -0.0222 -0.0187 -0.3039
   92SOL    HW2  441   0.872   2.074   0.459 -0.1878 -0.0351 -1.1126
   92SOL    HW3  442   1.001   2.144   0.424 -0.0624  0.0449 -0.4914
   92SOL    MW4  443   0.918   2.147   0.448 -0.0494 -0.0126 -0.4354
   93SOL     OW  444   0.672   2.695   0.350 -0.0560 -0.3975  0.2585
   93SOL    HW2  445   0.672   2.770   0.409  0.1062  0.1122 -0.3891
   93SOL    HW3  446   0.629   2.625   0.400  0.2432 -0.0251  1.0450
   93SOL    MW4  447   0.667   2.695   0.364  0.0049 -0.2809  0.2769
   94SOL     OW  448   1.837   2.255   0.567  0.1693 -0.1465 -0.1983
   94SOL    HW2  449   1.863   2.293   0.484  1.0236 -0.9710 -0.3169
   94SOL    HW3  450   1.857   2.162   0.558 -1.2244 -0.5064  0.3460
   94SOL    MW4  451   1.843   2.248   0.555  0.0982 -0.3028 -0.1422
   95SOL     OW  452   1.761   3.913   0.463  0.1372  0.7343  0.2588
   95SOL    HW2  453   1.673   3.897   0.430  0.5261  1.0023 -0.9534
   95SOL    HW3  454   1.808   3.831   0.446  0.1478  0.6184  0.8317
   95SOL    MW4  455   1.756   3.900   0.456  0.1899  0.7544  0.1745
   96SOL     OW  456   1.198   4.057   0.498 -0.1684 -0.2483  0.2321
   96SOL    HW2  457   1.213   3.966   0.472  0.8211 -0.1893  0.5567
   96SOL    HW3  458   1.104   4.063   0.513 -0.3814 -0.9322 -0.8499
   96SOL    MW4  459   1.188   4.046   0.497 -0.0659 -0.3314  0.1321
   97SOL     OW  460   1.711   2.594   0.417  0.1422  0.0440  0.2149
   97SOL    HW2  461   1.676   2.510   0.390  0.9657 -0.3423  0.3289
   97SOL    HW3  462   1.674   2.657   0.355 -0.5747 -0.3810  0.2104
   97SOL    MW4  463   1.702   2.591   0.405  0.1563 -0.0627  0.2294
   98SOL     OW  464   1.609   3.530   0.329 -0.1872 -0.2618  0.0831
   98SOL    HW2  465   1.634   3.450   0.374 -0.5657  0.7182  2.1073
   98SOL    HW3  466   1.582   3.590   0.400 -2.7887  0.6250 -1.5826
   98SOL    MW4  467   1.609   3.528   0.345 -0.5803 -0.0157  0.1304
   99SOL     OW  468   1.277   3.022   0.473 -0.1995 -0.5444 -0.2179
   99SOL    HW2  469   1.326   2.940   0.477 -0.7768 -0.8338  1.0205
   99SOL    HW3  470   1.188   2.995   0.453 -0.2838 -0.1682 -0.3502
   99SOL    MW4  471   1.272   3.007   0.471 -0.2868 -0.5329 -0.0719
  100SOL     OW  472   1.698   3.281   0.434 -0.2384 -0.1648  0.0548
  100SOL    HW2  473   1.774   3.272   0.377 -0.4433  0.1648 -0.2723
  100SOL    HW3  474   1.627   3.237   0.387 -0.2660 -0.4168  0.3295
  100SOL    MW4  475   1.699   3.274   0.420 -0.2692 -0.1543  0.0479
  101SOL     OW  476   0.647   4.385   0.611  0.4511  0.0358  0.0808
  101SOL    HW2  477   0.657   4.384   0.706 -1.6801 -0.3024  0.3187
  101SOL    HW3  478   0.616   4.474   0.591 -0.8447 -0.4474 -0.0923
  101SOL    MW4  479   0.644   4.397   0.621 -0.0011 -0.0730  0.0893
  102SOL     OW  480   2.503   4.205   0.519 -0.0321  0.1002  0.1373
  102SOL    HW2  481   2.483   4.297   0.500 -0.0883 -0.3014 -1.9186
  102SOL    HW3  482   2.598   4.199   0.507 -0.0096 -0.0691  0.4087
  102SOL    MW4  483   2.513   4.216   0.515 -0.0362  0.0243 -0.0982
  103SOL     OW  484   1.608   4.346   0.439  0.1086 -0.0593 -0.1185
  103SOL    HW2  485   1.605   4.373   0.531 -0.7344 -0.0695 -0.1442
  103SOL    HW3  486   1.521   4.311   0.421  0.9142 -1.9698 -0.3505
  103SOL    MW4  487   1.596   4.345   0.449  0.1036 -0.3128 -0.1525
  104SOL     OW  488   1.672   4.643   0.394  0.2768 -0.0012  0.2100
  104SOL    HW2  489   1.767   4.652   0.407  0.7785 -1.8844 -1.9160
  104SOL    HW3  490   1.655   4.550   0.403 -1.4596  0.3567  0.8367
  104SOL    MW4  491   1.682   4.632   0.397  0.1140 -0.2027  0.0122
  105SOL     OW  492   1.476   0.186   0.376  0.4192  0.4454  0.0745
  105SOL    HW2  493   1.504   0.227   0.294  1.3819  1.0570  0.7040
  105SOL    HW3  494   1.524   0.104   0.380  0.6982  0.6152  0.2311
  105SOL    MW4  495   1.486   0.181   0.366  0.5829  0.5485  0.1782
  106SOL     OW  496   2.093   0.518   0.434  0.4029 -0.3913  0.6824
  106SOL    HW2  497   2.056   0.442   0.388 -0.4672 -0.7698  1.9896
  106SOL    HW3  498   2.050   0.593   0.394 -0.6530 -0.7406  1.1503
  106SOL    MW4  499   2.082   0.518   0.422  0.1490 -0.4873  0.9166
  107SOL     OW  500   2.339   1.370   0.503 -0.6441 -0.0724 -0.6718
  107SOL    HW2  501   2.410   1.353   0.441 -1.2406 -3.4262 -0.5322
  107SOL    HW3  502   2.337   1.465   0.512  3.1806  0.1578 -1.4166
  107SOL    MW4  503   2.348   1.380   0.496 -0.2182 -0.4845 -0.7516
  108SOL     OW  504   2.194   1.213   0.334 -0.8029 -0.3042  0.3616
  108SOL    HW2  505   2.243   1.270   0.394  1.4837 -1.4421 -0.3532
  108SOL    HW3  506   2.193   1.261   0.251 -0.0132 -0.7247  0.1072
  108SOL    MW4  507   2.200   1.227   0.331 -0.3970 -0.5100  0.2337
  109SOL     OW  508   1.898   1.181   0.447 -0.2990  0.0766  0.1867
  109SOL    HW2  509   1.876   1.090   0.465  2.1759 -0.8816 -1.3618
  109SOL    HW3  510   1.973   1.176   0.389 -0.2166  3.1281 -0.0351
  109SOL    MW4  511   1.905   1.168   0.442  0.0384  0.3529 -0.0469
  110SOL     OW  512   1.930   0.715   0.332  0.1364  0.0548  0.2769
  110SOL    HW2  513   1.894   0.782   0.391 -1.3626 -0.3520 -0.1538
  110SOL    HW3  514   1.856   0.658   0.313  0.3591  0.7476 -2.8276
  110SOL    MW4  515   1.915   0.717   0.337 -0.0319  0.0926 -0.1895
  111SOL     OW  516   2.062   1.740   0.463 -0.1810  0.4318 -0.0689
  111SOL    HW2  517   2.039   1.831   0.480 -1.3819  0.4739 -1.7790
  111SOL    HW3  518   1.983   1.691   0.484 -0.6885  0.1732 -2.3816
  111SOL    MW4  519   2.049   1.746   0.468 -0.4063  0.4032 -0.5997
  112SOL     OW  520   1.602   1.799   0.387  0.1888  0.0961  0.3811
  112SOL    HW2  521   1.526   1.745   0.411  0.6926  0.1848  2.2944
  112SOL    HW3  522   1.647   1.749   0.319 -1.2647 -0.2341 -0.3560
  112SOL    MW4  523   1.598   1.785   0.381  0.0637  0.0641  0.5363
  113SOL     OW  524   2.169   2.196   0.458 -0.0349 -0.2006  0.3785
  113SOL    HW2  525   2.261   2.170   0.455  0.8217  2.7213 -0.3357
  113SOL    HW3  526   2.167   2.267   0.522 -1.8700 -0.5423  0.7042
  113SOL    MW4  527   2.181   2.202   0.466 -0.1638  0.1400  0.3273
  114SOL     OW  528   2.061   2.999   0.370 -0.8747  0.5055 -0.2150
  114SOL    HW2  529   2.037   3.076   0.319 -1.7857  1.1943  1.2281
  114SOL    HW3  530   2.135   3.028   0.424  1.4301 -0.7870 -2.5467
  114SOL    MW4  531   2.068   3.013   0.370 -0.6907  0.4261 -0.3322
  115SOL     OW  532   1.652   2.855   0.297 -0.3046 -0.2027 -0.0967
  115SOL    HW2  533   1.565   2.848   0.337 -0.1871 -3.6956 -0.3610
  115SOL    HW3  534   1.639   2.913   0.222 -2.2384 -0.0350  0.3442
  115SOL    MW4  535   1.639   2.862   0.292 -0.5442 -0.6413 -0.0734
  116SOL     OW  536   1.432   2.804   0.455  0.1025  0.4628  0.0131
  116SOL    HW2  537   1.475   2.788   0.540  1.7014  0.1315 -0.8330
  116SOL    HW3  538   1.362   2.739   0.452  1.0608 -0.6152  0.3994
  116SOL    MW4  539   1.428   2.793   0.466  0.4399  0.2768 -0.0476
  117SOL     OW  540   1.219   2.083   0.473 -0.2329  0.1650 -0.1122
  117SOL    HW2  541   1.187   2.069   0.562  1.3005 -0.6035  0.3404
  117SOL    HW3  542   1.251   2.173   0.474  2.5169 -0.7693  1.0224
  117SOL    MW4  543   1.219   2.093   0.485  0.3324 -0.0596  0.0972
  118SOL     OW  544   3.152   2.230   0.409  0.0988 -0.2935  0.0924
  118SOL    HW2  545   3.089   2.261   0.344  0.8663 -1.0963 -1.0566
  118SOL    HW3  546   3.099   2.207   0.485 -0.8080  0.6914 -0.2332
  118SOL    MW4  547   3.136   2.231   0.410  0.0803 -0.2697 -0.1021
  119SOL     OW  548   1.944   2.352   0.319  0.1538 -0.2597 -0.7506
  119SOL    HW2  549   1.973   2.433   0.360  1.6045  0.4005 -2.9663
  119SOL    HW3  550   2.023   2.296   0.320 -0.4673 -1.1460 -0.4497
  119SOL    MW4  551   1.959   2.355   0.325  0.2633 -0.2899 -1.0032
  120SOL     OW  552   1.363   2.337   0.470 -0.2990  0.2182 -0.0179
  120SOL    HW2  553   1.358   2.428   0.440  0.0072  0.5011  0.7539
  120SOL    HW3  554   1.453   2.311   0.452 -0.3388  0.1243 -0.0815
  120SOL    MW4  555   1.374   2.346   0.464 -0.2638  0.2429  0.0755
  121SOL     OW  556   1.461   3.183   0.338  0.1889  0.1759 -0.9098
  121SOL    HW2  557   1.396   3.128   0.381 -1.2353  1.5718 -1.2051
  121SOL    HW3  558   1.410   3.257   0.303  2.0218  1.6634 -0.5305
  121SOL    MW4  559   1.445   3.186   0.339  0.2428  0.5567 -0.8987
  122SOL     OW  560   2.327   3.099   0.463 -0.0448  0.0951 -0.2457
  122SOL    HW2  561   2.403   3.156   0.451 -0.9871  0.9822 -2.3133
  122SOL    HW3  562   2.294   3.120   0.550  1.1747  0.7958  0.0627
  122SOL    MW4  563   2.332   3.109   0.473 -0.0081  0.3047 -0.4778
  123SOL     OW  564   2.413   3.769   0.441 -0.1813  0.1147 -0.0298
  123SOL    HW2  565   2.437   3.679   0.417 -2.1583 -0.0990 -1.3275
  123SOL    HW3  566   2.333   3.761   0.492 -0.0229  1.1116  0.4004
  123SOL    MW4  567   2.406   3.756   0.444 -0.4210  0.2179 -0.1442
  124SOL     OW  568   1.506   3.865   0.335 -0.3369  0.5561 -0.5034
  124SOL    HW2  569   1.488   3.804   0.263  4.9363 -1.9143  0.0878
  124SOL    HW3  570   1.534   3.946   0.292  0.5770 -0.1511 -1.2355
  124SOL    MW4  571   1.507   3.868   0.320  0.4792  0.1371 -0.5220
  125SOL     OW  572   1.361   4.257   0.373  0.4850 -0.6010 -0.3490
  125SOL    HW2  573   1.302   4.329   0.394 -0.1620 -1.0219 -0.7211
  125SOL    HW3  574   1.320   4.180   0.413  0.4414 -1.0057 -1.1696
  125SOL    MW4  575   1.348   4.256   0.381  0.3939 -0.7105 -0.5064
  126SOL     OW  576   1.602   4.100   0.226  0.0108  0.2525  0.1241
  126SOL    HW2  577   1.689   4.141   0.229  0.4786 -0.5376 -1.5691
  126SOL    HW3  578   1.543   4.164   0.265  1.2034  1.2396  0.3288
  126SOL    MW4  579   1.606   4.114   0.232  0.2298  0.2785 -0.0723
  127SOL     OW  580   2.460   4.494   0.539 -0.3630  0.3776 -0.0388
  127SOL    HW2  581   2.488   4.472   0.627  0.7859 -1.5643 -0.8656
  127SOL    HW3  582   2.536   4.537   0.499 -0.3263 -0.2072 -0.6038
  127SOL    MW4  583   2.474   4.497   0.545 -0.2065  0.0434 -0.2225
  128SOL     OW  584   1.968   0.000   0.460  0.2809  0.5294  0.0792
  128SOL    HW2  585   2.052  -0.043   0.448 -0.3614 -1.0631  1.0942
  128SOL    HW3  586   1.947  -0.012   0.552 -1.0592  0.9251 -0.1538
  128SOL    MW4  587   1.976  -0.007   0.470  0.0194  0.3715  0.1824
  129SOL     OW  588   2.620   0.951   0.348  0.3071  0.4044 -0.8200
  129SOL    HW2  589   2.525   0.950   0.363  0.4457 -2.0161  0.0935
  129SOL    HW3  590   2.640   1.043   0.329 -2.0171  1.1863  0.2874
  129SOL    MW4  591   2.610   0.963   0.348  0.0188  0.1882 -0.5534
  130SOL     OW  592   2.663   0.517   0.432  0.0423  0.2387  0.4088
  130SOL    HW2  593   2.571   0.505   0.406 -0.2753 -0.7687  1.9317
  130SOL    HW3  594   2.712   0.460   0.373 -0.1761  1.5078 -1.0642
  130SOL    MW4  595   2.657   0.508   0.421 -0.0284  0.2733  0.4154
  131SOL     OW  596   2.970   0.621   0.187 -0.0388 -0.0418 -0.1356
  131SOL    HW2  597   2.917   0.543   0.205 -0.8066  0.8804  1.8089
  131SOL    HW3  598   3.059   0.588   0.179 -0.2721 -1.0761  1.2754
  131SOL    MW4  599   2.975   0.606   0.189 -0.1707 -0.0566  0.3071
  132SOL     OW  600   2.757   0.768   0.516 -0.2388 -0.1651  0.6013
  132SOL    HW2  601   2.702   0.822   0.460 -1.1199  0.4240  2.0082
  132SOL    HW3  602   2.721   0.679   0.507 -1.2884  0.1750  1.3256
  132SOL    MW4  603   2.745   0.763   0.508 -0.4935 -0.0424  0.8826
  133SOL     OW  604   2.787   1.181   0.261  0.3304  0.0304 -0.4890
  133SOL    HW2  605   2.842   1.164   0.337  1.0532  0.9538 -0.7936
  133SOL    HW3  606   2.785   1.098   0.213  0.1690 -0.4473  0.3363
  133SOL    MW4  607   2.794   1.168   0.265  0.4046  0.0893 -0.4203
  134SOL     OW  608   2.688   1.631   0.481  0.1430  0.1678  0.2351
  134SOL    HW2  609   2.782   1.640   0.469  0.1017  0.9824  0.4797
  134SOL    HW3  610   2.678   1.600   0.571  0.2598 -1.9198 -0.4313
  134SOL    MW4  611   2.699   1.628   0.491  0.1533 -0.0001  0.1794
  135SOL     OW  612   3.036   0.601   0.534  0.2599 -0.0613  0.4518
  135SOL    HW2  613   3.063   0.520   0.490  0.6345  0.1713  0.2510
  135SOL    HW3  614   3.023   0.575   0.625  0.1663 -0.3940  0.3455
  135SOL    MW4  615   3.038   0.586   0.540  0.2971 -0.0746  0.4113
  136SOL     OW  616   2.311   1.653   0.521  0.6131 -0.3196 -0.2684
  136SOL    HW2  617   2.224   1.671   0.485 -0.3049 -0.5505  1.7948
  136SOL    HW3  618   2.369   1.711   0.473 -0.7664  0.3278 -1.1954
  136SOL    MW4  619   2.307   1.663   0.510  0.3102 -0.2648 -0.1184
  137SOL     OW  620   1.809   1.639   0.533 -0.5611  0.1500  0.2901
  137SOL    HW2  621   1.815   1.645   0.628 -1.5643 -1.2240  0.4505
  137SOL    HW3  622   1.735   1.696   0.510 -1.5252 -0.9858  0.5264
  137SOL    MW4  623   1.800   1.648   0.542 -0.8205 -0.1812  0.3425
  138SOL     OW  624   2.448   2.103   0.430 -0.2201  0.6494 -0.0222
  138SOL    HW2  625   2.531   2.149   0.424  0.7169 -0.7340  1.7013
  138SOL    HW3  626   2.469   2.013   0.404 -1.0809  0.2091  0.7684
  138SOL    MW4  627   2.462   2.097   0.426 -0.2100  0.4086  0.3095
  139SOL     OW  628   2.506   1.819   0.389 -0.0449 -0.4485 -0.2281
  139SOL    HW2  629   2.497   1.800   0.295 -2.0207 -2.8819  0.4050
  139SOL    HW3  630   2.582   1.769   0.417  1.2400  1.1763 -0.7219
  139SOL    MW4  631   2.515   1.810   0.380 -0.1361 -0.5550 -0.2097
  140SOL     OW  632   2.444   2.837   0.472 -0.4229 -0.1575 -0.2660
  140SOL    HW2  633   2.397   2.918   0.451 -0.1483  0.0191 -0.2007
  140SOL    HW3  634   2.425   2.822   0.565 -0.2574 -0.0217 -0.2087
  140SOL    MW4  635   2.435   2.846   0.482 -0.3648 -0.1163 -0.2498
  141SOL     OW  636   1.649   2.321   0.343 -0.3531 -0.1083 -0.6155
  141SOL    HW2  637   1.737   2.321   0.306  0.4297 -0.5254  1.1993
  141SOL    HW3  638   1.644   2.239   0.392 -1.9223 -0.3134 -1.0947
  141SOL    MW4  639   1.660   2.310   0.345 -0.4568 -0.1903 -0.4393
  142SOL     OW  640   2.030   2.573   0.523 -0.1908  0.2720  0.0150
  142SOL    HW2  641   2.071   2.630   0.458  0.6167  0.9935  1.1450
  142SOL    HW3  642   2.103   2.529   0.567 -0.7231 -0.1434  0.4953
  142SOL    MW4  643   2.045   2.575   0.520 -0.1545  0.3123  0.2275
  143SOL     OW  644   2.136   3.447   0.471 -0.0477  0.2098 -0.2845
  143SOL    HW2  645   2.230   3.428   0.477  0.1202  0.9253 -0.6701
  143SOL    HW3  646   2.114   3.485   0.556 -0.1970 -0.8399  0.1626
  143SOL    MW4  647   2.146   3.449   0.483 -0.0453  0.1659 -0.2764
  144SOL     OW  648   2.282   4.059   0.458 -0.6372 -0.3857  0.5120
  144SOL    HW2  649   2.314   3.984   0.409  0.7586  0.6611 -0.2121
  144SOL    HW3  650   2.361   4.104   0.488 -1.4225  1.4943 -0.1385
  144SOL    MW4  651   2.296   4.055   0.456 -0.5562  0.0000  0.3306
  145SOL     OW  652   1.855   3.667   0.409 -0.0258 -0.2046 -0.0552
  145SOL    HW2  653   1.782   3.643   0.353 -0.1000  1.2885 -0.6179
  145SOL    HW3  654   1.919   3.597   0.397 -0.5205 -0.4711 -1.1345
  145SOL    MW4  655   1.854   3.655   0.400 -0.1009 -0.0427 -0.2718
  146SOL     OW  656   2.187   2.725   0.354 -0.2944  0.1859 -0.6133
  146SOL    HW2  657   2.271   2.768   0.369 -1.1120  1.1408  1.3857
  146SOL    HW3  658   2.130   2.793   0.318  0.0672 -0.7388 -3.0449
  146SOL    MW4  659   2.190   2.739   0.351 -0.3545  0.1900 -0.6704
  147SOL     OW  660   2.217   4.544   0.434 -0.0328  0.0279  0.3359
  147SOL    HW2  661   2.183   4.456   0.419 -1.1180  0.4403  0.3805
  147SOL    HW3  662   2.301   4.530   0.478  0.9914 -1.0649 -1.9017
  147SOL    MW4  663   2.224   4.530   0.438 -0.0410 -0.0615  0.0466
  148SOL     OW  664   1.838   4.175   0.390  0.1666 -0.5834 -0.3773
  148SOL    HW2  665   1.801   4.090   0.413  0.1852 -0.3186  0.6777
  148SOL    HW3  666   1.773   4.238   0.420  0.1886 -0.2187 -1.0874
  148SOL    MW4  667   1.824   4.172   0.397  0.1720 -0.5002 -0.3318
  149SOL     OW  668   2.803   4.141   0.434  0.1069  0.6465 -0.1826
  149SOL    HW2  669   2.896   4.119   0.426  0.0198  0.5726 -1.1207
  149SOL    HW3  670   2.759   4.057   0.444  0.2842  0.7882  1.9648
  149SOL    MW4  671   2.810   4.127   0.434  0.1187  0.6552 -0.0231
  150SOL     OW  672   2.097   4.281   0.411 -0.1198 -0.3644 -0.0748
  150SOL    HW2  673   2.133   4.193   0.413  1.4318  0.2554 -0.0763
  150SOL    HW3  674   2.004   4.269   0.390  0.0629 -1.9912  0.0223
  150SOL    MW4  675   2.089   4.268   0.408  0.1090 -0.4973 -0.0622
  151SOL     OW  676   2.847   3.670   0.510  0.3870  0.3632  0.2488
  151SOL    HW2  677   2.827   3.590   0.462 -1.1325  0.7505  0.2030
  151SOL    HW3  678   2.921   3.709   0.463  0.5591 -0.5478 -0.2494
  151SOL    MW4  679   2.854   3.665   0.498  0.2093  0.2940  0.1770
  152SOL     OW  680   2.257   0.184   0.456  0.3469 -0.3669 -0.2467
  152SOL    HW2  681   2.168   0.210   0.432 -0.6771 -0.4619  3.1798
  152SOL    HW3  682   2.260   0.090   0.440 -0.1027 -0.3414 -0.5091
  152SOL    MW4  683   2.245   0.175   0.450  0.1526 -0.3761  0.1707
  153SOL     OW  684   1.698   0.332   0.478 -0.1205  0.1897  0.2501
  153SOL    HW2  685   1.622   0.277   0.460 -0.7452  1.0245  0.3038
  153SOL    HW3  686   1.698   0.340   0.574  0.7189 -0.7629  0.3367
  153SOL    MW4  687   1.688   0.326   0.488 -0.0921  0.1741  0.2685
  154SOL     OW  688   3.106   0.378   0.403 -0.1696  0.0412 -0.3800
  154SOL    HW2  689   3.155   0.308   0.448 -0.7298 -0.2529 -0.2240
  154SOL    HW3  690   3.169   0.415   0.341  0.4457  0.0914  0.2762
  154SOL    MW4  691   3.121   0.373   0.401 -0.1624  0.0090 -0.2728
  155SOL     OW  692   2.353   0.976   0.420 -0.1533  0.5923 -0.4115
  155SOL    HW2  693   2.305   1.050   0.384 -0.9878 -0.4595 -1.5050
  155SOL    HW3  694   2.312   0.899   0.381  1.7693 -0.3813 -0.6082
  155SOL    MW4  695   2.341   0.975   0.410 -0.0095  0.3251 -0.5817
  156SOL     OW  696   3.082   0.908   0.483 -0.5242  0.3431 -0.3310
  156SOL    HW2  697   3.081   0.884   0.575 -2.5451 -0.3720 -0.5019
  156SOL    HW3  698   3.056   1.001   0.482 -0.0534  0.4775 -0.1573
  156SOL    MW4  699   3.078   0.917   0.495 -0.7288  0.2664 -0.3306
  157SOL     OW  700   3.194   1.284   0.298 -0.7223 -0.4862 -0.1369
  157SOL    HW2  701   3.169   1.376   0.304  0.0464 -0.3148  0.5758
  157SOL    HW3  702   3.262   1.273   0.364 -0.8370 -1.5789 -0.1793
  157SOL    MW4  703   3.199   1.294   0.308 -0.6359 -0.6078 -0.0485
  158SOL     OW  704   3.211   1.042   0.136  0.2828  0.0730 -0.1922
  158SOL    HW2  705   3.301   1.025   0.164  0.0430  1.1143  1.2973
  158SOL    HW3  706   3.195   1.134   0.160 -1.3690 -0.2767  0.1562
  158SOL    MW4  707   3.220   1.052   0.143  0.0331  0.1643  0.0503
  159SOL     OW  708   2.965   1.646   0.503  0.3626 -0.5306 -0.9861
  159SOL    HW2  709   3.024   1.633   0.429  0.0657  1.2364 -1.5624
  159SOL    HW3  710   2.980   1.737   0.529 -0.4767 -0.7551  0.3015
  159SOL    MW4  711   2.975   1.656   0.497  0.2124 -0.3272 -0.8923
  160SOL     OW  712   2.626   0.379   0.680 -0.0776  0.1694 -0.1215
  160SOL    HW2  713   2.696   0.398   0.743 -0.0432 -0.9062  0.1644
  160SOL    HW3  714   2.665   0.400   0.595  0.7634 -0.9040 -0.0053
  160SOL    MW4  715   2.641   0.385   0.677  0.0379 -0.1141 -0.0685
  161SOL     OW  716   2.974   1.895   0.624  0.9053  0.2558 -0.5080
  161SOL    HW2  717   2.895   1.890   0.679  0.0181  1.7302 -1.6258
  161SOL    HW3  718   3.046   1.898   0.687 -0.0150  0.4902  0.5538
  161SOL    MW4  719   2.973   1.895   0.640  0.6669  0.4812 -0.5154
  162SOL     OW  720   2.703   2.225   0.416 -0.1724  0.6999  0.1162
  162SOL    HW2  721   2.772   2.195   0.475 -0.0448  0.2407 -0.2654
  162SOL    HW3  722   2.691   2.318   0.438 -0.0009  0.5737  0.7372
  162SOL    MW4  723   2.710   2.234   0.427 -0.1328  0.6227  0.1478
  163SOL     OW  724   2.570   1.371   0.356 -0.4891 -0.2413 -0.4968
  163SOL    HW2  725   2.611   1.449   0.392  0.0309 -0.1021 -1.3703
  163SOL    HW3  726   2.644   1.315   0.332 -0.8494 -0.7860 -0.3438
  163SOL    MW4  727   2.585   1.374   0.358 -0.4680 -0.2948 -0.5918
  164SOL     OW  728   3.162   2.832   0.466 -0.5299 -0.2520  0.3673
  164SOL    HW2  729   3.140   2.740   0.478  0.3102 -0.2748  1.7693
  164SOL    HW3  730   3.216   2.855   0.542  1.9709  0.5329 -1.5466
  164SOL    MW4  731   3.167   2.823   0.477 -0.0892 -0.1514  0.2998
  165SOL     OW  732   2.581   3.212   0.484  0.5503 -0.0153 -0.0591
  165SOL    HW2  733   2.635   3.161   0.424  0.0329 -1.4761  0.6837
  165SOL    HW3  734   2.620   3.197   0.570 -0.1390  0.1163  0.2809
  165SOL    MW4  735   2.593   3.203   0.488  0.3910 -0.1905  0.0837
  166SOL     OW  736   2.881   3.431   0.374  0.0633  0.0238  0.2064
  166SOL    HW2  737   2.970   3.399   0.384  0.3779  0.8026 -0.0836
  166SOL    HW3  738   2.828   3.352   0.365  0.8473 -0.4068 -0.6393
  166SOL    MW4  739   2.886   3.416   0.375  0.2081  0.0699  0.0566
  167SOL     OW  740   3.141   3.315   0.422 -0.3085 -0.0980 -0.0188
  167SOL    HW2  741   3.111   3.225   0.413  1.8258 -0.8660  0.1308
  167SOL    HW3  742   3.175   3.320   0.512 -0.2978  0.8099 -0.0680
  167SOL    MW4  743   3.142   3.304   0.433 -0.0255 -0.0799 -0.0055
  168SOL     OW  744   2.231   3.277   0.193  0.3942 -0.4071 -0.8619
  168SOL    HW2  745   2.242   3.244   0.282 -1.2671  0.0604 -0.4678
  168SOL    HW3  746   2.316   3.264   0.151  0.5655 -2.5925  0.1340
  168SOL    MW4  747   2.244   3.271   0.199  0.1979 -0.6337 -0.6785
  169SOL     OW  748   1.957   3.286   0.321 -0.3633 -0.1211 -0.6755
  169SOL    HW2  749   2.013   3.300   0.245  0.1802  0.0273 -0.2490
  169SOL    HW3  750   1.997   3.338   0.390 -0.9026 -0.1914 -0.3084
  169SOL    MW4  751   1.970   3.294   0.320 -0.3626 -0.1106 -0.5707
  170SOL     OW  752   3.662   3.561   0.301 -0.3301 -0.2368  0.0477
  170SOL    HW2  753   3.727   3.496   0.327  0.0939 -0.0407 -0.5034
  170SOL    HW3  754   3.578   3.518   0.313 -0.0196 -1.1546 -1.0582
  170SOL    MW4  755   3.659   3.547   0.306 -0.2332 -0.3319 -0.1709
  171SOL     OW  756   2.680   3.894   0.530 -0.2640  0.2388  0.2185
  171SOL    HW2  757   2.596   3.856   0.504 -0.5059  0.7066  0.3054
  171SOL    HW3  758   2.742   3.821   0.527 -0.6806 -0.1140  0.1803
  171SOL    MW4  759   2.677   3.879   0.527 -0.3510  0.2542  0.2249
  172SOL     OW  760   2.429   3.449   0.528 -0.3329  0.8147 -0.4112
  172SOL    HW2  761   2.453   3.490   0.612  1.2135  1.2477 -1.0371
  172SOL    HW3  762   2.483   3.370   0.524 -0.1120  0.9996 -1.1682
  172SOL    MW4  763   2.440   3.444   0.539 -0.0994  0.8962 -0.5936
  173SOL     OW  764   3.582   4.081   0.488 -0.4569  0.3216  0.1709
  173SOL    HW2  765   3.503   4.125   0.457 -0.8956 -0.5802 -0.0164
  173SOL    HW3  766   3.573   3.991   0.457 -0.4580 -0.3652  2.1125
  173SOL    MW4  767   3.571   4.075   0.480 -0.5150  0.1121  0.4023
  174SOL     OW  768   2.915   4.406   0.483  0.2643  0.4539  0.3338
  174SOL    HW2  769   2.882   4.324   0.446 -0.3487  1.2306 -0.8617
  174SOL    HW3  770   2.934   4.385   0.574 -1.1147 -0.6741  0.3729
  174SOL    MW4  771   2.913   4.392   0.490  0.0014  0.4072  0.1812
  175SOL     OW  772   3.358   4.467   0.291 -0.3729 -0.1790  0.4994
  175SOL    HW2  773   3.391   4.487   0.203 -1.2998  0.9291  0.3852
  175SOL    HW3  774   3.279   4.520   0.299 -0.7222 -0.8744  1.7158
  175SOL    MW4  775   3.352   4.477   0.280 -0.5412 -0.1245  0.6448
  176SOL     OW  776   3.085   4.606   0.345  0.0877 -0.1574 -0.0538
  176SOL    HW2  777   3.039   4.534   0.386 -0.4284 -0.9329 -1.9429
  176SOL    HW3  778   3.017   4.656   0.300  0.6370  0.6381 -0.0168
  176SOL    MW4  779   3.070   4.603   0.344  0.0920 -0.1545 -0.2982
  177SOL     OW  780   2.710   4.610   0.463 -0.0746 -0.0630  0.4300
  177SOL    HW2  781   2.772   4.537   0.463 -0.2956 -0.2658  1.3943
  177SOL    HW3  782   2.718   4.647   0.551  0.4353  1.4307 -0.2427
  177SOL    MW4  783   2.719   4.605   0.475 -0.0365  0.1073  0.4684
  178SOL     OW  784   2.375   0.485   0.436 -0.3078 -0.2372  0.4210
  178SOL    HW2  785   2.286   0.520   0.432 -0.2029  0.2302  1.8536
  178SOL    HW3  786   2.363   0.393   0.460 -0.4268 -0.3530 -0.0682
  178SOL    MW4  787   2.362   0.477   0.439 -0.3099 -0.1908  0.5455
  179SOL     OW  788   2.964   0.901   0.183 -0.1578 -0.4271 -0.3889
  179SOL    HW2  789   2.979   0.820   0.135  0.5876  0.2477 -1.3107
  179SOL    HW3  790   3.050   0.945   0.184 -0.1405 -0.4343  1.5728
  179SOL    MW4  791   2.978   0.896   0.177 -0.0575 -0.3390 -0.2517
  180SOL     OW  792   2.861   0.358   0.260 -0.4321  0.1732  0.5620
  180SOL    HW2  793   2.951   0.357   0.293 -0.8832  0.2277  1.8272
  180SOL    HW3  794   2.835   0.266   0.258  0.0461  0.0633 -0.9293
  180SOL    MW4  795   2.869   0.346   0.264 -0.4284  0.1659  0.5322
  181SOL     OW  796   3.236   0.533   0.226 -0.4163  0.2265  0.4579
  181SOL    HW2  797   3.312   0.478   0.209 -0.0046  0.7762  0.4790
  181SOL    HW3  798   3.273   0.612   0.266 -1.0495  0.2742  0.9614
  181SOL    MW4  799   3.251   0.536   0.229 -0.4456  0.3054  0.5271
  182SOL     OW  800   3.338   0.736   0.377  0.1788 -0.0074  0.2508
  182SOL    HW2  801   3.254   0.762   0.416  0.3109  0.2139  0.3879
  182SOL    HW3  802   3.362   0.655   0.423  0.6541  0.5982  1.0938
  182SOL    MW4  803   3.330   0.729   0.389  0.2589  0.1017  0.3800
  183SOL     OW  804   3.369   1.717   0.439 -0.0183  0.6793 -0.2257
  183SOL    HW2  805   3.340   1.711   0.530 -0.2304  0.0261 -0.3369
  183SOL    HW3  806   3.399   1.808   0.429 -0.3934  0.8662  0.3731
  183SOL    MW4  807   3.369   1.728   0.450 -0.0956  0.6179 -0.1613
  184SOL     OW  808   3.143   1.605   0.305 -0.0162 -0.1899  0.0118
  184SOL    HW2  809   3.145   1.660   0.227 -0.6302 -0.1192  0.0426
  184SOL    HW3  810   3.224   1.626   0.352 -0.1201  0.4745 -0.1159
  184SOL    MW4  811   3.154   1.615   0.301 -0.1109 -0.0927 -0.0009
  185SOL     OW  812   3.394   1.181   0.488 -0.2291  0.4980  0.3314
  185SOL    HW2  813   3.471   1.237   0.479 -0.5728  0.7271 -1.4335
  185SOL    HW3  814   3.380   1.174   0.582  0.8552  1.9575  0.6231
  185SOL    MW4  815   3.403   1.188   0.499 -0.1311  0.7206  0.1371
  186SOL     OW  816   3.392   2.024   0.417 -0.5204 -0.2367 -0.0869
  186SOL    HW2  817   3.316   2.061   0.372 -0.7258 -1.6853 -0.9586
  186SOL    HW3  818   3.379   2.047   0.509 -2.3533 -1.0340 -0.1345
  186SOL    MW4  819   3.380   2.032   0.423 -0.7894 -0.5331 -0.2082
  187SOL     OW  820   2.938   2.328   0.259 -0.0855 -0.5464 -0.1518
  187SOL    HW2  821   2.856   2.291   0.293 -0.6477  0.0528 -0.8290
  187SOL    HW3  822   2.925   2.423   0.265  0.4906 -0.4477 -0.4297
  187SOL    MW4  823   2.925   2.336   0.265 -0.0837 -0.4542 -0.2778
  188SOL     OW  824   3.450   2.772   0.414 -0.1050 -0.0303  0.2545
  188SOL    HW2  825   3.479   2.692   0.370  2.5123  1.1250 -0.2147
  188SOL    HW3  826   3.367   2.794   0.371  0.2919 -1.2385 -1.1851
  188SOL    MW4  827   3.443   2.765   0.402  0.2928 -0.0374  0.0027
  189SOL     OW  828   3.030   3.059   0.490 -0.1037  0.1444  0.2256
  189SOL    HW2  829   3.021   3.070   0.585 -1.5719 -0.7356  0.2026
  189SOL    HW3  830   3.065   2.970   0.479  2.5146  1.1430  0.0189
  189SOL    MW4  831   3.034   3.049   0.501  0.0482  0.1600  0.1953
  190SOL     OW  832   2.731   2.851   0.487  0.8006 -0.0918 -0.0563
  190SOL    HW2  833   2.744   2.933   0.440  0.6257 -0.2333 -0.3518
  190SOL    HW3  834   2.636   2.837   0.486  0.8638 -0.4904 -0.3325
  190SOL    MW4  835   2.720   2.860   0.481  0.7858 -0.1633 -0.1317
  191SOL     OW  836   2.874   2.840   0.755 -0.7521  0.1858  0.4851
  191SOL    HW2  837   2.842   2.823   0.667 -2.0644 -2.1654  1.3959
  191SOL    HW3  838   2.962   2.801   0.756 -0.3130  1.1262 -0.0680
  191SOL    MW4  839   2.882   2.833   0.743 -0.8671 -0.0005  0.5323
  192SOL     OW  840   3.233   0.138   0.496 -0.3663  0.1603 -0.0548
  192SOL    HW2  841   3.186   0.121   0.578 -1.4583 -0.0896 -0.7178
  192SOL    HW3  842   3.198   0.073   0.435 -1.6981  2.1799 -1.5212
  192SOL    MW4  843   3.222   0.127   0.499 -0.6862  0.3938 -0.3357
  193SOL     OW  844   3.079   4.087   0.439  0.5036  0.0297 -0.0225
  193SOL    HW2  845   3.071   4.051   0.528 -0.0079 -0.3487 -0.2143
  193SOL    HW3  846   3.082   4.010   0.383  1.0321  0.2692 -0.3192
  193SOL    MW4  847   3.078   4.072   0.444  0.5059  0.0114 -0.0870
  194SOL     OW  848   3.580   3.782   0.471  0.2038  0.1124  0.2989
  194SOL    HW2  849   3.607   3.733   0.393  0.2440  1.6083 -0.6413
  194SOL    HW3  850   3.488   3.757   0.485  0.5324 -1.0342  0.4680
  194SOL    MW4  851   3.571   3.772   0.463  0.2527  0.1585  0.1972
  195SOL     OW  852   3.594   3.261   0.431 -0.0471 -0.0670 -0.2900
  195SOL    HW2  853   3.683   3.298   0.433 -0.1326  0.1267 -0.0305
  195SOL    HW3  854   3.608   3.167   0.420  0.1356  0.1682 -2.2669
  195SOL    MW4  855   3.608   3.253   0.430 -0.0343 -0.0103 -0.5166
  196SOL     OW  856   3.406   3.445   0.348 -0.3435 -0.3161  0.2287
  196SOL    HW2  857   3.322   3.402   0.333 -0.1946 -0.7497  0.6100
  196SOL    HW3  858   3.465   3.373   0.373  0.2530 -0.0834 -0.4994
  196SOL    MW4  859   3.403   3.430   0.349 -0.2449 -0.3424  0.1829
  197SOL     OW  860   2.838   0.074   0.262 -0.2268  0.1143  0.1918
  197SOL    HW2  861   2.806   0.010   0.199  0.9740  0.5120 -0.8396
  197SOL    HW3  862   2.803   0.045   0.346 -0.0882 -1.6012 -0.3385
  197SOL    MW4  863   2.829   0.062   0.265 -0.0503 -0.0596 -0.0142
  198SOL     OW  864   2.802   3.082   0.347 -0.3113 -0.3154  0.2309
  198SOL    HW2  865   2.824   3.076   0.254  0.2566  0.4221  0.3144
  198SOL    HW3  866   2.885   3.065   0.392  0.0264  2.0476  0.5620
  198SOL    MW4  867   2.816   3.079   0.341 -0.1917  0.0937  0.2856
  199SOL     OW  868   4.189   0.303   0.361 -0.3677 -0.0263 -0.2476
  199SOL    HW2  869   4.247   0.270   0.430 -1.0110 -1.3195 -0.3204
  199SOL    HW3  870   4.211   0.251   0.284  0.0317  1.1115 -0.9254
  199SOL    MW4  871   4.200   0.292   0.360 -0.4001 -0.0468 -0.3466
  200SOL     OW  872   4.007   4.656   0.373  0.5038 -0.4881  0.5590
  200SOL    HW2  873   4.011   4.561   0.379  1.5119 -0.5427 -0.5650
  200SOL    HW3  874   4.071   4.678   0.305 -1.7948  0.7704 -1.2915
  200SOL    MW4  875   4.016   4.646   0.364  0.3338 -0.3295  0.1666
  201SOL     OW  876   3.488   0.259   0.508  0.2690 -0.5472 -0.0962
  201SOL    HW2  877   3.411   0.203   0.507  0.1227 -0.3832  1.7876
  201SOL    HW3  878   3.454   0.347   0.526  0.7480 -0.2416 -0.6579
  201SOL    MW4  879   3.473   0.263   0.510  0.3128 -0.4852  0.0783
  202SOL     OW  880   3.687   0.625   0.484  0.3624 -0.2515 -0.2382
  202SOL    HW2  881   3.742   0.600   0.558 -0.6294 -1.1762  0.2048
  202SOL    HW3  882   3.693   0.551   0.423  0.9797  0.3977 -0.9758
  202SOL    MW4  883   3.695   0.612   0.486  0.3128 -0.2879 -0.2772
  203SOL     OW  884   3.691   0.360   0.352 -0.1870 -0.0280  0.2394
  203SOL    HW2  885   3.781   0.330   0.367  0.3003  2.0103  1.6345
  203SOL    HW3  886   3.639   0.312   0.417 -0.2890 -1.9685 -1.2436
  203SOL    MW4  887   3.696   0.350   0.363 -0.1361 -0.0151  0.2278
  204SOL     OW  888   3.941   0.972   0.455 -0.2750 -0.1061  0.0757
  204SOL    HW2  889   3.928   1.063   0.429  1.9309  0.2610  0.1244
  204SOL    HW3  890   3.853   0.938   0.470 -1.3693  0.9452 -3.4752
  204SOL    MW4  891   3.928   0.980   0.454 -0.1283  0.0810 -0.3864
  205SOL     OW  892   3.449   0.980   0.288  0.3005 -0.3732  0.3029
  205SOL    HW2  893   3.407   1.041   0.350 -1.9006 -0.1542 -1.3315
  205SOL    HW3  894   3.425   0.893   0.321 -0.0955 -0.2736  0.2840
  205SOL    MW4  895   3.440   0.976   0.301 -0.0424 -0.3312  0.0848
  206SOL     OW  896   3.894   1.238   0.349  0.3676 -1.0871 -0.2679
  206SOL    HW2  897   3.946   1.317   0.337  0.2915 -0.6434  2.1182
  206SOL    HW3  898   3.889   1.199   0.261  2.0104  0.5292 -1.1147
  206SOL    MW4  899   3.900   1.243   0.336  0.5744 -0.8153 -0.0648
  207SOL     OW  900   3.652   1.322   0.502 -0.2092 -0.2991  0.6785
  207SOL    HW2  901   3.717   1.292   0.438 -0.2472 -0.2588  0.6203
  207SOL    HW3  902   3.647   1.417   0.489 -2.0743 -0.5925 -1.0461
  207SOL    MW4  903   3.660   1.330   0.492 -0.4604 -0.3325  0.4432
  208SOL     OW  904   2.978   1.158   0.459  0.4159 -0.4673  0.1106
  208SOL    HW2  905   3.039   1.206   0.403  1.1138 -0.0711  1.1881
  208SOL    HW3  906   2.976   1.209   0.540 -1.9217 -0.0753 -0.1717
  208SOL    MW4  907   2.986   1.171   0.462  0.1993 -0.3635  0.2155
  209SOL     OW  908   3.637   1.648   0.500  0.0947  0.1495  0.2310
  209SOL    HW2  909   3.626   1.669   0.592 -0.4360 -0.5037  0.3239
  209SOL    HW3  910   3.549   1.655   0.462  0.0495 -1.0261  0.0930
  209SOL    MW4  911   3.624   1.651   0.507  0.0188 -0.0918  0.2250
  210SOL     OW  912   3.602   2.491   0.429 -0.0501 -0.4203 -0.4493
  210SOL    HW2  913   3.576   2.491   0.521 -0.2636 -1.0461 -0.5128
  210SOL    HW3  914   3.695   2.512   0.430 -0.2231  0.3599 -0.1378
  210SOL    MW4  915   3.611   2.494   0.441 -0.1013 -0.4001 -0.4166
  211SOL     OW  916   3.882   2.577   0.395  0.1124  0.2055 -0.6202
  211SOL    HW2  917   3.960   2.527   0.420 -0.5825 -0.2278  0.7560
  211SOL    HW3  918   3.892   2.592   0.301  1.1368 -1.1028 -0.7400
  211SOL    MW4  919   3.894   2.572   0.386  0.1559 -0.0243 -0.4545
  212SOL     OW  920   2.605   2.493   0.483 -0.3724  0.0988  0.0597
  212SOL    HW2  921   2.533   2.554   0.466  0.1414  0.1246 -2.1914
  212SOL    HW3  922   2.682   2.535   0.446  0.3457 -1.0282  0.2550
  212SOL    MW4  923   2.605   2.506   0.476 -0.2100 -0.0465 -0.2115
  213SOL     OW  924   3.082   3.793   0.463 -0.0554  0.1653  0.4615
  213SOL    HW2  925   3.158   3.735   0.475 -1.0712 -1.1041  0.9231
  213SOL    HW3  926   3.073   3.838   0.547  0.9223  1.2304  0.0016
  213SOL    MW4  927   3.091   3.791   0.476 -0.0603  0.1383  0.4616
  214SOL     OW  928   3.321   2.460   0.364 -0.4049  0.0654  0.0328
  214SOL    HW2  929   3.305   2.367   0.378 -1.1611 -0.4249 -3.7365
  214SOL    HW3  930   3.416   2.470   0.369 -0.2916 -0.9833 -0.0774
  214SOL    MW4  931   3.332   2.449   0.367 -0.4900 -0.1378 -0.4790
  215SOL     OW  932   3.891   2.860   0.477  0.0694 -0.2800  0.6839
  215SOL    HW2  933   3.976   2.889   0.446 -1.1016  1.5011 -0.9426
  215SOL    HW3  934   3.886   2.768   0.450  2.2330 -0.9891  2.5198
  215SOL    MW4  935   3.901   2.851   0.470  0.2005 -0.1385  0.7115
  216SOL     OW  936   3.643   2.989   0.455  0.1544  0.2559  0.1894
  216SOL    HW2  937   3.731   2.951   0.452  0.5078  1.1190 -0.6114
  216SOL    HW3  938   3.584   2.913   0.457  0.9284 -0.3185  1.1561
  216SOL    MW4  939   3.647   2.974   0.455  0.3030  0.2942  0.2113
  217SOL     OW  940   4.099   3.615   0.373 -0.3850 -0.0922 -0.2949
  217SOL    HW2  941   4.023   3.660   0.336  0.2540  1.1705 -0.1064
  217SOL    HW3  942   4.070   3.586   0.459 -0.7403  0.1316 -0.3365
  217SOL    MW4  943   4.085   3.617   0.379 -0.3476  0.1040 -0.2755
  218SOL     OW  944   2.848   2.584   0.378  0.0662  0.1345  0.1108
  218SOL    HW2  945   2.831   2.678   0.385  0.2316  0.1744 -0.0216
  218SOL    HW3  946   2.929   2.570   0.427  0.3406  0.1522 -0.3342
  218SOL    MW4  947   2.856   2.594   0.385  0.1245  0.1421  0.0346
  219SOL     OW  948   3.323   3.669   0.533  0.0711  0.5556  0.5237
  219SOL    HW2  949   3.349   3.596   0.477  1.0182  2.1461 -1.1703
  219SOL    HW3  950   3.337   3.637   0.622  0.1123 -1.4440 -0.1625
  219SOL    MW4  951   3.328   3.655   0.537  0.2017  0.5014  0.2096
  220SOL     OW  952   4.393   3.510   0.392  0.2453 -0.0379 -0.1966
  220SOL    HW2  953   4.311   3.525   0.345  0.3521 -1.3956 -0.8367
  220SOL    HW3  954   4.437   3.441   0.343  0.9381 -0.6006  1.1745
  220SOL    MW4  955   4.388   3.503   0.379  0.3510 -0.2913 -0.1001
  221SOL     OW  956   3.331   4.217   0.427  0.0068  0.3045  0.3176
  221SOL    HW2  957   3.246   4.175   0.415  0.5971 -1.2270  1.2373
  221SOL    HW3  958   3.324   4.300   0.380 -1.6461 -0.2484 -0.4603
  221SOL    MW4  959   3.319   4.222   0.420 -0.1335  0.0296  0.3363
  222SOL     OW  960   3.834   4.227   0.511 -0.0506  0.5179 -0.1853
  222SOL    HW2  961   3.746   4.194   0.496  0.1641 -1.3141  2.2849
  222SOL    HW3  962   3.826   4.280   0.590  1.2380 -0.4543  0.6139
  222SOL    MW4  963   3.821   4.230   0.520  0.1478  0.1478  0.2460
  223SOL     OW  964   4.293   0.156   0.577  0.1049 -0.4078 -0.4667
  223SOL    HW2  965   4.213   0.178   0.625  1.1603  0.7187  0.8245
  223SOL    HW3  966   4.362   0.158   0.644  1.2294 -1.2636 -1.5792
  223SOL    MW4  967   4.291   0.159   0.592  0.3924 -0.3721 -0.4431
  224SOL     OW  968   3.673   0.892   0.440  0.2663  0.0605 -0.0378
  224SOL    HW2  969   3.611   0.930   0.378  1.6051 -0.6690 -1.8733
  224SOL    HW3  970   3.673   0.799   0.420  1.8053  0.0298  0.0297
  224SOL    MW4  971   3.665   0.885   0.429  0.6459 -0.0398 -0.2711
  225SOL     OW  972   0.226   1.823   0.372 -0.0273 -0.1360  0.2092
  225SOL    HW2  973   0.183   1.851   0.291 -0.4452  0.2322  0.5538
  225SOL    HW3  974   0.156   1.782   0.422  0.5493 -1.6517 -0.2212
  225SOL    MW4  975   0.211   1.822   0.368 -0.0064 -0.2874  0.1979
  226SOL     OW  976   0.067   0.622   0.425  0.1648  0.2949  0.5206
  226SOL    HW2  977  -0.013   0.578   0.453 -0.0134 -0.9240 -1.7225
  226SOL    HW3  978   0.137   0.562   0.448  0.2385  0.4202  0.6219
  226SOL    MW4  979   0.065   0.608   0.432  0.1511  0.1506  0.2380
  227SOL     OW  980   4.285   1.040   0.442 -0.1174  0.0034  0.2070
  227SOL    HW2  981   4.298   1.135   0.444  0.2984 -0.0360 -0.3719
  227SOL    HW3  982   4.190   1.028   0.447 -0.1110  0.3997  1.5543
  227SOL    MW4  983   4.274   1.051   0.443 -0.0615  0.0505  0.3084
  228SOL     OW  984   3.488   0.397   0.164 -0.6148 -0.4451 -0.0301
  228SOL    HW2  985   3.561   0.408   0.226 -1.2981  0.5468  0.5963
  228SOL    HW3  986   3.470   0.303   0.166  0.4292 -0.6546  0.0600
  228SOL    MW4  987   3.496   0.386   0.172 -0.5677 -0.3419  0.0645
  229SOL     OW  988   4.294   1.316   0.487 -0.3751  0.5153 -0.2073
  229SOL    HW2  989   4.288   1.314   0.583  0.0332  1.1338 -0.1666
  229SOL    HW3  990   4.217   1.365   0.459 -0.0990  0.9850 -0.1520
  229SOL    MW4  991   4.283   1.322   0.496 -0.2847  0.6589 -0.1946
  230SOL     OW  992   4.482   1.499   0.382  0.3017 -0.0003  0.2818
  230SOL    HW2  993   4.447   1.437   0.446 -0.0615 -0.0580  0.0245
  230SOL    HW3  994   4.572   1.470   0.367 -0.1877 -1.0466 -0.5889
  230SOL    MW4  995   4.489   1.487   0.389  0.1888 -0.1459  0.1330
  231SOL     OW  996   3.915   2.132   0.429 -0.3459 -0.0566 -0.1271
  231SOL    HW2  997   3.824   2.144   0.402 -0.1829  0.7973 -0.3139
  231SOL    HW3  998   3.950   2.221   0.433 -0.1141 -0.2290  2.0023
  231SOL    MW4  999   3.907   2.146   0.426 -0.2937  0.0334  0.1292
  232SOL     OW 1000   3.948   1.668   0.473  0.0962 -0.1112 -0.2339
  232SOL    HW2 1001   3.987   1.750   0.440  0.1550 -0.2647 -0.5462
  232SOL    HW3 1002   3.854   1.682   0.466  0.0908  0.3437  0.7237
  232SOL    MW4 1003   3.941   1.681   0.467  0.1032 -0.0716 -0.1488
  233SOL     OW 1004   4.343   1.999   0.484 -0.0157 -0.3163 -0.3457
  233SOL    HW2 1005   4.403   2.072   0.466  1.0359 -1.1405 -0.2103
  233SOL    HW3 1006   4.396   1.921   0.474 -0.5096 -0.9841  1.9145
  233SOL    MW4 1007   4.358   1.998   0.480  0.0582 -0.5132 -0.0296
  234SOL     OW 1008   4.081   1.912   0.392  0.0061 -0.1779  0.4056
  234SOL    HW2 1009   4.016   1.980   0.408  0.6736  0.5678 -0.0033
  234SOL    HW3 1010   4.161   1.943   0.435 -0.0124 -1.2934  1.2863
  234SOL    MW4 1011   4.083   1.925   0.399  0.0920 -0.2267  0.4678
  235SOL     OW 1012   4.353   2.446   0.446  0.6931 -0.4703  0.4430
  235SOL    HW2 1013   4.408   2.380   0.403  1.4634  0.6535 -0.3393
  235SOL    HW3 1014   4.388   2.453   0.534  2.9422  1.4152 -0.5254
  235SOL    MW4 1015   4.365   2.439   0.452  1.0915 -0.0732  0.2120
  236SOL     OW 1016   4.118   2.956   0.365 -0.0111  0.0547 -0.3049
  236SOL    HW2 1017   4.177   2.998   0.302  2.1037 -1.4189  0.6345
  236SOL    HW3 1018   4.163   2.876   0.391 -1.2151  0.2176  2.4905
  236SOL    MW4 1019   4.131   2.951   0.360  0.1087 -0.1183  0.1879
  237SOL     OW 1020   4.076   2.388   0.462 -0.1222  0.1009 -0.1724
  237SOL    HW2 1021   4.064   2.380   0.556 -0.0484 -0.1595 -0.1835
  237SOL    HW3 1022   4.170   2.377   0.448 -0.0832  0.5046 -0.2427
  237SOL    MW4 1023   4.087   2.385   0.472 -0.1073  0.1199 -0.1832
  238SOL     OW 1024   0.004   4.194   0.497  0.3098  0.2086  0.4123
  238SOL    HW2 1025  -0.002   4.143   0.578  2.0483  0.0103  0.4290
  238SOL    HW3 1026  -0.064   4.157   0.441  0.9564 -1.5566  0.7519
  238SOL    MW4 1027  -0.006   4.182   0.500  0.6247 -0.0501  0.4593
  239SOL     OW 1028   3.872   3.766   0.244  0.2207  0.0983 -0.0422
  239SOL    HW2 1029   3.879   3.764   0.148  1.9208 -1.3932  0.0881
  239SOL    HW3 1030   3.810   3.696   0.265 -2.2523  2.1484 -0.1578
  239SOL    MW4 1031   3.865   3.757   0.234  0.1185  0.1721 -0.0403
  240SOL     OW 1032   0.470   3.203   0.535  0.0112  0.0087  0.0214
  240SOL    HW2 1033   0.474   3.209   0.630  0.3554 -0.8519  0.0651
  240SOL    HW3 1034   0.550   3.245   0.505  0.4410 -0.7286  0.1522
  240SOL    MW4 1035   0.481   3.210   0.543  0.1133 -0.2022  0.0445
  241SOL     OW 1036   3.722   3.673   0.694  0.4067  0.1560 -0.3706
  241SOL    HW2 1037   3.654   3.699   0.632  0.6466 -0.0317 -0.7153
  241SOL    HW3 1038   3.682   3.604   0.746 -0.2631  1.2722  0.6119
  241SOL    MW4 1039   3.708   3.668   0.693  0.3500  0.2785 -0.2865
  242SOL     OW 1040   4.329   3.201   0.531 -0.2295 -0.1232  0.3580
  242SOL    HW2 1041   4.362   3.136   0.469  0.5051  0.4387  0.1631
  242SOL    HW3 1042   4.243   3.226   0.495  1.6698  2.8048 -2.3876
  242SOL    MW4 1043   4.322   3.196   0.518  0.1183  0.3374 -0.0299
  243SOL     OW 1044   0.228   4.350   0.516  0.2600  0.1951  0.4944
  243SOL    HW2 1045   0.201   4.441   0.531  0.0803 -0.0082  1.4205
  243SOL    HW3 1046   0.146   4.303   0.500  0.2435 -0.0275  1.2187
  243SOL    MW4 1047   0.213   4.356   0.516  0.2341  0.1383  0.7121
  244SOL     OW 1048   4.205   4.109   0.384 -0.3558 -0.1105 -0.0832
  244SOL    HW2 1049   4.174   4.190   0.344 -0.4715 -0.6963 -1.1971
  244SOL    HW3 1050   4.127   4.070   0.424  0.1143  1.4237  2.4284
  244SOL    MW4 1051   4.190   4.114   0.384 -0.3090  0.0148  0.1011
  245SOL     OW 1052   3.982   4.002   0.501  0.3973  0.3429 -0.0408
  245SOL    HW2 1053   3.930   3.948   0.442  0.3205 -1.1214  1.3265
  245SOL    HW3 1054   3.928   4.079   0.518 -0.2796 -0.0156 -0.5478
  245SOL    MW4 1055   3.968   4.005   0.495  0.2978  0.1025  0.0727
  246SOL     OW 1056   4.061   4.361   0.394  0.5201  0.2252 -0.1293
  246SOL    HW2 1057   4.116   4.389   0.467 -0.3839  1.4458  0.1070
  246SOL    HW3 1058   3.985   4.320   0.436  0.0658  0.8024 -0.3764
  246SOL    MW4 1059   4.058   4.359   0.409  0.3409  0.4625 -0.1307
  247SOL     OW 1060   0.252   4.644   0.871  0.1744  0.0570 -0.2632
  247SOL    HW2 1061   0.256   4.557   0.833 -2.0848 -1.5404  2.8791
  247SOL    HW3 1062   0.178   4.686   0.827 -0.1843 -0.4724 -0.1663
  247SOL    MW4 1063   0.243   4.638   0.861 -0.1710 -0.2232  0.1642
  248SOL     OW 1064   0.037   0.095   0.758 -0.4276  0.0528  0.4719
  248SOL    HW2 1065  -0.047   0.075   0.800 -1.4410 -0.2048 -1.5892
  248SOL    HW3 1066   0.061   0.181   0.792 -1.6282  0.2127  0.9436
  248SOL    MW4 1067   0.029   0.103   0.768 -0.7197  0.0399  0.2622
  249SOL     OW 1068   0.045   0.359   0.832 -0.1280  0.0921  0.3983
  249SOL    HW2 1069   0.018   0.394   0.917 -0.7844  1.2715 -0.2874
  249SOL    HW3 1070   0.120   0.412   0.806  1.0268 -1.2592  0.9306
  249SOL    MW4 1071   0.051   0.371   0.840 -0.0623  0.0694  0.3780
  250SOL     OW 1072   0.269   0.530   0.774 -0.6314 -0.2811 -0.0131
  250SOL    HW2 1073   0.343   0.496   0.824  1.1741 -0.2331 -2.5309
  250SOL    HW3 1074   0.269   0.624   0.790  1.5802  0.1360 -2.0392
  250SOL    MW4 1075   0.279   0.538   0.782 -0.1014 -0.2198 -0.6127
  251SOL     OW 1076   0.252   0.800   0.782  0.3686 -0.3691 -0.1246
  251SOL    HW2 1077   0.257   0.807   0.878 -0.9910 -1.6802  0.0514
  251SOL    HW3 1078   0.160   0.816   0.761  0.4459 -1.1602 -1.1138
  251SOL    MW4 1079   0.241   0.803   0.792  0.1994 -0.6464 -0.2320
  252SOL     OW 1080   0.005   0.920   0.736  0.1221  0.0886  0.0825
  252SOL    HW2 1081  -0.074   0.879   0.769  0.2850  0.5501  1.0697
  252SOL    HW3 1082   0.001   0.909   0.641 -1.0262 -0.0534  0.1513
  252SOL    MW4 1083  -0.006   0.913   0.728 -0.0086  0.1308  0.2218
  253SOL     OW 1084   0.048   1.185   0.812  0.1283 -0.4911 -0.1735
  253SOL    HW2 1085   0.054   1.179   0.908  0.8026 -0.4737 -0.2123
  253SOL    HW3 1086   0.039   1.095   0.783 -1.7188 -0.3733  0.0099
  253SOL    MW4 1087   0.048   1.173   0.821 -0.0264 -0.4733 -0.1544
  254SOL     OW 1088   0.282   1.258   0.672  0.1560 -0.3953 -0.1328
  254SOL    HW2 1089   0.217   1.216   0.728 -1.7128  0.6220 -1.4798
  254SOL    HW3 1090   0.262   1.227   0.584  0.5087  1.1132 -0.7720
  254SOL    MW4 1091   0.271   1.249   0.668 -0.0441 -0.0621 -0.3949
  255SOL     OW 1092   0.246   1.498   0.792  0.5001 -0.0550 -0.0327
  255SOL    HW2 1093   0.326   1.542   0.765  0.8356 -0.7637 -0.2208
  255SOL    HW3 1094   0.248   1.414   0.746 -0.0410 -0.3372  0.4440
  255SOL    MW4 1095   0.256   1.492   0.782  0.4730 -0.1858  0.0054
  256SOL     OW 1096   0.022   1.665   0.790 -0.0312 -0.2473 -0.0952
  256SOL    HW2 1097  -0.053   1.607   0.782 -0.0538 -0.1997 -0.2401
  256SOL    HW3 1098   0.097   1.607   0.801  0.0422 -0.3309 -1.0170
  256SOL    MW4 1099   0.022   1.650   0.790 -0.0245 -0.2520 -0.2360
  257SOL     OW 1100   4.482   1.927   0.855  0.2727  0.6554 -0.5571
  257SOL    HW2 1101   4.566   1.967   0.829  0.7807  0.1547  0.3065
  257SOL    HW3 1102   4.490   1.836   0.829 -0.1743  0.7018 -0.8596
  257SOL    MW4 1103   4.494   1.920   0.848  0.2804  0.5955 -0.4832
  258SOL     OW 1104   0.224   2.048   0.791  0.2862 -0.0695 -0.4492
  258SOL    HW2 1105   0.204   2.138   0.818 -0.1789 -0.2377 -0.2255
  258SOL    HW3 1106   0.209   2.047   0.697 -1.4952 -0.3841 -0.1709
  258SOL    MW4 1107   0.220   2.060   0.782 -0.0102 -0.1333 -0.3830
  259SOL     OW 1108   0.209   2.337   0.817 -0.1093  0.8427 -0.1162
  259SOL    HW2 1109   0.208   2.334   0.912  0.1148 -0.2852 -0.1454
  259SOL    HW3 1110   0.279   2.399   0.795  1.3384 -0.5754  0.4190
  259SOL    MW4 1111   0.218   2.345   0.826  0.1113  0.5066 -0.0495
  260SOL     OW 1112   4.472   2.456   0.707 -0.0011 -0.4340 -0.0348
  260SOL    HW2 1113   4.409   2.400   0.753  1.1357 -0.8537  1.0489
  260SOL    HW3 1114   4.557   2.425   0.737  0.7077  0.4742 -1.0854
  260SOL    MW4 1115   4.475   2.445   0.717  0.2422 -0.3693 -0.0305
  261SOL     OW 1116   4.451   2.721   0.786 -0.0803  0.5563  0.2214
  261SOL    HW2 1117   4.455   2.724   0.882 -1.8006  0.1987  0.3347
  261SOL    HW3 1118   4.478   2.632   0.764  1.7794  1.0936  0.2585
  261SOL    MW4 1119   4.455   2.710   0.796 -0.0615  0.5798  0.2413
  262SOL     OW 1120   0.229   2.845   0.737  0.1510 -0.5665  0.5987
  262SOL    HW2 1121   0.157   2.788   0.763 -1.2511  0.4759 -0.8783
  262SOL    HW3 1122   0.267   2.802   0.660  1.4388 -1.3592  1.6544
  262SOL    MW4 1123   0.225   2.832   0.730  0.1359 -0.5331  0.5431
  263SOL     OW 1124   0.177   3.118   0.823  0.1137 -0.3247  0.2750
  263SOL    HW2 1125   0.177   3.111   0.918 -1.7038  1.4808  0.4533
  263SOL    HW3 1126   0.182   3.028   0.792 -1.7849 -1.1099  2.1131
  263SOL    MW4 1127   0.177   3.105   0.832 -0.3766 -0.1903  0.5410
  264SOL     OW 1128   0.042   3.313   0.669 -0.3236  0.4566  0.8763
  264SOL    HW2 1129   0.067   3.243   0.729 -0.4191 -0.3273  0.0173
  264SOL    HW3 1130  -0.034   3.279   0.622  0.5236  0.5229 -0.5980
  264SOL    MW4 1131   0.035   3.299   0.671 -0.2245  0.3619  0.5685
  265SOL     OW 1132   4.408   3.503   0.830  0.3211 -0.2971 -0.1541
  265SOL    HW2 1133   4.424   3.581   0.776  0.4446 -0.1878  0.0375
  265SOL    HW3 1134   4.445   3.431   0.780 -0.4026 -0.3254 -0.6436
  265SOL    MW4 1135   4.415   3.504   0.817  0.2418 -0.2863 -0.1934
  266SOL     OW 1136   0.225   3.626   0.430 -0.5244 -0.5187  0.2134
  266SOL    HW2 1137   0.303   3.662   0.471 -0.9704  0.5377  0.1602
  266SOL    HW3 1138   0.236   3.531   0.436  2.1285 -0.4279 -2.4005
  266SOL    MW4 1139   0.237   3.618   0.436 -0.2333 -0.3674 -0.1384
  267SOL     OW 1140   0.210   3.748   0.752  0.1924 -0.6482  0.0989
  267SOL    HW2 1141   0.218   3.831   0.800  1.0103 -0.9736  0.5314
  267SOL    HW3 1142   0.290   3.743   0.700 -0.5323 -0.4661 -1.0519
  267SOL    MW4 1143   0.222   3.759   0.752  0.2047 -0.6669  0.0042
  268SOL     OW 1144   4.466   4.069   0.751 -0.1239 -0.5141 -0.1563
  268SOL    HW2 1145   4.400   4.005   0.777 -0.2586  0.3063  1.6094
  268SOL    HW3 1146   4.548   4.034   0.787  0.0540 -0.4639 -0.5141
  268SOL    MW4 1147   4.468   4.056   0.759 -0.1183 -0.3991  0.0294
  269SOL     OW 1148   0.026   4.325   0.864 -0.2240  0.0518 -0.8205
  269SOL    HW2 1149   0.022   4.323   0.960 -0.9405  0.1242 -0.8392
  269SOL    HW3 1150   0.006   4.236   0.837  3.0357 -0.7253 -0.8456
  269SOL    MW4 1151   0.022   4.313   0.873  0.1115 -0.0410 -0.8264
  270SOL     OW 1152   0.276   4.375   0.773  0.0716 -0.2379  0.1267
  270SOL    HW2 1153   0.196   4.355   0.822 -0.5424  0.6599 -0.5029
  270SOL    HW3 1154   0.256   4.350   0.683  0.2513  0.6129 -0.1590
  270SOL    MW4 1155   0.263   4.369   0.767  0.0143 -0.0076  0.0059
  271SOL     OW 1156   0.654   0.021   0.884  0.0450  0.4649  0.1575
  271SOL    HW2 1157   0.632   0.044   0.974 -0.4537  0.3075  0.0788
  271SOL    HW3 1158   0.585   0.061   0.831  0.9396  1.4732 -0.2522
  271SOL    MW4 1159   0.642   0.029   0.889  0.0972  0.5765  0.0930
  272SOL     OW 1160   0.442   0.159   0.768 -0.3988  0.2991  0.0443
  272SOL    HW2 1161   0.394   0.088   0.810  2.1422 -1.9194 -0.6772
  272SOL    HW3 1162   0.410   0.159   0.678 -1.8822  1.4607  0.5498
  272SOL    MW4 1163   0.431   0.150   0.762 -0.2593  0.1597  0.0158
  273SOL     OW 1164   0.485   0.420   0.883 -0.1232 -0.4682 -0.0265
  273SOL    HW2 1165   0.553   0.471   0.838 -0.5291 -0.0628 -0.1912
  273SOL    HW3 1166   0.485   0.336   0.837  0.0321 -0.3497 -0.2503
  273SOL    MW4 1167   0.494   0.416   0.871 -0.1563 -0.3991 -0.0778
  274SOL     OW 1168   0.694   0.524   0.731 -0.4485  0.0331 -0.4508
  274SOL    HW2 1169   0.764   0.463   0.757  1.4947  1.6923 -1.6186
  274SOL    HW3 1170   0.705   0.533   0.636 -1.5568  1.1724 -0.4775
  274SOL    MW4 1171   0.705   0.517   0.722 -0.3383  0.4023 -0.6084
  275SOL     OW 1172   0.709   0.798   0.824  0.0933  0.0205  0.1462
  275SOL    HW2 1173   0.636   0.846   0.784  0.1469  0.1386  0.1883
  275SOL    HW3 1174   0.696   0.707   0.797 -0.1412  0.0208  0.2605
  275SOL    MW4 1175   0.698   0.793   0.815  0.0694  0.0362  0.1669
  276SOL     OW 1176   0.483   0.926   0.732 -0.2368  0.3314 -0.4228
  276SOL    HW2 1177   0.468   1.006   0.781  2.4313  0.2638  0.6014
  276SOL    HW3 1178   0.404   0.873   0.746 -1.5591  2.3065 -0.2369
  276SOL    MW4 1179   0.471   0.930   0.740 -0.0592  0.5831 -0.2631
  277SOL     OW 1180   0.476   1.175   0.850 -1.2655 -0.0774 -0.1950
  277SOL    HW2 1181   0.567   1.201   0.834 -1.7793  1.6812 -0.3599
  277SOL    HW3 1182   0.427   1.213   0.777 -2.1702 -0.8309  0.0103
  277SOL    MW4 1183   0.482   1.184   0.838 -1.4527  0.0553 -0.1898
  278SOL     OW 1184   0.718   1.269   0.771 -0.5273  0.4315  0.5522
  278SOL    HW2 1185   0.720   1.357   0.809  0.1038  1.1669 -1.1566
  278SOL    HW3 1186   0.732   1.282   0.677  0.2335 -1.5451  0.3564
  278SOL    MW4 1187   0.720   1.282   0.764 -0.3436  0.2676  0.3009
  279SOL     OW 1188   0.680   1.534   0.829 -0.3784 -0.8387 -0.0062
  279SOL    HW2 1189   0.676   1.542   0.924 -0.6067  0.2210 -0.0998
  279SOL    HW3 1190   0.599   1.575   0.798 -0.6774 -1.8732 -0.6212
  279SOL    MW4 1191   0.669   1.540   0.837 -0.4479 -0.8353 -0.0997
  280SOL     OW 1192   0.460   1.684   0.740 -0.0381 -0.2528  0.0675
  280SOL    HW2 1193   0.455   1.769   0.783 -0.9949  0.1751 -0.8620
  280SOL    HW3 1194   0.483   1.704   0.649 -0.6876 -0.9453 -0.2574
  280SOL    MW4 1195   0.462   1.698   0.733 -0.2500 -0.2875 -0.0980
  281SOL     OW 1196   0.480   1.939   0.832  0.1991 -0.3811 -0.1011
  281SOL    HW2 1197   0.490   1.915   0.924 -0.0426 -1.1485 -0.2771
  281SOL    HW3 1198   0.389   1.968   0.824  0.2433 -0.2351 -0.0851
  281SOL    MW4 1199   0.469   1.940   0.843  0.1731 -0.4630 -0.1224
  282SOL     OW 1200   0.703   2.049   0.704 -0.2288  0.2706 -0.2457
  282SOL    HW2 1201   0.632   1.998   0.743 -0.2957  1.1835  0.8460
  282SOL    HW3 1202   0.706   2.020   0.613 -1.7810 -0.0141 -0.2224
  282SOL    MW4 1203   0.694   2.038   0.697 -0.4425  0.3533 -0.0986
  283SOL     OW 1204   0.644   2.301   0.806  0.2603  0.1167  0.1070
  283SOL    HW2 1205   0.644   2.268   0.897 -0.0528  0.9467  0.4080
  283SOL    HW3 1206   0.671   2.225   0.754  0.5040 -0.3534  0.9012
  283SOL    MW4 1207   0.648   2.286   0.811  0.2512  0.1640  0.2515
  284SOL     OW 1208   0.424   2.489   0.746 -0.1864 -0.5474 -0.2590
  284SOL    HW2 1209   0.495   2.427   0.765  0.3761  0.3613  0.6708
  284SOL    HW3 1210   0.424   2.496   0.651  1.7152  0.2470 -0.2433
  284SOL    MW4 1211   0.434   2.482   0.736  0.1387 -0.3226 -0.1342
  285SOL     OW 1212   0.462   2.752   0.874  0.1414  0.3982 -0.3504
  285SOL    HW2 1213   0.461   2.665   0.835  2.5985 -0.5168  1.5512
  285SOL    HW3 1214   0.379   2.792   0.845 -0.9380 -2.4675 -1.3812
  285SOL    MW4 1215   0.451   2.746   0.865  0.3231 -0.1006 -0.2355
  286SOL     OW 1216   0.661   2.896   0.766 -0.0139 -0.1169 -0.0618
  286SOL    HW2 1217   0.741   2.850   0.792 -0.0026  1.0344  2.0396
  286SOL    HW3 1218   0.591   2.841   0.801 -0.1688 -1.2446 -2.1017
  286SOL    MW4 1219   0.663   2.883   0.774 -0.0328 -0.1137 -0.0538
  287SOL     OW 1220   0.658   3.112   0.919  0.4924 -0.2126  0.0084
  287SOL    HW2 1221   0.582   3.159   0.885 -0.6396 -1.1741  1.1755
  287SOL    HW3 1222   0.666   3.035   0.863  0.5681 -0.1504 -0.0671
  287SOL    MW4 1223   0.649   3.108   0.907  0.3529 -0.3312  0.1524
  288SOL     OW 1224   0.444   3.236   0.799 -0.0813 -0.2641 -0.2349
  288SOL    HW2 1225   0.424   3.327   0.820 -0.8211 -0.4430 -0.1480
  288SOL    HW3 1226   0.362   3.189   0.816  0.1071 -0.8411 -0.9099
  288SOL    MW4 1227   0.431   3.242   0.804 -0.1540 -0.3638 -0.3125
  289SOL     OW 1228   0.384   3.516   0.855 -0.3603  0.4911 -0.7487
  289SOL    HW2 1229   0.384   3.513   0.950  0.1340  2.1707 -0.6778
  289SOL    HW3 1230   0.307   3.569   0.833  0.5010  1.5896 -1.1981
  289SOL    MW4 1231   0.374   3.523   0.864 -0.1814  0.8578 -0.7986
  290SOL     OW 1232   0.624   3.627   0.788  0.0156 -0.0056 -0.2185
  290SOL    HW2 1233   0.540   3.593   0.820  0.2754 -0.1701  0.2899
  290SOL    HW3 1234   0.630   3.716   0.825  0.5664 -0.3959  0.6461
  290SOL    MW4 1235   0.614   3.635   0.797  0.1225 -0.0789 -0.0374
  291SOL     OW 1236   0.629   3.905   0.855 -0.0125 -0.3144 -0.4307
  291SOL    HW2 1237   0.702   3.948   0.809 -0.4384  0.7472 -0.1338
  291SOL    HW3 1238   0.561   3.972   0.858  0.2624 -0.0834  2.4157
  291SOL    MW4 1239   0.630   3.919   0.849 -0.0324 -0.1440 -0.0160
  292SOL     OW 1240   0.224   3.993   0.862  0.2072 -0.1883 -0.3698
  292SOL    HW2 1241   0.305   4.040   0.842  0.9056 -1.5667 -0.8890
  292SOL    HW3 1242   0.220   3.991   0.957 -0.0554  1.2684 -0.3327
  292SOL    MW4 1243   0.234   3.999   0.872  0.2647 -0.1781 -0.4334
  293SOL     OW 1244   0.462   4.146   0.887 -0.5497  0.4227  0.1934
  293SOL    HW2 1245   0.466   4.183   0.976  1.5820  1.0863 -0.1668
  293SOL    HW3 1246   0.455   4.223   0.830  0.4669  0.1011 -0.3639
  293SOL    MW4 1247   0.461   4.161   0.891 -0.1343  0.4683  0.0723
  294SOL     OW 1248   0.659   4.419   0.876  0.0378 -0.0936 -0.7202
  294SOL    HW2 1249   0.616   4.378   0.951  1.7672  0.6997  0.7438
  294SOL    HW3 1250   0.637   4.512   0.883  0.6322  0.0616 -0.9014
  294SOL    MW4 1251   0.650   4.426   0.887  0.3444  0.0315 -0.5510
  295SOL     OW 1252   1.166   4.624   0.895 -0.2231 -0.2136  0.1052
  295SOL    HW2 1253   1.227   4.687   0.855  0.2965  0.3431  1.7455
  295SOL    HW3 1254   1.080   4.652   0.863  0.2355 -0.1572 -1.1162
  295SOL    MW4 1255   1.163   4.636   0.885 -0.0939 -0.1326  0.1605
  296SOL     OW 1256   0.929   0.056   0.807  0.4814  0.2060  0.4040
  296SOL    HW2 1257   0.934   0.150   0.822  2.2300 -0.1319  2.0915
  296SOL    HW3 1258   0.842   0.032   0.838  0.1964  1.1834  0.3939
  296SOL    MW4 1259   0.918   0.065   0.813  0.6745  0.2904  0.6253
  297SOL     OW 1260   0.904   0.356   0.813  0.1717  0.0955  0.2644
  297SOL    HW2 1261   0.907   0.356   0.908  0.8287  2.1123  0.2581
  297SOL    HW3 1262   0.984   0.401   0.787 -1.3058  1.9272 -1.1963
  297SOL    MW4 1263   0.915   0.362   0.822  0.0634  0.6032  0.0708
  298SOL     OW 1264   1.117   0.483   0.704 -0.1647 -0.2237  0.6167
  298SOL    HW2 1265   1.197   0.451   0.745 -0.5579 -1.8129  0.2045
  298SOL    HW3 1266   1.123   0.451   0.613 -0.3985  1.2196  0.0915
  298SOL    MW4 1267   1.128   0.474   0.697 -0.2474 -0.2430  0.4931
  299SOL     OW 1268   1.178   0.751   0.799  0.3415  0.6130 -0.1407
  299SOL    HW2 1269   1.163   0.746   0.893  2.1658 -1.4347  0.0760
  299SOL    HW3 1270   1.162   0.663   0.766 -0.4991  1.3555 -1.7900
  299SOL    MW4 1271   1.174   0.739   0.807  0.4714  0.4408 -0.3296
  300SOL     OW 1272   0.949   0.881   0.686  0.0012 -0.0236 -0.0332
  300SOL    HW2 1273   1.022   0.835   0.728  0.5462 -0.3418 -1.3165
  300SOL    HW3 1274   0.871   0.841   0.725  0.4972  0.3458  1.3826
  300SOL    MW4 1275   0.948   0.869   0.697  0.1386 -0.0168 -0.0157
  301SOL     OW 1276   0.951   1.129   0.840 -0.0840  0.4631 -0.3752
  301SOL    HW2 1277   0.951   1.054   0.781 -0.4292  0.5045 -0.4280
  301SOL    HW3 1278   0.871   1.177   0.818 -0.1894  0.5054  0.0847
  301SOL    MW4 1279   0.940   1.125   0.829 -0.1434  0.4741 -0.3216
  302SOL     OW 1280   1.147   1.287   0.767  0.0756  0.0763 -0.2286
  302SOL    HW2 1281   1.083   1.235   0.814  0.9090 -2.1459 -1.4905
  302SOL    HW3 1282   1.126   1.274   0.674  1.5688  0.2933 -0.6209
  302SOL    MW4 1283   1.136   1.279   0.761  0.3825 -0.1884 -0.4469
  303SOL     OW 1284   1.117   1.542   0.870 -0.2732  0.1131  0.2822
  303SOL    HW2 1285   1.048   1.583   0.818  2.0335  1.5744 -1.7718
  303SOL    HW3 1286   1.132   1.457   0.829  1.5944  1.2928 -1.6504
  303SOL    MW4 1287   1.110   1.536   0.858  0.2775  0.4616 -0.2438
  304SOL     OW 1288   0.914   1.659   0.722  0.3345  0.2088  0.0338
  304SOL    HW2 1289   0.910   1.742   0.771  0.4798 -0.7513  1.7076
  304SOL    HW3 1290   0.832   1.615   0.744 -0.2063  0.3228 -1.6584
  304SOL    MW4 1291   0.903   1.664   0.731  0.2823  0.0972  0.0314
  305SOL     OW 1292   0.918   1.893   0.849 -0.4103  0.2787  0.3519
  305SOL    HW2 1293   0.917   1.905   0.944 -1.4622  0.5656  0.3079
  305SOL    HW3 1294   0.842   1.942   0.818 -0.2843 -0.1286 -0.6033
  305SOL    MW4 1295   0.908   1.901   0.857 -0.5325  0.2630  0.2200
  306SOL     OW 1296   1.130   2.028   0.732  0.0306 -0.6762  0.6000
  306SOL    HW2 1297   1.119   2.114   0.773  1.2234 -0.4482  0.4395
  306SOL    HW3 1298   1.056   1.977   0.765 -1.6876  0.9119 -0.6478
  306SOL    MW4 1299   1.119   2.032   0.741 -0.0386 -0.4365  0.4143
  307SOL     OW 1300   1.075   2.293   0.830  0.1363 -0.2334 -0.0936
  307SOL    HW2 1301   1.052   2.293   0.923 -0.0050 -1.9655 -0.0982
  307SOL    HW3 1302   1.167   2.317   0.828 -0.0482  0.5411  0.4359
  307SOL    MW4 1303   1.084   2.296   0.842  0.0932 -0.3600 -0.0244
  308SOL     OW 1304   0.865   2.451   0.744  0.1664  0.6507  0.3591
  308SOL    HW2 1305   0.944   2.408   0.777  0.5860  2.1092  1.3127
  308SOL    HW3 1306   0.793   2.402   0.783  0.6256  0.4101  0.9216
  308SOL    MW4 1307   0.866   2.439   0.753  0.2823  0.8113  0.5592
  309SOL     OW 1308   0.886   2.726   0.818  0.4585  0.4754 -0.3280
  309SOL    HW2 1309   0.888   2.709   0.912  2.3420 -0.3002 -0.4676
  309SOL    HW3 1310   0.871   2.639   0.779  0.0504  0.7364 -0.7547
  309SOL    MW4 1311   0.884   2.712   0.825  0.6532  0.4075 -0.4027
  310SOL     OW 1312   1.146   2.740   0.714  0.3507  0.1766 -0.0919
  310SOL    HW2 1313   1.064   2.708   0.752  0.2254  1.2497  0.5681
  310SOL    HW3 1314   1.118   2.794   0.640  0.4994 -0.1764 -0.4044
  310SOL    MW4 1315   1.131   2.743   0.709  0.3538  0.2716 -0.0461
  311SOL     OW 1316   1.028   3.026   0.837  0.4367 -0.2259  0.1390
  311SOL    HW2 1317   0.960   3.079   0.798  0.7013 -0.4815 -0.6824
  311SOL    HW3 1318   1.003   2.935   0.817  0.6016 -0.3580  0.5150
  311SOL    MW4 1319   1.016   3.021   0.829  0.4934 -0.2768  0.0802
  312SOL     OW 1320   0.836   3.213   0.763  0.1089 -0.3420 -0.4602
  312SOL    HW2 1321   0.840   3.304   0.794  0.6277 -0.6033  0.2591
  312SOL    HW3 1322   0.775   3.170   0.823  0.0988 -0.5481 -0.6177
  312SOL    MW4 1323   0.828   3.220   0.775  0.1761 -0.4034 -0.3861
  313SOL     OW 1324   0.837   3.464   0.853  0.1085  0.2195  0.0180
  313SOL    HW2 1325   0.915   3.516   0.832  0.1847  0.0788 -0.0443
  313SOL    HW3 1326   0.764   3.518   0.823  0.1527  0.6131  0.6106
  313SOL    MW4 1327   0.838   3.478   0.846  0.1244  0.2530  0.0880
  314SOL     OW 1328   1.054   3.634   0.774 -0.2244  0.0152  0.0991
  314SOL    HW2 1329   1.123   3.572   0.799 -0.2559 -0.0393  0.0515
  314SOL    HW3 1330   1.030   3.609   0.685  0.8839  1.1181 -0.5160
  314SOL    MW4 1331   1.060   3.622   0.766 -0.0824  0.1535  0.0116
  315SOL     OW 1332   1.103   3.889   0.882 -0.2144 -0.2961 -0.0554
  315SOL    HW2 1333   1.119   3.872   0.975 -0.1595 -0.6703 -0.1307
  315SOL    HW3 1334   1.101   3.802   0.842 -0.0768 -0.1280 -0.4321
  315SOL    MW4 1335   1.105   3.875   0.889 -0.1889 -0.3233 -0.1150
  316SOL     OW 1336   0.879   4.016   0.768  0.0117 -0.0517  0.4041
  316SOL    HW2 1337   0.885   4.109   0.790  0.9502 -0.0588  0.1988
  316SOL    HW3 1338   0.958   3.977   0.805 -0.3528 -0.7635  0.4454
  316SOL    MW4 1339   0.890   4.023   0.776  0.0874 -0.1469  0.3824
  317SOL     OW 1340   0.909   4.273   0.879 -0.3718  0.0451  0.5298
  317SOL    HW2 1341   0.988   4.319   0.853 -1.2458  0.7311 -0.9496
  317SOL    HW3 1342   0.839   4.338   0.872 -1.3879 -1.0948 -0.1839
  317SOL    MW4 1343   0.910   4.287   0.875 -0.6212 -0.0148  0.2405
  318SOL     OW 1344   1.130   4.382   0.752 -0.4044 -0.0106  0.1012
  318SOL    HW2 1345   1.207   4.339   0.789  0.6008  0.4943 -1.3536
  318SOL    HW3 1346   1.121   4.463   0.803  0.7680  0.5198 -0.5153
  318SOL    MW4 1347   1.139   4.387   0.764 -0.1171  0.1254 -0.1720
  319SOL     OW 1348   1.571   4.641   0.826  0.2289  0.6101  0.2687
  319SOL    HW2 1349   1.575   4.624   0.921  0.8686 -0.5468  0.0536
  319SOL    HW3 1350   1.491   4.690   0.814 -0.7347 -0.6738  1.2284
  319SOL    MW4 1351   1.561   4.645   0.837  0.1860  0.2885  0.3670
  320SOL     OW 1352   1.338   0.124   0.763 -0.2199 -0.2297 -0.2747
  320SOL    HW2 1353   1.354   0.215   0.786  2.7344 -0.8701  0.4283
  320SOL    HW3 1354   1.326   0.124   0.668 -0.6996  0.9112 -0.2264
  320SOL    MW4 1355   1.338   0.136   0.754  0.1066 -0.1636 -0.1756
  321SOL     OW 1356   1.359   0.385   0.835 -0.0733  0.4945  0.4785
  321SOL    HW2 1357   1.356   0.396   0.930  1.4669 -0.2190  0.6187
  321SOL    HW3 1358   1.402   0.464   0.803  1.2974 -0.2205  0.5561
  321SOL    MW4 1359   1.364   0.397   0.843  0.3108  0.3060  0.5072
  322SOL     OW 1360   1.512   0.577   0.707 -0.2341  0.1291 -0.1292
  322SOL    HW2 1361   1.555   0.651   0.749  1.7090 -0.0424 -1.6771
  322SOL    HW3 1362   1.574   0.505   0.718 -0.8376 -0.5420 -1.0586
  322SOL    MW4 1363   1.526   0.577   0.714 -0.0572  0.0179 -0.4561
  323SOL     OW 1364   1.593   0.802   0.824 -0.0682 -0.3555 -0.3577
  323SOL    HW2 1365   1.684   0.827   0.807 -0.1865  0.7226  0.5582
  323SOL    HW3 1366   1.542   0.872   0.784 -0.4446  0.0411  0.8090
  323SOL    MW4 1367   1.599   0.815   0.817 -0.1334 -0.1609 -0.0830
  324SOL     OW 1368   1.367   0.942   0.711  0.1016  0.5056  0.1463
  324SOL    HW2 1369   1.363   1.010   0.779 -0.0660 -0.1868  0.8344
  324SOL    HW3 1370   1.312   0.871   0.745  0.8837 -0.2811 -0.2189
  324SOL    MW4 1371   1.359   0.942   0.725  0.1827  0.3104  0.1889
  325SOL     OW 1372   1.375   1.167   0.869  0.0998  0.1627  0.4075
  325SOL    HW2 1373   1.450   1.204   0.821  0.3294  0.0902  0.7085
  325SOL    HW3 1374   1.298   1.204   0.825  0.2307 -2.0432 -1.7482
  325SOL    MW4 1375   1.375   1.177   0.857  0.1473 -0.1379  0.1628
  326SOL     OW 1376   1.568   1.324   0.741  0.0456  0.1112  0.1421
  326SOL    HW2 1377   1.560   1.408   0.786 -0.0119  0.5894 -0.7465
  326SOL    HW3 1378   1.579   1.347   0.649  0.2354 -0.8523 -0.0842
  326SOL    MW4 1379   1.568   1.338   0.735  0.0631  0.0471 -0.0049
  327SOL     OW 1380   1.556   1.551   0.885 -0.0783  0.7583 -0.2517
  327SOL    HW2 1381   1.545   1.519   0.974 -1.9975 -0.9736 -1.0846
  327SOL    HW3 1382   1.468   1.577   0.858  0.3772  0.6285 -1.8864
  327SOL    MW4 1383   1.543   1.550   0.893 -0.2714  0.5128 -0.5773
  328SOL     OW 1384   1.333   1.647   0.766 -0.0171 -0.2316  0.0164
  328SOL    HW2 1385   1.342   1.739   0.790 -0.3647 -0.7917  2.3478
  328SOL    HW3 1386   1.254   1.618   0.811  0.4539 -1.8423 -0.1633
  328SOL    MW4 1387   1.324   1.655   0.775 -0.0008 -0.5181  0.3002
  329SOL     OW 1388   1.364   1.904   0.846 -0.2335 -0.1715 -0.1550
  329SOL    HW2 1389   1.363   1.915   0.941  2.1014  0.2722 -0.1516
  329SOL    HW3 1390   1.293   1.960   0.814 -0.7440  0.0183  1.2690
  329SOL    MW4 1391   1.354   1.913   0.854  0.0072 -0.0880  0.0334
  330SOL     OW 1392   1.578   2.046   0.708  0.1390  0.0811  0.5310
  330SOL    HW2 1393   1.503   2.006   0.751  0.8410 -2.7465 -0.7272
  330SOL    HW3 1394   1.557   2.044   0.615  1.7768 -0.8247  0.1555
  330SOL    MW4 1395   1.566   2.040   0.702  0.4478 -0.4115  0.3154
  331SOL     OW 1396   1.592   2.323   0.839  0.3581  0.1928  0.0666
  331SOL    HW2 1397   1.498   2.331   0.818  0.9361  1.3030 -2.2408
  331SOL    HW3 1398   1.622   2.250   0.785  1.1105  0.7102 -0.2136
  331SOL    MW4 1399   1.583   2.315   0.829  0.5337  0.4075 -0.2747
  332SOL     OW 1400   1.343   2.357   0.743  0.5182  0.3828 -0.6542
  332SOL    HW2 1401   1.365   2.449   0.760  3.6621 -0.3023 -0.5591
  332SOL    HW3 1402   1.350   2.348   0.648 -1.0495  0.5202 -0.7893
  332SOL    MW4 1403   1.347   2.368   0.732  0.7262  0.3107 -0.6594
  333SOL     OW 1404   1.387   2.625   0.803 -0.6640 -0.2825  0.3160
  333SOL    HW2 1405   1.397   2.650   0.895 -0.2286 -0.9848  0.4660
  333SOL    HW3 1406   1.317   2.681   0.770  0.5437  1.3979  0.5333
  333SOL    MW4 1407   1.379   2.636   0.811 -0.4473 -0.1535  0.3645
  334SOL     OW 1408   1.861   2.861   0.486  0.5877 -0.2144  0.0367
  334SOL    HW2 1409   1.936   2.906   0.447 -0.7820  0.1816 -2.2103
  334SOL    HW3 1410   1.789   2.874   0.424 -1.9031  1.0650  3.0171
  334SOL    MW4 1411   1.861   2.869   0.473  0.0784  0.0069  0.1335
  335SOL     OW 1412   1.557   3.002   0.784 -0.0971  0.6054  0.3434
  335SOL    HW2 1413   1.574   3.035   0.872  0.1083  1.4298 -0.0019
  335SOL    HW3 1414   1.471   3.038   0.761 -0.8700 -0.8909  0.8114
  335SOL    MW4 1415   1.548   3.011   0.792 -0.1721  0.5169  0.3595
  336SOL     OW 1416   1.300   3.127   0.748 -0.2278  0.1281 -0.0840
  336SOL    HW2 1417   1.251   3.088   0.820 -1.6426  1.1525 -0.4736
  336SOL    HW3 1418   1.268   3.083   0.670  0.9502 -0.6313 -0.1518
  336SOL    MW4 1419   1.289   3.116   0.748 -0.2589  0.1631 -0.1444
  337SOL     OW 1420   1.258   3.436   0.820 -0.2302  0.0578 -0.0903
  337SOL    HW2 1421   1.296   3.447   0.907 -0.3495  0.4335 -0.0875
  337SOL    HW3 1422   1.267   3.342   0.802  1.1207  0.2206 -0.2826
  337SOL    MW4 1423   1.264   3.425   0.829 -0.0677  0.1287 -0.1153
  338SOL     OW 1424   1.618   3.652   0.597 -0.0232  0.0976  0.2922
  338SOL    HW2 1425   1.668   3.582   0.639 -0.0316  0.0358  0.1991
  338SOL    HW3 1426   1.683   3.712   0.562 -0.0000 -0.5395 -0.7767
  338SOL    MW4 1427   1.633   3.651   0.598 -0.0212  0.0052  0.1389
  339SOL     OW 1428   1.550   3.858   0.803 -0.3107  0.4612  0.0335
  339SOL    HW2 1429   1.466   3.892   0.771 -0.6060 -1.4231 -1.2960
  339SOL    HW3 1430   1.562   3.776   0.755  0.6834 -0.9816  2.6552
  339SOL    MW4 1431   1.540   3.852   0.792 -0.2185  0.0224  0.2039
  340SOL     OW 1432   1.315   3.986   0.738  0.0762  0.2952 -0.2902
  340SOL    HW2 1433   1.239   3.961   0.790  1.1030 -0.4606  0.8771
  340SOL    HW3 1434   1.279   4.009   0.653 -1.5471  0.7434  0.4924
  340SOL    MW4 1435   1.301   3.986   0.734 -0.0025  0.2549 -0.0329
  341SOL     OW 1436   1.375   4.268   0.827  0.0627 -0.4303  0.3709
  341SOL    HW2 1437   1.449   4.311   0.784  0.5106 -0.4585  1.0931
  341SOL    HW3 1438   1.368   4.183   0.784  0.7252 -0.5988  0.5809
  341SOL    MW4 1439   1.384   4.262   0.816  0.2092 -0.4563  0.4939
  342SOL     OW 1440   1.589   4.397   0.703  0.6522  0.0272  0.1863
  342SOL    HW2 1441   1.673   4.360   0.730  0.4712  0.2199  1.0515
  342SOL    HW3 1442   1.589   4.485   0.741 -0.3429 -0.3239  1.0394
  342SOL    MW4 1443   1.600   4.404   0.712  0.4970  0.0057  0.4130
  343SOL     OW 1444   2.012   4.612   0.756  0.0653  0.0570 -0.5639
  343SOL    HW2 1445   2.081   4.678   0.750  0.4570 -0.3151 -0.1585
  343SOL    HW3 1446   2.056   4.529   0.743 -0.5779 -0.0721 -1.9788
  343SOL    MW4 1447   2.027   4.610   0.753  0.0322 -0.0091 -0.6971
  344SOL     OW 1448   1.794   0.123   0.755  0.1751  0.7780  0.3507
  344SOL    HW2 1449   1.884   0.089   0.749  0.3943  1.2851  0.8298
  344SOL    HW3 1450   1.741   0.046   0.776  0.3174  0.2252 -1.2490
  344SOL    MW4 1451   1.799   0.108   0.757  0.2228  0.7720  0.2028
  345SOL     OW 1452   1.729   0.392   0.738  0.1324  0.1080  0.4208
  345SOL    HW2 1453   1.740   0.298   0.754 -2.5992 -0.0223  1.8782
  345SOL    HW3 1454   1.819   0.426   0.731  1.1630 -2.5103  0.3766
  345SOL    MW4 1455   1.743   0.384   0.739 -0.0921 -0.2547  0.6072
  346SOL     OW 1456   1.978   0.488   0.683  0.1060  0.2420 -0.6462
  346SOL    HW2 1457   2.046   0.445   0.734 -0.0621  1.4556  0.6270
  346SOL    HW3 1458   2.020   0.506   0.599 -0.0418 -3.0158 -1.4891
  346SOL    MW4 1459   1.993   0.485   0.679  0.0643 -0.0277 -0.5894
  347SOL     OW 1460   2.089   0.746   0.822  0.1799 -0.2534 -0.0619
  347SOL    HW2 1461   2.150   0.793   0.766 -0.1183  1.0364  0.6902
  347SOL    HW3 1462   2.059   0.673   0.768  0.7989  0.2936 -1.1647
  347SOL    MW4 1463   2.093   0.742   0.807  0.2224 -0.0110 -0.1082
  348SOL     OW 1464   1.835   0.917   0.768 -0.1658 -0.1320  0.0848
  348SOL    HW2 1465   1.834   1.005   0.807 -1.2400 -0.4048  0.6832
  348SOL    HW3 1466   1.915   0.876   0.802  1.6419  1.4498 -2.0858
  348SOL    MW4 1467   1.846   0.923   0.777 -0.0689  0.0407 -0.1227
  349SOL     OW 1468   1.796   1.174   0.842  0.2352  0.1416  0.2497
  349SOL    HW2 1469   1.877   1.202   0.799  0.6807 -1.7498 -0.1883
  349SOL    HW3 1470   1.729   1.234   0.808  0.6102 -1.1770 -2.9682
  349SOL    MW4 1471   1.798   1.186   0.832  0.3434 -0.2819 -0.2326
  350SOL     OW 1472   2.020   1.302   0.677 -0.6715  0.1370  0.3447
  350SOL    HW2 1473   2.089   1.238   0.694 -0.6299  0.3792  1.0941
  350SOL    HW3 1474   1.984   1.276   0.592  0.8243  0.4436 -0.3935
  350SOL    MW4 1475   2.025   1.290   0.668 -0.4685  0.2096  0.3462
  351SOL     OW 1476   2.027   1.545   0.861 -0.0217 -0.3390  0.5881
  351SOL    HW2 1477   2.114   1.583   0.845 -0.6772  0.7728 -0.4395
  351SOL    HW3 1478   2.018   1.477   0.794  0.4817 -1.2223  1.3915
  351SOL    MW4 1479   2.038   1.541   0.850 -0.0417 -0.3089  0.5586
  352SOL     OW 1480   1.779   1.674   0.812  0.2788 -0.9612 -0.7564
  352SOL    HW2 1481   1.857   1.634   0.850  0.1787 -1.4378 -1.0525
  352SOL    HW3 1482   1.707   1.618   0.840 -0.1932  0.5379  1.1012
  352SOL    MW4 1483   1.780   1.662   0.821  0.2034 -0.8264 -0.5504
  353SOL     OW 1484   1.775   1.935   0.880  0.5009  0.1408 -0.2257
  353SOL    HW2 1485   1.760   1.846   0.849  0.4436 -0.2616  0.9388
  353SOL    HW3 1486   1.714   1.989   0.829 -0.0653 -0.5906 -0.3306
  353SOL    MW4 1487   1.765   1.930   0.869  0.4187 -0.0088 -0.0859
  354SOL     OW 1488   2.017   2.061   0.756  0.5553  0.4497  0.4245
  354SOL    HW2 1489   2.019   2.152   0.787 -0.5641  0.7897 -0.4648
  354SOL    HW3 1490   1.951   2.019   0.811  0.2282  0.4674  0.0424
  354SOL    MW4 1491   2.009   2.068   0.768  0.3645  0.4966  0.2568
  355SOL     OW 1492   2.014   2.337   0.840 -0.3565  0.2636  0.1128
  355SOL    HW2 1493   1.994   2.329   0.934  0.8692  1.5259  0.5072
  355SOL    HW3 1494   1.943   2.389   0.805 -2.5942 -2.9637 -0.3458
  355SOL    MW4 1495   2.002   2.343   0.848 -0.4902  0.0043  0.1043
  356SOL     OW 1496   1.799   2.466   0.730 -0.3139  0.2401  0.2756
  356SOL    HW2 1497   1.720   2.433   0.772 -0.8979  1.1822 -0.0485
  356SOL    HW3 1498   1.815   2.405   0.658 -1.4722  0.7132 -0.4180
  356SOL    MW4 1499   1.790   2.454   0.726 -0.5440  0.4268  0.1413
  357SOL     OW 1500   1.595   2.751   0.673  0.2401  0.0755 -0.0798
  357SOL    HW2 1501   1.525   2.700   0.715  0.2091  0.2656  0.1054
  357SOL    HW3 1502   1.593   2.835   0.719  1.0999 -0.1871  0.4471
  357SOL    MW4 1503   1.585   2.755   0.685  0.3495  0.0658  0.0141
  358SOL     OW 1504   1.902   2.757   0.817  0.3543  0.0341 -0.3947
  358SOL    HW2 1505   1.919   2.851   0.811 -0.1803  0.1618  0.0573
  358SOL    HW3 1506   1.986   2.719   0.844  0.1976  0.5460  0.8740
  358SOL    MW4 1507   1.916   2.764   0.820  0.2632  0.1187 -0.1677
  359SOL     OW 1508   1.982   3.015   0.783  0.6936  0.4594  0.2005
  359SOL    HW2 1509   1.913   3.070   0.746  1.0288  0.5330 -0.3072
  359SOL    HW3 1510   1.993   3.048   0.872 -1.7617 -1.2281  1.1865
  359SOL    MW4 1511   1.974   3.026   0.790  0.4138  0.2463  0.2636
  360SOL     OW 1512   1.754   3.175   0.687 -0.3353  0.3458  0.0806
  360SOL    HW2 1513   1.675   3.127   0.712 -0.0088 -1.1189 -1.5479
  360SOL    HW3 1514   1.736   3.207   0.598  0.8471  0.0545 -0.2843
  360SOL    MW4 1515   1.741   3.172   0.678 -0.1361  0.1142 -0.1823
  361SOL     OW 1516   1.775   3.479   0.769 -0.4949  0.3955  0.0729
  361SOL    HW2 1517   1.790   3.484   0.864 -0.8285  0.0674  0.1431
  361SOL    HW3 1518   1.764   3.386   0.751 -0.6825  0.4784 -0.2475
  361SOL    MW4 1519   1.775   3.468   0.779 -0.5636  0.3631  0.0399
  362SOL     OW 1520   2.038   3.567   0.703 -0.5243 -0.3846  0.5214
  362SOL    HW2 1521   2.048   3.655   0.740 -0.3142  0.0984 -0.6652
  362SOL    HW3 1522   1.955   3.535   0.739 -1.4916  0.9981 -0.3951
  362SOL    MW4 1523   2.028   3.574   0.712 -0.6244 -0.1383  0.2439
  363SOL     OW 1524   2.018   3.825   0.812  0.3340  0.2563  0.3103
  363SOL    HW2 1525   2.013   3.808   0.906  0.7294  2.2458  0.7193
  363SOL    HW3 1526   1.935   3.869   0.791 -0.0657 -0.8366 -0.4198
  363SOL    MW4 1527   2.006   3.829   0.822  0.3335  0.3743  0.2679
  364SOL     OW 1528   1.786   3.985   0.736  0.2990 -0.0993  0.3825
  364SOL    HW2 1529   1.710   3.945   0.778  0.8718 -0.3298  1.2145
  364SOL    HW3 1530   1.769   3.976   0.642 -1.4954  1.3951  0.5459
  364SOL    MW4 1531   1.774   3.978   0.729  0.1378  0.0672  0.5139
  365SOL     OW 1532   1.820   4.252   0.779  0.2111  0.1141 -0.3026
  365SOL    HW2 1533   1.823   4.250   0.875 -0.3974  0.8535 -0.2635
  365SOL    HW3 1534   1.804   4.161   0.753  0.8424 -0.1674  0.2763
  365SOL    MW4 1535   1.818   4.240   0.788  0.2141  0.1745 -0.2211
  366SOL     OW 1536   2.087   4.351   0.681 -0.2811  0.5526 -0.5229
  366SOL    HW2 1537   2.002   4.316   0.708 -0.7450  0.9095 -1.4856
  366SOL    HW3 1538   2.100   4.315   0.593  0.9076 -0.0949 -0.0949
  366SOL    MW4 1539   2.078   4.341   0.673 -0.1857  0.5145 -0.5935
  367SOL     OW 1540   2.478   0.009   0.835  0.3382  0.0976 -0.1170
  367SOL    HW2 1541   2.456   0.021   0.927 -2.5026 -0.3272 -0.6766
  367SOL    HW3 1542   2.480  -0.086   0.823  0.0819  0.1511 -0.6070
  367SOL    MW4 1543   2.475  -0.002   0.845 -0.0703  0.0486 -0.2555
  368SOL     OW 1544   2.235   0.122   0.738 -0.0363  0.2155 -0.3492
  368SOL    HW2 1545   2.322   0.087   0.758 -0.4429  0.4040  1.8224
  368SOL    HW3 1546   2.240   0.148   0.646  1.8547 -0.8004 -0.5525
  368SOL    MW4 1547   2.247   0.121   0.728  0.1595  0.1064 -0.0895
  369SOL     OW 1548   2.186   0.397   0.840 -0.7232 -0.4063 -0.1513
  369SOL    HW2 1549   2.264   0.434   0.797  0.3953 -1.0877  1.2565
  369SOL    HW3 1550   2.184   0.306   0.811 -2.4330  0.2246 -2.1480
  369SOL    MW4 1551   2.196   0.390   0.830 -0.8013 -0.4130 -0.2289
  370SOL     OW 1552   2.402   0.528   0.715  0.3191 -0.0926  0.1189
  370SOL    HW2 1553   2.482   0.475   0.714 -0.0489 -0.6329 -0.8288
  370SOL    HW3 1554   2.387   0.550   0.623  0.7537  2.1010  0.5514
  370SOL    MW4 1555   2.411   0.524   0.703  0.3281  0.1255  0.0510
  371SOL     OW 1556   2.460   0.758   0.834 -0.2103  0.0648 -0.4562
  371SOL    HW2 1557   2.549   0.783   0.811  0.8359 -0.0891  3.1724
  371SOL    HW3 1558   2.446   0.675   0.790  2.2120 -0.9507  0.6175
  371SOL    MW4 1559   2.470   0.751   0.825  0.2472 -0.0896  0.1641
  372SOL     OW 1560   2.287   0.896   0.681  0.1262 -0.0061 -0.0654
  372SOL    HW2 1561   2.364   0.855   0.721  0.2008  0.7841  0.6230
  372SOL    HW3 1562   2.318   0.930   0.597  0.1547 -1.0085 -0.4705
  372SOL    MW4 1563   2.301   0.895   0.675  0.1397 -0.0342 -0.0280
  373SOL     OW 1564   2.199   1.121   0.798  0.4794  0.2745 -0.0686
  373SOL    HW2 1565   2.199   1.116   0.894 -1.8845  0.8290 -0.0258
  373SOL    HW3 1566   2.237   1.037   0.770  2.4786  0.6656  1.3469
  373SOL    MW4 1567   2.204   1.109   0.807  0.4313  0.3992  0.1237
  374SOL     OW 1568   2.435   1.268   0.746  0.4240  0.3905 -0.0525
  374SOL    HW2 1569   2.372   1.202   0.775  0.1641 -0.1991 -1.8725
  374SOL    HW3 1570   2.399   1.301   0.664  1.8844  0.9129 -0.4976
  374SOL    MW4 1571   2.422   1.263   0.739  0.5822  0.3816 -0.3514
  375SOL     OW 1572   2.470   1.505   0.866  0.0516  0.0272 -0.1873
  375SOL    HW2 1573   2.552   1.527   0.821  0.1910 -1.3383 -0.6207
  375SOL    HW3 1574   2.446   1.419   0.832 -1.9449  0.7300 -0.5637
  375SOL    MW4 1575   2.478   1.496   0.856 -0.1936 -0.0601 -0.2941
  376SOL     OW 1576   2.258   1.675   0.792 -0.2692  0.2367  0.0556
  376SOL    HW2 1577   2.332   1.629   0.832 -0.5710  0.9378  1.4225
  376SOL    HW3 1578   2.271   1.663   0.698  0.7677 -0.9143  0.3383
  376SOL    MW4 1579   2.270   1.667   0.785 -0.1721  0.1773  0.2732
  377SOL     OW 1580   2.280   1.971   0.818  0.4640  0.3670 -0.4460
  377SOL    HW2 1581   2.272   1.876   0.808 -0.1154  0.3676  0.0112
  377SOL    HW3 1582   2.200   2.006   0.778  0.2062  0.6043  0.2683
  377SOL    MW4 1583   2.268   1.963   0.812  0.3536  0.3985 -0.2914
  378SOL     OW 1584   2.512   2.054   0.705 -0.4066  0.3093 -0.4260
  378SOL    HW2 1585   2.433   2.021   0.748 -0.1343 -0.0478 -0.1923
  378SOL    HW3 1586   2.481   2.088   0.622 -1.1493  2.2803  0.6301
  378SOL    MW4 1587   2.498   2.054   0.700 -0.4687  0.5221 -0.2558
  379SOL     OW 1588   2.468   2.315   0.811 -0.0013  0.0884 -0.3183
  379SOL    HW2 1589   2.551   2.353   0.782 -0.2673 -0.7365 -2.2126
  379SOL    HW3 1590   2.476   2.222   0.794 -0.7685 -0.2060  0.8631
  379SOL    MW4 1591   2.480   2.308   0.805 -0.1378 -0.0594 -0.4124
  380SOL     OW 1592   2.220   2.392   0.658  0.3292  0.0336  0.2874
  380SOL    HW2 1593   2.311   2.384   0.688  0.5259  0.9539 -0.0351
  380SOL    HW3 1594   2.168   2.383   0.738  0.6567 -1.3452  0.3522
  380SOL    MW4 1595   2.226   2.390   0.673  0.3982 -0.0269  0.2534
  381SOL     OW 1596   2.184   2.652   0.873  0.4865 -0.1559  0.7154
  381SOL    HW2 1597   2.197   2.659   0.967  1.0902 -1.9449  0.7728
  381SOL    HW3 1598   2.175   2.559   0.856 -1.0767  0.2302 -0.8167
  381SOL    MW4 1599   2.184   2.641   0.883  0.3600 -0.3412  0.5209
  382SOL     OW 1600   2.428   2.768   0.766 -0.4591  0.1474 -0.0451
  382SOL    HW2 1601   2.494   2.717   0.815 -0.5616 -1.9449 -1.9807
  382SOL    HW3 1602   2.344   2.740   0.803 -0.3343  1.8939  1.5855
  382SOL    MW4 1603   2.426   2.757   0.777 -0.4561  0.1020 -0.0853
  383SOL     OW 1604   2.447   3.047   0.852  0.1642  0.6757  0.5252
  383SOL    HW2 1605   2.466   3.048   0.946 -0.5402  0.6010  0.6743
  383SOL    HW3 1606   2.438   2.954   0.831  0.3852  0.6899  0.3690
  383SOL    MW4 1607   2.448   3.035   0.862  0.1004  0.6678  0.5242
  384SOL     OW 1608   2.226   3.154   0.706 -0.2257  0.1701 -0.5549
  384SOL    HW2 1609   2.141   3.111   0.718 -0.3749  0.4241 -0.7064
  384SOL    HW3 1610   2.283   3.111   0.770 -0.8717  1.1210  0.6746
  384SOL    MW4 1611   2.222   3.142   0.716 -0.3309  0.3290 -0.4127
  385SOL     OW 1612   2.202   3.395   0.849  0.0317 -0.1072  0.4189
  385SOL    HW2 1613   2.198   3.313   0.800  1.5171  0.6463 -1.0312
  385SOL    HW3 1614   2.135   3.450   0.810 -0.2830 -0.2815  0.7145
  385SOL    MW4 1615   2.193   3.391   0.838  0.1860 -0.0310  0.2666
  386SOL     OW 1616   2.430   3.553   0.793  0.4891  0.4747  0.3847
  386SOL    HW2 1617   2.508   3.499   0.806  0.0910  0.3504  2.5213
  386SOL    HW3 1618   2.357   3.493   0.812 -0.0105  1.3484  1.2349
  386SOL    MW4 1619   2.431   3.538   0.797  0.3707  0.5734  0.7788
  387SOL     OW 1620   2.431   3.830   0.871  0.0937  0.4750  0.1588
  387SOL    HW2 1621   2.357   3.871   0.827 -1.7528 -0.2006  2.5861
  387SOL    HW3 1622   2.426   3.738   0.847  1.3682  0.7452 -1.2828
  387SOL    MW4 1623   2.421   3.823   0.862  0.0184  0.4213  0.2888
  388SOL     OW 1624   2.223   4.003   0.747  0.0379 -0.5993  0.0370
  388SOL    HW2 1625   2.145   3.950   0.768 -1.3561  0.9546 -1.0731
  388SOL    HW3 1626   2.221   4.011   0.651 -1.0306  3.2611  0.3155
  388SOL    MW4 1627   2.212   3.997   0.737 -0.2871  0.1149 -0.0727
  389SOL     OW 1628   2.265   4.264   0.868 -0.3708  0.2061 -0.1817
  389SOL    HW2 1629   2.265   4.172   0.844 -0.8411  0.0429  0.4138
  389SOL    HW3 1630   2.205   4.305   0.806  0.6333  0.3018 -1.1088
  389SOL    MW4 1631   2.257   4.258   0.857 -0.3002  0.1974 -0.2254
  390SOL     OW 1632   2.510   4.402   0.790 -0.1704  0.0038 -0.1270
  390SOL    HW2 1633   2.437   4.342   0.805 -0.5240  0.5933  0.4871
  390SOL    HW3 1634   2.588   4.351   0.815 -0.2443 -1.0622 -1.9815
  390SOL    MW4 1635   2.511   4.387   0.795 -0.2267 -0.0587 -0.2906
  391SOL     OW 1636   2.901   4.646   0.852 -0.1162  0.0014  0.2082
  391SOL    HW2 1637   2.920   4.562   0.810 -0.7295 -0.2741  0.4748
  391SOL    HW3 1638   2.839   4.689   0.794 -0.4981 -0.1187  0.5274
  391SOL    MW4 1639   2.896   4.641   0.839 -0.2475 -0.0510  0.2855
  392SOL     OW 1640   2.700   0.096   0.711  0.6801  0.4326  0.2860
  392SOL    HW2 1641   2.672   0.186   0.692 -0.7147 -0.1578 -0.5110
  392SOL    HW3 1642   2.632   0.062   0.769  0.7785 -0.3692 -0.0661
  392SOL    MW4 1643   2.687   0.103   0.716  0.5090  0.2489  0.1344
  393SOL     OW 1644   2.802   0.431   0.886  0.1685  0.2252  0.0894
  393SOL    HW2 1645   2.751   0.396   0.959 -0.5649  0.6557 -0.2138
  393SOL    HW3 1646   2.886   0.386   0.892 -0.3794 -0.7797  0.3646
  393SOL    MW4 1647   2.807   0.420   0.897 -0.0007  0.1495  0.0857
  394SOL     OW 1648   3.066   0.350   0.874 -0.1089 -0.0141 -0.4929
  394SOL    HW2 1649   3.063   0.364   0.968  0.0569 -1.9045 -0.1961
  394SOL    HW3 1650   3.141   0.402   0.844  1.2595 -1.2428  0.7534
  394SOL    MW4 1651   3.076   0.359   0.882  0.0937 -0.4256 -0.2893
  395SOL     OW 1652   2.883   0.694   0.916 -0.0693 -0.2582 -0.0159
  395SOL    HW2 1653   2.874   0.697   1.011 -0.2688  0.4638 -0.0522
  395SOL    HW3 1654   2.864   0.603   0.892  3.1968 -1.2657  0.9373
  395SOL    MW4 1655   2.879   0.682   0.925  0.3352 -0.2958  0.1051
  396SOL     OW 1656   2.715   0.885   0.781 -0.1294 -0.0530 -0.0720
  396SOL    HW2 1657   2.763   0.833   0.846 -0.2514  0.9980  0.8674
  396SOL    HW3 1658   2.749   0.855   0.697 -0.1046 -1.5581  0.4629
  396SOL    MW4 1659   2.726   0.874   0.778 -0.1423 -0.1130  0.1224
  397SOL     OW 1660   2.691   1.172   0.842  0.5145 -0.3419 -0.5393
  397SOL    HW2 1661   2.702   1.083   0.809 -0.7540 -0.7144  0.0181
  397SOL    HW3 1662   2.602   1.197   0.815  0.4762  0.3621  0.2165
  397SOL    MW4 1663   2.680   1.164   0.834  0.3421 -0.2980 -0.3660
  398SOL     OW 1664   2.932   1.255   0.713 -0.3877  0.0345 -0.3222
  398SOL    HW2 1665   3.001   1.208   0.760 -0.8073  0.0361  0.3020
  398SOL    HW3 1666   2.852   1.234   0.761 -1.0463 -1.1181 -1.8667
  398SOL    MW4 1667   2.930   1.246   0.726 -0.5298 -0.1174 -0.4436
  399SOL     OW 1668   2.972   1.528   0.747  0.6847 -0.1943 -0.6841
  399SOL    HW2 1669   2.968   1.568   0.660 -0.9027  0.4965 -0.2996
  399SOL    HW3 1670   2.965   1.434   0.729  0.6061 -0.0738 -1.3120
  399SOL    MW4 1671   2.970   1.521   0.733  0.4652 -0.0873 -0.7162
  400SOL     OW 1672   2.704   1.617   0.770 -0.0191  0.1930  0.1116
  400SOL    HW2 1673   2.719   1.702   0.810  0.3961  0.6135 -0.9113
  400SOL    HW3 1674   2.791   1.577   0.764  0.6037  1.8806 -4.1565
  400SOL    MW4 1675   2.717   1.623   0.775  0.1178  0.4712 -0.5865
  401SOL     OW 1676   2.758   1.886   0.812  0.3579  0.2914 -0.0252
  401SOL    HW2 1677   2.748   1.915   0.902  2.4466  1.8320 -0.2634
  401SOL    HW3 1678   2.684   1.926   0.766  0.4880  1.2675  0.5936
  401SOL    MW4 1679   2.747   1.895   0.818  0.6509  0.6235  0.0250
  402SOL     OW 1680   2.926   2.170   0.575  0.0936  0.4305  0.3869
  402SOL    HW2 1681   2.928   2.189   0.669 -1.8892 -0.0840  0.5560
  402SOL    HW3 1682   2.951   2.078   0.568  0.7770  0.6165  0.3569
  402SOL    MW4 1683   2.930   2.160   0.586 -0.0775  0.3874  0.4053
  403SOL     OW 1684   2.925   2.252   0.829  0.1468  0.2225 -0.1818
  403SOL    HW2 1685   2.922   2.236   0.923 -0.0336  0.8875 -0.0746
  403SOL    HW3 1686   2.850   2.309   0.812  1.0717  1.3674 -0.4783
  403SOL    MW4 1687   2.915   2.257   0.839  0.2451  0.4613 -0.2068
  404SOL     OW 1688   2.710   2.419   0.737 -0.1028 -0.1209  0.1242
  404SOL    HW2 1689   2.685   2.435   0.646 -0.5497 -0.7873  0.1247
  404SOL    HW3 1690   2.707   2.505   0.778 -2.6823 -0.2123  0.1976
  404SOL    MW4 1691   2.706   2.432   0.730 -0.5021 -0.2205  0.1339
  405SOL     OW 1692   2.672   2.661   0.855 -0.0956 -0.3787 -0.0986
  405SOL    HW2 1693   2.669   2.666   0.950 -0.1489 -1.0748 -0.0555
  405SOL    HW3 1694   2.732   2.730   0.829 -0.6438  0.2873  0.3895
  405SOL    MW4 1695   2.680   2.670   0.864 -0.1750 -0.3829 -0.0286
  406SOL     OW 1696   3.094   2.568   0.490 -0.4138  0.3603  0.1501
  406SOL    HW2 1697   3.092   2.527   0.577 -2.0651  0.3418  0.1255
  406SOL    HW3 1698   3.161   2.520   0.442 -1.6941 -1.7670  0.4018
  406SOL    MW4 1699   3.103   2.556   0.495 -0.8004  0.0772  0.1801
  407SOL     OW 1700   2.929   3.095   0.817 -0.4514  0.1477 -0.4462
  407SOL    HW2 1701   2.847   3.139   0.799 -1.1781 -1.1301 -0.3454
  407SOL    HW3 1702   2.911   3.003   0.799  0.5244 -0.3539  0.9935
  407SOL    MW4 1703   2.916   3.088   0.812 -0.4184 -0.0873 -0.2430
  408SOL     OW 1704   2.677   3.192   0.747  0.1672 -0.0905 -0.1561
  408SOL    HW2 1705   2.670   3.279   0.786  1.4422  0.0105 -0.1353
  408SOL    HW3 1706   2.607   3.142   0.787  0.9795  0.2345  1.7045
  408SOL    MW4 1707   2.667   3.197   0.757  0.4425 -0.0343  0.0921
  409SOL     OW 1708   2.698   3.457   0.859  0.0750  0.2287  0.3880
  409SOL    HW2 1709   2.722   3.448   0.951  0.8392 -0.6575  0.1137
  409SOL    HW3 1710   2.763   3.519   0.824 -2.0136  2.9005  1.0963
  409SOL    MW4 1711   2.710   3.464   0.867 -0.0997  0.4640  0.4453
  410SOL     OW 1712   2.910   3.629   0.766  0.4190 -0.3219  0.5889
  410SOL    HW2 1713   2.911   3.712   0.814 -1.9239  0.9021 -1.3446
  410SOL    HW3 1714   2.890   3.654   0.676 -1.1122 -3.0583  0.1153
  410SOL    MW4 1715   2.908   3.643   0.760 -0.0920 -0.5214  0.2713
  411SOL     OW 1716   2.885   3.893   0.876 -0.2620 -0.3880  0.4482
  411SOL    HW2 1717   2.895   3.921   0.967 -0.3213  0.7829  0.1046
  411SOL    HW3 1718   2.796   3.919   0.853  0.3563  0.9652 -0.4900
  411SOL    MW4 1719   2.874   3.900   0.885 -0.1881 -0.0553  0.2791
  412SOL     OW 1720   2.632   4.002   0.799  0.2645 -0.3636 -0.2479
  412SOL    HW2 1721   2.563   3.941   0.828  0.6473 -0.3403  0.7460
  412SOL    HW3 1722   2.643   3.984   0.706 -1.0072 -0.4504 -0.3919
  412SOL    MW4 1723   2.624   3.992   0.791  0.1471 -0.3719 -0.1358
  413SOL     OW 1724   2.732   4.258   0.892 -0.0272 -0.3539  0.5704
  413SOL    HW2 1725   2.696   4.275   0.978 -2.0725 -0.0408 -0.3215
  413SOL    HW3 1726   2.697   4.173   0.867 -1.0838  0.4593 -0.7792
  413SOL    MW4 1727   2.723   4.249   0.900 -0.4365 -0.2055  0.2747
  414SOL     OW 1728   2.951   4.374   0.747 -0.3204  0.0557  0.0539
  414SOL    HW2 1729   3.035   4.333   0.767  0.8963  1.8830 -1.1201
  414SOL    HW3 1730   2.886   4.320   0.791  1.4433 -1.6253  0.6334
  414SOL    MW4 1731   2.954   4.361   0.755  0.0727  0.0749 -0.0246
  415SOL     OW 1732   3.374   4.645   0.834  0.3840  0.2947 -0.1686
  415SOL    HW2 1733   3.369   4.647   0.930  0.3059 -0.2736 -0.1595
  415SOL    HW3 1734   3.288   4.675   0.805  0.2954  0.1525 -0.0571
  415SOL    MW4 1735   3.362   4.649   0.843  0.3619  0.2007 -0.1527
  416SOL     OW 1736   3.128   0.091   0.753 -0.0001 -0.3548  0.4162
  416SOL    HW2 1737   3.119   0.179   0.791 -0.4695 -1.1523  2.2467
  416SOL    HW3 1738   3.056   0.041   0.792 -0.0709 -1.4167 -1.0232
  416SOL    MW4 1739   3.117   0.096   0.763 -0.0713 -0.6001  0.4678
  417SOL     OW 1740   3.296   0.461   0.777  0.0115  0.2294 -0.2274
  417SOL    HW2 1741   3.287   0.551   0.809  1.8579  0.2737  0.2645
  417SOL    HW3 1742   3.378   0.430   0.816 -0.0889 -1.3322 -1.1957
  417SOL    MW4 1743   3.306   0.469   0.786  0.2420  0.0293 -0.2903
  418SOL     OW 1744   3.420   0.521   0.543 -0.1853  0.0640  0.2861
  418SOL    HW2 1745   3.387   0.517   0.633 -1.2124 -2.5757 -0.1476
  418SOL    HW3 1746   3.504   0.564   0.549  0.1884 -0.9499  2.6787
  418SOL    MW4 1747   3.426   0.526   0.555 -0.2713 -0.4180  0.5445
  419SOL     OW 1748   3.301   0.733   0.845 -0.3957 -0.1103 -0.2851
  419SOL    HW2 1749   3.220   0.772   0.812  0.0486  0.4759 -0.6944
  419SOL    HW3 1750   3.369   0.771   0.790  0.2281 -0.0606  0.5302
  419SOL    MW4 1751   3.299   0.743   0.833 -0.2549 -0.0264 -0.2315
  420SOL     OW 1752   3.061   0.861   0.762 -0.3059  0.6298 -0.1042
  420SOL    HW2 1753   3.068   0.951   0.794 -0.1044  0.0145  1.6254
  420SOL    HW3 1754   2.989   0.823   0.812  0.6345 -0.6366  0.3141
  420SOL    MW4 1755   3.052   0.868   0.773 -0.1552  0.3815  0.1791
  421SOL     OW 1756   3.143   1.109   0.831  0.1724 -0.1970 -0.3187
  421SOL    HW2 1757   3.133   1.128   0.924  0.2947 -0.6233 -0.2154
  421SOL    HW3 1758   3.223   1.154   0.805  0.0680  0.0277 -0.2471
  421SOL    MW4 1759   3.152   1.117   0.840  0.1750 -0.2236 -0.2956
  422SOL     OW 1760   3.373   1.242   0.740  0.4653  0.0893 -0.7123
  422SOL    HW2 1761   3.452   1.194   0.764  0.7559 -0.8102 -3.3037
  422SOL    HW3 1762   3.393   1.333   0.763  2.2944 -0.1110 -1.3849
  422SOL    MW4 1763   3.386   1.248   0.746  0.7451 -0.0557 -1.1430
  423SOL     OW 1764   3.452   1.491   0.826  0.4100  0.3297 -0.0310
  423SOL    HW2 1765   3.445   1.499   0.921  0.9485 -0.8055  0.1112
  423SOL    HW3 1766   3.505   1.566   0.799  0.2744  0.6384  0.5691
  423SOL    MW4 1767   3.458   1.502   0.835  0.4635  0.2208  0.0669
  424SOL     OW 1768   3.255   1.650   0.705 -0.6183 -0.0557  0.1178
  424SOL    HW2 1769   3.317   1.600   0.758  0.0777  0.0765 -0.5665
  424SOL    HW3 1770   3.170   1.610   0.724 -0.1224 -1.2424 -0.1051
  424SOL    MW4 1771   3.252   1.638   0.715 -0.4611 -0.1948 -0.0019
  425SOL     OW 1772   3.191   1.915   0.796  0.1818  0.2160  0.3521
  425SOL    HW2 1773   3.180   1.918   0.891 -1.5951  0.9072  0.1410
  425SOL    HW3 1774   3.216   1.824   0.778  0.6386  0.1049  1.4770
  425SOL    MW4 1775   3.193   1.903   0.806  0.0079  0.2925  0.4727
  426SOL     OW 1776   3.373   2.098   0.679 -0.2303 -0.1256  0.7334
  426SOL    HW2 1777   3.369   2.182   0.725  0.0923 -0.7935  1.9955
  426SOL    HW3 1778   3.307   2.044   0.721  1.3203 -1.3420  1.6627
  426SOL    MW4 1779   3.364   2.102   0.691  0.0169 -0.3738  1.0225
  427SOL     OW 1780   3.360   2.349   0.807 -0.5468  0.3217  0.5322
  427SOL    HW2 1781   3.392   2.331   0.896  1.0389 -1.7462 -0.4071
  427SOL    HW3 1782   3.426   2.408   0.770  0.0573 -0.7308 -0.0674
  427SOL    MW4 1783   3.373   2.355   0.814 -0.2580 -0.0901  0.3291
  428SOL     OW 1784   3.108   2.431   0.738 -0.4263 -0.4286 -0.0910
  428SOL    HW2 1785   3.193   2.390   0.754 -0.1107  0.8255  1.6437
  428SOL    HW3 1786   3.044   2.369   0.774 -0.1565 -0.7694 -0.2011
  428SOL    MW4 1787   3.111   2.418   0.745 -0.3490 -0.3080  0.1234
  429SOL     OW 1788   3.129   2.699   0.858  0.0770 -0.1186 -0.0778
  429SOL    HW2 1789   3.121   2.605   0.840 -0.2300  0.0928 -1.0479
  429SOL    HW3 1790   3.216   2.722   0.825  1.2633 -0.6006  2.5758
  429SOL    MW4 1791   3.140   2.690   0.851  0.1931 -0.1543  0.1442
  430SOL     OW 1792   3.359   2.797   0.728  0.4150  0.5139 -0.1084
  430SOL    HW2 1793   3.390   2.786   0.638 -0.5745  0.1046 -0.4060
  430SOL    HW3 1794   3.437   2.784   0.781  1.1051  1.2394 -0.9327
  430SOL    MW4 1795   3.373   2.794   0.723  0.3753  0.5555 -0.2564
  431SOL     OW 1796   3.373   3.075   0.796  0.0079 -0.1693 -0.0769
  431SOL    HW2 1797   3.375   3.071   0.891 -1.8396  1.0722  0.0305
  431SOL    HW3 1798   3.348   2.987   0.769  0.3939 -0.4884  0.5971
  431SOL    MW4 1799   3.370   3.063   0.805 -0.1848 -0.0477  0.0262
  432SOL     OW 1800   3.152   3.241   0.726  0.3247  0.1239  0.2623
  432SOL    HW2 1801   3.226   3.183   0.748  0.7743  0.6041  0.0367
  432SOL    HW3 1802   3.076   3.197   0.762  0.3831 -1.5846 -1.5950
  432SOL    MW4 1803   3.152   3.228   0.734  0.3920 -0.0381 -0.0125
  433SOL     OW 1804   3.119   3.490   0.845  0.2497  0.0301  0.2908
  433SOL    HW2 1805   3.120   3.400   0.814 -0.5427  0.0113  0.3074
  433SOL    HW3 1806   3.035   3.525   0.815 -0.5552  0.0040  2.4179
  433SOL    MW4 1807   3.108   3.483   0.837  0.0386  0.0241  0.5736
  434SOL     OW 1808   3.347   3.646   0.806  0.3222  0.2750 -0.1340
  434SOL    HW2 1809   3.347   3.735   0.841  0.3588  0.1334  0.2327
  434SOL    HW3 1810   3.265   3.608   0.839 -0.4734  0.6797 -1.6058
  434SOL    MW4 1811   3.336   3.653   0.815  0.2220  0.3097 -0.2798
  435SOL     OW 1812   3.333   3.919   0.845  0.2889  0.6903  0.1857
  435SOL    HW2 1813   3.324   3.910   0.940 -0.4018 -2.0566 -0.0787
  435SOL    HW3 1814   3.418   3.961   0.833  0.2259  1.3954  2.0393
  435SOL    MW4 1815   3.343   3.923   0.856  0.1895  0.4213  0.3953
  436SOL     OW 1816   3.077   3.978   0.702  0.3771  0.0438  0.4154
  436SOL    HW2 1817   3.162   3.953   0.738  0.1362  0.0659  1.0081
  436SOL    HW3 1818   3.014   3.954   0.771  0.0270  1.1851  0.4980
  436SOL    MW4 1819   3.080   3.971   0.716  0.2995  0.1972  0.5045
  437SOL     OW 1820   3.183   4.221   0.850 -0.2791 -0.0286  0.0634
  437SOL    HW2 1821   3.244   4.264   0.790 -0.1364 -0.9121 -0.4342
  437SOL    HW3 1822   3.173   4.132   0.815 -1.6090  0.0040  0.3114
  437SOL    MW4 1823   3.190   4.215   0.838 -0.4356 -0.1411  0.0305
  438SOL     OW 1824   3.363   4.373   0.677  0.3512 -0.3309  0.4047
  438SOL    HW2 1825   3.343   4.463   0.649 -1.8108 -0.5285  1.2169
  438SOL    HW3 1826   3.363   4.323   0.595  1.3136  0.3680 -0.0279
  438SOL    MW4 1827   3.360   4.378   0.662  0.1929 -0.2651  0.4548
  439SOL     OW 1828   3.808   0.003   0.829 -0.3261  0.4843 -0.4357
  439SOL    HW2 1829   3.887   0.055   0.817 -0.2728  0.2487 -1.1015
  439SOL    HW3 1830   3.737   0.056   0.792 -0.5206  0.7998  0.3751
  439SOL    MW4 1831   3.809   0.017   0.823 -0.3450  0.4948 -0.4166
  440SOL     OW 1832   3.570   0.142   0.764  0.4984 -0.2384  0.0373
  440SOL    HW2 1833   3.510   0.070   0.783  0.7593 -0.4881 -0.0769
  440SOL    HW3 1834   3.563   0.156   0.670 -0.0819  0.3616  0.1640
  440SOL    MW4 1835   3.561   0.135   0.754  0.4563 -0.1922  0.0390
  441SOL     OW 1836   3.563   0.417   0.837  0.7578  0.5264  0.5786
  441SOL    HW2 1837   3.565   0.423   0.933 -0.5410  1.8448  0.5471
  441SOL    HW3 1838   3.558   0.323   0.819  1.0157  0.2658  1.8016
  441SOL    MW4 1839   3.563   0.406   0.847  0.6201  0.6660  0.7358
  442SOL     OW 1840   3.801   0.535   0.727  0.1511  0.0451 -0.0607
  442SOL    HW2 1841   3.795   0.630   0.740  0.3903  0.2951 -1.6473
  442SOL    HW3 1842   3.715   0.502   0.752  0.3759  0.5501  1.4469
  442SOL    MW4 1843   3.789   0.543   0.732  0.2120  0.1448 -0.0712
  443SOL     OW 1844   3.783   0.778   0.798  0.5078 -0.3307  0.3768
  443SOL    HW2 1845   3.794   0.771   0.893 -0.7082  1.5239  0.6936
  443SOL    HW3 1846   3.861   0.826   0.769  1.2275 -1.5212  0.3389
  443SOL    MW4 1847   3.795   0.784   0.807  0.4423 -0.2431  0.4136
  444SOL     OW 1848   3.519   0.854   0.712  0.2323  0.1919  0.0093
  444SOL    HW2 1849   3.610   0.831   0.732  0.0483 -0.3815  0.2183
  444SOL    HW3 1850   3.521   0.880   0.620  0.0928 -2.8526 -0.9356
  444SOL    MW4 1851   3.531   0.854   0.702  0.1893 -0.2854 -0.0877
  445SOL     OW 1852   3.579   1.083   0.835  0.0871 -0.0484  0.1586
  445SOL    HW2 1853   3.578   1.098   0.929 -0.0021  0.2529  0.1106
  445SOL    HW3 1854   3.537   0.998   0.823  0.1721 -0.1230  0.3969
  445SOL    MW4 1855   3.573   1.074   0.846  0.0863 -0.0185  0.1838
  446SOL     OW 1856   3.771   1.276   0.765  0.7605 -0.3063 -0.2431
  446SOL    HW2 1857   3.719   1.200   0.792  0.7514 -0.3984 -0.5175
  446SOL    HW3 1858   3.736   1.299   0.678  2.1275 -1.2449 -1.0648
  446SOL    MW4 1859   3.760   1.269   0.757  0.9394 -0.4423 -0.3877
  447SOL     OW 1860   3.796   1.515   0.917  0.2495  0.1910  0.3467
  447SOL    HW2 1861   3.867   1.547   0.862 -0.3443 -0.7954 -1.0160
  447SOL    HW3 1862   3.772   1.431   0.880 -1.0818  0.1261  1.2977
  447SOL    MW4 1863   3.802   1.509   0.905 -0.0045  0.0525  0.2925
  448SOL     OW 1864   3.631   1.700   0.753 -0.0191 -0.7186 -0.4264
  448SOL    HW2 1865   3.611   1.793   0.770  0.2990 -0.7744  0.2880
  448SOL    HW3 1866   3.677   1.671   0.832  0.0866 -1.4269 -0.7456
  448SOL    MW4 1867   3.634   1.709   0.766  0.0370 -0.8193 -0.3743
  449SOL     OW 1868   3.592   1.962   0.800 -0.3914  0.1936 -0.3413
  449SOL    HW2 1869   3.668   1.992   0.750 -0.4300 -0.2379 -0.6569
  449SOL    HW3 1870   3.520   2.018   0.771 -0.3846  0.0336 -0.6671
  449SOL    MW4 1871   3.593   1.973   0.790 -0.3955  0.1156 -0.4259
  450SOL     OW 1872   3.817   2.071   0.694  0.0046 -0.0853  0.1965
  450SOL    HW2 1873   3.881   2.011   0.732 -0.2325  0.0749  0.8472
  450SOL    HW3 1874   3.861   2.107   0.617  1.2539  1.1373  1.4527
  450SOL    MW4 1875   3.831   2.068   0.689  0.1383  0.0973  0.4481
  451SOL     OW 1876   3.732   2.316   0.802 -0.2956  0.3472 -0.2910
  451SOL    HW2 1877   3.727   2.299   0.896  0.7223  0.6900 -0.1800
  451SOL    HW3 1878   3.754   2.231   0.764 -0.6264  0.2262 -0.2172
  451SOL    MW4 1879   3.734   2.303   0.809 -0.2050  0.3762 -0.2667
  452SOL     OW 1880   3.562   2.498   0.703 -0.3029  0.2245 -0.3577
  452SOL    HW2 1881   3.587   2.578   0.750 -0.2260  0.9240 -1.5666
  452SOL    HW3 1882   3.616   2.430   0.742  0.6748  1.0258 -0.2887
  452SOL    MW4 1883   3.573   2.500   0.714 -0.1636  0.4225 -0.5081
  453SOL     OW 1884   3.624   2.737   0.832 -0.0759  0.1195 -0.1845
  453SOL    HW2 1885   3.638   2.743   0.926  1.3627 -2.0101 -0.2042
  453SOL    HW3 1886   3.691   2.793   0.794  0.6060 -0.5347  0.0333
  453SOL    MW4 1887   3.634   2.745   0.839  0.2041 -0.2477 -0.1583
  454SOL     OW 1888   3.859   2.877   0.759  0.1282  0.6178 -0.2861
  454SOL    HW2 1889   3.845   2.970   0.777 -1.2989  0.5505 -0.9687
  454SOL    HW3 1890   3.872   2.873   0.664 -1.0598 -0.0027 -0.4354
  454SOL    MW4 1891   3.859   2.889   0.749 -0.2170  0.5269 -0.3959
  455SOL     OW 1892   3.813   3.134   0.843 -0.3475  0.0125 -0.8340
  455SOL    HW2 1893   3.881   3.181   0.795 -1.8182  3.2491  0.1040
  455SOL    HW3 1894   3.731   3.177   0.817 -1.4032  0.3193  2.7335
  455SOL    MW4 1895   3.811   3.145   0.833 -0.6807  0.4797 -0.2396
  456SOL     OW 1896   3.584   3.241   0.729 -0.7326  0.0434 -0.3531
  456SOL    HW2 1897   3.508   3.185   0.749  0.9380 -2.2705 -0.2830
  456SOL    HW3 1898   3.582   3.250   0.634 -1.0868 -0.0275 -0.3550
  456SOL    MW4 1899   3.573   3.235   0.719 -0.5589 -0.2713 -0.3442
  457SOL     OW 1900   3.583   3.501   0.843 -0.2498  0.1531  0.0200
  457SOL    HW2 1901   3.576   3.410   0.814  0.7065  0.6860 -1.9910
  457SOL    HW3 1902   3.497   3.538   0.826  0.0097  0.1940 -1.2593
  457SOL    MW4 1903   3.571   3.494   0.837 -0.0892  0.2284 -0.4141
  458SOL     OW 1904   3.956   3.565   0.612 -0.4823 -0.3659  0.2160
  458SOL    HW2 1905   4.014   3.558   0.689  0.6256  0.6465 -0.5150
  458SOL    HW3 1906   3.877   3.608   0.646  0.2288  0.6072  0.6755
  458SOL    MW4 1907   3.953   3.570   0.627 -0.2422 -0.1037  0.1802
  459SOL     OW 1908   3.791   3.904   0.865  0.4811  0.2084  0.5344
  459SOL    HW2 1909   3.711   3.951   0.837 -0.3160 -0.8889  0.9440
  459SOL    HW3 1910   3.788   3.821   0.817  1.1592 -0.0214  0.8869
  459SOL    MW4 1911   3.780   3.899   0.855  0.4654  0.0334  0.6350
  460SOL     OW 1912   3.571   4.049   0.770 -0.1684 -0.1358  0.0615
  460SOL    HW2 1913   3.553   4.130   0.818  1.4554  0.0590  0.3804
  460SOL    HW3 1914   3.573   4.075   0.678 -1.3496 -0.1487  0.0174
  460SOL    MW4 1915   3.569   4.063   0.764 -0.1099 -0.1116  0.0978
  461SOL     OW 1916   3.541   4.318   0.896  0.0944  0.4021 -0.0677
  461SOL    HW2 1917   3.627   4.360   0.886  0.3437 -0.0822 -0.0066
  461SOL    HW3 1918   3.490   4.350   0.822  0.7298 -0.2716 -0.8063
  461SOL    MW4 1919   3.546   4.328   0.885  0.2110  0.2494 -0.1571
  462SOL     OW 1920   3.793   4.403   0.733  0.3004 -0.5527 -0.1278
  462SOL    HW2 1921   3.871   4.369   0.778  0.9986 -0.3581 -1.1722
  462SOL    HW3 1922   3.797   4.498   0.748 -0.2547 -0.6435  0.6170
  462SOL    MW4 1923   3.804   4.411   0.741  0.3195 -0.5393 -0.1673
  463SOL     OW 1924   4.265   0.038   0.852 -0.1194 -0.3470 -0.5359
  463SOL    HW2 1925   4.262   0.036   0.948 -0.1821  1.1503 -0.4850
  463SOL    HW3 1926   4.194   0.098   0.828 -0.2577 -0.9097 -1.5248
  463SOL    MW4 1927   4.255   0.046   0.861 -0.1454 -0.2237 -0.6596
  464SOL     OW 1928   4.061   0.186   0.722  0.2475  0.3116  0.6037
  464SOL    HW2 1929   4.044   0.271   0.764  1.4460  1.4981 -1.2231
  464SOL    HW3 1930   4.004   0.185   0.645  0.8993 -0.1518  0.1206
  464SOL    MW4 1931   4.051   0.197   0.718  0.4916  0.4070  0.2990
  465SOL     OW 1932   4.017   0.435   0.871 -0.0669 -0.1645 -0.2924
  465SOL    HW2 1933   4.098   0.477   0.844 -0.2845  0.8772  0.6548
  465SOL    HW3 1934   3.948   0.483   0.825 -0.2681  0.1248  0.3002
  465SOL    MW4 1935   4.018   0.447   0.861 -0.1225  0.0111 -0.0892
  466SOL     OW 1936   4.270   0.510   0.773 -0.2230 -0.2137 -0.0156
  466SOL    HW2 1937   4.357   0.470   0.779 -0.5873 -0.9413  0.5101
  466SOL    HW3 1938   4.251   0.512   0.679 -0.2249 -1.3520 -0.0493
  466SOL    MW4 1939   4.279   0.505   0.761 -0.2708 -0.4598  0.0492
  467SOL     OW 1940   4.273   0.782   0.827  0.1162 -0.1251  0.6512
  467SOL    HW2 1941   4.197   0.816   0.780  1.0609  0.4740 -0.4807
  467SOL    HW3 1942   4.273   0.688   0.810  0.0674 -0.0074  0.0168
  467SOL    MW4 1943   4.263   0.774   0.819  0.2341 -0.0305  0.4182
  468SOL     OW 1944   4.051   0.906   0.727 -0.4870  0.2579 -0.0464
  468SOL    HW2 1945   4.040   0.991   0.771 -1.4270 -0.2223  0.6393
  468SOL    HW3 1946   4.036   0.926   0.634 -0.9157  0.8053  0.1362
  468SOL    MW4 1947   4.048   0.920   0.720 -0.6680  0.2668  0.0681
  469SOL     OW 1948   4.045   1.173   0.828  0.7304  0.0528  0.3599
  469SOL    HW2 1949   4.038   1.177   0.923  0.3011  0.3007  0.3192
  469SOL    HW3 1950   3.966   1.217   0.796  1.3131  0.7841 -0.1082
  469SOL    MW4 1951   4.034   1.180   0.836  0.7505  0.1819  0.2927
  470SOL     OW 1952   4.285   1.299   0.755 -0.2119  0.3204 -0.3603
  470SOL    HW2 1953   4.208   1.247   0.779  0.1977 -0.1238  0.0090
  470SOL    HW3 1954   4.359   1.246   0.784  0.2011  1.3059  0.4137
  470SOL    MW4 1955   4.285   1.285   0.762 -0.1035  0.3918 -0.2095
  471SOL     OW 1956   4.247   1.585   0.807 -0.8401  0.1393  0.2306
  471SOL    HW2 1957   4.261   1.590   0.902  1.6732  0.9433 -0.1516
  471SOL    HW3 1958   4.250   1.492   0.787 -0.0380  0.0499  0.7508
  471SOL    MW4 1959   4.249   1.573   0.817 -0.4025  0.2335  0.2488
  472SOL     OW 1960   3.981   1.636   0.768 -0.1302 -0.4397  0.2723
  472SOL    HW2 1961   4.075   1.628   0.784 -0.1878  1.5243  1.8456
  472SOL    HW3 1962   3.972   1.637   0.672  1.5839  0.6832  0.1164
  472SOL    MW4 1963   3.992   1.635   0.757  0.0885 -0.0325  0.4593
  473SOL     OW 1964   3.995   1.907   0.831 -0.0572 -0.1792 -0.2608
  473SOL    HW2 1965   4.086   1.926   0.808 -0.0116 -0.8798 -0.6894
  473SOL    HW3 1966   3.987   1.813   0.817 -0.8284 -0.1293 -0.1458
  473SOL    MW4 1967   4.006   1.897   0.826 -0.1531 -0.2651 -0.3023
  474SOL     OW 1968   4.236   2.017   0.763 -0.0398 -0.4703 -0.0457
  474SOL    HW2 1969   4.324   1.982   0.779 -0.0207 -0.7391 -0.7434
  474SOL    HW3 1970   4.236   2.040   0.671 -0.5461 -0.0106  0.0726
  474SOL    MW4 1971   4.248   2.015   0.753 -0.1044 -0.4454 -0.1222
  475SOL     OW 1972   4.258   2.298   0.840 -0.5649  0.5388  0.0006
  475SOL    HW2 1973   4.173   2.338   0.824 -0.3018  0.7653 -0.8310
  475SOL    HW3 1974   4.241   2.204   0.841 -0.8550  0.5915  0.0364
  475SOL    MW4 1975   4.245   2.291   0.838 -0.5689  0.5755 -0.1044
  476SOL     OW 1976   4.006   2.388   0.747 -0.0724  0.3341 -0.2545
  476SOL    HW2 1977   4.010   2.483   0.759 -1.0287  0.5042 -1.2380
  476SOL    HW3 1978   3.915   2.366   0.767  0.1978 -0.4056  0.1566
  476SOL    MW4 1979   3.994   2.398   0.751 -0.1631  0.2589 -0.3300
  477SOL     OW 1980   3.998   2.660   0.843 -0.0355  0.4985 -0.0839
  477SOL    HW2 1981   4.081   2.692   0.808 -0.3647  1.4800  0.0234
  477SOL    HW3 1982   3.933   2.724   0.816 -0.7979 -0.3590 -0.3163
  477SOL    MW4 1983   4.000   2.672   0.835 -0.1798  0.5150 -0.1004
  478SOL     OW 1984   4.200   2.779   0.696  0.8188 -0.1714 -0.1065
  478SOL    HW2 1985   4.287   2.765   0.731  1.1903  0.9115 -0.5705
  478SOL    HW3 1986   4.201   2.738   0.610  0.1546 -2.1369  0.8024
  478SOL    MW4 1987   4.211   2.772   0.689  0.7806 -0.2880 -0.0478
  479SOL     OW 1988   4.281   3.079   0.764  0.1733  0.2689 -0.2592
  479SOL    HW2 1989   4.269   2.987   0.743 -0.9459  0.1994  0.6836
  479SOL    HW3 1990   4.298   3.121   0.680 -1.1516 -0.4983 -0.9104
  479SOL    MW4 1991   4.282   3.072   0.750 -0.1493  0.1583 -0.2208
  480SOL     OW 1992   4.041   3.241   0.725  0.0358 -0.7027 -0.5503
  480SOL    HW2 1993   4.064   3.324   0.766  0.8404 -1.3766  0.3669
  480SOL    HW3 1994   4.101   3.178   0.763 -0.7276 -1.7542 -1.0758
  480SOL    MW4 1995   4.052   3.244   0.735  0.0410 -0.9305 -0.4986
  481SOL     OW 1996   4.103   3.487   0.839 -0.0201 -0.2373 -0.0079
  481SOL    HW2 1997   4.087   3.501   0.932  0.2362  1.8422 -0.2718
  481SOL    HW3 1998   4.197   3.497   0.828  0.1189 -1.6597 -0.3224
  481SOL    MW4 1999   4.113   3.490   0.850  0.0319 -0.1507 -0.0842
  482SOL     OW 2000   4.437   3.749   0.677  0.2244 -0.0898 -0.0985
  482SOL    HW2 2001   4.381   3.803   0.732 -1.0633 -0.3196 -1.1564
  482SOL    HW3 2002   4.526   3.768   0.707 -0.3594  0.9145  1.0332
  482SOL    MW4 2003   4.442   3.759   0.688 -0.0224  0.0124 -0.0888
  483SOL     OW 2004   4.259   3.904   0.841 -0.3434  0.1750  0.3502
  483SOL    HW2 2005   4.263   3.903   0.936  0.0664  0.9370  0.3444
  483SOL    HW3 2006   4.169   3.926   0.820 -0.3404  0.3862  0.5641
  483SOL    MW4 2007   4.248   3.907   0.851 -0.2890  0.3035  0.3776
  484SOL     OW 2008   4.021   4.014   0.781  0.5924 -0.5045 -0.0014
  484SOL    HW2 2009   3.946   3.966   0.816  0.5368  0.0645  0.6672
  484SOL    HW3 2010   4.012   4.006   0.686 -0.8725  0.3735  0.0388
  484SOL    MW4 2011   4.010   4.007   0.773  0.3920 -0.3142  0.0921
  485SOL     OW 2012   4.022   4.280   0.843 -0.0700 -0.3582 -0.6011
  485SOL    HW2 2013   4.111   4.314   0.833 -0.2407  0.6146  1.0124
  485SOL    HW3 2014   4.029   4.187   0.821  1.0992 -0.0370 -1.6367
  485SOL    MW4 2015   4.035   4.272   0.839  0.0620 -0.1869 -0.5248
  486SOL     OW 2016   4.256   4.428   0.804  0.4206 -0.4180 -0.0101
  486SOL    HW2 2017   4.239   4.521   0.818  1.6912 -0.3342  1.1274
  486SOL    HW3 2018   4.348   4.416   0.829  0.3598 -1.9215 -0.4323
  486SOL    MW4 2019   4.266   4.439   0.809  0.5803 -0.6056  0.0843
  487SOL     OW 2020   0.245   0.012   1.143 -0.1352  0.1315  0.1275
  487SOL    HW2 2021   0.313   0.074   1.169 -0.8631  0.5572  1.0368
  487SOL    HW3 2022   0.251   0.008   1.048  0.4703  0.9600  0.1322
  487SOL    MW4 2023   0.254   0.019   1.134 -0.1514  0.2971  0.2481
  488SOL     OW 2024   4.475   0.141   1.197 -0.6301 -0.0100  0.8434
  488SOL    HW2 2025   4.400   0.087   1.174 -0.7672  0.7734 -0.5830
  488SOL    HW3 2026   4.551   0.083   1.185 -0.9506 -0.6484  1.8075
  488SOL    MW4 2027   4.475   0.126   1.193 -0.6905  0.0092  0.7824
  489SOL     OW 2028   4.479   0.396   1.095  0.1989 -0.1448  0.5512
  489SOL    HW2 2029   4.395   0.431   1.125 -0.5910 -0.5376 -1.1598
  489SOL    HW3 2030   4.476   0.303   1.115 -0.4811 -0.4779 -1.0321
  489SOL    MW4 2031   4.468   0.389   1.102  0.0048 -0.2406  0.1165
  490SOL     OW 2032   0.219   0.535   1.165  0.5584 -0.1240  0.2810
  490SOL    HW2 2033   0.212   0.623   1.128  0.9343 -0.5411 -0.8222
  490SOL    HW3 2034   0.133   0.495   1.149  0.2787  0.1597  1.0856
  490SOL    MW4 2035   0.207   0.541   1.158  0.5711 -0.1415  0.2416
  491SOL     OW 2036   0.222   0.810   1.056 -0.1811  0.0085  0.0981
  491SOL    HW2 2037   0.298   0.840   1.106 -0.3445 -0.8125  0.8435
  491SOL    HW3 2038   0.146   0.840   1.106 -0.3443 -1.2075  0.5862
  491SOL    MW4 2039   0.222   0.818   1.069 -0.2242 -0.2602  0.2608
  492SOL     OW 2040   0.010   0.891   1.207 -0.4139  0.1818 -0.4034
  492SOL    HW2 2041   0.014   0.877   1.301  0.5662 -0.2455 -0.5089
  492SOL    HW3 2042  -0.078   0.861   1.182 -1.1111  1.3745  0.5384
  492SOL    MW4 2043  -0.001   0.885   1.216 -0.3762  0.2828 -0.2931
  493SOL     OW 2044   0.001   1.176   1.110 -0.1473 -0.6267 -0.8276
  493SOL    HW2 2045  -0.082   1.218   1.132 -0.4250 -0.2448 -2.4766
  493SOL    HW3 2046  -0.016   1.082   1.119 -0.1428 -0.4788  0.8334
  493SOL    MW4 2047  -0.012   1.169   1.114 -0.1833 -0.5567 -0.8260
  494SOL     OW 2048   0.256   1.275   1.212 -0.0194 -0.0555 -0.1998
  494SOL    HW2 2049   0.323   1.216   1.177  0.4433  0.8790 -0.9041
  494SOL    HW3 2050   0.173   1.232   1.191  0.3303 -0.9756  0.2438
  494SOL    MW4 2051   0.254   1.261   1.205  0.0878 -0.0535 -0.2341
  495SOL     OW 2052   0.258   1.514   1.071 -0.3025 -0.3421  0.0890
  495SOL    HW2 2053   0.240   1.429   1.112  1.2855  0.2407  2.0729
  495SOL    HW3 2054   0.242   1.499   0.977  0.5826 -3.0264  0.3093
  495SOL    MW4 2055   0.254   1.500   1.064  0.0238 -0.6194  0.3798
  496SOL     OW 2056   0.039   1.660   1.201  0.3862 -0.0858  0.1142
  496SOL    HW2 2057   0.040   1.751   1.173 -0.4854 -0.0052  0.3263
  496SOL    HW3 2058   0.118   1.622   1.162  1.1039  0.9102  0.5586
  496SOL    MW4 2059   0.050   1.667   1.192  0.3659  0.0564  0.2007
  497SOL     OW 2060   4.480   1.934   1.139  0.7005  0.1472  0.2772
  497SOL    HW2 2061   4.391   1.964   1.161  0.5768 -0.0822  0.0948
  497SOL    HW3 2062   4.480   1.929   1.044  0.5220 -1.0406  0.3411
  497SOL    MW4 2063   4.468   1.938   1.129  0.6609 -0.0398  0.2615
  498SOL     OW 2064   0.213   2.054   1.251  0.3400  0.3395  0.0142
  498SOL    HW2 2065   0.229   2.135   1.203  1.8868  0.8017  1.2636
  498SOL    HW3 2066   0.133   2.018   1.213 -0.2433  2.3446 -0.6871
  498SOL    MW4 2067   0.205   2.060   1.240  0.4671  0.6649  0.0865
  499SOL     OW 2068   0.227   2.305   1.112 -0.4535 -0.1450 -0.3823
  499SOL    HW2 2069   0.313   2.340   1.138 -0.5048  0.3161 -0.8238
  499SOL    HW3 2070   0.164   2.367   1.149 -0.5589  0.0385 -0.8680
  499SOL    MW4 2071   0.230   2.318   1.121 -0.4742 -0.0598 -0.5047
  500SOL     OW 2072   0.006   2.443   1.215  0.3560  0.2150  0.3854
  500SOL    HW2 2073   0.006   2.441   1.311  0.5422 -2.2632  0.3517
  500SOL    HW3 2074  -0.073   2.396   1.190  1.5471 -1.2447 -0.6990
  500SOL    MW4 2075  -0.005   2.437   1.224  0.5379 -0.3047  0.2379
  501SOL     OW 2076   4.482   2.704   1.073 -0.0555 -0.1495 -0.6432
  501SOL    HW2 2077   4.402   2.738   1.114 -0.0225 -0.6188 -0.1854
  501SOL    HW3 2078   4.488   2.613   1.104  1.0000  0.0778 -0.1598
  501SOL    MW4 2079   4.472   2.696   1.083  0.0877 -0.1814 -0.5189
  502SOL     OW 2080   0.183   2.853   1.199  0.0087 -0.3571 -0.4074
  502SOL    HW2 2081   0.182   2.833   1.293  1.4361 -1.1152 -0.5292
  502SOL    HW3 2082   0.126   2.787   1.160  0.8389 -1.1805 -0.2590
  502SOL    MW4 2083   0.176   2.841   1.206  0.3066 -0.5660 -0.4040
  503SOL     OW 2084   0.175   3.110   1.092  0.2839 -0.1735 -0.3937
  503SOL    HW2 2085   0.252   3.150   1.131 -1.0752  0.8141  1.3607
  503SOL    HW3 2086   0.169   3.024   1.133 -0.2582  0.2570  0.4558
  503SOL    MW4 2087   0.184   3.104   1.102  0.0331  0.0136 -0.0502
  504SOL     OW 2088   4.463   3.241   1.203  0.1324 -0.1334 -0.0705
  504SOL    HW2 2089   4.395   3.188   1.160 -0.3280  0.8239 -0.5344
  504SOL    HW3 2090   4.545   3.201   1.175 -0.2102 -0.6036 -0.4233
  504SOL    MW4 2091   4.465   3.229   1.193  0.0262 -0.0691 -0.1782
  505SOL     OW 2092   4.475   3.498   1.123 -0.1899  0.1777 -0.4555
  505SOL    HW2 2093   4.466   3.408   1.155  0.2272  0.1603 -0.3905
  505SOL    HW3 2094   4.464   3.492   1.028  0.6237 -0.0489 -0.5361
  505SOL    MW4 2095   4.472   3.486   1.115 -0.0275  0.1457 -0.4576
  506SOL     OW 2096   0.221   3.685   1.199 -0.7683 -0.0643 -0.5705
  506SOL    HW2 2097   0.214   3.666   1.293  0.1394  0.1642 -0.4588
  506SOL    HW3 2098   0.142   3.646   1.162  0.2415 -2.6756 -0.0966
  506SOL    MW4 2099   0.210   3.677   1.207 -0.5153 -0.3786 -0.4933
  507SOL     OW 2100   0.247   3.961   1.145 -0.9050  0.4035  0.2245
  507SOL    HW2 2101   0.156   3.982   1.167 -1.0952  0.2695 -0.4122
  507SOL    HW3 2102   0.254   3.867   1.158 -1.2365  0.1920 -1.0005
  507SOL    MW4 2103   0.236   3.951   1.149 -0.9739  0.3579 -0.0211
  508SOL     OW 2104   4.485   4.033   1.218  0.0973 -0.1186 -0.0849
  508SOL    HW2 2105   4.489   4.031   1.314 -0.6263  1.1229 -0.0152
  508SOL    HW3 2106   4.403   3.990   1.196 -1.1643  2.1332  0.0183
  508SOL    MW4 2107   4.475   4.027   1.228 -0.1647  0.3419 -0.0622
  509SOL     OW 2108   0.028   4.296   1.138  0.1061 -0.1202 -0.4381
  509SOL    HW2 2109   0.107   4.332   1.179  0.0137  0.3929 -0.7152
  509SOL    HW3 2110   0.030   4.203   1.161  0.3285  0.0589  0.3043
  509SOL    MW4 2111   0.038   4.289   1.147  0.1232 -0.0291 -0.3765
  510SOL     OW 2112   0.272   4.408   1.255  0.1181 -0.2265 -0.1149
  510SOL    HW2 2113   0.293   4.408   1.349  1.2324  0.0966 -0.3498
  510SOL    HW3 2114   0.259   4.500   1.234  1.1576 -0.1638 -0.5363
  510SOL    MW4 2115   0.273   4.420   1.265  0.4022 -0.1755 -0.2016
  511SOL     OW 2116   0.682   4.665   1.169  0.0729 -0.3240  0.4619
  511SOL    HW2 2117   0.767   4.708   1.183 -0.2175  0.6260 -0.5571
  511SOL    HW3 2118   0.696   4.575   1.196  1.8401 -0.5336 -1.0271
  511SOL    MW4 2119   0.695   4.659   1.174  0.2678 -0.2264  0.1309
  512SOL     OW 2120   0.452   0.143   1.252 -0.1856 -0.1495  0.7561
  512SOL    HW2 2121   0.470   0.229   1.216 -0.7725 -0.3832 -0.1081
  512SOL    HW3 2122   0.535   0.096   1.246  0.0661  0.2567  0.9855
  512SOL    MW4 2123   0.465   0.148   1.247 -0.2299 -0.1268  0.6722
  513SOL     OW 2124   0.457   0.397   1.141 -0.0852  0.5018  0.2548
  513SOL    HW2 2125   0.376   0.445   1.161 -0.5344 -0.1456 -0.0156
  513SOL    HW3 2126   0.469   0.409   1.047  0.3807  0.9680  0.3678
  513SOL    MW4 2127   0.448   0.405   1.131 -0.0830  0.4779  0.2341
  514SOL     OW 2128   0.689   0.523   1.229  0.3101  0.1468  0.0903
  514SOL    HW2 2129   0.686   0.604   1.179  0.1661  0.3685  0.4543
  514SOL    HW3 2130   0.606   0.480   1.211  0.9886 -0.6245 -1.2621
  514SOL    MW4 2131   0.678   0.528   1.220  0.3806  0.0743 -0.0402
  515SOL     OW 2132   0.689   0.764   1.107  0.0182 -0.0742 -0.1403
  515SOL    HW2 2133   0.610   0.813   1.131  0.0691 -0.6373  1.2688
  515SOL    HW3 2134   0.707   0.788   1.017 -1.7163  0.1365 -0.4366
  515SOL    MW4 2135   0.681   0.773   1.099 -0.2039 -0.1207  0.0067
  516SOL     OW 2136   0.456   0.893   1.172 -0.4247  0.2908 -0.2036
  516SOL    HW2 2137   0.461   0.885   1.267  2.6513 -2.0941 -0.4965
  516SOL    HW3 2138   0.484   0.983   1.154 -2.2276  1.1698  1.1461
  516SOL    MW4 2139   0.460   0.904   1.182 -0.2567  0.0921 -0.0640
  517SOL     OW 2140   0.492   1.159   1.132  0.3750  0.2692  0.3349
  517SOL    HW2 2141   0.552   1.228   1.162  0.7075  0.5436 -0.9065
  517SOL    HW3 2142   0.486   1.173   1.037 -0.6467 -0.5604  0.2714
  517SOL    MW4 2143   0.499   1.170   1.123  0.2841  0.1960  0.1627
  518SOL     OW 2144   0.715   1.302   1.222  0.2040  0.0536 -0.0760
  518SOL    HW2 2145   0.773   1.245   1.171  0.3038  0.6922 -0.6860
  518SOL    HW3 2146   0.716   1.386   1.175  0.4884  0.7317  1.1169
  518SOL    MW4 2147   0.723   1.306   1.209  0.2547  0.2273  0.0010
  519SOL     OW 2148   0.705   1.574   1.108 -0.5333 -0.6190  0.1373
  519SOL    HW2 2149   0.770   1.625   1.156 -0.3084 -0.8457  0.0697
  519SOL    HW3 2150   0.621   1.606   1.141 -0.4114  0.4568 -0.5564
  519SOL    MW4 2151   0.702   1.585   1.118 -0.4876 -0.5070  0.0367
  520SOL     OW 2152   0.462   1.650   1.210  0.0477 -0.3261  0.2465
  520SOL    HW2 2153   0.459   1.649   1.305  0.4088  1.3712  0.2970
  520SOL    HW3 2154   0.381   1.607   1.182  0.0902 -1.1111  1.3088
  520SOL    MW4 2155   0.451   1.645   1.219  0.1009 -0.2058  0.3934
  521SOL     OW 2156   0.441   1.915   1.129 -0.2900  0.3851 -0.2634
  521SOL    HW2 2157   0.457   1.823   1.153 -0.0315  0.7275  0.9125
  521SOL    HW3 2158   0.368   1.941   1.185  0.9598  1.4945  0.8866
  521SOL    MW4 2159   0.434   1.906   1.140 -0.0910  0.5766  0.0436
  522SOL     OW 2160   0.668   2.057   1.232 -0.0316  0.0454 -0.2236
  522SOL    HW2 2161   0.664   2.058   1.328  1.2185 -1.0950 -0.1363
  522SOL    HW3 2162   0.588   2.012   1.205 -0.2241  0.0721  0.3063
  522SOL    MW4 2163   0.657   2.051   1.241  0.1079 -0.1018 -0.1422
  523SOL     OW 2164   0.640   2.308   1.103  0.3267  0.1292  0.3165
  523SOL    HW2 2165   0.561   2.356   1.129  0.3747  0.7782 -0.6684
  523SOL    HW3 2166   0.631   2.222   1.143 -0.5630  0.4225  0.7606
  523SOL    MW4 2167   0.629   2.303   1.111  0.2156  0.2537  0.2451
  524SOL     OW 2168   0.442   2.458   1.209  0.0345  0.1707  0.1018
  524SOL    HW2 2169   0.436   2.453   1.305  0.8038  0.2287  0.1600
  524SOL    HW3 2170   0.433   2.552   1.189  0.5827  0.2411  0.1752
  524SOL    MW4 2171   0.440   2.470   1.219  0.2083  0.1879  0.1192
  525SOL     OW 2172   0.440   2.741   1.151 -0.3796  0.4037 -0.1958
  525SOL    HW2 2173   0.356   2.780   1.176  0.2820  1.3718  0.5158
  525SOL    HW3 2174   0.444   2.751   1.056 -0.8225  0.8493 -0.1684
  525SOL    MW4 2175   0.429   2.747   1.142 -0.3507  0.5903 -0.0981
  526SOL     OW 2176   0.680   2.847   1.258  0.5063 -0.0910  0.2208
  526SOL    HW2 2177   0.663   2.939   1.236  2.3532  0.2543  0.1439
  526SOL    HW3 2178   0.608   2.799   1.218  0.8767  1.0804 -1.9389
  526SOL    MW4 2179   0.668   2.853   1.250  0.7989  0.1092 -0.0745
  527SOL     OW 2180   0.635   3.107   1.195  0.3704  0.2514 -0.0147
  527SOL    HW2 2181   0.706   3.168   1.215  0.0730  0.7782 -0.5535
  527SOL    HW3 2182   0.648   3.084   1.103  0.5537 -0.5974  0.2148
  527SOL    MW4 2183   0.646   3.112   1.186  0.3554  0.2091 -0.0556
  528SOL     OW 2184   0.389   3.239   1.217  0.1257 -0.2565 -0.1311
  528SOL    HW2 2185   0.395   3.329   1.184 -1.0003  0.5366  1.7932
  528SOL    HW3 2186   0.480   3.208   1.217  0.4652  0.6872 -1.2793
  528SOL    MW4 2187   0.402   3.246   1.212  0.0220 -0.0272 -0.0287
  529SOL     OW 2188   0.406   3.506   1.124  0.3912  0.0280 -0.0249
  529SOL    HW2 2189   0.488   3.543   1.158  0.4707 -0.2234  0.0596
  529SOL    HW3 2190   0.338   3.567   1.152  0.3805 -0.4876  1.0925
  529SOL    MW4 2191   0.408   3.519   1.132  0.4002 -0.0730  0.1338
  530SOL     OW 2192   0.659   3.603   1.248 -0.4330  0.1232  0.2959
  530SOL    HW2 2193   0.665   3.593   1.343 -0.0006  1.0059  0.3665
  530SOL    HW3 2194   0.662   3.698   1.234  1.3775 -0.0684 -0.7240
  530SOL    MW4 2195   0.660   3.614   1.259 -0.1371  0.2141  0.1708
  531SOL     OW 2196   0.643   3.859   1.135  0.2420 -0.3016  0.4121
  531SOL    HW2 2197   0.583   3.921   1.177 -1.3453 -1.4153 -0.1584
  531SOL    HW3 2198   0.641   3.883   1.042  0.6161 -0.3915  0.3807
  531SOL    MW4 2199   0.635   3.870   1.128  0.0820 -0.4604  0.3327
  532SOL     OW 2200   0.483   4.037   1.260  0.3517 -0.1739  0.4860
  532SOL    HW2 2201   0.493   4.130   1.241  0.9901 -0.4411 -0.5029
  532SOL    HW3 2202   0.405   4.011   1.211  1.3071 -0.5982 -0.8022
  532SOL    MW4 2203   0.474   4.046   1.251  0.5620 -0.2651  0.1856
  533SOL     OW 2204   0.502   4.290   1.120 -0.1098 -0.8101  0.0847
  533SOL    HW2 2205   0.572   4.330   1.171  0.0176 -0.6295 -0.2322
  533SOL    HW3 2206   0.423   4.337   1.146  0.0231 -0.4240 -0.2099
  533SOL    MW4 2207   0.501   4.301   1.130 -0.0755 -0.7353  0.0042
  534SOL     OW 2208   0.714   4.416   1.254 -0.7958 -0.7787  0.1061
  534SOL    HW2 2209   0.696   4.410   1.347  1.4522 -0.0873  0.6108
  534SOL    HW3 2210   0.800   4.375   1.243  0.6214  2.3217 -1.0893
  534SOL    MW4 2211   0.723   4.410   1.265 -0.3122 -0.2785  0.0150
  535SOL     OW 2212   1.184   4.665   1.157  0.2452 -1.1332  0.2127
  535SOL    HW2 2213   1.195   4.579   1.198  0.2240 -1.3899 -0.3204
  535SOL    HW3 2214   1.175   4.646   1.063  0.0552 -0.5648  0.1156
  535SOL    MW4 2215   1.184   4.651   1.150  0.2172 -1.0921  0.1295
  536SOL     OW 2216   0.926   0.126   1.215 -0.1153  0.1119  0.5912
  536SOL    HW2 2217   0.913   0.120   1.309  0.1756 -0.1666  0.6148
  536SOL    HW3 2218   1.004   0.073   1.198 -1.4386 -1.6576 -0.1101
  536SOL    MW4 2219   0.935   0.118   1.225 -0.2515 -0.1583  0.5019
  537SOL     OW 2220   0.872   0.352   1.090  0.3174  0.4686  0.3266
  537SOL    HW2 2221   0.885   0.272   1.142  0.9053 -1.1867 -2.2912
  537SOL    HW3 2222   0.822   0.410   1.148 -0.7376 -2.0628  2.0356
  537SOL    MW4 2223   0.867   0.349   1.105  0.2558 -0.0837  0.2067
  538SOL     OW 2224   1.108   0.473   1.193  0.1609  0.2608 -0.0843
  538SOL    HW2 2225   1.087   0.479   1.286 -1.8274  1.7153 -0.5884
  538SOL    HW3 2226   1.038   0.419   1.156  0.6834  0.0777 -0.8163
  538SOL    MW4 2227   1.096   0.466   1.201 -0.0324  0.4285 -0.2474
  539SOL     OW 2228   1.144   0.713   1.069  0.2993 -0.3056 -0.2558
  539SOL    HW2 2229   1.064   0.763   1.088  0.5196 -0.5799  1.4859
  539SOL    HW3 2230   1.132   0.631   1.117  1.2350 -0.7271 -0.7414
  539SOL    MW4 2231   1.132   0.709   1.078  0.4519 -0.3974 -0.0900
  540SOL     OW 2232   0.942   0.874   1.175  0.3422 -0.1323 -0.0150
  540SOL    HW2 2233   0.929   0.968   1.161  1.6013 -0.0128 -0.4345
  540SOL    HW3 2234   0.854   0.838   1.175 -0.0804  0.8240 -1.5710
  540SOL    MW4 2235   0.929   0.882   1.173  0.4526  0.0096 -0.2755
  541SOL     OW 2236   0.908   1.127   1.105 -0.1600  0.0379 -0.0529
  541SOL    HW2 2237   0.983   1.172   1.144 -0.1696 -0.8731  1.0304
  541SOL    HW3 2238   0.926   1.128   1.011  0.9231  0.3519  0.1513
  541SOL    MW4 2239   0.920   1.133   1.098 -0.0183 -0.0409  0.1169
  542SOL     OW 2240   1.119   1.281   1.215  0.5966 -0.0076 -0.1118
  542SOL    HW2 2241   1.126   1.274   1.311 -0.8810 -1.1727 -0.0695
  542SOL    HW3 2242   1.190   1.227   1.182  0.4465 -0.5039  0.3482
  542SOL    MW4 2243   1.129   1.273   1.223  0.3819 -0.2269 -0.0455
  543SOL     OW 2244   1.130   1.549   1.158 -0.4532 -0.3699  0.0934
  543SOL    HW2 2245   1.135   1.457   1.182  1.5431 -0.5526 -0.9256
  543SOL    HW3 2246   1.117   1.548   1.063 -1.5253  0.3928  0.2256
  543SOL    MW4 2247   1.129   1.537   1.148 -0.3313 -0.2934 -0.0236
  544SOL     OW 2248   0.912   1.705   1.258  0.0730 -0.3545  0.0031
  544SOL    HW2 2249   0.908   1.790   1.214  1.4974 -0.4071 -0.2737
  544SOL    HW3 2250   0.987   1.662   1.218  0.6188 -0.9204  1.6068
  544SOL    MW4 2251   0.921   1.711   1.247  0.3328 -0.4361  0.1782
  545SOL     OW 2252   0.908   1.937   1.128  0.1324 -0.0371  0.1749
  545SOL    HW2 2253   0.982   1.970   1.179 -0.8619 -1.1954  2.4399
  545SOL    HW3 2254   0.832   1.980   1.166 -0.6683 -1.2545 -0.0045
  545SOL    MW4 2255   0.908   1.947   1.140 -0.1044 -0.3505  0.4501
  546SOL     OW 2256   1.143   2.073   1.244  0.7764  0.0294 -0.0552
  546SOL    HW2 2257   1.141   2.058   1.339  0.0603 -1.7789 -0.3281
  546SOL    HW3 2258   1.113   2.163   1.233  0.5158  0.1402  1.4089
  546SOL    MW4 2259   1.139   2.083   1.255  0.6475 -0.1945  0.1020
  547SOL     OW 2260   1.091   2.310   1.117 -0.3865 -0.1870 -0.1891
  547SOL    HW2 2261   1.175   2.356   1.124  0.3372 -1.5067  0.0499
  547SOL    HW3 2262   1.029   2.365   1.164  0.6804  0.0576  0.9602
  547SOL    MW4 2263   1.094   2.323   1.124 -0.1503 -0.3293 -0.0061
  548SOL     OW 2264   0.855   2.425   1.218 -0.1988  0.0516  0.1009
  548SOL    HW2 2265   0.834   2.421   1.311  1.2149 -0.4886  0.4047
  548SOL    HW3 2266   0.787   2.372   1.176 -1.7002  1.5101  0.6601
  548SOL    MW4 2267   0.843   2.417   1.225 -0.2104  0.1729  0.2148
  549SOL     OW 2268   0.880   2.695   1.102  0.5004 -0.6228 -0.3470
  549SOL    HW2 2269   0.867   2.607   1.137  1.4518 -0.8021 -0.4063
  549SOL    HW3 2270   0.815   2.749   1.147 -0.3167 -1.4133 -0.5650
  549SOL    MW4 2271   0.870   2.691   1.113  0.5181 -0.7508 -0.3836
  550SOL     OW 2272   1.131   2.781   1.169  0.1446  0.0684  0.8478
  550SOL    HW2 2273   1.136   2.794   1.264  0.3498  3.5621  0.4079
  550SOL    HW3 2274   1.041   2.752   1.154 -0.4293  1.2089  1.9555
  550SOL    MW4 2275   1.120   2.779   1.180  0.0961  0.6797  0.9359
  551SOL     OW 2276   1.107   3.043   1.120  0.1615  0.1155  0.1617
  551SOL    HW2 2277   1.109   2.948   1.134 -1.4168 -0.1134 -1.0448
  551SOL    HW3 2278   1.078   3.054   1.029  1.0028  1.7451  0.0691
  551SOL    MW4 2279   1.103   3.032   1.110  0.0641  0.3002 -0.0097
  552SOL     OW 2280   0.884   3.203   1.241 -0.3539 -0.4181 -0.1628
  552SOL    HW2 2281   0.907   3.282   1.192  0.9398  0.2926  1.5455
  552SOL    HW3 2282   0.958   3.144   1.227 -0.5224 -0.6599 -0.0333
  552SOL    MW4 2283   0.897   3.206   1.232 -0.2054 -0.3562  0.0796
  553SOL     OW 2284   0.881   3.482   1.126 -0.2291 -0.2902 -0.3677
  553SOL    HW2 2285   0.805   3.528   1.159 -0.1889 -0.2198 -0.3730
  553SOL    HW3 2286   0.871   3.482   1.031 -0.3107 -0.4344 -0.3593
  553SOL    MW4 2287   0.870   3.488   1.118 -0.2346 -0.2999 -0.3674
  554SOL     OW 2288   1.136   3.568   1.213 -0.6069 -0.3970 -0.0430
  554SOL    HW2 2289   1.137   3.542   1.306 -1.3505  1.3562  0.4726
  554SOL    HW3 2290   1.050   3.539   1.181  0.2673 -2.4159 -0.6166
  554SOL    MW4 2291   1.125   3.561   1.221 -0.5896 -0.4318 -0.0508
  555SOL     OW 2292   1.136   3.882   1.161 -0.0105  0.0413  0.3479
  555SOL    HW2 2293   1.047   3.911   1.178 -0.4210 -0.9724 -0.0633
  555SOL    HW3 2294   1.138   3.790   1.189  1.4193  0.5767  2.1060
  555SOL    MW4 2295   1.125   3.874   1.167  0.1240 -0.0219  0.5257
  556SOL     OW 2296   0.882   3.969   1.216  0.1528  0.1018  0.1927
  556SOL    HW2 2297   0.887   3.967   1.312 -0.3092 -0.3017  0.2128
  556SOL    HW3 2298   0.793   3.940   1.196 -0.2871  1.7634 -0.3147
  556SOL    MW4 2299   0.871   3.965   1.226  0.0339  0.2677  0.1284
  557SOL     OW 2300   0.924   4.248   1.162  0.7261  0.1425  0.3447
  557SOL    HW2 2301   0.909   4.156   1.184 -0.3813  0.4142  0.7787
  557SOL    HW3 2302   0.910   4.253   1.068  0.0055  0.0037  0.4375
  557SOL    MW4 2303   0.920   4.237   1.152  0.4849  0.1597  0.4141
  558SOL     OW 2304   1.152   4.384   1.219  0.1398 -0.3617  0.0321
  558SOL    HW2 2305   1.142   4.392   1.314 -0.2413 -0.6712  0.0182
  558SOL    HW3 2306   1.074   4.338   1.190 -0.1859  0.5410 -0.5525
  558SOL    MW4 2307   1.141   4.379   1.227  0.0466 -0.2842 -0.0468
  559SOL     OW 2308   1.568   4.625   1.100  0.0004 -0.2711 -0.1628
  559SOL    HW2 2309   1.644   4.669   1.138  0.5519 -0.8852 -0.5405
  559SOL    HW3 2310   1.576   4.534   1.129 -0.5763 -0.3445 -0.2287
  559SOL    MW4 2311   1.580   4.619   1.109 -0.0031 -0.3619 -0.2214
  560SOL     OW 2312   1.405   0.128   1.228  0.0715 -0.3788 -0.4447
  560SOL    HW2 2313   1.472   0.067   1.198  0.4852 -0.3762  0.4525
  560SOL    HW3 2314   1.322   0.084   1.207  0.3691 -1.4767  0.6132
  560SOL    MW4 2315   1.403   0.114   1.222  0.1653 -0.5233 -0.1867
  561SOL     OW 2316   1.357   0.361   1.106  0.1249  0.2858  0.4531
  561SOL    HW2 2317   1.382   0.283   1.156  0.6043  0.0749 -0.1180
  561SOL    HW3 2318   1.277   0.392   1.149  0.9277  0.5326  1.8317
  561SOL    MW4 2319   1.350   0.355   1.118  0.2941  0.2905  0.5597
  562SOL     OW 2320   1.541   0.500   1.256  0.1428  0.2718  0.0302
  562SOL    HW2 2321   1.528   0.579   1.204  1.3353  0.4975  0.0602
  562SOL    HW3 2322   1.478   0.437   1.220 -0.2783  0.9909 -0.5006
  562SOL    MW4 2323   1.531   0.502   1.244  0.2446  0.3965 -0.0359
  563SOL     OW 2324   1.557   0.739   1.094  0.0125  0.4215  0.1236
  563SOL    HW2 2325   1.642   0.773   1.123  0.6311 -1.9582  1.1774
  563SOL    HW3 2326   1.559   0.747   0.999  1.2016  0.8376  0.1686
  563SOL    MW4 2327   1.569   0.745   1.086  0.2509  0.1624  0.2686
  564SOL     OW 2328   1.337   0.849   1.210  0.0109 -0.2913  0.0877
  564SOL    HW2 2329   1.419   0.819   1.170 -0.4850 -1.8639  0.2193
  564SOL    HW3 2330   1.270   0.790   1.176 -0.7246 -0.4179  1.6845
  564SOL    MW4 2331   1.339   0.837   1.200 -0.1515 -0.5155  0.3158
  565SOL     OW 2332   1.306   1.113   1.133 -0.6612  0.0375  0.2269
  565SOL    HW2 2333   1.323   1.021   1.153  0.2967 -0.1291 -1.3014
  565SOL    HW3 2334   1.330   1.123   1.041  0.0744  2.0078  0.5931
  565SOL    MW4 2335   1.312   1.103   1.124 -0.4376  0.2754  0.0736
  566SOL     OW 2336   1.527   1.224   1.263 -0.1996 -0.2875  0.0353
  566SOL    HW2 2337   1.608   1.194   1.222 -0.6555 -2.0574  0.4022
  566SOL    HW3 2338   1.458   1.176   1.219 -0.8940 -0.2673  1.0779
  566SOL    MW4 2339   1.529   1.214   1.252 -0.3513 -0.5184  0.2213
  567SOL     OW 2340   1.559   1.501   1.161  0.2617  0.0022  0.3037
  567SOL    HW2 2341   1.653   1.517   1.171 -0.0945  1.5643  1.4443
  567SOL    HW3 2342   1.541   1.425   1.215  0.8231 -0.1033  0.3411
  567SOL    MW4 2343   1.569   1.493   1.169  0.2888  0.1944  0.4592
  568SOL     OW 2344   1.349   1.675   1.273  0.1730 -0.2953  0.1261
  568SOL    HW2 2345   1.419   1.633   1.224  0.1020  0.0024 -0.2321
  568SOL    HW3 2346   1.269   1.635   1.241  0.1879 -0.7766  0.6763
  568SOL    MW4 2347   1.348   1.664   1.262  0.1656 -0.3195  0.1514
  569SOL     OW 2348   1.355   1.927   1.117  0.3465 -0.4464 -0.3246
  569SOL    HW2 2349   1.351   1.847   1.170  1.0800 -0.2587  0.0177
  569SOL    HW3 2350   1.272   1.971   1.135  0.7125 -0.2404  0.9200
  569SOL    MW4 2351   1.343   1.922   1.127  0.4915 -0.3945 -0.1152
  570SOL     OW 2352   1.566   2.058   1.239  0.3663  0.0841  0.0175
  570SOL    HW2 2353   1.586   2.139   1.192 -1.7784  1.6248  1.6636
  570SOL    HW3 2354   1.491   2.021   1.192  0.4224 -0.2049  0.1548
  570SOL    MW4 2355   1.559   2.063   1.226  0.0907  0.2489  0.2528
  571SOL     OW 2356   1.563   2.300   1.105  0.5799  0.1702  0.0402
  571SOL    HW2 2357   1.481   2.344   1.128 -0.6951 -2.1159  0.0258
  571SOL    HW3 2358   1.574   2.317   1.012  1.0666  1.9727  0.4144
  571SOL    MW4 2359   1.554   2.308   1.096  0.4760  0.1066  0.0877
  572SOL     OW 2360   1.334   2.436   1.176 -0.4886 -0.1002  0.4308
  572SOL    HW2 2361   1.325   2.443   1.271 -0.1622  0.2119  0.4430
  572SOL    HW3 2362   1.350   2.526   1.148  0.6618 -0.3658  0.2149
  572SOL    MW4 2363   1.335   2.449   1.185 -0.2939 -0.0942  0.4039
  573SOL     OW 2364   1.365   2.691   1.068 -0.0877 -0.2734  0.2905
  573SOL    HW2 2365   1.428   2.740   1.120 -0.4217 -0.2885  0.7142
  573SOL    HW3 2366   1.280   2.711   1.108 -0.5160  0.8519 -1.1159
  573SOL    MW4 2367   1.362   2.700   1.080 -0.1882 -0.1266  0.1608
  574SOL     OW 2368   1.564   2.836   1.191 -0.0408  0.5951 -0.0244
  574SOL    HW2 2369   1.635   2.789   1.148 -1.6607 -0.2148 -1.8569
  574SOL    HW3 2370   1.565   2.923   1.150  0.7985  1.0576  0.9670
  574SOL    MW4 2371   1.573   2.842   1.180 -0.1438  0.5493 -0.1355
  575SOL     OW 2372   1.573   3.081   1.057  0.4973  0.5982 -0.4148
  575SOL    HW2 2373   1.653   3.117   1.095  0.2990  0.5432  0.0579
  575SOL    HW3 2374   1.503   3.135   1.093 -0.0230 -1.6592  2.1543
  575SOL    MW4 2375   1.574   3.093   1.067  0.4026  0.2930 -0.0135
  576SOL     OW 2376   1.348   3.215   1.161 -0.4441 -0.0221  0.2372
  576SOL    HW2 2377   1.362   3.224   1.255 -0.1533  0.2285  0.1715
  576SOL    HW3 2378   1.269   3.162   1.154 -0.9012  0.5967  0.6247
  576SOL    MW4 2379   1.340   3.209   1.173 -0.4661  0.0927  0.2795
  577SOL     OW 2380   1.357   3.472   1.076 -0.2160  0.2170 -0.0151
  577SOL    HW2 2381   1.359   3.379   1.098  0.8897  0.2577  0.0577
  577SOL    HW3 2382   1.288   3.508   1.132 -2.2594 -0.9681 -1.6938
  577SOL    MW4 2383   1.348   3.465   1.086 -0.3397  0.0658 -0.2270
  578SOL     OW 2384   1.579   3.611   1.173  0.6304 -0.1548  0.2589
  578SOL    HW2 2385   1.586   3.700   1.141  0.2822  0.3168  1.4525
  578SOL    HW3 2386   1.501   3.575   1.130  0.9204  0.0258 -0.4194
  578SOL    MW4 2387   1.569   3.618   1.163  0.6226 -0.0687  0.3269
  579SOL     OW 2388   1.584   3.888   1.087 -0.1353  0.1736  0.0761
  579SOL    HW2 2389   1.506   3.929   1.126  0.1288  0.0404  0.7487
  579SOL    HW3 2390   1.573   3.901   0.993 -0.5359  0.9369  0.2216
  579SOL    MW4 2391   1.572   3.895   1.079 -0.1533  0.2568  0.1841
  580SOL     OW 2392   1.372   3.997   1.231  0.0908 -0.0908  0.4920
  580SOL    HW2 2393   1.365   4.084   1.191  0.8726  0.0776  0.7057
  580SOL    HW3 2394   1.293   3.951   1.204 -0.0551  0.5011 -0.0867
  580SOL    MW4 2395   1.361   4.003   1.222  0.1746  0.0095  0.4439
  581SOL     OW 2396   1.361   4.231   1.094  0.2547 -0.6097 -0.2296
  581SOL    HW2 2397   1.287   4.282   1.126  0.7301  0.0216 -0.1002
  581SOL    HW3 2398   1.371   4.259   1.003  0.6380 -0.3185 -0.1012
  581SOL    MW4 2399   1.353   4.242   1.086  0.3681 -0.4878 -0.1956
  582SOL     OW 2400   1.591   4.368   1.210 -0.1093  0.4315  0.1300
  582SOL    HW2 2401   1.571   4.376   1.303  0.7654  1.3523  0.2430
  582SOL    HW3 2402   1.516   4.321   1.174 -0.5833  0.3076  1.2461
  582SOL    MW4 2403   1.579   4.363   1.218 -0.0565  0.5364  0.2921
  583SOL     OW 2404   1.992   4.655   1.032 -0.2954  0.5139  0.3191
  583SOL    HW2 2405   1.987   4.568   1.072 -0.0137 -0.4704 -1.7504
  583SOL    HW3 2406   1.991   4.639   0.938 -0.8713  2.8011 -0.0963
  583SOL    MW4 2407   1.991   4.642   1.025 -0.3344  0.6857 -0.0087
  584SOL     OW 2408   1.775   0.111   1.177 -0.2130 -0.1460 -0.0036
  584SOL    HW2 2409   1.793   0.200   1.147 -0.6688 -0.2646 -0.6279
  584SOL    HW3 2410   1.849   0.060   1.144  0.0754  0.0048  0.3987
  584SOL    MW4 2411   1.787   0.116   1.169 -0.2351 -0.1417 -0.0329
  585SOL     OW 2412   1.749   0.385   1.098 -0.7236 -0.1874  0.3665
  585SOL    HW2 2413   1.674   0.410   1.151 -1.5793 -2.1527  0.1477
  585SOL    HW3 2414   1.730   0.419   1.010  0.8338  3.3214  1.3238
  585SOL    MW4 2415   1.737   0.393   1.093 -0.6311  0.0162  0.4640
  586SOL     OW 2416   1.966   0.520   1.197  0.4962  0.3965  0.1733
  586SOL    HW2 2417   1.954   0.508   1.291  1.2642 -0.1863  0.1998
  586SOL    HW3 2418   1.891   0.477   1.157 -0.3912  1.5609  0.5589
  586SOL    MW4 2419   1.954   0.513   1.204  0.4804  0.4733  0.2276
  587SOL     OW 2420   2.062   0.782   1.085 -0.1644  0.1234  0.0017
  587SOL    HW2 2421   2.055   0.694   1.120  0.1729  0.5801  1.2482
  587SOL    HW3 2422   2.077   0.770   0.991 -1.8770 -1.1012 -0.1401
  587SOL    MW4 2423   2.063   0.769   1.077 -0.3457  0.0222  0.1473
  588SOL     OW 2424   1.798   0.871   1.172  0.0580  0.5109 -0.2272
  588SOL    HW2 2425   1.803   0.882   1.267  0.6759 -2.0836  0.0900
  588SOL    HW3 2426   1.879   0.827   1.149  0.6613  2.5876 -2.2237
  588SOL    MW4 2427   1.809   0.866   1.182  0.2191  0.4426 -0.4487
  589SOL     OW 2428   1.761   1.157   1.128  0.2026 -0.1069  0.2479
  589SOL    HW2 2429   1.777   1.063   1.128  0.6110 -0.0354  0.4706
  589SOL    HW3 2430   1.750   1.179   1.036 -0.3641 -0.4526  0.2287
  589SOL    MW4 2431   1.761   1.147   1.116  0.1818 -0.1431  0.2747
  590SOL     OW 2432   2.002   1.248   1.230  0.5369 -0.0473  0.1038
  590SOL    HW2 2433   2.070   1.193   1.192  0.9139 -0.4333  1.3120
  590SOL    HW3 2434   1.922   1.221   1.185  0.8266 -1.1511  0.2270
  590SOL    MW4 2435   2.000   1.237   1.219  0.6248 -0.2438  0.2795
  591SOL     OW 2436   2.051   1.535   1.133 -0.2639  0.1196 -0.8099
  591SOL    HW2 2437   2.044   1.450   1.178  0.9871 -0.0073 -0.8411
  591SOL    HW3 2438   2.038   1.514   1.041 -3.1741  0.4262 -0.5097
  591SOL    MW4 2439   2.049   1.521   1.127 -0.4828  0.1433 -0.7744
  592SOL     OW 2440   1.798   1.596   1.217  0.4598  0.0497 -0.3753
  592SOL    HW2 2441   1.788   1.687   1.192 -2.5342 -0.3262 -0.8199
  592SOL    HW3 2442   1.876   1.566   1.170  0.8758  2.0794 -1.0281
  592SOL    MW4 2443   1.807   1.604   1.207  0.1197  0.2679 -0.5200
  593SOL     OW 2444   1.765   1.866   1.163  0.3546  0.1437 -0.0408
  593SOL    HW2 2445   1.703   1.910   1.221  0.0909 -1.6720  1.1043
  593SOL    HW3 2446   1.763   1.916   1.082 -1.7922  0.7421  0.3602
  593SOL    MW4 2447   1.757   1.878   1.160  0.0365 -0.0168  0.1631
  594SOL     OW 2448   2.012   2.009   1.210 -0.6245  0.0661 -0.7593
  594SOL    HW2 2449   2.021   2.006   1.305 -0.2718  1.6500 -0.7289
  594SOL    HW3 2450   1.937   1.953   1.191 -1.4784  0.7240  0.5714
  594SOL    MW4 2451   2.003   2.001   1.220 -0.6907  0.3622 -0.5796
  595SOL     OW 2452   1.993   2.274   1.118  0.2755 -0.1866  0.5540
  595SOL    HW2 2453   2.064   2.308   1.172  1.3551 -1.6046  0.0594
  595SOL    HW3 2454   1.989   2.180   1.137 -0.4143 -0.4172 -0.5906
  595SOL    MW4 2455   2.001   2.266   1.127  0.3271 -0.4041  0.3376
  596SOL     OW 2456   1.782   2.430   1.196  0.2204 -0.2654  0.0294
  596SOL    HW2 2457   1.851   2.365   1.183  0.6626  0.5851 -2.1479
  596SOL    HW3 2458   1.702   2.385   1.170  0.5461  0.0643 -1.6301
  596SOL    MW4 2459   1.780   2.415   1.190  0.3215 -0.1099 -0.4768
  597SOL     OW 2460   1.786   2.680   1.103  0.2532 -0.2004  0.5120
  597SOL    HW2 2461   1.781   2.590   1.138 -1.2780 -0.8177 -1.1954
  597SOL    HW3 2462   1.803   2.668   1.009 -0.7526  1.2740  0.1320
  597SOL    MW4 2463   1.788   2.666   1.095 -0.0817 -0.0875  0.2366
  598SOL     OW 2464   2.008   2.861   1.165  0.2179 -0.2684 -0.3196
  598SOL    HW2 2465   2.003   2.947   1.123 -0.7835 -0.6635 -1.0350
  598SOL    HW3 2466   1.935   2.812   1.127  0.6364 -1.3531  0.2674
  598SOL    MW4 2467   1.998   2.866   1.154  0.1409 -0.4637 -0.3365
  599SOL     OW 2468   2.023   3.109   1.048 -0.2162  0.2632  0.0986
  599SOL    HW2 2469   2.091   3.143   1.107  0.5594  1.1137 -1.2666
  599SOL    HW3 2470   1.940   3.137   1.088  0.2044 -1.0445  1.9313
  599SOL    MW4 2471   2.021   3.117   1.061 -0.0587  0.2029  0.1602
  600SOL     OW 2472   1.801   3.219   1.168 -0.3129  0.0449  0.0489
  600SOL    HW2 2473   1.795   3.240   1.262  0.1440 -0.0806  0.1088
  600SOL    HW3 2474   1.809   3.304   1.125  0.6667  0.0438  0.2213
  600SOL    MW4 2475   1.801   3.233   1.175 -0.1235  0.0279  0.0795
  601SOL     OW 2476   1.804   3.480   1.067 -0.1132  0.1285 -0.1988
  601SOL    HW2 2477   1.879   3.525   1.107 -1.0052  1.4842 -0.0548
  601SOL    HW3 2478   1.727   3.519   1.107 -0.9761  0.1479 -1.8286
  601SOL    MW4 2479   1.804   3.491   1.078 -0.3448  0.3099 -0.3948
  602SOL     OW 2480   2.009   3.578   1.206  0.1637  0.2265 -0.1988
  602SOL    HW2 2481   2.008   3.589   1.302  1.3446 -0.0370 -0.1426
  602SOL    HW3 2482   2.088   3.526   1.189  0.1940  0.6303 -1.3536
  602SOL    MW4 2483   2.020   3.573   1.217  0.3238  0.2449 -0.3437
  603SOL     OW 2484   2.026   3.848   1.101 -0.0307 -0.6288 -0.2957
  603SOL    HW2 2485   1.952   3.903   1.125  0.0305 -0.0741 -1.2926
  603SOL    HW3 2486   2.008   3.763   1.140 -0.3667 -0.0306  0.8730
  603SOL    MW4 2487   2.014   3.844   1.109 -0.0670 -0.4766 -0.2729
  604SOL     OW 2488   1.816   4.003   1.190  0.3593  0.8234  0.2462
  604SOL    HW2 2489   1.805   4.030   1.282 -0.2684  0.4015  0.2990
  604SOL    HW3 2490   1.734   3.958   1.169 -0.4353  2.9542 -1.2556
  604SOL    MW4 2491   1.804   4.000   1.200  0.1717  1.0490  0.0551
  605SOL     OW 2492   1.808   4.227   1.057  0.1228 -0.1861 -0.6056
  605SOL    HW2 2493   1.827   4.139   1.090 -0.1627  0.1978  0.5868
  605SOL    HW3 2494   1.719   4.246   1.089 -0.3283  0.0259 -1.9438
  605SOL    MW4 2495   1.798   4.218   1.065  0.0256 -0.1073 -0.6248
  606SOL     OW 2496   1.990   4.420   1.178 -0.0452  0.3009 -0.0006
  606SOL    HW2 2497   1.983   4.413   1.273 -2.3262  1.6927 -0.0287
  606SOL    HW3 2498   1.928   4.355   1.145  0.6644 -0.1057 -0.5633
  606SOL    MW4 2499   1.981   4.410   1.186 -0.2525  0.4311 -0.0786
  607SOL     OW 2500   2.436   4.662   1.100 -0.0550  0.3161 -0.2078
  607SOL    HW2 2501   2.511   4.698   1.148 -0.9912  0.1555  1.4212
  607SOL    HW3 2502   2.361   4.711   1.134 -0.8743 -0.5756 -0.7103
  607SOL    MW4 2503   2.436   4.674   1.111 -0.2866  0.1769 -0.0592
  608SOL     OW 2504   2.204   0.115   1.191 -0.8907  0.0646  0.1193
  608SOL    HW2 2505   2.197   0.207   1.165  0.1356  0.0734 -0.1488
  608SOL    HW3 2506   2.140   0.070   1.136 -0.9671  0.5320 -0.1812
  608SOL    MW4 2507   2.195   0.122   1.181 -0.7653  0.1274  0.0443
  609SOL     OW 2508   2.205   0.395   1.115  0.3876  0.0876 -0.2694
  609SOL    HW2 2509   2.121   0.436   1.138  0.2000 -0.8650  0.7892
  609SOL    HW3 2510   2.209   0.401   1.020 -0.6161  0.6621 -0.2881
  609SOL    MW4 2511   2.194   0.402   1.106  0.2306  0.0378 -0.1321
  610SOL     OW 2512   2.453   0.508   1.217 -0.0293  0.2085  0.3199
  610SOL    HW2 2513   2.464   0.498   1.312  1.6258 -0.2845  0.0853
  610SOL    HW3 2514   2.371   0.463   1.198 -0.4153  0.3773  1.5321
  610SOL    MW4 2515   2.444   0.501   1.227  0.1380  0.1657  0.4489
  611SOL     OW 2516   2.479   0.770   1.118  0.1973  0.1480  0.1365
  611SOL    HW2 2517   2.477   0.677   1.142  2.7879 -0.0414 -0.1654
  611SOL    HW3 2518   2.472   0.769   1.022  0.0017  0.2733  0.1503
  611SOL    MW4 2519   2.478   0.758   1.108  0.5133  0.1395  0.0985
  612SOL     OW 2520   2.262   0.888   1.223  0.0822  0.4071  0.1606
  612SOL    HW2 2521   2.338   0.845   1.184  0.5584  0.2206  1.2541
  612SOL    HW3 2522   2.188   0.830   1.203  0.6802 -0.8307  1.4066
  612SOL    MW4 2523   2.262   0.875   1.215  0.2239  0.2192  0.4693
  613SOL     OW 2524   2.208   1.120   1.099 -0.3361  0.5522 -0.0287
  613SOL    HW2 2525   2.270   1.181   1.139  0.2967 -0.8901  1.2543
  613SOL    HW3 2526   2.221   1.038   1.147 -0.8080 -0.7400 -2.0345
  613SOL    MW4 2527   2.218   1.117   1.111 -0.3147  0.1915 -0.1241
  614SOL     OW 2528   2.425   1.255   1.213  0.2215  0.5358  0.2848
  614SOL    HW2 2529   2.494   1.227   1.153 -0.4185  1.5426 -0.9331
  614SOL    HW3 2530   2.434   1.350   1.219 -0.1850  0.5227  1.2078
  614SOL    MW4 2531   2.435   1.263   1.206  0.0834  0.6669  0.2459
  615SOL     OW 2532   2.497   1.523   1.153  0.2987  0.3254 -0.6993
  615SOL    HW2 2533   2.431   1.586   1.184 -0.5858  0.0558 -1.9905
  615SOL    HW3 2534   2.484   1.521   1.058  1.3055 -0.7149 -0.8122
  615SOL    MW4 2535   2.486   1.531   1.145  0.3150  0.1526 -0.8847
  616SOL     OW 2536   2.288   1.691   1.229 -0.0445  0.1459  0.5984
  616SOL    HW2 2537   2.291   1.782   1.201 -0.4086  0.4131  1.3967
  616SOL    HW3 2538   2.205   1.658   1.195 -0.0626  0.2049  0.5850
  616SOL    MW4 2539   2.277   1.698   1.221 -0.0949  0.1889  0.7019
  617SOL     OW 2540   2.276   1.946   1.089 -0.1512 -0.0349 -0.7981
  617SOL    HW2 2541   2.193   1.981   1.120  0.4394 -0.0521  0.8766
  617SOL    HW3 2542   2.269   1.947   0.994 -1.9471  0.2330 -0.6752
  617SOL    MW4 2543   2.264   1.951   1.081 -0.3102 -0.0017 -0.5610
  618SOL     OW 2544   2.487   2.077   1.187 -0.5034 -0.0377  0.2127
  618SOL    HW2 2545   2.566   2.038   1.148 -0.4143 -0.6840  1.0234
  618SOL    HW3 2546   2.414   2.031   1.145 -0.4007 -1.0082  1.0853
  618SOL    MW4 2547   2.488   2.066   1.176 -0.4783 -0.2513  0.4348
  619SOL     OW 2548   2.431   2.331   1.098 -0.3213  0.3895  0.0589
  619SOL    HW2 2549   2.434   2.245   1.138  1.8526  0.3861 -0.1012
  619SOL    HW3 2550   2.437   2.314   1.004  0.1996  0.7180  0.0315
  619SOL    MW4 2551   2.432   2.318   1.091  0.0343  0.4325  0.0342
  620SOL     OW 2552   2.215   2.423   1.246  0.1563  0.3710  0.3783
  620SOL    HW2 2553   2.222   2.419   1.341  1.6385 -1.5905  0.2240
  620SOL    HW3 2554   2.298   2.387   1.215 -1.5120 -1.8571 -1.6660
  620SOL    MW4 2555   2.227   2.418   1.254  0.1316 -0.1819  0.0882
  621SOL     OW 2556   2.232   2.699   1.147  0.0812  0.3454 -0.4852
  621SOL    HW2 2557   2.218   2.631   1.213 -1.4210 -0.1944 -1.3277
  621SOL    HW3 2558   2.158   2.759   1.160  0.5717  1.0044 -0.7369
  621SOL    MW4 2559   2.220   2.698   1.157 -0.0522  0.3614 -0.6295
  622SOL     OW 2560   2.459   2.795   1.218 -0.2501 -0.3231 -0.4486
  622SOL    HW2 2561   2.447   2.817   1.310  0.5947 -0.5240 -0.2862
  622SOL    HW3 2562   2.376   2.754   1.192  0.2847 -2.2562  0.8159
  622SOL    MW4 2563   2.446   2.792   1.226 -0.0682 -0.6046 -0.2604
  623SOL     OW 2564   2.482   3.068   1.157  0.1871  0.0932  0.0412
  623SOL    HW2 2565   2.392   3.096   1.176  0.2861  0.4112  0.0445
  623SOL    HW3 2566   2.480   2.973   1.168 -0.6424 -0.1377 -1.8951
  623SOL    MW4 2567   2.470   3.060   1.161  0.0908  0.1047 -0.2137
  624SOL     OW 2568   2.227   3.177   1.224  0.7800  0.0278  0.1603
  624SOL    HW2 2569   2.230   3.268   1.195 -0.4445 -0.2547 -0.8548
  624SOL    HW3 2570   2.233   3.182   1.320  0.0656  1.2035  0.1437
  624SOL    MW4 2571   2.228   3.190   1.233  0.5240  0.1454  0.0243
  625SOL     OW 2572   2.229   3.444   1.116 -0.0900 -0.3295 -0.1190
  625SOL    HW2 2573   2.293   3.514   1.126  0.0908 -0.4570 -0.3787
  625SOL    HW3 2574   2.221   3.433   1.021 -0.5211 -0.2885 -0.0901
  625SOL    MW4 2575   2.236   3.452   1.105 -0.1230 -0.3409 -0.1494
  626SOL     OW 2576   2.476   3.575   1.199 -0.5881 -0.1027 -0.1932
  626SOL    HW2 2577   2.481   3.561   1.294  0.1359 -0.1424 -0.2415
  626SOL    HW3 2578   2.464   3.669   1.189  1.6471  0.1917 -0.1525
  626SOL    MW4 2579   2.475   3.585   1.210 -0.1979 -0.0691 -0.1942
  627SOL     OW 2580   2.441   3.838   1.162  0.4902  0.0361  0.0762
  627SOL    HW2 2581   2.376   3.903   1.190  0.0002 -0.4946  0.1786
  627SOL    HW3 2582   2.443   3.846   1.067  0.6293  0.3874  0.1060
  627SOL    MW4 2583   2.433   3.848   1.153  0.4439  0.0126  0.0937
  628SOL     OW 2584   2.245   4.001   1.231 -0.1579 -0.0073 -0.1667
  628SOL    HW2 2585   2.232   4.093   1.207 -0.8893  0.0945  0.5870
  628SOL    HW3 2586   2.173   3.955   1.189 -1.5195  0.1918  1.9031
  628SOL    MW4 2587   2.234   4.007   1.222 -0.4342  0.0319  0.2059
  629SOL     OW 2588   2.214   4.265   1.147  0.3713  0.0122 -0.5515
  629SOL    HW2 2589   2.138   4.319   1.169  1.3981  1.3646 -0.2802
  629SOL    HW3 2590   2.216   4.265   1.051 -1.5317 -2.2680 -0.6339
  629SOL    MW4 2591   2.204   4.272   1.137  0.2556 -0.1101 -0.5264
  630SOL     OW 2592   2.431   4.409   1.222  0.8862 -0.1255 -0.0943
  630SOL    HW2 2593   2.352   4.362   1.195  0.2993  0.6300  0.2887
  630SOL    HW3 2594   2.427   4.492   1.175  0.2438  0.8836  1.6860
  630SOL    MW4 2595   2.420   4.414   1.213  0.7238  0.1073  0.1912
  631SOL     OW 2596   2.911   4.648   1.141 -0.2567 -0.5505 -0.1011
  631SOL    HW2 2597   2.910   4.562   1.184  0.1561 -0.4485  0.1142
  631SOL    HW3 2598   2.911   4.628   1.048  0.2676 -0.7883 -0.0476
  631SOL    MW4 2599   2.911   4.634   1.135 -0.1333 -0.5684 -0.0656
  632SOL     OW 2600   2.665   0.108   1.205 -0.1933 -0.0163  0.2588
  632SOL    HW2 2601   2.671   0.106   1.301 -1.1895  2.2452  0.4221
  632SOL    HW3 2602   2.747   0.070   1.175  0.9116  0.8729  2.0303
  632SOL    MW4 2603   2.676   0.103   1.214 -0.1788  0.3994  0.5139
  633SOL     OW 2604   2.628   0.355   1.085  0.0126  0.1828 -0.2186
  633SOL    HW2 2605   2.638   0.276   1.138 -0.1753  0.4875  0.2764
  633SOL    HW3 2606   2.559   0.405   1.129  0.2854  0.7239 -0.4019
  633SOL    MW4 2607   2.620   0.351   1.098  0.0238  0.2944 -0.1774
  634SOL     OW 2608   2.825   0.498   1.222  0.3789  0.2834 -0.7811
  634SOL    HW2 2609   2.823   0.589   1.194 -1.5709  0.7112  0.6283
  634SOL    HW3 2610   2.753   0.456   1.176  0.0736 -0.0876  0.0134
  634SOL    MW4 2611   2.815   0.504   1.212  0.0815  0.2909 -0.4903
  635SOL     OW 2612   2.848   0.780   1.175  0.5685  0.4524 -0.4660
  635SOL    HW2 2613   2.932   0.816   1.204  0.6298 -1.4076  1.7530
  635SOL    HW3 2614   2.783   0.833   1.221  0.5980 -0.0853  0.2036
  635SOL    MW4 2615   2.850   0.792   1.185  0.5805  0.1361 -0.0849
  636SOL     OW 2616   2.648   0.927   1.316  0.6122  0.5329 -0.7642
  636SOL    HW2 2617   2.655   1.002   1.256  2.0426  0.9580 -0.0895
  636SOL    HW3 2618   2.583   0.869   1.275 -0.1964  1.9360 -1.5087
  636SOL    MW4 2619   2.640   0.929   1.302  0.6943  0.7741 -0.7734
  637SOL     OW 2620   2.662   1.135   1.115  0.2676  0.0431 -0.6170
  637SOL    HW2 2621   2.736   1.191   1.141 -1.9623  2.3188  1.0779
  637SOL    HW3 2622   2.656   1.144   1.020  0.5340  1.9570 -0.4610
  637SOL    MW4 2623   2.671   1.143   1.106  0.0086  0.5959 -0.3729
  638SOL     OW 2624   2.899   1.294   1.195  0.0514 -0.0115 -0.1814
  638SOL    HW2 2625   2.904   1.306   1.290 -2.0802  1.3781 -0.2099
  638SOL    HW3 2626   2.924   1.379   1.159 -0.0201 -0.2684 -0.8371
  638SOL    MW4 2627   2.903   1.307   1.203 -0.2394  0.1379 -0.2718
  639SOL     OW 2628   2.956   1.539   1.028 -0.2883  0.2710  0.0149
  639SOL    HW2 2629   3.038   1.584   1.050 -0.5261  0.6563  0.1057
  639SOL    HW3 2630   2.957   1.535   0.932  0.7400 -1.3988  0.0728
  639SOL    MW4 2631   2.967   1.544   1.018 -0.1841  0.1014  0.0347
  640SOL     OW 2632   2.741   1.670   1.129  0.2890 -0.0823 -0.0013
  640SOL    HW2 2633   2.814   1.633   1.078  1.2717  1.0225  0.5763
  640SOL    HW3 2634   2.672   1.604   1.123  1.4612 -1.3061 -0.2652
  640SOL    MW4 2635   2.742   1.656   1.121  0.5732 -0.0980  0.0401
  641SOL     OW 2636   2.712   1.954   1.084 -0.2927  0.0301  0.4144
  641SOL    HW2 2637   2.790   1.985   1.131 -0.2750  0.1331  0.3179
  641SOL    HW3 2638   2.703   1.862   1.111 -0.2698  0.0831  0.6023
  641SOL    MW4 2639   2.721   1.946   1.094 -0.2873  0.0507  0.4265
  642SOL     OW 2640   2.945   2.030   1.214  0.4524 -0.0929  0.1084
  642SOL    HW2 2641   2.931   2.045   1.307 -0.8662 -1.1998  0.1013
  642SOL    HW3 2642   2.925   2.114   1.173 -0.2745  0.0276  0.7027
  642SOL    MW4 2643   2.941   2.043   1.221  0.1826 -0.2232  0.1858
  643SOL     OW 2644   2.898   2.256   1.090 -0.0275 -0.2706 -0.8717
  643SOL    HW2 2645   2.965   2.311   1.130  0.6026 -1.9596  0.4999
  643SOL    HW3 2646   2.816   2.305   1.103  0.5882  0.5954 -0.1976
  643SOL    MW4 2647   2.896   2.270   1.097  0.1369 -0.3793 -0.6016
  644SOL     OW 2648   2.677   2.398   1.185  0.2303  0.3631 -0.7030
  644SOL    HW2 2649   2.670   2.394   1.280 -0.9016  0.9535 -0.7563
  644SOL    HW3 2650   2.588   2.381   1.154  0.4138  1.0747 -1.6319
  644SOL    MW4 2651   2.664   2.395   1.193  0.1051  0.5348 -0.8326
  645SOL     OW 2652   2.674   2.672   1.123  0.2464  0.5074 -0.0736
  645SOL    HW2 2653   2.672   2.585   1.163 -0.4112 -0.6780 -2.6109
  645SOL    HW3 2654   2.606   2.721   1.169 -0.1652 -0.6675  0.5846
  645SOL    MW4 2655   2.665   2.667   1.134  0.1054  0.1960 -0.3215
  646SOL     OW 2656   2.905   2.815   1.196  0.2038  0.3340  0.5676
  646SOL    HW2 2657   2.905   2.824   1.292  0.8847  0.0902  0.5926
  646SOL    HW3 2658   2.835   2.753   1.178 -1.7497  2.4363  0.7021
  646SOL    MW4 2659   2.896   2.808   1.207  0.0358  0.5791  0.5885
  647SOL     OW 2660   2.907   3.070   1.098 -0.1707  0.1647  0.1171
  647SOL    HW2 2661   2.904   2.981   1.133  0.9037  0.2777  0.5095
  647SOL    HW3 2662   2.925   3.059   1.005  0.2460 -0.0247  0.2193
  647SOL    MW4 2663   2.909   3.057   1.090  0.0260  0.1545  0.1824
  648SOL     OW 2664   2.703   3.196   1.251 -0.1356  0.1869 -0.6113
  648SOL    HW2 2665   2.774   3.152   1.205 -0.3031  0.1177 -0.8040
  648SOL    HW3 2666   2.625   3.146   1.228  0.0546 -1.0362  1.3192
  648SOL    MW4 2667   2.702   3.184   1.242 -0.1326  0.0165 -0.3821
  649SOL     OW 2668   2.727   3.490   1.140  0.2606  0.6244 -0.1505
  649SOL    HW2 2669   2.723   3.397   1.164  1.7753 -0.1562 -2.7487
  649SOL    HW3 2670   2.637   3.521   1.153 -0.4121 -1.3639  0.1911
  649SOL    MW4 2671   2.714   3.481   1.145  0.3715  0.2592 -0.4483
  650SOL     OW 2672   2.922   3.646   1.244  0.0841  0.5495  0.2449
  650SOL    HW2 2673   2.996   3.604   1.200 -0.7887  1.9010 -2.6184
  650SOL    HW3 2674   2.845   3.601   1.210 -0.4933 -0.2857  2.5749
  650SOL    MW4 2675   2.921   3.635   1.234 -0.1075  0.6175  0.1745
  651SOL     OW 2676   2.896   3.912   1.144 -0.2040  0.2960 -0.1591
  651SOL    HW2 2677   2.964   3.965   1.184 -0.1169  0.1003 -0.0449
  651SOL    HW3 2678   2.910   3.824   1.180 -0.0964  0.1103 -0.6502
  651SOL    MW4 2679   2.907   3.907   1.154 -0.1786  0.2458 -0.2087
  652SOL     OW 2680   2.656   4.006   1.230 -0.3369 -0.1681  0.2024
  652SOL    HW2 2681   2.735   3.976   1.185  0.7792  2.8813  0.0493
  652SOL    HW3 2682   2.585   3.959   1.187  0.8874  1.1566 -3.4476
  652SOL    MW4 2683   2.657   3.996   1.219 -0.0284  0.4089 -0.2993
  653SOL     OW 2684   2.653   4.279   1.137 -0.4509 -0.3287 -0.0968
  653SOL    HW2 2685   2.656   4.192   1.176  1.3686  0.0022  0.5532
  653SOL    HW3 2686   2.572   4.317   1.168 -0.7923 -1.4365  0.3911
  653SOL    MW4 2687   2.643   4.272   1.146 -0.2561 -0.4315  0.0534
  654SOL     OW 2688   2.900   4.387   1.250 -0.0068 -0.1201 -0.1919
  654SOL    HW2 2689   2.967   4.346   1.196  0.5138  0.1505  0.2439
  654SOL    HW3 2690   2.817   4.364   1.208  0.3370 -0.8139 -0.4818
  654SOL    MW4 2691   2.898   4.379   1.237  0.1070 -0.1760 -0.1726
  655SOL     OW 2692   3.367   0.002   1.104  0.0683  0.0166  0.1117
  655SOL    HW2 2693   3.432   0.056   1.149 -0.1425  0.4791 -0.1417
  655SOL    HW3 2694   3.284   0.045   1.122  0.1817  1.3196 -2.3753
  655SOL    MW4 2695   3.365   0.014   1.112  0.0556  0.2495 -0.2499
  656SOL     OW 2696   3.150   0.148   1.207  0.4160 -0.6657 -0.1893
  656SOL    HW2 2697   3.157   0.117   1.297  0.3678  0.1280  0.0860
  656SOL    HW3 2698   3.066   0.113   1.177  0.2312 -0.5696  0.2138
  656SOL    MW4 2699   3.140   0.139   1.215  0.3850 -0.5483 -0.0998
  657SOL     OW 2700   3.074   0.423   1.147 -0.5701 -0.1375 -0.0436
  657SOL    HW2 2701   3.109   0.351   1.200  1.3897  0.3102 -0.7008
  657SOL    HW3 2702   2.983   0.430   1.174 -0.0452 -1.0221  2.0698
  657SOL    MW4 2703   3.067   0.415   1.157 -0.2425 -0.1951  0.1485
  658SOL     OW 2704   3.316   0.515   1.208  0.1231 -0.0894 -0.0799
  658SOL    HW2 2705   3.329   0.601   1.168  0.0306 -0.6907 -1.4631
  658SOL    HW3 2706   3.223   0.497   1.197 -0.0629  0.0958  1.1805
  658SOL    MW4 2707   3.306   0.524   1.201  0.0865 -0.1442 -0.0961
  659SOL     OW 2708   3.335   0.778   1.121  0.1793  0.1050  0.0024
  659SOL    HW2 2709   3.250   0.814   1.147  0.1829  0.3099 -0.2674
  659SOL    HW3 2710   3.322   0.750   1.031 -0.2353 -1.8854  0.6556
  659SOL    MW4 2711   3.322   0.779   1.113  0.1252 -0.1305  0.0530
  660SOL     OW 2712   3.112   0.884   1.226  0.3129  0.0838 -0.0852
  660SOL    HW2 2713   3.135   0.885   1.319  1.7795  1.1371 -0.4411
  660SOL    HW3 2714   3.116   0.976   1.199 -1.5874 -0.0354 -0.8530
  660SOL    MW4 2715   3.116   0.896   1.235  0.2556  0.2071 -0.2335
  661SOL     OW 2716   3.137   1.147   1.102  0.0668 -0.0910 -0.0731
  661SOL    HW2 2717   3.217   1.186   1.137 -0.6799 -0.2495  1.8184
  661SOL    HW3 2718   3.066   1.189   1.150 -0.9302 -1.0118 -0.7130
  661SOL    MW4 2719   3.139   1.158   1.113 -0.1631 -0.2334  0.0921
  662SOL     OW 2720   3.357   1.281   1.197  0.9418 -0.3744 -0.2179
  662SOL    HW2 2721   3.354   1.285   1.292  2.4106 -0.6056 -0.1433
  662SOL    HW3 2722   3.375   1.372   1.170 -0.2287 -0.1663 -0.3224
  662SOL    MW4 2723   3.359   1.294   1.206  0.9811 -0.3775 -0.2218
  663SOL     OW 2724   3.420   1.533   1.100 -0.1116 -0.6658 -0.3096
  663SOL    HW2 2725   3.493   1.578   1.144 -0.1865 -0.1887 -0.6685
  663SOL    HW3 2726   3.342   1.582   1.128 -0.3098 -1.2621  0.1852
  663SOL    MW4 2727   3.419   1.546   1.110 -0.1478 -0.6816 -0.2917
  664SOL     OW 2728   3.166   1.656   1.158  0.5080 -0.0766 -0.3195
  664SOL    HW2 2729   3.176   1.653   1.253 -2.3775  0.4278  0.0438
  664SOL    HW3 2730   3.178   1.748   1.135 -0.5710  0.0850 -0.2270
  664SOL    MW4 2731   3.169   1.667   1.167 -0.0148  0.0114 -0.2594
  665SOL     OW 2732   3.165   1.920   1.073 -0.1310 -0.1380 -0.6610
  665SOL    HW2 2733   3.239   1.956   1.122  1.1094 -3.8388  0.3336
  665SOL    HW3 2734   3.088   1.954   1.119  0.9614  1.5891 -0.0502
  665SOL    MW4 2735   3.164   1.929   1.086  0.1771 -0.3984 -0.4492
  666SOL     OW 2736   3.363   2.047   1.222 -0.6056  0.2045 -0.3321
  666SOL    HW2 2737   3.442   1.997   1.201 -0.8342  0.2861 -1.3801
  666SOL    HW3 2738   3.378   2.133   1.184 -1.2392  0.1980 -0.6041
  666SOL    MW4 2739   3.376   2.052   1.215 -0.7193  0.2146 -0.5063
  667SOL     OW 2740   3.373   2.298   1.072  0.0840 -0.3374 -0.3469
  667SOL    HW2 2741   3.442   2.355   1.109 -0.3516 -0.0321 -0.0011
  667SOL    HW3 2742   3.291   2.336   1.104 -0.2596 -0.5563 -0.9677
  667SOL    MW4 2743   3.372   2.310   1.081 -0.0188 -0.3259 -0.3831
  668SOL     OW 2744   3.137   2.388   1.184  0.7149  0.6550  0.0977
  668SOL    HW2 2745   3.151   2.383   1.279  1.0364  0.9783  0.0687
  668SOL    HW3 2746   3.147   2.481   1.163  0.9615  0.5424 -0.2996
  668SOL    MW4 2747   3.140   2.400   1.194  0.7899  0.6828  0.0416
  669SOL     OW 2748   3.159   2.671   1.139  0.7018  0.3204  0.0183
  669SOL    HW2 2749   3.083   2.719   1.174 -0.4914 -1.5500  0.0500
  669SOL    HW3 2750   3.154   2.685   1.044  0.1772  0.0030 -0.0018
  669SOL    MW4 2751   3.148   2.679   1.131  0.4749  0.0319  0.0198
  670SOL     OW 2752   3.351   2.853   1.220  0.0095 -0.5683 -0.1352
  670SOL    HW2 2753   3.352   2.925   1.157  1.0341 -0.3887  0.0762
  670SOL    HW3 2754   3.281   2.796   1.190  0.0903 -0.1779 -1.0862
  670SOL    MW4 2755   3.342   2.855   1.208  0.1554 -0.4928 -0.2328
  671SOL     OW 2756   3.339   3.087   1.079 -0.3701  0.1063  0.2372
  671SOL    HW2 2757   3.416   3.117   1.128 -0.6371 -0.2570  0.8708
  671SOL    HW3 2758   3.265   3.127   1.124 -0.5363  0.7181 -0.5665
  671SOL    MW4 2759   3.340   3.097   1.091 -0.4272  0.1388  0.2146
  672SOL     OW 2760   3.117   3.196   1.200 -0.2727 -0.2135 -0.0804
  672SOL    HW2 2761   3.094   3.287   1.184  0.7199 -0.0344 -0.5657
  672SOL    HW3 2762   3.040   3.146   1.173 -0.7010  0.4605 -0.1127
  672SOL    MW4 2763   3.104   3.201   1.194 -0.1984 -0.1009 -0.1487
  673SOL     OW 2764   3.108   3.478   1.130 -0.1810  0.1866  0.5877
  673SOL    HW2 2765   3.189   3.510   1.169 -0.3743 -0.5569  1.6151
  673SOL    HW3 2766   3.126   3.476   1.036  0.5895  1.1416  0.7059
  673SOL    MW4 2767   3.121   3.482   1.123 -0.1047  0.2146  0.7389
  674SOL     OW 2768   3.324   3.610   1.222  0.1863  0.1469  0.5371
  674SOL    HW2 2769   3.315   3.593   1.315  0.8525 -0.2153  0.5366
  674SOL    HW3 2770   3.409   3.572   1.198  1.4356  2.9507  0.4095
  674SOL    MW4 2771   3.334   3.603   1.231  0.4392  0.4694  0.5201
  675SOL     OW 2772   3.329   3.891   1.121  0.2478 -0.0040 -0.4299
  675SOL    HW2 2773   3.268   3.938   1.178  1.7993  1.1104  0.3641
  675SOL    HW3 2774   3.335   3.803   1.158 -0.2947  0.1201 -0.0568
  675SOL    MW4 2775   3.322   3.886   1.133  0.3808  0.1593 -0.2759
  676SOL     OW 2776   3.151   4.040   1.272  0.0558 -0.1792 -0.1092
  676SOL    HW2 2777   3.162   4.042   1.367  1.2283  1.0813 -0.2437
  676SOL    HW3 2778   3.133   4.131   1.248  1.6249 -0.1553 -1.2718
  676SOL    MW4 2779   3.150   4.052   1.281  0.4177 -0.0095 -0.2803
  677SOL     OW 2780   3.119   4.264   1.124  0.1939 -0.2060 -0.0914
  677SOL    HW2 2781   3.187   4.326   1.151 -0.4160  0.4086  0.0659
  677SOL    HW3 2782   3.146   4.235   1.037  0.5666  0.1671 -0.1053
  677SOL    MW4 2783   3.132   4.269   1.116  0.1626 -0.0758 -0.0725
  678SOL     OW 2784   3.317   4.442   1.228 -0.1176 -0.0677  0.9023
  678SOL    HW2 2785   3.399   4.394   1.219 -0.3373 -0.0753 -1.3926
  678SOL    HW3 2786   3.336   4.529   1.193 -1.1032 -0.1032  0.2552
  678SOL    MW4 2787   3.330   4.447   1.223 -0.2766 -0.0739  0.5141
  679SOL     OW 2788   3.785   0.005   1.125 -1.1247  0.4583 -0.3576
  679SOL    HW2 2789   3.811  -0.083   1.154  0.1380  0.8689 -0.2109
  679SOL    HW3 2790   3.771  -0.004   1.031 -2.0788 -0.1455 -0.1701
  679SOL    MW4 2791   3.786  -0.008   1.117 -1.0839  0.4330 -0.3135
  680SOL     OW 2792   3.569   0.171   1.198 -0.1792  0.2505  0.5452
  680SOL    HW2 2793   3.567   0.254   1.150 -0.1268 -1.0987 -1.8670
  680SOL    HW3 2794   3.643   0.123   1.159  0.9796 -0.2056  3.1819
  680SOL    MW4 2795   3.579   0.175   1.187 -0.0193  0.0123  0.5747
  681SOL     OW 2796   3.556   0.425   1.097  0.0587 -0.2611  0.1678
  681SOL    HW2 2797   3.626   0.468   1.147  0.9686 -1.0329 -0.4409
  681SOL    HW3 2798   3.476   0.447   1.145  0.6874  0.8056  0.7508
  681SOL    MW4 2799   3.554   0.434   1.110  0.2615 -0.2222  0.1644
  682SOL     OW 2800   3.756   0.547   1.230  0.5813  0.1684 -0.7627
  682SOL    HW2 2801   3.835   0.496   1.214  0.7093  0.0653  0.1672
  682SOL    HW3 2802   3.769   0.627   1.180  1.3943  0.2670 -0.4070
  682SOL    MW4 2803   3.768   0.551   1.221  0.7055  0.1678 -0.5931
  683SOL     OW 2804   3.801   0.774   1.073 -0.0384  0.0737  0.0774
  683SOL    HW2 2805   3.884   0.820   1.089 -1.1647  1.9771  0.5266
  683SOL    HW3 2806   3.735   0.828   1.115 -1.5162 -1.5106 -0.1696
  683SOL    MW4 2807   3.803   0.787   1.080 -0.3822  0.1158  0.1041
  684SOL     OW 2808   3.591   0.893   1.179 -0.1509  0.4610 -0.4488
  684SOL    HW2 2809   3.573   0.985   1.158 -2.1355  0.2384  0.1792
  684SOL    HW3 2810   3.507   0.849   1.168  0.1001 -0.7574  2.1472
  684SOL    MW4 2811   3.578   0.899   1.175 -0.3798  0.2710 -0.0235
  685SOL     OW 2812   3.584   1.158   1.101 -0.0072  0.2795 -0.2897
  685SOL    HW2 2813   3.663   1.191   1.143  0.6727 -0.8189 -0.6821
  685SOL    HW3 2814   3.512   1.194   1.153  0.8060 -0.6800  1.5498
  685SOL    MW4 2815   3.585   1.167   1.113  0.1895  0.0079 -0.0987
  686SOL     OW 2816   3.829   1.284   1.240  0.2128  0.0864  0.6357
  686SOL    HW2 2817   3.812   1.283   1.334 -0.4994  2.1727  0.5418
  686SOL    HW3 2818   3.846   1.375   1.219  0.1109 -0.3195 -1.3279
  686SOL    MW4 2819   3.829   1.296   1.249  0.1051  0.3082  0.3642
  687SOL     OW 2820   3.813   1.569   1.177  0.0987  0.0897 -0.2104
  687SOL    HW2 2821   3.893   1.622   1.179  1.3649 -1.7487 -1.0020
  687SOL    HW3 2822   3.797   1.555   1.083 -0.3840 -0.6823 -0.0135
  687SOL    MW4 2823   3.822   1.574   1.165  0.2022 -0.2548 -0.2888
  688SOL     OW 2824   3.594   1.710   1.235 -0.2232 -0.4062 -0.0584
  688SOL    HW2 2825   3.592   1.788   1.179  2.3954  0.8146  1.4460
  688SOL    HW3 2826   3.678   1.668   1.213 -0.1037 -0.9980  1.5008
  688SOL    MW4 2827   3.605   1.714   1.225  0.1383 -0.3233  0.3458
  689SOL     OW 2828   3.601   1.936   1.092  0.1535  0.0963  0.0333
  689SOL    HW2 2829   3.666   1.999   1.124 -0.9903  1.0693  0.5150
  689SOL    HW3 2830   3.601   1.948   0.997  0.8195 -0.0422  0.0176
  689SOL    MW4 2831   3.610   1.946   1.084  0.0906  0.2065  0.0948
  690SOL     OW 2832   3.796   2.081   1.203  0.3172  0.1316  0.3262
  690SOL    HW2 2833   3.797   2.090   1.298  1.0962  3.2306  0.0640
  690SOL    HW3 2834   3.882   2.045   1.181  0.2071 -0.4038  0.7359
  690SOL    MW4 2835   3.807   2.077   1.212  0.4055  0.4699  0.3456
  691SOL     OW 2836   3.766   2.319   1.070  0.3716  0.4789  0.2975
  691SOL    HW2 2837   3.851   2.359   1.089  1.6618 -1.8230 -0.4389
  691SOL    HW3 2838   3.774   2.230   1.103 -1.0010 -0.4208 -1.7224
  691SOL    MW4 2839   3.779   2.313   1.077  0.3607  0.0565 -0.0660
  692SOL     OW 2840   3.556   2.450   1.219 -0.0574  0.4044  0.3151
  692SOL    HW2 2841   3.571   2.432   1.311 -0.8416 -2.8873 -0.1296
  692SOL    HW3 2842   3.619   2.393   1.173 -1.0776  0.4523 -1.1841
  692SOL    MW4 2843   3.566   2.440   1.225 -0.2956 -0.0236  0.0587
  693SOL     OW 2844   3.573   2.732   1.117  0.3028 -0.3563  0.3504
  693SOL    HW2 2845   3.577   2.650   1.165  0.2586 -0.5704 -0.0141
  693SOL    HW3 2846   3.501   2.780   1.158  0.1057 -0.6414  0.3406
  693SOL    MW4 2847   3.564   2.728   1.129  0.2708 -0.4222  0.3011
  694SOL     OW 2848   3.771   2.878   1.236  0.0616  0.3575  0.0856
  694SOL    HW2 2849   3.770   2.868   1.331  2.0178 -1.7063 -0.0638
  694SOL    HW3 2850   3.690   2.834   1.207 -0.4180  0.7805  0.7752
  694SOL    MW4 2851   3.760   2.871   1.244  0.2565  0.1411  0.1569
  695SOL     OW 2852   3.780   3.123   1.112 -0.1957  0.1761  0.1363
  695SOL    HW2 2853   3.788   3.035   1.149  0.1536 -0.4750 -1.4409
  695SOL    HW3 2854   3.794   3.110   1.018  0.6276  2.0197 -0.0084
  695SOL    MW4 2855   3.783   3.109   1.105 -0.0408  0.3333 -0.0908
  696SOL     OW 2856   3.560   3.226   1.233  0.1036  0.3058 -0.4371
  696SOL    HW2 2857   3.555   3.321   1.218  0.6580  0.4836  0.4727
  696SOL    HW3 2858   3.644   3.201   1.194  0.7234  0.4718  0.7703
  696SOL    MW4 2859   3.571   3.235   1.226  0.2584  0.3512 -0.1577
  697SOL     OW 2860   3.564   3.507   1.123  0.0748  0.7859  0.0642
  697SOL    HW2 2861   3.647   3.541   1.155  0.3704  0.7030 -0.6076
  697SOL    HW3 2862   3.563   3.529   1.030 -0.6914  0.8604  0.0827
  697SOL    MW4 2863   3.575   3.514   1.115  0.0126  0.7846 -0.0222
  698SOL     OW 2864   3.797   3.630   1.234 -0.1708 -0.2557 -0.3292
  698SOL    HW2 2865   3.785   3.620   1.329 -0.5905  0.6117 -0.2906
  698SOL    HW3 2866   3.779   3.722   1.217 -0.9816 -0.6064 -1.3885
  698SOL    MW4 2867   3.793   3.641   1.244 -0.3331 -0.1874 -0.4638
  699SOL     OW 2868   3.771   3.888   1.129  0.1131  0.1197  0.0344
  699SOL    HW2 2869   3.694   3.942   1.149 -0.8485 -1.4130  0.6402
  699SOL    HW3 2870   3.773   3.883   1.034  0.0395  0.9847 -0.0136
  699SOL    MW4 2871   3.761   3.894   1.119 -0.0236  0.0317  0.1080
  700SOL     OW 2872   3.547   4.043   1.175 -0.0448 -0.1065 -0.1039
  700SOL    HW2 2873   3.555   4.029   1.270 -0.7424  1.2071  0.1540
  700SOL    HW3 2874   3.467   3.996   1.151 -0.2170  0.0943  0.0739
  700SOL    MW4 2875   3.537   4.035   1.185 -0.1595  0.0935 -0.0465
  701SOL     OW 2876   3.560   4.324   1.183  0.0013  0.5258 -0.3941
  701SOL    HW2 2877   3.558   4.228   1.185 -1.9621  0.5779  0.9720
  701SOL    HW3 2878   3.540   4.346   1.092 -1.0661 -0.3594 -0.3889
  701SOL    MW4 2879   3.557   4.314   1.171 -0.3986  0.4158 -0.2131
  702SOL     OW 2880   3.832   4.400   1.230 -0.7681  0.4095 -0.3980
  702SOL    HW2 2881   3.841   4.406   1.325 -0.5118 -0.6731 -0.3445
  702SOL    HW3 2882   3.744   4.367   1.216 -0.4531 -0.3900 -0.5004
  702SOL    MW4 2883   3.822   4.397   1.240 -0.6926  0.1616 -0.4045
  703SOL     OW 2884   4.250   0.022   1.115  0.2719 -0.0608  0.0985
  703SOL    HW2 2885   4.243  -0.065   1.153 -1.7664  0.2821  0.5403
  703SOL    HW3 2886   4.169   0.066   1.140  1.3333  2.0109 -0.0172
  703SOL    MW4 2887   4.239   0.016   1.123  0.1435  0.2578  0.1416
  704SOL     OW 2888   4.015   0.138   1.197 -0.4467  0.7369  0.0017
  704SOL    HW2 2889   4.013   0.120   1.291  0.6255 -1.2096 -0.3189
  704SOL    HW3 2890   3.946   0.082   1.161  0.3446  0.1436 -0.5810
  704SOL    MW4 2891   4.005   0.128   1.205 -0.2007  0.4018 -0.1174
  705SOL     OW 2892   3.977   0.411   1.156  0.2009  0.0278  0.3550
  705SOL    HW2 2893   4.000   0.321   1.176 -0.5358 -0.1093  0.5813
  705SOL    HW3 2894   3.980   0.416   1.060 -0.4289 -0.4176  0.3113
  705SOL    MW4 2895   3.980   0.400   1.146  0.0205 -0.0491  0.3791
  706SOL     OW 2896   4.236   0.517   1.178 -0.0628  0.2631 -0.1289
  706SOL    HW2 2897   4.231   0.531   1.272 -0.8765  2.7938 -0.5110
  706SOL    HW3 2898   4.155   0.470   1.156 -0.0912  0.0787  0.3702
  706SOL    MW4 2899   4.224   0.513   1.187 -0.1740  0.5727 -0.1134
  707SOL     OW 2900   4.269   0.781   1.107 -0.2402  0.1260 -0.0527
  707SOL    HW2 2901   4.262   0.686   1.103 -1.5152  0.1788  0.7068
  707SOL    HW3 2902   4.269   0.809   1.015  3.2522 -0.7837 -0.3870
  707SOL    MW4 2903   4.268   0.772   1.094  0.0520  0.0129  0.0036
  708SOL     OW 2904   4.013   0.904   1.187  0.2573 -0.1426 -0.0720
  708SOL    HW2 2905   3.982   0.894   1.277 -1.2022  1.0000 -0.4314
  708SOL    HW3 2906   4.096   0.855   1.185  0.9208  0.8003  2.1887
  708SOL    MW4 2907   4.020   0.896   1.199  0.1531  0.1326  0.1789
  709SOL     OW 2908   4.026   1.164   1.096  0.5100  0.2221  0.0713
  709SOL    HW2 2909   4.028   1.074   1.129  0.0726  0.5068  0.8799
  709SOL    HW3 2910   3.963   1.209   1.152  0.5235  0.9678 -0.5039
  709SOL    MW4 2911   4.018   1.158   1.108  0.4539  0.3581  0.1023
  710SOL     OW 2912   4.254   1.310   1.175 -0.0798 -0.5225 -0.2502
  710SOL    HW2 2913   4.280   1.295   1.266  0.5457 -1.2191 -0.5402
  710SOL    HW3 2914   4.172   1.262   1.165 -0.1989 -0.3635 -0.0240
  710SOL    MW4 2915   4.246   1.302   1.186 -0.0129 -0.5935 -0.2587
  711SOL     OW 2916   4.288   1.568   1.079 -0.1421  0.4075  0.2286
  711SOL    HW2 2917   4.275   1.483   1.121 -0.3376 -0.4338 -1.5122
  711SOL    HW3 2918   4.377   1.594   1.104 -0.0359 -0.3574  0.6543
  711SOL    MW4 2919   4.298   1.560   1.088 -0.1540  0.1956  0.0550
  712SOL     OW 2920   4.061   1.689   1.175  0.2360  0.1071 -0.0387
  712SOL    HW2 2921   4.070   1.690   1.270  0.8600 -0.3079 -0.0889
  712SOL    HW3 2922   4.142   1.647   1.144 -0.3204 -0.4775 -0.7038
  712SOL    MW4 2923   4.073   1.683   1.183  0.2446 -0.0248 -0.1332
  713SOL     OW 2924   4.026   1.959   1.115  0.2917 -0.2020  0.1356
  713SOL    HW2 2925   4.042   1.869   1.143 -1.1638 -0.7081 -0.5824
  713SOL    HW3 2926   4.023   1.954   1.019  0.5995  0.6909  0.0685
  713SOL    MW4 2927   4.028   1.947   1.106  0.1402 -0.1512  0.0319
  714SOL     OW 2928   4.244   2.085   1.235 -0.1141  0.5849  0.0948
  714SOL    HW2 2929   4.247   2.164   1.182  0.7067 -0.2055 -1.0529
  714SOL    HW3 2930   4.171   2.035   1.200  0.7180 -0.1506 -0.5966
  714SOL    MW4 2931   4.235   2.089   1.224  0.1040  0.3836 -0.1478
  715SOL     OW 2932   4.269   2.328   1.113 -0.0576 -0.0779 -0.9171
  715SOL    HW2 2933   4.184   2.367   1.137 -0.4709 -1.6281  0.2051
  715SOL    HW3 2934   4.266   2.322   1.018 -1.0051  0.3246 -0.9238
  715SOL    MW4 2935   4.257   2.333   1.104 -0.2370 -0.2294 -0.7700
  716SOL     OW 2936   3.997   2.421   1.189 -0.4507  0.3066 -0.2103
  716SOL    HW2 2937   4.009   2.405   1.282  3.9338  0.6274 -0.5831
  716SOL    HW3 2938   3.984   2.516   1.181 -0.3143  0.3442  0.0372
  716SOL    MW4 2939   3.997   2.431   1.200  0.1459  0.3538 -0.2269
  717SOL     OW 2940   4.012   2.713   1.128  0.0578  0.5437  0.6395
  717SOL    HW2 2941   3.935   2.766   1.150  0.0461  0.1721  1.5336
  717SOL    HW3 2942   4.014   2.711   1.032 -0.3187  1.6038  0.6068
  717SOL    MW4 2943   4.002   2.719   1.118  0.0067  0.6342  0.7530
  718SOL     OW 2944   4.256   2.818   1.178  0.1242  0.3100 -0.6415
  718SOL    HW2 2945   4.239   2.911   1.160 -0.9049  0.3661  0.5929
  718SOL    HW3 2946   4.172   2.775   1.164  0.3951 -0.3182 -0.3536
  718SOL    MW4 2947   4.243   2.825   1.174  0.0238  0.2346 -0.4407
  719SOL     OW 2948   4.247   3.081   1.071 -0.2458 -0.1005 -0.9208
  719SOL    HW2 2949   4.178   3.129   1.116 -0.2658 -0.7846 -0.2115
  719SOL    HW3 2950   4.240   3.108   0.980 -1.4603 -0.1857 -0.8553
  719SOL    MW4 2951   4.237   3.091   1.065 -0.4086 -0.2022 -0.8186
  720SOL     OW 2952   4.037   3.229   1.192  0.1780  0.1310  0.0770
  720SOL    HW2 2953   4.037   3.242   1.287  1.2251 -1.0801  0.2474
  720SOL    HW3 2954   3.948   3.197   1.173  0.0153  0.2177  0.6714
  720SOL    MW4 2955   4.025   3.227   1.202  0.2947 -0.0172  0.1779
  721SOL     OW 2956   4.023   3.502   1.118 -0.1826  0.4067 -0.1026
  721SOL    HW2 2957   4.036   3.410   1.142 -0.6406  0.1380 -0.8442
  721SOL    HW3 2958   3.942   3.527   1.162 -0.6778  0.1045 -0.8239
  721SOL    MW4 2959   4.014   3.493   1.127 -0.3085  0.3312 -0.2956
  722SOL     OW 2960   4.253   3.660   1.216 -0.6508 -0.0156 -0.1948
  722SOL    HW2 2961   4.161   3.640   1.198 -0.0444 -1.6238 -1.6870
  722SOL    HW3 2962   4.299   3.579   1.197  0.6834 -0.4112  4.3136
  722SOL    MW4 2963   4.247   3.647   1.211 -0.3943 -0.2799  0.2030
  723SOL     OW 2964   4.280   3.904   1.114 -0.2143 -0.0091  0.4144
  723SOL    HW2 2965   4.193   3.934   1.141 -0.5492 -1.2629  0.7283
  723SOL    HW3 2966   4.282   3.811   1.136  1.3051  0.0676  0.6526
  723SOL    MW4 2967   4.269   3.896   1.120 -0.0587 -0.1647  0.4872
  724SOL     OW 2968   4.028   3.999   1.183  0.4199 -0.0948  0.4865
  724SOL    HW2 2969   4.026   4.093   1.165 -0.5122 -0.4963 -1.6880
  724SOL    HW3 2970   3.937   3.971   1.178  0.7204 -1.1601  0.7937
  724SOL    MW4 2971   4.016   4.008   1.180  0.3366 -0.2885  0.2402
  725SOL     OW 2972   4.060   4.264   1.140  0.3106 -0.5372  0.3163
  725SOL    HW2 2973   3.984   4.317   1.165  0.9902  0.2867  0.6250
  725SOL    HW3 2974   4.067   4.276   1.045  0.1545 -0.4956  0.3092
  725SOL    MW4 2975   4.051   4.272   1.130  0.3796 -0.4225  0.3561
  726SOL     OW 2976   4.275   4.408   1.224 -0.4766 -0.4096 -0.1240
  726SOL    HW2 2977   4.212   4.349   1.183 -0.5003 -0.2192 -0.3656
  726SOL    HW3 2978   4.361   4.371   1.203 -0.4491  0.3248 -1.3371
  726SOL    MW4 2979   4.278   4.395   1.216 -0.4759 -0.2871 -0.3159
  727SOL     OW 2980   0.220   4.640   1.588  0.2801  0.1271  0.6084
  727SOL    HW2 2981   0.285   4.708   1.570 -0.0307  0.3038  0.1618
  727SOL    HW3 2982   0.136   4.680   1.564  0.1727 -0.6841 -0.3947
  727SOL    MW4 2983   0.217   4.655   1.583  0.2249  0.0439  0.4171
  728SOL     OW 2984   0.005   0.106   1.479  0.5607  0.3692  0.3405
  728SOL    HW2 2985  -0.071   0.058   1.511  0.7771 -1.2478 -1.4760
  728SOL    HW3 2986  -0.009   0.114   1.385  2.6962 -0.1158 -0.0513
  728SOL    MW4 2987  -0.007   0.100   1.471  0.8707  0.0919  0.0491
  729SOL     OW 2988   4.486   0.375   1.537  0.1185 -0.1630 -0.1168
  729SOL    HW2 2989   4.496   0.372   1.632 -0.5242 -0.4519 -0.0618
  729SOL    HW3 2990   4.508   0.287   1.508  1.6753  0.2882 -0.3692
  729SOL    MW4 2991   4.490   0.363   1.546  0.2389 -0.1416 -0.1428
  730SOL     OW 2992   0.227   0.499   1.449 -0.3157 -0.1288  0.0339
  730SOL    HW2 2993   0.150   0.452   1.480 -0.5321 -0.2925 -0.7443
  730SOL    HW3 2994   0.208   0.519   1.357  1.1968 -1.4991 -0.6024
  730SOL    MW4 2995   0.214   0.495   1.441 -0.1447 -0.3311 -0.1527
  731SOL     OW 2996   0.268   0.757   1.569  0.4855 -0.0454  0.4776
  731SOL    HW2 2997   0.335   0.795   1.512  1.0501 -1.4466  0.1806
  731SOL    HW3 2998   0.252   0.670   1.533 -0.8998 -0.0446  1.0431
  731SOL    MW4 2999   0.274   0.750   1.557  0.3772 -0.2301  0.5130
  732SOL     OW 3000   0.012   0.858   1.471 -0.3548 -0.1046 -0.0415
  732SOL    HW2 3001   0.021   0.946   1.507  0.2459  0.4028 -1.4138
  732SOL    HW3 3002   0.089   0.811   1.502 -0.3510  0.0437  0.1712
  732SOL    MW4 3003   0.023   0.863   1.480 -0.2751 -0.0181 -0.1944
  733SOL     OW 3004   0.029   1.142   1.566  0.2692  0.0343  0.0661
  733SOL    HW2 3005   0.038   1.125   1.659  1.0662 -2.5948 -0.4404
  733SOL    HW3 3006   0.109   1.190   1.543 -0.6585  2.0544  1.0108
  733SOL    MW4 3007   0.041   1.146   1.575  0.2519 -0.0460  0.1240
  734SOL     OW 3008   0.244   1.301   1.507 -0.2117 -0.2634 -0.1237
  734SOL    HW2 3009   0.228   1.392   1.532  1.0987 -0.5151  1.7174
  734SOL    HW3 3010   0.269   1.306   1.414 -0.4018  1.2240 -0.1090
  734SOL    MW4 3011   0.245   1.313   1.498 -0.0639 -0.1003  0.1212
  735SOL     OW 3012   0.228   1.572   1.571  0.4367 -0.4602 -0.1313
  735SOL    HW2 3013   0.240   1.574   1.666  1.9902  1.2657 -0.3249
  735SOL    HW3 3014   0.147   1.620   1.555 -0.1363 -1.2691  0.3721
  735SOL    MW4 3015   0.219   1.579   1.581  0.5661 -0.3393 -0.0904
  736SOL     OW 3016   4.466   1.683   1.476  0.0722  0.2275  0.0026
  736SOL    HW2 3017   4.468   1.777   1.497 -0.1029  0.2526 -0.0874
  736SOL    HW3 3018   4.489   1.680   1.383  1.0855  0.0989  0.2525
  736SOL    MW4 3019   4.469   1.695   1.466  0.1826  0.2140  0.0237
  737SOL     OW 3020   4.454   1.947   1.582 -0.0388 -0.2875 -0.3765
  737SOL    HW2 3021   4.456   1.941   1.678  2.2574 -1.0640 -0.4531
  737SOL    HW3 3022   4.377   2.002   1.564  0.4066  1.2032  1.9616
  737SOL    MW4 3023   4.444   1.953   1.592  0.3228 -0.1932 -0.0782
  738SOL     OW 3024   0.216   2.072   1.537 -0.7708  0.3324 -0.0479
  738SOL    HW2 3025   0.133   2.025   1.547  0.1614 -1.7030 -1.4017
  738SOL    HW3 3026   0.228   2.079   1.442  0.8714  0.1008  0.1226
  738SOL    MW4 3027   0.207   2.066   1.526 -0.4311  0.0334 -0.2040
  739SOL     OW 3028   0.232   2.333   1.600 -0.6618  0.2331 -0.6014
  739SOL    HW2 3029   0.242   2.335   1.696 -0.6555 -0.1524 -0.5930
  739SOL    HW3 3030   0.226   2.240   1.579  1.3888  0.1998 -1.1854
  739SOL    MW4 3031   0.233   2.321   1.610 -0.3904  0.1779 -0.6773
  740SOL     OW 3032   4.485   2.428   1.490 -0.1102  0.4342 -0.2870
  740SOL    HW2 3033   4.418   2.403   1.553 -0.1186 -1.3037 -0.9598
  740SOL    HW3 3034   4.567   2.393   1.526  0.1524  0.9211 -0.3993
  740SOL    MW4 3035   4.487   2.420   1.503 -0.0767  0.2692 -0.3904
  741SOL     OW 3036   4.480   2.701   1.584  0.2520  0.1418  0.5310
  741SOL    HW2 3037   4.396   2.737   1.556  0.6513  0.0918 -0.7493
  741SOL    HW3 3038   4.479   2.610   1.553  1.2546  0.4800 -0.5371
  741SOL    MW4 3039   4.469   2.694   1.576  0.4373  0.1795  0.2213
  742SOL     OW 3040   0.208   2.853   1.474  0.0956 -0.2583  0.1470
  742SOL    HW2 3041   0.281   2.808   1.517  0.4582  0.8969  0.7684
  742SOL    HW3 3042   0.130   2.807   1.505  0.4591 -0.4382  0.7990
  742SOL    MW4 3043   0.208   2.841   1.484  0.1914 -0.1297  0.3150
  743SOL     OW 3044   0.191   3.095   1.623 -0.1438 -0.1733 -0.5494
  743SOL    HW2 3045   0.105   3.134   1.611 -0.0371 -0.0677 -0.9653
  743SOL    HW3 3046   0.188   3.014   1.574  0.0866 -0.0345 -0.7943
  743SOL    MW4 3047   0.179   3.090   1.615 -0.0993 -0.1411 -0.6366
  744SOL     OW 3048   4.447   3.229   1.480  0.1054  0.3818 -0.3132
  744SOL    HW2 3049   4.462   3.315   1.520 -0.1420  0.5095 -0.4946
  744SOL    HW3 3050   4.470   3.241   1.388  2.3734 -0.3690  0.1295
  744SOL    MW4 3051   4.452   3.242   1.474  0.3724  0.2999 -0.2787
  745SOL     OW 3052   0.022   3.492   1.567  0.1162 -0.2990 -0.6939
  745SOL    HW2 3053  -0.000   3.487   1.660 -0.0990 -1.5367 -0.7966
  745SOL    HW3 3054  -0.055   3.532   1.526  1.0754  2.3098 -0.0711
  745SOL    MW4 3055   0.009   3.497   1.574  0.2146 -0.1183 -0.6253
  746SOL     OW 3056   0.237   3.609   1.464  0.1505  0.4920  0.1906
  746SOL    HW2 3057   0.249   3.684   1.523  0.4508 -1.5022  2.7845
  746SOL    HW3 3058   0.160   3.565   1.499 -0.6460  0.1295 -1.9530
  746SOL    MW4 3059   0.228   3.613   1.477  0.0850  0.1812  0.2500
  747SOL     OW 3060   0.234   3.850   1.604 -0.2302  0.2338 -0.4420
  747SOL    HW2 3061   0.214   3.858   1.697 -0.6351 -0.3701 -0.4723
  747SOL    HW3 3062   0.314   3.901   1.592 -0.6710  1.0635  0.0605
  747SOL    MW4 3063   0.242   3.858   1.614 -0.3418  0.2635 -0.3797
  748SOL     OW 3064   0.007   3.976   1.491  0.1668 -0.4178 -0.3203
  748SOL    HW2 3065   0.009   4.060   1.537  1.1982  0.1827 -1.4216
  748SOL    HW3 3066   0.092   3.936   1.511  0.1462 -0.6741 -0.7331
  748SOL    MW4 3067   0.018   3.981   1.500  0.3001 -0.3724 -0.5201
  749SOL     OW 3068   0.004   4.228   1.578 -0.2925 -0.3980 -0.1660
  749SOL    HW2 3069  -0.019   4.235   1.671  0.5141 -0.5242  0.0452
  749SOL    HW3 3070  -0.077   4.249   1.532 -0.1284  1.8361  0.5375
  749SOL    MW4 3071  -0.010   4.231   1.584 -0.1640 -0.1197 -0.0452
  750SOL     OW 3072   0.259   4.373   1.533  0.0249  0.3266 -0.2029
  750SOL    HW2 3073   0.168   4.342   1.537 -0.3750  1.3376 -1.1394
  750SOL    HW3 3074   0.254   4.464   1.563  0.8304  0.1835  0.3608
  750SOL    MW4 3075   0.246   4.381   1.538  0.0784  0.4406 -0.2521
  751SOL     OW 3076   0.672   4.627   1.643  0.4261  0.0720 -0.0319
  751SOL    HW2 3077   0.744   4.663   1.592 -0.5413  0.4936 -1.1082
  751SOL    HW3 3078   0.597   4.684   1.623  0.4971  1.5790  3.4455
  751SOL    MW4 3079   0.672   4.640   1.634  0.3079  0.3264  0.2848
  752SOL     OW 3080   0.454   0.120   1.541  0.5252 -0.2259 -0.2515
  752SOL    HW2 3081   0.478   0.208   1.569 -0.5935  0.0680 -0.1784
  752SOL    HW3 3082   0.449   0.125   1.446  0.3953 -0.1883 -0.2432
  752SOL    MW4 3083   0.456   0.132   1.533  0.3605 -0.1822 -0.2408
  753SOL     OW 3084   0.451   0.391   1.596  0.4293 -0.0646 -0.0227
  753SOL    HW2 3085   0.528   0.444   1.575  1.6452 -1.8901 -0.2768
  753SOL    HW3 3086   0.391   0.405   1.523  0.2689  1.8330  0.4651
  753SOL    MW4 3087   0.453   0.400   1.584  0.5685 -0.0551  0.0081
  754SOL     OW 3088   0.688   0.513   1.501  0.1025 -0.2324  0.1366
  754SOL    HW2 3089   0.687   0.601   1.540 -2.1410 -0.3882  0.5427
  754SOL    HW3 3090   0.690   0.529   1.406  1.9419  0.2125  0.2438
  754SOL    MW4 3091   0.688   0.527   1.493  0.0492 -0.1943  0.2043
  755SOL     OW 3092   0.683   0.787   1.570  0.3055  0.5015  0.1114
  755SOL    HW2 3093   0.693   0.776   1.665  0.4133 -2.3673 -0.1961
  755SOL    HW3 3094   0.770   0.813   1.540  0.8184 -0.6861  0.5378
  755SOL    MW4 3095   0.695   0.789   1.579  0.3874 -0.0338  0.1271
  756SOL     OW 3096   0.460   0.927   1.457 -0.2212 -0.5284  0.6730
  756SOL    HW2 3097   0.440   1.005   1.509  0.3266  0.2065 -0.1978
  756SOL    HW3 3098   0.541   0.893   1.495  0.1062 -0.0674  0.3919
  756SOL    MW4 3099   0.468   0.933   1.469 -0.1057 -0.3706  0.5211
  757SOL     OW 3100   0.464   1.169   1.613 -0.0593  0.1453  0.1804
  757SOL    HW2 3101   0.535   1.220   1.575  0.4371 -0.2044  0.6263
  757SOL    HW3 3102   0.386   1.225   1.605  0.4458  0.9008  0.5309
  757SOL    MW4 3103   0.463   1.183   1.607  0.0728  0.1990  0.2855
  758SOL     OW 3104   0.700   1.300   1.491  0.7041 -0.1520 -0.0814
  758SOL    HW2 3105   0.702   1.388   1.529  1.5656 -0.5546  0.8601
  758SOL    HW3 3106   0.716   1.313   1.398  1.1482  0.6706  0.1032
  758SOL    MW4 3107   0.702   1.313   1.484  0.8763 -0.0966  0.0674
  759SOL     OW 3108   0.682   1.555   1.627  0.0210  0.1903  0.0840
  759SOL    HW2 3109   0.765   1.590   1.597  0.7746 -0.8061  0.9762
  759SOL    HW3 3110   0.616   1.609   1.583  1.0979 -0.1704 -1.9980
  759SOL    MW4 3111   0.684   1.567   1.617  0.2625  0.0112 -0.0730
  760SOL     OW 3112   0.465   1.673   1.494  0.4590 -0.2759  0.6461
  760SOL    HW2 3113   0.454   1.757   1.539  2.6811 -0.6151  1.9223
  760SOL    HW3 3114   0.384   1.626   1.512 -0.5457  1.3534  0.4625
  760SOL    MW4 3115   0.453   1.678   1.503  0.6196 -0.1059  0.7902
  761SOL     OW 3116   0.433   1.908   1.617  0.2112  0.3250  0.0490
  761SOL    HW2 3117   0.430   1.897   1.712 -0.9139 -1.0516 -0.1416
  761SOL    HW3 3118   0.348   1.945   1.595  0.3681  0.3772 -0.4567
  761SOL    MW4 3119   0.421   1.912   1.627  0.0835  0.1503 -0.0429
  762SOL     OW 3120   0.652   2.058   1.508 -0.0629 -0.0636  0.3284
  762SOL    HW2 3121   0.730   2.007   1.527 -0.5665 -1.0597 -0.2842
  762SOL    HW3 3122   0.584   2.019   1.563 -0.0666  0.9982  1.0967
  762SOL    MW4 3123   0.653   2.046   1.518 -0.1298 -0.0548  0.3490
  763SOL     OW 3124   0.639   2.309   1.627 -0.2017 -0.1060 -0.6249
  763SOL    HW2 3125   0.583   2.360   1.567  0.1308 -0.1282 -0.9545
  763SOL    HW3 3126   0.620   2.218   1.605 -0.3837 -0.1216 -0.4124
  763SOL    MW4 3127   0.629   2.304   1.616 -0.1819 -0.1111 -0.6402
  764SOL     OW 3128   0.453   2.451   1.474 -0.1385 -0.6400  0.2181
  764SOL    HW2 3129   0.447   2.538   1.515 -0.4030 -1.0639  1.0928
  764SOL    HW3 3130   0.382   2.401   1.515  0.3027 -1.4054  0.0436
  764SOL    MW4 3131   0.443   2.456   1.485 -0.1152 -0.7968  0.3104
  765SOL     OW 3132   0.443   2.709   1.595  0.3665  0.3241 -0.0296
  765SOL    HW2 3133   0.446   2.701   1.690  0.9426 -1.6449 -0.1845
  765SOL    HW3 3134   0.533   2.732   1.570  0.3196  0.4047 -0.1252
  765SOL    MW4 3135   0.456   2.711   1.604  0.4364  0.0751 -0.0627
  766SOL     OW 3136   0.691   2.811   1.528 -0.2194  0.0159 -0.1211
  766SOL    HW2 3137   0.663   2.894   1.565 -1.8649 -0.2118 -0.8042
  766SOL    HW3 3138   0.685   2.824   1.433  1.1831 -0.3292 -0.2679
  766SOL    MW4 3139   0.687   2.824   1.520 -0.2515 -0.0596 -0.2307
  767SOL     OW 3140   0.621   3.055   1.617 -0.0731 -0.2091  0.3114
  767SOL    HW2 3141   0.697   3.085   1.567 -0.1197 -2.8856 -1.4803
  767SOL    HW3 3142   0.547   3.102   1.578  0.2432 -0.1780 -0.2624
  767SOL    MW4 3143   0.621   3.065   1.605 -0.0375 -0.5581 -0.0007
  768SOL     OW 3144   0.412   3.194   1.478 -0.1796  0.1468 -0.1300
  768SOL    HW2 3145   0.335   3.149   1.513  0.2235 -1.8465 -1.6780
  768SOL    HW3 3146   0.392   3.206   1.385  0.8971  0.6535 -0.2999
  768SOL    MW4 3147   0.399   3.190   1.470  0.0157 -0.0494 -0.3567
  769SOL     OW 3148   0.422   3.453   1.576  0.1832 -0.3265  0.2857
  769SOL    HW2 3149   0.413   3.361   1.549  1.6834 -0.5243  0.4523
  769SOL    HW3 3150   0.350   3.497   1.531  1.0937 -1.1172 -2.0379
  769SOL    MW4 3151   0.411   3.447   1.566  0.5013 -0.4570  0.0013
  770SOL     OW 3152   0.649   3.580   1.527 -0.3055  0.2700  0.2957
  770SOL    HW2 3153   0.716   3.516   1.551  0.6321  0.6654 -1.1975
  770SOL    HW3 3154   0.566   3.540   1.553  0.2794 -1.4886 -0.5326
  770SOL    MW4 3155   0.647   3.566   1.534 -0.1047  0.0904 -0.0105
  771SOL     OW 3156   0.699   3.838   1.605  0.4203 -0.2870  0.0590
  771SOL    HW2 3157   0.778   3.865   1.557 -0.5464 -0.3628 -1.6105
  771SOL    HW3 3158   0.686   3.747   1.581  0.5515 -0.6606  1.3656
  771SOL    MW4 3159   0.708   3.830   1.595  0.3101 -0.3464  0.0111
  772SOL     OW 3160   0.459   3.980   1.528 -0.3775  0.8318  0.1805
  772SOL    HW2 3161   0.526   3.927   1.571 -1.5744 -0.4466  0.5069
  772SOL    HW3 3162   0.484   3.981   1.436 -0.0462  0.1703  0.2644
  772SOL    MW4 3163   0.471   3.973   1.522 -0.4917  0.5760  0.2347
  773SOL     OW 3164   0.463   4.221   1.649  0.3703 -0.2606 -0.1244
  773SOL    HW2 3165   0.461   4.139   1.600 -1.2879 -0.3915  0.1390
  773SOL    HW3 3166   0.398   4.277   1.605 -0.4774 -0.0560  1.3453
  773SOL    MW4 3167   0.454   4.218   1.637  0.0397 -0.2503  0.1044
  774SOL     OW 3168   0.669   4.393   1.517 -0.2858 -0.4412 -0.2197
  774SOL    HW2 3169   0.595   4.344   1.554 -0.7060  0.2773 -0.1085
  774SOL    HW3 3170   0.672   4.474   1.567  1.9105 -1.3663  1.1930
  774SOL    MW4 3171   0.660   4.397   1.528 -0.0514 -0.4687 -0.0187
  775SOL     OW 3172   1.100   4.663   1.597 -0.5849 -0.0186 -0.0791
  775SOL    HW2 3173   1.112   4.634   1.687 -1.1977  0.0046  0.0112
  775SOL    HW3 3174   1.189   4.675   1.564 -0.3657  1.0548  0.8781
  775SOL    MW4 3175   1.114   4.661   1.604 -0.6368  0.1259  0.0592
  776SOL     OW 3176   0.870   0.080   1.493 -0.3007  0.0957 -0.1701
  776SOL    HW2 3177   0.839   0.158   1.539 -1.5129 -0.5384  0.1207
  776SOL    HW3 3178   0.949   0.053   1.540 -0.6990  0.3097  0.6359
  776SOL    MW4 3179   0.876   0.087   1.505 -0.5133  0.0403 -0.0254
  777SOL     OW 3180   0.847   0.328   1.613 -0.2454  0.1634 -0.0702
  777SOL    HW2 3181   0.864   0.370   1.697  0.5354  1.2319 -0.7479
  777SOL    HW3 3182   0.778   0.381   1.573 -1.1627 -0.8010  0.2283
  777SOL    MW4 3183   0.840   0.341   1.619 -0.2635  0.1772 -0.1202
  778SOL     OW 3184   1.057   0.464   1.472 -0.0516  0.0614 -0.1813
  778SOL    HW2 3185   1.074   0.553   1.502  1.2360  0.1641 -1.1513
  778SOL    HW3 3186   0.994   0.429   1.535  0.7937  1.0412  1.2510
  778SOL    MW4 3187   1.051   0.471   1.484  0.2297  0.2042 -0.1204
  779SOL     OW 3188   1.133   0.699   1.573  0.1152  0.3586  0.0313
  779SOL    HW2 3189   1.129   0.694   1.669 -0.1628 -0.5933 -0.0243
  779SOL    HW3 3190   1.221   0.730   1.554  0.8721 -1.4163  0.5405
  779SOL    MW4 3191   1.144   0.702   1.584  0.1783 -0.0011  0.0911
  780SOL     OW 3192   0.930   0.864   1.476 -0.7310 -0.1041  0.0248
  780SOL    HW2 3193   1.006   0.818   1.511 -0.2095  1.1383  0.5556
  780SOL    HW3 3194   0.948   0.871   1.382  0.3938  1.2337  0.3249
  780SOL    MW4 3195   0.942   0.859   1.468 -0.5138  0.2364  0.1342
  781SOL     OW 3196   0.919   1.120   1.568 -0.0411 -0.2546 -0.2249
  781SOL    HW2 3197   0.911   1.029   1.540 -0.9167 -0.3843  0.4088
  781SOL    HW3 3198   0.844   1.164   1.528 -0.9194 -0.3036  1.3206
  781SOL    MW4 3199   0.908   1.113   1.559 -0.2726 -0.2784  0.0627
  782SOL     OW 3200   1.136   1.270   1.486 -0.3448 -0.0969  0.1340
  782SOL    HW2 3201   1.212   1.224   1.522 -1.5074 -1.0513  1.4125
  782SOL    HW3 3202   1.061   1.219   1.516 -1.5097  0.9034 -1.0199
  782SOL    MW4 3203   1.136   1.257   1.495 -0.6520 -0.0908  0.1503
  783SOL     OW 3204   1.136   1.503   1.617 -0.0474  0.1538  0.1204
  783SOL    HW2 3205   1.218   1.551   1.603  0.2108 -0.1971  0.4097
  783SOL    HW3 3206   1.149   1.421   1.568  0.1969 -0.3598  1.0429
  783SOL    MW4 3207   1.149   1.498   1.608  0.0190  0.0399  0.2804
  784SOL     OW 3208   0.913   1.652   1.546  0.0400 -0.0428 -0.2103
  784SOL    HW2 3209   0.984   1.598   1.579 -0.2540 -0.8750 -0.9456
  784SOL    HW3 3210   0.927   1.658   1.452  0.7664  2.1838  0.0047
  784SOL    MW4 3211   0.924   1.646   1.538  0.0970  0.1413 -0.2789
  785SOL     OW 3212   0.880   1.923   1.602 -0.2987 -0.6767  0.0814
  785SOL    HW2 3213   0.955   1.970   1.565 -0.4391 -0.7753 -0.3318
  785SOL    HW3 3214   0.893   1.833   1.574 -1.6528 -0.3372 -1.7503
  785SOL    MW4 3215   0.892   1.918   1.593 -0.4959 -0.6450 -0.2147
  786SOL     OW 3216   1.127   2.049   1.523 -0.0613 -0.1106 -0.2678
  786SOL    HW2 3217   1.199   1.997   1.558 -0.8509 -0.8075  0.3577
  786SOL    HW3 3218   1.139   2.136   1.560 -1.9326 -1.2736  3.3906
  786SOL    MW4 3219   1.138   2.053   1.532 -0.4123 -0.3557  0.2974
  787SOL     OW 3220   1.122   2.308   1.629  0.0098 -0.2161  0.4754
  787SOL    HW2 3221   1.206   2.333   1.591  0.0915 -0.4482  0.5010
  787SOL    HW3 3222   1.058   2.358   1.580  0.0912 -0.7414 -0.1715
  787SOL    MW4 3223   1.125   2.318   1.618  0.0312 -0.3161  0.3935
  788SOL     OW 3224   0.868   2.420   1.507 -0.4711  0.0681 -0.0668
  788SOL    HW2 3225   0.883   2.506   1.546 -0.1718 -0.0447  0.0677
  788SOL    HW3 3226   0.797   2.382   1.558  0.0561 -0.1629  0.5036
  788SOL    MW4 3227   0.861   2.426   1.519 -0.3621  0.0229  0.0261
  789SOL     OW 3228   0.932   2.681   1.569 -0.3895 -0.0894  0.2876
  789SOL    HW2 3229   0.941   2.688   1.664  1.2639  2.5705 -0.0181
  789SOL    HW3 3230   0.845   2.718   1.551  0.2692  1.6455  0.5736
  789SOL    MW4 3231   0.922   2.687   1.579 -0.0845  0.4902  0.2849
  790SOL     OW 3232   1.138   2.830   1.432  0.2385  0.0571  0.0569
  790SOL    HW2 3233   1.134   2.913   1.479 -1.1634  0.5465 -0.8736
  790SOL    HW3 3234   1.066   2.778   1.467  0.4441 -0.3576 -0.1222
  790SOL    MW4 3235   1.128   2.834   1.443  0.0806  0.0672 -0.0895
  791SOL     OW 3236   1.131   3.083   1.568 -0.0487 -0.1172  1.0253
  791SOL    HW2 3237   1.122   3.077   1.663  2.8059 -2.8318  1.2110
  791SOL    HW3 3238   1.214   3.129   1.554  0.1185 -0.7395 -0.1251
  791SOL    MW4 3239   1.141   3.088   1.578  0.3500 -0.5574  0.8979
  792SOL     OW 3240   0.850   3.152   1.495 -0.5400  0.3811 -0.1792
  792SOL    HW2 3241   0.936   3.143   1.535  0.2933  0.1058 -1.9726
  792SOL    HW3 3242   0.868   3.173   1.403 -2.3837  0.8805 -0.4600
  792SOL    MW4 3243   0.863   3.154   1.488 -0.6733  0.4108 -0.4528
  793SOL     OW 3244   0.860   3.412   1.558  0.3831 -0.0806  0.1551
  793SOL    HW2 3245   0.947   3.431   1.524  0.6549  0.7738  1.3240
  793SOL    HW3 3246   0.846   3.320   1.536  0.9684  0.1747 -1.3496
  793SOL    MW4 3247   0.870   3.402   1.550  0.4961  0.0660  0.1107
  794SOL     OW 3248   1.127   3.443   1.454 -0.1959 -0.7397  0.6278
  794SOL    HW2 3249   1.170   3.507   1.512 -0.9877 -0.4723  0.9329
  794SOL    HW3 3250   1.196   3.382   1.430  0.7563  0.6726 -0.2815
  794SOL    MW4 3251   1.141   3.443   1.459 -0.1749 -0.5181  0.5480
  795SOL     OW 3252   1.159   3.866   1.621  0.1636 -0.2489  0.4931
  795SOL    HW2 3253   1.207   3.934   1.574  1.1825 -1.3953 -0.1624
  795SOL    HW3 3254   1.207   3.785   1.601 -1.7931 -1.3627  0.1861
  795SOL    MW4 3255   1.172   3.864   1.612  0.0397 -0.5472  0.3661
  796SOL     OW 3256   0.928   3.976   1.487  0.1811 -0.2793  0.4374
  796SOL    HW2 3257   0.924   4.067   1.517  1.4314  0.2337 -0.8919
  796SOL    HW3 3258   1.016   3.947   1.510 -0.0344 -0.9978  0.3841
  796SOL    MW4 3259   0.939   3.984   1.494  0.3178 -0.3064  0.2550
  797SOL     OW 3260   0.896   4.245   1.578 -0.1126  0.4800  0.2611
  797SOL    HW2 3261   0.915   4.242   1.672 -0.5307 -0.9601  0.3049
  797SOL    HW3 3262   0.807   4.280   1.573 -0.3950 -0.1911  0.4553
  797SOL    MW4 3263   0.887   4.249   1.590 -0.2050  0.2007  0.2925
  798SOL     OW 3264   1.114   4.417   1.490  0.1199 -0.0620  0.8186
  798SOL    HW2 3265   1.033   4.369   1.510 -0.5535  0.9477  0.5370
  798SOL    HW3 3266   1.103   4.502   1.534  0.8233  0.2598  0.3824
  798SOL    MW4 3267   1.102   4.422   1.499  0.1239  0.1140  0.7237
  799SOL     OW 3268   1.588   0.011   1.595 -0.1185 -0.1771 -0.0945
  799SOL    HW2 3269   1.590   0.006   1.690  0.8351 -0.2534 -0.1182
  799SOL    HW3 3270   1.506   0.057   1.575 -0.2881 -0.1077  0.7569
  799SOL    MW4 3271   1.577   0.017   1.605 -0.0151 -0.1779  0.0147
  800SOL     OW 3272   1.345   0.098   1.493  0.2762  0.9802  0.5628
  800SOL    HW2 3273   1.319   0.186   1.520  1.0164  1.2418  0.4444
  800SOL    HW3 3274   1.379   0.110   1.404  0.8456  0.6644  0.7366
  800SOL    MW4 3275   1.346   0.112   1.484  0.4489  0.9730  0.5699
  801SOL     OW 3276   1.285   0.346   1.595  0.4440 -0.1886 -0.7779
  801SOL    HW2 3277   1.360   0.403   1.577  1.1011 -1.2950 -1.6313
  801SOL    HW3 3278   1.212   0.389   1.551  0.5730  0.8763  0.0193
  801SOL    MW4 3279   1.286   0.359   1.587  0.5476 -0.1940 -0.7852
  802SOL     OW 3280   1.523   0.488   1.536 -0.0422 -0.0315 -0.4822
  802SOL    HW2 3281   1.601   0.443   1.568  0.0686  0.8756  0.5664
  802SOL    HW3 3282   1.525   0.476   1.441 -0.1002 -2.3538 -0.2265
  802SOL    MW4 3283   1.533   0.480   1.528 -0.0353 -0.2182 -0.3101
  803SOL     OW 3284   1.610   0.753   1.581 -0.0142  0.4060  0.2165
  803SOL    HW2 3285   1.595   0.760   1.676  0.1986 -2.2234  0.4885
  803SOL    HW3 3286   1.588   0.662   1.560  0.5144  0.8012 -2.1632
  803SOL    MW4 3287   1.605   0.742   1.591  0.0838  0.1112 -0.0618
  804SOL     OW 3288   1.365   0.838   1.498  0.0232 -0.4275 -0.0985
  804SOL    HW2 3289   1.458   0.829   1.514  0.0506 -0.5795 -0.3409
  804SOL    HW3 3290   1.355   0.828   1.403 -0.1986 -0.0783 -0.1164
  804SOL    MW4 3291   1.376   0.835   1.487 -0.0024 -0.4015 -0.1329
  805SOL     OW 3292   1.342   1.087   1.592 -0.3501  0.0109  0.1645
  805SOL    HW2 3293   1.353   1.078   1.686  1.5514 -0.5843 -0.0898
  805SOL    HW3 3294   1.340   0.998   1.559  1.0526  0.2334 -0.5638
  805SOL    MW4 3295   1.343   1.074   1.600  0.0857 -0.0383  0.0349
  806SOL     OW 3296   1.563   1.247   1.540 -0.3174  0.0209  0.2373
  806SOL    HW2 3297   1.486   1.195   1.565 -1.0061  0.5937 -0.6719
  806SOL    HW3 3298   1.560   1.249   1.444 -0.0377  1.3555  0.2588
  806SOL    MW4 3299   1.553   1.240   1.531 -0.3713  0.2726  0.1203
  807SOL     OW 3300   1.605   1.502   1.621 -0.4515  0.2371 -0.1979
  807SOL    HW2 3301   1.604   1.504   1.717 -0.5034 -0.0043 -0.1927
  807SOL    HW3 3302   1.607   1.409   1.599  1.9973  0.3103 -0.3997
  807SOL    MW4 3303   1.605   1.490   1.631 -0.1352  0.2149 -0.2239
  808SOL     OW 3304   1.373   1.648   1.564  0.0342 -0.0602  0.0964
  808SOL    HW2 3305   1.450   1.596   1.588  0.6133  0.5355 -0.4528
  808SOL    HW3 3306   1.382   1.661   1.469 -0.1270  1.0182  0.2297
  808SOL    MW4 3307   1.385   1.643   1.554  0.0893  0.1607  0.0416
  809SOL     OW 3308   1.355   1.920   1.628  0.1000 -0.2314  0.0038
  809SOL    HW2 3309   1.367   1.935   1.722  0.4345 -1.6246  0.1892
  809SOL    HW3 3310   1.353   1.825   1.619  0.4704 -0.1094 -1.4492
  809SOL    MW4 3311   1.357   1.910   1.639  0.1929 -0.3991 -0.1634
  810SOL     OW 3312   1.565   2.067   1.517 -0.1815  0.1764 -0.0559
  810SOL    HW2 3313   1.491   2.010   1.542 -0.9940  1.3386  0.2407
  810SOL    HW3 3314   1.569   2.060   1.422 -2.1117  1.7939 -0.3038
  810SOL    MW4 3315   1.556   2.059   1.508 -0.5434  0.5431 -0.0495
  811SOL     OW 3316   1.573   2.324   1.621 -0.2519 -0.3551  0.7342
  811SOL    HW2 3317   1.648   2.364   1.575 -2.2727  0.6320 -1.8375
  811SOL    HW3 3318   1.564   2.238   1.581  0.0295 -0.8153  1.6522
  811SOL    MW4 3319   1.582   2.318   1.609 -0.4815 -0.2856  0.5161
  812SOL     OW 3320   1.332   2.437   1.471  0.4783  0.4374 -0.0753
  812SOL    HW2 3321   1.326   2.517   1.523  0.1955 -0.1939  0.8710
  812SOL    HW3 3322   1.412   2.395   1.502  1.5432  1.1694 -1.7531
  812SOL    MW4 3323   1.342   2.442   1.482  0.5816  0.4506 -0.1718
  813SOL     OW 3324   1.334   2.696   1.585  0.2590  0.3872  0.1431
  813SOL    HW2 3325   1.411   2.744   1.555  0.3532  0.7214  0.9180
  813SOL    HW3 3326   1.269   2.712   1.516  1.3468 -1.1619 -1.2828
  813SOL    MW4 3327   1.335   2.705   1.572  0.4150  0.2267  0.0572
  814SOL     OW 3328   1.547   2.819   1.455  0.0672 -0.0791 -0.1646
  814SOL    HW2 3329   1.628   2.776   1.482 -0.5385 -1.8540 -1.0356
  814SOL    HW3 3330   1.554   2.825   1.359 -0.1517  1.1828 -0.1057
  814SOL    MW4 3331   1.559   2.814   1.446 -0.0415 -0.1469 -0.2717
  815SOL     OW 3332   1.555   3.101   1.534 -0.0330 -0.0035 -0.0521
  815SOL    HW2 3333   1.632   3.142   1.494 -0.7171  0.1238 -1.2590
  815SOL    HW3 3334   1.558   3.011   1.503 -0.5229  0.0728 -0.3189
  815SOL    MW4 3335   1.566   3.095   1.524 -0.1879  0.0234 -0.2466
  816SOL     OW 3336   1.358   3.260   1.464 -0.0316  0.9608 -0.0539
  816SOL    HW2 3337   1.377   3.332   1.523 -0.5691  0.5420  0.6434
  816SOL    HW3 3338   1.414   3.188   1.494 -0.1907  0.7943 -0.1472
  816SOL    MW4 3339   1.368   3.260   1.476 -0.1235  0.8836  0.0257
  817SOL     OW 3340   1.307   3.626   1.592 -0.2033 -0.2671 -0.0474
  817SOL    HW2 3341   1.317   3.587   1.679  0.3229 -0.9775 -0.4112
  817SOL    HW3 3342   1.396   3.625   1.556 -0.3462  0.4261 -0.4264
  817SOL    MW4 3343   1.320   3.620   1.599 -0.1527 -0.2692 -0.1454
  818SOL     OW 3344   1.542   3.641   1.467 -0.2047  0.1625  0.1379
  818SOL    HW2 3345   1.553   3.729   1.504 -0.7112  0.3386 -0.1268
  818SOL    HW3 3346   1.526   3.656   1.374 -0.0699 -0.2242  0.0505
  818SOL    MW4 3347   1.542   3.655   1.460 -0.2538  0.1347  0.0913
  819SOL     OW 3348   1.539   3.893   1.581  0.0379 -0.2124  0.1056
  819SOL    HW2 3349   1.536   3.892   1.677 -0.8588 -1.1601  0.0685
  819SOL    HW3 3350   1.478   3.962   1.556 -0.8721 -0.9761  0.1818
  819SOL    MW4 3351   1.531   3.902   1.590 -0.2004 -0.4380  0.1107
  820SOL     OW 3352   1.327   4.053   1.502 -0.0248 -0.5167 -0.6173
  820SOL    HW2 3353   1.311   4.146   1.521  1.3267 -0.4652  0.3235
  820SOL    HW3 3354   1.349   4.051   1.409  1.4489  0.3194 -0.3053
  820SOL    MW4 3355   1.328   4.065   1.492  0.3479 -0.3996 -0.4522
  821SOL     OW 3356   1.320   4.311   1.628  0.1824 -0.3294 -0.2136
  821SOL    HW2 3357   1.396   4.354   1.590 -0.7661  2.2239  0.6939
  821SOL    HW3 3358   1.245   4.345   1.578 -0.7428  0.3706  1.6158
  821SOL    MW4 3359   1.320   4.321   1.616 -0.0648  0.1001  0.1473
  822SOL     OW 3360   1.552   4.412   1.500  0.0952 -0.1677 -0.0664
  822SOL    HW2 3361   1.627   4.356   1.521 -0.3186 -0.8824 -0.4660
  822SOL    HW3 3362   1.581   4.500   1.521  2.3325  0.0098 -3.6256
  822SOL    MW4 3363   1.566   4.416   1.506  0.3357 -0.2384 -0.5888
  823SOL     OW 3364   2.012   4.650   1.564  0.8902  0.1208  0.3064
  823SOL    HW2 3365   1.996   4.624   1.655 -0.5576 -0.3970 -0.0650
  823SOL    HW3 3366   1.940   4.710   1.544  0.4950 -0.6999 -0.8421
  823SOL    MW4 3367   2.000   4.654   1.573  0.6471 -0.0558  0.1060
  824SOL     OW 3368   1.810   0.139   1.454  0.7032  0.0293 -0.1025
  824SOL    HW2 3369   1.733   0.089   1.481  1.2204 -1.2874 -0.9895
  824SOL    HW3 3370   1.798   0.150   1.359  0.0737  2.5167  0.2491
  824SOL    MW4 3371   1.798   0.134   1.445  0.6886  0.1837 -0.1731
  825SOL     OW 3372   1.759   0.368   1.613 -0.6040  0.1242  0.2336
  825SOL    HW2 3373   1.830   0.425   1.583 -0.0928 -0.8678 -0.4739
  825SOL    HW3 3374   1.774   0.285   1.567 -2.1567 -0.1268  0.1645
  825SOL    MW4 3375   1.770   0.365   1.603 -0.7415 -0.0398  0.1311
  826SOL     OW 3376   1.994   0.482   1.503 -0.2916 -0.4490 -0.2321
  826SOL    HW2 3377   2.076   0.441   1.529 -0.4739 -0.3957  0.4330
  826SOL    HW3 3378   2.006   0.575   1.523 -1.1338 -0.6928  1.4572
  826SOL    MW4 3379   2.007   0.489   1.509 -0.4268 -0.4741  0.0784
  827SOL     OW 3380   2.023   0.741   1.577  0.5961  0.1505  0.0677
  827SOL    HW2 3381   2.099   0.796   1.557 -0.1575  2.0966  2.3227
  827SOL    HW3 3382   1.948   0.791   1.546  0.1259 -1.0998 -0.8214
  827SOL    MW4 3383   2.023   0.755   1.570  0.4346  0.2424  0.2480
  828SOL     OW 3384   1.814   0.908   1.468  0.2414 -0.3232  0.5011
  828SOL    HW2 3385   1.787   0.983   1.522 -1.2603 -0.6906  0.2821
  828SOL    HW3 3386   1.769   0.833   1.506  1.8803 -1.1607  0.8224
  828SOL    MW4 3387   1.804   0.908   1.480  0.2595 -0.4822  0.5147
  829SOL     OW 3388   1.804   1.131   1.635  0.3734  0.3473  0.2213
  829SOL    HW2 3389   1.887   1.167   1.604  0.0317  1.3122  0.4003
  829SOL    HW3 3390   1.737   1.186   1.593 -0.2505 -1.5878 -1.4239
  829SOL    MW4 3391   1.806   1.143   1.625  0.2460  0.2192  0.0278
  830SOL     OW 3392   2.018   1.251   1.510 -0.3028  0.2037  0.0214
  830SOL    HW2 3393   2.022   1.338   1.550 -0.2874  0.2880 -0.1626
  830SOL    HW3 3394   2.023   1.268   1.416 -0.2670  0.0012 -0.0131
  830SOL    MW4 3395   2.020   1.265   1.503 -0.2964  0.1881 -0.0075
  831SOL     OW 3396   2.004   1.511   1.595  0.1711 -0.4065  0.2119
  831SOL    HW2 3397   2.085   1.555   1.569  0.8073 -0.9759  1.1663
  831SOL    HW3 3398   1.934   1.568   1.565  0.9163 -0.3303 -1.3887
  831SOL    MW4 3399   2.006   1.524   1.588  0.3536 -0.4716  0.1266
  832SOL     OW 3400   1.798   1.652   1.499 -0.0547  0.2358  0.1481
  832SOL    HW2 3401   1.724   1.603   1.534 -0.6707  0.5207 -0.7270
  832SOL    HW3 3402   1.809   1.618   1.410  0.5671  0.5306  0.1071
  832SOL    MW4 3403   1.790   1.641   1.492 -0.0540  0.3122  0.0271
  833SOL     OW 3404   1.799   1.919   1.583  0.1014 -0.1769  0.1474
  833SOL    HW2 3405   1.782   1.827   1.562 -0.9266 -0.1914  1.0060
  833SOL    HW3 3406   1.720   1.965   1.553  0.6848  0.4521 -0.4411
  833SOL    MW4 3407   1.786   1.913   1.576  0.0427 -0.0957  0.1830
  834SOL     OW 3408   2.041   2.048   1.504  0.3305 -0.0857  0.1053
  834SOL    HW2 3409   2.117   1.990   1.501 -0.2371 -0.7613 -1.7656
  834SOL    HW3 3410   1.969   1.993   1.533  0.0093 -0.0856 -0.6734
  834SOL    MW4 3411   2.042   2.033   1.507  0.2131 -0.1748 -0.2443
  835SOL     OW 3412   2.018   2.312   1.601 -0.4007  0.0896  0.3974
  835SOL    HW2 3413   2.004   2.324   1.695  1.1170 -0.7013  0.7531
  835SOL    HW3 3414   2.035   2.218   1.592 -1.0054  0.0795 -0.7450
  835SOL    MW4 3415   2.018   2.301   1.612 -0.2801 -0.0160  0.2936
  836SOL     OW 3416   1.782   2.421   1.469  0.5313 -0.3120 -0.5548
  836SOL    HW2 3417   1.862   2.380   1.502  0.5988 -0.5935 -1.0667
  836SOL    HW3 3418   1.789   2.413   1.374  0.1483  0.1433 -0.6185
  836SOL    MW4 3419   1.794   2.414   1.461  0.4896 -0.2890 -0.6307
  837SOL     OW 3420   1.785   2.699   1.523 -0.0132 -0.3192  0.4409
  837SOL    HW2 3421   1.864   2.733   1.479  0.9563 -0.5920  1.9382
  837SOL    HW3 3422   1.794   2.604   1.516 -0.2817 -0.3473  0.5037
  837SOL    MW4 3423   1.797   2.691   1.516  0.0793 -0.3591  0.6467
  838SOL     OW 3424   1.999   2.832   1.439  0.2179  0.0961  0.0612
  838SOL    HW2 3425   2.007   2.921   1.472  2.1014 -0.1924  0.4089
  838SOL    HW3 3426   1.996   2.841   1.344 -1.4590  0.6499  0.1498
  838SOL    MW4 3427   1.999   2.845   1.431  0.2452  0.1314  0.1186
  839SOL     OW 3428   1.981   3.093   1.532 -0.2112  0.2551 -0.1046
  839SOL    HW2 3429   1.985   3.085   1.627  0.6412  0.1086 -0.1513
  839SOL    HW3 3430   2.066   3.128   1.507 -1.3377  2.7421 -0.5808
  839SOL    MW4 3431   1.993   3.096   1.541 -0.2475  0.5641 -0.1737
  840SOL     OW 3432   1.774   3.246   1.445  0.0236  0.1059  0.0367
  840SOL    HW2 3433   1.772   3.329   1.493 -2.3116 -0.5923  1.1896
  840SOL    HW3 3434   1.852   3.202   1.478 -1.0926 -0.0134  2.6652
  840SOL    MW4 3435   1.784   3.251   1.456 -0.4317 -0.0017  0.5356
  841SOL     OW 3436   1.760   3.490   1.559 -0.1370  0.3123 -0.3515
  841SOL    HW2 3437   1.749   3.497   1.654 -0.7157  0.2615 -0.4132
  841SOL    HW3 3438   1.703   3.558   1.524 -0.3137 -0.0110 -0.6839
  841SOL    MW4 3439   1.751   3.500   1.567 -0.2366  0.2627 -0.4034
  842SOL     OW 3440   2.003   3.586   1.481 -0.2077  0.4560 -0.3238
  842SOL    HW2 3441   2.077   3.544   1.524 -0.4827  0.3838  0.0819
  842SOL    HW3 3442   1.926   3.543   1.517 -0.4344  0.1332 -1.1674
  842SOL    MW4 3443   2.003   3.575   1.491 -0.2739  0.4039 -0.3814
  843SOL     OW 3444   2.008   3.857   1.560  0.1183  0.5565  0.4755
  843SOL    HW2 3445   2.087   3.902   1.530 -0.1713  2.0925  1.9806
  843SOL    HW3 3446   2.019   3.767   1.529  1.7560  1.1098 -0.6153
  843SOL    MW4 3447   2.020   3.851   1.552  0.2961  0.8321  0.5302
  844SOL     OW 3448   1.766   3.993   1.466  0.4361 -0.4642  0.0980
  844SOL    HW2 3449   1.838   3.953   1.515 -0.1350 -0.2453  1.1251
  844SOL    HW3 3450   1.687   3.961   1.509 -0.0467  0.8322  0.1976
  844SOL    MW4 3451   1.765   3.984   1.479  0.2971 -0.2644  0.2468
  845SOL     OW 3452   1.752   4.258   1.588 -0.6294  0.2060 -0.1478
  845SOL    HW2 3453   1.838   4.299   1.579 -1.6486  2.3479 -0.3661
  845SOL    HW3 3454   1.760   4.174   1.541  2.1102 -0.8501  2.0982
  845SOL    MW4 3455   1.764   4.252   1.580 -0.4025  0.3495  0.1197
  846SOL     OW 3456   1.977   4.391   1.447  0.0529 -0.0766 -0.0705
  846SOL    HW2 3457   2.057   4.346   1.471 -0.5144  0.0949  2.2571
  846SOL    HW3 3458   1.988   4.481   1.479 -0.8336  0.1129 -0.2635
  846SOL    MW4 3459   1.989   4.397   1.454 -0.1389 -0.0296  0.2111
  847SOL     OW 3460   2.483   4.652   1.588 -0.0462 -0.1449 -0.3782
  847SOL    HW2 3461   2.479   4.653   1.683 -0.1378  0.0061 -0.3837
  847SOL    HW3 3462   2.402   4.695   1.560 -0.7056 -1.4504 -0.5401
  847SOL    MW4 3463   2.472   4.658   1.596 -0.1454 -0.2975 -0.4003
  848SOL     OW 3464   2.268   0.122   1.489 -0.4472 -0.4414  0.2196
  848SOL    HW2 3465   2.188   0.078   1.519 -1.6826  1.8551  0.4171
  848SOL    HW3 3466   2.259   0.127   1.394 -2.2875  2.9509  0.4994
  848SOL    MW4 3467   2.256   0.117   1.481 -0.8528  0.3092  0.2825
  849SOL     OW 3468   2.233   0.388   1.596 -0.2600 -0.2409  0.7159
  849SOL    HW2 3469   2.235   0.384   1.692  0.0203 -0.0979  0.7177
  849SOL    HW3 3470   2.247   0.297   1.568 -0.1062 -0.2458  0.8079
  849SOL    MW4 3471   2.235   0.375   1.605 -0.2027 -0.2227  0.7281
  850SOL     OW 3472   2.475   0.447   1.502 -0.1504 -0.4338 -0.3900
  850SOL    HW2 3473   2.540   0.397   1.550  0.5568  1.7616  1.0340
  850SOL    HW3 3474   2.391   0.422   1.541  0.1807 -0.5982  0.2176
  850SOL    MW4 3475   2.472   0.437   1.514 -0.0131 -0.1658 -0.1218
  851SOL     OW 3476   2.481   0.717   1.598  0.2004  0.2722 -0.1911
  851SOL    HW2 3477   2.401   0.737   1.549 -0.8505  0.1343  1.4177
  851SOL    HW3 3478   2.502   0.627   1.573  0.4647  0.6663 -1.4256
  851SOL    MW4 3479   2.473   0.707   1.588  0.0963  0.3060 -0.1416
  852SOL     OW 3480   2.253   0.854   1.516  0.4141  0.1778 -0.0367
  852SOL    HW2 3481   2.259   0.944   1.548 -2.0048  0.3351  0.1313
  852SOL    HW3 3482   2.231   0.863   1.423 -0.6641 -0.2047  0.1680
  852SOL    MW4 3483   2.251   0.867   1.507 -0.0474  0.1481  0.0125
  853SOL     OW 3484   2.236   1.105   1.613  0.6223 -0.0827 -0.1876
  853SOL    HW2 3485   2.219   1.118   1.706  0.3569 -1.8586  0.0282
  853SOL    HW3 3486   2.155   1.131   1.569 -0.4495 -2.4224  0.3464
  853SOL    MW4 3487   2.223   1.110   1.619  0.4458 -0.6256 -0.0887
  854SOL     OW 3488   2.471   1.234   1.496  0.0759 -0.0266 -0.3290
  854SOL    HW2 3489   2.390   1.197   1.532  0.9822 -0.6728  1.0808
  854SOL    HW3 3490   2.458   1.234   1.401 -1.9050  0.6264 -0.0841
  854SOL    MW4 3491   2.458   1.229   1.488 -0.0658 -0.0257 -0.1106
  855SOL     OW 3492   2.487   1.525   1.514 -0.1070  0.2477 -0.4392
  855SOL    HW2 3493   2.562   1.551   1.461  0.3019 -0.3239 -0.1516
  855SOL    HW3 3494   2.487   1.429   1.510 -0.3344  0.2175  0.2262
  855SOL    MW4 3495   2.497   1.516   1.507 -0.0830  0.1683 -0.3135
  856SOL     OW 3496   2.226   1.610   1.481 -0.0195  0.1097 -0.0843
  856SOL    HW2 3497   2.312   1.582   1.509 -0.5610 -0.4023  1.0867
  856SOL    HW3 3498   2.237   1.633   1.389  1.2781 -0.2983 -0.0357
  856SOL    MW4 3499   2.239   1.609   1.473  0.0803 -0.0116  0.0767
  857SOL     OW 3500   2.265   1.889   1.523  0.1393 -0.5012  0.3848
  857SOL    HW2 3501   2.253   1.904   1.617 -2.1414  0.2821 -0.0151
  857SOL    HW3 3502   2.261   1.794   1.513  0.5988 -0.5973  1.0961
  857SOL    MW4 3503   2.263   1.878   1.534 -0.1006 -0.4106  0.4258
  858SOL     OW 3504   2.483   2.065   1.469 -0.0998 -0.4524  0.1035
  858SOL    HW2 3505   2.417   1.995   1.472  0.8221 -1.4208 -1.3814
  858SOL    HW3 3506   2.500   2.078   1.376  2.2656 -0.6782  0.4800
  858SOL    MW4 3507   2.476   2.057   1.457  0.3338 -0.6099 -0.0427
  859SOL     OW 3508   2.472   2.315   1.597 -0.4093 -0.4548  0.3833
  859SOL    HW2 3509   2.475   2.312   1.693  1.3078 -0.5451  0.3498
  859SOL    HW3 3510   2.472   2.223   1.570 -0.0622 -0.4312  0.2936
  859SOL    MW4 3511   2.472   2.302   1.606 -0.1371 -0.4637  0.3670
  860SOL     OW 3512   2.237   2.455   1.523  0.2076 -0.2458 -0.2845
  860SOL    HW2 3513   2.317   2.419   1.562 -0.6710 -0.5351  1.3055
  860SOL    HW3 3514   2.166   2.406   1.565 -0.9091  1.5677 -0.0153
  860SOL    MW4 3515   2.238   2.444   1.534 -0.0556 -0.0448 -0.0392
  861SOL     OW 3516   2.228   2.738   1.591  0.2543 -0.2879 -0.0132
  861SOL    HW2 3517   2.228   2.643   1.584 -0.4061 -0.1755 -1.6390
  861SOL    HW3 3518   2.163   2.768   1.528  0.2843  1.2366  0.6367
  861SOL    MW4 3519   2.220   2.730   1.582  0.1714 -0.0718 -0.1421
  862SOL     OW 3520   2.482   2.809   1.492 -0.2392  0.3224 -0.1192
  862SOL    HW2 3521   2.482   2.898   1.529 -2.1175  0.6897 -0.9059
  862SOL    HW3 3522   2.396   2.774   1.514 -0.2788 -0.5494 -1.5744
  862SOL    MW4 3523   2.471   2.816   1.499 -0.4921  0.2558 -0.4148
  863SOL     OW 3524   2.450   3.052   1.624 -0.5532 -0.0500 -0.0279
  863SOL    HW2 3525   2.533   3.098   1.609  0.5673 -1.8102  0.7020
  863SOL    HW3 3526   2.431   3.066   1.717 -0.8369 -0.0300 -0.0893
  863SOL    MW4 3527   2.459   3.060   1.634 -0.4427 -0.2794  0.0602
  864SOL     OW 3528   2.239   3.199   1.498  0.1492  0.3595  0.1932
  864SOL    HW2 3529   2.223   3.285   1.537  1.3417  1.0440 -0.7800
  864SOL    HW3 3530   2.306   3.160   1.554  0.8070  0.7496 -0.3114
  864SOL    MW4 3531   2.246   3.205   1.511  0.3934  0.5014 -0.0017
  865SOL     OW 3532   2.232   3.472   1.592 -0.0720  0.1307  0.2562
  865SOL    HW2 3533   2.245   3.493   1.685  1.5340 -1.0932  0.3233
  865SOL    HW3 3534   2.306   3.513   1.548  0.7341 -1.7194 -0.1308
  865SOL    MW4 3535   2.243   3.480   1.599  0.2463 -0.2749  0.2140
  866SOL     OW 3536   2.480   3.594   1.477 -0.2061 -0.3467 -0.2537
  866SOL    HW2 3537   2.553   3.546   1.516  0.1606  0.0265 -0.4712
  866SOL    HW3 3538   2.488   3.682   1.514 -1.7215 -0.8103  1.2683
  866SOL    MW4 3539   2.491   3.599   1.487 -0.3574 -0.3583 -0.0815
  867SOL     OW 3540   2.436   3.841   1.626 -0.1114 -0.2632 -0.1946
  867SOL    HW2 3541   2.455   3.846   1.720 -1.0021  1.0805 -0.0636
  867SOL    HW3 3542   2.507   3.891   1.585  0.3517 -0.9633 -0.2527
  867SOL    MW4 3543   2.448   3.849   1.633 -0.1676 -0.1783 -0.1849
  868SOL     OW 3544   2.231   3.999   1.507 -0.1373 -0.2620  0.5097
  868SOL    HW2 3545   2.304   3.950   1.546  0.4436 -0.2450 -0.5150
  868SOL    HW3 3546   2.243   3.987   1.412 -0.4004  1.2515  0.2622
  868SOL    MW4 3547   2.242   3.991   1.499 -0.0956 -0.0601  0.3418
  869SOL     OW 3548   2.202   4.273   1.569 -0.2641  0.4231 -0.3408
  869SOL    HW2 3549   2.285   4.304   1.534 -0.3580  0.9367 -0.1090
  869SOL    HW3 3550   2.196   4.182   1.540  0.8882  0.0473  0.5695
  869SOL    MW4 3551   2.212   4.265   1.560 -0.1247  0.4411 -0.1901
  870SOL     OW 3552   2.451   4.379   1.495 -0.6887 -0.2427  0.1111
  870SOL    HW2 3553   2.478   4.462   1.534  1.6035 -0.8416 -0.1284
  870SOL    HW3 3554   2.437   4.399   1.402 -0.5540 -0.0338  0.1369
  870SOL    MW4 3555   2.453   4.392   1.488 -0.3686 -0.2942  0.0829
  871SOL     OW 3556   2.923   4.631   1.580  0.7238  0.2961 -0.5454
  871SOL    HW2 3557   2.933   4.628   1.675 -0.1906 -0.2605 -0.4650
  871SOL    HW3 3558   2.836   4.668   1.566  0.5853 -0.2530 -1.1514
  871SOL    MW4 3559   2.913   4.635   1.591  0.5851  0.1502 -0.6146
  872SOL     OW 3560   2.701   0.086   1.481  0.1716 -0.2580 -0.1161
  872SOL    HW2 3561   2.702   0.172   1.523  0.0841 -0.0314 -0.5699
  872SOL    HW3 3562   2.635   0.036   1.529 -0.5031  0.2599 -0.4868
  872SOL    MW4 3563   2.692   0.091   1.493  0.0710 -0.1598 -0.2249
  873SOL     OW 3564   2.656   0.303   1.647 -0.1945 -0.4050  0.0905
  873SOL    HW2 3565   2.652   0.319   1.742  0.2038 -0.5890  0.1391
  873SOL    HW3 3566   2.728   0.358   1.617 -0.2669 -0.4114 -0.0925
  873SOL    MW4 3567   2.665   0.312   1.656 -0.1514 -0.4301  0.0727
  874SOL     OW 3568   2.851   0.494   1.513 -0.1717 -0.1661  0.1641
  874SOL    HW2 3569   2.890   0.577   1.540  1.6751 -1.4262  1.5341
  874SOL    HW3 3570   2.852   0.497   1.417  3.2318 -0.0923  0.1511
  874SOL    MW4 3571   2.856   0.506   1.504  0.5209 -0.3226  0.3432
  875SOL     OW 3572   2.961   0.738   1.594 -0.1081  0.6577  0.2059
  875SOL    HW2 3573   2.975   0.728   1.688 -0.5179 -1.6458  0.0419
  875SOL    HW3 3574   2.878   0.785   1.587 -0.5027  0.0849  0.9847
  875SOL    MW4 3575   2.952   0.743   1.605 -0.2141  0.2782  0.2871
  876SOL     OW 3576   2.706   0.873   1.573  0.0081 -0.1200  0.0545
  876SOL    HW2 3577   2.632   0.827   1.612 -0.1467  1.0034  1.1302
  876SOL    HW3 3578   2.686   0.876   1.480 -0.7449 -0.8311  0.1914
  876SOL    MW4 3579   2.693   0.867   1.566 -0.1118 -0.0656  0.2146
  877SOL     OW 3580   2.714   1.143   1.610 -0.3717 -0.2934 -0.1874
  877SOL    HW2 3581   2.723   1.049   1.597  1.2273 -0.0879 -0.6936
  877SOL    HW3 3582   2.636   1.167   1.559  0.1695 -1.0763 -1.4041
  877SOL    MW4 3583   2.705   1.134   1.602 -0.0894 -0.3697 -0.4150
  878SOL     OW 3584   2.907   1.288   1.478 -0.1175  0.7544  0.1300
  878SOL    HW2 3585   2.982   1.236   1.505  0.3667  1.1585 -0.4056
  878SOL    HW3 3586   2.831   1.247   1.520  0.3202 -0.0723  0.1078
  878SOL    MW4 3587   2.907   1.276   1.487  0.0043  0.6987  0.0564
  879SOL     OW 3588   2.933   1.570   1.568 -0.1485 -0.0188  0.1005
  879SOL    HW2 3589   2.861   1.597   1.511  1.2030  1.5544 -0.9005
  879SOL    HW3 3590   2.939   1.475   1.555 -1.2753  0.0068 -0.6944
  879SOL    MW4 3591   2.924   1.561   1.559 -0.1187  0.1920 -0.1366
  880SOL     OW 3592   2.724   1.658   1.400 -0.3253 -0.0016 -0.1675
  880SOL    HW2 3593   2.701   1.743   1.436 -1.9881 -1.0462  1.3128
  880SOL    HW3 3594   2.735   1.674   1.306 -0.6187  1.8256  0.0879
  880SOL    MW4 3595   2.723   1.671   1.393 -0.5832  0.1016  0.0614
  881SOL     OW 3596   2.675   1.885   1.584  0.0169 -0.0804 -0.0046
  881SOL    HW2 3597   2.678   1.888   1.679  1.2938  2.1657 -0.0739
  881SOL    HW3 3598   2.598   1.938   1.561 -0.4579 -0.8541 -0.2365
  881SOL    MW4 3599   2.665   1.893   1.593  0.1228  0.1138 -0.0442
  882SOL     OW 3600   2.908   2.017   1.486 -0.1970  0.1039 -0.2276
  882SOL    HW2 3601   2.908   2.110   1.511  0.2900 -0.3755  1.6019
  882SOL    HW3 3602   2.836   1.979   1.536 -0.3355 -0.5387 -0.9064
  882SOL    MW4 3603   2.899   2.024   1.496 -0.1512 -0.0443 -0.0757
  883SOL     OW 3604   2.914   2.275   1.546 -0.2474  0.1212 -0.2354
  883SOL    HW2 3605   2.925   2.268   1.640  0.2656 -1.7536 -0.4111
  883SOL    HW3 3606   2.830   2.319   1.534 -1.6684 -2.1124  1.1187
  883SOL    MW4 3607   2.905   2.280   1.557 -0.3674 -0.4208 -0.0799
  884SOL     OW 3608   2.692   2.423   1.468 -0.5098 -0.1457 -0.0606
  884SOL    HW2 3609   2.696   2.514   1.498 -2.1734  0.4594 -1.6096
  884SOL    HW3 3610   2.607   2.391   1.498 -0.7003 -0.6222 -1.1023
  884SOL    MW4 3611   2.682   2.431   1.476 -0.7546 -0.1287 -0.4023
  885SOL     OW 3612   2.695   2.675   1.568 -0.4641 -0.2358 -0.1985
  885SOL    HW2 3613   2.768   2.722   1.528 -1.0853  0.3109 -0.7027
  885SOL    HW3 3614   2.618   2.726   1.543 -0.9192 -0.2149  1.2025
  885SOL    MW4 3615   2.695   2.688   1.560 -0.6061 -0.1609 -0.0801
  886SOL     OW 3616   2.906   2.835   1.459  0.1930 -0.0668 -0.4934
  886SOL    HW2 3617   2.976   2.785   1.501 -1.0389 -0.3511  1.2504
  886SOL    HW3 3618   2.913   2.923   1.497  0.9287  0.5095 -1.8978
  886SOL    MW4 3619   2.917   2.840   1.469  0.1276 -0.0286 -0.4486
  887SOL     OW 3620   2.927   3.087   1.581 -0.0645 -0.2083 -0.4827
  887SOL    HW2 3621   2.936   3.088   1.677  2.6761 -0.7213 -0.6895
  887SOL    HW3 3622   2.996   3.146   1.550 -1.6587  0.8355 -2.1290
  887SOL    MW4 3623   2.938   3.095   1.590  0.0868 -0.1380 -0.7272
  888SOL     OW 3624   2.672   3.200   1.532 -0.4616 -0.0503 -0.2314
  888SOL    HW2 3625   2.755   3.157   1.557 -0.6808 -0.6481 -0.5284
  888SOL    HW3 3626   2.673   3.199   1.436 -0.1111  1.3095 -0.2595
  888SOL    MW4 3627   2.683   3.194   1.523 -0.4442  0.0503 -0.2742
  889SOL     OW 3628   2.685   3.473   1.590 -0.0202 -0.1693 -0.1637
  889SOL    HW2 3629   2.660   3.482   1.682 -1.8485  0.1370 -0.6798
  889SOL    HW3 3630   2.679   3.379   1.573  0.6330 -0.2646  0.1038
  889SOL    MW4 3631   2.681   3.461   1.600 -0.1755 -0.1416 -0.1963
  890SOL     OW 3632   2.923   3.612   1.516 -0.5029 -0.1147  0.2253
  890SOL    HW2 3633   2.852   3.554   1.542 -0.0905 -0.1427  1.3115
  890SOL    HW3 3634   2.912   3.623   1.421 -1.5338 -0.6698  0.2776
  890SOL    MW4 3635   2.913   3.606   1.507 -0.5846 -0.1917  0.3756
  891SOL     OW 3636   2.883   3.873   1.621 -0.1051  0.1304 -0.0263
  891SOL    HW2 3637   2.791   3.900   1.618 -0.4722 -1.2282 -1.5202
  891SOL    HW3 3638   2.886   3.793   1.569  1.7939 -0.2561  0.6492
  891SOL    MW4 3639   2.871   3.866   1.614  0.0970 -0.0999 -0.1345
  892SOL     OW 3640   2.643   4.001   1.504  0.0572  0.4141 -0.2969
  892SOL    HW2 3641   2.666   4.087   1.538  1.2889  0.3267 -0.9115
  892SOL    HW3 3642   2.640   4.012   1.409  1.7865 -0.5922 -0.4816
  892SOL    MW4 3643   2.645   4.013   1.496  0.4478  0.2694 -0.4023
  893SOL     OW 3644   2.669   4.262   1.633 -0.5299 -0.0082  0.2720
  893SOL    HW2 3645   2.744   4.312   1.601 -1.1424 -0.4879 -2.0058
  893SOL    HW3 3646   2.593   4.302   1.591 -1.1578 -1.9882 -0.5765
  893SOL    MW4 3647   2.669   4.274   1.623 -0.6933 -0.3328 -0.1405
  894SOL     OW 3648   2.918   4.368   1.537 -0.4409  0.1803  0.1123
  894SOL    HW2 3649   2.920   4.464   1.541 -0.3315  0.2149 -0.7815
  894SOL    HW3 3650   2.903   4.348   1.445  0.7242 -0.6816  0.1034
  894SOL    MW4 3651   2.916   4.378   1.526 -0.2725  0.0720 -0.0069
  895SOL     OW 3652   3.365   4.663   1.626  0.3141  0.0430  0.2254
  895SOL    HW2 3653   3.436   4.707   1.581  0.0940  0.7679  0.5678
  895SOL    HW3 3654   3.367   4.573   1.594  1.1521  0.1543 -0.0316
  895SOL    MW4 3655   3.375   4.657   1.616  0.3958  0.1531  0.2366
  896SOL     OW 3656   3.147   0.092   1.467 -0.1835 -0.5518 -0.0329
  896SOL    HW2 3657   3.217   0.063   1.525 -0.7565 -0.1220  0.8870
  896SOL    HW3 3658   3.070   0.044   1.498 -0.2007 -1.4215 -1.3634
  896SOL    MW4 3659   3.146   0.082   1.479 -0.2615 -0.6099 -0.0871
  897SOL     OW 3660   3.111   0.365   1.565 -0.5433 -0.1866  0.6663
  897SOL    HW2 3661   3.105   0.272   1.541 -0.5543 -0.1495  0.5289
  897SOL    HW3 3662   3.025   0.401   1.547 -0.6814 -0.2583  1.1720
  897SOL    MW4 3663   3.099   0.357   1.560 -0.5629 -0.1912  0.7150
  898SOL     OW 3664   3.363   0.484   1.494 -0.0367 -0.3153 -0.1093
  898SOL    HW2 3665   3.287   0.444   1.534 -0.0787  0.2233  0.3498
  898SOL    HW3 3666   3.342   0.487   1.400 -0.4295 -0.4816 -0.0266
  898SOL    MW4 3667   3.351   0.479   1.487 -0.0942 -0.2662 -0.0378
  899SOL     OW 3668   3.425   0.735   1.577  0.2981 -0.7105  0.4870
  899SOL    HW2 3669   3.403   0.734   1.670 -0.7503 -0.7877  0.2435
  899SOL    HW3 3670   3.400   0.648   1.545 -2.9890  0.5966 -0.6762
  899SOL    MW4 3671   3.419   0.723   1.585 -0.2739 -0.5483  0.3014
  900SOL     OW 3672   3.182   0.886   1.527 -0.2399  0.1566 -0.3222
  900SOL    HW2 3673   3.253   0.829   1.555 -0.1471 -0.4989 -1.8295
  900SOL    HW3 3674   3.103   0.836   1.546 -0.3529  1.0914  1.8197
  900SOL    MW4 3675   3.181   0.872   1.533 -0.2425  0.1934 -0.2385
  901SOL     OW 3676   3.103   1.131   1.591  0.4905  0.2481 -0.0638
  901SOL    HW2 3677   3.104   1.124   1.687  2.3423 -0.6232 -0.1143
  901SOL    HW3 3678   3.123   1.043   1.561 -0.7152  0.3764 -1.2873
  901SOL    MW4 3679   3.106   1.119   1.600  0.5758  0.1500 -0.2320
  902SOL     OW 3680   3.330   1.266   1.470  0.4656 -0.4801  0.1032
  902SOL    HW2 3681   3.408   1.223   1.506  0.7563  1.6404  2.0868
  902SOL    HW3 3682   3.257   1.216   1.508  0.8332 -1.5922 -0.6357
  902SOL    MW4 3683   3.331   1.253   1.480  0.5524 -0.3469  0.2675
  903SOL     OW 3684   3.363   1.518   1.577  0.1374  0.1122 -0.5658
  903SOL    HW2 3685   3.339   1.511   1.669  0.0561  1.1090 -0.5133
  903SOL    HW3 3686   3.369   1.427   1.547  0.6822 -0.2274  0.5481
  903SOL    MW4 3687   3.361   1.505   1.585  0.1984  0.1988 -0.4119
  904SOL     OW 3688   3.175   1.672   1.442  0.0079  0.0091  0.2034
  904SOL    HW2 3689   3.250   1.628   1.482 -0.6745 -0.9982  0.3963
  904SOL    HW3 3690   3.099   1.623   1.473 -0.7803  1.3636  0.4618
  904SOL    MW4 3691   3.175   1.660   1.451 -0.1862  0.0550  0.2630
  905SOL     OW 3692   3.128   1.902   1.597 -0.1325 -0.1559  0.1935
  905SOL    HW2 3693   3.147   1.812   1.571 -0.5192 -0.3395  0.5501
  905SOL    HW3 3694   3.060   1.931   1.536  2.2697  0.9911 -2.0367
  905SOL    MW4 3695   3.122   1.894   1.585  0.1333 -0.0288 -0.0538
  906SOL     OW 3696   3.373   2.030   1.518  0.0597 -0.3946 -0.5748
  906SOL    HW2 3697   3.291   1.988   1.545  0.6209 -1.6082 -0.7561
  906SOL    HW3 3698   3.369   2.031   1.423 -1.0694  2.2161 -0.5519
  906SOL    MW4 3699   3.362   2.025   1.509 -0.0153 -0.2103 -0.5957
  907SOL     OW 3700   3.371   2.292   1.619 -0.0511 -0.0588  0.1107
  907SOL    HW2 3701   3.439   2.341   1.574 -0.3494 -1.7316 -2.2299
  907SOL    HW3 3702   3.388   2.200   1.598 -1.2316 -0.7542  1.9934
  907SOL    MW4 3703   3.382   2.286   1.610 -0.2463 -0.3712  0.0504
  908SOL     OW 3704   3.150   2.387   1.460 -0.0053 -0.2930  0.1955
  908SOL    HW2 3705   3.226   2.347   1.501 -0.2493 -0.0416  0.9136
  908SOL    HW3 3706   3.075   2.340   1.497 -0.2266 -0.0809  0.0215
  908SOL    MW4 3707   3.150   2.376   1.470 -0.0668 -0.2317  0.2674
  909SOL     OW 3708   3.098   2.651   1.560  0.3711 -0.0192 -0.1083
  909SOL    HW2 3709   3.185   2.690   1.554  0.4945 -0.2467  0.2108
  909SOL    HW3 3710   3.108   2.563   1.524  0.9007 -1.0419  2.3995
  909SOL    MW4 3711   3.111   2.645   1.554  0.4573 -0.1843  0.2646
  910SOL     OW 3712   3.329   2.803   1.503 -0.0088 -0.3529  0.0629
  910SOL    HW2 3713   3.324   2.881   1.558 -4.1160 -0.4896  0.0340
  910SOL    HW3 3714   3.344   2.835   1.415 -0.9525  0.3508  0.1594
  910SOL    MW4 3715   3.331   2.817   1.499 -0.6754 -0.2780  0.0719
  911SOL     OW 3716   3.346   3.066   1.579 -0.0949 -0.3540 -0.4047
  911SOL    HW2 3717   3.333   3.068   1.673 -1.1363  0.5360 -0.5657
  911SOL    HW3 3718   3.426   3.117   1.565 -1.4924  1.9070 -0.2582
  911SOL    MW4 3719   3.355   3.073   1.589 -0.4168  0.0618 -0.4066
  912SOL     OW 3720   3.137   3.241   1.466  0.3429  0.1428  0.4703
  912SOL    HW2 3721   3.203   3.180   1.497  0.6425 -0.1561 -0.7449
  912SOL    HW3 3722   3.118   3.213   1.377  0.1300  1.5333  0.0685
  912SOL    MW4 3723   3.143   3.229   1.459  0.3545  0.2868  0.2570
  913SOL     OW 3724   3.130   3.457   1.629 -0.3773  0.0406 -0.1555
  913SOL    HW2 3725   3.128   3.379   1.574  0.3369  0.0789 -0.2307
  913SOL    HW3 3726   3.063   3.514   1.591 -0.9533 -0.5553 -0.0557
  913SOL    MW4 3727   3.121   3.454   1.617 -0.3591 -0.0331 -0.1523
  914SOL     OW 3728   3.361   3.575   1.513 -0.0883 -0.0947  0.4681
  914SOL    HW2 3729   3.432   3.538   1.565 -0.1997  0.5336  1.0816
  914SOL    HW3 3730   3.282   3.537   1.551 -0.0985 -0.5244  0.0128
  914SOL    MW4 3731   3.360   3.565   1.525 -0.1042 -0.0684  0.4890
  915SOL     OW 3732   3.365   3.839   1.596 -0.1392 -0.2136  0.3507
  915SOL    HW2 3733   3.280   3.884   1.591 -0.1406 -0.1493  0.9301
  915SOL    HW3 3734   3.344   3.747   1.576 -0.3678 -0.2259  0.6494
  915SOL    MW4 3735   3.351   3.833   1.592 -0.1695 -0.2069  0.4665
  916SOL     OW 3736   3.130   3.988   1.553  0.0567 -0.2540  0.0292
  916SOL    HW2 3737   3.140   4.076   1.590  0.4487 -0.0850 -0.4696
  916SOL    HW3 3738   3.046   3.957   1.586 -0.2172  0.4244 -0.0227
  916SOL    MW4 3739   3.120   3.996   1.562  0.0720 -0.1423 -0.0435
  917SOL     OW 3740   3.162   4.246   1.642  0.2981 -0.5148 -0.4862
  917SOL    HW2 3741   3.145   4.262   1.734  0.0605 -0.3393 -0.5594
  917SOL    HW3 3742   3.089   4.288   1.596  0.5164 -0.4278 -0.7635
  917SOL    MW4 3743   3.150   4.254   1.648  0.2956 -0.4802 -0.5324
  918SOL     OW 3744   3.358   4.411   1.508  0.2544  0.3757  0.5954
  918SOL    HW2 3745   3.289   4.352   1.540  0.1657  0.6432  0.8911
  918SOL    HW3 3746   3.341   4.416   1.413  0.3587 -0.1983  0.5430
  918SOL    MW4 3747   3.347   4.404   1.500  0.2563  0.3357  0.6275
  919SOL     OW 3748   3.783   4.662   1.572  0.4986  0.2605 -0.2589
  919SOL    HW2 3749   3.773   4.679   1.666  0.0838 -0.1493 -0.2215
  919SOL    HW3 3750   3.872   4.690   1.551  0.5200  0.5473  0.2159
  919SOL    MW4 3751   3.793   4.668   1.582  0.4466  0.2441 -0.1912
  920SOL     OW 3752   3.556   0.120   1.484 -0.0179 -0.1159  0.1496
  920SOL    HW2 3753   3.638   0.072   1.501  1.0386  1.4601 -0.4104
  920SOL    HW3 3754   3.557   0.138   1.390 -0.1865  1.3699  0.4195
  920SOL    MW4 3755   3.567   0.116   1.474  0.0992  0.2880  0.1115
  921SOL     OW 3756   3.593   0.376   1.603 -0.5874  0.4291  0.1210
  921SOL    HW2 3757   3.596   0.293   1.557  0.1259  0.1553  0.6455
  921SOL    HW3 3758   3.518   0.422   1.566  0.4796  0.5685 -1.8901
  921SOL    MW4 3759   3.583   0.371   1.592 -0.3526  0.4113 -0.0751
  922SOL     OW 3760   3.814   0.506   1.495 -0.2085 -0.5003 -0.5707
  922SOL    HW2 3761   3.734   0.473   1.536 -0.5092  1.0040  0.0691
  922SOL    HW3 3762   3.788   0.524   1.404 -0.5950 -0.0107 -0.3633
  922SOL    MW4 3763   3.800   0.504   1.488 -0.2990 -0.2372 -0.4588
  923SOL     OW 3764   3.792   0.755   1.623  0.0004  0.6567  0.6102
  923SOL    HW2 3765   3.727   0.797   1.567 -0.9924 -0.0612  1.1863
  923SOL    HW3 3766   3.812   0.673   1.578 -0.5712  0.2213  1.1284
  923SOL    MW4 3767   3.786   0.750   1.610 -0.2058  0.5045  0.7547
  924SOL     OW 3768   3.617   0.898   1.481 -0.1569  0.0232  0.0893
  924SOL    HW2 3769   3.541   0.853   1.520 -0.6269  0.9959  0.3280
  924SOL    HW3 3770   3.600   0.896   1.387  0.4049 -1.3177  0.0085
  924SOL    MW4 3771   3.605   0.892   1.474 -0.1450 -0.0255  0.1101
  925SOL     OW 3772   3.574   1.160   1.586 -0.1800 -0.2956 -0.3172
  925SOL    HW2 3773   3.651   1.214   1.571 -0.1152  0.1955  1.6468
  925SOL    HW3 3774   3.603   1.070   1.568  1.1918 -0.2547  1.6106
  925SOL    MW4 3775   3.588   1.155   1.581  0.0095 -0.2255  0.1963
  926SOL     OW 3776   3.832   1.324   1.543  0.7785 -0.2280 -0.3884
  926SOL    HW2 3777   3.918   1.281   1.545  0.7216 -0.4291 -1.7020
  926SOL    HW3 3778   3.850   1.415   1.567  1.1486 -0.5901  0.7244
  926SOL    MW4 3779   3.846   1.331   1.546  0.8197 -0.3023 -0.4148
  927SOL     OW 3780   3.841   1.589   1.625 -0.0205 -0.1815 -0.2012
  927SOL    HW2 3781   3.820   1.570   1.716  1.0000  2.9241  0.7266
  927SOL    HW3 3782   3.758   1.618   1.587 -0.2690 -0.7277 -0.0910
  927SOL    MW4 3783   3.827   1.590   1.632  0.0813  0.1562 -0.0643
  928SOL     OW 3784   3.584   1.657   1.496  0.4851  0.1355 -0.6236
  928SOL    HW2 3785   3.518   1.594   1.522  1.1657 -0.4756 -0.3601
  928SOL    HW3 3786   3.583   1.654   1.400  0.6743 -0.4458 -0.6095
  928SOL    MW4 3787   3.575   1.649   1.487  0.5996 -0.0219 -0.5871
  929SOL     OW 3788   3.605   1.914   1.619  0.1400  0.2620  0.3567
  929SOL    HW2 3789   3.597   1.825   1.583  1.5612  0.3150 -0.1175
  929SOL    HW3 3790   3.521   1.956   1.598  0.3563 -0.2016 -1.5393
  929SOL    MW4 3791   3.593   1.907   1.611  0.3562  0.2079  0.0439
  930SOL     OW 3792   3.811   2.040   1.484  0.0381  0.6864  0.2344
  930SOL    HW2 3793   3.821   2.125   1.527  2.3514  0.1004  0.9418
  930SOL    HW3 3794   3.740   1.997   1.531 -0.4546  1.8259  0.5504
  930SOL    MW4 3795   3.803   2.046   1.496  0.2782  0.7594  0.3694
  931SOL     OW 3796   3.826   2.307   1.568  0.2356 -0.4260 -0.1313
  931SOL    HW2 3797   3.837   2.320   1.662 -0.6611 -1.7648  0.1669
  931SOL    HW3 3798   3.907   2.340   1.530 -0.0687  1.6277  0.9633
  931SOL    MW4 3799   3.838   2.313   1.576  0.0770 -0.3314  0.0526
  932SOL     OW 3800   3.588   2.416   1.491  0.0324 -0.5528  0.7924
  932SOL    HW2 3801   3.596   2.504   1.525  1.2473 -0.4291  0.2218
  932SOL    HW3 3802   3.667   2.370   1.522  0.4588 -0.8274 -0.6241
  932SOL    MW4 3803   3.600   2.421   1.499  0.2489 -0.5727  0.5302
  933SOL     OW 3804   3.561   2.675   1.570  0.0134 -0.5183 -0.3376
  933SOL    HW2 3805   3.551   2.642   1.659  0.7850 -1.0728 -0.4473
  933SOL    HW3 3806   3.479   2.721   1.552 -0.7222 -1.6280  0.1338
  933SOL    MW4 3807   3.549   2.677   1.580  0.0181 -0.7379 -0.2899
  934SOL     OW 3808   3.783   2.836   1.519 -0.5603 -0.0030  0.3878
  934SOL    HW2 3809   3.857   2.780   1.543 -0.1053  1.5681  2.7422
  934SOL    HW3 3810   3.706   2.780   1.531 -0.0326 -0.4750  1.6677
  934SOL    MW4 3811   3.782   2.821   1.523 -0.4303  0.1421  0.8674
  935SOL     OW 3812   3.831   3.088   1.613  0.3419 -0.2245  0.2305
  935SOL    HW2 3813   3.890   3.137   1.555 -2.0585  0.6705 -1.5442
  935SOL    HW3 3814   3.832   2.999   1.579  0.1225 -0.0529 -0.2204
  935SOL    MW4 3815   3.839   3.083   1.601 -0.0038 -0.0839 -0.0633
  936SOL     OW 3816   3.600   3.219   1.520  0.2044 -0.1027  0.0540
  936SOL    HW2 3817   3.677   3.170   1.547  0.6544  0.1190 -0.8230
  936SOL    HW3 3818   3.598   3.212   1.424 -1.1860 -0.6019  0.1010
  936SOL    MW4 3819   3.610   3.212   1.511  0.0801 -0.1390 -0.0556
  937SOL     OW 3820   3.594   3.461   1.616 -0.1091 -0.3608 -0.4709
  937SOL    HW2 3821   3.667   3.511   1.579  1.2920 -1.5156  0.6820
  937SOL    HW3 3822   3.603   3.374   1.577  0.1049 -0.9691  0.9140
  937SOL    MW4 3823   3.605   3.456   1.606  0.1042 -0.5934 -0.1360
  938SOL     OW 3824   3.806   3.626   1.521 -0.2717 -0.1752 -0.1294
  938SOL    HW2 3825   3.886   3.584   1.556  0.9763  0.5181 -2.0769
  938SOL    HW3 3826   3.816   3.718   1.543 -0.2947 -0.0129 -0.7794
  938SOL    MW4 3827   3.818   3.632   1.529 -0.1104 -0.0622 -0.4722
  939SOL     OW 3828   3.816   3.899   1.563  0.0702  0.0020 -0.2668
  939SOL    HW2 3829   3.887   3.942   1.515  1.3767 -2.1333 -0.3288
  939SOL    HW3 3830   3.737   3.945   1.536  1.3732  2.1735 -0.5129
  939SOL    MW4 3831   3.815   3.911   1.553  0.4146  0.0064 -0.3073
  940SOL     OW 3832   3.576   3.984   1.454  0.1326  0.2399  0.0825
  940SOL    HW2 3833   3.561   4.065   1.501  0.2388 -0.7413  1.8556
  940SOL    HW3 3834   3.525   3.918   1.502  0.9541 -0.9494 -0.6324
  940SOL    MW4 3835   3.567   3.986   1.466  0.2549 -0.0467  0.2222
  941SOL     OW 3836   3.578   4.228   1.579 -0.3588 -0.3547  0.1265
  941SOL    HW2 3837   3.604   4.237   1.671  1.2659  2.9793 -0.5831
  941SOL    HW3 3838   3.505   4.289   1.569  0.8221  0.8601 -1.2596
  941SOL    MW4 3839   3.572   4.237   1.590  0.0112  0.2456 -0.1500
  942SOL     OW 3840   3.801   4.394   1.527  0.3846  0.1212 -0.0507
  942SOL    HW2 3841   3.719   4.358   1.560  0.4661  0.7915  0.8912
  942SOL    HW3 3842   3.789   4.489   1.528  0.4965  0.1722 -1.6918
  942SOL    MW4 3843   3.789   4.402   1.531  0.4103  0.2165 -0.1428
  943SOL     OW 3844   4.268   4.658   1.560  0.4762  0.1793 -0.2434
  943SOL    HW2 3845   4.244   4.652   1.652  0.9481  0.7810 -0.0793
  943SOL    HW3 3846   4.296   4.570   1.536 -0.1416 -0.0931  0.0513
  943SOL    MW4 3847   4.269   4.646   1.569  0.4568  0.2227 -0.1829
  944SOL     OW 3848   4.014   0.103   1.464 -0.5415 -0.3060 -0.2046
  944SOL    HW2 3849   4.024   0.191   1.498 -2.0581 -0.5359  0.8800
  944SOL    HW3 3850   4.096   0.058   1.487  0.1631  0.7587 -0.6302
  944SOL    MW4 3851   4.026   0.108   1.471 -0.6485 -0.1959 -0.1177
  945SOL     OW 3852   4.046   0.366   1.567  0.4359  0.3323  0.3944
  945SOL    HW2 3853   4.047   0.378   1.662 -0.2158  1.4531  0.2684
  945SOL    HW3 3854   3.968   0.413   1.538 -0.3241 -1.4616 -0.5246
  945SOL    MW4 3855   4.036   0.374   1.576  0.2494  0.2435  0.2565
  946SOL     OW 3856   4.241   0.529   1.470  0.2236  0.0486 -0.1739
  946SOL    HW2 3857   4.165   0.471   1.483 -0.3117  0.8622  0.3607
  946SOL    HW3 3858   4.317   0.472   1.484 -0.3014 -0.2436  1.5751
  946SOL    MW4 3859   4.241   0.514   1.473  0.0839  0.1174  0.1273
  947SOL     OW 3860   4.218   0.799   1.540  0.3933  0.0995  0.0226
  947SOL    HW2 3861   4.227   0.706   1.519 -0.9480  0.1997 -1.1055
  947SOL    HW3 3862   4.301   0.838   1.513  0.0714 -0.3903 -1.7557
  947SOL    MW4 3863   4.230   0.792   1.533  0.1740  0.0481 -0.3608
  948SOL     OW 3864   3.985   0.896   1.459  0.1853  0.3280 -0.3095
  948SOL    HW2 3865   4.070   0.858   1.481  0.4466  0.5635 -0.8948
  948SOL    HW3 3866   3.923   0.850   1.515  0.7821  0.6330  0.6279
  948SOL    MW4 3867   3.988   0.885   1.469  0.2985  0.3993 -0.2631
  949SOL     OW 3868   4.062   1.145   1.562  0.2146  0.3734 -0.1650
  949SOL    HW2 3869   4.058   1.129   1.656  1.4343  0.4042 -0.0978
  949SOL    HW3 3870   4.032   1.063   1.523 -0.6590  0.4903  0.2522
  949SOL    MW4 3871   4.058   1.132   1.569  0.2604  0.3930 -0.1012
  950SOL     OW 3872   4.292   1.261   1.449  0.3028 -1.1267 -0.6897
  950SOL    HW2 3873   4.224   1.216   1.500 -0.1621  0.1996 -0.1366
  950SOL    HW3 3874   4.374   1.220   1.477  0.0194 -0.6484  0.8737
  950SOL    MW4 3875   4.294   1.249   1.459  0.2046 -0.8885 -0.4104
  951SOL     OW 3876   4.278   1.522   1.579 -0.0645 -0.1839  0.5842
  951SOL    HW2 3877   4.285   1.434   1.542  1.0802 -0.9419  2.5010
  951SOL    HW3 3878   4.354   1.569   1.544 -0.4498 -0.0763 -0.1151
  951SOL    MW4 3879   4.289   1.517   1.570  0.0362 -0.2698  0.7449
  952SOL     OW 3880   4.063   1.655   1.457 -0.0351  0.3214  0.0429
  952SOL    HW2 3881   4.134   1.618   1.508  0.7209  0.7153 -0.7020
  952SOL    HW3 3882   3.983   1.626   1.501  0.5930  0.4012  1.2523
  952SOL    MW4 3883   4.062   1.647   1.469  0.1473  0.3840  0.1042
  953SOL     OW 3884   4.045   1.923   1.573  0.4231  0.7361  0.0241
  953SOL    HW2 3885   4.058   1.837   1.532  2.4803  1.1397 -0.2020
  953SOL    HW3 3886   3.963   1.955   1.536  1.4782  0.4476 -2.6913
  953SOL    MW4 3887   4.036   1.915   1.563  0.8340  0.7514 -0.3641
  954SOL     OW 3888   4.239   2.090   1.514 -0.3535  0.1638  0.1122
  954SOL    HW2 3889   4.176   2.023   1.539  0.9163 -1.1632 -0.1614
  954SOL    HW3 3890   4.246   2.083   1.419 -0.1826  0.6409  0.0887
  954SOL    MW4 3891   4.232   2.080   1.505 -0.1636  0.0517  0.0731
  955SOL     OW 3892   4.254   2.349   1.631  0.0800  0.1057  0.0321
  955SOL    HW2 3893   4.271   2.341   1.725 -1.0928  0.2014  0.2596
  955SOL    HW3 3894   4.251   2.259   1.599  0.8958  0.0852  0.0089
  955SOL    MW4 3895   4.256   2.336   1.640  0.0329  0.1156  0.0590
  956SOL     OW 3896   4.051   2.441   1.462  0.0174  0.6304 -0.2548
  956SOL    HW2 3897   4.022   2.527   1.494 -1.3618 -0.4511  1.5221
  956SOL    HW3 3898   4.118   2.413   1.525 -0.0912  0.0757 -0.3850
  956SOL    MW4 3899   4.056   2.449   1.475 -0.1788  0.4146 -0.0376
  957SOL     OW 3900   4.005   2.683   1.581  0.4675  0.0149 -0.3517
  957SOL    HW2 3901   4.028   2.689   1.674 -1.9604  1.6274  0.2166
  957SOL    HW3 3902   4.065   2.743   1.538 -0.3960  1.6267  0.6294
  957SOL    MW4 3903   4.016   2.692   1.588  0.0329  0.4404 -0.1472
  958SOL     OW 3904   4.224   2.808   1.458 -0.2103 -0.0756 -0.5440
  958SOL    HW2 3905   4.221   2.902   1.476 -1.4127 -0.1757 -0.1933
  958SOL    HW3 3906   4.230   2.802   1.363 -0.6646  0.3470 -0.5999
  958SOL    MW4 3907   4.224   2.819   1.448 -0.4292 -0.0329 -0.5051
  959SOL     OW 3908   4.230   3.067   1.548  0.7665 -0.1072  0.3817
  959SOL    HW2 3909   4.252   3.069   1.641  1.7533  0.4484  0.1388
  959SOL    HW3 3910   4.296   3.123   1.507 -0.2831  0.4815 -0.5220
  959SOL    MW4 3911   4.242   3.075   1.555  0.7582  0.0439  0.2306
  960SOL     OW 3912   4.007   3.241   1.452 -0.3893  0.6509  0.1970
  960SOL    HW2 3913   4.024   3.324   1.497  1.1514  0.6191 -0.2855
  960SOL    HW3 3914   4.068   3.179   1.493 -0.7405  0.0172 -0.2287
  960SOL    MW4 3915   4.017   3.244   1.464 -0.2332  0.5634  0.0771
  961SOL     OW 3916   4.036   3.511   1.584  0.3461  0.1172  0.1443
  961SOL    HW2 3917   4.021   3.520   1.678  1.2782 -0.7521  0.3776
  961SOL    HW3 3918   4.124   3.544   1.570  0.3126 -0.0164 -0.3910
  961SOL    MW4 3919   4.045   3.516   1.595  0.4649 -0.0153  0.1044
  962SOL     OW 3920   4.276   3.623   1.497  0.5272  0.3065  0.2306
  962SOL    HW2 3921   4.275   3.706   1.544  0.0522 -0.0421  0.8369
  962SOL    HW3 3922   4.265   3.648   1.405 -1.1177  0.8175  0.5577
  962SOL    MW4 3923   4.275   3.638   1.491  0.2480  0.3281  0.3538
  963SOL     OW 3924   4.289   3.872   1.601  0.4624  0.3598 -0.2821
  963SOL    HW2 3925   4.230   3.941   1.569  1.0057  1.7383  1.5505
  963SOL    HW3 3926   4.373   3.892   1.561  0.3690  0.1610 -0.5722
  963SOL    MW4 3927   4.292   3.884   1.592  0.5221  0.5155 -0.0787
  964SOL     OW 3928   4.066   4.009   1.452  0.0543 -0.1079 -0.3755
  964SOL    HW2 3929   4.064   4.095   1.493 -0.5900 -0.2953 -0.0061
  964SOL    HW3 3930   4.051   4.026   1.359 -0.5577  0.1360 -0.2348
  964SOL    MW4 3931   4.064   4.022   1.445 -0.1111 -0.1001 -0.3083
  965SOL     OW 3932   4.041   4.242   1.582  0.6831 -0.3484  0.0413
  965SOL    HW2 3933   4.053   4.238   1.677  0.5790 -0.5486  0.0456
  965SOL    HW3 3934   3.960   4.292   1.570 -0.1322 -1.6336  0.1059
  965SOL    MW4 3935   4.032   4.248   1.593  0.5617 -0.5445  0.0504
  966SOL     OW 3936   4.271   4.373   1.500 -0.2040 -0.1888  0.7878
  966SOL    HW2 3937   4.192   4.322   1.517 -0.4782  0.4382  1.3919
  966SOL    HW3 3938   4.266   4.394   1.407 -0.3802 -0.7625  0.6643
  966SOL    MW4 3939   4.260   4.369   1.490 -0.2632 -0.1822  0.8513
  967SOL     OW 3940   0.222   4.624   1.861  0.4601 -0.3513 -0.1457
  967SOL    HW2 3941   0.305   4.652   1.900  1.5773 -2.1816 -1.1472
  967SOL    HW3 3942   0.236   4.632   1.767 -0.4381 -0.8695 -0.3333
  967SOL    MW4 3943   0.235   4.629   1.854  0.4890 -0.6614 -0.3027
  968SOL     OW 3944   0.023   0.130   1.993 -0.2531  0.4935  0.2083
  968SOL    HW2 3945   0.005   0.207   1.939 -1.8852 -0.4624 -0.6431
  968SOL    HW3 3946   0.093   0.085   1.947 -1.6709 -0.3461 -1.1942
  968SOL    MW4 3947   0.030   0.135   1.980 -0.6555  0.2566 -0.0890
  969SOL     OW 3948   0.007   0.372   1.814  0.2112  0.0283 -0.3057
  969SOL    HW2 3949  -0.068   0.426   1.839  0.0677  0.1889 -1.0711
  969SOL    HW3 3950   0.083   0.420   1.845 -0.0180 -0.3841  0.9411
  969SOL    MW4 3951   0.007   0.385   1.821  0.1612 -0.0049 -0.2422
  970SOL     OW 3952   0.211   0.477   1.944  0.4088  0.0558  0.1552
  970SOL    HW2 3953   0.296   0.437   1.923  1.1946  1.5276  0.4492
  970SOL    HW3 3954   0.221   0.569   1.919 -1.3548  0.0970 -0.4749
  970SOL    MW4 3955   0.224   0.484   1.938  0.2798  0.2554  0.1109
  971SOL     OW 3956   0.249   0.751   1.843 -0.3203 -0.3650 -0.4484
  971SOL    HW2 3957   0.311   0.814   1.880  0.1656 -1.5814  0.8825
  971SOL    HW3 3958   0.253   0.765   1.749  1.7764 -0.2235 -0.3668
  971SOL    MW4 3959   0.258   0.761   1.836  0.0204 -0.5069 -0.2621
  972SOL     OW 3960   4.480   0.876   1.952 -0.3711 -0.3431 -0.0113
  972SOL    HW2 3961   4.403   0.840   1.908 -0.1660  0.3236 -0.9539
  972SOL    HW3 3962   4.553   0.825   1.916 -0.3432 -0.7924  0.6772
  972SOL    MW4 3963   4.480   0.865   1.941 -0.3404 -0.3145 -0.0447
  973SOL     OW 3964   0.024   1.134   1.840 -0.1498 -0.3897 -0.1936
  973SOL    HW2 3965  -0.050   1.180   1.881 -0.8091 -2.2558  0.7422
  973SOL    HW3 3966   0.025   1.048   1.882  0.9952 -1.2815 -2.0064
  973SOL    MW4 3967   0.014   1.129   1.851 -0.0857 -0.7535 -0.3095
  974SOL     OW 3968   0.233   1.258   1.973 -0.4661 -0.2981  0.3719
  974SOL    HW2 3969   0.229   1.347   1.938  1.4480 -0.3415 -0.0563
  974SOL    HW3 3970   0.165   1.210   1.926 -2.0411  1.1159  1.1721
  974SOL    MW4 3971   0.224   1.263   1.962 -0.4214 -0.1174  0.4210
  975SOL     OW 3972   0.223   1.499   1.844  0.2247  0.5937 -0.4879
  975SOL    HW2 3973   0.297   1.523   1.900  0.2461 -0.0102 -0.2516
  975SOL    HW3 3974   0.150   1.552   1.875 -0.0395 -0.5185  0.8146
  975SOL    MW4 3975   0.223   1.509   1.855  0.1927  0.3673 -0.2848
  976SOL     OW 3976   0.002   1.627   1.932  0.8045  0.0974  0.1152
  976SOL    HW2 3977   0.007   1.634   2.028 -1.9921  2.6607  0.1286
  976SOL    HW3 3978  -0.082   1.584   1.915  2.0718 -1.9405 -1.1808
  976SOL    MW4 3979  -0.008   1.622   1.943  0.6027  0.1668 -0.0539
  977SOL     OW 3980   0.017   1.891   1.855  0.0623 -0.0338  0.0295
  977SOL    HW2 3981  -0.060   1.926   1.899  0.2190  0.2944  0.0388
  977SOL    HW3 3982   0.023   1.800   1.887 -0.2054  0.0022  0.1800
  977SOL    MW4 3983   0.008   1.883   1.865  0.0472  0.0143  0.0505
  978SOL     OW 3984   0.229   2.014   1.982 -0.1414 -0.1506  0.1863
  978SOL    HW2 3985   0.240   2.105   1.955 -2.1363  0.1067  0.1547
  978SOL    HW3 3986   0.157   1.981   1.927 -1.1483 -0.9877  1.9800
  978SOL    MW4 3987   0.221   2.021   1.971 -0.5375 -0.2272  0.4188
  979SOL     OW 3988   0.257   2.291   1.886 -0.4223 -0.1280  0.6755
  979SOL    HW2 3989   0.325   2.353   1.914  0.0930  0.2175 -1.2482
  979SOL    HW3 3990   0.175   2.335   1.908 -0.0635  1.2864 -0.6711
  979SOL    MW4 3991   0.255   2.305   1.893 -0.3070  0.1044  0.2440
  980SOL     OW 3992   0.031   2.431   1.947 -0.4318 -0.2343  0.1347
  980SOL    HW2 3993   0.012   2.450   2.039  1.1601  0.3849  0.3484
  980SOL    HW3 3994   0.033   2.516   1.905  1.7795 -0.2738  0.1192
  980SOL    MW4 3995   0.029   2.445   1.954  0.0700 -0.1578  0.1608
  981SOL     OW 3996   0.007   2.685   1.867  0.0809  0.2252  0.5278
  981SOL    HW2 3997  -0.062   2.744   1.894  0.4887  0.7244  0.4959
  981SOL    HW3 3998   0.008   2.692   1.771  0.6355  0.7566  0.5662
  981SOL    MW4 3999  -0.002   2.694   1.858  0.2078  0.3612  0.5287
  982SOL     OW 4000   0.227   2.827   1.985 -0.2224 -0.3690 -0.2607
  982SOL    HW2 4001   0.226   2.915   1.947 -0.0429 -0.0053  0.5609
  982SOL    HW3 4002   0.168   2.776   1.929 -1.6639  0.6903  0.2490
  982SOL    MW4 4003   0.219   2.832   1.973 -0.3889 -0.1812 -0.0851
  983SOL     OW 4004   0.207   3.103   1.907 -0.1939 -0.2398  0.1657
  983SOL    HW2 4005   0.286   3.143   1.942 -0.8898  1.2884  0.0300
  983SOL    HW3 4006   0.211   3.121   1.813  0.0889 -1.5659 -0.0881
  983SOL    MW4 4007   0.218   3.111   1.899 -0.2484 -0.2134  0.1144
  984SOL     OW 4008   4.473   3.237   1.996  0.1340 -0.3113  0.1071
  984SOL    HW2 4009   4.413   3.184   1.945  0.3453  0.4904 -0.9998
  984SOL    HW3 4010   4.559   3.199   1.980  0.3411  0.6083 -1.0334
  984SOL    MW4 4011   4.476   3.225   1.988  0.1898 -0.0842 -0.1895
  985SOL     OW 4012   4.485   3.485   1.851 -1.0081  0.0586  0.2850
  985SOL    HW2 4013   4.561   3.511   1.904 -0.2159 -1.1196 -0.2657
  985SOL    HW3 4014   4.469   3.394   1.875 -1.3481 -0.1384 -0.6716
  985SOL    MW4 4015   4.493   3.477   1.861 -0.9485 -0.1225  0.0863
  986SOL     OW 4016   0.208   3.615   1.970  0.2622  0.0938 -0.0406
  986SOL    HW2 4017   0.209   3.608   2.065 -0.1229  1.9379  0.1215
  986SOL    HW3 4018   0.284   3.564   1.941 -0.0427 -1.0846  1.1840
  986SOL    MW4 4019   0.218   3.607   1.978  0.1712  0.1819  0.1425
  987SOL     OW 4020   0.246   3.864   1.867 -0.2059  0.1092  0.2406
  987SOL    HW2 4021   0.314   3.897   1.926  0.2353 -0.3034 -0.0311
  987SOL    HW3 4022   0.228   3.775   1.899 -0.9070  0.3684  0.5597
  987SOL    MW4 4023   0.253   3.856   1.879 -0.2402  0.0889  0.2468
  988SOL     OW 4024   0.016   4.005   1.963 -0.2704  0.6590 -0.1323
  988SOL    HW2 4025   0.002   4.093   1.929 -1.9783 -0.1371 -1.5471
  988SOL    HW3 4026   0.097   3.975   1.922  0.2948  1.5405  0.3309
  988SOL    MW4 4027   0.025   4.012   1.953 -0.4206  0.6700 -0.2577
  989SOL     OW 4028   4.459   4.256   1.852 -0.0338 -0.6462 -0.4435
  989SOL    HW2 4029   4.391   4.318   1.879  0.2805 -0.9523  1.0776
  989SOL    HW3 4030   4.537   4.285   1.898  0.6861 -0.7714 -1.5766
  989SOL    MW4 4031   4.460   4.268   1.862  0.1025 -0.7033 -0.3922
  990SOL     OW 4032   0.221   4.367   1.968  0.1878 -0.0258  0.4820
  990SOL    HW2 4033   0.235   4.403   2.056 -1.4001  1.2898  0.2260
  990SOL    HW3 4034   0.204   4.444   1.913 -1.0338 -0.9874 -0.5392
  990SOL    MW4 4035   0.221   4.382   1.972 -0.1828  0.0210  0.3135
  991SOL     OW 4036   0.725   0.005   1.934 -0.7895  0.1059 -0.1590
  991SOL    HW2 4037   0.700  -0.081   1.969  3.4086 -0.9001  0.6200
  991SOL    HW3 4038   0.719  -0.005   1.839  1.6002 -1.7748 -0.1649
  991SOL    MW4 4039   0.721  -0.008   1.926  0.0797 -0.2751 -0.0570
  992SOL     OW 4040   0.459   0.079   1.951 -0.5560  0.5356 -0.1951
  992SOL    HW2 4041   0.448   0.174   1.942 -1.7775  0.3547 -0.6934
  992SOL    HW3 4042   0.554   0.065   1.944 -0.4445  1.6275 -0.9726
  992SOL    MW4 4043   0.470   0.090   1.949 -0.7025  0.6558 -0.3635
  993SOL     OW 4044   0.453   0.348   1.858  0.0229 -0.3388  0.0090
  993SOL    HW2 4045   0.532   0.389   1.895  0.6380 -1.3345 -0.1751
  993SOL    HW3 4046   0.452   0.376   1.766  0.9979 -1.5233 -0.3797
  993SOL    MW4 4047   0.463   0.357   1.851  0.2327 -0.6265 -0.0666
  994SOL     OW 4048   0.670   0.484   1.953  0.1019  0.2335 -0.2038
  994SOL    HW2 4049   0.669   0.506   2.046  1.1711 -2.7489  0.5815
  994SOL    HW3 4050   0.761   0.464   1.934 -0.2608 -0.1026 -1.6428
  994SOL    MW4 4051   0.682   0.484   1.963  0.1951 -0.2043 -0.2900
  995SOL     OW 4052   0.666   0.771   1.835  0.4183 -0.1959 -0.5063
  995SOL    HW2 4053   0.739   0.807   1.886  0.9193 -0.4595 -1.0323
  995SOL    HW3 4054   0.654   0.683   1.870 -0.4727  0.2884  0.4323
  995SOL    MW4 4055   0.674   0.764   1.847  0.3669 -0.1667 -0.4517
  996SOL     OW 4056   0.456   0.896   1.977  0.0830  0.3772  0.3555
  996SOL    HW2 4057   0.462   0.991   1.964 -0.8642  0.1840 -1.6556
  996SOL    HW3 4058   0.531   0.860   1.930 -1.5833 -0.0991 -2.0568
  996SOL    MW4 4059   0.466   0.904   1.969 -0.2618  0.2889 -0.2282
  997SOL     OW 4060   0.487   1.150   1.905 -0.2398  0.1089  0.0882
  997SOL    HW2 4061   0.401   1.188   1.917 -0.2546  0.5067 -1.1437
  997SOL    HW3 4062   0.497   1.143   1.810  2.2359  2.7351  0.0944
  997SOL    MW4 4063   0.477   1.154   1.894  0.0848  0.5078 -0.0736
  998SOL     OW 4064   0.708   1.301   1.980  0.0642  0.5390  0.1892
  998SOL    HW2 4065   0.688   1.302   2.074  0.9757  0.3469  0.3873
  998SOL    HW3 4066   0.630   1.263   1.940  0.0079 -0.1574  0.9492
  998SOL    MW4 4067   0.695   1.296   1.987  0.1770  0.4218  0.3155
  999SOL     OW 4068   0.718   1.552   1.891  0.2630 -0.8697  0.0381
  999SOL    HW2 4069   0.723   1.461   1.921  1.2525 -1.0257 -0.5964
  999SOL    HW3 4070   0.706   1.545   1.796  2.0927 -0.3279 -0.2431
  999SOL    MW4 4071   0.717   1.539   1.883  0.6350 -0.8187 -0.0827
 1000SOL     OW 4072   0.445   1.596   1.985  0.0945 -0.2105  0.5401
 1000SOL    HW2 4073   0.441   1.625   2.076  0.9615  1.9546 -0.0833
 1000SOL    HW3 4074   0.538   1.581   1.968  0.0515  0.3236 -0.2427
 1000SOL    MW4 4075   0.457   1.598   1.995  0.2032  0.1456  0.3546
 1001SOL     OW 4076   0.450   1.877   1.889 -0.0409  0.1535  0.5266
 1001SOL    HW2 4077   0.464   1.790   1.928  0.9795  0.2758  0.4542
 1001SOL    HW3 4078   0.366   1.906   1.925 -0.2529 -0.7432  0.7775
 1001SOL    MW4 4079   0.441   1.869   1.899  0.0657  0.0511  0.5502
 1002SOL     OW 4080   0.658   2.034   1.989  0.3302  0.2932  0.0704
 1002SOL    HW2 4081   0.642   2.042   2.083 -0.2698  0.6206 -0.0610
 1002SOL    HW3 4082   0.581   1.989   1.955  0.3093  0.6389 -0.3475
 1002SOL    MW4 4083   0.646   2.029   1.997  0.2483  0.3822 -0.0021
 1003SOL     OW 4084   0.668   2.300   1.890 -0.0478 -0.1869  0.0770
 1003SOL    HW2 4085   0.677   2.208   1.918 -1.0623 -0.3822 -0.2255
 1003SOL    HW3 4086   0.666   2.295   1.795 -0.9599  0.0684  0.0812
 1003SOL    MW4 4087   0.669   2.287   1.881 -0.3020 -0.1791  0.0376
 1004SOL     OW 4088   0.459   2.480   1.951 -0.3075 -0.1694 -0.1717
 1004SOL    HW2 4089   0.451   2.474   2.046 -1.1746  1.1497 -0.1473
 1004SOL    HW3 4090   0.530   2.419   1.929  1.3183  1.0640  1.5299
 1004SOL    MW4 4091   0.467   2.471   1.960 -0.2074  0.1676  0.0560
 1005SOL     OW 4092   0.471   2.728   1.862  0.0851  0.3100 -0.3443
 1005SOL    HW2 4093   0.477   2.642   1.903  0.9080  1.0360  1.1186
 1005SOL    HW3 4094   0.388   2.764   1.893 -0.8616 -0.4535 -1.9689
 1005SOL    MW4 4095   0.461   2.722   1.872  0.0688  0.3049 -0.3656
 1006SOL     OW 4096   0.715   2.852   1.961 -0.1578 -0.1628 -0.5502
 1006SOL    HW2 4097   0.705   2.825   2.053 -1.2373  1.1612 -0.2562
 1006SOL    HW3 4098   0.640   2.813   1.917 -0.3808  0.3201 -0.6009
 1006SOL    MW4 4099   0.704   2.843   1.967 -0.3297  0.0753 -0.5182
 1007SOL     OW 4100   0.671   3.123   1.879 -0.2957 -0.0702 -0.1236
 1007SOL    HW2 4101   0.691   3.037   1.916  1.6536  0.6771  0.6733
 1007SOL    HW3 4102   0.662   3.108   1.785 -1.4756 -1.3828  0.1947
 1007SOL    MW4 4103   0.673   3.110   1.871 -0.1942 -0.1447  0.0235
 1008SOL     OW 4104   0.442   3.212   1.995  0.2562  0.5307  0.6143
 1008SOL    HW2 4105   0.437   3.298   1.954 -1.4070 -0.2653 -0.9517
 1008SOL    HW3 4106   0.519   3.171   1.956  0.4812  0.9496  0.6208
 1008SOL    MW4 4107   0.451   3.218   1.985  0.0664  0.4811  0.4086
 1009SOL     OW 4108   0.412   3.454   1.875  0.5149 -0.4208 -0.2846
 1009SOL    HW2 4109   0.486   3.511   1.897  0.3430  0.0002 -0.7732
 1009SOL    HW3 4110   0.412   3.453   1.779 -1.2383  1.0631 -0.3239
 1009SOL    MW4 4111   0.422   3.462   1.865  0.2609 -0.1695 -0.3543
 1010SOL     OW 4112   0.635   3.622   1.967  0.4360 -0.0178  0.7147
 1010SOL    HW2 4113   0.711   3.577   1.930 -0.7462 -1.0365 -0.5776
 1010SOL    HW3 4114   0.654   3.715   1.958  1.6381 -0.2691  0.6501
 1010SOL    MW4 4115   0.647   3.628   1.961  0.4386 -0.1855  0.5357
 1011SOL     OW 4116   0.677   3.883   1.877  0.4426 -0.4261 -0.2855
 1011SOL    HW2 4117   0.752   3.934   1.909 -0.8658  0.6338  1.1019
 1011SOL    HW3 4118   0.688   3.882   1.782  2.2837 -0.3893 -0.0936
 1011SOL    MW4 4119   0.689   3.890   1.869  0.5130 -0.2813 -0.0771
 1012SOL     OW 4120   0.463   3.982   2.018  0.2007 -0.4685  0.1142
 1012SOL    HW2 4121   0.450   4.073   1.991  0.8116 -0.5388 -0.4122
 1012SOL    HW3 4122   0.535   3.950   1.964  0.0029 -1.2647  0.3058
 1012SOL    MW4 4123   0.471   3.990   2.007  0.2552 -0.5827  0.0699
 1013SOL     OW 4124   0.454   4.242   1.928  0.3433 -0.0450  0.1807
 1013SOL    HW2 4125   0.371   4.283   1.951 -0.5545 -2.1173  0.8285
 1013SOL    HW3 4126   0.452   4.235   1.832 -0.8036 -1.1943  0.2717
 1013SOL    MW4 4127   0.443   4.246   1.918  0.0735 -0.4697  0.2782
 1014SOL     OW 4128   0.671   4.403   1.983 -0.2392 -0.0249 -0.7549
 1014SOL    HW2 4129   0.752   4.362   1.951 -0.3662 -0.0207 -1.0891
 1014SOL    HW3 4130   0.601   4.351   1.944 -0.4049 -1.1397  0.9761
 1014SOL    MW4 4131   0.672   4.391   1.973 -0.2778 -0.1717 -0.5707
 1015SOL     OW 4132   1.146   4.598   1.883  0.3733 -0.6490  0.6503
 1015SOL    HW2 4133   1.216   4.651   1.920  0.6452 -0.1830 -0.4960
 1015SOL    HW3 4134   1.162   4.510   1.918  1.9264 -0.6938 -0.1017
 1015SOL    MW4 4135   1.158   4.594   1.892  0.6140 -0.5932  0.3998
 1016SOL     OW 4136   0.952   0.135   1.992 -0.1266 -0.3928 -0.5113
 1016SOL    HW2 4137   1.017   0.069   1.966  0.3624 -0.3487  0.6059
 1016SOL    HW3 4138   0.868   0.088   1.989 -0.2826 -0.0665 -3.4397
 1016SOL    MW4 4139   0.949   0.120   1.988 -0.0826 -0.3439 -0.7502
 1017SOL     OW 4140   0.916   0.399   1.856  0.3967 -0.1065 -0.1674
 1017SOL    HW2 4141   0.992   0.444   1.892  0.2841  0.5684 -0.7648
 1017SOL    HW3 4142   0.929   0.307   1.880  0.6148  0.2374  1.0695
 1017SOL    MW4 4143   0.928   0.392   1.864  0.4106  0.0280 -0.0831
 1018SOL     OW 4144   1.134   0.516   1.968 -0.2202  0.1685 -0.3048
 1018SOL    HW2 4145   1.206   0.471   1.924  0.9818  0.9945  0.7633
 1018SOL    HW3 4146   1.145   0.608   1.945  0.0333  0.5250  1.1502
 1018SOL    MW4 4147   1.145   0.522   1.959 -0.0280  0.3245  0.0283
 1019SOL     OW 4148   1.125   0.759   1.843  0.1842 -0.2765  0.4364
 1019SOL    HW2 4149   1.191   0.813   1.886  1.6084 -0.3672 -1.5956
 1019SOL    HW3 4150   1.041   0.801   1.865  0.9305  0.2356  2.4492
 1019SOL    MW4 4151   1.122   0.771   1.852  0.4708 -0.2209  0.4338
 1020SOL     OW 4152   0.881   0.862   1.950  0.3587 -0.4194  0.2031
 1020SOL    HW2 4153   0.896   0.869   2.044  1.9039  0.6657 -0.1009
 1020SOL    HW3 4154   0.892   0.952   1.917 -2.6857 -0.3131 -0.6844
 1020SOL    MW4 4155   0.884   0.875   1.958  0.1609 -0.2622  0.0458
 1021SOL     OW 4156   0.910   1.116   1.860 -0.3422  0.1362 -0.8396
 1021SOL    HW2 4157   0.838   1.175   1.884 -1.0139 -0.0475 -2.3872
 1021SOL    HW3 4158   0.913   1.119   1.765  0.8405 -0.9078 -0.8459
 1021SOL    MW4 4159   0.901   1.124   1.851 -0.2747 -0.0259 -1.0446
 1022SOL     OW 4160   1.123   1.229   2.007  0.2335  0.1538  0.3813
 1022SOL    HW2 4161   1.113   1.320   1.978 -2.7493 -0.2804 -0.0621
 1022SOL    HW3 4162   1.056   1.181   1.959  1.0318 -2.1142  1.4590
 1022SOL    MW4 4163   1.113   1.235   1.997 -0.0548 -0.2028  0.4650
 1023SOL     OW 4164   1.125   1.484   1.911 -0.0070 -0.7329 -0.3257
 1023SOL    HW2 4165   1.067   1.551   1.947 -0.2665 -1.1540  0.0481
 1023SOL    HW3 4166   1.133   1.506   1.818 -0.5497 -0.5190 -0.3226
 1023SOL    MW4 4167   1.118   1.495   1.904 -0.1128 -0.7602 -0.2760
 1024SOL     OW 4168   0.934   1.687   1.951  0.0331 -0.2776  0.4815
 1024SOL    HW2 4169   0.918   1.778   1.928  1.1735 -0.0383  0.5959
 1024SOL    HW3 4170   0.863   1.639   1.909  0.5213  0.4511 -1.2305
 1024SOL    MW4 4171   0.923   1.693   1.943  0.2480 -0.1500  0.2707
 1025SOL     OW 4172   0.902   1.940   1.894  0.1548 -0.6580  0.0341
 1025SOL    HW2 4173   0.817   1.971   1.926 -0.3147  0.9249 -2.6099
 1025SOL    HW3 4174   0.889   1.926   1.800  2.2097 -2.6026  0.0009
 1025SOL    MW4 4175   0.889   1.943   1.886  0.3639 -0.7057 -0.3191
 1026SOL     OW 4176   1.136   2.078   1.981 -0.5222  0.5722  0.3404
 1026SOL    HW2 4177   1.117   2.172   1.974 -1.2150  0.4926  1.1676
 1026SOL    HW3 4178   1.059   2.035   1.945  0.5764  0.3236 -1.8450
 1026SOL    MW4 4179   1.124   2.085   1.975 -0.4686  0.5291  0.1612
 1027SOL     OW 4180   1.119   2.343   1.912 -0.2539 -0.6743 -0.1782
 1027SOL    HW2 4181   1.201   2.390   1.930 -0.1974 -0.6677 -0.4513
 1027SOL    HW3 4182   1.114   2.339   1.817 -1.4317  0.8261 -0.1918
 1027SOL    MW4 4183   1.129   2.349   1.902 -0.4019 -0.4754 -0.2160
 1028SOL     OW 4184   0.893   2.465   1.983 -0.2656  0.1933  0.1747
 1028SOL    HW2 4185   0.983   2.431   1.985  0.0044  0.7969 -1.1531
 1028SOL    HW3 4186   0.839   2.390   1.961  0.0250  0.0142  0.0625
 1028SOL    MW4 4187   0.898   2.451   1.980 -0.1916  0.2494 -0.0154
 1029SOL     OW 4188   0.908   2.699   1.841 -0.3319  0.1978  0.0840
 1029SOL    HW2 4189   0.899   2.627   1.904 -1.8208  0.2449 -0.0508
 1029SOL    HW3 4190   0.843   2.763   1.870  1.6862  1.9616  0.8213
 1029SOL    MW4 4191   0.898   2.698   1.853 -0.2620  0.4368  0.1634
 1030SOL     OW 4192   1.134   2.837   1.978  0.1620 -0.5545 -0.0046
 1030SOL    HW2 4193   1.108   2.844   2.070 -0.9700  0.0071 -0.3516
 1030SOL    HW3 4194   1.068   2.779   1.940  0.3397 -0.3847 -0.5730
 1030SOL    MW4 4195   1.122   2.830   1.985  0.0362 -0.4580 -0.1253
 1031SOL     OW 4196   1.103   3.082   1.836 -0.0773  0.5899  0.1540
 1031SOL    HW2 4197   1.028   3.130   1.871  0.1125  0.7034  0.4096
 1031SOL    HW3 4198   1.098   2.996   1.878 -0.0843  0.5834  0.1402
 1031SOL    MW4 4199   1.092   3.077   1.846 -0.0533  0.6044  0.1858
 1032SOL     OW 4200   0.913   3.234   1.948 -0.5869  0.1167  0.1973
 1032SOL    HW2 4201   0.913   3.230   2.044  0.7578 -1.4951  0.1468
 1032SOL    HW3 4202   0.826   3.203   1.924 -0.7035 -0.1137  0.8875
 1032SOL    MW4 4203   0.901   3.229   1.958 -0.4247 -0.1264  0.2817
 1033SOL     OW 4204   0.832   3.477   1.840 -0.5564 -0.0562  0.1799
 1033SOL    HW2 4205   0.852   3.396   1.887 -0.3919  0.3272  0.7735
 1033SOL    HW3 4206   0.862   3.461   1.750 -1.1346 -0.8975  0.1332
 1033SOL    MW4 4207   0.839   3.464   1.834 -0.6110 -0.1166  0.2521
 1034SOL     OW 4208   1.080   3.608   1.959  0.2267 -0.4408  0.3611
 1034SOL    HW2 4209   1.077   3.613   2.054  0.4792  2.2987  0.2804
 1034SOL    HW3 4210   1.005   3.553   1.935 -0.3939 -0.3766  2.1162
 1034SOL    MW4 4211   1.070   3.602   1.968  0.1782 -0.0708  0.5820
 1035SOL     OW 4212   1.073   3.884   1.886 -0.5476 -0.2678  0.3822
 1035SOL    HW2 4213   1.060   3.791   1.904 -1.1298 -0.3994 -0.6709
 1035SOL    HW3 4214   1.102   3.887   1.795 -2.2306  0.6943 -0.1420
 1035SOL    MW4 4215   1.075   3.872   1.876 -0.8466 -0.1583  0.1742
 1036SOL     OW 4216   0.868   4.050   1.977  0.2576  0.1572 -0.0033
 1036SOL    HW2 4217   0.860   4.037   2.071 -0.3307  1.6756  0.1764
 1036SOL    HW3 4218   0.941   3.993   1.951  0.2250 -0.5030  1.3085
 1036SOL    MW4 4219   0.877   4.041   1.986  0.1758  0.2704  0.1936
 1037SOL     OW 4220   0.890   4.283   1.853 -0.3102  0.1543  0.3050
 1037SOL    HW2 4221   0.973   4.314   1.889  0.0174  0.0940 -0.3922
 1037SOL    HW3 4222   0.878   4.197   1.893 -0.1443  0.2568  0.5792
 1037SOL    MW4 4223   0.900   4.276   1.863 -0.2451  0.1597  0.2493
 1038SOL     OW 4224   1.133   4.337   2.016 -0.2019  0.4318 -0.1360
 1038SOL    HW2 4225   1.127   4.369   2.106  0.3771  0.9152 -0.2636
 1038SOL    HW3 4226   1.225   4.315   2.005 -0.3239  0.1156 -0.5228
 1038SOL    MW4 4227   1.144   4.339   2.027 -0.1416  0.4530 -0.2038
 1039SOL     OW 4228   1.590   4.662   1.871 -0.0794  0.0673  0.5081
 1039SOL    HW2 4229   1.662   4.713   1.907  0.1745 -0.3283  0.5750
 1039SOL    HW3 4230   1.615   4.571   1.887 -0.7306 -0.0683  0.7876
 1039SOL    MW4 4231   1.603   4.656   1.878 -0.1320 -0.0019  0.5537
 1040SOL     OW 4232   1.345   0.095   1.984 -0.2613 -0.2233 -0.0468
 1040SOL    HW2 4233   1.347   0.094   2.080 -0.5873 -0.4149 -0.0375
 1040SOL    HW3 4234   1.428   0.055   1.958  0.4239  1.0623  0.1392
 1040SOL    MW4 4235   1.356   0.089   1.993 -0.2140 -0.0790 -0.0210
 1041SOL     OW 4236   1.333   0.353   1.872 -0.4090  0.4606 -0.0640
 1041SOL    HW2 4237   1.346   0.268   1.916 -0.7842  0.6768  0.4665
 1041SOL    HW3 4238   1.296   0.330   1.787  0.1222  0.0489 -0.1887
 1041SOL    MW4 4239   1.330   0.339   1.867 -0.3886  0.4348 -0.0105
 1042SOL     OW 4240   1.553   0.496   1.967 -0.2577  0.2132 -0.0571
 1042SOL    HW2 4241   1.627   0.443   1.939  0.9612  1.6260  0.4407
 1042SOL    HW3 4242   1.476   0.446   1.939  0.8637 -1.3823 -0.3682
 1042SOL    MW4 4243   1.553   0.482   1.960  0.0510  0.1891 -0.0324
 1043SOL     OW 4244   1.589   0.764   1.872  0.2674  0.1869 -0.1298
 1043SOL    HW2 4245   1.662   0.791   1.927 -0.9707  0.3226  1.4590
 1043SOL    HW3 4246   1.572   0.673   1.896 -0.2119  0.2099 -0.3538
 1043SOL    MW4 4247   1.596   0.755   1.882  0.0407  0.2078  0.0502
 1044SOL     OW 4248   1.341   0.863   1.973  0.3158 -0.0021  0.2963
 1044SOL    HW2 4249   1.358   0.875   2.067 -0.1536  1.0200  0.2621
 1044SOL    HW3 4250   1.412   0.807   1.942 -0.9040 -2.5037  1.7777
 1044SOL    MW4 4251   1.353   0.857   1.982  0.0931 -0.1973  0.4873
 1045SOL     OW 4252   1.361   1.135   1.890  0.0872 -0.8470 -0.5160
 1045SOL    HW2 4253   1.353   1.047   1.927  0.6215 -1.2121 -1.2416
 1045SOL    HW3 4254   1.286   1.183   1.924 -0.7142 -1.8542 -0.8363
 1045SOL    MW4 4255   1.350   1.130   1.899  0.0519 -1.0281 -0.6541
 1046SOL     OW 4256   1.563   1.292   2.007  0.6063 -0.5047 -0.3166
 1046SOL    HW2 4257   1.571   1.382   1.975  0.5884 -0.2584  0.3545
 1046SOL    HW3 4258   1.490   1.255   1.958  0.3554 -0.0273 -0.3070
 1046SOL    MW4 4259   1.555   1.299   1.996  0.5708 -0.4094 -0.2269
 1047SOL     OW 4260   1.582   1.541   1.904 -0.1513 -0.2925  0.4634
 1047SOL    HW2 4261   1.653   1.600   1.929  0.4438  0.4712 -2.8377
 1047SOL    HW3 4262   1.502   1.586   1.931  0.3914  1.1979 -0.4056
 1047SOL    MW4 4263   1.581   1.555   1.911 -0.0013  0.0050 -0.0868
 1048SOL     OW 4264   1.350   1.663   1.993 -0.3308  0.3950 -0.1349
 1048SOL    HW2 4265   1.350   1.674   2.088 -0.9502  0.9200 -0.1960
 1048SOL    HW3 4266   1.291   1.589   1.978  0.9269 -0.6626 -0.0083
 1048SOL    MW4 4267   1.342   1.654   2.004 -0.2466  0.3247 -0.1264
 1049SOL     OW 4268   1.352   1.927   1.918 -0.1602  0.2874  0.3046
 1049SOL    HW2 4269   1.356   1.840   1.958  1.3887 -0.0292 -0.4894
 1049SOL    HW3 4270   1.284   1.973   1.967 -1.8960 -1.7800 -0.1125
 1049SOL    MW4 4271   1.344   1.921   1.930 -0.1848 -0.0272  0.1450
 1050SOL     OW 4272   1.577   2.064   1.979  0.4559 -0.1788 -0.2302
 1050SOL    HW2 4273   1.565   2.150   1.937 -0.0687 -0.0695  0.1418
 1050SOL    HW3 4274   1.501   2.013   1.952  1.5865 -1.0930 -1.8079
 1050SOL    MW4 4275   1.565   2.069   1.970  0.5358 -0.2849 -0.3892
 1051SOL     OW 4276   1.561   2.335   1.886 -0.1650 -0.1085  0.7299
 1051SOL    HW2 4277   1.633   2.392   1.912  0.4197 -0.3234 -0.3680
 1051SOL    HW3 4278   1.566   2.333   1.790 -0.9102 -1.0584  0.7046
 1051SOL    MW4 4279   1.571   2.342   1.877 -0.1862 -0.2620  0.5817
 1052SOL     OW 4280   1.352   2.486   1.977  0.2039 -0.1255  0.3932
 1052SOL    HW2 4281   1.360   2.570   1.933  1.6300  0.8227  2.3972
 1052SOL    HW3 4282   1.422   2.433   1.940 -0.3783 -0.2724 -0.5069
 1052SOL    MW4 4283   1.362   2.490   1.966  0.3152 -0.0198  0.5389
 1053SOL     OW 4284   1.377   2.743   1.856  0.4627 -0.0860 -0.1093
 1053SOL    HW2 4285   1.301   2.774   1.905  1.4067 -0.4320  1.6248
 1053SOL    HW3 4286   1.345   2.727   1.767 -1.0214  1.6650  0.1020
 1053SOL    MW4 4287   1.363   2.745   1.851  0.3914  0.0997  0.1473
 1054SOL     OW 4288   1.600   2.903   1.937  0.4234 -0.1275 -0.0792
 1054SOL    HW2 4289   1.670   2.856   1.891  0.4264 -0.1628 -0.0390
 1054SOL    HW3 4290   1.522   2.848   1.925 -0.2744  1.3759 -2.6286
 1054SOL    MW4 4291   1.599   2.889   1.930  0.3318  0.0660 -0.4102
 1055SOL     OW 4292   1.559   3.139   1.816 -0.0764  0.6614 -0.6124
 1055SOL    HW2 4293   1.571   3.057   1.864  1.2163  0.9738 -0.3900
 1055SOL    HW3 4294   1.567   3.113   1.724 -0.1316  0.4686 -0.5650
 1055SOL    MW4 4295   1.561   3.124   1.810  0.0869  0.6771 -0.5767
 1056SOL     OW 4296   1.313   3.242   1.934  0.3574  0.1503 -0.4422
 1056SOL    HW2 4297   1.390   3.203   1.891  0.5413 -0.0400  0.0618
 1056SOL    HW3 4298   1.245   3.175   1.926  0.0553  0.5703 -1.4509
 1056SOL    MW4 4299   1.314   3.228   1.927  0.3418  0.1805 -0.5088
 1057SOL     OW 4300   1.291   3.493   1.833 -0.4374 -0.5726 -0.1259
 1057SOL    HW2 4301   1.284   3.410   1.880 -2.1248 -0.8410 -0.8268
 1057SOL    HW3 4302   1.221   3.547   1.870 -0.0014  0.1845 -0.3949
 1057SOL    MW4 4303   1.281   3.489   1.844 -0.6024 -0.5083 -0.2538
 1058SOL     OW 4304   1.527   3.602   1.957 -0.5368  0.1738  0.0646
 1058SOL    HW2 4305   1.530   3.614   2.052  1.2977 -1.3475  0.2356
 1058SOL    HW3 4306   1.440   3.565   1.940 -0.3799 -0.8175  1.3314
 1058SOL    MW4 4307   1.516   3.599   1.967 -0.2741 -0.1576  0.2544
 1059SOL     OW 4308   1.549   3.868   1.868  0.0195 -0.2082  0.0071
 1059SOL    HW2 4309   1.632   3.902   1.902 -0.7569  0.8089  0.9447
 1059SOL    HW3 4310   1.551   3.775   1.888  1.4401 -0.4253 -1.0471
 1059SOL    MW4 4311   1.560   3.860   1.875  0.1044 -0.1030 -0.0082
 1060SOL     OW 4312   1.339   4.000   1.998 -0.2671  0.3930 -0.2668
 1060SOL    HW2 4313   1.411   3.947   1.963  0.8231  1.4035  0.4059
 1060SOL    HW3 4314   1.260   3.954   1.970  0.6305 -0.5865 -1.2569
 1060SOL    MW4 4315   1.338   3.987   1.989 -0.0049  0.3974 -0.3088
 1061SOL     OW 4316   1.380   4.268   1.885 -0.3815  0.4484 -0.1390
 1061SOL    HW2 4317   1.353   4.178   1.900 -0.0260  0.3065 -0.3525
 1061SOL    HW3 4318   1.346   4.290   1.799 -0.4245  0.5030 -0.1086
 1061SOL    MW4 4319   1.372   4.259   1.876 -0.3402  0.4368 -0.1633
 1062SOL     OW 4320   1.615   4.400   1.968 -0.0234  0.2422 -0.2176
 1062SOL    HW2 4321   1.606   4.413   2.062  0.5249  0.5835 -0.2185
 1062SOL    HW3 4322   1.530   4.362   1.942 -0.6940  1.4592  0.1717
 1062SOL    MW4 4323   1.602   4.396   1.977 -0.0396  0.4473 -0.1663
 1063SOL     OW 4324   2.017   4.654   1.865  0.4078 -0.1346 -0.0245
 1063SOL    HW2 4325   2.096   4.692   1.905  0.0426  0.0048  0.5784
 1063SOL    HW3 4326   2.010   4.567   1.903  0.1143 -0.0396  0.1450
 1063SOL    MW4 4327   2.027   4.648   1.875  0.3207 -0.1035  0.0774
 1064SOL     OW 4328   1.818   0.130   1.969  0.0877  0.0721 -0.0090
 1064SOL    HW2 4329   1.816   0.114   2.063 -1.6334 -1.0344 -0.2197
 1064SOL    HW3 4330   1.890   0.076   1.937  1.6395  1.5849  0.8550
 1064SOL    MW4 4331   1.827   0.121   1.977  0.0654  0.1257  0.0771
 1065SOL     OW 4332   1.783   0.388   1.881 -0.3998 -0.5160  0.0523
 1065SOL    HW2 4333   1.807   0.302   1.916 -0.6045 -0.2310  0.9208
 1065SOL    HW3 4334   1.781   0.376   1.786  1.6036 -0.9500  0.0387
 1065SOL    MW4 4335   1.786   0.375   1.873 -0.1624 -0.5356  0.1651
 1066SOL     OW 4336   2.005   0.545   1.981 -0.1037  0.4830  0.1789
 1066SOL    HW2 4337   2.037   0.629   1.948 -0.8872  0.8324  0.3051
 1066SOL    HW3 4338   1.924   0.529   1.931 -0.1238 -0.0397  0.3792
 1066SOL    MW4 4339   1.998   0.554   1.970 -0.2096  0.4601  0.2220
 1067SOL     OW 4340   2.060   0.775   1.850 -0.2616 -0.1697 -0.3276
 1067SOL    HW2 4341   2.149   0.806   1.865 -0.4560 -0.2506  1.0174
 1067SOL    HW3 4342   2.058   0.754   1.756  1.1972 -0.4060 -0.3217
 1067SOL    MW4 4343   2.071   0.777   1.840 -0.0949 -0.2115 -0.1494
 1068SOL     OW 4344   1.827   0.871   1.998  0.0692  0.1269 -0.1480
 1068SOL    HW2 4345   1.811   0.955   1.955  1.7271  1.6445  2.0892
 1068SOL    HW3 4346   1.908   0.838   1.959 -0.1420 -0.0526 -0.4398
 1068SOL    MW4 4347   1.835   0.878   1.987  0.2601  0.3034  0.1087
 1069SOL     OW 4348   1.790   1.130   1.921 -0.6815 -0.0336 -0.0400
 1069SOL    HW2 4349   1.715   1.178   1.956 -1.4329 -0.9666 -0.3474
 1069SOL    HW3 4350   1.784   1.141   1.826 -0.5662 -0.2998 -0.0805
 1069SOL    MW4 4351   1.779   1.138   1.913 -0.7652 -0.1918 -0.0859
 1070SOL     OW 4352   2.000   1.301   1.967  0.1267  0.3093 -0.1166
 1070SOL    HW2 4353   2.072   1.247   1.935 -0.2770  0.3996 -1.2060
 1070SOL    HW3 4354   1.926   1.240   1.972 -0.0167  0.4838 -0.1284
 1070SOL    MW4 4355   1.999   1.285   1.964  0.0546  0.3443 -0.2618
 1071SOL     OW 4356   1.986   1.566   1.861 -0.7180  0.0060  0.4325
 1071SOL    HW2 4357   1.983   1.482   1.906  0.1902  0.3573  1.1513
 1071SOL    HW3 4358   2.003   1.544   1.769  0.3009 -0.5431  0.7524
 1071SOL    MW4 4359   1.988   1.552   1.855 -0.4637 -0.0201  0.5696
 1072SOL     OW 4360   1.776   1.709   1.976  0.2132  0.4218  0.4970
 1072SOL    HW2 4361   1.778   1.795   1.933  1.9213  0.5041  0.6922
 1072SOL    HW3 4362   1.851   1.663   1.938 -0.4597 -0.8409  0.6910
 1072SOL    MW4 4363   1.786   1.714   1.965  0.3499  0.2661  0.5485
 1073SOL     OW 4364   1.786   1.952   1.851  0.2383  0.1878 -0.1290
 1073SOL    HW2 4365   1.719   2.015   1.877 -0.4995 -0.5609 -0.1722
 1073SOL    HW3 4366   1.791   1.959   1.756 -1.9555 -1.8712 -0.4350
 1073SOL    MW4 4367   1.778   1.961   1.842 -0.1484 -0.1826 -0.1750
 1074SOL     OW 4368   2.017   2.057   1.963 -0.0976 -0.3188 -0.3601
 1074SOL    HW2 4369   2.083   2.023   1.904 -0.7545  0.4392 -1.5701
 1074SOL    HW3 4370   1.934   2.039   1.918 -0.6299 -0.1437  0.5469
 1074SOL    MW4 4371   2.014   2.050   1.949 -0.2546 -0.1957 -0.4001
 1075SOL     OW 4372   2.035   2.355   1.871  0.6931  0.5665  0.2993
 1075SOL    HW2 4373   2.115   2.396   1.902  0.2433  1.1616  0.6989
 1075SOL    HW3 4374   2.018   2.284   1.933  0.8003  0.5690  0.3310
 1075SOL    MW4 4375   2.043   2.351   1.883  0.6478  0.6452  0.3562
 1076SOL     OW 4376   1.786   2.489   1.938 -0.0445 -0.6026 -0.3806
 1076SOL    HW2 4377   1.809   2.496   2.031 -0.3262 -2.9022 -0.0956
 1076SOL    HW3 4378   1.862   2.447   1.898 -0.4979 -0.9225 -0.9136
 1076SOL    MW4 4379   1.799   2.484   1.945 -0.1415 -0.9482 -0.4133
 1077SOL     OW 4380   1.792   2.743   1.816 -0.3032  0.2557 -0.0433
 1077SOL    HW2 4381   1.768   2.657   1.851  0.9411 -0.1184 -0.0815
 1077SOL    HW3 4382   1.806   2.728   1.723  3.4948 -0.3059  0.5611
 1077SOL    MW4 4383   1.790   2.730   1.808  0.3619  0.1323  0.0315
 1078SOL     OW 4384   2.005   2.852   1.972 -0.5355  0.2762  0.1689
 1078SOL    HW2 4385   1.991   2.842   2.066 -2.1846 -1.6698 -0.2512
 1078SOL    HW3 4386   1.929   2.809   1.932  0.7929 -0.0229 -2.0744
 1078SOL    MW4 4387   1.993   2.845   1.979 -0.5778 -0.0198 -0.1825
 1079SOL     OW 4388   2.006   3.082   1.815  0.0794 -0.5952  0.2825
 1079SOL    HW2 4389   1.942   3.139   1.857 -1.1264 -0.8568 -1.1443
 1079SOL    HW3 4390   1.996   2.997   1.859  0.9926 -0.0614  1.5437
 1079SOL    MW4 4391   1.997   3.078   1.826  0.0411 -0.5593  0.2607
 1080SOL     OW 4392   1.809   3.229   1.926 -0.4267  0.4812 -0.3842
 1080SOL    HW2 4393   1.797   3.215   2.020 -1.5679  1.2348 -0.3957
 1080SOL    HW3 4394   1.727   3.200   1.887  0.4853 -0.9400 -1.2896
 1080SOL    MW4 4395   1.797   3.224   1.933 -0.4568  0.3929 -0.5050
 1081SOL     OW 4396   1.775   3.495   1.844  0.0056 -0.0762 -0.0060
 1081SOL    HW2 4397   1.794   3.401   1.851  1.2427  0.2620  1.2933
 1081SOL    HW3 4398   1.702   3.509   1.903  0.1783 -0.1203  0.2188
 1081SOL    MW4 4399   1.768   3.484   1.852  0.1917 -0.0374  0.1950
 1082SOL     OW 4400   1.983   3.621   1.963  0.3869  0.2491 -0.6300
 1082SOL    HW2 4401   1.994   3.696   1.905  0.4585 -0.7975 -2.0076
 1082SOL    HW3 4402   1.904   3.578   1.930  0.7429 -0.6619 -0.3019
 1082SOL    MW4 4403   1.974   3.625   1.951  0.4433 -0.0093 -0.7687
 1083SOL     OW 4404   2.008   3.868   1.836 -0.3811 -0.4969  0.6208
 1083SOL    HW2 4405   2.081   3.924   1.865  0.3686 -0.8715 -0.5164
 1083SOL    HW3 4406   2.016   3.866   1.741 -0.1888 -2.8330  0.6653
 1083SOL    MW4 4407   2.019   3.875   1.827 -0.2568 -0.8547  0.4767
 1084SOL     OW 4408   1.786   3.973   1.979  0.2772  0.2973 -0.3626
 1084SOL    HW2 4409   1.790   4.064   1.948  0.8924  0.0620 -0.9997
 1084SOL    HW3 4410   1.865   3.933   1.943  0.3923 -0.2952  0.5431
 1084SOL    MW4 4411   1.797   3.980   1.970  0.3737  0.1879 -0.3271
 1085SOL     OW 4412   1.794   4.230   1.874 -0.3681  0.0938 -0.4132
 1085SOL    HW2 4413   1.724   4.287   1.907  0.4148  0.5318  0.5066
 1085SOL    HW3 4414   1.792   4.244   1.779 -1.0937  0.6095 -0.3316
 1085SOL    MW4 4415   1.784   4.240   1.866 -0.3605  0.2193 -0.2811
 1086SOL     OW 4416   1.990   4.391   1.980 -0.6422 -0.0559  0.4031
 1086SOL    HW2 4417   2.071   4.359   1.940 -1.0501  0.0827 -0.5417
 1086SOL    HW3 4418   1.921   4.356   1.925 -1.3250 -1.5371  2.1420
 1086SOL    MW4 4419   1.992   4.382   1.967 -0.7861 -0.2332  0.5078
 1087SOL     OW 4420   2.462   0.012   1.853 -0.6862 -0.2564 -0.1188
 1087SOL    HW2 4421   2.542   0.054   1.887 -0.4887 -0.1985 -0.6619
 1087SOL    HW3 4422   2.456  -0.070   1.901 -1.0032  0.3271  0.8657
 1087SOL    MW4 4423   2.472   0.007   1.864 -0.7019 -0.1718 -0.0606
 1088SOL     OW 4424   2.244   0.107   1.986 -0.4092 -0.5708  0.0457
 1088SOL    HW2 4425   2.260   0.120   2.079  0.2839 -1.3960  0.0565
 1088SOL    HW3 4426   2.332   0.095   1.949 -0.6071  0.7366 -0.8726
 1088SOL    MW4 4427   2.258   0.107   1.993 -0.3440 -0.5072 -0.0740
 1089SOL     OW 4428   2.193   0.358   1.878  0.0270  0.0358 -0.2250
 1089SOL    HW2 4429   2.198   0.272   1.920  0.2684  0.1973  0.0697
 1089SOL    HW3 4430   2.117   0.400   1.919 -1.9258 -1.1732 -2.4450
 1089SOL    MW4 4431   2.183   0.352   1.889 -0.1986 -0.1024 -0.4790
 1090SOL     OW 4432   2.426   0.469   1.970  0.1788 -0.1098  0.1179
 1090SOL    HW2 4433   2.496   0.409   1.940  1.3212  2.3481 -2.3656
 1090SOL    HW3 4434   2.346   0.432   1.933  0.8479 -0.2602 -1.2268
 1090SOL    MW4 4435   2.425   0.456   1.961  0.4177  0.1946 -0.3873
 1091SOL     OW 4436   2.513   0.717   1.885  0.5344 -0.2851  0.2180
 1091SOL    HW2 4437   2.498   0.626   1.913 -0.1162  0.0017  0.8040
 1091SOL    HW3 4438   2.497   0.716   1.791 -1.8716 -0.2655  0.6099
 1091SOL    MW4 4439   2.509   0.705   1.876  0.1311 -0.2448  0.3470
 1092SOL     OW 4440   2.289   0.876   1.953 -0.2610 -0.3803  0.4609
 1092SOL    HW2 4441   2.270   0.863   2.046 -0.9624  0.1385  0.3896
 1092SOL    HW3 4442   2.365   0.820   1.936  1.2745  1.2275  1.8572
 1092SOL    MW4 4443   2.296   0.867   1.963 -0.1509 -0.0997  0.6357
 1093SOL     OW 4444   2.200   1.138   1.886 -0.3190  0.0273  0.0149
 1093SOL    HW2 4445   2.286   1.177   1.904 -0.2387 -0.1190 -0.0534
 1093SOL    HW3 4446   2.215   1.044   1.886 -0.5499 -0.0126  0.3541
 1093SOL    MW4 4447   2.213   1.131   1.888 -0.3388  0.0026  0.0508
 1094SOL     OW 4448   2.454   1.252   1.953 -0.3556 -0.1995 -0.0457
 1094SOL    HW2 4449   2.455   1.268   2.047 -1.3722  0.8556 -0.2003
 1094SOL    HW3 4450   2.444   1.339   1.914 -2.2596 -0.8350 -1.0510
 1094SOL    MW4 4451   2.453   1.266   1.960 -0.7410 -0.1441 -0.1986
 1095SOL     OW 4452   2.448   1.512   1.833 -0.2255 -0.3897 -0.0176
 1095SOL    HW2 4453   2.381   1.580   1.842 -0.8705 -0.9313 -0.6442
 1095SOL    HW3 4454   2.478   1.521   1.743  1.7792  0.9631  0.7430
 1095SOL    MW4 4455   2.443   1.522   1.822 -0.0460 -0.2824  0.0000
 1096SOL     OW 4456   2.238   1.695   1.910  0.1094 -0.2086  0.0373
 1096SOL    HW2 4457   2.251   1.700   2.004 -0.4664 -2.2160  0.2480
 1096SOL    HW3 4458   2.145   1.674   1.899  0.0738  0.4557 -0.9934
 1096SOL    MW4 4459   2.228   1.693   1.921  0.0286 -0.3858 -0.0709
 1097SOL     OW 4460   2.229   1.954   1.810  0.0357 -0.8025 -0.6651
 1097SOL    HW2 4461   2.302   1.995   1.855  0.2776 -1.1469 -0.7418
 1097SOL    HW3 4462   2.221   1.867   1.850 -0.9035 -0.4352 -0.0322
 1097SOL    MW4 4463   2.237   1.948   1.821 -0.0565 -0.7993 -0.5918
 1098SOL     OW 4464   2.440   2.075   1.928  0.6762 -0.1261  0.6396
 1098SOL    HW2 4465   2.515   2.028   1.891 -0.0690 -0.3047 -0.6636
 1098SOL    HW3 4466   2.455   2.167   1.903  1.0593  0.0326  1.4096
 1098SOL    MW4 4467   2.452   2.081   1.920  0.6285 -0.1285  0.5693
 1099SOL     OW 4468   2.469   2.336   1.866 -0.0580 -0.1053 -0.1961
 1099SOL    HW2 4469   2.552   2.351   1.911 -0.5869 -0.5015  0.9391
 1099SOL    HW3 4470   2.405   2.386   1.917 -0.8183 -1.2828  0.0205
 1099SOL    MW4 4471   2.471   2.345   1.879 -0.2282 -0.3130 -0.0175
 1100SOL     OW 4472   2.261   2.461   1.989  0.4875  0.5778 -0.4533
 1100SOL    HW2 4473   2.246   2.456   2.084 -0.5729  1.2812 -0.5838
 1100SOL    HW3 4474   2.251   2.554   1.968  0.6481  0.4138 -1.2746
 1100SOL    MW4 4475   2.258   2.473   1.999  0.3686  0.6492 -0.5788
 1101SOL     OW 4476   2.228   2.719   1.872  0.1291 -0.2082  0.0671
 1101SOL    HW2 4477   2.150   2.764   1.905 -0.8697 -1.6002 -0.3672
 1101SOL    HW3 4478   2.227   2.736   1.778  0.5913  0.1392  0.1257
 1101SOL    MW4 4479   2.217   2.727   1.864  0.0584 -0.3462  0.0176
 1102SOL     OW 4480   2.481   2.796   1.959  0.5680 -0.4718  0.1125
 1102SOL    HW2 4481   2.480   2.889   1.936 -1.2808 -0.1509  1.3611
 1102SOL    HW3 4482   2.393   2.766   1.936  0.6854 -1.5727  1.1097
 1102SOL    MW4 4483   2.469   2.805   1.953  0.3397 -0.5746  0.4088
 1103SOL     OW 4484   2.471   3.057   1.899  0.0003 -0.1135 -0.2105
 1103SOL    HW2 4485   2.410   3.129   1.915  0.8096  0.4348  0.4496
 1103SOL    HW3 4486   2.558   3.096   1.911  0.4422 -1.2238  0.2523
 1103SOL    MW4 4487   2.475   3.072   1.903  0.1655 -0.1876 -0.0623
 1104SOL     OW 4488   2.230   3.236   1.899  0.1074 -0.2131 -0.1231
 1104SOL    HW2 4489   2.225   3.217   1.993 -2.0407  0.8845  0.0043
 1104SOL    HW3 4490   2.164   3.179   1.860  0.1765  0.1936 -0.8348
 1104SOL    MW4 4491   2.220   3.226   1.906 -0.1669 -0.0145 -0.2000
 1105SOL     OW 4492   2.207   3.506   1.867  0.3104 -0.3273  0.0690
 1105SOL    HW2 4493   2.203   3.413   1.888 -0.3607 -0.5514 -0.9994
 1105SOL    HW3 4494   2.137   3.546   1.919 -2.7876 -1.1961 -3.2487
 1105SOL    MW4 4495   2.198   3.499   1.877 -0.1867 -0.4714 -0.5097
 1106SOL     OW 4496   2.435   3.608   1.994 -0.3611 -0.2821  0.2701
 1106SOL    HW2 4497   2.448   3.598   2.088  0.0682 -0.2672  0.2166
 1106SOL    HW3 4498   2.347   3.576   1.978 -0.3176 -0.5825  0.6295
 1106SOL    MW4 4499   2.425   3.603   2.004 -0.2987 -0.3197  0.3104
 1107SOL     OW 4500   2.523   3.874   1.907 -0.2535 -0.1588  0.3643
 1107SOL    HW2 4501   2.438   3.917   1.908 -0.2339 -0.1190  1.5184
 1107SOL    HW3 4502   2.511   3.795   1.961  0.5689  0.1302  0.9967
 1107SOL    MW4 4503   2.510   3.869   1.914 -0.1426 -0.1156  0.6000
 1108SOL     OW 4504   2.265   4.009   1.917 -0.2486  0.2356  0.1555
 1108SOL    HW2 4505   2.274   4.024   2.012  0.0478  0.6485  0.0657
 1108SOL    HW3 4506   2.249   4.096   1.881 -0.8636  0.0071 -0.1168
 1108SOL    MW4 4507   2.264   4.023   1.925 -0.2909  0.2599  0.1076
 1109SOL     OW 4508   2.212   4.278   1.857 -0.8118 -0.4153  0.1749
 1109SOL    HW2 4509   2.287   4.330   1.884 -0.0662 -1.4407  0.1300
 1109SOL    HW3 4510   2.205   4.294   1.763 -1.4801  0.7219  0.4120
 1109SOL    MW4 4511   2.221   4.287   1.849 -0.8016 -0.4005  0.2002
 1110SOL     OW 4512   2.442   4.406   1.953  0.3097 -0.1773 -0.2764
 1110SOL    HW2 4513   2.451   4.427   2.046  0.1226  0.5419 -0.4236
 1110SOL    HW3 4514   2.515   4.346   1.935 -0.0132 -0.8067  0.4757
 1110SOL    MW4 4515   2.453   4.401   1.963  0.2422 -0.1655 -0.1966
 1111SOL     OW 4516   2.944   4.610   1.861 -0.2267  0.2738  0.1202
 1111SOL    HW2 4517   3.018   4.649   1.906 -0.5004  1.4202 -0.4103
 1111SOL    HW3 4518   2.934   4.523   1.901  2.1340 -0.3709 -0.6412
 1111SOL    MW4 4519   2.952   4.603   1.873  0.0486  0.3395 -0.0503
 1112SOL     OW 4520   2.712   0.079   1.971 -0.1444 -0.0438 -0.2911
 1112SOL    HW2 4521   2.710   0.082   2.067 -0.2499  0.7418 -0.3078
 1112SOL    HW3 4522   2.788   0.026   1.950  0.0484  0.0225  0.2327
 1112SOL    MW4 4523   2.722   0.073   1.981 -0.1330  0.0686 -0.2241
 1113SOL     OW 4524   2.669   0.341   1.920 -0.2541  0.3146 -0.4430
 1113SOL    HW2 4525   2.756   0.378   1.933  0.7139 -1.3627 -1.8991
 1113SOL    HW3 4526   2.673   0.255   1.961 -1.3278  0.3303 -0.2794
 1113SOL    MW4 4527   2.681   0.335   1.927 -0.2677  0.0953 -0.6136
 1114SOL     OW 4528   2.904   0.467   1.999  0.3631 -0.2218  0.5307
 1114SOL    HW2 4529   2.979   0.415   1.971  0.3054 -0.4126  0.7263
 1114SOL    HW3 4530   2.918   0.553   1.960 -0.4447 -0.8845 -1.2809
 1114SOL    MW4 4531   2.916   0.472   1.990  0.2489 -0.3344  0.3176
 1115SOL     OW 4532   2.948   0.725   1.881  0.1060  0.1705 -0.1422
 1115SOL    HW2 4533   3.027   0.762   1.920  0.2655  0.9492 -1.1860
 1115SOL    HW3 4534   2.880   0.790   1.899 -0.3192 -0.5323  0.8175
 1115SOL    MW4 4535   2.950   0.738   1.888  0.0708  0.1805 -0.1533
 1116SOL     OW 4536   2.733   0.877   1.993  0.7852  0.2218  0.2931
 1116SOL    HW2 4537   2.705   0.964   1.965  1.9609  0.1965 -1.0130
 1116SOL    HW3 4538   2.655   0.822   1.983  0.1431  1.0338  0.7712
 1116SOL    MW4 4539   2.719   0.881   1.988  0.8557  0.3256  0.1838
 1117SOL     OW 4540   2.685   1.130   1.884 -0.1872 -0.1784 -0.3789
 1117SOL    HW2 4541   2.604   1.173   1.911  0.1478  1.0956 -1.3416
 1117SOL    HW3 4542   2.687   1.141   1.789  0.1373 -1.9389 -0.5883
 1117SOL    MW4 4543   2.674   1.137   1.875 -0.1004 -0.2425 -0.5336
 1118SOL     OW 4544   2.922   1.301   1.941 -0.2492  0.7951 -0.0458
 1118SOL    HW2 4545   2.914   1.389   1.905 -0.9805  1.2777  1.2480
 1118SOL    HW3 4546   2.835   1.264   1.934 -0.3236  0.7797  0.9156
 1118SOL    MW4 4547   2.910   1.308   1.936 -0.3555  0.8569  0.2518
 1119SOL     OW 4548   2.910   1.555   1.846 -0.1778 -0.1059 -0.0461
 1119SOL    HW2 4549   2.985   1.598   1.886  1.1972 -1.2027 -1.3589
 1119SOL    HW3 4550   2.917   1.576   1.753 -0.8960 -1.0835 -0.3376
 1119SOL    MW4 4551   2.921   1.563   1.839 -0.0911 -0.3796 -0.2578
 1120SOL     OW 4552   2.663   1.652   1.928 -0.1797 -0.5002 -0.3105
 1120SOL    HW2 4553   2.740   1.621   1.882 -1.1393 -0.1395 -2.2113
 1120SOL    HW3 4554   2.591   1.597   1.895 -0.7856 -0.7392  1.3155
 1120SOL    MW4 4555   2.664   1.641   1.918 -0.3862 -0.4842 -0.3469
 1121SOL     OW 4556   2.679   1.918   1.862  0.0140  0.1296  0.2121
 1121SOL    HW2 4557   2.765   1.956   1.879  0.1931 -0.0486 -0.2892
 1121SOL    HW3 4558   2.681   1.832   1.904 -0.4722  0.7555  1.5488
 1121SOL    MW4 4559   2.691   1.912   1.870 -0.0265  0.1887  0.3222
 1122SOL     OW 4560   2.891   2.064   1.988 -0.2916 -0.2038 -0.3337
 1122SOL    HW2 4561   2.877   2.065   2.083  0.1220  1.5131 -0.2680
 1122SOL    HW3 4562   2.968   2.009   1.976 -0.8263 -1.0947  0.2468
 1122SOL    MW4 4563   2.900   2.057   1.999 -0.3078 -0.0949 -0.2483
 1123SOL     OW 4564   2.923   2.280   1.813 -0.2162 -0.1638  0.1763
 1123SOL    HW2 4565   3.001   2.327   1.844 -0.8887  0.2878  1.2193
 1123SOL    HW3 4566   2.912   2.208   1.875 -0.4955 -0.3632 -0.1021
 1123SOL    MW4 4567   2.932   2.276   1.825 -0.3414 -0.1307  0.2772
 1124SOL     OW 4568   2.723   2.403   1.955 -0.4608 -0.6647 -0.5448
 1124SOL    HW2 4569   2.714   2.491   1.918  0.2957 -1.0044 -1.5473
 1124SOL    HW3 4570   2.796   2.364   1.907  0.6100 -1.0777  1.3650
 1124SOL    MW4 4571   2.732   2.410   1.944 -0.2196 -0.7639 -0.4251
 1125SOL     OW 4572   2.724   2.670   1.850  0.0551 -0.2016 -0.0242
 1125SOL    HW2 4573   2.648   2.712   1.891 -0.4844 -0.4330 -0.7814
 1125SOL    HW3 4574   2.702   2.668   1.757  0.7066 -0.8769 -0.1596
 1125SOL    MW4 4575   2.711   2.675   1.843  0.0699 -0.3214 -0.1420
 1126SOL     OW 4576   2.940   2.799   1.991 -0.2480  0.1947  0.4294
 1126SOL    HW2 4577   2.947   2.878   1.937  0.4582 -0.3102 -0.2349
 1126SOL    HW3 4578   2.865   2.752   1.956 -0.3716  0.3323  0.5094
 1126SOL    MW4 4579   2.931   2.803   1.979 -0.1709  0.1464  0.3521
 1127SOL     OW 4580   2.944   3.064   1.873  0.3997 -0.1880 -0.2872
 1127SOL    HW2 4581   3.009   3.103   1.932  0.5543  0.0848 -0.6397
 1127SOL    HW3 4582   2.860   3.100   1.903  0.4114 -0.5027  0.1371
 1127SOL    MW4 4583   2.941   3.074   1.885  0.4213 -0.1934 -0.2776
 1128SOL     OW 4584   2.716   3.207   1.948  0.6655 -0.1437 -0.0907
 1128SOL    HW2 4585   2.676   3.291   1.925  1.3539 -0.0718 -1.0733
 1128SOL    HW3 4586   2.716   3.205   2.044 -0.4263  0.4530 -0.0745
 1128SOL    MW4 4587   2.710   3.218   1.958  0.6123 -0.0556 -0.2182
 1129SOL     OW 4588   2.617   3.451   1.858 -0.2259 -0.0753 -0.4841
 1129SOL    HW2 4589   2.699   3.481   1.898 -0.2328 -0.5092 -0.1431
 1129SOL    HW3 4590   2.549   3.504   1.900 -0.0342  0.9826 -1.4806
 1129SOL    MW4 4591   2.619   3.462   1.869 -0.2015  0.0069 -0.5707
 1130SOL     OW 4592   2.863   3.552   1.949  0.3119 -0.0316  0.5821
 1130SOL    HW2 4593   2.870   3.581   2.040  1.4544 -0.0268  0.5012
 1130SOL    HW3 4594   2.946   3.508   1.931 -0.3894 -1.0963 -0.0930
 1130SOL    MW4 4595   2.875   3.550   1.958  0.3703 -0.1714  0.4823
 1131SOL     OW 4596   2.925   3.816   1.892  0.1271  0.1855  0.1846
 1131SOL    HW2 4597   2.877   3.737   1.919 -0.2990  0.6643  0.8324
 1131SOL    HW3 4598   2.912   3.820   1.797  0.9958 -1.0834 -0.0049
 1131SOL    MW4 4599   2.917   3.806   1.883  0.1857  0.0813  0.2451
 1132SOL     OW 4600   2.741   4.025   1.993 -0.1307 -0.0472 -0.0799
 1132SOL    HW2 4601   2.813   3.971   1.962 -0.4144  0.1574 -1.1190
 1132SOL    HW3 4602   2.663   3.988   1.951 -0.5310  0.2023  0.4274
 1132SOL    MW4 4603   2.740   4.013   1.984 -0.2208  0.0134 -0.1500
 1133SOL     OW 4604   2.667   4.267   1.917  0.2281 -0.0658 -0.3832
 1133SOL    HW2 4605   2.697   4.188   1.962  0.5859  0.4605  0.2960
 1133SOL    HW3 4606   2.673   4.245   1.824  1.6016 -0.3750 -0.2300
 1133SOL    MW4 4607   2.672   4.254   1.911  0.4566 -0.0372 -0.2733
 1134SOL     OW 4608   2.897   4.383   1.984  0.2411 -0.2109  0.3170
 1134SOL    HW2 4609   2.916   4.403   2.076  1.3844  0.6195 -0.0855
 1134SOL    HW3 4610   2.803   4.366   1.982  0.3438 -1.0520  1.7838
 1134SOL    MW4 4611   2.887   4.383   1.996  0.4053 -0.2127  0.4574
 1135SOL     OW 4612   3.370   4.615   1.914 -0.1247 -0.3161  0.1580
 1135SOL    HW2 4613   3.384   4.523   1.936  1.2968  0.0489  0.8364
 1135SOL    HW3 4614   3.360   4.617   1.819  0.3706 -1.1032  0.0935
 1135SOL    MW4 4615   3.370   4.603   1.905  0.1283 -0.3719  0.2390
 1136SOL     OW 4616   3.149   0.116   1.973  0.1300 -0.6308 -0.1455
 1136SOL    HW2 4617   3.156   0.120   2.068 -1.5892  0.0256 -0.0236
 1136SOL    HW3 4618   3.228   0.068   1.945  1.0004 -0.2291  1.5346
 1136SOL    MW4 4619   3.161   0.110   1.982  0.0181 -0.4912  0.0924
 1137SOL     OW 4620   3.118   0.353   1.847 -0.5239  0.1187 -0.1748
 1137SOL    HW2 4621   3.146   0.265   1.872  0.7047  0.4446 -0.3627
 1137SOL    HW3 4622   3.097   0.346   1.754 -0.1961  0.0807 -0.2456
 1137SOL    MW4 4623   3.119   0.340   1.838 -0.3188  0.1567 -0.2089
 1138SOL     OW 4624   3.348   0.492   1.963  0.3267  0.1116  0.1767
 1138SOL    HW2 4625   3.425   0.445   1.932  0.8149  0.7511  0.3922
 1138SOL    HW3 4626   3.276   0.459   1.910  0.3639 -2.0309  1.4008
 1138SOL    MW4 4627   3.349   0.482   1.952  0.3958 -0.0867  0.3667
 1139SOL     OW 4628   3.389   0.753   1.868 -0.6617 -0.2332 -0.5442
 1139SOL    HW2 4629   3.315   0.795   1.911  0.0847  0.9888 -0.4255
 1139SOL    HW3 4630   3.390   0.664   1.903 -2.5498 -0.5217 -1.1545
 1139SOL    MW4 4631   3.380   0.747   1.878 -0.8121 -0.1100 -0.6090
 1140SOL     OW 4632   3.162   0.856   1.996  0.0527 -0.7340  0.1581
 1140SOL    HW2 4633   3.139   0.859   2.089  2.0344 -1.0224  0.6809
 1140SOL    HW3 4634   3.142   0.944   1.963 -0.7881 -0.6753  0.8159
 1140SOL    MW4 4635   3.156   0.868   2.004  0.2034 -0.7644  0.3138
 1141SOL     OW 4636   3.103   1.103   1.868  0.1030 -0.1253 -0.6196
 1141SOL    HW2 4637   3.180   1.153   1.893 -0.3459  0.8527 -1.1912
 1141SOL    HW3 4638   3.028   1.158   1.892 -0.4375 -1.1726  0.1732
 1141SOL    MW4 4639   3.103   1.117   1.874 -0.0279 -0.1345 -0.5904
 1142SOL     OW 4640   3.311   1.273   1.939 -0.8389  0.4120  0.2732
 1142SOL    HW2 4641   3.319   1.278   2.034  1.6818 -0.4273  0.1544
 1142SOL    HW3 4642   3.330   1.362   1.908  0.1393  0.2785  0.4741
 1142SOL    MW4 4643   3.315   1.285   1.947 -0.3772  0.2835  0.2842
 1143SOL     OW 4644   3.349   1.520   1.863 -0.1897 -0.5834 -0.3924
 1143SOL    HW2 4645   3.429   1.561   1.895  0.1446 -1.4840 -0.0738
 1143SOL    HW3 4646   3.279   1.577   1.895  0.2626 -0.3213  0.1497
 1143SOL    MW4 4647   3.350   1.533   1.871 -0.0858 -0.6677 -0.2787
 1144SOL     OW 4648   3.124   1.661   1.963 -0.3458  0.1136  0.3432
 1144SOL    HW2 4649   3.134   1.673   2.057  0.1620  0.5241  0.2373
 1144SOL    HW3 4650   3.134   1.748   1.926 -0.9335  0.0151 -0.0642
 1144SOL    MW4 4651   3.127   1.674   1.970 -0.3562  0.1547  0.2755
 1145SOL     OW 4652   3.125   1.916   1.882 -0.0743 -0.4374 -0.2505
 1145SOL    HW2 4653   3.210   1.945   1.916 -0.3941 -0.5167  0.6204
 1145SOL    HW3 4654   3.129   1.935   1.788  0.2165  1.2317  0.0821
 1145SOL    MW4 4655   3.137   1.923   1.874 -0.0782 -0.2278 -0.0918
 1146SOL     OW 4656   3.345   2.050   1.999  0.6739 -0.1598 -0.2013
 1146SOL    HW2 4657   3.419   1.997   1.969  1.9979  1.0831  0.8264
 1146SOL    HW3 4658   3.364   2.138   1.968 -1.8023 -0.3119 -2.4011
 1146SOL    MW4 4659   3.357   2.054   1.991  0.5219 -0.0160 -0.3561
 1147SOL     OW 4660   3.368   2.306   1.900  0.3086  0.0372 -0.0385
 1147SOL    HW2 4661   3.288   2.355   1.919 -0.4373 -0.6470 -1.3850
 1147SOL    HW3 4662   3.378   2.311   1.805  0.8859 -1.3895 -0.0691
 1147SOL    MW4 4663   3.359   2.313   1.890  0.2863 -0.2413 -0.2202
 1148SOL     OW 4664   3.115   2.424   1.920 -0.7885  0.0198 -0.1383
 1148SOL    HW2 4665   3.109   2.432   2.015  1.5053  0.4681 -0.0191
 1148SOL    HW3 4666   3.132   2.513   1.890  0.9623 -0.5040 -0.7568
 1148SOL    MW4 4667   3.116   2.437   1.929 -0.2546  0.0098 -0.2042
 1149SOL     OW 4668   3.148   2.676   1.838  0.0796 -0.1277 -0.4257
 1149SOL    HW2 4669   3.076   2.718   1.886  0.5936 -1.0276  1.1790
 1149SOL    HW3 4670   3.122   2.682   1.746 -0.4203  2.5887 -0.1307
 1149SOL    MW4 4671   3.135   2.682   1.832  0.0815  0.1123 -0.1750
 1150SOL     OW 4672   3.352   2.839   1.962 -0.1799  0.2001  0.5040
 1150SOL    HW2 4673   3.351   2.825   2.057 -0.0495  0.3698  0.5288
 1150SOL    HW3 4674   3.275   2.792   1.931 -0.9463  1.2175  0.8384
 1150SOL    MW4 4675   3.342   2.831   1.971 -0.2639  0.3567  0.5513
 1151SOL     OW 4676   3.334   3.092   1.859 -0.2484  0.1741  0.0039
 1151SOL    HW2 4677   3.423   3.124   1.875 -0.0760  0.6612 -1.7395
 1151SOL    HW3 4678   3.333   3.004   1.897  1.2595 -0.1787 -0.6921
 1151SOL    MW4 4679   3.346   3.085   1.866 -0.0267  0.1917 -0.3179
 1152SOL     OW 4680   3.117   3.207   2.031  0.1206 -0.5215  0.3636
 1152SOL    HW2 4681   3.105   3.288   1.982 -0.5681 -0.0006  1.3906
 1152SOL    HW3 4682   3.210   3.186   2.020 -0.1458 -0.7846 -1.7222
 1152SOL    MW4 4683   3.127   3.215   2.023 -0.0052 -0.4876  0.2241
 1153SOL     OW 4684   3.107   3.440   1.900  0.2592  0.1970 -0.0997
 1153SOL    HW2 4685   3.180   3.500   1.914 -0.0147  0.4177  0.4184
 1153SOL    HW3 4686   3.104   3.427   1.806  1.9526 -1.0469 -0.0064
 1153SOL    MW4 4687   3.116   3.446   1.890  0.4466  0.0622 -0.0190
 1154SOL     OW 4688   3.343   3.607   1.944 -0.3861  0.1172 -0.0832
 1154SOL    HW2 4689   3.425   3.565   1.917 -0.2362 -0.4905  1.2670
 1154SOL    HW3 4690   3.361   3.701   1.936  0.5218 -0.0069  0.3962
 1154SOL    MW4 4691   3.356   3.614   1.940 -0.2465  0.0210  0.1582
 1155SOL     OW 4692   3.389   3.878   1.873  0.2589  0.0676 -0.4943
 1155SOL    HW2 4693   3.306   3.917   1.901 -0.4381 -1.7877  0.1477
 1155SOL    HW3 4694   3.378   3.864   1.779 -0.4408 -0.8086 -0.2879
 1155SOL    MW4 4695   3.377   3.881   1.865  0.0746 -0.2928 -0.3823
 1156SOL     OW 4696   3.156   3.972   1.953 -0.1287 -0.0824  0.0896
 1156SOL    HW2 4697   3.137   3.982   2.047 -0.9329 -2.8258  0.2681
 1156SOL    HW3 4698   3.081   3.924   1.919 -0.8785  2.7209 -2.4474
 1156SOL    MW4 4699   3.143   3.967   1.961 -0.3335 -0.0746 -0.2216
 1157SOL     OW 4700   3.153   4.267   1.914 -0.1024  0.3301 -0.5088
 1157SOL    HW2 4701   3.141   4.173   1.933 -1.1241  0.3132 -1.2095
 1157SOL    HW3 4702   3.067   4.305   1.930  0.2231  1.0936 -0.5818
 1157SOL    MW4 4703   3.140   4.259   1.919 -0.1945  0.4292 -0.6107
 1158SOL     OW 4704   3.380   4.352   2.015  0.0097 -0.5845 -0.0973
 1158SOL    HW2 4705   3.445   4.323   1.951 -1.1434 -0.2781 -1.4214
 1158SOL    HW3 4706   3.296   4.324   1.979 -0.8849  1.9512 -0.0550
 1158SOL    MW4 4707   3.378   4.345   2.002 -0.2604 -0.2098 -0.2668
 1159SOL     OW 4708   3.808   0.006   1.863 -0.0378 -0.0527  0.5651
 1159SOL    HW2 4709   3.806  -0.085   1.893 -0.2447 -0.2873 -0.1368
 1159SOL    HW3 4710   3.740   0.050   1.914 -1.7698 -0.9020 -0.9764
 1159SOL    MW4 4711   3.799  -0.000   1.873 -0.2937 -0.1960  0.2691
 1160SOL     OW 4712   3.576   0.086   2.012 -0.1415 -0.0226  0.1338
 1160SOL    HW2 4713   3.582   0.086   2.107  0.8823  0.5050  0.0700
 1160SOL    HW3 4714   3.502   0.028   1.993 -0.6666  0.2549  1.2641
 1160SOL    MW4 4715   3.567   0.079   2.022 -0.0756  0.0836  0.2744
 1161SOL     OW 4716   3.574   0.354   1.886 -0.2854  0.1340  0.5123
 1161SOL    HW2 4717   3.557   0.264   1.913 -0.8343  0.2801  0.6829
 1161SOL    HW3 4718   3.565   0.353   1.791 -0.4054  0.0307  0.5246
 1161SOL    MW4 4719   3.570   0.342   1.877 -0.3738  0.1396  0.5363
 1162SOL     OW 4720   3.812   0.446   2.003  0.5108 -0.6308  0.2783
 1162SOL    HW2 4721   3.805   0.539   1.980 -0.6830 -1.1367 -1.5047
 1162SOL    HW3 4722   3.727   0.409   1.980  2.4013 -3.0680 -3.3981
 1162SOL    MW4 4723   3.800   0.453   1.997  0.6025 -1.0191 -0.4419
 1163SOL     OW 4724   3.788   0.715   1.915  0.2051 -0.1139 -0.3926
 1163SOL    HW2 4725   3.728   0.787   1.934  0.7446  0.3873 -0.5805
 1163SOL    HW3 4726   3.786   0.705   1.820  1.8952  1.2057 -0.5967
 1163SOL    MW4 4727   3.780   0.723   1.905  0.4990  0.1264 -0.4444
 1164SOL     OW 4728   3.588   0.902   1.992 -0.0111  0.0138  0.6441
 1164SOL    HW2 4729   3.581   0.991   1.957  0.8114  0.3806  1.4000
 1164SOL    HW3 4730   3.524   0.851   1.942 -0.2739  0.9682  0.0079
 1164SOL    MW4 4731   3.579   0.907   1.981  0.0627  0.1882  0.6597
 1165SOL     OW 4732   3.565   1.160   1.896 -0.4330 -0.2241 -0.0970
 1165SOL    HW2 4733   3.473   1.182   1.910 -0.9207 -1.5774 -1.0904
 1165SOL    HW3 4734   3.572   1.142   1.802  1.0309  0.7169 -0.1757
 1165SOL    MW4 4735   3.554   1.160   1.886 -0.3042 -0.2786 -0.2384
 1166SOL     OW 4736   3.818   1.245   1.986 -0.3061 -0.4040 -0.3311
 1166SOL    HW2 4737   3.806   1.269   2.078 -1.0590 -1.8307 -0.0390
 1166SOL    HW3 4738   3.731   1.216   1.958 -0.4243  1.3649 -1.9153
 1166SOL    MW4 4739   3.805   1.244   1.994 -0.4210 -0.3587 -0.5016
 1167SOL     OW 4740   3.796   1.528   1.902 -0.3485 -0.2771  0.1134
 1167SOL    HW2 4741   3.882   1.565   1.922 -0.1824 -0.6392  0.0658
 1167SOL    HW3 4742   3.802   1.437   1.931  0.0453 -0.9380 -1.9625
 1167SOL    MW4 4743   3.808   1.521   1.909 -0.2749 -0.4121 -0.1669
 1168SOL     OW 4744   3.571   1.652   1.993 -0.2845  0.1488 -0.0440
 1168SOL    HW2 4745   3.576   1.743   1.962  1.5503  0.2173  0.3810
 1168SOL    HW3 4746   3.656   1.615   1.971 -0.9749 -1.4296 -0.0638
 1168SOL    MW4 4747   3.583   1.659   1.986 -0.1335 -0.0504  0.0094
 1169SOL     OW 4748   3.573   1.901   1.902 -0.0203 -0.6223  0.5250
 1169SOL    HW2 4749   3.657   1.937   1.931 -0.8494  2.1482 -0.3536
 1169SOL    HW3 4750   3.576   1.905   1.806 -0.0748 -3.1496  0.3813
 1169SOL    MW4 4751   3.584   1.906   1.893 -0.1369 -0.5902  0.3902
 1170SOL     OW 4752   3.787   2.044   1.963 -0.1529  0.0542 -0.1640
 1170SOL    HW2 4753   3.852   2.011   1.901  0.5105  2.5957 -0.8595
 1170SOL    HW3 4754   3.776   2.136   1.940 -1.9934  0.3378  1.7063
 1170SOL    MW4 4755   3.794   2.052   1.952 -0.3083  0.4270 -0.0089
 1171SOL     OW 4756   3.811   2.309   1.857  0.0151 -0.0282 -0.7021
 1171SOL    HW2 4757   3.892   2.345   1.894 -0.0734 -0.6921  0.1727
 1171SOL    HW3 4758   3.742   2.346   1.911 -0.2532  0.4528 -1.3829
 1171SOL    MW4 4759   3.813   2.318   1.869 -0.0317 -0.0525 -0.6765
 1172SOL     OW 4760   3.595   2.435   1.986 -0.0025 -0.4049  0.3617
 1172SOL    HW2 4761   3.574   2.524   1.955 -0.4858 -1.6192 -3.0825
 1172SOL    HW3 4762   3.515   2.386   1.972  0.8381 -1.8228  0.4720
 1172SOL    MW4 4763   3.582   2.440   1.980  0.0446 -0.7522 -0.0782
 1173SOL     OW 4764   3.578   2.692   1.878  0.0717  0.1519  0.3840
 1173SOL    HW2 4765   3.650   2.749   1.904  1.6082 -1.2913 -0.5283
 1173SOL    HW3 4766   3.499   2.739   1.903  1.2891  2.5562 -0.1316
 1173SOL    MW4 4767   3.577   2.706   1.885  0.4351  0.2789  0.1955
 1174SOL     OW 4768   3.810   2.840   1.965 -0.3117  0.2041 -0.4869
 1174SOL    HW2 4769   3.809   2.834   2.061 -1.3022  1.4300 -0.4100
 1174SOL    HW3 4770   3.833   2.931   1.947 -1.7983  0.4262 -1.3740
 1174SOL    MW4 4771   3.813   2.851   1.975 -0.6385  0.3953 -0.5939
 1175SOL     OW 4772   3.816   3.111   1.881 -0.0019  0.4542  0.5865
 1175SOL    HW2 4773   3.730   3.139   1.911 -0.1218  0.4281  0.2646
 1175SOL    HW3 4774   3.806   3.097   1.787  0.0687 -0.6413  0.7392
 1175SOL    MW4 4775   3.803   3.113   1.873 -0.0086  0.3064  0.5642
 1176SOL     OW 4776   3.565   3.204   1.957  0.0957  0.0185 -0.6458
 1176SOL    HW2 4777   3.556   3.205   2.052 -2.2138 -0.9107 -0.8196
 1176SOL    HW3 4778   3.539   3.292   1.929  0.6064  0.2362 -0.4443
 1176SOL    MW4 4779   3.560   3.216   1.966 -0.1414 -0.0751 -0.6421
 1177SOL     OW 4780   3.560   3.469   1.890  0.6650 -0.1927 -0.5885
 1177SOL    HW2 4781   3.631   3.523   1.923  1.1049 -0.2809 -1.3849
 1177SOL    HW3 4782   3.573   3.467   1.796 -0.1016 -0.6225 -0.6892
 1177SOL    MW4 4783   3.571   3.476   1.882  0.6216 -0.2608 -0.7068
 1178SOL     OW 4784   3.776   3.632   1.984 -0.1235 -0.0029 -0.1683
 1178SOL    HW2 4785   3.850   3.572   1.974  0.3477  0.1789  1.8186
 1178SOL    HW3 4786   3.800   3.709   1.932  0.4544 -0.5017 -0.6473
 1178SOL    MW4 4787   3.789   3.634   1.976  0.0150 -0.0446  0.0308
 1179SOL     OW 4788   3.838   3.879   1.854  0.0769 -0.2761  0.1993
 1179SOL    HW2 4789   3.754   3.921   1.873 -0.6427 -2.1419  1.3942
 1179SOL    HW3 4790   3.847   3.884   1.759 -1.2032  0.3057  0.0977
 1179SOL    MW4 4791   3.828   3.885   1.844 -0.1869 -0.4454  0.3434
 1180SOL     OW 4792   3.611   4.017   1.938  0.2222  0.6669  0.1895
 1180SOL    HW2 4793   3.612   4.023   2.034 -0.6397  0.1393  0.2461
 1180SOL    HW3 4794   3.528   3.973   1.919  0.0012  1.5459 -0.8517
 1180SOL    MW4 4795   3.600   4.012   1.948  0.0794  0.7129  0.0596
 1181SOL     OW 4796   3.608   4.280   1.866 -0.1677  0.2695  0.1774
 1181SOL    HW2 4797   3.682   4.318   1.913 -0.1004  0.2913  0.0534
 1181SOL    HW3 4798   3.600   4.191   1.901  0.2365  0.0941 -0.1729
 1181SOL    MW4 4799   3.616   4.273   1.877 -0.1054  0.2489  0.1148
 1182SOL     OW 4800   3.837   4.382   1.960  0.2870 -0.2312 -0.4612
 1182SOL    HW2 4801   3.850   4.384   2.054 -0.1160 -0.9340 -0.3824
 1182SOL    HW3 4802   3.919   4.348   1.925  0.6568  0.6043 -0.4171
 1182SOL    MW4 4803   3.849   4.378   1.968  0.2825 -0.2141 -0.4450
 1183SOL     OW 4804   4.300   0.022   1.851 -0.3852 -0.3939  0.1759
 1183SOL    HW2 4805   4.220   0.056   1.891  0.1280  0.9627  0.1022
 1183SOL    HW3 4806   4.370   0.055   1.908  0.1324 -1.2845  0.0523
 1183SOL    MW4 4807   4.299   0.031   1.864 -0.2494 -0.3324  0.1498
 1184SOL     OW 4808   4.058   0.092   1.973 -0.4097 -0.1801 -0.2110
 1184SOL    HW2 4809   4.054   0.079   2.068  0.0635 -1.0857 -0.3063
 1184SOL    HW3 4810   3.972   0.062   1.942 -1.5045  2.4375  0.1712
 1184SOL    MW4 4811   4.046   0.086   1.982 -0.4916  0.0458 -0.1732
 1185SOL     OW 4812   4.012   0.325   1.853 -0.2891 -0.2945  0.0909
 1185SOL    HW2 4813   4.021   0.240   1.896 -1.1468 -1.4541 -1.9722
 1185SOL    HW3 4814   3.934   0.364   1.893 -1.6741 -1.7945 -1.0957
 1185SOL    MW4 4815   4.003   0.319   1.864 -0.5846 -0.6454 -0.3378
 1186SOL     OW 4816   4.255   0.466   1.934 -0.1576 -0.1815 -0.2508
 1186SOL    HW2 4817   4.260   0.470   2.030  2.5063 -1.8266 -0.2482
 1186SOL    HW3 4818   4.180   0.410   1.916  0.5126 -1.5086  0.9693
 1186SOL    MW4 4819   4.246   0.459   1.944  0.2823 -0.5736 -0.0895
 1187SOL     OW 4820   4.263   0.743   1.819 -0.2567 -0.6469 -0.5575
 1187SOL    HW2 4821   4.264   0.648   1.832  0.0970 -0.5422  0.2136
 1187SOL    HW3 4822   4.261   0.754   1.724  1.1402 -1.4407 -0.7038
 1187SOL    MW4 4823   4.263   0.732   1.808 -0.0262 -0.7378 -0.4750
 1188SOL     OW 4824   4.030   0.850   1.968  0.2102  0.2876 -0.1350
 1188SOL    HW2 4825   4.109   0.805   1.938  0.0794 -0.0877  0.0809
 1188SOL    HW3 4826   3.958   0.793   1.940  0.0854 -0.0378  0.8459
 1188SOL    MW4 4827   4.031   0.836   1.960  0.1769  0.1951  0.0228
 1189SOL     OW 4828   4.045   1.106   1.848 -0.0169 -0.0686  0.4245
 1189SOL    HW2 4829   4.027   1.023   1.892  0.2708 -0.7741 -0.7848
 1189SOL    HW3 4830   3.971   1.163   1.873 -1.0235 -1.1713 -0.0182
 1189SOL    MW4 4831   4.033   1.103   1.857 -0.1111 -0.3072  0.2066
 1190SOL     OW 4832   4.280   1.245   1.922  0.1774 -0.4352 -0.3149
 1190SOL    HW2 4833   4.277   1.258   2.016 -1.0130  1.0103 -0.5282
 1190SOL    HW3 4834   4.203   1.192   1.902 -0.4084  0.5426 -0.6570
 1190SOL    MW4 4835   4.270   1.240   1.931 -0.0572 -0.1154 -0.3881
 1191SOL     OW 4836   4.250   1.506   1.860  0.0985 -0.4416  0.3596
 1191SOL    HW2 4837   4.251   1.411   1.875 -3.0990 -0.3967  1.1846
 1191SOL    HW3 4838   4.232   1.516   1.767 -1.9174 -0.6705  0.7046
 1191SOL    MW4 4839   4.248   1.494   1.850 -0.5894 -0.4658  0.5139
 1192SOL     OW 4840   4.036   1.668   1.977 -0.1652 -0.3243 -0.0976
 1192SOL    HW2 4841   4.048   1.653   2.071 -1.3759 -0.7280  0.0075
 1192SOL    HW3 4842   4.109   1.623   1.936  1.3014  1.2350  0.7290
 1192SOL    MW4 4843   4.047   1.660   1.984 -0.1316 -0.1718  0.0254
 1193SOL     OW 4844   4.045   1.950   1.858 -0.0271 -0.0978  0.0127
 1193SOL    HW2 4845   4.037   1.859   1.887  0.4160 -0.5278 -1.1801
 1193SOL    HW3 4846   4.058   1.944   1.763  1.0139  1.1669  0.0619
 1193SOL    MW4 4847   4.046   1.937   1.849  0.1683  0.0124 -0.1383
 1194SOL     OW 4848   4.284   2.049   1.959  0.2460  0.1909 -0.2822
 1194SOL    HW2 4849   4.288   2.060   2.054  1.5129 -0.7592 -0.2112
 1194SOL    HW3 4850   4.196   2.015   1.942  0.3840 -0.6702  0.6773
 1194SOL    MW4 4851   4.273   2.046   1.969  0.4320 -0.0482 -0.1463
 1195SOL     OW 4852   4.265   2.320   1.909 -0.0803  0.2305 -0.7228
 1195SOL    HW2 4853   4.270   2.226   1.927  0.6535  0.4660  0.3353
 1195SOL    HW3 4854   4.352   2.353   1.932 -0.8998  1.4624  0.6426
 1195SOL    MW4 4855   4.277   2.312   1.914 -0.0911  0.4241 -0.4032
 1196SOL     OW 4856   4.022   2.424   1.972  0.2435 -0.1412 -0.1770
 1196SOL    HW2 4857   4.015   2.436   2.067  1.0151 -0.7188 -0.0484
 1196SOL    HW3 4858   4.105   2.378   1.959  0.0509 -0.2320 -1.1185
 1196SOL    MW4 4859   4.032   2.419   1.983  0.3200 -0.2296 -0.2843
 1197SOL     OW 4860   4.051   2.679   1.866 -0.2256 -0.1882  0.0680
 1197SOL    HW2 4861   4.035   2.592   1.902 -1.5298  0.0576  0.1161
 1197SOL    HW3 4862   3.986   2.735   1.909  0.5770  0.7972  0.0109
 1197SOL    MW4 4863   4.040   2.675   1.877 -0.2918 -0.0257  0.0669
 1198SOL     OW 4864   4.279   2.859   1.929 -0.2609  0.1477  0.3345
 1198SOL    HW2 4865   4.281   2.859   2.025 -2.8153  2.4380  0.4272
 1198SOL    HW3 4866   4.205   2.801   1.907 -0.6490  0.8536 -0.2141
 1198SOL    MW4 4867   4.269   2.851   1.939 -0.6495  0.5434  0.2743
 1199SOL     OW 4868   4.304   3.106   1.815  0.3310 -0.8229  0.6302
 1199SOL    HW2 4869   4.226   3.155   1.840  1.0389 -0.6482  2.5816
 1199SOL    HW3 4870   4.304   3.029   1.873  0.1147 -2.2913 -1.2716
 1199SOL    MW4 4871   4.294   3.102   1.826  0.3963 -0.9940  0.6368
 1200SOL     OW 4872   4.066   3.248   1.908 -0.0345  0.2344 -0.1348
 1200SOL    HW2 4873   4.076   3.264   2.002  0.3392  0.3650 -0.1936
 1200SOL    HW3 4874   3.979   3.209   1.898  0.1618 -0.3174  0.3326
 1200SOL    MW4 4875   4.056   3.245   1.919  0.0405  0.1788 -0.0811
 1201SOL     OW 4876   3.999   3.517   1.866  0.0048  0.3150 -0.0570
 1201SOL    HW2 4877   4.071   3.550   1.919  0.8317 -0.6441 -0.5633
 1201SOL    HW3 4878   4.009   3.422   1.868 -2.0455  0.0822  0.9818
 1201SOL    MW4 4879   4.010   3.509   1.873 -0.1569  0.1578  0.0132
 1202SOL     OW 4880   4.256   3.586   1.977  0.0356 -0.1240 -0.2602
 1202SOL    HW2 4881   4.249   3.681   1.967 -1.0637 -0.2197 -0.3948
 1202SOL    HW3 4882   4.337   3.564   1.931 -0.8813  0.4483 -2.1942
 1202SOL    MW4 4883   4.266   3.596   1.970 -0.2303 -0.0610 -0.5332
 1203SOL     OW 4884   4.278   3.852   1.881  0.4682  0.0792  0.0334
 1203SOL    HW2 4885   4.359   3.898   1.902  0.5495 -0.1308  0.1807
 1203SOL    HW3 4886   4.276   3.849   1.785  0.3690  0.5488  0.0184
 1203SOL    MW4 4887   4.288   3.858   1.871  0.4654  0.1137  0.0510
 1204SOL     OW 4888   4.062   3.989   1.964  0.4139 -0.5027 -0.1990
 1204SOL    HW2 4889   4.138   3.945   1.925  0.7177 -0.0939 -0.0718
 1204SOL    HW3 4890   3.987   3.938   1.933  0.6286  0.0029 -1.5849
 1204SOL    MW4 4891   4.062   3.976   1.955  0.4826 -0.3822 -0.3651
 1205SOL     OW 4892   4.081   4.257   1.859 -0.0274 -0.1938  0.3771
 1205SOL    HW2 4893   4.156   4.306   1.895  0.9043 -0.2272 -1.4515
 1205SOL    HW3 4894   4.096   4.167   1.888 -0.2075  0.0784  1.3377
 1205SOL    MW4 4895   4.093   4.252   1.867  0.0720 -0.1626  0.2625
 1206SOL     OW 4896   4.273   4.424   1.960  0.0261 -0.4981  0.7375
 1206SOL    HW2 4897   4.268   4.410   2.054  2.2210  2.0747  1.2844
 1206SOL    HW3 4898   4.283   4.518   1.950  0.4548 -0.7950 -2.0469
 1206SOL    MW4 4899   4.274   4.434   1.971  0.3724 -0.1974  0.4421
 1207SOL     OW 4900   0.207   4.665   2.316  0.4820 -0.5893  0.1133
 1207SOL    HW2 4901   0.246   4.663   2.404  1.1321  1.5846 -0.0821
 1207SOL    HW3 4902   0.272   4.711   2.263 -0.2480 -1.2110 -1.3391
 1207SOL    MW4 4903   0.221   4.671   2.321  0.4715 -0.3845 -0.1037
 1208SOL     OW 4904   4.470   0.150   2.256 -0.2018  0.1846  0.7602
 1208SOL    HW2 4905   4.545   0.102   2.291  0.1003  0.5529  0.6204
 1208SOL    HW3 4906   4.482   0.147   2.161 -0.0483  0.7537  0.7611
 1208SOL    MW4 4907   4.481   0.143   2.248 -0.1416  0.3083  0.7420
 1209SOL     OW 4908   4.472   0.395   2.350  0.2877  0.6101  0.2580
 1209SOL    HW2 4909   4.542   0.442   2.305  1.0321 -0.1543  0.6169
 1209SOL    HW3 4910   4.483   0.304   2.324  0.2834  0.2702  1.4306
 1209SOL    MW4 4911   4.483   0.389   2.341  0.3848  0.4644  0.4601
 1210SOL     OW 4912   0.201   0.522   2.240 -0.3893  0.3952  0.5587
 1210SOL    HW2 4913   0.284   0.483   2.267 -0.4590 -0.6578 -0.7307
 1210SOL    HW3 4914   0.193   0.501   2.147 -2.9673 -1.0624  1.0542
 1210SOL    MW4 4915   0.211   0.514   2.232 -0.7386  0.0640  0.4539
 1211SOL     OW 4916   0.219   0.795   2.350  0.2575  0.4631 -0.3605
 1211SOL    HW2 4917   0.199   0.763   2.437 -0.0086  0.8585 -0.2748
 1211SOL    HW3 4918   0.250   0.718   2.302 -0.4555  0.0682 -0.1873
 1211SOL    MW4 4919   0.221   0.781   2.355  0.1283  0.4631 -0.3264
 1212SOL     OW 4920   4.442   0.861   2.246  0.4015  0.2980 -0.1873
 1212SOL    HW2 4921   4.527   0.838   2.282 -0.0121 -0.0938  0.5598
 1212SOL    HW3 4922   4.452   0.849   2.151  0.4092 -2.3526  0.0972
 1212SOL    MW4 4923   4.454   0.856   2.238  0.3476 -0.1034 -0.0513
 1213SOL     OW 4924   4.458   1.141   2.307 -0.4375  0.4582 -0.1770
 1213SOL    HW2 4925   4.446   1.143   2.402  0.2548  0.0986 -0.0760
 1213SOL    HW3 4926   4.440   1.051   2.282  0.5923  0.2623 -0.2179
 1213SOL    MW4 4927   4.454   1.130   2.316 -0.2103  0.3848 -0.1693
 1214SOL     OW 4928   0.194   1.280   2.243  0.6688 -0.1898 -0.4953
 1214SOL    HW2 4929   0.124   1.218   2.263 -0.1421  0.5959 -0.8538
 1214SOL    HW3 4930   0.198   1.281   2.147 -0.2132  1.2659 -0.5354
 1214SOL    MW4 4931   0.185   1.272   2.233  0.4454  0.1060 -0.5479
 1215SOL     OW 4932   0.240   1.549   2.345  0.3661 -0.2814 -0.5158
 1215SOL    HW2 4933   0.240   1.547   2.441  0.4824  0.4007 -0.4961
 1215SOL    HW3 4934   0.215   1.461   2.319 -0.6354 -0.2011  0.1490
 1215SOL    MW4 4935   0.237   1.537   2.354  0.2493 -0.1808 -0.4258
 1216SOL     OW 4936   0.022   1.634   2.212  0.0361  0.2324  0.0549
 1216SOL    HW2 4937   0.009   1.725   2.237 -1.0745 -0.3725  1.7390
 1216SOL    HW3 4938   0.097   1.605   2.263 -1.3644 -0.5984  1.6756
 1216SOL    MW4 4939   0.030   1.642   2.222 -0.2952  0.0428  0.4909
 1217SOL     OW 4940   4.463   1.893   2.293  0.3206 -0.0482  0.0574
 1217SOL    HW2 4941   4.384   1.946   2.283  1.1518  0.6990 -2.7052
 1217SOL    HW3 4942   4.535   1.952   2.273  1.3639 -1.7256 -1.1821
 1217SOL    MW4 4943   4.462   1.908   2.289  0.5679 -0.1708 -0.4704
 1218SOL     OW 4944   0.189   2.067   2.247  0.1461  0.2847 -0.4097
 1218SOL    HW2 4945   0.272   2.022   2.265  0.9136  1.5058 -0.7984
 1218SOL    HW3 4946   0.183   2.067   2.151 -0.6078 -0.3364 -0.3632
 1218SOL    MW4 4947   0.199   2.061   2.237  0.1479  0.3638 -0.4549
 1219SOL     OW 4948   0.192   2.320   2.351  0.5081  0.1707  0.2856
 1219SOL    HW2 4949   0.208   2.321   2.445 -0.5015 -1.1076  0.4861
 1219SOL    HW3 4950   0.196   2.228   2.326  0.5008  0.4701 -0.8768
 1219SOL    MW4 4951   0.194   2.308   2.360  0.3739  0.0415  0.1585
 1220SOL     OW 4952   4.479   2.457   2.228 -0.6191  0.0449  0.2474
 1220SOL    HW2 4953   4.488   2.552   2.236 -0.1970  0.0639 -0.4129
 1220SOL    HW3 4954   4.561   2.422   2.263 -0.8516 -0.0902  0.6683
 1220SOL    MW4 4955   4.491   2.465   2.234 -0.5941  0.0296  0.2155
 1221SOL     OW 4956   0.000   2.717   2.321  0.0303 -0.4000  0.3821
 1221SOL    HW2 4957   0.014   2.700   2.415 -0.5615 -0.1471  0.5187
 1221SOL    HW3 4958   0.082   2.757   2.292  0.1155 -0.2225  0.8522
 1221SOL    MW4 4959   0.013   2.720   2.330 -0.0372 -0.3433  0.4623
 1222SOL     OW 4960   0.227   2.856   2.257 -0.4228  0.1481 -0.3450
 1222SOL    HW2 4961   0.303   2.810   2.291 -0.6086  0.9916  1.2278
 1222SOL    HW3 4962   0.239   2.854   2.162  0.7971 -1.0125 -0.1856
 1222SOL    MW4 4963   0.238   2.850   2.249 -0.2864  0.1059 -0.1161
 1223SOL     OW 4964   0.210   3.110   2.338 -0.2966  0.5660  0.2931
 1223SOL    HW2 4965   0.126   3.139   2.302 -0.7624  1.4725  2.0461
 1223SOL    HW3 4966   0.220   3.020   2.307 -1.5825  0.6917 -0.5052
 1223SOL    MW4 4967   0.200   3.102   2.329 -0.5277  0.7017  0.4189
 1224SOL     OW 4968   4.457   3.222   2.267  0.3289  0.1783 -0.0910
 1224SOL    HW2 4969   4.447   3.307   2.310 -0.8133  1.0794 -2.0488
 1224SOL    HW3 4970   4.464   3.243   2.174 -0.1578 -1.8795 -0.6264
 1224SOL    MW4 4971   4.456   3.236   2.260  0.1140  0.0255 -0.4196
 1225SOL     OW 4972   4.463   3.478   2.360  0.1823 -0.2130 -0.1312
 1225SOL    HW2 4973   4.467   3.491   2.455 -0.7948 -0.4403 -0.0564
 1225SOL    HW3 4974   4.382   3.522   2.333  0.7104  0.2903 -0.9319
 1225SOL    MW4 4975   4.453   3.486   2.369  0.1230 -0.1767 -0.2267
 1226SOL     OW 4976   0.207   3.590   2.273 -0.6655 -0.2031  0.2002
 1226SOL    HW2 4977   0.276   3.530   2.303 -1.1366 -1.0027 -0.3013
 1226SOL    HW3 4978   0.126   3.549   2.302 -0.9185  0.9320  1.1187
 1226SOL    MW4 4979   0.205   3.576   2.280 -0.7610 -0.1590  0.2551
 1227SOL     OW 4980   0.212   3.854   2.347  0.0415 -0.7511  0.2495
 1227SOL    HW2 4981   0.132   3.886   2.304  0.8102  0.3419 -0.3899
 1227SOL    HW3 4982   0.217   3.762   2.321  1.3062  0.2613 -3.3438
 1227SOL    MW4 4983   0.202   3.846   2.338  0.3098 -0.4735 -0.3092
 1228SOL     OW 4984   0.006   3.993   2.230  0.1880  0.3383 -0.5440
 1228SOL    HW2 4985   0.006   4.078   2.274 -2.2606  0.6959 -1.1347
 1228SOL    HW3 4986   0.017   4.014   2.138 -0.7077  0.0507 -0.7214
 1228SOL    MW4 4987   0.007   4.007   2.224 -0.2527  0.3476 -0.6454
 1229SOL     OW 4988   0.051   4.274   2.331  0.3145 -0.4549 -0.3012
 1229SOL    HW2 4989   0.049   4.281   2.427 -1.4971  0.9074 -0.4223
 1229SOL    HW3 4990   0.134   4.316   2.307 -0.6059  1.9402  0.4969
 1229SOL    MW4 4991   0.062   4.281   2.341 -0.0459  0.0405 -0.2122
 1230SOL     OW 4992   0.264   4.404   2.231 -0.3289 -0.1665 -0.1262
 1230SOL    HW2 4993   0.327   4.362   2.291  0.3954  0.5560 -0.3699
 1230SOL    HW3 4994   0.244   4.487   2.273 -1.0889 -0.3755 -0.0799
 1230SOL    MW4 4995   0.270   4.409   2.245 -0.3336 -0.0987 -0.1521
 1231SOL     OW 4996   0.679   0.019   2.322  0.5263 -0.7230 -0.0579
 1231SOL    HW2 4997   0.666   0.012   2.417 -0.5732  0.5247 -0.0901
 1231SOL    HW3 4998   0.769   0.048   2.312  0.2809  0.3669  0.6895
 1231SOL    MW4 4999   0.689   0.022   2.333  0.3488 -0.4146  0.0367
 1232SOL     OW 5000   0.437   0.117   2.221 -0.4897 -0.6592  0.2276
 1232SOL    HW2 5001   0.522   0.085   2.250 -0.4329  0.8194  1.7555
 1232SOL    HW3 5002   0.441   0.114   2.125  1.2417 -0.6985  0.2979
 1232SOL    MW4 5003   0.449   0.112   2.212 -0.2538 -0.4693  0.4385
 1233SOL     OW 5004   0.457   0.400   2.293 -0.0228 -0.1943  0.0545
 1233SOL    HW2 5005   0.479   0.385   2.385  0.1137 -0.4695 -0.0223
 1233SOL    HW3 5006   0.443   0.312   2.257 -1.5410 -0.0143  0.1718
 1233SOL    MW4 5007   0.458   0.386   2.300 -0.2051 -0.2069  0.0598
 1234SOL     OW 5008   0.693   0.524   2.219 -0.5896 -0.1443 -0.0558
 1234SOL    HW2 5009   0.681   0.610   2.258 -0.3499 -0.0266 -0.2461
 1234SOL    HW3 5010   0.619   0.473   2.252 -1.2525  0.4011 -0.7061
 1234SOL    MW4 5011   0.682   0.528   2.229 -0.6455 -0.0567 -0.1669
 1235SOL     OW 5012   0.690   0.762   2.363 -0.2522  0.2946  0.0380
 1235SOL    HW2 5013   0.684   0.751   2.458  1.6295 -0.1392  0.1069
 1235SOL    HW3 5014   0.620   0.825   2.343 -1.2423 -0.2724  1.5730
 1235SOL    MW4 5015   0.680   0.769   2.373 -0.1346  0.1627  0.2496
 1236SOL     OW 5016   0.469   0.909   2.265 -0.7390  0.1012 -0.0715
 1236SOL    HW2 5017   0.385   0.867   2.285 -0.8347 -0.3233 -1.2932
 1236SOL    HW3 5018   0.480   0.896   2.171  0.4235  0.6659 -0.0221
 1236SOL    MW4 5019   0.459   0.902   2.255 -0.5982  0.1197 -0.2260
 1237SOL     OW 5020   0.437   1.165   2.334  0.3664  0.0709  0.2880
 1237SOL    HW2 5021   0.435   1.071   2.313  1.0262  0.3009 -0.8301
 1237SOL    HW3 5022   0.354   1.199   2.302  0.9912  0.2483 -1.1779
 1237SOL    MW4 5023   0.426   1.157   2.327  0.5359  0.1248 -0.0532
 1238SOL     OW 5024   0.674   1.279   2.269 -0.1367  0.1690 -0.0651
 1238SOL    HW2 5025   0.672   1.361   2.317  0.1261  0.4719 -0.5626
 1238SOL    HW3 5026   0.591   1.236   2.291  0.1745  0.0987  0.9939
 1238SOL    MW4 5027   0.662   1.284   2.278 -0.0610  0.1998  0.0091
 1239SOL     OW 5028   0.693   1.540   2.388  0.1696 -0.0578  0.0877
 1239SOL    HW2 5029   0.685   1.561   2.481 -0.6437  1.0203 -0.2150
 1239SOL    HW3 5030   0.773   1.585   2.360  0.4427 -0.4246  0.2706
 1239SOL    MW4 5031   0.702   1.549   2.397  0.0983  0.0361  0.0720
 1240SOL     OW 5032   0.474   1.653   2.247  0.0639  0.4106 -0.1695
 1240SOL    HW2 5033   0.550   1.610   2.286 -0.0050  0.3213 -0.1355
 1240SOL    HW3 5034   0.399   1.612   2.288 -0.0472 -0.7203 -1.4485
 1240SOL    MW4 5035   0.474   1.642   2.257  0.0402  0.2495 -0.3338
 1241SOL     OW 5036   0.407   1.926   2.351 -0.1210  0.6579  0.3918
 1241SOL    HW2 5037   0.487   1.975   2.334  0.7748 -0.3065  1.6912
 1241SOL    HW3 5038   0.432   1.834   2.343 -0.6555  0.2920  2.4357
 1241SOL    MW4 5039   0.421   1.920   2.348 -0.0733  0.4824  0.8330
 1242SOL     OW 5040   0.646   2.061   2.263 -0.2769  0.4853 -0.2767
 1242SOL    HW2 5041   0.727   2.025   2.300 -0.4483 -0.0831 -0.4548
 1242SOL    HW3 5042   0.648   2.153   2.288  0.2783  0.4079 -0.0170
 1242SOL    MW4 5043   0.657   2.068   2.271 -0.2263  0.4001 -0.2658
 1243SOL     OW 5044   0.641   2.334   2.367 -0.0646  0.0379 -0.0485
 1243SOL    HW2 5045   0.637   2.318   2.461 -1.3590  1.0386  0.0836
 1243SOL    HW3 5046   0.724   2.380   2.354 -1.1170  2.3481  1.0166
 1243SOL    MW4 5047   0.652   2.338   2.378 -0.3742  0.4747  0.1092
 1244SOL     OW 5048   0.423   2.453   2.219 -0.3758 -0.0238 -0.1639
 1244SOL    HW2 5049   0.498   2.409   2.259 -0.8193 -1.0945 -0.4965
 1244SOL    HW3 5050   0.349   2.427   2.273 -0.6059  0.5519 -0.1953
 1244SOL    MW4 5051   0.423   2.444   2.232 -0.4647 -0.0894 -0.2120
 1245SOL     OW 5052   0.441   2.712   2.329  0.2141  0.3339  0.1848
 1245SOL    HW2 5053   0.436   2.694   2.423 -1.3090  0.0147  0.0641
 1245SOL    HW3 5054   0.452   2.625   2.289 -0.7551  0.3082 -0.0263
 1245SOL    MW4 5055   0.442   2.698   2.336 -0.1147  0.2885  0.1411
 1246SOL     OW 5056   0.692   2.820   2.251 -0.1237  0.0404 -0.3194
 1246SOL    HW2 5057   0.764   2.776   2.297 -0.2135 -0.0180 -0.2327
 1246SOL    HW3 5058   0.614   2.774   2.282 -0.0172 -1.4887 -2.2493
 1246SOL    MW4 5059   0.691   2.808   2.261 -0.1215 -0.1690 -0.5624
 1247SOL     OW 5060   0.716   3.075   2.361  0.1761  0.1562  0.1703
 1247SOL    HW2 5061   0.631   3.108   2.334  0.3170 -0.2813 -0.8217
 1247SOL    HW3 5062   0.711   2.980   2.348  0.2421 -0.0751  1.6987
 1247SOL    MW4 5063   0.704   3.067   2.356  0.2033  0.0679  0.2408
 1248SOL     OW 5064   0.480   3.176   2.270  0.1470  0.0592  0.1250
 1248SOL    HW2 5065   0.388   3.164   2.295  0.0925 -0.5642 -0.3542
 1248SOL    HW3 5066   0.477   3.188   2.175  0.6059 -0.4768  0.0441
 1248SOL    MW4 5067   0.467   3.176   2.261  0.2004 -0.0935  0.0513
 1249SOL     OW 5068   0.422   3.439   2.393  0.2324  0.0826 -0.2466
 1249SOL    HW2 5069   0.491   3.494   2.356  0.2793 -0.3939 -0.8689
 1249SOL    HW3 5070   0.442   3.351   2.363 -0.1767 -0.1895  0.2646
 1249SOL    MW4 5071   0.433   3.435   2.384  0.1846 -0.0160 -0.2611
 1250SOL     OW 5072   0.624   3.607   2.268 -0.0781  0.6797 -0.6520
 1250SOL    HW2 5073   0.639   3.700   2.288 -0.8771  0.8556 -0.8407
 1250SOL    HW3 5074   0.633   3.601   2.173 -1.9721  0.9493 -0.8644
 1250SOL    MW4 5075   0.627   3.619   2.258 -0.4335  0.7384 -0.7052
 1251SOL     OW 5076   0.684   3.868   2.355  0.4518 -0.1782  0.1599
 1251SOL    HW2 5077   0.684   3.855   2.450  0.4136  0.4908  0.2562
 1251SOL    HW3 5078   0.609   3.926   2.339 -0.0370 -0.9455 -0.3759
 1251SOL    MW4 5079   0.674   3.874   2.365  0.3822 -0.1910  0.1020
 1252SOL     OW 5080   0.455   4.016   2.307 -0.8326  0.5925  0.3475
 1252SOL    HW2 5081   0.377   3.965   2.329 -1.7017  1.9055  0.3418
 1252SOL    HW3 5082   0.473   3.994   2.215 -0.9789  0.0051  0.4603
 1252SOL    MW4 5083   0.447   4.006   2.298 -0.9666  0.6881  0.3617
 1253SOL     OW 5084   0.453   4.275   2.381 -0.2739  0.7000 -0.3486
 1253SOL    HW2 5085   0.534   4.312   2.345  0.2850  0.3985  0.5946
 1253SOL    HW3 5086   0.455   4.183   2.354 -0.5907  0.8312 -0.8244
 1253SOL    MW4 5087   0.464   4.268   2.373 -0.2420  0.6771 -0.2868
 1254SOL     OW 5088   0.679   4.422   2.275  0.0683  0.0133  0.2117
 1254SOL    HW2 5089   0.676   4.515   2.298 -1.8748  0.3934 -1.4542
 1254SOL    HW3 5090   0.685   4.421   2.179  0.0425 -1.5914  0.2076
 1254SOL    MW4 5091   0.680   4.434   2.265 -0.1914 -0.1483 -0.0088
 1255SOL     OW 5092   1.142   4.647   2.351 -0.2835 -0.0591 -0.4186
 1255SOL    HW2 5093   1.153   4.662   2.445 -0.6578 -0.4328 -0.3116
 1255SOL    HW3 5094   1.064   4.698   2.329  1.1074  1.8886 -0.9962
 1255SOL    MW4 5095   1.133   4.656   2.361 -0.1496  0.1483 -0.4807
 1256SOL     OW 5096   0.917   0.128   2.272 -0.0372  0.2670  0.7040
 1256SOL    HW2 5097   0.922   0.214   2.314  0.3333  0.6530 -0.1122
 1256SOL    HW3 5098   0.925   0.147   2.178  0.3483 -0.6803  0.5388
 1256SOL    MW4 5099   0.919   0.142   2.265  0.0625  0.1930  0.5744
 1257SOL     OW 5100   0.905   0.387   2.350  0.1920 -0.0668 -0.3996
 1257SOL    HW2 5101   0.990   0.422   2.326  0.2323  0.5124  0.5412
 1257SOL    HW3 5102   0.842   0.439   2.298  0.2542  1.4086  0.9525
 1257SOL    MW4 5103   0.908   0.399   2.340  0.2055  0.2042 -0.0970
 1258SOL     OW 5104   1.130   0.505   2.255  0.0066  0.0005 -0.0617
 1258SOL    HW2 5105   1.210   0.466   2.291  0.4142 -1.1022 -2.1117
 1258SOL    HW3 5106   1.143   0.503   2.161 -1.0883  2.7686 -0.3106
 1258SOL    MW4 5107   1.142   0.500   2.248 -0.0842  0.2202 -0.3650
 1259SOL     OW 5108   1.169   0.752   2.343  0.5561 -0.2709 -0.1658
 1259SOL    HW2 5109   1.090   0.802   2.322  0.2074 -0.1507  1.3704
 1259SOL    HW3 5110   1.150   0.663   2.315  0.2227 -0.0548 -0.6327
 1259SOL    MW4 5111   1.156   0.747   2.337  0.4661 -0.2266 -0.0246
 1260SOL     OW 5112   0.919   0.857   2.218  0.3177 -0.4256 -0.0032
 1260SOL    HW2 5113   0.926   0.945   2.255 -1.8406  0.0360 -0.6022
 1260SOL    HW3 5114   0.841   0.820   2.260  1.2309 -2.0846  0.2751
 1260SOL    MW4 5115   0.910   0.864   2.229  0.1535 -0.5835 -0.0455
 1261SOL     OW 5116   0.903   1.128   2.336 -0.0663 -0.0095 -0.3113
 1261SOL    HW2 5117   0.972   1.189   2.314  0.7349  0.3476  2.9992
 1261SOL    HW3 5118   0.823   1.167   2.299  0.7227  2.1094  0.1797
 1261SOL    MW4 5119   0.901   1.141   2.329  0.1436  0.3172  0.1903
 1262SOL     OW 5120   1.121   1.309   2.282 -0.0566 -0.2607  0.1538
 1262SOL    HW2 5121   1.191   1.259   2.324  1.0508  1.7481  0.7536
 1262SOL    HW3 5122   1.126   1.285   2.190  0.4719 -1.2438  0.4314
 1262SOL    MW4 5123   1.131   1.299   2.275  0.1594 -0.1254  0.2694
 1263SOL     OW 5124   1.145   1.583   2.367  0.3318  0.0074 -0.1129
 1263SOL    HW2 5125   1.077   1.638   2.327  0.5507  0.9712  0.8268
 1263SOL    HW3 5126   1.124   1.494   2.338  0.4054  0.6680 -2.2775
 1263SOL    MW4 5127   1.133   1.579   2.358  0.3704  0.2218 -0.2747
 1264SOL     OW 5128   0.909   1.687   2.268 -0.1120 -0.0342  0.2659
 1264SOL    HW2 5129   0.918   1.778   2.294  1.7911  0.0370 -0.5381
 1264SOL    HW3 5130   0.918   1.688   2.173 -0.6905 -0.9896  0.1968
 1264SOL    MW4 5131   0.912   1.699   2.259  0.0627 -0.1510  0.1507
 1265SOL     OW 5132   0.885   1.963   2.368 -0.2110  0.7764 -0.3330
 1265SOL    HW2 5133   0.882   1.946   2.463  1.2638  0.3023 -0.3543
 1265SOL    HW3 5134   0.967   2.010   2.355  0.0320  0.0404 -1.4928
 1265SOL    MW4 5135   0.895   1.967   2.379  0.0157  0.6167 -0.4890
 1266SOL     OW 5136   1.129   2.089   2.271 -0.3766  0.0867 -0.0426
 1266SOL    HW2 5137   1.204   2.045   2.311 -0.2943  0.0352 -0.2571
 1266SOL    HW3 5138   1.142   2.078   2.177 -0.8815 -0.3132 -0.0695
 1266SOL    MW4 5139   1.140   2.082   2.264 -0.4324  0.0269 -0.0746
 1267SOL     OW 5140   1.121   2.360   2.313  0.0613  0.4876 -0.0950
 1267SOL    HW2 5141   1.203   2.409   2.325  0.3451 -0.3421  1.4045
 1267SOL    HW3 5142   1.149   2.271   2.293 -0.4777  0.4562 -0.7346
 1267SOL    MW4 5143   1.136   2.355   2.312  0.0277  0.3743  0.0186
 1268SOL     OW 5144   0.869   2.454   2.256 -0.0531 -0.2526  0.2930
 1268SOL    HW2 5145   0.959   2.423   2.272  0.5120  1.8128  1.1939
 1268SOL    HW3 5146   0.865   2.465   2.161 -0.4073 -3.4019 -0.1330
 1268SOL    MW4 5147   0.880   2.451   2.246 -0.0253 -0.3955  0.3555
 1269SOL     OW 5148   0.911   2.704   2.374 -0.5390 -0.3959  0.5172
 1269SOL    HW2 5149   0.888   2.698   2.467  0.5242 -0.9690  0.7494
 1269SOL    HW3 5150   0.898   2.615   2.341  1.4982 -0.7710  0.6935
 1269SOL    MW4 5151   0.906   2.691   2.382 -0.1299 -0.5212  0.5710
 1270SOL     OW 5152   1.102   2.855   2.255 -0.2375 -0.5838  0.1482
 1270SOL    HW2 5153   1.190   2.824   2.277 -0.0303  0.1105  0.2969
 1270SOL    HW3 5154   1.044   2.795   2.302  0.1483 -1.2063 -0.1628
 1270SOL    MW4 5155   1.106   2.843   2.264 -0.1593 -0.5744  0.1266
 1271SOL     OW 5156   1.100   3.113   2.358 -0.4597 -0.0039 -0.4765
 1271SOL    HW2 5157   1.025   3.159   2.321 -0.2742  0.4132 -0.3315
 1271SOL    HW3 5158   1.093   3.025   2.321  0.2501  0.6575 -2.2664
 1271SOL    MW4 5159   1.089   3.107   2.348 -0.3418  0.1385 -0.6938
 1272SOL     OW 5160   0.895   3.234   2.226  0.0252 -0.2467  0.4317
 1272SOL    HW2 5161   0.871   3.322   2.257 -0.2374 -0.2992  0.3706
 1272SOL    HW3 5162   0.827   3.177   2.260 -0.3169 -0.2939 -0.3330
 1272SOL    MW4 5163   0.883   3.238   2.235 -0.0546 -0.2601  0.3228
 1273SOL     OW 5164   0.849   3.473   2.352 -0.0109  0.0160 -0.2050
 1273SOL    HW2 5165   0.858   3.465   2.447 -1.4274 -2.4284 -0.2180
 1273SOL    HW3 5166   0.770   3.526   2.340  1.3488  2.1313 -0.0579
 1273SOL    MW4 5167   0.840   3.479   2.363 -0.0184 -0.0277 -0.1872
 1274SOL     OW 5168   1.075   3.576   2.240  0.5521 -1.3352  0.5161
 1274SOL    HW2 5169   1.154   3.528   2.266  0.6409 -0.6395  1.5256
 1274SOL    HW3 5170   1.006   3.541   2.296  0.2908 -1.3888  0.1666
 1274SOL    MW4 5171   1.077   3.565   2.251  0.5294 -1.2505  0.6034
 1275SOL     OW 5172   1.131   3.849   2.319  0.2167 -0.1754 -0.3990
 1275SOL    HW2 5173   1.212   3.898   2.305 -0.6577  1.2330 -0.5310
 1275SOL    HW3 5174   1.151   3.761   2.287  1.3014  0.4919 -1.6005
 1275SOL    MW4 5175   1.145   3.844   2.313  0.2445  0.0985 -0.5748
 1276SOL     OW 5176   0.907   3.999   2.264  0.0148  0.3804  0.0716
 1276SOL    HW2 5177   0.982   3.942   2.281 -0.4136 -0.3633 -0.4729
 1276SOL    HW3 5178   0.833   3.952   2.302 -0.3239  0.6361 -0.2762
 1276SOL    MW4 5179   0.907   3.985   2.271 -0.0864  0.3159 -0.0460
 1277SOL     OW 5180   0.887   4.265   2.375  0.1866 -0.6504 -0.1066
 1277SOL    HW2 5181   0.895   4.178   2.335 -0.0890 -0.2131 -1.1432
 1277SOL    HW3 5182   0.819   4.309   2.324 -0.6996 -0.3308  1.3473
 1277SOL    MW4 5183   0.879   4.259   2.363  0.0333 -0.5503 -0.0515
 1278SOL     OW 5184   1.119   4.387   2.285  0.0034  0.5761  0.6375
 1278SOL    HW2 5185   1.048   4.351   2.338  0.3676 -0.8595  0.1592
 1278SOL    HW3 5186   1.126   4.478   2.314 -1.7505  0.6245  0.9881
 1278SOL    MW4 5187   1.111   4.394   2.296 -0.1799  0.3934  0.6206
 1279SOL     OW 5188   1.631   4.642   2.367 -0.1978 -0.1317 -0.0715
 1279SOL    HW2 5189   1.707   4.687   2.332 -0.8730  2.1796  1.3152
 1279SOL    HW3 5190   1.556   4.681   2.322 -0.7243 -0.4830  0.4813
 1279SOL    MW4 5191   1.631   4.653   2.357 -0.3563  0.1269  0.1843
 1280SOL     OW 5192   1.385   0.094   2.277 -0.5238 -0.4577 -0.6126
 1280SOL    HW2 5193   1.389   0.187   2.302  0.3186 -1.0930  1.7818
 1280SOL    HW3 5194   1.307   0.061   2.321 -0.0857 -1.1820 -0.3825
 1280SOL    MW4 5195   1.376   0.102   2.286 -0.3550 -0.6371 -0.2661
 1281SOL     OW 5196   1.341   0.374   2.350  0.1252 -0.3613 -0.0848
 1281SOL    HW2 5197   1.354   0.358   2.443 -0.2775 -0.2204 -0.0042
 1281SOL    HW3 5198   1.416   0.427   2.324 -0.6508  1.0667  0.5385
 1281SOL    MW4 5199   1.353   0.379   2.359 -0.0303 -0.1543  0.0079
 1282SOL     OW 5200   1.586   0.485   2.243 -0.1689  0.2403  0.6182
 1282SOL    HW2 5201   1.665   0.435   2.263 -0.3627  0.4374  1.8829
 1282SOL    HW3 5202   1.575   0.474   2.148  2.4136  1.7398  0.0854
 1282SOL    MW4 5203   1.595   0.477   2.233  0.1463  0.4641  0.7150
 1283SOL     OW 5204   1.565   0.724   2.400 -0.1214  0.0528 -0.6632
 1283SOL    HW2 5205   1.645   0.755   2.356 -0.0329 -0.0420 -0.5667
 1283SOL    HW3 5206   1.550   0.637   2.365  1.1480 -0.8950  1.0851
 1283SOL    MW4 5207   1.574   0.717   2.389  0.0578 -0.0847 -0.4196
 1284SOL     OW 5208   1.388   0.885   2.266  0.4482  0.1606 -0.7242
 1284SOL    HW2 5209   1.456   0.832   2.309  0.5025  0.1223 -0.8567
 1284SOL    HW3 5210   1.306   0.846   2.295  0.4452  1.3055  0.8439
 1284SOL    MW4 5211   1.386   0.873   2.275  0.4549  0.3066 -0.5348
 1285SOL     OW 5212   1.363   1.161   2.368 -0.1462 -0.3394  0.3172
 1285SOL    HW2 5213   1.357   1.172   2.463 -0.1388  0.5487  0.2201
 1285SOL    HW3 5214   1.359   1.067   2.355  0.4543 -0.5116  1.2467
 1285SOL    MW4 5215   1.362   1.150   2.379 -0.0659 -0.2449  0.4270
 1286SOL     OW 5216   1.601   1.245   2.269  0.2059 -0.0838 -0.2441
 1286SOL    HW2 5217   1.517   1.209   2.299 -0.0946  1.7751  1.2657
 1286SOL    HW3 5218   1.588   1.262   2.176 -0.6959 -0.9068 -0.2830
 1286SOL    MW4 5219   1.588   1.243   2.261  0.0473  0.0529 -0.0498
 1287SOL     OW 5220   1.605   1.535   2.337  0.1093 -0.0942  0.1887
 1287SOL    HW2 5221   1.688   1.570   2.305  0.6084 -0.6603  0.8516
 1287SOL    HW3 5222   1.602   1.445   2.302  0.1333 -0.3303  0.7847
 1287SOL    MW4 5223   1.616   1.527   2.328  0.1783 -0.2000  0.3548
 1288SOL     OW 5224   1.359   1.699   2.264 -0.0786  0.1848 -0.2581
 1288SOL    HW2 5225   1.433   1.653   2.304 -0.2845  0.1942  0.1460
 1288SOL    HW3 5226   1.282   1.665   2.311 -0.1082  2.0567  1.1303
 1288SOL    MW4 5227   1.359   1.689   2.276 -0.1098  0.4328 -0.0215
 1289SOL     OW 5228   1.336   1.952   2.371 -0.4468 -0.6198  0.4117
 1289SOL    HW2 5229   1.416   1.994   2.338  0.0942 -0.7735  1.5221
 1289SOL    HW3 5230   1.339   1.864   2.334  0.3938 -0.9399  1.2253
 1289SOL    MW4 5231   1.347   1.946   2.361 -0.2645 -0.6824  0.6657
 1290SOL     OW 5232   1.580   2.057   2.245  0.3309 -0.1824 -0.2314
 1290SOL    HW2 5233   1.661   2.012   2.268  0.5901  0.1506 -0.4831
 1290SOL    HW3 5234   1.578   2.054   2.149  0.1027 -0.0951 -0.2285
 1290SOL    MW4 5235   1.591   2.051   2.235  0.3350 -0.1268 -0.2642
 1291SOL     OW 5236   1.592   2.320   2.339  0.5512 -0.6623  0.1826
 1291SOL    HW2 5237   1.582   2.324   2.434  0.2629 -0.5539  0.1488
 1291SOL    HW3 5238   1.587   2.227   2.318 -2.6924 -0.4812 -0.0731
 1291SOL    MW4 5239   1.590   2.308   2.349  0.0852 -0.6239  0.1445
 1292SOL     OW 5240   1.373   2.471   2.259 -0.3402  0.0811 -0.1361
 1292SOL    HW2 5241   1.443   2.412   2.287  0.0606 -0.0957 -1.4865
 1292SOL    HW3 5242   1.380   2.472   2.163 -1.3424  1.0959 -0.1971
 1292SOL    MW4 5243   1.383   2.463   2.250 -0.4196  0.1917 -0.3223
 1293SOL     OW 5244   1.340   2.745   2.323 -0.4239 -0.8692 -0.0551
 1293SOL    HW2 5245   1.425   2.785   2.307 -0.6806 -0.2714  0.0676
 1293SOL    HW3 5246   1.356   2.651   2.317  0.1577 -0.7456 -0.4595
 1293SOL    MW4 5247   1.353   2.738   2.320 -0.3811 -0.7741 -0.0925
 1294SOL     OW 5248   1.581   2.882   2.222  0.4870 -0.2614 -0.2055
 1294SOL    HW2 5249   1.580   2.970   2.259  2.1503 -0.2255 -0.2360
 1294SOL    HW3 5250   1.578   2.896   2.127 -0.6187 -0.2787 -0.1784
 1294SOL    MW4 5251   1.580   2.895   2.214  0.5604 -0.2587 -0.2060
 1295SOL     OW 5252   1.576   3.159   2.311  0.1785 -0.2279 -0.3198
 1295SOL    HW2 5253   1.570   3.126   2.401 -0.0406  1.3770  0.2783
 1295SOL    HW3 5254   1.487   3.184   2.289  0.4805  0.7511 -0.4453
 1295SOL    MW4 5255   1.564   3.158   2.320  0.1894  0.1130 -0.2575
 1296SOL     OW 5256   1.308   3.267   2.229 -0.2682 -0.6352  0.2246
 1296SOL    HW2 5257   1.233   3.215   2.257  0.3250 -1.1615  0.8520
 1296SOL    HW3 5258   1.311   3.256   2.134 -1.0718 -0.4876  0.1794
 1296SOL    MW4 5259   1.298   3.258   2.220 -0.2958 -0.6850  0.3016
 1297SOL     OW 5260   1.326   3.510   2.339  0.0308  0.4955 -0.1027
 1297SOL    HW2 5261   1.329   3.500   2.434 -2.1437  0.8322  0.0254
 1297SOL    HW3 5262   1.324   3.421   2.305 -0.0963  0.3741  0.2223
 1297SOL    MW4 5263   1.326   3.497   2.347 -0.2728  0.5238 -0.0432
 1298SOL     OW 5264   1.560   3.600   2.230 -0.3560  0.3239 -0.7144
 1298SOL    HW2 5265   1.579   3.683   2.274  0.3060 -0.5239  0.6455
 1298SOL    HW3 5266   1.484   3.565   2.277 -0.3586 -0.0414 -0.9890
 1298SOL    MW4 5267   1.553   3.606   2.242 -0.2691  0.1638 -0.5715
 1299SOL     OW 5268   1.597   3.868   2.330  0.0647  0.4247  0.3933
 1299SOL    HW2 5269   1.609   3.882   2.424 -1.0243  1.1157  0.4293
 1299SOL    HW3 5270   1.667   3.919   2.290 -0.3798  1.3381  0.7693
 1299SOL    MW4 5271   1.608   3.876   2.337 -0.1376  0.6363  0.4475
 1300SOL     OW 5272   1.343   4.010   2.276  0.3542  0.4588  0.0153
 1300SOL    HW2 5273   1.425   3.962   2.293  0.8305  0.6357 -1.7130
 1300SOL    HW3 5274   1.329   4.000   2.182 -1.4610  0.6994  0.2568
 1300SOL    MW4 5275   1.352   4.003   2.266  0.1776  0.5140 -0.1807
 1301SOL     OW 5276   1.364   4.277   2.330  0.6279 -0.0702  0.5120
 1301SOL    HW2 5277   1.364   4.185   2.304  0.9422 -0.0485  0.4431
 1301SOL    HW3 5278   1.273   4.305   2.315  0.8719  0.0323 -0.8442
 1301SOL    MW4 5279   1.352   4.268   2.325  0.7015 -0.0539  0.3240
 1302SOL     OW 5280   1.600   4.390   2.235  0.4305 -0.2946  0.2258
 1302SOL    HW2 5281   1.514   4.359   2.264  1.2665 -1.6829  1.2859
 1302SOL    HW3 5282   1.613   4.471   2.283  0.6057 -1.1556  1.6625
 1302SOL    MW4 5283   1.590   4.396   2.245  0.5640 -0.5913  0.5553
 1303SOL     OW 5284   2.087   4.663   2.372  0.0270  0.5054 -0.4568
 1303SOL    HW2 5285   2.149   4.708   2.315 -0.5354  0.7786 -0.8489
 1303SOL    HW3 5286   2.092   4.571   2.345 -1.6672  0.9171 -2.2816
 1303SOL    MW4 5287   2.096   4.657   2.361 -0.2711  0.5956 -0.7491
 1304SOL     OW 5288   1.852   0.094   2.258 -0.5472  0.4035  0.0120
 1304SOL    HW2 5289   1.862   0.186   2.280  1.8151  0.1746 -0.0274
 1304SOL    HW3 5290   1.930   0.051   2.292 -0.8702 -1.3423 -1.3078
 1304SOL    MW4 5291   1.863   0.100   2.265 -0.2781  0.1430 -0.1674
 1305SOL     OW 5292   1.816   0.351   2.306 -0.5900 -0.4097 -0.4439
 1305SOL    HW2 5293   1.822   0.356   2.402  1.0249 -0.0328 -0.5497
 1305SOL    HW3 5294   1.891   0.403   2.275 -0.8023 -0.9659 -1.9083
 1305SOL    MW4 5295   1.827   0.359   2.315 -0.4051 -0.4334 -0.6509
 1306SOL     OW 5296   2.041   0.502   2.258  0.1823 -0.0616  0.0532
 1306SOL    HW2 5297   1.999   0.581   2.291  0.9772  0.5368 -0.3433
 1306SOL    HW3 5298   2.061   0.523   2.166  1.2870 -0.3517  0.2191
 1306SOL    MW4 5299   2.038   0.515   2.250  0.4332 -0.0209  0.0226
 1307SOL     OW 5300   2.011   0.740   2.361 -0.7780  0.2522  0.0262
 1307SOL    HW2 5301   2.066   0.791   2.302  0.3569  0.0703  0.9122
 1307SOL    HW3 5302   1.924   0.779   2.353 -0.4093  0.8694 -1.0018
 1307SOL    MW4 5303   2.006   0.752   2.352 -0.5796  0.3096  0.0079
 1308SOL     OW 5304   1.772   0.868   2.297 -0.9887  0.2387  0.3337
 1308SOL    HW2 5305   1.788   0.960   2.319  0.6413 -0.2867  1.4340
 1308SOL    HW3 5306   1.791   0.862   2.203 -1.3782  1.0943  0.2015
 1308SOL    MW4 5307   1.777   0.879   2.288 -0.8250  0.2822  0.4613
 1309SOL     OW 5308   1.833   1.147   2.361  0.1006 -0.0934  0.3194
 1309SOL    HW2 5309   1.897   1.206   2.320  0.7456 -1.5660 -0.8510
 1309SOL    HW3 5310   1.749   1.173   2.323  0.3182  0.4077  0.1824
 1309SOL    MW4 5311   1.830   1.158   2.350  0.2143 -0.2215  0.1466
 1310SOL     OW 5312   2.028   1.308   2.245 -0.1672  0.1504 -0.3499
 1310SOL    HW2 5313   2.044   1.397   2.275  0.0374  0.3802 -1.1370
 1310SOL    HW3 5314   2.022   1.315   2.150  3.4038 -1.1997 -0.7275
 1310SOL    MW4 5315   2.029   1.320   2.237  0.3309  0.0025 -0.5033
 1311SOL     OW 5316   2.066   1.574   2.353  0.3193 -0.3540 -0.0729
 1311SOL    HW2 5317   2.064   1.580   2.448  0.7076 -0.0432 -0.0792
 1311SOL    HW3 5318   1.984   1.613   2.324  0.8654  0.9561  0.0803
 1311SOL    MW4 5319   2.055   1.580   2.361  0.4425 -0.1401 -0.0534
 1312SOL     OW 5320   1.849   1.680   2.235 -0.1986  0.2071  0.2056
 1312SOL    HW2 5321   1.839   1.761   2.284 -0.2038  0.5235 -0.3160
 1312SOL    HW3 5322   1.808   1.698   2.151  0.3708 -0.1240 -0.1454
 1312SOL    MW4 5323   1.842   1.693   2.231 -0.1241  0.2052  0.0904
 1313SOL     OW 5324   1.794   1.935   2.370  0.1224 -0.0456 -0.2675
 1313SOL    HW2 5325   1.787   1.942   2.465 -1.2794 -0.7140 -0.3056
 1313SOL    HW3 5326   1.874   1.982   2.348  0.9083 -0.6006  1.3316
 1313SOL    MW4 5327   1.803   1.942   2.379  0.0411 -0.2071 -0.0615
 1314SOL     OW 5328   2.011   2.047   2.266 -0.2745 -0.1008 -0.0194
 1314SOL    HW2 5329   2.088   2.002   2.300 -0.1682 -0.6098 -0.9054
 1314SOL    HW3 5330   2.017   2.035   2.171 -1.3068  0.0771 -0.1116
 1314SOL    MW4 5331   2.022   2.039   2.258 -0.3967 -0.1445 -0.1483
 1315SOL     OW 5332   1.980   2.302   2.345 -0.1577 -0.3878 -0.1810
 1315SOL    HW2 5333   2.063   2.341   2.317  1.0311 -0.8180  2.5326
 1315SOL    HW3 5334   1.991   2.208   2.329 -0.4421 -0.3457 -0.6126
 1315SOL    MW4 5335   1.993   2.294   2.339 -0.0384 -0.4392  0.1199
 1316SOL     OW 5336   1.800   2.465   2.228  0.1848 -0.1650  0.2721
 1316SOL    HW2 5337   1.865   2.404   2.261 -0.7377 -1.3685 -0.0755
 1316SOL    HW3 5338   1.716   2.421   2.244 -0.3302 -0.5125 -3.0297
 1316SOL    MW4 5339   1.797   2.451   2.234 -0.0048 -0.3698 -0.2093
 1317SOL     OW 5340   1.804   2.718   2.364 -0.3470 -0.3654  0.2414
 1317SOL    HW2 5341   1.807   2.628   2.330 -0.4682 -0.3325  0.1484
 1317SOL    HW3 5342   1.726   2.756   2.325  0.1265  0.0298 -0.3295
 1317SOL    MW4 5343   1.794   2.711   2.355 -0.3004 -0.3088  0.1540
 1318SOL     OW 5344   1.997   2.841   2.240 -0.4308 -0.1462  0.7493
 1318SOL    HW2 5345   2.074   2.802   2.282 -0.8760 -0.0471  1.6817
 1318SOL    HW3 5346   1.923   2.805   2.289 -0.9238  0.5817  0.5504
 1318SOL    MW4 5347   1.997   2.831   2.252 -0.5546 -0.0372  0.8461
 1319SOL     OW 5348   2.031   3.096   2.322 -0.8485  0.1057  0.1235
 1319SOL    HW2 5349   2.108   3.124   2.274 -1.3695 -0.6070 -1.1443
 1319SOL    HW3 5350   2.016   3.006   2.294 -2.3220  0.3420  0.0949
 1319SOL    MW4 5351   2.039   3.088   2.312 -1.1117  0.0429 -0.0477
 1320SOL     OW 5352   1.806   3.216   2.209 -0.2536 -0.4856  0.1961
 1320SOL    HW2 5353   1.879   3.177   2.257 -0.3087  0.0268  0.7076
 1320SOL    HW3 5354   1.728   3.190   2.259 -0.2782  0.3918  0.6240
 1320SOL    MW4 5355   1.805   3.207   2.222 -0.2640 -0.3023  0.3197
 1321SOL     OW 5356   1.796   3.490   2.293  0.3272  0.7558 -0.0068
 1321SOL    HW2 5357   1.793   3.399   2.266  0.6127  0.1328  1.9840
 1321SOL    HW3 5358   1.709   3.524   2.274 -0.3209 -0.4092  0.8019
 1321SOL    MW4 5359   1.784   3.483   2.287  0.2794  0.5200  0.3629
 1322SOL     OW 5360   2.014   3.661   2.232 -0.7779  0.3837 -0.3477
 1322SOL    HW2 5361   1.952   3.600   2.271  0.2954 -0.6987 -0.2980
 1322SOL    HW3 5362   2.009   3.644   2.138 -0.5953  0.3457 -0.3502
 1322SOL    MW4 5363   2.005   3.651   2.225 -0.6123  0.2356 -0.3414
 1323SOL     OW 5364   2.049   3.931   2.342 -0.0261 -0.0718  0.2136
 1323SOL    HW2 5365   2.019   3.919   2.432  1.1660 -0.9574  0.5050
 1323SOL    HW3 5366   2.040   3.844   2.302  0.8045 -0.0080 -0.1077
 1323SOL    MW4 5367   2.044   3.918   2.349  0.2406 -0.1802  0.2100
 1324SOL     OW 5368   1.805   4.019   2.252  0.6084  0.1367 -0.1685
 1324SOL    HW2 5369   1.894   3.995   2.280  0.4596 -0.4197 -0.1684
 1324SOL    HW3 5370   1.807   4.010   2.157  0.9539  1.4881 -0.2896
 1324SOL    MW4 5371   1.817   4.014   2.243  0.6342  0.2418 -0.1843
 1325SOL     OW 5372   1.815   4.281   2.355 -0.0147 -0.7642 -0.0582
 1325SOL    HW2 5373   1.813   4.197   2.308  1.0978 -0.5773 -0.4640
 1325SOL    HW3 5374   1.740   4.330   2.322 -0.7418 -1.6471  0.2694
 1325SOL    MW4 5375   1.805   4.276   2.344  0.0360 -0.8559 -0.0684
 1326SOL     OW 5376   2.041   4.412   2.270 -0.1680 -0.0022 -0.0508
 1326SOL    HW2 5377   1.969   4.363   2.309  0.2567  0.4364  1.3126
 1326SOL    HW3 5378   2.024   4.409   2.176 -1.1629 -1.1510  0.1538
 1326SOL    MW4 5379   2.029   4.405   2.263 -0.2434 -0.0954  0.1562
 1327SOL     OW 5380   2.504   0.033   2.343  0.8501  0.0064  0.0134
 1327SOL    HW2 5381   2.581   0.081   2.312  1.4706 -1.1501 -0.2715
 1327SOL    HW3 5382   2.510  -0.052   2.299 -0.9084  0.1146 -0.4643
 1327SOL    MW4 5383   2.515   0.028   2.333  0.7000 -0.1321 -0.0873
 1328SOL     OW 5384   2.285   0.180   2.242 -0.4059  0.5016 -0.2819
 1328SOL    HW2 5385   2.269   0.257   2.297  1.3389  0.8862 -0.2964
 1328SOL    HW3 5386   2.362   0.138   2.280 -1.4611 -1.3815 -0.1472
 1328SOL    MW4 5387   2.293   0.185   2.254 -0.3150  0.3039 -0.2658
 1329SOL     OW 5388   2.288   0.423   2.378 -0.2256  0.2573  0.4254
 1329SOL    HW2 5389   2.363   0.463   2.334  0.5157  0.2998  1.7072
 1329SOL    HW3 5390   2.212   0.463   2.335  0.4966  2.2027  0.8690
 1329SOL    MW4 5391   2.288   0.434   2.367 -0.0322  0.5196  0.6528
 1330SOL     OW 5392   2.495   0.543   2.225  0.2699 -0.5554  0.1608
 1330SOL    HW2 5393   2.570   0.492   2.253  0.9866 -0.0156 -0.7714
 1330SOL    HW3 5394   2.486   0.525   2.131 -0.8241 -0.7038  0.2853
 1330SOL    MW4 5395   2.503   0.534   2.216  0.2201 -0.5037  0.0541
 1331SOL     OW 5396   2.453   0.804   2.325  0.2059 -0.0381 -0.0776
 1331SOL    HW2 5397   2.530   0.854   2.298 -1.2641  1.7572 -1.0675
 1331SOL    HW3 5398   2.478   0.712   2.313  2.1882  0.5237 -0.3572
 1331SOL    MW4 5399   2.466   0.798   2.320  0.2735  0.2728 -0.2446
 1332SOL     OW 5400   2.218   0.877   2.213 -0.4637 -0.1811  0.2803
 1332SOL    HW2 5401   2.211   0.962   2.256  0.4368 -0.9847  2.0473
 1332SOL    HW3 5402   2.292   0.834   2.256 -1.9920 -2.5671  0.5823
 1332SOL    MW4 5403   2.227   0.883   2.224 -0.5465 -0.6019  0.5531
 1333SOL     OW 5404   2.234   1.145   2.334  0.3872 -0.0296 -0.2998
 1333SOL    HW2 5405   2.319   1.186   2.317 -0.5110  1.0630 -2.3218
 1333SOL    HW3 5406   2.171   1.205   2.294 -1.2515 -1.3723  0.2549
 1333SOL    MW4 5407   2.237   1.158   2.326  0.0527 -0.0625 -0.4933
 1334SOL     OW 5408   2.468   1.276   2.244  0.3141  0.5306 -0.0420
 1334SOL    HW2 5409   2.553   1.238   2.268  0.7395  1.6720  0.3083
 1334SOL    HW3 5410   2.470   1.363   2.283 -1.3560  0.2700  0.6508
 1334SOL    MW4 5411   2.480   1.282   2.253  0.1500  0.6467  0.0956
 1335SOL     OW 5412   2.463   1.524   2.339  0.4410  0.1067 -0.1632
 1335SOL    HW2 5413   2.464   1.544   2.433 -1.4251  0.1570 -0.1450
 1335SOL    HW3 5414   2.535   1.576   2.303  1.2719 -0.0404  1.2608
 1335SOL    MW4 5415   2.473   1.533   2.346  0.3045  0.0939  0.0272
 1336SOL     OW 5416   2.273   1.675   2.199 -0.2992  0.1171  0.1461
 1336SOL    HW2 5417   2.352   1.630   2.230  1.1883  3.3823  1.3613
 1336SOL    HW3 5418   2.203   1.642   2.256  1.0483  0.4899  2.0819
 1336SOL    MW4 5419   2.275   1.664   2.211  0.0751  0.5971  0.5620
 1337SOL     OW 5420   2.238   1.907   2.355 -0.2055  0.0907  0.1772
 1337SOL    HW2 5421   2.296   1.973   2.317  0.2688 -0.0573  0.6317
 1337SOL    HW3 5422   2.260   1.826   2.309  0.4824 -0.1223  0.8708
 1337SOL    MW4 5423   2.249   1.905   2.344 -0.0522  0.0432  0.3290
 1338SOL     OW 5424   2.429   2.061   2.192  0.0312  0.2431 -0.0846
 1338SOL    HW2 5425   2.511   2.021   2.223 -0.4999 -0.6429  0.1795
 1338SOL    HW3 5426   2.437   2.061   2.097  0.4461  0.4048 -0.0543
 1338SOL    MW4 5427   2.441   2.056   2.184  0.0160  0.1473 -0.0458
 1339SOL     OW 5428   2.472   2.316   2.341 -0.2340 -0.1374  0.0258
 1339SOL    HW2 5429   2.522   2.369   2.279 -2.1184  0.7264 -0.8086
 1339SOL    HW3 5430   2.460   2.232   2.297 -0.6408  0.1055 -0.3285
 1339SOL    MW4 5431   2.477   2.312   2.327 -0.5364  0.0088 -0.1309
 1340SOL     OW 5432   2.212   2.448   2.267 -0.2481  0.1819 -0.2750
 1340SOL    HW2 5433   2.214   2.528   2.320 -0.8331 -0.3185  0.5120
 1340SOL    HW3 5434   2.287   2.398   2.297 -0.0558  0.2956 -0.5595
 1340SOL    MW4 5435   2.222   2.452   2.278 -0.3002  0.1309 -0.2086
 1341SOL     OW 5436   2.227   2.726   2.363 -0.1359 -0.1195  0.1708
 1341SOL    HW2 5437   2.224   2.731   2.459  1.0405  3.6749  0.0844
 1341SOL    HW3 5438   2.309   2.768   2.339 -0.3753 -1.0873 -2.5233
 1341SOL    MW4 5439   2.237   2.732   2.372 -0.0122  0.2532 -0.1962
 1342SOL     OW 5440   2.450   2.811   2.248 -0.2109 -0.3507 -0.4876
 1342SOL    HW2 5441   2.530   2.769   2.278  0.0577 -0.2042 -0.9811
 1342SOL    HW3 5442   2.460   2.816   2.152 -0.9635 -0.6584 -0.5863
 1342SOL    MW4 5443   2.462   2.806   2.239 -0.2749 -0.3719 -0.5658
 1343SOL     OW 5444   2.466   3.075   2.332 -0.3554 -0.3156 -0.1342
 1343SOL    HW2 5445   2.544   3.115   2.294 -0.3729 -1.4135 -1.3763
 1343SOL    HW3 5446   2.471   2.982   2.306 -1.2941 -0.7061  1.0377
 1343SOL    MW4 5447   2.477   3.068   2.323 -0.4818 -0.5119 -0.1433
 1344SOL     OW 5448   2.246   3.205   2.180 -0.1023 -0.3330  0.0412
 1344SOL    HW2 5449   2.243   3.277   2.243  0.0029 -0.6454  0.4136
 1344SOL    HW3 5450   2.321   3.152   2.209  0.6913  0.1738 -1.0719
 1344SOL    MW4 5451   2.256   3.207   2.192  0.0162 -0.3073 -0.0565
 1345SOL     OW 5452   2.204   3.450   2.332  0.3738  0.0901 -0.2627
 1345SOL    HW2 5453   2.206   3.453   2.427 -2.7980 -2.1137 -0.0563
 1345SOL    HW3 5454   2.145   3.521   2.306  0.1108 -0.2202 -0.5165
 1345SOL    MW4 5455   2.196   3.460   2.341 -0.0789 -0.2415 -0.2689
 1346SOL     OW 5456   2.473   3.579   2.268  0.2720 -0.1759 -0.1776
 1346SOL    HW2 5457   2.468   3.671   2.294 -0.4457 -0.4725  0.8116
 1346SOL    HW3 5458   2.391   3.542   2.301  0.0516 -0.9196 -1.5641
 1346SOL    MW4 5459   2.461   3.586   2.276  0.1481 -0.3133 -0.2301
 1347SOL     OW 5460   2.489   3.846   2.301 -0.0061 -0.1400  0.5679
 1347SOL    HW2 5461   2.471   3.838   2.394 -0.2733 -1.6053  0.4041
 1347SOL    HW3 5462   2.418   3.900   2.267  0.0661  0.3570  1.1861
 1347SOL    MW4 5463   2.477   3.852   2.308 -0.0317 -0.2677  0.6278
 1348SOL     OW 5464   2.285   4.006   2.205 -0.2309  0.1396  0.0809
 1348SOL    HW2 5465   2.299   4.090   2.248  0.5030 -0.2952  0.6958
 1348SOL    HW3 5466   2.210   3.968   2.252 -0.5026  0.4066 -0.1355
 1348SOL    MW4 5467   2.277   4.012   2.217 -0.1698  0.1178  0.1335
 1349SOL     OW 5468   2.286   4.269   2.325  0.6227  0.3411 -0.2210
 1349SOL    HW2 5469   2.277   4.258   2.420 -0.6319  0.9481 -0.2547
 1349SOL    HW3 5470   2.198   4.294   2.296  0.4356 -2.0624 -1.8610
 1349SOL    MW4 5471   2.273   4.271   2.334  0.4325  0.1044 -0.4418
 1350SOL     OW 5472   2.505   4.432   2.215  0.4050  0.3718 -0.4054
 1350SOL    HW2 5473   2.575   4.381   2.256  0.2532 -0.9572 -1.7704
 1350SOL    HW3 5474   2.425   4.383   2.236  0.2430  0.1083 -1.5855
 1350SOL    MW4 5475   2.503   4.419   2.223  0.3638  0.1616 -0.7415
 1351SOL     OW 5476   2.956   0.003   2.392  0.5190  0.0014 -0.0133
 1351SOL    HW2 5477   3.038   0.030   2.351 -0.1414  1.0463 -0.6698
 1351SOL    HW3 5478   2.937  -0.084   2.355 -0.4718  1.2583 -2.5498
 1351SOL    MW4 5479   2.964  -0.005   2.382  0.3011  0.3052 -0.4349
 1352SOL     OW 5480   2.730   0.132   2.244 -0.1794 -0.2557  0.3268
 1352SOL    HW2 5481   2.722   0.219   2.283  1.8936  0.1437 -0.0690
 1352SOL    HW3 5482   2.807   0.094   2.287 -0.2841 -1.3764 -0.4599
 1352SOL    MW4 5483   2.739   0.138   2.255  0.0803 -0.3509  0.1709
 1353SOL     OW 5484   2.657   0.369   2.366 -0.5679 -0.0514  0.3047
 1353SOL    HW2 5485   2.635   0.357   2.458  0.1312 -1.1827  0.3353
 1353SOL    HW3 5486   2.746   0.406   2.367 -0.5567 -0.0711  0.0780
 1353SOL    MW4 5487   2.666   0.373   2.378 -0.4740 -0.2033  0.2789
 1354SOL     OW 5488   2.901   0.416   2.268 -0.6313 -0.4047  0.2756
 1354SOL    HW2 5489   2.919   0.506   2.296 -0.6331 -0.5188  0.6504
 1354SOL    HW3 5490   2.866   0.425   2.179 -1.1734  0.0089  0.5217
 1354SOL    MW4 5491   2.899   0.429   2.260 -0.7031 -0.3652  0.3574
 1355SOL     OW 5492   2.900   0.707   2.329 -0.3190 -0.3098 -0.3970
 1355SOL    HW2 5493   2.905   0.698   2.424  0.8106 -0.0072 -0.4221
 1355SOL    HW3 5494   2.830   0.770   2.314  1.0820  1.4473  0.3272
 1355SOL    MW4 5495   2.891   0.714   2.340  0.0148 -0.0380 -0.3047
 1356SOL     OW 5496   2.711   0.899   2.267 -0.3391 -0.1579 -0.2984
 1356SOL    HW2 5497   2.714   0.991   2.294  0.6557 -0.2583 -0.0399
 1356SOL    HW3 5498   2.730   0.901   2.173 -0.6587 -0.0703 -0.3612
 1356SOL    MW4 5499   2.714   0.911   2.258 -0.2499 -0.1596 -0.2725
 1357SOL     OW 5500   2.730   1.152   2.352 -0.3262  0.3614 -0.0457
 1357SOL    HW2 5501   2.705   1.165   2.443 -0.3473  0.3162 -0.0453
 1357SOL    HW3 5502   2.780   1.230   2.330 -0.8050  0.6407 -0.1660
 1357SOL    MW4 5503   2.733   1.164   2.361 -0.3920  0.3923 -0.0615
 1358SOL     OW 5504   2.923   1.335   2.220 -0.2574  0.5287  0.1708
 1358SOL    HW2 5505   2.977   1.273   2.269 -2.0860 -0.2162  1.2968
 1358SOL    HW3 5506   2.938   1.312   2.128 -0.9646 -1.6801  0.5626
 1358SOL    MW4 5507   2.932   1.323   2.215 -0.5918  0.1390  0.3710
 1359SOL     OW 5508   2.917   1.600   2.321 -0.0391 -0.0602 -0.0039
 1359SOL    HW2 5509   2.890   1.574   2.409 -0.0230 -0.6952 -0.1854
 1359SOL    HW3 5510   2.926   1.518   2.273  0.8138  0.2270 -0.3506
 1359SOL    MW4 5511   2.915   1.586   2.326  0.0758 -0.1061 -0.0734
 1360SOL     OW 5512   2.656   1.688   2.210 -0.2982  0.0106  0.2388
 1360SOL    HW2 5513   2.742   1.660   2.241 -0.4307 -0.3099  0.3247
 1360SOL    HW3 5514   2.661   1.680   2.115  0.0195  0.7322  0.1958
 1360SOL    MW4 5515   2.668   1.683   2.202 -0.2737  0.0634  0.2444
 1361SOL     OW 5516   2.641   1.941   2.306 -0.2821 -0.4804  0.0397
 1361SOL    HW2 5517   2.641   1.928   2.401  0.2097 -1.3265 -0.0755
 1361SOL    HW3 5518   2.650   1.853   2.270  0.3886 -0.0703 -0.7850
 1361SOL    MW4 5519   2.642   1.928   2.314 -0.1287 -0.5379 -0.0842
 1362SOL     OW 5520   2.871   2.083   2.269  0.1160 -0.6851 -0.4835
 1362SOL    HW2 5521   2.938   2.025   2.305 -0.2479  0.5908  2.4296
 1362SOL    HW3 5522   2.788   2.039   2.288 -0.0997  0.1861  0.6729
 1362SOL    MW4 5523   2.869   2.070   2.276  0.0396 -0.4020  0.0534
 1363SOL     OW 5524   2.892   2.349   2.347 -0.4491  0.0389 -0.1193
 1363SOL    HW2 5525   2.893   2.336   2.442 -0.3779  1.3946  0.0750
 1363SOL    HW3 5526   2.863   2.265   2.312  0.7811 -0.8779  1.0245
 1363SOL    MW4 5527   2.888   2.336   2.355 -0.2773  0.0968  0.0575
 1364SOL     OW 5528   2.679   2.472   2.219 -0.0518 -0.0403 -0.0896
 1364SOL    HW2 5529   2.748   2.421   2.261 -0.1647  0.8491  1.2274
 1364SOL    HW3 5530   2.692   2.459   2.125  1.1671 -0.8354  0.1862
 1364SOL    MW4 5531   2.690   2.464   2.212  0.0944 -0.0279  0.1206
 1365SOL     OW 5532   2.683   2.696   2.377  0.2749 -0.2732 -0.5957
 1365SOL    HW2 5533   2.766   2.735   2.350  0.5477 -0.8132 -0.5519
 1365SOL    HW3 5534   2.687   2.606   2.344  0.5724 -0.9191  1.1321
 1365SOL    MW4 5535   2.695   2.689   2.370  0.3502 -0.4296 -0.3617
 1366SOL     OW 5536   2.912   2.830   2.266  0.1188 -0.3360 -0.7825
 1366SOL    HW2 5537   2.915   2.921   2.296  0.9802 -0.4161 -0.6052
 1366SOL    HW3 5538   2.912   2.836   2.170 -0.3332 -0.1430 -0.7737
 1366SOL    MW4 5539   2.912   2.843   2.257  0.1729 -0.3211 -0.7579
 1367SOL     OW 5540   2.899   3.092   2.373 -0.0399  0.3151 -0.1651
 1367SOL    HW2 5541   2.976   3.144   2.351  1.0382 -0.9917  0.3746
 1367SOL    HW3 5542   2.905   3.079   2.468 -0.5078 -0.4400 -0.2342
 1367SOL    MW4 5543   2.910   3.097   2.383  0.0405  0.0432 -0.1030
 1368SOL     OW 5544   2.683   3.204   2.225 -0.2782 -0.1317  0.1988
 1368SOL    HW2 5545   2.693   3.291   2.264 -0.5714 -0.2542  0.5526
 1368SOL    HW3 5546   2.752   3.152   2.265 -0.6999 -0.3079  0.7097
 1368SOL    MW4 5547   2.693   3.209   2.236 -0.3724 -0.1712  0.3128
 1369SOL     OW 5548   2.707   3.450   2.348  0.1718  0.3091  0.5293
 1369SOL    HW2 5549   2.766   3.512   2.304 -1.5245  2.0897  0.6810
 1369SOL    HW3 5550   2.621   3.469   2.310 -0.3177 -2.3226  0.2200
 1369SOL    MW4 5551   2.704   3.461   2.337 -0.1163  0.1967  0.5083
 1370SOL     OW 5552   2.899   3.628   2.206  0.0361 -0.0101 -0.3361
 1370SOL    HW2 5553   2.983   3.592   2.233  1.9539  2.7726 -2.3063
 1370SOL    HW3 5554   2.887   3.707   2.259 -0.9480  0.0511 -0.6289
 1370SOL    MW4 5555   2.908   3.633   2.216  0.1590  0.3650 -0.6347
 1371SOL     OW 5556   2.922   3.883   2.341 -0.1108 -0.2997 -0.2770
 1371SOL    HW2 5557   2.931   3.888   2.436  2.4434  1.8282 -0.5705
 1371SOL    HW3 5558   2.843   3.933   2.322 -0.6795 -0.7992  0.7037
 1371SOL    MW4 5559   2.913   3.890   2.351  0.1512 -0.0846 -0.1862
 1372SOL     OW 5560   2.687   4.037   2.261  0.3505 -0.0453 -0.1276
 1372SOL    HW2 5561   2.618   3.978   2.291 -0.7399  1.4328  0.3552
 1372SOL    HW3 5562   2.694   4.020   2.167  0.2159 -1.0969  0.0450
 1372SOL    MW4 5563   2.679   4.027   2.252  0.1891  0.0110 -0.0408
 1373SOL     OW 5564   2.710   4.300   2.346 -0.4308  0.0008 -0.6569
 1373SOL    HW2 5565   2.689   4.312   2.439 -0.3225  0.4536 -0.6898
 1373SOL    HW3 5566   2.686   4.209   2.328 -2.3375  0.4795 -0.6862
 1373SOL    MW4 5567   2.704   4.289   2.356 -0.6680  0.1240 -0.6652
 1374SOL     OW 5568   2.926   4.437   2.263 -0.1628  0.1760 -0.0437
 1374SOL    HW2 5569   3.008   4.395   2.290  0.1812  1.2342  0.5890
 1374SOL    HW3 5570   2.858   4.387   2.308  0.2741  0.5700  1.0743
 1374SOL    MW4 5571   2.928   4.425   2.273 -0.0598  0.3676  0.1876
 1375SOL     OW 5572   3.389   4.629   2.365  0.0088  0.1551 -0.0822
 1375SOL    HW2 5573   3.397   4.636   2.460  1.0724 -0.1860 -0.1401
 1375SOL    HW3 5574   3.468   4.670   2.331 -0.5972  0.7108 -0.8414
 1375SOL    MW4 5575   3.400   4.635   2.373  0.0694  0.1841 -0.1903
 1376SOL     OW 5576   3.178   0.096   2.258  0.2125 -0.0181  0.4040
 1376SOL    HW2 5577   3.187   0.184   2.295 -0.8767 -0.3253  1.4124
 1376SOL    HW3 5578   3.257   0.050   2.287 -0.2288 -0.0008  1.6211
 1376SOL    MW4 5579   3.190   0.102   2.266  0.0105 -0.0563  0.6976
 1377SOL     OW 5580   3.151   0.353   2.368  0.7266 -0.0221  0.3386
 1377SOL    HW2 5581   3.217   0.408   2.326  1.0383 -1.0281 -0.5103
 1377SOL    HW3 5582   3.076   0.356   2.309  0.5502 -0.0776  0.5585
 1377SOL    MW4 5583   3.150   0.361   2.354  0.7443 -0.1621  0.2553
 1378SOL     OW 5584   3.345   0.480   2.229  0.0311  0.0574 -0.2708
 1378SOL    HW2 5585   3.429   0.447   2.262 -0.5044 -0.7597  0.3199
 1378SOL    HW3 5586   3.352   0.471   2.134 -0.0647 -1.7438 -0.1354
 1378SOL    MW4 5587   3.357   0.474   2.221 -0.0522 -0.2880 -0.1750
 1379SOL     OW 5588   3.364   0.725   2.367 -0.2248 -0.0689 -0.3354
 1379SOL    HW2 5589   3.420   0.775   2.308 -0.5527 -0.1393 -0.7024
 1379SOL    HW3 5590   3.347   0.643   2.322  1.5536 -1.1617  0.9148
 1379SOL    MW4 5591   3.369   0.721   2.354 -0.0334 -0.2224 -0.2186
 1380SOL     OW 5592   3.121   0.879   2.278  0.1614 -0.3909 -0.1584
 1380SOL    HW2 5593   3.194   0.826   2.308 -0.6412 -0.9382  0.8625
 1380SOL    HW3 5594   3.045   0.821   2.283 -0.2386 -0.0433 -1.8647
 1380SOL    MW4 5595   3.120   0.865   2.282  0.0029 -0.4172 -0.2487
 1381SOL     OW 5596   3.092   1.186   2.360 -0.2465 -0.0142  0.6665
 1381SOL    HW2 5597   3.175   1.220   2.326  0.3669 -1.0522  1.0873
 1381SOL    HW3 5598   3.092   1.093   2.336 -1.8236  0.2339 -0.3342
 1381SOL    MW4 5599   3.103   1.178   2.353 -0.3736 -0.1184  0.5901
 1382SOL     OW 5600   3.321   1.277   2.227  0.5527 -0.2082 -0.1914
 1382SOL    HW2 5601   3.393   1.225   2.263  0.1608 -0.8142 -0.2842
 1382SOL    HW3 5602   3.335   1.365   2.263  1.1136 -0.4160  0.1042
 1382SOL    MW4 5603   3.332   1.282   2.237  0.5748 -0.3157 -0.1647
 1383SOL     OW 5604   3.326   1.537   2.350 -0.4854 -0.4920  0.3162
 1383SOL    HW2 5605   3.329   1.548   2.445 -0.0047 -1.1851  0.3855
 1383SOL    HW3 5606   3.244   1.580   2.324 -0.3313  0.2027  0.9693
 1383SOL    MW4 5607   3.315   1.544   2.359 -0.4017 -0.4919  0.4115
 1384SOL     OW 5608   3.143   1.705   2.230 -0.1191 -0.1813  0.5892
 1384SOL    HW2 5609   3.140   1.788   2.276  0.8411  0.0084  0.3044
 1384SOL    HW3 5610   3.063   1.660   2.257 -0.3121  0.5587  1.2507
 1384SOL    MW4 5611   3.132   1.710   2.240 -0.0179 -0.0588  0.6387
 1385SOL     OW 5612   3.083   1.930   2.370  0.5827 -0.0003  0.2175
 1385SOL    HW2 5613   3.081   1.913   2.464  0.4054  0.5290  0.3159
 1385SOL    HW3 5614   3.152   1.997   2.360  0.5260  0.0216 -0.0124
 1385SOL    MW4 5615   3.092   1.937   2.381  0.5517  0.0725  0.2003
 1386SOL     OW 5616   3.298   2.084   2.266 -0.0115 -0.8684 -0.2646
 1386SOL    HW2 5617   3.371   2.036   2.307  0.5426 -0.0162 -0.2293
 1386SOL    HW3 5618   3.310   2.071   2.172  0.1403 -0.7957 -0.2554
 1386SOL    MW4 5619   3.310   2.076   2.259  0.0815 -0.7463 -0.2587
 1387SOL     OW 5620   3.332   2.342   2.337  0.2186 -0.2994 -0.4028
 1387SOL    HW2 5621   3.267   2.391   2.287  1.2084  0.4663 -0.9855
 1387SOL    HW3 5622   3.317   2.251   2.314 -0.1136 -0.0561 -1.1705
 1387SOL    MW4 5623   3.322   2.337   2.328  0.3057 -0.1662 -0.5805
 1388SOL     OW 5624   3.115   2.462   2.206  0.3629 -0.3013  0.1213
 1388SOL    HW2 5625   3.132   2.534   2.267 -0.0366 -0.7907  0.8211
 1388SOL    HW3 5626   3.038   2.419   2.241 -0.1113 -0.3478 -0.9672
 1388SOL    MW4 5627   3.107   2.466   2.219  0.2480 -0.3719  0.0701
 1389SOL     OW 5628   3.133   2.683   2.373 -0.0186  0.1664  0.0118
 1389SOL    HW2 5629   3.141   2.690   2.468 -1.0679 -1.2541  0.2117
 1389SOL    HW3 5630   3.060   2.741   2.351 -1.5537 -1.5659  0.4082
 1389SOL    MW4 5631   3.124   2.692   2.382 -0.3598 -0.2499  0.0906
 1390SOL     OW 5632   3.335   2.841   2.237 -0.4762 -0.0375  0.1954
 1390SOL    HW2 5633   3.330   2.927   2.280 -0.6135 -1.0064  2.1525
 1390SOL    HW3 5634   3.260   2.792   2.270  1.2208 -1.9165  1.3815
 1390SOL    MW4 5635   3.325   2.846   2.247 -0.2704 -0.4129  0.6104
 1391SOL     OW 5636   3.333   3.086   2.353  0.2520 -0.1070 -0.1806
 1391SOL    HW2 5637   3.398   3.114   2.288 -1.0942  0.7520 -1.1754
 1391SOL    HW3 5638   3.257   3.142   2.337 -0.3266 -0.3122  1.7316
 1391SOL    MW4 5639   3.332   3.097   2.343 -0.0019 -0.0207 -0.0596
 1392SOL     OW 5640   3.114   3.251   2.295 -0.1630  0.5024  0.1481
 1392SOL    HW2 5641   3.129   3.344   2.312  1.1624  0.1876  0.7939
 1392SOL    HW3 5642   3.113   3.244   2.200  2.8578  0.7526  0.0255
 1392SOL    MW4 5643   3.116   3.263   2.285  0.4103  0.4938  0.2174
 1393SOL     OW 5644   3.151   3.550   2.341  0.3281  0.0109 -0.3862
 1393SOL    HW2 5645   3.138   3.593   2.426  0.7427 -2.7584  1.1474
 1393SOL    HW3 5646   3.246   3.542   2.332  0.3300  1.3085 -1.6667
 1393SOL    MW4 5647   3.162   3.554   2.351  0.3831 -0.1833 -0.3526
 1394SOL     OW 5648   3.399   3.655   2.213 -0.2980  0.1449 -0.1391
 1394SOL    HW2 5649   3.466   3.602   2.255  1.5505  1.1273 -1.7861
 1394SOL    HW3 5650   3.384   3.613   2.128 -1.2854  0.3109 -0.0554
 1394SOL    MW4 5651   3.406   3.643   2.207 -0.1845  0.2966 -0.3452
 1395SOL     OW 5652   3.377   3.921   2.309 -0.2069  0.4755  0.2718
 1395SOL    HW2 5653   3.457   3.963   2.280 -1.8187  1.4229 -3.0505
 1395SOL    HW3 5654   3.384   3.831   2.277 -1.1477  0.9984 -1.4461
 1395SOL    MW4 5655   3.388   3.914   2.301 -0.5438  0.6697 -0.3929
 1396SOL     OW 5656   3.128   4.004   2.218 -0.1415  0.4171 -0.0128
 1396SOL    HW2 5657   3.214   3.975   2.250 -0.2041 -0.0266 -0.2435
 1396SOL    HW3 5658   3.065   3.950   2.265 -0.3234  1.1062  0.5468
 1396SOL    MW4 5659   3.131   3.993   2.228 -0.1736  0.4494  0.0305
 1397SOL     OW 5660   3.120   4.251   2.357  0.2616  0.0212  0.4656
 1397SOL    HW2 5661   3.208   4.281   2.334  0.2186  0.1762  0.5069
 1397SOL    HW3 5662   3.103   4.179   2.296 -0.1019  0.8338 -0.4109
 1397SOL    MW4 5663   3.129   4.245   2.346  0.2081  0.1488  0.3555
 1398SOL     OW 5664   3.376   4.341   2.311 -0.2516  0.1939  0.6604
 1398SOL    HW2 5665   3.365   4.426   2.354 -1.7025 -0.1551  0.9851
 1398SOL    HW3 5666   3.370   4.361   2.218 -3.2393  0.1259  0.7761
 1398SOL    MW4 5667   3.374   4.355   2.305 -0.8371  0.1388  0.7184
 1399SOL     OW 5668   3.813   4.641   2.374 -0.4231  0.0495 -0.0031
 1399SOL    HW2 5669   3.826   4.656   2.468  0.2262 -1.3238  0.1338
 1399SOL    HW3 5670   3.879   4.695   2.332  0.4491 -0.6860  0.4036
 1399SOL    MW4 5671   3.823   4.650   2.381 -0.2222 -0.2288  0.0682
 1400SOL     OW 5672   3.594   0.124   2.284  0.1212 -0.2522  0.4193
 1400SOL    HW2 5673   3.595   0.213   2.318  1.6245  0.2890 -0.9309
 1400SOL    HW3 5674   3.667   0.081   2.328  0.6297 -0.2227 -0.3805
 1400SOL    MW4 5675   3.604   0.130   2.294  0.3865 -0.1769  0.1359
 1401SOL     OW 5676   3.559   0.384   2.382  0.6792  0.0905 -0.1923
 1401SOL    HW2 5677   3.562   0.373   2.477  0.0883  0.9912 -0.0630
 1401SOL    HW3 5678   3.645   0.417   2.358  0.6887  0.2561  0.0772
 1401SOL    MW4 5679   3.571   0.387   2.391  0.6025  0.2313 -0.1397
 1402SOL     OW 5680   3.791   0.461   2.274  0.1488 -0.4588  0.0792
 1402SOL    HW2 5681   3.781   0.555   2.292 -2.2804 -0.8511  0.9271
 1402SOL    HW3 5682   3.800   0.456   2.179  1.8323  0.7318  0.1448
 1402SOL    MW4 5683   3.791   0.473   2.264  0.0503 -0.3535  0.1996
 1403SOL     OW 5684   3.798   0.732   2.336 -0.3695  0.8332  0.1992
 1403SOL    HW2 5685   3.792   0.742   2.431 -0.3842 -0.4144  0.3482
 1403SOL    HW3 5686   3.871   0.787   2.310  0.3144  0.3631  1.0918
 1403SOL    MW4 5687   3.807   0.740   2.345 -0.2811  0.6066  0.3366
 1404SOL     OW 5688   3.576   0.881   2.255  0.1914  0.1675  0.2988
 1404SOL    HW2 5689   3.658   0.841   2.282 -0.5411 -1.3400  0.3540
 1404SOL    HW3 5690   3.589   0.903   2.163 -0.0706 -2.0460 -0.2930
 1404SOL    MW4 5691   3.588   0.879   2.246  0.0601 -0.3235  0.2282
 1405SOL     OW 5692   3.539   1.140   2.334 -0.1650 -0.0936 -0.4265
 1405SOL    HW2 5693   3.546   1.147   2.429 -1.9147 -0.6082 -0.2484
 1405SOL    HW3 5694   3.530   1.046   2.317  0.0662  0.0034 -1.1017
 1405SOL    MW4 5695   3.539   1.129   2.345 -0.3653 -0.1487 -0.4921
 1406SOL     OW 5696   3.761   1.291   2.242  0.0157  0.1085 -0.3532
 1406SOL    HW2 5697   3.760   1.377   2.284  2.3631 -1.0381  2.2010
 1406SOL    HW3 5698   3.686   1.245   2.280  1.0411 -0.2791  1.2454
 1406SOL    MW4 5699   3.751   1.296   2.252  0.4606 -0.0939  0.1943
 1407SOL     OW 5700   3.807   1.551   2.328  0.1308  0.0296  0.1285
 1407SOL    HW2 5701   3.806   1.539   2.423  2.2761 -0.0563  0.1736
 1407SOL    HW3 5702   3.720   1.584   2.306  0.1624  1.6625  2.3470
 1407SOL    MW4 5703   3.795   1.554   2.337  0.4177  0.2338  0.4270
 1408SOL     OW 5704   3.550   1.684   2.270 -0.0331 -0.1475 -0.1863
 1408SOL    HW2 5705   3.471   1.635   2.291 -1.2739  2.3560  1.2142
 1408SOL    HW3 5706   3.555   1.682   2.175 -1.9355 -0.1231 -0.3073
 1408SOL    MW4 5707   3.541   1.677   2.260 -0.4478  0.1860 -0.0174
 1409SOL     OW 5708   3.535   1.952   2.353  0.3719 -0.5363  0.3457
 1409SOL    HW2 5709   3.611   1.992   2.311  0.2163 -0.5017  0.1005
 1409SOL    HW3 5710   3.532   1.863   2.319 -0.0143 -0.3704 -0.0537
 1409SOL    MW4 5711   3.544   1.946   2.343  0.3004 -0.5097  0.2608
 1410SOL     OW 5712   3.764   2.034   2.240 -0.5046 -0.1359 -0.2619
 1410SOL    HW2 5713   3.846   1.998   2.274 -0.4333  0.2752 -0.0022
 1410SOL    HW3 5714   3.783   2.054   2.148 -0.4221 -0.3739 -0.2973
 1410SOL    MW4 5715   3.777   2.032   2.232 -0.4840 -0.1130 -0.2325
 1411SOL     OW 5716   3.795   2.290   2.355  0.2465 -0.2587  0.1439
 1411SOL    HW2 5717   3.717   2.332   2.318  0.6771 -0.7522 -1.3734
 1411SOL    HW3 5718   3.789   2.200   2.324  2.4257  0.1749 -1.6333
 1411SOL    MW4 5719   3.784   2.284   2.346  0.5908 -0.2666 -0.2909
 1412SOL     OW 5720   3.578   2.427   2.265 -0.4264  0.3022  0.2900
 1412SOL    HW2 5721   3.491   2.398   2.295  0.5820 -0.9874  2.1182
 1412SOL    HW3 5722   3.575   2.417   2.170 -1.6723 -1.5488  0.4828
 1412SOL    MW4 5723   3.566   2.422   2.257 -0.4575 -0.1121  0.5567
 1413SOL     OW 5724   3.573   2.715   2.336  0.0049 -0.0832  0.3505
 1413SOL    HW2 5725   3.592   2.636   2.285 -0.0027  0.5004 -0.5652
 1413SOL    HW3 5726   3.486   2.742   2.306 -0.8159 -0.7871  2.0233
 1413SOL    MW4 5727   3.564   2.708   2.326 -0.1044 -0.0992  0.4504
 1414SOL     OW 5728   3.817   2.847   2.268 -0.5690 -0.3722 -0.1429
 1414SOL    HW2 5729   3.800   2.938   2.293  0.3497 -0.9101  2.6275
 1414SOL    HW3 5730   3.737   2.800   2.289  0.0119 -0.7245  1.3662
 1414SOL    MW4 5731   3.804   2.853   2.274 -0.3712 -0.4897  0.4220
 1415SOL     OW 5732   3.810   3.115   2.324 -0.2564 -0.3679  0.2228
 1415SOL    HW2 5733   3.829   3.108   2.418 -0.5650 -3.0831  0.1251
 1415SOL    HW3 5734   3.895   3.132   2.284  0.1971 -1.1157  0.8432
 1415SOL    MW4 5735   3.824   3.116   2.331 -0.2372 -0.8245  0.2921
 1416SOL     OW 5736   3.563   3.215   2.235 -0.0236  0.4158 -0.3095
 1416SOL    HW2 5737   3.575   3.299   2.279 -0.4330  0.6265 -0.6033
 1416SOL    HW3 5738   3.631   3.158   2.273 -1.5267  0.0589  1.9602
 1416SOL    MW4 5739   3.573   3.218   2.246 -0.2756  0.3965 -0.0486
 1417SOL     OW 5740   3.556   3.488   2.369 -0.4586  0.2645  0.2159
 1417SOL    HW2 5741   3.571   3.485   2.463 -1.6469  0.0178  0.4052
 1417SOL    HW3 5742   3.634   3.531   2.333  0.7664 -1.1733  1.1223
 1417SOL    MW4 5743   3.569   3.493   2.376 -0.4539  0.0422  0.3607
 1418SOL     OW 5744   3.771   3.609   2.264 -0.2763 -0.1693  0.7056
 1418SOL    HW2 5745   3.777   3.696   2.303  3.0284 -0.1760  0.2917
 1418SOL    HW3 5746   3.751   3.625   2.172  0.9027  0.1837  0.5087
 1418SOL    MW4 5747   3.769   3.623   2.257  0.3152 -0.1233  0.6249
 1419SOL     OW 5748   3.820   3.862   2.357  0.0104 -0.0333 -0.1358
 1419SOL    HW2 5749   3.815   3.871   2.452 -0.4988 -0.2072 -0.1461
 1419SOL    HW3 5750   3.903   3.904   2.334  0.1693 -0.0468  0.3903
 1419SOL    MW4 5751   3.830   3.869   2.367 -0.0358 -0.0579 -0.0677
 1420SOL     OW 5752   3.632   4.025   2.212 -0.0555 -0.4303  0.2697
 1420SOL    HW2 5753   3.643   4.108   2.260  0.3813 -0.1833 -0.2521
 1420SOL    HW3 5754   3.691   3.964   2.257  0.7625 -0.0556 -0.2847
 1420SOL    MW4 5755   3.641   4.028   2.225  0.1101 -0.3481  0.1278
 1421SOL     OW 5756   3.639   4.263   2.382 -0.5583  0.0463  0.1079
 1421SOL    HW2 5757   3.705   4.322   2.345  0.2415 -0.6051  0.4932
 1421SOL    HW3 5758   3.556   4.305   2.360 -0.0966 -0.0675 -2.0390
 1421SOL    MW4 5759   3.637   4.277   2.374 -0.3915 -0.0544 -0.1247
 1422SOL     OW 5760   3.828   4.400   2.255 -0.6477 -0.5475  0.0937
 1422SOL    HW2 5761   3.918   4.370   2.269  0.0956  0.0759 -2.8472
 1422SOL    HW3 5762   3.817   4.473   2.315  0.1093 -1.8810  1.9115
 1422SOL    MW4 5763   3.839   4.405   2.265 -0.4499 -0.6409 -0.0544
 1423SOL     OW 5764   4.275   4.647   2.334  0.3065  0.0483 -0.1912
 1423SOL    HW2 5765   4.285   4.625   2.426  0.2289  1.3112  0.1191
 1423SOL    HW3 5766   4.347   4.707   2.316  1.7123 -1.9522 -1.5326
 1423SOL    MW4 5767   4.286   4.652   2.344  0.4816 -0.0491 -0.3276
 1424SOL     OW 5768   4.030   0.098   2.253  0.2370  0.2439  0.3072
 1424SOL    HW2 5769   4.022   0.185   2.293  1.7883  0.9191 -0.7608
 1424SOL    HW3 5770   4.113   0.064   2.285  0.6676  0.0696 -0.9435
 1424SOL    MW4 5771   4.040   0.105   2.262  0.4988  0.3100  0.0012
 1425SOL     OW 5772   4.018   0.344   2.355 -0.4942  0.2729  0.4947
 1425SOL    HW2 5773   4.099   0.379   2.318 -0.9601  0.7514 -0.0660
 1425SOL    HW3 5774   3.948   0.395   2.315 -1.1714 -1.1837 -0.2163
 1425SOL    MW4 5775   4.020   0.355   2.345 -0.6447  0.1439  0.3269
 1426SOL     OW 5776   4.248   0.473   2.218  0.2703  0.3198  0.1596
 1426SOL    HW2 5777   4.224   0.547   2.275  1.7871  0.6312  0.4067
 1426SOL    HW3 5778   4.330   0.441   2.254  0.9180  0.0992 -1.4829
 1426SOL    MW4 5779   4.256   0.479   2.231  0.5560  0.3318 -0.0243
 1427SOL     OW 5780   4.225   0.712   2.356 -0.6606  0.0405 -0.4413
 1427SOL    HW2 5781   4.147   0.761   2.331 -0.9326 -0.4649 -0.5919
 1427SOL    HW3 5782   4.298   0.762   2.319 -0.8697  0.8446  0.2222
 1427SOL    MW4 5783   4.225   0.725   2.348 -0.7243  0.0799 -0.3736
 1428SOL     OW 5784   4.019   0.884   2.249  0.0176  0.4611 -0.6131
 1428SOL    HW2 5785   4.000   0.976   2.268  0.0870  0.2990  0.2714
 1428SOL    HW3 5786   4.010   0.876   2.154 -0.5071  1.2610 -0.6290
 1428SOL    MW4 5787   4.016   0.895   2.239 -0.0424  0.5453 -0.4983
 1429SOL     OW 5788   3.986   1.145   2.293 -0.2023 -0.9663  0.0790
 1429SOL    HW2 5789   3.990   1.156   2.389 -0.5010  0.5096 -0.0643
 1429SOL    HW3 5790   3.900   1.177   2.269 -0.0061 -1.0435 -0.7279
 1429SOL    MW4 5791   3.975   1.151   2.303 -0.2162 -0.7818 -0.0465
 1430SOL     OW 5792   4.228   1.280   2.204  0.3671 -0.1015  0.5142
 1430SOL    HW2 5793   4.145   1.247   2.239 -0.5058  0.0657 -1.3352
 1430SOL    HW3 5794   4.295   1.228   2.249 -0.7022 -0.0224  2.2675
 1430SOL    MW4 5795   4.226   1.269   2.215  0.1116 -0.0690  0.5016
 1431SOL     OW 5796   4.292   1.536   2.352  0.6029 -0.3340  0.5518
 1431SOL    HW2 5797   4.266   1.462   2.297  0.8185 -1.0390  1.3789
 1431SOL    HW3 5798   4.361   1.580   2.302  0.5754 -0.7723  0.1195
 1431SOL    MW4 5799   4.297   1.532   2.338  0.6275 -0.4848  0.6039
 1432SOL     OW 5800   4.044   1.644   2.243  0.0474  0.0752 -0.0467
 1432SOL    HW2 5801   4.112   1.618   2.305 -0.4268  1.7757  1.2216
 1432SOL    HW3 5802   3.964   1.608   2.279 -0.2488  1.1768  0.4123
 1432SOL    MW4 5803   4.043   1.636   2.256 -0.0544  0.4449  0.1812
 1433SOL     OW 5804   4.005   1.917   2.350 -0.3672  0.0070  0.2128
 1433SOL    HW2 5805   4.014   1.903   2.445  0.5006  0.8667  0.2649
 1433SOL    HW3 5806   4.036   1.835   2.312  1.4698  0.4854  0.6178
 1433SOL    MW4 5807   4.010   1.904   2.358 -0.0110  0.1836  0.2728
 1434SOL     OW 5808   4.238   2.046   2.251 -0.0315 -0.1373 -0.3375
 1434SOL    HW2 5809   4.245   2.135   2.284 -2.8491  0.8710 -2.2735
 1434SOL    HW3 5810   4.160   2.011   2.294  0.2167 -1.1649 -0.7071
 1434SOL    MW4 5811   4.228   2.053   2.261 -0.3705 -0.1400 -0.6418
 1435SOL     OW 5812   4.261   2.311   2.337  0.1208 -0.5016 -0.3970
 1435SOL    HW2 5813   4.178   2.347   2.307 -0.5888 -0.4286  1.5910
 1435SOL    HW3 5814   4.328   2.368   2.299 -0.9324  2.1493  1.6574
 1435SOL    MW4 5815   4.259   2.323   2.328 -0.1125 -0.1419  0.1364
 1436SOL     OW 5816   4.021   2.420   2.237  0.4078  0.1324 -0.3742
 1436SOL    HW2 5817   4.021   2.508   2.275  1.1613 -0.7346  1.6983
 1436SOL    HW3 5818   3.941   2.379   2.271  1.0201 -0.6047  0.1892
 1436SOL    MW4 5819   4.010   2.426   2.247  0.5889 -0.0794 -0.0262
 1437SOL     OW 5820   4.053   2.685   2.311 -0.2125  0.4505 -0.1468
 1437SOL    HW2 5821   4.065   2.673   2.406 -1.4596 -0.2436 -0.0591
 1437SOL    HW3 5822   3.987   2.754   2.304  0.7902  1.3938 -0.5481
 1437SOL    MW4 5823   4.046   2.692   2.323 -0.2451  0.4833 -0.1881
 1438SOL     OW 5824   4.260   2.824   2.199 -0.2431 -0.2788 -0.1038
 1438SOL    HW2 5825   4.185   2.773   2.227  0.6937 -1.4790  0.2533
 1438SOL    HW3 5826   4.335   2.785   2.245  0.4405  1.6518  0.4922
 1438SOL    MW4 5827   4.260   2.812   2.209 -0.0296 -0.1824  0.0219
 1439SOL     OW 5828   4.238   3.082   2.347  0.4595 -0.4291 -0.3618
 1439SOL    HW2 5829   4.243   3.003   2.292  0.8119 -0.8089  0.2147
 1439SOL    HW3 5830   4.319   3.129   2.328  0.2010 -0.1443 -0.7861
 1439SOL    MW4 5831   4.249   3.077   2.337  0.4725 -0.4413 -0.3414
 1440SOL     OW 5832   4.053   3.238   2.209  0.6330 -0.1918 -0.0554
 1440SOL    HW2 5833   4.033   3.320   2.254  1.3287  0.2803 -0.6005
 1440SOL    HW3 5834   4.110   3.190   2.269  1.0044  0.1388 -0.1472
 1440SOL    MW4 5835   4.058   3.242   2.223  0.7739 -0.0861 -0.1392
 1441SOL     OW 5836   4.005   3.470   2.347  0.0325  0.2978 -0.3459
 1441SOL    HW2 5837   4.061   3.540   2.313 -1.0692  0.4238 -1.9578
 1441SOL    HW3 5838   3.916   3.503   2.335 -0.4371 -0.6652  0.4800
 1441SOL    MW4 5839   4.000   3.484   2.341 -0.1750  0.1874 -0.4497
 1442SOL     OW 5840   4.226   3.612   2.270 -0.3053  0.1940 -0.2713
 1442SOL    HW2 5841   4.241   3.706   2.281 -1.1967  0.2860  0.1884
 1442SOL    HW3 5842   4.231   3.598   2.175 -0.5554  0.7775 -0.3761
 1442SOL    MW4 5843   4.229   3.623   2.259 -0.4563  0.2832 -0.2244
 1443SOL     OW 5844   4.261   3.879   2.330  0.3974  0.7714 -0.3532
 1443SOL    HW2 5845   4.275   3.874   2.424  0.2284  2.0287 -0.2482
 1443SOL    HW3 5846   4.336   3.929   2.297  0.0629  0.9942 -0.7876
 1443SOL    MW4 5847   4.273   3.885   2.338  0.3309  0.9668 -0.3965
 1444SOL     OW 5848   4.039   4.008   2.249 -0.3015 -0.2026 -0.2165
 1444SOL    HW2 5849   4.126   3.974   2.272  0.1166  1.4548  0.7993
 1444SOL    HW3 5850   4.030   3.990   2.156  1.0296 -0.6622 -0.2671
 1444SOL    MW4 5851   4.049   4.001   2.240 -0.0706 -0.0443 -0.0894
 1445SOL     OW 5852   4.050   4.280   2.331 -0.0483  0.5318  0.3760
 1445SOL    HW2 5853   4.136   4.316   2.306  0.6589 -0.0626  1.9312
 1445SOL    HW3 5854   4.048   4.193   2.291 -0.0053  0.6137  0.1939
 1445SOL    MW4 5855   4.061   4.274   2.322  0.0510  0.4640  0.5569
 1446SOL     OW 5856   4.297   4.392   2.235  0.1675 -0.2976 -0.0130
 1446SOL    HW2 5857   4.287   4.482   2.267  0.9606 -0.0642 -0.4035
 1446SOL    HW3 5858   4.381   4.364   2.271  0.1104 -0.7437 -0.2332
 1446SOL    MW4 5859   4.307   4.400   2.244  0.2651 -0.3257 -0.0937
 1447SOL     OW 5860   0.241   0.005   2.606  0.0415  0.3692 -0.6544
 1447SOL    HW2 5861   0.243  -0.073   2.661  1.0687  0.1896 -0.9365
 1447SOL    HW3 5862   0.175   0.061   2.647 -2.0124 -1.3761 -1.4827
 1447SOL    MW4 5863   0.232   0.002   2.619 -0.0940  0.1149 -0.8008
 1448SOL     OW 5864   0.005   0.117   2.717  0.2212  0.8960 -0.4406
 1448SOL    HW2 5865   0.013   0.121   2.812 -1.2262  0.5772 -0.2974
 1448SOL    HW3 5866  -0.014   0.208   2.691  1.3212  1.1143 -0.5026
 1448SOL    MW4 5867   0.004   0.130   2.726  0.1750  0.8827 -0.4299
 1449SOL     OW 5868   4.459   0.388   2.651 -0.1991 -0.2897  0.0592
 1449SOL    HW2 5869   4.539   0.437   2.672 -0.6133  0.4171 -0.0036
 1449SOL    HW3 5870   4.453   0.392   2.555 -0.8018  0.4330  0.1286
 1449SOL    MW4 5871   4.469   0.395   2.641 -0.3333 -0.1011  0.0601
 1450SOL     OW 5872   0.248   0.481   2.694 -0.5781 -0.4694  0.3756
 1450SOL    HW2 5873   0.266   0.465   2.786 -0.0902 -0.7601  0.2314
 1450SOL    HW3 5874   0.325   0.448   2.648 -0.7144 -0.1079 -0.1184
 1450SOL    MW4 5875   0.260   0.475   2.700 -0.5317 -0.4601  0.2911
 1451SOL     OW 5876   0.196   0.757   2.628  0.3545  0.1436 -0.2019
 1451SOL    HW2 5877   0.269   0.801   2.672 -0.0035  0.0568  0.4681
 1451SOL    HW3 5878   0.213   0.663   2.641  0.3402  0.1116 -0.4017
 1451SOL    MW4 5879   0.208   0.750   2.635  0.3054  0.1279 -0.1397
 1452SOL     OW 5880   4.451   0.875   2.724 -0.0954 -0.3442  0.1233
 1452SOL    HW2 5881   4.379   0.822   2.689 -0.1661  0.6400 -1.2395
 1452SOL    HW3 5882   4.530   0.832   2.692 -0.1465  0.1127 -0.6451
 1452SOL    MW4 5883   4.452   0.862   2.715 -0.1116 -0.1541 -0.1578
 1453SOL     OW 5884   4.452   1.113   2.591 -0.4495  0.2131  0.4157
 1453SOL    HW2 5885   4.542   1.139   2.611 -0.4316 -0.3577  1.1025
 1453SOL    HW3 5886   4.443   1.026   2.629 -1.0686 -0.0324 -0.2857
 1453SOL    MW4 5887   4.462   1.105   2.599 -0.5288  0.1054  0.4139
 1454SOL     OW 5888   0.229   1.224   2.704 -0.3345 -0.1008  0.2769
 1454SOL    HW2 5889   0.313   1.189   2.673  0.7019  1.7166  0.9765
 1454SOL    HW3 5890   0.234   1.318   2.688 -1.8328  0.1666  1.2663
 1454SOL    MW4 5891   0.241   1.231   2.698 -0.3954  0.1742  0.5000
 1455SOL     OW 5892   0.225   1.521   2.622 -0.2277 -0.5293 -0.0959
 1455SOL    HW2 5893   0.303   1.567   2.652 -0.1400 -0.8865  0.2360
 1455SOL    HW3 5894   0.152   1.572   2.656 -0.1293 -0.8207  0.5595
 1455SOL    MW4 5895   0.225   1.534   2.630 -0.2031 -0.6148  0.0341
 1456SOL     OW 5896   0.006   1.655   2.748 -0.2353  0.3976 -0.4592
 1456SOL    HW2 5897   0.003   1.663   2.844 -0.1741  0.5564 -0.4689
 1456SOL    HW3 5898   0.011   1.746   2.717  0.8550  0.3114 -0.5714
 1456SOL    MW4 5899   0.007   1.668   2.757 -0.0834  0.4071 -0.4754
 1457SOL     OW 5900   0.006   1.896   2.597  0.0138 -0.0843 -0.2616
 1457SOL    HW2 5901   0.069   1.968   2.606 -0.6289  0.4706 -0.1180
 1457SOL    HW3 5902  -0.015   1.895   2.504 -0.9132  0.7297 -0.0679
 1457SOL    MW4 5903   0.012   1.906   2.586 -0.1936  0.0963 -0.2167
 1458SOL     OW 5904   0.150   2.101   2.752  0.0464 -0.4122  0.1666
 1458SOL    HW2 5905   0.227   2.047   2.732  0.0208 -1.2928  2.2946
 1458SOL    HW3 5906   0.175   2.190   2.728  0.9839 -0.9915 -1.0665
 1458SOL    MW4 5907   0.163   2.105   2.746  0.1667 -0.6049  0.2844
 1459SOL     OW 5908   0.213   2.343   2.648 -0.1512 -0.2417  0.3641
 1459SOL    HW2 5909   0.267   2.394   2.709  1.8236 -0.7530 -0.8991
 1459SOL    HW3 5910   0.123   2.366   2.671  0.6213  1.6451  1.6764
 1459SOL    MW4 5911   0.209   2.353   2.660  0.2113 -0.0601  0.3705
 1460SOL     OW 5912   4.462   2.461   2.732  0.2007  0.2817 -0.4334
 1460SOL    HW2 5913   4.486   2.456   2.825 -0.9654  0.8834 -0.0923
 1460SOL    HW3 5914   4.376   2.418   2.727  0.1484  0.4735 -1.1929
 1460SOL    MW4 5915   4.454   2.454   2.744  0.0401  0.3865 -0.4888
 1461SOL     OW 5916   4.445   2.710   2.611  0.2308 -0.0362  0.4427
 1461SOL    HW2 5917   4.373   2.752   2.657 -0.0831  0.6585 -0.6732
 1461SOL    HW3 5918   4.451   2.623   2.651 -1.2374 -0.1069  0.5220
 1461SOL    MW4 5919   4.437   2.704   2.623 -0.0043  0.0463  0.3059
 1462SOL     OW 5920   0.195   2.831   2.711 -0.3722  0.0980  0.1324
 1462SOL    HW2 5921   0.204   2.921   2.681  0.3574  0.2586  0.8353
 1462SOL    HW3 5922   0.107   2.805   2.682  0.2505  0.2855 -2.0266
 1462SOL    MW4 5923   0.184   2.839   2.703 -0.1938  0.1442 -0.0596
 1463SOL     OW 5924   0.238   3.078   2.613 -0.3977 -0.4603  0.1212
 1463SOL    HW2 5925   0.298   3.149   2.633  0.9286 -1.5114 -0.0885
 1463SOL    HW3 5926   0.225   3.083   2.518 -2.0240  0.8302  0.3810
 1463SOL    MW4 5927   0.244   3.088   2.603 -0.4373 -0.4287  0.1278
 1464SOL     OW 5928   0.030   3.216   2.746 -0.2211 -0.0924  0.6646
 1464SOL    HW2 5929  -0.049   3.180   2.706  0.2662  0.2732 -0.6897
 1464SOL    HW3 5930   0.102   3.170   2.703  0.3128 -0.1012  1.5571
 1464SOL    MW4 5931   0.029   3.205   2.735 -0.0863 -0.0455  0.6039
 1465SOL     OW 5932   4.463   3.489   2.645 -0.2170 -0.4879 -0.2346
 1465SOL    HW2 5933   4.536   3.534   2.687  1.6897 -2.5458 -1.2084
 1465SOL    HW3 5934   4.478   3.396   2.665 -1.2613 -1.1539 -2.4064
 1465SOL    MW4 5935   4.474   3.483   2.653 -0.1030 -0.8473 -0.6497
 1466SOL     OW 5936   0.184   3.622   2.774  0.3122 -0.1390  0.0689
 1466SOL    HW2 5937   0.173   3.605   2.867 -1.2564 -1.3514 -0.3252
 1466SOL    HW3 5938   0.263   3.573   2.749  0.5215 -0.1094  0.6736
 1466SOL    MW4 5939   0.193   3.613   2.783  0.1328 -0.2952  0.0966
 1467SOL     OW 5940   0.193   3.859   2.638  0.8993  0.2029  0.1087
 1467SOL    HW2 5941   0.190   3.773   2.680 -0.9467 -0.2662 -0.9059
 1467SOL    HW3 5942   0.192   3.840   2.545  1.4531  1.3103 -0.1316
 1467SOL    MW4 5943   0.192   3.845   2.631  0.7288  0.2868 -0.0567
 1468SOL     OW 5944   4.482   4.029   2.747 -0.0811 -0.2641  0.2327
 1468SOL    HW2 5945   4.482   4.115   2.704 -1.5996  0.3108  1.3675
 1468SOL    HW3 5946   4.561   3.986   2.713 -0.0048  1.0613 -1.3557
 1468SOL    MW4 5947   4.493   4.035   2.737 -0.2723 -0.0134  0.1731
 1469SOL     OW 5948   0.016   4.292   2.620 -0.3970  0.1584  0.0199
 1469SOL    HW2 5949  -0.069   4.328   2.645 -0.1166  2.1709 -1.7988
 1469SOL    HW3 5950   0.079   4.344   2.669 -0.1780 -1.0444  1.0307
 1469SOL    MW4 5951   0.013   4.304   2.630 -0.3311  0.2651 -0.0868
 1470SOL     OW 5952   0.235   4.424   2.749 -0.4222 -0.0782 -0.3214
 1470SOL    HW2 5953   0.228   4.414   2.844 -0.2970  0.8935 -0.2026
 1470SOL    HW3 5954   0.306   4.366   2.724  0.4926  0.7161  0.3737
 1470SOL    MW4 5955   0.243   4.415   2.758 -0.2850  0.1550 -0.2143
 1471SOL     OW 5956   0.695   0.019   2.622  0.5810 -0.1793  0.1108
 1471SOL    HW2 5957   0.778   0.040   2.664  1.2724 -0.8161 -0.9242
 1471SOL    HW3 5958   0.633   0.083   2.658  1.4799  0.2115  0.9843
 1471SOL    MW4 5959   0.698   0.030   2.632  0.7908 -0.2112  0.0894
 1472SOL     OW 5960   0.462   0.145   2.725  0.0906 -0.1498  0.3247
 1472SOL    HW2 5961   0.454   0.137   2.820 -1.2118  2.5555  0.4925
 1472SOL    HW3 5962   0.389   0.094   2.690 -0.5831  0.4452  0.8519
 1472SOL    MW4 5963   0.451   0.138   2.733 -0.1702  0.2856  0.4165
 1473SOL     OW 5964   0.502   0.361   2.575  0.3607  0.2583  0.2105
 1473SOL    HW2 5965   0.572   0.410   2.618  0.3401 -0.6480  1.3172
 1473SOL    HW3 5966   0.483   0.290   2.636 -2.0109  0.8935  0.2517
 1473SOL    MW4 5967   0.509   0.358   2.589  0.0450  0.2226  0.3619
 1474SOL     OW 5968   0.708   0.480   2.705  0.0891  0.0199 -0.3661
 1474SOL    HW2 5969   0.696   0.499   2.797 -1.1334  0.6421 -0.6518
 1474SOL    HW3 5970   0.793   0.435   2.701 -1.4391 -3.2405  1.5087
 1474SOL    MW4 5971   0.718   0.477   2.716 -0.2739 -0.3282 -0.1564
 1475SOL     OW 5972   0.643   0.737   2.640 -0.2866  0.3514  0.2258
 1475SOL    HW2 5973   0.710   0.796   2.672 -0.9527  1.1539  0.1678
 1475SOL    HW3 5974   0.670   0.650   2.670 -0.0754  0.8808  1.5872
 1475SOL    MW4 5975   0.655   0.733   2.648 -0.3466  0.5271  0.3977
 1476SOL     OW 5976   0.419   0.863   2.761  0.1928  0.4966  0.6549
 1476SOL    HW2 5977   0.439   0.951   2.729  0.9841 -0.1203 -0.5829
 1476SOL    HW3 5978   0.488   0.808   2.725 -1.6383 -1.0383 -0.6397
 1476SOL    MW4 5979   0.431   0.868   2.752  0.0557  0.2127  0.3209
 1477SOL     OW 5980   0.459   1.100   2.620  0.5231 -0.1154  0.0620
 1477SOL    HW2 5981   0.533   1.153   2.651  0.6598  0.0426 -0.5399
 1477SOL    HW3 5982   0.456   1.115   2.526  0.0354 -0.5195  0.0120
 1477SOL    MW4 5983   0.469   1.109   2.612  0.4768 -0.1479 -0.0238
 1478SOL     OW 5984   0.645   1.259   2.730 -0.0246 -0.1335  0.2657
 1478SOL    HW2 5985   0.670   1.248   2.822  0.9649  0.6756  0.1087
 1478SOL    HW3 5986   0.718   1.222   2.681  0.0135  0.5336 -0.1958
 1478SOL    MW4 5987   0.658   1.253   2.736  0.1110  0.0612  0.1843
 1479SOL     OW 5988   0.677   1.537   2.669  0.0921 -0.5172 -0.2295
 1479SOL    HW2 5989   0.598   1.577   2.705  0.8970 -0.4116  1.4498
 1479SOL    HW3 5990   0.672   1.445   2.696 -0.4983 -1.0207 -1.9449
 1479SOL    MW4 5991   0.666   1.530   2.677  0.1205 -0.5697 -0.2341
 1480SOL     OW 5992   0.422   1.683   2.718  0.4653 -0.2964  0.1056
 1480SOL    HW2 5993   0.434   1.686   2.813  0.0744 -0.2648  0.1556
 1480SOL    HW3 5994   0.411   1.774   2.691  0.5082 -0.3107  0.0366
 1480SOL    MW4 5995   0.422   1.695   2.727  0.4194 -0.2941  0.1028
 1481SOL     OW 5996   0.375   1.964   2.630  0.4059  0.2904 -0.1964
 1481SOL    HW2 5997   0.463   1.994   2.655  0.5556 -0.7017  0.5037
 1481SOL    HW3 5998   0.380   1.955   2.535  0.8676  0.8323 -0.2331
 1481SOL    MW4 5999   0.387   1.967   2.621  0.4866  0.2309 -0.1087
 1482SOL     OW 6000   0.620   2.043   2.723  0.1325  0.0858 -0.1474
 1482SOL    HW2 6001   0.625   2.049   2.819  1.6473  0.6122 -0.2426
 1482SOL    HW3 6002   0.703   2.004   2.697 -0.1905  0.1351 -1.2640
 1482SOL    MW4 6003   0.632   2.039   2.732  0.2897  0.1616 -0.3073
 1483SOL     OW 6004   0.645   2.323   2.639  0.4937  0.0361  0.2215
 1483SOL    HW2 6005   0.725   2.355   2.680  1.6447 -1.1704 -1.0266
 1483SOL    HW3 6006   0.640   2.231   2.664  1.0566 -0.6400 -2.0870
 1483SOL    MW4 6007   0.655   2.315   2.648  0.7199 -0.2122 -0.2477
 1484SOL     OW 6008   0.444   2.485   2.758 -0.3320 -0.8266  0.2618
 1484SOL    HW2 6009   0.422   2.563   2.708 -3.4251 -2.0891 -0.4578
 1484SOL    HW3 6010   0.517   2.445   2.710 -1.9013 -0.9282 -2.1254
 1484SOL    MW4 6011   0.451   2.490   2.745 -0.9472 -1.0068 -0.1483
 1485SOL     OW 6012   0.424   2.716   2.603  0.2790 -0.4644 -0.3944
 1485SOL    HW2 6013   0.490   2.766   2.651  0.6027 -0.6557 -0.6447
 1485SOL    HW3 6014   0.341   2.759   2.627  0.4479 -0.4803  0.2339
 1485SOL    MW4 6015   0.421   2.728   2.613  0.3440 -0.4916 -0.3443
 1486SOL     OW 6016   0.634   2.826   2.743 -0.4585 -0.1180  0.7399
 1486SOL    HW2 6017   0.646   2.824   2.838 -0.2774  0.1620  0.7245
 1486SOL    HW3 6018   0.646   2.918   2.720  1.1795 -0.4481  0.2260
 1486SOL    MW4 6019   0.637   2.838   2.753 -0.2185 -0.1247  0.6702
 1487SOL     OW 6020   0.684   3.079   2.655  0.4014  0.0429 -0.0160
 1487SOL    HW2 6021   0.761   3.117   2.697  0.6744 -0.9341  0.3827
 1487SOL    HW3 6022   0.709   3.069   2.563  1.2346 -1.5033  0.3677
 1487SOL    MW4 6023   0.697   3.083   2.648  0.5472 -0.2899  0.0873
 1488SOL     OW 6024   0.469   3.204   2.726  0.0344 -1.1221 -0.7512
 1488SOL    HW2 6025   0.486   3.195   2.820  1.8387  0.0395 -0.9356
 1488SOL    HW3 6026   0.539   3.156   2.684  0.2158 -0.2131 -1.5160
 1488SOL    MW4 6027   0.480   3.197   2.733  0.2964 -0.8488 -0.8762
 1489SOL     OW 6028   0.421   3.489   2.661  0.0944  0.0329  0.2382
 1489SOL    HW2 6029   0.440   3.405   2.704 -1.5501 -0.6093 -0.2336
 1489SOL    HW3 6030   0.431   3.470   2.568  2.3298  1.0771  0.2246
 1489SOL    MW4 6031   0.425   3.475   2.654  0.1723  0.0861  0.1740
 1490SOL     OW 6032   0.674   3.600   2.747  0.1883 -0.1996 -0.8880
 1490SOL    HW2 6033   0.690   3.607   2.841  1.5957 -2.0817 -0.9479
 1490SOL    HW3 6034   0.589   3.558   2.740  0.9487 -1.8440 -0.4226
 1490SOL    MW4 6035   0.665   3.596   2.759  0.4743 -0.6647 -0.8345
 1491SOL     OW 6036   0.663   3.869   2.634  0.3821  0.2072 -0.5631
 1491SOL    HW2 6037   0.588   3.924   2.657 -0.3289 -1.4002  1.1341
 1491SOL    HW3 6038   0.645   3.786   2.677  2.7266 -0.4919 -0.8813
 1491SOL    MW4 6039   0.651   3.866   2.643  0.5976 -0.0968 -0.3812
 1492SOL     OW 6040   0.434   3.988   2.730  0.0465  0.0684  0.8316
 1492SOL    HW2 6041   0.429   4.079   2.700  0.3323  0.5587  2.2493
 1492SOL    HW3 6042   0.353   3.948   2.698  0.8147  0.2676 -1.5206
 1492SOL    MW4 6043   0.423   3.994   2.722  0.1856  0.1590  0.7083
 1493SOL     OW 6044   0.437   4.246   2.658  0.4269 -0.1360  0.2228
 1493SOL    HW2 6045   0.518   4.288   2.689  0.5349  0.0570 -0.3208
 1493SOL    HW3 6046   0.437   4.261   2.564  0.4679 -1.3531  0.0144
 1493SOL    MW4 6047   0.448   4.253   2.650  0.4466 -0.2708  0.1233
 1494SOL     OW 6048   0.669   4.419   2.741 -0.2413  0.0009 -0.0267
 1494SOL    HW2 6049   0.751   4.375   2.718  0.7532  1.3520  0.8532
 1494SOL    HW3 6050   0.672   4.502   2.692 -0.2434  0.8287  1.3354
 1494SOL    MW4 6051   0.681   4.424   2.731 -0.1103  0.2885  0.2692
 1495SOL     OW 6052   1.149   4.637   2.634  0.2724  0.4291 -0.0606
 1495SOL    HW2 6053   1.214   4.684   2.685  0.5151  1.0843 -0.9677
 1495SOL    HW3 6054   1.173   4.545   2.644  0.1633  0.5276  1.1998
 1495SOL    MW4 6055   1.161   4.631   2.642  0.2900  0.5288 -0.0141
 1496SOL     OW 6056   0.924   0.078   2.742  0.2400  0.0167  0.1033
 1496SOL    HW2 6057   0.941   0.089   2.835  0.5322  2.3330 -0.1813
 1496SOL    HW3 6058   1.003   0.037   2.707  0.3394 -0.3724  0.7900
 1496SOL    MW4 6059   0.937   0.074   2.750  0.2916  0.2710  0.1566
 1497SOL     OW 6060   0.943   0.354   2.663 -0.2120 -0.0433 -0.6647
 1497SOL    HW2 6061   0.928   0.262   2.686  0.5079 -0.2281 -0.9364
 1497SOL    HW3 6062   0.932   0.357   2.568 -1.6336  0.4229 -0.4979
 1497SOL    MW4 6063   0.939   0.342   2.653 -0.3046 -0.0062 -0.6785
 1498SOL     OW 6064   1.166   0.497   2.732  0.4423 -0.2064  0.3723
 1498SOL    HW2 6065   1.154   0.582   2.690  0.7226 -1.6483 -2.7542
 1498SOL    HW3 6066   1.090   0.446   2.706 -0.0418 -0.7559  2.7508
 1498SOL    MW4 6067   1.155   0.501   2.723  0.4153 -0.4692  0.2737
 1499SOL     OW 6068   1.110   0.748   2.626 -0.2879 -0.1633  0.4177
 1499SOL    HW2 6069   1.186   0.801   2.646  0.6085 -1.2595 -0.0092
 1499SOL    HW3 6070   1.100   0.755   2.531 -0.4078 -0.4281  0.4104
 1499SOL    MW4 6071   1.118   0.756   2.616 -0.1855 -0.3428  0.3603
 1500SOL     OW 6072   0.870   0.904   2.700 -0.3017  0.3532 -0.2061
 1500SOL    HW2 6073   0.874   0.917   2.795 -1.6830  0.8608 -0.2017
 1500SOL    HW3 6074   0.937   0.838   2.682  0.6623  0.9757  0.9874
 1500SOL    MW4 6075   0.879   0.897   2.710 -0.3568  0.5023 -0.0482
 1501SOL     OW 6076   0.868   1.158   2.608 -0.0430 -0.3711  0.0661
 1501SOL    HW2 6077   0.880   1.069   2.641 -0.1251 -0.2381  0.4554
 1501SOL    HW3 6078   0.870   1.148   2.513 -1.0507 -0.9290  0.0970
 1501SOL    MW4 6079   0.870   1.145   2.600 -0.1869 -0.4272  0.1216
 1502SOL     OW 6080   1.121   1.272   2.731  0.3411  0.4260  0.4031
 1502SOL    HW2 6081   1.128   1.360   2.694 -0.4659  0.8097  1.1531
 1502SOL    HW3 6082   1.042   1.236   2.691  0.5174  0.1492  0.3092
 1502SOL    MW4 6083   1.111   1.279   2.721  0.2581  0.4402  0.4897
 1503SOL     OW 6084   1.151   1.541   2.638  0.3982 -0.0977 -0.2306
 1503SOL    HW2 6085   1.072   1.575   2.679  0.2072 -0.8549  0.0481
 1503SOL    HW3 6086   1.139   1.556   2.545 -0.3624 -0.7937 -0.2483
 1503SOL    MW4 6087   1.139   1.547   2.631  0.2726 -0.2894 -0.1960
 1504SOL     OW 6088   0.930   1.665   2.727 -0.1789 -0.1938 -0.1149
 1504SOL    HW2 6089   0.942   1.644   2.819 -1.4527  0.6783  0.2645
 1504SOL    HW3 6090   0.843   1.631   2.706 -0.4363  0.7647 -0.6368
 1504SOL    MW4 6091   0.920   1.658   2.736 -0.3811  0.0478 -0.1338
 1505SOL     OW 6092   0.871   1.931   2.650  0.0624  0.3119 -0.1544
 1505SOL    HW2 6093   0.940   1.995   2.670 -0.3386 -0.1046  2.7624
 1505SOL    HW3 6094   0.912   1.846   2.668 -0.4415 -0.0885 -0.8737
 1505SOL    MW4 6095   0.886   1.928   2.655 -0.0570  0.2042  0.1354
 1506SOL     OW 6096   1.099   2.073   2.696  0.2116 -0.2124 -0.2123
 1506SOL    HW2 6097   1.190   2.044   2.686  0.6549  0.5935  1.2922
 1506SOL    HW3 6098   1.101   2.167   2.678 -0.0386  0.1022  1.3386
 1506SOL    MW4 6099   1.111   2.081   2.692  0.2371 -0.0644  0.1910
 1507SOL     OW 6100   1.102   2.328   2.589 -0.3424 -0.1452  0.1449
 1507SOL    HW2 6101   1.184   2.367   2.620 -1.1863  1.2160  0.6707
 1507SOL    HW3 6102   1.109   2.332   2.493  0.6219 -0.9254  0.1716
 1507SOL    MW4 6103   1.114   2.334   2.580 -0.3265 -0.0687  0.2179
 1508SOL     OW 6104   0.882   2.440   2.735 -0.3451 -0.2814  0.4686
 1508SOL    HW2 6105   0.870   2.532   2.711 -1.1071 -0.6470 -0.6063
 1508SOL    HW3 6106   0.954   2.411   2.680 -0.7528 -0.5838  0.0912
 1508SOL    MW4 6107   0.890   2.448   2.725 -0.4995 -0.3695  0.2768
 1509SOL     OW 6108   0.863   2.696   2.651 -0.4624 -0.4194 -0.2793
 1509SOL    HW2 6109   0.938   2.741   2.689 -0.2177 -1.1650  0.1505
 1509SOL    HW3 6110   0.787   2.743   2.684 -0.2006 -0.1430 -0.0696
 1509SOL    MW4 6111   0.863   2.708   2.661 -0.3955 -0.4814 -0.1950
 1510SOL     OW 6112   1.083   2.832   2.735  0.0000  0.0000  0.3451
 1510SOL    HW2 6113   1.106   2.825   2.828  0.0000  0.0000  0.3464
 1510SOL    HW3 6114   1.159   2.795   2.689  0.0000  0.0000  0.3491
 1510SOL    MW4 6115   1.096   2.826   2.741  0.0000  0.0000  0.3457
 1511SOL     OW 6116   1.148   3.096   2.630  0.0000  0.0000 -0.1860
 1511SOL    HW2 6117   1.122   3.007   2.653  0.0000  0.0000 -0.1888
 1511SOL    HW3 6118   1.136   3.101   2.535  0.0000  0.0000 -0.1857
 1511SOL    MW4 6119   1.143   3.085   2.620  0.0000  0.0000 -0.1864
 1512SOL     OW 6120   0.919   3.208   2.733  0.0000  0.0000  0.0105
 1512SOL    HW2 6121   0.903   3.287   2.681  0.0000  0.0000  0.0305
 1512SOL    HW3 6122   1.006   3.179   2.704  0.0000  0.0000 -0.0164
 1512SOL    MW4 6123   0.928   3.215   2.722  0.0000  0.0000  0.0095
 1513SOL     OW 6124   0.887   3.462   2.613  0.0000  0.0000 -0.6618
 1513SOL    HW2 6125   0.961   3.508   2.654  0.0000  0.0000 -0.6876
 1513SOL    HW3 6126   0.810   3.511   2.643  0.0000  0.0000 -0.6441
 1513SOL    MW4 6127   0.887   3.475   2.622  0.0000  0.0000 -0.6626
 1514SOL     OW 6128   1.102   3.599   2.719  0.0000  0.0000 -0.3581
 1514SOL    HW2 6129   1.101   3.626   2.811  0.0000  0.0000 -0.3591
 1514SOL    HW3 6130   1.100   3.681   2.670  0.0000  0.0000 -0.3610
 1514SOL    MW4 6131   1.102   3.613   2.724  0.0000  0.0000 -0.3583
 1515SOL     OW 6132   1.098   3.851   2.611  0.0000  0.0000 -0.4713
 1515SOL    HW2 6133   1.178   3.889   2.649  0.0000  0.0000 -0.4728
 1515SOL    HW3 6134   1.110   3.859   2.517  0.0000  0.0000 -0.4716
 1515SOL    MW4 6135   1.110   3.857   2.604  0.0000  0.0000 -0.4716
 1516SOL     OW 6136   0.893   4.008   2.742  0.0000  0.0000  0.7292
 1516SOL    HW2 6137   0.957   3.963   2.687  0.0000  0.0000  0.7337
 1516SOL    HW3 6138   0.809   3.969   2.716  0.0000  0.0000  0.7072
 1516SOL    MW4 6139   0.890   3.997   2.731  0.0000  0.0000  0.7269
 1517SOL     OW 6140   0.888   4.266   2.651  0.0000  0.0000  0.0861
 1517SOL    HW2 6141   0.892   4.174   2.676  0.0000  0.0000  0.0869
 1517SOL    HW3 6142   0.884   4.265   2.556  0.0000  0.0000  0.0861
 1517SOL    MW4 6143   0.888   4.254   2.642  0.0000  0.0000  0.0861
 1518SOL     OW 6144   1.144   4.351   2.710  0.0000  0.0000 -1.0416
 1518SOL    HW2 6145   1.137   4.378   2.802  0.0000  0.0000 -1.0419
 1518SOL    HW3 6146   1.055   4.327   2.685  0.0000  0.0000 -1.0423
 1518SOL    MW4 6147   1.131   4.351   2.719  0.0000  0.0000 -1.0414
 1519SOL     OW 6148   1.575   4.634   2.630  0.0151 -0.9836  0.1887
 1519SOL    HW2 6149   1.598   4.545   2.657 -1.3599 -1.4694 -0.2135
 1519SOL    HW3 6150   1.591   4.636   2.535  2.1511 -0.1256  0.5456
 1519SOL    MW4 6151   1.580   4.623   2.621  0.1155 -0.9341  0.1829
 1520SOL     OW 6152   1.360   0.104   2.738  0.3719 -0.0373  0.6458
 1520SOL    HW2 6153   1.350   0.190   2.697 -0.5056 -0.2498  0.4084
 1520SOL    HW3 6154   1.423   0.058   2.682  0.3854  0.2386  0.4322
 1520SOL    MW4 6155   1.367   0.110   2.725  0.2578 -0.0289  0.5860
 1521SOL     OW 6156   1.374   0.361   2.619 -0.2706 -0.5892  0.0120
 1521SOL    HW2 6157   1.455   0.393   2.659 -0.3547 -0.7631  0.3265
 1521SOL    HW3 6158   1.305   0.413   2.658 -0.2210  0.3166 -1.0755
 1521SOL    MW4 6159   1.376   0.372   2.629 -0.2753 -0.4926 -0.0901
 1522SOL     OW 6160   1.603   0.466   2.750 -0.3053 -0.3372  0.2796
 1522SOL    HW2 6161   1.674   0.431   2.697  1.0042  1.6236  0.6544
 1522SOL    HW3 6162   1.598   0.559   2.725 -1.9204 -0.1568  1.1607
 1522SOL    MW4 6163   1.611   0.474   2.740 -0.3456 -0.0547  0.4451
 1523SOL     OW 6164   1.567   0.732   2.675 -0.4056 -0.6651 -0.3663
 1523SOL    HW2 6165   1.485   0.775   2.697 -1.1054 -2.1112 -0.0839
 1523SOL    HW3 6166   1.582   0.753   2.583 -0.3276  0.8067 -0.0317
 1523SOL    MW4 6167   1.559   0.741   2.666 -0.4878 -0.6617 -0.2849
 1524SOL     OW 6168   1.334   0.889   2.718 -0.0583  0.0186 -0.2200
 1524SOL    HW2 6169   1.324   0.888   2.813 -0.8549 -1.6584 -0.2912
 1524SOL    HW3 6170   1.350   0.980   2.696 -0.4764  0.5173  1.4714
 1524SOL    MW4 6171   1.335   0.901   2.727 -0.2186 -0.1369 -0.0060
 1525SOL     OW 6172   1.384   1.154   2.664 -0.3196 -0.0023  0.1593
 1525SOL    HW2 6173   1.451   1.216   2.693  0.2700  0.4214 -1.9688
 1525SOL    HW3 6174   1.301   1.195   2.689  0.1366  0.7469  0.4719
 1525SOL    MW4 6175   1.382   1.168   2.671 -0.1817  0.1525 -0.0801
 1526SOL     OW 6176   1.603   1.287   2.750  0.0952 -0.3238  0.1302
 1526SOL    HW2 6177   1.617   1.268   2.843 -0.2307 -0.0892  0.2312
 1526SOL    HW3 6178   1.663   1.230   2.704 -0.7128 -1.4330  0.4352
 1526SOL    MW4 6179   1.613   1.277   2.757 -0.0544 -0.4393  0.1838
 1527SOL     OW 6180   1.571   1.520   2.618 -0.2389  0.0691 -0.2247
 1527SOL    HW2 6181   1.575   1.434   2.660 -3.7348 -1.0745 -1.9941
 1527SOL    HW3 6182   1.579   1.502   2.525  0.9448  1.8856 -0.4969
 1527SOL    MW4 6183   1.573   1.506   2.611 -0.5441  0.1577 -0.4942
 1528SOL     OW 6184   1.359   1.686   2.736 -0.3396  0.3070  0.5115
 1528SOL    HW2 6185   1.436   1.635   2.712  0.1921  0.3573  2.0974
 1528SOL    HW3 6186   1.286   1.636   2.699  0.3207 -0.6072  0.4281
 1528SOL    MW4 6187   1.359   1.672   2.728 -0.1823  0.1930  0.7100
 1529SOL     OW 6188   1.340   1.942   2.643 -0.0917  0.0661  0.0928
 1529SOL    HW2 6189   1.361   1.855   2.676  0.2798 -0.0042 -0.3168
 1529SOL    HW3 6190   1.342   1.933   2.547  2.6092  1.1019 -0.0116
 1529SOL    MW4 6191   1.343   1.930   2.634  0.3136  0.1935  0.0250
 1530SOL     OW 6192   1.569   2.089   2.759 -0.0350 -0.2142  0.1511
 1530SOL    HW2 6193   1.652   2.055   2.726  0.5665  1.8095 -0.4699
 1530SOL    HW3 6194   1.503   2.032   2.719  1.0029 -1.3513  0.0288
 1530SOL    MW4 6195   1.571   2.077   2.749  0.1816 -0.0975  0.0532
 1531SOL     OW 6196   1.535   2.328   2.628 -0.3388 -0.2052  0.0478
 1531SOL    HW2 6197   1.617   2.372   2.648 -0.2698 -0.1554 -0.3473
 1531SOL    HW3 6198   1.546   2.239   2.662 -0.2717 -0.0803  0.3524
 1531SOL    MW4 6199   1.547   2.322   2.635 -0.3208 -0.1822  0.0358
 1532SOL     OW 6200   1.299   2.480   2.704  0.0798  0.1676  0.6641
 1532SOL    HW2 6201   1.305   2.556   2.646  0.0190  0.0310  0.4789
 1532SOL    HW3 6202   1.378   2.430   2.684  0.4528  0.5129  1.2530
 1532SOL    MW4 6203   1.311   2.484   2.694  0.1210  0.1950  0.7174
 1533SOL     OW 6204   1.308   2.734   2.593  0.4972 -0.4087  0.2125
 1533SOL    HW2 6205   1.392   2.775   2.614  0.5236 -0.6329  0.5522
 1533SOL    HW3 6206   1.297   2.747   2.499  2.2587 -2.8675 -0.3736
 1533SOL    MW4 6207   1.317   2.741   2.583  0.7330 -0.7632  0.1800
 1534SOL     OW 6208   1.568   2.827   2.689  0.1039  0.0399  0.1003
 1534SOL    HW2 6209   1.575   2.834   2.785  0.4442 -0.6334  0.1313
 1534SOL    HW3 6210   1.649   2.782   2.663 -0.6936 -1.1570 -0.3425
 1534SOL    MW4 6211   1.580   2.822   2.698  0.0437 -0.2067  0.0460
 1535SOL     OW 6212   1.569   3.078   2.583 -0.1299  0.2983 -0.0177
 1535SOL    HW2 6213   1.642   3.125   2.623 -0.0066  0.7161 -0.7234
 1535SOL    HW3 6214   1.570   2.992   2.625  1.4122 -0.0605 -0.7461
 1535SOL    MW4 6215   1.579   3.073   2.594  0.0899  0.3061 -0.2069
 1536SOL     OW 6216   1.370   3.232   2.706 -0.0497 -0.1208  0.8659
 1536SOL    HW2 6217   1.441   3.173   2.682  0.1839  0.6905 -0.5261
 1536SOL    HW3 6218   1.291   3.179   2.697  0.1264 -0.1345 -0.7488
 1536SOL    MW4 6219   1.369   3.217   2.701  0.0042 -0.0155  0.4692
 1537SOL     OW 6220   1.340   3.483   2.609 -0.0937 -0.1732 -0.3663
 1537SOL    HW2 6221   1.345   3.394   2.644 -1.6715 -0.0183  0.2957
 1537SOL    HW3 6222   1.264   3.522   2.652  0.5598  1.4988 -0.6594
 1537SOL    MW4 6223   1.331   3.477   2.619 -0.2156  0.0679 -0.3176
 1538SOL     OW 6224   1.574   3.597   2.679 -0.0625  0.3738  0.1772
 1538SOL    HW2 6225   1.634   3.533   2.641  0.7975  0.9746  0.5225
 1538SOL    HW3 6226   1.487   3.566   2.653  0.3678 -0.7018 -0.0128
 1538SOL    MW4 6227   1.570   3.585   2.670  0.1078  0.3109  0.1974
 1539SOL     OW 6228   1.574   3.861   2.602 -0.4073 -0.1956  0.1255
 1539SOL    HW2 6229   1.498   3.902   2.643 -0.4209  0.2323 -0.3179
 1539SOL    HW3 6230   1.569   3.769   2.627 -0.8203 -0.0792  0.4704
 1539SOL    MW4 6231   1.563   3.855   2.610 -0.4636 -0.1235  0.1125
 1540SOL     OW 6232   1.340   3.947   2.701 -0.0864  0.0045  0.2354
 1540SOL    HW2 6233   1.335   3.948   2.797 -1.0705  0.6562  0.1886
 1540SOL    HW3 6234   1.330   4.039   2.676  1.6461  0.0299 -0.4374
 1540SOL    MW4 6235   1.338   3.959   2.710  0.0124  0.0937  0.1404
 1541SOL     OW 6236   1.364   4.209   2.620  0.1145 -0.2286 -0.1868
 1541SOL    HW2 6237   1.293   4.262   2.657 -0.0346 -0.0841 -0.6701
 1541SOL    HW3 6238   1.368   4.236   2.528 -0.0838 -1.1836 -0.4811
 1541SOL    MW4 6239   1.355   4.220   2.613  0.0687 -0.3357 -0.2892
 1542SOL     OW 6240   1.595   4.360   2.700  0.4574 -0.0373 -0.1348
 1542SOL    HW2 6241   1.580   4.364   2.795  1.1117  1.4019 -0.0769
 1542SOL    HW3 6242   1.519   4.313   2.666  0.2735 -0.6741  1.1146
 1542SOL    MW4 6243   1.583   4.354   2.708  0.5194  0.0691  0.0377
 1543SOL     OW 6244   2.018   4.597   2.634  0.0862 -0.0892 -0.0164
 1543SOL    HW2 6245   2.076   4.651   2.687 -0.2768 -0.6151  0.9329
 1543SOL    HW3 6246   2.040   4.619   2.543  0.3117  1.2397  0.3545
 1543SOL    MW4 6247   2.028   4.607   2.629  0.0679  0.0172  0.1576
 1544SOL     OW 6248   1.818   0.094   2.728  0.3250 -0.4338  0.0953
 1544SOL    HW2 6249   1.881   0.032   2.692 -0.7936 -1.9142  0.6339
 1544SOL    HW3 6250   1.732   0.057   2.707 -0.3588  0.2217  1.6130
 1544SOL    MW4 6251   1.815   0.081   2.720  0.0871 -0.5426  0.3667
 1545SOL     OW 6252   1.818   0.339   2.588  0.8691 -0.1467  0.4568
 1545SOL    HW2 6253   1.895   0.378   2.629  1.3409 -1.0487  0.4609
 1545SOL    HW3 6254   1.811   0.253   2.629 -0.1360 -0.0752  0.4365
 1545SOL    MW4 6255   1.827   0.333   2.599  0.7986 -0.2562  0.4544
 1546SOL     OW 6256   2.031   0.469   2.756 -0.1791 -0.1348 -0.3579
 1546SOL    HW2 6257   2.121   0.436   2.758 -0.1451  0.0220  1.3883
 1546SOL    HW3 6258   2.039   0.556   2.715  0.4475 -0.1447 -0.2640
 1546SOL    MW4 6259   2.044   0.476   2.751 -0.0920 -0.1155 -0.1149
 1547SOL     OW 6260   2.021   0.716   2.658  0.3837 -0.3219  0.0136
 1547SOL    HW2 6261   1.948   0.765   2.696 -1.3000 -1.7050 -1.3405
 1547SOL    HW3 6262   2.019   0.738   2.565  0.3732 -2.0164 -0.3942
 1547SOL    MW4 6263   2.011   0.726   2.651  0.1602 -0.7280 -0.2189
 1548SOL     OW 6264   1.804   0.866   2.754 -0.3783  0.1840 -1.1216
 1548SOL    HW2 6265   1.802   0.954   2.716 -1.6592  0.6305 -0.0658
 1548SOL    HW3 6266   1.720   0.828   2.730 -0.9316  0.2363  0.6839
 1548SOL    MW4 6267   1.793   0.873   2.746 -0.6201  0.2499 -0.7441
 1549SOL     OW 6268   1.808   1.142   2.626  0.1508 -0.7541  0.1511
 1549SOL    HW2 6269   1.885   1.182   2.665  0.0303 -0.6741  0.3068
 1549SOL    HW3 6270   1.812   1.167   2.533 -1.7607  2.5379  0.8813
 1549SOL    MW4 6271   1.818   1.151   2.619 -0.1173 -0.3093  0.2680
 1550SOL     OW 6272   2.026   1.289   2.719 -0.4607 -0.8167  0.2246
 1550SOL    HW2 6273   2.022   1.281   2.814 -0.1891  0.4336  0.3528
 1550SOL    HW3 6274   2.110   1.250   2.696 -0.1344 -0.3416  0.5934
 1550SOL    MW4 6275   2.037   1.283   2.728 -0.3819 -0.5890  0.2902
 1551SOL     OW 6276   2.037   1.542   2.619 -0.1542  0.0947 -0.2953
 1551SOL    HW2 6277   1.955   1.579   2.652  0.2000  0.7609 -0.1539
 1551SOL    HW3 6278   2.033   1.450   2.644  0.2894  0.6495  1.9914
 1551SOL    MW4 6279   2.026   1.535   2.627 -0.0489  0.2557  0.0253
 1552SOL     OW 6280   1.788   1.676   2.698  0.4297 -0.3955  0.1087
 1552SOL    HW2 6281   1.785   1.681   2.793  0.4392 -0.7335  0.1292
 1552SOL    HW3 6282   1.708   1.630   2.673  0.7508 -0.9113  0.0035
 1552SOL    MW4 6283   1.777   1.670   2.707  0.4734 -0.5081  0.0973
 1553SOL     OW 6284   1.789   1.952   2.643  0.2005 -0.2029  0.0242
 1553SOL    HW2 6285   1.881   1.972   2.659  0.1721  0.0135 -0.0864
 1553SOL    HW3 6286   1.784   1.856   2.647  0.4625 -0.2227 -0.1684
 1553SOL    MW4 6287   1.800   1.942   2.646  0.2314 -0.1770 -0.0160
 1554SOL     OW 6288   2.042   2.027   2.725  0.1850  0.0159  0.2030
 1554SOL    HW2 6289   2.039   2.031   2.821  2.6094  0.7193  0.2799
 1554SOL    HW3 6290   2.039   2.118   2.697 -1.4776 -0.2315 -0.4371
 1554SOL    MW4 6291   2.042   2.040   2.734  0.2854  0.0761  0.1290
 1555SOL     OW 6292   2.018   2.292   2.645  0.2064  0.2385  0.0188
 1555SOL    HW2 6293   2.083   2.352   2.683  0.3397  0.1280 -0.0359
 1555SOL    HW3 6294   2.015   2.317   2.552  0.8597 -0.3854 -0.1709
 1555SOL    MW4 6295   2.026   2.303   2.638  0.3102  0.1416 -0.0136
 1556SOL     OW 6296   1.785   2.443   2.732  0.3641  0.4079  0.2761
 1556SOL    HW2 6297   1.797   2.458   2.826  1.0246  2.5750 -0.1239
 1556SOL    HW3 6298   1.857   2.385   2.708 -0.6423 -1.3610  1.3553
 1556SOL    MW4 6299   1.796   2.437   2.742  0.3184  0.4606  0.3657
 1557SOL     OW 6300   1.826   2.708   2.641  0.4004 -0.1124 -0.3953
 1557SOL    HW2 6301   1.818   2.614   2.659  0.7757 -0.0818 -0.0471
 1557SOL    HW3 6302   1.816   2.715   2.546  0.5452 -0.5288 -0.4441
 1557SOL    MW4 6303   1.824   2.697   2.631  0.4691 -0.1633 -0.3560
 1558SOL     OW 6304   2.045   2.866   2.695 -0.3480 -0.5109  0.1357
 1558SOL    HW2 6305   2.127   2.820   2.677  0.2269  1.4534 -2.5217
 1558SOL    HW3 6306   1.976   2.802   2.676  0.4705 -0.7220 -2.2038
 1558SOL    MW4 6307   2.047   2.851   2.690 -0.1643 -0.2797 -0.5236
 1559SOL     OW 6308   2.016   3.114   2.603 -0.3156  0.0469 -0.0053
 1559SOL    HW2 6309   2.035   3.022   2.618  1.1981  0.3009 -0.2378
 1559SOL    HW3 6310   2.016   3.123   2.508 -0.6423  0.2550  0.0131
 1559SOL    MW4 6311   2.018   3.103   2.592 -0.1590  0.1080 -0.0334
 1560SOL     OW 6312   1.780   3.210   2.702 -0.0099 -0.3180  0.2865
 1560SOL    HW2 6313   1.785   3.297   2.662 -0.3148 -0.5173 -0.1979
 1560SOL    HW3 6314   1.865   3.170   2.682  0.5752  0.3008  1.5333
 1560SOL    MW4 6315   1.792   3.216   2.694  0.0272 -0.2625  0.3870
 1561SOL     OW 6316   1.782   3.440   2.569  0.3169  0.3228 -0.2384
 1561SOL    HW2 6317   1.848   3.489   2.618  0.7288  0.0956 -0.5693
 1561SOL    HW3 6318   1.787   3.476   2.480  0.2604  0.0352 -0.3562
 1561SOL    MW4 6319   1.791   3.451   2.563  0.3639  0.2549 -0.2978
 1562SOL     OW 6320   2.009   3.592   2.697 -0.1685 -0.4402 -0.2966
 1562SOL    HW2 6321   2.015   3.604   2.792 -0.7928 -0.3107 -0.2700
 1562SOL    HW3 6322   2.098   3.573   2.669  0.3941  1.6497  0.0174
 1562SOL    MW4 6323   2.021   3.591   2.706 -0.1764 -0.1476 -0.2520
 1563SOL     OW 6324   2.010   3.877   2.602  0.1183 -0.1477  0.4936
 1563SOL    HW2 6325   1.951   3.918   2.665  0.4002 -0.2072  0.7965
 1563SOL    HW3 6326   2.010   3.784   2.626 -1.7164 -0.5951 -1.1383
 1563SOL    MW4 6327   2.002   3.870   2.614 -0.0863 -0.2141  0.3183
 1564SOL     OW 6328   1.816   3.993   2.747 -0.1680 -0.0051 -0.3186
 1564SOL    HW2 6329   1.803   4.076   2.702 -0.0413  0.4845  0.5498
 1564SOL    HW3 6330   1.745   3.937   2.715  1.2877 -0.4400 -2.9414
 1564SOL    MW4 6331   1.805   3.996   2.737  0.0408  0.0021 -0.5505
 1565SOL     OW 6332   1.826   4.237   2.626  0.1135  0.8844 -0.5786
 1565SOL    HW2 6333   1.747   4.276   2.662  1.0197  1.5242  0.7587
 1565SOL    HW3 6334   1.814   4.241   2.531 -1.8866  0.0599 -0.3933
 1565SOL    MW4 6335   1.814   4.242   2.618 -0.0308  0.8602 -0.3777
 1566SOL     OW 6336   2.051   4.352   2.765 -0.2342 -0.1098  0.2438
 1566SOL    HW2 6337   1.977   4.304   2.727  0.1255 -1.2468  0.9696
 1566SOL    HW3 6338   2.050   4.437   2.720 -0.5490 -0.9802 -1.4214
 1566SOL    MW4 6339   2.041   4.357   2.754 -0.2284 -0.3743  0.1197
 1567SOL     OW 6340   2.463   4.637   2.623  0.0838  0.2136  0.7668
 1567SOL    HW2 6341   2.538   4.667   2.673  0.2148 -1.0815  1.3648
 1567SOL    HW3 6342   2.485   4.655   2.532  0.7236  0.6823  1.0167
 1567SOL    MW4 6343   2.476   4.643   2.618  0.1855  0.1049  0.8788
 1568SOL     OW 6344   2.230   0.094   2.730 -0.5975 -0.4458  0.4388
 1568SOL    HW2 6345   2.247   0.096   2.824 -0.9507 -1.2460  0.5237
 1568SOL    HW3 6346   2.304   0.047   2.693 -0.1691  0.3757  0.2490
 1568SOL    MW4 6347   2.242   0.088   2.738 -0.5875 -0.4429  0.4251
 1569SOL     OW 6348   2.279   0.364   2.664 -0.0291 -0.2161 -0.3959
 1569SOL    HW2 6349   2.271   0.273   2.694 -0.1942  0.0047  0.2350
 1569SOL    HW3 6350   2.266   0.359   2.569 -1.5740 -0.6685 -0.1760
 1569SOL    MW4 6351   2.276   0.351   2.655 -0.2546 -0.2466 -0.2837
 1570SOL     OW 6352   2.482   0.542   2.707 -0.2585  0.0675 -0.0531
 1570SOL    HW2 6353   2.464   0.632   2.681 -0.3243 -0.2206 -1.0365
 1570SOL    HW3 6354   2.403   0.494   2.681  0.6155 -0.6402 -1.4506
 1570SOL    MW4 6355   2.469   0.547   2.700 -0.1521 -0.0639 -0.3676
 1571SOL     OW 6356   2.431   0.810   2.605  0.1476  0.2468 -0.3140
 1571SOL    HW2 6357   2.341   0.840   2.619 -0.7186 -2.1980 -0.2533
 1571SOL    HW3 6358   2.439   0.804   2.510 -0.0700 -0.3409 -0.3021
 1571SOL    MW4 6359   2.420   0.813   2.594  0.0045 -0.1533 -0.3040
 1572SOL     OW 6360   2.189   0.908   2.731 -0.5514 -0.1098  0.0766
 1572SOL    HW2 6361   2.171   0.909   2.825  0.5109 -0.7974  0.2879
 1572SOL    HW3 6362   2.134   0.838   2.696 -0.5539 -0.2006  0.2632
 1572SOL    MW4 6363   2.179   0.899   2.739 -0.4115 -0.2126  0.1290
 1573SOL     OW 6364   2.237   1.170   2.614 -0.5633  0.1670 -0.5786
 1573SOL    HW2 6365   2.223   1.078   2.639  0.1180 -0.2144 -1.5841
 1573SOL    HW3 6366   2.227   1.170   2.519 -1.4680  1.3056 -0.4861
 1573SOL    MW4 6367   2.234   1.158   2.605 -0.5929  0.2669 -0.6993
 1574SOL     OW 6368   2.472   1.302   2.731  0.4600 -0.2698 -0.8321
 1574SOL    HW2 6369   2.532   1.237   2.695 -1.1804 -2.9990  1.1694
 1574SOL    HW3 6370   2.386   1.261   2.724 -0.8202  2.3807 -0.9805
 1574SOL    MW4 6371   2.469   1.288   2.725  0.0749 -0.2803 -0.5875
 1575SOL     OW 6372   2.462   1.547   2.608  0.0235  0.1957  0.0279
 1575SOL    HW2 6373   2.381   1.574   2.651 -1.4946 -1.2730 -1.8370
 1575SOL    HW3 6374   2.473   1.455   2.633  1.0832  0.3479  0.1732
 1575SOL    MW4 6375   2.453   1.538   2.617 -0.0370  0.0222 -0.1991
 1576SOL     OW 6376   2.255   1.635   2.761 -0.1357  0.4359 -0.2587
 1576SOL    HW2 6377   2.261   1.724   2.726 -1.0838  0.2437 -0.9198
 1576SOL    HW3 6378   2.180   1.596   2.716  1.1845 -1.2107 -1.1203
 1576SOL    MW4 6379   2.246   1.641   2.750 -0.0868  0.1934 -0.4594
 1577SOL     OW 6380   2.254   1.891   2.654 -0.5641  0.3206 -0.6302
 1577SOL    HW2 6381   2.173   1.934   2.681 -0.4258  0.5128 -0.5257
 1577SOL    HW3 6382   2.251   1.893   2.558 -1.7924 -1.7148 -0.6659
 1577SOL    MW4 6383   2.243   1.897   2.645 -0.7079  0.0775 -0.6211
 1578SOL     OW 6384   2.461   2.045   2.756 -0.1634 -0.3000  0.5269
 1578SOL    HW2 6385   2.449   2.125   2.705 -0.1181 -1.0935 -0.7327
 1578SOL    HW3 6386   2.379   1.997   2.744  0.8469 -1.6794 -0.9134
 1578SOL    MW4 6387   2.448   2.049   2.748 -0.0241 -0.5865  0.1707
 1579SOL     OW 6388   2.417   2.289   2.626  0.3345  0.5578 -0.5671
 1579SOL    HW2 6389   2.491   2.325   2.674  0.3838 -1.2863  0.7853
 1579SOL    HW3 6390   2.446   2.287   2.535  0.3498  3.7813 -0.6761
 1579SOL    MW4 6391   2.430   2.293   2.620  0.3431  0.7398 -0.4029
 1580SOL     OW 6392   2.226   2.439   2.750  0.2986 -0.3023 -0.0763
 1580SOL    HW2 6393   2.238   2.437   2.845  0.1313 -1.4787 -0.0773
 1580SOL    HW3 6394   2.292   2.378   2.716  1.4453  1.3172 -0.8387
 1580SOL    MW4 6395   2.237   2.431   2.758  0.4282 -0.2437 -0.1769
 1581SOL     OW 6396   2.247   2.697   2.660  0.2371 -0.0967  0.3345
 1581SOL    HW2 6397   2.329   2.739   2.686  0.7862  0.1426 -1.7064
 1581SOL    HW3 6398   2.256   2.606   2.689  0.7153  0.2180  1.1853
 1581SOL    MW4 6399   2.259   2.691   2.667  0.3722 -0.0238  0.1776
 1582SOL     OW 6400   2.462   2.859   2.689 -0.0432 -0.0100  0.1156
 1582SOL    HW2 6401   2.545   2.813   2.677 -0.2087 -0.5268  0.9123
 1582SOL    HW3 6402   2.478   2.947   2.656  1.0304  0.0991  0.9255
 1582SOL    MW4 6403   2.475   2.864   2.683  0.0765 -0.0639  0.3276
 1583SOL     OW 6404   2.457   3.114   2.611  0.2222  0.2048  0.1819
 1583SOL    HW2 6405   2.375   3.156   2.637  0.3883 -0.0570  1.1386
 1583SOL    HW3 6406   2.458   3.121   2.516 -1.2145 -0.3401  0.1124
 1583SOL    MW4 6407   2.446   3.121   2.602  0.0546  0.0980  0.2990
 1584SOL     OW 6408   2.258   3.258   2.706 -0.7831  0.1174 -0.3455
 1584SOL    HW2 6409   2.274   3.251   2.800 -0.5448  0.3430 -0.3703
 1584SOL    HW3 6410   2.166   3.233   2.696 -0.6083 -0.6160 -0.1405
 1584SOL    MW4 6411   2.248   3.254   2.717 -0.7286  0.0505 -0.3216
 1585SOL     OW 6412   2.276   3.506   2.593 -0.1311  0.2931 -0.1265
 1585SOL    HW2 6413   2.360   3.540   2.624 -0.2823  0.6263 -0.0709
 1585SOL    HW3 6414   2.267   3.421   2.636  0.9647 -0.5109 -1.4740
 1585SOL    MW4 6415   2.286   3.499   2.603 -0.0062  0.2313 -0.2968
 1586SOL     OW 6416   2.504   3.621   2.704 -0.8068  0.3502  0.3549
 1586SOL    HW2 6417   2.488   3.622   2.798 -0.0569 -0.8043  0.5127
 1586SOL    HW3 6418   2.508   3.713   2.679 -0.5721  0.6665  1.5290
 1586SOL    MW4 6419   2.502   3.633   2.713 -0.6766  0.2394  0.5307
 1587SOL     OW 6420   2.474   3.894   2.574 -0.7903  0.3663  0.4272
 1587SOL    HW2 6421   2.544   3.955   2.597 -1.4910  1.5715 -0.5701
 1587SOL    HW3 6422   2.395   3.933   2.611 -1.7498  1.7233 -2.8561
 1587SOL    MW4 6423   2.473   3.907   2.582 -1.0095  0.7045 -0.1378
 1588SOL     OW 6424   2.257   4.001   2.696  0.3778  0.2183  0.5385
 1588SOL    HW2 6425   2.248   3.988   2.791  1.9897 -1.2388  0.5199
 1588SOL    HW3 6426   2.181   3.956   2.659 -0.1885  0.6768  1.1008
 1588SOL    MW4 6427   2.245   3.994   2.704  0.5159  0.0868  0.6104
 1589SOL     OW 6428   2.276   4.263   2.612 -0.1289 -0.2259 -0.0690
 1589SOL    HW2 6429   2.268   4.168   2.623 -1.0027 -0.1629 -0.1513
 1589SOL    HW3 6430   2.201   4.299   2.658 -0.6094  0.3463 -1.2882
 1589SOL    MW4 6431   2.265   4.255   2.620 -0.3078 -0.1426 -0.2408
 1590SOL     OW 6432   2.461   4.387   2.763  0.3760 -0.2758 -0.7613
 1590SOL    HW2 6433   2.396   4.337   2.713  0.3518 -0.6643 -0.3372
 1590SOL    HW3 6434   2.457   4.475   2.724 -1.1761  0.0003 -0.0329
 1590SOL    MW4 6435   2.452   4.392   2.751  0.1681 -0.2909 -0.6092
 1591SOL     OW 6436   2.920   0.031   2.665  0.4197  0.2658  0.3463
 1591SOL    HW2 6437   3.006   0.069   2.681 -0.2419  1.5454  0.8707
 1591SOL    HW3 6438   2.910   0.034   2.570  0.0540  2.1206  0.4294
 1591SOL    MW4 6439   2.930   0.036   2.655  0.2844  0.6793  0.4265
 1592SOL     OW 6440   2.667   0.081   2.777 -0.0569 -0.2266 -0.2254
 1592SOL    HW2 6441   2.659   0.081   2.873  0.5977 -1.0236 -0.1710
 1592SOL    HW3 6442   2.760   0.069   2.761 -0.1720 -0.1303 -0.9698
 1592SOL    MW4 6443   2.678   0.080   2.788  0.0143 -0.3190 -0.3166
 1593SOL     OW 6444   2.659   0.332   2.644  0.0165  0.3591 -0.7070
 1593SOL    HW2 6445   2.659   0.249   2.690  1.0007  0.1737 -1.0397
 1593SOL    HW3 6446   2.596   0.386   2.692 -0.8266 -0.6592 -0.6590
 1593SOL    MW4 6447   2.651   0.328   2.656  0.0350  0.2003 -0.7446
 1594SOL     OW 6448   2.879   0.484   2.712  0.4519 -0.0518 -0.7270
 1594SOL    HW2 6449   2.869   0.572   2.676 -0.6641  0.7091  1.3649
 1594SOL    HW3 6450   2.794   0.442   2.698 -0.2316  0.4888  1.5297
 1594SOL    MW4 6451   2.867   0.490   2.705  0.2143  0.1199 -0.1533
 1595SOL     OW 6452   2.873   0.748   2.604 -0.4294 -0.0998 -0.2181
 1595SOL    HW2 6453   2.945   0.804   2.632 -0.0278 -0.7891  0.1172
 1595SOL    HW3 6454   2.795   0.788   2.642 -0.2013  0.4921 -0.3609
 1595SOL    MW4 6455   2.872   0.761   2.612 -0.3464 -0.1127 -0.1926
 1596SOL     OW 6456   2.669   0.907   2.718  0.1860  0.4192  0.5290
 1596SOL    HW2 6457   2.657   0.915   2.813 -0.5672  2.0030  0.3159
 1596SOL    HW3 6458   2.582   0.883   2.685  0.5201 -0.4465  0.2657
 1596SOL    MW4 6459   2.656   0.905   2.727  0.1307  0.5140  0.4659
 1597SOL     OW 6460   2.669   1.160   2.615  0.3879 -0.0582 -0.6933
 1597SOL    HW2 6461   2.735   1.207   2.666 -1.1824  0.0458  1.3226
 1597SOL    HW3 6462   2.679   1.069   2.644  0.2337 -0.1812 -1.0339
 1597SOL    MW4 6463   2.679   1.154   2.626  0.1602 -0.0607 -0.4723
 1598SOL     OW 6464   2.860   1.308   2.739 -0.3461  0.0215 -0.3027
 1598SOL    HW2 6465   2.847   1.308   2.834  0.6107  2.1038 -0.1359
 1598SOL    HW3 6466   2.946   1.268   2.726 -0.6209 -0.5666 -0.3237
 1598SOL    MW4 6467   2.870   1.303   2.750 -0.2563  0.2187 -0.2837
 1599SOL     OW 6468   2.856   1.533   2.591  0.4815 -0.0172 -0.6981
 1599SOL    HW2 6469   2.793   1.586   2.641  0.9140 -0.2073  0.0474
 1599SOL    HW3 6470   2.859   1.449   2.636  0.7851 -0.2357 -1.1184
 1599SOL    MW4 6471   2.848   1.529   2.603  0.5786 -0.0710 -0.6549
 1600SOL     OW 6472   2.670   1.694   2.729  0.3613 -0.4412  0.3069
 1600SOL    HW2 6473   2.657   1.693   2.824 -0.4666 -0.0508  0.1993
 1600SOL    HW3 6474   2.591   1.653   2.694  0.4529 -0.1534 -0.2359
 1600SOL    MW4 6475   2.658   1.688   2.737  0.2639 -0.3518  0.2210
 1601SOL     OW 6476   2.652   1.936   2.585 -0.2108  0.0166 -0.0513
 1601SOL    HW2 6477   2.674   1.860   2.639  1.5766 -0.2102 -1.0293
 1601SOL    HW3 6478   2.604   1.994   2.643 -1.9817 -2.0351  0.6085
 1601SOL    MW4 6479   2.649   1.933   2.600 -0.2086 -0.2841 -0.0932
 1602SOL     OW 6480   2.878   2.029   2.706 -0.1344  0.0731  0.1199
 1602SOL    HW2 6481   2.878   2.117   2.669 -0.1243  0.3404  0.7593
 1602SOL    HW3 6482   2.801   1.987   2.667  0.2725  0.1233 -0.7461
 1602SOL    MW4 6483   2.868   2.035   2.696 -0.0794  0.1147  0.0899
 1603SOL     OW 6484   2.868   2.300   2.603  0.1369  0.0565  0.1830
 1603SOL    HW2 6485   2.947   2.331   2.648 -0.5725  1.3030  0.6000
 1603SOL    HW3 6486   2.796   2.349   2.644 -1.0266 -2.0429  0.7298
 1603SOL    MW4 6487   2.869   2.311   2.614 -0.1104 -0.0560  0.3102
 1604SOL     OW 6488   2.635   2.410   2.742 -0.0320  0.1999 -0.4962
 1604SOL    HW2 6489   2.670   2.406   2.831 -1.3687 -0.3266  0.0195
 1604SOL    HW3 6490   2.635   2.503   2.720  0.9349  0.2714 -0.2107
 1604SOL    MW4 6491   2.640   2.422   2.751 -0.0808  0.1402 -0.3903
 1605SOL     OW 6492   2.669   2.665   2.646  0.4195 -0.4514  0.0515
 1605SOL    HW2 6493   2.748   2.708   2.679  0.2008  0.9243 -1.1610
 1605SOL    HW3 6494   2.680   2.667   2.551 -0.3938 -1.5909 -0.0707
 1605SOL    MW4 6495   2.681   2.671   2.638  0.2832 -0.4203 -0.1247
 1606SOL     OW 6496   2.892   2.798   2.736  0.0300  0.3403 -0.0551
 1606SOL    HW2 6497   2.911   2.810   2.829  0.3566 -1.4550  0.1292
 1606SOL    HW3 6498   2.967   2.750   2.702 -0.4488  0.2999 -1.0831
 1606SOL    MW4 6499   2.904   2.793   2.743  0.0100  0.0980 -0.1664
 1607SOL     OW 6500   2.921   3.060   2.653  0.3367  0.0334  0.5973
 1607SOL    HW2 6501   2.844   3.111   2.678 -0.7282 -0.7888 -0.9681
 1607SOL    HW3 6502   2.907   2.974   2.691  0.4698 -0.1170  0.3106
 1607SOL    MW4 6503   2.909   3.055   2.661  0.2139 -0.0949  0.3529
 1608SOL     OW 6504   2.697   3.204   2.740 -0.2869  0.2865  0.2629
 1608SOL    HW2 6505   2.711   3.297   2.720  0.2850 -0.0002 -0.6530
 1608SOL    HW3 6506   2.625   3.178   2.683 -1.5455  0.5662  1.6728
 1608SOL    MW4 6507   2.689   3.213   2.730 -0.3774  0.2856  0.3281
 1609SOL     OW 6508   2.728   3.455   2.631 -0.0153 -0.2408 -0.1106
 1609SOL    HW2 6509   2.653   3.514   2.635 -0.3295 -0.6564  0.1939
 1609SOL    HW3 6510   2.748   3.447   2.538 -0.4807 -0.2927 -0.2051
 1609SOL    MW4 6511   2.721   3.462   2.620 -0.1185 -0.3026 -0.0832
 1610SOL     OW 6512   2.870   3.672   2.734  0.1184  0.0272  0.5102
 1610SOL    HW2 6513   2.872   3.666   2.829  0.9583  1.7443  0.6127
 1610SOL    HW3 6514   2.803   3.609   2.707  0.1742 -0.7696  2.1972
 1610SOL    MW4 6515   2.862   3.663   2.743  0.2367  0.1483  0.7463
 1611SOL     OW 6516   2.892   3.924   2.619 -0.0665  0.0673 -0.8705
 1611SOL    HW2 6517   2.975   3.959   2.651  0.4777 -1.2180 -0.8271
 1611SOL    HW3 6518   2.885   3.838   2.660 -2.3554  0.9189  0.6109
 1611SOL    MW4 6519   2.902   3.917   2.629 -0.2966  0.0103 -0.6692
 1612SOL     OW 6520   2.660   4.065   2.690 -0.2189  0.2983  0.0669
 1612SOL    HW2 6521   2.664   4.156   2.661  0.9515  0.8152  1.7899
 1612SOL    HW3 6522   2.747   4.030   2.673  0.0870  0.2351  1.6759
 1612SOL    MW4 6523   2.672   4.072   2.684 -0.0246  0.3586  0.5064
 1613SOL     OW 6524   2.684   4.332   2.611 -0.5766  0.0202  0.5137
 1613SOL    HW2 6525   2.758   4.372   2.656 -0.7200 -0.1795  0.9308
 1613SOL    HW3 6526   2.608   4.355   2.665 -0.6283 -1.0141  0.8990
 1613SOL    MW4 6527   2.684   4.340   2.624 -0.6025 -0.1435  0.6194
 1614SOL     OW 6528   2.916   4.432   2.723 -0.1971  0.3463 -0.1272
 1614SOL    HW2 6529   2.897   4.418   2.816  2.1158  0.7011  0.4129
 1614SOL    HW3 6530   2.915   4.527   2.712 -0.2818  0.3116 -0.4466
 1614SOL    MW4 6531   2.913   4.443   2.734  0.0968  0.3886 -0.0985
 1615SOL     OW 6532   3.360   4.629   2.628  0.2650  0.0479  0.5073
 1615SOL    HW2 6533   3.344   4.549   2.679 -0.6791  0.3010  0.6197
 1615SOL    HW3 6534   3.300   4.693   2.665  1.5676  1.0447  0.9240
 1615SOL    MW4 6535   3.350   4.627   2.640  0.3123  0.2127  0.5770
 1616SOL     OW 6536   3.179   0.140   2.742  0.4862  0.4780 -0.3874
 1616SOL    HW2 6537   3.170   0.140   2.837  1.4198 -0.4004 -0.2873
 1616SOL    HW3 6538   3.150   0.227   2.715 -0.2632  0.5517  0.6535
 1616SOL    MW4 6539   3.174   0.151   2.751  0.5105  0.3718 -0.2370
 1617SOL     OW 6540   3.133   0.387   2.654  0.4422  0.0934  0.1756
 1617SOL    HW2 6541   3.043   0.418   2.665  0.6579  0.5562  0.6238
 1617SOL    HW3 6542   3.137   0.360   2.562 -0.4173 -0.7907  0.3853
 1617SOL    MW4 6543   3.121   0.388   2.643  0.3572  0.0378  0.2623
 1618SOL     OW 6544   3.355   0.501   2.752 -0.0558  0.0615  0.0770
 1618SOL    HW2 6545   3.355   0.595   2.730 -0.3076 -0.2856 -1.5042
 1618SOL    HW3 6546   3.274   0.468   2.713 -0.2182 -0.7220  1.0652
 1618SOL    MW4 6547   3.344   0.509   2.744 -0.1104 -0.0876 -0.0014
 1619SOL     OW 6548   3.345   0.778   2.650  0.1005  0.0368  0.2824
 1619SOL    HW2 6549   3.405   0.847   2.677  1.2796 -0.4796 -0.9630
 1619SOL    HW3 6550   3.365   0.764   2.557 -1.1342 -0.9655  0.1499
 1619SOL    MW4 6551   3.355   0.786   2.641  0.0927 -0.1636  0.1004
 1620SOL     OW 6552   3.085   0.903   2.683  0.3528  0.0592  0.0070
 1620SOL    HW2 6553   3.087   0.914   2.778  0.6185 -1.2637  0.1636
 1620SOL    HW3 6554   3.165   0.854   2.663 -0.9264 -1.8562 -0.5818
 1620SOL    MW4 6555   3.096   0.898   2.693  0.2191 -0.3680 -0.0498
 1621SOL     OW 6556   3.105   1.183   2.639  0.1789  0.3511 -0.3430
 1621SOL    HW2 6557   3.107   1.088   2.652  0.0600  0.3327 -0.4564
 1621SOL    HW3 6558   3.092   1.194   2.545 -1.0929  0.4676 -0.1685
 1621SOL    MW4 6559   3.103   1.172   2.628 -0.0048  0.3642 -0.3347
 1622SOL     OW 6560   3.345   1.294   2.726  0.0927 -0.2564  0.0748
 1622SOL    HW2 6561   3.352   1.280   2.821  0.8339  0.4454  0.1220
 1622SOL    HW3 6562   3.257   1.263   2.704 -0.3061  0.1434  1.0917
 1622SOL    MW4 6563   3.334   1.288   2.736  0.1378 -0.1111  0.2155
 1623SOL     OW 6564   3.334   1.554   2.623 -0.4992  0.0685 -0.3524
 1623SOL    HW2 6565   3.248   1.582   2.655 -0.9439 -1.5344 -0.1031
 1623SOL    HW3 6566   3.343   1.464   2.655  0.3279 -0.5334 -2.2130
 1623SOL    MW4 6567   3.324   1.546   2.632 -0.4487 -0.2223 -0.5646
 1624SOL     OW 6568   3.085   1.618   2.753 -0.3007  0.3909 -0.4151
 1624SOL    HW2 6569   3.091   1.707   2.719 -0.7601  0.3254 -0.6769
 1624SOL    HW3 6570   3.016   1.577   2.700  1.5300 -0.8462 -1.8907
 1624SOL    MW4 6571   3.076   1.624   2.741 -0.1197  0.2190 -0.6444
 1625SOL     OW 6572   3.095   1.871   2.651 -0.5434  0.3140 -0.2864
 1625SOL    HW2 6573   3.178   1.914   2.671 -0.6538 -0.0502  0.9942
 1625SOL    HW3 6574   3.028   1.932   2.683 -0.7661  0.4611 -1.0238
 1625SOL    MW4 6575   3.097   1.885   2.658 -0.5870  0.2854 -0.2151
 1626SOL     OW 6576   3.317   2.045   2.707  0.5668 -0.2446  0.1886
 1626SOL    HW2 6577   3.337   2.052   2.801  0.3317 -1.8746  0.3822
 1626SOL    HW3 6578   3.330   2.133   2.673 -0.2841  0.5846  1.9465
 1626SOL    MW4 6579   3.321   2.058   2.715  0.4234 -0.3502  0.4461
 1627SOL     OW 6580   3.352   2.324   2.615  0.3212  0.3750  0.3293
 1627SOL    HW2 6581   3.433   2.350   2.658  0.2992 -1.4611  1.5340
 1627SOL    HW3 6582   3.359   2.359   2.526  1.5615  1.8851  1.0128
 1627SOL    MW4 6583   3.364   2.332   2.609  0.4821  0.3321  0.5784
 1628SOL     OW 6584   3.096   2.404   2.727 -0.2900 -0.3003  0.5999
 1628SOL    HW2 6585   3.101   2.398   2.823 -1.8521 -0.7942  0.6714
 1628SOL    HW3 6586   3.182   2.376   2.697 -0.1574 -1.2800  1.8233
 1628SOL    MW4 6587   3.108   2.400   2.736 -0.4785 -0.4947  0.7708
 1629SOL     OW 6588   3.137   2.669   2.650  0.2708 -0.2265 -0.0290
 1629SOL    HW2 6589   3.205   2.719   2.695 -1.0262  1.3624  0.2189
 1629SOL    HW3 6590   3.129   2.589   2.700  1.8039 -0.3284  0.0664
 1629SOL    MW4 6591   3.145   2.665   2.662  0.3021 -0.0305  0.0165
 1630SOL     OW 6592   3.356   2.809   2.752 -0.3754 -0.1220  0.2176
 1630SOL    HW2 6593   3.356   2.825   2.847 -0.4758  1.6424 -0.0631
 1630SOL    HW3 6594   3.439   2.765   2.736 -0.2788 -0.2852  1.1121
 1630SOL    MW4 6595   3.367   2.806   2.763 -0.3762  0.0892  0.2987
 1631SOL     OW 6596   3.370   3.059   2.639  0.1622  0.0880 -0.4497
 1631SOL    HW2 6597   3.350   2.973   2.675  1.1196 -0.0918 -0.3447
 1631SOL    HW3 6598   3.359   3.049   2.545  0.4306 -0.1873 -0.4511
 1631SOL    MW4 6599   3.366   3.047   2.631  0.3238  0.0279 -0.4361
 1632SOL     OW 6600   3.136   3.264   2.648 -0.2860  0.2076  0.4149
 1632SOL    HW2 6601   3.226   3.233   2.639 -0.1399  0.5787  0.5774
 1632SOL    HW3 6602   3.084   3.184   2.652 -0.1311  0.0060 -1.2546
 1632SOL    MW4 6603   3.141   3.249   2.648 -0.2463  0.2306  0.2162
 1633SOL     OW 6604   3.089   3.550   2.613 -0.2063 -0.6042 -0.0852
 1633SOL    HW2 6605   3.089   3.456   2.634 -0.8286 -0.8150 -0.9771
 1633SOL    HW3 6606   3.008   3.583   2.652 -0.6326 -0.7039 -0.8730
 1633SOL    MW4 6607   3.078   3.542   2.621 -0.3450 -0.6452 -0.3071
 1634SOL     OW 6608   3.327   3.667   2.749 -0.5225  0.1002  0.0041
 1634SOL    HW2 6609   3.331   3.650   2.843  0.3838 -2.3935 -0.4423
 1634SOL    HW3 6610   3.247   3.625   2.720 -0.5695  0.4795 -0.4255
 1634SOL    MW4 6611   3.317   3.659   2.758 -0.4094 -0.1788 -0.1116
 1635SOL     OW 6612   3.294   3.891   2.589 -0.3197 -0.4596  0.0530
 1635SOL    HW2 6613   3.295   3.803   2.627 -2.5020 -0.3706  0.4115
 1635SOL    HW3 6614   3.342   3.882   2.507 -1.2146 -2.1902 -0.3147
 1635SOL    MW4 6615   3.300   3.878   2.584 -0.7257 -0.6762  0.0517
 1636SOL     OW 6616   3.117   4.017   2.745  0.3733 -0.1497  0.3414
 1636SOL    HW2 6617   3.122   4.109   2.718 -0.2491 -0.1156  0.3328
 1636SOL    HW3 6618   3.184   3.973   2.693 -0.0746  0.1111 -0.4671
 1636SOL    MW4 6619   3.126   4.023   2.735  0.2322 -0.1106  0.2337
 1637SOL     OW 6620   3.119   4.270   2.652  0.8135  0.7563 -0.0804
 1637SOL    HW2 6621   3.049   4.328   2.684 -0.2848 -1.2040  1.1354
 1637SOL    HW3 6622   3.100   4.259   2.559 -1.8064 -1.4637  0.6468
 1637SOL    MW4 6623   3.107   4.276   2.644  0.3231  0.2050  0.1762
 1638SOL     OW 6624   3.365   4.371   2.735  0.3182 -0.1417  0.3302
 1638SOL    HW2 6625   3.356   4.394   2.828 -1.7542  2.0825 -0.3641
 1638SOL    HW3 6626   3.279   4.338   2.710  0.8027 -0.5205 -0.8628
 1638SOL    MW4 6627   3.352   4.370   2.744  0.1087  0.1020  0.0811
 1639SOL     OW 6628   3.815   4.637   2.650 -0.1140 -0.4565  0.0059
 1639SOL    HW2 6629   3.797   4.547   2.678 -1.6072 -1.0858 -2.8055
 1639SOL    HW3 6630   3.746   4.690   2.689  0.0833 -0.7113  0.6974
 1639SOL    MW4 6631   3.804   4.632   2.659 -0.2847 -0.5727 -0.2737
 1640SOL     OW 6632   3.585   0.074   2.774  0.0923 -0.2119 -0.1936
 1640SOL    HW2 6633   3.562   0.161   2.741 -1.2777 -0.4333  0.1449
 1640SOL    HW3 6634   3.510   0.020   2.752  0.5615 -1.1074  0.3972
 1640SOL    MW4 6635   3.572   0.079   2.767 -0.0265 -0.3592 -0.0708
 1641SOL     OW 6636   3.581   0.358   2.666 -0.3729 -0.4703 -0.1259
 1641SOL    HW2 6637   3.656   0.403   2.705 -1.1183 -0.9661  1.9102
 1641SOL    HW3 6638   3.505   0.409   2.695 -1.0002 -1.3370 -0.2398
 1641SOL    MW4 6639   3.581   0.371   2.675 -0.5538 -0.6500  0.1276
 1642SOL     OW 6640   3.785   0.530   2.725 -0.3330 -0.4986  0.1267
 1642SOL    HW2 6641   3.796   0.524   2.820 -0.4327 -1.0293  0.1062
 1642SOL    HW3 6642   3.853   0.474   2.690  0.3022  0.4393 -0.1436
 1642SOL    MW4 6643   3.795   0.522   2.733 -0.2625 -0.4449  0.0882
 1643SOL     OW 6644   3.782   0.782   2.620 -0.1695  0.4879 -0.2704
 1643SOL    HW2 6645   3.695   0.816   2.639 -0.0577  1.2330 -1.0658
 1643SOL    HW3 6646   3.780   0.692   2.652 -1.6022  0.1396 -1.2757
 1643SOL    MW4 6647   3.771   0.775   2.626 -0.3436  0.5402 -0.5078
 1644SOL     OW 6648   3.555   0.930   2.702 -0.2605 -0.1898  0.0574
 1644SOL    HW2 6649   3.567   0.922   2.797  0.8719  0.1166 -0.0435
 1644SOL    HW3 6650   3.568   1.023   2.683  0.2651 -0.3671 -0.4877
 1644SOL    MW4 6651   3.559   0.941   2.712 -0.0420 -0.1728 -0.0279
 1645SOL     OW 6652   3.551   1.176   2.602  0.0013 -0.3759  0.0262
 1645SOL    HW2 6653   3.628   1.220   2.637 -0.9552 -0.8155  2.8397
 1645SOL    HW3 6654   3.478   1.214   2.650 -1.4133 -0.9978 -1.5613
 1645SOL    MW4 6655   3.551   1.187   2.613 -0.3114 -0.5159  0.1876
 1646SOL     OW 6656   3.771   1.310   2.711 -0.0742  0.4881 -0.1780
 1646SOL    HW2 6657   3.847   1.257   2.683  0.0710  0.4155  0.3508
 1646SOL    HW3 6658   3.782   1.393   2.664  0.9243  0.8795  0.7191
 1646SOL    MW4 6659   3.783   1.314   2.701  0.0765  0.5301  0.0103
 1647SOL     OW 6660   3.776   1.574   2.604 -0.2269 -0.2769 -0.5001
 1647SOL    HW2 6661   3.836   1.621   2.662 -1.4647  0.4003  0.2531
 1647SOL    HW3 6662   3.689   1.596   2.636 -0.8931 -1.2131 -1.6082
 1647SOL    MW4 6663   3.773   1.583   2.616 -0.4780 -0.3110 -0.5469
 1648SOL     OW 6664   3.546   1.665   2.741 -0.1054 -0.1087  0.1889
 1648SOL    HW2 6665   3.548   1.753   2.705  0.8909 -0.9287 -1.8210
 1648SOL    HW3 6666   3.465   1.626   2.708 -0.9282  0.2690  1.6876
 1648SOL    MW4 6667   3.536   1.672   2.732 -0.0825 -0.1671  0.1214
 1649SOL     OW 6668   3.572   1.920   2.634  0.2619  0.0543 -0.3730
 1649SOL    HW2 6669   3.498   1.972   2.667  0.4146  0.4861 -0.7069
 1649SOL    HW3 6670   3.574   1.939   2.540  1.9283  1.4431 -0.0579
 1649SOL    MW4 6671   3.562   1.929   2.626  0.5016  0.2944 -0.3753
 1650SOL     OW 6672   3.802   2.025   2.740  0.2677 -0.4177  0.5971
 1650SOL    HW2 6673   3.874   1.971   2.707  0.4133 -0.4658  0.9896
 1650SOL    HW3 6674   3.724   1.991   2.696  0.5303 -0.1454 -0.0888
 1650SOL    MW4 6675   3.801   2.013   2.730  0.3211 -0.3881  0.5584
 1651SOL     OW 6676   3.839   2.294   2.622  0.4541  0.9270 -0.0979
 1651SOL    HW2 6677   3.843   2.202   2.648  0.8989  1.2337  0.9372
 1651SOL    HW3 6678   3.831   2.291   2.527  0.4024 -0.1845 -0.0712
 1651SOL    MW4 6679   3.839   2.281   2.613  0.5059  0.8209  0.0420
 1652SOL     OW 6680   3.600   2.399   2.707  0.3914 -0.3650  0.2958
 1652SOL    HW2 6681   3.602   2.393   2.802  0.6303  0.7595  0.3671
 1652SOL    HW3 6682   3.685   2.363   2.680  0.5938 -0.0752  0.5425
 1652SOL    MW4 6683   3.612   2.393   2.716  0.4497 -0.1786  0.3376
 1653SOL     OW 6684   3.572   2.674   2.625 -0.1279  0.0668 -0.1254
 1653SOL    HW2 6685   3.571   2.580   2.647  0.4560  0.0930  0.0105
 1653SOL    HW3 6686   3.562   2.676   2.530  0.0604 -0.1399 -0.1505
 1653SOL    MW4 6687   3.570   2.662   2.616 -0.0260  0.0429 -0.1109
 1654SOL     OW 6688   3.824   2.793   2.698  0.0929 -0.2161 -0.0544
 1654SOL    HW2 6689   3.899   2.759   2.649  0.1678 -0.1464  0.0099
 1654SOL    HW3 6690   3.749   2.744   2.665 -0.4169  2.3233 -2.7862
 1654SOL    MW4 6691   3.824   2.782   2.687  0.0353  0.1283 -0.4060
 1655SOL     OW 6692   3.839   3.059   2.622  0.5512 -0.0406  0.1750
 1655SOL    HW2 6693   3.756   3.096   2.652  0.2688 -0.6461  0.1527
 1655SOL    HW3 6694   3.833   2.966   2.645  1.2652 -0.0651  0.2657
 1655SOL    MW4 6695   3.827   3.051   2.629  0.6082 -0.1237  0.1838
 1656SOL     OW 6696   3.594   3.219   2.681 -0.0055  0.1818  0.1564
 1656SOL    HW2 6697   3.559   3.308   2.681 -0.7695 -0.0670  2.4006
 1656SOL    HW3 6698   3.518   3.163   2.662  0.0371 -0.1123  0.8347
 1656SOL    MW4 6699   3.579   3.223   2.679 -0.1009  0.1101  0.5419
 1657SOL     OW 6700   3.556   3.496   2.656  0.1350  0.1199  0.2473
 1657SOL    HW2 6701   3.648   3.510   2.678  0.0187 -2.1349  2.3951
 1657SOL    HW3 6702   3.508   3.559   2.711  0.2979 -0.2655  0.8441
 1657SOL    MW4 6703   3.562   3.506   2.667  0.1411 -0.2284  0.6094
 1658SOL     OW 6704   3.802   3.568   2.757  0.9043  0.0353 -0.2204
 1658SOL    HW2 6705   3.889   3.529   2.749  2.0190  2.2363  0.4585
 1658SOL    HW3 6706   3.808   3.650   2.707 -0.2727  0.9675  1.1260
 1658SOL    MW4 6707   3.814   3.574   2.750  0.8965  0.4485  0.0472
 1659SOL     OW 6708   3.826   3.810   2.632  0.5463  0.0838  0.1561
 1659SOL    HW2 6709   3.893   3.868   2.669  0.4339 -0.3139  0.9918
 1659SOL    HW3 6710   3.744   3.841   2.671  0.5085 -0.7618  0.7692
 1659SOL    MW4 6711   3.824   3.822   2.642  0.5264 -0.0803  0.3474
 1660SOL     OW 6712   3.590   3.896   2.727  0.3067 -0.0308 -0.2498
 1660SOL    HW2 6713   3.568   3.987   2.706 -0.5679 -0.1510  0.1512
 1660SOL    HW3 6714   3.508   3.848   2.714  0.9135 -0.8681 -1.0614
 1660SOL    MW4 6715   3.576   3.902   2.723  0.2713 -0.1569 -0.3037
 1661SOL     OW 6716   3.569   4.181   2.662 -0.5920  0.2878 -0.4558
 1661SOL    HW2 6717   3.498   4.241   2.684  0.6731  1.7396 -0.3094
 1661SOL    HW3 6718   3.595   4.205   2.573  0.8215  0.8690  0.1027
 1661SOL    MW4 6719   3.563   4.192   2.653 -0.2387  0.5565 -0.3629
 1662SOL     OW 6720   3.770   4.369   2.737 -0.2616  1.0573 -0.2320
 1662SOL    HW2 6721   3.842   4.333   2.686 -0.3399  1.5568 -0.7087
 1662SOL    HW3 6722   3.706   4.299   2.743 -0.6468  1.2819 -1.6062
 1662SOL    MW4 6723   3.771   4.355   2.731 -0.3231  1.1525 -0.4764
 1663SOL     OW 6724   4.257   4.647   2.641 -0.2525  0.5420  0.3609
 1663SOL    HW2 6725   4.185   4.698   2.679 -1.0430 -1.1244  1.1481
 1663SOL    HW3 6726   4.336   4.695   2.666 -0.8529  0.2074  3.0525
 1663SOL    MW4 6727   4.258   4.660   2.650 -0.4358  0.2780  0.8197
 1664SOL     OW 6728   4.028   0.104   2.747 -0.1453  0.0935 -0.0407
 1664SOL    HW2 6729   4.036   0.104   2.843  1.1084  1.2740 -0.1219
 1664SOL    HW3 6730   3.955   0.046   2.729  0.6447 -1.4432  1.5448
 1664SOL    MW4 6731   4.020   0.097   2.758  0.1235  0.0465  0.1578
 1665SOL     OW 6732   4.011   0.359   2.648  0.0421  0.1412 -0.9520
 1665SOL    HW2 6733   4.027   0.272   2.684  2.1846  1.1538  0.6212
 1665SOL    HW3 6734   4.005   0.345   2.553 -2.4141 -2.0685 -0.5439
 1665SOL    MW4 6735   4.012   0.346   2.640  0.0010 -0.0167 -0.6905
 1666SOL     OW 6736   4.224   0.502   2.755  0.3672 -0.0560 -0.3904
 1666SOL    HW2 6737   4.157   0.441   2.725 -0.1430 -0.5478  1.6463
 1666SOL    HW3 6738   4.306   0.468   2.719 -0.0442 -1.3925 -0.0861
 1666SOL    MW4 6739   4.226   0.490   2.746  0.2456 -0.2972 -0.0815
 1667SOL     OW 6740   4.232   0.749   2.626  0.0413  0.6646 -0.4095
 1667SOL    HW2 6741   4.229   0.658   2.658 -1.1582  0.7412 -0.2916
 1667SOL    HW3 6742   4.215   0.741   2.532  2.7829  0.5142 -0.9279
 1667SOL    MW4 6743   4.229   0.736   2.618  0.2446  0.6549 -0.4625
 1668SOL     OW 6744   4.009   0.909   2.732 -0.1161 -0.1727  0.0625
 1668SOL    HW2 6745   4.080   0.865   2.685 -0.3303  0.8086 -1.1977
 1668SOL    HW3 6746   3.929   0.869   2.698 -0.2316 -0.1717  0.3338
 1668SOL    MW4 6747   4.008   0.898   2.721 -0.1597 -0.0432 -0.0677
 1669SOL     OW 6748   3.987   1.152   2.605 -0.1551 -0.0875  0.1864
 1669SOL    HW2 6749   4.062   1.202   2.637 -0.6531  1.1053 -0.4691
 1669SOL    HW3 6750   3.991   1.069   2.652 -0.3829  1.2851  2.6896
 1669SOL    MW4 6751   3.997   1.148   2.615 -0.2506  0.2509  0.4301
 1670SOL     OW 6752   4.220   1.264   2.686 -0.3160 -0.0072 -0.2007
 1670SOL    HW2 6753   4.234   1.357   2.669  1.5677 -0.1790  0.3048
 1670SOL    HW3 6754   4.289   1.220   2.636 -0.8203 -1.1058  0.0512
 1670SOL    MW4 6755   4.231   1.270   2.677 -0.1340 -0.1748 -0.1009
 1671SOL     OW 6756   4.248   1.531   2.629 -0.0871  0.5171 -0.3241
 1671SOL    HW2 6757   4.331   1.567   2.663  0.3554  0.7025 -1.5523
 1671SOL    HW3 6758   4.258   1.537   2.534 -0.0566 -2.7872 -0.5609
 1671SOL    MW4 6759   4.260   1.537   2.621 -0.0243  0.1057 -0.5174
 1672SOL     OW 6760   4.012   1.631   2.736  0.0714 -0.7406  0.1978
 1672SOL    HW2 6761   4.028   1.647   2.829  0.6476 -0.0207 -0.0200
 1672SOL    HW3 6762   4.093   1.591   2.704  0.9639  1.6435 -0.6086
 1672SOL    MW4 6763   4.025   1.628   2.744  0.2651 -0.3310  0.0622
 1673SOL     OW 6764   4.040   1.885   2.613  0.4441  0.1840  0.1994
 1673SOL    HW2 6765   4.115   1.927   2.654  0.4798 -0.0629  0.3903
 1673SOL    HW3 6766   4.031   1.801   2.659 -0.6141  0.6814  0.9099
 1673SOL    MW4 6767   4.049   1.879   2.624  0.3090  0.2171  0.3185
 1674SOL     OW 6768   4.259   2.018   2.702  0.0489  0.4590 -0.1328
 1674SOL    HW2 6769   4.258   2.112   2.681  0.5302  0.1380 -1.6752
 1674SOL    HW3 6770   4.343   1.988   2.669  0.2839 -0.3468  1.1872
 1674SOL    MW4 6771   4.270   2.027   2.695  0.1435  0.3104 -0.1619
 1675SOL     OW 6772   4.264   2.282   2.622  0.2718 -0.4976 -0.0811
 1675SOL    HW2 6773   4.181   2.320   2.648 -0.6478 -2.7459  0.4238
 1675SOL    HW3 6774   4.271   2.302   2.528  0.1561  1.4474  0.3119
 1675SOL    MW4 6775   4.254   2.289   2.613  0.1349 -0.5374  0.0374
 1676SOL     OW 6776   4.045   2.433   2.729  0.5839  0.1339 -0.3694
 1676SOL    HW2 6777   4.033   2.434   2.824  0.5190 -2.7199 -0.3043
 1676SOL    HW3 6778   3.969   2.388   2.695  0.7898  0.8063 -1.7819
 1676SOL    MW4 6779   4.034   2.428   2.737  0.6022 -0.1535 -0.5474
 1677SOL     OW 6780   4.045   2.681   2.596 -0.2331  0.1799 -0.0072
 1677SOL    HW2 6781   4.111   2.737   2.637 -0.9296  0.9065  0.1248
 1677SOL    HW3 6782   4.053   2.597   2.642  1.2555 -0.0448 -0.6489
 1677SOL    MW4 6783   4.055   2.677   2.608 -0.1287  0.2463 -0.0744
 1678SOL     OW 6784   4.245   2.861   2.718  0.1220 -0.0490 -0.0027
 1678SOL    HW2 6785   4.262   2.879   2.810  2.4567 -1.1351 -0.2009
 1678SOL    HW3 6786   4.255   2.945   2.675 -0.1945  0.3120  0.6244
 1678SOL    MW4 6787   4.248   2.874   2.724  0.3881 -0.1447  0.0539
 1679SOL     OW 6788   4.290   3.123   2.620 -0.0227 -0.0929  0.1487
 1679SOL    HW2 6789   4.204   3.145   2.656 -0.7554 -2.2606 -0.2642
 1679SOL    HW3 6790   4.275   3.110   2.527  0.8944  0.2155 -0.0509
 1679SOL    MW4 6791   4.277   3.124   2.613  0.0010 -0.3383  0.0677
 1680SOL     OW 6792   4.045   3.189   2.737 -0.2218  0.0147  0.1933
 1680SOL    HW2 6793   4.029   3.279   2.707 -1.4667 -0.5201 -0.7989
 1680SOL    HW3 6794   3.969   3.140   2.706  0.4870 -1.4014  0.6735
 1680SOL    MW4 6795   4.033   3.195   2.729 -0.2928 -0.2427  0.1259
 1681SOL     OW 6796   4.042   3.443   2.644  0.1394 -0.2889 -1.1837
 1681SOL    HW2 6797   4.123   3.493   2.660  1.0739 -1.4928 -2.0217
 1681SOL    HW3 6798   4.027   3.453   2.550 -0.8145  0.0877 -0.9985
 1681SOL    MW4 6799   4.051   3.451   2.634  0.1369 -0.3979 -1.2698
 1682SOL     OW 6800   4.235   3.633   2.737 -0.2343  0.2312 -0.4842
 1682SOL    HW2 6801   4.229   3.622   2.832 -0.4268 -0.6327 -0.5897
 1682SOL    HW3 6802   4.307   3.576   2.711 -1.6514 -1.3204 -1.1312
 1682SOL    MW4 6803   4.244   3.624   2.746 -0.4468 -0.0877 -0.5836
 1683SOL     OW 6804   4.267   3.889   2.621 -0.6322  0.2440  0.0996
 1683SOL    HW2 6805   4.261   3.802   2.661 -0.0653 -0.6292 -1.6621
 1683SOL    HW3 6806   4.345   3.928   2.661 -0.7338 -0.1627  0.6967
 1683SOL    MW4 6807   4.277   3.882   2.632 -0.5708  0.0751 -0.0544
 1684SOL     OW 6808   4.025   3.985   2.710 -0.4372 -0.0652  0.8746
 1684SOL    HW2 6809   4.047   4.005   2.801  0.5100 -3.0845  1.3515
 1684SOL    HW3 6810   4.107   3.958   2.670 -1.0960 -0.0442 -0.5330
 1684SOL    MW4 6811   4.038   3.985   2.717 -0.3991 -0.4609  0.7517
 1685SOL     OW 6812   4.021   4.254   2.618 -0.3592  0.4790  0.3617
 1685SOL    HW2 6813   4.014   4.160   2.636 -1.6423  0.5318  0.1948
 1685SOL    HW3 6814   4.023   4.259   2.522  2.9396  0.4299  0.3488
 1685SOL    MW4 6815   4.020   4.242   2.608 -0.0935  0.4797  0.3381
 1686SOL     OW 6816   4.262   4.381   2.701 -0.3731 -0.0899  0.2603
 1686SOL    HW2 6817   4.178   4.337   2.686  1.0639 -2.8654  0.0785
 1686SOL    HW3 6818   4.251   4.467   2.661 -2.5210 -1.0621 -1.3355
 1686SOL    MW4 6819   4.249   4.387   2.694 -0.4673 -0.5846  0.0257
 1687SOL     OW 6820   0.208   4.644   3.091 -1.0035 -0.3143 -0.5835
 1687SOL    HW2 6821   0.202   4.649   3.186 -0.0205 -0.1969 -0.5224
 1687SOL    HW3 6822   0.140   4.703   3.060 -0.5526  0.5441  0.0523
 1687SOL    MW4 6823   0.198   4.652   3.099 -0.8143 -0.1855 -0.4916
 1688SOL     OW 6824   0.017   0.139   2.988  0.2890  0.0780  0.2562
 1688SOL    HW2 6825  -0.048   0.082   3.030  1.3426 -1.6435 -0.4068
 1688SOL    HW3 6826   0.002   0.225   3.028 -0.7176 -0.8538  1.9677
 1688SOL    MW4 6827   0.007   0.143   2.999  0.2952 -0.2721  0.3946
 1689SOL     OW 6828   0.008   0.384   3.124  0.2644  0.0055  0.2878
 1689SOL    HW2 6829  -0.011   0.372   3.217 -0.6469 -0.9021 -0.0126
 1689SOL    HW3 6830  -0.070   0.427   3.089 -0.0453 -1.1086 -0.3760
 1689SOL    MW4 6831  -0.005   0.388   3.132  0.1035 -0.2612  0.1607
 1690SOL     OW 6832   0.233   0.456   2.973 -0.1848  0.4144  0.3366
 1690SOL    HW2 6833   0.307   0.427   3.027 -0.7026  0.8314  1.2766
 1690SOL    HW3 6834   0.156   0.423   3.019 -0.5855 -0.1088 -0.6963
 1690SOL    MW4 6835   0.233   0.448   2.987 -0.3060  0.4004  0.3242
 1691SOL     OW 6836   0.233   0.730   3.063  0.5114  0.0293 -0.4428
 1691SOL    HW2 6837   0.231   0.734   3.159  0.8584  1.0522 -0.4728
 1691SOL    HW3 6838   0.221   0.638   3.043 -0.6234 -0.0617  0.5600
 1691SOL    MW4 6839   0.231   0.719   3.073  0.4074  0.1523 -0.3145
 1692SOL     OW 6840   0.010   0.873   2.996 -0.1121 -0.1714 -0.0796
 1692SOL    HW2 6841   0.095   0.829   3.001  0.6649  1.3203  0.1260
 1692SOL    HW3 6842  -0.008   0.878   2.902 -0.4917 -1.4535 -0.0806
 1692SOL    MW4 6843   0.019   0.868   2.984 -0.0597 -0.1437 -0.0522
 1693SOL     OW 6844   4.483   1.114   3.104  0.3410 -0.1060  0.1466
 1693SOL    HW2 6845   4.414   1.165   3.062 -0.1761 -0.6829  0.3043
 1693SOL    HW3 6846   4.486   1.032   3.055 -0.5955 -0.9856  1.5442
 1693SOL    MW4 6847   4.474   1.110   3.092  0.1493 -0.2981  0.3517
 1694SOL     OW 6848   0.200   1.227   2.991  0.0567 -0.1503 -0.2379
 1694SOL    HW2 6849   0.128   1.176   3.029  0.0840  0.5430  0.7717
 1694SOL    HW3 6850   0.201   1.202   2.899 -1.1231 -0.5844 -0.1488
 1694SOL    MW4 6851   0.190   1.217   2.984 -0.0954 -0.1159 -0.0932
 1695SOL     OW 6852   0.258   1.509   3.048  0.1431  0.6074  0.0132
 1695SOL    HW2 6853   0.179   1.562   3.034  0.4616  0.9365 -0.5542
 1695SOL    HW3 6854   0.236   1.424   3.010 -0.0493  0.6051  0.1266
 1695SOL    MW4 6855   0.244   1.505   3.041  0.1597  0.6504 -0.0470
 1696SOL     OW 6856   0.030   1.664   3.016 -0.0075 -0.5114  0.3132
 1696SOL    HW2 6857  -0.039   1.610   3.054 -0.3320 -0.8411 -0.7245
 1696SOL    HW3 6858   0.028   1.746   3.067 -0.5942 -0.8454  0.8298
 1696SOL    MW4 6859   0.020   1.668   3.028 -0.1277 -0.5990  0.2446
 1697SOL     OW 6860   0.017   1.911   3.129  0.1262  0.3313 -0.0610
 1697SOL    HW2 6861  -0.054   1.948   3.076  0.2141 -0.6184 -0.8513
 1697SOL    HW3 6862   0.095   1.960   3.102  0.1663 -0.1397 -0.7909
 1697SOL    MW4 6863   0.018   1.923   3.119  0.1431  0.1438 -0.2615
 1698SOL     OW 6864   0.235   2.067   3.016 -0.0439 -0.3670 -0.9265
 1698SOL    HW2 6865   0.226   2.150   3.063  0.7445 -0.3981 -0.7058
 1698SOL    HW3 6866   0.202   2.085   2.928  1.6991  0.6752 -1.4072
 1698SOL    MW4 6867   0.230   2.080   3.010  0.2901 -0.2334 -0.9608
 1699SOL     OW 6868   0.230   2.346   3.085  0.1467  0.0379  0.4158
 1699SOL    HW2 6869   0.230   2.326   3.179  0.7449 -0.7782  0.2574
 1699SOL    HW3 6870   0.314   2.388   3.070 -0.0564  0.3962  0.2911
 1699SOL    MW4 6871   0.241   2.349   3.096  0.1988 -0.0226  0.3788
 1700SOL     OW 6872   4.470   2.457   3.008  0.4253 -0.0788 -0.6412
 1700SOL    HW2 6873   4.470   2.547   3.039 -0.7782 -0.6186  0.9667
 1700SOL    HW3 6874   4.550   2.419   3.043  0.8388  0.2937 -1.1665
 1700SOL    MW4 6875   4.481   2.463   3.017  0.3204 -0.1009 -0.4985
 1701SOL     OW 6876   4.489   2.701   3.116 -0.1533  0.0876 -0.0391
 1701SOL    HW2 6877   4.511   2.702   3.209  2.9008 -2.7748 -0.6487
 1701SOL    HW3 6878   4.555   2.757   3.075 -0.0034 -0.6144 -0.7683
 1701SOL    MW4 6879   4.501   2.708   3.123  0.2695 -0.3827 -0.2158
 1702SOL     OW 6880   0.205   2.846   3.007  0.3028  0.8880  0.2472
 1702SOL    HW2 6881   0.294   2.821   3.031  0.1614 -0.5142 -0.6056
 1702SOL    HW3 6882   0.208   2.855   2.912 -0.7592 -0.5274  0.0531
 1702SOL    MW4 6883   0.217   2.844   2.997  0.1440  0.5162  0.1094
 1703SOL     OW 6884   0.245   3.131   3.109 -0.0149 -0.0469  0.2924
 1703SOL    HW2 6885   0.174   3.174   3.062 -0.1809 -1.3655 -0.6781
 1703SOL    HW3 6886   0.229   3.037   3.097  0.2835 -0.4169  2.4601
 1703SOL    MW4 6887   0.233   3.124   3.102  0.0026 -0.2697  0.4504
 1704SOL     OW 6888   4.468   3.251   3.028 -0.1375 -0.0450  0.8184
 1704SOL    HW2 6889   4.397   3.187   3.033  1.3456 -1.7679  0.4516
 1704SOL    HW3 6890   4.492   3.253   2.935  0.6205  0.1744  1.0194
 1704SOL    MW4 6891   4.462   3.243   3.016  0.1578 -0.2437  0.7963
 1705SOL     OW 6892   4.454   3.481   3.166 -0.2460  0.4138  0.1197
 1705SOL    HW2 6893   4.392   3.534   3.116 -0.8251 -0.0925  0.2911
 1705SOL    HW3 6894   4.442   3.392   3.134 -0.2899  0.1594  0.8200
 1705SOL    MW4 6895   4.444   3.476   3.155 -0.3281  0.3133  0.2346
 1706SOL     OW 6896   0.202   3.570   3.057 -0.1459  0.0279 -0.0995
 1706SOL    HW2 6897   0.194   3.659   3.092 -0.7784 -0.6040  1.4082
 1706SOL    HW3 6898   0.124   3.525   3.089  0.8574 -1.4592  0.3049
 1706SOL    MW4 6899   0.190   3.576   3.066 -0.0970 -0.2515  0.1528
 1707SOL     OW 6900   0.201   3.836   3.115  0.0585  0.0165  0.0129
 1707SOL    HW2 6901   0.213   3.831   3.210  0.2768  0.3429  0.0026
 1707SOL    HW3 6902   0.274   3.888   3.084  0.2924 -0.5498 -0.4013
 1707SOL    MW4 6903   0.212   3.842   3.123  0.1182 -0.0153 -0.0432
 1708SOL     OW 6904   4.485   3.984   3.013 -0.0393  0.0542 -0.5390
 1708SOL    HW2 6905   4.563   3.936   3.040 -0.9896 -1.1036  0.1707
 1708SOL    HW3 6906   4.500   4.004   2.921  1.6700  0.9846 -0.0794
 1708SOL    MW4 6907   4.497   3.981   3.004  0.0610  0.0243 -0.3848
 1709SOL     OW 6908   4.460   4.239   3.134  0.2660 -0.1095  0.3750
 1709SOL    HW2 6909   4.500   4.234   3.221 -0.2586  0.5875  0.6564
 1709SOL    HW3 6910   4.462   4.148   3.102 -0.6430 -0.5876  1.6167
 1709SOL    MW4 6911   4.466   4.226   3.141  0.0772 -0.0806  0.5760
 1710SOL     OW 6912   0.198   4.385   3.018  0.0271 -0.2468 -0.0591
 1710SOL    HW2 6913   0.110   4.358   3.044 -0.3293  0.8802 -0.0591
 1710SOL    HW3 6914   0.205   4.475   3.048  1.4766 -0.5711  0.6430
 1710SOL    MW4 6915   0.187   4.393   3.025  0.1713 -0.1411  0.0336
 1711SOL     OW 6916   0.709   4.614   3.128  0.3761  0.1298 -0.4579
 1711SOL    HW2 6917   0.720   4.535   3.076 -0.6794 -0.9988  0.9957
 1711SOL    HW3 6918   0.632   4.657   3.090  0.5736  0.1432 -0.8439
 1711SOL    MW4 6919   0.700   4.610   3.116  0.2629 -0.0172 -0.3169
 1712SOL     OW 6920   0.462   0.081   3.001 -0.3134 -0.2258  0.3577
 1712SOL    HW2 6921   0.455   0.167   3.043  0.7661 -1.2275  2.6991
 1712SOL    HW3 6922   0.400   0.026   3.049 -0.2233 -1.0202 -0.4204
 1712SOL    MW4 6923   0.453   0.085   3.013 -0.1590 -0.4628  0.5639
 1713SOL     OW 6924   0.439   0.339   3.100  0.2036 -0.3635 -0.2604
 1713SOL    HW2 6925   0.431   0.326   3.195  0.7684  0.2089 -0.1331
 1713SOL    HW3 6926   0.529   0.371   3.088 -0.3480  0.9899 -0.8325
 1713SOL    MW4 6927   0.450   0.341   3.111  0.2053 -0.1094 -0.3192
 1714SOL     OW 6928   0.682   0.512   2.996  0.2008  0.0444  0.4325
 1714SOL    HW2 6929   0.761   0.465   3.021 -0.3855 -0.1736  1.8891
 1714SOL    HW3 6930   0.684   0.592   3.048 -0.4606  0.1012  0.3786
 1714SOL    MW4 6931   0.693   0.516   3.006  0.0362  0.0231  0.6177
 1715SOL     OW 6932   0.702   0.758   3.108 -0.0256 -0.3175  0.3014
 1715SOL    HW2 6933   0.707   0.755   3.204 -0.4145  1.5182  0.3915
 1715SOL    HW3 6934   0.623   0.808   3.090  1.3033  1.3951 -0.9534
 1715SOL    MW4 6935   0.692   0.764   3.118  0.0984  0.1506  0.1478
 1716SOL     OW 6936   0.477   0.876   3.028 -0.1443  0.3888 -0.1755
 1716SOL    HW2 6937   0.403   0.826   3.061 -0.8680  1.2516 -0.4755
 1716SOL    HW3 6938   0.463   0.881   2.934  0.0473  0.9556 -0.1750
 1716SOL    MW4 6939   0.466   0.870   3.020 -0.2145  0.5774 -0.2153
 1717SOL     OW 6940   0.444   1.150   3.097  0.0086  0.0591 -0.4025
 1717SOL    HW2 6941   0.455   1.057   3.074  0.8794  0.4160 -1.4610
 1717SOL    HW3 6942   0.364   1.175   3.051 -0.1293 -0.1221 -0.2634
 1717SOL    MW4 6943   0.435   1.141   3.088  0.1052  0.0824 -0.5238
 1718SOL     OW 6944   0.688   1.231   2.990 -0.6332 -0.3341 -0.0564
 1718SOL    HW2 6945   0.765   1.194   3.034 -0.8924 -0.2297  0.4911
 1718SOL    HW3 6946   0.614   1.204   3.045 -0.8886  0.4352 -0.0264
 1718SOL    MW4 6947   0.689   1.222   3.003 -0.7010 -0.2187  0.0198
 1719SOL     OW 6948   0.724   1.519   3.070 -0.2773  0.3920 -0.2065
 1719SOL    HW2 6949   0.731   1.521   3.165 -0.2026  0.6131 -0.2179
 1719SOL    HW3 6950   0.725   1.425   3.048  1.1400  0.3775 -0.0917
 1719SOL    MW4 6951   0.725   1.507   3.079 -0.0805  0.4193 -0.1926
 1720SOL     OW 6952   0.487   1.654   2.988 -0.6088  0.1460 -0.1411
 1720SOL    HW2 6953   0.570   1.612   3.013  0.3826  0.1728 -3.1848
 1720SOL    HW3 6954   0.421   1.587   3.004  0.4693 -1.1915 -1.0930
 1720SOL    MW4 6955   0.490   1.640   2.993 -0.3358 -0.0268 -0.6683
 1721SOL     OW 6956   0.443   1.905   3.128  0.6168  0.1216  0.2158
 1721SOL    HW2 6957   0.435   1.820   3.085  1.3761 -0.3779  1.0505
 1721SOL    HW3 6958   0.386   1.963   3.077  0.3997 -0.7900 -0.5944
 1721SOL    MW4 6959   0.434   1.902   3.115  0.6883 -0.0646  0.2189
 1722SOL     OW 6960   0.650   2.038   2.999  0.0018  0.2858  0.0028
 1722SOL    HW2 6961   0.729   1.989   3.025  0.8859  0.8938 -1.5372
 1722SOL    HW3 6962   0.582   2.002   3.056  1.5857  0.5149  2.1422
 1722SOL    MW4 6963   0.652   2.027   3.010  0.3274  0.3963  0.0820
 1723SOL     OW 6964   0.699   2.301   3.097 -0.0720  0.6654  0.0658
 1723SOL    HW2 6965   0.690   2.285   3.191  1.0908  0.5813  0.1655
 1723SOL    HW3 6966   0.694   2.214   3.058 -1.7240  0.7943 -0.0649
 1723SOL    MW4 6967   0.697   2.287   3.104 -0.1366  0.6714  0.0615
 1724SOL     OW 6968   0.468   2.478   3.034 -0.0543 -0.0105  0.2640
 1724SOL    HW2 6969   0.553   2.435   3.042  1.5355  2.6867 -1.3548
 1724SOL    HW3 6970   0.454   2.485   2.940 -2.1214 -0.4529  0.5161
 1724SOL    MW4 6971   0.478   2.473   3.023 -0.1173  0.2868  0.0839
 1725SOL     OW 6972   0.471   2.761   3.089 -0.2726  0.1357  0.2511
 1725SOL    HW2 6973   0.560   2.794   3.080 -0.2019 -0.2417 -0.4862
 1725SOL    HW3 6974   0.478   2.668   3.065 -0.7682 -0.0186  0.6931
 1725SOL    MW4 6975   0.483   2.753   3.085 -0.3287  0.0658  0.2122
 1726SOL     OW 6976   0.727   2.833   3.018 -0.0802 -0.2735  0.1903
 1726SOL    HW2 6977   0.797   2.789   3.064 -0.3501 -0.8300  0.0705
 1726SOL    HW3 6978   0.726   2.922   3.054  0.8354 -0.1932  0.0235
 1726SOL    MW4 6979   0.736   2.839   3.029  0.0049 -0.3364  0.1526
 1727SOL     OW 6980   0.706   3.087   3.117  0.0418  0.3326 -0.1637
 1727SOL    HW2 6981   0.694   3.090   3.212  0.8448 -0.2466 -0.0336
 1727SOL    HW3 6982   0.636   3.141   3.082 -0.2450  0.5727  0.7643
 1727SOL    MW4 6983   0.695   3.094   3.125  0.1099  0.2882 -0.0241
 1728SOL     OW 6984   0.481   3.221   3.011  0.0463 -0.0914  0.1259
 1728SOL    HW2 6985   0.496   3.311   3.042 -0.6289 -0.2548  0.9498
 1728SOL    HW3 6986   0.394   3.199   3.045 -0.2525 -0.6708 -0.9912
 1728SOL    MW4 6987   0.471   3.230   3.019 -0.0822 -0.1891  0.0873
 1729SOL     OW 6988   0.464   3.483   3.117  0.2507  0.1826 -0.2161
 1729SOL    HW2 6989   0.456   3.480   3.213  0.1310 -0.6503 -0.2472
 1729SOL    HW3 6990   0.380   3.517   3.087  0.4123  0.7733 -0.0089
 1729SOL    MW4 6991   0.452   3.487   3.126  0.2562  0.1509 -0.1926
 1730SOL     OW 6992   0.682   3.615   3.047 -0.9757 -0.2167 -0.3996
 1730SOL    HW2 6993   0.747   3.550   3.075  1.1372  2.6372  1.6271
 1730SOL    HW3 6994   0.600   3.585   3.086  0.3941 -0.5572  2.3434
 1730SOL    MW4 6995   0.680   3.603   3.055 -0.5163  0.1149  0.2298
 1731SOL     OW 6996   0.639   3.894   3.100  0.2658 -0.6648  0.0268
 1731SOL    HW2 6997   0.640   3.900   3.196  1.6084 -0.4835  0.0001
 1731SOL    HW3 6998   0.666   3.804   3.081  1.3698 -0.2786 -0.2264
 1731SOL    MW4 6999   0.642   3.883   3.110  0.5887 -0.5898 -0.0100
 1732SOL     OW 7000   0.405   3.984   3.007  0.0220 -0.2576 -0.4078
 1732SOL    HW2 7001   0.488   3.955   3.045 -0.1546 -0.5407 -0.2403
 1732SOL    HW3 7002   0.418   3.976   2.912 -0.2755 -1.5819 -0.3486
 1732SOL    MW4 7003   0.418   3.979   2.999 -0.0405 -0.4699 -0.3777
 1733SOL     OW 7004   0.436   4.250   3.094  0.6168  0.0382  0.4774
 1733SOL    HW2 7005   0.401   4.165   3.069  0.0992  0.5417 -0.5696
 1733SOL    HW3 7006   0.366   4.312   3.072  2.4552  1.1719 -2.5287
 1733SOL    MW4 7007   0.422   4.247   3.088  0.7911  0.2546 -0.0577
 1734SOL     OW 7008   0.674   4.374   3.009  0.3269  0.3969  0.0869
 1734SOL    HW2 7009   0.603   4.313   3.031 -0.2342  0.6957 -0.8590
 1734SOL    HW3 7010   0.671   4.381   2.914 -0.3116  2.7155  0.2366
 1734SOL    MW4 7011   0.664   4.367   3.000  0.1686  0.7420 -0.0179
 1735SOL     OW 7012   1.195   4.612   3.142 -0.5484  0.1996  0.1911
 1735SOL    HW2 7013   1.271   4.662   3.112 -0.3356 -0.0835  0.2610
 1735SOL    HW3 7014   1.121   4.654   3.098 -0.1348 -0.8739 -1.5863
 1735SOL    MW4 7015   1.195   4.624   3.132 -0.4660  0.0210 -0.0343
 1736SOL     OW 7016   0.953   0.071   3.015  0.5359 -0.1012  0.0351
 1736SOL    HW2 7017   0.944   0.162   3.043  0.8633 -0.0261 -0.0960
 1736SOL    HW3 7018   0.872   0.028   3.044  0.7381  0.0441  0.8222
 1736SOL    MW4 7019   0.941   0.077   3.022  0.6058 -0.0721  0.1216
 1737SOL     OW 7020   0.891   0.338   3.089 -0.4953 -0.1839  0.0987
 1737SOL    HW2 7021   0.877   0.346   3.184  1.4706 -0.3671  0.4168
 1737SOL    HW3 7022   0.961   0.400   3.070 -1.0510  0.0285 -1.2964
 1737SOL    MW4 7023   0.898   0.348   3.099 -0.3092 -0.1801 -0.0432
 1738SOL     OW 7024   1.086   0.516   3.013 -0.1217  0.0906  0.0576
 1738SOL    HW2 7025   1.161   0.470   3.052 -0.9014 -1.8862 -0.7103
 1738SOL    HW3 7026   1.109   0.524   2.920 -0.6316 -0.0478 -0.0828
 1738SOL    MW4 7027   1.099   0.511   3.006 -0.2917 -0.1885 -0.0625
 1739SOL     OW 7028   1.131   0.775   3.108  0.0053 -0.2948 -0.2175
 1739SOL    HW2 7029   1.123   0.791   3.202 -1.9338  0.1110 -0.4225
 1739SOL    HW3 7030   1.116   0.681   3.098 -0.6158 -0.2040 -0.1844
 1739SOL    MW4 7031   1.128   0.765   3.119 -0.3322 -0.2292 -0.2403
 1740SOL     OW 7032   0.910   0.865   2.978 -0.6529  0.3812  0.4424
 1740SOL    HW2 7033   0.990   0.828   3.017  0.1965  0.0284 -1.5496
 1740SOL    HW3 7034   0.839   0.820   3.023  0.2789  0.1593  1.7457
 1740SOL    MW4 7035   0.911   0.854   2.989 -0.4179  0.3054  0.3514
 1741SOL     OW 7036   0.905   1.127   3.120  0.5062 -0.1343  0.4269
 1741SOL    HW2 7037   0.981   1.173   3.083 -0.0376 -0.0865 -0.6629
 1741SOL    HW3 7038   0.915   1.036   3.093 -0.7833  0.2203 -1.3436
 1741SOL    MW4 7039   0.916   1.121   3.112  0.2643 -0.0813  0.0496
 1742SOL     OW 7040   1.135   1.268   3.014 -0.3697  0.0985  0.2872
 1742SOL    HW2 7041   1.222   1.234   3.035 -0.6678 -0.9141 -0.0995
 1742SOL    HW3 7042   1.132   1.272   2.919 -1.3456 -1.4712  0.2376
 1742SOL    MW4 7043   1.146   1.264   3.005 -0.5378 -0.2421  0.2294
 1743SOL     OW 7044   1.180   1.519   3.118  0.5030  0.1098 -0.0504
 1743SOL    HW2 7045   1.269   1.536   3.087  0.2678 -0.7702 -1.2653
 1743SOL    HW3 7046   1.168   1.425   3.104 -0.0653 -0.0671  1.5861
 1743SOL    MW4 7047   1.190   1.509   3.112  0.3968 -0.0297  0.0052
 1744SOL     OW 7048   0.959   1.632   3.000  0.1946 -0.5205 -0.2721
 1744SOL    HW2 7049   1.028   1.590   3.052  0.0753 -0.7968 -0.3371
 1744SOL    HW3 7050   0.878   1.588   3.027  0.2526 -1.3171 -1.3762
 1744SOL    MW4 7051   0.957   1.621   3.010  0.1865 -0.6621 -0.4263
 1745SOL     OW 7052   0.903   1.924   3.076 -0.8299  0.2392 -0.1116
 1745SOL    HW2 7053   0.888   1.917   3.170 -0.0187  0.7030  0.0555
 1745SOL    HW3 7054   0.925   1.835   3.049 -0.5845  0.1925  0.2281
 1745SOL    MW4 7055   0.904   1.911   3.085 -0.6905  0.2942 -0.0448
 1746SOL     OW 7056   1.159   2.028   3.008 -0.0432 -0.3166 -0.0584
 1746SOL    HW2 7057   1.080   1.997   3.053 -0.2328 -0.1040 -0.2394
 1746SOL    HW3 7058   1.138   2.021   2.915 -0.6400  1.6954 -0.1034
 1746SOL    MW4 7059   1.146   2.023   3.002 -0.1470 -0.0231 -0.0882
 1747SOL     OW 7060   1.179   2.296   3.101  0.3342  0.0035 -0.2659
 1747SOL    HW2 7061   1.097   2.325   3.063 -0.3724  0.8964  1.8785
 1747SOL    HW3 7062   1.186   2.203   3.078 -0.8980  0.1239 -1.0969
 1747SOL    MW4 7063   1.169   2.287   3.093  0.0784  0.1371 -0.0927
 1748SOL     OW 7064   0.942   2.418   3.007  0.2581 -0.3779 -0.2306
 1748SOL    HW2 7065   0.866   2.384   3.054 -0.1963  1.3287  0.3372
 1748SOL    HW3 7066   0.917   2.415   2.914  0.4877 -2.1489 -0.2439
 1748SOL    MW4 7067   0.929   2.413   3.001  0.2284 -0.3865 -0.1576
 1749SOL     OW 7068   0.951   2.680   3.099  0.2168 -0.1157  0.0038
 1749SOL    HW2 7069   0.944   2.673   3.195  0.4864  1.3214  0.1406
 1749SOL    HW3 7070   0.949   2.590   3.068  0.0700 -0.5908  1.3681
 1749SOL    MW4 7071   0.950   2.667   3.108  0.2330  0.0112  0.2017
 1750SOL     OW 7072   1.156   2.817   2.990 -0.0466 -0.8862  0.1261
 1750SOL    HW2 7073   1.172   2.900   3.036  0.8800 -1.2908  0.5653
 1750SOL    HW3 7074   1.085   2.776   3.039  0.6699 -1.1341  0.9724
 1750SOL    MW4 7075   1.149   2.822   3.003  0.1701 -0.9723  0.2956
 1751SOL     OW 7076   1.161   3.076   3.120 -0.3643 -0.8433 -0.1801
 1751SOL    HW2 7077   1.233   3.132   3.090 -0.4005 -1.6108 -1.6908
 1751SOL    HW3 7078   1.082   3.121   3.092 -0.4600 -0.4627  0.6840
 1751SOL    MW4 7079   1.160   3.089   3.113 -0.3817 -0.8945 -0.2654
 1752SOL     OW 7080   0.944   3.194   3.014 -0.2697  0.4179 -0.2950
 1752SOL    HW2 7081   0.859   3.165   3.048  0.4615 -2.4559 -0.8185
 1752SOL    HW3 7082   0.928   3.211   2.921  0.3204 -2.8392 -1.0328
 1752SOL    MW4 7083   0.930   3.193   3.006 -0.0954 -0.3910 -0.4613
 1753SOL     OW 7084   0.912   3.469   3.117 -0.5502  0.1468  0.0739
 1753SOL    HW2 7085   0.990   3.516   3.087  0.6875  0.1627  3.0841
 1753SOL    HW3 7086   0.928   3.378   3.092 -0.1370  0.3642 -0.4544
 1753SOL    MW4 7087   0.925   3.463   3.110 -0.3323  0.1776  0.4013
 1754SOL     OW 7088   1.122   3.612   3.002 -0.6244 -0.0978  0.1712
 1754SOL    HW2 7089   1.203   3.566   3.025 -0.4385 -0.9112 -1.9925
 1754SOL    HW3 7090   1.130   3.697   3.045  2.3467  0.6164 -1.6715
 1754SOL    MW4 7091   1.134   3.617   3.011 -0.2079 -0.1106 -0.3574
 1755SOL     OW 7092   1.145   3.879   3.095 -0.0345  0.3571  0.0227
 1755SOL    HW2 7093   1.147   3.872   3.190 -0.1714 -1.1446 -0.0766
 1755SOL    HW3 7094   1.054   3.902   3.075 -0.0653  0.4251  0.2390
 1755SOL    MW4 7095   1.133   3.881   3.105 -0.0567  0.1681  0.0381
 1756SOL     OW 7096   0.891   3.981   3.024 -0.3414 -0.3308  0.1501
 1756SOL    HW2 7097   0.806   3.954   3.058 -0.7525  0.9986  0.2180
 1756SOL    HW3 7098   0.877   3.996   2.931  0.1036 -1.2364 -0.0662
 1756SOL    MW4 7099   0.878   3.979   3.016 -0.3369 -0.2751  0.1304
 1757SOL     OW 7100   0.936   4.261   3.108 -0.3485 -0.2126  0.1140
 1757SOL    HW2 7101   0.928   4.169   3.083 -2.2685 -0.1478  0.4263
 1757SOL    HW3 7102   0.850   4.299   3.090  0.3739  1.4912  0.1374
 1757SOL    MW4 7103   0.924   4.254   3.102 -0.5065  0.0205  0.1578
 1758SOL     OW 7104   1.156   4.380   2.985  0.3878  0.4210 -0.7844
 1758SOL    HW2 7105   1.079   4.344   3.030  0.6361 -1.0656 -1.4945
 1758SOL    HW3 7106   1.173   4.463   3.028 -0.9526  0.2374  0.1234
 1758SOL    MW4 7107   1.148   4.386   2.996  0.2438  0.2007 -0.7582
 1759SOL     OW 7108   1.582   4.619   3.082 -0.0203  0.1894  0.0272
 1759SOL    HW2 7109   1.588   4.627   3.177 -0.3697  2.4850 -0.0996
 1759SOL    HW3 7110   1.519   4.686   3.056  0.3533 -0.1356 -1.8602
 1759SOL    MW4 7111   1.575   4.629   3.091 -0.0172  0.4487 -0.2384
 1760SOL     OW 7112   1.384   0.114   3.020  0.3717  0.0795 -0.2619
 1760SOL    HW2 7113   1.343   0.196   3.049 -1.4940 -0.8484 -0.2092
 1760SOL    HW3 7114   1.368   0.111   2.925  2.0372  0.6420 -0.5802
 1760SOL    MW4 7115   1.377   0.124   3.011  0.3452  0.0313 -0.2966
 1761SOL     OW 7116   1.300   0.372   3.115 -0.0025 -0.4459  0.0390
 1761SOL    HW2 7117   1.330   0.357   3.205  1.0709  0.1579 -0.2148
 1761SOL    HW3 7118   1.377   0.405   3.069 -0.3636 -1.4036 -1.2805
 1761SOL    MW4 7119   1.314   0.375   3.121  0.0916 -0.4926 -0.1688
 1762SOL     OW 7120   1.557   0.463   3.029 -0.2516  0.3905 -0.1549
 1762SOL    HW2 7121   1.559   0.554   3.057  0.8602  0.0882  0.8093
 1762SOL    HW3 7122   1.584   0.466   2.937 -0.9861  1.0991 -0.3530
 1762SOL    MW4 7123   1.561   0.475   3.020 -0.2018  0.4441 -0.0536
 1763SOL     OW 7124   1.543   0.744   3.112 -0.1405  0.4927  0.5832
 1763SOL    HW2 7125   1.550   0.758   3.206 -1.7437 -0.0664  0.8017
 1763SOL    HW3 7126   1.472   0.802   3.084 -2.0020 -1.8482  0.3180
 1763SOL    MW4 7127   1.535   0.754   3.120 -0.5977  0.1100  0.5770
 1764SOL     OW 7128   1.346   0.891   3.005  0.2875 -0.1505  0.5582
 1764SOL    HW2 7129   1.355   0.985   3.024 -0.8022  0.1963 -0.6038
 1764SOL    HW3 7130   1.261   0.867   3.040  0.1779 -0.5066  0.0511
 1764SOL    MW4 7131   1.336   0.901   3.013  0.1293 -0.1517  0.3376
 1765SOL     OW 7132   1.365   1.151   3.092 -0.6326 -0.2717  0.4934
 1765SOL    HW2 7133   1.356   1.138   3.187  0.1347 -2.9738  0.2370
 1765SOL    HW3 7134   1.453   1.188   3.082 -0.5350 -0.4075  0.8178
 1765SOL    MW4 7135   1.375   1.154   3.103 -0.5184 -0.6461  0.5023
 1766SOL     OW 7136   1.606   1.276   3.029 -0.4794  0.3339  0.1896
 1766SOL    HW2 7137   1.684   1.230   3.059  0.2331  0.3388 -1.6010
 1766SOL    HW3 7138   1.620   1.367   3.055  0.5450  0.5085 -0.9543
 1766SOL    MW4 7139   1.618   1.282   3.036 -0.2501  0.3576 -0.1976
 1767SOL     OW 7140   1.622   1.541   3.125 -0.1674  0.0027  0.6040
 1767SOL    HW2 7141   1.692   1.593   3.087 -0.2779 -0.1034  0.2565
 1767SOL    HW3 7142   1.543   1.569   3.079 -0.1064 -1.0581 -0.1722
 1767SOL    MW4 7143   1.620   1.552   3.114 -0.1739 -0.1513  0.4556
 1768SOL     OW 7144   1.391   1.669   3.021 -0.6841  0.3243  0.3923
 1768SOL    HW2 7145   1.377   1.750   3.069 -1.0752  0.3743  0.1946
 1768SOL    HW3 7146   1.382   1.694   2.929  1.3701  0.5042  0.2091
 1768SOL    MW4 7147   1.388   1.683   3.015 -0.4647  0.3546  0.3421
 1769SOL     OW 7148   1.377   1.923   3.145  0.3263 -0.0165 -0.3098
 1769SOL    HW2 7149   1.361   1.926   3.240  0.3591 -1.1780 -0.2530
 1769SOL    HW3 7150   1.306   1.974   3.107  0.5596  0.8172  0.3707
 1769SOL    MW4 7151   1.365   1.930   3.153  0.3614 -0.0598 -0.2124
 1770SOL     OW 7152   1.576   2.078   3.030 -0.1681  0.0276  0.5085
 1770SOL    HW2 7153   1.527   2.004   3.067  0.8677 -1.4387 -0.9724
 1770SOL    HW3 7154   1.565   2.069   2.935  0.9406  1.0959  0.2690
 1770SOL    MW4 7155   1.568   2.067   3.023  0.1149 -0.0248  0.2818
 1771SOL     OW 7156   1.605   2.342   3.085 -0.2237 -0.0258 -0.2689
 1771SOL    HW2 7157   1.536   2.386   3.036 -0.9361 -0.3294  0.4493
 1771SOL    HW3 7158   1.587   2.249   3.075  0.1818 -0.1102 -0.2250
 1771SOL    MW4 7159   1.594   2.336   3.077 -0.2643 -0.0770 -0.1683
 1772SOL     OW 7160   1.383   2.461   2.976 -0.1700 -0.0376 -0.7320
 1772SOL    HW2 7161   1.323   2.394   3.009  0.1775 -1.3038 -2.5858
 1772SOL    HW3 7162   1.352   2.480   2.887 -0.0252  1.9883 -0.3662
 1772SOL    MW4 7163   1.371   2.454   2.968 -0.1050  0.0627 -0.9284
 1773SOL     OW 7164   1.368   2.698   3.094 -0.4311 -0.2226 -0.4531
 1773SOL    HW2 7165   1.371   2.613   3.051 -1.1242 -0.8851  0.8088
 1773SOL    HW3 7166   1.287   2.738   3.062 -0.7530 -0.5614 -0.0677
 1773SOL    MW4 7167   1.358   2.692   3.084 -0.5651 -0.3548 -0.2360
 1774SOL     OW 7168   1.560   2.836   2.966 -0.0548 -0.5056 -0.6006
 1774SOL    HW2 7169   1.639   2.802   3.008  0.4504  1.1625 -0.1294
 1774SOL    HW3 7170   1.488   2.792   3.010  0.5815 -1.1428 -0.1885
 1774SOL    MW4 7171   1.561   2.826   2.977  0.0958 -0.3693 -0.4840
 1775SOL     OW 7172   1.602   3.063   3.125 -0.0103  0.5955  0.0940
 1775SOL    HW2 7173   1.622   3.045   3.217 -1.1680 -0.3381  0.1771
 1775SOL    HW3 7174   1.579   2.977   3.089 -0.0046  1.0338 -0.9562
 1775SOL    MW4 7175   1.602   3.049   3.133 -0.1625  0.5300 -0.0336
 1776SOL     OW 7176   1.421   3.252   3.028  0.6433 -0.2405  0.3137
 1776SOL    HW2 7177   1.484   3.191   3.066  0.7869 -0.9202 -0.9754
 1776SOL    HW3 7178   1.412   3.223   2.937  0.7118  1.6497 -0.3265
 1776SOL    MW4 7179   1.428   3.240   3.021  0.6713 -0.0808  0.0594
 1777SOL     OW 7180   1.383   3.522   3.097 -0.3132  0.4514  0.0917
 1777SOL    HW2 7181   1.396   3.523   3.192  0.4501 -1.8972  0.0452
 1777SOL    HW3 7182   1.395   3.431   3.072 -2.0606  0.7639 -2.0703
 1777SOL    MW4 7183   1.386   3.510   3.106 -0.4429  0.1829 -0.2000
 1778SOL     OW 7184   1.594   3.636   2.948 -0.0750  0.3716 -0.2208
 1778SOL    HW2 7185   1.516   3.596   2.986  0.3057  0.7468  0.9847
 1778SOL    HW3 7186   1.584   3.623   2.854 -1.7558  0.7036 -0.1120
 1778SOL    MW4 7187   1.582   3.629   2.941 -0.2465  0.4644 -0.0472
 1779SOL     OW 7188   1.607   3.843   3.144  0.1394 -0.0149 -0.2416
 1779SOL    HW2 7189   1.685   3.892   3.118  0.1119 -0.0007 -0.2982
 1779SOL    HW3 7190   1.600   3.774   3.078 -0.0812  0.1813 -0.4238
 1779SOL    MW4 7191   1.617   3.840   3.132  0.1067  0.0131 -0.2732
 1780SOL     OW 7192   1.390   3.970   2.995  0.0717 -0.5633  0.2000
 1780SOL    HW2 7193   1.465   3.943   3.049  0.2438  0.1667  0.3333
 1780SOL    HW3 7194   1.314   3.930   3.037 -0.1075  1.9479  2.4151
 1780SOL    MW4 7195   1.390   3.961   3.008  0.0707 -0.1357  0.5100
 1781SOL     OW 7196   1.375   4.230   3.080 -0.0822 -0.3412  0.0866
 1781SOL    HW2 7197   1.374   4.146   3.034 -0.0704 -0.1234 -0.3087
 1781SOL    HW3 7198   1.295   4.274   3.052 -0.9580 -0.9332  1.6141
 1781SOL    MW4 7199   1.364   4.225   3.070 -0.1962 -0.3905  0.2360
 1782SOL     OW 7200   1.604   4.363   2.995  0.2260 -0.1912  0.3196
 1782SOL    HW2 7201   1.522   4.317   3.014 -0.3331  0.1068 -1.2914
 1782SOL    HW3 7202   1.588   4.453   3.026 -0.4674  0.1432 -0.9568
 1782SOL    MW4 7203   1.591   4.369   3.002  0.0609 -0.1078 -0.0615
 1783SOL     OW 7204   2.058   4.596   3.132 -0.0458 -0.4942  0.2214
 1783SOL    HW2 7205   2.060   4.611   3.226  2.3826 -0.1852  0.1381
 1783SOL    HW3 7206   1.972   4.629   3.104  0.1838  1.6049  1.9433
 1783SOL    MW4 7207   2.047   4.602   3.140  0.3047 -0.1764  0.4375
 1784SOL     OW 7208   1.824   0.070   3.011  0.1374 -0.0295  0.1630
 1784SOL    HW2 7209   1.740   0.030   3.033  0.6286 -1.2085 -0.0894
 1784SOL    HW3 7210   1.824   0.075   2.915  0.3713 -0.0643  0.1604
 1784SOL    MW4 7211   1.813   0.066   3.001  0.2331 -0.1897  0.1292
 1785SOL     OW 7212   1.798   0.334   3.135 -0.2695 -0.4003  0.9997
 1785SOL    HW2 7213   1.805   0.248   3.094  1.3951  0.7156 -1.1154
 1785SOL    HW3 7214   1.708   0.361   3.118  0.2896 -0.1024 -1.6809
 1785SOL    MW4 7215   1.787   0.326   3.127  0.0238 -0.2137  0.3669
 1786SOL     OW 7216   2.009   0.465   3.020  0.3244 -0.2068 -0.1088
 1786SOL    HW2 7217   1.929   0.417   3.043  0.1080  0.0617 -0.3011
 1786SOL    HW3 7218   2.016   0.455   2.925 -0.3446  1.1022 -0.3039
 1786SOL    MW4 7219   1.999   0.457   3.010  0.2075  0.0013 -0.1600
 1787SOL     OW 7220   2.026   0.724   3.136 -0.3715 -0.1761  0.2391
 1787SOL    HW2 7221   1.940   0.756   3.109 -0.8137 -0.5447  1.1671
 1787SOL    HW3 7222   2.031   0.635   3.102 -0.7122 -0.4531  0.8948
 1787SOL    MW4 7223   2.015   0.716   3.128 -0.4747 -0.2612  0.4482
 1788SOL     OW 7224   1.796   0.857   3.039  0.3198  0.0088  0.0760
 1788SOL    HW2 7225   1.706   0.829   3.056  0.1728  0.4529  0.0412
 1788SOL    HW3 7226   1.798   0.873   2.944  0.9145 -1.6939 -0.2048
 1788SOL    MW4 7227   1.784   0.856   3.029  0.3790 -0.1572  0.0343
 1789SOL     OW 7228   1.818   1.133   3.111 -0.0878  0.3598  0.0131
 1789SOL    HW2 7229   1.805   1.144   3.205  0.1665  0.9169 -0.0135
 1789SOL    HW3 7230   1.819   1.038   3.097 -0.5810  0.2873  0.5045
 1789SOL    MW4 7231   1.817   1.122   3.121 -0.1196  0.4237  0.0741
 1790SOL     OW 7232   2.034   1.283   3.008 -0.0514 -0.1757  0.1512
 1790SOL    HW2 7233   2.117   1.244   3.035  0.2555  1.3082  1.4015
 1790SOL    HW3 7234   1.970   1.212   3.017  0.8238 -0.9159  0.5901
 1790SOL    MW4 7235   2.036   1.269   3.013  0.1044 -0.0775  0.3743
 1791SOL     OW 7236   2.039   1.548   3.109 -0.0797  0.3053  0.3705
 1791SOL    HW2 7237   2.016   1.539   3.201 -0.0531  0.1537  0.3633
 1791SOL    HW3 7238   2.040   1.458   3.076  0.4822  0.3109  0.3612
 1791SOL    MW4 7239   2.036   1.535   3.117 -0.0021  0.2861  0.3684
 1792SOL     OW 7240   1.818   1.676   2.973 -0.0102 -0.6189 -0.2088
 1792SOL    HW2 7241   1.833   1.765   3.006  2.6277 -0.2659 -2.2355
 1792SOL    HW3 7242   1.887   1.623   3.014 -0.8448 -1.5088  0.0602
 1792SOL    MW4 7243   1.829   1.681   2.983  0.2278 -0.6897 -0.4406
 1793SOL     OW 7244   1.824   1.928   3.081  0.0194 -0.1673  0.3727
 1793SOL    HW2 7245   1.905   1.973   3.055 -0.9790  0.4983 -1.6620
 1793SOL    HW3 7246   1.754   1.983   3.046 -1.2649 -2.2843 -0.4227
 1793SOL    MW4 7247   1.826   1.942   3.073 -0.2817 -0.3588 -0.0007
 1794SOL     OW 7248   2.065   2.053   3.022  0.0683 -0.0246 -0.1329
 1794SOL    HW2 7249   2.132   2.001   3.066 -0.0795 -0.0500  0.0587
 1794SOL    HW3 7250   2.065   2.136   3.069  0.8728  0.4469 -0.9416
 1794SOL    MW4 7251   2.074   2.057   3.034  0.1550  0.0341 -0.2141
 1795SOL     OW 7252   2.049   2.306   3.135  0.1940  0.2065 -0.1973
 1795SOL    HW2 7253   2.122   2.354   3.096 -0.4553  1.2905 -0.1174
 1795SOL    HW3 7254   1.971   2.352   3.102 -0.4034 -0.0156  0.9047
 1795SOL    MW4 7255   2.048   2.318   3.125  0.0293  0.3202 -0.0415
 1796SOL     OW 7256   1.831   2.476   3.006 -0.3246  0.0239  0.2573
 1796SOL    HW2 7257   1.825   2.568   3.033 -1.8432 -0.4357  1.6109
 1796SOL    HW3 7258   1.750   2.437   3.039  0.1241 -1.7115 -0.6631
 1796SOL    MW4 7259   1.820   2.483   3.014 -0.4659 -0.2661  0.3142
 1797SOL     OW 7260   1.788   2.738   3.103  0.3785  0.1902 -0.4487
 1797SOL    HW2 7261   1.795   2.742   3.199  0.8378 -2.0990 -0.3754
 1797SOL    HW3 7262   1.868   2.780   3.072  1.2481 -0.9431  0.2056
 1797SOL    MW4 7263   1.800   2.744   3.112  0.5537 -0.2615 -0.3529
 1798SOL     OW 7264   2.006   2.840   2.975 -0.0032 -0.0528 -0.7389
 1798SOL    HW2 7265   2.020   2.921   3.024 -0.6922 -0.3552 -0.0511
 1798SOL    HW3 7266   2.005   2.868   2.883 -2.5390  1.0658 -0.3971
 1798SOL    MW4 7267   2.008   2.854   2.969 -0.4289  0.0548 -0.6030
 1799SOL     OW 7268   2.014   3.080   3.091 -0.1252  0.4948 -0.0258
 1799SOL    HW2 7269   2.006   3.106   3.183  0.2594  1.3079 -0.2169
 1799SOL    HW3 7270   1.952   3.136   3.045  1.2780  1.6838 -0.5427
 1799SOL    MW4 7271   2.005   3.091   3.097  0.1109  0.7589 -0.1192
 1800SOL     OW 7272   1.803   3.224   2.990  0.2329 -0.1739 -0.0962
 1800SOL    HW2 7273   1.752   3.165   3.045  0.2646  0.1817  0.3121
 1800SOL    HW3 7274   1.773   3.206   2.901  1.0888 -1.6577 -0.0972
 1800SOL    MW4 7275   1.793   3.214   2.985  0.3501 -0.3226 -0.0422
 1801SOL     OW 7276   1.819   3.511   3.050  0.2532  0.7683  0.4947
 1801SOL    HW2 7277   1.808   3.417   3.031 -1.1888  1.0409 -0.1685
 1801SOL    HW3 7278   1.739   3.551   3.014 -0.1144  1.9928  2.6150
 1801SOL    MW4 7279   1.807   3.504   3.043  0.0144  0.9658  0.6871
 1802SOL     OW 7280   2.057   3.626   2.998 -0.9946  0.3463 -0.2683
 1802SOL    HW2 7281   2.073   3.706   3.048 -0.0050  0.1657 -0.2840
 1802SOL    HW3 7282   1.973   3.595   3.030 -1.0010  0.9540  0.3338
 1802SOL    MW4 7283   2.048   3.633   3.009 -0.8650  0.4025 -0.1907
 1803SOL     OW 7284   2.081   3.870   3.135  0.0017  0.0852  0.6600
 1803SOL    HW2 7285   2.085   3.874   3.230 -0.0330  0.3515  0.6531
 1803SOL    HW3 7286   1.991   3.897   3.114  0.3865  1.2645  0.4971
 1803SOL    MW4 7287   2.070   3.874   3.145  0.0479  0.2761  0.6375
 1804SOL     OW 7288   1.823   3.989   3.032  0.3323 -0.3151 -0.7060
 1804SOL    HW2 7289   1.811   4.074   3.075 -0.4276 -0.9863  0.4438
 1804SOL    HW3 7290   1.832   4.010   2.939  0.3197  1.0308 -0.4192
 1804SOL    MW4 7291   1.823   4.003   3.026  0.2304 -0.2265 -0.5167
 1805SOL     OW 7292   1.788   4.234   3.141 -0.3964  0.7195 -0.3541
 1805SOL    HW2 7293   1.871   4.275   3.118 -1.0297  1.1425 -1.9050
 1805SOL    HW3 7294   1.722   4.284   3.093 -1.5230  0.1789  0.6026
 1805SOL    MW4 7295   1.790   4.246   3.132 -0.6286  0.7038 -0.4327
 1806SOL     OW 7296   2.038   4.334   3.060 -0.0227 -0.0751 -0.4165
 1806SOL    HW2 7297   2.055   4.422   3.094 -0.4518 -0.0503 -0.2608
 1806SOL    HW3 7298   2.054   4.340   2.966 -0.3895  0.2551 -0.4577
 1806SOL    MW4 7299   2.042   4.346   3.052 -0.1276 -0.0281 -0.4015
 1807SOL     OW 7300   2.464   4.637   3.154 -0.0232  0.2827  0.0341
 1807SOL    HW2 7301   2.442   4.550   3.120  0.3293  0.8328 -1.6996
 1807SOL    HW3 7302   2.398   4.695   3.114  0.4014  0.9555  0.3109
 1807SOL    MW4 7303   2.452   4.633   3.144  0.0792  0.4444 -0.1581
 1808SOL     OW 7304   2.261   0.100   3.015 -0.0827 -0.1781  0.4669
 1808SOL    HW2 7305   2.246   0.188   3.049  2.4505 -0.2395  1.8689
 1808SOL    HW3 7306   2.186   0.049   3.046 -0.9538  1.2130  0.6526
 1808SOL    MW4 7307   2.249   0.105   3.024  0.1364 -0.0026  0.6766
 1809SOL     OW 7308   2.233   0.369   3.124 -0.4645 -0.6604 -0.6497
 1809SOL    HW2 7309   2.235   0.353   3.218  0.2474 -0.0300 -0.5502
 1809SOL    HW3 7310   2.141   0.388   3.105 -0.6636 -1.0788 -0.1393
 1809SOL    MW4 7311   2.221   0.369   3.134 -0.3967 -0.6324 -0.5693
 1810SOL     OW 7312   2.453   0.499   2.981  0.2750 -0.0836 -0.0207
 1810SOL    HW2 7313   2.377   0.450   3.011  0.2727 -0.6804 -0.9934
 1810SOL    HW3 7314   2.443   0.504   2.886  0.7004  1.0896 -0.0101
 1810SOL    MW4 7315   2.442   0.493   2.972  0.3304 -0.0075 -0.1478
 1811SOL     OW 7316   2.402   0.767   3.070 -0.2558 -0.5707  0.0576
 1811SOL    HW2 7317   2.485   0.801   3.037 -0.9108  0.3217 -0.6548
 1811SOL    HW3 7318   2.400   0.676   3.040  0.1109 -0.3729 -0.5609
 1811SOL    MW4 7319   2.413   0.759   3.062 -0.2937 -0.4269 -0.1180
 1812SOL     OW 7320   2.176   0.903   2.997  0.1444  0.0088 -0.5876
 1812SOL    HW2 7321   2.255   0.851   3.013  0.8243  0.4090 -2.5698
 1812SOL    HW3 7322   2.108   0.857   3.046  1.7259  0.1228  1.8363
 1812SOL    MW4 7323   2.178   0.890   3.006  0.4427  0.0767 -0.5293
 1813SOL     OW 7324   2.249   1.156   3.100 -0.1594  0.0576  0.5338
 1813SOL    HW2 7325   2.226   1.163   3.193 -1.3160 -0.6756  0.3033
 1813SOL    HW3 7326   2.242   1.063   3.080 -1.3566  0.3957 -0.6576
 1813SOL    MW4 7327   2.245   1.145   3.110 -0.4702  0.0056  0.3464
 1814SOL     OW 7328   2.482   1.296   3.017 -0.4482 -0.5201  0.1118
 1814SOL    HW2 7329   2.399   1.250   3.032 -0.9821  0.6579  0.8469
 1814SOL    HW3 7330   2.487   1.307   2.922 -1.9492  0.8864  0.1864
 1814SOL    MW4 7331   2.472   1.291   3.006 -0.7169 -0.1792  0.2186
 1815SOL     OW 7332   2.500   1.539   3.176  0.1088  0.1217  0.2366
 1815SOL    HW2 7333   2.419   1.571   3.137  0.0815 -0.4904 -0.2275
 1815SOL    HW3 7334   2.515   1.454   3.133  1.1977  0.4083  0.0354
 1815SOL    MW4 7335   2.491   1.532   3.165  0.2487  0.0789  0.1488
 1816SOL     OW 7336   2.306   1.645   3.025  0.1282  0.0595 -0.3182
 1816SOL    HW2 7337   2.224   1.613   3.062  0.1589  0.5498  0.1741
 1816SOL    HW3 7338   2.299   1.624   2.932 -0.4084 -0.2087 -0.2223
 1816SOL    MW4 7339   2.294   1.638   3.017  0.0615  0.0887 -0.2406
 1817SOL     OW 7340   2.286   1.908   3.135 -0.1932  0.4103 -0.2710
 1817SOL    HW2 7341   2.360   1.965   3.116  1.6040 -1.2178  1.5614
 1817SOL    HW3 7342   2.307   1.825   3.091 -0.5452 -0.2939  0.8515
 1817SOL    MW4 7343   2.299   1.904   3.127 -0.0024  0.1026  0.1187
 1818SOL     OW 7344   2.509   2.057   3.050 -0.4758  0.3029 -0.1218
 1818SOL    HW2 7345   2.576   1.990   3.064 -3.0609 -2.1642  1.1280
 1818SOL    HW3 7346   2.477   2.041   2.961 -1.0164 -0.0869  0.1370
 1818SOL    MW4 7347   2.514   2.046   3.040 -0.8883 -0.0737  0.0775
 1819SOL     OW 7348   2.484   2.326   3.103 -0.6807  0.1490  0.7176
 1819SOL    HW2 7349   2.502   2.339   3.196  0.5955  1.6702  0.2779
 1819SOL    HW3 7350   2.493   2.231   3.090  0.6950  0.1152  1.8305
 1819SOL    MW4 7351   2.488   2.315   3.113 -0.3309  0.3452  0.8063
 1820SOL     OW 7352   2.250   2.432   3.014  0.3239  0.4883  0.5557
 1820SOL    HW2 7353   2.256   2.523   3.044 -1.5098  1.0871 -0.7930
 1820SOL    HW3 7354   2.333   2.392   3.041  1.0131  2.4685  1.4579
 1820SOL    MW4 7355   2.262   2.439   3.022  0.1731  0.8287  0.4966
 1821SOL     OW 7356   2.248   2.704   3.076 -0.2709  0.6046  0.1927
 1821SOL    HW2 7357   2.308   2.753   3.020  0.3764 -0.6564 -0.2473
 1821SOL    HW3 7358   2.162   2.742   3.059  0.1652  1.3341 -0.3980
 1821SOL    MW4 7359   2.245   2.715   3.067 -0.1280  0.5345  0.0565
 1822SOL     OW 7360   2.500   2.816   2.965  0.3076  0.4020 -0.2678
 1822SOL    HW2 7361   2.489   2.899   3.011  3.7106  0.1524  1.2111
 1822SOL    HW3 7362   2.485   2.837   2.873 -1.2102  2.1323  0.3487
 1822SOL    MW4 7363   2.497   2.830   2.959  0.5565  0.5972  0.0086
 1823SOL     OW 7364   2.448   3.048   3.096  0.1985 -0.4671 -0.6188
 1823SOL    HW2 7365   2.523   3.105   3.081  0.5546 -0.8719 -0.4090
 1823SOL    HW3 7366   2.374   3.095   3.060  0.1732  0.9774  1.2182
 1823SOL    MW4 7367   2.448   3.062   3.090  0.2422 -0.3297 -0.3488
 1824SOL     OW 7368   2.250   3.200   2.998  0.3803 -0.6873  0.4706
 1824SOL    HW2 7369   2.276   3.285   3.033 -0.9855  0.7639 -1.8704
 1824SOL    HW3 7370   2.167   3.181   3.042  0.3457 -0.4723  0.5007
 1824SOL    MW4 7371   2.242   3.209   3.009  0.1955 -0.4673  0.1662
 1825SOL     OW 7372   2.274   3.457   3.099 -0.7004 -0.1132  0.0618
 1825SOL    HW2 7373   2.342   3.498   3.045 -0.9342  0.7579  0.4289
 1825SOL    HW3 7374   2.194   3.505   3.078 -1.1911 -1.0599 -0.2763
 1825SOL    MW4 7375   2.273   3.469   3.089 -0.7958 -0.1233  0.0656
 1826SOL     OW 7376   2.478   3.596   2.976 -0.5623 -0.1414  0.3021
 1826SOL    HW2 7377   2.544   3.541   3.018 -0.5351  0.0067  0.4554
 1826SOL    HW3 7378   2.482   3.679   3.024 -0.5733  0.0077  0.0455
 1826SOL    MW4 7379   2.487   3.600   2.988 -0.5603 -0.1020  0.2885
 1827SOL     OW 7380   2.485   3.869   3.091  0.0366 -0.2965  0.6145
 1827SOL    HW2 7381   2.480   3.873   3.187 -1.5555  1.6162  0.4728
 1827SOL    HW3 7382   2.559   3.924   3.068 -0.1369 -0.0290  0.6958
 1827SOL    MW4 7383   2.494   3.876   3.101 -0.1965 -0.0086  0.6065
 1828SOL     OW 7384   2.264   3.968   2.974 -0.2617 -0.0882  0.4447
 1828SOL    HW2 7385   2.339   3.925   3.016  0.1771 -1.2367 -1.4308
 1828SOL    HW3 7386   2.190   3.945   3.029  0.4348 -0.8014  1.1094
 1828SOL    MW4 7387   2.264   3.959   2.987 -0.1121 -0.3338  0.2851
 1829SOL     OW 7388   2.238   4.201   3.161  0.1985  0.9196 -0.4343
 1829SOL    HW2 7389   2.229   4.115   3.121  0.5123  0.4114  0.5728
 1829SOL    HW3 7390   2.166   4.252   3.124 -1.1244 -0.3213  0.3889
 1829SOL    MW4 7391   2.227   4.197   3.151  0.0653  0.6890 -0.1926
 1830SOL     OW 7392   2.461   4.350   3.051  0.1761 -0.3889  0.1064
 1830SOL    HW2 7393   2.374   4.314   3.064 -0.3394  0.1616 -1.6671
 1830SOL    HW3 7394   2.472   4.354   2.956  1.7153  0.5387  0.2949
 1830SOL    MW4 7395   2.451   4.346   3.040  0.3109 -0.1931 -0.1028
 1831SOL     OW 7396   2.895   4.644   3.111  0.4485 -0.1074 -0.1171
 1831SOL    HW2 7397   2.973   4.672   3.062  2.0252 -0.7874  1.9051
 1831SOL    HW3 7398   2.890   4.550   3.096 -0.0856 -0.0392 -0.3696
 1831SOL    MW4 7399   2.905   4.636   3.103  0.5860 -0.1884  0.1163
 1832SOL     OW 7400   2.661   0.103   3.043  0.5907  0.3866 -0.2269
 1832SOL    HW2 7401   2.737   0.055   3.076  0.6132  0.0846 -0.7111
 1832SOL    HW3 7402   2.586   0.057   3.081  0.6793  1.2479  0.9888
 1832SOL    MW4 7403   2.661   0.090   3.052  0.6051  0.4604 -0.1304
 1833SOL     OW 7404   2.681   0.375   3.092  0.1266 -0.3905 -0.1201
 1833SOL    HW2 7405   2.667   0.282   3.075 -0.9950 -0.2340 -0.1082
 1833SOL    HW3 7406   2.615   0.419   3.039  0.6174  0.3961 -0.0758
 1833SOL    MW4 7407   2.670   0.368   3.083  0.0432 -0.2661 -0.1128
 1834SOL     OW 7408   2.923   0.501   2.993 -0.0466  0.2059 -0.6440
 1834SOL    HW2 7409   2.850   0.460   3.038 -0.0380  0.3424 -0.5059
 1834SOL    HW3 7410   2.902   0.493   2.900 -0.8476  1.3530 -0.5817
 1834SOL    MW4 7411   2.911   0.495   2.986 -0.1509  0.3753 -0.6177
 1835SOL     OW 7412   2.887   0.759   3.059  0.0316  0.2119 -0.0711
 1835SOL    HW2 7413   2.904   0.760   3.153 -1.2592  0.7055  0.1625
 1835SOL    HW3 7414   2.908   0.670   3.032 -2.7057 -0.9099  1.2838
 1835SOL    MW4 7415   2.892   0.747   3.068 -0.5000  0.1290  0.1383
 1836SOL     OW 7416   2.647   0.888   3.014 -0.1308  0.0176 -0.4791
 1836SOL    HW2 7417   2.655   0.972   3.059 -2.4504 -0.3127  0.6272
 1836SOL    HW3 7418   2.735   0.850   3.020  0.7117  1.9386 -0.1607
 1836SOL    MW4 7419   2.660   0.894   3.021 -0.3259  0.2276 -0.2911
 1837SOL     OW 7420   2.693   1.147   3.135 -0.2424 -0.2183 -0.2574
 1837SOL    HW2 7421   2.761   1.207   3.102 -0.2438  0.3621  0.7739
 1837SOL    HW3 7422   2.610   1.188   3.110 -0.2566  0.5908  1.0739
 1837SOL    MW4 7423   2.691   1.161   3.127 -0.2446 -0.0349  0.0544
 1838SOL     OW 7424   2.883   1.336   3.030  0.2209  0.1596  0.7846
 1838SOL    HW2 7425   2.969   1.301   3.054  0.8747  1.0656 -0.1581
 1838SOL    HW3 7426   2.881   1.425   3.067  0.0440  0.4570  0.0751
 1838SOL    MW4 7427   2.894   1.343   3.038  0.2842  0.3183  0.5662
 1839SOL     OW 7428   2.897   1.594   3.138 -0.1694 -0.1399 -0.1078
 1839SOL    HW2 7429   2.904   1.579   3.232 -0.2514 -1.6032 -0.3263
 1839SOL    HW3 7430   2.987   1.610   3.109 -0.2113  0.8544  0.3047
 1839SOL    MW4 7431   2.910   1.594   3.146 -0.1855 -0.2018 -0.0823
 1840SOL     OW 7432   2.666   1.678   2.997 -0.1977  0.3450  0.0831
 1840SOL    HW2 7433   2.752   1.642   3.022  0.0977  0.6340 -0.5241
 1840SOL    HW3 7434   2.606   1.642   3.063  0.8107  2.3153  2.1534
 1840SOL    MW4 7435   2.669   1.668   3.009 -0.0255  0.6431  0.2761
 1841SOL     OW 7436   2.713   1.903   3.139 -0.5294  0.5667  0.2673
 1841SOL    HW2 7437   2.787   1.947   3.096  0.6078 -0.4676  1.1076
 1841SOL    HW3 7438   2.717   1.813   3.108 -1.6907  0.5952  0.0226
 1841SOL    MW4 7439   2.724   1.897   3.129 -0.5326  0.4339  0.3457
 1842SOL     OW 7440   2.950   2.003   2.992 -0.2707  0.1478 -0.3223
 1842SOL    HW2 7441   2.953   2.094   3.021 -0.4533  0.1534 -0.3198
 1842SOL    HW3 7442   2.940   2.009   2.897 -0.0496  0.1313 -0.3452
 1842SOL    MW4 7443   2.949   2.016   2.983 -0.2656  0.1464 -0.3250
 1843SOL     OW 7444   2.910   2.250   3.113 -0.1172  0.0794 -0.4380
 1843SOL    HW2 7445   2.917   2.258   3.208 -0.9765 -2.1112 -0.1755
 1843SOL    HW3 7446   2.829   2.297   3.091 -0.4854 -0.3290  0.0406
 1843SOL    MW4 7447   2.900   2.257   3.123 -0.2794 -0.2635 -0.3402
 1844SOL     OW 7448   2.723   2.417   3.008 -0.1515 -0.2537  0.0977
 1844SOL    HW2 7449   2.728   2.510   3.033 -0.2065 -0.3166  0.3435
 1844SOL    HW3 7450   2.637   2.388   3.039 -0.3876 -0.2287 -0.5268
 1844SOL    MW4 7451   2.713   2.426   3.016 -0.1900 -0.2589  0.0477
 1845SOL     OW 7452   2.739   2.720   3.076  0.2914 -0.8254 -0.3732
 1845SOL    HW2 7453   2.743   2.741   3.169  2.1288 -0.2138 -0.5589
 1845SOL    HW3 7454   2.653   2.750   3.048 -0.0003 -0.3678  0.9781
 1845SOL    MW4 7455   2.728   2.727   3.084  0.4954 -0.6843 -0.2196
 1846SOL     OW 7456   2.970   2.854   3.007 -0.4152  0.0718 -0.2872
 1846SOL    HW2 7457   3.042   2.806   3.048 -1.4014  0.6157  2.1436
 1846SOL    HW3 7458   2.891   2.806   3.035 -1.1105  0.4197 -1.6178
 1846SOL    MW4 7459   2.969   2.841   3.016 -0.6371  0.1895 -0.1421
 1847SOL     OW 7460   2.940   3.128   3.080 -0.4047  0.0008  0.2651
 1847SOL    HW2 7461   2.845   3.137   3.073 -0.3639 -0.2122 -0.6106
 1847SOL    HW3 7462   2.959   3.041   3.044  0.1312  0.0868  0.3333
 1847SOL    MW4 7463   2.930   3.118   3.074 -0.3285 -0.0157  0.1588
 1848SOL     OW 7464   2.666   3.199   3.020 -0.1810  0.3204  0.1185
 1848SOL    HW2 7465   2.664   3.287   3.058  0.9729  0.1595  0.5749
 1848SOL    HW3 7466   2.654   3.213   2.926  0.8187  1.0525  0.0886
 1848SOL    MW4 7467   2.664   3.212   3.013  0.1030  0.3955  0.1745
 1849SOL     OW 7468   2.676   3.463   3.094  0.2628  0.2139  0.0164
 1849SOL    HW2 7469   2.685   3.475   3.188 -1.0070  0.4389  0.1264
 1849SOL    HW3 7470   2.753   3.505   3.056  1.5909 -1.2652  1.0293
 1849SOL    MW4 7471   2.687   3.470   3.101  0.2704  0.0484  0.1645
 1850SOL     OW 7472   2.889   3.623   2.997  0.3976  0.4878  0.5133
 1850SOL    HW2 7473   2.972   3.587   3.028  0.5704  0.4607  0.0356
 1850SOL    HW3 7474   2.892   3.715   3.022 -0.3915  0.0143  2.4403
 1850SOL    MW4 7475   2.900   3.631   3.004  0.3164  0.4215  0.7048
 1851SOL     OW 7476   2.922   3.895   3.091 -0.5064 -0.2048  0.0218
 1851SOL    HW2 7477   2.910   3.882   3.185 -1.6488 -0.4170 -0.1484
 1851SOL    HW3 7478   2.837   3.927   3.060 -0.6155 -1.5896 -1.1813
 1851SOL    MW4 7479   2.909   3.898   3.100 -0.6716 -0.4153 -0.1595
 1852SOL     OW 7480   2.701   4.012   2.967  0.5588  0.3139  0.3228
 1852SOL    HW2 7481   2.702   4.094   3.015 -2.9902  0.8192 -0.3152
 1852SOL    HW3 7482   2.690   4.038   2.875 -0.4686 -0.8514  0.1042
 1852SOL    MW4 7483   2.700   4.026   2.961 -0.0451  0.2260  0.2096
 1853SOL     OW 7484   2.713   4.246   3.118 -0.2265 -0.4548 -0.0846
 1853SOL    HW2 7485   2.721   4.234   3.213 -0.2880 -0.5393 -0.0895
 1853SOL    HW3 7486   2.623   4.275   3.105 -0.3038 -0.7153 -0.1417
 1853SOL    MW4 7487   2.702   4.248   3.129 -0.2449 -0.5007 -0.0923
 1854SOL     OW 7488   2.909   4.379   2.999  0.0106  0.5221  0.3491
 1854SOL    HW2 7489   2.981   4.333   3.042  0.3188  0.8630  0.1987
 1854SOL    HW3 7490   2.831   4.333   3.028  0.2374  0.5932  1.0771
 1854SOL    MW4 7491   2.908   4.367   3.009  0.0813  0.5770  0.4253
 1855SOL     OW 7492   3.360   0.021   3.157 -0.0147  0.0540 -0.0827
 1855SOL    HW2 7493   3.425   0.087   3.133 -0.4831  0.7469  0.4969
 1855SOL    HW3 7494   3.377  -0.053   3.098 -0.0163  1.0220 -1.3245
 1855SOL    MW4 7495   3.370   0.020   3.146 -0.0768  0.2732 -0.1700
 1856SOL     OW 7496   3.129   0.107   3.033  0.2099 -0.0207  0.0921
 1856SOL    HW2 7497   3.127   0.196   3.067  0.2470 -0.2526  0.7012
 1856SOL    HW3 7498   3.197   0.063   3.083  1.4978  0.1155 -1.4828
 1856SOL    MW4 7499   3.138   0.113   3.044  0.3848 -0.0333 -0.0353
 1857SOL     OW 7500   3.144   0.402   3.113  0.3523  0.8447  0.4828
 1857SOL    HW2 7501   3.224   0.446   3.083  0.3301  1.6478  1.5716
 1857SOL    HW3 7502   3.075   0.440   3.059  0.6383  0.5448 -0.0920
 1857SOL    MW4 7503   3.146   0.413   3.102  0.3872  0.9111  0.5507
 1858SOL     OW 7504   3.384   0.510   3.023  0.1659  0.7164 -0.2201
 1858SOL    HW2 7505   3.468   0.473   3.050  0.1775  1.4565  0.8067
 1858SOL    HW3 7506   3.381   0.497   2.928  1.6445  1.0737 -0.3301
 1858SOL    MW4 7507   3.395   0.504   3.014  0.3624  0.8612 -0.0989
 1859SOL     OW 7508   3.351   0.804   3.077 -0.0666  0.3933  0.1891
 1859SOL    HW2 7509   3.334   0.791   3.170 -0.3916  1.0139  0.2150
 1859SOL    HW3 7510   3.356   0.715   3.041  0.1813  0.1540  0.8175
 1859SOL    MW4 7511   3.349   0.790   3.085 -0.0765  0.4436  0.2754
 1860SOL     OW 7512   3.100   0.933   2.987  0.4805  0.1545 -0.0474
 1860SOL    HW2 7513   3.182   0.895   3.017  0.1817  1.6611  2.8371
 1860SOL    HW3 7514   3.033   0.871   3.015  0.5132 -0.4670 -1.3106
 1860SOL    MW4 7515   3.102   0.920   2.994  0.4454  0.2712  0.1667
 1861SOL     OW 7516   3.123   1.204   3.083  0.1480  0.2535 -0.0999
 1861SOL    HW2 7517   3.216   1.225   3.071 -0.1247  0.6491 -1.7180
 1861SOL    HW3 7518   3.112   1.121   3.036 -0.4781  0.6153 -0.6057
 1861SOL    MW4 7519   3.134   1.196   3.075  0.0296  0.3535 -0.3798
 1862SOL     OW 7520   3.371   1.264   3.023 -0.1608 -0.3582  0.3300
 1862SOL    HW2 7521   3.452   1.224   3.054  0.5527 -1.0324 -2.2037
 1862SOL    HW3 7522   3.379   1.356   3.045  0.9732 -0.5556  0.7577
 1862SOL    MW4 7523   3.383   1.271   3.030  0.0832 -0.4730  0.0522
 1863SOL     OW 7524   3.371   1.537   3.107 -0.0143  0.2941 -0.0260
 1863SOL    HW2 7525   3.372   1.520   3.201  0.6234 -0.3777 -0.1488
 1863SOL    HW3 7526   3.445   1.596   3.092 -0.0132  0.2655 -0.1335
 1863SOL    MW4 7527   3.380   1.542   3.117  0.0696  0.2017 -0.0565
 1864SOL     OW 7528   3.132   1.662   3.015 -0.0854  0.2236 -0.0351
 1864SOL    HW2 7529   3.212   1.612   3.030 -0.8572 -0.9998  0.0839
 1864SOL    HW3 7530   3.099   1.631   2.931 -1.6528 -0.9771  0.9829
 1864SOL    MW4 7531   3.138   1.652   3.006 -0.3941 -0.0962  0.1149
 1865SOL     OW 7532   3.149   1.905   3.146 -0.0181 -0.3418  0.2254
 1865SOL    HW2 7533   3.134   1.817   3.113  1.1300 -1.0715  1.6028
 1865SOL    HW3 7534   3.074   1.955   3.115 -0.5772 -1.7502 -0.7431
 1865SOL    MW4 7535   3.137   1.900   3.137  0.0596 -0.6237  0.2792
 1866SOL     OW 7536   3.340   2.022   2.994 -0.0005 -0.0878  0.7939
 1866SOL    HW2 7537   3.426   1.984   3.012  0.2220  0.1444  0.2376
 1866SOL    HW3 7538   3.279   1.971   3.047  0.1739 -1.8193 -0.6042
 1866SOL    MW4 7539   3.343   2.010   3.003  0.0517 -0.2854  0.5362
 1867SOL     OW 7540   3.343   2.308   3.077  0.3196  0.1090  0.5759
 1867SOL    HW2 7541   3.339   2.303   3.173  1.8371 -1.5672  0.5797
 1867SOL    HW3 7542   3.336   2.217   3.049 -0.7598  0.6428 -0.9613
 1867SOL    MW4 7543   3.341   2.295   3.086  0.3774 -0.0420  0.3736
 1868SOL     OW 7544   3.114   2.431   3.000 -0.2407  0.1285 -0.1646
 1868SOL    HW2 7545   3.189   2.379   3.028 -0.6199 -1.0186 -1.2555
 1868SOL    HW3 7546   3.039   2.394   3.045 -0.2447  0.8984  0.4681
 1868SOL    MW4 7547   3.114   2.420   3.009 -0.2911  0.0789 -0.2251
 1869SOL     OW 7548   3.185   2.671   3.130  0.8894 -0.1508  0.1611
 1869SOL    HW2 7549   3.197   2.650   3.223  0.6199 -0.8807  0.0366
 1869SOL    HW3 7550   3.160   2.587   3.090 -1.7784  0.7179 -0.0757
 1869SOL    MW4 7551   3.183   2.657   3.137  0.5019 -0.1323  0.1132
 1870SOL     OW 7552   3.393   2.815   3.034  0.0696  0.1170  0.3934
 1870SOL    HW2 7553   3.383   2.907   3.060  1.3638  0.1036  0.9477
 1870SOL    HW3 7554   3.324   2.769   3.082  1.4357  0.3345  2.6074
 1870SOL    MW4 7555   3.382   2.821   3.044  0.4206  0.1440  0.7584
 1871SOL     OW 7556   3.366   3.107   3.056  0.8371  0.0199 -0.3311
 1871SOL    HW2 7557   3.350   3.098   3.150  1.4295 -0.1666 -0.2468
 1871SOL    HW3 7558   3.298   3.167   3.025  0.5831  0.0037  0.1982
 1871SOL    MW4 7559   3.355   3.113   3.064  0.8817 -0.0069 -0.2501
 1872SOL     OW 7560   3.150   3.272   2.950  0.0120 -0.3178  0.0694
 1872SOL    HW2 7561   3.068   3.232   2.977 -1.2882  1.4453 -1.0808
 1872SOL    HW3 7562   3.144   3.275   2.854  0.8051  1.0089  0.0443
 1872SOL    MW4 7563   3.138   3.267   2.941 -0.0551  0.0899 -0.0858
 1873SOL     OW 7564   3.113   3.501   3.089 -0.1619  0.7114 -0.4388
 1873SOL    HW2 7565   3.202   3.536   3.093 -0.4536  1.4390 -0.1586
 1873SOL    HW3 7566   3.117   3.433   3.023  1.0281 -0.4928  0.8477
 1873SOL    MW4 7567   3.125   3.497   3.081 -0.0436  0.6483 -0.2320
 1874SOL     OW 7568   3.379   3.602   3.019  0.3426 -0.3728  0.0875
 1874SOL    HW2 7569   3.447   3.540   3.047  0.2006 -1.4394 -1.8850
 1874SOL    HW3 7570   3.404   3.684   3.061  2.3677 -0.9628  0.1095
 1874SOL    MW4 7571   3.391   3.604   3.028  0.5910 -0.5913 -0.1700
 1875SOL     OW 7572   3.406   3.845   3.150 -0.0671 -0.6251 -0.5573
 1875SOL    HW2 7573   3.384   3.833   3.242 -2.1149 -2.3419 -1.2265
 1875SOL    HW3 7574   3.342   3.910   3.119  2.1054  1.7353 -0.2588
 1875SOL    MW4 7575   3.395   3.852   3.158 -0.0505 -0.5400 -0.6063
 1876SOL     OW 7576   3.170   3.981   3.043 -0.1326 -0.6139  0.4082
 1876SOL    HW2 7577   3.085   3.950   3.073 -0.3802  0.0468  0.3863
 1876SOL    HW3 7578   3.156   4.001   2.950 -0.2742  0.6687  0.7057
 1876SOL    MW4 7579   3.157   3.979   3.034 -0.1841 -0.3574  0.4444
 1877SOL     OW 7580   3.138   4.240   3.118 -0.7844  0.1737  0.3654
 1877SOL    HW2 7581   3.118   4.246   3.211 -2.3136  0.8761  0.0075
 1877SOL    HW3 7582   3.143   4.146   3.100  1.1122  0.0346  1.4658
 1877SOL    MW4 7583   3.136   4.228   3.128 -0.7362  0.2480  0.4637
 1878SOL     OW 7584   3.371   4.438   3.004  0.7771  0.3302 -0.0782
 1878SOL    HW2 7585   3.445   4.386   3.037  0.2899 -1.2465 -1.3733
 1878SOL    HW3 7586   3.294   4.399   3.046  0.4389  0.2222 -0.7890
 1878SOL    MW4 7587   3.370   4.426   3.013  0.6683  0.1082 -0.3428
 1879SOL     OW 7588   3.839   4.630   3.150  0.0378 -0.2195  0.1298
 1879SOL    HW2 7589   3.854   4.544   3.112 -1.3786 -0.5668  0.3244
 1879SOL    HW3 7590   3.753   4.656   3.116  1.2839  1.9656 -1.5047
 1879SOL    MW4 7591   3.830   4.622   3.141  0.0153  0.0229 -0.0603
 1880SOL     OW 7592   3.604   0.112   3.047  0.0975  0.1499  0.1051
 1880SOL    HW2 7593   3.603   0.207   3.051  1.9648  0.2014 -0.2858
 1880SOL    HW3 7594   3.613   0.091   2.954 -1.0730 -0.4313  0.1089
 1880SOL    MW4 7595   3.605   0.121   3.035  0.1891  0.0800  0.0541
 1881SOL     OW 7596   3.616   0.387   3.082  0.4101 -0.0789  0.3324
 1881SOL    HW2 7597   3.619   0.393   3.177  1.6992 -0.8347  0.3480
 1881SOL    HW3 7598   3.702   0.417   3.053 -0.3305  1.1115 -0.6530
 1881SOL    MW4 7599   3.628   0.391   3.091  0.4823 -0.0215  0.2043
 1882SOL     OW 7600   3.855   0.523   2.997  0.1358 -0.1656  1.0292
 1882SOL    HW2 7601   3.925   0.479   3.046 -0.3353 -0.4207  1.4772
 1882SOL    HW3 7602   3.848   0.610   3.039  0.2616 -0.0981  0.9102
 1882SOL    MW4 7603   3.863   0.529   3.009  0.0904 -0.1904  1.0726
 1883SOL     OW 7604   3.804   0.789   3.067 -0.0496 -0.3170 -0.4560
 1883SOL    HW2 7605   3.809   0.770   3.161  1.1680 -1.2477 -0.6955
 1883SOL    HW3 7606   3.884   0.839   3.049 -1.0370  1.1929 -0.7093
 1883SOL    MW4 7607   3.816   0.793   3.077 -0.0191 -0.2406 -0.5212
 1884SOL     OW 7608   3.584   0.922   2.961 -0.1196 -0.6492 -0.1689
 1884SOL    HW2 7609   3.654   0.864   2.994  0.0117  1.0204  2.6861
 1884SOL    HW3 7610   3.504   0.887   3.000 -0.3295 -0.2061 -0.2004
 1884SOL    MW4 7611   3.583   0.909   2.971 -0.1297 -0.3705  0.2038
 1885SOL     OW 7612   3.625   1.171   3.139 -0.3895  0.3104 -0.2940
 1885SOL    HW2 7613   3.691   1.223   3.093  1.3342  0.3447  2.1205
 1885SOL    HW3 7614   3.636   1.082   3.105  0.9040  0.3251  0.0638
 1885SOL    MW4 7615   3.635   1.166   3.128  0.0086  0.3169  0.0718
 1886SOL     OW 7616   3.814   1.319   3.002  0.3978  0.2914  0.2979
 1886SOL    HW2 7617   3.808   1.403   3.048  0.4215  0.6464 -0.3343
 1886SOL    HW3 7618   3.780   1.338   2.915  0.1866 -0.4165  0.2272
 1886SOL    MW4 7619   3.809   1.333   2.997  0.3731  0.2449  0.2055
 1887SOL     OW 7620   3.808   1.553   3.133 -0.2574 -0.4900  0.5134
 1887SOL    HW2 7621   3.785   1.546   3.226  0.2482 -0.8589  0.6126
 1887SOL    HW3 7622   3.735   1.600   3.093 -0.3990 -0.1900  1.1301
 1887SOL    MW4 7623   3.795   1.558   3.140 -0.2091 -0.4990  0.6077
 1888SOL     OW 7624   3.605   1.685   3.003 -0.4578 -0.0439  0.0138
 1888SOL    HW2 7625   3.593   1.778   3.022 -0.5324  0.4173 -2.1999
 1888SOL    HW3 7626   3.590   1.677   2.909  1.2023 -2.0282 -0.1279
 1888SOL    MW4 7627   3.601   1.696   2.993 -0.2484 -0.2449 -0.2971
 1889SOL     OW 7628   3.600   1.955   3.073  0.0398 -0.3429  0.0787
 1889SOL    HW2 7629   3.606   1.947   3.168 -2.9329 -0.9022  0.2693
 1889SOL    HW3 7630   3.689   1.974   3.044  0.7995  0.7407  3.0550
 1889SOL    MW4 7631   3.613   1.956   3.081 -0.2520 -0.2738  0.4966
 1890SOL     OW 7632   3.852   2.052   3.006  0.1840 -0.2887  0.5073
 1890SOL    HW2 7633   3.846   2.147   3.020  0.1683 -0.1304 -0.5393
 1890SOL    HW3 7634   3.827   2.040   2.914 -0.0285 -1.3310  0.6996
 1890SOL    MW4 7635   3.848   2.063   2.996  0.1538 -0.4053  0.3946
 1891SOL     OW 7636   3.824   2.319   3.090  0.6190 -0.7554  0.4464
 1891SOL    HW2 7637   3.819   2.331   3.185  0.5432  0.4969  0.2895
 1891SOL    HW3 7638   3.739   2.349   3.058  1.4179  0.8966 -0.2116
 1891SOL    MW4 7639   3.812   2.325   3.098  0.7143 -0.3719  0.3388
 1892SOL     OW 7640   3.589   2.398   2.982 -0.4291 -0.1547  0.2847
 1892SOL    HW2 7641   3.590   2.488   3.014 -1.1453  0.2100 -0.7041
 1892SOL    HW3 7642   3.508   2.361   3.018  0.0968 -0.5401  1.0672
 1892SOL    MW4 7643   3.578   2.405   2.991 -0.4542 -0.1574  0.2573
 1893SOL     OW 7644   3.635   2.646   3.072  0.1199 -0.3077 -0.2888
 1893SOL    HW2 7645   3.707   2.680   3.019 -0.6177  0.3543 -0.8807
 1893SOL    HW3 7646   3.569   2.716   3.070  0.2533 -0.0776  1.8636
 1893SOL    MW4 7647   3.636   2.660   3.065  0.0403 -0.1903 -0.0827
 1894SOL     OW 7648   3.860   2.774   2.961 -0.4897  0.5257 -0.3865
 1894SOL    HW2 7649   3.834   2.858   2.998 -1.2332  1.1973 -2.3597
 1894SOL    HW3 7650   3.855   2.786   2.867  0.7945 -1.3102 -0.7396
 1894SOL    MW4 7651   3.856   2.786   2.954 -0.4184  0.3722 -0.6933
 1895SOL     OW 7652   3.813   3.013   3.108  0.0142 -0.4500 -0.4886
 1895SOL    HW2 7653   3.891   3.065   3.088  0.1411  0.1679  1.5161
 1895SOL    HW3 7654   3.740   3.062   3.069  0.2951  0.5381  0.2163
 1895SOL    MW4 7655   3.813   3.026   3.100  0.0684 -0.2382 -0.1314
 1896SOL     OW 7656   3.627   3.151   2.938 -0.0845  0.6534  0.3361
 1896SOL    HW2 7657   3.539   3.140   2.974 -0.5314  1.3556 -0.5404
 1896SOL    HW3 7658   3.613   3.182   2.849  1.0178 -1.5311 -0.6126
 1896SOL    MW4 7659   3.614   3.154   2.931  0.0019  0.4578  0.0954
 1897SOL     OW 7660   3.587   3.413   3.088  0.4225 -0.0351  0.0380
 1897SOL    HW2 7661   3.655   3.477   3.069 -0.8947  1.0498 -1.0650
 1897SOL    HW3 7662   3.623   3.330   3.057  1.8309  0.2640  0.8017
 1897SOL    MW4 7663   3.601   3.410   3.082  0.4344  0.1473 -0.0064
 1898SOL     OW 7664   3.801   3.603   3.038  0.1646  0.1757  0.1100
 1898SOL    HW2 7665   3.808   3.695   3.064  0.3730  0.0186  0.6368
 1898SOL    HW3 7666   3.815   3.603   2.944  0.2928  0.6742  0.1273
 1898SOL    MW4 7667   3.804   3.615   3.029  0.2089  0.2205  0.1819
 1899SOL     OW 7668   3.828   3.880   3.068  0.2398 -0.0580 -0.2479
 1899SOL    HW2 7669   3.828   3.876   3.163 -0.1247  0.6328 -0.2178
 1899SOL    HW3 7670   3.744   3.920   3.045  0.4608  0.0765 -0.8457
 1899SOL    MW4 7671   3.817   3.884   3.077  0.2205  0.0508 -0.3228
 1900SOL     OW 7672   3.593   4.003   3.005  0.3971  0.1853  0.1146
 1900SOL    HW2 7673   3.534   3.963   3.069  1.2806  0.5018  1.1542
 1900SOL    HW3 7674   3.573   3.959   2.922  0.0928 -1.1095  0.8641
 1900SOL    MW4 7675   3.582   3.992   3.003  0.4735  0.0563  0.3505
 1901SOL     OW 7676   3.594   4.285   3.132  0.0800  0.1016  0.6406
 1901SOL    HW2 7677   3.683   4.317   3.118  0.6855 -1.1439  1.5098
 1901SOL    HW3 7678   3.585   4.211   3.072 -0.5872  0.5845  0.1298
 1901SOL    MW4 7679   3.605   4.279   3.122  0.0718  0.0014  0.6878
 1902SOL     OW 7680   3.833   4.391   3.031  0.0593 -0.1633 -0.4734
 1902SOL    HW2 7681   3.905   4.335   3.059  0.9237  0.7508 -0.8610
 1902SOL    HW3 7682   3.831   4.383   2.936 -0.6652 -0.5642 -0.4289
 1902SOL    MW4 7683   3.842   4.382   3.022  0.0780 -0.0958 -0.5188
 1903SOL     OW 7684   4.308   4.656   3.104  0.0177  0.4155 -0.3690
 1903SOL    HW2 7685   4.319   4.637   3.197  1.5364 -0.6009 -0.7393
 1903SOL    HW3 7686   4.301   4.570   3.063  1.6095  0.7884 -1.4489
 1903SOL    MW4 7687   4.308   4.642   3.111  0.4277  0.3304 -0.5603
 1904SOL     OW 7688   4.061   0.095   3.028  0.7960 -0.1788  0.4108
 1904SOL    HW2 7689   4.144   0.054   3.054  0.7447 -0.9538 -0.6400
 1904SOL    HW3 7690   3.994   0.040   3.068  0.7690  0.1982  0.8952
 1904SOL    MW4 7691   4.064   0.082   3.037  0.7858 -0.2313  0.3362
 1905SOL     OW 7692   4.043   0.355   3.132 -0.2456 -0.7049 -0.2084
 1905SOL    HW2 7693   4.123   0.403   3.109 -0.0078 -0.8492  0.2955
 1905SOL    HW3 7694   4.056   0.268   3.095  0.1267 -0.9305  0.4432
 1905SOL    MW4 7695   4.055   0.350   3.124 -0.1655 -0.7537 -0.0558
 1906SOL     OW 7696   4.259   0.501   3.039  0.1246 -0.6876  0.5288
 1906SOL    HW2 7697   4.282   0.585   3.078 -0.9572 -0.7976  1.4242
 1906SOL    HW3 7698   4.230   0.522   2.951  1.2595 -0.2844  0.2403
 1906SOL    MW4 7699   4.259   0.515   3.033  0.1316 -0.6489  0.6087
 1907SOL     OW 7700   4.268   0.774   3.133 -0.0049  0.1489  0.5396
 1907SOL    HW2 7701   4.196   0.825   3.096  0.0532 -0.2467 -0.1206
 1907SOL    HW3 7702   4.347   0.813   3.096 -0.0376 -1.5539 -1.4186
 1907SOL    MW4 7703   4.269   0.786   3.123 -0.0014 -0.1280  0.1943
 1908SOL     OW 7704   4.041   0.894   3.003 -0.3120  0.0385 -0.1546
 1908SOL    HW2 7705   4.039   0.986   3.028 -0.2331  0.0906 -0.3410
 1908SOL    HW3 7706   4.039   0.894   2.907 -0.1174 -0.1485 -0.1600
 1908SOL    MW4 7707   4.040   0.906   2.993 -0.2761  0.0207 -0.1800
 1909SOL     OW 7708   4.041   1.157   3.065 -0.0342  0.1826 -0.2479
 1909SOL    HW2 7709   4.036   1.170   3.160 -0.2713 -0.1494 -0.2158
 1909SOL    HW3 7710   3.965   1.204   3.030 -0.4864 -0.5053 -0.1925
 1909SOL    MW4 7711   4.031   1.165   3.073 -0.1254  0.0482 -0.2365
 1910SOL     OW 7712   4.280   1.263   2.960 -0.5163  0.2122  0.2691
 1910SOL    HW2 7713   4.192   1.239   2.989 -0.9008  0.3197 -0.8087
 1910SOL    HW3 7714   4.281   1.245   2.866  0.6218  0.1861  0.2767
 1910SOL    MW4 7715   4.269   1.258   2.951 -0.4163  0.2229  0.1278
 1911SOL     OW 7716   4.279   1.528   3.095  0.0479 -0.2283 -0.3485
 1911SOL    HW2 7717   4.196   1.563   3.063  0.5634  0.4458 -0.9785
 1911SOL    HW3 7718   4.287   1.442   3.055 -0.8285 -0.7149  0.5226
 1911SOL    MW4 7719   4.269   1.522   3.086  0.0005 -0.2036 -0.3166
 1912SOL     OW 7720   4.038   1.659   3.016 -0.2596  0.2405  0.0756
 1912SOL    HW2 7721   4.077   1.731   3.065 -0.3472  0.1988  0.2082
 1912SOL    HW3 7722   3.965   1.629   3.071  0.1462 -0.3433  0.3070
 1912SOL    MW4 7723   4.033   1.664   3.030 -0.2179  0.1581  0.1235
 1913SOL     OW 7724   4.093   1.896   3.131  0.3757  0.1108 -0.4235
 1913SOL    HW2 7725   4.159   1.944   3.083 -0.0692  2.8655  1.5791
 1913SOL    HW3 7726   4.010   1.939   3.109 -0.4240 -1.5632 -0.7963
 1913SOL    MW4 7727   4.091   1.908   3.122  0.2117  0.2534 -0.2084
 1914SOL     OW 7728   4.304   2.006   2.982 -0.1993  0.1037 -0.1472
 1914SOL    HW2 7729   4.292   2.097   3.010  0.7400 -0.0084  0.6377
 1914SOL    HW3 7730   4.296   2.010   2.886 -1.5259  0.7881 -0.0151
 1914SOL    MW4 7731   4.301   2.019   2.973 -0.2508  0.1791 -0.0262
 1915SOL     OW 7732   4.263   2.268   3.070 -0.1056 -0.5340 -0.2480
 1915SOL    HW2 7733   4.185   2.318   3.046 -0.6035 -0.9601  0.4420
 1915SOL    HW3 7734   4.336   2.323   3.044 -0.6358 -0.2240 -1.1108
 1915SOL    MW4 7735   4.262   2.282   3.063 -0.2408 -0.5496 -0.2708
 1916SOL     OW 7736   4.058   2.431   2.995 -0.1686 -0.2733 -0.4883
 1916SOL    HW2 7737   4.071   2.519   3.030 -0.2855 -0.3946 -0.1345
 1916SOL    HW3 7738   3.980   2.398   3.040  0.4163 -0.9086  0.0982
 1916SOL    MW4 7739   4.050   2.438   3.006 -0.1073 -0.3731 -0.3645
 1917SOL     OW 7740   4.083   2.665   3.133  0.0196  0.1362  0.0770
 1917SOL    HW2 7741   4.064   2.660   3.226  1.0741 -1.2501  0.2561
 1917SOL    HW3 7742   4.007   2.707   3.094 -2.3650 -3.1280  1.0080
 1917SOL    MW4 7743   4.071   2.670   3.140 -0.1554 -0.4773  0.2234
 1918SOL     OW 7744   4.261   2.831   3.005 -0.1467 -0.4178  0.3017
 1918SOL    HW2 7745   4.196   2.781   3.054 -0.2090 -1.2021 -0.5619
 1918SOL    HW3 7746   4.345   2.806   3.043 -0.2770 -0.0932  0.8137
 1918SOL    MW4 7747   4.263   2.821   3.016 -0.1721 -0.4783  0.2553
 1919SOL     OW 7748   4.235   3.093   3.098 -0.1922  0.0531  0.0861
 1919SOL    HW2 7749   4.163   3.146   3.063  0.6919  0.2461 -1.5065
 1919SOL    HW3 7750   4.223   3.007   3.058  1.3452  0.5198 -1.4547
 1919SOL    MW4 7751   4.224   3.089   3.088  0.1273  0.1402 -0.3276
 1920SOL     OW 7752   3.992   3.188   3.010  0.2572 -0.2183  0.1269
 1920SOL    HW2 7753   3.998   3.280   3.037  0.3205  0.0015 -0.6259
 1920SOL    HW3 7754   3.999   3.190   2.915 -0.4081 -0.9451  0.0527
 1920SOL    MW4 7755   3.994   3.200   3.001  0.1779 -0.2849  0.0179
 1921SOL     OW 7756   4.019   3.441   3.101 -0.0632  0.2236  0.4139
 1921SOL    HW2 7757   4.017   3.451   3.196  0.2146  0.2382  0.4169
 1921SOL    HW3 7758   3.943   3.491   3.071 -0.7399 -0.6073  0.7056
 1921SOL    MW4 7759   4.008   3.449   3.110 -0.1159  0.1159  0.4528
 1922SOL     OW 7760   4.254   3.596   3.012  0.1334 -0.1795 -0.1397
 1922SOL    HW2 7761   4.238   3.684   3.044 -1.6687 -0.4278 -0.3033
 1922SOL    HW3 7762   4.179   3.545   3.044  0.3999 -1.3146 -1.2910
 1922SOL    MW4 7763   4.242   3.601   3.021 -0.0691 -0.3622 -0.3130
 1923SOL     OW 7764   4.243   3.862   3.124  0.6694  0.3102  0.1238
 1923SOL    HW2 7765   4.166   3.898   3.079 -0.4732 -0.7286  1.2015
 1923SOL    HW3 7766   4.318   3.897   3.075 -0.4640  1.9066 -0.5241
 1923SOL    MW4 7767   4.243   3.872   3.112  0.3686  0.3839  0.1807
 1924SOL     OW 7768   4.052   4.018   2.983 -0.0165  0.2503  0.3968
 1924SOL    HW2 7769   4.051   4.091   3.044 -0.9228 -0.0693  0.7633
 1924SOL    HW3 7770   3.971   3.970   3.000 -0.3765  0.2621 -1.1884
 1924SOL    MW4 7771   4.041   4.021   2.993 -0.1841  0.2093  0.2360
 1925SOL     OW 7772   4.048   4.265   3.117 -0.1863 -0.7632  0.2878
 1925SOL    HW2 7773   4.066   4.272   3.211 -0.1544  0.0134  0.2259
 1925SOL    HW3 7774   4.109   4.327   3.077 -0.6290 -0.6389 -0.1964
 1925SOL    MW4 7775   4.059   4.274   3.124 -0.2398 -0.6442  0.2158
 1926SOL     OW 7776   4.286   4.411   2.993  0.3955 -0.3280 -0.2481
 1926SOL    HW2 7777   4.352   4.348   3.021 -1.6342 -1.6871  1.6636
 1926SOL    HW3 7778   4.284   4.403   2.897  0.4147 -2.9216 -0.0518
 1926SOL    MW4 7779   4.294   4.402   2.984  0.1302 -0.8497  0.0300
 1927SOL     OW 7780   0.213   4.662   3.377  0.2165 -0.0258 -0.0728
 1927SOL    HW2 7781   0.298   4.694   3.406 -0.1269  0.0485  0.8691
 1927SOL    HW3 7782   0.211   4.571   3.407 -0.4727  0.2928  0.8577
 1927SOL    MW4 7783   0.224   4.654   3.384  0.0803  0.0257  0.1745
 1928SOL     OW 7784   4.483   0.093   3.531  0.3483  0.0700 -0.1475
 1928SOL    HW2 7785   4.466   0.173   3.481 -1.3009 -0.6636 -0.7921
 1928SOL    HW3 7786   4.566   0.060   3.496 -0.1984  0.1960 -1.5865
 1928SOL    MW4 7787   4.492   0.099   3.520  0.0587 -0.0102 -0.4225
 1929SOL     OW 7788   4.462   0.323   3.383 -0.5485  0.0606  0.3065
 1929SOL    HW2 7789   4.392   0.378   3.418 -1.5914 -0.8877 -0.2621
 1929SOL    HW3 7790   4.543   0.371   3.403 -1.3741  1.2971  0.7183
 1929SOL    MW4 7791   4.464   0.337   3.390 -0.7949  0.0986  0.2856
 1930SOL     OW 7792   0.175   0.480   3.456 -0.0431  0.1902  0.2147
 1930SOL    HW2 7793   0.256   0.431   3.450 -1.2898 -1.8987 -0.1681
 1930SOL    HW3 7794   0.190   0.559   3.405  1.3966 -0.6889 -0.7557
 1930SOL    MW4 7795   0.188   0.484   3.448 -0.0176 -0.2014  0.0365
 1931SOL     OW 7796   0.221   0.740   3.362 -0.4040  0.2272 -0.3436
 1931SOL    HW2 7797   0.295   0.758   3.419 -0.7929 -1.3973  0.7113
 1931SOL    HW3 7798   0.148   0.788   3.401  0.1247  2.0796 -1.5567
 1931SOL    MW4 7799   0.221   0.748   3.375 -0.3856  0.2573 -0.3645
 1932SOL     OW 7800   0.005   0.885   3.512  0.3524  0.0853  0.1021
 1932SOL    HW2 7801  -0.002   0.895   3.607 -0.0430 -0.1170  0.0926
 1932SOL    HW3 7802  -0.001   0.975   3.478 -0.2651  0.0879  0.2176
 1932SOL    MW4 7803   0.003   0.898   3.520  0.2184  0.0589  0.1161
 1933SOL     OW 7804   4.461   1.136   3.396  0.0722 -0.0909 -0.6956
 1933SOL    HW2 7805   4.538   1.179   3.432  0.2949  0.0412 -1.3176
 1933SOL    HW3 7806   4.485   1.116   3.306 -0.7825  0.3600 -1.0324
 1933SOL    MW4 7807   4.475   1.139   3.389 -0.0114 -0.0141 -0.8223
 1934SOL     OW 7808   0.192   1.261   3.472  0.9080  0.2693 -0.3492
 1934SOL    HW2 7809   0.263   1.216   3.426  1.7671  0.9117  0.3248
 1934SOL    HW3 7810   0.189   1.348   3.433  1.9374  0.9672  1.0939
 1934SOL    MW4 7811   0.201   1.267   3.461  1.1572  0.4462 -0.0699
 1935SOL     OW 7812   0.245   1.513   3.331  0.2600 -0.0176 -0.0551
 1935SOL    HW2 7813   0.329   1.523   3.375  0.4446 -1.4092 -0.0788
 1935SOL    HW3 7814   0.266   1.507   3.238  0.1563 -0.5006 -0.0514
 1935SOL    MW4 7815   0.259   1.514   3.325  0.2707 -0.2649 -0.0577
 1936SOL     OW 7816   0.040   1.604   3.508  0.4707 -0.1329 -0.2469
 1936SOL    HW2 7817  -0.020   1.547   3.458 -1.2160  2.3615 -1.1747
 1936SOL    HW3 7818   0.125   1.593   3.465 -0.4851  0.2991 -2.3076
 1936SOL    MW4 7819   0.043   1.595   3.495  0.1221  0.2531 -0.6411
 1937SOL     OW 7820   4.474   1.871   3.409  0.1704 -0.0848 -0.1375
 1937SOL    HW2 7821   4.494   1.781   3.436 -0.9930 -0.4500 -0.4330
 1937SOL    HW3 7822   4.492   1.872   3.315 -1.8652 -0.6385 -0.5591
 1937SOL    MW4 7823   4.479   1.859   3.400 -0.2513 -0.2059 -0.2322
 1938SOL     OW 7824   0.189   2.063   3.490 -0.2540  0.2465  0.1108
 1938SOL    HW2 7825   0.234   2.093   3.569 -1.4811  0.4597  0.7449
 1938SOL    HW3 7826   0.140   1.986   3.518 -0.5377  0.2044 -0.4882
 1938SOL    MW4 7827   0.188   2.057   3.504 -0.4533  0.2692  0.1152
 1939SOL     OW 7828   0.229   2.298   3.355  0.4621  0.3928 -0.1656
 1939SOL    HW2 7829   0.160   2.345   3.401  0.4644  0.0426  0.1884
 1939SOL    HW3 7830   0.226   2.209   3.390 -0.5253 -0.2848 -1.9125
 1939SOL    MW4 7831   0.220   2.293   3.365  0.3321  0.2573 -0.3493
 1940SOL     OW 7832   0.029   2.449   3.474 -0.1083  0.4080 -0.0992
 1940SOL    HW2 7833   0.030   2.436   3.569  1.3058  1.4767  0.0464
 1940SOL    HW3 7834  -0.050   2.403   3.444  0.1139 -0.9961  1.4306
 1940SOL    MW4 7835   0.018   2.442   3.482  0.1076  0.3638  0.1218
 1941SOL     OW 7836   0.047   2.708   3.393  0.2152  0.0775 -0.0471
 1941SOL    HW2 7837   0.124   2.739   3.440  0.3329 -0.4478  0.1107
 1941SOL    HW3 7838   0.042   2.615   3.413  0.4826 -0.2399 -1.3914
 1941SOL    MW4 7839   0.056   2.700   3.402  0.2660 -0.0334 -0.2036
 1942SOL     OW 7840   0.255   2.860   3.503  0.1957 -0.4223 -0.7296
 1942SOL    HW2 7841   0.332   2.839   3.449 -0.4064 -0.0056 -1.7682
 1942SOL    HW3 7842   0.245   2.955   3.492 -0.0342 -0.3666 -0.0138
 1942SOL    MW4 7843   0.264   2.870   3.494  0.0859 -0.3603 -0.7722
 1943SOL     OW 7844   0.274   3.123   3.391 -0.1168 -0.0659 -0.0911
 1943SOL    HW2 7845   0.191   3.166   3.412 -2.3684 -3.5213 -1.4549
 1943SOL    HW3 7846   0.279   3.126   3.296  2.1150  1.4071  0.0367
 1943SOL    MW4 7847   0.264   3.129   3.381 -0.1194 -0.3271 -0.2542
 1944SOL     OW 7848   0.020   3.226   3.484  0.0582  0.1441  0.3110
 1944SOL    HW2 7849  -0.062   3.191   3.450  0.1789  0.5788 -0.4430
 1944SOL    HW3 7850   0.020   3.318   3.455 -0.1333  0.7044  2.0232
 1944SOL    MW4 7851   0.009   3.234   3.476  0.0486  0.2751  0.4375
 1945SOL     OW 7852   0.024   3.508   3.435 -0.0849 -0.8470 -0.0637
 1945SOL    HW2 7853  -0.055   3.554   3.465  0.7451  0.2705  0.4323
 1945SOL    HW3 7854   0.008   3.491   3.343 -0.8157 -0.4084 -0.0225
 1945SOL    MW4 7855   0.011   3.512   3.427 -0.0715 -0.6418  0.0072
 1946SOL     OW 7856   0.256   3.601   3.537  0.4538  0.3999 -0.6641
 1946SOL    HW2 7857   0.255   3.609   3.633  1.5202  0.1974 -0.6211
 1946SOL    HW3 7858   0.168   3.574   3.514  0.4731 -0.5765  0.3580
 1946SOL    MW4 7859   0.245   3.598   3.547  0.5971  0.2446 -0.5236
 1947SOL     OW 7860   0.236   3.836   3.415 -0.2964 -0.5825 -0.1636
 1947SOL    HW2 7861   0.150   3.864   3.446 -0.4209 -1.0096 -0.1166
 1947SOL    HW3 7862   0.250   3.751   3.456  0.9019  0.2595  1.2093
 1947SOL    MW4 7863   0.226   3.828   3.424 -0.1547 -0.5276  0.0238
 1948SOL     OW 7864   0.010   3.960   3.501 -0.0706  0.5073 -0.0720
 1948SOL    HW2 7865  -0.002   3.965   3.596 -0.9567 -0.5877 -0.1112
 1948SOL    HW3 7866   0.013   4.051   3.472  1.8637  0.8556  1.2000
 1948SOL    MW4 7867   0.009   3.973   3.509  0.0677  0.4086  0.0908
 1949SOL     OW 7868   0.045   4.219   3.411  0.0927 -0.0149 -0.3260
 1949SOL    HW2 7869  -0.039   4.243   3.449 -0.6268 -1.1290 -1.1605
 1949SOL    HW3 7870   0.109   4.268   3.461 -1.0976  1.3444 -0.0840
 1949SOL    MW4 7871   0.042   4.229   3.422 -0.1592  0.0172 -0.4041
 1950SOL     OW 7872   0.249   4.395   3.482  0.4498 -0.1127  0.0847
 1950SOL    HW2 7873   0.271   4.397   3.575  1.0342  0.8775 -0.0621
 1950SOL    HW3 7874   0.318   4.343   3.442 -0.3355 -1.3606  0.3305
 1950SOL    MW4 7875   0.261   4.389   3.489  0.4233 -0.1473  0.0978
 1951SOL     OW 7876   0.674   4.621   3.403  0.3402  0.5003 -0.2019
 1951SOL    HW2 7877   0.757   4.655   3.434 -0.0640  0.8151  0.5497
 1951SOL    HW3 7878   0.683   4.618   3.308  2.5985 -3.0772  0.0466
 1951SOL    MW4 7879   0.686   4.625   3.394  0.5848  0.0691 -0.0701
 1952SOL     OW 7880   0.446   0.061   3.498 -0.0277  0.3598 -0.3177
 1952SOL    HW2 7881   0.449   0.055   3.594  1.6424  0.4590 -0.3547
 1952SOL    HW3 7882   0.526   0.017   3.469  0.4240  1.9973 -1.5924
 1952SOL    MW4 7883   0.457   0.054   3.507  0.2522  0.5889 -0.4907
 1953SOL     OW 7884   0.417   0.316   3.385  0.3843 -0.1361 -0.6314
 1953SOL    HW2 7885   0.499   0.363   3.397 -0.5512  1.2259  0.5385
 1953SOL    HW3 7886   0.436   0.227   3.415  1.0194  0.5490  1.0043
 1953SOL    MW4 7887   0.431   0.310   3.390  0.3447  0.1340 -0.2615
 1954SOL     OW 7888   0.649   0.466   3.402 -0.2824 -0.0690 -0.2524
 1954SOL    HW2 7889   0.646   0.487   3.495 -1.1426 -0.4133 -0.2023
 1954SOL    HW3 7890   0.737   0.430   3.388  0.9531  2.7690 -0.1724
 1954SOL    MW4 7891   0.661   0.464   3.412 -0.2329  0.2600 -0.2351
 1955SOL     OW 7892   0.678   0.751   3.375  0.0071 -0.3231 -0.5999
 1955SOL    HW2 7893   0.599   0.784   3.417  0.7329 -1.1365  1.4612
 1955SOL    HW3 7894   0.680   0.658   3.396  1.1298 -0.4652 -1.2741
 1955SOL    MW4 7895   0.668   0.743   3.383  0.2509 -0.4492 -0.4170
 1956SOL     OW 7896   0.437   0.851   3.492  0.2547 -0.1454  0.1043
 1956SOL    HW2 7897   0.427   0.868   3.586 -2.3032 -0.8981  0.0081
 1956SOL    HW3 7898   0.425   0.937   3.451 -1.4647 -0.2514  0.3237
 1956SOL    MW4 7899   0.434   0.864   3.499 -0.3096 -0.2587  0.1209
 1957SOL     OW 7900   0.410   1.100   3.355 -0.5921 -0.7514  0.6388
 1957SOL    HW2 7901   0.466   1.163   3.399 -0.5133 -0.2396 -0.1848
 1957SOL    HW3 7902   0.427   1.114   3.262  0.8186 -3.2230  0.4575
 1957SOL    MW4 7903   0.420   1.110   3.349 -0.3956 -1.0098  0.5062
 1958SOL     OW 7904   0.628   1.253   3.461 -0.3241  0.5788 -0.6647
 1958SOL    HW2 7905   0.712   1.217   3.434 -0.0664  0.8424 -0.2129
 1958SOL    HW3 7906   0.635   1.346   3.442 -0.5233  0.5965 -0.6480
 1958SOL    MW4 7907   0.640   1.260   3.455 -0.3164  0.6158 -0.6027
 1959SOL     OW 7908   0.703   1.525   3.351  0.1335 -0.4105  0.3031
 1959SOL    HW2 7909   0.771   1.571   3.400 -1.2486 -0.3098  2.1802
 1959SOL    HW3 7910   0.621   1.569   3.376 -0.6011 -0.1097 -2.3900
 1959SOL    MW4 7911   0.701   1.537   3.361 -0.1458 -0.3576  0.1957
 1960SOL     OW 7912   0.477   1.620   3.462  0.1972 -0.0530  0.2230
 1960SOL    HW2 7913   0.469   1.617   3.558  2.1170  0.3606  0.4202
 1960SOL    HW3 7914   0.448   1.709   3.440  1.6624  0.5468  0.6443
 1960SOL    MW4 7915   0.472   1.632   3.472  0.6439  0.0806  0.3045
 1961SOL     OW 7916   0.371   1.881   3.398  0.4426 -0.0381  0.0632
 1961SOL    HW2 7917   0.316   1.958   3.411  0.7172 -0.0622  1.4042
 1961SOL    HW3 7918   0.397   1.886   3.306  0.1500  1.2616  0.0370
 1961SOL    MW4 7919   0.367   1.892   3.387  0.4402  0.1302  0.2365
 1962SOL     OW 7920   0.633   1.990   3.461 -0.6647 -0.6234  0.3162
 1962SOL    HW2 7921   0.636   2.025   3.550 -0.3314 -0.2435  0.1569
 1962SOL    HW3 7922   0.546   1.951   3.454 -1.0775  0.2664  0.4629
 1962SOL    MW4 7923   0.622   1.990   3.472 -0.6752 -0.4560  0.3147
 1963SOL     OW 7924   0.652   2.260   3.370  0.3943 -0.3072  0.3280
 1963SOL    HW2 7925   0.728   2.293   3.419  0.1496  0.1653  0.3868
 1963SOL    HW3 7926   0.644   2.168   3.398  0.6214 -0.2092  0.7182
 1963SOL    MW4 7927   0.661   2.252   3.380  0.3920 -0.2317  0.3872
 1964SOL     OW 7928   0.442   2.435   3.465  0.6664 -0.0001 -0.0473
 1964SOL    HW2 7929   0.528   2.407   3.434  1.0102 -0.2674  1.1528
 1964SOL    HW3 7930   0.380   2.381   3.415  1.2239 -0.5683 -0.1181
 1964SOL    MW4 7931   0.445   2.424   3.454  0.7853 -0.1106  0.1016
 1965SOL     OW 7932   0.483   2.707   3.390 -0.7471 -0.3528  0.5746
 1965SOL    HW2 7933   0.455   2.623   3.426 -2.8827 -0.1318 -0.5452
 1965SOL    HW3 7934   0.472   2.698   3.296  0.3447  0.7106  0.3283
 1965SOL    MW4 7935   0.478   2.695   3.383 -0.8848 -0.1833  0.3943
 1966SOL     OW 7936   0.717   2.840   3.451  0.3464  0.1510  0.0307
 1966SOL    HW2 7937   0.782   2.775   3.422 -0.6466 -1.2258  0.8200
 1966SOL    HW3 7938   0.635   2.791   3.454 -0.3436  1.3632  1.0174
 1966SOL    MW4 7939   0.715   2.825   3.448  0.1244  0.1295  0.2649
 1967SOL     OW 7940   0.686   3.113   3.391  0.6726 -0.5906 -0.1648
 1967SOL    HW2 7941   0.618   3.154   3.445  0.2746 -0.8011 -0.4983
 1967SOL    HW3 7942   0.691   3.023   3.424  0.1267 -0.8416 -0.7580
 1967SOL    MW4 7943   0.678   3.107   3.402  0.5481 -0.6516 -0.2871
 1968SOL     OW 7944   0.483   3.240   3.510 -0.2038 -0.3593  0.1815
 1968SOL    HW2 7945   0.469   3.230   3.605  0.2806  1.5846  0.4616
 1968SOL    HW3 7946   0.420   3.180   3.471 -0.3111 -1.3028  1.7350
 1968SOL    MW4 7947   0.473   3.230   3.518 -0.1540 -0.2277  0.4232
 1969SOL     OW 7948   0.456   3.482   3.391 -0.3234  0.2517  0.5447
 1969SOL    HW2 7949   0.462   3.397   3.435  0.8850  0.5800  1.0155
 1969SOL    HW3 7950   0.387   3.528   3.440  0.3827  0.2788  1.5297
 1969SOL    MW4 7951   0.448   3.477   3.403 -0.0708  0.2987  0.7367
 1970SOL     OW 7952   0.677   3.647   3.489 -0.0005 -0.2754  0.2233
 1970SOL    HW2 7953   0.760   3.606   3.463  1.4839  1.8795  1.3871
 1970SOL    HW3 7954   0.610   3.585   3.461  2.0042 -2.1234 -0.6569
 1970SOL    MW4 7955   0.679   3.633   3.482  0.4598 -0.2348  0.2606
 1971SOL     OW 7956   0.671   3.911   3.386  0.0470 -0.0038 -0.1906
 1971SOL    HW2 7957   0.591   3.939   3.431  0.3653  0.2456  0.2259
 1971SOL    HW3 7958   0.678   3.818   3.407  1.1529  0.4838  1.7911
 1971SOL    MW4 7959   0.662   3.902   3.395  0.2350  0.0935  0.1261
 1972SOL     OW 7960   0.439   3.981   3.522  0.0786 -0.2435  0.2656
 1972SOL    HW2 7961   0.406   4.063   3.485  0.2577  1.3580  3.5228
 1972SOL    HW3 7962   0.383   3.914   3.484 -1.0019  1.5243 -1.3435
 1972SOL    MW4 7963   0.427   3.983   3.512 -0.0403  0.2007  0.4828
 1973SOL     OW 7964   0.465   4.236   3.383 -0.5322 -0.7374  0.0517
 1973SOL    HW2 7965   0.542   4.285   3.411 -1.0007  0.1389 -0.1756
 1973SOL    HW3 7966   0.479   4.222   3.289 -1.0480  0.1822 -0.1735
 1973SOL    MW4 7967   0.477   4.241   3.374 -0.6621 -0.5007 -0.0081
 1974SOL     OW 7968   0.676   4.372   3.496  0.6647  0.3192 -0.1022
 1974SOL    HW2 7969   0.753   4.342   3.447  0.2431 -0.0568 -0.5319
 1974SOL    HW3 7970   0.656   4.458   3.459  0.0840 -0.1523 -0.8817
 1974SOL    MW4 7971   0.684   4.379   3.485  0.5324  0.2074 -0.2618
 1975SOL     OW 7972   1.137   4.612   3.412 -0.1130 -0.1181 -0.2709
 1975SOL    HW2 7973   1.203   4.671   3.449 -0.7618  1.2075 -1.2305
 1975SOL    HW3 7974   1.155   4.611   3.318  0.8538 -2.6489 -0.1034
 1975SOL    MW4 7975   1.148   4.619   3.405 -0.0710 -0.2766 -0.3753
 1976SOL     OW 7976   0.900   0.107   3.448  0.2804 -0.3878 -0.3797
 1976SOL    HW2 7977   0.897   0.118   3.543 -0.5741  0.2874 -0.4847
 1976SOL    HW3 7978   0.979   0.054   3.433  0.8744  0.1988  0.6353
 1976SOL    MW4 7979   0.910   0.101   3.459  0.2460 -0.2213 -0.2596
 1977SOL     OW 7980   0.918   0.388   3.364  0.1798  0.0601  0.5040
 1977SOL    HW2 7981   1.005   0.423   3.383 -0.2546  0.1888  2.3478
 1977SOL    HW3 7982   0.921   0.298   3.396 -0.9615  0.6662  2.4086
 1977SOL    MW4 7983   0.930   0.381   3.370 -0.0280  0.1570  0.9985
 1978SOL     OW 7984   1.139   0.523   3.456 -0.2059 -0.1867 -0.1198
 1978SOL    HW2 7985   1.138   0.514   3.552  1.2840 -2.3114 -0.2735
 1978SOL    HW3 7986   1.118   0.615   3.441 -0.6441  0.1411  2.2475
 1978SOL    MW4 7987   1.136   0.534   3.467 -0.0671 -0.4238  0.1721
 1979SOL     OW 7988   1.117   0.784   3.392 -0.2464  0.0714 -0.3853
 1979SOL    HW2 7989   1.189   0.815   3.447 -0.1623  1.7959 -1.4307
 1979SOL    HW3 7990   1.038   0.816   3.435 -0.1532  2.0126 -1.5484
 1979SOL    MW4 7991   1.116   0.792   3.405 -0.2230  0.5550 -0.6766
 1980SOL     OW 7992   0.904   0.892   3.506 -0.7324 -0.1293  0.1999
 1980SOL    HW2 7993   0.910   0.976   3.462 -0.2779  0.7126  1.8197
 1980SOL    HW3 7994   0.846   0.840   3.451 -2.1177  1.7006 -0.1128
 1980SOL    MW4 7995   0.898   0.896   3.493 -0.8552  0.2231  0.3724
 1981SOL     OW 7996   0.885   1.146   3.392  0.4520 -0.0486  0.1811
 1981SOL    HW2 7997   0.966   1.193   3.413  1.3389 -0.1679 -2.7370
 1981SOL    HW3 7998   0.883   1.143   3.296 -2.1771 -1.5136  0.2282
 1981SOL    MW4 7999   0.895   1.152   3.382  0.2221 -0.2575 -0.1976
 1982SOL     OW 8000   1.108   1.270   3.474 -0.4033  0.4308  0.0613
 1982SOL    HW2 8001   1.126   1.275   3.568  2.0926  0.2591 -0.3598
 1982SOL    HW3 8002   1.125   1.359   3.442  2.2317 -0.3258 -0.7501
 1982SOL    MW4 8003   1.113   1.283   3.482  0.2735  0.3084 -0.1013
 1983SOL     OW 8004   1.139   1.529   3.396  0.1833  0.1743  0.2688
 1983SOL    HW2 8005   1.208   1.579   3.440  0.0444  0.2378  0.4135
 1983SOL    HW3 8006   1.156   1.542   3.303  1.1091 -0.8226  0.2895
 1983SOL    MW4 8007   1.150   1.538   3.390  0.2869  0.0510  0.2904
 1984SOL     OW 8008   0.903   1.650   3.487  0.1437 -0.0542 -0.1818
 1984SOL    HW2 8009   0.897   1.732   3.438  2.0915 -0.2988 -0.8827
 1984SOL    HW3 8010   0.984   1.609   3.455 -0.2920 -1.7805  0.8655
 1984SOL    MW4 8011   0.913   1.655   3.476  0.3431 -0.3142 -0.1359
 1985SOL     OW 8012   0.887   1.910   3.353 -0.1536  0.4219 -0.3304
 1985SOL    HW2 8013   0.949   1.975   3.385  0.5098 -0.4609  0.2109
 1985SOL    HW3 8014   0.804   1.933   3.393  0.1837  0.6598  0.2257
 1985SOL    MW4 8015   0.884   1.922   3.362 -0.0216  0.3368 -0.1857
 1986SOL     OW 8016   1.099   2.061   3.458  0.4926  0.0049  0.4997
 1986SOL    HW2 8017   1.188   2.027   3.450  0.4852 -0.2622  1.3925
 1986SOL    HW3 8018   1.106   2.154   3.435  0.5948 -0.4990 -1.5136
 1986SOL    MW4 8019   1.112   2.069   3.454  0.5052 -0.0968  0.3517
 1987SOL     OW 8020   1.122   2.319   3.371 -0.1441 -0.1150 -0.2331
 1987SOL    HW2 8021   1.207   2.357   3.391 -0.3114  0.0009  0.2855
 1987SOL    HW3 8022   1.126   2.295   3.279  0.7258 -0.8330 -0.0129
 1987SOL    MW4 8023   1.134   2.320   3.362 -0.0514 -0.1943 -0.1357
 1988SOL     OW 8024   0.891   2.378   3.484  0.1646  0.0864 -0.1852
 1988SOL    HW2 8025   0.902   2.388   3.579  1.2792  1.4919 -0.4578
 1988SOL    HW3 8026   0.976   2.348   3.453 -0.0966 -0.0297 -0.7837
 1988SOL    MW4 8027   0.903   2.376   3.492  0.2772  0.2563 -0.3002
 1989SOL     OW 8028   0.904   2.651   3.382 -0.2591 -0.0883 -0.0213
 1989SOL    HW2 8029   0.991   2.673   3.416 -0.2491 -0.1119 -0.0314
 1989SOL    HW3 8030   0.881   2.570   3.427 -1.4830  1.3907  2.1188
 1989SOL    MW4 8031   0.912   2.643   3.392 -0.4192  0.1037  0.2596
 1990SOL     OW 8032   1.141   2.781   3.472 -0.0662 -0.2227  0.3561
 1990SOL    HW2 8033   1.134   2.783   3.568  1.2030  0.4377  0.4437
 1990SOL    HW3 8034   1.226   2.741   3.456 -0.2947 -0.3628 -0.5035
 1990SOL    MW4 8035   1.151   2.776   3.483  0.0712 -0.1540  0.2542
 1991SOL     OW 8036   1.124   3.049   3.403  0.3508  0.5204  0.3504
 1991SOL    HW2 8037   1.119   2.956   3.427  1.0392  0.5525  0.6232
 1991SOL    HW3 8038   1.144   3.049   3.310  0.6449  0.3988  0.4147
 1991SOL    MW4 8039   1.126   3.037   3.394  0.4804  0.5085  0.3946
 1992SOL     OW 8040   0.924   3.227   3.477 -0.3410 -0.1205  0.1349
 1992SOL    HW2 8041   0.993   3.165   3.454  0.6894  1.2964 -0.7205
 1992SOL    HW3 8042   0.843   3.186   3.445  0.1721 -1.5007  0.5752
 1992SOL    MW4 8043   0.922   3.214   3.470 -0.1374 -0.1159  0.0801
 1993SOL     OW 8044   0.894   3.517   3.374 -0.0122 -0.0351 -0.5199
 1993SOL    HW2 8045   0.905   3.428   3.408  0.7114  0.1936 -0.1361
 1993SOL    HW3 8046   0.900   3.507   3.279 -0.3830 -0.4551 -0.5036
 1993SOL    MW4 8047   0.896   3.504   3.366  0.0344 -0.0603 -0.4673
 1994SOL     OW 8048   1.150   3.597   3.460  0.2753 -0.0662 -0.1389
 1994SOL    HW2 8049   1.155   3.584   3.555 -0.3074 -1.8115 -0.3463
 1994SOL    HW3 8050   1.060   3.576   3.438  0.0166  1.7693 -0.8814
 1994SOL    MW4 8051   1.139   3.593   3.470  0.1643 -0.0544 -0.2642
 1995SOL     OW 8052   1.150   3.868   3.388  0.2790  0.0374  0.6944
 1995SOL    HW2 8053   1.230   3.904   3.428  1.2654 -0.6047 -0.6380
 1995SOL    HW3 8054   1.150   3.776   3.414 -1.0286  0.4563  2.2192
 1995SOL    MW4 8055   1.161   3.861   3.396  0.2365  0.0079  0.7198
 1996SOL     OW 8056   0.929   3.981   3.499 -0.0169 -0.0659 -0.2477
 1996SOL    HW2 8057   1.009   3.946   3.462  0.7358  0.6265  0.7102
 1996SOL    HW3 8058   0.859   3.943   3.445  0.9561 -0.4424 -1.2579
 1996SOL    MW4 8059   0.930   3.971   3.487  0.2108 -0.0243 -0.2546
 1997SOL     OW 8060   0.928   4.246   3.389 -0.1764 -0.0192  0.4674
 1997SOL    HW2 8061   0.945   4.161   3.431  0.0675 -0.4105 -0.4217
 1997SOL    HW3 8062   0.926   4.226   3.295  1.6680  1.2757  0.1485
 1997SOL    MW4 8063   0.930   4.232   3.382  0.0991  0.1001  0.3080
 1998SOL     OW 8064   1.180   4.349   3.488 -0.2153 -0.3132 -0.1960
 1998SOL    HW2 8065   1.091   4.316   3.472 -1.5543  1.7355  2.5396
 1998SOL    HW3 8066   1.179   4.438   3.451 -0.7449  1.3173  3.4923
 1998SOL    MW4 8067   1.168   4.357   3.481 -0.4619  0.1721  0.6516
 1999SOL     OW 8068   1.554   4.641   3.381 -0.0299  0.3091  0.1858
 1999SOL    HW2 8069   1.576   4.550   3.402 -1.2103 -0.1970 -0.7257
 1999SOL    HW3 8070   1.480   4.662   3.437 -0.2207  0.4686 -0.1231
 1999SOL    MW4 8071   1.547   4.631   3.391 -0.2108  0.2632  0.0246
 2000SOL     OW 8072   1.348   0.099   3.505 -0.1431  0.4777  0.2392
 2000SOL    HW2 8073   1.342   0.117   3.599 -1.6354  1.4701 -0.0277
 2000SOL    HW3 8074   1.356   0.185   3.465 -1.2597  0.1685 -0.6563
 2000SOL    MW4 8075   1.348   0.113   3.512 -0.4873  0.5678  0.0856
 2001SOL     OW 8076   1.354   0.366   3.388  0.2311 -0.4800  0.3500
 2001SOL    HW2 8077   1.431   0.412   3.422 -0.3929  0.0959  1.0285
 2001SOL    HW3 8078   1.280   0.421   3.415 -0.3752 -0.6689 -0.8846
 2001SOL    MW4 8079   1.355   0.379   3.396  0.0688 -0.4290  0.2768
 2002SOL     OW 8080   1.559   0.491   3.499  0.3889 -0.3721  0.5861
 2002SOL    HW2 8081   1.567   0.480   3.594  0.7449  0.2647  0.6333
 2002SOL    HW3 8082   1.630   0.437   3.463 -0.7285 -1.8706  0.6076
 2002SOL    MW4 8083   1.570   0.482   3.507  0.2884 -0.4858  0.5951
 2003SOL     OW 8084   1.571   0.756   3.373  0.0864  0.6755  0.7553
 2003SOL    HW2 8085   1.499   0.809   3.404 -0.9062 -0.0865 -0.1958
 2003SOL    HW3 8086   1.549   0.667   3.400 -0.7745 -0.0015 -1.9541
 2003SOL    MW4 8087   1.559   0.751   3.380 -0.1582  0.4856  0.2725
 2004SOL     OW 8088   1.358   0.890   3.498  0.3109 -0.3917  0.3901
 2004SOL    HW2 8089   1.374   0.908   3.590  1.0307 -0.4011  0.2677
 2004SOL    HW3 8090   1.346   0.977   3.458  1.1373 -0.3198  0.2872
 2004SOL    MW4 8091   1.359   0.904   3.505  0.5146 -0.3834  0.3603
 2005SOL     OW 8092   1.329   1.144   3.383 -0.2157 -0.2022  0.1186
 2005SOL    HW2 8093   1.405   1.200   3.404 -0.0543 -0.4666  0.2415
 2005SOL    HW3 8094   1.254   1.195   3.412  0.0031 -0.5425  1.3273
 2005SOL    MW4 8095   1.329   1.158   3.390 -0.1655 -0.2820  0.2940
 2006SOL     OW 8096   1.532   1.299   3.457  0.7506  0.2588  0.3848
 2006SOL    HW2 8097   1.512   1.296   3.550 -0.0386 -0.7387  0.1956
 2006SOL    HW3 8098   1.608   1.242   3.446  1.1666  0.7870  0.4881
 2006SOL    MW4 8099   1.540   1.291   3.468  0.7014  0.1968  0.3734
 2007SOL     OW 8100   1.599   1.556   3.394  0.0685  0.6793  0.2745
 2007SOL    HW2 8101   1.602   1.465   3.423 -0.1019  1.2949  2.3000
 2007SOL    HW3 8102   1.602   1.551   3.298 -0.3529 -1.4621  0.3502
 2007SOL    MW4 8103   1.599   1.543   3.385 -0.0095  0.4780  0.5517
 2008SOL     OW 8104   1.364   1.671   3.548  0.1979 -0.3483 -0.2034
 2008SOL    HW2 8105   1.389   1.669   3.640 -0.9391 -1.9450  0.0995
 2008SOL    HW3 8106   1.435   1.627   3.503  0.5118 -0.0209 -0.0337
 2008SOL    MW4 8107   1.377   1.665   3.554  0.0893 -0.5157 -0.1409
 2009SOL     OW 8108   1.356   1.945   3.435  0.2768 -0.2976  0.1270
 2009SOL    HW2 8109   1.436   1.992   3.457  0.0404 -0.8380  2.2736
 2009SOL    HW3 8110   1.365   1.860   3.480 -2.1587  0.2367  1.7179
 2009SOL    MW4 8111   1.368   1.940   3.444 -0.0758 -0.2985  0.6201
 2010SOL     OW 8112   1.591   2.108   3.477 -0.2381 -0.2052 -0.3062
 2010SOL    HW2 8113   1.677   2.076   3.447 -0.5795 -0.4733 -1.0032
 2010SOL    HW3 8114   1.585   2.196   3.442  0.4946  0.4801  1.2125
 2010SOL    MW4 8115   1.602   2.115   3.469 -0.1863 -0.1500 -0.1976
 2011SOL     OW 8116   1.623   2.366   3.372 -0.1912 -0.0962 -0.1773
 2011SOL    HW2 8117   1.540   2.401   3.404  0.0998 -0.4635  1.0393
 2011SOL    HW3 8118   1.619   2.374   3.277 -2.5311 -2.1399 -0.2926
 2011SOL    MW4 8119   1.612   2.372   3.364 -0.4615 -0.4144 -0.0322
 2012SOL     OW 8120   1.377   2.438   3.474 -0.3542  0.0726 -0.0655
 2012SOL    HW2 8121   1.386   2.440   3.569  0.4506  0.7750 -0.1535
 2012SOL    HW3 8122   1.370   2.530   3.448 -1.3706 -0.1481 -0.6160
 2012SOL    MW4 8123   1.377   2.451   3.483 -0.3822  0.1361 -0.1500
 2013SOL     OW 8124   1.385   2.693   3.386 -0.3305 -0.4009 -0.3392
 2013SOL    HW2 8125   1.456   2.744   3.425 -0.8963 -0.4999  0.8531
 2013SOL    HW3 8126   1.410   2.683   3.294  0.3661  1.0030 -0.3188
 2013SOL    MW4 8127   1.398   2.698   3.379 -0.3133 -0.2286 -0.1793
 2014SOL     OW 8128   1.598   2.830   3.500  0.0102 -0.2106  0.0030
 2014SOL    HW2 8129   1.683   2.814   3.459 -0.1036  1.2726 -0.8382
 2014SOL    HW3 8130   1.577   2.921   3.478 -0.9189  0.0354  1.8008
 2014SOL    MW4 8131   1.607   2.840   3.492 -0.1274  0.0174  0.1290
 2015SOL     OW 8132   1.554   3.080   3.415  0.0628 -0.3887  0.1016
 2015SOL    HW2 8133   1.613   3.146   3.450  0.5888 -0.7858 -0.0393
 2015SOL    HW3 8134   1.466   3.112   3.437  0.3168  0.3452  0.0402
 2015SOL    MW4 8135   1.550   3.093   3.423  0.1659 -0.3440  0.0751
 2016SOL     OW 8136   1.337   3.235   3.487 -0.3149  0.1813  0.2016
 2016SOL    HW2 8137   1.337   3.235   3.583 -0.4886 -0.6174  0.2096
 2016SOL    HW3 8138   1.273   3.168   3.463  1.1165 -1.0035 -0.4433
 2016SOL    MW4 8139   1.329   3.226   3.497 -0.1489 -0.0803  0.1178
 2017SOL     OW 8140   1.392   3.488   3.369  0.0442  0.1092  0.3493
 2017SOL    HW2 8141   1.388   3.394   3.389 -0.1265 -0.2276 -1.2363
 2017SOL    HW3 8142   1.318   3.526   3.417 -1.4906 -0.9673 -1.1005
 2017SOL    MW4 8143   1.382   3.481   3.378 -0.1808 -0.0770 -0.0513
 2018SOL     OW 8144   1.643   3.538   3.477 -0.6745  0.1035 -0.2130
 2018SOL    HW2 8145   1.627   3.553   3.570  0.2549 -1.5936  0.2477
 2018SOL    HW3 8146   1.558   3.512   3.442 -0.9641  0.4640  0.2032
 2018SOL    MW4 8147   1.630   3.537   3.485 -0.5901 -0.0725 -0.0973
 2019SOL     OW 8148   1.622   3.812   3.417 -0.4314  0.1727  0.0376
 2019SOL    HW2 8149   1.647   3.723   3.440 -1.2517  0.1760  1.0098
 2019SOL    HW3 8150   1.620   3.814   3.321  0.7208 -0.5273  0.0064
 2019SOL    MW4 8151   1.625   3.801   3.407 -0.3877  0.0808  0.1619
 2020SOL     OW 8152   1.384   3.993   3.502 -0.1607  0.4324  0.5269
 2020SOL    HW2 8153   1.402   4.076   3.458 -0.2395 -0.2577 -0.8530
 2020SOL    HW3 8154   1.468   3.946   3.499 -0.1439  0.4191  1.2032
 2020SOL    MW4 8155   1.398   3.997   3.496 -0.1689  0.3397  0.4337
 2021SOL     OW 8156   1.406   4.249   3.362  0.1121 -0.3897 -0.1183
 2021SOL    HW2 8157   1.315   4.261   3.388  0.3034  0.2533  0.2777
 2021SOL    HW3 8158   1.403   4.231   3.268 -0.4258 -0.4248 -0.0935
 2021SOL    MW4 8159   1.394   4.248   3.353  0.0665 -0.3095 -0.0627
 2022SOL     OW 8160   1.619   4.396   3.503  0.3720 -0.1430 -0.1028
 2022SOL    HW2 8161   1.700   4.349   3.480 -0.2644 -1.2128 -0.2275
 2022SOL    HW3 8162   1.549   4.334   3.479 -0.4479  0.4574  0.7402
 2022SOL    MW4 8163   1.620   4.381   3.497  0.1800 -0.2050 -0.0079
 2023SOL     OW 8164   2.020   4.625   3.422 -0.3891  0.0848  0.6162
 2023SOL    HW2 8165   2.091   4.674   3.463 -0.9078 -0.4393  2.1893
 2023SOL    HW3 8166   1.941   4.676   3.441 -0.5625  0.1779 -0.3129
 2023SOL    MW4 8167   2.019   4.638   3.430 -0.4804  0.0279  0.7012
 2024SOL     OW 8168   1.766   0.087   3.509  0.2289  0.1533  0.0523
 2024SOL    HW2 8169   1.749   0.090   3.603 -2.4856  2.0080 -0.4328
 2024SOL    HW3 8170   1.684   0.056   3.471  1.0113  0.2269 -1.7722
 2024SOL    MW4 8171   1.753   0.083   3.517 -0.0260  0.4077 -0.2527
 2025SOL     OW 8172   1.781   0.355   3.408 -0.0254 -0.1510  0.3459
 2025SOL    HW2 8173   1.777   0.265   3.438 -0.9617 -0.3049 -0.2276
 2025SOL    HW3 8174   1.794   0.348   3.313 -1.0214  0.3088  0.1673
 2025SOL    MW4 8175   1.782   0.342   3.399 -0.2803 -0.1106  0.2465
 2026SOL     OW 8176   2.010   0.435   3.518 -0.2689 -0.4321  0.2585
 2026SOL    HW2 8177   1.993   0.529   3.520 -0.0666 -0.2267 -3.3512
 2026SOL    HW3 8178   1.935   0.398   3.472  0.7202 -1.7085 -0.3853
 2026SOL    MW4 8179   1.998   0.442   3.512 -0.1117 -0.5734 -0.3028
 2027SOL     OW 8180   1.972   0.686   3.442  0.3722 -0.4390  0.0299
 2027SOL    HW2 8181   2.048   0.742   3.453 -0.3538  0.2897  1.4389
 2027SOL    HW3 8182   1.968   0.669   3.347  1.5851  0.4679 -0.1918
 2027SOL    MW4 8183   1.981   0.691   3.431  0.4365 -0.2232  0.1864
 2028SOL     OW 8184   1.782   0.891   3.491  0.1718 -0.2327 -0.1697
 2028SOL    HW2 8185   1.845   0.827   3.458  0.4371  0.3634 -0.8146
 2028SOL    HW3 8186   1.697   0.851   3.475  0.3409 -0.5018 -0.4134
 2028SOL    MW4 8187   1.779   0.877   3.485  0.2290 -0.1895 -0.2868
 2029SOL     OW 8188   1.757   1.143   3.382  0.3001  0.0953 -0.4370
 2029SOL    HW2 8189   1.832   1.192   3.419 -0.0592  0.5587 -0.3142
 2029SOL    HW3 8190   1.757   1.061   3.431 -0.6542  1.0319  1.1758
 2029SOL    MW4 8191   1.767   1.139   3.394  0.1268  0.2800 -0.2081
 2030SOL     OW 8192   1.970   1.285   3.489  0.0385  0.1404  0.0936
 2030SOL    HW2 8193   1.967   1.290   3.585 -0.1562 -0.7594  0.1459
 2030SOL    HW3 8194   1.985   1.375   3.460 -0.3931  0.4939  0.9500
 2030SOL    MW4 8195   1.972   1.297   3.498 -0.0442  0.0683  0.2134
 2031SOL     OW 8196   2.000   1.546   3.382  0.0835 -0.1983 -0.2915
 2031SOL    HW2 8197   2.063   1.608   3.422 -0.6989 -0.1136  0.8384
 2031SOL    HW3 8198   1.918   1.563   3.428  0.0804 -2.7457  0.7282
 2031SOL    MW4 8199   1.998   1.557   3.394 -0.0205 -0.5232 -0.0081
 2032SOL     OW 8200   1.789   1.694   3.519  0.0715  0.4332 -0.7028
 2032SOL    HW2 8201   1.793   1.771   3.462 -1.9138  1.2144  0.1272
 2032SOL    HW3 8202   1.708   1.650   3.493 -0.5771  0.5149  1.1186
 2032SOL    MW4 8203   1.779   1.698   3.508 -0.2760  0.5472 -0.3531
 2033SOL     OW 8204   1.792   1.949   3.356 -0.5218  0.2770 -0.2489
 2033SOL    HW2 8205   1.878   1.984   3.380  0.0365 -1.3768  0.1750
 2033SOL    HW3 8206   1.795   1.939   3.261  0.6363 -2.0507  0.0065
 2033SOL    MW4 8207   1.803   1.953   3.346 -0.2955 -0.2483 -0.1590
 2034SOL     OW 8208   2.024   2.042   3.482 -0.0189  0.1732 -0.3222
 2034SOL    HW2 8209   2.111   2.003   3.471 -0.2423 -0.4372  0.0600
 2034SOL    HW3 8210   2.038   2.136   3.468  0.8825  0.2023  0.7640
 2034SOL    MW4 8211   2.038   2.050   3.478  0.0708  0.0963 -0.1287
 2035SOL     OW 8212   2.065   2.310   3.405  0.5654 -0.1493 -0.0080
 2035SOL    HW2 8213   2.140   2.365   3.428  2.4231 -1.9918 -1.3875
 2035SOL    HW3 8214   2.052   2.325   3.311 -1.0915  0.4798  0.3077
 2035SOL    MW4 8215   2.073   2.319   3.395  0.5918 -0.3095 -0.1481
 2036SOL     OW 8216   1.817   2.498   3.491  0.2582 -0.0060  0.3222
 2036SOL    HW2 8217   1.889   2.438   3.472  0.0683 -0.4206  0.8867
 2036SOL    HW3 8218   1.740   2.457   3.452  0.1655 -0.0360  0.5311
 2036SOL    MW4 8219   1.816   2.485   3.484  0.2210 -0.0644  0.4241
 2037SOL     OW 8220   1.827   2.764   3.383 -0.5328 -0.1771 -0.1629
 2037SOL    HW2 8221   1.914   2.801   3.396 -0.9795  0.5167  0.8547
 2037SOL    HW3 8222   1.833   2.675   3.418 -0.0240 -0.3946 -0.7958
 2037SOL    MW4 8223   1.839   2.757   3.389 -0.5246 -0.1144 -0.1121
 2038SOL     OW 8224   2.064   2.878   3.446  0.1377  0.5210  0.1389
 2038SOL    HW2 8225   2.068   2.874   3.542  0.1788 -0.2775  0.1041
 2038SOL    HW3 8226   2.039   2.969   3.428  0.8085  0.8658  0.8799
 2038SOL    MW4 8227   2.061   2.890   3.457  0.2317  0.4611  0.2320
 2039SOL     OW 8228   2.027   3.143   3.379 -0.2482  0.1379  0.3019
 2039SOL    HW2 8229   2.095   3.202   3.413 -1.0850  0.5084  1.3491
 2039SOL    HW3 8230   1.946   3.175   3.418 -0.7752 -1.4792  0.5694
 2039SOL    MW4 8231   2.026   3.155   3.389 -0.4277 -0.0267  0.4756
 2040SOL     OW 8232   1.787   3.231   3.477  0.4164  0.2503 -0.0387
 2040SOL    HW2 8233   1.788   3.252   3.570  1.4417 -0.2304  0.0564
 2040SOL    HW3 8234   1.819   3.310   3.434 -0.8295  0.7634 -0.0493
 2040SOL    MW4 8235   1.791   3.244   3.484  0.3873  0.2546 -0.0274
 2041SOL     OW 8236   1.885   3.467   3.351  0.0431 -0.0826 -0.0915
 2041SOL    HW2 8237   1.799   3.489   3.387  1.0168  2.3952  0.7948
 2041SOL    HW3 8238   1.881   3.497   3.261  0.2178  0.6715  0.1512
 2041SOL    MW4 8239   1.873   3.474   3.344  0.1947  0.3436  0.0579
 2042SOL     OW 8240   2.083   3.601   3.493  0.1189 -0.1995 -0.2752
 2042SOL    HW2 8241   2.163   3.567   3.454  0.2017  0.0970 -0.3694
 2042SOL    HW3 8242   2.014   3.541   3.466  0.8542 -2.4789  2.6938
 2042SOL    MW4 8243   2.084   3.589   3.484  0.2265 -0.4613  0.1040
 2043SOL     OW 8244   2.102   3.867   3.414  0.1739 -0.0415  0.1065
 2043SOL    HW2 8245   2.015   3.902   3.431  0.1423  0.2879 -0.7136
 2043SOL    HW3 8246   2.097   3.776   3.443  0.1168  0.4841  1.7915
 2043SOL    MW4 8247   2.090   3.860   3.420  0.1624  0.0713  0.2210
 2044SOL     OW 8248   1.853   3.969   3.514  0.1978 -0.0235  0.2734
 2044SOL    HW2 8249   1.863   3.978   3.608  1.2079 -0.6722  0.2289
 2044SOL    HW3 8250   1.765   3.932   3.502 -0.6623  1.7653  0.8571
 2044SOL    MW4 8251   1.842   3.966   3.525  0.2176  0.1268  0.3445
 2045SOL     OW 8252   1.839   4.227   3.429 -0.0882 -0.7926  0.2504
 2045SOL    HW2 8253   1.835   4.136   3.457 -0.9371 -0.7545  0.2426
 2045SOL    HW3 8254   1.808   4.226   3.339 -1.2296 -0.3309  0.6283
 2045SOL    MW4 8255   1.835   4.215   3.421 -0.3508 -0.7262  0.2995
 2046SOL     OW 8256   2.039   4.396   3.523  0.4565 -0.0681 -0.7741
 2046SOL    HW2 8257   1.974   4.340   3.480 -0.5425 -0.1313  0.7692
 2046SOL    HW3 8258   2.018   4.485   3.495  0.0513 -0.1438 -0.7029
 2046SOL    MW4 8259   2.028   4.400   3.514  0.2716 -0.0863 -0.5612
 2047SOL     OW 8260   2.443   4.632   3.451  0.6097 -0.1716  0.3740
 2047SOL    HW2 8261   2.458   4.543   3.481 -0.9967 -0.2934  0.8622
 2047SOL    HW3 8262   2.439   4.625   3.355  1.3522 -0.4777  0.3648
 2047SOL    MW4 8263   2.444   4.620   3.442  0.4959 -0.2284  0.4373
 2048SOL     OW 8264   2.232   0.091   3.575 -0.3506 -0.1966 -0.0438
 2048SOL    HW2 8265   2.228   0.180   3.539 -0.3734 -0.0700  0.2666
 2048SOL    HW3 8266   2.317   0.058   3.545 -0.7710 -0.4358 -0.9892
 2048SOL    MW4 8267   2.243   0.098   3.566 -0.4089 -0.2114 -0.1278
 2049SOL     OW 8268   2.241   0.328   3.394 -0.2441  0.5376  0.0886
 2049SOL    HW2 8269   2.322   0.374   3.416  0.5328 -0.8354  0.1398
 2049SOL    HW3 8270   2.173   0.377   3.440  0.5737  1.5989  0.1916
 2049SOL    MW4 8271   2.243   0.341   3.403 -0.0339  0.4965  0.1090
 2050SOL     OW 8272   2.458   0.479   3.454  0.4272  0.1611  0.3078
 2050SOL    HW2 8273   2.538   0.434   3.425  0.4445  0.2484  0.2194
 2050SOL    HW3 8274   2.461   0.564   3.410  0.0531 -0.0140 -0.0486
 2050SOL    MW4 8275   2.469   0.484   3.445  0.3803  0.1495  0.2489
 2051SOL     OW 8276   2.410   0.751   3.349  0.3501 -0.7434 -0.1304
 2051SOL    HW2 8277   2.487   0.799   3.380 -0.8480 -0.1097  1.9088
 2051SOL    HW3 8278   2.412   0.763   3.254  1.4845  1.2272  0.1022
 2051SOL    MW4 8279   2.421   0.759   3.340  0.3419 -0.3998  0.1695
 2052SOL     OW 8280   2.187   0.857   3.477 -0.0978 -0.3910 -0.3859
 2052SOL    HW2 8281   2.181   0.941   3.431  3.4260  1.4386  2.2012
 2052SOL    HW3 8282   2.264   0.814   3.440 -0.8131 -1.6589 -0.4255
 2052SOL    MW4 8283   2.197   0.863   3.466  0.2728 -0.3168 -0.0498
 2053SOL     OW 8284   2.195   1.126   3.386  0.5562 -0.1725  0.2986
 2053SOL    HW2 8285   2.275   1.150   3.432 -0.0118  0.8532  0.7546
 2053SOL    HW3 8286   2.130   1.189   3.416  0.2786  0.8255 -2.2441
 2053SOL    MW4 8287   2.197   1.137   3.396  0.4447  0.0945  0.0234
 2054SOL     OW 8288   2.454   1.242   3.528 -0.1492 -0.2214 -0.0618
 2054SOL    HW2 8289   2.458   1.250   3.623 -0.3505  2.1442 -0.2325
 2054SOL    HW3 8290   2.543   1.219   3.503  0.0741 -0.1357  0.6367
 2054SOL    MW4 8291   2.466   1.240   3.537 -0.1459  0.1020  0.0079
 2055SOL     OW 8292   2.457   1.508   3.453  0.3796 -0.4043 -0.1843
 2055SOL    HW2 8293   2.446   1.413   3.461 -3.1987 -0.1347 -1.1517
 2055SOL    HW3 8294   2.473   1.522   3.360 -0.2502  0.0224 -0.2314
 2055SOL    MW4 8295   2.457   1.498   3.442 -0.1757 -0.3124 -0.3181
 2056SOL     OW 8296   2.233   1.670   3.517  1.0096  0.7979  0.0386
 2056SOL    HW2 8297   2.254   1.688   3.608  1.5495  1.2114 -0.1655
 2056SOL    HW3 8298   2.301   1.609   3.488  0.5476  0.2692  0.0527
 2056SOL    MW4 8299   2.244   1.665   3.525  1.0197  0.7826  0.0136
 2057SOL     OW 8300   2.274   1.931   3.428 -0.0180  0.1109  0.3028
 2057SOL    HW2 8301   2.262   1.840   3.455  0.0433 -0.1005 -0.3693
 2057SOL    HW3 8302   2.267   1.929   3.333 -1.6168  1.0669  0.3925
 2057SOL    MW4 8303   2.272   1.919   3.419 -0.2208  0.2092  0.2260
 2058SOL     OW 8304   2.503   2.085   3.488 -0.0473 -0.2619 -0.6165
 2058SOL    HW2 8305   2.509   2.089   3.584 -0.4439 -2.2289 -0.4847
 2058SOL    HW3 8306   2.421   2.040   3.471  0.6146 -1.0327 -1.8703
 2058SOL    MW4 8307   2.493   2.080   3.499 -0.0122 -0.6230 -0.7644
 2059SOL     OW 8308   2.507   2.359   3.400  0.0215 -0.2046 -0.3979
 2059SOL    HW2 8309   2.592   2.403   3.404 -0.3240  0.3672  0.9177
 2059SOL    HW3 8310   2.521   2.275   3.443 -0.2762  0.2176  0.5221
 2059SOL    MW4 8311   2.520   2.354   3.406 -0.0632 -0.0732 -0.1030
 2060SOL     OW 8312   2.269   2.464   3.490  0.0103 -0.0496  0.0646
 2060SOL    HW2 8313   2.284   2.551   3.452  2.3150  0.2894  1.6525
 2060SOL    HW3 8314   2.345   2.413   3.461 -1.0911 -1.4173 -0.4498
 2060SOL    MW4 8315   2.281   2.469   3.481  0.1693 -0.1850  0.2065
 2061SOL     OW 8316   2.304   2.727   3.350  0.0622  0.1664  0.5359
 2061SOL    HW2 8317   2.232   2.785   3.375  0.1846  0.7569 -0.4276
 2061SOL    HW3 8318   2.296   2.719   3.255  1.6276  0.7591  0.3274
 2061SOL    MW4 8319   2.294   2.734   3.340  0.2847  0.3226  0.3812
 2062SOL     OW 8320   2.532   2.836   3.479 -0.1907 -0.1093  0.0147
 2062SOL    HW2 8321   2.517   2.929   3.458 -0.9302 -0.5096 -1.2902
 2062SOL    HW3 8322   2.462   2.790   3.433  0.0072 -1.3029  0.8938
 2062SOL    MW4 8323   2.521   2.842   3.470 -0.2620 -0.3197 -0.0415
 2063SOL     OW 8324   2.453   3.082   3.386  0.2302  0.3655 -0.2046
 2063SOL    HW2 8325   2.524   3.145   3.398  1.7912 -1.3645 -0.1077
 2063SOL    HW3 8326   2.447   3.069   3.292  0.3652  0.1868 -0.1908
 2063SOL    MW4 8327   2.462   3.088   3.375  0.4542  0.1137 -0.1903
 2064SOL     OW 8328   2.262   3.240   3.513 -0.1571 -0.3028 -0.0185
 2064SOL    HW2 8329   2.293   3.251   3.603  0.9973  0.0455 -0.4535
 2064SOL    HW3 8330   2.307   3.161   3.481 -1.2969 -0.9840  0.0154
 2064SOL    MW4 8331   2.272   3.231   3.521 -0.1552 -0.3467 -0.0713
 2065SOL     OW 8332   2.307   3.496   3.383 -0.1209 -0.0662  0.2946
 2065SOL    HW2 8333   2.293   3.407   3.416  3.1803 -1.2274 -1.1578
 2065SOL    HW3 8334   2.299   3.488   3.288  0.3445  1.1530  0.1435
 2065SOL    MW4 8335   2.304   3.483   3.375  0.3760 -0.0584  0.0832
 2066SOL     OW 8336   2.541   3.604   3.504  0.6297 -0.1171 -0.2461
 2066SOL    HW2 8337   2.528   3.697   3.486  1.3769  0.2036  0.8618
 2066SOL    HW3 8338   2.479   3.560   3.445  0.6377  1.0478 -1.1506
 2066SOL    MW4 8339   2.531   3.611   3.494  0.7291  0.0792 -0.2191
 2067SOL     OW 8340   2.511   3.864   3.385 -0.2302 -0.3623 -0.2620
 2067SOL    HW2 8341   2.589   3.915   3.406 -0.5712 -0.1308  0.4304
 2067SOL    HW3 8342   2.442   3.901   3.440 -1.0934  0.1848 -1.6838
 2067SOL    MW4 8343   2.512   3.875   3.395 -0.3891 -0.2594 -0.3581
 2068SOL     OW 8344   2.319   3.982   3.539  0.3932  0.6626 -0.0018
 2068SOL    HW2 8345   2.305   4.076   3.531 -1.6945  0.2158 -2.3806
 2068SOL    HW3 8346   2.237   3.943   3.506  2.5785 -1.9996 -2.5333
 2068SOL    MW4 8347   2.306   3.989   3.533  0.4060  0.2525 -0.6497
 2069SOL     OW 8348   2.278   4.254   3.438 -0.0229  0.1564  0.4693
 2069SOL    HW2 8349   2.217   4.310   3.485 -0.2022  0.7358 -0.4334
 2069SOL    HW3 8350   2.231   4.229   3.358 -0.3710 -2.1836  1.3705
 2069SOL    MW4 8351   2.264   4.258   3.434 -0.0925 -0.0749  0.4692
 2070SOL     OW 8352   2.488   4.375   3.570  0.2941 -0.0268  0.0359
 2070SOL    HW2 8353   2.479   4.381   3.665  0.5865  2.0040 -0.0441
 2070SOL    HW3 8354   2.417   4.317   3.543 -0.6810  0.5193  1.3522
 2070SOL    MW4 8355   2.478   4.368   3.579  0.2043  0.3133  0.1988
 2071SOL     OW 8356   2.945   0.026   3.392 -0.1768 -0.1631  0.2910
 2071SOL    HW2 8357   2.868   0.076   3.419 -0.2507 -0.0799 -0.0720
 2071SOL    HW3 8358   2.941   0.026   3.296  0.4023  0.0395  0.2692
 2071SOL    MW4 8359   2.934   0.033   3.383 -0.1104 -0.1254  0.2403
 2072SOL     OW 8360   2.693   0.105   3.491 -0.4691 -0.2750  0.4923
 2072SOL    HW2 8361   2.666   0.195   3.469 -1.2425 -0.8885 -1.1001
 2072SOL    HW3 8362   2.611   0.056   3.495  0.0471 -1.1498  0.2894
 2072SOL    MW4 8363   2.678   0.111   3.489 -0.5031 -0.4713  0.2556
 2073SOL     OW 8364   2.697   0.363   3.372  0.0450 -0.3485  0.3509
 2073SOL    HW2 8365   2.760   0.430   3.400  0.2060 -1.2154  2.0771
 2073SOL    HW3 8366   2.689   0.377   3.278 -1.0113  3.0484  0.8700
 2073SOL    MW4 8367   2.705   0.374   3.363 -0.0732 -0.0147  0.6471
 2074SOL     OW 8368   2.891   0.533   3.493 -0.2359 -0.0221  0.2663
 2074SOL    HW2 8369   2.901   0.530   3.588 -0.5717  0.1589  0.3076
 2074SOL    HW3 8370   2.919   0.621   3.468 -0.8851  0.1917  0.2848
 2074SOL    MW4 8371   2.896   0.544   3.502 -0.3660  0.0300  0.2742
 2075SOL     OW 8372   2.913   0.773   3.332 -0.2470  0.3886  0.2633
 2075SOL    HW2 8373   2.982   0.806   3.389  0.7157  0.6622 -1.0557
 2075SOL    HW3 8374   2.832   0.809   3.369  0.4970  1.6763  0.6587
 2075SOL    MW4 8375   2.911   0.782   3.345 -0.0222  0.5946  0.1411
 2076SOL     OW 8376   2.644   0.886   3.445  0.2788  0.1126  0.0513
 2076SOL    HW2 8377   2.661   0.873   3.538  1.3380  0.1543 -0.1260
 2076SOL    HW3 8378   2.679   0.973   3.426 -1.2459  0.7041 -0.0791
 2076SOL    MW4 8379   2.651   0.896   3.455  0.2177  0.1962  0.0107
 2077SOL     OW 8380   2.693   1.158   3.417 -0.2142 -0.0102  0.2830
 2077SOL    HW2 8381   2.782   1.184   3.438 -0.0645 -0.4410  0.1980
 2077SOL    HW3 8382   2.690   1.157   3.321 -0.6567  1.1581  0.2836
 2077SOL    MW4 8383   2.704   1.161   3.407 -0.2527  0.0871  0.2718
 2078SOL     OW 8384   2.935   1.249   3.464  0.3672 -0.0551  0.8615
 2078SOL    HW2 8385   2.944   1.228   3.557  1.0008 -1.3029  0.5332
 2078SOL    HW3 8386   3.004   1.198   3.422 -0.2015  0.1671 -0.3477
 2078SOL    MW4 8387   2.945   1.240   3.471  0.3755 -0.1905  0.6585
 2079SOL     OW 8388   2.902   1.521   3.400 -0.3968  0.3353 -0.4423
 2079SOL    HW2 8389   2.821   1.546   3.444  0.4955 -0.4823  1.7044
 2079SOL    HW3 8390   2.918   1.431   3.428  0.9167  0.2668 -1.3681
 2079SOL    MW4 8391   2.894   1.512   3.409 -0.1056  0.2184 -0.2811
 2080SOL     OW 8392   2.686   1.652   3.547  0.4508  0.1648  0.4232
 2080SOL    HW2 8393   2.672   1.737   3.505  0.1412  0.2598  0.7148
 2080SOL    HW3 8394   2.605   1.604   3.532  0.3603  0.1776  0.8625
 2080SOL    MW4 8395   2.674   1.657   3.539  0.3982  0.1791  0.5200
 2081SOL     OW 8396   2.680   1.899   3.420 -0.2782 -0.3192  0.4753
 2081SOL    HW2 8397   2.616   1.963   3.453 -0.3950 -0.6486  0.8991
 2081SOL    HW3 8398   2.677   1.909   3.325  0.5549  1.1122  0.5907
 2081SOL    MW4 8399   2.671   1.909   3.412 -0.1838 -0.1739  0.5465
 2082SOL     OW 8400   2.913   2.031   3.493  0.0739  0.4803 -0.0713
 2082SOL    HW2 8401   2.906   2.051   3.586 -0.2508 -1.2082  0.2871
 2082SOL    HW3 8402   2.828   1.995   3.469  0.8836 -1.2494 -0.4617
 2082SOL    MW4 8403   2.901   2.029   3.502  0.1376  0.0293 -0.0753
 2083SOL     OW 8404   2.978   2.276   3.386 -0.2237  0.1295  0.3573
 2083SOL    HW2 8405   2.950   2.191   3.419  0.4996  0.3124  1.4729
 2083SOL    HW3 8406   2.911   2.337   3.415  1.1039  0.5087  2.7001
 2083SOL    MW4 8407   2.966   2.273   3.394  0.0470  0.2036  0.8137
 2084SOL     OW 8408   2.788   2.466   3.454  0.1068 -0.3813  0.4628
 2084SOL    HW2 8409   2.781   2.549   3.407 -0.7881 -0.4389  0.4792
 2084SOL    HW3 8410   2.803   2.491   3.545  1.5182 -0.2667  0.2097
 2084SOL    MW4 8411   2.789   2.480   3.460  0.1750 -0.3738  0.4315
 2085SOL     OW 8412   2.766   2.726   3.348  0.0817  0.3396  0.2952
 2085SOL    HW2 8413   2.692   2.769   3.391  0.0538  2.1582 -1.4818
 2085SOL    HW3 8414   2.843   2.773   3.380  0.2813 -0.0215  0.3500
 2085SOL    MW4 8415   2.767   2.738   3.358  0.1042  0.5322  0.0679
 2086SOL     OW 8416   2.990   2.865   3.436  0.7876 -0.0880 -0.2855
 2086SOL    HW2 8417   2.990   2.871   3.532 -1.6679  0.4458 -0.2840
 2086SOL    HW3 8418   2.959   2.951   3.407  0.6920 -0.5368 -1.5363
 2086SOL    MW4 8419   2.986   2.877   3.445  0.4511 -0.0768 -0.4504
 2087SOL     OW 8420   2.888   3.109   3.354  0.0817  0.5399  0.2159
 2087SOL    HW2 8421   2.956   3.150   3.407  0.0793  0.6251  0.1524
 2087SOL    HW3 8422   2.920   3.116   3.264  0.2167  0.1426  0.2331
 2087SOL    MW4 8423   2.901   3.115   3.349  0.0992  0.4985  0.2098
 2088SOL     OW 8424   2.672   3.251   3.437  0.6028 -0.4880  0.6090
 2088SOL    HW2 8425   2.677   3.261   3.532  0.6246 -1.0763  0.6726
 2088SOL    HW3 8426   2.742   3.190   3.416  1.6078  0.8622  0.0196
 2088SOL    MW4 8427   2.682   3.244   3.447  0.7381 -0.3877  0.5395
 2089SOL     OW 8428   2.740   3.495   3.361 -0.0107 -0.3690 -0.4012
 2089SOL    HW2 8429   2.711   3.406   3.381 -0.8068  0.1807  0.9450
 2089SOL    HW3 8430   2.670   3.551   3.393  0.1464  0.7312 -1.8952
 2089SOL    MW4 8431   2.727   3.491   3.368 -0.0951 -0.1512 -0.4206
 2090SOL     OW 8432   2.990   3.594   3.489  0.3736  0.7159 -0.3827
 2090SOL    HW2 8433   2.974   3.683   3.459 -0.7935  0.6201 -0.0397
 2090SOL    HW3 8434   2.915   3.543   3.458  1.2243 -0.2409 -0.9320
 2090SOL    MW4 8435   2.978   3.599   3.481  0.3316  0.5770 -0.4101
 2091SOL     OW 8436   2.959   3.852   3.395  0.1753 -0.2803 -0.2950
 2091SOL    HW2 8437   3.035   3.897   3.432  0.8069  0.4259 -2.3586
 2091SOL    HW3 8438   2.883   3.901   3.427  0.7408  0.7296 -0.4797
 2091SOL    MW4 8439   2.959   3.864   3.404  0.3331 -0.0539 -0.5918
 2092SOL     OW 8440   2.725   4.007   3.456 -0.1919 -0.5370  0.3594
 2092SOL    HW2 8441   2.726   4.007   3.552  1.5980  3.1649  0.4132
 2092SOL    HW3 8442   2.707   4.097   3.432 -0.4110 -1.3730 -2.8296
 2092SOL    MW4 8443   2.723   4.019   3.465  0.0153 -0.1588 -0.0541
 2093SOL     OW 8444   2.716   4.265   3.409  0.6256  0.3009  0.5146
 2093SOL    HW2 8445   2.798   4.306   3.439  0.1676  0.8554  1.0185
 2093SOL    HW3 8446   2.649   4.298   3.470 -0.1439  0.6636 -0.5191
 2093SOL    MW4 8447   2.718   4.275   3.421  0.4635  0.4220  0.4447
 2094SOL     OW 8448   2.927   4.422   3.499 -0.7646  0.2742  0.4866
 2094SOL    HW2 8449   2.913   4.423   3.593 -0.3778  1.9917  0.5492
 2094SOL    HW3 8450   2.923   4.514   3.473 -1.1984 -0.2094 -1.2249
 2094SOL    MW4 8451   2.925   4.435   3.508 -0.7706  0.4368  0.2692
 2095SOL     OW 8452   3.376   0.057   3.443  0.3100 -0.3760  0.2081
 2095SOL    HW2 8453   3.299   0.102   3.477  1.1186  0.5366  0.8607
 2095SOL    HW3 8454   3.362   0.054   3.348  0.6428  2.0650  0.0537
 2095SOL    MW4 8455   3.364   0.063   3.435  0.4604  0.0665  0.2737
 2096SOL     OW 8456   3.133   0.180   3.541 -0.3012 -0.0038 -0.3359
 2096SOL    HW2 8457   3.154   0.255   3.485  2.3981 -0.9782 -0.7098
 2096SOL    HW3 8458   3.068   0.130   3.492  0.8389  0.0073 -1.9061
 2096SOL    MW4 8459   3.128   0.184   3.527  0.2053 -0.1309 -0.5922
 2097SOL     OW 8460   3.129   0.412   3.412 -0.2169 -0.1823  0.1970
 2097SOL    HW2 8461   3.044   0.446   3.439  0.5169  1.6417  0.3325
 2097SOL    HW3 8462   3.129   0.420   3.316 -0.6989 -1.4205  0.0928
 2097SOL    MW4 8463   3.118   0.418   3.403 -0.1838 -0.1051  0.2010
 2098SOL     OW 8464   3.400   0.480   3.482  0.0941 -0.1010  0.2244
 2098SOL    HW2 8465   3.388   0.493   3.576 -0.1954 -2.0377  0.4798
 2098SOL    HW3 8466   3.314   0.450   3.451 -0.0933  1.4583 -0.8466
 2098SOL    MW4 8467   3.387   0.477   3.490  0.0312 -0.1508  0.1166
 2099SOL     OW 8468   3.377   0.758   3.360  0.2989  0.0511  0.2936
 2099SOL    HW2 8469   3.460   0.798   3.387 -0.0171  0.3073  0.8925
 2099SOL    HW3 8470   3.389   0.665   3.376  1.8668 -0.4266 -3.2139
 2099SOL    MW4 8471   3.390   0.751   3.366  0.4642  0.0218 -0.0904
 2100SOL     OW 8472   3.146   0.878   3.467  0.0099  0.4553 -0.0518
 2100SOL    HW2 8473   3.145   0.969   3.436 -0.7541  0.9420  1.3273
 2100SOL    HW3 8474   3.224   0.840   3.428  0.3345  1.7035 -0.6583
 2100SOL    MW4 8475   3.156   0.885   3.458 -0.0477  0.6842  0.0501
 2101SOL     OW 8476   3.148   1.135   3.349 -0.2566  0.0321  0.5692
 2101SOL    HW2 8477   3.198   1.207   3.386  0.4225 -0.4542  0.6049
 2101SOL    HW3 8478   3.139   1.156   3.256 -0.4881  0.4040  0.6750
 2101SOL    MW4 8479   3.153   1.147   3.342 -0.1974  0.0170  0.5879
 2102SOL     OW 8480   3.323   1.302   3.493 -0.0352  0.3610 -0.0908
 2102SOL    HW2 8481   3.393   1.246   3.460  0.8759  1.0021  0.7330
 2102SOL    HW3 8482   3.346   1.390   3.463 -1.1033  0.4218 -0.7980
 2102SOL    MW4 8483   3.335   1.306   3.484 -0.0558  0.4536 -0.0751
 2103SOL     OW 8484   3.388   1.559   3.401 -0.6519  0.1203 -0.0153
 2103SOL    HW2 8485   3.454   1.608   3.450 -0.3023  0.9764 -1.3189
 2103SOL    HW3 8486   3.304   1.589   3.435 -0.4445  1.8411 -0.9895
 2103SOL    MW4 8487   3.386   1.569   3.412 -0.5784  0.4601 -0.3161
 2104SOL     OW 8488   3.147   1.638   3.490  0.4525  0.1310  0.5389
 2104SOL    HW2 8489   3.147   1.732   3.475  0.3584  0.1601  0.7150
 2104SOL    HW3 8490   3.061   1.609   3.460  0.9614 -0.1023 -0.7417
 2104SOL    MW4 8491   3.136   1.647   3.484  0.5074  0.1041  0.3934
 2105SOL     OW 8492   3.164   1.920   3.413  0.3416  0.6260  0.1609
 2105SOL    HW2 8493   3.080   1.962   3.433 -1.1009 -2.8033  1.6638
 2105SOL    HW3 8494   3.169   1.922   3.318 -2.5444 -1.0058 -0.1106
 2105SOL    MW4 8495   3.153   1.926   3.403 -0.2291 -0.0417  0.3233
 2106SOL     OW 8496   3.392   2.049   3.497  0.0794  0.2111  0.2787
 2106SOL    HW2 8497   3.386   2.131   3.449 -0.2514  1.1694  1.9146
 2106SOL    HW3 8498   3.317   1.998   3.468 -1.2031  1.5505  1.1777
 2106SOL    MW4 8499   3.381   2.053   3.487 -0.1335  0.5145  0.6132
 2107SOL     OW 8500   3.363   2.292   3.352 -0.3593 -0.0695 -0.1151
 2107SOL    HW2 8501   3.444   2.340   3.366  0.1933 -1.2294  0.6964
 2107SOL    HW3 8502   3.298   2.338   3.405 -0.2838  0.9825 -0.9243
 2107SOL    MW4 8503   3.365   2.304   3.361 -0.2766 -0.0837 -0.1149
 2108SOL     OW 8504   3.197   2.420   3.525 -0.4061 -0.2702 -0.5376
 2108SOL    HW2 8505   3.211   2.511   3.498  1.7845 -0.2020  0.6841
 2108SOL    HW3 8506   3.116   2.394   3.482 -1.4181  2.4766 -0.3841
 2108SOL    MW4 8507   3.188   2.429   3.516 -0.2508  0.1013 -0.3560
 2109SOL     OW 8508   3.206   2.676   3.402  0.4665  0.1191  0.2408
 2109SOL    HW2 8509   3.276   2.733   3.433  1.2852  1.0933 -3.1395
 2109SOL    HW3 8510   3.126   2.727   3.415  0.9310  1.0249 -0.3912
 2109SOL    MW4 8511   3.204   2.690   3.408  0.6359  0.3672 -0.2887
 2110SOL     OW 8512   3.404   2.860   3.477  0.3268 -0.1983 -0.4401
 2110SOL    HW2 8513   3.479   2.817   3.436  0.5537 -0.4781  0.2538
 2110SOL    HW3 8514   3.392   2.941   3.428  1.3811  0.0700 -0.2541
 2110SOL    MW4 8515   3.412   2.865   3.465  0.4959 -0.1998 -0.3240
 2111SOL     OW 8516   3.353   3.087   3.335 -0.0696 -0.0654  0.3581
 2111SOL    HW2 8517   3.410   3.156   3.367 -0.0660  0.2734 -0.3817
 2111SOL    HW3 8518   3.265   3.113   3.363 -0.1938  0.7251 -0.7284
 2111SOL    MW4 8519   3.349   3.099   3.343 -0.0856  0.0837  0.1171
 2112SOL     OW 8520   3.114   3.214   3.458 -0.4643  0.1940  0.0660
 2112SOL    HW2 8521   3.128   3.299   3.415  0.8629 -0.9860 -1.9250
 2112SOL    HW3 8522   3.118   3.234   3.552 -0.4918  2.3776 -0.3543
 2112SOL    MW4 8523   3.117   3.228   3.465 -0.2933  0.3264 -0.2520
 2113SOL     OW 8524   3.178   3.450   3.354  0.1880 -0.3214 -0.1436
 2113SOL    HW2 8525   3.125   3.516   3.398  0.8744 -0.1424  0.4342
 2113SOL    HW3 8526   3.155   3.458   3.262 -0.6871 -0.1606  0.0882
 2113SOL    MW4 8527   3.168   3.460   3.348  0.1631 -0.2763 -0.0370
 2114SOL     OW 8528   3.374   3.577   3.500  0.6234 -0.2077 -0.0128
 2114SOL    HW2 8529   3.367   3.670   3.481 -0.4219 -0.5881 -1.5788
 2114SOL    HW3 8530   3.303   3.537   3.450  1.0877 -1.8435  0.6139
 2114SOL    MW4 8531   3.364   3.584   3.491  0.5467 -0.4737 -0.1366
 2115SOL     OW 8532   3.390   3.852   3.432 -0.2142  0.1426  0.1716
 2115SOL    HW2 8533   3.466   3.909   3.445  0.7748 -1.2051  0.3730
 2115SOL    HW3 8534   3.316   3.903   3.464  0.6793  1.2699  0.4610
 2115SOL    MW4 8535   3.390   3.866   3.438  0.0341  0.1135  0.2363
 2116SOL     OW 8536   3.168   4.013   3.500 -0.0987  0.0371 -0.3937
 2116SOL    HW2 8537   3.161   4.016   3.595  1.6378  2.3065 -0.2836
 2116SOL    HW3 8538   3.157   4.104   3.472 -2.5526 -0.8571 -2.5584
 2116SOL    MW4 8539   3.166   4.026   3.509 -0.1934  0.2189 -0.6649
 2117SOL     OW 8540   3.129   4.277   3.405 -0.0932  0.0012  0.6356
 2117SOL    HW2 8541   3.207   4.323   3.437 -0.6245  2.3527 -1.2519
 2117SOL    HW3 8542   3.056   4.322   3.447 -0.5704  0.1649 -0.3481
 2117SOL    MW4 8543   3.130   4.289   3.415 -0.2263  0.3333  0.2565
 2118SOL     OW 8544   3.350   4.441   3.506 -0.5051  0.3840  0.1215
 2118SOL    HW2 8545   3.348   4.447   3.601  0.9526  0.3984  0.1716
 2118SOL    HW3 8546   3.358   4.531   3.476  0.6613  0.2695  0.0606
 2118SOL    MW4 8547   3.351   4.453   3.514 -0.1590  0.3710  0.1199
 2119SOL     OW 8548   3.818   4.635   3.417 -0.3627 -0.3859 -0.0196
 2119SOL    HW2 8549   3.748   4.690   3.452  0.1600  0.7918 -0.8056
 2119SOL    HW3 8550   3.806   4.636   3.322 -0.5631 -1.9311 -0.0345
 2119SOL    MW4 8551   3.808   4.642   3.409 -0.3202 -0.4344 -0.1254
 2120SOL     OW 8552   3.623   0.173   3.488 -0.3050  0.2954  0.1312
 2120SOL    HW2 8553   3.632   0.259   3.447  0.7203  0.1049 -0.0446
 2120SOL    HW3 8554   3.538   0.141   3.458 -0.5360  1.1024 -0.0735
 2120SOL    MW4 8555   3.613   0.180   3.479 -0.2005  0.3767  0.0811
 2121SOL     OW 8556   3.648   0.426   3.368  0.1066  0.8460  0.1526
 2121SOL    HW2 8557   3.715   0.478   3.412  0.2032  0.1453  0.8383
 2121SOL    HW3 8558   3.569   0.442   3.418 -0.4333  2.2964 -1.1250
 2121SOL    MW4 8559   3.647   0.435   3.380  0.0479  0.9449  0.0746
 2122SOL     OW 8560   3.851   0.537   3.505  0.1725  0.2989  0.1885
 2122SOL    HW2 8561   3.849   0.539   3.600  1.4893 -1.2160  0.2658
 2122SOL    HW3 8562   3.918   0.473   3.483 -0.2362  0.4895 -1.7641
 2122SOL    MW4 8563   3.859   0.529   3.514  0.2925  0.1242 -0.0589
 2123SOL     OW 8564   3.804   0.750   3.338  0.1639  0.2222  0.2331
 2123SOL    HW2 8565   3.875   0.812   3.351 -0.5456  0.9682  0.5976
 2123SOL    HW3 8566   3.823   0.677   3.397  2.0760 -0.8677 -1.6642
 2123SOL    MW4 8567   3.816   0.748   3.347  0.3223  0.1768  0.0308
 2124SOL     OW 8568   3.590   0.895   3.469  0.5454 -0.0098  0.3494
 2124SOL    HW2 8569   3.613   0.893   3.562  0.9897 -0.4707  0.2317
 2124SOL    HW3 8570   3.660   0.845   3.426  0.6954  0.7634 -0.3064
 2124SOL    MW4 8571   3.602   0.888   3.476  0.6239  0.0315  0.2472
 2125SOL     OW 8572   3.548   1.172   3.412 -0.0404 -0.2073  0.2277
 2125SOL    HW2 8573   3.556   1.082   3.445 -0.7182 -0.0228  0.9215
 2125SOL    HW3 8574   3.565   1.165   3.319  0.1882 -1.0203  0.3263
 2125SOL    MW4 8575   3.551   1.159   3.404 -0.0997 -0.2902  0.3324
 2126SOL     OW 8576   3.812   1.273   3.485 -0.0487  0.2793 -0.3854
 2126SOL    HW2 8577   3.817   1.247   3.577  1.7622  1.7944 -0.0159
 2126SOL    HW3 8578   3.728   1.238   3.454  0.3458 -2.1693  1.2182
 2126SOL    MW4 8579   3.802   1.265   3.493  0.2422  0.1562 -0.1249
 2127SOL     OW 8580   3.812   1.544   3.437 -0.2821 -0.3903 -0.4854
 2127SOL    HW2 8581   3.901   1.579   3.445 -0.8563  0.7497  1.3075
 2127SOL    HW3 8582   3.820   1.452   3.460  0.3558 -0.1829  0.1404
 2127SOL    MW4 8583   3.825   1.537   3.441 -0.2737 -0.2126 -0.1667
 2128SOL     OW 8584   3.598   1.707   3.531 -0.7918 -0.2055 -0.1418
 2128SOL    HW2 8585   3.601   1.784   3.474 -0.6766  0.4300  0.7236
 2128SOL    HW3 8586   3.670   1.652   3.500 -0.2156  0.5103 -0.0799
 2128SOL    MW4 8587   3.608   1.710   3.519 -0.7005 -0.0272 -0.0196
 2129SOL     OW 8588   3.610   1.940   3.352  0.2312  0.1087 -0.7594
 2129SOL    HW2 8589   3.682   1.992   3.388  0.4009 -0.9372  0.4524
 2129SOL    HW3 8590   3.531   1.978   3.389  0.2546  0.3941 -1.0020
 2129SOL    MW4 8591   3.609   1.952   3.361  0.2565  0.0083 -0.6316
 2130SOL     OW 8592   3.813   2.076   3.493 -0.1208 -0.4430  0.4272
 2130SOL    HW2 8593   3.803   2.079   3.588  1.5964  1.7881  0.5726
 2130SOL    HW3 8594   3.890   2.022   3.478 -0.5296 -0.9909  0.2840
 2130SOL    MW4 8595   3.822   2.069   3.503  0.0517 -0.2210  0.4270
 2131SOL     OW 8596   3.832   2.333   3.384  0.3855  0.5342  0.2735
 2131SOL    HW2 8597   3.920   2.356   3.414  0.7803  0.2776 -0.6517
 2131SOL    HW3 8598   3.815   2.248   3.425  1.0583  0.0244 -0.4867
 2131SOL    MW4 8599   3.841   2.325   3.394  0.5264  0.4332  0.0513
 2132SOL     OW 8600   3.590   2.447   3.457 -0.0410  0.0493 -0.2362
 2132SOL    HW2 8601   3.598   2.535   3.421 -0.5488  0.2090  0.0414
 2132SOL    HW3 8602   3.678   2.409   3.446 -0.2337  0.0319 -1.7994
 2132SOL    MW4 8603   3.603   2.454   3.451 -0.1335  0.0679 -0.4060
 2133SOL     OW 8604   3.623   2.720   3.348 -0.1125  0.3547 -0.1422
 2133SOL    HW2 8605   3.711   2.748   3.374  1.0828 -2.4972 -0.9003
 2133SOL    HW3 8606   3.630   2.704   3.254 -0.9687 -1.4735  0.0798
 2133SOL    MW4 8607   3.636   2.721   3.339 -0.0677 -0.2627 -0.2129
 2134SOL     OW 8608   3.856   2.826   3.450  0.2119  0.2584 -0.5509
 2134SOL    HW2 8609   3.821   2.819   3.539  0.3809  1.0296 -0.4230
 2134SOL    HW3 8610   3.832   2.914   3.422 -0.1027 -0.0851 -1.3815
 2134SOL    MW4 8611   3.848   2.836   3.458  0.1926  0.3150 -0.6437
 2135SOL     OW 8612   3.759   3.079   3.379 -0.1183  0.1056 -0.3170
 2135SOL    HW2 8613   3.844   3.114   3.405  0.5062 -0.7207 -1.2018
 2135SOL    HW3 8614   3.770   3.052   3.288 -0.9891 -1.0473 -0.1024
 2135SOL    MW4 8615   3.771   3.080   3.371 -0.1509 -0.1557 -0.4055
 2136SOL     OW 8616   3.550   3.230   3.445 -0.3419  0.2736  0.2362
 2136SOL    HW2 8617   3.564   3.320   3.415  0.2551 -0.2166 -1.0074
 2136SOL    HW3 8618   3.627   3.183   3.414 -0.4961 -0.5987  1.1724
 2136SOL    MW4 8619   3.562   3.236   3.437 -0.2837  0.0939  0.1957
 2137SOL     OW 8620   3.591   3.494   3.372 -0.3128 -0.0244  0.5619
 2137SOL    HW2 8621   3.511   3.524   3.415 -0.8481 -1.1867  0.3924
 2137SOL    HW3 8622   3.569   3.492   3.278 -0.3966 -1.2541  0.6006
 2137SOL    MW4 8623   3.578   3.498   3.365 -0.3943 -0.3397  0.5448
 2138SOL     OW 8624   3.805   3.632   3.455  0.6353  0.2689 -0.1798
 2138SOL    HW2 8625   3.809   3.615   3.549  0.3448 -2.0574 -0.5629
 2138SOL    HW3 8626   3.734   3.576   3.423  1.8458 -0.2446 -2.0576
 2138SOL    MW4 8627   3.796   3.623   3.463  0.7567 -0.1059 -0.4780
 2139SOL     OW 8628   3.820   3.878   3.347  0.1237 -0.2786 -0.2917
 2139SOL    HW2 8629   3.740   3.910   3.386  0.3549  0.8880 -0.7623
 2139SOL    HW3 8630   3.838   3.795   3.392 -1.4944 -0.6965 -0.4068
 2139SOL    MW4 8631   3.812   3.871   3.358 -0.0591 -0.1795 -0.3691
 2140SOL     OW 8632   3.621   3.994   3.489  0.4836  0.1269 -0.0486
 2140SOL    HW2 8633   3.589   4.001   3.579 -0.7731  0.8281 -0.5379
 2140SOL    HW3 8634   3.609   4.082   3.452 -1.1279 -0.7016 -1.5800
 2140SOL    MW4 8635   3.616   4.007   3.496  0.1054  0.1101 -0.3152
 2141SOL     OW 8636   3.551   4.260   3.422  0.2435  0.0681  0.0470
 2141SOL    HW2 8637   3.485   4.316   3.463  0.2187 -0.1155  0.2540
 2141SOL    HW3 8638   3.535   4.271   3.328 -0.6090 -0.6030  0.1085
 2141SOL    MW4 8639   3.540   4.269   3.415  0.1276 -0.0443  0.0823
 2142SOL     OW 8640   3.809   4.356   3.478 -0.4111  0.0804  0.2261
 2142SOL    HW2 8641   3.719   4.341   3.449  0.1429 -0.1577 -1.4318
 2142SOL    HW3 8642   3.825   4.449   3.459 -0.2734  0.0931  0.4006
 2142SOL    MW4 8643   3.800   4.367   3.472 -0.3197  0.0515  0.0300
 2143SOL     OW 8644   4.305   4.588   3.381 -0.4043 -0.3325 -0.2087
 2143SOL    HW2 8645   4.326   4.499   3.407  2.5487  0.2824 -0.3262
 2143SOL    HW3 8646   4.371   4.642   3.424 -1.2346  1.6405 -1.3439
 2143SOL    MW4 8647   4.316   4.584   3.390 -0.1245  0.0091 -0.3738
 2144SOL     OW 8648   4.075   0.072   3.456 -0.0880 -0.6617 -0.2896
 2144SOL    HW2 8649   4.152   0.018   3.446  0.5414  0.5592 -2.2237
 2144SOL    HW3 8650   4.001   0.013   3.442  0.2986 -2.4494  4.2045
 2144SOL    MW4 8651   4.075   0.057   3.453  0.0458 -0.7364  0.0482
 2145SOL     OW 8652   4.017   0.337   3.420 -0.1453  0.5637 -0.4702
 2145SOL    HW2 8653   4.035   0.245   3.439 -0.5195  0.6051  0.1216
 2145SOL    HW3 8654   4.001   0.339   3.326  0.0201  0.0468 -0.5139
 2145SOL    MW4 8655   4.017   0.325   3.410 -0.1731  0.5009 -0.3979
 2146SOL     OW 8656   4.254   0.471   3.464  0.1515  0.5701  0.4426
 2146SOL    HW2 8657   4.239   0.559   3.430  0.8063  0.0317 -1.3072
 2146SOL    HW3 8658   4.171   0.426   3.454  0.7975 -0.1397 -2.2503
 2146SOL    MW4 8659   4.241   0.476   3.458  0.3228  0.4054 -0.1435
 2147SOL     OW 8660   4.243   0.792   3.413  0.2503  0.4574 -0.2328
 2147SOL    HW2 8661   4.328   0.810   3.453  0.3226 -0.7193  0.1466
 2147SOL    HW3 8662   4.262   0.776   3.321  0.3103  1.2462 -0.3611
 2147SOL    MW4 8663   4.257   0.792   3.406  0.2675  0.4061 -0.1996
 2148SOL     OW 8664   4.007   0.919   3.437 -0.2782 -0.0058  0.2571
 2148SOL    HW2 8665   4.023   1.011   3.414 -0.5012  0.0345  0.2639
 2148SOL    HW3 8666   4.094   0.879   3.436 -0.1867  0.1919  0.1917
 2148SOL    MW4 8667   4.021   0.926   3.434 -0.2952  0.0256  0.2491
 2149SOL     OW 8668   4.060   1.190   3.351 -0.6436 -0.3093 -0.0566
 2149SOL    HW2 8669   4.127   1.227   3.408  0.1350 -0.7686 -0.6735
 2149SOL    HW3 8670   3.979   1.234   3.378 -0.2053 -0.1910  1.0919
 2149SOL    MW4 8671   4.058   1.200   3.363 -0.4826 -0.3544  0.0136
 2150SOL     OW 8672   4.269   1.313   3.513  0.1750  0.0771 -0.4146
 2150SOL    HW2 8673   4.280   1.395   3.464 -0.8438 -0.7218 -2.0298
 2150SOL    HW3 8674   4.326   1.251   3.467 -1.5201 -0.9224 -1.1955
 2150SOL    MW4 8675   4.278   1.316   3.500 -0.1831 -0.1603 -0.7308
 2151SOL     OW 8676   4.294   1.535   3.366 -0.0125 -0.1240  0.0673
 2151SOL    HW2 8677   4.217   1.580   3.401  0.4101  1.6815 -1.2754
 2151SOL    HW3 8678   4.285   1.543   3.271  2.0453  0.4389 -0.0952
 2151SOL    MW4 8679   4.283   1.542   3.358  0.3147  0.1885 -0.1314
 2152SOL     OW 8680   4.065   1.645   3.460  0.5353  0.2458 -0.8011
 2152SOL    HW2 8681   4.052   1.638   3.554  1.4230 -1.7132 -0.7959
 2152SOL    HW3 8682   4.047   1.737   3.439 -2.5642  0.0706  0.8134
 2152SOL    MW4 8683   4.061   1.656   3.469  0.2441 -0.0358 -0.5875
 2153SOL     OW 8684   4.041   1.938   3.410 -0.0117 -0.6279  0.3939
 2153SOL    HW2 8685   4.104   1.997   3.451 -0.2397 -0.1276  0.0240
 2153SOL    HW3 8686   4.075   1.925   3.322 -1.1583  0.7474 -0.2690
 2153SOL    MW4 8687   4.054   1.944   3.404 -0.1926 -0.3804  0.2577
 2154SOL     OW 8688   4.275   2.064   3.472 -0.0021  0.0297 -0.5317
 2154SOL    HW2 8689   4.305   2.147   3.434  0.6355  0.0209 -0.0729
 2154SOL    HW3 8690   4.335   1.998   3.436  0.9353  0.0978  0.8728
 2154SOL    MW4 8691   4.287   2.066   3.462  0.2065  0.0374 -0.2859
 2155SOL     OW 8692   4.313   2.298   3.343  0.0097  0.1080  0.0842
 2155SOL    HW2 8693   4.234   2.342   3.374 -0.7908 -1.1336 -0.1871
 2155SOL    HW3 8694   4.300   2.290   3.248  0.5626  0.0825  0.0069
 2155SOL    MW4 8695   4.301   2.303   3.335 -0.0234 -0.0591  0.0379
 2156SOL     OW 8696   4.099   2.410   3.464  0.2395 -0.4066 -0.4672
 2156SOL    HW2 8697   4.084   2.399   3.558 -0.6213 -1.3887 -0.7061
 2156SOL    HW3 8698   4.092   2.504   3.450 -0.4886 -0.3327  0.3222
 2156SOL    MW4 8699   4.096   2.421   3.474  0.0300 -0.5262 -0.3948
 2157SOL     OW 8700   4.096   2.681   3.403 -0.1100 -0.3151  0.1780
 2157SOL    HW2 8701   4.170   2.738   3.427 -0.5644  0.7063 -0.8098
 2157SOL    HW3 8702   4.019   2.736   3.417 -0.5312 -0.5506 -1.1757
 2157SOL    MW4 8703   4.096   2.696   3.408 -0.2260 -0.2112 -0.1309
 2158SOL     OW 8704   4.320   2.851   3.499 -0.1796  0.3462 -0.0157
 2158SOL    HW2 8705   4.313   2.822   3.590  0.4265  2.0955  0.6055
 2158SOL    HW3 8706   4.404   2.815   3.470 -0.5511 -0.5429 -0.0295
 2158SOL    MW4 8707   4.330   2.842   3.507 -0.1488  0.4597  0.0641
 2159SOL     OW 8708   4.267   3.109   3.377 -0.1158  0.5416  0.2199
 2159SOL    HW2 8709   4.277   3.018   3.405 -2.0682  0.4724  0.7842
 2159SOL    HW3 8710   4.246   3.103   3.284  1.9507  0.5483 -0.2716
 2159SOL    MW4 8711   4.265   3.096   3.368 -0.1006  0.5333  0.2296
 2160SOL     OW 8712   4.010   3.203   3.484 -0.3365  0.1424  0.2412
 2160SOL    HW2 8713   4.013   3.298   3.472 -0.8467  0.2437  0.8812
 2160SOL    HW3 8714   4.095   3.172   3.452  0.2094  0.9137  0.9149
 2160SOL    MW4 8715   4.022   3.211   3.478 -0.3314  0.2575  0.4146
 2161SOL     OW 8716   4.052   3.492   3.369  0.4121 -0.0722 -0.4216
 2161SOL    HW2 8717   4.124   3.504   3.431  0.2602 -1.8829  0.1541
 2161SOL    HW3 8718   3.981   3.546   3.405  0.8948  0.2637  0.0357
 2161SOL    MW4 8719   4.052   3.501   3.382  0.4563 -0.2668 -0.2854
 2162SOL     OW 8720   4.279   3.598   3.545  0.0472 -0.0375 -0.8050
 2162SOL    HW2 8721   4.265   3.597   3.640  0.7136  0.2254 -0.7035
 2162SOL    HW3 8722   4.276   3.691   3.522 -0.4688 -0.1244 -1.0969
 2162SOL    MW4 8723   4.277   3.610   3.555  0.0677 -0.0141 -0.8304
 2163SOL     OW 8724   4.244   3.860   3.409 -0.4883 -0.3968  0.1830
 2163SOL    HW2 8725   4.334   3.889   3.426 -0.5609 -0.3852  0.5617
 2163SOL    HW3 8726   4.242   3.843   3.315 -0.8320  2.1566 -0.3118
 2163SOL    MW4 8727   4.256   3.861   3.399 -0.5431 -0.0584  0.1678
 2164SOL     OW 8728   4.017   4.010   3.494 -0.3911 -0.3518  0.2971
 2164SOL    HW2 8729   4.097   3.961   3.477 -0.3439 -0.8616  1.9307
 2164SOL    HW3 8730   3.950   3.967   3.440  0.0465 -1.0551  0.3095
 2164SOL    MW4 8731   4.019   3.998   3.485 -0.3271 -0.5114  0.5140
 2165SOL     OW 8732   4.061   4.258   3.394  0.0131  0.2875 -0.2599
 2165SOL    HW2 8733   4.048   4.165   3.416  1.1052 -0.0153 -0.8727
 2165SOL    HW3 8734   3.982   4.301   3.426 -0.4060 -0.8248  0.2329
 2165SOL    MW4 8735   4.049   4.251   3.401  0.1016  0.1006 -0.2756
 2166SOL     OW 8736   4.293   4.339   3.502 -0.4667  0.0887 -0.5775
 2166SOL    HW2 8737   4.279   4.366   3.592 -0.1706  1.3258 -0.8963
 2166SOL    HW3 8738   4.206   4.319   3.468 -0.5514 -0.6170  0.0528
 2166SOL    MW4 8739   4.280   4.340   3.509 -0.4392  0.1588 -0.5364
 2167SOL     OW 8740   0.219   4.622   3.885  0.2196 -0.3204  0.3910
 2167SOL    HW2 8741   0.223   4.616   3.980  0.3802 -0.0614  0.4012
 2167SOL    HW3 8742   0.138   4.669   3.867  0.1073 -0.5119  0.3932
 2167SOL    MW4 8743   0.209   4.628   3.895  0.2259 -0.3114  0.3924
 2168SOL     OW 8744   4.463   0.099   3.811 -0.2147  0.4326  0.6710
 2168SOL    HW2 8745   4.460   0.193   3.831  1.9092  0.2992  1.8059
 2168SOL    HW3 8746   4.482   0.096   3.717 -3.3961  1.1006 -0.0313
 2168SOL    MW4 8747   4.465   0.111   3.801 -0.3543  0.5032  0.7281
 2169SOL     OW 8748   4.440   0.370   3.900 -0.0343  0.1763 -0.3670
 2169SOL    HW2 8749   4.364   0.409   3.857 -0.1200  1.5788  1.0150
 2169SOL    HW3 8750   4.515   0.412   3.858 -0.0356 -0.3730 -0.9354
 2169SOL    MW4 8751   4.440   0.381   3.889 -0.0458  0.2889 -0.2594
 2170SOL     OW 8752   0.164   0.498   3.758  0.1531  0.2181 -0.0849
 2170SOL    HW2 8753   0.153   0.588   3.789 -0.5863  0.5658 -1.3554
 2170SOL    HW3 8754   0.143   0.502   3.665  2.2078 -0.8485 -0.6254
 2170SOL    MW4 8755   0.160   0.511   3.750  0.3266  0.1232 -0.3238
 2171SOL     OW 8756   0.241   0.742   3.885 -0.2749 -0.0007  0.2637
 2171SOL    HW2 8757   0.255   0.728   3.979  0.6308 -0.0218  0.1298
 2171SOL    HW3 8758   0.157   0.788   3.880 -1.3955 -1.9161  0.9498
 2171SOL    MW4 8759   0.232   0.746   3.897 -0.3033 -0.2562  0.3364
 2172SOL     OW 8760   4.464   0.882   3.783  0.2049  0.8319  0.3392
 2172SOL    HW2 8761   4.387   0.840   3.820  0.0224  1.8046  1.0612
 2172SOL    HW3 8762   4.467   0.969   3.823  1.5127  0.9081  0.1092
 2172SOL    MW4 8763   4.455   0.888   3.793  0.3529  0.9703  0.4044
 2173SOL     OW 8764   0.004   1.132   3.864  0.3325 -0.2910 -0.0157
 2173SOL    HW2 8765  -0.062   1.194   3.835 -0.4349 -0.3943  1.4447
 2173SOL    HW3 8766   0.082   1.155   3.814 -0.5426  0.4399 -1.0698
 2173SOL    MW4 8767   0.006   1.143   3.854  0.1158 -0.2083  0.0379
 2174SOL     OW 8768   0.238   1.240   3.759 -0.6063  0.0960 -0.9996
 2174SOL    HW2 8769   0.228   1.332   3.782  0.3510 -0.0357 -0.0485
 2174SOL    HW3 8770   0.232   1.239   3.663  0.5516  1.2929 -1.0910
 2174SOL    MW4 8771   0.236   1.252   3.749 -0.3273  0.2366 -0.8864
 2175SOL     OW 8772   0.173   1.495   3.835  0.1878 -0.1371 -0.1173
 2175SOL    HW2 8773   0.165   1.501   3.931  1.8611  0.1591  0.0228
 2175SOL    HW3 8774   0.103   1.552   3.802  0.7675  1.2470  0.9708
 2175SOL    MW4 8775   0.162   1.503   3.844  0.4851  0.0846  0.0448
 2176SOL     OW 8776   4.466   1.662   3.773  0.3457  0.3250 -0.3107
 2176SOL    HW2 8777   4.491   1.751   3.797  1.0117 -0.5628  2.4325
 2176SOL    HW3 8778   4.491   1.654   3.681  1.8504  2.4043 -0.1139
 2176SOL    MW4 8779   4.472   1.673   3.764  0.6323  0.4821  0.0770
 2177SOL     OW 8780   0.038   1.929   3.818 -0.2360  0.2798  0.1732
 2177SOL    HW2 8781   0.031   1.914   3.913 -1.3909 -2.2876 -0.2991
 2177SOL    HW3 8782  -0.047   1.965   3.793  0.1284  1.1204  0.1246
 2177SOL    MW4 8783   0.026   1.932   3.828 -0.3403  0.0519  0.1042
 2178SOL     OW 8784   0.262   2.085   3.762 -0.1547 -0.1339 -0.2854
 2178SOL    HW2 8785   0.247   2.164   3.813  0.6567  0.6845 -1.3169
 2178SOL    HW3 8786   0.185   2.030   3.780 -0.2379  0.4703  1.1955
 2178SOL    MW4 8787   0.250   2.088   3.771 -0.0586  0.0539 -0.2260
 2179SOL     OW 8788   0.245   2.330   3.886 -0.0252  0.0330  0.1712
 2179SOL    HW2 8789   0.231   2.338   3.980  0.6466  0.1410  0.2670
 2179SOL    HW3 8790   0.165   2.363   3.846  0.8708  2.8813  0.6332
 2179SOL    MW4 8791   0.233   2.335   3.893  0.1817  0.4230  0.2446
 2180SOL     OW 8792   0.010   2.409   3.755  0.2734 -0.1384  0.0175
 2180SOL    HW2 8793  -0.064   2.354   3.782 -0.7970 -0.0887 -2.7375
 2180SOL    HW3 8794  -0.003   2.491   3.802 -0.4337 -0.7509  0.9038
 2180SOL    MW4 8795  -0.001   2.412   3.765  0.0386 -0.2127 -0.2291
 2181SOL     OW 8796   0.012   2.656   3.884  0.3572  0.2230  0.2582
 2181SOL    HW2 8797  -0.023   2.687   3.968 -0.8763 -2.1310  0.6657
 2181SOL    HW3 8798   0.074   2.724   3.857  0.7546  1.0261  3.0486
 2181SOL    MW4 8799   0.015   2.669   3.892  0.2470  0.0184  0.6802
 2182SOL     OW 8800   0.193   2.844   3.784 -0.1787 -0.1880 -0.3233
 2182SOL    HW2 8801   0.273   2.806   3.819 -1.9813 -4.9667 -1.1319
 2182SOL    HW3 8802   0.210   2.853   3.690 -0.1335  0.0640 -0.2920
 2182SOL    MW4 8803   0.206   2.840   3.777 -0.4105 -0.7854 -0.4258
 2183SOL     OW 8804   0.225   3.105   3.849  0.3021 -0.5758 -0.2951
 2183SOL    HW2 8805   0.228   3.103   3.944 -2.0745 -0.9510 -0.2020
 2183SOL    HW3 8806   0.227   3.013   3.823 -0.2460 -0.5232 -0.5426
 2183SOL    MW4 8807   0.226   3.093   3.858 -0.0838 -0.6185 -0.3157
 2184SOL     OW 8808   4.476   3.223   3.766  0.5532 -0.3854 -0.0047
 2184SOL    HW2 8809   4.555   3.180   3.798  0.5602 -1.2951 -1.1821
 2184SOL    HW3 8810   4.490   3.230   3.671 -0.8382 -0.7009 -0.2408
 2184SOL    MW4 8811   4.489   3.218   3.758  0.3710 -0.5472 -0.1915
 2185SOL     OW 8812   4.481   3.469   3.916  0.0192  0.4591 -0.3805
 2185SOL    HW2 8813   4.565   3.508   3.893  0.2002  0.6306  0.5373
 2185SOL    HW3 8814   4.478   3.388   3.866  1.3763 -0.2523  0.6264
 2185SOL    MW4 8815   4.492   3.463   3.907  0.2227  0.3877 -0.1268
 2186SOL     OW 8816   0.213   3.602   3.811  0.5325  0.1472 -0.2995
 2186SOL    HW2 8817   0.302   3.572   3.829  1.0172  1.9464  0.4410
 2186SOL    HW3 8818   0.207   3.686   3.856 -1.0131  0.8030 -1.6875
 2186SOL    MW4 8819   0.224   3.609   3.819  0.3925  0.4711 -0.3848
 2187SOL     OW 8820   0.211   3.859   3.910  0.0157 -0.1112 -0.2937
 2187SOL    HW2 8821   0.215   3.880   4.004 -0.4140 -0.2801 -0.2350
 2187SOL    HW3 8822   0.284   3.907   3.872  0.6222 -0.6016  0.2316
 2187SOL    MW4 8823   0.221   3.868   3.918  0.0390 -0.1981 -0.2165
 2188SOL     OW 8824   4.479   3.966   3.769 -0.4934 -0.0303 -0.3545
 2188SOL    HW2 8825   4.405   3.920   3.809 -0.5495  2.5181  2.6033
 2188SOL    HW3 8826   4.556   3.932   3.815 -0.4056  1.6493  0.7918
 2188SOL    MW4 8827   4.479   3.955   3.780 -0.4892  0.5279  0.1872
 2189SOL     OW 8828   4.469   4.249   3.864  0.0670  0.2376 -0.0181
 2189SOL    HW2 8829   4.551   4.284   3.829  1.7349 -1.4877  1.9997
 2189SOL    HW3 8830   4.462   4.162   3.824 -0.2482 -0.0167  0.5940
 2189SOL    MW4 8831   4.479   4.242   3.854  0.2456 -0.0234  0.3293
 2190SOL     OW 8832   0.212   4.357   3.767 -0.3691 -0.2829  0.0229
 2190SOL    HW2 8833   0.277   4.312   3.821 -0.1061  0.8510  0.6706
 2190SOL    HW3 8834   0.211   4.447   3.800 -0.9094  0.1858 -1.2154
 2190SOL    MW4 8835   0.221   4.363   3.779 -0.4057 -0.0715 -0.0551
 2191SOL     OW 8836   0.670   4.608   3.845  0.1277 -0.4066  0.0545
 2191SOL    HW2 8837   0.667   4.515   3.820  0.5839 -0.7280  1.1505
 2191SOL    HW3 8838   0.584   4.642   3.821 -0.4321 -1.3851  0.6266
 2191SOL    MW4 8839   0.658   4.600   3.839  0.1140 -0.5779  0.2744
 2192SOL     OW 8840   0.442   0.072   3.779 -0.4282 -0.0205  0.7026
 2192SOL    HW2 8841   0.450   0.166   3.793 -0.5613  0.0110  0.5678
 2192SOL    HW3 8842   0.362   0.047   3.826 -0.4455 -0.0499  0.6574
 2192SOL    MW4 8843   0.432   0.081   3.787 -0.4481 -0.0202  0.6788
 2193SOL     OW 8844   0.410   0.362   3.832  0.3742  0.2052  0.1408
 2193SOL    HW2 8845   0.481   0.410   3.789  1.0815 -1.9081 -1.1135
 2193SOL    HW3 8846   0.330   0.402   3.797  0.9508  0.8545 -0.4577
 2193SOL    MW4 8847   0.409   0.374   3.822  0.5436  0.0121 -0.1037
 2194SOL     OW 8848   0.635   0.493   3.684  0.3020 -0.1736  0.2872
 2194SOL    HW2 8849   0.709   0.447   3.723  1.0422  1.6041  1.0507
 2194SOL    HW3 8850   0.637   0.580   3.725 -1.4046  0.3403 -0.6740
 2194SOL    MW4 8851   0.645   0.498   3.695  0.1745  0.1287  0.2613
 2195SOL     OW 8852   0.683   0.731   3.805 -0.1203  0.0577 -0.0503
 2195SOL    HW2 8853   0.752   0.794   3.786  0.0677 -0.1185  0.0591
 2195SOL    HW3 8854   0.603   0.784   3.811  0.1475  0.3672  0.7440
 2195SOL    MW4 8855   0.681   0.746   3.803 -0.0602  0.0753  0.0689
 2196SOL     OW 8856   0.448   0.862   3.767 -0.7363 -0.5199  0.2323
 2196SOL    HW2 8857   0.444   0.949   3.806  0.9910 -0.4069  0.1969
 2196SOL    HW3 8858   0.378   0.813   3.809 -1.0552  0.5953  0.9999
 2196SOL    MW4 8859   0.438   0.867   3.777 -0.5505 -0.3578  0.3290
 2197SOL     OW 8860   0.481   1.135   3.855 -0.3278 -0.2441 -0.2644
 2197SOL    HW2 8861   0.552   1.180   3.809  0.5241 -1.1558  0.1219
 2197SOL    HW3 8862   0.401   1.174   3.821  0.3377  0.0639 -1.4983
 2197SOL    MW4 8863   0.480   1.146   3.844 -0.1276 -0.3237 -0.3762
 2198SOL     OW 8864   0.673   1.309   3.738  0.4261 -0.0810 -0.1888
 2198SOL    HW2 8865   0.746   1.261   3.778  0.0703  0.1568  0.7553
 2198SOL    HW3 8866   0.669   1.275   3.649  0.0063 -2.0487  0.5381
 2198SOL    MW4 8867   0.682   1.298   3.732  0.3238 -0.3091  0.0315
 2199SOL     OW 8868   0.650   1.542   3.862  0.3733 -0.1880 -0.7270
 2199SOL    HW2 8869   0.736   1.576   3.837  2.1143 -2.2975  2.0916
 2199SOL    HW3 8870   0.649   1.453   3.827 -0.8978 -0.0153 -1.1506
 2199SOL    MW4 8871   0.662   1.535   3.854  0.4353 -0.4436 -0.4110
 2200SOL     OW 8872   0.416   1.627   3.741  0.1002  0.0917 -0.4474
 2200SOL    HW2 8873   0.494   1.607   3.793 -0.4584  1.9691  1.2075
 2200SOL    HW3 8874   0.346   1.577   3.783 -0.3123  1.4541  0.5436
 2200SOL    MW4 8875   0.417   1.618   3.754 -0.0279  0.5192 -0.0982
 2201SOL     OW 8876   0.457   1.915   3.832 -0.1416  0.2271  0.4033
 2201SOL    HW2 8877   0.429   1.829   3.800 -1.3825 -0.0651  2.1767
 2201SOL    HW3 8878   0.390   1.975   3.799  0.3486  0.4063 -0.2612
 2201SOL    MW4 8879   0.444   1.912   3.824 -0.2407  0.2123  0.5498
 2202SOL     OW 8880   0.666   2.046   3.734 -0.4969  0.1115  0.4265
 2202SOL    HW2 8881   0.652   2.131   3.775  1.1393 -0.2560  1.7973
 2202SOL    HW3 8882   0.604   1.988   3.777 -0.6841  0.3114  0.4299
 2202SOL    MW4 8883   0.656   2.050   3.745 -0.3057  0.0896  0.6077
 2203SOL     OW 8884   0.646   2.310   3.839  0.1878  0.1334  0.1788
 2203SOL    HW2 8885   0.722   2.364   3.820  0.3698 -0.4478 -0.7965
 2203SOL    HW3 8886   0.571   2.362   3.809  0.1851  0.7511  1.2436
 2203SOL    MW4 8887   0.646   2.324   3.833  0.2115  0.1380  0.1905
 2204SOL     OW 8888   0.432   2.465   3.731  0.1088 -0.4328  0.1595
 2204SOL    HW2 8889   0.370   2.415   3.783 -0.0655  0.2586  0.6365
 2204SOL    HW3 8890   0.410   2.446   3.640 -0.6764 -0.3496  0.3283
 2204SOL    MW4 8891   0.421   2.456   3.726 -0.0178 -0.3307  0.2449
 2205SOL     OW 8892   0.465   2.739   3.836 -0.1735 -0.0596  0.3294
 2205SOL    HW2 8893   0.540   2.788   3.803 -0.7088 -0.0194 -0.8487
 2205SOL    HW3 8894   0.468   2.656   3.788 -0.4998 -0.3186  0.7562
 2205SOL    MW4 8895   0.475   2.734   3.825 -0.2872 -0.0885  0.2303
 2206SOL     OW 8896   0.719   2.815   3.721 -0.1427 -0.5019 -0.0303
 2206SOL    HW2 8897   0.801   2.782   3.760 -0.2635 -0.2187  0.4683
 2206SOL    HW3 8898   0.738   2.823   3.628  0.0864 -1.4077 -0.0734
 2206SOL    MW4 8899   0.733   2.811   3.714 -0.1284 -0.5841  0.0296
 2207SOL     OW 8900   0.686   3.067   3.839 -0.3121 -0.0646 -0.0898
 2207SOL    HW2 8901   0.675   3.065   3.934  0.1079  1.6630  0.0159
 2207SOL    HW3 8902   0.717   2.980   3.816  1.6763  0.1456  1.6368
 2207SOL    MW4 8903   0.688   3.055   3.848  0.0057  0.1910  0.1519
 2208SOL     OW 8904   0.474   3.233   3.776  0.5487 -0.3760  0.0708
 2208SOL    HW2 8905   0.544   3.171   3.799  0.3842 -0.7355 -0.4127
 2208SOL    HW3 8906   0.394   3.193   3.811  0.6754  0.3971  1.3044
 2208SOL    MW4 8907   0.473   3.220   3.784  0.5437 -0.3214  0.1698
 2209SOL     OW 8908   0.472   3.497   3.866 -0.2417  0.2541  0.0242
 2209SOL    HW2 8909   0.551   3.546   3.842 -1.0656  1.0965 -1.0246
 2209SOL    HW3 8910   0.485   3.410   3.828 -0.1152  0.5884 -0.6872
 2209SOL    MW4 8911   0.484   3.492   3.858 -0.3337  0.4094 -0.2079
 2210SOL     OW 8912   0.701   3.645   3.770  0.7434 -0.1136 -0.0788
 2210SOL    HW2 8913   0.683   3.734   3.802 -1.2510 -0.3259 -0.5184
 2210SOL    HW3 8914   0.683   3.650   3.676  1.9180 -0.6623 -0.3375
 2210SOL    MW4 8915   0.696   3.658   3.762  0.6352 -0.2141 -0.1712
 2211SOL     OW 8916   0.707   3.910   3.878  0.4520  0.3221  0.0289
 2211SOL    HW2 8917   0.718   3.890   3.971 -0.3167  0.5455  0.1720
 2211SOL    HW3 8918   0.796   3.913   3.843  0.6381 -5.0243 -0.3936
 2211SOL    MW4 8919   0.720   3.908   3.886  0.3752 -0.3538 -0.0081
 2212SOL     OW 8920   0.442   3.990   3.796 -0.0170  0.1186 -0.1327
 2212SOL    HW2 8921   0.535   3.972   3.812 -0.4345 -0.9879  1.1487
 2212SOL    HW3 8922   0.436   4.007   3.702  1.1550 -1.8378 -0.5747
 2212SOL    MW4 8923   0.453   3.990   3.786  0.0826 -0.2859 -0.0219
 2213SOL     OW 8924   0.445   4.251   3.914  0.2534  0.1263  0.0205
 2213SOL    HW2 8925   0.522   4.276   3.863  0.4863 -1.6297 -0.5502
 2213SOL    HW3 8926   0.429   4.160   3.889 -1.5496  0.2368  0.7226
 2213SOL    MW4 8927   0.453   4.242   3.904  0.0462 -0.0906  0.0377
 2214SOL     OW 8928   0.658   4.340   3.771 -0.0236 -0.6098  0.0002
 2214SOL    HW2 8929   0.742   4.312   3.807  0.1334  0.4548  0.4858
 2214SOL    HW3 8930   0.674   4.351   3.677  0.5616  0.1958  0.1841
 2214SOL    MW4 8931   0.671   4.338   3.763  0.0743 -0.3629  0.0882
 2215SOL     OW 8932   1.085   0.001   3.862  0.0896 -0.0778  0.0259
 2215SOL    HW2 8933   1.166   0.046   3.839 -0.6310  0.7878 -0.9172
 2215SOL    HW3 8934   1.099  -0.090   3.836  0.1877  0.3972 -1.6938
 2215SOL    MW4 8935   1.097  -0.005   3.855  0.0074  0.0992 -0.3250
 2216SOL     OW 8936   0.869   0.105   3.727 -0.0576  0.6517  0.4826
 2216SOL    HW2 8937   0.945   0.077   3.780  1.1409  0.0795 -1.4930
 2216SOL    HW3 8938   0.800   0.043   3.750  0.4116  0.4726  1.4499
 2216SOL    MW4 8939   0.870   0.093   3.737  0.1625  0.5526  0.3500
 2217SOL     OW 8940   0.869   0.367   3.813  0.1529 -0.1763  0.1147
 2217SOL    HW2 8941   0.850   0.368   3.907 -1.5807 -0.1301 -0.2270
 2217SOL    HW3 8942   0.870   0.274   3.790 -1.2043 -0.1181 -0.1745
 2217SOL    MW4 8943   0.867   0.355   3.822 -0.2549 -0.1626  0.0315
 2218SOL     OW 8944   1.108   0.505   3.747  0.2315  0.4148  0.3635
 2218SOL    HW2 8945   1.168   0.454   3.801 -1.4279 -2.1249 -0.1092
 2218SOL    HW3 8946   1.021   0.470   3.768 -0.8127  1.9746 -1.1725
 2218SOL    MW4 8947   1.104   0.494   3.757 -0.1251  0.2855  0.0982
 2219SOL     OW 8948   1.136   0.753   3.839 -0.2571 -0.0555 -0.0576
 2219SOL    HW2 8949   1.137   0.759   3.935  1.0381  0.4077 -0.0829
 2219SOL    HW3 8950   1.118   0.661   3.820  1.0518 -0.4789  0.6662
 2219SOL    MW4 8951   1.134   0.742   3.849  0.0864 -0.0502  0.0343
 2220SOL     OW 8952   0.904   0.902   3.769  0.6871 -0.2962  0.2930
 2220SOL    HW2 8953   0.985   0.855   3.788  1.3764  0.0472 -1.6857
 2220SOL    HW3 8954   0.895   0.898   3.674 -0.9591  0.7678  0.3763
 2220SOL    MW4 8955   0.914   0.895   3.759  0.5608 -0.1104  0.0429
 2221SOL     OW 8956   0.878   1.169   3.840 -0.3894 -0.0323  0.6098
 2221SOL    HW2 8957   0.851   1.172   3.931  0.8463  0.2536  0.9723
 2221SOL    HW3 8958   0.888   1.075   3.821 -0.3821 -0.0800  0.8497
 2221SOL    MW4 8959   0.876   1.157   3.849 -0.2254 -0.0008  0.6890
 2222SOL     OW 8960   1.131   1.255   3.746  0.1475  0.0871 -0.2104
 2222SOL    HW2 8961   1.139   1.346   3.773  0.3990 -0.1353  0.4646
 2222SOL    HW3 8962   1.047   1.226   3.783  0.7931 -0.4031  0.8726
 2222SOL    MW4 8963   1.121   1.263   3.754  0.2658 -0.0069  0.0212
 2223SOL     OW 8964   1.150   1.518   3.829 -0.1186  0.5179 -0.8544
 2223SOL    HW2 8965   1.130   1.537   3.921 -0.2358 -0.5848 -0.6467
 2223SOL    HW3 8966   1.215   1.584   3.805 -0.8886  1.4958 -0.3036
 2223SOL    MW4 8967   1.156   1.529   3.838 -0.2357  0.5014 -0.7541
 2224SOL     OW 8968   0.903   1.640   3.761  0.0487  0.1621  0.4201
 2224SOL    HW2 8969   0.985   1.602   3.791 -0.0141 -0.4935 -0.1950
 2224SOL    HW3 8970   0.914   1.648   3.666  0.2093  2.0789  0.5806
 2224SOL    MW4 8971   0.915   1.636   3.752  0.0616  0.3285  0.3605
 2225SOL     OW 8972   0.882   1.912   3.845  0.2450  0.3713 -0.8150
 2225SOL    HW2 8973   0.874   1.820   3.821 -0.5411  0.5541 -1.2925
 2225SOL    HW3 8974   0.809   1.954   3.800  0.6279  1.2335 -0.6333
 2225SOL    MW4 8975   0.871   1.905   3.836  0.1917  0.5091 -0.8540
 2226SOL     OW 8976   1.099   2.062   3.751  0.5569  0.0001 -0.3976
 2226SOL    HW2 8977   1.022   2.016   3.784  0.3696  0.7191  0.1598
 2226SOL    HW3 8978   1.086   2.064   3.656 -0.6976  1.1799 -0.2111
 2226SOL    MW4 8979   1.087   2.056   3.742  0.3667  0.2506 -0.2995
 2227SOL     OW 8980   1.166   2.319   3.861  0.1068  0.3577 -0.0318
 2227SOL    HW2 8981   1.170   2.298   3.954 -0.2998 -0.1174 -0.1216
 2227SOL    HW3 8982   1.150   2.235   3.818 -0.8023  0.7409 -0.4520
 2227SOL    MW4 8983   1.165   2.305   3.867 -0.0668  0.3455 -0.0989
 2228SOL     OW 8984   0.919   2.433   3.782 -0.0378  0.8505 -0.2613
 2228SOL    HW2 8985   0.920   2.523   3.813  1.0765  0.6818  0.2300
 2228SOL    HW3 8986   1.000   2.395   3.816 -0.0975 -0.1010 -1.1437
 2228SOL    MW4 8987   0.930   2.440   3.790  0.1014  0.7026 -0.3130
 2229SOL     OW 8988   0.962   2.683   3.843 -0.1518  0.3190 -0.3586
 2229SOL    HW2 8989   0.953   2.691   3.938 -1.5628  1.4663 -0.5716
 2229SOL    HW3 8990   1.042   2.732   3.822  0.6815 -0.7226  0.3265
 2229SOL    MW4 8991   0.972   2.691   3.853 -0.2280  0.3328 -0.2964
 2230SOL     OW 8992   1.179   2.832   3.764  0.0728  0.1083  0.7639
 2230SOL    HW2 8993   1.250   2.782   3.803  0.5890  0.0028 -0.2961
 2230SOL    HW3 8994   1.170   2.909   3.821  1.0972  0.1729  0.8378
 2230SOL    MW4 8995   1.187   2.836   3.777  0.2761  0.1028  0.6337
 2231SOL     OW 8996   1.132   3.076   3.880 -0.2330  0.2047  0.5131
 2231SOL    HW2 8997   1.206   3.119   3.836 -0.6613 -1.4356 -1.8828
 2231SOL    HW3 8998   1.055   3.122   3.848 -0.6063 -1.5271 -1.1725
 2231SOL    MW4 8999   1.132   3.088   3.870 -0.3387 -0.2401 -0.0250
 2232SOL     OW 9000   0.881   3.227   3.758  0.4132 -0.4040  0.4866
 2232SOL    HW2 9001   0.819   3.159   3.784  1.2942 -1.5595 -0.3304
 2232SOL    HW3 9002   0.878   3.227   3.663  1.0141  0.1414  0.4649
 2232SOL    MW4 9003   0.873   3.218   3.749  0.6087 -0.4845  0.3757
 2233SOL     OW 9004   0.935   3.487   3.870  0.3442  0.3639 -0.6700
 2233SOL    HW2 9005   0.908   3.401   3.837 -0.5876 -0.3238  1.7559
 2233SOL    HW3 9006   0.858   3.542   3.858 -0.3985 -0.1897  1.3101
 2233SOL    MW4 9007   0.921   3.483   3.864  0.1233  0.2000 -0.0887
 2234SOL     OW 9008   1.177   3.605   3.740 -0.2302  0.5971  0.0331
 2234SOL    HW2 9009   1.168   3.694   3.772  0.0025  0.1972  1.2304
 2234SOL    HW3 9010   1.100   3.559   3.774 -0.1607  0.2485 -0.2703
 2234SOL    MW4 9011   1.165   3.611   3.749 -0.1903  0.4981  0.1507
 2235SOL     OW 9012   1.195   3.877   3.845 -0.6304  0.2415  0.0879
 2235SOL    HW2 9013   1.201   3.879   3.940  0.7247  0.0329  0.0230
 2235SOL    HW3 9014   1.274   3.923   3.815 -1.1032  0.4168 -0.9328
 2235SOL    MW4 9015   1.207   3.884   3.853 -0.5141  0.2370 -0.0553
 2236SOL     OW 9016   0.953   3.996   3.785 -0.1417 -0.0791  0.3237
 2236SOL    HW2 9017   1.035   3.953   3.811 -0.4787 -0.7123  0.3666
 2236SOL    HW3 9018   0.948   3.981   3.690 -0.5681 -0.6895  0.4368
 2236SOL    MW4 9019   0.963   3.988   3.776 -0.2424 -0.2434  0.3440
 2237SOL     OW 9020   0.917   4.264   3.871  0.1015  0.0459 -0.1852
 2237SOL    HW2 9021   0.913   4.272   3.966 -1.4508 -2.0804 -0.0382
 2237SOL    HW3 9022   0.917   4.170   3.855  2.4504  0.3449 -2.2300
 2237SOL    MW4 9023   0.917   4.253   3.881  0.2065 -0.1945 -0.4356
 2238SOL     OW 9024   1.156   4.397   3.755  0.0730 -0.1313 -0.4167
 2238SOL    HW2 9025   1.080   4.343   3.774 -0.2798  0.1457 -1.0188
 2238SOL    HW3 9026   1.171   4.386   3.662  1.0168 -0.4922 -0.2243
 2238SOL    MW4 9027   1.148   4.389   3.746  0.1510 -0.1421 -0.4706
 2239SOL     OW 9028   1.533   4.653   3.955  0.5000 -0.5154  0.0094
 2239SOL    HW2 9029   1.533   4.625   4.047  0.9845 -1.1414 -0.1743
 2239SOL    HW3 9030   1.556   4.573   3.907  0.1204 -0.2135 -0.6611
 2239SOL    MW4 9031   1.536   4.638   3.961  0.5139 -0.5584 -0.1035
 2240SOL     OW 9032   1.329   0.113   3.793 -0.4092 -0.1855 -0.2467
 2240SOL    HW2 9033   1.323   0.203   3.826 -0.6254 -0.5080  0.6139
 2240SOL    HW3 9034   1.380   0.066   3.860 -0.5576 -0.7765 -0.5423
 2240SOL    MW4 9035   1.335   0.119   3.806 -0.4572 -0.3060 -0.1721
 2241SOL     OW 9036   1.304   0.355   3.881  0.3409  0.2044  0.4553
 2241SOL    HW2 9037   1.315   0.355   3.976  0.9720 -1.1083  0.3893
 2241SOL    HW3 9038   1.384   0.395   3.848  0.7869 -0.7084  0.4147
 2241SOL    MW4 9039   1.316   0.360   3.889  0.4829 -0.0892  0.4411
 2242SOL     OW 9040   1.539   0.477   3.794 -0.3158 -0.4078  0.4096
 2242SOL    HW2 9041   1.614   0.431   3.832 -0.5586 -1.0024  0.1731
 2242SOL    HW3 9042   1.547   0.567   3.827  0.2072 -0.5964  0.8067
 2242SOL    MW4 9043   1.550   0.483   3.804 -0.2788 -0.5111  0.4308
 2243SOL     OW 9044   1.578   0.746   3.877 -0.1509  0.3968  0.0084
 2243SOL    HW2 9045   1.661   0.783   3.847 -0.1904  0.8507  0.4437
 2243SOL    HW3 9046   1.512   0.788   3.822 -0.0553 -0.3882 -0.7242
 2243SOL    MW4 9047   1.581   0.756   3.866 -0.1436  0.3532 -0.0310
 2244SOL     OW 9048   1.379   0.887   3.772 -0.4768 -0.1783 -0.5913
 2244SOL    HW2 9049   1.385   0.969   3.821  0.0610 -0.7483  0.3075
 2244SOL    HW3 9050   1.291   0.855   3.792 -0.1592 -0.5489  0.2329
 2244SOL    MW4 9051   1.368   0.894   3.781 -0.3639 -0.3023 -0.3641
 2245SOL     OW 9052   1.349   1.140   3.891 -0.1911 -0.5956 -0.2179
 2245SOL    HW2 9053   1.428   1.181   3.856  0.2431 -0.6797  0.6441
 2245SOL    HW3 9054   1.277   1.177   3.840  0.2940  0.4511 -0.1525
 2245SOL    MW4 9055   1.350   1.150   3.880 -0.0699 -0.4685 -0.0954
 2246SOL     OW 9056   1.545   1.287   3.751  0.4620 -0.3042 -0.7711
 2246SOL    HW2 9057   1.624   1.235   3.762  0.3732 -0.0246  1.2900
 2246SOL    HW3 9058   1.562   1.368   3.799 -0.7274  0.1320 -1.0577
 2246SOL    MW4 9059   1.557   1.291   3.759  0.2933 -0.2098 -0.5369
 2247SOL     OW 9060   1.583   1.519   3.898  0.4828  0.1111 -0.2795
 2247SOL    HW2 9061   1.584   1.512   3.994 -0.8730  0.0211 -0.2710
 2247SOL    HW3 9062   1.659   1.574   3.878  0.5231  0.4908  0.8761
 2247SOL    MW4 9063   1.593   1.525   3.908  0.3092  0.1494 -0.1261
 2248SOL     OW 9064   1.385   1.682   3.820  0.1732  0.1159  0.1367
 2248SOL    HW2 9065   1.386   1.776   3.838  1.1700  0.3546 -1.0812
 2248SOL    HW3 9066   1.462   1.647   3.864  1.0547  0.2535 -1.2421
 2248SOL    MW4 9067   1.395   1.690   3.828  0.4210  0.1655 -0.2058
 2249SOL     OW 9068   1.336   1.958   3.876  0.1978  0.4306  0.4892
 2249SOL    HW2 9069   1.339   1.969   3.971 -0.4017 -1.7213  0.7751
 2249SOL    HW3 9070   1.247   1.982   3.851  0.5428  1.6348  0.3599
 2249SOL    MW4 9071   1.325   1.963   3.885  0.1640  0.3054  0.5100
 2250SOL     OW 9072   1.569   2.077   3.780 -0.1144  0.2595  0.1999
 2250SOL    HW2 9073   1.488   2.042   3.816 -0.8191  2.1042  0.4834
 2250SOL    HW3 9074   1.553   2.081   3.686  0.0302 -0.3244  0.1490
 2250SOL    MW4 9075   1.556   2.073   3.772 -0.1882  0.4256  0.2308
 2251SOL     OW 9076   1.607   2.328   3.927 -0.3924  0.1681  0.3468
 2251SOL    HW2 9077   1.668   2.387   3.884 -0.2082 -1.2220 -1.3378
 2251SOL    HW3 9078   1.608   2.249   3.874  0.2462 -1.8269  3.2039
 2251SOL    MW4 9079   1.615   2.326   3.914 -0.2838 -0.2787  0.5019
 2252SOL     OW 9080   1.399   2.413   3.741 -0.0606 -0.6893 -0.1947
 2252SOL    HW2 9081   1.467   2.400   3.807  0.5242  0.6906 -0.5049
 2252SOL    HW3 9082   1.317   2.398   3.788  0.4308 -1.6826  0.3530
 2252SOL    MW4 9083   1.397   2.409   3.756  0.0814 -0.6380 -0.1633
 2253SOL     OW 9084   1.393   2.675   3.848  0.7360 -0.1291 -0.2152
 2253SOL    HW2 9085   1.368   2.666   3.940  2.0207  0.8031  0.2452
 2253SOL    HW3 9086   1.374   2.590   3.809  0.6589 -0.6897  1.0308
 2253SOL    MW4 9087   1.387   2.663   3.855  0.8955 -0.0799  0.0098
 2254SOL     OW 9088   1.599   2.839   3.773 -0.2203  0.0726  0.0653
 2254SOL    HW2 9089   1.536   2.770   3.796 -0.7252  0.1109 -1.1565
 2254SOL    HW3 9090   1.616   2.825   3.679 -0.5448  1.7905 -0.2526
 2254SOL    MW4 9091   1.593   2.828   3.764 -0.3297  0.3045 -0.1378
 2255SOL     OW 9092   1.590   3.091   3.868  0.3329 -0.3717 -0.1581
 2255SOL    HW2 9093   1.590   3.077   3.963  3.8319 -0.7618 -0.1487
 2255SOL    HW3 9094   1.586   3.002   3.831  0.6365 -0.2947 -0.3723
 2255SOL    MW4 9095   1.589   3.077   3.876  0.8346 -0.4129 -0.1853
 2256SOL     OW 9096   1.364   3.203   3.767  0.2349 -0.0388 -0.4159
 2256SOL    HW2 9097   1.357   3.290   3.805 -1.5880  0.3159 -1.5201
 2256SOL    HW3 9098   1.434   3.160   3.817  0.1049  1.5181  1.1257
 2256SOL    MW4 9099   1.372   3.209   3.778 -0.0226  0.2134 -0.3583
 2257SOL     OW 9100   1.387   3.462   3.876 -0.2202 -0.0297  0.2139
 2257SOL    HW2 9101   1.451   3.517   3.831  0.9047 -0.5753  1.1050
 2257SOL    HW3 9102   1.302   3.490   3.843  0.5008  0.6117 -1.0965
 2257SOL    MW4 9103   1.385   3.473   3.866  0.0234 -0.0169  0.1585
 2258SOL     OW 9104   1.605   3.613   3.760 -0.5005  0.3033  0.1745
 2258SOL    HW2 9105   1.691   3.589   3.793 -1.2073 -3.0268 -0.2232
 2258SOL    HW3 9106   1.596   3.706   3.783  3.1956  0.7611  0.1046
 2258SOL    MW4 9107   1.615   3.622   3.768 -0.1061 -0.0758  0.1130
 2259SOL     OW 9108   1.616   3.875   3.846  0.0982 -0.0693  0.1601
 2259SOL    HW2 9109   1.598   3.860   3.938  0.3001 -2.1318 -0.1091
 2259SOL    HW3 9110   1.552   3.941   3.819 -1.2933 -0.9241  1.2998
 2259SOL    MW4 9111   1.605   3.882   3.854 -0.0588 -0.4542  0.2749
 2260SOL     OW 9112   1.396   4.032   3.782  0.2747 -0.1487  0.1983
 2260SOL    HW2 9113   1.384   4.118   3.820  1.1594 -0.6048  1.5679
 2260SOL    HW3 9114   1.366   4.040   3.692  2.0211  2.0645 -0.2250
 2260SOL    MW4 9115   1.391   4.044   3.775  0.6219  0.0830  0.3231
 2261SOL     OW 9116   1.391   4.298   3.887 -0.3851  0.7067 -0.0969
 2261SOL    HW2 9117   1.464   4.348   3.849 -1.4302  0.7911 -2.0110
 2261SOL    HW3 9118   1.312   4.341   3.853 -1.3414  0.4393  1.7427
 2261SOL    MW4 9119   1.390   4.311   3.878 -0.6490  0.6824 -0.1068
 2262SOL     OW 9120   1.587   4.444   3.786  0.2538  0.1297 -0.0412
 2262SOL    HW2 9121   1.666   4.394   3.808  0.7758  0.8686 -0.1984
 2262SOL    HW3 9122   1.580   4.436   3.691  0.9018  1.1467 -0.1932
 2262SOL    MW4 9123   1.597   4.437   3.776  0.4082  0.3619 -0.0818
 2263SOL     OW 9124   1.973   0.019   3.852 -0.3070 -0.0191 -0.2242
 2263SOL    HW2 9125   2.056   0.067   3.856 -1.0981  1.4897 -1.3700
 2263SOL    HW3 9126   1.997  -0.069   3.822  0.9364  0.2378  0.0062
 2263SOL    MW4 9127   1.987   0.014   3.849 -0.2475  0.2141 -0.3450
 2264SOL     OW 9128   1.730   0.096   3.779 -0.3483  0.3953 -0.1229
 2264SOL    HW2 9129   1.822   0.084   3.803 -0.2853 -0.5305 -0.8007
 2264SOL    HW3 9130   1.681   0.041   3.840 -0.4072  0.4430 -0.1268
 2264SOL    MW4 9131   1.736   0.087   3.790 -0.3477  0.2794 -0.2127
 2265SOL     OW 9132   1.783   0.340   3.903 -0.6165 -1.0443  0.2695
 2265SOL    HW2 9133   1.792   0.336   3.998  0.6435 -0.2817  0.1904
 2265SOL    HW3 9134   1.742   0.256   3.879  0.9975 -2.1399  1.2623
 2265SOL    MW4 9135   1.779   0.328   3.912 -0.2373 -1.0882  0.3901
 2266SOL     OW 9136   1.998   0.474   3.791  0.3005  0.6460 -0.3043
 2266SOL    HW2 9137   1.933   0.418   3.834 -0.6817  2.2576  0.3359
 2266SOL    HW3 9138   2.004   0.440   3.702 -1.0666  0.2101 -0.2319
 2266SOL    MW4 9139   1.991   0.462   3.785 -0.0094  0.8011 -0.2103
 2267SOL     OW 9140   2.032   0.751   3.859  0.1815  0.1912 -0.2238
 2267SOL    HW2 9141   2.021   0.755   3.954 -1.6391  0.4298 -0.4186
 2267SOL    HW3 9142   2.010   0.661   3.837  1.2283 -0.0350 -0.3550
 2267SOL    MW4 9143   2.027   0.740   3.869  0.0794  0.1928 -0.2668
 2268SOL     OW 9144   1.797   0.873   3.765 -0.0442  0.3611  0.1981
 2268SOL    HW2 9145   1.883   0.836   3.783 -0.0245 -0.5088 -1.5266
 2268SOL    HW3 9146   1.795   0.883   3.669 -2.3569 -0.9343  0.0681
 2268SOL    MW4 9147   1.808   0.870   3.754 -0.3468  0.0755 -0.0465
 2269SOL     OW 9148   1.760   1.145   3.866  0.3451 -0.2918  0.3254
 2269SOL    HW2 9149   1.778   1.144   3.960  1.7904  0.7001  0.0798
 2269SOL    HW3 9150   1.760   1.052   3.840 -0.4179 -0.5794  1.3716
 2269SOL    MW4 9151   1.763   1.132   3.875  0.4351 -0.1988  0.4308
 2270SOL     OW 9152   1.993   1.290   3.760 -0.0967  0.1342 -0.3550
 2270SOL    HW2 9153   2.071   1.264   3.808 -0.1594  0.0018 -0.3250
 2270SOL    HW3 9154   1.923   1.235   3.796 -0.7720  2.2001  1.5848
 2270SOL    MW4 9155   1.994   1.279   3.771 -0.1940  0.3891 -0.0949
 2271SOL     OW 9156   2.043   1.568   3.837 -0.0451 -0.1748  0.1284
 2271SOL    HW2 9157   1.954   1.605   3.831  0.0639 -0.2223 -2.3850
 2271SOL    HW3 9158   2.031   1.474   3.825  0.2190 -0.3315  1.0896
 2271SOL    MW4 9159   2.030   1.561   3.834  0.0043 -0.2018 -0.0765
 2272SOL     OW 9160   1.802   1.684   3.806  0.3422 -0.3119  0.4916
 2272SOL    HW2 9161   1.815   1.772   3.839  0.5653 -0.1197 -0.0963
 2272SOL    HW3 9162   1.795   1.695   3.711 -0.1994 -0.8582  0.4619
 2272SOL    MW4 9163   1.803   1.697   3.798  0.3002 -0.3587  0.4098
 2273SOL     OW 9164   1.809   1.950   3.884  0.1454  0.3741  0.5032
 2273SOL    HW2 9165   1.805   1.970   3.977 -1.9419  0.0150  0.5181
 2273SOL    HW3 9166   1.726   1.982   3.849  0.9232  0.5615 -1.2528
 2273SOL    MW4 9167   1.798   1.957   3.891 -0.0273  0.3514  0.2732
 2274SOL     OW 9168   2.010   2.048   3.745  0.1485  0.0928  0.1132
 2274SOL    HW2 9169   1.928   2.007   3.773  0.4835 -1.8885 -1.6603
 2274SOL    HW3 9170   2.016   2.028   3.652  2.8063 -0.0606  0.2844
 2274SOL    MW4 9171   2.000   2.040   3.736  0.5435 -0.1888 -0.0982
 2275SOL     OW 9172   2.038   2.306   3.845 -0.1641 -0.1798  0.0801
 2275SOL    HW2 9173   1.967   2.360   3.811  0.1548  0.8412  1.0274
 2275SOL    HW3 9174   2.015   2.217   3.818 -1.1856  0.2962 -0.6503
 2275SOL    MW4 9175   2.025   2.301   3.837 -0.2565  0.0176  0.1087
 2276SOL     OW 9176   1.796   2.461   3.768 -0.3749  0.2672  0.2412
 2276SOL    HW2 9177   1.800   2.549   3.804 -3.1654  0.7645 -0.5166
 2276SOL    HW3 9178   1.797   2.474   3.673 -0.0916 -0.5664  0.1277
 2276SOL    MW4 9179   1.796   2.474   3.760 -0.7058  0.2227  0.1261
 2277SOL     OW 9180   1.836   2.717   3.863  0.2377  0.1817 -0.0068
 2277SOL    HW2 9181   1.833   2.718   3.959  2.1624  1.3977  0.0679
 2277SOL    HW3 9182   1.757   2.764   3.836  1.0089  2.1074  1.0367
 2277SOL    MW4 9183   1.825   2.723   3.872  0.5934  0.5963  0.1404
 2278SOL     OW 9184   2.040   2.854   3.732  0.3673 -0.5711 -0.0365
 2278SOL    HW2 9185   2.115   2.812   3.774 -0.2276 -1.1747  0.4356
 2278SOL    HW3 9186   1.964   2.809   3.768 -0.3212  1.3476  0.9950
 2278SOL    MW4 9187   2.040   2.843   3.742  0.1981 -0.3977  0.1619
 2279SOL     OW 9188   2.036   3.118   3.821  0.3615 -0.1797  0.3003
 2279SOL    HW2 9189   2.021   3.095   3.913  0.0342 -0.2408  0.2325
 2279SOL    HW3 9190   2.042   3.034   3.776  0.3745 -0.1477  0.2425
 2279SOL    MW4 9191   2.035   3.104   3.827  0.3200 -0.1838  0.2840
 2280SOL     OW 9192   1.791   3.248   3.755 -0.0202  0.0255 -0.1874
 2280SOL    HW2 9193   1.870   3.207   3.791 -0.3548 -0.1514  0.3406
 2280SOL    HW3 9194   1.719   3.198   3.792 -0.4139  0.6767 -0.0738
 2280SOL    MW4 9195   1.792   3.236   3.764 -0.1162  0.0880 -0.1028
 2281SOL     OW 9196   1.824   3.508   3.875 -0.4417 -0.4847 -0.2926
 2281SOL    HW2 9197   1.904   3.552   3.846 -0.8031 -0.8182 -1.8476
 2281SOL    HW3 9198   1.834   3.418   3.845 -0.5740 -0.9773  1.1523
 2281SOL    MW4 9199   1.836   3.502   3.867 -0.5068 -0.5937 -0.3073
 2282SOL     OW 9200   2.049   3.639   3.776 -0.1622 -0.7033  0.6174
 2282SOL    HW2 9201   2.135   3.616   3.812 -0.0976 -1.0741  0.2299
 2282SOL    HW3 9202   2.061   3.634   3.681  0.1383  1.9223  0.4889
 2282SOL    MW4 9203   2.062   3.635   3.768 -0.1140 -0.4055  0.5491
 2283SOL     OW 9204   2.058   3.850   3.937 -0.2153  0.2320 -0.5582
 2283SOL    HW2 9205   2.146   3.881   3.916  0.3157 -0.9315 -0.0627
 2283SOL    HW3 9206   2.044   3.776   3.878  0.5733 -1.8977  1.8448
 2283SOL    MW4 9207   2.067   3.844   3.926 -0.0410 -0.2027 -0.1757
 2284SOL     OW 9208   1.870   3.996   3.791 -0.1285  0.2943  0.3359
 2284SOL    HW2 9209   1.945   3.974   3.847 -0.2405 -0.2200  0.2803
 2284SOL    HW3 9210   1.801   3.936   3.818 -0.7750  1.2825  0.9282
 2284SOL    MW4 9211   1.871   3.985   3.802 -0.2285  0.3572  0.4070
 2285SOL     OW 9212   1.810   4.251   3.899  0.1791 -0.4608  0.3979
 2285SOL    HW2 9213   1.882   4.305   3.864 -0.4346  0.5453  0.6909
 2285SOL    HW3 9214   1.829   4.163   3.865 -0.4105  0.4943 -2.5384
 2285SOL    MW4 9215   1.822   4.246   3.890  0.0204 -0.2022  0.0489
 2286SOL     OW 9216   2.030   4.404   3.809 -0.1509  0.6757 -0.5018
 2286SOL    HW2 9217   2.108   4.361   3.843 -0.1406  0.6637 -0.5409
 2286SOL    HW3 9218   2.035   4.391   3.714  0.0786  1.1382 -0.5543
 2286SOL    MW4 9219   2.041   4.397   3.801 -0.1194  0.7353 -0.5140
 2287SOL     OW 9220   2.438   4.640   3.932  0.1642  0.4971 -0.2756
 2287SOL    HW2 9221   2.455   4.662   4.023  1.1386 -1.7742  0.1311
 2287SOL    HW3 9222   2.514   4.673   3.884  1.6339 -1.9320  0.3278
 2287SOL    MW4 9223   2.450   4.647   3.938  0.4869 -0.1225 -0.1421
 2288SOL     OW 9224   2.229   0.124   3.840 -0.1817  0.0675 -0.0037
 2288SOL    HW2 9225   2.303   0.076   3.877 -1.9230 -1.7987  1.1585
 2288SOL    HW3 9226   2.233   0.105   3.746  0.8809  0.0708  0.0372
 2288SOL    MW4 9227   2.239   0.115   3.832 -0.2711 -0.1783  0.1550
 2289SOL     OW 9228   2.239   0.369   3.940 -0.1564 -0.2982  0.2106
 2289SOL    HW2 9229   2.233   0.276   3.919 -2.2614 -0.3661  1.0191
 2289SOL    HW3 9230   2.169   0.409   3.890  0.6861  0.8444 -0.0581
 2289SOL    MW4 9231   2.229   0.362   3.931 -0.3226 -0.1564  0.2818
 2290SOL     OW 9232   2.463   0.479   3.755 -0.3929  0.1172 -0.2512
 2290SOL    HW2 9233   2.391   0.432   3.797  0.1825  0.1582  0.7837
 2290SOL    HW3 9234   2.445   0.470   3.661 -1.3386 -0.5080 -0.0214
 2290SOL    MW4 9235   2.451   0.471   3.748 -0.4416  0.0401 -0.0844
 2291SOL     OW 9236   2.470   0.760   3.838 -0.1057 -0.0894 -0.6946
 2291SOL    HW2 9237   2.398   0.798   3.786 -0.5409 -0.8348 -0.6396
 2291SOL    HW3 9238   2.467   0.667   3.818 -1.1490 -0.6015  1.7008
 2291SOL    MW4 9239   2.460   0.753   3.828 -0.3009 -0.2552 -0.3712
 2292SOL     OW 9240   2.232   0.907   3.747  0.1196  0.3429 -0.0634
 2292SOL    HW2 9241   2.173   0.850   3.796 -0.6613  1.5623  0.4253
 2292SOL    HW3 9242   2.203   0.899   3.656 -1.0849  1.2632  0.2293
 2292SOL    MW4 9243   2.221   0.898   3.742 -0.1423  0.6253  0.0396
 2293SOL     OW 9244   2.254   1.187   3.850  0.6212 -0.0379 -0.1347
 2293SOL    HW2 9245   2.242   1.187   3.945 -1.4620 -1.0179 -0.3718
 2293SOL    HW3 9246   2.269   1.095   3.828 -0.2705 -0.0064 -0.9023
 2293SOL    MW4 9247   2.254   1.175   3.860  0.2286 -0.1630 -0.2675
 2294SOL     OW 9248   2.495   1.295   3.792 -0.1964  0.3381  0.0887
 2294SOL    HW2 9249   2.490   1.388   3.812  0.6019  0.5634 -0.7055
 2294SOL    HW3 9250   2.413   1.258   3.824 -0.8130  1.4380 -0.2294
 2294SOL    MW4 9251   2.484   1.302   3.799 -0.1724  0.5128 -0.0579
 2295SOL     OW 9252   2.482   1.551   3.888  0.3806 -0.0476 -0.4924
 2295SOL    HW2 9253   2.565   1.595   3.869  0.5282 -0.6534 -1.2811
 2295SOL    HW3 9254   2.416   1.605   3.845  0.3022  0.7340  0.5920
 2295SOL    MW4 9255   2.484   1.564   3.880  0.3893 -0.0243 -0.4535
 2296SOL     OW 9256   2.270   1.705   3.781  0.1549  0.0407 -0.1719
 2296SOL    HW2 9257   2.247   1.792   3.813  0.6124 -0.4145  1.4359
 2296SOL    HW3 9258   2.190   1.654   3.789 -0.1577  0.3414 -1.2681
 2296SOL    MW4 9259   2.256   1.710   3.786  0.1740  0.0204 -0.1047
 2297SOL     OW 9260   2.256   1.983   3.852  0.2052 -0.0651  0.7043
 2297SOL    HW2 9261   2.262   1.978   3.947 -0.7372 -0.5957  0.7486
 2297SOL    HW3 9262   2.169   2.020   3.835  0.6851  0.7823  0.0608
 2297SOL    MW4 9263   2.245   1.987   3.862  0.1442 -0.0231  0.6254
 2298SOL     OW 9264   2.508   2.086   3.777 -0.2298 -0.1399 -0.0164
 2298SOL    HW2 9265   2.515   2.172   3.819 -1.1538 -0.8761  1.6850
 2298SOL    HW3 9266   2.420   2.055   3.800 -0.6485 -0.7134 -2.2457
 2298SOL    MW4 9267   2.497   2.093   3.786 -0.4070 -0.3128 -0.0861
 2299SOL     OW 9268   2.525   2.344   3.845  0.0460 -0.4634  0.2548
 2299SOL    HW2 9269   2.595   2.387   3.797 -0.7273  0.3021 -0.2045
 2299SOL    HW3 9270   2.448   2.354   3.789 -0.5776 -0.6951  1.0599
 2299SOL    MW4 9271   2.524   2.351   3.831 -0.1383 -0.3929  0.3004
 2300SOL     OW 9272   2.269   2.431   3.765  0.5477  0.0153 -0.2853
 2300SOL    HW2 9273   2.196   2.380   3.800 -0.0248  0.4594 -0.8146
 2300SOL    HW3 9274   2.253   2.435   3.671  0.4778  1.3093 -0.2326
 2300SOL    MW4 9275   2.257   2.425   3.758  0.4628  0.2446 -0.3481
 2301SOL     OW 9276   2.273   2.705   3.845  0.3294  0.0680 -0.0518
 2301SOL    HW2 9277   2.280   2.709   3.940 -0.4666  0.2942 -0.0037
 2301SOL    HW3 9278   2.257   2.613   3.826  1.1528 -0.0868 -0.0144
 2301SOL    MW4 9279   2.272   2.693   3.855  0.3331  0.0775 -0.0403
 2302SOL     OW 9280   2.471   2.860   3.753 -0.0470  0.0095  1.0034
 2302SOL    HW2 9281   2.405   2.798   3.783  0.3649 -0.5825  0.7036
 2302SOL    HW3 9282   2.482   2.840   3.660  0.3560  0.2883  0.9889
 2302SOL    MW4 9283   2.464   2.849   3.745  0.0606 -0.0319  0.9620
 2303SOL     OW 9284   2.493   3.118   3.875 -0.6219  0.1103  0.2937
 2303SOL    HW2 9285   2.410   3.162   3.855  0.1542  1.2241 -0.5545
 2303SOL    HW3 9286   2.482   3.029   3.842 -1.5585  0.1896  0.3817
 2303SOL    MW4 9287   2.481   3.112   3.868 -0.6430  0.2677  0.1934
 2304SOL     OW 9288   2.283   3.268   3.788 -0.7217  0.4405 -0.0262
 2304SOL    HW2 9289   2.270   3.358   3.819 -0.4530  0.2751  0.5765
 2304SOL    HW3 9290   2.199   3.224   3.805 -0.1321 -0.0292  1.8002
 2304SOL    MW4 9291   2.270   3.274   3.794 -0.6084  0.3567  0.2942
 2305SOL     OW 9292   2.297   3.532   3.855  0.2929 -0.2197 -0.1140
 2305SOL    HW2 9293   2.294   3.535   3.951  1.5335  0.5809 -0.0944
 2305SOL    HW3 9294   2.386   3.559   3.833  0.1137 -0.7210 -1.4884
 2305SOL    MW4 9295   2.308   3.536   3.865  0.4330 -0.1800 -0.2928
 2306SOL     OW 9296   2.547   3.635   3.788  0.1662  0.4480 -0.0965
 2306SOL    HW2 9297   2.628   3.594   3.817  0.8832  1.5378 -0.5025
 2306SOL    HW3 9298   2.544   3.616   3.694  0.0479  0.5441 -0.1117
 2306SOL    MW4 9299   2.558   3.627   3.779  0.2451  0.6044 -0.1521
 2307SOL     OW 9300   2.567   3.881   3.913 -0.2630 -0.0199  0.4509
 2307SOL    HW2 9301   2.619   3.914   3.840 -1.1032  0.2397 -0.0388
 2307SOL    HW3 9302   2.550   3.789   3.891 -0.0944 -0.0774  0.5622
 2307SOL    MW4 9303   2.572   3.873   3.900 -0.3514  0.0069  0.4008
 2308SOL     OW 9304   2.303   3.962   3.838  0.2187  0.5433 -0.0112
 2308SOL    HW2 9305   2.385   3.936   3.880  0.0909 -0.7336 -0.5151
 2308SOL    HW3 9306   2.313   3.931   3.747 -0.9751  0.0488  0.0264
 2308SOL    MW4 9307   2.315   3.954   3.831  0.0443  0.3095 -0.0725
 2309SOL     OW 9308   2.241   4.224   3.907 -0.2933 -0.1135 -0.2405
 2309SOL    HW2 9309   2.257   4.236   4.000 -0.0956 -0.2967 -0.2507
 2309SOL    HW3 9310   2.258   4.132   3.891  0.3783  0.0726 -0.5996
 2309SOL    MW4 9311   2.245   4.214   3.917 -0.1788 -0.1135 -0.2892
 2310SOL     OW 9312   2.453   4.386   3.838 -0.0878 -0.8082 -0.0653
 2310SOL    HW2 9313   2.372   4.338   3.854  0.3489 -1.7961 -0.7841
 2310SOL    HW3 9314   2.445   4.464   3.893 -0.4178 -2.1227  1.8221
 2310SOL    MW4 9315   2.441   4.390   3.847 -0.0734 -1.1120  0.0887
 2311SOL     OW 9316   2.871   0.017   3.918 -0.1920  0.2321 -0.2394
 2311SOL    HW2 9317   2.878   0.023   4.013 -1.6865  0.2992 -0.1207
 2311SOL    HW3 9318   2.953   0.053   3.885  0.3969  0.0662  1.0298
 2311SOL    MW4 9319   2.883   0.022   3.926 -0.3116  0.2193 -0.0560
 2312SOL     OW 9320   2.649   0.093   3.781  0.1653  0.1620  0.7192
 2312SOL    HW2 9321   2.727   0.067   3.831  0.1230  0.4541  0.9399
 2312SOL    HW3 9322   2.679   0.097   3.690  0.4545  0.4525  0.8280
 2312SOL    MW4 9323   2.663   0.090   3.775  0.1979  0.2389  0.7625
 2313SOL     OW 9324   2.706   0.368   3.822  0.0804 -0.0382  0.4544
 2313SOL    HW2 9325   2.684   0.275   3.810 -0.5027  0.3478 -1.5835
 2313SOL    HW3 9326   2.628   0.415   3.795  0.5617  1.0699  0.9911
 2313SOL    MW4 9327   2.693   0.362   3.817  0.0670  0.1589  0.2563
 2314SOL     OW 9328   2.927   0.529   3.774  0.6261 -0.0102  0.1184
 2314SOL    HW2 9329   2.999   0.479   3.811 -0.1141 -1.4595 -0.3597
 2314SOL    HW3 9330   2.848   0.479   3.797 -0.1702  1.1958  0.0630
 2314SOL    MW4 9331   2.926   0.516   3.782  0.4232 -0.0423  0.0479
 2315SOL     OW 9332   2.927   0.794   3.878  0.4379 -0.5605  0.7544
 2315SOL    HW2 9333   2.998   0.844   3.837 -0.8839  0.4137 -0.3959
 2315SOL    HW3 9334   2.935   0.707   3.840  1.0628 -0.4690  0.6673
 2315SOL    MW4 9335   2.937   0.789   3.867  0.3459 -0.4199  0.5910
 2316SOL     OW 9336   2.703   0.870   3.726  0.0751  0.3053  0.7280
 2316SOL    HW2 9337   2.776   0.841   3.780 -0.6745 -2.4611  0.3487
 2316SOL    HW3 9338   2.625   0.847   3.776 -0.5919 -0.8602 -0.7702
 2316SOL    MW4 9339   2.702   0.863   3.739 -0.1118 -0.2134  0.4804
 2317SOL     OW 9340   2.729   1.138   3.851 -0.0284 -0.2295  0.3416
 2317SOL    HW2 9341   2.705   1.055   3.812  0.2015 -0.5238  0.8255
 2317SOL    HW3 9342   2.657   1.197   3.830  0.1267 -0.3676 -0.5830
 2317SOL    MW4 9343   2.716   1.135   3.843  0.0224 -0.2866  0.2832
 2318SOL     OW 9344   2.952   1.270   3.747  0.2134  0.5366  0.1161
 2318SOL    HW2 9345   2.939   1.350   3.798 -0.9888  0.3961  0.0485
 2318SOL    HW3 9346   2.886   1.209   3.782 -0.1069  0.1896 -1.0743
 2318SOL    MW4 9347   2.941   1.272   3.758  0.0124  0.4723 -0.0498
 2319SOL     OW 9348   2.929   1.504   3.924  0.2410 -0.1378  0.4463
 2319SOL    HW2 9349   2.938   1.522   4.017 -0.8324  0.2828  0.4743
 2319SOL    HW3 9350   2.994   1.560   3.882  0.8589 -0.4651  0.9465
 2319SOL    MW4 9351   2.939   1.513   3.931  0.1810 -0.1254  0.5162
 2320SOL     OW 9352   2.719   1.684   3.821  0.4833  0.0719 -0.0969
 2320SOL    HW2 9353   2.794   1.639   3.861 -1.1323 -1.0180  1.7769
 2320SOL    HW3 9354   2.729   1.666   3.727  0.9923 -2.5239  0.4105
 2320SOL    MW4 9355   2.730   1.675   3.814  0.3374 -0.4143  0.2172
 2321SOL     OW 9356   2.708   1.948   3.947 -0.3601 -0.5017  0.2411
 2321SOL    HW2 9357   2.710   1.856   3.922  0.8754 -0.4343  0.0374
 2321SOL    HW3 9358   2.649   1.989   3.883 -0.2713 -1.0107 -0.1747
 2321SOL    MW4 9359   2.700   1.941   3.935 -0.1853 -0.5599  0.1595
 2322SOL     OW 9360   2.903   2.087   3.778 -0.2596 -0.3488 -0.2560
 2322SOL    HW2 9361   2.909   2.168   3.828 -1.3038  0.4093 -1.3321
 2322SOL    HW3 9362   2.824   2.044   3.811 -0.0886 -0.5947 -0.1645
 2322SOL    MW4 9363   2.893   2.092   3.789 -0.3750 -0.2811 -0.3858
 2323SOL     OW 9364   2.935   2.355   3.890  0.2346  0.0007  0.2068
 2323SOL    HW2 9365   2.917   2.358   3.984 -0.2944  0.6229  0.0857
 2323SOL    HW3 9366   3.026   2.382   3.882  0.2166  0.1559  0.5243
 2323SOL    MW4 9367   2.945   2.359   3.901  0.1621  0.1032  0.2327
 2324SOL     OW 9368   2.732   2.482   3.730 -0.1396 -0.3189 -0.0901
 2324SOL    HW2 9369   2.728   2.571   3.765 -0.3784 -0.0295 -0.8498
 2324SOL    HW3 9370   2.799   2.438   3.783 -0.2098  0.2335  0.4555
 2324SOL    MW4 9371   2.740   2.488   3.742 -0.1805 -0.2079 -0.1180
 2325SOL     OW 9372   2.722   2.744   3.844 -0.3257  0.1807 -0.3067
 2325SOL    HW2 9373   2.728   2.712   3.934 -0.4644  0.3262 -0.2450
 2325SOL    HW3 9374   2.640   2.795   3.843 -0.1825  0.4060 -0.4443
 2325SOL    MW4 9375   2.712   2.746   3.856 -0.3250  0.2298 -0.3169
 2326SOL     OW 9376   2.879   3.144   3.803 -0.3298 -0.0784  0.3991
 2326SOL    HW2 9377   2.877   3.131   3.897 -0.1898  0.3082  0.4560
 2326SOL    HW3 9378   2.796   3.188   3.783 -0.0639  0.4314  0.4294
 2326SOL    MW4 9379   2.868   3.148   3.812 -0.2761  0.0398  0.4108
 2327SOL     OW 9380   2.738   3.294   4.221 -0.6513 -0.1015  0.5186
 2327SOL    HW2 9381   2.654   3.252   4.204  0.1619 -1.4338 -0.3787
 2327SOL    HW3 9382   2.738   3.312   4.315 -1.9335 -0.1014  0.5190
 2327SOL    MW4 9383   2.727   3.291   4.231 -0.7131 -0.2770  0.4001
 2328SOL     OW 9384   2.652   3.266   3.714 -0.2531  0.1355 -0.5556
 2328SOL    HW2 9385   2.669   3.347   3.762 -0.4457  0.5558 -1.1879
 2328SOL    HW3 9386   2.595   3.215   3.771 -0.2771  0.5256 -0.2298
 2328SOL    MW4 9387   2.647   3.270   3.728 -0.2818  0.2425 -0.5960
 2329SOL     OW 9388   2.773   3.484   3.845  0.3241  0.4372  0.0808
 2329SOL    HW2 9389   2.770   3.495   3.940 -0.6158  1.9534 -0.1160
 2329SOL    HW3 9390   2.856   3.523   3.819  0.1182  0.9404  0.1710
 2329SOL    MW4 9391   2.784   3.490   3.854  0.1731  0.7038  0.0668
 2330SOL     OW 9392   3.025   3.607   3.794  0.2860 -0.0754  0.1019
 2330SOL    HW2 9393   3.078   3.539   3.837  0.2782  0.1316  0.4390
 2330SOL    HW3 9394   3.031   3.587   3.701 -1.2936 -1.7159  0.3067
 2330SOL    MW4 9395   3.033   3.595   3.788  0.0763 -0.2644  0.1736
 2331SOL     OW 9396   2.952   3.875   3.832 -0.0989  0.2610  0.0951
 2331SOL    HW2 9397   2.968   3.881   3.927 -0.2987 -1.3123  0.2426
 2331SOL    HW3 9398   2.960   3.781   3.813  0.0289  0.5870 -1.4657
 2331SOL    MW4 9399   2.955   3.863   3.842 -0.1082  0.0966 -0.0913
 2332SOL     OW 9400   2.729   4.014   3.732  0.3671  0.0817 -0.1264
 2332SOL    HW2 9401   2.705   4.098   3.771 -0.8243  0.0278 -0.7302
 2332SOL    HW3 9402   2.798   3.980   3.789 -1.3218  0.0242  1.9347
 2332SOL    MW4 9403   2.735   4.020   3.745 -0.0129  0.0677  0.0660
 2333SOL     OW 9404   2.709   4.277   3.840 -0.1421  0.4061  0.0874
 2333SOL    HW2 9405   2.776   4.341   3.817 -0.1950  0.7425  0.8584
 2333SOL    HW3 9406   2.627   4.327   3.841 -0.2346  0.2515  0.3351
 2333SOL    MW4 9407   2.707   4.292   3.837 -0.1612  0.4296  0.2217
 2334SOL     OW 9408   2.929   4.465   3.775  0.1316  0.0024 -0.1068
 2334SOL    HW2 9409   2.997   4.415   3.820 -0.0389  0.5484  0.7835
 2334SOL    HW3 9410   2.916   4.543   3.830 -0.4180  0.4508 -0.8592
 2334SOL    MW4 9411   2.936   4.469   3.788  0.0367  0.1335 -0.0887
 2335SOL     OW 9412   3.361   0.016   3.911  0.1040  0.3082 -0.0792
 2335SOL    HW2 9413   3.387   0.022   4.003  0.8930 -0.3769 -0.2427
 2335SOL    HW3 9414   3.438   0.046   3.863  0.6415 -1.7889 -0.5788
 2335SOL    MW4 9415   3.375   0.020   3.917  0.2792 -0.0587 -0.1667
 2336SOL     OW 9416   3.120   0.102   3.809 -0.3968  0.0079 -0.1749
 2336SOL    HW2 9417   3.201   0.056   3.834  0.0606  0.5840 -0.5811
 2336SOL    HW3 9418   3.130   0.117   3.715 -0.9432  0.1593 -0.2057
 2336SOL    MW4 9419   3.132   0.098   3.800 -0.4086  0.1039 -0.2327
 2337SOL     OW 9420   3.129   0.367   3.887  0.9011 -0.2779  0.4207
 2337SOL    HW2 9421   3.131   0.370   3.982  0.3938 -0.2651  0.4301
 2337SOL    HW3 9422   3.122   0.274   3.865  0.8690 -0.2700  0.3973
 2337SOL    MW4 9423   3.128   0.355   3.897  0.8297 -0.2752  0.4189
 2338SOL     OW 9424   3.379   0.480   3.783 -0.3658  0.1281  0.0308
 2338SOL    HW2 9425   3.457   0.428   3.800 -0.0622  0.3814 -0.5736
 2338SOL    HW3 9426   3.307   0.428   3.820 -0.0828 -0.7796 -0.6632
 2338SOL    MW4 9427   3.379   0.466   3.790 -0.2885  0.0418 -0.1404
 2339SOL     OW 9428   3.405   0.739   3.850 -0.1769 -0.0267 -0.4144
 2339SOL    HW2 9429   3.394   0.734   3.945  0.5434 -1.1821 -0.3829
 2339SOL    HW3 9430   3.392   0.649   3.820 -2.3862  0.6723 -1.6461
 2339SOL    MW4 9431   3.402   0.727   3.859 -0.3734 -0.0869 -0.5729
 2340SOL     OW 9432   3.156   0.908   3.752  0.2114  0.0813  0.3660
 2340SOL    HW2 9433   3.231   0.866   3.795 -0.2640 -0.0137  1.1142
 2340SOL    HW3 9434   3.163   0.881   3.661  0.6908 -0.5104  0.5673
 2340SOL    MW4 9435   3.167   0.899   3.746  0.2122 -0.0093  0.4911
 2341SOL     OW 9436   3.162   1.171   3.913 -0.2312 -0.4623 -0.8232
 2341SOL    HW2 9437   3.165   1.092   3.858  0.0447  0.0957 -1.6166
 2341SOL    HW3 9438   3.087   1.220   3.880  0.3356  0.1946 -1.1412
 2341SOL    MW4 9439   3.152   1.167   3.902 -0.1202 -0.3021 -0.9699
 2342SOL     OW 9440   3.362   1.304   3.781 -0.1656  0.0464 -0.1641
 2342SOL    HW2 9441   3.293   1.254   3.825 -0.4329  0.6123  0.0700
 2342SOL    HW3 9442   3.347   1.288   3.688 -0.4277 -0.0777 -0.1024
 2342SOL    MW4 9443   3.351   1.295   3.775 -0.2353  0.1047 -0.1249
 2343SOL     OW 9444   3.333   1.578   3.848 -0.0677 -0.1299  0.8081
 2343SOL    HW2 9445   3.252   1.613   3.810 -0.8601 -1.5017  1.1877
 2343SOL    HW3 9446   3.334   1.486   3.822  2.0489  0.1697 -0.2814
 2343SOL    MW4 9447   3.322   1.570   3.840  0.1068 -0.2713  0.7145
 2344SOL     OW 9448   3.079   1.678   3.761  0.2414  0.1592 -0.1801
 2344SOL    HW2 9449   3.093   1.771   3.776  0.8225  0.0505 -0.0460
 2344SOL    HW3 9450   3.107   1.664   3.670 -0.8354  0.3139 -0.5478
 2344SOL    MW4 9451   3.085   1.688   3.751  0.1760  0.1651 -0.2110
 2345SOL     OW 9452   3.129   1.940   3.849  0.1481 -0.0328 -0.2100
 2345SOL    HW2 9453   3.126   1.932   3.945  0.5745  0.1777 -0.1746
 2345SOL    HW3 9454   3.056   1.999   3.828 -0.2611 -0.4857 -0.0634
 2345SOL    MW4 9455   3.119   1.947   3.859  0.1504 -0.0647 -0.1857
 2346SOL     OW 9456   3.349   2.089   3.772 -0.0227 -0.0138 -0.1144
 2346SOL    HW2 9457   3.273   2.039   3.802  0.1302 -0.2369 -0.0989
 2346SOL    HW3 9458   3.353   2.074   3.678 -0.7720  1.0527 -0.3310
 2346SOL    MW4 9459   3.340   2.081   3.764 -0.1011  0.0978 -0.1409
 2347SOL     OW 9460   3.581   2.456   3.742 -0.3262  0.4693 -0.4290
 2347SOL    HW2 9461   3.504   2.403   3.763 -0.0651 -0.2199 -1.2154
 2347SOL    HW3 9462   3.585   2.457   3.647 -1.1093  3.0489 -0.4883
 2347SOL    MW4 9463   3.571   2.449   3.732 -0.3951  0.7191 -0.5405
 2348SOL     OW 9464   3.280   2.354   3.779 -0.1170  0.1429 -0.1233
 2348SOL    HW2 9465   3.246   2.369   3.690 -2.1551 -1.7863  0.2916
 2348SOL    HW3 9466   3.303   2.261   3.780  1.1507  0.4577  0.9851
 2348SOL    MW4 9467   3.279   2.344   3.767 -0.2186 -0.0701  0.0775
 2349SOL     OW 9468   2.950   2.894   3.710  0.4318  0.1533  0.5035
 2349SOL    HW2 9469   2.886   2.837   3.753 -0.3238  0.6117 -0.0208
 2349SOL    HW3 9470   2.928   2.982   3.740  0.6305  0.3465  0.0800
 2349SOL    MW4 9471   2.939   2.898   3.720  0.3583  0.2394  0.3781
 2350SOL     OW 9472   3.449   2.821   3.784 -0.3306 -0.0173 -0.0622
 2350SOL    HW2 9473   3.358   2.792   3.789 -0.6072  1.0472  1.7020
 2350SOL    HW3 9474   3.460   2.851   3.694 -1.4620 -0.9474 -0.5254
 2350SOL    MW4 9475   3.438   2.821   3.773 -0.5162  0.0002  0.1094
 2351SOL     OW 9476   3.320   3.081   3.803  0.3716  0.4335  0.5449
 2351SOL    HW2 9477   3.402   3.120   3.772  1.0994 -1.0323  0.5685
 2351SOL    HW3 9478   3.330   2.987   3.785 -1.0622  0.1678  1.0850
 2351SOL    MW4 9479   3.332   3.073   3.797  0.2782  0.2050  0.6192
 2352SOL     OW 9480   3.116   3.264   3.735  0.2705  0.0165 -0.3701
 2352SOL    HW2 9481   3.194   3.211   3.750  0.0852 -0.4523 -1.0453
 2352SOL    HW3 9482   3.043   3.206   3.758  0.0874  0.1610 -0.5830
 2352SOL    MW4 9483   3.117   3.249   3.740  0.2220 -0.0260 -0.4871
 2353SOL     OW 9484   3.196   3.435   3.949  0.1377 -0.2363  0.1202
 2353SOL    HW2 9485   3.259   3.469   3.885 -2.0819  0.3351 -1.8337
 2353SOL    HW3 9486   3.157   3.359   3.906  0.5152 -1.4395  1.8907
 2353SOL    MW4 9487   3.199   3.429   3.935 -0.1054 -0.3197  0.0963
 2354SOL     OW 9488   3.367   3.572   3.770 -0.2745 -0.1060  0.3632
 2354SOL    HW2 9489   3.349   3.663   3.795 -0.2441  0.3142 -1.0715
 2354SOL    HW3 9490   3.358   3.572   3.675  0.9531 -1.3356  0.2382
 2354SOL    MW4 9491   3.364   3.584   3.761 -0.1087 -0.2127  0.1574
 2355SOL     OW 9492   3.329   3.832   3.845 -0.3067  0.2910 -0.0117
 2355SOL    HW2 9493   3.406   3.865   3.798 -0.5458 -0.7517 -1.1482
 2355SOL    HW3 9494   3.264   3.902   3.836 -0.3408  0.1068 -1.2069
 2355SOL    MW4 9495   3.331   3.846   3.838 -0.3426  0.1292 -0.3195
 2356SOL     OW 9496   3.165   4.038   3.758  0.0108 -0.3354 -0.0138
 2356SOL    HW2 9497   3.155   4.120   3.807 -1.0233  0.0192 -0.7953
 2356SOL    HW3 9498   3.082   3.992   3.772  0.9204 -1.6644  1.1412
 2356SOL    MW4 9499   3.153   4.043   3.767 -0.0057 -0.4644  0.0353
 2357SOL     OW 9500   3.140   4.278   3.869 -0.5255 -0.1152 -0.5229
 2357SOL    HW2 9501   3.145   4.288   3.964 -1.9661  1.3806 -0.5833
 2357SOL    HW3 9502   3.219   4.321   3.835  0.3010 -1.1871  0.0128
 2357SOL    MW4 9503   3.151   4.285   3.877 -0.6065 -0.0591 -0.4601
 2358SOL     OW 9504   3.368   4.414   3.785 -0.0997 -0.1332  0.0515
 2358SOL    HW2 9505   3.435   4.350   3.808  0.5154  0.5562  0.1990
 2358SOL    HW3 9506   3.381   4.486   3.847 -1.9687 -0.6572  1.0952
 2358SOL    MW4 9507   3.379   4.415   3.797 -0.2651 -0.1111  0.2089
 2359SOL     OW 9508   3.796   4.622   3.878 -0.3358 -0.0012  0.5290
 2359SOL    HW2 9509   3.882   4.660   3.862 -0.5361  0.3633  0.3010
 2359SOL    HW3 9510   3.803   4.532   3.846 -0.5171  0.5048 -0.9844
 2359SOL    MW4 9511   3.808   4.615   3.872 -0.3860  0.1140  0.2995
 2360SOL     OW 9512   3.600   0.113   3.752  0.5677  0.4256 -0.2410
 2360SOL    HW2 9513   3.668   0.051   3.776 -0.0117 -0.5122 -0.9895
 2360SOL    HW3 9514   3.624   0.142   3.664  0.5843  0.9187 -0.0762
 2360SOL    MW4 9515   3.612   0.109   3.743  0.4935  0.3670 -0.3181
 2361SOL     OW 9516   3.602   0.359   3.882  0.2220  0.2137 -0.3484
 2361SOL    HW2 9517   3.667   0.411   3.835  1.2439 -0.3554  0.4270
 2361SOL    HW3 9518   3.607   0.272   3.843  0.3830 -0.0015  0.1423
 2361SOL    MW4 9519   3.611   0.355   3.871  0.3779  0.1102 -0.1814
 2362SOL     OW 9520   3.809   0.509   3.772  0.2199 -0.1781 -0.0946
 2362SOL    HW2 9521   3.878   0.465   3.822 -1.1636 -1.4319  0.7254
 2362SOL    HW3 9522   3.800   0.595   3.814 -0.5213 -0.9943  1.4508
 2362SOL    MW4 9523   3.817   0.515   3.784 -0.0603 -0.4513  0.2177
 2363SOL     OW 9524   3.831   0.777   3.891 -0.0470  0.6248 -0.4267
 2363SOL    HW2 9525   3.910   0.815   3.853 -1.0458  2.2355 -0.9083
 2363SOL    HW3 9526   3.759   0.825   3.851 -1.2854 -0.7886  0.0605
 2363SOL    MW4 9527   3.832   0.788   3.881 -0.3421  0.6509 -0.4263
 2364SOL     OW 9528   3.615   0.885   3.749 -0.1931  0.1470 -0.3094
 2364SOL    HW2 9529   3.613   0.973   3.786 -2.1396  0.8980 -2.0619
 2364SOL    HW3 9530   3.538   0.842   3.787 -0.3437 -0.1448 -0.9385
 2364SOL    MW4 9531   3.604   0.891   3.759 -0.4699  0.2075 -0.6235
 2365SOL     OW 9532   3.575   1.130   3.879 -0.0727 -0.2948 -0.5061
 2365SOL    HW2 9533   3.656   1.176   3.855 -0.3676 -1.2659 -3.5836
 2365SOL    HW3 9534   3.505   1.187   3.846 -0.6127 -0.0804  0.9930
 2365SOL    MW4 9535   3.577   1.144   3.871 -0.1829 -0.3947 -0.7143
 2366SOL     OW 9536   3.818   1.240   3.768  0.0191  0.7482 -0.0671
 2366SOL    HW2 9537   3.902   1.209   3.800 -0.1666  0.3273  0.0246
 2366SOL    HW3 9538   3.821   1.335   3.779  0.8933  0.8463 -1.0635
 2366SOL    MW4 9539   3.829   1.248   3.774  0.1104  0.7056 -0.1867
 2367SOL     OW 9540   3.799   1.502   3.802  0.2642 -0.2085  0.1118
 2367SOL    HW2 9541   3.798   1.497   3.898 -1.4169 -0.0678  0.1246
 2367SOL    HW3 9542   3.741   1.576   3.782  0.5359 -0.2958 -1.0244
 2367SOL    MW4 9543   3.791   1.511   3.812  0.0784 -0.2016 -0.0365
 2368SOL     OW 9544   3.584   1.694   3.819 -0.1186 -0.1463  0.0578
 2368SOL    HW2 9545   3.500   1.655   3.845 -0.2931  0.0012 -0.2944
 2368SOL    HW3 9546   3.583   1.694   3.724 -0.3030  1.1318  0.0538
 2368SOL    MW4 9547   3.573   1.689   3.810 -0.1659  0.0418  0.0110
 2369SOL     OW 9548   3.551   1.997   3.909 -0.2308  0.0658  0.2845
 2369SOL    HW2 9549   3.564   1.906   3.883  1.7832  0.9017 -1.8259
 2369SOL    HW3 9550   3.490   2.032   3.844 -0.9670  0.2554  1.0670
 2369SOL    MW4 9551   3.545   1.990   3.897 -0.0620  0.2012  0.1092
 2370SOL     OW 9552   3.794   2.072   3.761  0.0731 -0.0936 -0.2327
 2370SOL    HW2 9553   3.881   2.038   3.785  0.0383  0.1729  0.2713
 2370SOL    HW3 9554   3.735   2.033   3.826 -0.3745 -1.2726 -1.3235
 2370SOL    MW4 9555   3.798   2.062   3.773  0.0095 -0.2139 -0.3104
 2371SOL     OW 9556   4.055   2.410   3.741  0.8573  0.1607 -0.3810
 2371SOL    HW2 9557   4.051   2.505   3.740  0.6843  0.1624  0.8613
 2371SOL    HW3 9558   3.975   2.382   3.785  0.5167 -0.5929 -1.4405
 2371SOL    MW4 9559   4.044   2.419   3.746  0.7896  0.0615 -0.3567
 2372SOL     OW 9560   3.813   2.339   3.827 -0.2565 -0.2715 -0.1496
 2372SOL    HW2 9561   3.809   2.249   3.795 -3.6323 -0.9702  1.9583
 2372SOL    HW3 9562   3.737   2.382   3.788 -0.3282  0.8212  1.1547
 2372SOL    MW4 9563   3.803   2.333   3.818 -0.7114 -0.2196  0.3006
 2373SOL     OW 9564   3.597   2.651   3.936 -0.2672  0.4477 -0.5239
 2373SOL    HW2 9565   3.587   2.570   3.886 -0.7960 -0.0107  0.3212
 2373SOL    HW3 9566   3.539   2.713   3.893 -0.6826  0.0678 -0.5158
 2373SOL    MW4 9567   3.588   2.648   3.924 -0.3920  0.3371 -0.4113
 2374SOL     OW 9568   3.786   2.795   3.724  0.0224 -0.1019  0.1683
 2374SOL    HW2 9569   3.869   2.749   3.735 -0.4602 -0.9468  0.3254
 2374SOL    HW3 9570   3.724   2.746   3.777 -0.1615  1.6910  1.6786
 2374SOL    MW4 9571   3.788   2.783   3.733 -0.0656  0.0231  0.3884
 2375SOL     OW 9572   3.774   3.036   3.832  0.1290 -0.8925 -0.1537
 2375SOL    HW2 9573   3.700   3.080   3.791  0.2896 -0.8832 -0.4384
 2375SOL    HW3 9574   3.767   2.945   3.803 -0.1620 -1.0422  0.3763
 2375SOL    MW4 9575   3.763   3.030   3.823  0.1116 -0.9112 -0.1216
 2376SOL     OW 9576   3.576   3.194   3.725  0.0564 -0.6104 -0.1724
 2376SOL    HW2 9577   3.588   3.280   3.766  1.5330 -1.2301  0.7587
 2376SOL    HW3 9578   3.579   3.211   3.631 -1.1522  0.5438 -0.0150
 2376SOL    MW4 9579   3.578   3.208   3.718  0.0918 -0.5398 -0.0286
 2377SOL     OW 9580   3.614   3.439   3.852 -0.6089  0.1940  0.0876
 2377SOL    HW2 9581   3.594   3.442   3.945  0.1033 -0.9033  0.2914
 2377SOL    HW3 9582   3.544   3.488   3.810 -0.9995  0.5877  1.1895
 2377SOL    MW4 9583   3.602   3.446   3.859 -0.5660  0.1011  0.2601
 2378SOL     OW 9584   3.814   3.581   3.742 -0.3653  0.4991 -0.0176
 2378SOL    HW2 9585   3.814   3.668   3.780 -1.8730  0.2100  0.6782
 2378SOL    HW3 9586   3.733   3.541   3.774  1.0149 -1.6702  0.8482
 2378SOL    MW4 9587   3.803   3.587   3.751 -0.3819  0.1750  0.1886
 2379SOL     OW 9588   3.794   3.847   3.846  0.0688  0.4588 -0.5453
 2379SOL    HW2 9589   3.789   3.836   3.941 -1.1918 -1.4925 -0.8108
 2379SOL    HW3 9590   3.868   3.907   3.833 -0.0580  1.1673  1.6782
 2379SOL    MW4 9591   3.803   3.854   3.857 -0.1144  0.2949 -0.2871
 2380SOL     OW 9592   3.560   3.955   3.775  0.2796 -0.2658 -0.1111
 2380SOL    HW2 9593   3.551   4.041   3.814 -1.6383  0.1266 -1.3265
 2380SOL    HW3 9594   3.649   3.927   3.795  0.6678  1.6910  0.8916
 2380SOL    MW4 9595   3.570   3.962   3.783  0.0780  0.0443 -0.1392
 2381SOL     OW 9596   3.551   4.212   3.895 -0.2769 -0.6629 -0.4746
 2381SOL    HW2 9597   3.544   4.222   3.990  0.8122 -0.3516 -0.4226
 2381SOL    HW3 9598   3.632   4.256   3.872  0.2472 -2.0303 -1.3506
 2381SOL    MW4 9599   3.561   4.219   3.905 -0.0641 -0.8025 -0.5834
 2382SOL     OW 9600   3.764   4.340   3.792  0.3282  0.2447  0.2463
 2382SOL    HW2 9601   3.844   4.312   3.836 -0.2190  0.8913  1.7003
 2382SOL    HW3 9602   3.779   4.319   3.700  1.8579 -0.3408  0.6020
 2382SOL    MW4 9603   3.777   4.334   3.785  0.4578  0.2527  0.4847
 2383SOL     OW 9604   4.246   4.612   3.901  0.4231 -0.5348  0.1869
 2383SOL    HW2 9605   4.251   4.615   3.997  0.8707 -0.0309  0.1501
 2383SOL    HW3 9606   4.333   4.637   3.872  0.4041 -1.0782 -0.3503
 2383SOL    MW4 9607   4.258   4.616   3.910  0.4792 -0.5400  0.1113
 2384SOL     OW 9608   4.034   0.044   3.743  0.0507 -0.0062 -0.6680
 2384SOL    HW2 9609   4.112   0.009   3.785 -1.0132 -1.0621  0.4493
 2384SOL    HW3 9610   4.056   0.047   3.650  1.6925  0.4555 -0.2818
 2384SOL    MW4 9611   4.047   0.040   3.736  0.1264 -0.0846 -0.4697
 2385SOL     OW 9612   4.049   0.324   3.861  0.6227  0.1106 -0.0404
 2385SOL    HW2 9613   4.060   0.304   3.954  0.1405 -1.2547 -0.2649
 2385SOL    HW3 9614   4.036   0.239   3.820 -0.1593  0.7896 -1.2206
 2385SOL    MW4 9615   4.049   0.310   3.868  0.4559  0.0201 -0.2255
 2386SOL     OW 9616   4.240   0.479   3.749 -0.3419  0.4669 -0.1876
 2386SOL    HW2 9617   4.170   0.427   3.788 -0.8503  1.0024 -0.3705
 2386SOL    HW3 9618   4.230   0.466   3.655 -1.9064  2.6823 -0.3605
 2386SOL    MW4 9619   4.230   0.470   3.742 -0.6151  0.8298 -0.2344
 2387SOL     OW 9620   4.235   0.742   3.891  0.8857  0.0007 -0.1934
 2387SOL    HW2 9621   4.157   0.788   3.859  2.0364  1.1556 -1.3845
 2387SOL    HW3 9622   4.237   0.660   3.841 -0.1750 -0.5844  0.6699
 2387SOL    MW4 9623   4.225   0.737   3.880  0.8974  0.0759 -0.2367
 2388SOL     OW 9624   4.037   0.873   3.744  0.5099 -0.0336  0.1453
 2388SOL    HW2 9625   4.053   0.965   3.764  2.0603 -0.0888 -0.7247
 2388SOL    HW3 9626   4.007   0.873   3.653 -2.2356 -0.1590  1.0188
 2388SOL    MW4 9627   4.035   0.885   3.735  0.3519 -0.0575  0.1457
 2389SOL     OW 9628   4.056   1.121   3.866  0.0161 -0.2409  0.1434
 2389SOL    HW2 9629   4.057   1.102   3.960 -0.3690  0.1592  0.2292
 2389SOL    HW3 9630   4.141   1.161   3.848  0.3143 -0.8309  0.2114
 2389SOL    MW4 9631   4.067   1.124   3.876  0.0048 -0.2661  0.1638
 2390SOL     OW 9632   4.276   1.283   3.777 -0.1923  0.1555  0.0517
 2390SOL    HW2 9633   4.269   1.369   3.818  0.8105  0.2480  0.0302
 2390SOL    HW3 9634   4.269   1.300   3.683 -1.7157  0.0223  0.1182
 2390SOL    MW4 9635   4.274   1.296   3.770 -0.2613  0.1501  0.0575
 2391SOL     OW 9636   4.230   1.557   3.883  0.0350  0.4354  0.7412
 2391SOL    HW2 9637   4.158   1.604   3.841  0.3582  1.4107  1.2483
 2391SOL    HW3 9638   4.308   1.607   3.857  0.3368  0.4440  1.6653
 2391SOL    MW4 9639   4.231   1.570   3.874  0.1178  0.5653  0.9298
 2392SOL     OW 9640   4.036   1.655   3.745 -0.3958 -0.0939  0.5153
 2392SOL    HW2 9641   4.022   1.744   3.775 -1.1826 -0.2900  0.7453
 2392SOL    HW3 9642   3.958   1.608   3.772 -0.4409 -0.6234 -0.4945
 2392SOL    MW4 9643   4.024   1.660   3.752 -0.5064 -0.1897  0.4127
 2393SOL     OW 9644   4.026   1.927   3.827 -0.5615 -0.1229  0.3491
 2393SOL    HW2 9645   4.021   1.970   3.912  0.5125 -0.0192  0.3754
 2393SOL    HW3 9646   4.110   1.956   3.791 -0.8374 -0.4617 -0.5824
 2393SOL    MW4 9647   4.037   1.936   3.833 -0.4568 -0.1540  0.2296
 2394SOL     OW 9648   4.278   2.024   3.746  0.0854  0.3164  0.4005
 2394SOL    HW2 9649   4.271   2.106   3.796 -2.3864  0.3227  0.0738
 2394SOL    HW3 9650   4.284   2.052   3.655  1.1755  0.1794  0.4208
 2394SOL    MW4 9651   4.278   2.039   3.741 -0.0973  0.2990  0.3600
 2395SOL     OW 9652   4.281   2.309   4.139 -0.0050 -0.0378 -0.4179
 2395SOL    HW2 9653   4.195   2.340   4.168  0.0924  1.3537 -1.5878
 2395SOL    HW3 9654   4.291   2.224   4.182 -1.1813  0.5989  1.1547
 2395SOL    MW4 9655   4.271   2.302   4.149 -0.1478  0.2296 -0.3648
 2396SOL     OW 9656   4.268   2.293   3.856 -0.0291  0.1305  0.1909
 2396SOL    HW2 9657   4.271   2.309   3.950  0.3995 -0.2893  0.2502
 2396SOL    HW3 9658   4.185   2.332   3.828 -1.0252 -1.3294  1.0413
 2396SOL    MW4 9659   4.257   2.300   3.865 -0.1040 -0.1173  0.3107
 2397SOL     OW 9660   4.048   2.667   3.779  0.3200  0.4916 -0.1327
 2397SOL    HW2 9661   4.030   2.676   3.873 -0.8881  1.4975 -0.4524
 2397SOL    HW3 9662   4.135   2.706   3.768 -0.1532  1.6779  0.3251
 2397SOL    MW4 9663   4.057   2.673   3.790  0.0978  0.7808 -0.1144
 2398SOL     OW 9664   4.292   2.777   3.756  0.4042 -0.3395  0.3317
 2398SOL    HW2 9665   4.301   2.861   3.802  0.4232 -0.3125  0.2784
 2398SOL    HW3 9666   4.362   2.723   3.792  0.2815 -0.3905  0.4948
 2398SOL    MW4 9667   4.302   2.781   3.767  0.3905 -0.3428  0.3464
 2399SOL     OW 9668   4.266   3.040   3.864 -0.0416 -0.2848  0.2712
 2399SOL    HW2 9669   4.180   3.063   3.829  0.8034 -2.2066 -3.3142
 2399SOL    HW3 9670   4.327   3.098   3.818  0.7324 -0.0016  1.6354
 2399SOL    MW4 9671   4.263   3.050   3.853  0.1721 -0.5009 -0.0217
 2400SOL     OW 9672   4.015   3.141   3.777  0.2060  0.3791 -0.4844
 2400SOL    HW2 9673   3.928   3.119   3.811  0.0216  1.1004 -0.4718
 2400SOL    HW3 9674   4.005   3.143   3.682 -0.0672  1.5225 -0.4478
 2400SOL    MW4 9675   4.002   3.139   3.769  0.1454  0.6251 -0.4780
 2401SOL     OW 9676   4.042   3.421   3.847  0.3745 -0.1871  0.5084
 2401SOL    HW2 9677   4.029   3.341   3.795 -1.1392 -0.8032  1.8104
 2401SOL    HW3 9678   3.961   3.470   3.835  0.6906  0.4370  0.9519
 2401SOL    MW4 9679   4.030   3.417   3.838  0.2165 -0.1862  0.7389
 2402SOL     OW 9680   4.265   3.587   3.829 -0.2149  0.2411  0.0747
 2402SOL    HW2 9681   4.199   3.520   3.842  0.0532  0.0780  0.5867
 2402SOL    HW3 9682   4.347   3.549   3.861  0.6577 -0.5046 -2.8389
 2402SOL    MW4 9683   4.267   3.573   3.835 -0.0644  0.1211 -0.2425
 2403SOL     OW 9684   4.260   3.849   3.886 -0.0415 -0.4000  0.2402
 2403SOL    HW2 9685   4.188   3.893   3.842 -0.6948 -0.6245  1.0783
 2403SOL    HW3 9686   4.253   3.758   3.860  0.4092 -0.2924 -0.2863
 2403SOL    MW4 9687   4.250   3.843   3.877 -0.0687 -0.4156  0.2813
 2404SOL     OW 9688   4.044   3.982   3.770 -0.1883  0.0885 -0.1546
 2404SOL    HW2 9689   4.042   4.067   3.814  1.2665 -0.0479  0.1765
 2404SOL    HW3 9690   4.031   4.003   3.677  0.3831  0.6924 -0.1022
 2404SOL    MW4 9691   4.042   3.996   3.763  0.0787  0.1502 -0.1040
 2405SOL     OW 9692   4.014   4.222   3.885 -0.0601 -0.0066  0.0070
 2405SOL    HW2 9693   4.006   4.231   3.980  1.9281  0.9160  0.1081
 2405SOL    HW3 9694   4.087   4.280   3.862 -0.8363  0.1455 -2.1456
 2405SOL    MW4 9695   4.022   4.231   3.894  0.0997  0.1354 -0.2637
 2406SOL     OW 9696   4.230   4.384   3.785  0.5251 -0.5444  0.1443
 2406SOL    HW2 9697   4.231   4.467   3.832  1.9348 -1.0719  1.0593
 2406SOL    HW3 9698   4.304   4.334   3.821 -1.8736 -3.2815  1.5562
 2406SOL    MW4 9699   4.240   4.388   3.796  0.3948 -0.9747  0.4511
 2407SOL     OW 9700   0.202   4.601   4.168  0.0463 -0.4550 -0.6038
 2407SOL    HW2 9701   0.289   4.640   4.174  0.0382 -0.3824 -0.9120
 2407SOL    HW3 9702   0.209   4.519   4.217 -0.3372  0.6026  1.2334
 2407SOL    MW4 9703   0.215   4.595   4.175 -0.0053 -0.3066 -0.4015
 2408SOL     OW 9704   4.470   0.085   4.253 -0.2300 -0.7044 -0.2140
 2408SOL    HW2 9705   4.484   0.085   4.348  1.6970 -0.3521 -0.4756
 2408SOL    HW3 9706   4.535   0.024   4.219  0.0924  0.2876 -1.4316
 2408SOL    MW4 9707   4.480   0.077   4.261  0.0668 -0.5270 -0.4091
 2409SOL     OW 9708   4.456   0.359   4.191 -0.4990  0.0924  0.5098
 2409SOL    HW2 9709   4.445   0.265   4.204 -0.9259 -0.0219 -0.6351
 2409SOL    HW3 9710   4.455   0.370   4.096  2.6283  0.8593  0.4978
 2409SOL    MW4 9711   4.455   0.348   4.180 -0.1428  0.1785  0.3572
 2410SOL     OW 9712   0.219   0.419   4.295 -0.0654  0.0584 -0.0188
 2410SOL    HW2 9713   0.281   0.394   4.226  0.0248 -1.2308  0.5107
 2410SOL    HW3 9714   0.134   0.393   4.262 -0.0260 -0.5301  0.3252
 2410SOL    MW4 9715   0.216   0.412   4.282 -0.0483 -0.1893  0.0963
 2411SOL     OW 9716   0.235   0.699   4.174  0.5404 -0.5261  0.2553
 2411SOL    HW2 9717   0.144   0.716   4.198  0.2986 -1.1012 -0.2570
 2411SOL    HW3 9718   0.251   0.609   4.203  0.8436 -0.5455  0.0240
 2411SOL    MW4 9719   0.225   0.689   4.181  0.5485 -0.6046  0.1574
 2412SOL     OW 9720   4.466   0.812   4.236 -0.1029 -0.3259 -0.1510
 2412SOL    HW2 9721   4.388   0.762   4.212 -1.6276  0.6073  2.6901
 2412SOL    HW3 9722   4.449   0.900   4.202 -0.2012 -0.1849  0.2567
 2412SOL    MW4 9723   4.454   0.817   4.228 -0.3171 -0.1842  0.2775
 2413SOL     OW 9724   4.459   1.112   4.156 -0.3243  0.1066  0.4645
 2413SOL    HW2 9725   4.541   1.139   4.198  0.1577  0.1528 -0.4895
 2413SOL    HW3 9726   4.474   1.126   4.063 -1.7098  0.8647  0.3402
 2413SOL    MW4 9727   4.472   1.118   4.149 -0.4430  0.2127  0.3223
 2414SOL     OW 9728   0.212   1.208   4.237  0.2497  0.1620  0.0166
 2414SOL    HW2 9729   0.232   1.205   4.330  0.2007  1.9443  0.1128
 2414SOL    HW3 9730   0.292   1.177   4.194  0.0742 -1.2113  0.6495
 2414SOL    MW4 9731   0.225   1.204   4.243  0.2201  0.2159  0.1130
 2415SOL     OW 9732   0.071   1.717   4.516 -0.6255 -0.0289  0.2288
 2415SOL    HW2 9733  -0.006   1.708   4.572 -0.4312 -1.0130  0.3423
 2415SOL    HW3 9734   0.037   1.704   4.427 -0.6938  0.1422  0.2297
 2415SOL    MW4 9735   0.057   1.714   4.512 -0.6089 -0.1363  0.2437
 2416SOL     OW 9736   0.030   1.644   4.239 -0.1396  0.2440  0.2482
 2416SOL    HW2 9737  -0.053   1.611   4.205  0.2712 -0.2683 -0.2705
 2416SOL    HW3 9738   0.044   1.727   4.194 -0.8224  0.7750  1.0169
 2416SOL    MW4 9739   0.021   1.651   4.229 -0.1755  0.2465  0.2809
 2417SOL     OW 9740   0.242   2.056   4.210 -0.0506  0.7090 -0.0854
 2417SOL    HW2 9741   0.233   2.025   4.299 -0.4866 -0.1358 -0.4192
 2417SOL    HW3 9742   0.311   2.001   4.172 -2.7737 -1.8548 -1.5426
 2417SOL    MW4 9743   0.250   2.045   4.216 -0.4674  0.2594 -0.3219
 2418SOL     OW 9744   0.478   1.845   4.553 -0.1911 -0.3084 -0.1047
 2418SOL    HW2 9745   0.403   1.904   4.543 -0.4286 -0.7154 -0.7565
 2418SOL    HW3 9746   0.444   1.759   4.526  0.9416 -0.1974 -1.9285
 2418SOL    MW4 9747   0.463   1.841   4.548 -0.0730 -0.3475 -0.4315
 2419SOL     OW 9748   0.227   2.336   4.161 -0.4493 -0.1407  0.3680
 2419SOL    HW2 9749   0.296   2.380   4.212  0.2696 -1.7285  0.8098
 2419SOL    HW3 9750   0.247   2.242   4.171 -1.2014 -0.5207 -1.5869
 2419SOL    MW4 9751   0.239   2.329   4.169 -0.4536 -0.4003  0.1683
 2420SOL     OW 9752   4.489   2.434   4.290  0.2564  0.1826  0.2749
 2420SOL    HW2 9753   4.413   2.382   4.263  0.3129  1.7441 -3.1106
 2420SOL    HW3 9754   4.561   2.398   4.239  1.7521 -0.9783  3.1218
 2420SOL    MW4 9755   4.488   2.422   4.280  0.4611  0.2356  0.2036
 2421SOL     OW 9756   4.465   2.696   4.181  0.6257  0.0007  0.3830
 2421SOL    HW2 9757   4.547   2.746   4.189  0.1234  0.7339  0.9364
 2421SOL    HW3 9758   4.480   2.617   4.234  0.9650  0.1373  0.4913
 2421SOL    MW4 9759   4.478   2.692   4.189  0.6046  0.1154  0.4706
 2422SOL     OW 9760   0.203   2.845   4.218  0.4785  0.1553 -0.0526
 2422SOL    HW2 9761   0.286   2.805   4.194  0.8884  0.8921  0.1063
 2422SOL    HW3 9762   0.205   2.931   4.175 -0.7334 -0.3177 -1.0565
 2422SOL    MW4 9763   0.214   2.851   4.209  0.3727  0.1900 -0.1636
 2423SOL     OW 9764   0.233   3.117   4.133 -0.1895  0.3916 -0.5227
 2423SOL    HW2 9765   0.315   3.143   4.175 -1.0760  1.8271  0.4071
 2423SOL    HW3 9766   0.165   3.147   4.194 -1.3506 -2.7005 -0.2338
 2423SOL    MW4 9767   0.235   3.125   4.147 -0.4597  0.1733 -0.3624
 2424SOL     OW 9768   4.471   3.187   4.238 -0.1844  0.4116 -0.1174
 2424SOL    HW2 9769   4.405   3.145   4.183  0.8506  0.0005 -1.0720
 2424SOL    HW3 9770   4.454   3.281   4.227 -1.8297  0.2922  1.1930
 2424SOL    MW4 9771   4.460   3.194   4.229 -0.2651  0.3417 -0.0701
 2425SOL     OW 9772   4.466   3.460   4.199  0.5958  0.0951  0.4533
 2425SOL    HW2 9773   4.386   3.502   4.230 -0.7070 -1.6790 -0.3966
 2425SOL    HW3 9774   4.457   3.458   4.103  1.6764 -0.0726  0.3390
 2425SOL    MW4 9775   4.455   3.465   4.190  0.5665 -0.1609  0.3266
 2426SOL     OW 9776   0.191   3.611   4.271  0.1944  0.4627  0.0248
 2426SOL    HW2 9777   0.264   3.572   4.224 -0.7644 -0.3466 -0.8195
 2426SOL    HW3 9778   0.115   3.559   4.245 -0.6166  1.0234  1.2160
 2426SOL    MW4 9779   0.191   3.599   4.261 -0.0391  0.4299  0.0701
 2427SOL     OW 9780   0.248   3.906   4.185  0.2100 -0.3739 -0.0308
 2427SOL    HW2 9781   0.171   3.959   4.205 -0.0938 -0.5393 -0.7497
 2427SOL    HW3 9782   0.229   3.821   4.225  0.8169  0.1270  1.3591
 2427SOL    MW4 9783   0.235   3.902   4.193  0.2500 -0.3295  0.0577
 2428SOL     OW 9784   4.479   4.021   4.265 -0.4932 -0.1258 -0.3309
 2428SOL    HW2 9785   4.454   4.048   4.353 -0.2848  0.1881 -0.3672
 2428SOL    HW3 9786   4.414   3.955   4.240 -0.2415 -0.5927  0.2545
 2428SOL    MW4 9787   4.467   4.016   4.273 -0.4320 -0.1459 -0.2584
 2429SOL     OW 9788   4.457   4.263   4.154 -0.4595  0.0343  0.2900
 2429SOL    HW2 9789   4.465   4.171   4.180  1.0512  0.0792  0.0566
 2429SOL    HW3 9790   4.483   4.265   4.062  0.1482  0.7750  0.4633
 2429SOL    MW4 9791   4.462   4.251   4.145 -0.1802  0.1383  0.2823
 2430SOL     OW 9792   0.201   4.324   4.273  0.3339 -0.0671 -0.5880
 2430SOL    HW2 9793   0.197   4.302   4.365 -1.6392  1.1685 -0.3460
 2430SOL    HW3 9794   0.119   4.291   4.236  1.2121 -0.7754 -1.9620
 2430SOL    MW4 9795   0.190   4.317   4.280  0.1895  0.0024 -0.7367
 2431SOL     OW 9796   0.671   4.633   4.110 -0.1941 -0.0231  0.5004
 2431SOL    HW2 9797   0.589   4.682   4.121 -0.3748  0.1110 -1.3710
 2431SOL    HW3 9798   0.684   4.628   4.016  2.3152  0.4958  0.7872
 2431SOL    MW4 9799   0.662   4.639   4.099  0.1131  0.0629  0.2918
 2432SOL     OW 9800   0.433   0.089   4.190  0.2639  0.1416 -0.2911
 2432SOL    HW2 9801   0.463   0.072   4.280 -2.8587 -0.7922  0.6439
 2432SOL    HW3 9802   0.442   0.184   4.179  1.8180  0.1116  0.5494
 2432SOL    MW4 9803   0.438   0.099   4.201  0.0570  0.0144 -0.0567
 2433SOL     OW 9804   0.431   0.363   4.113 -0.1235  0.5634  0.1266
 2433SOL    HW2 9805   0.506   0.416   4.141  0.5728  0.3761 -1.3405
 2433SOL    HW3 9806   0.431   0.370   4.018 -0.4606 -1.4713 -0.0437
 2433SOL    MW4 9807   0.441   0.371   4.105 -0.0761  0.2702 -0.0896
 2434SOL     OW 9808   0.647   0.503   4.187 -0.6786 -0.1092  0.1460
 2434SOL    HW2 9809   0.712   0.436   4.167 -0.8326 -0.4687  0.8705
 2434SOL    HW3 9810   0.686   0.584   4.154  0.0868 -0.3430  0.4692
 2434SOL    MW4 9811   0.661   0.505   4.180 -0.5979 -0.1875  0.2842
 2435SOL     OW 9812   0.711   0.763   4.091 -0.2228  0.1008  0.1705
 2435SOL    HW2 9813   0.629   0.808   4.114  0.0134  0.8128 -0.3645
 2435SOL    HW3 9814   0.705   0.750   3.997 -0.1292 -0.6844  0.2709
 2435SOL    MW4 9815   0.699   0.767   4.082 -0.1792  0.0911  0.1130
 2436SOL     OW 9816   0.463   0.855   4.201  0.0896  0.3468  0.2285
 2436SOL    HW2 9817   0.434   0.937   4.162  0.7948  0.2021 -0.6105
 2436SOL    HW3 9818   0.384   0.801   4.204 -0.6969  1.5766  2.1508
 2436SOL    MW4 9819   0.449   0.859   4.196  0.0789  0.4900  0.3715
 2437SOL     OW 9820   0.452   1.120   4.129  0.3975 -0.2367  0.2135
 2437SOL    HW2 9821   0.514   1.181   4.169 -1.2993  0.6535  1.5960
 2437SOL    HW3 9822   0.460   1.135   4.035  1.2807  0.8628  0.4550
 2437SOL    MW4 9823   0.461   1.130   4.122  0.2901  0.0259  0.4282
 2438SOL     OW 9824   0.623   1.295   4.247  0.0880 -0.1759  0.0001
 2438SOL    HW2 9825   0.579   1.303   4.331  1.0115  1.4185  0.3788
 2438SOL    HW3 9826   0.627   1.385   4.214  2.5446 -0.3354 -0.2460
 2438SOL    MW4 9827   0.618   1.308   4.253  0.5339  0.0136  0.0176
 2439SOL     OW 9828   0.635   1.545   4.135  0.1053  0.1879  0.1399
 2439SOL    HW2 9829   0.713   1.593   4.164  0.6526  0.2932 -1.4466
 2439SOL    HW3 9830   0.648   1.534   4.041 -1.8475  0.3029 -0.1648
 2439SOL    MW4 9831   0.647   1.550   4.126 -0.0800  0.2171 -0.1097
 2440SOL     OW 9832   0.212   1.466   4.107 -0.1425 -0.2734 -0.0562
 2440SOL    HW2 9833   0.208   1.386   4.160  0.8060  0.1805  0.7201
 2440SOL    HW3 9834   0.148   1.525   4.148 -0.0204 -0.2264  0.0672
 2440SOL    MW4 9835   0.203   1.463   4.120 -0.0013 -0.2072  0.0620
 2441SOL     OW 9836   0.466   1.913   4.113 -0.2080  0.5097  0.3546
 2441SOL    HW2 9837   0.436   1.829   4.146 -0.3964  0.6497  0.5429
 2441SOL    HW3 9838   0.457   1.906   4.018 -2.0423  0.9960  0.4690
 2441SOL    MW4 9839   0.460   1.901   4.105 -0.4748  0.5924  0.3943
 2442SOL     OW 9840   0.663   2.090   4.219 -0.3578  0.2009 -0.1887
 2442SOL    HW2 9841   0.665   2.081   4.314  1.0194 -0.8518 -0.2906
 2442SOL    HW3 9842   0.595   2.030   4.190  0.4140 -0.8029  0.0274
 2442SOL    MW4 9843   0.655   2.081   4.227 -0.0743 -0.0706 -0.1740
 2443SOL     OW 9844   0.627   2.342   4.114 -0.1953 -0.0365 -0.0510
 2443SOL    HW2 9845   0.636   2.251   4.143  0.1809  0.0495  0.1019
 2443SOL    HW3 9846   0.635   2.337   4.018  1.8476  0.0701  0.0889
 2443SOL    MW4 9847   0.629   2.329   4.105  0.1238 -0.0110 -0.0124
 2444SOL     OW 9848   0.438   2.460   4.285 -0.1989  0.0873  0.2457
 2444SOL    HW2 9849   0.439   2.544   4.240 -0.0982 -0.1423 -0.1769
 2444SOL    HW3 9850   0.505   2.408   4.241  0.5317  0.1749  1.2405
 2444SOL    MW4 9851   0.447   2.464   4.273 -0.0892  0.0687  0.3209
 2445SOL     OW 9852   0.442   2.687   4.133  0.3589  0.0363 -0.3601
 2445SOL    HW2 9853   0.524   2.732   4.153  0.1498 -0.2108  1.0921
 2445SOL    HW3 9854   0.441   2.680   4.037  0.6965  2.5368 -0.5802
 2445SOL    MW4 9855   0.453   2.692   4.123  0.3758  0.3333 -0.1974
 2446SOL     OW 9856   0.686   2.818   4.223  0.5431  0.1021 -0.0491
 2446SOL    HW2 9857   0.678   2.838   4.317 -1.5370  1.7010 -0.5269
 2446SOL    HW3 9858   0.696   2.904   4.182 -0.6448 -0.4268 -1.4785
 2446SOL    MW4 9859   0.686   2.832   4.230  0.1119  0.2434 -0.3004
 2447SOL     OW 9860   0.702   3.067   4.115  0.2614  0.4060 -0.2501
 2447SOL    HW2 9861   0.769   3.102   4.173 -1.1133  1.1012  0.9224
 2447SOL    HW3 9862   0.620   3.105   4.146 -1.0988 -2.7803  0.2180
 2447SOL    MW4 9863   0.700   3.077   4.126 -0.0995  0.0775 -0.0339
 2448SOL     OW 9864   0.482   3.196   4.225  0.1396  0.0498  0.0529
 2448SOL    HW2 9865   0.484   3.181   4.319  2.1899 -0.8602 -0.1190
 2448SOL    HW3 9866   0.457   3.288   4.216  0.8951  0.4088  1.5213
 2448SOL    MW4 9867   0.479   3.206   4.236  0.5098 -0.0229  0.2236
 2449SOL     OW 9868   0.424   3.490   4.150  0.0778 -0.0116 -0.6421
 2449SOL    HW2 9869   0.492   3.545   4.187 -1.7999  1.6283  0.5085
 2449SOL    HW3 9870   0.442   3.487   4.056  1.7094  0.3646 -0.3499
 2449SOL    MW4 9871   0.435   3.497   4.143  0.0453  0.2544 -0.4520
 2450SOL     OW 9872   0.688   3.614   4.294  0.4819 -0.3695  0.1784
 2450SOL    HW2 9873   0.704   3.663   4.374  0.5003  1.2994 -0.8331
 2450SOL    HW3 9874   0.769   3.564   4.280  0.8132  0.0125  0.7116
 2450SOL    MW4 9875   0.701   3.614   4.303  0.5280 -0.0987  0.1159
 2451SOL     OW 9876   0.679   3.859   4.143  0.4722 -0.4302 -0.4912
 2451SOL    HW2 9877   0.602   3.901   4.182  0.6100  0.3473 -1.0445
 2451SOL    HW3 9878   0.690   3.778   4.193  1.9520  1.5688  2.4919
 2451SOL    MW4 9879   0.670   3.854   4.155  0.6856 -0.0639 -0.1707
 2452SOL     OW 9880   0.476   4.008   4.296  0.0634  0.4005  0.0665
 2452SOL    HW2 9881   0.478   4.095   4.256  1.4125  0.5879  0.5030
 2452SOL    HW3 9882   0.387   3.977   4.281 -0.2149  1.5442 -0.7634
 2452SOL    MW4 9883   0.465   4.015   4.288  0.2047  0.5765  0.0148
 2453SOL     OW 9884   0.447   4.263   4.191 -0.1170 -0.0286  0.4896
 2453SOL    HW2 9885   0.356   4.281   4.216 -0.2391  0.7220 -0.4579
 2453SOL    HW3 9886   0.448   4.274   4.096  0.9832  0.0008  0.4989
 2453SOL    MW4 9887   0.435   4.267   4.182  0.0120  0.0744  0.3662
 2454SOL     OW 9888   0.687   4.398   4.272 -0.0850  0.1564  0.3885
 2454SOL    HW2 9889   0.608   4.353   4.242  0.0226 -0.3702  0.8833
 2454SOL    HW3 9890   0.694   4.475   4.216 -1.2671  0.5022  0.7208
 2454SOL    MW4 9891   0.678   4.402   4.261 -0.2267  0.1326  0.4978
 2455SOL     OW 9892   1.115   4.634   4.132  0.3088  0.1854 -0.4264
 2455SOL    HW2 9893   1.116   4.540   4.152 -0.6468 -0.0986 -1.6630
 2455SOL    HW3 9894   1.099   4.638   4.037 -1.4242  1.6433 -0.0830
 2455SOL    MW4 9895   1.113   4.622   4.122 -0.0459  0.3400 -0.5441
 2456SOL     OW 9896   0.878   0.092   4.235  0.2717  0.4600 -0.0430
 2456SOL    HW2 9897   0.958   0.060   4.196 -0.0450 -0.5473  0.1302
 2456SOL    HW3 9898   0.808   0.059   4.179 -0.0792  0.5741  0.3195
 2456SOL    MW4 9899   0.879   0.084   4.222  0.1836  0.3422  0.0277
 2457SOL     OW 9900   0.861   0.356   4.099 -0.0853  0.0619 -0.2757
 2457SOL    HW2 9901   0.935   0.400   4.139 -0.8941  0.7263  0.5178
 2457SOL    HW3 9902   0.869   0.265   4.126 -0.1239  0.3369  0.6614
 2457SOL    MW4 9903   0.872   0.350   4.108 -0.1971  0.1858 -0.0472
 2458SOL     OW 9904   1.079   0.498   4.188  0.0543  1.0395 -0.3121
 2458SOL    HW2 9905   1.067   0.511   4.282 -2.1696 -0.7605 -0.2875
 2458SOL    HW3 9906   1.166   0.458   4.180  0.4519  1.6332  0.9439
 2458SOL    MW4 9907   1.089   0.494   4.199 -0.1868  0.8803 -0.1435
 2459SOL     OW 9908   1.115   0.752   4.126 -0.0999 -0.5856  0.3712
 2459SOL    HW2 9909   1.186   0.784   4.182 -0.4419 -0.3203  0.6558
 2459SOL    HW3 9910   1.107   0.659   4.148  0.4686 -0.7318 -0.0003
 2459SOL    MW4 9911   1.124   0.744   4.136 -0.0701 -0.5699  0.3600
 2460SOL     OW 9912   0.894   0.933   4.183  0.5069  0.2628  0.2275
 2460SOL    HW2 9913   0.976   0.886   4.169  0.9854  0.9761  0.5780
 2460SOL    HW3 9914   0.827   0.880   4.139  1.1390 -0.3779  0.0369
 2460SOL    MW4 9915   0.896   0.920   4.175  0.6534  0.2723  0.2489
 2461SOL     OW 9916   0.852   1.197   4.102 -0.3456  0.3902  0.0650
 2461SOL    HW2 9917   0.875   1.115   4.145  1.0612  1.4377  1.3893
 2461SOL    HW3 9918   0.781   1.233   4.156 -0.0493  0.6813  0.2604
 2461SOL    MW4 9919   0.846   1.191   4.115 -0.1209  0.5667  0.2651
 2462SOL     OW 9920   1.103   1.316   4.216 -0.6182  0.1786  0.6559
 2462SOL    HW2 9921   1.060   1.326   4.300 -0.2549 -0.3887  0.9130
 2462SOL    HW3 9922   1.040   1.269   4.162 -0.7156  0.2390  0.7173
 2462SOL    MW4 9923   1.089   1.311   4.220 -0.5831  0.1117  0.6981
 2463SOL     OW 9924   1.092   1.578   4.090 -0.2598  0.5494 -0.1200
 2463SOL    HW2 9925   1.017   1.629   4.120 -0.9951 -0.6332  0.0791
 2463SOL    HW3 9926   1.088   1.496   4.140  1.2081  0.4950 -0.0455
 2463SOL    MW4 9927   1.082   1.574   4.101 -0.1632  0.3862 -0.0834
 2464SOL     OW 9928   0.859   1.693   4.196 -0.0746  0.1298 -0.5142
 2464SOL    HW2 9929   0.893   1.688   4.285  0.1504 -0.6058 -0.6366
 2464SOL    HW3 9930   0.830   1.784   4.186  1.2873  0.6079 -0.2057
 2464SOL    MW4 9931   0.860   1.704   4.206  0.1348  0.0958 -0.4892
 2465SOL     OW 9932   0.885   1.955   4.118 -0.5575 -0.1653  0.4060
 2465SOL    HW2 9933   0.822   2.023   4.138  0.0113  0.3952  0.3142
 2465SOL    HW3 9934   0.883   1.947   4.023  0.9671  1.2732  0.2418
 2465SOL    MW4 9935   0.877   1.963   4.108 -0.2813  0.0985  0.3724
 2466SOL     OW 9936   1.124   2.006   4.259 -0.1556  0.4842  0.6786
 2466SOL    HW2 9937   1.095   2.001   4.350 -0.1091 -0.5545  0.6464
 2466SOL    HW3 9938   1.049   1.977   4.208  0.1081  0.2197  0.4392
 2466SOL    MW4 9939   1.111   2.001   4.264 -0.1148  0.3123  0.6428
 2467SOL     OW 9940   1.132   2.267   4.134 -0.1707  0.2870  0.0139
 2467SOL    HW2 9941   1.202   2.309   4.184  1.2793 -0.4110 -1.3838
 2467SOL    HW3 9942   1.119   2.183   4.177 -2.0562  1.5377  1.9253
 2467SOL    MW4 9943   1.140   2.261   4.146 -0.2280  0.3598  0.0815
 2468SOL     OW 9944   0.904   2.436   4.206 -0.1346  0.4064  0.0218
 2468SOL    HW2 9945   0.972   2.380   4.167 -0.2345 -0.9006  1.6592
 2468SOL    HW3 9946   0.822   2.403   4.170  0.0327  1.5765 -1.4679
 2468SOL    MW4 9947   0.902   2.424   4.196 -0.1258  0.3886  0.0415
 2469SOL     OW 9948   0.900   2.698   4.114 -0.2576  0.0163  0.0533
 2469SOL    HW2 9949   0.904   2.613   4.157  1.2649  1.1059  2.1446
 2469SOL    HW3 9950   0.829   2.744   4.159 -1.5097 -0.3296 -1.5022
 2469SOL    MW4 9951   0.891   2.693   4.125 -0.2218  0.1144  0.1240
 2470SOL     OW 9952   1.123   2.780   4.244  0.8082  0.1245  0.4561
 2470SOL    HW2 9953   1.125   2.875   4.228  1.5823  0.3746  1.9795
 2470SOL    HW3 9954   1.033   2.755   4.225  0.8026  1.0108 -0.7920
 2470SOL    MW4 9955   1.112   2.789   4.240  0.9094  0.2747  0.4926
 2471SOL     OW 9956   1.145   3.033   4.150 -0.1241  0.4609  0.2850
 2471SOL    HW2 9957   1.225   3.081   4.174 -0.7479  1.3397  0.6088
 2471SOL    HW3 9958   1.133   3.052   4.057  0.0289  0.3464  0.2411
 2471SOL    MW4 9959   1.154   3.042   4.141 -0.1862  0.5617  0.3219
 2472SOL     OW 9960   0.936   3.174   4.236  0.2474  0.0459 -0.3079
 2472SOL    HW2 9961   0.941   3.198   4.329  0.2569  2.8333 -0.9686
 2472SOL    HW3 9962   1.009   3.114   4.222 -0.4299 -1.2789  1.7332
 2472SOL    MW4 9963   0.946   3.169   4.246  0.1593  0.2389 -0.1259
 2473SOL     OW 9964   0.919   3.447   4.155 -0.1532 -0.3257  0.1871
 2473SOL    HW2 9965   0.933   3.357   4.184  1.5664 -0.1213  0.0878
 2473SOL    HW3 9966   0.932   3.444   4.060 -1.0708 -0.1463  0.0525
 2473SOL    MW4 9967   0.923   3.435   4.146 -0.0474 -0.2749  0.1564
 2474SOL     OW 9968   1.155   3.592   4.186  0.4605 -0.4465 -0.1824
 2474SOL    HW2 9969   1.147   3.687   4.173 -0.8291 -0.6375 -0.8811
 2474SOL    HW3 9970   1.068   3.558   4.163  1.1023 -1.8607 -0.5255
 2474SOL    MW4 9971   1.142   3.600   4.181  0.3750 -0.6583 -0.3204
 2475SOL     OW 9972   1.151   3.862   4.126 -0.4947 -0.2785  0.1056
 2475SOL    HW2 9973   1.211   3.893   4.194  0.2702 -3.5514  1.0088
 2475SOL    HW3 9974   1.064   3.881   4.159 -0.1173 -1.5582  1.8885
 2475SOL    MW4 9975   1.148   3.869   4.139 -0.3440 -0.8790  0.4601
 2476SOL     OW 9976   0.925   3.978   4.210 -0.0653 -0.3102  0.2761
 2476SOL    HW2 9977   0.917   4.072   4.194  0.4166 -0.0144  1.7351
 2476SOL    HW3 9978   0.839   3.943   4.187 -0.3195  0.5166 -0.0643
 2476SOL    MW4 9979   0.913   3.986   4.205 -0.0353 -0.1621  0.4239
 2477SOL     OW 9980   0.881   4.253   4.145  0.0847  0.1273 -0.1180
 2477SOL    HW2 9981   0.956   4.299   4.181 -0.6281  1.2569 -0.0489
 2477SOL    HW3 9982   0.806   4.286   4.194 -0.6106 -0.0275 -1.0519
 2477SOL    MW4 9983   0.881   4.263   4.156 -0.1011  0.2556 -0.2317
 2478SOL     OW 9984   1.107   4.390   4.206 -0.9947  0.0157 -0.4828
 2478SOL    HW2 9985   1.108   4.403   4.300 -0.2410  0.7700 -0.5969
 2478SOL    HW3 9986   1.183   4.335   4.188 -2.1108 -1.5965 -0.4513
 2478SOL    MW4 9987   1.117   4.384   4.216 -1.0426 -0.0978 -0.4940
 2479SOL     OW 9988   1.576   4.615   4.235  0.0668  0.2510 -0.1556
 2479SOL    HW2 9989   1.654   4.669   4.246  0.7913 -0.8484  0.2036
 2479SOL    HW3 9990   1.504   4.670   4.263  0.7659  1.1283 -0.0705
 2479SOL    MW4 9991   1.577   4.629   4.240  0.2546  0.2217 -0.0968
 2480SOL     OW 9992   1.341   0.117   4.255  0.0644 -0.6762 -0.4166
 2480SOL    HW2 9993   1.350   0.100   4.349 -0.0338  0.7330 -0.1450
 2480SOL    HW3 9994   1.271   0.058   4.227 -0.3243 -0.6771  0.5158
 2480SOL    MW4 9995   1.333   0.107   4.264  0.0002 -0.4904 -0.2580
 2481SOL     OW 9996   1.333   0.366   4.154  0.3037  0.1880 -0.1871
 2481SOL    HW2 9997   1.395   0.424   4.198  1.4788  0.2397 -1.8678
 2481SOL    HW3 9998   1.342   0.282   4.199 -0.3004  0.8930  1.2667
 2481SOL    MW4 9999   1.342   0.362   4.166  0.3791  0.2878 -0.2174
 2482SOL     OW10000   1.560   0.497   4.233  0.2773  0.5331  0.2299
 2482SOL    HW210001   1.581   0.494   4.326 -0.5128  1.1424  0.4446
 2482SOL    HW310002   1.563   0.591   4.211  0.1051  0.4266 -0.2617
 2482SOL    MW410003   1.563   0.509   4.243  0.1503  0.5994  0.1936
 2483SOL     OW10004   1.574   0.762   4.158  0.3181  0.4268  0.5063
 2483SOL    HW210005   1.656   0.808   4.178 -0.3480  2.4417 -1.2147
 2483SOL    HW310006   1.574   0.754   4.063 -0.0272 -2.3994  0.6911
 2483SOL    MW410007   1.585   0.767   4.148  0.1847  0.3197  0.3037
 2484SOL     OW10008   1.339   0.861   4.247 -0.4718  0.4960 -0.3880
 2484SOL    HW210009   1.336   0.945   4.200 -1.2715 -0.1919 -1.5767
 2484SOL    HW310010   1.415   0.816   4.211 -0.0660  0.6736  0.2242
 2484SOL    MW410011   1.349   0.866   4.236 -0.5238  0.4287 -0.4644
 2485SOL     OW10012   1.329   1.148   4.176 -0.0379  0.2922  0.2956
 2485SOL    HW210013   1.255   1.207   4.192 -0.9208 -0.9149  0.6832
 2485SOL    HW310014   1.336   1.144   4.080 -0.6131  0.2411  0.2530
 2485SOL    MW410015   1.320   1.156   4.165 -0.2303  0.1262  0.3409
 2486SOL     OW10016   1.574   1.255   4.259  0.3637 -0.3438  0.2994
 2486SOL    HW210017   1.578   1.250   4.354  0.6711  0.5555  0.3455
 2486SOL    HW310018   1.487   1.223   4.236  0.0103  0.1513  0.9413
 2486SOL    MW410019   1.563   1.250   4.268  0.3575 -0.1597  0.3901
 2487SOL     OW10020   1.586   1.545   4.174  0.6531 -0.4818  0.0499
 2487SOL    HW210021   1.497   1.580   4.176  1.8073  2.6085  2.5166
 2487SOL    HW310022   1.584   1.471   4.235 -0.3562 -0.7474 -0.3021
 2487SOL    MW410023   1.574   1.540   4.182  0.6721 -0.1092  0.3285
 2488SOL     OW10024   1.353   1.671   4.186 -0.3203 -0.2151  0.0475
 2488SOL    HW210025   1.376   1.759   4.158  0.8123 -0.3967  0.3634
 2488SOL    HW310026   1.265   1.656   4.152 -0.6549  1.1671  0.2956
 2488SOL    MW410027   1.344   1.680   4.178 -0.2149 -0.0565  0.1216
 2489SOL     OW10028   1.380   1.959   4.151  0.7864 -0.1881 -0.1050
 2489SOL    HW210029   1.447   2.008   4.197 -0.7213  1.6457  0.2001
 2489SOL    HW310030   1.299   1.977   4.199 -0.2556 -0.8030 -1.5800
 2489SOL    MW410031   1.378   1.968   4.163  0.4500 -0.0274 -0.2594
 2490SOL     OW10032   1.598   2.061   4.311  0.3019  0.0446  0.0975
 2490SOL    HW210033   1.559   2.045   4.397 -1.3462 -0.9891 -0.7977
 2490SOL    HW310034   1.595   2.156   4.300 -1.2121  0.0558  0.4403
 2490SOL    MW410035   1.592   2.072   4.321 -0.1154 -0.0904  0.0243
 2491SOL     OW10036   1.589   2.341   4.213  0.1138  0.3965  0.2173
 2491SOL    HW210037   1.674   2.377   4.236 -0.0145  0.8961 -0.0943
 2491SOL    HW310038   1.587   2.340   4.118  0.7361 -1.9165  0.2011
 2491SOL    MW410039   1.600   2.345   4.204  0.1788  0.1571  0.1740
 2492SOL     OW10040   1.336   2.408   4.262 -0.6139 -0.2681 -0.1061
 2492SOL    HW210041   1.321   2.496   4.228 -2.9832 -0.2858  0.7861
 2492SOL    HW310042   1.426   2.387   4.236 -0.2724  2.1055 -0.9680
 2492SOL    MW410043   1.346   2.417   4.254 -0.8814  0.0427 -0.1016
 2493SOL     OW10044   1.349   2.662   4.129  0.6400  0.0572 -0.3376
 2493SOL    HW210045   1.418   2.720   4.161 -0.0902  0.3187  0.7726
 2493SOL    HW310046   1.268   2.697   4.167  0.2997 -2.3337  1.2389
 2493SOL    MW410047   1.347   2.674   4.138  0.4988 -0.2239  0.0167
 2494SOL     OW10048   1.575   2.817   4.209  0.6860  0.0230 -0.2130
 2494SOL    HW210049   1.590   2.813   4.303 -1.1180  2.3029  0.2091
 2494SOL    HW310050   1.587   2.909   4.186 -3.0268  0.3091 -1.4135
 2494SOL    MW410051   1.578   2.829   4.218 -0.0418  0.3617 -0.3161
 2495SOL     OW10052   1.587   3.085   4.148 -0.1715  0.5713 -0.5075
 2495SOL    HW210053   1.667   3.131   4.173  0.5692 -1.5016  1.1400
 2495SOL    HW310054   1.517   3.129   4.196  0.1619  1.5414 -0.9075
 2495SOL    MW410055   1.588   3.097   4.158 -0.0298  0.4258 -0.3428
 2496SOL     OW10056   1.337   3.204   4.241 -0.2645  0.1841  0.5673
 2496SOL    HW210057   1.297   3.211   4.328 -1.0588 -0.2454  0.2420
 2496SOL    HW310058   1.351   3.295   4.214 -0.2706  0.3231  1.0208
 2496SOL    MW410059   1.334   3.217   4.249 -0.3700  0.1457  0.5846
 2497SOL     OW10060   1.399   3.461   4.152 -0.0128 -0.1494 -0.0616
 2497SOL    HW210061   1.323   3.517   4.168  0.9403  1.1592 -0.0344
 2497SOL    HW310062   1.418   3.474   4.059 -0.1178 -0.8627 -0.1877
 2497SOL    MW410063   1.391   3.470   4.142  0.0992 -0.0710 -0.0744
 2498SOL     OW10064   1.596   3.615   4.253 -0.1957  0.4709 -0.2984
 2498SOL    HW210065   1.610   3.621   4.348 -0.0792 -0.8538 -0.2254
 2498SOL    HW310066   1.512   3.570   4.244  0.2893 -0.3254 -0.8364
 2498SOL    MW410067   1.587   3.610   4.264 -0.1163  0.1910 -0.3595
 2499SOL     OW10068   1.570   3.867   4.128 -0.3106 -0.5379  0.1219
 2499SOL    HW210069   1.500   3.912   4.175 -0.0964 -0.3168  0.2294
 2499SOL    HW310070   1.574   3.780   4.169 -0.9311 -0.7624 -0.2938
 2499SOL    MW410071   1.561   3.861   4.140 -0.3643 -0.5383  0.0811
 2500SOL     OW10072   1.334   3.992   4.263  0.3223 -0.1273 -0.3874
 2500SOL    HW210073   1.368   4.006   4.352 -3.2113  1.0463  0.8760
 2500SOL    HW310074   1.321   4.081   4.229  0.2959 -0.5629 -1.5264
 2500SOL    MW410075   1.337   4.006   4.270 -0.1473 -0.0296 -0.3719
 2501SOL     OW10076   1.353   4.257   4.170  0.6116 -0.2290  0.0736
 2501SOL    HW210077   1.434   4.277   4.218  0.2600  0.3514  0.4365
 2501SOL    HW310078   1.374   4.279   4.079  1.2796 -1.3277 -0.0530
 2501SOL    MW410079   1.367   4.263   4.164  0.6534 -0.2975  0.1054
 2502SOL     OW10080   1.585   4.336   4.303  0.2018 -0.2107  0.3774
 2502SOL    HW210081   1.579   4.430   4.287 -0.5019 -0.1197  1.1616
 2502SOL    HW310082   1.675   4.314   4.278  0.6776  0.8441  1.1174
 2502SOL    MW410083   1.596   4.345   4.297  0.1717 -0.0596  0.5784
 2503SOL     OW10084   2.014   4.664   4.149  0.1956 -0.0205 -0.0676
 2503SOL    HW210085   1.925   4.687   4.175  0.1341  0.5257 -0.7710
 2503SOL    HW310086   2.007   4.642   4.056  0.5587 -1.2478  0.1869
 2503SOL    MW410087   2.001   4.664   4.141  0.2353 -0.1106 -0.1268
 2504SOL     OW10088   1.788   0.110   4.256 -0.7686 -0.4341  0.2539
 2504SOL    HW210089   1.797   0.118   4.351 -0.1918 -2.5365  0.4028
 2504SOL    HW310090   1.804   0.199   4.223  0.3618  0.0475  2.0240
 2504SOL    MW410091   1.792   0.123   4.264 -0.5432 -0.6479  0.5064
 2505SOL     OW10092   1.801   0.377   4.168 -0.1998  0.2577 -0.1260
 2505SOL    HW210093   1.864   0.432   4.214  1.0361  2.0616 -3.7773
 2505SOL    HW310094   1.717   0.422   4.177 -0.3634 -0.4463  1.9901
 2505SOL    MW410095   1.798   0.390   4.175 -0.0582  0.4028 -0.3290
 2506SOL     OW10096   1.961   0.563   4.302 -0.1611  0.1730  0.2640
 2506SOL    HW210097   1.976   0.588   4.393  2.0697  0.7792 -0.2465
 2506SOL    HW310098   2.043   0.522   4.274 -0.4495  0.9123 -1.7678
 2506SOL    MW410099   1.974   0.561   4.311  0.0952  0.3506 -0.0710
 2507SOL     OW10100   2.020   0.788   4.160  0.2676  0.1326 -0.2888
 2507SOL    HW210101   2.099   0.826   4.199 -0.8675  1.8026  0.4508
 2507SOL    HW310102   2.006   0.707   4.209  1.1295  0.1746  0.0352
 2507SOL    MW410103   2.029   0.782   4.172  0.2317  0.3585 -0.1493
 2508SOL     OW10104   1.785   0.902   4.247 -0.0427  0.1017 -0.3054
 2508SOL    HW210105   1.794   0.993   4.220 -0.2830 -0.1042 -1.0873
 2508SOL    HW310106   1.863   0.859   4.212  1.0520  0.3666  1.6785
 2508SOL    MW410107   1.797   0.908   4.239  0.0699  0.1095 -0.1464
 2509SOL     OW10108   1.807   1.154   4.149  0.0001  0.2314 -0.1240
 2509SOL    HW210109   1.871   1.217   4.181  1.0166 -0.5005 -0.6909
 2509SOL    HW310110   1.723   1.185   4.184  1.0036 -0.3071  2.8946
 2509SOL    MW410111   1.804   1.166   4.157  0.2667  0.0639  0.1993
 2510SOL     OW10112   1.988   1.338   4.215 -0.7758 -0.3860  0.0334
 2510SOL    HW210113   2.077   1.307   4.200 -1.3433 -2.0989  0.0773
 2510SOL    HW310114   1.986   1.427   4.178  0.3412 -1.1300 -1.8620
 2510SOL    MW410115   1.999   1.346   4.209 -0.7033 -0.7102 -0.2108
 2511SOL     OW10116   2.021   1.592   4.116  0.3855 -0.1618 -0.3249
 2511SOL    HW210117   2.091   1.638   4.162  0.8860 -1.1842 -0.0555
 2511SOL    HW310118   2.042   1.602   4.023  0.2322  0.5683 -0.2766
 2511SOL    MW410119   2.033   1.599   4.110  0.4313 -0.2004 -0.2828
 2512SOL     OW10120   1.795   1.717   4.211  0.3966 -0.2813 -0.2905
 2512SOL    HW210121   1.873   1.661   4.207 -0.3927 -1.3555 -0.8322
 2512SOL    HW310122   1.724   1.662   4.178 -0.2311  1.3252 -1.6986
 2512SOL    MW410123   1.796   1.703   4.206  0.2097 -0.2111 -0.5474
 2513SOL     OW10124   1.825   2.004   4.168 -0.3377  0.0982 -0.0148
 2513SOL    HW210125   1.826   1.909   4.183 -0.5482 -0.0749 -1.0053
 2513SOL    HW310126   1.755   2.037   4.224  1.1001 -0.0418  1.8990
 2513SOL    MW410127   1.815   1.996   4.177 -0.1757  0.0569  0.1073
 2514SOL     OW10128   2.075   2.124   4.239  0.5384  0.3150 -0.0272
 2514SOL    HW210129   2.142   2.063   4.208  1.3799  1.4269 -0.4365
 2514SOL    HW310130   1.992   2.084   4.212  1.0893 -0.5096 -0.5325
 2514SOL    MW410131   2.073   2.111   4.231  0.7219  0.3526 -0.1478
 2515SOL     OW10132   2.073   2.368   4.119 -0.2542 -0.3264 -0.3856
 2515SOL    HW210133   2.083   2.282   4.161  0.5856 -0.3523 -0.6266
 2515SOL    HW310134   2.065   2.348   4.026 -3.2129 -0.3471 -0.1867
 2515SOL    MW410135   2.073   2.354   4.112 -0.5341 -0.3326 -0.3905
 2516SOL     OW10136   1.831   2.460   4.262  0.4767  0.0478  0.1840
 2516SOL    HW210137   1.864   2.488   4.347  0.0268 -0.1187  0.4143
 2516SOL    HW310138   1.907   2.418   4.220  0.9035  0.8083  0.1911
 2516SOL    MW410139   1.846   2.458   4.267  0.4736  0.1264  0.2155
 2517SOL     OW10140   1.815   2.704   4.134 -0.0828  0.1888 -0.3853
 2517SOL    HW210141   1.814   2.621   4.182 -1.2562 -0.0802 -0.8722
 2517SOL    HW310142   1.735   2.748   4.161  0.5975  1.2262 -0.0361
 2517SOL    MW410143   1.804   2.699   4.144 -0.1479  0.2902 -0.4034
 2518SOL     OW10144   2.014   3.110   4.100  0.1467  0.1129  0.0609
 2518SOL    HW210145   2.074   3.180   4.124  0.3706  0.4214 -1.3145
 2518SOL    HW310146   2.050   3.031   4.139 -0.6320  0.9144  2.4459
 2518SOL    MW410147   2.026   3.109   4.108  0.0734  0.2596  0.1941
 2519SOL     OW10148   2.150   2.433   4.777 -0.9553  0.3713  0.0733
 2519SOL    HW210149   2.165   2.527   4.786 -0.3100  0.2526  0.2451
 2519SOL    HW310150   2.188   2.411   4.692  1.2818 -0.2136  1.1838
 2519SOL    MW410151   2.157   2.443   4.767 -0.5751  0.2787  0.2418
 2520SOL     OW10152   1.823   3.207   4.264  0.4163 -0.6325  0.0907
 2520SOL    HW210153   1.820   3.301   4.244  0.1674 -0.5380  0.5411
 2520SOL    HW310154   1.887   3.171   4.203  0.1984 -0.2405 -0.3803
 2520SOL    MW410155   1.831   3.215   4.253  0.3548 -0.5686  0.0877
 2521SOL     OW10156   1.812   3.460   4.166  0.2136  0.2461 -0.0252
 2521SOL    HW210157   1.728   3.502   4.186  0.3163  0.2010  0.5009
 2521SOL    HW310158   1.818   3.464   4.071 -0.4489  0.1383 -0.0776
 2521SOL    MW410159   1.802   3.466   4.156  0.1397  0.2260  0.0372
 2522SOL     OW10160   1.974   3.628   4.352 -0.2898 -0.0695  0.5998
 2522SOL    HW210161   1.999   3.714   4.317 -0.9409  0.5580  1.6215
 2522SOL    HW310162   1.933   3.583   4.279  1.5344 -0.1513 -0.4062
 2522SOL    MW410163   1.972   3.634   4.338 -0.1351  0.0024  0.6018
 2523SOL     OW10164   2.037   3.867   4.227  0.5786  0.3173 -0.3109
 2523SOL    HW210165   1.954   3.914   4.219  0.4529  0.4964  1.6512
 2523SOL    HW310166   2.059   3.841   4.138 -1.7001  0.0794 -0.8398
 2523SOL    MW410167   2.029   3.870   4.214  0.2613  0.3095 -0.1221
 2524SOL     OW10168   1.787   3.996   4.269  0.5009 -0.1585 -0.0728
 2524SOL    HW210169   1.795   4.089   4.247  2.2067 -0.2317  0.1668
 2524SOL    HW310170   1.716   3.964   4.213 -0.9795  1.5569  0.7739
 2524SOL    MW410171   1.778   4.004   4.258  0.5307  0.0587  0.0706
 2525SOL     OW10172   1.819   4.255   4.194 -0.2403 -0.1341  0.2300
 2525SOL    HW210173   1.899   4.302   4.216  0.1137 -1.4071  1.7595
 2525SOL    HW310174   1.813   4.260   4.099  0.7271  1.4466  0.2411
 2525SOL    MW410175   1.829   4.262   4.185 -0.0658 -0.0944  0.4339
 2526SOL     OW10176   2.035   4.423   4.301  0.3485  0.1799 -0.1978
 2526SOL    HW210177   2.008   4.444   4.390 -0.0494  0.0693 -0.2883
 2526SOL    HW310178   2.040   4.508   4.257  0.5926  0.2381 -0.0542
 2526SOL    MW410179   2.032   4.437   4.307  0.3281  0.1731 -0.1907
 2527SOL     OW10180   2.452   0.035   4.210  0.2869  0.4309  0.0977
 2527SOL    HW210181   2.517   0.094   4.248 -1.3818 -0.2736  4.3203
 2527SOL    HW310182   2.482  -0.053   4.233  0.0115 -0.1251 -1.5851
 2527SOL    MW410183   2.464   0.031   4.218  0.0305  0.2646  0.4330
 2528SOL     OW10184   2.223   0.153   4.307  0.9652  0.3808  0.1976
 2528SOL    HW210185   2.300   0.106   4.274 -0.8523 -2.0752 -0.7061
 2528SOL    HW310186   2.149   0.108   4.267 -1.0061  1.9067  2.0346
 2528SOL    MW410187   2.223   0.141   4.297  0.4652  0.2581  0.3209
 2529SOL     OW10188   2.214   0.421   4.222  0.0119  0.4298 -0.0263
 2529SOL    HW210189   2.218   0.333   4.259  1.7327  1.0554  1.3657
 2529SOL    HW310190   2.231   0.409   4.129  2.7462 -0.4833  0.5493
 2529SOL    MW410191   2.217   0.408   4.215  0.5994  0.3918  0.2332
 2530SOL     OW10192   2.470   0.532   4.250  0.1988  0.5703  0.0216
 2530SOL    HW210193   2.496   0.533   4.342  0.9413  0.4253 -0.1863
 2530SOL    HW310194   2.384   0.491   4.250  0.8193 -0.7417  0.4888
 2530SOL    MW410195   2.462   0.527   4.262  0.3786  0.3781  0.0563
 2531SOL     OW10196   2.427   0.787   4.118 -0.2151  0.5212  0.1017
 2531SOL    HW210197   2.432   0.694   4.140  0.6136  0.1751 -1.4292
 2531SOL    HW310198   2.443   0.790   4.023  2.1616  2.4364  0.5007
 2531SOL    MW410199   2.430   0.775   4.108  0.2079  0.7282 -0.0472
 2532SOL     OW10200   2.251   0.949   4.234  0.0768  0.0756  0.2473
 2532SOL    HW210201   2.265   0.957   4.328 -0.5041  0.2346  0.3235
 2532SOL    HW310202   2.318   0.887   4.205  0.7108  0.5841  0.6431
 2532SOL    MW410203   2.262   0.942   4.242  0.0839  0.1636  0.3099
 2533SOL     OW10204   2.235   1.211   4.123 -0.2147  0.0674 -0.0719
 2533SOL    HW210205   2.311   1.253   4.164 -0.9928  0.4224  1.0277
 2533SOL    HW310206   2.228   1.126   4.166  0.2925 -0.4648 -1.0390
 2533SOL    MW410207   2.244   1.205   4.134 -0.2503  0.0440 -0.0548
 2534SOL     OW10208   2.479   1.301   4.246 -0.2688 -0.5198  0.5473
 2534SOL    HW210209   2.496   1.265   4.333  0.4113  0.1706  0.7076
 2534SOL    HW310210   2.551   1.267   4.192 -1.2520 -1.7876  0.0006
 2534SOL    MW410211   2.491   1.291   4.250 -0.3088 -0.5960  0.4964
 2535SOL     OW10212   2.474   1.560   4.175  0.1605  0.1277  0.2509
 2535SOL    HW210213   2.466   1.467   4.196  0.5981  0.1996  0.7615
 2535SOL    HW310214   2.472   1.564   4.080  1.0269 -0.4867  0.2058
 2535SOL    MW410215   2.473   1.548   4.165  0.3326  0.0560  0.3123
 2536SOL     OW10216   2.231   1.728   4.226  0.4857  0.0551  0.8974
 2536SOL    HW210217   2.226   1.728   4.322  1.8798 -0.8454  0.9928
 2536SOL    HW310218   2.307   1.673   4.206  0.7102  0.9051 -0.7050
 2536SOL    MW410219   2.240   1.721   4.236  0.6990  0.0485  0.6990
 2537SOL     OW10220   2.273   1.979   4.140  0.4232 -0.0476  0.0967
 2537SOL    HW210221   2.347   2.023   4.181 -0.8194  0.2475  2.1404
 2537SOL    HW310222   2.276   1.889   4.175 -0.8108  0.2854  1.1463
 2537SOL    MW410223   2.283   1.973   4.150  0.0968  0.0353  0.5050
 2538SOL     OW10224   2.483   2.105   4.253  0.1998 -0.1471  0.4313
 2538SOL    HW210225   2.433   2.144   4.325  0.7535  0.9188  0.2515
 2538SOL    HW310226   2.500   2.179   4.193  1.3923 -0.6401  0.1555
 2538SOL    MW410227   2.478   2.120   4.254  0.4301 -0.0715  0.3715
 2539SOL     OW10228   2.483   2.340   4.124 -0.0830 -0.1845 -0.0004
 2539SOL    HW210229   2.405   2.390   4.144 -0.0596 -0.2401  0.2357
 2539SOL    HW310230   2.495   2.349   4.030  0.3674  0.9085  0.1537
 2539SOL    MW410231   2.475   2.348   4.114 -0.0205 -0.0477  0.0510
 2540SOL     OW10232   2.287   2.500   4.246 -0.0490 -0.2229  0.3240
 2540SOL    HW210233   2.303   2.582   4.198  0.9995 -0.2366  0.6499
 2540SOL    HW310234   2.208   2.464   4.205 -1.4140  1.7021  1.1893
 2540SOL    MW410235   2.279   2.506   4.234 -0.0908  0.0293  0.4807
 2541SOL     OW10236   2.046   2.840   4.209  0.0638  0.0143 -0.1292
 2541SOL    HW210237   1.963   2.798   4.187 -0.5169  0.5984  0.9061
 2541SOL    HW310238   2.048   2.841   4.305  1.0239  0.4753 -0.1432
 2541SOL    MW410239   2.035   2.835   4.219  0.1137  0.1519  0.0057
 2542SOL     OW10240   2.287   2.744   4.113  0.0765  0.1292 -0.6119
 2542SOL    HW210241   2.206   2.792   4.126 -0.3821 -0.8464  0.1896
 2542SOL    HW310242   2.353   2.795   4.160 -0.6406 -0.6817  1.3199
 2542SOL    MW410243   2.285   2.757   4.121 -0.0787 -0.1063 -0.2513
 2543SOL     OW10244   2.248   3.259   4.198 -0.2231  0.3255  0.0592
 2543SOL    HW210245   2.325   3.205   4.180 -0.6534 -0.6254  1.0087
 2543SOL    HW310246   2.262   3.292   4.287  0.6567  2.8742 -0.9740
 2543SOL    MW410247   2.260   3.256   4.207 -0.1636  0.5362  0.0482
 2544SOL     OW10248   2.375   2.873   4.441  0.1246 -0.0284  0.4561
 2544SOL    HW210249   2.397   2.956   4.485 -0.7939  0.2996  0.3164
 2544SOL    HW310250   2.403   2.805   4.502  1.4315  0.3742  0.3103
 2544SOL    MW410251   2.382   2.875   4.455  0.1760  0.0679  0.4182
 2545SOL     OW10252   2.289   3.523   4.132 -0.0706 -0.3007 -0.8175
 2545SOL    HW210253   2.362   3.552   4.187 -1.7186  1.3566  0.5695
 2545SOL    HW310254   2.280   3.429   4.152  1.3014 -0.3953 -0.5833
 2545SOL    MW410255   2.297   3.514   4.142 -0.1070 -0.0947 -0.6032
 2546SOL     OW10256   2.524   3.602   4.249 -0.1479  0.0291  0.3466
 2546SOL    HW210257   2.552   3.568   4.335  1.8025 -0.4764 -0.4573
 2546SOL    HW310258   2.516   3.696   4.262 -0.2934 -0.0994  1.2152
 2546SOL    MW410259   2.527   3.610   4.262  0.0901 -0.0544  0.3552
 2547SOL     OW10260   2.533   3.901   4.187  0.3897  0.2697 -0.0344
 2547SOL    HW210261   2.611   3.946   4.220  0.1454  0.6109  0.0733
 2547SOL    HW310262   2.549   3.892   4.093  0.9004 -0.3387  0.1034
 2547SOL    MW410263   2.545   3.905   4.179  0.4249  0.2348 -0.0024
 2548SOL     OW10264   2.268   4.016   4.327  0.3252  0.0221  0.3856
 2548SOL    HW210265   2.339   3.953   4.312 -0.1163 -0.2412 -0.6236
 2548SOL    HW310266   2.188   3.965   4.316 -0.0324  0.5889  0.3325
 2548SOL    MW410267   2.267   4.001   4.324  0.2198  0.0620  0.2456
 2549SOL     OW10268   2.260   4.285   4.187 -0.2506 -0.6769  0.0359
 2549SOL    HW210269   2.264   4.199   4.229 -0.2936 -0.0610  1.3569
 2549SOL    HW310270   2.185   4.328   4.229  0.3820  0.3684  0.1268
 2549SOL    MW410271   2.251   4.279   4.198 -0.1726 -0.4578  0.2222
 2550SOL     OW10272   2.510   4.410   4.238 -0.0721  0.0269  0.4406
 2550SOL    HW210273   2.570   4.350   4.193 -0.7050 -0.2621 -0.0227
 2550SOL    HW310274   2.423   4.377   4.218 -0.4706  1.6009 -0.5732
 2550SOL    MW410275   2.506   4.398   4.229 -0.2081  0.1965  0.2456
 2551SOL     OW10276   2.893   0.033   4.188  0.0510 -0.1030  0.0169
 2551SOL    HW210277   2.970   0.083   4.214 -0.3804 -0.1909  1.5103
 2551SOL    HW310278   2.907  -0.054   4.226 -0.6325 -0.2122  0.0272
 2551SOL    MW410279   2.905   0.028   4.196 -0.0963 -0.1290  0.2155
 2552SOL     OW10280   2.672   0.188   4.286  0.2173  0.0604  0.1074
 2552SOL    HW210281   2.681   0.247   4.210 -0.2927 -0.4992 -0.3893
 2552SOL    HW310282   2.743   0.125   4.275 -0.3447 -0.4962 -0.3333
 2552SOL    MW410283   2.683   0.187   4.274  0.0758 -0.0869 -0.0162
 2553SOL     OW10284   2.709   0.398   4.098 -0.0288  0.5967 -0.1698
 2553SOL    HW210285   2.628   0.441   4.125  0.1897  0.4156  0.7793
 2553SOL    HW310286   2.704   0.396   4.002 -1.4900 -0.0659 -0.1064
 2553SOL    MW410287   2.697   0.403   4.089 -0.1926  0.4854 -0.0362
 2554SOL     OW10288   2.906   0.524   4.266 -0.2976  0.0081 -0.2290
 2554SOL    HW210289   2.887   0.614   4.238 -0.5358  0.0436  0.0474
 2554SOL    HW310290   2.838   0.471   4.225  0.1755 -0.1274 -0.8640
 2554SOL    MW410291   2.895   0.529   4.257 -0.2666 -0.0051 -0.2766
 2555SOL     OW10292   2.858   0.782   4.149 -0.3239 -0.2640  0.0429
 2555SOL    HW210293   2.941   0.812   4.187 -0.2267 -0.4775 -0.0015
 2555SOL    HW310294   2.871   0.790   4.054 -0.5656  0.2674  0.0514
 2555SOL    MW410295   2.871   0.787   4.141 -0.3428 -0.2220  0.0381
 2556SOL     OW10296   2.645   0.928   4.226 -0.6089 -0.4629 -0.0837
 2556SOL    HW210297   2.725   0.878   4.210 -0.3128 -0.3538  0.9956
 2556SOL    HW310298   2.576   0.876   4.186  0.1134 -0.0671 -1.9075
 2556SOL    MW410299   2.646   0.914   4.219 -0.4747 -0.3963 -0.1817
 2557SOL     OW10300   2.704   1.180   4.149 -0.5326  0.0575 -0.2591
 2557SOL    HW210301   2.681   1.093   4.182 -1.8447 -0.2715 -1.9840
 2557SOL    HW310302   2.713   1.168   4.054 -0.5365  1.7725 -0.4936
 2557SOL    MW410303   2.702   1.167   4.141 -0.7062  0.2403 -0.5178
 2558SOL     OW10304   2.940   1.253   4.269 -0.7630  0.0053 -0.2286
 2558SOL    HW210305   3.018   1.210   4.235 -0.4912  0.3433 -0.0388
 2558SOL    HW310306   2.870   1.228   4.209 -0.6502 -0.8709  0.0050
 2558SOL    MW410307   2.941   1.244   4.257 -0.7122 -0.0656 -0.1726
 2559SOL     OW10308   2.941   1.516   4.207  0.5669 -0.0535  0.0762
 2559SOL    HW210309   3.017   1.570   4.228 -0.3415  1.7321 -1.0497
 2559SOL    HW310310   2.961   1.430   4.244  2.0780  1.0368  1.8730
 2559SOL    MW410311   2.954   1.512   4.214  0.6464  0.3260  0.1640
 2560SOL     OW10312   2.700   1.550   4.325  0.5282 -0.1666 -0.0471
 2560SOL    HW210313   2.782   1.550   4.276  1.3073 -0.4272  1.2154
 2560SOL    HW310314   2.632   1.560   4.259  1.6088  0.5683 -1.0626
 2560SOL    MW410315   2.702   1.551   4.310  0.7737 -0.1040 -0.0143
 2561SOL     OW10316   2.874   2.053   4.189 -0.2434 -0.4227  0.5278
 2561SOL    HW210317   2.813   2.026   4.257 -1.2021  1.4614  0.4298
 2561SOL    HW310318   2.829   2.030   4.107  0.2435 -1.2595  0.4851
 2561SOL    MW410319   2.860   2.046   4.187 -0.3059 -0.2847  0.5093
 2562SOL     OW10320   2.888   2.317   4.164  0.0382 -0.1010  0.2314
 2562SOL    HW210321   2.810   2.355   4.204 -1.2489 -0.7466 -1.5677
 2562SOL    HW310322   2.887   2.225   4.191 -0.6568 -0.4606 -0.9525
 2562SOL    MW410323   2.878   2.310   4.173 -0.2232 -0.2337 -0.1626
 2563SOL     OW10324   2.693   2.036   4.397 -0.0262 -0.0456  0.3268
 2563SOL    HW210325   2.723   2.097   4.465  1.0025  0.8430 -0.8951
 2563SOL    HW310326   2.615   2.078   4.360 -0.0296 -0.0645  0.3129
 2563SOL    MW410327   2.687   2.049   4.401  0.1090  0.0687  0.1640
 2564SOL     OW10328   2.806   2.857   4.186  0.1521  0.6848  0.5963
 2564SOL    HW210329   2.824   2.858   4.280 -0.4241  1.9267  0.6980
 2564SOL    HW310330   2.830   2.944   4.156  1.3187 -0.0301 -0.6085
 2564SOL    MW410331   2.812   2.868   4.195  0.2301  0.7544  0.4511
 2565SOL     OW10332   2.829   2.840   4.450  0.4311 -0.3050 -0.4610
 2565SOL    HW210333   2.783   2.924   4.460  1.6131  0.4461 -1.2878
 2565SOL    HW310334   2.761   2.774   4.463 -0.4367  0.7753  0.5921
 2565SOL    MW410335   2.814   2.843   4.453  0.4725 -0.0634 -0.4311
 2566SOL     OW10336   3.116   2.913   4.406 -0.2604  0.3634  0.6272
 2566SOL    HW210337   3.043   2.853   4.399 -0.5337  0.7934 -0.2938
 2566SOL    HW310338   3.109   2.951   4.494 -1.7083  1.1184  0.1969
 2566SOL    MW410339   3.106   2.910   4.417 -0.4878  0.5198  0.4492
 2567SOL     OW10340   3.080   3.094   4.614 -0.1810 -0.5007 -0.1072
 2567SOL    HW210341   2.996   3.110   4.657 -0.7711 -0.5434 -1.2315
 2567SOL    HW310342   3.144   3.139   4.670 -0.9955 -0.1115  0.5283
 2567SOL    MW410343   3.077   3.102   4.627 -0.3664 -0.4551 -0.1721
 2568SOL     OW10344   2.501   3.156   4.158  0.1254  0.0576  0.1173
 2568SOL    HW210345   2.509   3.152   4.063 -0.0448 -0.4548  0.1215
 2568SOL    HW310346   2.511   3.065   4.187 -0.2102  0.1570  0.5529
 2568SOL    MW410347   2.503   3.144   4.149  0.0587  0.0033  0.1760
 2569SOL     OW10348   2.754   3.547   4.111 -0.0621  0.1728 -0.1435
 2569SOL    HW210349   2.666   3.572   4.139 -0.4707 -0.9499 -0.4154
 2569SOL    HW310350   2.767   3.459   4.144  1.1927  0.5365  0.3898
 2569SOL    MW410351   2.744   3.539   4.119  0.0494  0.0725 -0.1092
 2570SOL     OW10352   3.142   3.553   4.389 -0.4624  0.3636  0.0994
 2570SOL    HW210353   3.062   3.591   4.353  0.1284 -0.3898 -2.0710
 2570SOL    HW310354   3.116   3.468   4.423 -0.5691  0.0912 -0.6636
 2570SOL    MW410355   3.128   3.547   4.389 -0.3984  0.2284 -0.2875
 2571SOL     OW10356   2.963   3.882   4.117  0.4572 -0.5652  0.0088
 2571SOL    HW210357   3.049   3.914   4.146  0.9575 -1.5522 -0.3595
 2571SOL    HW310358   2.953   3.798   4.162 -0.1580 -0.6230 -0.2390
 2571SOL    MW410359   2.973   3.875   4.127  0.4420 -0.7031 -0.0725
 2572SOL     OW10360   2.774   4.030   4.265  0.2125  0.1424  0.4827
 2572SOL    HW210361   2.773   4.122   4.238 -1.8928 -0.1895 -0.6969
 2572SOL    HW310362   2.822   3.985   4.195  0.4842  0.2116  0.6228
 2572SOL    MW410363   2.780   4.036   4.252 -0.0296  0.1078  0.3457
 2573SOL     OW10364   2.747   4.271   4.125 -0.4338 -0.3157 -0.5175
 2573SOL    HW210365   2.818   4.326   4.158 -0.8501  0.3015 -0.6301
 2573SOL    HW310366   2.758   4.271   4.030  1.0535 -2.4911 -0.3717
 2573SOL    MW410367   2.758   4.278   4.117 -0.2925 -0.5217 -0.5131
 2574SOL     OW10368   2.951   4.435   4.229 -0.0645  0.3661  0.1073
 2574SOL    HW210369   2.947   4.420   4.323  1.0751  0.9315  0.2603
 2574SOL    HW310370   3.029   4.389   4.200  0.2799  1.2157 -0.3533
 2574SOL    MW410371   2.961   4.427   4.237  0.1311  0.5531  0.0663
 2575SOL     OW10372   3.373   4.630   4.179 -0.2820 -0.3559  0.1432
 2575SOL    HW210373   3.456   4.664   4.212 -0.2849  0.8130 -1.0116
 2575SOL    HW310374   3.360   4.548   4.226  1.3383 -0.3564  0.6160
 2575SOL    MW410375   3.382   4.623   4.189 -0.0687 -0.2022  0.0534
 2576SOL     OW10376   3.131   0.130   4.273 -0.6112 -0.5845  0.0746
 2576SOL    HW210377   3.152   0.178   4.353  2.7609 -0.1714 -0.9915
 2576SOL    HW310378   3.205   0.072   4.259 -1.0115 -0.4681 -2.9099
 2576SOL    MW410379   3.143   0.128   4.281 -0.2189 -0.5147 -0.4597
 2577SOL     OW10380   3.139   0.384   4.170  0.0606  0.9177  0.1053
 2577SOL    HW210381   3.141   0.298   4.211  1.5951  1.4698  1.2116
 2577SOL    HW310382   3.063   0.427   4.208  0.0685  0.5400  0.5484
 2577SOL    MW410383   3.129   0.379   4.180  0.2639  0.9408  0.3095
 2578SOL     OW10384   3.378   0.536   4.224 -0.4224  0.2036  0.2522
 2578SOL    HW210385   3.438   0.486   4.168 -1.1387  0.2682 -0.5814
 2578SOL    HW310386   3.292   0.499   4.205 -0.8092  0.9952  0.4762
 2578SOL    MW410387   3.375   0.524   4.214 -0.5679  0.3166  0.1721
 2579SOL     OW10388   3.342   0.779   4.126 -0.4732 -0.5407  0.1041
 2579SOL    HW210389   3.254   0.803   4.156 -0.7763 -1.2630 -0.2059
 2579SOL    HW310390   3.362   0.698   4.173  0.1782 -0.1738  0.4584
 2579SOL    MW410391   3.333   0.771   4.136 -0.4268 -0.5876  0.1101
 2580SOL     OW10392   3.098   0.876   4.252  0.1552 -0.0035 -0.3064
 2580SOL    HW210393   3.115   0.863   4.345 -2.2250 -1.0015  0.0343
 2580SOL    HW310394   3.139   0.960   4.231  1.1731 -0.0255  1.5089
 2580SOL    MW410395   3.105   0.885   4.261 -0.0246 -0.1382 -0.0224
 2581SOL     OW10396   3.168   1.131   4.179  0.2784 -0.3559 -0.4138
 2581SOL    HW210397   3.244   1.173   4.219  0.1907 -0.1483 -0.4665
 2581SOL    HW310398   3.181   1.141   4.085 -0.4203  0.7565 -0.3992
 2581SOL    MW410399   3.179   1.138   4.172  0.1745 -0.1818 -0.4187
 2582SOL     OW10400   3.388   1.321   4.268 -0.7754 -0.0022 -0.4479
 2582SOL    HW210401   3.399   1.354   4.358 -0.0382 -0.6346 -0.3025
 2582SOL    HW310402   3.372   1.400   4.216  0.1427  0.5099  0.0287
 2582SOL    MW410403   3.387   1.336   4.273 -0.5572 -0.0181 -0.3657
 2583SOL     OW10404   3.358   1.575   4.138  0.1718  0.1886 -0.0574
 2583SOL    HW210405   3.282   1.616   4.180  0.3007  0.3017  0.0639
 2583SOL    HW310406   3.340   1.582   4.045  0.3605  0.8355 -0.0473
 2583SOL    MW410407   3.346   1.581   4.132  0.2139  0.2888 -0.0401
 2584SOL     OW10408   3.158   1.688   4.264 -0.1238  0.4945  0.3313
 2584SOL    HW210409   3.142   1.692   4.358 -0.3233  0.3110  0.3053
 2584SOL    HW310410   3.139   1.777   4.233 -2.1737  0.0095  0.1405
 2584SOL    MW410411   3.153   1.700   4.272 -0.4203  0.4063  0.3023
 2585SOL     OW10412   3.104   1.910   4.124  0.3919 -0.7619  0.4535
 2585SOL    HW210413   3.162   1.980   4.154  1.3976 -1.3492 -0.0964
 2585SOL    HW310414   3.015   1.942   4.143  0.8670  0.4067  0.7270
 2585SOL    MW410415   3.100   1.923   4.130  0.5872 -0.6852  0.4168
 2586SOL     OW10416   3.301   2.079   4.234 -0.1093 -0.2419  0.0880
 2586SOL    HW210417   3.375   2.033   4.193 -0.9739 -1.3050 -0.3140
 2586SOL    HW310418   3.287   2.155   4.179  0.4867 -0.2046 -0.0178
 2586SOL    MW410419   3.309   2.083   4.221 -0.1445 -0.3774  0.0210
 2587SOL     OW10420   3.228   2.269   4.050 -0.1771 -0.1572  0.0788
 2587SOL    HW210421   3.193   2.337   4.109  1.7058 -0.1810  1.2556
 2587SOL    HW310422   3.253   2.317   3.971  0.0896  0.3528  0.4692
 2587SOL    MW410423   3.226   2.285   4.048  0.1066 -0.0932  0.2856
 2588SOL     OW10424   3.127   2.465   4.235 -0.0762 -0.4117  0.1581
 2588SOL    HW210425   3.128   2.526   4.161 -0.4418 -1.4851 -0.7449
 2588SOL    HW310426   3.039   2.426   4.232 -0.3025 -0.0276  1.5217
 2588SOL    MW410427   3.115   2.468   4.225 -0.1543 -0.5031  0.2189
 2589SOL     OW10428   3.146   2.609   3.994 -0.3256  0.4297  0.2731
 2589SOL    HW210429   3.187   2.689   4.028 -0.4725  1.0163 -0.9178
 2589SOL    HW310430   3.052   2.626   4.000 -0.3529  0.7458 -0.8911
 2589SOL    MW410431   3.139   2.622   3.999 -0.3486  0.5488 -0.0377
 2590SOL     OW10432   3.186   2.741   3.743  0.5295 -0.1233 -0.5876
 2590SOL    HW210433   3.173   2.674   3.810  1.3408  1.2578  0.9733
 2590SOL    HW310434   3.118   2.806   3.760 -0.0927 -0.3903 -1.9364
 2590SOL    MW410435   3.175   2.741   3.754  0.5543  0.0236 -0.5598
 2591SOL     OW10436   3.317   3.089   4.077 -0.3585  0.1697  0.2084
 2591SOL    HW210437   3.236   3.129   4.111 -0.4667  1.2632 -1.3180
 2591SOL    HW310438   3.303   3.081   3.983  1.3530  0.4136 -0.0775
 2591SOL    MW410439   3.304   3.093   4.069 -0.1469  0.3462 -0.0310
 2592SOL     OW10440   2.896   3.098   4.087  0.8463  0.1473 -0.0460
 2592SOL    HW210441   2.978   3.094   4.136  1.2358  1.6643 -0.5599
 2592SOL    HW310442   2.840   3.156   4.138  0.2179 -0.5818  0.1055
 2592SOL    MW410443   2.900   3.105   4.100  0.8147  0.2513 -0.0944
 2593SOL     OW10444   3.111   3.147   4.257  0.0782 -0.1470 -0.0494
 2593SOL    HW210445   3.079   3.217   4.314  0.9171  0.3785 -0.2178
 2593SOL    HW310446   3.114   3.069   4.314  0.4961  0.2745  0.5106
 2593SOL    MW410447   3.107   3.146   4.272  0.2441 -0.0217  0.0019
 2594SOL     OW10448   3.326   3.540   4.181 -0.2195 -0.4141 -0.1494
 2594SOL    HW210449   3.268   3.548   4.257 -0.7888  0.2045 -0.6440
 2594SOL    HW310450   3.278   3.485   4.120  0.2933 -1.0160 -0.0132
 2594SOL    MW410451   3.312   3.534   4.183 -0.2270 -0.4117 -0.1965
 2595SOL     OW10452   3.337   3.812   4.124  0.0522  0.2243 -0.0819
 2595SOL    HW210453   3.329   3.719   4.144  0.5998  0.0715 -0.5296
 2595SOL    HW310454   3.338   3.816   4.028  0.1201  0.6814 -0.0659
 2595SOL    MW410455   3.336   3.800   4.114  0.1335  0.2644 -0.1392
 2596SOL     OW10456   3.181   4.034   4.196 -0.2647  0.6667 -0.5254
 2596SOL    HW210457   3.160   4.017   4.288  0.4322 -0.6533 -0.5977
 2596SOL    HW310458   3.231   3.957   4.168  0.0150  1.3132 -1.8520
 2596SOL    MW410459   3.185   4.021   4.204 -0.1359  0.5779 -0.7100
 2597SOL     OW10460   3.153   4.291   4.156 -0.1829  0.4564  0.2141
 2597SOL    HW210461   3.221   4.332   4.210  0.7830 -0.2656 -0.4471
 2597SOL    HW310462   3.159   4.198   4.177  0.0935  0.1910 -1.0145
 2597SOL    MW410463   3.163   4.284   4.166 -0.0193  0.3262 -0.0348
 2598SOL     OW10464   3.352   4.395   4.314 -0.0944  0.0047  0.1536
 2598SOL    HW210465   3.364   4.393   4.409 -1.2023 -1.5949  0.2765
 2598SOL    HW310466   3.412   4.327   4.281  0.8643  1.0854 -0.3716
 2598SOL    MW410467   3.362   4.386   4.322 -0.1140 -0.0639  0.1001
 2599SOL     OW10468   3.809   4.580   4.158 -0.3677 -0.4515  0.2120
 2599SOL    HW210469   3.879   4.634   4.194 -0.5982 -0.3017  0.4366
 2599SOL    HW310470   3.816   4.592   4.063 -0.3844 -0.0676  0.2595
 2599SOL    MW410471   3.819   4.589   4.150 -0.4003 -0.3815  0.2480
 2600SOL     OW10472   3.601   0.063   4.303 -0.3821 -0.0645 -0.1200
 2600SOL    HW210473   3.594   0.156   4.282  2.1470  0.5661  1.5549
 2600SOL    HW310474   3.665   0.029   4.240 -2.0699 -0.9194 -1.3987
 2600SOL    MW410475   3.609   0.070   4.292 -0.2713 -0.0941 -0.0677
 2601SOL     OW10476   3.557   0.318   4.175  0.3870 -0.5898 -0.3858
 2601SOL    HW210477   3.628   0.374   4.206 -0.2123 -0.3711  0.6025
 2601SOL    HW310478   3.572   0.310   4.080  0.0804  1.8125 -0.6503
 2601SOL    MW410479   3.569   0.324   4.166  0.2677 -0.2440 -0.2899
 2602SOL     OW10480   3.821   0.446   4.275  0.1952  0.6101 -0.0383
 2602SOL    HW210481   3.882   0.460   4.348  0.5171  0.7187 -0.3237
 2602SOL    HW310482   3.802   0.533   4.242 -0.2885  0.5883  0.1888
 2602SOL    MW410483   3.827   0.459   4.280  0.1736  0.6215 -0.0458
 2603SOL     OW10484   3.789   0.717   4.176 -0.1739  0.3938  0.3003
 2603SOL    HW210485   3.707   0.763   4.196  1.0724  1.8312  2.2570
 2603SOL    HW310486   3.810   0.745   4.087 -2.0043 -0.3161 -0.3872
 2603SOL    MW410487   3.781   0.727   4.167 -0.2511  0.4898  0.4673
 2604SOL     OW10488   3.583   0.884   4.237 -0.1609 -0.6562 -0.0436
 2604SOL    HW210489   3.586   0.977   4.213  0.5760 -0.5733  0.3525
 2604SOL    HW310490   3.499   0.853   4.203 -0.0780 -0.0266 -0.8409
 2604SOL    MW410491   3.572   0.892   4.230 -0.0527 -0.5621 -0.0973
 2605SOL     OW10492   3.567   1.147   4.161  0.1347  0.2510 -0.1890
 2605SOL    HW210493   3.509   1.211   4.202 -0.2773  0.0339 -0.4292
 2605SOL    HW310494   3.549   1.154   4.067  0.2700 -0.0338 -0.2397
 2605SOL    MW410495   3.557   1.156   4.154  0.0980  0.1848 -0.2275
 2606SOL     OW10496   3.820   1.264   4.219  0.1438 -0.0030  0.2364
 2606SOL    HW210497   3.738   1.218   4.202  0.0598  0.3253 -0.2703
 2606SOL    HW310498   3.808   1.349   4.176  0.0463  0.7312  1.7029
 2606SOL    MW410499   3.808   1.269   4.211  0.1199  0.1371  0.3629
 2607SOL     OW10500   3.789   1.495   4.072  0.3480  0.1920 -0.0691
 2607SOL    HW210501   3.870   1.538   4.099 -0.3067  0.0565  2.1284
 2607SOL    HW310502   3.719   1.554   4.099 -0.4002 -0.6590 -0.1168
 2607SOL    MW410503   3.790   1.508   4.079  0.1628  0.0618  0.2146
 2608SOL     OW10504   3.624   1.678   4.193 -0.5036 -0.3425  0.3102
 2608SOL    HW210505   3.535   1.642   4.188  0.5413 -3.1389  1.1735
 2608SOL    HW310506   3.646   1.673   4.286 -0.3572  2.7185  0.4773
 2608SOL    MW410507   3.615   1.672   4.205 -0.3462 -0.3076  0.4458
 2609SOL     OW10508   3.574   1.969   4.187  0.0122  0.1197  0.1704
 2609SOL    HW210509   3.602   1.878   4.191  0.5186  0.2443 -0.3895
 2609SOL    HW310510   3.572   1.989   4.093 -0.3557  0.5988  0.2813
 2609SOL    MW410511   3.578   1.960   4.175  0.0305  0.1993  0.1111
 2610SOL     OW10512   3.694   2.121   4.374  0.4848 -0.0478  0.2212
 2610SOL    HW210513   3.643   2.127   4.454 -0.4664  0.6236 -0.4153
 2610SOL    HW310514   3.639   2.069   4.314  0.9925 -0.1843 -0.1280
 2610SOL    MW410515   3.680   2.115   4.376  0.4263  0.0226  0.0916
 2611SOL     OW10516   3.613   2.391   4.300 -0.2722  0.3577 -0.1932
 2611SOL    HW210517   3.601   2.302   4.334  1.4926  0.2150  0.0788
 2611SOL    HW310518   3.524   2.428   4.301 -0.9458 -1.2020  0.2133
 2611SOL    MW410519   3.599   2.384   4.305 -0.1285  0.1330 -0.1035
 2612SOL     OW10520   3.351   2.771   4.375  0.2307 -0.0914 -0.1707
 2612SOL    HW210521   3.402   2.796   4.452  0.1228 -1.2246  0.2764
 2612SOL    HW310522   3.262   2.800   4.396  0.2203 -0.3108  0.0972
 2612SOL    MW410523   3.346   2.778   4.388  0.2153 -0.2697 -0.0763
 2613SOL     OW10524   3.762   2.736   4.135 -0.2808  0.0495 -0.3420
 2613SOL    HW210525   3.748   2.699   4.222  1.7405  1.3462  0.5434
 2613SOL    HW310526   3.702   2.686   4.079  0.6730 -2.9808  1.2190
 2613SOL    MW410527   3.752   2.724   4.139  0.1118 -0.1791 -0.0191
 2614SOL     OW10528   3.690   2.634   4.387 -0.0736 -0.1976  0.3853
 2614SOL    HW210529   3.655   2.554   4.348  0.4532 -0.2962  0.1083
 2614SOL    HW310530   3.623   2.662   4.449  0.0973 -1.3293  1.1048
 2614SOL    MW410531   3.677   2.627   4.390  0.0184 -0.3600  0.4435
 2615SOL     OW10532   3.771   3.021   4.126  0.3862 -0.6887  0.1772
 2615SOL    HW210533   3.762   2.927   4.138 -0.4391 -0.5837  0.3742
 2615SOL    HW310534   3.755   3.035   4.033  0.1395 -0.6958  0.2189
 2615SOL    MW410535   3.768   3.010   4.115  0.2446 -0.6757  0.2084
 2616SOL     OW10536   3.547   3.162   4.228 -0.2000  0.5158 -0.4892
 2616SOL    HW210537   3.622   3.125   4.181 -0.1851 -0.7481  0.5045
 2616SOL    HW310538   3.471   3.121   4.186 -0.2043 -0.3089  0.3163
 2616SOL    MW410539   3.547   3.151   4.216 -0.1988  0.2401 -0.2518
 2617SOL     OW10540   3.591   3.439   4.136  0.0306  0.0450 -0.5088
 2617SOL    HW210541   3.583   3.347   4.161  0.6707 -0.0910 -0.8097
 2617SOL    HW310542   3.509   3.479   4.166 -0.7646 -0.8613 -1.4072
 2617SOL    MW410543   3.579   3.432   4.143  0.0103 -0.0927 -0.6676
 2618SOL     OW10544   3.845   3.572   4.249  1.0475 -0.1039 -0.4116
 2618SOL    HW210545   3.924   3.526   4.221  0.5360 -0.5584 -1.1339
 2618SOL    HW310546   3.773   3.521   4.211  0.3841 -0.0072  0.6831
 2618SOL    MW410547   3.846   3.559   4.241  0.8924 -0.1512 -0.3619
 2619SOL     OW10548   3.798   3.805   4.124  0.0201 -0.1158 -0.6588
 2619SOL    HW210549   3.720   3.833   4.172  1.5598  1.2379  1.1197
 2619SOL    HW310550   3.824   3.724   4.168  0.7856  0.5250  0.0740
 2619SOL    MW410551   3.791   3.798   4.136  0.3242  0.1473 -0.3276
 2620SOL     OW10552   3.570   3.945   4.253 -0.0394 -0.3068 -0.4495
 2620SOL    HW210553   3.576   3.922   4.346  0.0687  0.9103 -0.1540
 2620SOL    HW310554   3.490   3.901   4.223  0.5172 -1.6219 -0.0614
 2620SOL    MW410555   3.560   3.936   4.262  0.0482 -0.3195 -0.3595
 2621SOL     OW10556   3.536   4.219   4.175  0.1477 -0.0807  0.0483
 2621SOL    HW210557   3.618   4.262   4.198 -0.6643  1.3364  0.2969
 2621SOL    HW310558   3.545   4.131   4.211  1.4797  0.1163  0.2294
 2621SOL    MW410559   3.548   4.213   4.182  0.2165  0.1321  0.1054
 2622SOL     OW10560   3.775   4.323   4.299 -0.1750 -0.0155  0.1743
 2622SOL    HW210561   3.852   4.277   4.266 -0.4461 -0.4383  0.1217
 2622SOL    HW310562   3.781   4.411   4.260 -0.2346 -0.3557 -0.6229
 2622SOL    MW410563   3.786   4.329   4.289 -0.2186 -0.1159  0.0625
 2623SOL     OW10564   4.233   4.612   4.171  0.2749 -0.1859 -0.2481
 2623SOL    HW210565   4.248   4.524   4.207  2.3696 -0.0914 -0.8522
 2623SOL    HW310566   4.307   4.664   4.202 -0.3053  1.0615 -0.9135
 2623SOL    MW410567   4.244   4.607   4.180  0.4740 -0.0081 -0.4153
 2624SOL     OW10568   4.011   0.043   4.277  0.1665  0.3694 -0.0915
 2624SOL    HW210569   4.012   0.126   4.228 -0.3012 -0.4373 -1.4767
 2624SOL    HW310570   4.089  -0.003   4.246 -0.1334 -0.1461 -0.0683
 2624SOL    MW410571   4.021   0.048   4.266  0.0653  0.1949 -0.2708
 2625SOL     OW10572   4.018   0.293   4.167  0.2910  0.7774 -0.4208
 2625SOL    HW210573   4.075   0.348   4.221 -0.5092  1.0214  0.1804
 2625SOL    HW310574   3.930   0.328   4.182 -0.3740 -1.3574  0.8326
 2625SOL    MW410575   4.014   0.305   4.176  0.0973  0.5279 -0.1764
 2626SOL     OW10576   4.201   0.452   4.282 -0.2962 -0.2438 -0.3414
 2626SOL    HW210577   4.206   0.529   4.225  0.7984 -0.1443 -0.1146
 2626SOL    HW310578   4.280   0.401   4.261 -1.3274 -1.6396 -0.9551
 2626SOL    MW410579   4.212   0.455   4.271 -0.2875 -0.4148 -0.3920
 2627SOL     OW10580   4.240   0.689   4.166  0.5937  0.0548 -0.0698
 2627SOL    HW210581   4.174   0.746   4.205  1.4017 -0.3969  2.0092
 2627SOL    HW310582   4.238   0.711   4.073 -0.0325  2.5444  0.4757
 2627SOL    MW410583   4.231   0.700   4.159  0.6180  0.3237  0.2761
 2628SOL     OW10584   4.028   0.842   4.271 -0.2278 -0.0721 -0.0108
 2628SOL    HW210585   4.021   0.932   4.241  0.1639 -0.2790 -0.7289
 2628SOL    HW310586   3.951   0.798   4.236 -0.7072  0.1089  0.8002
 2628SOL    MW410587   4.017   0.848   4.263 -0.2398 -0.0756  0.0014
 2629SOL     OW10588   4.024   1.085   4.151 -0.3014  0.2380 -0.0332
 2629SOL    HW210589   4.084   1.147   4.193 -1.2544  1.5787 -0.6394
 2629SOL    HW310590   3.938   1.127   4.157 -0.7360 -0.4027 -1.6847
 2629SOL    MW410591   4.021   1.099   4.157 -0.4845  0.3303 -0.3309
 2630SOL     OW10592   4.227   1.246   4.244  0.1678 -0.1231  0.4747
 2630SOL    HW210593   4.225   1.242   4.340  0.1392 -1.0943  0.4417
 2630SOL    HW310594   4.309   1.202   4.221 -0.0465 -0.2890  0.0393
 2630SOL    MW410595   4.238   1.239   4.254  0.1354 -0.2732  0.4129
 2631SOL     OW10596   4.294   1.514   4.137 -0.1096  0.1015 -0.1860
 2631SOL    HW210597   4.255   1.433   4.171  0.3673 -0.0990 -0.1154
 2631SOL    HW310598   4.273   1.514   4.044  0.3911 -0.3951 -0.3005
 2631SOL    MW410599   4.286   1.503   4.130  0.0196  0.0095 -0.1917
 2632SOL     OW10600   4.023   1.598   4.202 -0.6142 -0.0200  0.1474
 2632SOL    HW210601   4.007   1.584   4.295 -0.0286  0.5089  0.3254
 2632SOL    HW310602   4.108   1.559   4.185 -1.6240 -1.9887 -0.6176
 2632SOL    MW410603   4.032   1.591   4.212 -0.6704 -0.2098  0.0696
 2633SOL     OW10604   4.043   1.887   4.244 -0.4243  0.0116  0.0288
 2633SOL    HW210605   4.055   1.797   4.216  2.4294  0.4451 -0.2770
 2633SOL    HW310606   3.980   1.882   4.316 -0.1509 -2.2188  0.1341
 2633SOL    MW410607   4.036   1.875   4.250 -0.0119 -0.2254  0.0019
 2634SOL     OW10608   0.020   1.929   4.100 -0.4594 -0.1308 -0.2164
 2634SOL    HW210609   0.103   1.973   4.121 -0.7238 -0.1017  0.8035
 2634SOL    HW310610  -0.045   1.975   4.154 -1.3193  0.5377 -1.8007
 2634SOL    MW410611   0.023   1.941   4.110 -0.6078 -0.0387 -0.2918
 2635SOL     OW10612   4.038   2.450   4.195  0.0108  0.0153  0.2879
 2635SOL    HW210613   3.957   2.403   4.177 -0.4606  1.2528 -0.9330
 2635SOL    HW310614   4.048   2.447   4.290 -1.7341  0.3062  0.4815
 2635SOL    MW410615   4.029   2.444   4.205 -0.2813  0.2170  0.1531
 2636SOL     OW10616   3.818   2.302   4.119 -0.1147 -0.2295  0.6302
 2636SOL    HW210617   3.747   2.319   4.180 -1.3297  0.5158 -0.9664
 2636SOL    HW310618   3.781   2.322   4.033  1.8435 -0.3887 -0.2675
 2636SOL    MW410619   3.804   2.307   4.116 -0.0165 -0.1523  0.3014
 2637SOL     OW10620   4.013   2.701   4.059 -0.3069  0.1602  0.6968
 2637SOL    HW210621   4.021   2.620   4.108 -0.9074  0.7099  1.7267
 2637SOL    HW310622   3.922   2.728   4.072 -0.3514  0.5480 -0.3574
 2637SOL    MW410623   4.002   2.694   4.067 -0.3915  0.2842  0.6938
 2638SOL     OW10624   4.067   2.882   4.253  0.0254 -0.4382  0.0443
 2638SOL    HW210625   3.994   2.865   4.313 -1.0474  1.4907 -0.6610
 2638SOL    HW310626   4.062   2.810   4.190 -0.6745 -0.8456  0.5438
 2638SOL    MW410627   4.056   2.870   4.253 -0.2089 -0.2372  0.0172
 2639SOL     OW10628   4.223   3.084   4.128 -0.1860  0.4819  0.0253
 2639SOL    HW210629   4.180   3.004   4.159 -1.4774  1.1265 -0.0568
 2639SOL    HW310630   4.232   3.071   4.034 -1.1938  0.7782 -0.1241
 2639SOL    MW410631   4.218   3.071   4.120 -0.4897  0.6061 -0.0052
 2640SOL     OW10632   3.988   3.198   4.202  0.0169 -0.3725 -0.5757
 2640SOL    HW210633   4.063   3.157   4.160  0.3302 -1.3847  0.9418
 2640SOL    HW310634   3.916   3.136   4.189 -0.0475 -0.3756 -0.2042
 2640SOL    MW410635   3.988   3.184   4.194  0.0496 -0.5066 -0.3266
 2641SOL     OW10636   4.061   3.457   4.124 -0.2705 -0.2133 -0.8905
 2641SOL    HW210637   4.058   3.369   4.161 -2.8523 -0.2199 -1.0466
 2641SOL    HW310638   4.083   3.442   4.032 -0.6751 -0.7072 -0.9140
 2641SOL    MW410639   4.064   3.443   4.117 -0.6642 -0.2794 -0.9146
 2642SOL     OW10640   4.249   3.597   4.289  0.1786  0.3291 -0.5827
 2642SOL    HW210641   4.232   3.687   4.261 -0.7212  0.1222 -0.6916
 2642SOL    HW310642   4.185   3.544   4.242  0.9450 -0.4157 -0.7961
 2642SOL    MW410643   4.239   3.602   4.279  0.1612  0.2034 -0.6247
 2643SOL     OW10644   4.255   3.857   4.182  0.0890 -0.3279 -0.0717
 2643SOL    HW210645   4.172   3.890   4.216  0.9196  1.6559  0.1268
 2643SOL    HW310646   4.242   3.852   4.087 -0.4977 -0.7710  0.0302
 2643SOL    MW410647   4.242   3.861   4.174  0.1206 -0.1247 -0.0319
 2644SOL     OW10648   4.000   3.956   4.267  0.4205 -0.2554  0.1727
 2644SOL    HW210649   3.972   3.958   4.358  0.3446 -0.3042  0.1504
 2644SOL    HW310650   3.928   3.915   4.220  0.4878 -0.2918  0.0997
 2644SOL    MW410651   3.987   3.951   4.273  0.4194 -0.2668  0.1602
 2645SOL     OW10652   3.997   4.210   4.174 -0.2648 -0.1221  0.3185
 2645SOL    HW210653   4.082   4.242   4.205 -0.1353 -0.4047  0.2621
 2645SOL    HW310654   3.992   4.121   4.208 -1.4382  0.5806  2.0545
 2645SOL    MW410655   4.007   4.202   4.183 -0.4029 -0.0663  0.5403
 2646SOL     OW10656   4.230   0.015   4.665  0.2018  0.4321  0.3040
 2646SOL    HW210657   4.143   0.045   4.637 -0.0380 -0.0631  0.5136
 2646SOL    HW310658   4.227   0.022   4.761  0.5878  0.9514  0.2756
 2646SOL    MW410659   4.218   0.020   4.674  0.2213  0.4353  0.3281
 2647SOL     OW10660   0.377   0.323   4.495  0.1631  0.3647 -0.0429
 2647SOL    HW210661   0.453   0.381   4.491  0.7163 -0.3388  0.1582
 2647SOL    HW310662   0.322   0.351   4.422  0.9531  0.4210 -0.6213
 2647SOL    MW410663   0.380   0.335   4.485  0.3403  0.2793 -0.0935
 2648SOL     OW10664   4.260   4.425   4.563  0.0767 -0.4109 -0.7710
 2648SOL    HW210665   4.189   4.378   4.608 -0.9960 -0.0673 -2.0849
 2648SOL    HW310666   4.258   4.513   4.600  0.6141 -0.7315  0.0529
 2648SOL    MW410667   4.250   4.430   4.574  0.0057 -0.4077 -0.8359
 2649SOL     OW10668   3.988   0.100   4.556  0.2328 -0.3034 -0.4452
 2649SOL    HW210669   3.998   0.079   4.463  0.2733  0.3200 -0.5849
 2649SOL    HW310670   3.895   0.090   4.574  0.0005  0.9319 -0.8960
 2649SOL    MW410671   3.977   0.096   4.546  0.2074 -0.0582 -0.5231
 2650SOL     OW10672   3.727   0.957   4.733  0.1948  0.3831 -0.0453
 2650SOL    HW210673   3.698   1.023   4.670  0.2676  0.0083 -0.4738
 2650SOL    HW310674   3.663   0.961   4.804  0.9920  1.9067  0.6063
 2650SOL    MW410675   3.715   0.966   4.734  0.3095  0.5348 -0.0162
 2651SOL     OW10676   0.425   0.060   4.470  0.3153 -0.0997  0.1103
 2651SOL    HW210677   0.410   0.150   4.499 -0.5161 -0.2976  0.3209
 2651SOL    HW310678   0.344   0.014   4.492 -0.0399 -0.4442 -1.8040
 2651SOL    MW410679   0.412   0.066   4.477  0.1587 -0.1712 -0.1149
 2652SOL     OW10680   0.571   0.803   4.464  0.0505 -0.2788 -0.3153
 2652SOL    HW210681   0.662   0.828   4.478  0.4455 -1.4886 -0.6741
 2652SOL    HW310682   0.559   0.810   4.369 -0.5210  0.8452 -0.1678
 2652SOL    MW410683   0.581   0.807   4.453  0.0272 -0.2902 -0.3433
 2653SOL     OW10684   4.432   0.894   4.495 -0.1866 -0.0072  0.3598
 2653SOL    HW210685   4.437   0.883   4.400  1.6110  0.0830  0.4237
 2653SOL    HW310686   4.339   0.882   4.516 -0.9730  2.0947 -1.6624
 2653SOL    MW410687   4.420   0.891   4.485 -0.0529  0.2821  0.1020
 2654SOL     OW10688   0.509   1.330   4.499 -0.4076 -0.3106  0.4872
 2654SOL    HW210689   0.430   1.277   4.506 -0.1661 -0.8358 -0.6341
 2654SOL    HW310690   0.478   1.420   4.505 -0.9971 -0.5361  0.8468
 2654SOL    MW410691   0.494   1.335   4.501 -0.4536 -0.4096  0.3862
 2655SOL     OW10692   0.693   2.014   4.496 -0.0493 -0.3769  0.0983
 2655SOL    HW210693   0.767   1.974   4.542 -0.7779 -2.2378 -0.3058
 2655SOL    HW310694   0.621   1.952   4.507 -0.5129 -0.4138 -2.7071
 2655SOL    MW410695   0.693   2.001   4.503 -0.2066 -0.6275 -0.3252
 2656SOL     OW10696   4.229   1.248   4.553 -0.0243 -0.8011 -0.4588
 2656SOL    HW210697   4.180   1.202   4.620 -0.3965  0.1167 -0.0913
 2656SOL    HW310698   4.319   1.220   4.565 -0.3208 -1.8390 -0.5909
 2656SOL    MW410699   4.234   1.239   4.563 -0.1125 -0.8168 -0.4277
 2657SOL     OW10700   0.242   1.980   4.483  0.2112 -0.1898 -0.0234
 2657SOL    HW210701   0.164   1.928   4.504 -0.6677  0.6366 -1.1850
 2657SOL    HW310702   0.230   2.062   4.531 -0.1023  0.3074 -0.9343
 2657SOL    MW410703   0.230   1.984   4.492  0.0539 -0.0153 -0.2971
 2658SOL     OW10704   0.390   1.660   4.208  0.2318  0.3936 -0.0054
 2658SOL    HW210705   0.477   1.621   4.202  0.7254  1.4865 -0.2032
 2658SOL    HW310706   0.331   1.596   4.169  0.8038 -0.8160  1.0817
 2658SOL    MW410707   0.394   1.647   4.202  0.3724  0.3783  0.1121
 2659SOL     OW10708   4.302   2.019   4.283 -0.4759 -0.3632  0.4450
 2659SOL    HW210709   4.289   2.040   4.376  1.1655  0.0728  0.5933
 2659SOL    HW310710   4.224   1.969   4.259 -0.9994 -0.3452  2.0210
 2659SOL    MW410711   4.290   2.015   4.292 -0.3285 -0.3033  0.6723
 2660SOL     OW10712   3.805   2.743   4.740  0.1481 -0.5816  0.0229
 2660SOL    HW210713   3.744   2.784   4.678  0.8776 -0.6682 -0.7632
 2660SOL    HW310714   3.835   2.664   4.695  0.4535 -0.8066  0.6156
 2660SOL    MW410715   3.801   2.738   4.726  0.2847 -0.6227 -0.0024
 2661SOL     OW10716   0.428   2.422   4.560 -1.0498 -0.6015  0.1991
 2661SOL    HW210717   0.499   2.365   4.589 -0.4839 -0.4616 -0.8680
 2661SOL    HW310718   0.449   2.441   4.469 -0.3984  2.5032  0.9193
 2661SOL    MW410719   0.440   2.417   4.552 -0.8892 -0.1733  0.1535
 2662SOL     OW10720   0.240   2.951   4.480 -0.1801 -0.5421  0.6650
 2662SOL    HW210721   0.234   2.891   4.405  0.1720 -1.5143  1.4109
 2662SOL    HW310722   0.150   2.983   4.492 -0.0571  0.4288 -0.8185
 2662SOL    MW410723   0.227   2.947   4.471 -0.1174 -0.5422  0.5674
 2663SOL     OW10724   4.077   2.799   4.713 -0.2935  0.4157 -0.3028
 2663SOL    HW210725   4.005   2.782   4.775  1.5685  0.1619  1.8695
 2663SOL    HW310726   4.092   2.893   4.718 -0.9346  0.5797 -1.3070
 2663SOL    MW410727   4.069   2.809   4.722 -0.1321  0.4041 -0.1488
 2664SOL     OW10728   4.329   3.284   4.587  0.5360 -0.4862  0.1270
 2664SOL    HW210729   4.378   3.206   4.561  0.7872  0.2108 -1.5561
 2664SOL    HW310730   4.240   3.268   4.556  0.6763  0.0508 -0.5656
 2664SOL    MW410731   4.324   3.271   4.579  0.5875 -0.3233 -0.1864
 2665SOL     OW10732   4.468   3.050   4.489  0.0554 -0.1687  0.5243
 2665SOL    HW210733   4.410   2.978   4.464  1.7490 -1.5206  0.4246
 2665SOL    HW310734   4.478   3.102   4.409 -1.7908  0.6716  0.7941
 2665SOL    MW410735   4.462   3.048   4.475  0.0348 -0.2363  0.5474
 2666SOL     OW10736   4.171   3.959   4.686 -0.0796  0.2408 -0.8134
 2666SOL    HW210737   4.094   3.945   4.630 -0.8007 -1.0138  0.4400
 2666SOL    HW310738   4.177   3.878   4.738 -0.0568  1.7810  1.6327
 2666SOL    MW410739   4.161   3.946   4.686 -0.1717  0.2782 -0.3257
 2667SOL     OW10740   0.001   0.116   4.544  0.1185  0.2680  0.2837
 2667SOL    HW210741   0.011   0.204   4.579 -0.4175  0.7879 -0.8294
 2667SOL    HW310742  -0.085   0.087   4.576 -0.4553  0.8158 -0.7149
 2667SOL    MW410743  -0.009   0.124   4.553 -0.0281  0.4089  0.0048
 2668SOL     OW10744   3.652   0.419   4.597 -0.4442  0.2504  0.3523
 2668SOL    HW210745   3.566   0.419   4.556  0.1904 -1.0487 -0.9779
 2668SOL    HW310746   3.680   0.511   4.592 -1.4475  0.5580  0.1875
 2668SOL    MW410747   3.644   0.431   4.591 -0.4928  0.1195  0.1554
 2669SOL     OW10748   3.802   3.688   4.612 -0.4145  0.5441  0.5008
 2669SOL    HW210749   3.825   3.689   4.705  1.3489 -0.0639  0.0945
 2669SOL    HW310750   3.817   3.597   4.584 -0.0949  0.9157 -0.5764
 2669SOL    MW410751   3.807   3.676   4.620 -0.1397  0.5131  0.3052
 2670SOL     OW10752   3.780   4.159   4.649 -0.0219  0.3530  0.2859
 2670SOL    HW210753   3.752   4.246   4.621 -0.1328  0.1427 -0.2609
 2670SOL    HW310754   3.708   4.126   4.701 -0.4334  0.1522 -0.4111
 2670SOL    MW410755   3.767   4.166   4.652 -0.0908  0.2990  0.1216
 2671SOL     OW10756   0.644   4.535   4.521  0.1137  0.2646 -0.1946
 2671SOL    HW210757   0.566   4.589   4.520  0.4477  0.7433 -1.2175
 2671SOL    HW310758   0.648   4.497   4.433  0.2570 -0.8697  0.3020
 2671SOL    MW410759   0.635   4.537   4.509  0.1766  0.1783 -0.2637
 2672SOL     OW10760   0.279   1.186   4.521 -0.1023  0.2671  0.3645
 2672SOL    HW210761   0.291   1.108   4.575 -1.7131 -0.0063  0.3544
 2672SOL    HW310762   0.189   1.213   4.537 -0.3515  0.6603 -1.5812
 2672SOL    MW410763   0.269   1.180   4.530 -0.3477  0.2829  0.1059
 2673SOL     OW10764   1.252   0.796   4.694 -0.1392 -0.1518  0.1776
 2673SOL    HW210765   1.275   0.844   4.773 -0.5760  0.7496 -0.2238
 2673SOL    HW310766   1.286   0.708   4.707  0.8810  0.3379  0.8359
 2673SOL    MW410767   1.259   0.791   4.706 -0.0622  0.0318  0.2112
 2674SOL     OW10768   0.575   0.539   4.469 -0.3842  0.0053 -0.0970
 2674SOL    HW210769   0.562   0.634   4.475  0.9092  0.0925  1.6120
 2674SOL    HW310770   0.620   0.527   4.385 -1.3644  0.8015 -0.7467
 2674SOL    MW410771   0.579   0.550   4.458 -0.3429  0.1218  0.0424
 2675SOL     OW10772   1.108   0.526   4.474  0.5273  0.0485  0.7814
 2675SOL    HW210773   1.070   0.442   4.500  1.2689 -0.8347 -0.9304
 2675SOL    HW310774   1.052   0.592   4.516 -2.0303 -1.2442 -0.5552
 2675SOL    MW410775   1.096   0.524   4.483  0.2877 -0.2385  0.3791
 2676SOL     OW10776   0.357   0.929   4.643 -0.1102 -0.4244 -0.0074
 2676SOL    HW210777   0.431   0.900   4.590 -0.2684  0.0849 -0.5146
 2676SOL    HW310778   0.301   0.853   4.650 -1.2282  0.1092 -2.5156
 2676SOL    MW410779   0.360   0.915   4.637 -0.2786 -0.2868 -0.4048
 2677SOL     OW10780   2.207   0.999   4.525  0.0873  0.1554  0.1449
 2677SOL    HW210781   2.113   0.981   4.532  0.3290 -0.4757  2.3059
 2677SOL    HW310782   2.214   1.093   4.539 -0.3246  0.3895 -1.2024
 2677SOL    MW410783   2.196   1.009   4.528  0.0648  0.1030  0.2522
 2678SOL     OW10784   0.966   1.345   4.446 -0.0486  0.1689  0.1087
 2678SOL    HW210785   0.943   1.436   4.462 -1.0780 -0.5003  2.6815
 2678SOL    HW310786   1.013   1.317   4.525 -0.1446 -1.6448 -0.4438
 2678SOL    MW410787   0.969   1.353   4.458 -0.1971 -0.1587  0.3753
 2679SOL     OW10788   1.433   0.913   4.502 -0.1919 -0.0785 -0.5974
 2679SOL    HW210789   1.409   0.886   4.413  0.1700 -1.1428 -0.3778
 2679SOL    HW310790   1.356   0.893   4.555 -0.0994 -0.2162 -0.5172
 2679SOL    MW410791   1.420   0.907   4.497 -0.1320 -0.2371 -0.5579
 2680SOL     OW10792   0.913   1.882   4.628 -0.2045 -0.1224  0.0194
 2680SOL    HW210793   0.955   1.958   4.587  1.1093 -0.9762 -0.2523
 2680SOL    HW310794   0.928   1.894   4.722 -1.0379  0.5501  0.0755
 2680SOL    MW410795   0.921   1.894   4.635 -0.1411 -0.1463 -0.0095
 2681SOL     OW10796   0.680   2.289   4.603 -0.2744 -0.3523 -0.4320
 2681SOL    HW210797   0.760   2.328   4.568 -1.4296  0.8987 -1.7372
 2681SOL    HW310798   0.684   2.197   4.577  1.0474 -0.4572  0.1117
 2681SOL    MW410799   0.691   2.282   4.595 -0.2524 -0.2010 -0.5322
 2682SOL     OW10800   1.172   1.289   4.645  0.4019  0.2285 -0.5287
 2682SOL    HW210801   1.235   1.360   4.632  0.7152 -0.3634 -2.3015
 2682SOL    HW310802   1.225   1.209   4.647  0.1307  0.0751  2.2145
 2682SOL    MW410803   1.187   1.288   4.644  0.4075  0.1303 -0.4010
 2683SOL     OW10804   4.208   2.200   4.513  0.2803 -0.0087 -0.0145
 2683SOL    HW210805   4.144   2.261   4.477  1.0021  0.0392 -1.2378
 2683SOL    HW310806   4.284   2.255   4.533  0.0667 -0.1159  1.1462
 2683SOL    MW410807   4.210   2.216   4.511  0.3471 -0.0167 -0.0229
 2684SOL     OW10808   0.935   2.927   4.551 -0.3526 -0.1879 -0.7347
 2684SOL    HW210809   0.940   3.018   4.522  1.1867 -0.7581 -2.3065
 2684SOL    HW310810   0.841   2.908   4.555 -0.6961  1.5257 -0.1548
 2684SOL    MW410811   0.923   2.936   4.548 -0.1948 -0.0370 -0.8659
 2685SOL     OW10812   0.201   2.230   4.619 -0.4166 -0.0726 -0.1666
 2685SOL    HW210813   0.270   2.292   4.597 -0.7109  1.1840  2.2605
 2685SOL    HW310814   0.120   2.280   4.616 -0.4352  0.3496  3.9825
 2685SOL    MW410815   0.200   2.245   4.616 -0.4579  0.1488  0.7010
 2686SOL     OW10816   1.252   3.191   4.500 -0.1355  0.2301 -0.1062
 2686SOL    HW210817   1.306   3.118   4.531  0.4795  0.8797  0.3669
 2686SOL    HW310818   1.273   3.263   4.560 -1.0065  0.6880 -0.3486
 2686SOL    MW410819   1.262   3.191   4.512 -0.1694  0.3762 -0.0758
 2687SOL     OW10820   0.464   3.117   4.503 -0.9238 -0.0259 -0.0447
 2687SOL    HW210821   0.454   3.162   4.587 -1.1492 -1.5997  0.7941
 2687SOL    HW310822   0.383   3.067   4.493 -1.0963  0.4996 -1.4374
 2687SOL    MW410823   0.452   3.116   4.513 -0.9762 -0.1643 -0.1183
 2688SOL     OW10824   1.095   4.494   4.469  0.1833  0.1578  0.3812
 2688SOL    HW210825   1.061   4.411   4.502  1.0181  0.1055  1.0888
 2688SOL    HW310826   1.025   4.557   4.488 -0.2473 -0.2811  0.2764
 2688SOL    MW410827   1.081   4.492   4.476  0.2366  0.0935  0.4611
 2689SOL     OW10828   4.153   3.073   4.693 -0.3436  0.0909 -0.2846
 2689SOL    HW210829   4.213   3.131   4.738 -0.2904 -0.9456  1.0202
 2689SOL    HW310830   4.137   3.115   4.608  0.9468  1.1680 -0.0034
 2689SOL    MW410831   4.159   3.086   4.687 -0.1664  0.0961 -0.0753
 2690SOL     OW10832   4.268   3.570   4.565  0.1651  0.1614 -0.0226
 2690SOL    HW210833   4.300   3.480   4.576 -0.8458 -0.3710 -1.2557
 2690SOL    HW310834   4.264   3.582   4.470 -1.2025  0.9667  0.1288
 2690SOL    MW410835   4.272   3.560   4.554 -0.1488  0.1974 -0.1655
 2691SOL     OW10836   0.621   4.272   4.652 -0.1707  0.0695  0.0501
 2691SOL    HW210837   0.617   4.352   4.601  0.5098 -0.4955 -0.9064
 2691SOL    HW310838   0.604   4.300   4.742  1.1154  1.4475 -0.1148
 2691SOL    MW410839   0.618   4.286   4.657  0.0888  0.1760 -0.0982
 2692SOL     OW10840   0.026   4.284   4.507 -0.1042  0.6729 -0.3312
 2692SOL    HW210841  -0.003   4.199   4.541 -0.3578 -0.0248 -2.2515
 2692SOL    HW310842  -0.046   4.344   4.529  0.1186  0.4234  1.1187
 2692SOL    MW410843   0.012   4.280   4.514 -0.1083  0.5479 -0.3929
 2693SOL     OW10844   4.386   4.044   4.534 -0.5355  0.3364 -0.2918
 2693SOL    HW210845   4.435   3.962   4.539 -0.6342  0.1486 -2.0521
 2693SOL    HW310846   4.301   4.024   4.572 -0.2661 -0.1371  0.0652
 2693SOL    MW410847   4.381   4.030   4.539 -0.5126  0.2494 -0.4768
 2694SOL     OW10848   0.197   4.556   4.513  0.1069  0.0587 -0.2947
 2694SOL    HW210849   0.125   4.607   4.550  0.0391  1.0685 -1.8013
 2694SOL    HW310850   0.172   4.465   4.529 -0.8808  0.4346  0.3515
 2694SOL    MW410851   0.184   4.550   4.520 -0.0324  0.2418 -0.4082
 2695SOL     OW10852   1.272   0.252   4.680  0.3961  0.3436 -0.0318
 2695SOL    HW210853   1.263   0.217   4.768 -0.2180  2.0983  0.6285
 2695SOL    HW310854   1.182   0.269   4.652  0.5802 -0.3421 -1.0657
 2695SOL    MW410855   1.259   0.250   4.688  0.3394  0.4847 -0.0815
 2696SOL     OW10856   1.020   0.288   4.610  0.1324  0.2440  0.3170
 2696SOL    HW210857   0.951   0.335   4.657  0.4622  0.6076  0.4424
 2696SOL    HW310858   0.984   0.201   4.597 -0.4055  0.4673  0.2640
 2696SOL    MW410859   1.006   0.283   4.614  0.1050  0.3214  0.3271
 2697SOL     OW10860   0.195   0.534   4.567 -0.0804  0.2470 -0.3537
 2697SOL    HW210861   0.170   0.533   4.474  0.4337 -1.4430 -0.5047
 2697SOL    HW310862   0.272   0.476   4.571  1.3728  2.2078  0.7444
 2697SOL    MW410863   0.202   0.526   4.555  0.1791  0.2827 -0.2289
 2698SOL     OW10864   1.777   1.164   4.577 -0.4768 -0.7183  0.2047
 2698SOL    HW210865   1.844   1.231   4.563 -0.3742 -1.0500 -0.9172
 2698SOL    HW310866   1.827   1.083   4.588 -0.6360 -0.7371  0.8125
 2698SOL    MW410867   1.793   1.162   4.576 -0.4842 -0.7646  0.1364
 2699SOL     OW10868   1.949   0.916   4.591 -0.4229 -0.1816 -0.5866
 2699SOL    HW210869   1.965   0.848   4.657 -3.5028 -1.0059 -0.6256
 2699SOL    HW310870   1.864   0.894   4.554 -1.0973  3.2180 -1.2053
 2699SOL    MW410871   1.940   0.904   4.595 -0.9181  0.1581 -0.6738
 2700SOL     OW10872   0.158   1.046   4.836  0.3464 -0.2121 -0.1347
 2700SOL    HW210873   0.251   1.050   4.858 -0.0715  0.1989  1.6441
 2700SOL    HW310874   0.141   0.953   4.820  0.8096 -0.4503  0.7209
 2700SOL    MW410875   0.168   1.034   4.837  0.3524 -0.1893  0.2131
 2701SOL     OW10876   0.745   1.163   4.498 -0.2941 -0.4254 -0.4536
 2701SOL    HW210877   0.664   1.213   4.509 -0.2526 -0.2221 -1.0393
 2701SOL    HW310878   0.809   1.227   4.469  0.3984 -0.3520  1.1653
 2701SOL    MW410879   0.743   1.178   4.496 -0.1972 -0.3890 -0.3171
 2702SOL     OW10880   0.967   0.708   4.613 -0.3075  0.0962  0.0785
 2702SOL    HW210881   0.928   0.782   4.567  1.7263  0.5908 -0.8947
 2702SOL    HW310882   1.035   0.748   4.668 -0.3152 -0.8872  0.8199
 2702SOL    MW410883   0.971   0.723   4.614 -0.0402  0.0318  0.0482
 2703SOL     OW10884   1.988   1.345   4.517 -0.2055  0.1050  0.3993
 2703SOL    HW210885   1.997   1.345   4.422  1.6403  0.0391  0.5406
 2703SOL    HW310886   2.076   1.321   4.549 -0.8199  0.0411  2.1071
 2703SOL    MW410887   2.001   1.342   4.509 -0.0429  0.0879  0.6437
 2704SOL     OW10888   0.835   0.899   4.446  0.1994 -0.0157  0.1592
 2704SOL    HW210889   0.859   0.911   4.355 -0.8793  0.3023 -0.0936
 2704SOL    HW310890   0.799   0.983   4.473 -1.7195 -0.7882  0.1540
 2704SOL    MW410891   0.833   0.911   4.438 -0.1962 -0.0756  0.1249
 2705SOL     OW10892   1.041   2.124   4.561  0.2517  0.1210 -0.1733
 2705SOL    HW210893   1.128   2.158   4.582 -0.0785  1.6235 -1.1599
 2705SOL    HW310894   0.987   2.202   4.551 -1.3010 -0.8102  0.7994
 2705SOL    MW410895   1.046   2.139   4.563  0.0032  0.1965 -0.1750
 2706SOL     OW10896   1.760   2.272   4.541 -0.5636  0.1519  0.7956
 2706SOL    HW210897   1.678   2.229   4.565  0.0066 -0.5050  1.5932
 2706SOL    HW310898   1.776   2.334   4.612 -0.1694  0.0066  0.8354
 2706SOL    MW410899   1.751   2.275   4.554 -0.4363  0.0458  0.9060
 2707SOL     OW10900   1.629   2.821   4.489 -0.2527  0.2429  0.2645
 2707SOL    HW210901   1.689   2.896   4.494  0.1658 -0.1517  1.2760
 2707SOL    HW310902   1.685   2.745   4.505 -1.2467 -0.0349  2.5853
 2707SOL    MW410903   1.645   2.821   4.492 -0.3287  0.1543  0.7043
 2708SOL     OW10904   1.378   3.444   4.565 -0.2556  0.3238 -0.0772
 2708SOL    HW210905   1.440   3.372   4.550 -0.9040 -0.7235  2.0833
 2708SOL    HW310906   1.421   3.499   4.631 -0.3500  1.2218 -0.7514
 2708SOL    MW410907   1.392   3.442   4.572 -0.3536  0.3042  0.1192
 2709SOL     OW10908   0.498   2.695   4.591  0.0262 -0.3722  0.1726
 2709SOL    HW210909   0.418   2.742   4.570  0.1263 -0.4843 -0.4669
 2709SOL    HW310910   0.472   2.603   4.595  0.1064 -0.4006  0.0457
 2709SOL    MW410911   0.484   2.689   4.589  0.0500 -0.3905  0.0710
 2710SOL     OW10912   0.772   3.744   4.540 -0.0534  0.9320 -0.0999
 2710SOL    HW210913   0.849   3.793   4.510  0.1184  1.3006  0.9238
 2710SOL    HW310914   0.708   3.811   4.564 -0.0174  0.6636  0.7839
 2710SOL    MW410915   0.774   3.759   4.539 -0.0260  0.9451  0.1516
 2711SOL     OW10916   1.173   2.804   4.516  0.3845 -0.0351 -0.3969
 2711SOL    HW210917   1.095   2.854   4.540  0.1670 -1.4119  1.9208
 2711SOL    HW310918   1.160   2.783   4.424 -1.6022  0.4741 -0.2630
 2711SOL    MW410919   1.161   2.808   4.507  0.0937 -0.1497 -0.0730
 2712SOL     OW10920   0.654   2.908   4.490  0.5498  0.6324 -0.9664
 2712SOL    HW210921   0.620   2.828   4.530  3.2366 -0.4516 -0.7756
 2712SOL    HW310922   0.593   2.976   4.517 -0.9368 -1.0958  0.1135
 2712SOL    MW410923   0.642   2.907   4.499  0.7081  0.2615 -0.7987
 2713SOL     OW10924   1.712   3.636   4.512  0.4566  0.3456  0.3944
 2713SOL    HW210925   1.678   3.715   4.552  1.1820  1.0632 -0.3742
 2713SOL    HW310926   1.796   3.663   4.473  0.4687 -0.6705 -0.3044
 2713SOL    MW410927   1.719   3.650   4.512  0.5540  0.3061  0.2012
 2714SOL     OW10928   0.961   3.203   4.521 -0.0097  0.1096 -0.0221
 2714SOL    HW210929   1.053   3.222   4.536  0.3301 -1.4311 -0.0078
 2714SOL    HW310930   0.916   3.286   4.537  1.2762  0.6625  0.8431
 2714SOL    MW410931   0.967   3.216   4.525  0.2047 -0.0205  0.0939
 2715SOL     OW10932   0.653   4.039   4.503  0.3014  0.2228  0.2178
 2715SOL    HW210933   0.581   4.026   4.441  1.4258 -0.5526 -0.9533
 2715SOL    HW310934   0.632   4.121   4.548 -0.0583  1.2845 -1.8493
 2715SOL    MW410935   0.641   4.048   4.501  0.4023  0.2608 -0.2093
 2716SOL     OW10936   0.932   3.981   4.481  0.0267  0.1262  0.6350
 2716SOL    HW210937   0.839   3.995   4.495 -0.2848 -0.5149 -0.7275
 2716SOL    HW310938   0.944   3.992   4.386  1.4697  1.0344  0.9012
 2716SOL    MW410939   0.922   3.985   4.470  0.1760  0.1614  0.4907
 2717SOL     OW10940   0.888   0.047   4.510  0.4263  0.8575  0.2186
 2717SOL    HW210941   0.797   0.017   4.518  0.4132  0.8203 -0.0421
 2717SOL    HW310942   0.898   0.067   4.417  1.3508 -1.3121 -0.1754
 2717SOL    MW410943   0.877   0.046   4.498  0.5465  0.5664  0.1321
 2718SOL     OW10944   2.044   4.142   4.611  0.3991  0.2638 -0.0758
 2718SOL    HW210945   2.133   4.166   4.586  0.0122  0.6511 -1.1274
 2718SOL    HW310946   2.055   4.070   4.673  1.4075 -0.6756 -1.2999
 2718SOL    MW410947   2.057   4.136   4.616  0.4814  0.1912 -0.3762
 2719SOL     OW10948   1.579   4.294   4.579  0.0816  0.1099 -0.3114
 2719SOL    HW210949   1.641   4.229   4.610  1.2814  1.1658 -0.4893
 2719SOL    HW310950   1.589   4.293   4.483 -0.0757  0.3890 -0.3306
 2719SOL    MW410951   1.588   4.285   4.570  0.2192  0.2861 -0.3381
 2720SOL     OW10952   0.932   4.264   4.545  0.1065  0.3693 -0.0420
 2720SOL    HW210953   0.920   4.172   4.519  2.2402 -0.3146  1.3389
 2720SOL    HW310954   0.845   4.291   4.575 -0.5481 -1.1973 -0.4530
 2720SOL    MW410955   0.919   4.255   4.545  0.3017  0.0725  0.0863
 2721SOL     OW10956   1.320   0.529   4.639 -0.0519 -0.2265  0.7568
 2721SOL    HW210957   1.246   0.532   4.578 -0.1388  1.1540  0.9232
 2721SOL    HW310958   1.325   0.437   4.664 -2.0799 -0.2534  1.1865
 2721SOL    MW410959   1.311   0.517   4.634 -0.3310 -0.0480  0.8354
 2722SOL     OW10960   1.689   0.088   4.542  0.6291 -0.2785  0.4252
 2722SOL    HW210961   1.594   0.095   4.535  0.5872  0.0260  1.2105
 2722SOL    HW310962   1.704   0.019   4.606  0.9315 -0.2672  0.3690
 2722SOL    MW410963   1.679   0.080   4.550  0.6634 -0.2368  0.5217
 2723SOL     OW10964   1.714   0.813   4.499 -0.1429 -0.2805  0.1675
 2723SOL    HW210965   1.629   0.857   4.507 -0.7617 -1.2872 -0.6216
 2723SOL    HW310966   1.739   0.827   4.408  0.0306 -0.8954  0.1215
 2723SOL    MW410967   1.706   0.821   4.488 -0.2016 -0.4944  0.0577
 2724SOL     OW10968   1.831   1.547   4.637 -0.2118 -0.3245 -0.1816
 2724SOL    HW210969   1.885   1.478   4.598  0.2732  0.5136 -1.0133
 2724SOL    HW310970   1.890   1.593   4.697 -0.2916 -0.0941 -0.2755
 2724SOL    MW410971   1.846   1.544   4.640 -0.1583 -0.1835 -0.3037
 2725SOL     OW10972   0.791   0.499   4.656  0.1239  0.7124  0.3960
 2725SOL    HW210973   0.709   0.504   4.609  1.0733 -0.0642 -1.3753
 2725SOL    HW310974   0.837   0.581   4.636 -0.2229  1.1779  1.4379
 2725SOL    MW410975   0.786   0.510   4.647  0.2034  0.6713  0.2995
 2726SOL     OW10976   2.043   0.537   4.573 -0.0229  0.2730  0.0953
 2726SOL    HW210977   2.129   0.504   4.599 -0.0872  1.2110  1.6043
 2726SOL    HW310978   1.986   0.460   4.574  1.1125 -0.6408 -2.4592
 2726SOL    MW410979   2.047   0.523   4.576  0.1183  0.2761 -0.0429
 2727SOL     OW10980   1.485   1.180   4.553  0.1491 -1.0704 -0.1427
 2727SOL    HW210981   1.467   1.088   4.534  1.0090 -1.2570 -0.0630
 2727SOL    HW310982   1.580   1.184   4.568  0.1890 -0.0990 -0.5750
 2727SOL    MW410983   1.495   1.169   4.552  0.2680 -0.9668 -0.1893
 2728SOL     OW10984   1.292   1.673   4.458  0.5049  0.0289 -0.1731
 2728SOL    HW210985   1.330   1.592   4.493 -0.3614 -0.1916  0.2597
 2728SOL    HW310986   1.314   1.670   4.365  1.5004 -0.1238  0.0657
 2728SOL    MW410987   1.300   1.662   4.450  0.5219 -0.0203 -0.0849
 2729SOL     OW10988   1.398   2.968   4.568  0.2690  0.6684 -0.1889
 2729SOL    HW210989   1.476   2.914   4.557  0.2405  0.0200  2.4196
 2729SOL    HW310990   1.325   2.907   4.560  0.0778  1.0290 -1.2215
 2729SOL    MW410991   1.399   2.953   4.566  0.2398  0.6304  0.0191
 2730SOL     OW10992   1.082   2.543   4.616  0.0866  0.1030  0.2005
 2730SOL    HW210993   1.121   2.624   4.583 -1.0981  0.0783 -1.3351
 2730SOL    HW310994   1.028   2.571   4.690  1.0006  0.4617  0.7527
 2730SOL    MW410995   1.080   2.557   4.622  0.0509  0.1471  0.0706
 2731SOL     OW10996   0.921   2.376   4.473  0.9753  0.2212 -0.4353
 2731SOL    HW210997   0.991   2.436   4.498  0.1845  1.1017 -0.2801
 2731SOL    HW310998   0.909   2.390   4.379  2.0157 -1.0147 -0.7578
 2731SOL    MW410999   0.928   2.386   4.464  1.0082  0.1743 -0.4578
 2732SOL     OW11000   1.203   3.852   4.555  0.0368  0.4970  1.0323
 2732SOL    HW211001   1.203   3.762   4.523  2.0173  0.6536  0.5712
 2732SOL    HW311002   1.122   3.890   4.520  0.4887 -0.3414 -0.9321
 2732SOL    MW411003   1.192   3.845   4.547  0.3577  0.4072  0.7129
 2733SOL     OW11004   1.265   2.309   4.506  0.0219 -0.3089 -0.2570
 2733SOL    HW211005   1.305   2.334   4.423 -0.1864 -0.7855 -0.5026
 2733SOL    HW311006   1.235   2.392   4.544  0.6654 -0.0227 -0.3670
 2733SOL    MW411007   1.266   2.323   4.500  0.0793 -0.3340 -0.3037
 2734SOL     OW11008   1.887   2.477   4.726 -0.1454 -0.9529 -0.0267
 2734SOL    HW211009   1.848   2.525   4.799  1.2194  0.4942 -0.2258
 2734SOL    HW311010   1.974   2.453   4.757  0.4025 -0.4233 -1.1321
 2734SOL    MW411011   1.893   2.480   4.740  0.1070 -0.6921 -0.1993
 2735SOL     OW11012   1.566   3.214   4.569  0.3400  0.1883 -0.6805
 2735SOL    HW211013   1.642   3.190   4.517  0.6240 -0.7248  0.1438
 2735SOL    HW311014   1.523   3.130   4.589  0.8007  0.4304  1.4050
 2735SOL    MW411015   1.570   3.199   4.565  0.4383  0.0997 -0.2966
 2736SOL     OW11016   1.147   3.595   4.474  0.0601 -0.1780 -0.6328
 2736SOL    HW211017   1.214   3.544   4.520  0.4878  0.6691 -0.3101
 2736SOL    HW311018   1.162   3.576   4.381  1.1340  0.4724 -0.5986
 2736SOL    MW411019   1.158   3.585   4.468  0.2582  0.0196 -0.5865
 2737SOL     OW11020   0.910   3.482   4.555  0.0166 -0.3990 -0.3885
 2737SOL    HW211021   0.857   3.560   4.572  0.0335 -0.3616 -0.5023
 2737SOL    HW311022   0.996   3.516   4.531  0.2309 -0.4744  0.2715
 2737SOL    MW411023   0.914   3.497   4.554  0.0470 -0.4039 -0.3166
 2738SOL     OW11024   2.143   3.509   4.533  0.0200 -0.0223 -0.3219
 2738SOL    HW211025   2.086   3.531   4.460  0.5913 -0.6264 -0.9691
 2738SOL    HW311026   2.216   3.461   4.493  0.3869 -0.2891  0.6307
 2738SOL    MW411027   2.145   3.505   4.518  0.1438 -0.1371 -0.2818
 2739SOL     OW11028   1.802   3.046   4.497 -0.4875  0.2584  0.0219
 2739SOL    HW211029   1.879   3.045   4.553  0.3158 -0.2561 -1.0540
 2739SOL    HW311030   1.832   3.090   4.416 -1.1748 -0.3952 -0.5957
 2739SOL    MW411031   1.816   3.052   4.493 -0.4722  0.1044 -0.2012
 2740SOL     OW11032   2.719   3.080   4.459 -0.3833 -0.2575 -0.1185
 2740SOL    HW211033   2.625   3.078   4.440 -0.0954  0.3475 -1.6823
 2740SOL    HW311034   2.740   3.173   4.467  0.4663 -0.2744 -1.8905
 2740SOL    MW411035   2.709   3.092   4.458 -0.2332 -0.1795 -0.5584
 2741SOL     OW11036   1.503   3.621   4.768  0.3051  0.0457  0.2979
 2741SOL    HW211037   1.568   3.556   4.795  0.0610  0.1625  1.1610
 2741SOL    HW311038   1.553   3.701   4.757  0.3203  0.1233  0.9120
 2741SOL    MW411039   1.518   3.623   4.770  0.2748  0.0710  0.4930
 2742SOL     OW11040   1.775   4.072   4.570 -0.1255  0.3278  0.2846
 2742SOL    HW211041   1.863   4.108   4.580 -0.0170 -0.3769  1.9541
 2742SOL    HW311042   1.773   4.040   4.480  2.2893 -2.1584  1.0423
 2742SOL    MW411043   1.786   4.073   4.559  0.2074 -0.0935  0.6051
 2743SOL     OW11044   2.283   0.405   4.661  0.2846  0.3434  0.7479
 2743SOL    HW211045   2.361   0.440   4.617  0.5917  0.1251  1.1177
 2743SOL    HW311046   2.298   0.422   4.754 -0.4858  1.0409  0.7497
 2743SOL    MW411047   2.295   0.412   4.667  0.2234  0.4067  0.7968
 2744SOL     OW11048   1.409   0.096   4.515 -0.5381  0.2721  0.1702
 2744SOL    HW211049   1.372   0.158   4.578 -0.7741 -0.0003  0.3008
 2744SOL    HW311050   1.386   0.010   4.550 -1.6052  0.1348 -0.8499
 2744SOL    MW411051   1.401   0.093   4.528 -0.7101  0.2181  0.0529
 2745SOL     OW11052   1.822   0.355   4.551 -0.1393 -0.0301 -0.5336
 2745SOL    HW211053   1.782   0.269   4.562  1.3452 -0.5746  0.9248
 2745SOL    HW311054   1.749   0.416   4.552 -1.1892 -1.2560 -1.3007
 2745SOL    MW411055   1.807   0.351   4.553 -0.0820 -0.2637 -0.4425
 2746SOL     OW11056   2.301   0.146   4.577 -0.4181  0.1691 -0.2102
 2746SOL    HW211057   2.261   0.144   4.490  2.0844 -0.0875 -1.4145
 2746SOL    HW311058   2.287   0.236   4.608 -1.8128  0.1071 -0.6200
 2746SOL    MW411059   2.294   0.158   4.569 -0.2718  0.1270 -0.4230
 2747SOL     OW11060   2.011   0.690   4.790  0.1280  0.3814 -0.8981
 2747SOL    HW211061   2.008   0.628   4.717 -1.2095 -1.1003  0.3907
 2747SOL    HW311062   1.994   0.637   4.867 -1.9751  2.4896  0.1579
 2747SOL    MW411063   2.009   0.675   4.790 -0.3259  0.4641 -0.5889
 2748SOL     OW11064   1.603   0.540   4.495 -0.0790  0.3785 -0.0368
 2748SOL    HW211065   1.641   0.628   4.492 -0.8071  0.7426  1.4140
 2748SOL    HW311066   1.516   0.553   4.532 -1.4972 -0.5173 -2.9027
 2748SOL    MW411067   1.597   0.554   4.499 -0.3622  0.3084 -0.2236
 2749SOL     OW11068   1.946   1.875   4.551 -0.0706 -0.6749 -0.2210
 2749SOL    HW211069   1.969   1.968   4.550  0.3277 -0.7096  2.3439
 2749SOL    HW311070   1.870   1.869   4.493 -0.5550  1.3758  0.1423
 2749SOL    MW411071   1.939   1.887   4.543 -0.0820 -0.4090  0.1650
 2750SOL     OW11072   0.972   1.651   4.441  0.1520  0.0210 -0.5726
 2750SOL    HW211073   1.066   1.641   4.460 -0.3024 -1.5567  1.0785
 2750SOL    HW311074   0.944   1.724   4.497 -0.3203 -1.9109  1.8156
 2750SOL    MW411075   0.981   1.659   4.451  0.0297 -0.4421 -0.0401
 2751SOL     OW11076   1.563   1.589   4.724 -0.2659  0.3806 -0.0246
 2751SOL    HW211077   1.658   1.580   4.720 -0.2662  0.2910  0.1698
 2751SOL    HW311078   1.546   1.678   4.692 -0.0836  0.5627  0.3820
 2751SOL    MW411079   1.573   1.600   4.719 -0.2420  0.3928  0.0548
 2752SOL     OW11080   1.480   1.851   4.588 -0.2246  0.3026 -0.1205
 2752SOL    HW211081   1.404   1.802   4.557 -0.4230  0.1943  0.5439
 2752SOL    HW311082   1.552   1.822   4.532 -0.6669  0.3970 -0.7456
 2752SOL    MW411083   1.479   1.841   4.576 -0.3092  0.3008 -0.1154
 2753SOL     OW11084   1.696   1.749   4.460 -0.0248 -0.3295  0.5507
 2753SOL    HW211085   1.738   1.684   4.516  1.0537  0.0937  0.2469
 2753SOL    HW311086   1.731   1.731   4.372 -2.2612 -1.4648 -0.1323
 2753SOL    MW411087   1.706   1.738   4.456 -0.1777 -0.4236  0.4206
 2754SOL     OW11088   2.029   2.149   4.529 -0.3704  0.1272  0.2032
 2754SOL    HW211089   1.945   2.195   4.536  0.3192  1.3414  0.5347
 2754SOL    HW311090   2.051   2.155   4.436 -0.2854  0.4514  0.2450
 2754SOL    MW411091   2.021   2.156   4.517 -0.2682  0.3304  0.2522
 2755SOL     OW11092   1.506   2.135   4.578 -0.2699 -0.2224  0.0543
 2755SOL    HW211093   1.483   2.049   4.614 -0.0692 -0.4851 -0.4317
 2755SOL    HW311094   1.422   2.180   4.566 -0.3842 -0.3984  0.1962
 2755SOL    MW411095   1.492   2.130   4.581 -0.2584 -0.2804  0.0091
 2756SOL     OW11096   2.014   1.919   4.826 -0.0302  0.0335 -0.0049
 2756SOL    HW211097   2.060   2.003   4.824 -1.1039  0.6354  0.0182
 2756SOL    HW311098   1.984   1.905   4.736 -1.4206  0.5734  0.3608
 2756SOL    MW411099   2.016   1.928   4.814 -0.3555  0.1842  0.0463
 2757SOL     OW11100   2.290   2.447   4.505  0.0298  0.4290  0.0714
 2757SOL    HW211101   2.342   2.519   4.540  1.7540 -0.3469 -0.8721
 2757SOL    HW311102   2.292   2.459   4.410 -0.1052 -0.5602 -0.0678
 2757SOL    MW411103   2.297   2.458   4.497  0.2398  0.1962 -0.0715
 2758SOL     OW11104   1.426   4.041   4.525 -0.0333  0.0414  0.2431
 2758SOL    HW211105   1.429   4.120   4.579 -1.4842  1.4896 -1.7233
 2758SOL    HW311106   1.343   3.998   4.549  0.4699 -0.6035  0.8758
 2758SOL    MW411107   1.416   4.045   4.536 -0.1584  0.1473  0.0677
 2759SOL     OW11108   2.093   2.809   4.526 -0.2679 -0.0828 -0.1879
 2759SOL    HW211109   2.184   2.833   4.510  0.3640 -1.5227  1.1250
 2759SOL    HW311110   2.052   2.890   4.555  0.3415  0.8057 -1.7371
 2759SOL    MW411111   2.100   2.823   4.528 -0.1040 -0.1554 -0.2189
 2760SOL     OW11112   2.046   3.075   4.621  0.2025 -0.5449  0.2111
 2760SOL    HW211113   2.026   3.163   4.651 -0.5294 -0.7688  0.3945
 2760SOL    HW311114   2.120   3.047   4.674 -0.0240 -0.3127  0.6505
 2760SOL    MW411115   2.053   3.083   4.632  0.0761 -0.5438  0.2928
 2761SOL     OW11116   2.376   3.610   4.649  0.4040 -0.0874 -0.5374
 2761SOL    HW211117   2.299   3.583   4.599  0.2428 -1.9220  0.6487
 2761SOL    HW311118   2.449   3.566   4.604  0.3580 -1.0509  0.3169
 2761SOL    MW411119   2.376   3.600   4.636  0.3765 -0.4566 -0.2680
 2762SOL     OW11120   1.980   3.329   4.671 -0.3905 -0.4054 -0.3632
 2762SOL    HW211121   1.891   3.364   4.678  0.0149  0.5164  0.3297
 2762SOL    HW311122   2.026   3.393   4.617 -0.0664 -0.7091 -0.4419
 2762SOL    MW411123   1.974   3.342   4.665 -0.2942 -0.3238 -0.2823
 2763SOL     OW11124   2.480   3.892   4.615  0.0942  0.5723 -0.2594
 2763SOL    HW211125   2.428   3.815   4.637  2.3929 -0.7531  0.6860
 2763SOL    HW311126   2.416   3.962   4.606 -1.9546 -1.2387 -0.2191
 2763SOL    MW411127   2.465   3.891   4.616  0.1273  0.1585 -0.1292
 2764SOL     OW11128   1.598   3.853   4.650  0.4809  0.4411 -0.1844
 2764SOL    HW211129   1.514   3.893   4.629  0.2339 -0.5054 -1.0374
 2764SOL    HW311130   1.661   3.924   4.643 -0.4266  1.4984  1.8987
 2764SOL    MW411131   1.595   3.868   4.647  0.3287  0.4559 -0.0224
 2765SOL     OW11132   1.722   3.432   4.705 -0.0119  0.2871  0.7417
 2765SOL    HW211133   1.717   3.502   4.639 -1.4325  1.5618  2.1571
 2765SOL    HW311134   1.669   3.361   4.667  1.0551  0.1135 -0.4888
 2765SOL    MW411135   1.714   3.432   4.691 -0.0587  0.4325  0.7653
 2766SOL     OW11136   1.731   4.502   4.718  0.0885 -0.4334  0.0963
 2766SOL    HW211137   1.821   4.492   4.688  0.2817  1.2535  0.0507
 2766SOL    HW311138   1.679   4.458   4.651  0.7595  0.2242 -0.8845
 2766SOL    MW411139   1.736   4.495   4.705  0.2025 -0.1245 -0.0391
 2767SOL     OW11140   1.969   4.434   4.578  0.5438  0.2588 -0.0856
 2767SOL    HW211141   1.982   4.339   4.585  0.0901  0.1742 -0.3643
 2767SOL    HW311142   2.057   4.471   4.587  1.0511 -0.3283 -2.2162
 2767SOL    MW411143   1.983   4.426   4.580  0.5510  0.1707 -0.4034
 2768SOL     OW11144   2.210   4.546   4.593  0.0310 -0.4233 -0.5581
 2768SOL    HW211145   2.292   4.506   4.565  0.8550  0.7017  0.2093
 2768SOL    HW311146   2.233   4.637   4.614 -1.0957 -0.5191  1.1894
 2768SOL    MW411147   2.223   4.553   4.592 -0.0091 -0.2880 -0.2265
 2769SOL     OW11148   1.415   1.440   4.557 -0.0490 -0.2415 -0.8684
 2769SOL    HW211149   1.430   1.345   4.557 -0.1837 -0.3052  2.3794
 2769SOL    HW311150   1.482   1.475   4.615 -1.4112  1.3918 -0.2326
 2769SOL    MW411151   1.426   1.432   4.565 -0.2464 -0.0345 -0.3562
 2770SOL     OW11152   2.550   0.022   4.690 -0.2063 -0.4975 -0.1117
 2770SOL    HW211153   2.464   0.051   4.660 -0.7728 -1.6470  0.3615
 2770SOL    HW311154   2.605   0.101   4.687 -1.1067  0.1058 -1.0083
 2770SOL    MW411155   2.546   0.036   4.685 -0.3998 -0.5696 -0.1674
 2771SOL     OW11156   2.583   0.736   4.678 -0.2423  0.1022  0.4306
 2771SOL    HW211157   2.488   0.735   4.677 -0.2615  0.4763 -2.2677
 2771SOL    HW311158   2.607   0.815   4.630  1.3993 -0.9975 -0.6229
 2771SOL    MW411159   2.574   0.746   4.672 -0.0286  0.0064 -0.0648
 2772SOL     OW11160   3.173   1.405   4.576  0.5087 -0.2917  0.0873
 2772SOL    HW211161   3.164   1.461   4.652  1.2051  1.0100 -0.7640
 2772SOL    HW311162   3.090   1.359   4.570 -0.4048  1.2968  0.3008
 2772SOL    MW411163   3.161   1.406   4.585  0.4802  0.0896  0.0029
 2773SOL     OW11164   2.261   1.289   4.551  0.7837  0.0400 -0.0356
 2773SOL    HW211165   2.263   1.366   4.608  0.6426  0.5821 -0.7440
 2773SOL    HW311166   2.353   1.265   4.540  0.8136 -0.0256  0.3700
 2773SOL    MW411167   2.274   1.296   4.557  0.7689  0.1029 -0.0753
 2774SOL     OW11168   2.512   1.219   4.507 -0.0092 -0.0750 -0.1382
 2774SOL    HW211169   2.551   1.133   4.518 -0.1140  0.1159  2.0391
 2774SOL    HW311170   2.581   1.280   4.533 -0.5666  0.4170  0.2042
 2774SOL    MW411171   2.526   1.216   4.512 -0.0966  0.0151  0.1936
 2775SOL     OW11172   2.595   1.617   4.675  0.0713  0.1853 -0.0776
 2775SOL    HW211173   2.500   1.611   4.668  0.0867 -0.0772 -0.0504
 2775SOL    HW311174   2.618   1.691   4.619 -0.0390 -0.4414 -0.9614
 2775SOL    MW411175   2.586   1.626   4.667  0.0589  0.0681 -0.1903
 2776SOL     OW11176   2.232   1.777   4.501 -0.1329 -0.0317  0.5268
 2776SOL    HW211177   2.292   1.838   4.545  1.1110  0.0500 -1.1969
 2776SOL    HW311178   2.145   1.813   4.518  0.4277  0.8909  1.5373
 2776SOL    MW411179   2.229   1.790   4.509  0.1051  0.1007  0.4325
 2777SOL     OW11180   2.023   1.624   4.827  0.2394 -0.1539 -0.3595
 2777SOL    HW211181   2.027   1.580   4.912  1.3495 -0.1027 -0.3762
 2777SOL    HW311182   2.026   1.718   4.849 -2.9026 -0.0152 -0.2778
 2777SOL    MW411183   2.024   1.631   4.841 -0.0288 -0.1289 -0.3510
 2778SOL     OW11184   2.160   2.154   4.776 -0.1491 -0.6469  0.2742
 2778SOL    HW211185   2.111   2.167   4.695  0.8294 -0.0432 -0.2433
 2778SOL    HW311186   2.154   2.239   4.821  0.8539 -0.3846 -0.0556
 2778SOL    MW411187   2.153   2.167   4.771  0.1123 -0.5326  0.1626
 2779SOL     OW11188   2.511   2.876   4.213 -0.3448  0.1282  0.1820
 2779SOL    HW211189   2.476   2.876   4.302 -0.1587 -0.1344  0.2564
 2779SOL    HW311190   2.595   2.830   4.220 -0.7087 -0.6264 -0.2754
 2779SOL    MW411191   2.517   2.870   4.225 -0.3679 -0.0060  0.1321
 2780SOL     OW11192   2.226   2.699   4.782 -0.1567 -0.1020 -0.2152
 2780SOL    HW211193   2.309   2.680   4.739  0.7082  0.8627  1.0056
 2780SOL    HW311194   2.166   2.719   4.710  0.2461 -2.2574 -1.2016
 2780SOL    MW411195   2.229   2.699   4.767  0.0107 -0.2596 -0.1845
 2781SOL     OW11196   1.892   2.615   4.489  0.1575  0.0961  0.5805
 2781SOL    HW211197   1.900   2.571   4.573  0.6460 -0.3259  0.3169
 2781SOL    HW311198   1.963   2.679   4.488  1.2807 -1.1091 -0.2251
 2781SOL    MW411199   1.902   2.618   4.500  0.3700 -0.1185  0.4396
 2782SOL     OW11200   2.277   2.972   4.736  0.0330  0.3074  0.0885
 2782SOL    HW211201   2.304   3.018   4.815  1.4227  0.2323 -0.3315
 2782SOL    HW311202   2.273   2.880   4.762  0.6551  0.2628  0.0288
 2782SOL    MW411203   2.280   2.966   4.750  0.2985  0.2913  0.0253
 2783SOL     OW11204   3.029   3.315   4.457  0.1534  0.2998 -0.2198
 2783SOL    HW211205   2.935   3.329   4.466 -0.2905 -1.1651 -2.1905
 2783SOL    HW311206   3.047   3.234   4.504 -0.0554 -0.8472 -2.0812
 2783SOL    MW411207   3.019   3.306   4.464  0.0672 -0.0451 -0.7253
 2784SOL     OW11208   1.354   4.515   4.548  0.3237  0.2266 -0.2056
 2784SOL    HW211209   1.263   4.498   4.527  0.4245 -0.5135 -0.0674
 2784SOL    HW311210   1.399   4.433   4.530  0.7513  0.1980  0.9252
 2784SOL    MW411211   1.348   4.502   4.543  0.3933  0.1254 -0.0381
 2785SOL     OW11212   2.854   3.970   4.529  0.4525  0.2546  0.1343
 2785SOL    HW211213   2.831   3.984   4.437  0.7403  0.7541  0.1329
 2785SOL    HW311214   2.823   3.882   4.549  1.2320 -0.2245 -0.7130
 2785SOL    MW411215   2.847   3.960   4.519  0.5932  0.2573  0.0229
 2786SOL     OW11216   2.129   3.300   4.923  0.3750 -0.2452 -0.3308
 2786SOL    HW211217   2.210   3.341   4.892  0.2062  0.9477  0.7879
 2786SOL    HW311218   2.071   3.301   4.847  1.0596 -0.2223 -0.8600
 2786SOL    MW411219   2.132   3.305   4.909  0.4430 -0.0849 -0.2527
 2787SOL     OW11220   3.365   3.899   4.948 -0.0399  0.1457  0.7162
 2787SOL    HW211221   3.352   3.805   4.937 -0.7951  0.2999  0.3133
 2787SOL    HW311222   3.277   3.935   4.960  0.1752  0.9148  0.0059
 2787SOL    MW411223   3.352   3.892   4.948 -0.1109  0.2673  0.5693
 2788SOL     OW11224   2.664   4.033   4.773  0.4776  0.1065  0.0310
 2788SOL    HW211225   2.602   3.983   4.719 -0.7428  0.9810  0.6083
 2788SOL    HW311226   2.731   4.062   4.711  0.1204 -0.5280 -0.6617
 2788SOL    MW411227   2.665   4.030   4.757  0.2694  0.1383  0.0157
 2789SOL     OW11228   2.433   4.371   4.516  0.2202  0.0989 -0.1209
 2789SOL    HW211229   2.504   4.407   4.570 -0.1627 -0.3992  0.7257
 2789SOL    HW311230   2.467   4.375   4.426  0.4188  1.9890  0.0220
 2789SOL    MW411231   2.447   4.377   4.511  0.1960  0.2823  0.0100
 2790SOL     OW11232   2.315   4.154   4.565  0.1528  0.3401  0.0590
 2790SOL    HW211233   2.308   4.129   4.473  0.6192 -1.6552  0.5330
 2790SOL    HW311234   2.369   4.233   4.564  2.1569 -0.9868 -1.2270
 2790SOL    MW411235   2.322   4.161   4.553  0.4787 -0.0978 -0.0486
 2791SOL     OW11236   2.950   0.453   4.541  0.2858 -0.2305  0.1718
 2791SOL    HW211237   2.936   0.479   4.449  0.0376  1.2328  0.6142
 2791SOL    HW311238   2.905   0.520   4.592  1.5507 -0.3055  1.4071
 2791SOL    MW411239   2.942   0.465   4.535  0.4199 -0.0473  0.3929
 2792SOL     OW11240   2.657   4.427   4.670 -0.0867 -0.3555  0.0567
 2792SOL    HW211241   2.632   4.516   4.694  1.7004  0.2179 -0.0970
 2792SOL    HW311242   2.646   4.376   4.751 -0.8268  0.0694  0.2231
 2792SOL    MW411243   2.652   4.432   4.684  0.0515 -0.2246  0.0582
 2793SOL     OW11244   3.181   0.284   4.488  0.4293 -0.1091 -0.2146
 2793SOL    HW211245   3.100   0.332   4.507  0.1831 -0.1392 -1.1601
 2793SOL    HW311246   3.195   0.229   4.566  0.4389  1.1056  0.6529
 2793SOL    MW411247   3.172   0.283   4.501  0.3982  0.0472 -0.2251
 2794SOL     OW11248   2.653   0.947   4.504  0.4307  0.2004  0.2501
 2794SOL    HW211249   2.746   0.956   4.522  0.2937  1.9065  0.2348
 2794SOL    HW311250   2.649   0.918   4.413  0.9873 -2.7791  1.1244
 2794SOL    MW411251   2.665   0.944   4.495  0.4861  0.0325  0.3638
 2795SOL     OW11252   3.216   0.593   4.613 -0.0289  0.3939 -0.0156
 2795SOL    HW211253   3.286   0.550   4.563 -0.1739 -0.6421  0.6412
 2795SOL    HW311254   3.137   0.544   4.589  0.0688 -0.7931  1.9852
 2795SOL    MW411255   3.215   0.581   4.603 -0.0350  0.1006  0.3347
 2796SOL     OW11256   2.295   0.773   4.664 -0.3994 -0.2847 -0.4763
 2796SOL    HW211257   2.210   0.747   4.700 -1.0233  1.6920 -0.4806
 2796SOL    HW311258   2.280   0.859   4.626  1.7272  0.2934 -0.0812
 2796SOL    MW411259   2.282   0.781   4.664 -0.2012  0.0524 -0.4249
 2797SOL     OW11260   3.136   1.623   4.739  0.7801  0.1395  0.2343
 2797SOL    HW211261   3.093   1.661   4.663 -0.9085 -1.2998  0.4617
 2797SOL    HW311262   3.091   1.662   4.814  0.5516 -0.5900  0.4795
 2797SOL    MW411263   3.125   1.634   4.739  0.5271 -0.1465  0.2971
 2798SOL     OW11264   2.957   1.222   4.541 -0.2724 -0.6119  0.1132
 2798SOL    HW211265   2.872   1.260   4.563 -0.4116  0.3680 -1.9759
 2798SOL    HW311266   2.960   1.224   4.445  3.1124  1.6018  0.2047
 2798SOL    MW411267   2.946   1.227   4.531  0.1559 -0.1905 -0.1497
 2799SOL     OW11268   3.057   1.739   4.516 -0.0949  0.3819 -0.3152
 2799SOL    HW211269   2.962   1.745   4.506 -0.0869  0.1966 -0.4999
 2799SOL    HW311270   3.089   1.828   4.501 -0.4468  0.9180  1.9563
 2799SOL    MW411271   3.049   1.751   4.513 -0.1402  0.4283 -0.0401
 2800SOL     OW11272   2.788   1.776   4.459  0.1140  0.1698 -0.3117
 2800SOL    HW211273   2.749   1.858   4.429 -0.4617  0.9469  2.3986
 2800SOL    HW311274   2.734   1.708   4.420 -1.2920  1.1574 -0.1095
 2800SOL    MW411275   2.776   1.778   4.450 -0.1473  0.4027  0.0725
 2801SOL     OW11276   2.338   1.992   4.660 -0.4939  0.4830  0.0966
 2801SOL    HW211277   2.289   2.040   4.727 -1.2518 -0.1710  0.0326
 2801SOL    HW311278   2.423   1.974   4.700 -1.2387 -0.6284  1.2066
 2801SOL    MW411279   2.343   1.996   4.674 -0.6921  0.2501  0.2341
 2802SOL     OW11280   2.692   2.471   4.253 -0.2637 -0.2586  0.2743
 2802SOL    HW211281   2.654   2.521   4.325 -0.8868 -0.3419  0.0092
 2802SOL    HW311282   2.617   2.429   4.211  0.1324 -0.4956 -0.2056
 2802SOL    MW411283   2.677   2.472   4.257 -0.2935 -0.3009  0.1764
 2803SOL     OW11284   3.196   2.217   4.622 -0.2604  0.6385  0.1101
 2803SOL    HW211285   3.131   2.286   4.633 -0.4041  0.5477 -0.1832
 2803SOL    HW311286   3.276   2.254   4.658 -0.4547  0.7800  0.4012
 2803SOL    MW411287   3.198   2.231   4.629 -0.3049  0.6452  0.1097
 2804SOL     OW11288   2.439   2.218   4.495 -0.3786 -0.0951 -0.0885
 2804SOL    HW211289   2.394   2.146   4.539 -0.6292  0.5693  0.7643
 2804SOL    HW311290   2.374   2.288   4.492  0.6011  0.8955  1.1904
 2804SOL    MW411291   2.424   2.218   4.500 -0.2823  0.1230  0.1931
 2805SOL     OW11292   2.684   3.753   4.478  0.1289 -0.1683 -0.0679
 2805SOL    HW211293   2.600   3.794   4.494  1.0018  0.9397  1.7828
 2805SOL    HW311294   2.672   3.662   4.505 -0.7405 -0.2731 -0.7646
 2805SOL    MW411295   2.672   3.746   4.483  0.1295 -0.0358  0.0839
 2806SOL     OW11296   2.352   3.379   4.426 -0.1145 -0.1034 -0.0845
 2806SOL    HW211297   2.366   3.297   4.473  0.5612  0.1722  0.1927
 2806SOL    HW311298   2.432   3.429   4.440 -0.9775  1.0848  0.7116
 2806SOL    MW411299   2.364   3.375   4.434 -0.1392  0.0899  0.0572
 2807SOL     OW11300   2.859   2.621   4.063 -0.1459  0.1403 -0.1499
 2807SOL    HW211301   2.808   2.561   4.117 -0.1136  0.5345  0.3222
 2807SOL    HW311302   2.849   2.707   4.106 -0.1703  0.4651 -0.8051
 2807SOL    MW411303   2.851   2.625   4.076 -0.1447  0.2353 -0.1740
 2808SOL     OW11304   2.352   3.071   4.985 -0.6012  0.1979 -0.3774
 2808SOL    HW211305   2.295   3.147   4.989 -1.5007 -0.5099  0.5314
 2808SOL    HW311306   2.437   3.106   4.958 -0.9740  1.5405  0.1462
 2808SOL    MW411307   2.356   3.085   4.982 -0.7689  0.2816 -0.1879
 2809SOL     OW11308   2.712   4.276   4.897  0.2141  0.4206  0.1151
 2809SOL    HW211309   2.685   4.185   4.886  0.9157  0.2287 -0.0172
 2809SOL    HW311310   2.679   4.300   4.984  0.1010  0.0168  0.1849
 2809SOL    MW411311   2.704   4.268   4.907  0.2916  0.3419  0.1073
 2810SOL     OW11312   3.151   3.978   4.476  0.1338 -0.2277 -0.2327
 2810SOL    HW211313   3.195   3.894   4.489  0.9408  0.3388  0.7290
 2810SOL    HW311314   3.061   3.963   4.508  0.7353 -0.2607  1.4971
 2810SOL    MW411315   3.145   3.965   4.482  0.3197 -0.1574  0.1225
 2811SOL     OW11316   3.549   3.820   4.528 -0.2480  0.3426 -0.1355
 2811SOL    HW211317   3.620   3.763   4.558 -0.1762  0.2177 -0.5452
 2811SOL    HW311318   3.470   3.770   4.544 -0.0307 -0.9576 -2.9242
 2811SOL    MW411319   3.548   3.806   4.534 -0.2100  0.1545 -0.5574
 2812SOL     OW11320   2.888   3.677   4.314 -0.4703  0.1539 -0.0781
 2812SOL    HW211321   2.815   3.720   4.359 -0.9783 -0.9948  0.2014
 2812SOL    HW311322   2.847   3.622   4.248  0.1169 -0.9220  0.4399
 2812SOL    MW411323   2.873   3.676   4.311 -0.4599 -0.1395  0.0272
 2813SOL     OW11324   2.990   4.232   4.782 -0.0451 -0.5445 -0.0735
 2813SOL    HW211325   3.035   4.314   4.759 -0.0676 -0.6611 -0.5200
 2813SOL    HW311326   2.912   4.260   4.830  0.1357 -0.3189  0.0922
 2813SOL    MW411327   2.986   4.247   4.785 -0.0243 -0.5302 -0.1111
 2814SOL     OW11328   2.908   4.385   4.526 -0.0338  0.7220 -0.3171
 2814SOL    HW211329   2.944   4.302   4.558 -0.9059  0.5774  0.3191
 2814SOL    HW311330   2.837   4.405   4.587 -0.5295  1.3884 -1.1063
 2814SOL    MW411331   2.904   4.377   4.539 -0.2143  0.7911 -0.3371
 2815SOL     OW11332   2.851   0.688   4.673 -0.0790 -0.2978 -0.0345
 2815SOL    HW211333   2.885   0.774   4.648  0.5199 -0.6516 -0.4704
 2815SOL    HW311334   2.759   0.703   4.694  0.4008  0.7181  1.3801
 2815SOL    MW411335   2.843   0.701   4.672  0.0632 -0.2105  0.0944
 2816SOL     OW11336   2.518   0.487   4.537 -0.1214  0.3991  0.0353
 2816SOL    HW211337   2.580   0.414   4.546  0.1862  0.4617 -1.4012
 2816SOL    HW311338   2.563   0.561   4.578 -0.6483 -0.3172  1.9606
 2816SOL    MW411339   2.532   0.487   4.544 -0.1504  0.3128  0.0997
 2817SOL     OW11340   2.264   1.547   4.668 -0.1667  0.0639  0.1482
 2817SOL    HW211341   2.253   1.615   4.602  0.2705  1.4391  1.4759
 2817SOL    HW311342   2.188   1.556   4.725 -0.4572 -1.0062 -0.0623
 2817SOL    MW411343   2.253   1.557   4.667 -0.1473  0.1041  0.2956
 2818SOL     OW11344   2.708   0.277   4.544  0.4661  0.1554 -0.4015
 2818SOL    HW211345   2.797   0.311   4.550  0.2550  0.5701  0.3877
 2818SOL    HW311346   2.703   0.241   4.455  1.6958 -0.6783 -0.1515
 2818SOL    MW411347   2.719   0.277   4.533  0.6006  0.1000 -0.2642
 2819SOL     OW11348   3.205   0.868   4.540 -0.1267 -0.3581 -0.5262
 2819SOL    HW211349   3.289   0.912   4.532  0.7776 -2.1606 -1.0540
 2819SOL    HW311350   3.224   0.786   4.584 -1.7528 -0.4096  0.1482
 2819SOL    MW411351   3.218   0.863   4.545 -0.2220 -0.6027 -0.5069
 2820SOL     OW11352   3.615   1.200   4.601 -0.2774 -0.2086 -0.1671
 2820SOL    HW211353   3.561   1.265   4.555 -0.1057  0.5094  0.6432
 2820SOL    HW311354   3.700   1.243   4.612 -0.6226  0.0396  1.7409
 2820SOL    MW411355   3.619   1.214   4.596 -0.3002 -0.0813  0.1917
 2821SOL     OW11356   2.729   1.386   4.562  0.1481  0.0323 -0.2966
 2821SOL    HW211357   2.716   1.459   4.622  0.2303 -0.3562  0.1963
 2821SOL    HW311358   2.719   1.424   4.475 -0.3189  0.5265 -0.0285
 2821SOL    MW411359   2.726   1.401   4.559  0.0975  0.0461 -0.1965
 2822SOL     OW11360   3.974   1.032   4.598 -0.0711 -0.3148 -0.1799
 2822SOL    HW211361   3.912   0.992   4.659  1.0521  0.3543  1.4314
 2822SOL    HW311362   4.036   0.961   4.577 -0.4691 -0.5495 -0.5789
 2822SOL    MW411363   3.974   1.017   4.603  0.0243 -0.2576 -0.0200
 2823SOL     OW11364   3.435   1.666   4.674  0.1178  0.3953 -0.0563
 2823SOL    HW211365   3.447   1.756   4.643  1.2056  0.9030  1.7468
 2823SOL    HW311366   3.346   1.664   4.707 -0.1925  0.5634 -0.8628
 2823SOL    MW411367   3.425   1.678   4.674  0.2203  0.4846  0.0749
 2824SOL     OW11368   3.175   1.983   4.459 -0.9020  0.0083 -0.0835
 2824SOL    HW211369   3.173   2.052   4.525 -2.4102  0.7812 -0.8999
 2824SOL    HW311370   3.227   2.020   4.388  0.1905 -0.5807  0.4017
 2824SOL    MW411371   3.182   1.997   4.458 -0.9570  0.0327 -0.1273
 2825SOL     OW11372   3.379   2.493   4.405 -0.6806 -0.1167  0.4022
 2825SOL    HW211373   3.305   2.444   4.368  0.6642 -1.9615  0.0880
 2825SOL    HW311374   3.366   2.582   4.374 -3.8923  0.0571  2.0228
 2825SOL    MW411375   3.367   2.498   4.396 -0.9267 -0.3371  0.5746
 2826SOL     OW11376   3.854   1.916   4.451  0.1707  0.0591 -0.1201
 2826SOL    HW211377   3.809   1.996   4.423  1.0906  0.1301 -1.4507
 2826SOL    HW311378   3.898   1.941   4.532 -0.4866  0.5780  0.0820
 2826SOL    MW411379   3.854   1.930   4.458  0.2055  0.1369 -0.2689
 2827SOL     OW11380   2.432   3.132   4.542  0.0689 -0.0047  0.2818
 2827SOL    HW211381   2.502   3.182   4.585 -0.4256  1.2406 -0.3509
 2827SOL    HW311382   2.375   3.105   4.614  1.1715 -1.0273  0.8051
 2827SOL    MW411383   2.434   3.135   4.557  0.1493  0.0248  0.2680
 2828SOL     OW11384   3.646   2.877   4.951 -0.2239  0.1135  0.2109
 2828SOL    HW211385   3.701   2.818   4.900 -0.0376  0.2516  0.2521
 2828SOL    HW311386   3.689   2.962   4.944 -0.9755  0.4353 -0.5886
 2828SOL    MW411387   3.659   2.880   4.944 -0.2985  0.1740  0.1111
 2829SOL     OW11388   3.532   2.776   4.593 -0.5080 -0.0156 -0.0538
 2829SOL    HW211389   3.514   2.868   4.612  0.1308 -0.0843  0.9050
 2829SOL    HW311390   3.488   2.728   4.664  1.3026 -0.3099  0.9026
 2829SOL    MW411391   3.524   2.782   4.605 -0.1850 -0.0637  0.1993
 2830SOL     OW11392   3.429   3.036   4.642 -0.2851  0.1044  0.5242
 2830SOL    HW211393   3.407   3.093   4.568 -0.7559 -0.8042 -0.0483
 2830SOL    HW311394   3.470   3.094   4.706  1.2362  0.6756 -0.9349
 2830SOL    MW411395   3.431   3.051   4.641 -0.1466  0.0596  0.2556
 2831SOL     OW11396   3.349   3.220   4.414 -0.2307  0.2172 -0.1154
 2831SOL    HW211397   3.417   3.204   4.349 -0.3507  2.0422 -0.7252
 2831SOL    HW311398   3.267   3.214   4.365 -0.3946  0.1133  0.1708
 2831SOL    MW411399   3.347   3.217   4.399 -0.2682  0.4444 -0.1578
 2832SOL     OW11400   3.282   2.827   4.111 -0.0890  0.1059 -0.0874
 2832SOL    HW211401   3.281   2.923   4.110  0.2630  0.1171  0.6246
 2832SOL    HW311402   3.317   2.804   4.197  0.9058 -0.6574 -0.6847
 2832SOL    MW411403   3.286   2.836   4.122  0.0889  0.0062 -0.0720
 2833SOL     OW11404   4.081   2.467   4.460 -0.0949 -0.0906  0.2818
 2833SOL    HW211405   4.003   2.488   4.511 -0.7836  2.4862 -1.6808
 2833SOL    HW311406   4.146   2.532   4.487 -0.1866  0.7465 -1.4115
 2833SOL    MW411407   4.079   2.479   4.470 -0.1979  0.3598 -0.2003
 2834SOL     OW11408   3.667   3.264   4.490  0.2496  0.4603 -0.2545
 2834SOL    HW211409   3.629   3.220   4.413 -1.0326  0.0853  0.5762
 2834SOL    HW311410   3.598   3.322   4.521  0.6176  0.3225  0.8435
 2834SOL    MW411411   3.653   3.266   4.484  0.1290  0.3924  0.0000
 2835SOL     OW11412   3.328   4.156   4.619  0.0181  0.4269 -0.3047
 2835SOL    HW211413   3.259   4.095   4.593  0.6804 -0.9551  1.1035
 2835SOL    HW311414   3.406   4.101   4.630  0.8717  1.6724  0.0409
 2835SOL    MW411415   3.329   4.141   4.617  0.2184  0.4091 -0.0730
 2836SOL     OW11416   3.098   3.996   4.910 -0.4570  0.1893 -0.7078
 2836SOL    HW211417   3.079   4.077   4.862 -1.1993  0.3419 -0.1595
 2836SOL    HW311418   3.013   3.958   4.928 -0.1669 -0.0867  0.1231
 2836SOL    MW411419   3.085   4.002   4.906 -0.5164  0.1731 -0.5260
 2837SOL     OW11420   3.130   4.492   4.671 -0.1381 -0.9066 -0.2619
 2837SOL    HW211421   3.213   4.452   4.646 -0.4316 -2.9537  1.8255
 2837SOL    HW311422   3.072   4.475   4.596  0.2712 -2.8237 -0.1730
 2837SOL    MW411423   3.133   4.484   4.657 -0.1228 -1.4296  0.0253
 2838SOL     OW11424   3.373   4.425   4.599 -0.3731 -0.0207 -0.1954
 2838SOL    HW211425   3.365   4.334   4.628 -1.1774 -0.3610 -1.4612
 2838SOL    HW311426   3.466   4.436   4.580 -0.0850 -0.2322  1.0724
 2838SOL    MW411427   3.384   4.415   4.600 -0.4413 -0.0935 -0.1950
 2839SOL     OW11428   3.565   4.002   4.728  0.3619 -0.7466  0.4557
 2839SOL    HW211429   3.499   3.983   4.794 -1.3071  0.3273 -0.8810
 2839SOL    HW311430   3.547   3.941   4.657  0.1836  0.1983 -0.3276
 2839SOL    MW411431   3.554   3.992   4.728  0.1183 -0.4804  0.1760
 2840SOL     OW11432   3.512   0.189   4.697 -0.5733  0.3119  0.4361
 2840SOL    HW211433   3.417   0.199   4.698 -0.4753  1.3268  1.0531
 2840SOL    HW311434   3.546   0.278   4.685  0.2859 -0.2678 -1.7456
 2840SOL    MW411435   3.504   0.202   4.696 -0.4470  0.3693  0.2303
 2841SOL     OW11436   2.935   0.948   4.581 -0.5540  0.0039 -0.0136
 2841SOL    HW211437   2.957   1.042   4.582  1.7691 -0.5104  1.2215
 2841SOL    HW311438   3.017   0.905   4.556 -1.2900 -1.7881  0.6177
 2841SOL    MW411439   2.949   0.955   4.578 -0.3450 -0.3003  0.2327
 2842SOL     OW11440   3.444   1.408   4.519 -0.5558  0.3012 -0.4740
 2842SOL    HW211441   3.469   1.495   4.552  0.1916 -0.2139  0.3193
 2842SOL    HW311442   3.351   1.402   4.540 -0.3879  0.5144  0.3740
 2842SOL    MW411443   3.435   1.419   4.526 -0.4349  0.2613 -0.2575
 2843SOL     OW11444   4.213   1.532   4.523 -0.1635  0.2833 -0.0833
 2843SOL    HW211445   4.212   1.441   4.552 -0.2919 -0.0352 -1.0946
 2843SOL    HW311446   4.121   1.554   4.509 -0.5011  1.8057  3.9796
 2843SOL    MW411447   4.201   1.523   4.525 -0.2246  0.4421  0.3195
 2844SOL     OW11448   3.880   1.268   4.496  0.3076 -0.2301 -0.2328
 2844SOL    HW211449   3.870   1.253   4.402  1.0810 -1.1713 -0.1749
 2844SOL    HW311450   3.920   1.188   4.529  1.2686  0.5985  0.6761
 2844SOL    MW411451   3.884   1.256   4.488  0.5364 -0.2450 -0.1054
 2845SOL     OW11452   4.167   0.832   4.529 -0.2468 -0.3255  0.3975
 2845SOL    HW211453   4.193   0.743   4.552  0.2933 -0.0897  0.7048
 2845SOL    HW311454   4.117   0.823   4.448  0.2801 -0.8449  0.1320
 2845SOL    MW411455   4.164   0.819   4.522 -0.1054 -0.3630  0.4034
 2846SOL     OW11456   4.222   0.522   4.533  0.1105 -0.2932 -0.1117
 2846SOL    HW211457   4.138   0.495   4.570  0.2635 -0.8163 -0.1525
 2846SOL    HW311458   4.209   0.519   4.438  0.0957 -0.1113 -0.1171
 2846SOL    MW411459   4.209   0.518   4.525  0.1287 -0.3382 -0.1183
 2847SOL     OW11460   3.679   1.691   4.473 -0.1658  0.4479  0.2113
 2847SOL    HW211461   3.722   1.776   4.486 -0.3564  0.5394  0.2527
 2847SOL    HW311462   3.616   1.685   4.546 -0.1771  0.2875  0.1884
 2847SOL    MW411463   3.676   1.702   4.484 -0.1926  0.4389  0.2136
 2848SOL     OW11464   3.432   2.401   4.664  0.3480 -0.0501  0.8206
 2848SOL    HW211465   3.402   2.468   4.725 -1.0186 -0.6781  0.8425
 2848SOL    HW311466   3.395   2.427   4.580  0.2099 -0.5132  0.7359
 2848SOL    MW411467   3.423   2.413   4.661  0.1495 -0.1943  0.8121
 2849SOL     OW11468   3.435   1.925   4.556  0.3027 -0.1058  0.4026
 2849SOL    HW211469   3.342   1.933   4.534  0.3076 -0.6008  0.2003
 2849SOL    HW311470   3.457   2.009   4.597 -0.4895 -0.3996  1.4308
 2849SOL    MW411471   3.426   1.937   4.558  0.1991 -0.2098  0.5116
 2850SOL     OW11472   3.831   2.253   4.731 -0.6754 -0.1940  0.1095
 2850SOL    HW211473   3.874   2.177   4.692  0.1219 -0.3064  1.1768
 2850SOL    HW311474   3.867   2.258   4.819 -1.1171  1.1087  0.2277
 2850SOL    MW411475   3.842   2.244   4.737 -0.6287 -0.0370  0.2656
 2851SOL     OW11476   4.352   1.688   4.689  0.1700 -0.0866 -0.1496
 2851SOL    HW211477   4.301   1.625   4.638  0.9134 -1.1368  0.3869
 2851SOL    HW311478   4.393   1.635   4.758 -0.0767  1.1555  0.9720
 2851SOL    MW411479   4.351   1.673   4.691  0.2351 -0.0613  0.0696
 2852SOL     OW11480   3.555   2.167   4.640  0.1447 -0.5420  0.3201
 2852SOL    HW211481   3.643   2.190   4.672 -0.4982  0.5850  1.3124
 2852SOL    HW311482   3.504   2.247   4.652 -0.5053 -0.5499 -2.1995
 2852SOL    MW411483   3.560   2.181   4.646 -0.0260 -0.3943  0.1187
 2853SOL     OW11484   3.851   3.390   4.775 -0.0012  0.0697 -0.0284
 2853SOL    HW211485   3.822   3.302   4.800 -0.4227 -0.0468 -0.9007
 2853SOL    HW311486   3.932   3.375   4.727 -0.4937  0.0899 -0.8705
 2853SOL    MW411487   3.858   3.376   4.772 -0.1221  0.0570 -0.2546
 2854SOL     OW11488   3.878   2.834   4.452 -0.3942  0.0435  0.0150
 2854SOL    HW211489   3.946   2.815   4.516  0.9717  0.5785 -1.2562
 2854SOL    HW311490   3.840   2.749   4.431 -0.6046 -0.1777  1.2486
 2854SOL    MW411491   3.882   2.820   4.458 -0.2418  0.0846  0.0100
 2855SOL     OW11492   3.881   3.445   4.491 -0.7079 -0.6036  0.0718
 2855SOL    HW211493   3.808   3.385   4.505 -2.2547  1.3369  0.5244
 2855SOL    HW311494   3.863   3.486   4.407  0.1321 -0.4502 -0.0411
 2855SOL    MW411495   3.869   3.442   4.482 -0.8011 -0.3273  0.1168
 2856SOL     OW11496   3.469   3.466   4.512 -0.4256 -0.5416  0.1089
 2856SOL    HW211497   3.409   3.394   4.493  0.0696 -1.0961  0.5895
 2856SOL    HW311498   3.413   3.539   4.536 -0.8816 -1.3915  1.7037
 2856SOL    MW411499   3.454   3.466   4.512 -0.4208 -0.7269  0.3824
 2857SOL     OW11500   3.854   3.650   4.885 -0.1448  0.0738  0.1115
 2857SOL    HW211501   3.877   3.565   4.848  1.7690  0.3786  0.5115
 2857SOL    HW311502   3.929   3.706   4.864 -1.9572  2.0408 -1.3330
 2857SOL    MW411503   3.867   3.646   4.878 -0.1311  0.3734 -0.0272
 2858SOL     OW11504   3.291   3.718   4.547  0.5746  0.2920 -0.0636
 2858SOL    HW211505   3.233   3.682   4.480 -0.1214  0.4835  0.4315
 2858SOL    HW311506   3.234   3.737   4.621  1.2879  0.3834  0.4721
 2858SOL    MW411507   3.276   3.716   4.548  0.5770  0.3293  0.0720
 2859SOL     OW11508   3.759   3.033   4.618 -0.0525  0.1260  0.4418
 2859SOL    HW211509   3.717   3.107   4.574 -1.5803 -0.9155  0.0775
 2859SOL    HW311510   3.802   2.985   4.549 -0.0370  0.0475  0.5056
 2859SOL    MW411511   3.759   3.037   4.603 -0.2522 -0.0217  0.4020
 2860SOL     OW11512   4.426   2.369   4.559  0.3796  0.5270 -0.1220
 2860SOL    HW211513   4.442   2.379   4.465 -0.7415 -0.0741 -0.3818
 2860SOL    HW311514   4.401   2.457   4.589 -0.9999  0.3436 -0.7317
 2860SOL    MW411515   4.425   2.382   4.551  0.0501  0.4232 -0.2365
 2861SOL     OW11516   3.905   3.938   4.527  0.8928  0.0446 -0.2427
 2861SOL    HW211517   3.846   4.002   4.567 -0.7010 -1.0940 -0.7205
 2861SOL    HW311518   3.879   3.854   4.565  2.3043 -0.4671 -0.3656
 2861SOL    MW411519   3.894   3.936   4.537  0.8688 -0.1731 -0.3223
 2862SOL     OW11520   3.684   4.405   4.552  0.3739 -0.0718 -0.1823
 2862SOL    HW211521   3.692   4.500   4.561  1.0163 -0.0269 -1.2583
 2862SOL    HW311522   3.715   4.385   4.464  0.2947 -1.2927  0.0465
 2862SOL    MW411523   3.689   4.415   4.542  0.4482 -0.2265 -0.2947
 2863SOL     OW11524   3.236   0.085   4.686  0.0576  0.1613  0.2729
 2863SOL    HW211525   3.288   0.005   4.678 -0.3801 -0.3675  2.4074
 2863SOL    HW311526   3.156   0.058   4.729 -0.3401  1.6641  0.5126
 2863SOL    MW411527   3.232   0.071   4.690 -0.0525  0.2898  0.5860
 2864SOL     OW11528   3.491   0.940   4.490 -0.1734  0.1652  0.3473
 2864SOL    HW211529   3.546   1.011   4.521  0.1377  0.0412  0.0872
 2864SOL    HW311530   3.525   0.921   4.402 -0.4626 -0.0854  0.2906
 2864SOL    MW411531   3.503   0.947   4.482 -0.1705  0.1158  0.3057
 2865SOL     OW11532   3.662   0.722   4.551  0.0536 -0.1645  0.0024
 2865SOL    HW211533   3.719   0.758   4.619 -0.0365 -0.2201  0.1088
 2865SOL    HW311534   3.590   0.786   4.545  0.0193 -0.2011  0.0197
 2865SOL    MW411535   3.660   0.735   4.559  0.0372 -0.1767  0.0186
 2866SOL     OW11536   4.466   0.371   4.625  0.6065 -0.2532  0.0166
 2866SOL    HW211537   4.543   0.426   4.610  0.2356  0.7936  1.8133
 2866SOL    HW311538   4.392   0.425   4.599  0.4176 -0.9445 -0.8960
 2866SOL    MW411539   4.466   0.385   4.620  0.5322 -0.2064  0.1330
 2867SOL     OW11540   0.129   0.780   4.676  0.0218  0.0508 -0.1025
 2867SOL    HW211541   0.067   0.812   4.610 -0.4049 -0.4381  0.0603
 2867SOL    HW311542   0.160   0.697   4.641 -0.8370 -0.6104  0.7140
 2867SOL    MW411543   0.125   0.773   4.662 -0.1478 -0.1009  0.0267
 2868SOL     OW11544   3.927   0.373   4.525 -0.1549 -0.7923 -0.2387
 2868SOL    HW211545   3.952   0.282   4.544  0.2847 -0.6684 -0.2257
 2868SOL    HW311546   3.833   0.376   4.546  0.1134 -0.8929  1.0683
 2868SOL    MW411547   3.918   0.361   4.531 -0.0615 -0.7892 -0.0648
 2869SOL     OW11548   3.943   1.558   4.474 -0.1956  0.1094  0.0773
 2869SOL    HW211549   3.924   1.470   4.505  0.1810 -0.7697 -2.0650
 2869SOL    HW311550   3.857   1.600   4.468 -0.3928 -0.1677  0.9622
 2869SOL    MW411551   3.929   1.552   4.477 -0.1717 -0.0430 -0.0882
 2870SOL     OW11552   0.006   1.143   4.620 -0.0778 -0.6997 -0.1831
 2870SOL    HW211553   0.058   1.113   4.695  0.0261 -0.7456 -0.2727
 2870SOL    HW311554  -0.013   1.064   4.570  2.8231 -0.2816 -2.0875
 2870SOL    MW411555   0.011   1.129   4.624  0.3186 -0.6506 -0.4463
 2871SOL     OW11556   0.337   1.599   4.471 -0.0521 -0.4269  0.2750
 2871SOL    HW211557   0.345   1.608   4.376 -0.5531 -1.4859  0.1250
 2871SOL    HW311558   0.245   1.619   4.489  0.3196  0.9031  0.6721
 2871SOL    MW411559   0.326   1.603   4.460 -0.0692 -0.3911  0.3076
 2872SOL     OW11560   4.145   1.873   4.813  0.3940  0.3426 -0.3282
 2872SOL    HW211561   4.195   1.905   4.888  0.0545 -1.7918  0.8417
 2872SOL    HW311562   4.205   1.812   4.769 -0.5718 -0.9695  0.1388
 2872SOL    MW411563   4.160   1.869   4.817  0.2217 -0.1123 -0.1125
 2873SOL     OW11564   2.366   3.376   4.794  0.2986 -0.0043  0.3936
 2873SOL    HW211565   2.360   3.457   4.743  1.6163 -0.7020 -0.9175
 2873SOL    HW311566   2.448   3.336   4.766 -0.6796 -2.1531  0.4702
 2873SOL    MW411567   2.376   3.381   4.783  0.3436 -0.3798  0.2308
 2874SOL     OW11568   3.965   2.063   4.041 -0.4215 -0.0204  0.3960
 2874SOL    HW211569   3.987   2.016   4.121  0.3996 -0.1373  0.1148
 2874SOL    HW311570   3.931   2.148   4.070  0.5438  0.2139  0.8596
 2874SOL    MW411571   3.964   2.068   4.055 -0.1860 -0.0052  0.4201
 2875SOL     OW11572   4.004   2.046   4.641  0.0828 -0.0316 -0.6066
 2875SOL    HW211573   4.070   2.090   4.588  1.0704 -1.3194 -0.4581
 2875SOL    HW311574   4.054   1.988   4.699 -1.1434 -0.6881 -0.1837
 2875SOL    MW411575   4.019   2.044   4.642  0.0515 -0.2882 -0.5307
 2876SOL     OW11576   3.865   2.513   4.612  0.5363  0.0961 -0.3843
 2876SOL    HW211577   3.855   2.422   4.639  0.0063  0.1856 -0.2830
 2876SOL    HW311578   3.794   2.528   4.550 -0.1501  0.8120  0.5534
 2876SOL    MW411579   3.854   2.503   4.607  0.3757  0.2022 -0.2470
 2877SOL     OW11580   3.755   3.130   4.878 -0.1885 -0.3156  0.3003
 2877SOL    HW211581   3.778   3.088   4.795  1.4279  2.0753 -0.4981
 2877SOL    HW311582   3.672   3.174   4.860  0.3933  0.5880 -0.2049
 2877SOL    MW411583   3.747   3.130   4.865  0.1018  0.1192  0.1283
 2878SOL     OW11584   4.278   2.640   4.562 -0.2210 -0.2103 -0.3501
 2878SOL    HW211585   4.316   2.692   4.491 -0.5519 -0.9319 -1.0677
 2878SOL    HW311586   4.219   2.699   4.607 -1.8353 -0.3971 -2.1507
 2878SOL    MW411587   4.276   2.654   4.559 -0.4778 -0.3302 -0.6828
 2879SOL     OW11588   4.329   2.832   4.372 -0.3710  0.6897 -0.2918
 2879SOL    HW211589   4.383   2.793   4.303  0.4404  1.8184 -0.3079
 2879SOL    HW311590   4.243   2.843   4.332 -0.1428  0.5173 -0.8374
 2879SOL    MW411591   4.325   2.828   4.358 -0.2337  0.8156 -0.3667
 2880SOL     OW11592   4.082   3.234   4.461  0.0003  0.3685  0.2960
 2880SOL    HW211593   4.016   3.301   4.482  0.3430  0.6070  0.6285
 2880SOL    HW311594   4.068   3.214   4.369 -1.2187 -0.3328  0.6231
 2880SOL    MW411595   4.071   3.240   4.452 -0.1149  0.3076  0.3829
 2881SOL     OW11596   0.003   3.768   4.504 -0.3414 -0.3568 -0.1212
 2881SOL    HW211597   0.068   3.714   4.460 -0.3047 -0.7409  0.3959
 2881SOL    HW311598  -0.057   3.705   4.544  0.0416 -0.0344  0.9932
 2881SOL    MW411599   0.004   3.753   4.504 -0.2860 -0.3645  0.0944
 2882SOL     OW11600   4.077   4.253   4.694 -0.5261 -0.0537 -0.1284
 2882SOL    HW211601   4.119   4.168   4.702 -1.0623 -0.4210 -1.0842
 2882SOL    HW311602   3.984   4.232   4.684 -0.5314  0.5847 -1.4889
 2882SOL    MW411603   4.070   4.239   4.693 -0.5975 -0.0181 -0.4344
 2883SOL     OW11604   3.692   0.020   4.566  0.7559  0.6547  0.1259
 2883SOL    HW211605   3.633   0.070   4.623  0.3176  0.0190  0.2354
 2883SOL    HW311606   3.667   0.046   4.477 -0.3245 -0.3076  0.1390
 2883SOL    MW411607   3.681   0.030   4.562  0.5555  0.4444  0.1421
 2884SOL     OW11608   4.128   3.698   4.783  0.2546  0.0914  0.1537
 2884SOL    HW211609   4.172   3.649   4.852  1.0144  0.7497  0.1453
 2884SOL    HW311610   4.158   3.658   4.702 -1.3888 -1.3158  0.2046
 2884SOL    MW411611   4.137   3.687   4.781  0.1383 -0.0074  0.1588
 2885SOL     OW11612   3.408   0.433   4.481 -0.0922  0.0538  0.0853
 2885SOL    HW211613   3.405   0.467   4.391 -2.7223 -0.5151 -0.0941
 2885SOL    HW311614   3.338   0.367   4.484 -0.0535  0.0737  2.5675
 2885SOL    MW411615   3.398   0.429   4.469 -0.4339 -0.0186  0.3896
 2886SOL     OW11616   4.217   4.357   4.270  0.3874 -0.1931 -0.1889
 2886SOL    HW211617   4.307   4.326   4.262  0.0668 -1.3778  0.6779
 2886SOL    HW311618   4.209   4.386   4.360 -0.2915 -0.7299 -0.0725
 2886SOL    MW411619   4.228   4.357   4.281  0.2551 -0.4206 -0.0591
 2887NA      NA11620   0.009   3.736   0.427 -0.5359 -0.6297 -0.1282
 2888NA      NA11621   2.949   0.763   0.375 -0.1256  0.3627  0.2572
 2889NA      NA11622   1.824   2.663   0.613  0.2720  0.2152 -0.3012
   4.49070   4.66690  10.00000
