Gromacs Runs On Most of All Computer Systems in water
11585
    1C      O5'    1   2.439   2.009   4.654  0.1105 -0.1273 -0.3926
    1C      H5T    2   2.523   1.962   4.652 -0.0564 -0.3788 -1.4820
    1C      C5'    3   2.356   1.949   4.748 -0.0237 -0.2745  0.6178
    1C     H5'1    4   2.399   1.957   4.849  0.9178 -3.0220  0.4663
    1C     H5'2    5   2.338   1.845   4.723 -0.7480  0.0770 -0.3255
    1C      C4'    6   2.219   2.025   4.750 -0.4972 -0.1027  0.2712
    1C      H4'    7   2.150   1.962   4.807 -1.2894 -0.1831 -0.7525
    1C      O4'    8   2.239   2.146   4.821 -0.3020 -0.3076 -0.0950
    1C      C1'    9   2.226   2.262   4.737  0.4807 -0.1211 -0.4844
    1C      H1'   10   2.134   2.312   4.765 -1.0604 -2.6477 -0.9048
    1C       N1   11   2.337   2.360   4.746  0.0249 -0.2373  0.1437
    1C       C6   12   2.458   2.328   4.793 -0.2323 -0.0578  0.5777
    1C       H6   13   2.477   2.227   4.824  0.1228  0.1267  0.9683
    1C       C5   14   2.551   2.428   4.816  1.0520 -0.0235 -0.1424
    1C       H5   15   2.647   2.402   4.858  0.3843  0.8358  1.9962
    1C       C4   16   2.513   2.560   4.787  0.0293 -0.1507  0.1502
    1C       N4   17   2.587   2.655   4.836  0.0712  0.0083 -0.0022
    1C      H41   18   2.682   2.627   4.857  0.3354  0.6569 -0.3208
    1C      H42   19   2.555   2.750   4.828  1.0876  0.3795  0.2701
    1C       N3   20   2.393   2.593   4.744  0.1557 -0.2254  0.0214
    1C       C2   21   2.307   2.494   4.722  0.2323 -0.1031 -0.1577
    1C       O2   22   2.196   2.528   4.685 -0.3682 -0.0226  1.0588
    1C      C3'   23   2.158   2.060   4.614 -0.2619 -0.2354  0.2479
    1C      H3'   24   2.196   1.995   4.535  1.9912 -0.2596  1.3005
    1C      C2'   25   2.213   2.210   4.595 -0.3016 -0.0010  0.6817
    1C     H2'1   26   2.309   2.187   4.548 -0.1328 -0.3909  1.2064
    1C      O2'   27   2.143   2.295   4.506  0.0770  0.2313 -0.2715
    1C     HO'2   28   2.083   2.233   4.464  2.6821 -2.1821 -0.5946
    1C      O3'   29   2.018   2.045   4.624 -0.0862  0.2270  0.1075
    2G        P   30   1.929   2.033   4.497 -0.2028  0.4194 -0.0366
    2G      O1P   31   1.903   1.885   4.472  0.3698 -0.4643  0.9469
    2G      O2P   32   1.995   2.112   4.390  0.4537  0.1209  0.0276
    2G      O5'   33   1.794   2.100   4.531  0.0918 -0.0370  0.0661
    2G      C5'   34   1.777   2.246   4.538  0.8193 -0.2629 -0.0166
    2G     H5'1   35   1.789   2.287   4.438  0.7664 -1.1637 -0.4004
    2G     H5'2   36   1.844   2.287   4.614 -0.3612 -1.1896  1.5661
    2G      C4'   37   1.631   2.286   4.586  0.1981  0.9132  1.1017
    2G      H4'   38   1.616   2.393   4.577 -0.6904  0.8692  1.9015
    2G      O4'   39   1.531   2.215   4.514  0.2964  0.1241 -0.0796
    2G      C1'   40   1.425   2.193   4.604  0.0639 -0.3290  0.2906
    2G      H1'   41   1.338   2.256   4.585  1.5779  1.0056 -2.5924
    2G       N9   42   1.381   2.052   4.600 -0.6157  0.8598  0.0615
    2G       C8   43   1.455   1.941   4.600  0.1258 -0.2169  0.0616
    2G       H8   44   1.563   1.937   4.598  0.0510 -2.3331 -0.5689
    2G       N7   45   1.387   1.832   4.606  0.7948 -0.2743 -0.0519
    2G       C5   46   1.252   1.872   4.609  0.2746  0.0668  0.9169
    2G       C6   47   1.134   1.794   4.606  0.3905  0.0262  0.6492
    2G       O6   48   1.121   1.670   4.614 -0.1340 -0.4114  0.0373
    2G       N1   49   1.023   1.877   4.610 -0.4518  0.1139 -0.0224
    2G       H1   50   0.930   1.837   4.606  0.1615 -1.4207  0.6788
    2G       C2   51   1.026   2.008   4.624 -0.4382  0.2165  0.0077
    2G       N2   52   0.904   2.056   4.621  0.3011  0.0946 -0.3327
    2G      H21   53   0.827   1.992   4.629  0.2746  0.0141 -1.2576
    2G      H22   54   0.903   2.156   4.608 -0.5294  0.1103 -0.1424
    2G       N3   55   1.135   2.085   4.619  0.0103 -0.5187 -0.7934
    2G       C4   56   1.247   2.009   4.613  0.7819 -0.4045 -0.3564
    2G      C3'   57   1.617   2.253   4.734 -0.3213  0.0779  0.7263
    2G      H3'   58   1.668   2.159   4.754 -0.0703 -0.2039 -1.1317
    2G      C2'   59   1.465   2.232   4.748 -0.1438  0.1088 -0.1054
    2G     H2'1   60   1.447   2.153   4.820 -0.5935  0.4090  0.1148
    2G      O2'   61   1.402   2.355   4.791 -0.1958  0.5477  0.2461
    2G     HO'2   62   1.476   2.398   4.833  1.4940 -2.1702  0.1580
    2G      O3'   63   1.660   2.357   4.825 -0.1324  0.4304 -0.2916
    2G      H3T   64   1.753   2.371   4.810  0.2814 -1.4838  0.3125
    5SOL     OW   65   0.061   1.168   0.848 -0.1869  0.0122 -0.0402
    5SOL    HW2   66   0.052   1.201   0.937  0.8626 -1.7587  0.7449
    5SOL    HW3   67   0.156   1.155   0.837 -0.4565 -1.4217 -0.7982
    5SOL    MW4   68   0.073   1.171   0.858 -0.0840 -0.4107 -0.0365
    6SOL     OW   69   2.709   1.159   1.191 -0.0883 -0.7231  0.3580
    6SOL    HW2   70   2.772   1.213   1.237 -1.2901 -0.1461  1.3637
    6SOL    HW3   71   2.719   1.183   1.099  1.3241 -0.8301  0.4783
    6SOL    MW4   72   2.718   1.169   1.185 -0.0606 -0.6610  0.5065
    7SOL     OW   73   4.210   3.148   0.670 -0.0653  0.6719  0.6604
    7SOL    HW2   74   4.284   3.097   0.638  0.4275 -0.0679  2.8808
    7SOL    HW3   75   4.216   3.142   0.766 -2.9758  0.5833  0.8933
    7SOL    MW4   76   4.220   3.140   0.679 -0.3843  0.5624  0.9840
    8SOL     OW   77   2.588   2.260   0.654  0.0484 -0.6252  0.3898
    8SOL    HW2   78   2.509   2.285   0.606 -0.5819 -0.1806  1.6407
    8SOL    HW3   79   2.648   2.334   0.642  0.2431 -0.9051 -0.4470
    8SOL    MW4   80   2.586   2.273   0.646 -0.0093 -0.6034  0.4445
    9SOL     OW   81   2.907   3.149   0.374 -0.2610  0.2269 -0.6584
    9SOL    HW2   82   2.848   3.080   0.405  0.9156 -0.7799 -0.6427
    9SOL    HW3   83   2.989   3.104   0.357  0.7061  1.7399 -0.0514
    9SOL    MW4   84   2.910   3.134   0.376  0.0217  0.2933 -0.5762
   10SOL     OW   85   2.501   4.654   0.870  0.3013 -0.2432  0.0056
   10SOL    HW2   86   2.510   4.637   0.964  0.5890  0.2417  0.0673
   10SOL    HW3   87   2.581   4.700   0.846  0.9370 -1.7759 -0.8161
   10SOL    MW4   88   2.513   4.658   0.879  0.4230 -0.3815 -0.0947
   11SOL     OW   89   0.802   2.211   0.543 -0.6059  0.4950  0.2470
   11SOL    HW2   90   0.765   2.144   0.600 -0.5410  1.1501  1.0818
   11SOL    HW3   91   0.798   2.291   0.596  1.0845  0.7689 -0.0171
   11SOL    MW4   92   0.797   2.213   0.558 -0.3743  0.6175  0.3222
   12SOL     OW   93   0.160   3.193   0.495  0.2125  0.2154  0.1300
   12SOL    HW2   94   0.165   3.194   0.400  0.1722  0.9590  0.1315
   12SOL    HW3   95   0.248   3.167   0.524  1.0662  2.7648 -0.0624
   12SOL    MW4   96   0.173   3.190   0.487  0.3198  0.6499  0.1049
   13SOL     OW   97   1.052   3.734   0.483  0.2269 -0.1832  0.0351
   13SOL    HW2   98   0.992   3.710   0.554 -0.0433 -0.2302 -0.2120
   13SOL    HW3   99   1.041   3.666   0.417  0.0925  0.1478 -0.2861
   13SOL    MW4  100   1.043   3.722   0.484  0.1734 -0.1459 -0.0399
   14SOL     OW  101   1.626   4.178   0.900  0.0046 -0.3690  0.1102
   14SOL    HW2  102   1.551   4.226   0.934  0.6242  1.2101 -0.6989
   14SOL    HW3  103   1.605   4.086   0.917 -2.4857 -0.0253 -0.8265
   14SOL    MW4  104   1.613   4.172   0.907 -0.2421 -0.1149 -0.1202
   15SOL     OW  105   2.180   3.131   0.674 -0.2734  0.1464 -0.2099
   15SOL    HW2  106   2.254   3.137   0.735  0.2497  0.1041 -0.8326
   15SOL    HW3  107   2.102   3.132   0.730  0.2319 -0.8435  0.5150
   15SOL    MW4  108   2.179   3.132   0.689 -0.1378  0.0105 -0.1964
   16SOL     OW  109   4.368   0.348   0.314 -0.4260  0.3366  0.0803
   16SOL    HW2  110   4.428   0.290   0.360  1.0734  0.5347 -1.5749
   16SOL    HW3  111   4.281   0.315   0.336  0.3667 -1.5527  0.4334
   16SOL    MW4  112   4.364   0.336   0.323 -0.1235  0.1135 -0.0915
   17SOL     OW  113   3.338   3.228   0.127  0.2025 -0.6402  0.4153
   17SOL    HW2  114   3.422   3.211   0.170 -0.1342 -1.6973  0.6525
   17SOL    HW3  115   3.280   3.160   0.159 -0.3183 -0.8662 -0.9719
   17SOL    MW4  116   3.342   3.217   0.137  0.0892 -0.8094  0.2636
   18SOL     OW  117   3.526   2.104   0.262 -0.3649  0.1444  0.3158
   18SOL    HW2  118   3.549   2.044   0.191 -0.9241 -0.6949  0.8263
   18SOL    HW3  119   3.482   2.048   0.326  0.4002  0.8303  1.4588
   18SOL    MW4  120   3.523   2.089   0.261 -0.3378  0.1242  0.5339
   19SOL     OW  121   3.839   0.215   0.455 -0.3743 -0.2273  0.2711
   19SOL    HW2  122   3.773   0.279   0.429  1.1224  1.4280  0.4866
   19SOL    HW3  123   3.837   0.215   0.550  0.7448  0.7114  0.3068
   19SOL    MW4  124   3.830   0.223   0.464 -0.0288  0.1150  0.3043
   20SOL     OW  125   1.605   1.896   0.743  0.4606 -0.3295  0.5613
   20SOL    HW2  126   1.624   1.807   0.713 -0.9583  0.4681 -2.9439
   20SOL    HW3  127   1.521   1.888   0.788  0.3574 -0.8039  0.2950
   20SOL    MW4  128   1.596   1.883   0.745  0.2599 -0.2868  0.0638
   21SOL     OW  129   3.574   1.127   0.396 -0.3161  0.2214  0.0317
   21SOL    HW2  130   3.639   1.183   0.439  0.6160  0.4317 -1.6098
   21SOL    HW3  131   3.611   1.039   0.402 -0.2138  0.2429 -0.2926
   21SOL    MW4  132   3.588   1.123   0.403 -0.1795  0.2521 -0.2277
   22SOL     OW  133   0.859   1.603   0.581  0.6378  0.1251 -0.5634
   22SOL    HW2  134   0.798   1.672   0.556 -0.2016 -0.8547 -1.2732
   22SOL    HW3  135   0.811   1.521   0.565  1.6201 -0.6255  0.2267
   22SOL    MW4  136   0.845   1.601   0.576  0.6567 -0.1032 -0.5528
   23SOL     OW  137   4.153   1.710   0.435 -0.2454 -0.3253  0.0609
   23SOL    HW2  138   4.073   1.664   0.462 -1.1868  0.6876 -0.9504
   23SOL    HW3  139   4.128   1.754   0.354  1.1710  0.5149  0.0815
   23SOL    MW4  140   4.139   1.710   0.428 -0.1831 -0.0807 -0.0698
   24SOL     OW  141   0.226   2.203   0.338 -0.2840 -0.1336  0.4071
   24SOL    HW2  142   0.223   2.118   0.383  0.7120 -0.0795  0.5729
   24SOL    HW3  143   0.135   2.220   0.314 -0.6342 -0.7736  1.2644
   24SOL    MW4  144   0.213   2.194   0.340 -0.1988 -0.2112  0.5421
   25SOL     OW  145   3.445   2.779   0.856  0.1985  0.7863 -0.6092
   25SOL    HW2  146   3.466   2.698   0.809  1.3215  1.1095 -0.6973
   25SOL    HW3  147   3.463   2.759   0.948 -1.2534  0.3931 -0.3965
   25SOL    MW4  148   3.450   2.765   0.862  0.1552  0.7772 -0.5928
   26SOL     OW  149   4.393   1.536   0.483 -0.4040  0.0824  0.1414
   26SOL    HW2  150   4.362   1.478   0.551  0.7775 -0.0591  0.5775
   26SOL    HW3  151   4.322   1.597   0.468 -1.1010 -0.5928  0.6899
   26SOL    MW4  152   4.380   1.536   0.490 -0.3400 -0.0253  0.2713
   27SOL     OW  153   2.170   1.799   0.535  0.2620  0.2772  0.2903
   27SOL    HW2  154   2.258   1.838   0.539 -0.1897  1.1960  1.3524
   27SOL    HW3  155   2.120   1.859   0.480  0.2967 -0.2658 -0.3451
   27SOL    MW4  156   2.175   1.812   0.528  0.2069  0.3269  0.3466
   28SOL     OW  157   2.502   3.890   0.887 -0.4688  0.1065 -0.0111
   28SOL    HW2  158   2.583   3.917   0.844 -0.2666 -1.1980 -0.4799
   28SOL    HW3  159   2.432   3.928   0.833 -0.1992 -0.8059 -1.0235
   28SOL    MW4  160   2.503   3.899   0.874 -0.4067 -0.1862 -0.2065
   29SOL     OW  161   2.393   0.530   0.778  0.1559  0.0145 -0.1003
   29SOL    HW2  162   2.390   0.559   0.686  0.8023 -2.3672 -0.8856
   29SOL    HW3  163   2.481   0.494   0.789 -0.1912 -0.4191  1.2589
   29SOL    MW4  164   2.404   0.529   0.767  0.1955 -0.3569 -0.0246
   30SOL     OW  165   0.662   3.205   0.974  0.1160 -0.1111 -0.4875
   30SOL    HW2  166   0.737   3.170   0.926 -0.3394  0.0526 -1.3240
   30SOL    HW3  167   0.672   3.170   1.063  2.4453  1.7691  0.0425
   30SOL    MW4  168   0.673   3.196   0.980  0.3632  0.1585 -0.5279
   31SOL     OW  169   1.348   1.610   0.874 -0.0184  0.3364  0.2013
   31SOL    HW2  170   1.439   1.597   0.903 -0.4134  0.7206  1.6603
   31SOL    HW3  171   1.336   1.705   0.878 -0.6338  0.2479  0.4855
   31SOL    MW4  172   1.359   1.621   0.878 -0.1518  0.3754  0.4313
   32SOL     OW  173   3.144   0.106   0.779 -0.2446  0.2331  0.4581
   32SOL    HW2  174   3.197   0.099   0.699  0.9166 -0.3469  1.2653
   32SOL    HW3  175   3.147   0.198   0.802 -2.1590  0.7495 -1.2131
   32SOL    MW4  176   3.152   0.117   0.771 -0.3438  0.2247  0.3440
   33SOL     OW  177   4.234   4.479   1.004  0.4820  0.2904  0.0034
   33SOL    HW2  178   4.139   4.467   1.005  0.3834  1.0447  0.3838
   33SOL    HW3  179   4.250   4.547   1.069  1.2268  0.5571 -0.4507
   33SOL    MW4  180   4.223   4.487   1.013  0.5670  0.4253 -0.0062
   34SOL     OW  181   2.950   4.420   0.751 -0.3784  0.0992 -0.0853
   34SOL    HW2  182   2.914   4.439   0.664 -0.2318  0.7849  0.0024
   34SOL    HW3  183   2.881   4.371   0.795 -0.1702 -0.8866 -0.8477
   34SOL    MW4  184   2.936   4.416   0.745 -0.3316  0.0601 -0.1743
   35SOL     OW  185   2.390   3.187   0.889 -0.0214  0.1337 -0.3922
   35SOL    HW2  186   2.410   3.145   0.973  0.2601 -1.3220 -1.1679
   35SOL    HW3  187   2.383   3.280   0.910  0.3290 -0.1786  1.1949
   35SOL    MW4  188   2.392   3.193   0.903  0.0620 -0.0994 -0.2852
   36SOL     OW  189   1.347   4.057   1.291 -0.5663  0.0771  0.0653
   36SOL    HW2  190   1.348   4.143   1.251 -0.0028 -0.0103 -0.1074
   36SOL    HW3  191   1.271   4.013   1.252  1.1865 -0.7774 -2.5421
   36SOL    MW4  192   1.337   4.062   1.281 -0.2606 -0.0472 -0.3015
   37SOL     OW  193   2.372   0.958   0.847  0.1520  0.5711  0.4814
   37SOL    HW2  194   2.407   1.015   0.779  1.2365 -0.8296 -0.1587
   37SOL    HW3  195   2.441   0.894   0.863 -1.8399 -1.8929 -0.3636
   37SOL    MW4  196   2.386   0.957   0.840  0.0319  0.0612  0.2854
   38SOL     OW  197   1.967   1.084   0.774 -0.0035 -0.2958 -0.0339
   38SOL    HW2  198   2.011   1.012   0.728 -1.3853 -0.4634 -1.1600
   38SOL    HW3  199   1.929   1.137   0.704  0.8991  1.4708  0.8078
   38SOL    MW4  200   1.968   1.081   0.759 -0.0668 -0.0849 -0.0715
   39SOL     OW  201   1.180   4.479   0.474  0.0806 -0.1509  0.0276
   39SOL    HW2  202   1.270   4.494   0.503  0.1461  1.7858 -1.1382
   39SOL    HW3  203   1.177   4.385   0.454  1.2664 -0.6435  1.9384
   39SOL    MW4  204   1.191   4.469   0.475  0.2457  0.0396  0.1259
   40SOL     OW  205   2.654   0.698   0.614 -0.2575  0.1667 -0.2743
   40SOL    HW2  206   2.561   0.693   0.592 -0.4305  0.7597  0.3090
   40SOL    HW3  207   2.685   0.778   0.572 -0.5092  1.1154  1.3032
   40SOL    MW4  208   2.646   0.708   0.605 -0.3135  0.3701  0.0108
   41SOL     OW  209   1.466   0.590   0.177  0.6554 -0.0829  0.0438
   41SOL    HW2  210   1.493   0.522   0.238 -0.8526  0.3609  1.2420
   41SOL    HW3  211   1.443   0.543   0.097  3.0523 -0.6226 -0.3687
   41SOL    MW4  212   1.466   0.575   0.174  0.7727 -0.0955  0.1475
   42SOL     OW  213   1.507   3.141   0.648 -0.3298  0.2595  0.4037
   42SOL    HW2  214   1.525   3.071   0.585  0.6961  0.8297  0.0528
   42SOL    HW3  215   1.512   3.098   0.734  0.3415 -0.0986  0.1920
   42SOL    MW4  216   1.510   3.126   0.651 -0.1059  0.2875  0.3295
   43SOL     OW  217   0.771   2.691   0.727  0.2595  0.0931  0.2562
   43SOL    HW2  218   0.811   2.723   0.808 -0.8689  0.1554  0.7985
   43SOL    HW3  219   0.684   2.730   0.726  0.5869  0.8411 -1.4591
   43SOL    MW4  220   0.765   2.701   0.738  0.1540  0.2003  0.1014
   44SOL     OW  221   1.408   2.652   0.910 -0.6184  0.0229  0.4502
   44SOL    HW2  222   1.415   2.678   1.002 -0.6964 -0.5024  0.6022
   44SOL    HW3  223   1.374   2.563   0.913 -1.2326  0.2405 -0.1096
   44SOL    MW4  224   1.405   2.644   0.923 -0.7097 -0.0174  0.3964
   45SOL     OW  225   1.606   1.640   0.653  0.6125 -0.3389 -0.0159
   45SOL    HW2  226   1.528   1.614   0.606  0.3819  1.9536 -0.9679
   45SOL    HW3  227   1.678   1.594   0.609  0.0413 -0.7166 -0.5471
   45SOL    MW4  228   1.605   1.631   0.641  0.5066 -0.0863 -0.2116
   46SOL     OW  229   3.582   3.126   0.282  0.1482  0.3722  0.1578
   46SOL    HW2  230   3.676   3.117   0.296  0.0490 -0.0630  0.5535
   46SOL    HW3  231   3.556   3.197   0.341 -0.0143 -0.4687  1.1130
   46SOL    MW4  232   3.591   3.134   0.292  0.1137  0.2036  0.3361
   47SOL     OW  233   3.512   1.176   0.915  0.5478  0.2770  0.0026
   47SOL    HW2  234   3.545   1.173   1.005 -0.4835  0.3052  0.3883
   47SOL    HW3  235   3.547   1.257   0.879  0.4308  0.5894  0.5927
   47SOL    MW4  236   3.521   1.186   0.922  0.3963  0.3220  0.1314
   48SOL     OW  237   2.596   3.648   0.741  0.3081 -0.2765 -0.1130
   48SOL    HW2  238   2.662   3.685   0.683 -0.3542 -0.1721 -0.8170
   48SOL    HW3  239   2.552   3.724   0.780  1.9264 -0.3398  1.9213
   48SOL    MW4  240   2.599   3.663   0.738  0.4342 -0.2711  0.0626
   49SOL     OW  241   0.455   1.165   1.176 -0.0014 -1.1757 -0.0383
   49SOL    HW2  242   0.450   1.079   1.219  1.4937 -1.1576  0.1884
   49SOL    HW3  243   0.521   1.213   1.226 -0.7049  0.0602 -0.2702
   49SOL    MW4  244   0.463   1.160   1.188  0.1030 -1.0103 -0.0390
   50SOL     OW  245   0.441   3.712   0.866  0.3071  0.1932  0.0679
   50SOL    HW2  246   0.440   3.742   0.775  1.4561  0.5865  0.1758
   50SOL    HW3  247   0.505   3.768   0.909  0.3517 -0.5121  0.9421
   50SOL    MW4  248   0.449   3.723   0.859  0.4645  0.1521  0.1975
   51SOL     OW  249   3.577   0.923   0.805 -0.2937 -0.1566  0.2717
   51SOL    HW2  250   3.543   1.009   0.830 -0.3428 -0.5306  1.5171
   51SOL    HW3  251   3.602   0.933   0.713 -1.7914  0.7282 -0.0471
   51SOL    MW4  252   3.576   0.935   0.796 -0.4978 -0.0892  0.3939
   52SOL     OW  253   2.472   3.089   1.135 -0.0161 -0.5105 -0.1568
   52SOL    HW2  254   2.547   3.131   1.176 -1.2595 -0.8879  2.6568
   52SOL    HW3  255   2.471   3.000   1.171 -1.6598 -0.5845 -0.3150
   52SOL    MW4  256   2.482   3.083   1.145 -0.3970 -0.5701  0.1935
   53SOL     OW  257   0.070   4.266   0.905 -0.3010  0.0274  0.4900
   53SOL    HW2  258   0.066   4.346   0.853  0.6717 -0.4711 -0.3670
   53SOL    HW3  259  -0.022   4.243   0.920 -0.6256 -0.6247 -2.2923
   53SOL    MW4  260   0.057   4.274   0.900 -0.2155 -0.1240  0.0098
   54SOL     OW  261   4.463   4.541   0.386 -0.1241  0.5783 -0.3545
   54SOL    HW2  262   4.428   4.459   0.352  0.2433 -0.0300  0.7237
   54SOL    HW3  263   4.539   4.515   0.438 -0.2533  1.5664  0.3364
   54SOL    MW4  264   4.468   4.527   0.388 -0.0925  0.6280 -0.1211
   55SOL     OW  265   0.061   0.546   0.216 -0.1058  0.5588  0.7706
   55SOL    HW2  266   0.022   0.472   0.263  0.5652 -0.5727 -0.4143
   55SOL    HW3  267  -0.009   0.577   0.158 -0.4576  0.9867  1.4286
   55SOL    MW4  268   0.047   0.540   0.214 -0.0637  0.4660  0.7011
   56SOL     OW  269   1.575   0.396   0.362  0.0488  0.0281 -0.2169
   56SOL    HW2  270   1.637   0.463   0.392  0.0020  0.5396 -1.2344
   56SOL    HW3  271   1.631   0.327   0.327  0.0522  0.5603 -1.2825
   56SOL    MW4  272   1.591   0.396   0.362  0.0429  0.1658 -0.4918
   57SOL     OW  273   1.239   3.009   0.859  0.1057  0.1346  0.0922
   57SOL    HW2  274   1.241   3.070   0.785  1.5469  0.8413  0.6940
   57SOL    HW3  275   1.211   2.926   0.820 -0.4304  0.8023 -1.0040
   57SOL    MW4  276   1.236   3.006   0.844  0.2251  0.3159  0.0270
   58SOL     OW  277   0.667   0.811   1.221  0.2066  0.0597 -0.0965
   58SOL    HW2  278   0.652   0.784   1.130 -0.8282  0.5910 -0.0916
   58SOL    HW3  279   0.582   0.843   1.250  1.0154  1.7726  0.4308
   58SOL    MW4  280   0.654   0.811   1.212  0.1768  0.3557 -0.0263
   59SOL     OW  281   0.768   1.203   0.871  0.0427  0.0065 -0.2696
   59SOL    HW2  282   0.848   1.167   0.908  0.0126 -0.9505 -1.1173
   59SOL    HW3  283   0.791   1.227   0.781 -1.1163 -2.0961 -1.1636
   59SOL    MW4  284   0.781   1.202   0.864 -0.1142 -0.3972 -0.4994
   60SOL     OW  285   2.451   0.416   0.319  0.5898  0.3481 -0.4964
   60SOL    HW2  286   2.523   0.438   0.261 -0.2207  0.9275 -1.3033
   60SOL    HW3  287   2.487   0.351   0.379  1.5132 -0.0395 -1.4600
   60SOL    MW4  288   2.465   0.411   0.320  0.6046  0.3734 -0.7301
   61SOL     OW  289   4.052   2.742   1.102  0.4721 -0.2768  0.1092
   61SOL    HW2  290   3.964   2.777   1.117 -0.4216 -2.2246 -0.4509
   61SOL    HW3  291   4.072   2.767   1.012  0.5862  0.3538  0.3068
   61SOL    MW4  292   4.043   2.750   1.092  0.3691 -0.4506  0.0614
   62SOL     OW  293   0.197   0.560   1.242  0.0443 -0.3706  0.0337
   62SOL    HW2  294   0.185   0.645   1.200 -1.4151 -1.2060 -1.2976
   62SOL    HW3  295   0.141   0.500   1.192 -0.7290 -1.6622  2.3623
   62SOL    MW4  296   0.188   0.563   1.230 -0.2503 -0.6512  0.1653
   63SOL     OW  297   2.316   3.996   0.734 -0.1421  0.1313 -0.2480
   63SOL    HW2  298   2.245   3.940   0.703 -0.0531 -0.5980  0.8333
   63SOL    HW3  299   2.353   4.034   0.654 -0.8237 -0.5992 -0.9223
   63SOL    MW4  300   2.312   3.994   0.719 -0.2201 -0.0613 -0.1943
   64SOL     OW  301   3.140   2.851   0.637 -0.3585 -0.2005  0.2274
   64SOL    HW2  302   3.159   2.793   0.711 -1.4912 -0.3899  0.3744
   64SOL    HW3  303   3.133   2.938   0.676 -0.5247 -0.2392  0.2858
   64SOL    MW4  304   3.142   2.855   0.652 -0.5295 -0.2306  0.2545
   65SOL     OW  305   2.675   0.411   0.860 -0.1726 -0.2429 -0.0410
   65SOL    HW2  306   2.682   0.413   0.956 -1.3892  1.3936  0.0323
   65SOL    HW3  307   2.755   0.455   0.829 -0.8033  1.1955  0.3046
   65SOL    MW4  308   2.687   0.417   0.869 -0.4163  0.1628  0.0143
   66SOL     OW  309   1.828   0.620   0.753 -0.5477 -0.0954  0.3870
   66SOL    HW2  310   1.817   0.531   0.787 -1.5360  0.1212  0.6464
   66SOL    HW3  311   1.831   0.610   0.658 -1.4907 -0.3230  0.3813
   66SOL    MW4  312   1.827   0.607   0.745 -0.8025 -0.0969  0.4204
   67SOL     OW  313   3.929   1.569   0.540  0.2138  0.3285 -0.2020
   67SOL    HW2  314   3.884   1.488   0.516 -0.0665  0.3333  0.2828
   67SOL    HW3  315   3.858   1.631   0.557  0.3966  0.3459  0.5419
   67SOL    MW4  316   3.913   1.566   0.539  0.2010  0.3313 -0.0399
   68SOL     OW  317   2.549   0.734   0.867 -0.4108 -0.0364  0.6137
   68SOL    HW2  318   2.499   0.653   0.854 -1.2178  0.5455  0.0705
   68SOL    HW3  319   2.602   0.742   0.788  0.3150 -0.4761  1.0437
   68SOL    MW4  320   2.550   0.724   0.855 -0.4218 -0.0177  0.5987
   69SOL     OW  321   0.005   0.952   0.490  0.0597 -0.0201  0.2613
   69SOL    HW2  322  -0.002   0.935   0.584 -0.1178  0.5066  0.3495
   69SOL    HW3  323   0.087   1.000   0.481  0.1613 -0.2207  0.1237
   69SOL    MW4  324   0.015   0.956   0.501  0.0491  0.0229  0.2548
   70SOL     OW  325   0.193   4.443   0.527 -0.2065  0.0534 -0.0263
   70SOL    HW2  326   0.181   4.468   0.618 -0.9158  0.3570 -0.1968
   70SOL    HW3  327   0.160   4.353   0.522  1.2251 -0.5043  0.3301
   70SOL    MW4  328   0.187   4.435   0.538 -0.1112  0.0196 -0.0018
   71SOL     OW  329   2.915   0.789   0.827  0.2102  0.2860  0.4216
   71SOL    HW2  330   2.848   0.853   0.804  2.0279  2.1496  0.0864
   71SOL    HW3  331   2.904   0.774   0.920 -0.1028  1.2895  0.5483
   71SOL    MW4  332   2.905   0.796   0.836  0.4086  0.6643  0.3941
   72SOL     OW  333   3.555   4.295   0.456  0.8690 -0.5343  0.1531
   72SOL    HW2  334   3.463   4.310   0.432  1.6053 -0.0011 -2.4856
   72SOL    HW3  335   3.559   4.202   0.478  0.3289 -1.3377 -2.9273
   72SOL    MW4  336   3.543   4.285   0.456  0.8948 -0.5698 -0.6014
   73SOL     OW  337   1.830   3.031   0.540 -0.2908  0.0205  0.4341
   73SOL    HW2  338   1.745   3.003   0.508 -0.8231  2.2709 -0.1319
   73SOL    HW3  339   1.835   2.995   0.629 -1.2113 -1.3145 -0.0427
   73SOL    MW4  340   1.820   3.022   0.548 -0.4823  0.1411  0.2965
   74SOL     OW  341   1.162   1.763   0.528  0.0548 -0.1588  0.5623
   74SOL    HW2  342   1.078   1.719   0.541 -1.3524  1.3328 -2.9148
   74SOL    HW3  343   1.141   1.856   0.524  2.2066  0.4249  1.7372
   74SOL    MW4  344   1.148   1.769   0.529  0.1531  0.1150  0.2586
   75SOL     OW  345   2.239   3.418   0.198  0.3832 -0.1641 -0.0469
   75SOL    HW2  346   2.189   3.383   0.272  0.5867 -0.1262  0.1077
   75SOL    HW3  347   2.320   3.451   0.237  1.7603 -2.7060 -0.6323
   75SOL    MW4  348   2.243   3.418   0.213  0.5918 -0.4945 -0.1038
   76SOL     OW  349   3.581   4.360   0.718  0.3892  0.2631  0.7530
   76SOL    HW2  350   3.569   4.349   0.624 -1.0536 -1.3336  1.0985
   76SOL    HW3  351   3.587   4.455   0.730 -0.0056  0.5192 -0.8840
   76SOL    MW4  352   3.580   4.371   0.707  0.1466  0.0858  0.5826
   77SOL     OW  353   2.001   4.584   1.132 -0.0732 -0.3765 -0.2175
   77SOL    HW2  354   2.010   4.506   1.187 -2.0485 -0.5946 -0.1617
   77SOL    HW3  355   1.969   4.550   1.048 -1.3509  0.3869 -0.0548
   77SOL    MW4  356   1.998   4.569   1.128 -0.5023 -0.3052 -0.1887
   78SOL     OW  357   4.305   1.140   0.391  0.3675 -0.1051  0.2917
   78SOL    HW2  358   4.308   1.190   0.473  1.2291 -0.3868  0.4417
   78SOL    HW3  359   4.367   1.069   0.404  0.8131  0.0777 -0.7519
   78SOL    MW4  360   4.314   1.138   0.404  0.5398 -0.1181  0.1738
   79SOL     OW  361   0.416   1.679   1.277  0.1459  0.2573 -0.1730
   79SOL    HW2  362   0.437   1.764   1.240 -0.0873  0.0014 -0.8868
   79SOL    HW3  363   0.422   1.693   1.372 -1.1278  1.3797 -0.2498
   79SOL    MW4  364   0.420   1.692   1.285 -0.0529  0.3717 -0.2774
   80SOL     OW  365   1.752   3.755   0.762 -0.1184  0.1619 -0.0025
   80SOL    HW2  366   1.820   3.813   0.796  0.8554 -1.1336  0.2987
   80SOL    HW3  367   1.736   3.785   0.673  1.1922  0.1848 -0.2350
   80SOL    MW4  368   1.759   3.766   0.755  0.1830 -0.0062  0.0066
   81SOL     OW  369   1.568   1.142   0.577  0.0654  0.3910  0.1413
   81SOL    HW2  370   1.496   1.201   0.555 -0.2691 -0.6526 -1.5937
   81SOL    HW3  371   1.640   1.171   0.521  0.1081 -0.4305 -0.2224
   81SOL    MW4  372   1.568   1.154   0.567  0.0268  0.1450 -0.1357
   82SOL     OW  373   1.725   0.038   0.546  0.1360  0.2510 -0.1804
   82SOL    HW2  374   1.675  -0.041   0.565 -0.3498  0.0327 -2.2249
   82SOL    HW3  375   1.816   0.015   0.567 -0.2634 -0.1816  1.1105
   82SOL    MW4  376   1.730   0.025   0.551  0.0192  0.1650 -0.2797
   83SOL     OW  377   0.395   0.672   0.489  0.2946  0.0907 -0.1166
   83SOL    HW2  378   0.410   0.676   0.584 -0.1417 -0.4036 -0.0265
   83SOL    HW3  379   0.300   0.675   0.480  0.3750  2.1729 -0.6405
   83SOL    MW4  380   0.384   0.673   0.501  0.2477  0.3001 -0.1738
   84SOL     OW  381   1.770   2.675   1.094 -0.2517 -0.0463  0.3664
   84SOL    HW2  382   1.773   2.672   0.998  0.2608 -1.9487  0.4324
   84SOL    HW3  383   1.843   2.732   1.118  0.4698 -0.6678 -0.3245
   84SOL    MW4  384   1.780   2.682   1.085 -0.0889 -0.3793  0.2838
   85SOL     OW  385   3.783   1.147   0.785  0.1596  0.3291 -0.1749
   85SOL    HW2  386   3.733   1.128   0.865 -0.2637  0.3082 -0.4432
   85SOL    HW3  387   3.873   1.161   0.816 -0.2271  1.4771  0.4335
   85SOL    MW4  388   3.788   1.146   0.800  0.0527  0.4777 -0.1301
   86SOL     OW  389   0.225   2.334   1.185  0.7790 -0.2906 -0.0118
   86SOL    HW2  390   0.304   2.385   1.203  0.3194  0.2644  0.5102
   86SOL    HW3  391   0.153   2.395   1.205  0.2184 -1.2726  1.0091
   86SOL    MW4  392   0.226   2.349   1.190  0.6444 -0.3469  0.1918
   87SOL     OW  393   2.558   3.223   0.589 -0.0353  0.0255  0.0079
   87SOL    HW2  394   2.518   3.299   0.631  0.3151  0.3542 -0.2479
   87SOL    HW3  395   2.634   3.203   0.642  0.7679  0.8331 -0.8171
   87SOL    MW4  396   2.563   3.230   0.601  0.1168  0.1757 -0.1346
   88SOL     OW  397   0.080   1.562   0.884 -0.0332  0.2553  0.2061
   88SOL    HW2  398   0.128   1.637   0.851  0.1663  0.2674  0.5246
   88SOL    HW3  399   0.107   1.554   0.975 -1.0438  0.5930  0.5462
   88SOL    MW4  400   0.090   1.571   0.891 -0.1402  0.3016  0.2930
   89SOL     OW  401   2.771   3.991   0.791 -0.0885 -0.3056  0.2362
   89SOL    HW2  402   2.780   3.947   0.707  0.0951 -0.5061  0.3597
   89SOL    HW3  403   2.847   3.962   0.842 -1.0764 -1.5205  1.0622
   89SOL    MW4  404   2.782   3.981   0.787 -0.1945 -0.4923  0.3616
   90SOL     OW  405   0.130   4.524   0.796  0.1572  0.0913  0.3655
   90SOL    HW2  406   0.217   4.551   0.826  0.3649 -0.5581  0.3625
   90SOL    HW3  407   0.078   4.604   0.799  0.2507  0.1026  2.1704
   90SOL    MW4  408   0.135   4.538   0.800  0.1969  0.0072  0.6033
   91SOL     OW  409   3.818   3.097   0.430  0.3171  0.0387  0.0276
   91SOL    HW2  410   3.896   3.052   0.464  0.4355 -0.2677 -0.6465
   91SOL    HW3  411   3.830   3.189   0.455  0.9920  0.0274 -0.2435
   91SOL    MW4  412   3.830   3.103   0.438  0.4220 -0.0033 -0.0971
   92SOL     OW  413   2.036   2.296   1.116  0.0144 -0.2968 -0.2131
   92SOL    HW2  414   2.098   2.357   1.156  0.8245 -0.2689 -1.4601
   92SOL    HW3  415   1.950   2.332   1.136  0.4334  0.1619  0.7692
   92SOL    MW4  416   2.033   2.309   1.124  0.1767 -0.2327 -0.2481
   93SOL     OW  417   4.229   0.038   0.824 -0.1970  0.3375  0.1534
   93SOL    HW2  418   4.225   0.023   0.730  0.2275  1.3033 -0.0223
   93SOL    HW3  419   4.232  -0.050   0.862 -1.5866 -0.0796 -0.6667
   93SOL    MW4  420   4.229   0.025   0.817 -0.3242  0.4099  0.0221
   94SOL     OW  421   4.443   2.033   0.605 -0.4452 -0.4832 -0.0351
   94SOL    HW2  422   4.487   2.030   0.689 -0.8137 -0.2402  0.1697
   94SOL    HW3  423   4.394   1.951   0.600 -0.3194 -0.5566 -0.0713
   94SOL    MW4  424   4.442   2.022   0.615 -0.4773 -0.4611 -0.0128
   95SOL     OW  425   2.117   4.277   0.437  0.1615  1.1618  0.1824
   95SOL    HW2  426   2.028   4.248   0.454  0.6035  0.4771  1.3834
   95SOL    HW3  427   2.132   4.346   0.501  0.7106  0.8397  0.4019
   95SOL    MW4  428   2.107   4.282   0.447  0.2925  1.0295  0.3698
   96SOL     OW  429   2.708   2.678   0.824 -0.1192  0.1450 -0.2321
   96SOL    HW2  430   2.687   2.665   0.916  0.7282 -0.0065 -0.0552
   96SOL    HW3  431   2.623   2.689   0.781 -0.5277 -0.0302  0.5261
   96SOL    MW4  432   2.694   2.678   0.830 -0.0613  0.1020 -0.1088
   97SOL     OW  433   0.092   4.332   1.319  0.2518 -0.1024  0.0440
   97SOL    HW2  434   0.066   4.241   1.325  0.8696 -0.2720  0.2665
   97SOL    HW3  435   0.120   4.355   1.408 -1.0694  0.6655  0.2702
   97SOL    MW4  436   0.093   4.323   1.332  0.1590 -0.0238  0.1031
   98SOL     OW  437   1.596   0.030   1.172  0.4500  0.4206  0.0862
   98SOL    HW2  438   1.675   0.077   1.200  0.9606  0.8865 -1.9727
   98SOL    HW3  439   1.596   0.040   1.076 -2.6660  1.3408  0.1115
   98SOL    MW4  440   1.607   0.038   1.163  0.1062  0.6032 -0.1822
   99SOL     OW  441   0.237   1.304   0.303  0.0054  0.0935 -0.4677
   99SOL    HW2  442   0.232   1.226   0.357 -1.2215  0.1240 -0.5087
   99SOL    HW3  443   0.148   1.316   0.270  0.8878 -0.3665 -3.1167
   99SOL    MW4  444   0.224   1.296   0.305 -0.0401  0.0368 -0.8226
  100SOL     OW  445   3.378   0.467   0.481 -0.2655  0.0566  0.3671
  100SOL    HW2  446   3.405   0.461   0.573 -0.8119  0.0431  0.5266
  100SOL    HW3  447   3.459   0.452   0.432  0.3077  1.4856  0.8556
  100SOL    MW4  448   3.392   0.464   0.487 -0.2618  0.2434  0.4526
  101SOL     OW  449   4.018   0.220   0.906 -0.9707  0.1726 -0.2888
  101SOL    HW2  450   3.951   0.170   0.952 -2.0375  0.0802 -1.9038
  101SOL    HW3  451   4.087   0.157   0.886 -0.1552  0.3597  1.7718
  101SOL    MW4  452   4.018   0.205   0.910 -1.0033  0.1851 -0.2300
  102SOL     OW  453   3.602   1.486   0.589 -0.0985 -0.2097  0.1352
  102SOL    HW2  454   3.667   1.425   0.556 -0.1839  0.4765 -1.3203
  102SOL    HW3  455   3.598   1.468   0.683  0.2797 -2.0410 -0.1768
  102SOL    MW4  456   3.610   1.476   0.597 -0.0596 -0.3606 -0.0979
  103SOL     OW  457   0.593   2.945   0.454 -0.4727  0.0526  0.3279
  103SOL    HW2  458   0.658   2.885   0.418 -0.4225 -0.3739  1.1377
  103SOL    HW3  459   0.644   3.012   0.499 -0.5204  0.8173 -0.7195
  103SOL    MW4  460   0.608   2.946   0.455 -0.4724  0.0973  0.2966
  104SOL     OW  461   4.049   1.167   1.153  0.2789  0.1027  0.1095
  104SOL    HW2  462   3.961   1.203   1.166  0.3854  0.2643  0.3697
  104SOL    HW3  463   4.042   1.077   1.186 -0.0410 -0.1897 -0.7241
  104SOL    MW4  464   4.036   1.160   1.159  0.2513  0.0856  0.0339
  105SOL     OW  465   1.415   0.364   0.585 -0.4713 -0.7581  0.1531
  105SOL    HW2  466   1.476   0.371   0.512 -1.8969 -0.9376 -1.0820
  105SOL    HW3  467   1.331   0.343   0.544 -1.2584 -1.0139  1.8606
  105SOL    MW4  468   1.412   0.362   0.570 -0.7633 -0.8155  0.2155
  106SOL     OW  469   3.759   0.034   1.307 -0.1561  0.1886  0.3332
  106SOL    HW2  470   3.699   0.051   1.233 -1.6370 -0.6597  1.3136
  106SOL    HW3  471   3.784  -0.058   1.296  1.0862  0.5791 -0.1437
  106SOL    MW4  472   3.754   0.024   1.296 -0.1879  0.1282  0.3995
  107SOL     OW  473   3.658   0.397   0.875 -0.1533  0.5717 -0.0938
  107SOL    HW2  474   3.578   0.421   0.828  0.2725  4.0734  0.8476
  107SOL    HW3  475   3.634   0.399   0.967  1.1417  2.1500  0.2238
  107SOL    MW4  476   3.645   0.400   0.881  0.0737  1.2420  0.0723
  108SOL     OW  477   2.169   2.381   0.869 -0.1004  0.0659 -0.9438
  108SOL    HW2  478   2.105   2.356   0.935  0.2953 -0.3138 -0.7058
  108SOL    HW3  479   2.120   2.382   0.787 -0.2148 -1.0892 -0.8981
  108SOL    MW4  480   2.154   2.378   0.866 -0.0632 -0.1366 -0.9064
  109SOL     OW  481   2.006   0.277   0.430 -0.0505  0.0194 -0.1037
  109SOL    HW2  482   1.916   0.272   0.398  0.0602  0.6436 -0.5297
  109SOL    HW3  483   2.048   0.199   0.395  0.0043  0.5740 -1.2953
  109SOL    MW4  484   2.000   0.266   0.421 -0.0286  0.1750 -0.3171
  110SOL     OW  485   0.269   3.922   1.213  0.5475  0.1534  0.0118
  110SOL    HW2  486   0.332   3.988   1.239  0.8699 -0.0575 -0.2339
  110SOL    HW3  487   0.185   3.956   1.242  0.7101  0.6830 -0.1385
  110SOL    MW4  488   0.266   3.935   1.220  0.6115  0.1953 -0.0405
  111SOL     OW  489   4.346   1.297   0.631 -0.2064 -0.3936 -0.8692
  111SOL    HW2  490   4.416   1.259   0.684  0.3859  1.2864 -0.3834
  111SOL    HW3  491   4.273   1.307   0.693 -0.1556 -0.2175 -0.8340
  111SOL    MW4  492   4.345   1.293   0.646 -0.1216 -0.1488 -0.8004
  112SOL     OW  493   1.737   0.181   0.305 -0.0390  0.2215  0.1347
  112SOL    HW2  494   1.759   0.102   0.257 -1.4594 -0.0262 -0.1248
  112SOL    HW3  495   1.696   0.149   0.386  0.3821  0.6833  0.5402
  112SOL    MW4  496   1.735   0.166   0.310 -0.1708  0.2497  0.1540
  113SOL     OW  497   3.124   2.724   1.142  0.0309  0.1681 -0.1708
  113SOL    HW2  498   3.033   2.752   1.154 -0.0248  0.5529 -1.3920
  113SOL    HW3  499   3.136   2.721   1.047  0.7604 -1.6651 -0.0431
  113SOL    MW4  500   3.114   2.728   1.131  0.1197 -0.0229 -0.3150
  114SOL     OW  501   0.004   1.974   1.142  0.0397  0.5116  0.2101
  114SOL    HW2  502  -0.077   2.006   1.182  0.0206  1.5401 -0.6270
  114SOL    HW3  503  -0.004   1.879   1.144 -1.1959  0.6044  0.1037
  114SOL    MW4  504  -0.008   1.966   1.148 -0.1259  0.6596  0.0856
  115SOL     OW  505   1.050   2.307   0.875 -0.3098 -0.7918  0.1556
  115SOL    HW2  506   1.047   2.304   0.970  0.6362 -1.7642  0.1631
  115SOL    HW3  507   1.087   2.222   0.849 -1.7590 -1.0490 -1.1322
  115SOL    MW4  508   1.055   2.295   0.884 -0.3762 -0.9539 -0.0133
  116SOL     OW  509   0.586   4.508   0.789  0.2300 -0.0877 -0.0703
  116SOL    HW2  510   0.560   4.431   0.839 -0.0591  0.7597  1.1056
  116SOL    HW3  511   0.677   4.525   0.815 -0.0218  0.5383  0.4252
  116SOL    MW4  512   0.595   4.500   0.799  0.1586  0.1068  0.1502
  117SOL     OW  513   0.782   0.940   0.545 -0.0212 -0.2453 -0.1855
  117SOL    HW2  514   0.803   0.897   0.628 -1.4161  0.1415  0.3777
  117SOL    HW3  515   0.841   0.899   0.481  0.0329 -1.5978  0.7157
  117SOL    MW4  516   0.792   0.929   0.547 -0.1982 -0.3726  0.0077
  118SOL     OW  517   3.213   3.456   0.891 -0.2823  0.1498 -0.3651
  118SOL    HW2  518   3.182   3.454   0.981 -1.3803 -1.7027 -0.7583
  118SOL    HW3  519   3.262   3.374   0.881 -0.8039 -0.0141 -1.6514
  118SOL    MW4  520   3.215   3.445   0.901 -0.4959 -0.1163 -0.5867
  119SOL     OW  521   0.910   0.366   0.570  0.2598 -0.0941  0.2526
  119SOL    HW2  522   0.959   0.354   0.652 -0.7578 -0.7052  0.7781
  119SOL    HW3  523   0.838   0.303   0.576 -0.2468  0.3849 -0.7870
  119SOL    MW4  524   0.907   0.356   0.582  0.0587 -0.1116  0.1848
  120SOL     OW  525   1.985   3.146   0.862  0.4844  0.1528  0.0886
  120SOL    HW2  526   2.003   3.143   0.956 -0.1547  1.4031  0.2662
  120SOL    HW3  527   1.925   3.072   0.847 -0.1916  0.5415  0.8486
  120SOL    MW4  528   1.979   3.136   0.872  0.3108  0.3691  0.2124
  121SOL     OW  529   4.065   2.168   0.701 -0.3154 -0.1085 -0.0057
  121SOL    HW2  530   4.064   2.085   0.748 -2.2879 -0.0767  0.0538
  121SOL    HW3  531   4.009   2.154   0.624  0.1909  0.8423 -0.5729
  121SOL    MW4  532   4.057   2.155   0.697 -0.5093  0.0212 -0.0727
  122SOL     OW  533   2.998   0.221   0.441 -0.4711 -0.4464 -0.1247
  122SOL    HW2  534   2.968   0.308   0.467 -0.0344 -0.2932 -0.1361
  122SOL    HW3  535   3.093   0.229   0.435 -0.4396 -0.8966 -0.2294
  122SOL    MW4  536   3.006   0.233   0.443 -0.4089 -0.4856 -0.1400
  123SOL     OW  537   1.320   3.803   0.520  0.1224  0.0476  0.5559
  123SOL    HW2  538   1.228   3.782   0.504  0.1763 -1.9785  2.5687
  123SOL    HW3  539   1.366   3.721   0.503  1.8377  1.5114 -2.2093
  123SOL    MW4  540   1.314   3.789   0.516  0.3557 -0.0265  0.4566
  124SOL     OW  541   3.412   0.450   0.768  0.1624  0.3077  0.5266
  124SOL    HW2  542   3.328   0.415   0.797  0.7134 -0.0833  1.7016
  124SOL    HW3  543   3.419   0.535   0.811  0.3307  0.3743  0.3713
  124SOL    MW4  544   3.402   0.456   0.777  0.2573  0.2649  0.6612
  125SOL     OW  545   3.091   2.449   0.661 -0.3478  0.5836 -0.3218
  125SOL    HW2  546   3.153   2.473   0.593 -1.7511  0.7343 -1.5719
  125SOL    HW3  547   3.081   2.354   0.653 -0.5412  0.6059 -0.3612
  125SOL    MW4  548   3.098   2.440   0.651 -0.5581  0.6063 -0.4920
  126SOL     OW  549   2.989   1.602   0.882  0.6209  0.0612  0.1409
  126SOL    HW2  550   2.986   1.696   0.868  0.2675  0.1777  0.9834
  126SOL    HW3  551   2.968   1.590   0.974  2.6614 -0.7155  0.5267
  126SOL    MW4  552   2.985   1.613   0.892  0.8435 -0.0259  0.3030
  127SOL     OW  553   1.158   4.190   0.789  0.3518 -0.0263 -0.1861
  127SOL    HW2  554   1.139   4.120   0.852  0.5563  0.9888  1.0370
  127SOL    HW3  555   1.075   4.238   0.782  0.7228  0.7080  0.4051
  127SOL    MW4  556   1.144   4.187   0.796  0.4277  0.2046  0.0532
  128SOL     OW  557   4.460   3.814   0.831  0.2342  0.5293 -0.2058
  128SOL    HW2  558   4.403   3.879   0.870 -0.6669  0.1251 -0.8354
  128SOL    HW3  559   4.545   3.827   0.874 -0.0952  1.7082  0.0957
  128SOL    MW4  560   4.464   3.824   0.842  0.0719  0.6316 -0.2491
  129SOL     OW  561   2.341   2.336   0.521  0.0416 -0.2265 -0.0215
  129SOL    HW2  562   2.252   2.325   0.554 -0.7040 -0.1239 -1.9886
  129SOL    HW3  563   2.342   2.423   0.483  0.4422 -0.9387 -1.6670
  129SOL    MW4  564   2.330   2.346   0.521 -0.0038 -0.3071 -0.4982
  130SOL     OW  565   0.618   2.064   0.376  0.0887  0.2692 -0.2867
  130SOL    HW2  566   0.545   2.062   0.439 -0.9281 -0.5195 -1.4624
  130SOL    HW3  567   0.680   2.126   0.413 -0.1083 -0.8013  1.9247
  130SOL    MW4  568   0.616   2.072   0.389 -0.0714  0.0238 -0.1500
  131SOL     OW  569   4.308   1.598   0.820 -0.6914 -0.2792  0.6561
  131SOL    HW2  570   4.401   1.584   0.838 -0.9706 -0.5604  1.8962
  131SOL    HW3  571   4.302   1.691   0.795  0.1325 -0.6228 -0.9328
  131SOL    MW4  572   4.319   1.609   0.819 -0.6194 -0.3617  0.6101
  132SOL     OW  573   0.019   0.107   0.745  0.0581 -0.5658 -0.7455
  132SOL    HW2  574  -0.071   0.113   0.777  0.5745  2.0403  0.3896
  132SOL    HW3  575   0.070   0.161   0.806  1.8911  0.4599 -3.0842
  132SOL    MW4  576   0.014   0.115   0.758  0.3680 -0.0866 -0.9043
  133SOL     OW  577   2.599   1.646   0.728  0.0451  0.4172  0.4399
  133SOL    HW2  578   2.583   1.602   0.812  1.3213 -2.4677 -0.7596
  133SOL    HW3  579   2.694   1.655   0.724 -0.0350  0.8104 -0.5715
  133SOL    MW4  580   2.610   1.641   0.739  0.2029  0.0885  0.1481
  134SOL     OW  581   2.649   1.295   0.414  0.2621 -0.3610 -0.1728
  134SOL    HW2  582   2.592   1.326   0.485  1.4462  0.8873  0.2477
  134SOL    HW3  583   2.679   1.375   0.371  0.2521 -1.0824 -1.5335
  134SOL    MW4  584   2.645   1.310   0.418  0.4170 -0.2915 -0.2969
  135SOL     OW  585   1.087   2.861   0.510  0.0406 -0.0395 -0.1461
  135SOL    HW2  586   1.120   2.816   0.588  2.0194  0.8299 -0.4558
  135SOL    HW3  587   1.011   2.809   0.483 -0.3753 -0.6096  2.0813
  135SOL    MW4  588   1.081   2.848   0.517  0.2468 -0.0002  0.1069
  136SOL     OW  589   2.127   1.252   0.492  0.4983  0.0587  0.7114
  136SOL    HW2  590   2.153   1.343   0.507 -0.1399  0.0036  2.2277
  136SOL    HW3  591   2.195   1.217   0.433  0.1316  1.8146 -0.7987
  136SOL    MW4  592   2.140   1.259   0.486  0.3655  0.2831  0.7122
  137SOL     OW  593   1.847   2.210   0.637 -0.3755 -0.2606  0.2605
  137SOL    HW2  594   1.769   2.264   0.646 -1.0371 -1.3742  1.3471
  137SOL    HW3  595   1.853   2.162   0.720  1.0639 -0.6957 -0.0841
  137SOL    MW4  596   1.837   2.210   0.649 -0.2730 -0.4652  0.3583
  138SOL     OW  597   1.111   0.037   0.878  0.0085 -0.2774  0.3682
  138SOL    HW2  598   1.121   0.042   0.973  0.0601  0.9364  0.3094
  138SOL    HW3  599   1.027  -0.006   0.864 -0.0161 -0.4218  0.9688
  138SOL    MW4  600   1.101   0.032   0.888  0.0122 -0.1363  0.4396
  139SOL     OW  601   0.637   3.924   1.248 -0.2671  0.4902  0.0555
  139SOL    HW2  602   0.662   3.834   1.267  2.7994  1.3213  0.2514
  139SOL    HW3  603   0.602   3.922   1.159  2.3720 -0.4674 -1.0035
  139SOL    MW4  604   0.635   3.912   1.239  0.4857  0.4737 -0.0583
  140SOL     OW  605   2.005   2.678   0.678 -0.2705  0.1635 -0.3107
  140SOL    HW2  606   2.025   2.751   0.618 -0.1505 -0.5154 -1.1050
  140SOL    HW3  607   2.084   2.668   0.731 -0.9685  1.8364  1.0910
  140SOL    MW4  608   2.018   2.687   0.677 -0.3469  0.2944 -0.2306
  141SOL     OW  609   4.052   1.959   1.119 -0.4415  0.5384 -0.1799
  141SOL    HW2  610   3.973   2.007   1.144 -1.1585 -0.3570 -0.6961
  141SOL    HW3  611   4.037   1.870   1.149  1.6409  0.9712  2.3929
  141SOL    MW4  612   4.040   1.954   1.126 -0.2613  0.4772  0.0916
  142SOL     OW  613   3.716   2.711   0.361  0.2791 -0.2726 -0.0612
  142SOL    HW2  614   3.631   2.753   0.368  0.4116 -0.3977  3.9185
  142SOL    HW3  615   3.779   2.779   0.385  0.9581 -1.1581  0.7460
  142SOL    MW4  616   3.713   2.725   0.365  0.3860 -0.4060  0.5704
  143SOL     OW  617   3.933   3.961   0.334  0.3297  0.2693  0.0102
  143SOL    HW2  618   4.005   3.898   0.339 -0.7200 -0.9165  0.4107
  143SOL    HW3  619   3.906   3.975   0.424  1.0337  1.8885 -0.0040
  143SOL    MW4  620   3.939   3.955   0.346  0.2840  0.3266  0.0612
  144SOL     OW  621   0.449   4.588   0.497 -0.1841  0.2568 -0.1364
  144SOL    HW2  622   0.532   4.541   0.508  0.0478  0.6541 -0.1647
  144SOL    HW3  623   0.383   4.519   0.493  0.3515 -0.1783 -2.1894
  144SOL    MW4  624   0.452   4.573   0.498 -0.0829  0.2513 -0.4110
  145SOL     OW  625   4.261   1.825   0.653  0.0165  0.1042 -0.3186
  145SOL    HW2  626   4.203   1.886   0.700  0.6948  0.2790  0.3137
  145SOL    HW3  627   4.209   1.794   0.579  0.0934  2.4597 -1.4068
  145SOL    MW4  628   4.247   1.829   0.650  0.1159  0.4381 -0.3787
  146SOL     OW  629   2.378   4.153   0.474  0.2008  0.4923 -0.3421
  146SOL    HW2  630   2.302   4.202   0.444  0.4098 -0.2932 -2.2472
  146SOL    HW3  631   2.378   4.074   0.420  1.9215  0.1100  0.1839
  146SOL    MW4  632   2.368   4.149   0.463  0.4554  0.3376 -0.5240
  147SOL     OW  633   1.464   0.868   0.523 -0.1062  0.5136 -0.0356
  147SOL    HW2  634   1.493   0.959   0.525  0.5093  0.3198 -0.0509
  147SOL    HW3  635   1.368   0.873   0.527 -0.0118  1.0738  2.4579
  147SOL    MW4  636   1.455   0.881   0.524 -0.0126  0.5619  0.2914
  148SOL     OW  637   3.278   4.275   0.460  0.0197  0.2428  0.2688
  148SOL    HW2  638   3.268   4.308   0.549 -0.1290  0.3573  0.2104
  148SOL    HW3  639   3.251   4.349   0.405  2.2610  0.9721  0.0824
  148SOL    MW4  640   3.273   4.289   0.465  0.2959  0.3543  0.2365
  149SOL     OW  641   1.371   4.590   0.848  0.2006 -0.0197  0.0746
  149SOL    HW2  642   1.357   4.497   0.865  0.4364  0.2874  2.0226
  149SOL    HW3  643   1.285   4.630   0.858  0.0603 -0.0326 -0.9591
  149SOL    MW4  644   1.358   4.583   0.851  0.2133  0.0191  0.1953
  150SOL     OW  645   0.938   1.887   0.887  0.0065 -0.2905  0.0472
  150SOL    HW2  646   0.938   1.792   0.894  0.4934 -0.3645 -0.7970
  150SOL    HW3  647   0.863   1.907   0.831 -0.0396 -0.1825  0.1465
  150SOL    MW4  648   0.928   1.877   0.880  0.0646 -0.2860 -0.0510
  151SOL     OW  649   2.109   3.839   0.621  0.2044 -0.0369  0.2132
  151SOL    HW2  650   2.052   3.868   0.693  2.0583  0.5880  1.4643
  151SOL    HW3  651   2.107   3.743   0.627  1.0536  0.0220  1.6865
  151SOL    MW4  652   2.101   3.830   0.631  0.5612  0.0534  0.5726
  152SOL     OW  653   0.104   2.793   0.722  0.1269 -0.4538  0.3984
  152SOL    HW2  654   0.065   2.871   0.684 -0.5580  0.2122  2.4110
  152SOL    HW3  655   0.032   2.751   0.770  0.7881 -1.6660  0.3635
  152SOL    MW4  656   0.090   2.797   0.724  0.1238 -0.5257  0.6593
  153SOL     OW  657   1.613   0.004   0.902 -0.1415  0.1465 -0.3247
  153SOL    HW2  658   1.521  -0.022   0.909  0.1697 -1.1532 -0.7743
  153SOL    HW3  659   1.612   0.083   0.848 -1.0251  0.3684  0.0123
  153SOL    MW4  660   1.601   0.011   0.896 -0.2170  0.0043 -0.3396
  154SOL     OW  661   3.415   3.601   0.771  0.0281  0.0077  0.1702
  154SOL    HW2  662   3.383   3.653   0.697 -0.0127 -1.1282 -0.6266
  154SOL    HW3  663   3.336   3.557   0.804  0.2992 -0.6673 -0.0735
  154SOL    MW4  664   3.400   3.602   0.766  0.0584 -0.2310  0.0329
  155SOL     OW  665   1.028   3.131   0.458 -0.3186  0.2335 -0.0329
  155SOL    HW2  666   1.040   3.036   0.467 -0.9008  0.2753  1.2885
  155SOL    HW3  667   0.936   3.145   0.480 -0.0855  1.1825  0.3317
  155SOL    MW4  668   1.018   3.120   0.462 -0.3645  0.3641  0.1895
  156SOL     OW  669   1.140   1.450   0.913  0.0095 -0.1496  0.4283
  156SOL    HW2  670   1.224   1.472   0.873  0.0913  0.5901  1.0066
  156SOL    HW3  671   1.076   1.502   0.865  0.1865  1.2698  1.6976
  156SOL    MW4  672   1.143   1.459   0.901  0.0436  0.1353  0.6720
  157SOL     OW  673   3.598   1.430   0.860 -0.3358 -0.0520 -0.3227
  157SOL    HW2  674   3.686   1.456   0.886 -0.8624  0.5160  0.9242
  157SOL    HW3  675   3.540   1.482   0.915 -1.4531 -0.5492 -1.0120
  157SOL    MW4  676   3.602   1.440   0.871 -0.5527 -0.0427 -0.2491
  158SOL     OW  677   0.345   2.857   0.862  0.1160 -0.0605 -0.3110
  158SOL    HW2  678   0.405   2.812   0.803  0.0075 -1.1941  0.4306
  158SOL    HW3  679   0.258   2.825   0.837  0.1378 -1.1427  0.9763
  158SOL    MW4  680   0.342   2.847   0.851  0.1045 -0.3526 -0.0433
  159SOL     OW  681   0.274   3.347   0.880  0.1017  0.0495 -0.0838
  159SOL    HW2  682   0.322   3.272   0.845  0.5251  0.4211 -0.2902
  159SOL    HW3  683   0.240   3.392   0.802  0.3472  0.4093  0.0180
  159SOL    MW4  684   0.276   3.343   0.865  0.1899  0.1457 -0.0975
  160SOL     OW  685   0.580   3.932   0.978 -0.0429  0.2539 -0.1914
  160SOL    HW2  686   0.664   3.901   0.946  1.5927  2.5065  1.7830
  160SOL    HW3  687   0.572   4.021   0.943 -1.8686 -0.1429 -0.8325
  160SOL    MW4  688   0.590   3.940   0.969 -0.0679  0.4985 -0.0156
  161SOL     OW  689   1.846   3.346   0.579  0.2511  0.0648  0.7688
  161SOL    HW2  690   1.851   3.254   0.554 -0.0840  0.4139 -0.6476
  161SOL    HW3  691   1.846   3.346   0.675  0.4125 -1.3911  0.7693
  161SOL    MW4  692   1.847   3.334   0.588  0.2282 -0.0811  0.5820
  162SOL     OW  693   3.527   3.030   0.742  0.2323  0.0735 -0.4429
  162SOL    HW2  694   3.622   3.035   0.748  0.3915 -1.7027 -1.2214
  162SOL    HW3  695   3.505   2.943   0.777 -1.2319  0.9981  1.0265
  162SOL    MW4  696   3.537   3.019   0.747  0.0601 -0.0386 -0.3517
  163SOL     OW  697   2.885   1.133   0.558 -0.3449  0.4096  0.0715
  163SOL    HW2  698   2.857   1.100   0.643 -0.4514 -1.7887 -0.7837
  163SOL    HW3  699   2.816   1.193   0.531  0.3898  2.2678  2.1567
  163SOL    MW4  700   2.872   1.137   0.566 -0.2620  0.3648  0.2338
  164SOL     OW  701   3.847   4.283   0.762 -0.2483 -0.7082  0.3711
  164SOL    HW2  702   3.904   4.333   0.704 -1.3999  1.5803  1.1666
  164SOL    HW3  703   3.758   4.308   0.736 -0.8103 -1.4168  1.5894
  164SOL    MW4  704   3.843   4.293   0.751 -0.4745 -0.4997  0.6368
  165SOL     OW  705   2.248   1.665   1.261 -0.5976 -0.1202 -0.5143
  165SOL    HW2  706   2.158   1.637   1.246 -0.9233  0.7507 -0.2482
  165SOL    HW3  707   2.245   1.760   1.247  0.2991 -0.1071 -0.6047
  165SOL    MW4  708   2.236   1.674   1.257 -0.5224 -0.0035 -0.4913
  166SOL     OW  709   4.310   0.616   0.432 -1.0325  0.8448  0.4274
  166SOL    HW2  710   4.399   0.642   0.407 -0.1006 -1.1733  1.5176
  166SOL    HW3  711   4.302   0.526   0.401 -1.6625  0.0284  2.8231
  166SOL    MW4  712   4.321   0.607   0.425 -0.9928  0.4708  0.8873
  167SOL     OW  713   0.078   2.720   1.072 -0.3132  0.1767  0.0971
  167SOL    HW2  714   0.164   2.699   1.110 -0.0697  1.6612  0.3782
  167SOL    HW3  715   0.019   2.656   1.112  1.0589 -2.4299 -1.9107
  167SOL    MW4  716   0.082   2.709   1.083 -0.1000  0.0286 -0.1308
  168SOL     OW  717   1.362   1.890   0.900 -0.1290  0.0131  0.5157
  168SOL    HW2  718   1.353   1.887   0.995 -2.5561 -0.3585  0.3244
  168SOL    HW3  719   1.285   1.940   0.871 -0.0218 -0.8325 -1.3013
  168SOL    MW4  720   1.350   1.896   0.909 -0.4350 -0.1475  0.2508
  169SOL     OW  721   0.141   0.432   0.592 -0.0252 -0.5544  0.5507
  169SOL    HW2  722   0.123   0.519   0.559  1.4926 -0.0587  0.9950
  169SOL    HW3  723   0.153   0.378   0.514 -1.0587 -0.3912  0.2787
  169SOL    MW4  724   0.141   0.436   0.578  0.0387 -0.4674  0.5735
  170SOL     OW  725   0.426   0.914   1.273  0.0757 -0.2834  0.0196
  170SOL    HW2  726   0.394   0.898   1.362 -0.5047 -0.1607 -0.1637
  170SOL    HW3  727   0.366   0.866   1.217  0.4130 -0.3169 -0.3117
  170SOL    MW4  728   0.414   0.906   1.278  0.0436 -0.2716 -0.0482
  171SOL     OW  729   2.508   1.914   0.751  0.4215 -0.1536 -0.0638
  171SOL    HW2  730   2.571   1.944   0.817  0.1374 -0.4896  0.3666
  171SOL    HW3  731   2.539   1.827   0.726  1.2531  0.5011 -1.3216
  171SOL    MW4  732   2.520   1.907   0.757  0.4938 -0.1116 -0.1730
  172SOL     OW  733   0.323   1.141   0.795  0.2177  0.2320 -0.0245
  172SOL    HW2  734   0.396   1.115   0.852  0.6637 -0.2422 -0.8125
  172SOL    HW3  735   0.326   1.237   0.795  1.3221  0.2087 -0.6587
  172SOL    MW4  736   0.333   1.151   0.803  0.4223  0.1664 -0.2122
  173SOL     OW  737   2.452   2.673   0.698  0.0953  0.4086 -0.3172
  173SOL    HW2  738   2.434   2.764   0.674  1.1218  0.3797 -1.2133
  173SOL    HW3  739   2.442   2.624   0.617 -1.3559 -0.4271  0.3445
  173SOL    MW4  740   2.449   2.679   0.685  0.0393  0.2944 -0.3482
  174SOL     OW  741   4.448   0.895   0.761 -1.0351  0.7696 -0.1527
  174SOL    HW2  742   4.458   0.975   0.811  1.1584  0.1482  0.4284
  174SOL    HW3  743   4.363   0.860   0.789 -0.5663  1.2529  1.9385
  174SOL    MW4  744   4.438   0.901   0.771 -0.6833  0.7514  0.1999
  175SOL     OW  745   2.008   3.164   1.135 -0.1473  0.2328  0.4880
  175SOL    HW2  746   2.072   3.204   1.194  0.7584  1.2500 -1.1251
  175SOL    HW3  747   1.923   3.191   1.169  0.3399  0.4723  1.5346
  175SOL    MW4  748   2.006   3.173   1.147  0.0362  0.3984  0.4133
  176SOL     OW  749   3.412   2.258   0.827  0.1449 -0.7251 -0.1065
  176SOL    HW2  750   3.342   2.205   0.791 -0.3670 -0.5893  0.6688
  176SOL    HW3  751   3.392   2.263   0.921  0.5828  0.2200 -0.0568
  176SOL    MW4  752   3.400   2.252   0.835  0.1354 -0.5825  0.0024
  177SOL     OW  753   2.445   2.934   0.595  0.0342 -0.0853 -0.6145
  177SOL    HW2  754   2.461   3.029   0.599  0.5199 -0.1852 -0.0798
  177SOL    HW3  755   2.398   2.921   0.513  0.0004  0.6165 -0.7120
  177SOL    MW4  756   2.441   2.945   0.585  0.0939 -0.0060 -0.5568
  178SOL     OW  757   3.784   2.019   1.238 -0.0683 -0.2754  0.1374
  178SOL    HW2  758   3.803   2.107   1.204  0.1120  0.0544  1.0594
  178SOL    HW3  759   3.795   2.028   1.333  0.0871 -1.3328  0.2212
  178SOL    MW4  760   3.788   2.032   1.246 -0.0241 -0.3715  0.2700
  179SOL     OW  761   2.926   1.541   1.172 -0.3620 -0.5824  0.5104
  179SOL    HW2  762   2.997   1.581   1.222  0.9689 -1.4600 -0.6526
  179SOL    HW3  763   2.929   1.448   1.195 -1.3125 -0.5839  0.6609
  179SOL    MW4  764   2.936   1.534   1.182 -0.3121 -0.6986  0.3768
  180SOL     OW  765   0.071   3.742   0.405  0.3036 -0.3908 -0.4284
  180SOL    HW2  766   0.014   3.679   0.362 -0.8565  0.4858 -0.2012
  180SOL    HW3  767   0.148   3.690   0.432  0.6107 -1.1402 -2.6235
  180SOL    MW4  768   0.074   3.727   0.403  0.1910 -0.3741 -0.6880
  181SOL     OW  769   4.033   0.942   0.675 -0.2108 -0.3065 -0.7613
  181SOL    HW2  770   4.060   1.016   0.730  0.3804 -0.5925 -0.6597
  181SOL    HW3  771   3.963   0.899   0.725  0.4597 -0.6836 -0.1353
  181SOL    MW4  772   4.027   0.946   0.689 -0.0443 -0.3940 -0.6653
  182SOL     OW  773   3.842   1.697   0.229  0.1214 -0.1204  0.3890
  182SOL    HW2  774   3.831   1.602   0.227  2.0001 -0.3668  0.5968
  182SOL    HW3  775   3.797   1.726   0.309  1.5433 -1.1327  1.5782
  182SOL    MW4  776   3.835   1.689   0.239  0.5567 -0.2866  0.5733
  183SOL     OW  777   3.404   0.734   0.560  0.1453  0.2464  0.0634
  183SOL    HW2  778   3.323   0.742   0.611  0.0439  0.7429 -0.1751
  183SOL    HW3  779   3.395   0.650   0.514 -0.1518  0.2168  0.1746
  183SOL    MW4  780   3.392   0.724   0.561  0.0927  0.3080  0.0467
  184SOL     OW  781   4.408   4.266   0.284 -0.0353 -0.1414  0.4323
  184SOL    HW2  782   4.364   4.196   0.332 -1.0091  0.6421  0.7040
  184SOL    HW3  783   4.418   4.232   0.195 -1.7946 -0.0863  0.1942
  184SOL    MW4  784   4.403   4.252   0.278 -0.3953 -0.0305  0.4367
  185SOL     OW  785   0.158   2.312   0.921 -0.1965  0.1944  0.0703
  185SOL    HW2  786   0.236   2.310   0.866  0.9742 -2.8284  1.6920
  185SOL    HW3  787   0.192   2.319   1.011 -1.6953 -1.8424  0.8410
  185SOL    MW4  788   0.173   2.313   0.926 -0.2398 -0.4733  0.3859
  186SOL     OW  789   2.858   1.865   0.713  0.1000  0.0689 -0.0468
  186SOL    HW2  790   2.797   1.909   0.773  0.6446 -0.3426  0.8211
  186SOL    HW3  791   2.944   1.889   0.746  0.4378  1.3755 -1.7979
  186SOL    MW4  792   2.861   1.874   0.725  0.2165  0.1870 -0.1634
  187SOL     OW  793   2.051   4.350   1.284 -0.2170 -0.6007  0.0566
  187SOL    HW2  794   1.979   4.308   1.236  0.2320 -1.1670 -0.1272
  187SOL    HW3  795   2.018   4.358   1.373 -0.5496 -0.7718 -0.0471
  187SOL    MW4  796   2.037   4.345   1.289 -0.2017 -0.6976  0.0186
  188SOL     OW  797   1.713   3.900   0.528 -0.2987  0.5918 -0.2476
  188SOL    HW2  798   1.706   3.837   0.456 -0.2427  1.7479 -1.2857
  188SOL    HW3  799   1.628   3.944   0.530 -0.2114  0.7353  0.2254
  188SOL    MW4  800   1.701   3.898   0.519 -0.2799  0.7632 -0.3222
  189SOL     OW  801   4.051   1.164   0.856  0.1907 -0.7341 -0.5580
  189SOL    HW2  802   4.092   1.247   0.831  2.1189 -1.9668 -1.5853
  189SOL    HW3  803   4.062   1.160   0.951  1.4462 -0.5269 -0.6931
  189SOL    MW4  804   4.058   1.174   0.866  0.6108 -0.8693 -0.7114
  190SOL     OW  805   1.612   0.226   0.729 -0.5154  0.4466  0.6601
  190SOL    HW2  806   1.635   0.162   0.662  0.1023  1.0531  0.2787
  190SOL    HW3  807   1.542   0.278   0.690  0.5747  1.4863  0.0505
  190SOL    MW4  808   1.606   0.225   0.715 -0.2900  0.6638  0.5293
  191SOL     OW  809   3.195   1.419   0.798 -0.5312  0.4575  0.0076
  191SOL    HW2  810   3.194   1.337   0.848 -0.0827  0.6272  0.2958
  191SOL    HW3  811   3.123   1.470   0.836 -0.2163  0.5711  0.4583
  191SOL    MW4  812   3.185   1.415   0.810 -0.4306  0.4948  0.1051
  192SOL     OW  813   3.163   1.443   0.515 -0.3230 -0.3509  0.1146
  192SOL    HW2  814   3.225   1.376   0.487 -0.0074  0.5001 -1.2686
  192SOL    HW3  815   3.160   1.435   0.610  2.1058 -0.2202  0.2302
  192SOL    MW4  816   3.171   1.433   0.524  0.0391 -0.2213 -0.0526
  193SOL     OW  817   4.102   3.466   1.141  0.1949  0.0116 -0.2885
  193SOL    HW2  818   4.098   3.506   1.054  1.3788 -1.5494 -1.0921
  193SOL    HW3  819   4.034   3.510   1.192 -1.9522 -0.5007 -2.6241
  193SOL    MW4  820   4.092   3.477   1.136  0.0682 -0.2623 -0.7026
  194SOL     OW  821   4.297   2.280   0.639  0.2616 -0.1929  0.3456
  194SOL    HW2  822   4.212   2.245   0.666  0.1120  0.4790  0.7728
  194SOL    HW3  823   4.348   2.203   0.614 -1.0608 -0.4562 -1.6311
  194SOL    MW4  824   4.293   2.265   0.640  0.0672 -0.1388  0.1411
  195SOL     OW  825   3.870   3.351   0.570  0.1725 -0.1701  0.0880
  195SOL    HW2  826   3.945   3.385   0.619  0.3994  0.9793 -1.0189
  195SOL    HW3  827   3.795   3.399   0.606  0.3228  0.5828 -0.5822
  195SOL    MW4  828   3.870   3.362   0.581  0.2222  0.0808 -0.1464
  196SOL     OW  829   2.300   1.989   0.920  0.2010 -0.2738 -0.2239
  196SOL    HW2  830   2.373   1.947   0.876  0.8538 -1.5148  1.9637
  196SOL    HW3  831   2.328   2.080   0.934  2.0498 -1.1909  2.1647
  196SOL    MW4  832   2.313   1.996   0.916  0.5310 -0.5586  0.3799
  197SOL     OW  833   1.332   3.524   0.901 -0.1072 -0.3973 -0.1964
  197SOL    HW2  834   1.322   3.613   0.867 -0.8426 -0.2939  0.2754
  197SOL    HW3  835   1.380   3.478   0.832  1.2399  0.6349  0.0289
  197SOL    MW4  836   1.337   3.530   0.887 -0.0265 -0.2475 -0.1044
  198SOL     OW  837   3.410   0.727   0.893  0.1086  0.0722  0.2626
  198SOL    HW2  838   3.475   0.791   0.864  0.0902  0.5890  1.3126
  198SOL    HW3  839   3.327   0.758   0.857  0.2369  0.1474  0.0291
  198SOL    MW4  840   3.408   0.739   0.885  0.1228  0.1504  0.3703
  199SOL     OW  841   4.278   4.218   0.908  0.3154  0.0943 -0.6261
  199SOL    HW2  842   4.277   4.240   0.814  0.8882 -1.1283 -0.9250
  199SOL    HW3  843   4.264   4.302   0.952 -0.0094  0.6766 -1.8056
  199SOL    MW4  844   4.276   4.232   0.901  0.3476  0.0100 -0.8211
  200SOL     OW  845   4.221   3.810   0.602  0.0021  0.1271 -0.3289
  200SOL    HW2  846   4.187   3.812   0.692  2.6169  0.5967  0.6879
  200SOL    HW3  847   4.308   3.847   0.609  0.7343 -1.0335 -2.8863
  200SOL    MW4  848   4.228   3.815   0.615  0.4435  0.0360 -0.5322
  201SOL     OW  849   1.565   2.046   1.301  0.3361 -0.9982  0.4728
  201SOL    HW2  850   1.641   2.027   1.248  1.1443 -0.4199  1.4020
  201SOL    HW3  851   1.493   1.997   1.260  0.4758  1.0727 -2.3758
  201SOL    MW4  852   1.565   2.037   1.289  0.4612 -0.6485  0.2198
  202SOL     OW  853   1.069   2.075   0.546  0.0701  0.1118 -0.2660
  202SOL    HW2  854   1.127   2.150   0.530 -0.7311  0.4363 -1.7856
  202SOL    HW3  855   0.981   2.111   0.541 -0.2941 -0.4512  1.6790
  202SOL    MW4  856   1.065   2.090   0.543 -0.0836  0.0801 -0.2099
  203SOL     OW  857   4.071   0.381   0.669  0.0313  0.0974  0.1285
  203SOL    HW2  858   4.060   0.302   0.722 -0.1543  0.5833  0.8044
  203SOL    HW3  859   3.997   0.437   0.692  1.0945  1.2004  0.9105
  203SOL    MW4  860   4.060   0.378   0.679  0.1473  0.3071  0.3209
  204SOL     OW  861   1.113   2.541   0.573  0.1275  0.2444 -0.0590
  204SOL    HW2  862   1.144   2.451   0.571 -0.4649  0.0505 -0.6481
  204SOL    HW3  863   1.131   2.575   0.485 -1.8680 -0.0693 -0.6276
  204SOL    MW4  864   1.119   2.534   0.561 -0.2140  0.1774 -0.2118
  205SOL     OW  865   3.909   2.030   0.494  0.3251  0.1087 -0.1030
  205SOL    HW2  866   3.861   2.108   0.466 -0.1175 -0.7521 -1.7863
  205SOL    HW3  867   3.962   2.005   0.419 -0.2350 -1.7512  0.0835
  205SOL    MW4  868   3.909   2.037   0.481  0.1929 -0.2503 -0.3004
  206SOL     OW  869   0.881   1.870   1.161 -0.4350  0.0434  0.0228
  206SOL    HW2  870   0.950   1.920   1.205 -0.3654 -0.8302  0.9503
  206SOL    HW3  871   0.889   1.893   1.069 -0.0112  1.2587  0.3511
  206SOL    MW4  872   0.891   1.879   1.155 -0.3698  0.0886  0.1885
  207SOL     OW  873   0.298   4.125   0.843 -0.1888  0.4322  0.6038
  207SOL    HW2  874   0.283   4.038   0.881 -1.6722 -0.3052 -1.5855
  207SOL    HW3  875   0.222   4.176   0.869 -0.4633  0.3784 -0.1009
  207SOL    MW4  876   0.286   4.120   0.851 -0.4207  0.3276  0.2220
  208SOL     OW  877   4.431   1.359   0.276 -0.2428 -0.1487  0.2790
  208SOL    HW2  878   4.412   1.412   0.354  0.4190  0.3951  0.0728
  208SOL    HW3  879   4.380   1.280   0.289 -2.9283  1.4264 -0.4484
  208SOL    MW4  880   4.422   1.356   0.288 -0.5102  0.1310  0.1558
  209SOL     OW  881   3.524   4.178   0.906  0.1515  0.1114 -0.5248
  209SOL    HW2  882   3.429   4.176   0.913  0.0233 -1.4545 -2.1986
  209SOL    HW3  883   3.542   4.244   0.839  0.1826 -0.0187 -0.6472
  209SOL    MW4  884   3.514   4.186   0.898  0.1390 -0.1125 -0.7618
  210SOL     OW  885   2.690   1.964   1.175 -0.0226 -0.4843  0.6655
  210SOL    HW2  886   2.782   1.989   1.186 -0.1674  0.3143  0.1398
  210SOL    HW3  887   2.685   1.876   1.210  1.2004 -0.9726 -0.3193
  210SOL    MW4  888   2.701   1.956   1.181  0.1199 -0.4433  0.4661
  211SOL     OW  889   2.728   2.965   0.543 -0.0160 -0.5761  0.1472
  211SOL    HW2  890   2.788   2.933   0.611 -0.7991 -1.0706  0.6165
  211SOL    HW3  891   2.641   2.941   0.576 -0.5849  1.5947  0.2625
  211SOL    MW4  892   2.724   2.957   0.557 -0.1945 -0.3550  0.2244
  212SOL     OW  893   3.312   3.994   0.514 -0.6007  0.1836  0.1934
  212SOL    HW2  894   3.406   4.013   0.515 -0.6857  0.6266 -0.1491
  212SOL    HW3  895   3.271   4.077   0.489 -1.1885  0.4133  1.9073
  212SOL    MW4  896   3.319   4.007   0.511 -0.6893  0.2723  0.3744
  213SOL     OW  897   3.028   3.624   0.542 -0.0985  0.1423  0.1508
  213SOL    HW2  898   3.038   3.537   0.503 -1.1802 -0.2890  0.8155
  213SOL    HW3  899   3.117   3.657   0.549  0.3537 -1.0624  0.2146
  213SOL    MW4  900   3.041   3.617   0.538 -0.1817 -0.0737  0.2469
  214SOL     OW  901   0.297   3.563   0.462 -0.1585  0.4305 -0.2561
  214SOL    HW2  902   0.336   3.632   0.515 -0.6841 -0.1412  0.8839
  214SOL    HW3  903   0.236   3.518   0.521 -0.4708 -0.4508 -1.2293
  214SOL    MW4  904   0.294   3.566   0.477 -0.2691  0.2387 -0.2341
  215SOL     OW  905   3.804   1.287   0.533  0.7700  0.0988  0.4685
  215SOL    HW2  906   3.881   1.244   0.497  1.6538  0.8563  1.3977
  215SOL    HW3  907   3.791   1.246   0.619 -0.4186 -0.6710 -0.0810
  215SOL    MW4  908   3.813   1.276   0.540  0.7300  0.0973  0.5187
  216SOL     OW  909   1.137   0.064   1.164 -0.2093  0.4406 -0.0477
  216SOL    HW2  910   1.049   0.087   1.194 -1.0350 -1.4883 -0.8938
  216SOL    HW3  911   1.143  -0.030   1.179  1.9084  0.6227  0.4406
  216SOL    MW4  912   1.126   0.055   1.170 -0.0389  0.2101 -0.0948
  217SOL     OW  913   0.191   1.966   0.478 -0.1874 -0.4916 -0.2214
  217SOL    HW2  914   0.184   1.873   0.458 -0.6714 -0.2523 -1.1876
  217SOL    HW3  915   0.106   1.990   0.514 -0.5049 -0.1442 -1.1792
  217SOL    MW4  916   0.179   1.957   0.480 -0.2932 -0.4141 -0.4753
  218SOL     OW  917   3.673   4.652   0.389 -0.1534  0.3691  0.0909
  218SOL    HW2  918   3.742   4.711   0.418 -0.0589  0.3337 -0.0620
  218SOL    HW3  919   3.718   4.571   0.366 -0.3131  0.1439  0.5521
  218SOL    MW4  920   3.688   4.649   0.390 -0.1619  0.3343  0.1316
  219SOL     OW  921   3.855   3.708   0.561 -0.1066 -0.7195 -0.3330
  219SOL    HW2  922   3.831   3.794   0.595  0.3544 -1.3180  1.5599
  219SOL    HW3  923   3.787   3.688   0.496 -0.9491  0.4971  0.1629
  219SOL    MW4  924   3.843   3.717   0.557 -0.1571 -0.6380 -0.0178
  220SOL     OW  925   0.808   1.229   0.577 -0.1747 -0.3030 -0.0247
  220SOL    HW2  926   0.743   1.288   0.540 -0.3440 -0.5407 -0.1065
  220SOL    HW3  927   0.775   1.141   0.557  1.3933 -0.4266 -2.2469
  220SOL    MW4  928   0.795   1.225   0.570  0.0098 -0.3508 -0.3286
  221SOL     OW  929   3.845   3.854   1.201 -0.1840  0.0388 -0.2199
  221SOL    HW2  930   3.813   3.847   1.111 -2.6857 -2.0423  0.7599
  221SOL    HW3  931   3.774   3.899   1.247  0.7536  0.4106  0.8721
  221SOL    MW4  932   3.831   3.859   1.195 -0.3905 -0.1867  0.0535
  222SOL     OW  933   2.129   0.854   0.723  0.1655  0.2464  0.0690
  222SOL    HW2  934   2.208   0.890   0.763  1.0768 -0.7261 -0.8460
  222SOL    HW3  935   2.116   0.769   0.766 -0.7399  0.6683  0.6570
  222SOL    MW4  936   2.137   0.847   0.734  0.1662  0.1738  0.0259
  223SOL     OW  937   1.592   2.343   0.682 -0.2867 -0.1357 -0.1916
  223SOL    HW2  938   1.581   2.294   0.764  0.5686  0.3076  0.1950
  223SOL    HW3  939   1.579   2.278   0.614  0.3818 -0.8198  0.3164
  223SOL    MW4  940   1.589   2.328   0.684 -0.0856 -0.1676 -0.0735
  224SOL     OW  941   2.720   1.989   0.913 -0.3725 -0.3507  0.3287
  224SOL    HW2  942   2.764   2.074   0.913  0.0133 -0.5535  0.4927
  224SOL    HW3  943   2.706   1.969   1.006 -1.5813  0.1156  0.2641
  224SOL    MW4  944   2.724   1.998   0.925 -0.4809 -0.3159  0.3418
  225SOL     OW  945   0.643   1.531   1.219  0.0493 -0.3178  0.5901
  225SOL    HW2  946   0.654   1.535   1.124  0.8551  1.0068  0.7274
  225SOL    HW3  947   0.553   1.562   1.234 -0.4658 -1.5733  0.1981
  225SOL    MW4  948   0.632   1.536   1.209  0.0877 -0.3086  0.5566
  226SOL     OW  949   1.103   3.313   0.901  0.2156 -0.1972 -0.4498
  226SOL    HW2  950   1.157   3.340   0.976 -0.3084 -0.2360 -0.0569
  226SOL    HW3  951   1.166   3.300   0.830  0.5157  1.6363 -0.5269
  226SOL    MW4  952   1.119   3.315   0.902  0.1860  0.0398 -0.4082
  227SOL     OW  953   3.416   4.661   0.464 -0.2713  0.1068  0.6059
  227SOL    HW2  954   3.501   4.662   0.422 -0.2959 -0.3387  0.5422
  227SOL    HW3  955   3.360   4.609   0.406 -0.6959  0.7389  0.4386
  227SOL    MW4  956   3.420   4.654   0.451 -0.3307  0.1311  0.5754
  228SOL     OW  957   3.776   2.778   0.911  0.5042  0.5021 -0.0393
  228SOL    HW2  958   3.784   2.696   0.863 -0.5712  0.2110  0.2770
  228SOL    HW3  959   3.692   2.772   0.956 -0.2112  2.3568 -1.0762
  228SOL    MW4  960   3.766   2.767   0.911  0.2680  0.7081 -0.1343
  229SOL     OW  961   0.433   3.173   0.572 -0.9498  0.3460 -0.2213
  229SOL    HW2  962   0.434   3.135   0.660  0.0955  0.2590 -0.2618
  229SOL    HW3  963   0.490   3.116   0.520 -1.1145  0.7148 -0.8204
  229SOL    MW4  964   0.440   3.160   0.577 -0.8336  0.3831 -0.3057
  230SOL     OW  965   2.398   2.002   0.490 -0.0506  0.1909  0.7390
  230SOL    HW2  966   2.446   1.989   0.572  0.7421  0.0371  0.2641
  230SOL    HW3  967   2.367   2.092   0.495  0.2547  0.2822  1.0774
  230SOL    MW4  968   2.400   2.012   0.502  0.0939  0.1826  0.7210
  231SOL     OW  969   3.668   3.824   0.341 -0.6149  0.4702  0.0666
  231SOL    HW2  970   3.620   3.769   0.278  0.8771 -0.8423  0.0462
  231SOL    HW3  971   3.739   3.863   0.290  1.1854 -1.3586  1.1020
  231SOL    MW4  972   3.671   3.822   0.326 -0.1807  0.0558  0.2006
  232SOL     OW  973   4.053   2.663   0.582  0.4336 -0.1724  0.2780
  232SOL    HW2  974   4.049   2.758   0.585 -0.3681 -0.2545  2.1897
  232SOL    HW3  975   3.981   2.633   0.638  0.1991 -1.9110 -0.8831
  232SOL    MW4  976   4.043   2.671   0.589  0.2975 -0.4125  0.3771
  233SOL     OW  977   3.045   4.607   0.402  0.2729  0.2154  0.4666
  233SOL    HW2  978   2.962   4.570   0.431 -0.5854  0.5612 -1.4908
  233SOL    HW3  979   3.032   4.702   0.405  0.5105  0.2683 -0.0546
  233SOL    MW4  980   3.032   4.615   0.406  0.1910  0.2675  0.1396
  234SOL     OW  981   0.781   3.540   0.313  0.2144 -0.0715 -0.8293
  234SOL    HW2  982   0.863   3.493   0.299 -0.3233 -0.9378 -1.0923
  234SOL    HW3  983   0.715   3.471   0.321  0.1457  0.3896  4.0677
  234SOL    MW4  984   0.783   3.525   0.312  0.1344 -0.1252 -0.2179
  235SOL     OW  985   2.031   0.245   0.697 -0.0210 -0.2321 -0.0949
  235SOL    HW2  986   2.016   0.150   0.699 -0.6809 -0.1206  0.5621
  235SOL    HW3  987   2.014   0.270   0.606  2.0905 -1.0407 -0.7264
  235SOL    MW4  988   2.027   0.236   0.685  0.1705 -0.3241 -0.0915
  236SOL     OW  989   1.585   4.262   0.634  0.1862 -0.2960 -0.5151
  236SOL    HW2  990   1.598   4.224   0.721  3.0356 -0.8948 -1.1384
  236SOL    HW3  991   1.539   4.195   0.584 -2.3764  0.4542  0.8104
  236SOL    MW4  992   1.581   4.248   0.639  0.2240 -0.2756 -0.4224
  237SOL     OW  993   4.009   2.946   0.605 -0.0185 -0.0370 -0.0789
  237SOL    HW2  994   4.066   3.018   0.629  0.3464 -0.8960  1.7315
  237SOL    HW3  995   3.929   2.961   0.655  0.1485 -0.9971  0.4914
  237SOL    MW4  996   4.006   2.957   0.615  0.0520 -0.2768  0.2352
  238SOL     OW  997   0.461   0.171   0.590 -0.5436  0.4779 -0.5586
  238SOL    HW2  998   0.450   0.084   0.551  0.7971  1.3186 -2.9382
  238SOL    HW3  999   0.417   0.230   0.528 -0.4529  1.6112  0.4433
  238SOL    MW4 1000   0.453   0.167   0.577 -0.3548  0.7383 -0.7403
  239SOL     OW 1001   3.383   1.645   0.565  0.1816  0.3549  0.2794
  239SOL    HW2 1002   3.316   1.576   0.562 -0.0209  0.5786 -0.6133
  239SOL    HW3 1003   3.466   1.598   0.566  0.0195  0.0410  2.6726
  239SOL    MW4 1004   3.385   1.630   0.565  0.1333  0.3430  0.4774
  240SOL     OW 1005   0.903   3.535   1.194 -0.2594 -0.4228  0.6494
  240SOL    HW2 1006   0.823   3.580   1.221 -0.3124 -0.7734  1.0838
  240SOL    HW3 1007   0.904   3.543   1.099 -1.1523 -0.9949  0.5858
  240SOL    MW4 1008   0.892   3.542   1.185 -0.3842 -0.5443  0.6982
  241SOL     OW 1009   0.935   4.596   0.515  0.5832  0.0390 -0.1871
  241SOL    HW2 1010   1.011   4.539   0.504 -0.3347 -1.1384 -0.4733
  241SOL    HW3 1011   0.859   4.538   0.505 -0.3584  1.2121  0.0202
  241SOL    MW4 1012   0.935   4.581   0.512  0.3378  0.0381 -0.1976
  242SOL     OW 1013   4.112   3.590   0.887 -0.1224  0.0760  0.0556
  242SOL    HW2 1014   4.149   3.547   0.810  0.8893 -1.3931  1.3241
  242SOL    HW3 1015   4.101   3.681   0.861  0.8239 -0.2697 -1.6091
  242SOL    MW4 1016   4.116   3.596   0.873  0.1354 -0.1636  0.0034
  243SOL     OW 1017   3.495   3.301   0.468 -0.1742  0.0896  0.1688
  243SOL    HW2 1018   3.410   3.262   0.487 -0.6909  1.1406  0.0112
  243SOL    HW3 1019   3.475   3.384   0.426  0.9243  0.6539  0.7306
  243SOL    MW4 1020   3.481   3.307   0.465 -0.0973  0.3026  0.2221
  244SOL     OW 1021   2.079   1.881   0.799  0.1377  0.2699 -0.0709
  244SOL    HW2 1022   2.155   1.928   0.834  0.7788 -0.2538 -0.7284
  244SOL    HW3 1023   2.113   1.839   0.720 -0.9649  0.4256 -0.6288
  244SOL    MW4 1024   2.094   1.882   0.793  0.0768  0.2214 -0.2313
  245SOL     OW 1025   2.157   3.688   0.179 -0.0815  0.3530 -0.7422
  245SOL    HW2 1026   2.095   3.695   0.106 -0.2813 -0.3972 -0.6527
  245SOL    HW3 1027   2.188   3.598   0.174 -0.9658 -0.0494  0.8002
  245SOL    MW4 1028   2.153   3.677   0.168 -0.2244  0.2010 -0.5269
  246SOL     OW 1029   0.769   1.981   0.696  0.3846 -0.1087  0.1215
  246SOL    HW2 1030   0.698   1.982   0.760 -0.2835 -1.5130 -0.5772
  246SOL    HW3 1031   0.742   1.916   0.631  1.6403  0.3877 -0.9161
  246SOL    MW4 1032   0.756   1.972   0.696  0.4621 -0.2286 -0.1075
  247SOL     OW 1033   3.811   2.553   0.743  0.8023 -0.1008  0.2096
  247SOL    HW2 1034   3.827   2.473   0.792  0.6720 -1.1915 -1.4968
  247SOL    HW3 1035   3.748   2.528   0.675 -0.6553  1.8556  0.7803
  247SOL    MW4 1036   3.804   2.539   0.740  0.5927  0.0131  0.0598
  248SOL     OW 1037   1.100   3.954   0.930 -0.0583 -0.4119 -0.3476
  248SOL    HW2 1038   1.127   3.943   1.021 -1.6051 -2.2326 -0.0577
  248SOL    HW3 1039   1.163   3.902   0.880 -0.3157 -0.9602 -0.1137
  248SOL    MW4 1040   1.111   3.946   0.936 -0.2965 -0.7246 -0.2785
  249SOL     OW 1041   0.246   0.016   1.106 -0.8594 -0.0418 -0.1150
  249SOL    HW2 1042   0.291   0.029   1.022 -0.8245  0.3972 -0.0337
  249SOL    HW3 1043   0.243  -0.078   1.118  0.8769 -0.0563  0.3276
  249SOL    MW4 1044   0.252   0.006   1.096 -0.6257  0.0138 -0.0459
  250SOL     OW 1045   1.460   4.053   0.480 -0.2520  0.0529  0.3872
  250SOL    HW2 1046   1.383   4.110   0.479 -0.3884 -0.1099  1.1162
  250SOL    HW3 1047   1.424   3.965   0.489 -0.0341 -0.1345 -0.5459
  250SOL    MW4 1048   1.445   4.049   0.481 -0.2413  0.0067  0.3603
  251SOL     OW 1049   3.592   1.179   1.171 -0.4292 -0.2456 -0.0125
  251SOL    HW2 1050   3.506   1.214   1.193 -0.2799 -0.3337  0.7184
  251SOL    HW3 1051   3.654   1.243   1.207 -0.1935  0.5234 -1.7212
  251SOL    MW4 1052   3.589   1.192   1.178 -0.3786 -0.1558 -0.1415
  252SOL     OW 1053   4.420   3.351   0.987  0.0127  0.4177 -0.5857
  252SOL    HW2 1054   4.449   3.264   0.960  1.9008  0.6834  0.5330
  252SOL    HW3 1055   4.325   3.343   0.993  0.1223 -1.4541 -0.8914
  252SOL    MW4 1056   4.411   3.338   0.984  0.2766  0.2058 -0.4784
  253SOL     OW 1057   1.570   1.270   0.828  0.2719  0.3773  0.0231
  253SOL    HW2 1058   1.509   1.211   0.872 -0.0125  0.3750 -0.3759
  253SOL    HW3 1059   1.588   1.229   0.744 -0.0868  0.9590 -0.3450
  253SOL    MW4 1060   1.564   1.257   0.822  0.1872  0.4536 -0.0781
  254SOL     OW 1061   3.594   1.901   0.859 -0.2499  0.3809 -0.3089
  254SOL    HW2 1062   3.603   1.993   0.833 -1.2600  0.5326 -0.1315
  254SOL    HW3 1063   3.595   1.903   0.955  0.8054  0.0953 -0.3130
  254SOL    MW4 1064   3.595   1.914   0.868 -0.2439  0.3632 -0.2860
  255SOL     OW 1065   2.147   1.520   0.579  0.1383 -0.2091  0.3232
  255SOL    HW2 1066   2.186   1.526   0.667  1.9350 -0.6643 -0.4290
  255SOL    HW3 1067   2.146   1.611   0.548  0.9121 -0.2311  0.2197
  255SOL    MW4 1068   2.152   1.533   0.587  0.4776 -0.2720  0.2103
  256SOL     OW 1069   2.605   1.091   0.236 -0.0849 -0.2224  0.0453
  256SOL    HW2 1070   2.650   1.115   0.155 -1.2426 -0.0027 -0.5410
  256SOL    HW3 1071   2.619   1.166   0.294 -0.2440  0.1315 -0.3711
  256SOL    MW4 1072   2.613   1.104   0.233 -0.2587 -0.1467 -0.0870
  257SOL     OW 1073   4.003   4.219   0.263 -0.1525 -0.2169 -0.3805
  257SOL    HW2 1074   3.979   4.129   0.285  0.9070 -0.9960 -2.2033
  257SOL    HW3 1075   4.000   4.222   0.167 -0.5438  1.8048 -0.3317
  257SOL    MW4 1076   4.000   4.207   0.253 -0.0646 -0.0534 -0.6146
  258SOL     OW 1077   0.672   3.779   0.427 -0.1771 -0.3216  0.0626
  258SOL    HW2 1078   0.714   3.716   0.368 -0.4349 -0.1296 -0.3185
  258SOL    HW3 1079   0.726   3.776   0.506  0.1639 -0.5795 -0.1792
  258SOL    MW4 1080   0.685   3.770   0.430 -0.1661 -0.3302 -0.0196
  259SOL     OW 1081   2.429   2.250   0.888 -0.6594  0.0258  0.0107
  259SOL    HW2 1082   2.348   2.293   0.861 -0.9412 -0.9237 -0.6915
  259SOL    HW3 1083   2.486   2.256   0.811 -0.5029 -0.3638  0.0948
  259SOL    MW4 1084   2.426   2.257   0.874 -0.6759 -0.1512 -0.0708
  260SOL     OW 1085   3.226   4.416   0.702 -0.5944 -0.2910 -0.4536
  260SOL    HW2 1086   3.135   4.408   0.729  0.2174 -1.6939  1.9852
  260SOL    HW3 1087   3.263   4.483   0.760  0.2121 -0.5324 -0.6734
  260SOL    MW4 1088   3.219   4.424   0.713 -0.3810 -0.5083 -0.1609
  261SOL     OW 1089   0.799   2.414   0.755  0.7212 -0.2774  0.2169
  261SOL    HW2 1090   0.861   2.398   0.825  1.5579  0.2110 -0.3983
  261SOL    HW3 1091   0.801   2.509   0.742  0.7158 -0.3799 -0.5904
  261SOL    MW4 1092   0.807   2.425   0.762  0.8309 -0.2267  0.0293
  262SOL     OW 1093   1.831   4.253   1.138 -0.5567  0.0516  0.5110
  262SOL    HW2 1094   1.823   4.242   1.043  1.4398  1.4726  0.1317
  262SOL    HW3 1095   1.757   4.309   1.162 -1.3159 -0.6595 -0.1403
  262SOL    MW4 1096   1.821   4.259   1.128 -0.3935  0.1454  0.3750
  263SOL     OW 1097   2.386   3.118   0.283  0.4591 -0.6861  0.2237
  263SOL    HW2 1098   2.471   3.161   0.279  1.0363 -1.7357  0.9591
  263SOL    HW3 1099   2.324   3.185   0.255  1.3488  0.5968  1.2470
  263SOL    MW4 1100   2.389   3.132   0.279  0.6528 -0.6554  0.4558
  264SOL     OW 1101   3.175   2.654   0.860 -0.0959 -0.9288 -0.2174
  264SOL    HW2 1102   3.263   2.670   0.826 -0.1756  0.4125  0.1739
  264SOL    HW3 1103   3.134   2.595   0.796 -0.3363  1.7068 -2.5996
  264SOL    MW4 1104   3.181   2.648   0.847 -0.1380 -0.4041 -0.4801
  265SOL     OW 1105   1.970   3.906   0.859 -0.0492 -0.2374  0.0829
  265SOL    HW2 1106   2.003   3.884   0.946  0.2452  1.0945  0.3072
  265SOL    HW3 1107   1.944   3.997   0.865 -0.5816 -0.3029 -1.0676
  265SOL    MW4 1108   1.971   3.915   0.871 -0.0807 -0.0706 -0.0393
  266SOL     OW 1109   1.148   0.598   0.280  0.1932 -0.1171  0.0273
  266SOL    HW2 1110   1.238   0.625   0.259  0.5388 -1.4719 -0.3284
  266SOL    HW3 1111   1.159   0.518   0.331 -0.7880  0.4274  1.1097
  266SOL    MW4 1112   1.162   0.591   0.284  0.1094 -0.2239  0.1231
  267SOL     OW 1113   1.549   3.106   1.131 -0.0433  0.3754 -0.3971
  267SOL    HW2 1114   1.470   3.150   1.163 -0.4015 -1.5846  1.5563
  267SOL    HW3 1115   1.621   3.155   1.169 -0.3941  0.3492  0.3073
  267SOL    MW4 1116   1.548   3.118   1.140 -0.1369  0.1132 -0.0465
  268SOL     OW 1117   3.584   4.023   0.511  0.3254  1.2027  0.4542
  268SOL    HW2 1118   3.604   3.954   0.448 -1.1322  0.8514  0.3633
  268SOL    HW3 1119   3.616   3.989   0.595 -0.1520  0.5361  0.3670
  268SOL    MW4 1120   3.591   4.009   0.513  0.0699  1.0686  0.4307
  269SOL     OW 1121   1.985   4.637   0.695  0.3548 -0.1360  0.5820
  269SOL    HW2 1122   1.961   4.570   0.759 -0.6495 -0.0472  0.3054
  269SOL    HW3 1123   2.063   4.602   0.652 -0.0364 -1.0303  0.5910
  269SOL    MW4 1124   1.992   4.623   0.698  0.1707 -0.2422  0.5466
  270SOL     OW 1125   4.202   0.017   0.543  0.0450 -0.0604  0.0209
  270SOL    HW2 1126   4.277  -0.017   0.496  1.1167  0.3476  1.4004
  270SOL    HW3 1127   4.181   0.100   0.500 -0.5728 -0.8802 -1.3056
  270SOL    MW4 1128   4.209   0.024   0.531  0.1049 -0.1144  0.0280
  271SOL     OW 1129   2.774   2.074   0.545 -0.1614 -0.2554 -0.0843
  271SOL    HW2 1130   2.711   2.131   0.589  1.3606  0.1715  1.6496
  271SOL    HW3 1131   2.793   2.005   0.609  1.5420 -0.0540 -0.3256
  271SOL    MW4 1132   2.768   2.072   0.559  0.2644 -0.1724  0.1125
  272SOL     OW 1133   3.287   2.529   0.490 -0.9537  0.5869 -0.0960
  272SOL    HW2 1134   3.318   2.473   0.419 -0.7181 -1.1611  1.3469
  272SOL    HW3 1135   3.291   2.618   0.454  0.8330 -0.0894 -1.6697
  272SOL    MW4 1136   3.292   2.534   0.476 -0.6871  0.2668 -0.1133
  273SOL     OW 1137   3.856   3.130   1.212 -0.2659 -0.1129  0.0988
  273SOL    HW2 1138   3.844   3.036   1.225 -1.0943 -0.0068  0.0765
  273SOL    HW3 1139   3.938   3.150   1.258  0.2160 -0.9461 -0.3930
  273SOL    MW4 1140   3.865   3.121   1.220 -0.3119 -0.2086  0.0309
  274SOL     OW 1141   2.473   4.392   0.790  0.8267  0.3071 -0.1111
  274SOL    HW2 1142   2.470   4.472   0.843 -2.3853 -1.2392  2.2222
  274SOL    HW3 1143   2.541   4.339   0.832  1.2771  0.8234 -0.1767
  274SOL    MW4 1144   2.482   4.396   0.803  0.4623  0.1717  0.1882
  275SOL     OW 1145   2.259   1.475   0.823  0.1736  0.0094 -0.1232
  275SOL    HW2 1146   2.181   1.520   0.855 -0.8407 -2.0500  0.3781
  275SOL    HW3 1147   2.255   1.388   0.863  1.6822 -0.7975 -1.6596
  275SOL    MW4 1148   2.248   1.469   0.832  0.2389 -0.3687 -0.2597
  276SOL     OW 1149   0.628   3.480   0.890 -0.1887  0.2561  0.1648
  276SOL    HW2 1150   0.556   3.543   0.891 -1.6566 -1.3619  0.7666
  276SOL    HW3 1151   0.587   3.397   0.917  1.6902 -0.9310 -0.5247
  276SOL    MW4 1152   0.613   3.477   0.894 -0.1345 -0.1140  0.1532
  277SOL     OW 1153   2.425   2.594   0.437  0.6812  0.1485 -0.2159
  277SOL    HW2 1154   2.402   2.681   0.402  1.2370 -0.5575 -2.4305
  277SOL    HW3 1155   2.517   2.582   0.413  0.7103 -0.8877  0.4026
  277SOL    MW4 1156   2.434   2.604   0.429  0.7584 -0.0813 -0.4264
  278SOL     OW 1157   4.194   3.144   0.947  0.1192  0.1453  0.0496
  278SOL    HW2 1158   4.107   3.182   0.939  0.7930  1.7056 -0.0191
  278SOL    HW3 1159   4.180   3.050   0.938 -1.2780  0.5361 -2.3770
  278SOL    MW4 1160   4.180   3.137   0.945  0.0234  0.4027 -0.2797
  279SOL     OW 1161   1.970   3.700   0.374 -0.2347 -0.4897  0.0225
  279SOL    HW2 1162   2.036   3.685   0.306  0.1960  0.8177  0.1504
  279SOL    HW3 1163   2.006   3.770   0.428 -0.8152 -1.1495  1.2950
  279SOL    MW4 1164   1.984   3.707   0.372 -0.2544 -0.4041  0.2073
  280SOL     OW 1165   3.850   2.302   0.854  0.0755  0.4056  0.4742
  280SOL    HW2 1166   3.773   2.264   0.813 -0.0265  2.5085 -1.3518
  280SOL    HW3 1167   3.925   2.261   0.810 -0.0330  1.3133 -0.5817
  280SOL    MW4 1168   3.850   2.292   0.843  0.0477  0.8028  0.0940
  281SOL     OW 1169   2.490   1.374   0.647  0.1780  0.2263 -0.3913
  281SOL    HW2 1170   2.399   1.394   0.666  0.3434  1.1456 -0.5437
  281SOL    HW3 1171   2.537   1.456   0.664  0.7828  0.1369 -1.5721
  281SOL    MW4 1172   2.484   1.387   0.651  0.2794  0.3359 -0.5673
  282SOL     OW 1173   3.375   3.199   0.888  0.3671 -0.1527  0.6246
  282SOL    HW2 1174   3.378   3.165   0.977  0.5825 -0.7358  0.3952
  282SOL    HW3 1175   3.439   3.147   0.840  1.1233  0.9716  0.4018
  282SOL    MW4 1176   3.384   3.187   0.893  0.4954 -0.0811  0.5649
  283SOL     OW 1177   1.772   2.646   0.820  0.1965  0.2068  0.0673
  283SOL    HW2 1178   1.704   2.626   0.756 -0.2272 -2.3120  1.2663
  283SOL    HW3 1179   1.853   2.651   0.769 -0.2728 -0.8852 -0.7814
  283SOL    MW4 1180   1.774   2.644   0.805  0.0787 -0.2699  0.1135
  284SOL     OW 1181   0.842   3.892   0.877  0.1993  0.1076 -0.4277
  284SOL    HW2 1182   0.925   3.907   0.923  0.4347 -1.5784 -0.2710
  284SOL    HW3 1183   0.840   3.960   0.810 -0.5414  3.1657  2.5387
  284SOL    MW4 1184   0.853   3.903   0.875  0.1327  0.2885 -0.0157
  285SOL     OW 1185   2.661   1.938   0.322 -0.5487  0.2353 -0.3071
  285SOL    HW2 1186   2.710   1.996   0.380 -1.1146  0.7331 -0.3184
  285SOL    HW3 1187   2.572   1.939   0.356 -0.4330 -1.1225  0.0585
  285SOL    MW4 1188   2.655   1.946   0.334 -0.6080  0.1218 -0.2603
  286SOL     OW 1189   0.225   3.862   0.930 -0.3478  0.2325 -0.4718
  286SOL    HW2 1190   0.233   3.879   1.024 -2.4462  0.2828 -0.2597
  286SOL    HW3 1191   0.294   3.800   0.910  0.3346  0.4911  1.0391
  286SOL    MW4 1192   0.235   3.856   0.940 -0.5346  0.2732 -0.2444
  287SOL     OW 1193   0.032   4.033   1.296  0.0365 -0.5209 -0.5623
  287SOL    HW2 1194   0.002   4.041   1.387 -1.5349 -0.2236 -1.0860
  287SOL    HW3 1195  -0.023   3.965   1.259  0.5546 -0.5150 -1.3393
  287SOL    MW4 1196   0.021   4.025   1.303 -0.1024 -0.4811 -0.7340
  288SOL     OW 1197   0.400   1.724   0.418 -0.4673  0.0905  0.3944
  288SOL    HW2 1198   0.408   1.707   0.324 -0.2687 -1.0695  0.6067
  288SOL    HW3 1199   0.335   1.661   0.448 -1.5287  1.3694  0.8088
  288SOL    MW4 1200   0.393   1.713   0.409 -0.5811  0.1061  0.4771
  289SOL     OW 1201   4.174   3.420   0.660  0.2956  0.2879 -0.1857
  289SOL    HW2 1202   4.260   3.442   0.697  1.6729 -2.8543 -1.3398
  289SOL    HW3 1203   4.177   3.325   0.647 -3.2765  0.1394 -0.5116
  289SOL    MW4 1204   4.186   3.410   0.664  0.0057 -0.1464 -0.3809
  290SOL     OW 1205   0.968   4.004   0.466  0.7008 -0.1722  0.2264
  290SOL    HW2 1206   0.960   4.007   0.371 -1.0903 -1.6245  0.2895
  290SOL    HW3 1207   0.989   3.912   0.485 -1.3347 -0.4398  1.3453
  290SOL    MW4 1208   0.970   3.992   0.456  0.1959 -0.3991  0.3824
  291SOL     OW 1209   2.889   2.229   0.866 -0.2491  0.3855 -0.2273
  291SOL    HW2 1210   2.918   2.275   0.944  0.5654  0.1552 -0.3897
  291SOL    HW3 1211   2.840   2.295   0.816 -1.7561  0.2215  1.0066
  291SOL    MW4 1212   2.886   2.244   0.870 -0.3405  0.3333 -0.0860
  292SOL     OW 1213   4.112   0.267   0.420 -0.1506 -0.0894 -0.6571
  292SOL    HW2 1214   4.109   0.319   0.500  0.1284  0.9546 -1.3236
  292SOL    HW3 1215   4.020   0.251   0.398 -0.2187 -0.9242  0.2212
  292SOL    MW4 1216   4.099   0.272   0.428 -0.1230 -0.0618 -0.6292
  293SOL     OW 1217   0.737   0.170   0.569 -0.0711 -0.3135 -0.0792
  293SOL    HW2 1218   0.767   0.085   0.539  0.3959 -0.3971  0.6196
  293SOL    HW3 1219   0.652   0.182   0.526  0.0767 -0.9150 -0.5487
  293SOL    MW4 1220   0.730   0.161   0.559  0.0100 -0.4039 -0.0489
  294SOL     OW 1221   2.053   0.641   0.894  0.3941 -0.0224  0.4464
  294SOL    HW2 1222   2.090   0.554   0.905  1.8222  0.2351 -2.1109
  294SOL    HW3 1223   1.966   0.625   0.856  1.2156 -0.2819 -1.3451
  294SOL    MW4 1224   2.046   0.627   0.891  0.6907 -0.0226 -0.1274
  295SOL     OW 1225   0.029   0.523   0.830  0.3242  0.7747  0.2961
  295SOL    HW2 1226  -0.059   0.537   0.796  1.0025  3.4740 -0.4847
  295SOL    HW3 1227   0.076   0.480   0.758  0.1137  0.9317  0.0639
  295SOL    MW4 1228   0.024   0.519   0.816  0.3862  1.1516  0.1625
  296SOL     OW 1229   1.045   3.464   0.340 -0.6962 -0.3597  0.1713
  296SOL    HW2 1230   1.129   3.425   0.315  1.3637  2.3003  2.6133
  296SOL    HW3 1231   1.028   3.432   0.428 -1.3897  0.5043  0.3583
  296SOL    MW4 1232   1.054   3.454   0.348 -0.5159  0.1051  0.5182
  297SOL     OW 1233   3.018   2.170   0.632  0.5477 -0.1836 -0.0075
  297SOL    HW2 1234   2.995   2.175   0.725 -0.7868  0.4050 -0.3522
  297SOL    HW3 1235   2.939   2.137   0.590  0.5118  1.2945 -1.1547
  297SOL    MW4 1236   3.005   2.167   0.639  0.3669  0.0894 -0.2044
  298SOL     OW 1237   4.296   2.547   0.561  0.3199 -0.2212 -0.7131
  298SOL    HW2 1238   4.210   2.588   0.550  0.2167 -0.4107 -0.6148
  298SOL    HW3 1239   4.277   2.460   0.595  0.5551 -0.2392 -0.6229
  298SOL    MW4 1240   4.282   2.541   0.564  0.3376 -0.2487 -0.6882
  299SOL     OW 1241   3.091   1.916   0.836  0.5025  0.1606 -0.2655
  299SOL    HW2 1242   3.172   1.865   0.837  0.6828  0.4376 -0.9897
  299SOL    HW3 1243   3.075   1.937   0.929  1.8888  1.1137 -0.2463
  299SOL    MW4 1244   3.099   1.912   0.849  0.7091  0.3231 -0.3584
  300SOL     OW 1245   0.867   4.570   0.798  0.4020  0.2205  0.2042
  300SOL    HW2 1246   0.900   4.600   0.713  0.1172 -0.2899 -0.0962
  300SOL    HW3 1247   0.875   4.474   0.793 -1.2349  0.0834  0.0709
  300SOL    MW4 1248   0.873   4.561   0.786  0.1485  0.1349  0.1470
  301SOL     OW 1249   1.798   3.478   0.864 -0.0131 -0.5139 -0.1030
  301SOL    HW2 1250   1.781   3.488   0.958  0.4496  0.8743 -0.1531
  301SOL    HW3 1251   1.795   3.568   0.830 -1.7186 -1.1459 -1.6834
  301SOL    MW4 1252   1.795   3.491   0.872 -0.1770 -0.4141 -0.3182
  302SOL     OW 1253   2.081   3.407   0.831 -0.0617 -0.1310 -0.2551
  302SOL    HW2 1254   1.999   3.449   0.854  0.3850  0.7173 -0.1872
  302SOL    HW3 1255   2.063   3.313   0.838 -0.2769  0.0762  2.3202
  302SOL    MW4 1256   2.068   3.400   0.835 -0.0310  0.0083  0.0936
  303SOL     OW 1257   2.718   0.145   0.809 -0.0246 -0.0630  0.0507
  303SOL    HW2 1258   2.719   0.239   0.829  0.3781  0.0743 -0.6102
  303SOL    HW3 1259   2.795   0.110   0.853 -0.3247 -0.1303  0.5228
  303SOL    MW4 1260   2.728   0.153   0.817 -0.0110 -0.0537  0.0257
  304SOL     OW 1261   2.162   0.466   0.254 -0.0718 -0.2378  0.2242
  304SOL    HW2 1262   2.252   0.437   0.270  0.0949 -0.5010 -1.1471
  304SOL    HW3 1263   2.110   0.419   0.319  0.5174 -1.6880 -0.3442
  304SOL    MW4 1264   2.167   0.456   0.265  0.0279 -0.4638 -0.0317
  305SOL     OW 1265   3.132   1.132   1.205  0.4071 -0.0035 -0.2506
  305SOL    HW2 1266   3.150   1.149   1.112 -0.2057 -3.4608 -1.0718
  305SOL    HW3 1267   3.209   1.166   1.251  0.5183  2.1621 -1.9414
  305SOL    MW4 1268   3.144   1.139   1.199  0.3409 -0.1740 -0.5821
  306SOL     OW 1269   0.586   4.182   0.508 -0.0834 -0.3229  0.1247
  306SOL    HW2 1270   0.616   4.135   0.429 -0.1453 -0.4532  0.1782
  306SOL    HW3 1271   0.497   4.148   0.523 -0.9390  1.3586 -1.0599
  306SOL    MW4 1272   0.578   4.171   0.499 -0.2044 -0.1178 -0.0246
  307SOL     OW 1273   3.391   2.349   0.292  0.2861 -0.0215 -0.3603
  307SOL    HW2 1274   3.438   2.408   0.233 -0.4085  0.2045 -0.6983
  307SOL    HW3 1275   3.437   2.265   0.284  1.1742  0.4216 -0.0050
  307SOL    MW4 1276   3.403   2.346   0.283  0.3116  0.0668 -0.3580
  308SOL     OW 1277   0.354   2.317   0.740  0.0421 -0.6097  0.0182
  308SOL    HW2 1278   0.431   2.335   0.794 -0.2663  0.7017  0.0385
  308SOL    HW3 1279   0.357   2.384   0.672 -1.0653 -0.5774  0.0027
  308SOL    MW4 1280   0.365   2.328   0.738 -0.1447 -0.4323  0.0188
  309SOL     OW 1281   3.456   1.923   0.464  0.4068  0.1758  0.2180
  309SOL    HW2 1282   3.423   1.960   0.546  2.6798  0.1846  1.1561
  309SOL    HW3 1283   3.405   1.843   0.452  0.0660  0.1563  1.6524
  309SOL    MW4 1284   3.445   1.917   0.473  0.6621  0.1745  0.5310
  310SOL     OW 1285   3.163   0.351   0.869  0.8020  0.6110 -0.0934
  310SOL    HW2 1286   3.172   0.368   0.963  2.8957 -0.4784 -0.0563
  310SOL    HW3 1287   3.107   0.422   0.837  0.7207  1.4615  1.8392
  310SOL    MW4 1288   3.157   0.363   0.877  1.0674  0.5795  0.1665
  311SOL     OW 1289   1.158   2.049   0.815 -0.1766  0.1432  0.1080
  311SOL    HW2 1290   1.144   2.065   0.722 -1.7387 -0.8156  0.1678
  311SOL    HW3 1291   1.081   2.000   0.843  1.1116 -1.0981  1.5321
  311SOL    MW4 1292   1.146   2.045   0.806 -0.2127 -0.1471  0.3038
  312SOL     OW 1293   0.634   1.414   0.490 -0.1777  0.0405  0.1840
  312SOL    HW2 1294   0.580   1.449   0.561 -0.5039  1.4252 -0.7031
  312SOL    HW3 1295   0.583   1.433   0.411  0.2788 -1.2787 -0.4336
  312SOL    MW4 1296   0.620   1.421   0.489 -0.1605  0.0492 -0.0145
  313SOL     OW 1297   2.609   3.272   0.315 -0.6151 -0.1377  0.3457
  313SOL    HW2 1298   2.574   3.249   0.401 -1.1680  1.6382  0.6182
  313SOL    HW3 1299   2.704   3.256   0.323 -0.8827 -1.6708  0.6991
  313SOL    MW4 1300   2.617   3.267   0.328 -0.7236 -0.1056  0.4283
  314SOL     OW 1301   2.191   0.830   0.448  0.6573 -0.0254 -0.3487
  314SOL    HW2 1302   2.153   0.846   0.535  0.6837 -1.2306 -0.0986
  314SOL    HW3 1303   2.122   0.783   0.401  0.0421  2.0438 -1.5324
  314SOL    MW4 1304   2.177   0.826   0.454  0.5798  0.0886 -0.4719
  315SOL     OW 1305   3.183   3.047   0.311  0.2478 -0.1098 -0.0705
  315SOL    HW2 1306   3.223   3.089   0.388 -0.1704  0.5456 -0.2071
  315SOL    HW3 1307   3.206   2.954   0.320 -0.5991 -0.1990  1.3485
  315SOL    MW4 1308   3.191   3.040   0.322  0.0806 -0.0350  0.0987
  316SOL     OW 1309   3.731   1.814   0.476  0.5069 -0.2713  0.1257
  316SOL    HW2 1310   3.787   1.892   0.483  2.2892 -1.5151  0.2114
  316SOL    HW3 1311   3.643   1.849   0.466  1.4562  1.7811 -1.5288
  316SOL    MW4 1312   3.727   1.829   0.476  0.8674 -0.1646 -0.0813
  317SOL     OW 1313   0.476   0.938   0.480 -0.1090  0.0398  0.1752
  317SOL    HW2 1314   0.460   0.844   0.470  0.3130 -0.0626  0.4199
  317SOL    HW3 1315   0.571   0.944   0.492 -0.1781  0.4651  0.5130
  317SOL    MW4 1316   0.487   0.926   0.480 -0.0625  0.0824  0.2520
  318SOL     OW 1317   0.821   0.614   0.499 -0.1951  0.1702 -0.2010
  318SOL    HW2 1318   0.874   0.664   0.436 -2.2089 -0.6972 -2.7173
  318SOL    HW3 1319   0.865   0.530   0.507 -0.5528 -0.1469 -1.4214
  318SOL    MW4 1320   0.834   0.610   0.491 -0.5081  0.0139 -0.6940
  319SOL     OW 1321   1.333   1.256   0.512  0.3121  0.1720  0.1078
  319SOL    HW2 1322   1.263   1.221   0.568  1.0303 -0.1484  0.8195
  319SOL    HW3 1323   1.321   1.351   0.514 -0.1403  0.1126  0.1813
  319SOL    MW4 1324   1.322   1.264   0.520  0.3471  0.1220  0.2114
  320SOL     OW 1325   1.547   2.617   0.667  0.1650 -0.3951 -0.0561
  320SOL    HW2 1326   1.494   2.649   0.740  1.7062 -0.1919  0.9861
  320SOL    HW3 1327   1.549   2.522   0.678 -0.6242 -0.4697 -0.5422
  320SOL    MW4 1328   1.540   2.608   0.678  0.2642 -0.3784  0.0173
  321SOL     OW 1329   2.788   2.465   0.658 -0.0280  0.0171 -0.2622
  321SOL    HW2 1330   2.760   2.538   0.713  0.0572  0.2248 -0.4917
  321SOL    HW3 1331   2.881   2.481   0.642 -0.4248  0.8602 -1.8274
  321SOL    MW4 1332   2.797   2.476   0.663 -0.0691  0.1559 -0.4990
  322SOL     OW 1333   1.607   0.775   1.170 -0.0617  0.0650  0.1774
  322SOL    HW2 1334   1.637   0.779   1.079  0.2746  1.2111  0.3358
  322SOL    HW3 1335   1.627   0.686   1.198  1.8949  0.3800 -0.1570
  322SOL    MW4 1336   1.613   0.764   1.162  0.2410  0.2577  0.1543
  323SOL     OW 1337   4.052   3.713   0.353 -0.0197 -0.1509  0.0664
  323SOL    HW2 1338   4.135   3.667   0.364  0.1938  0.0907 -0.4959
  323SOL    HW3 1339   4.011   3.709   0.439  1.6275  1.7917  0.9818
  323SOL    MW4 1340   4.058   3.706   0.366  0.2251  0.1376  0.1130
  324SOL     OW 1341   3.855   0.572   0.750  0.3193 -0.2492  0.3614
  324SOL    HW2 1342   3.852   0.662   0.783 -1.2295  0.4034 -1.4994
  324SOL    HW3 1343   3.791   0.525   0.804 -0.9773  0.4335 -0.5574
  324SOL    MW4 1344   3.846   0.577   0.761 -0.0558 -0.0731 -0.0054
  325SOL     OW 1345   2.661   3.222   0.835 -0.1688 -0.1073  0.4373
  325SOL    HW2 1346   2.571   3.195   0.854 -0.5976  1.3061  0.4057
  325SOL    HW3 1347   2.675   3.300   0.888  0.7063  0.2833 -0.3479
  325SOL    MW4 1348   2.651   3.228   0.845 -0.1099  0.1307  0.3296
  326SOL     OW 1349   3.643   2.480   0.526 -0.3580  0.4024  0.6033
  326SOL    HW2 1350   3.667   2.555   0.470 -1.7415 -0.0510 -0.6422
  326SOL    HW3 1351   3.567   2.510   0.575 -1.6684 -0.5763 -0.7953
  326SOL    MW4 1352   3.637   2.494   0.525 -0.7133  0.2134  0.2545
  327SOL     OW 1353   3.131   1.924   1.124 -0.2979  0.1409 -0.1885
  327SOL    HW2 1354   3.128   1.837   1.164 -1.0964 -0.1018 -0.7541
  327SOL    HW3 1355   3.058   1.971   1.163  0.0197  0.4943 -0.0228
  327SOL    MW4 1356   3.121   1.918   1.134 -0.3614  0.1554 -0.2413
  328SOL     OW 1357   2.338   3.437   0.908 -0.3714  0.1047 -0.2019
  328SOL    HW2 1358   2.255   3.407   0.871 -0.4351 -0.3571  0.3158
  328SOL    HW3 1359   2.390   3.463   0.831 -1.1773  0.8783 -0.4890
  328SOL    MW4 1360   2.334   3.436   0.893 -0.4861  0.1459 -0.1715
  329SOL     OW 1361   3.422   3.539   0.367  0.0473 -0.3448 -0.4993
  329SOL    HW2 1362   3.500   3.561   0.316 -1.1384 -0.0494 -2.2239
  329SOL    HW3 1363   3.353   3.530   0.302 -1.6705  0.7588  1.1277
  329SOL    MW4 1364   3.423   3.541   0.351 -0.3359 -0.1600 -0.5122
  330SOL     OW 1365   0.220   1.293   1.258 -0.0066 -0.3875 -0.0700
  330SOL    HW2 1366   0.299   1.245   1.233  0.5004  1.0530 -1.3020
  330SOL    HW3 1367   0.154   1.266   1.194 -0.5500 -1.6107  0.9747
  330SOL    MW4 1368   0.222   1.283   1.246 -0.0114 -0.3588 -0.0948
  331SOL     OW 1369   3.346   4.611   0.887 -0.4440 -0.0814 -1.0995
  331SOL    HW2 1370   3.275   4.672   0.866  0.9095  1.0894 -2.4020
  331SOL    HW3 1371   3.423   4.648   0.844  0.7466 -1.8836 -0.5832
  331SOL    MW4 1372   3.346   4.624   0.878 -0.1085 -0.1650 -1.2032
  332SOL     OW 1373   0.550   1.984   0.880 -0.3118 -0.0467 -0.4083
  332SOL    HW2 1374   0.526   1.980   0.973  0.6683  0.3215 -0.1399
  332SOL    HW3 1375   0.526   2.073   0.853 -0.0149  0.0463 -0.3575
  332SOL    MW4 1376   0.543   1.995   0.888 -0.1433  0.0141 -0.3663
  333SOL     OW 1377   0.432   2.489   1.263 -0.1106  0.2495 -0.4010
  333SOL    HW2 1378   0.410   2.581   1.248 -0.2006  0.2119 -0.4974
  333SOL    HW3 1379   0.439   2.482   1.358  2.9745  1.0620 -0.5125
  333SOL    MW4 1380   0.430   2.500   1.274  0.2846  0.3517 -0.4284
  334SOL     OW 1381   3.280   2.058   0.656 -0.0130 -0.2022 -0.3006
  334SOL    HW2 1382   3.189   2.068   0.627  0.5792  0.6189 -1.9007
  334SOL    HW3 1383   3.276   1.989   0.723 -2.0117  0.7642  0.6210
  334SOL    MW4 1384   3.268   2.050   0.661 -0.1988  0.0339 -0.3901
  335SOL     OW 1385   1.187   4.183   0.493  0.0449 -0.6064 -0.3840
  335SOL    HW2 1386   1.122   4.114   0.477 -0.0258 -0.7049  0.3396
  335SOL    HW3 1387   1.191   4.191   0.588  1.7815 -1.2629 -0.3860
  335SOL    MW4 1388   1.179   4.175   0.503  0.2648 -0.7062 -0.2887
  336SOL     OW 1389   1.798   2.931   0.792  0.3991 -0.6270 -0.3623
  336SOL    HW2 1390   1.713   2.960   0.825  1.0801  1.2675 -0.1764
  336SOL    HW3 1391   1.800   2.837   0.810 -1.6794 -0.7154 -0.4448
  336SOL    MW4 1392   1.787   2.923   0.799  0.2147 -0.3886 -0.3486
  337SOL     OW 1393   4.277   3.584   0.451  0.0130  0.0718  0.2693
  337SOL    HW2 1394   4.277   3.659   0.510  1.0177  0.0619  0.3021
  337SOL    HW3 1395   4.247   3.510   0.505 -1.0145  0.4525  0.2257
  337SOL    MW4 1396   4.273   3.584   0.466  0.0105  0.1206  0.2679
  338SOL     OW 1397   4.195   0.793   0.851  0.6171 -0.0316  0.3923
  338SOL    HW2 1398   4.137   0.845   0.796 -0.1047 -1.9773 -0.7116
  338SOL    HW3 1399   4.214   0.715   0.800  1.7332 -0.8428  2.0006
  338SOL    MW4 1400   4.190   0.790   0.837  0.6690 -0.3954  0.4590
  339SOL     OW 1401   0.876   4.050   1.323 -0.0763 -0.3365 -0.0992
  339SOL    HW2 1402   0.790   4.018   1.298 -0.4531  2.0835 -2.1179
  339SOL    HW3 1403   0.867   4.075   1.415 -1.5787  0.0427 -0.3427
  339SOL    MW4 1404   0.864   4.049   1.332 -0.3242  0.0324 -0.3976
  340SOL     OW 1405   1.374   0.507   1.102  0.2995  0.5897  0.4912
  340SOL    HW2 1406   1.376   0.529   1.009 -1.3335  1.3054  0.6052
  340SOL    HW3 1407   1.367   0.412   1.105  1.4420  0.4815 -0.0977
  340SOL    MW4 1408   1.373   0.498   1.090  0.2348  0.6699  0.4284
  341SOL     OW 1409   0.049   3.117   0.897 -0.0432 -0.0572  0.6835
  341SOL    HW2 1410   0.029   3.077   0.982  1.1539 -0.1668  0.9277
  341SOL    HW3 1411   0.115   3.184   0.917 -1.5779  1.6229  0.1862
  341SOL    MW4 1412   0.055   3.121   0.911 -0.0878  0.1497  0.6502
  342SOL     OW 1413   1.491   4.537   0.597  0.1555 -0.6179 -0.4892
  342SOL    HW2 1414   1.524   4.447   0.602  2.4536  0.2383  0.2442
  342SOL    HW3 1415   1.479   4.563   0.688 -0.4726 -0.1688 -0.6972
  342SOL    MW4 1416   1.494   4.529   0.610  0.3757 -0.4458 -0.4199
  343SOL     OW 1417   2.420   3.480   0.621 -0.6497 -0.4368  0.1475
  343SOL    HW2 1418   2.334   3.522   0.615 -0.3137  0.3059  0.4513
  343SOL    HW3 1419   2.479   3.551   0.645  0.3652 -0.5553 -1.8750
  343SOL    MW4 1420   2.416   3.495   0.623 -0.4716 -0.3545 -0.0793
  344SOL     OW 1421   2.820   0.430   0.558  0.2896 -0.3081 -0.1374
  344SOL    HW2 1422   2.792   0.518   0.535  0.6934 -0.2351 -0.3379
  344SOL    HW3 1423   2.741   0.376   0.548 -0.7125  0.5118  2.7125
  344SOL    MW4 1424   2.806   0.434   0.554  0.2108 -0.1903  0.2122
  345SOL     OW 1425   2.199   4.501   0.595 -0.2853  0.0194  0.1678
  345SOL    HW2 1426   2.255   4.557   0.540  1.2029 -1.0729  0.5426
  345SOL    HW3 1427   2.249   4.490   0.675 -1.5097 -0.1626  0.9139
  345SOL    MW4 1428   2.213   4.507   0.598 -0.2503 -0.1488  0.3157
  346SOL     OW 1429   1.957   4.208   0.859 -0.0963 -0.4476  0.5795
  346SOL    HW2 1430   2.046   4.242   0.870 -0.7450  1.6248 -0.2626
  346SOL    HW3 1431   1.948   4.193   0.765 -1.3233  1.4208  0.3694
  346SOL    MW4 1432   1.967   4.211   0.848 -0.3438  0.0730  0.4407
  347SOL     OW 1433   0.195   1.545   1.145 -0.1692 -0.1554  0.0483
  347SOL    HW2 1434   0.271   1.594   1.178  1.1151 -1.1231 -1.3528
  347SOL    HW3 1435   0.198   1.462   1.192 -0.6384 -0.0204  0.3202
  347SOL    MW4 1436   0.206   1.541   1.156 -0.0617 -0.2652 -0.1005
  348SOL     OW 1437   0.454   2.078   0.589 -0.0485 -0.2380 -0.1049
  348SOL    HW2 1438   0.371   2.037   0.565  0.0429 -0.9105  0.7163
  348SOL    HW3 1439   0.429   2.160   0.630 -0.2721 -0.0362 -0.6320
  348SOL    MW4 1440   0.440   2.083   0.591 -0.0659 -0.3002 -0.0660
  349SOL     OW 1441   3.253   4.462   0.238 -0.2535 -0.1220  0.0444
  349SOL    HW2 1442   3.306   4.507   0.173 -0.4774 -0.3941 -0.3281
  349SOL    HW3 1443   3.184   4.524   0.261 -1.1851 -0.6642 -1.2542
  349SOL    MW4 1444   3.251   4.476   0.233 -0.4060 -0.2294 -0.1761
  350SOL     OW 1445   4.244   3.957   0.929 -0.5658 -0.1799  0.9244
  350SOL    HW2 1446   4.281   3.938   1.015  0.0175 -0.7388  0.5492
  350SOL    HW3 1447   4.262   4.050   0.915  2.0676 -0.7620  0.1028
  350SOL    MW4 1448   4.251   3.967   0.938 -0.1416 -0.3304  0.7665
  351SOL     OW 1449   1.616   1.542   0.900 -0.1001  0.3185 -0.4156
  351SOL    HW2 1450   1.640   1.581   0.816 -1.1854  0.7797 -0.5201
  351SOL    HW3 1451   1.583   1.455   0.878  0.2707  0.1725 -0.3967
  351SOL    MW4 1452   1.615   1.536   0.886 -0.1943  0.3601 -0.4269
  352SOL     OW 1453   2.512   1.488   0.963 -0.1538  0.2132  0.3574
  352SOL    HW2 1454   2.499   1.532   1.047  0.7788 -0.3810  0.8220
  352SOL    HW3 1455   2.428   1.496   0.918 -0.3085  1.5276  0.8753
  352SOL    MW4 1456   2.499   1.495   0.968 -0.0513  0.3082  0.4871
  353SOL     OW 1457   1.089   2.017   1.259  0.0665  0.2981  0.0206
  353SOL    HW2 1458   1.089   2.023   1.355  0.3387  1.1864 -0.0246
  353SOL    HW3 1459   1.096   2.108   1.230 -0.3535  0.0607 -0.8462
  353SOL    MW4 1460   1.090   2.030   1.268  0.0471  0.3839 -0.0997
  354SOL     OW 1461   1.334   1.090   0.913  0.2800 -0.3216  0.0347
  354SOL    HW2 1462   1.368   1.092   1.003 -1.2026 -1.6172  0.6474
  354SOL    HW3 1463   1.341   0.999   0.887  0.1455 -0.0514 -0.9590
  354SOL    MW4 1464   1.339   1.079   0.921  0.0668 -0.4569 -0.0156
  355SOL     OW 1465   1.855   1.241   0.565  0.0455  0.0706  0.0509
  355SOL    HW2 1466   1.846   1.334   0.587 -0.3472  0.3459 -1.2240
  355SOL    HW3 1467   1.947   1.232   0.539 -0.0923  0.2573 -0.5089
  355SOL    MW4 1468   1.866   1.252   0.564 -0.0244  0.1316 -0.1910
  356SOL     OW 1469   2.313   3.868   0.431  0.0144  1.0158 -0.0723
  356SOL    HW2 1470   2.300   3.822   0.348  2.6006  0.0808 -0.0259
  356SOL    HW3 1471   2.233   3.852   0.480 -1.2368  0.9198 -2.0853
  356SOL    MW4 1472   2.301   3.860   0.426  0.1903  0.8795 -0.3318
  357SOL     OW 1473   4.228   4.104   0.432 -0.3147  0.6659  0.3620
  357SOL    HW2 1474   4.146   4.137   0.396 -0.5363  0.8604  1.0573
  357SOL    HW3 1475   4.213   4.010   0.445 -0.1459  0.5404 -0.2865
  357SOL    MW4 1476   4.215   4.096   0.429 -0.3219  0.6742  0.3681
  358SOL     OW 1477   4.156   2.870   0.879 -0.1900  0.2117  0.1412
  358SOL    HW2 1478   4.109   2.865   0.796 -3.0638 -1.1238  1.7389
  358SOL    HW3 1479   4.227   2.806   0.871 -1.2841 -0.9222 -0.8218
  358SOL    MW4 1480   4.159   2.861   0.867 -0.7133 -0.1142  0.2249
  359SOL     OW 1481   2.992   3.864   0.901  0.1677 -0.5256 -0.0273
  359SOL    HW2 1482   3.067   3.887   0.845  0.9172 -1.3314  0.6281
  359SOL    HW3 1483   2.975   3.772   0.880  0.2724 -0.7510  0.8474
  359SOL    MW4 1484   3.000   3.855   0.891  0.2804 -0.6616  0.1746
  360SOL     OW 1485   1.376   2.744   1.157 -0.4345 -0.1635  0.0000
  360SOL    HW2 1486   1.452   2.787   1.196 -1.2147  0.6474  0.6554
  360SOL    HW3 1487   1.301   2.790   1.195 -1.2580 -1.1950 -0.3603
  360SOL    MW4 1488   1.376   2.756   1.167 -0.6460 -0.1929  0.0391
  361SOL     OW 1489   1.086   1.169   0.647  0.5374  0.8615 -0.0002
  361SOL    HW2 1490   1.004   1.190   0.603  0.2757  0.5276  0.3300
  361SOL    HW3 1491   1.069   1.186   0.739  0.2463 -1.0330  0.3054
  361SOL    MW4 1492   1.073   1.174   0.653  0.4646  0.5674  0.0837
  362SOL     OW 1493   2.386   0.005   0.441  0.2483 -0.3906  0.0828
  362SOL    HW2 1494   2.450  -0.065   0.452  0.3129 -0.5303 -1.0728
  362SOL    HW3 1495   2.435   0.086   0.456  0.7556 -0.4877 -0.9871
  362SOL    MW4 1496   2.401   0.007   0.444  0.3240 -0.4218 -0.2109
  363SOL     OW 1497   1.869   4.155   0.570  0.1009  0.4770 -0.2033
  363SOL    HW2 1498   1.791   4.210   0.568  0.1001  0.4409 -1.2010
  363SOL    HW3 1499   1.835   4.065   0.575  0.0913  0.4975  0.1282
  363SOL    MW4 1500   1.854   4.150   0.570  0.0997  0.4749 -0.2912
  364SOL     OW 1501   3.243   3.218   0.525  0.3496  0.0819  0.2952
  364SOL    HW2 1502   3.216   3.181   0.609  0.7470 -0.8776  0.0077
  364SOL    HW3 1503   3.171   3.275   0.500  0.3289  0.5562  1.4018
  364SOL    MW4 1504   3.230   3.220   0.533  0.3994  0.0179  0.4033
  365SOL     OW 1505   0.890   3.118   0.847  0.1125  0.0553  0.5513
  365SOL    HW2 1506   0.951   3.187   0.873 -1.8051  0.7276  3.6822
  365SOL    HW3 1507   0.934   3.036   0.869  1.4865  0.3377 -1.0590
  365SOL    MW4 1508   0.904   3.117   0.854  0.0408  0.1812  0.7519
  366SOL     OW 1509   2.714   2.596   0.417  0.3803  0.0673  0.1601
  366SOL    HW2 1510   2.730   2.537   0.491  1.0417  0.6089  0.4503
  366SOL    HW3 1511   2.760   2.677   0.440 -1.3158  1.0457  0.2102
  366SOL    MW4 1512   2.722   2.599   0.430  0.2437  0.2680  0.2050
  367SOL     OW 1513   2.071   2.374   0.609  0.1006 -0.0327  0.0598
  367SOL    HW2 1514   1.987   2.329   0.607 -0.5516  1.2031 -1.0055
  367SOL    HW3 1515   2.049   2.466   0.597  1.6531  0.2513 -0.6723
  367SOL    MW4 1516   2.057   2.380   0.607  0.2193  0.1681 -0.1774
  368SOL     OW 1517   1.315   3.798   0.806  0.4009 -0.4955  0.1462
  368SOL    HW2 1518   1.318   3.809   0.711  1.5540  0.6437  0.3028
  368SOL    HW3 1519   1.399   3.831   0.837 -0.8289  1.2207  1.7616
  368SOL    MW4 1520   1.327   3.804   0.797  0.3908 -0.1187  0.3800
  369SOL     OW 1521   1.142   3.116   1.122 -0.0352 -0.1456  0.3572
  369SOL    HW2 1522   1.163   3.116   1.029 -1.0289 -1.2968  0.1203
  369SOL    HW3 1523   1.144   3.023   1.147 -1.2468  0.0261  1.1272
  369SOL    MW4 1524   1.145   3.103   1.113 -0.3260 -0.2747  0.4276
  370SOL     OW 1525   0.421   1.774   0.695  0.0842 -0.1870  0.1194
  370SOL    HW2 1526   0.433   1.781   0.601  0.4966 -0.6492  0.1363
  370SOL    HW3 1527   0.461   1.853   0.731 -2.1456  1.1514 -0.2600
  370SOL    MW4 1528   0.428   1.785   0.687 -0.1556 -0.0714  0.0716
  371SOL     OW 1529   2.302   2.866   0.380 -0.2431 -0.4230 -0.3178
  371SOL    HW2 1530   2.312   2.945   0.326  0.0345 -0.4922 -0.3660
  371SOL    HW3 1531   2.209   2.866   0.406 -0.4691 -0.6037 -1.1244
  371SOL    MW4 1532   2.291   2.876   0.376 -0.2363 -0.4559 -0.4306
  372SOL     OW 1533   3.823   0.026   0.958 -0.0348  0.2543 -0.3554
  372SOL    HW2 1534   3.738   0.042   1.001 -0.5992 -0.7772 -1.0577
  372SOL    HW3 1535   3.835  -0.069   0.966 -0.0010  0.0949 -2.1917
  372SOL    MW4 1536   3.813   0.015   0.965 -0.1047  0.0971 -0.6903
  373SOL     OW 1537   0.179   1.793   0.791 -0.6092  0.2041  0.0477
  373SOL    HW2 1538   0.267   1.784   0.754  0.2871 -0.2870  2.2353
  373SOL    HW3 1539   0.167   1.888   0.800 -1.1249  0.3683 -2.1206
  373SOL    MW4 1540   0.189   1.804   0.787 -0.5590  0.1609  0.0502
  374SOL     OW 1541   1.067   1.188   0.924  0.1924  0.2252  0.3817
  374SOL    HW2 1542   1.153   1.146   0.928  0.6849  1.0496 -1.0812
  374SOL    HW3 1543   1.086   1.281   0.919 -0.7204  0.3304 -1.6253
  374SOL    MW4 1544   1.081   1.195   0.924  0.1369  0.3479 -0.0762
  375SOL     OW 1545   0.711   4.024   0.296  0.1691 -0.7130  0.3087
  375SOL    HW2 1546   0.635   4.016   0.238  0.1488  0.2992  0.1943
  375SOL    HW3 1547   0.707   3.945   0.350 -1.3394 -0.3498  0.7493
  375SOL    MW4 1548   0.700   4.012   0.295 -0.0326 -0.5317  0.3517
  376SOL     OW 1549   2.394   0.217   0.731  0.5521  0.0324  0.3793
  376SOL    HW2 1550   2.400   0.134   0.778 -0.3949 -0.6975 -0.7532
  376SOL    HW3 1551   2.324   0.265   0.776  1.0830  0.2162  1.0173
  376SOL    MW4 1552   2.385   0.213   0.743  0.4973 -0.0396  0.3140
  377SOL     OW 1553   1.760   0.581   0.436 -0.6831 -0.2265 -0.3622
  377SOL    HW2 1554   1.703   0.655   0.415  0.7043  0.7419 -0.7901
  377SOL    HW3 1555   1.847   0.609   0.409  0.4921 -0.5817  2.8473
  377SOL    MW4 1556   1.764   0.594   0.429 -0.3450 -0.1457  0.0048
  378SOL     OW 1557   1.476   2.186   0.894 -0.2370 -0.3025  0.0510
  378SOL    HW2 1558   1.475   2.213   0.986 -0.3216  0.2129 -0.1022
  378SOL    HW3 1559   1.429   2.102   0.894 -0.3989 -0.2157  0.4487
  378SOL    MW4 1560   1.469   2.178   0.906 -0.2695 -0.2229  0.0832
  379SOL     OW 1561   3.623   3.445   0.660 -0.5993 -0.0489  0.0798
  379SOL    HW2 1562   3.573   3.389   0.599 -0.4184  0.7677 -0.8356
  379SOL    HW3 1563   3.558   3.504   0.697 -0.3534  0.8898 -0.9696
  379SOL    MW4 1564   3.608   3.445   0.657 -0.5429  0.1829 -0.1794
  380SOL     OW 1565   0.775   3.154   0.596  0.3543 -0.0617  0.2183
  380SOL    HW2 1566   0.786   3.248   0.607 -0.9695 -0.0789  1.8344
  380SOL    HW3 1567   0.810   3.116   0.676 -0.7033 -0.8356  0.3276
  380SOL    MW4 1568   0.781   3.161   0.608  0.0401 -0.1659  0.4459
  381SOL     OW 1569   1.339   1.555   0.585  0.4045 -0.1312  0.1520
  381SOL    HW2 1570   1.278   1.623   0.556 -0.6159 -1.1378 -0.1297
  381SOL    HW3 1571   1.336   1.558   0.681 -1.3949 -1.2793  0.1595
  381SOL    MW4 1572   1.330   1.564   0.594  0.0325 -0.4154  0.1158
  382SOL     OW 1573   2.560   3.778   0.365  0.3813 -0.2378 -0.4220
  382SOL    HW2 1574   2.486   3.821   0.407  1.7598 -1.6664  3.6690
  382SOL    HW3 1575   2.525   3.694   0.334 -0.2028 -0.0004 -0.4088
  382SOL    MW4 1576   2.546   3.772   0.366  0.4861 -0.3951  0.1195
  383SOL     OW 1577   0.679   4.436   0.545  0.0834  0.1584  0.0850
  383SOL    HW2 1578   0.623   4.456   0.620  0.1012 -1.3597  0.5207
  383SOL    HW3 1579   0.653   4.348   0.518  0.6759  0.3499 -1.1585
  383SOL    MW4 1580   0.668   4.427   0.551  0.1639 -0.0172 -0.0216
  384SOL     OW 1581   0.097   4.189   0.507  0.0468  0.5465  0.5252
  384SOL    HW2 1582   0.054   4.111   0.543  0.9202  0.0518  0.5162
  384SOL    HW3 1583   0.045   4.211   0.430 -1.3787  1.1575  1.6398
  384SOL    MW4 1584   0.085   4.182   0.502 -0.0261  0.5622  0.6710
  385SOL     OW 1585   0.378   0.171   1.305  0.9955  0.1682  0.3346
  385SOL    HW2 1586   0.409   0.250   1.261  1.6603  0.0030  0.5030
  385SOL    HW3 1587   0.333   0.122   1.236  0.6428  0.6570  0.2142
  385SOL    MW4 1588   0.376   0.175   1.290  1.0366  0.2109  0.3409
  386SOL     OW 1589   0.936   2.824   0.905 -0.3371 -0.4379  0.2546
  386SOL    HW2 1590   0.932   2.793   0.996  0.1515  0.1172  0.4655
  386SOL    HW3 1591   1.014   2.782   0.869  0.1682  0.3099  0.4589
  386SOL    MW4 1592   0.946   2.814   0.912 -0.2059 -0.2661  0.3093
  387SOL     OW 1593   0.464   0.414   0.926 -0.7138 -0.0807  0.3307
  387SOL    HW2 1594   0.444   0.414   1.019 -1.3205 -0.6969  0.2084
  387SOL    HW3 1595   0.441   0.502   0.897 -1.1724 -0.0958  0.6349
  387SOL    MW4 1596   0.458   0.425   0.934 -0.8544 -0.1640  0.3548
  388SOL     OW 1597   2.752   1.025   0.762 -0.0430 -0.0305 -0.0290
  388SOL    HW2 1598   2.664   1.018   0.725 -0.9575  0.2635  1.9687
  388SOL    HW3 1599   2.748   1.103   0.818  0.9858 -0.9030  1.3083
  388SOL    MW4 1600   2.740   1.034   0.765 -0.0279 -0.1068  0.4110
  389SOL     OW 1601   0.249   1.099   0.519  0.5148 -0.0272  0.6609
  389SOL    HW2 1602   0.257   1.108   0.614  1.2185 -0.1416  0.6177
  389SOL    HW3 1603   0.324   1.045   0.494  0.9082  0.8404 -0.0801
  389SOL    MW4 1604   0.260   1.093   0.529  0.6595  0.0721  0.5574
  390SOL     OW 1605   2.888   3.098   0.899  0.2176 -0.1000 -0.3028
  390SOL    HW2 1606   2.891   3.014   0.853  0.5216  0.2355 -0.9007
  390SOL    HW3 1607   2.805   3.137   0.872  0.8496  0.5368 -1.3545
  390SOL    MW4 1608   2.877   3.092   0.889  0.3412  0.0284 -0.5203
  391SOL     OW 1609   3.847   3.511   0.329  0.2941 -0.3918 -0.0730
  391SOL    HW2 1610   3.863   3.457   0.405 -0.2287  0.5164  0.6906
  391SOL    HW3 1611   3.924   3.569   0.324 -1.2628  1.9023  1.8116
  391SOL    MW4 1612   3.859   3.512   0.338  0.0193  0.0305  0.2764
  392SOL     OW 1613   1.612   0.776   0.321  0.4614 -0.3663 -0.1021
  392SOL    HW2 1614   1.568   0.720   0.258  1.9598 -0.2375 -1.2810
  392SOL    HW3 1615   1.541   0.813   0.373 -0.6700 -1.9153 -0.4893
  392SOL    MW4 1616   1.597   0.773   0.320  0.5099 -0.5536 -0.3088
  393SOL     OW 1617   1.106   0.324   0.782 -0.2512  0.0458  0.1135
  393SOL    HW2 1618   1.200   0.341   0.777 -0.1102 -1.0518 -1.2644
  393SOL    HW3 1619   1.100   0.234   0.815 -0.6811 -1.2097 -3.1461
  393SOL    MW4 1620   1.118   0.314   0.786 -0.2893 -0.2646 -0.4984
  394SOL     OW 1621   2.932   0.007   0.914 -0.1746  0.4073 -0.6382
  394SOL    HW2 1622   2.993   0.051   0.854  1.2273 -1.0340 -0.3005
  394SOL    HW3 1623   2.929  -0.083   0.882  1.3666 -0.6353  2.0103
  394SOL    MW4 1624   2.940   0.001   0.902  0.2136  0.0796 -0.2442
  395SOL     OW 1625   1.535   2.986   0.885  0.0437  0.3597  0.1693
  395SOL    HW2 1626   1.558   3.047   0.954 -0.1767  2.5826 -1.6456
  395SOL    HW3 1627   1.446   2.958   0.906 -0.0405  1.0692  0.7762
  395SOL    MW4 1628   1.526   2.991   0.897  0.0036  0.7465  0.0100
  396SOL     OW 1629   3.702   2.210   0.455  0.1806 -0.4774  0.3031
  396SOL    HW2 1630   3.647   2.183   0.381  1.3095 -0.1828 -0.6585
  396SOL    HW3 1631   3.680   2.303   0.468  0.3083 -0.4113  0.0490
  396SOL    MW4 1632   3.692   2.219   0.447  0.3464 -0.4299  0.1427
  397SOL     OW 1633   3.836   0.844   0.860  0.2565 -0.6821  0.2884
  397SOL    HW2 1634   3.743   0.863   0.847  0.7303  1.2286 -0.6082
  397SOL    HW3 1635   3.847   0.843   0.955 -0.5745 -0.2806  0.4023
  397SOL    MW4 1636   3.825   0.847   0.870  0.2093 -0.3771  0.1851
  398SOL     OW 1637   0.542   1.059   0.937 -0.0420  0.7642  0.2474
  398SOL    HW2 1638   0.523   1.089   1.025  2.2576  0.7474  0.7816
  398SOL    HW3 1639   0.622   1.106   0.912  0.9148 -1.3074 -0.7270
  398SOL    MW4 1640   0.550   1.069   0.945  0.3876  0.4888  0.1893
  399SOL     OW 1641   3.182   0.831   0.757  0.6690 -0.2255  0.2911
  399SOL    HW2 1642   3.089   0.819   0.778  0.8138 -0.6454  0.7066
  399SOL    HW3 1643   3.186   0.918   0.718  0.1039 -0.1853  0.3117
  399SOL    MW4 1644   3.170   0.841   0.755  0.6135 -0.2756  0.3486
  400SOL     OW 1645   0.864   0.445   1.111  0.0819 -0.2252  0.2367
  400SOL    HW2 1646   0.866   0.367   1.167  0.1140  0.5612  1.3612
  400SOL    HW3 1647   0.946   0.491   1.131  0.0549  0.1115 -0.4002
  400SOL    MW4 1648   0.875   0.441   1.121  0.0826 -0.0770  0.3011
  401SOL     OW 1649   4.344   2.662   0.817  0.2039 -0.3075  0.1026
  401SOL    HW2 1650   4.308   2.637   0.732 -1.4995  0.0651  0.6988
  401SOL    HW3 1651   4.352   2.579   0.865  0.4377 -0.4270 -0.1413
  401SOL    MW4 1652   4.341   2.648   0.812  0.0095 -0.2742  0.1490
  402SOL     OW 1653   3.062   3.383   0.409 -0.3328  0.0970 -0.0433
  402SOL    HW2 1654   3.111   3.413   0.333 -0.2163 -0.1030 -0.0482
  402SOL    HW3 1655   2.998   3.322   0.374  0.5703 -0.9953  0.1635
  402SOL    MW4 1656   3.060   3.379   0.395 -0.1984 -0.0737 -0.0167
  403SOL     OW 1657   1.222   3.210   0.666  0.5987 -0.2420  0.1346
  403SOL    HW2 1658   1.182   3.195   0.581  0.4410  1.7417 -0.1755
  403SOL    HW3 1659   1.316   3.203   0.651  0.6422  1.4429 -0.5197
  403SOL    MW4 1660   1.229   3.207   0.653  0.5836  0.2420  0.0073
  404SOL     OW 1661   2.574   0.260   0.513 -0.5107  0.6549 -0.2647
  404SOL    HW2 1662   2.639   0.191   0.523 -0.0595  1.2459  1.0618
  404SOL    HW3 1663   2.519   0.253   0.591 -0.8261  1.4089 -0.4072
  404SOL    MW4 1664   2.575   0.250   0.525 -0.4930  0.8323 -0.1084
  405SOL     OW 1665   0.423   0.655   0.768 -0.8480  0.0679  1.0483
  405SOL    HW2 1666   0.343   0.706   0.786 -0.1957  1.3139  0.4997
  405SOL    HW3 1667   0.489   0.694   0.825 -0.4907 -0.6057  1.0987
  405SOL    MW4 1668   0.421   0.667   0.778 -0.7147  0.1435  0.9826
  406SOL     OW 1669   3.787   0.636   0.484  0.0296  0.5589 -0.0187
  406SOL    HW2 1670   3.808   0.606   0.573 -2.4691  2.2979  1.2235
  406SOL    HW3 1671   3.862   0.691   0.460  1.2438 -0.8139  0.5635
  406SOL    MW4 1672   3.800   0.639   0.493 -0.1400  0.6071  0.2221
  407SOL     OW 1673   4.474   3.945   0.599 -0.5956  0.1742  0.1423
  407SOL    HW2 1674   4.495   3.920   0.688  1.1020  2.0606  0.2989
  407SOL    HW3 1675   4.512   3.876   0.544  1.0190  0.6120  0.7205
  407SOL    MW4 1676   4.481   3.933   0.603 -0.1588  0.4807  0.2393
  408SOL     OW 1677   0.071   2.053   0.879  0.1387  0.5627 -0.0488
  408SOL    HW2 1678   0.056   2.016   0.966  2.6083 -1.2749 -0.3333
  408SOL    HW3 1679   0.092   2.145   0.896  2.5431 -0.2153  1.5542
  408SOL    MW4 1680   0.072   2.060   0.893  0.7818  0.2179  0.1252
  409SOL     OW 1681   1.320   2.901   0.334 -0.1952  0.6427 -0.2506
  409SOL    HW2 1682   1.272   2.938   0.259 -1.4216  1.6791  1.0271
  409SOL    HW3 1683   1.251   2.874   0.395  0.7015 -2.9462 -0.7322
  409SOL    MW4 1684   1.304   2.902   0.332 -0.2384  0.3061 -0.1455
  410SOL     OW 1685   3.648   2.158   0.730  0.0406 -0.0230 -0.0147
  410SOL    HW2 1686   3.658   2.152   0.635  0.7748 -0.8370  0.1030
  410SOL    HW3 1687   3.555   2.177   0.743 -0.5249 -2.1210 -0.8163
  410SOL    MW4 1688   3.637   2.160   0.719  0.0627 -0.4072 -0.1049
  411SOL     OW 1689   2.245   4.231   0.891  0.2374  0.0926  0.0101
  411SOL    HW2 1690   2.304   4.291   0.845  2.1440  0.4005  2.7072
  411SOL    HW3 1691   2.265   4.145   0.855  1.2386  0.4037 -0.1920
  411SOL    MW4 1692   2.255   4.228   0.880  0.6211  0.1740  0.3393
  412SOL     OW 1693   3.221   3.990   0.788 -0.1863 -0.5524  0.4770
  412SOL    HW2 1694   3.275   3.930   0.839  1.8260  1.6556  1.0128
  412SOL    HW3 1695   3.266   3.996   0.704  0.0393  0.7678  0.6870
  412SOL    MW4 1696   3.234   3.983   0.784  0.1090 -0.0870  0.5754
  413SOL     OW 1697   1.883   4.471   0.898  0.1161  0.5293  0.0950
  413SOL    HW2 1698   1.789   4.468   0.914  0.2233 -1.1394  0.5586
  413SOL    HW3 1699   1.910   4.379   0.897  2.0134  1.0391  1.5165
  413SOL    MW4 1700   1.874   4.458   0.900  0.3805  0.3762  0.3437
  414SOL     OW 1701   0.747   3.423   0.648 -0.0405 -0.0626 -0.3686
  414SOL    HW2 1702   0.700   3.423   0.732 -0.0647  0.3651 -0.3830
  414SOL    HW3 1703   0.679   3.433   0.582  0.1365  1.2960 -0.3524
  414SOL    MW4 1704   0.732   3.424   0.650 -0.0204  0.1729 -0.3684
  415SOL     OW 1705   3.796   3.016   0.792  0.2789 -0.2377  0.5998
  415SOL    HW2 1706   3.838   3.085   0.843  0.5733 -0.7703  1.0831
  415SOL    HW3 1707   3.801   2.939   0.847 -3.2105  0.1322  1.5780
  415SOL    MW4 1708   3.802   3.015   0.806 -0.1426 -0.2589  0.7927
  416SOL     OW 1709   2.076   2.894   0.515 -0.1955  0.0026 -0.1530
  416SOL    HW2 1710   2.131   2.959   0.559 -0.4488  1.0947 -1.3990
  416SOL    HW3 1711   1.998   2.942   0.488 -1.0777 -1.1781  0.2261
  416SOL    MW4 1712   2.073   2.909   0.517 -0.3452 -0.0091 -0.2674
  417SOL     OW 1713   2.192   0.385   0.878 -0.1565 -0.4155 -0.0118
  417SOL    HW2 1714   2.251   0.450   0.839 -0.2592  0.3046  1.0235
  417SOL    HW3 1715   2.141   0.352   0.803  0.8569 -0.3204 -0.7527
  417SOL    MW4 1716   2.193   0.389   0.863 -0.0362 -0.3079  0.0270
  418SOL     OW 1717   2.738   3.483   0.920  0.3514 -0.0286 -0.0640
  418SOL    HW2 1718   2.683   3.530   0.857  1.3018 -0.4262 -1.2257
  418SOL    HW3 1719   2.827   3.512   0.900  0.8698 -1.6733 -0.2528
  418SOL    MW4 1720   2.743   3.493   0.909  0.5453 -0.2983 -0.2422
  419SOL     OW 1721   0.582   0.460   0.542  0.3642 -0.2162 -0.3189
  419SOL    HW2 1722   0.512   0.517   0.511  0.6985 -0.1010 -0.8820
  419SOL    HW3 1723   0.662   0.505   0.515  0.6588 -0.3136  0.3687
  419SOL    MW4 1724   0.584   0.474   0.535  0.4472 -0.2138 -0.3025
  420SOL     OW 1725   0.430   4.113   1.318  0.6555 -0.2408 -0.3540
  420SOL    HW2 1726   0.508   4.061   1.302  0.3898 -0.5828 -0.5327
  420SOL    HW3 1727   0.398   4.083   1.403  1.0288  0.2852 -0.0282
  420SOL    MW4 1728   0.436   4.102   1.327  0.6697 -0.2165 -0.3346
  421SOL     OW 1729   0.192   1.532   0.484 -0.2834  0.2604 -0.5524
  421SOL    HW2 1730   0.098   1.549   0.483 -0.1818  1.0472  1.4249
  421SOL    HW3 1731   0.203   1.459   0.423 -2.2919 -0.4528 -0.1171
  421SOL    MW4 1732   0.181   1.525   0.476 -0.5350  0.2702 -0.2341
  422SOL     OW 1733   0.012   2.498   1.226  0.1415  0.2957  0.0080
  422SOL    HW2 1734  -0.071   2.455   1.208 -0.0250  0.3509  0.6522
  422SOL    HW3 1735   0.026   2.487   1.320  0.0910  1.6322  0.1890
  422SOL    MW4 1736   0.003   2.491   1.236  0.1130  0.4792  0.1168
  423SOL     OW 1737   2.720   0.902   0.440 -0.3749  0.2990 -0.0314
  423SOL    HW2 1738   2.679   0.954   0.371 -0.1082  0.8417  0.2124
  423SOL    HW3 1739   2.781   0.963   0.482  2.0977 -1.0468 -1.6012
  423SOL    MW4 1740   2.723   0.917   0.437 -0.0138  0.1930 -0.2064
  424SOL     OW 1741   0.533   3.406   0.486 -0.7044  0.2631 -0.5742
  424SOL    HW2 1742   0.459   3.466   0.491 -1.5607 -0.7411 -0.9172
  424SOL    HW3 1743   0.502   3.326   0.530  1.0140  0.6508  1.4114
  424SOL    MW4 1744   0.519   3.403   0.493 -0.5906  0.1817 -0.3575
  425SOL     OW 1745   3.641   0.410   0.383 -0.4014 -0.2709  0.1573
  425SOL    HW2 1746   3.658   0.430   0.291 -0.3889  0.5642  0.3386
  425SOL    HW3 1747   3.686   0.479   0.431 -0.4968 -0.6467  0.7858
  425SOL    MW4 1748   3.649   0.422   0.377 -0.4122 -0.2103  0.2641
  426SOL     OW 1749   1.278   2.276   0.588  0.1394 -0.3734  0.0639
  426SOL    HW2 1750   1.328   2.340   0.638  0.5823 -0.0831 -0.7541
  426SOL    HW3 1751   1.323   2.193   0.602  1.6288  0.1134 -1.7347
  426SOL    MW4 1752   1.290   2.273   0.596  0.3945 -0.2711 -0.2813
  427SOL     OW 1753   3.817   4.414   0.377  0.1756  0.1756  0.1508
  427SOL    HW2 1754   3.867   4.349   0.327  1.7529 -0.0011  1.9014
  427SOL    HW3 1755   3.739   4.366   0.406  0.5058 -0.4594  0.0119
  427SOL    MW4 1756   3.813   4.399   0.375  0.4272  0.0687  0.3635
  428SOL     OW 1757   2.527   4.404   0.499  0.0643  0.2767 -0.0770
  428SOL    HW2 1758   2.510   4.383   0.590 -1.9119 -0.1630 -0.5308
  428SOL    HW3 1759   2.497   4.327   0.450  0.5061  0.7700 -1.1485
  428SOL    MW4 1760   2.521   4.391   0.504 -0.1380  0.2842 -0.2782
  429SOL     OW 1761   2.880   2.865   0.746 -0.4481 -0.3439  0.1415
  429SOL    HW2 1762   2.953   2.836   0.691 -0.2744 -0.0291  0.2075
  429SOL    HW3 1763   2.834   2.784   0.770  0.1491 -0.5853  0.4774
  429SOL    MW4 1764   2.883   2.850   0.742 -0.3464 -0.3338  0.1945
  430SOL     OW 1765   3.887   3.994   0.652 -0.0779 -0.2346 -0.0561
  430SOL    HW2 1766   3.865   4.069   0.707 -0.2709 -0.5428  0.2944
  430SOL    HW3 1767   3.950   3.944   0.704  0.3691 -0.0982 -0.4644
  430SOL    MW4 1768   3.892   3.997   0.666 -0.0446 -0.2577 -0.0638
  431SOL     OW 1769   0.526   1.533   0.735  0.4924 -0.0856  0.3784
  431SOL    HW2 1770   0.441   1.490   0.739  0.9280 -0.9005  0.9742
  431SOL    HW3 1771   0.505   1.627   0.741 -0.3932 -0.2505 -0.0168
  431SOL    MW4 1772   0.512   1.540   0.736  0.4330 -0.2147  0.4048
  432SOL     OW 1773   2.788   0.090   0.555 -0.3520 -0.6763  0.0519
  432SOL    HW2 1774   2.852   0.158   0.538 -2.2538  1.3910  0.8759
  432SOL    HW3 1775   2.774   0.092   0.650 -0.8551 -1.8311  0.0221
  432SOL    MW4 1776   2.794   0.099   0.566 -0.6692 -0.5559  0.1567
  433SOL     OW 1777   4.248   4.285   0.654 -0.4220 -0.1296 -0.0081
  433SOL    HW2 1778   4.188   4.358   0.637 -1.4620 -1.2189 -1.1626
  433SOL    HW3 1779   4.230   4.223   0.583  0.3939 -1.5387  1.0018
  433SOL    MW4 1780   4.238   4.287   0.642 -0.4520 -0.4592 -0.0272
  434SOL     OW 1781   1.553   3.905   0.897  0.4299  0.4806 -1.0353
  434SOL    HW2 1782   1.554   3.887   0.991  1.5867  0.3909 -1.0591
  434SOL    HW3 1783   1.621   3.849   0.860  0.5722  1.1490 -1.8105
  434SOL    MW4 1784   1.562   3.895   0.904  0.6013  0.5572 -1.1408
  435SOL     OW 1785   3.392   3.825   0.919 -0.0068  0.4169  0.2076
  435SOL    HW2 1786   3.422   3.739   0.891 -0.6480  0.3067 -0.1494
  435SOL    HW3 1787   3.407   3.826   1.014  0.4018  0.0767  0.1434
  435SOL    MW4 1788   3.398   3.814   0.928 -0.0377  0.3576  0.1520
  436SOL     OW 1789   1.731   3.559   0.377 -0.2489  0.0819 -0.3510
  436SOL    HW2 1790   1.812   3.605   0.353 -0.5357  0.4720 -0.5727
  436SOL    HW3 1791   1.761   3.481   0.423  0.2222  0.9052  0.7637
  436SOL    MW4 1792   1.746   3.555   0.380 -0.2246  0.2418 -0.2332
  437SOL     OW 1793   1.368   1.678   1.279 -0.2290  0.5265 -0.0053
  437SOL    HW2 1794   1.304   1.613   1.252  0.3620 -0.3496  0.6808
  437SOL    HW3 1795   1.451   1.646   1.245  0.0044  1.1423 -0.0270
  437SOL    MW4 1796   1.371   1.665   1.271 -0.1203  0.4923  0.0825
  438SOL     OW 1797   0.780   4.052   0.661 -0.3813  0.0503 -0.3038
  438SOL    HW2 1798   0.705   4.094   0.620  0.5582  1.8751 -0.2126
  438SOL    HW3 1799   0.844   4.040   0.590  0.7378  2.0371  0.3385
  438SOL    MW4 1800   0.779   4.056   0.646 -0.1097  0.5531 -0.2069
  439SOL     OW 1801   3.598   3.938   0.775 -0.3066  0.0601 -0.3582
  439SOL    HW2 1802   3.595   4.022   0.821  0.7424 -0.4642  0.7006
  439SOL    HW3 1803   3.528   3.886   0.815  2.5704 -1.5159  2.9939
  439SOL    MW4 1804   3.588   3.942   0.786  0.2115 -0.2170  0.2237
  440SOL     OW 1805   1.790   1.186   1.187  0.1949 -0.3255  0.6063
  440SOL    HW2 1806   1.799   1.101   1.229  0.1434 -0.6370 -0.0067
  440SOL    HW3 1807   1.793   1.167   1.093  1.0052  0.4456  0.4762
  440SOL    MW4 1808   1.791   1.173   1.180  0.2950 -0.2649  0.5083
  441SOL     OW 1809   2.890   1.506   0.464 -0.2155 -0.2281 -0.2375
  441SOL    HW2 1810   2.984   1.493   0.471 -0.3354 -1.1943 -0.3273
  441SOL    HW3 1811   2.880   1.598   0.440  0.7127 -0.1870 -0.4811
  441SOL    MW4 1812   2.901   1.517   0.462 -0.1090 -0.3501 -0.2815
  442SOL     OW 1813   2.496   1.092   0.639  0.0140  0.1599  0.0520
  442SOL    HW2 1814   2.448   1.088   0.557  0.0799  0.8946 -0.0257
  442SOL    HW3 1815   2.504   1.185   0.658  1.5844  0.0508 -0.0302
  442SOL    MW4 1816   2.490   1.104   0.631  0.2298  0.2424  0.0309
  443SOL     OW 1817   0.249   0.308   0.378  0.5105 -0.6604  0.5723
  443SOL    HW2 1818   0.242   0.328   0.284  1.0776 -1.0438  0.4437
  443SOL    HW3 1819   0.202   0.226   0.388  0.5253 -0.6650  0.6028
  443SOL    MW4 1820   0.242   0.300   0.367  0.5872 -0.7116  0.5593
  444SOL     OW 1821   2.261   1.953   1.184  0.0252  0.1534 -0.3363
  444SOL    HW2 1822   2.173   1.987   1.197 -0.8037 -1.1557 -2.3365
  444SOL    HW3 1823   2.275   1.958   1.089  2.5478  1.4101  0.0559
  444SOL    MW4 1824   2.251   1.958   1.173  0.2484  0.1466 -0.5485
  445SOL     OW 1825   1.546   2.893   0.512  0.3507 -0.0069 -0.1244
  445SOL    HW2 1826   1.552   2.806   0.552  0.5335  0.2196  0.3509
  445SOL    HW3 1827   1.477   2.884   0.446 -1.7296  0.2512  1.9427
  445SOL    MW4 1828   1.537   2.880   0.509  0.1004  0.0570  0.2109
  446SOL     OW 1829   3.641   0.876   0.533  0.1547  0.3305 -0.5746
  446SOL    HW2 1830   3.695   0.798   0.517  1.4025  0.9333  0.5971
  446SOL    HW3 1831   3.552   0.842   0.544  0.9860 -1.1257  1.8589
  446SOL    MW4 1832   3.637   0.861   0.532  0.4289  0.2179 -0.0989
  447SOL     OW 1833   3.333   1.804   0.806  0.4197 -0.2776  0.5634
  447SOL    HW2 1834   3.344   1.747   0.730  2.1572 -0.5342  0.9860
  447SOL    HW3 1835   3.422   1.829   0.831 -0.2657  2.1782  0.7249
  447SOL    MW4 1836   3.346   1.800   0.799  0.5584  0.0125  0.6405
  448SOL     OW 1837   1.815   0.358   0.849 -0.6633  0.0846 -0.0083
  448SOL    HW2 1838   1.890   0.325   0.799 -0.4136  1.4513 -0.5805
  448SOL    HW3 1839   1.739   0.318   0.809 -0.3055 -0.4947 -0.1117
  448SOL    MW4 1840   1.815   0.349   0.837 -0.5832  0.1885 -0.0975
  449SOL     OW 1841   3.682   3.409   0.936 -0.1162 -0.2297 -0.0854
  449SOL    HW2 1842   3.628   3.355   0.879 -0.1784 -0.1983 -0.0567
  449SOL    HW3 1843   3.717   3.477   0.877  0.1246 -0.4217 -0.1607
  449SOL    MW4 1844   3.679   3.411   0.920 -0.0927 -0.2511 -0.0916
  450SOL     OW 1845   3.127   3.088   0.766  0.5388  0.1827 -0.4452
  450SOL    HW2 1846   3.060   3.119   0.827  1.0173  0.0441  0.1478
  450SOL    HW3 1847   3.209   3.123   0.800  1.2521 -2.5990  0.8817
  450SOL    MW4 1848   3.129   3.097   0.779  0.6962 -0.2024 -0.1919
  451SOL     OW 1849   0.517   2.756   0.664 -0.4055 -0.1232 -0.1201
  451SOL    HW2 1850   0.522   2.810   0.585 -0.4993 -0.5311 -0.4050
  451SOL    HW3 1851   0.494   2.668   0.632  1.0023 -0.6226  0.2320
  451SOL    MW4 1852   0.514   2.751   0.649 -0.2322 -0.2429 -0.1113
  452SOL     OW 1853   0.374   2.780   1.146 -0.5181  0.2270  0.0479
  452SOL    HW2 1854   0.339   2.809   1.062  0.6847  1.3205 -0.0759
  452SOL    HW3 1855   0.337   2.840   1.210 -0.1379  0.3963  0.1084
  452SOL    MW4 1856   0.364   2.792   1.143 -0.3092  0.3936  0.0396
  453SOL     OW 1857   0.815   2.758   0.465 -0.1666 -0.3835  0.3489
  453SOL    HW2 1858   0.807   2.751   0.560  0.6078 -0.6611  0.3913
  453SOL    HW3 1859   0.811   2.668   0.433 -1.5117 -0.2227  0.0256
  453SOL    MW4 1860   0.814   2.745   0.473 -0.2419 -0.3989  0.3119
  454SOL     OW 1861   0.172   0.765   0.852  0.0000  0.4262  0.0662
  454SOL    HW2 1862   0.135   0.678   0.840  1.8155 -0.2228 -0.8999
  454SOL    HW3 1863   0.110   0.823   0.807 -0.9583 -0.3981  0.2911
  454SOL    MW4 1864   0.159   0.761   0.845  0.1131  0.2318 -0.0315
  455SOL     OW 1865   0.941   1.617   0.833 -0.6003 -0.4488  0.0768
  455SOL    HW2 1866   0.889   1.560   0.889 -0.2269 -0.8665  0.0058
  455SOL    HW3 1867   0.907   1.602   0.745 -1.3453  0.3846  0.2185
  455SOL    MW4 1868   0.930   1.608   0.829 -0.6492 -0.3940  0.0861
  456SOL     OW 1869   1.543   2.095   0.574  0.2526  0.4611 -0.3399
  456SOL    HW2 1870   1.539   2.021   0.634 -0.5198  1.5231  0.9420
  456SOL    HW3 1871   1.588   2.061   0.497  1.1953 -0.9371  0.8061
  456SOL    MW4 1872   1.548   2.081   0.572  0.2750  0.4165 -0.0196
  457SOL     OW 1873   4.380   2.389   0.898  0.1702 -0.3659  0.1391
  457SOL    HW2 1874   4.474   2.373   0.906  0.2782 -0.2513 -0.8195
  457SOL    HW3 1875   4.358   2.359   0.810 -0.2620  1.6163 -0.4442
  457SOL    MW4 1876   4.390   2.383   0.887  0.1278 -0.0892 -0.0643
  458SOL     OW 1877   3.145   1.096   0.653 -0.9928 -0.0427 -0.1867
  458SOL    HW2 1878   3.205   1.142   0.594 -0.7317  0.8434  0.7672
  458SOL    HW3 1879   3.058   1.114   0.617 -0.8413  0.5597 -0.2581
  458SOL    MW4 1880   3.142   1.104   0.640 -0.9387  0.1537 -0.0702
  459SOL     OW 1881   3.630   3.999   1.297  0.1262 -0.1017 -0.1928
  459SOL    HW2 1882   3.616   4.010   1.391 -0.5219 -2.0070 -0.0438
  459SOL    HW3 1883   3.562   3.937   1.270  0.0752  0.7044 -1.9952
  459SOL    MW4 1884   3.619   3.993   1.306  0.0339 -0.2465 -0.4109
  460SOL     OW 1885   3.628   3.579   0.169  0.2506  0.3635 -0.0756
  460SOL    HW2 1886   3.712   3.556   0.210 -0.5069  0.4009  1.5686
  460SOL    HW3 1887   3.614   3.512   0.103  1.3594  0.0948 -0.0577
  460SOL    MW4 1888   3.637   3.567   0.166  0.2973  0.3328  0.1437
  461SOL     OW 1889   3.237   3.462   0.175  0.0366 -0.6694 -0.3273
  461SOL    HW2 1890   3.267   3.374   0.151 -1.1888 -0.9841 -0.7848
  461SOL    HW3 1891   3.176   3.486   0.105  0.3450  0.5458 -0.1917
  461SOL    MW4 1892   3.233   3.453   0.162 -0.0846 -0.5507 -0.3697
  462SOL     OW 1893   2.214   2.650   0.855 -0.1851 -0.3900 -0.0168
  462SOL    HW2 1894   2.203   2.558   0.881  1.2041 -0.4453  0.3915
  462SOL    HW3 1895   2.299   2.652   0.810  0.9000  1.1292  2.0391
  462SOL    MW4 1896   2.224   2.638   0.852  0.1411 -0.1967  0.3083
  463SOL     OW 1897   3.301   2.789   0.413 -0.0931 -0.7984  0.0806
  463SOL    HW2 1898   3.258   2.827   0.490  0.3922 -1.4229  0.6693
  463SOL    HW3 1899   3.392   2.820   0.419 -0.1749 -0.4430 -0.5170
  463SOL    MW4 1900   3.307   2.798   0.424 -0.0398 -0.8340  0.0794
  464SOL     OW 1901   4.068   1.922   0.820 -0.2607  0.2163 -0.2164
  464SOL    HW2 1902   3.979   1.891   0.804  0.4037 -1.2588 -1.1437
  464SOL    HW3 1903   4.078   1.921   0.915 -0.3030 -2.3176 -0.2104
  464SOL    MW4 1904   4.058   1.918   0.830 -0.1788 -0.3126 -0.3379
  465SOL     OW 1905   2.379   0.629   0.513 -0.2663 -0.1163 -0.3268
  465SOL    HW2 1906   2.313   0.690   0.478  0.6235  0.4250 -1.1100
  465SOL    HW3 1907   2.412   0.583   0.435  1.3453  0.7028 -0.1595
  465SOL    MW4 1908   2.375   0.631   0.498  0.0639  0.0632 -0.4081
  466SOL     OW 1909   3.758   0.165   0.727 -0.1936 -0.2103 -0.3723
  466SOL    HW2 1910   3.803   0.113   0.793 -0.9711 -0.2929  0.0945
  466SOL    HW3 1911   3.717   0.236   0.776 -3.1777 -1.8626 -0.3459
  466SOL    MW4 1912   3.758   0.167   0.742 -0.6902 -0.4392 -0.3073
  467SOL     OW 1913   4.094   1.434   0.771 -0.2822 -0.2063 -0.3955
  467SOL    HW2 1914   4.055   1.466   0.690 -0.3176  0.3222 -0.1775
  467SOL    HW3 1915   4.163   1.498   0.791  0.7718 -1.1829 -0.8263
  467SOL    MW4 1916   4.098   1.447   0.763 -0.1478 -0.2655 -0.4236
  468SOL     OW 1917   3.869   1.556   0.878 -0.0066  0.1536 -0.0798
  468SOL    HW2 1918   3.953   1.520   0.849 -1.1219 -1.6357 -1.2056
  468SOL    HW3 1919   3.856   1.633   0.823  0.4327 -0.1513 -0.6199
  468SOL    MW4 1920   3.878   1.561   0.867 -0.0958 -0.1228 -0.2996
  469SOL     OW 1921   1.311   2.402   0.830 -0.1172 -0.2372 -0.0305
  469SOL    HW2 1922   1.363   2.325   0.855  1.1320 -0.2449 -2.4887
  469SOL    HW3 1923   1.220   2.377   0.850  0.6182 -0.8542  2.7588
  469SOL    MW4 1924   1.306   2.388   0.836  0.1446 -0.3195  0.0133
  470SOL     OW 1925   0.713   1.460   0.943 -0.0100  0.4730 -0.6813
  470SOL    HW2 1926   0.650   1.486   0.875 -0.8905  1.5087  0.5006
  470SOL    HW3 1927   0.727   1.366   0.928 -1.5118  0.3194 -1.2325
  470SOL    MW4 1928   0.707   1.451   0.932 -0.3243  0.5895 -0.5981
  471SOL     OW 1929   0.206   0.810   1.129 -0.2007  0.3255  0.2316
  471SOL    HW2 1930   0.139   0.870   1.161  1.2343  2.1857 -0.2161
  471SOL    HW3 1931   0.197   0.811   1.034 -0.1470 -0.1469  0.2177
  471SOL    MW4 1932   0.196   0.818   1.121 -0.0043  0.5085  0.1706
  472SOL     OW 1933   2.773   3.781   0.552  0.2771  0.1783 -0.3075
  472SOL    HW2 1934   2.856   3.746   0.521  0.2498  0.5016 -0.7508
  472SOL    HW3 1935   2.720   3.791   0.472  0.0465  0.5867 -0.1043
  472SOL    MW4 1936   2.777   3.778   0.537  0.2432  0.2749 -0.3392
  473SOL     OW 1937   3.831   1.810   0.738 -0.7464  0.1524  0.3236
  473SOL    HW2 1938   3.751   1.823   0.789 -0.8897  1.0911 -0.1328
  473SOL    HW3 1939   3.803   1.821   0.647 -0.4105 -1.1138  0.0636
  473SOL    MW4 1940   3.816   1.813   0.733 -0.7210  0.1092  0.2291
  474SOL     OW 1941   1.386   0.220   1.173  0.3756 -0.3969  0.0431
  474SOL    HW2 1942   1.310   0.163   1.165  0.5594 -0.6443  0.0469
  474SOL    HW3 1943   1.461   0.163   1.158  0.5999 -0.3071  0.8002
  474SOL    MW4 1944   1.386   0.205   1.170  0.4295 -0.4177  0.1434
  475SOL     OW 1945   1.969   2.886   1.204  0.5535  0.3779  0.6704
  475SOL    HW2 1946   1.982   2.978   1.183 -0.5368  0.6966  1.3029
  475SOL    HW3 1947   2.051   2.843   1.180 -0.2622  0.8680 -3.1886
  475SOL    MW4 1948   1.981   2.892   1.198  0.3020  0.4845  0.2447
  476SOL     OW 1949   2.138   0.058   0.316 -0.0200 -0.1412  0.0851
  476SOL    HW2 1950   2.161   0.075   0.225 -1.1423  0.7989 -0.0289
  476SOL    HW3 1951   2.221   0.036   0.358  0.4639 -0.8489 -1.2172
  476SOL    MW4 1952   2.152   0.057   0.309 -0.1044 -0.1106 -0.1017
  477SOL     OW 1953   2.159   3.552   0.608 -0.2864 -0.1683 -0.3085
  477SOL    HW2 1954   2.130   3.496   0.680  3.1452 -1.2470  0.3197
  477SOL    HW3 1955   2.138   3.501   0.529 -0.7278 -0.5974  0.0814
  477SOL    MW4 1956   2.152   3.538   0.607  0.1080 -0.3672 -0.1741
  478SOL     OW 1957   0.383   2.511   0.545  0.1586  0.0586  0.5813
  478SOL    HW2 1958   0.419   2.461   0.472 -0.0280  0.8617 -0.0728
  478SOL    HW3 1959   0.293   2.530   0.519  0.0048  0.1165  1.1424
  478SOL    MW4 1960   0.376   2.507   0.532  0.1137  0.1721  0.5690
  479SOL     OW 1961   3.234   4.232   0.921  0.2704  0.6890  0.5481
  479SOL    HW2 1962   3.237   4.310   0.867 -2.7984 -0.4753 -1.4203
  479SOL    HW3 1963   3.229   4.159   0.859  0.4573 -0.9175  2.3641
  479SOL    MW4 1964   3.234   4.233   0.906 -0.1099  0.3238  0.5280
  480SOL     OW 1965   2.339   1.077   0.403  0.0086  0.4391  0.9749
  480SOL    HW2 1966   2.295   0.993   0.416  0.1284  0.4474  1.4159
  480SOL    HW3 1967   2.402   1.060   0.333 -1.0424  0.5480 -0.0249
  480SOL    MW4 1968   2.341   1.064   0.395 -0.1144  0.4545  0.9012
  481SOL     OW 1969   1.366   4.327   0.919 -0.3710 -0.1809 -0.2618
  481SOL    HW2 1970   1.367   4.322   1.014 -2.2699 -1.2238 -0.2735
  481SOL    HW3 1971   1.291   4.274   0.893  0.1711  0.0291 -2.3455
  481SOL    MW4 1972   1.357   4.319   0.928 -0.5500 -0.2904 -0.5383
  482SOL     OW 1973   0.426   3.128   0.861  0.3049 -0.1824  0.5036
  482SOL    HW2 1974   0.409   3.039   0.891 -3.3728  0.7258  1.4089
  482SOL    HW3 1975   0.508   3.153   0.903  0.5809 -2.5976  1.4501
  482SOL    MW4 1976   0.435   3.120   0.870 -0.1439 -0.3812  0.7479
  483SOL     OW 1977   4.468   3.035   0.640  0.0174  0.6428 -0.2856
  483SOL    HW2 1978   4.486   3.042   0.734 -1.6915  1.3521 -0.0019
  483SOL    HW3 1979   4.531   3.094   0.599  1.3862 -0.3633  0.3294
  483SOL    MW4 1980   4.479   3.043   0.647 -0.0272  0.6034 -0.1671
  484SOL     OW 1981   2.107   3.321   0.425  0.5468 -0.1274  0.1765
  484SOL    HW2 1982   2.132   3.265   0.498 -0.8887 -0.0131  0.7698
  484SOL    HW3 1983   2.021   3.356   0.449  0.4797  0.6658 -1.1324
  484SOL    MW4 1984   2.099   3.319   0.438  0.3483 -0.0076  0.0821
  485SOL     OW 1985   0.619   0.060   1.163 -0.3063 -0.7826 -0.0717
  485SOL    HW2 1986   0.611  -0.034   1.147  0.9621 -0.9299  0.1677
  485SOL    HW3 1987   0.539   0.083   1.210  0.5888 -2.2342  2.2063
  485SOL    MW4 1988   0.607   0.050   1.167 -0.0207 -0.9935  0.2604
  486SOL     OW 1989   0.030   0.145   0.456 -0.5582 -0.2196  0.1981
  486SOL    HW2 1990   0.006   0.058   0.425  0.8842 -0.4897 -0.1993
  486SOL    HW3 1991   0.034   0.137   0.551  0.7106 -0.8986  0.0968
  486SOL    MW4 1992   0.027   0.132   0.464 -0.2005 -0.3448  0.1323
  487SOL     OW 1993   1.997   0.679   0.334  0.3440  0.0188  0.0679
  487SOL    HW2 1994   1.947   0.731   0.271  1.8114  0.6250 -0.6136
  487SOL    HW3 1995   2.037   0.610   0.281  0.3073 -0.4113  0.6001
  487SOL    MW4 1996   1.995   0.677   0.319  0.5327  0.0421  0.0482
  488SOL     OW 1997   0.034   0.390   1.078  0.6262 -0.5234 -0.3417
  488SOL    HW2 1998  -0.044   0.425   1.122  0.9954 -0.3127  0.1488
  488SOL    HW3 1999   0.026   0.420   0.988  0.2192 -0.3565 -0.2514
  488SOL    MW4 2000   0.023   0.399   1.072  0.6213 -0.4736 -0.2651
  489SOL     OW 2001   0.835   0.749   0.769  0.0460  0.8269  0.2986
  489SOL    HW2 2002   0.929   0.761   0.783  0.2073 -0.0183  0.0078
  489SOL    HW3 2003   0.829   0.713   0.681 -0.2427 -2.6768  1.6618
  489SOL    MW4 2004   0.847   0.746   0.760  0.0293  0.2531  0.4401
  490SOL     OW 2005   4.276   0.783   1.120 -0.3745  0.4823 -0.0837
  490SOL    HW2 2006   4.233   0.783   1.034  1.2207  1.0850 -0.9105
  490SOL    HW3 2007   4.280   0.691   1.145 -1.1919  0.3379 -0.4894
  490SOL    MW4 2008   4.271   0.771   1.112 -0.2718  0.5428 -0.2463
  491SOL     OW 2009   4.297   1.605   1.121 -0.0597  0.2938 -0.2149
  491SOL    HW2 2010   4.286   1.512   1.140  0.7237  0.1150 -0.5957
  491SOL    HW3 2011   4.298   1.609   1.025 -0.8024  0.7842 -0.2048
  491SOL    MW4 2012   4.295   1.593   1.111 -0.0544  0.3349 -0.2636
  492SOL     OW 2013   4.454   0.946   1.243 -0.0217 -0.0483  0.3648
  492SOL    HW2 2014   4.394   0.890   1.193  0.6888  0.4014 -1.0303
  492SOL    HW3 2015   4.433   0.928   1.334  0.8023 -3.2873  0.0002
  492SOL    MW4 2016   4.443   0.936   1.248  0.1802 -0.4163  0.1328
  493SOL     OW 2017   0.646   0.168   0.905  0.0267  0.2492 -0.1687
  493SOL    HW2 2018   0.611   0.135   0.987 -1.7116  0.2327 -0.8947
  493SOL    HW3 2019   0.708   0.101   0.877 -1.3596 -1.0420 -0.2042
  493SOL    MW4 2020   0.649   0.155   0.912 -0.3856  0.0767 -0.2691
  494SOL     OW 2021   4.277   0.556   0.707 -0.1956 -0.0850 -0.1874
  494SOL    HW2 2022   4.216   0.483   0.700 -1.7344  1.0374  1.0861
  494SOL    HW3 2023   4.288   0.588   0.618  0.9172 -2.1949 -0.8277
  494SOL    MW4 2024   4.270   0.551   0.694 -0.2518 -0.2152 -0.1039
  495SOL     OW 2025   0.760   2.473   0.417  0.0907 -0.1375 -0.4859
  495SOL    HW2 2026   0.790   2.385   0.440  0.4914 -0.0836 -0.7945
  495SOL    HW3 2027   0.669   2.461   0.391  0.1056 -0.4421 -0.4009
  495SOL    MW4 2028   0.752   2.460   0.417  0.1455 -0.1707 -0.5154
  496SOL     OW 2029   0.278   2.094   1.531  0.1078 -0.1803  0.1488
  496SOL    HW2 2030   0.255   2.077   1.440 -0.0031  0.2853  0.0857
  496SOL    HW3 2031   0.215   2.042   1.582 -1.2062  1.1892 -0.0249
  496SOL    MW4 2032   0.266   2.085   1.526 -0.0802  0.0615  0.1175
  497SOL     OW 2033   0.486   1.924   1.142  0.5446  0.7293 -0.0521
  497SOL    HW2 2034   0.554   1.972   1.190 -0.5083  0.1058  2.1354
  497SOL    HW3 2035   0.405   1.970   1.161 -0.6988 -2.5123  3.1629
  497SOL    MW4 2036   0.484   1.936   1.151  0.2416  0.2192  0.6607
  498SOL     OW 2037   3.827   3.596   0.815 -0.5700  0.0039 -0.0078
  498SOL    HW2 2038   3.833   3.603   0.720  2.4893 -0.5169  0.1010
  498SOL    HW3 2039   3.917   3.592   0.845 -1.3963  2.3095  3.1208
  498SOL    MW4 2040   3.839   3.597   0.807 -0.2756  0.2394  0.4194
  499SOL     OW 2041   0.011   2.988   1.136  0.1212 -0.2041 -0.5392
  499SOL    HW2 2042  -0.084   2.979   1.146  0.0755  0.7070 -0.0687
  499SOL    HW3 2043   0.039   2.906   1.096 -0.9818 -0.1337 -1.4824
  499SOL    MW4 2044   0.002   2.976   1.132 -0.0303 -0.0744 -0.6014
  500SOL     OW 2045   0.277   3.007   1.306  0.5180 -0.3842  0.1169
  500SOL    HW2 2046   0.255   2.988   1.398 -0.6676 -1.5903 -0.3994
  500SOL    HW3 2047   0.193   3.005   1.261  1.2699 -1.3598 -1.2691
  500SOL    MW4 2048   0.263   3.004   1.312  0.4607 -0.6721 -0.1341
  501SOL     OW 2049   0.253   3.395   1.163  0.4437  0.2666  0.4794
  501SOL    HW2 2050   0.279   3.485   1.181 -1.3893  0.8854  0.2122
  501SOL    HW3 2051   0.261   3.387   1.068 -1.4522  0.8656  0.2394
  501SOL    MW4 2052   0.257   3.406   1.152 -0.0482  0.4272  0.4125
  502SOL     OW 2053   4.484   3.368   1.263 -0.1534 -0.2059  0.0595
  502SOL    HW2 2054   4.459   3.360   1.171  0.4537 -0.3371 -0.0989
  502SOL    HW3 2055   4.580   3.371   1.261 -0.1817  1.6399  0.5456
  502SOL    MW4 2056   4.494   3.367   1.251 -0.0768  0.0203  0.1026
  503SOL     OW 2057   3.957   4.431   0.957 -0.2476  0.2144 -0.5016
  503SOL    HW2 2058   3.964   4.379   1.037  1.4237  0.2587 -0.6033
  503SOL    HW3 2059   3.929   4.368   0.890 -2.9954  0.4415  0.3559
  503SOL    MW4 2060   3.954   4.416   0.958 -0.3898  0.2503 -0.4018
  504SOL     OW 2061   0.354   3.629   1.262  0.2623 -0.5515 -0.2477
  504SOL    HW2 2062   0.318   3.714   1.236 -0.2095 -0.7907 -0.3817
  504SOL    HW3 2063   0.312   3.610   1.346  0.7492 -0.4187  0.0277
  504SOL    MW4 2064   0.343   3.638   1.270  0.2643 -0.5653 -0.2290
  505SOL     OW 2065   0.679   1.813   0.486  0.4945  0.0878  0.0805
  505SOL    HW2 2066   0.665   1.885   0.424  0.9175  0.1427  0.0439
  505SOL    HW3 2067   0.603   1.756   0.475 -0.2998  0.9925  0.7511
  505SOL    MW4 2068   0.667   1.815   0.477  0.4455  0.2145  0.1641
  506SOL     OW 2069   0.461   4.374   1.210  0.2580 -0.3239  0.4010
  506SOL    HW2 2070   0.464   4.300   1.271  0.6353  1.6408  2.8645
  506SOL    HW3 2071   0.372   4.372   1.174 -0.3137 -0.9192  1.8132
  506SOL    MW4 2072   0.450   4.364   1.213  0.2324 -0.1426  0.9123
  507SOL     OW 2073   0.212   4.412   1.092  0.0669  0.3860  0.0843
  507SOL    HW2 2074   0.162   4.370   1.023 -0.1911 -0.0505  0.5313
  507SOL    HW3 2075   0.173   4.380   1.173  0.3523  0.9062  0.4331
  507SOL    MW4 2076   0.201   4.402   1.094  0.0705  0.3972  0.1893
  508SOL     OW 2077   0.877   4.283   0.837 -0.2825 -0.5991  0.1019
  508SOL    HW2 2078   0.822   4.213   0.803 -0.6457 -0.2883  0.0354
  508SOL    HW3 2079   0.885   4.265   0.931 -1.9761  0.3224  0.4514
  508SOL    MW4 2080   0.871   4.272   0.845 -0.5539 -0.4363  0.1392
  509SOL     OW 2081   1.420   0.844   0.815  0.0059  0.6958 -0.1589
  509SOL    HW2 2082   1.440   0.853   0.722  0.1648  3.2027  0.0812
  509SOL    HW3 2083   1.506   0.843   0.858 -0.0551 -0.7854 -0.0455
  509SOL    MW4 2084   1.434   0.845   0.809  0.0188  0.8312 -0.1122
  510SOL     OW 2085   4.403   3.529   0.781 -0.4254 -0.0111 -0.4702
  510SOL    HW2 2086   4.416   3.482   0.864  0.7008  0.0694 -0.5866
  510SOL    HW3 2087   4.418   3.621   0.803  1.0597 -0.1139 -0.9920
  510SOL    MW4 2088   4.407   3.535   0.795 -0.0806 -0.0141 -0.5544
  511SOL     OW 2089   0.120   0.697   0.450  0.0166  0.1408  0.1093
  511SOL    HW2 2090   0.124   0.671   0.358  1.9984  0.4922  0.0614
  511SOL    HW3 2091   0.107   0.792   0.447 -0.9772  0.0113  0.2108
  511SOL    MW4 2092   0.119   0.706   0.438  0.1469  0.1701  0.1164
  512SOL     OW 2093   0.341   4.065   0.565  0.4579 -0.4635 -0.1732
  512SOL    HW2 2094   0.259   4.099   0.529  1.1179 -1.1921 -2.4622
  512SOL    HW3 2095   0.337   4.085   0.658 -2.0445  0.0512 -0.3718
  512SOL    MW4 2096   0.330   4.072   0.572  0.2148 -0.4921 -0.5014
  513SOL     OW 2097   2.958   0.507   0.786 -0.1566  0.1425 -0.7893
  513SOL    HW2 2098   2.934   0.599   0.778 -0.6860 -0.0511 -1.5774
  513SOL    HW3 2099   2.933   0.469   0.701 -1.6486 -1.1015  0.1765
  513SOL    MW4 2100   2.951   0.514   0.774 -0.4232 -0.0472 -0.7659
  514SOL     OW 2101   0.362   4.653   0.841  0.3056  0.3558  0.3162
  514SOL    HW2 2102   0.444   4.611   0.817  0.4619 -0.0925  1.5849
  514SOL    HW3 2103   0.362   4.735   0.792  2.2581  1.0999  1.4877
  514SOL    MW4 2104   0.373   4.658   0.832  0.5839  0.3953  0.6381
  515SOL     OW 2105   0.685   1.262   1.309  0.0090 -0.2857 -0.7434
  515SOL    HW2 2106   0.678   1.350   1.272 -1.3006  0.0717  0.3180
  515SOL    HW3 2107   0.766   1.227   1.272  0.0856  1.0357 -1.8607
  515SOL    MW4 2108   0.695   1.269   1.299 -0.1537 -0.0641 -0.7509
  516SOL     OW 2109   1.151   1.269   1.338 -0.2982 -0.4279 -0.1225
  516SOL    HW2 2110   1.170   1.352   1.294  1.5166 -1.5767 -1.5807
  516SOL    HW3 2111   1.142   1.292   1.430  0.5029  1.3325 -0.4656
  516SOL    MW4 2112   1.152   1.283   1.344  0.0468 -0.3473 -0.3600
  517SOL     OW 2113   1.512   2.280   1.140  0.1941  0.3474  0.2221
  517SOL    HW2 2114   1.522   2.203   1.195 -1.2961  1.7083  2.4990
  517SOL    HW3 2115   1.444   2.332   1.184 -0.4212  1.8986 -2.4525
  517SOL    MW4 2116   1.504   2.277   1.153 -0.0837  0.7315  0.1698
  518SOL     OW 2117   1.760   1.086   0.938 -0.1634  0.2217  0.0833
  518SOL    HW2 2118   1.707   1.162   0.913  0.4331  0.2357 -1.1725
  518SOL    HW3 2119   1.835   1.089   0.879  0.6611 -0.4510  1.0893
  518SOL    MW4 2120   1.763   1.097   0.927  0.0242  0.1348  0.0503
  519SOL     OW 2121   0.670   2.311   1.145  0.3487 -0.2038  0.2389
  519SOL    HW2 2122   0.691   2.221   1.170  0.4645  0.0041  0.8953
  519SOL    HW3 2123   0.608   2.340   1.212  1.6306  0.7890  1.0162
  519SOL    MW4 2124   0.664   2.303   1.157  0.5332 -0.0455  0.4281
  520SOL     OW 2125   0.697   2.059   1.266 -0.4420  0.0758 -0.3035
  520SOL    HW2 2126   0.764   1.993   1.250  0.5442  0.9501  0.1482
  520SOL    HW3 2127   0.675   2.050   1.358  0.5909  1.1725  0.0707
  520SOL    MW4 2128   0.703   2.049   1.276 -0.1757  0.3359 -0.1945
  521SOL     OW 2129   0.584   2.285   0.872 -0.5037  0.0376 -0.0244
  521SOL    HW2 2130   0.615   2.285   0.962  1.0099  0.2243 -0.5223
  521SOL    HW3 2131   0.658   2.319   0.821 -1.4545  0.2503 -1.2899
  521SOL    MW4 2132   0.598   2.289   0.877 -0.4294  0.0901 -0.2571
  522SOL     OW 2133   0.470   2.326   0.357  0.2960 -0.0617  0.3683
  522SOL    HW2 2134   0.525   2.259   0.317  2.2515  1.6130  0.1821
  522SOL    HW3 2135   0.382   2.290   0.354  0.8889 -1.4163 -2.3442
  522SOL    MW4 2136   0.466   2.313   0.351  0.6322 -0.0193 -0.0142
  523SOL     OW 2137   1.518   3.391   0.722 -0.3001  0.3159 -0.2265
  523SOL    HW2 2138   1.535   3.300   0.700 -0.6657 -0.1066  1.1867
  523SOL    HW3 2139   1.603   3.425   0.751 -0.6331 -0.2187  1.4188
  523SOL    MW4 2140   1.531   3.384   0.723 -0.3922  0.1895  0.1771
  524SOL     OW 2141   0.650   2.839   1.254  0.0001  0.4276 -0.3469
  524SOL    HW2 2142   0.564   2.824   1.215 -0.1092 -2.3786  0.8698
  524SOL    HW3 2143   0.667   2.932   1.240 -3.2200  1.0151 -0.6464
  524SOL    MW4 2144   0.641   2.849   1.247 -0.4392  0.1349 -0.2258
  525SOL     OW 2145   0.683   3.115   1.245  0.1811  0.1799  0.3080
  525SOL    HW2 2146   0.768   3.159   1.246  0.1608  0.2189  0.3294
  525SOL    HW3 2147   0.620   3.185   1.263 -0.0127  0.4780 -1.4636
  525SOL    MW4 2148   0.686   3.130   1.248  0.1528  0.2246  0.0771
  526SOL     OW 2149   0.430   3.238   1.290 -0.0571  0.6330 -0.2529
  526SOL    HW2 2150   0.358   3.297   1.270 -2.5629 -1.4052  2.3290
  526SOL    HW3 2151   0.396   3.151   1.268  1.9889 -0.2663  0.0515
  526SOL    MW4 2152   0.416   3.234   1.284 -0.1178  0.2451  0.1279
  527SOL     OW 2153   0.910   3.547   0.925 -0.0107 -0.1003  0.1043
  527SOL    HW2 2154   0.968   3.475   0.898 -1.4960 -1.5732  0.7260
  527SOL    HW3 2155   0.822   3.516   0.903 -0.6218  1.8140 -0.1905
  527SOL    MW4 2156   0.906   3.533   0.918 -0.2872 -0.0417  0.1474
  528SOL     OW 2157   0.644   3.647   1.254  0.5449  0.1159 -0.0657
  528SOL    HW2 2158   0.670   3.630   1.345  1.0084  0.8778 -0.0474
  528SOL    HW3 2159   0.549   3.634   1.253  0.3204  1.5012  0.8753
  528SOL    MW4 2160   0.635   3.643   1.266  0.5764  0.3991  0.0610
  529SOL     OW 2161   1.094   0.108   0.325 -0.5750 -0.0711  0.6646
  529SOL    HW2 2162   1.167   0.046   0.331  0.4122  0.7827 -1.9625
  529SOL    HW3 2163   1.022   0.064   0.370  0.3235 -2.8158 -0.4821
  529SOL    MW4 2164   1.094   0.094   0.332 -0.3262 -0.3206  0.1667
  530SOL     OW 2165   0.238   0.265   0.827  0.5325 -0.4055  0.4132
  530SOL    HW2 2166   0.240   0.316   0.745  1.5014  0.1270  0.7604
  530SOL    HW3 2167   0.317   0.293   0.874 -0.1097 -0.5844  1.6076
  530SOL    MW4 2168   0.249   0.276   0.822  0.5756 -0.3589  0.6167
  531SOL     OW 2169   0.725   4.403   1.318  0.3819 -0.0536  0.0206
  531SOL    HW2 2170   0.632   4.411   1.297  0.7666  0.5044 -1.6008
  531SOL    HW3 2171   0.730   4.410   1.413 -1.2830 -0.6108  0.1506
  531SOL    MW4 2172   0.714   4.405   1.328  0.2130 -0.0534 -0.1762
  532SOL     OW 2173   3.304   3.728   0.556  0.5921 -0.0138 -0.0311
  532SOL    HW2 2174   3.303   3.820   0.530  1.4169  0.1103  0.3586
  532SOL    HW3 2175   3.357   3.685   0.489 -0.2884 -0.3076 -0.5415
  532SOL    MW4 2176   3.311   3.734   0.544  0.5848 -0.0362 -0.0470
  533SOL     OW 2177   4.015   4.463   0.581 -0.2383  0.2666  0.1237
  533SOL    HW2 2178   3.948   4.452   0.514  0.7856 -0.5910 -0.7612
  533SOL    HW3 2179   4.060   4.544   0.557 -0.2648  0.2815  0.1243
  533SOL    MW4 2180   4.012   4.472   0.569 -0.1073  0.1554  0.0070
  534SOL     OW 2181   1.150   0.369   0.450 -0.1794 -0.4228  0.7004
  534SOL    HW2 2182   1.067   0.387   0.493  0.0283  0.2749  0.8076
  534SOL    HW3 2183   1.140   0.280   0.415 -1.0945 -0.2037  0.3939
  534SOL    MW4 2184   1.138   0.359   0.451 -0.2728 -0.3018  0.6741
  535SOL     OW 2185   0.669   0.536   1.286  0.2791 -0.4111 -0.2818
  535SOL    HW2 2186   0.740   0.501   1.231  0.8115 -0.4154  0.4019
  535SOL    HW3 2187   0.682   0.631   1.283  0.5970 -0.4397  0.2257
  535SOL    MW4 2188   0.680   0.544   1.278  0.3913 -0.4155 -0.1246
  536SOL     OW 2189   1.114   0.529   1.221  0.2160 -0.2432  0.3612
  536SOL    HW2 2190   1.200   0.514   1.181  1.1048  2.7451  0.9907
  536SOL    HW3 2191   1.133   0.533   1.315 -0.7767 -0.5585  0.5723
  536SOL    MW4 2192   1.128   0.528   1.228  0.2021  0.1095  0.4722
  537SOL     OW 2193   1.361   0.850   1.277  0.3548  0.4945  0.0738
  537SOL    HW2 2194   1.300   0.822   1.208  1.3351  1.0334 -1.0177
  537SOL    HW3 2195   1.447   0.827   1.243  0.9218  1.7134  0.6776
  537SOL    MW4 2196   1.364   0.843   1.263  0.5590  0.7265  0.0095
  538SOL     OW 2197   1.158   0.778   1.099 -0.7808  0.1692 -0.2032
  538SOL    HW2 2198   1.138   0.688   1.125 -0.0549  0.5906  1.8835
  538SOL    HW3 2199   1.087   0.830   1.137 -1.2919  0.4717 -1.5476
  538SOL    MW4 2200   1.146   0.773   1.107 -0.7524  0.2646 -0.1054
  539SOL     OW 2201   0.942   0.906   1.237 -0.4744 -0.6011  0.0365
  539SOL    HW2 2202   0.861   0.856   1.229 -0.8983  0.2173 -0.9096
  539SOL    HW3 2203   0.921   0.992   1.201  0.3467  0.1648  1.3253
  539SOL    MW4 2204   0.929   0.911   1.231 -0.4219 -0.3920  0.0818
  540SOL     OW 2205   1.171   1.517   1.186 -0.2996 -0.0439  0.0806
  540SOL    HW2 2206   1.082   1.551   1.197  0.4871  2.0284  0.0857
  540SOL    HW3 2207   1.180   1.507   1.091 -0.7152 -0.8061  0.1108
  540SOL    MW4 2208   1.160   1.520   1.175 -0.2506  0.1290  0.0852
  541SOL     OW 2209   0.998   0.826   0.367  0.4495  0.4062 -0.0331
  541SOL    HW2 2210   1.045   0.756   0.321  0.1813 -0.0332  0.3503
  541SOL    HW3 2211   1.061   0.858   0.432  0.1915 -0.2649  0.5626
  541SOL    MW4 2212   1.013   0.821   0.370  0.3802  0.2597  0.0961
  542SOL     OW 2213   0.895   1.606   1.269  0.1910  0.1273  0.1483
  542SOL    HW2 2214   0.892   1.688   1.219  0.4311  0.8823  1.3647
  542SOL    HW3 2215   0.809   1.567   1.255  0.1276  0.5114 -0.5625
  542SOL    MW4 2216   0.883   1.612   1.260  0.2144  0.2775  0.2151
  543SOL     OW 2217   1.844   2.043   0.855 -0.2156  0.6870  0.1357
  543SOL    HW2 2218   1.780   1.985   0.814 -0.8254  2.2063 -1.1619
  543SOL    HW3 2219   1.927   1.997   0.849 -0.9513 -0.7040  0.5591
  543SOL    MW4 2220   1.847   2.030   0.849 -0.3930  0.7041  0.0204
  544SOL     OW 2221   1.089   2.266   1.156 -0.1912  0.2396 -0.1606
  544SOL    HW2 2222   1.169   2.315   1.176 -0.2783  0.7252 -0.9977
  544SOL    HW3 2223   1.018   2.322   1.187 -0.2047 -0.2926  0.7908
  544SOL    MW4 2224   1.090   2.280   1.163 -0.2044  0.2334 -0.1454
  545SOL     OW 2225   1.313   2.435   1.241  0.8683 -0.1585  0.3282
  545SOL    HW2 2226   1.336   2.525   1.217  1.4846 -0.1398  0.9364
  545SOL    HW3 2227   1.305   2.438   1.337 -0.6008 -0.4199  0.2135
  545SOL    MW4 2228   1.315   2.447   1.251  0.7558 -0.1905  0.3933
  546SOL     OW 2229   0.893   2.460   1.235 -0.5600  0.2924  0.4133
  546SOL    HW2 2230   0.883   2.436   1.327 -1.5347 -0.0810  0.2170
  546SOL    HW3 2231   0.821   2.414   1.190 -1.0773  1.7591 -0.2964
  546SOL    MW4 2232   0.882   2.450   1.241 -0.7569  0.4370  0.2937
  547SOL     OW 2233   0.831   3.714   0.661 -0.3901  0.7240  0.0826
  547SOL    HW2 2234   0.829   3.742   0.753  1.7040 -1.4528  0.8637
  547SOL    HW3 2235   0.815   3.620   0.665  1.0697  0.3769 -1.6366
  547SOL    MW4 2236   0.829   3.705   0.674  0.0788  0.3908 -0.0412
  548SOL     OW 2237   0.915   2.742   1.173  0.2178  0.1380  0.5686
  548SOL    HW2 2238   0.907   2.647   1.169  1.0562  0.1107 -0.6263
  548SOL    HW3 2239   0.830   2.772   1.207 -0.1399 -1.0111  0.6974
  548SOL    MW4 2240   0.902   2.734   1.177  0.2812 -0.0172  0.4280
  549SOL     OW 2241   1.162   2.858   1.253 -0.9138 -0.0777  0.0088
  549SOL    HW2 2242   1.071   2.831   1.237 -1.2893  0.5588  0.9695
  549SOL    HW3 2243   1.173   2.847   1.347  0.3218 -1.0528 -0.2386
  549SOL    MW4 2244   1.151   2.853   1.263 -0.8001 -0.1223  0.1029
  550SOL     OW 2245   0.916   3.257   1.236 -0.1608 -0.1747  0.5250
  550SOL    HW2 2246   0.936   3.350   1.226  0.6071 -0.2663  1.1729
  550SOL    HW3 2247   0.989   3.212   1.193 -0.6936 -0.4808 -0.0743
  550SOL    MW4 2248   0.929   3.263   1.229 -0.1298 -0.2275  0.5313
  551SOL     OW 2249   1.126   3.677   1.283  0.1990 -0.6195  0.0487
  551SOL    HW2 2250   1.198   3.620   1.254  0.0650 -1.0961  0.6369
  551SOL    HW3 2251   1.048   3.634   1.248  0.3733  1.3947 -3.0087
  551SOL    MW4 2252   1.126   3.664   1.274  0.2043 -0.4165 -0.2770
  552SOL     OW 2253   1.113   3.948   1.202 -0.3555 -0.0525  0.0464
  552SOL    HW2 2254   1.033   3.965   1.251 -2.8571 -1.8710 -3.2704
  552SOL    HW3 2255   1.136   3.858   1.224 -1.0002 -0.5855 -1.4612
  552SOL    MW4 2256   1.106   3.939   1.211 -0.7703 -0.3629 -0.5903
  553SOL     OW 2257   1.143   4.452   1.250  0.5361  0.7094 -0.0796
  553SOL    HW2 2258   1.084   4.389   1.209  0.6808 -0.0850  0.9242
  553SOL    HW3 2259   1.120   4.451   1.343  2.4868 -0.0427  0.4324
  553SOL    MW4 2260   1.132   4.443   1.257  0.8125  0.5054  0.1205
  554SOL     OW 2261   0.151   3.447   0.659  0.0679  0.1088  0.1759
  554SOL    HW2 2262   0.068   3.471   0.698 -0.2542 -1.3133  0.3797
  554SOL    HW3 2263   0.131   3.373   0.601  1.0179  0.3735 -0.5183
  554SOL    MW4 2264   0.138   3.440   0.656  0.1507 -0.0439  0.1112
  555SOL     OW 2265   0.774   0.470   0.845  0.3183 -0.3276 -0.2290
  555SOL    HW2 2266   0.811   0.451   0.931 -0.8728  0.9060  0.5619
  555SOL    HW3 2267   0.793   0.563   0.831 -1.8444  0.1509 -0.1216
  555SOL    MW4 2268   0.782   0.480   0.855 -0.1242 -0.1017 -0.1104
  556SOL     OW 2269   1.167   0.889   0.592 -0.1396 -0.0761  0.1955
  556SOL    HW2 2270   1.141   0.976   0.621  0.9405  0.3499 -0.0731
  556SOL    HW3 2271   1.164   0.835   0.671 -1.6839 -0.0232  0.1908
  556SOL    MW4 2272   1.163   0.893   0.606 -0.2007 -0.0130  0.1594
  557SOL     OW 2273   1.362   4.297   1.186  0.1107 -0.0207 -0.2339
  557SOL    HW2 2274   1.440   4.343   1.217  0.2514 -0.5655  0.2307
  557SOL    HW3 2275   1.292   4.328   1.243  0.2359 -0.4898  0.1840
  557SOL    MW4 2276   1.363   4.307   1.198  0.1459 -0.1550 -0.1174
  558SOL     OW 2277   0.445   0.412   1.192  0.0922  0.2415 -0.6105
  558SOL    HW2 2278   0.513   0.467   1.231 -0.5294  0.8380 -0.3529
  558SOL    HW3 2279   0.363   0.459   1.210 -0.5324 -1.1953  0.3541
  558SOL    MW4 2280   0.443   0.426   1.199 -0.0722  0.1306 -0.4494
  559SOL     OW 2281   0.932   4.284   1.156 -0.0109 -0.2272  0.4746
  559SOL    HW2 2282   0.923   4.198   1.198  0.5373  0.4308  1.9812
  559SOL    HW3 2283   0.876   4.342   1.208  0.1185  0.4704 -0.1488
  559SOL    MW4 2284   0.923   4.280   1.169  0.0786 -0.0482  0.5912
  560SOL     OW 2285   1.597   0.528   1.280 -0.3912 -0.5001  0.0787
  560SOL    HW2 2286   1.523   0.518   1.219 -0.2591 -0.8210 -0.0305
  560SOL    HW3 2287   1.670   0.486   1.235  0.0994  0.6572 -0.2328
  560SOL    MW4 2288   1.597   0.521   1.266 -0.3091 -0.3897  0.0232
  561SOL     OW 2289   1.829   0.918   1.243  0.4029 -0.3069  0.1745
  561SOL    HW2 2290   1.834   0.906   1.338 -0.1915  1.4624  0.4427
  561SOL    HW3 2291   1.750   0.870   1.218 -0.5697  0.8978  0.8742
  561SOL    MW4 2292   1.819   0.910   1.253  0.1962  0.0855  0.3022
  562SOL     OW 2293   1.335   1.120   1.187  0.1069 -0.4304 -0.1381
  562SOL    HW2 2294   1.324   1.034   1.228  1.5330  0.1104  1.4160
  562SOL    HW3 2295   1.273   1.177   1.233  1.8857  0.2340  1.5030
  562SOL    MW4 2296   1.325   1.116   1.198  0.5298 -0.2713  0.2835
  563SOL     OW 2297   0.927   1.182   1.174  0.0455  0.2249 -0.2449
  563SOL    HW2 2298   0.975   1.217   1.249 -0.8396 -0.4731  0.6613
  563SOL    HW3 2299   0.988   1.189   1.100  0.5467  1.8973  0.3195
  563SOL    MW4 2300   0.941   1.187   1.174 -0.0051  0.3535 -0.0508
  564SOL     OW 2301   1.551   1.285   1.288 -0.2130 -0.3028  0.3903
  564SOL    HW2 2302   1.627   1.239   1.251  0.2159  1.7550 -1.4215
  564SOL    HW3 2303   1.477   1.229   1.267  0.5859 -1.4806  0.6195
  564SOL    MW4 2304   1.552   1.272   1.280 -0.0510 -0.1867  0.1816
  565SOL     OW 2305   1.606   1.545   1.181  0.1026 -0.2878  0.3229
  565SOL    HW2 2306   1.642   1.530   1.093 -1.1894 -0.3179 -0.2048
  565SOL    HW3 2307   1.570   1.460   1.206 -0.8298  0.0993  0.2854
  565SOL    MW4 2308   1.606   1.532   1.173 -0.1910 -0.2408  0.2482
  566SOL     OW 2309   0.604   0.787   0.947  0.2935 -0.3586  0.4307
  566SOL    HW2 2310   0.685   0.772   0.899  0.4107 -0.9411  0.8107
  566SOL    HW3 2311   0.586   0.881   0.936  0.0132 -0.5895 -1.2522
  566SOL    MW4 2312   0.612   0.798   0.939  0.2719 -0.4659  0.2588
  567SOL     OW 2313   1.342   1.925   1.172  0.2608 -0.3039  0.0091
  567SOL    HW2 2314   1.260   1.962   1.205  0.8396  0.5432  0.5426
  567SOL    HW3 2315   1.343   1.835   1.204  0.5968  0.3726  1.9658
  567SOL    MW4 2316   1.331   1.918   1.181  0.3816 -0.1029  0.3377
  568SOL     OW 2317   1.105   0.742   0.811 -0.5814  0.1352  0.0740
  568SOL    HW2 2318   1.121   0.769   0.902 -0.2376 -1.7345  0.5928
  568SOL    HW3 2319   1.132   0.650   0.808  0.4081  0.4674 -2.1996
  568SOL    MW4 2320   1.110   0.733   0.823 -0.4054 -0.0677 -0.1575
  569SOL     OW 2321   1.786   1.994   1.130 -0.0595  0.2143 -0.0073
  569SOL    HW2 2322   1.808   2.016   1.039  1.5720  1.1490  0.5931
  569SOL    HW3 2323   1.869   2.001   1.177 -1.1841  1.3004  1.8593
  569SOL    MW4 2324   1.800   1.998   1.124  0.0073  0.4810  0.3181
  570SOL     OW 2325   1.789   2.415   1.194  0.4720 -0.3881 -0.6020
  570SOL    HW2 2326   1.787   2.505   1.162  0.6966 -0.1813 -0.0195
  570SOL    HW3 2327   1.699   2.383   1.179  0.3114  0.0252 -0.5209
  570SOL    MW4 2328   1.777   2.423   1.188  0.4803 -0.3064 -0.5143
  571SOL     OW 2329   1.610   2.861   1.259  0.2896  0.7097  0.1352
  571SOL    HW2 2330   1.645   2.807   1.189 -0.4566  0.2720  0.0933
  571SOL    HW3 2331   1.610   2.950   1.222  0.2927  0.5441 -0.2729
  571SOL    MW4 2332   1.614   2.866   1.245  0.1915  0.6299  0.0757
  572SOL     OW 2333   1.345   0.567   0.821  0.5515 -0.5321 -0.2323
  572SOL    HW2 2334   1.368   0.659   0.810 -0.5393 -0.2717 -0.3896
  572SOL    HW3 2335   1.386   0.522   0.747  1.2884 -0.2170 -0.0224
  572SOL    MW4 2336   1.353   0.573   0.810  0.5049 -0.4562 -0.2253
  573SOL     OW 2337   3.273   0.220   0.422 -0.1188 -0.0432  0.0967
  573SOL    HW2 2338   3.341   0.154   0.437  1.2437  1.1340 -0.7849
  573SOL    HW3 2339   3.298   0.295   0.476 -0.4305  0.5910 -0.6197
  573SOL    MW4 2340   3.285   0.221   0.431  0.0200  0.1958 -0.1141
  574SOL     OW 2341   1.341   3.261   1.254 -0.4137  0.2386 -0.7353
  574SOL    HW2 2342   1.342   3.232   1.345  0.4604  1.2592 -0.4038
  574SOL    HW3 2343   1.263   3.221   1.217  0.2135 -1.6666 -0.0341
  574SOL    MW4 2344   1.331   3.252   1.261 -0.2156  0.1218 -0.5990
  575SOL     OW 2345   1.329   3.525   1.188 -0.6072  0.2495  0.0948
  575SOL    HW2 2346   1.343   3.529   1.093  0.6865  1.2691  0.3245
  575SOL    HW3 2347   1.327   3.431   1.208 -0.7862  0.0337 -0.9300
  575SOL    MW4 2348   1.331   3.513   1.178 -0.4601  0.3557 -0.0101
  576SOL     OW 2349   1.575   3.651   1.269  0.4512 -0.4503  0.0526
  576SOL    HW2 2350   1.547   3.739   1.241 -0.1302 -0.4383  0.6632
  576SOL    HW3 2351   1.498   3.596   1.253  1.2339 -1.1114 -1.5374
  576SOL    MW4 2352   1.561   3.655   1.263  0.4778 -0.5362 -0.0765
  577SOL     OW 2353   2.716   4.263   0.888 -0.2283 -0.5502  0.4284
  577SOL    HW2 2354   2.741   4.247   0.978  1.5018 -1.8113 -0.2519
  577SOL    HW3 2355   2.709   4.176   0.849 -2.6773 -0.1013 -0.2264
  577SOL    MW4 2356   2.718   4.250   0.894 -0.3235 -0.6571  0.2522
  578SOL     OW 2357   1.523   3.891   1.168 -0.3217  0.1814 -0.0372
  578SOL    HW2 2358   1.460   3.940   1.221 -0.1930 -1.3180  1.5476
  578SOL    HW3 2359   1.609   3.914   1.205 -0.2187 -0.7232  0.3007
  578SOL    MW4 2360   1.526   3.900   1.180 -0.2910 -0.1359  0.2165
  579SOL     OW 2361   0.001   0.128   1.181  0.5696  0.4375  0.0647
  579SOL    HW2 2362   0.007   0.222   1.163 -0.8135  0.6119  0.4596
  579SOL    HW3 2363   0.083   0.092   1.148  0.6985  1.6482 -0.9616
  579SOL    MW4 2364   0.013   0.135   1.174  0.4039  0.6202 -0.0187
  580SOL     OW 2365   0.855   0.200   1.222 -0.4810  0.0459 -0.1521
  580SOL    HW2 2366   0.776   0.156   1.191 -0.4878  0.0263 -0.1062
  580SOL    HW3 2367   0.858   0.182   1.316  0.0244 -0.6522 -0.2925
  580SOL    MW4 2368   0.845   0.192   1.230 -0.4152 -0.0488 -0.1646
  581SOL     OW 2369   1.692   0.819   0.903 -0.3523  0.8543  0.4110
  581SOL    HW2 2370   1.733   0.904   0.917 -0.9676  1.2556 -0.1975
  581SOL    HW3 2371   1.746   0.777   0.836 -0.8182  1.3108 -0.2608
  581SOL    MW4 2372   1.704   0.824   0.896 -0.4948  0.9675  0.2421
  582SOL     OW 2373   1.827   0.112   1.241 -0.1918  0.1439 -0.8965
  582SOL    HW2 2374   1.875   0.060   1.176  1.8895 -0.3239  0.9585
  582SOL    HW3 2375   1.830   0.201   1.206  1.2103 -0.0467 -1.3127
  582SOL    MW4 2376   1.834   0.117   1.227  0.2677  0.0571 -0.7066
  583SOL     OW 2377   1.794   0.377   1.137  0.2907  0.2273  0.1751
  583SOL    HW2 2378   1.805   0.381   1.042  0.1454 -3.5044 -0.0695
  583SOL    HW3 2379   1.860   0.437   1.171  0.5657  1.3711 -2.2395
  583SOL    MW4 2380   1.804   0.386   1.129  0.3077 -0.1141 -0.1758
  584SOL     OW 2381   2.024   1.605   0.878  0.1517 -0.8232 -0.2620
  584SOL    HW2 2382   2.040   1.699   0.884 -1.5118 -0.6025  1.4246
  584SOL    HW3 2383   1.987   1.581   0.964 -2.7396 -2.3052 -1.8166
  584SOL    MW4 2384   2.021   1.614   0.891 -0.4494 -0.9897 -0.2446
  585SOL     OW 2385   1.993   0.535   1.243 -0.0766  0.0138  0.1291
  585SOL    HW2 2386   2.010   0.530   1.337 -1.0505  0.6348  0.3497
  585SOL    HW3 2387   2.000   0.628   1.222  0.6866 -0.1884 -0.5224
  585SOL    MW4 2388   1.996   0.547   1.253 -0.1043  0.0690  0.0722
  586SOL     OW 2389   2.037   0.783   1.120 -0.1549  0.2276  0.3210
  586SOL    HW2 2390   1.955   0.821   1.154 -0.0110  1.9083 -1.1523
  586SOL    HW3 2391   2.012   0.743   1.037  0.3613  0.0181  0.2665
  586SOL    MW4 2392   2.023   0.783   1.114 -0.0679  0.4218  0.1193
  587SOL     OW 2393   2.203   1.194   0.900 -0.0550  0.2342 -0.2448
  587SOL    HW2 2394   2.136   1.170   0.836  1.5071 -0.7844 -1.5662
  587SOL    HW3 2395   2.266   1.121   0.896 -0.4711 -0.4079  3.2777
  587SOL    MW4 2396   2.203   1.181   0.891  0.0963  0.0151  0.0456
  588SOL     OW 2397   2.018   1.330   1.285  0.6480  0.2615  0.1728
  588SOL    HW2 2398   2.104   1.292   1.268  0.3380 -1.0724  1.4529
  588SOL    HW3 2399   1.957   1.273   1.239  0.1388 -1.1382  2.4836
  588SOL    MW4 2400   2.021   1.317   1.277  0.5400 -0.0992  0.6467
  589SOL     OW 2401   1.988   1.582   1.147 -0.9867 -0.1731 -0.6078
  589SOL    HW2 2402   1.980   1.495   1.188  2.5689  0.0976  0.7897
  589SOL    HW3 2403   1.917   1.633   1.187  1.3591 -0.3677  4.2410
  589SOL    MW4 2404   1.977   1.577   1.158 -0.2081 -0.1631  0.2162
  590SOL     OW 2405   1.782   1.734   1.275  0.2826 -0.6182 -0.6883
  590SOL    HW2 2406   1.774   1.805   1.212 -1.8179  0.5896  0.8444
  590SOL    HW3 2407   1.714   1.672   1.250 -0.6051 -0.1030  0.3704
  590SOL    MW4 2408   1.772   1.735   1.264 -0.1115 -0.3909 -0.3464
  591SOL     OW 2409   1.877   1.506   0.644  0.4255 -0.0409 -0.7539
  591SOL    HW2 2410   1.884   1.522   0.739 -0.3844 -0.2458 -0.6593
  591SOL    HW3 2411   1.967   1.517   0.612  1.0723 -1.8433  0.3194
  591SOL    MW4 2412   1.890   1.510   0.653  0.4040 -0.3057 -0.5997
  592SOL     OW 2413   2.021   2.061   1.255 -0.4640 -0.1894  0.3323
  592SOL    HW2 2414   2.015   2.146   1.211 -3.0181 -0.5255 -0.0590
  592SOL    HW3 2415   2.012   2.082   1.348 -0.7218 -0.0041  0.2659
  592SOL    MW4 2416   2.019   2.075   1.262 -0.8349 -0.2093  0.2720
  593SOL     OW 2417   3.786   3.827   0.944 -0.0277  0.2748 -0.1793
  593SOL    HW2 2418   3.785   3.738   0.908  0.0515  0.3415 -0.3448
  593SOL    HW3 2419   3.732   3.878   0.883 -0.5104  0.2270  0.2038
  593SOL    MW4 2420   3.779   3.822   0.931 -0.0811  0.2775 -0.1507
  594SOL     OW 2421   2.847   1.783   0.432 -0.5789  0.3111 -0.0544
  594SOL    HW2 2422   2.849   1.818   0.521 -1.0277 -1.1460  0.5405
  594SOL    HW3 2423   2.771   1.825   0.391 -0.6984  0.5539  0.4143
  594SOL    MW4 2424   2.837   1.793   0.438 -0.6537  0.1508  0.0859
  595SOL     OW 2425   0.433   3.786   0.591 -0.5044 -0.1911  0.3026
  595SOL    HW2 2426   0.514   3.780   0.539 -0.3969 -1.0217  0.5615
  595SOL    HW3 2427   0.389   3.863   0.556 -0.6433 -0.9834 -1.3378
  595SOL    MW4 2428   0.438   3.796   0.579 -0.5085 -0.4053  0.1203
  596SOL     OW 2429   1.803   2.702   1.597  0.3375  0.1765  0.4714
  596SOL    HW2 2430   1.877   2.744   1.553  1.1537 -1.1069  0.5935
  596SOL    HW3 2431   1.795   2.617   1.554 -0.7531  0.1154  0.7948
  596SOL    MW4 2432   1.812   2.696   1.585  0.3012 -0.0005  0.5302
  597SOL     OW 2433   2.809   4.485   0.524  0.5308 -0.1585  0.5378
  597SOL    HW2 2434   2.789   4.578   0.523  1.7469  0.1217 -0.6935
  597SOL    HW3 2435   2.725   4.442   0.506 -0.0365  0.6970  1.1167
  597SOL    MW4 2436   2.795   4.491   0.521  0.6163 -0.0086  0.4517
  598SOL     OW 2437   1.771   3.238   1.225 -0.3878 -0.0397 -0.1424
  598SOL    HW2 2438   1.789   3.231   1.318 -0.4648 -0.8197 -0.1845
  598SOL    HW3 2439   1.768   3.332   1.208 -0.6497  0.1030  0.6923
  598SOL    MW4 2440   1.773   3.250   1.235 -0.4326 -0.1237 -0.0379
  599SOL     OW 2441   1.779   3.498   1.156 -0.3056  0.1902  0.0958
  599SOL    HW2 2442   1.866   3.529   1.180 -0.0032 -0.5195 -0.0736
  599SOL    HW3 2443   1.719   3.553   1.206  0.3049 -1.3090  2.5830
  599SOL    MW4 2444   1.783   3.509   1.166 -0.1851 -0.1013  0.4016
  600SOL     OW 2445   2.041   3.591   1.219  0.0799 -0.4018 -0.2104
  600SOL    HW2 2446   2.027   3.594   1.314  1.3028  0.7218 -0.0555
  600SOL    HW3 2447   2.121   3.539   1.208 -1.3724 -2.5990 -0.7979
  600SOL    MW4 2448   2.050   3.584   1.230  0.0496 -0.5434 -0.2675
  601SOL     OW 2449   2.021   3.859   1.129  0.7792  0.0045  0.1912
  601SOL    HW2 2450   1.932   3.890   1.147  1.1116  0.7588  0.5841
  601SOL    HW3 2451   2.021   3.768   1.159  0.0052 -0.1528 -0.2559
  601SOL    MW4 2452   2.009   3.851   1.135  0.7210  0.0834  0.1841
  602SOL     OW 2453   1.772   3.980   1.215 -0.1411  0.0368 -0.1825
  602SOL    HW2 2454   1.781   4.074   1.202 -0.8488  0.4511  2.0593
  602SOL    HW3 2455   1.785   3.968   1.309 -0.6882 -2.0221 -0.3542
  602SOL    MW4 2456   1.775   3.991   1.226 -0.3068 -0.1802  0.0907
  603SOL     OW 2457   1.615   4.421   1.239  0.4293  0.6233 -0.2898
  603SOL    HW2 2458   1.611   4.515   1.220  0.8234  0.5735 -0.6166
  603SOL    HW3 2459   1.606   4.415   1.334 -1.4352  0.8830 -0.4207
  603SOL    MW4 2460   1.613   4.433   1.249  0.2352  0.6509 -0.3502
  604SOL     OW 2461   2.263   4.208   1.167 -0.1633 -0.1187 -0.2692
  604SOL    HW2 2462   2.204   4.271   1.207 -0.8717 -0.8577 -0.1261
  604SOL    HW3 2463   2.264   4.230   1.074 -0.3996  0.1004 -0.2183
  604SOL    MW4 2464   2.256   4.219   1.160 -0.2880 -0.1869 -0.2437
  605SOL     OW 2465   2.481   4.636   1.150 -0.2128 -0.2459 -0.0127
  605SOL    HW2 2466   2.396   4.676   1.167 -1.0750 -1.1812 -1.8418
  605SOL    HW3 2467   2.545   4.701   1.177 -1.5541  2.2493 -2.5029
  605SOL    MW4 2468   2.478   4.650   1.156 -0.5035 -0.0401 -0.5825
  606SOL     OW 2469   2.239   0.095   1.203 -0.3300 -0.1983  0.5473
  606SOL    HW2 2470   2.217   0.188   1.192 -0.1338 -0.3409 -1.1057
  606SOL    HW3 2471   2.168   0.048   1.158 -0.0479 -0.8344  0.7570
  606SOL    MW4 2472   2.226   0.101   1.196 -0.2666 -0.3011  0.3569
  607SOL     OW 2473   2.220   0.378   1.153 -0.2728  0.1377  0.6086
  607SOL    HW2 2474   2.150   0.442   1.171  1.3966  1.9172  0.9325
  607SOL    HW3 2475   2.227   0.376   1.058  0.3810  1.2671  0.6197
  607SOL    MW4 2476   2.212   0.386   1.143  0.0339  0.5215  0.6528
  608SOL     OW 2477   2.496   0.757   1.122  0.0709 -0.1040  0.6039
  608SOL    HW2 2478   2.484   0.673   1.166 -1.2396  0.2105  0.8669
  608SOL    HW3 2479   2.509   0.735   1.030 -1.0477 -0.5686  0.5447
  608SOL    MW4 2480   2.496   0.743   1.116 -0.2496 -0.1239  0.6307
  609SOL     OW 2481   2.463   0.523   1.243  0.0269  0.5057 -0.4192
  609SOL    HW2 2482   2.454   0.534   1.338 -1.3685 -0.1097 -0.4759
  609SOL    HW3 2483   2.382   0.482   1.216  0.7978 -0.1371 -1.7679
  609SOL    MW4 2484   2.451   0.519   1.252 -0.0558  0.3397 -0.6046
  610SOL     OW 2485   2.277   0.902   1.225 -0.0628 -0.3363 -0.6923
  610SOL    HW2 2486   2.346   0.850   1.185  0.2505  0.4764 -1.2156
  610SOL    HW3 2487   2.197   0.871   1.182  0.4458  1.6965 -3.2176
  610SOL    MW4 2488   2.275   0.891   1.214  0.0455  0.0392 -1.0946
  611SOL     OW 2489   2.238   1.188   1.197  0.4413 -0.1513 -0.2491
  611SOL    HW2 2490   2.204   1.207   1.109 -1.1623  0.7440  0.5348
  611SOL    HW3 2491   2.246   1.093   1.200 -1.9188 -0.3954 -0.5330
  611SOL    MW4 2492   2.235   1.178   1.186 -0.0818 -0.0653 -0.1831
  612SOL     OW 2493   2.477   1.268   1.319 -0.2923  0.0947  0.2604
  612SOL    HW2 2494   2.554   1.231   1.276  0.0227  0.1659  0.7615
  612SOL    HW3 2495   2.403   1.237   1.266  0.0974  0.2802 -0.3993
  612SOL    MW4 2496   2.477   1.259   1.306 -0.1993  0.1285  0.2395
  613SOL     OW 2497   3.351   1.566   0.972 -0.0990 -0.1933  0.2331
  613SOL    HW2 2498   3.375   1.647   0.927 -0.8304  0.9006  1.7437
  613SOL    HW3 2499   3.280   1.530   0.919 -1.0494  1.1448  0.5640
  613SOL    MW4 2500   3.345   1.572   0.959 -0.3209  0.1277  0.4760
  614SOL     OW 2501   2.488   1.527   1.236  0.2486  0.1047 -0.5806
  614SOL    HW2 2502   2.498   1.433   1.251  2.1698  0.5933  1.5783
  614SOL    HW3 2503   2.395   1.544   1.246  0.1273 -1.2964  0.7224
  614SOL    MW4 2504   2.477   1.517   1.239  0.4861 -0.0156 -0.1237
  615SOL     OW 2505   2.809   1.457   0.732 -0.1487 -0.2261 -0.0019
  615SOL    HW2 2506   2.842   1.449   0.643 -1.3971  0.5846 -0.5592
  615SOL    HW3 2507   2.874   1.510   0.777 -0.5643  1.1997 -1.0288
  615SOL    MW4 2508   2.822   1.463   0.726 -0.3684  0.0689 -0.2109
  616SOL     OW 2509   2.476   2.121   1.262  0.2873  0.0489  0.1492
  616SOL    HW2 2510   2.558   2.089   1.225  0.3953  0.9849 -0.4562
  616SOL    HW3 2511   2.408   2.070   1.219  0.4907  0.1168 -0.2529
  616SOL    MW4 2512   2.478   2.110   1.252  0.3285  0.1812  0.0163
  617SOL     OW 2513   2.432   2.378   1.149  0.1006  0.3539 -0.2601
  617SOL    HW2 2514   2.444   2.293   1.191 -1.2699  0.6533  0.7792
  617SOL    HW3 2515   2.436   2.359   1.055 -1.8961 -1.1418 -0.0779
  617SOL    MW4 2516   2.434   2.364   1.142 -0.3438  0.1962 -0.0988
  618SOL     OW 2517   2.194   2.512   1.225 -0.9592 -0.1632 -0.4284
  618SOL    HW2 2518   2.186   2.497   1.319 -0.7810  1.2842 -0.1684
  618SOL    HW3 2519   2.272   2.462   1.199 -0.4328  0.2185  0.3880
  618SOL    MW4 2520   2.203   2.504   1.234 -0.8662  0.0782 -0.2865
  619SOL     OW 2521   0.462   1.474   0.233 -0.4609  0.7545  0.2790
  619SOL    HW2 2522   0.389   1.413   0.234 -0.3062  0.5716  0.6689
  619SOL    HW3 2523   0.507   1.457   0.150 -0.4684  0.4000  0.3475
  619SOL    MW4 2524   0.458   1.464   0.222 -0.4415  0.6835  0.3395
  620SOL     OW 2525   2.207   2.768   1.110 -0.5173  0.0043 -0.3192
  620SOL    HW2 2526   2.206   2.683   1.156 -0.3360  0.8955  1.3943
  620SOL    HW3 2527   2.220   2.745   1.018  2.1598 -1.7384  0.4082
  620SOL    MW4 2528   2.209   2.754   1.104 -0.1402 -0.1080  0.0029
  621SOL     OW 2529   2.450   2.831   1.209  0.2158  0.5591 -0.5595
  621SOL    HW2 2530   2.368   2.820   1.162  0.7694  0.7629 -1.5897
  621SOL    HW3 2531   2.425   2.837   1.301 -0.7563 -1.4361 -0.6777
  621SOL    MW4 2532   2.436   2.830   1.215  0.1605  0.3226 -0.7108
  622SOL     OW 2533   2.982   3.609   0.808 -0.1075 -0.1162 -0.2112
  622SOL    HW2 2534   3.058   3.555   0.829 -1.1848 -1.2126  0.9286
  622SOL    HW3 2535   2.982   3.614   0.712  2.0310  0.8427 -0.1780
  622SOL    MW4 2536   2.992   3.603   0.798  0.0327 -0.1345 -0.0564
  623SOL     OW 2537   2.280   3.451   1.185 -0.1506 -0.5259 -0.1614
  623SOL    HW2 2538   2.354   3.505   1.215 -1.2749  0.7105  0.4185
  623SOL    HW3 2539   2.288   3.451   1.089  0.4681 -0.2175 -0.1142
  623SOL    MW4 2540   2.291   3.458   1.176 -0.2174 -0.3221 -0.0787
  624SOL     OW 2541   2.482   3.596   1.277  0.1359 -0.1816 -0.0943
  624SOL    HW2 2542   2.483   3.607   1.372  0.3400  0.2719 -0.1466
  624SOL    HW3 2543   2.486   3.685   1.243 -0.6402 -0.3094 -0.5305
  624SOL    MW4 2544   2.483   3.609   1.285  0.0603 -0.1388 -0.1587
  625SOL     OW 2545   2.490   3.833   1.164 -0.3445  0.4228 -0.4119
  625SOL    HW2 2546   2.407   3.857   1.206  0.4207  1.6099  0.4280
  625SOL    HW3 2547   2.475   3.850   1.071 -0.8954  1.0566 -0.2104
  625SOL    MW4 2548   2.477   3.838   1.157 -0.3161  0.6628 -0.2745
  626SOL     OW 2549   2.243   3.958   1.261 -0.1388  0.1984  0.5178
  626SOL    HW2 2550   2.232   4.051   1.238  1.4926  0.1398 -0.6176
  626SOL    HW3 2551   2.164   3.916   1.228 -1.2648  1.2948  1.7447
  626SOL    MW4 2552   2.231   3.965   1.254 -0.0722  0.3352  0.5299
  627SOL     OW 2553   4.040   0.748   0.441 -0.3323 -0.2385  0.0570
  627SOL    HW2 2554   4.127   0.708   0.433  0.7104  1.4978  2.1575
  627SOL    HW3 2555   4.047   0.806   0.517 -2.6641  1.6818 -1.1315
  627SOL    MW4 2556   4.052   0.750   0.450 -0.5021  0.2439  0.1774
  628SOL     OW 2557   2.469   4.360   1.265  0.4587  0.3639  0.0826
  628SOL    HW2 2558   2.398   4.302   1.238 -1.0352  0.8903  2.6793
  628SOL    HW3 2559   2.461   4.437   1.208  0.1868 -0.4303 -0.9560
  628SOL    MW4 2560   2.459   4.363   1.254  0.2255  0.3285  0.2882
  629SOL     OW 2561   2.954   0.030   1.168 -0.4470 -0.3012  0.1597
  629SOL    HW2 2562   2.921  -0.046   1.215 -0.0717  0.1175  1.1358
  629SOL    HW3 2563   2.962   0.002   1.077  0.1586 -1.5802  0.5928
  629SOL    MW4 2564   2.951   0.017   1.163 -0.3176 -0.4148  0.3458
  630SOL     OW 2565   2.704   0.125   1.203 -0.1617 -0.5143 -0.1083
  630SOL    HW2 2566   2.711   0.151   1.295  0.9173 -0.0131 -0.3148
  630SOL    HW3 2567   2.793   0.099   1.179  0.0099  1.2368 -1.5291
  630SOL    MW4 2568   2.716   0.125   1.212  0.0033 -0.2171 -0.3229
  631SOL     OW 2569   2.677   0.387   1.139 -0.1079  0.0474  0.1854
  631SOL    HW2 2570   2.679   0.296   1.169  0.3464  0.4564  1.4396
  631SOL    HW3 2571   2.611   0.428   1.194 -0.2960  0.4797 -0.3669
  631SOL    MW4 2572   2.669   0.380   1.150 -0.0725  0.1584  0.2781
  632SOL     OW 2573   2.915   0.512   1.226  0.1179 -0.7330 -0.3113
  632SOL    HW2 2574   2.915   0.586   1.166  0.6081 -0.2673  0.2620
  632SOL    HW3 2575   2.846   0.454   1.192  0.0467 -0.2422 -1.0239
  632SOL    MW4 2576   2.906   0.514   1.213  0.1731 -0.6068 -0.3296
  633SOL     OW 2577   2.930   0.750   1.087 -0.2204 -0.5075  0.6079
  633SOL    HW2 2578   3.015   0.778   1.122  0.9106 -1.2438 -1.4257
  633SOL    HW3 2579   2.865   0.792   1.143  1.4843  1.1759  1.3689
  633SOL    MW4 2580   2.933   0.759   1.099  0.1535 -0.3825  0.4399
  634SOL     OW 2581   2.719   0.874   1.235  0.2054  0.2060  0.1115
  634SOL    HW2 2582   2.709   0.966   1.209 -0.9646 -0.1976 -0.9240
  634SOL    HW3 2583   2.640   0.831   1.201  0.7785 -1.1987  0.5296
  634SOL    MW4 2584   2.707   0.880   1.227  0.1268 -0.0326  0.0300
  635SOL     OW 2585   0.277   1.425   0.731 -0.0556 -0.4597  0.5456
  635SOL    HW2 2586   0.206   1.456   0.788 -0.9495 -1.3636 -0.0509
  635SOL    HW3 2587   0.257   1.463   0.645 -0.0209 -1.0072  0.2929
  635SOL    MW4 2588   0.265   1.434   0.727 -0.1690 -0.6511  0.4336
  636SOL     OW 2589   2.932   1.291   1.313 -0.3506  0.0827  0.1518
  636SOL    HW2 2590   3.008   1.238   1.287 -0.4520 -0.5195  1.0315
  636SOL    HW3 2591   2.946   1.308   1.406 -0.9426  0.5707  0.1526
  636SOL    MW4 2592   2.944   1.286   1.322 -0.4423  0.0677  0.2679
  637SOL     OW 2593   4.016   1.132   0.462 -0.3169  0.1165  0.4009
  637SOL    HW2 2594   4.101   1.128   0.417 -0.9433 -0.0566 -0.7743
  637SOL    HW3 2595   4.019   1.060   0.524 -0.3640 -1.1038 -0.9951
  637SOL    MW4 2596   4.028   1.122   0.464 -0.4063 -0.0676  0.0616
  638SOL     OW 2597   2.704   1.708   1.288  0.1214  0.1891 -0.2585
  638SOL    HW2 2598   2.784   1.668   1.254  0.8468  0.9107  0.5905
  638SOL    HW3 2599   2.634   1.651   1.256  0.9473 -0.2783 -1.2573
  638SOL    MW4 2600   2.705   1.695   1.279  0.3262  0.2226 -0.2784
  639SOL     OW 2601   2.719   1.276   0.905  0.3314 -0.1787 -0.0186
  639SOL    HW2 2602   2.636   1.320   0.919 -0.8074 -1.2554 -2.9579
  639SOL    HW3 2603   2.766   1.333   0.844  1.1202 -0.3196  0.4520
  639SOL    MW4 2604   2.715   1.289   0.899  0.2849 -0.3394 -0.3443
  640SOL     OW 2605   2.932   2.085   1.231 -0.0557  0.1467 -0.0057
  640SOL    HW2 2606   2.921   2.176   1.202  0.3918  0.2986  0.2911
  640SOL    HW3 2607   2.899   2.084   1.321  1.3060  0.3621  0.5127
  640SOL    MW4 2608   2.926   2.097   1.239  0.1831  0.1953  0.1018
  641SOL     OW 2609   2.944   2.341   1.121  0.5055  0.1477  0.2947
  641SOL    HW2 2610   3.031   2.377   1.137  0.6086  0.0255  0.0074
  641SOL    HW3 2611   2.884   2.403   1.164  0.7065  0.4342  0.1640
  641SOL    MW4 2612   2.948   2.354   1.129  0.5455  0.1693  0.2396
  642SOL     OW 2613   2.686   2.460   1.228 -0.3070  0.2415 -0.1311
  642SOL    HW2 2614   2.685   2.468   1.323 -1.5673 -0.8127 -0.0478
  642SOL    HW3 2615   2.594   2.453   1.203 -0.0029  0.7462 -1.4540
  642SOL    MW4 2616   2.674   2.460   1.237 -0.4330  0.1690 -0.2947
  643SOL     OW 2617   2.665   2.700   1.104 -0.4686 -0.4167  0.1474
  643SOL    HW2 2618   2.680   2.622   1.158 -0.2140  0.1065  0.8497
  643SOL    HW3 2619   2.590   2.743   1.144 -0.3154 -0.0532  0.0478
  643SOL    MW4 2620   2.657   2.695   1.116 -0.4148 -0.2999  0.2270
  644SOL     OW 2621   2.890   2.828   1.225  0.2150  0.5840  0.0889
  644SOL    HW2 2622   2.863   2.829   1.317  0.9855  0.2710  0.3162
  644SOL    HW3 2623   2.810   2.805   1.177  0.4112 -1.8213  0.8861
  644SOL    MW4 2624   2.876   2.825   1.230  0.3426  0.2253  0.2241
  645SOL     OW 2625   2.912   3.098   1.177  0.1171  0.1086 -0.2285
  645SOL    HW2 2626   2.921   3.006   1.202  1.3062  0.3144  0.1069
  645SOL    HW3 2627   2.915   3.097   1.081  0.2835 -0.1764 -0.2215
  645SOL    MW4 2628   2.914   3.086   1.168  0.2961  0.0980 -0.1835
  646SOL     OW 2629   2.730   3.464   1.204 -0.0390  0.4162 -0.2451
  646SOL    HW2 2630   2.641   3.497   1.216 -0.0010  0.4645 -0.0947
  646SOL    HW3 2631   2.741   3.457   1.109 -0.1865  0.4567 -0.2638
  646SOL    MW4 2632   2.720   3.468   1.193 -0.0534  0.4280 -0.2277
  647SOL     OW 2633   2.681   3.201   1.250 -0.2628 -0.0959 -0.3422
  647SOL    HW2 2634   2.698   3.294   1.241 -1.0903 -0.0045 -0.9470
  647SOL    HW3 2635   2.762   3.159   1.221  0.2505  0.4315  0.2942
  647SOL    MW4 2636   2.694   3.207   1.245 -0.3042 -0.0143 -0.3380
  648SOL     OW 2637   2.949   3.606   1.295  0.0446 -0.1303  0.1837
  648SOL    HW2 2638   2.953   3.696   1.262  0.3147 -0.4771 -0.7721
  648SOL    HW3 2639   2.864   3.573   1.265 -0.8920  0.4102  2.1814
  648SOL    MW4 2640   2.939   3.614   1.286 -0.0432 -0.1047  0.3211
  649SOL     OW 2641   2.965   3.859   1.174 -0.2555  0.1398  0.2213
  649SOL    HW2 2642   3.028   3.925   1.202 -0.6799 -0.0582  1.7206
  649SOL    HW3 2643   2.964   3.865   1.079  1.1415  0.9584  0.2447
  649SOL    MW4 2644   2.973   3.868   1.165 -0.1271  0.2217  0.4221
  650SOL     OW 2645   2.714   3.981   1.273 -0.1634  0.2109 -0.3091
  650SOL    HW2 2646   2.648   3.920   1.241 -0.1660  0.4928 -0.8484
  650SOL    HW3 2647   2.798   3.940   1.251 -0.1644  0.3104 -0.4999
  650SOL    MW4 2648   2.716   3.967   1.266 -0.1638  0.2613 -0.4054
  651SOL     OW 2649   2.703   4.254   1.180 -0.0681 -0.0622 -0.2006
  651SOL    HW2 2650   2.710   4.164   1.211 -0.9508 -0.3063 -0.7002
  651SOL    HW3 2651   2.620   4.286   1.216 -0.9216 -0.2258 -1.9646
  651SOL    MW4 2652   2.693   4.247   1.189 -0.2971 -0.1163 -0.4992
  652SOL     OW 2653   2.911   4.432   1.260  0.0803  0.2425 -0.4758
  652SOL    HW2 2654   2.988   4.394   1.217  1.0245  0.6286  0.8492
  652SOL    HW3 2655   2.843   4.365   1.251  0.9277 -0.6159 -0.5755
  652SOL    MW4 2656   2.912   4.418   1.253  0.3169  0.1807 -0.3142
  653SOL     OW 2657   3.363   4.652   1.171 -0.3192  0.3681 -0.2076
  653SOL    HW2 2658   3.344   4.643   1.078 -0.8250 -0.9655  0.0084
  653SOL    HW3 2659   3.309   4.726   1.200 -0.0904  0.8355 -0.9913
  653SOL    MW4 2660   3.353   4.661   1.163 -0.3557  0.2537 -0.2825
  654SOL     OW 2661   3.180   0.163   1.288  0.1930 -0.1299  0.1621
  654SOL    HW2 2662   3.178   0.168   1.384  1.5541 -1.0767  0.2603
  654SOL    HW3 2663   3.102   0.112   1.266 -1.4107  2.0622  0.5865
  654SOL    MW4 2664   3.169   0.157   1.298  0.1612  0.0344  0.2310
  655SOL     OW 2665   3.175   0.424   1.132  0.0108 -0.2426 -0.2216
  655SOL    HW2 2666   3.189   0.336   1.168  1.7122  0.4270  0.8067
  655SOL    HW3 2667   3.092   0.452   1.171 -0.6439 -1.4651 -0.7034
  655SOL    MW4 2668   3.165   0.416   1.142  0.1485 -0.3156 -0.1495
  656SOL     OW 2669   3.390   0.526   1.246  0.5851 -0.0371  0.1406
  656SOL    HW2 2670   3.394   0.617   1.216  0.7813 -0.5978 -1.6108
  656SOL    HW3 2671   3.308   0.492   1.211  0.6352 -0.6107  0.5659
  656SOL    MW4 2672   3.380   0.533   1.237  0.6180 -0.1867 -0.0342
  657SOL     OW 2673   3.398   0.787   1.159 -0.0841 -0.6745 -0.4728
  657SOL    HW2 2674   3.391   0.778   1.064  0.6323  0.8574 -0.6888
  657SOL    HW3 2675   3.309   0.808   1.188 -0.3135 -1.1973 -0.7974
  657SOL    MW4 2676   3.385   0.789   1.150 -0.0198 -0.5414 -0.5441
  658SOL     OW 2677   3.134   0.853   1.241 -0.4051 -0.6716  0.1227
  658SOL    HW2 2678   3.126   0.849   1.336  0.3218 -0.8131  0.1817
  658SOL    HW3 2679   3.146   0.946   1.221  0.8435 -0.7871  0.2926
  658SOL    MW4 2680   3.134   0.865   1.251 -0.1442 -0.7055  0.1531
  659SOL     OW 2681   3.347   1.533   1.244  0.3592  0.0620  0.2535
  659SOL    HW2 2682   3.357   1.535   1.149 -1.5736  0.4056  0.0269
  659SOL    HW3 2683   3.419   1.586   1.277  0.9191  0.1187 -1.0353
  659SOL    MW4 2684   3.358   1.541   1.236  0.1779  0.1148  0.0535
  660SOL     OW 2685   4.025   1.898   0.258  0.1666 -0.1791  0.5345
  660SOL    HW2 2686   4.042   1.953   0.181 -0.2817 -0.4988  0.2038
  660SOL    HW3 2687   3.947   1.847   0.234  0.0294 -0.2837  1.1970
  660SOL    MW4 2688   4.017   1.899   0.244  0.0896 -0.2350  0.5783
  661SOL     OW 2689   3.829   0.519   1.255 -0.3255  0.1705  0.2747
  661SOL    HW2 2690   3.898   0.464   1.217 -1.4467 -1.3026  0.2960
  661SOL    HW3 2691   3.835   0.601   1.207 -0.0884 -0.7764 -1.3754
  661SOL    MW4 2692   3.839   0.522   1.244 -0.4423 -0.1488  0.0600
  662SOL     OW 2693   3.124   1.693   1.280 -0.4413 -0.4381 -0.0047
  662SOL    HW2 2694   3.126   1.701   1.375 -0.6390 -1.1485  0.0673
  662SOL    HW3 2695   3.194   1.630   1.260  1.9994  2.4019 -0.6498
  662SOL    MW4 2696   3.133   1.685   1.290 -0.1454 -0.1570 -0.0805
  663SOL     OW 2697   3.341   2.058   1.239  0.1237  0.0710  0.1015
  663SOL    HW2 2698   3.260   2.017   1.207 -0.3456 -0.9844  2.5345
  663SOL    HW3 2699   3.352   2.135   1.184 -3.7084  1.4313  1.0911
  663SOL    MW4 2700   3.332   2.063   1.227 -0.4439  0.1113  0.5531
  664SOL     OW 2701   3.562   1.907   1.142  0.2037 -0.3751 -0.1214
  664SOL    HW2 2702   3.492   1.969   1.163  0.1581 -0.5000  0.1022
  664SOL    HW3 2703   3.642   1.953   1.166  0.0445 -1.2895  2.3288
  664SOL    MW4 2704   3.563   1.921   1.148  0.1767 -0.5121  0.2314
  665SOL     OW 2705   3.379   2.289   1.111 -0.1754 -0.0341  0.4996
  665SOL    HW2 2706   3.463   2.330   1.129 -0.0429 -0.0416 -0.0858
  665SOL    HW3 2707   3.314   2.351   1.144  0.0371  0.4098  0.0811
  665SOL    MW4 2708   3.381   2.303   1.118 -0.1299  0.0231  0.3672
  666SOL     OW 2709   3.179   2.460   1.198  0.5025  0.1315  0.5706
  666SOL    HW2 2710   3.166   2.555   1.189 -3.3168 -0.5070 -1.6774
  666SOL    HW3 2711   3.171   2.444   1.292 -0.9101  1.7601  0.7478
  666SOL    MW4 2712   3.177   2.471   1.209 -0.1881  0.2620  0.2973
  667SOL     OW 2713   3.309   1.210   0.435 -0.1790 -0.3729  0.0132
  667SOL    HW2 2714   3.256   1.184   0.360  0.6065  0.8810 -1.0111
  667SOL    HW3 2715   3.399   1.185   0.411 -0.1255 -1.3215  1.1800
  667SOL    MW4 2716   3.314   1.203   0.422 -0.0684 -0.3326  0.0320
  668SOL     OW 2717   3.368   2.831   1.234  0.1091 -0.0388  0.2859
  668SOL    HW2 2718   3.378   2.917   1.193  0.6801  0.6330  1.8011
  668SOL    HW3 2719   3.290   2.794   1.194 -1.7507  2.3268  1.5779
  668SOL    MW4 2720   3.359   2.837   1.223 -0.0610  0.3622  0.6562
  669SOL     OW 2721   3.370   3.098   1.145  0.1675  0.1931  0.3802
  669SOL    HW2 2722   3.437   3.158   1.177  1.3358  0.0955 -1.8510
  669SOL    HW3 2723   3.288   3.131   1.184  1.2454  1.3092  1.7360
  669SOL    MW4 2724   3.368   3.110   1.155  0.4640  0.3273  0.2648
  670SOL     OW 2725   3.139   3.213   1.253  0.0080  0.1682 -0.2636
  670SOL    HW2 2726   3.139   3.300   1.214 -0.6390  0.6949  0.8651
  670SOL    HW3 2727   3.056   3.174   1.226  0.3232 -0.1212 -0.8158
  670SOL    MW4 2728   3.128   3.219   1.245 -0.0358  0.1993 -0.1876
  671SOL     OW 2729   3.147   3.476   1.173 -0.0485  0.3193 -0.3883
  671SOL    HW2 2730   3.229   3.511   1.208  0.4774 -0.8358 -0.4519
  671SOL    HW3 2731   3.080   3.531   1.212  0.7156  0.8601  0.1958
  671SOL    MW4 2732   3.149   3.488   1.183  0.1218  0.2382 -0.3196
  672SOL     OW 2733   3.391   3.568   1.307  0.4104  0.6727 -0.2641
  672SOL    HW2 2734   3.394   3.583   1.402  2.5548  0.8584 -0.3320
  672SOL    HW3 2735   3.476   3.530   1.286 -0.6971 -0.9976 -1.8670
  672SOL    MW4 2736   3.403   3.565   1.317  0.5472  0.4771 -0.4845
  673SOL     OW 2737   3.412   3.846   1.210 -0.4702 -0.0245 -0.3599
  673SOL    HW2 2738   3.334   3.893   1.239 -0.0634  0.2678  0.2820
  673SOL    HW3 2739   3.400   3.757   1.242  0.8919  0.7609  2.5177
  673SOL    MW4 2740   3.400   3.841   1.218 -0.2367  0.1175  0.1044
  674SOL     OW 2741   3.171   4.027   1.280  0.1379  0.2553 -0.4595
  674SOL    HW2 2742   3.165   4.032   1.376 -1.7875 -1.9350 -0.4300
  674SOL    HW3 2743   3.148   4.115   1.250 -2.2170  0.1800  1.0091
  674SOL    MW4 2744   3.167   4.039   1.289 -0.4268 -0.0439 -0.2618
  675SOL     OW 2745   3.136   4.300   1.180 -0.3737 -0.0854 -0.5202
  675SOL    HW2 2746   3.211   4.342   1.223 -0.5390  0.0086 -0.3225
  675SOL    HW3 2747   3.168   4.280   1.091 -0.5675  1.2594 -0.9043
  675SOL    MW4 2748   3.150   4.303   1.174 -0.4210  0.1044 -0.5448
  676SOL     OW 2749   3.360   4.412   1.277  0.0924 -0.0947  0.0077
  676SOL    HW2 2750   3.435   4.374   1.231  0.0016  1.4109 -1.4469
  676SOL    HW3 2751   3.357   4.503   1.246 -2.7263 -0.3216 -0.4556
  676SOL    MW4 2752   3.370   4.419   1.267 -0.2916  0.0739 -0.2453
  677SOL     OW 2753   3.830   4.411   1.284 -0.1420  0.4430 -0.4918
  677SOL    HW2 2754   3.831   4.408   1.380 -0.3269 -1.9762 -0.5319
  677SOL    HW3 2755   3.753   4.361   1.259  0.4471  0.2231 -1.9157
  677SOL    MW4 2756   3.820   4.404   1.294 -0.0887  0.0949 -0.6850
  678SOL     OW 2757   3.590   0.102   1.093  0.0047  0.1676  0.2756
  678SOL    HW2 2758   3.503   0.070   1.117  0.2663 -1.1422 -0.4406
  678SOL    HW3 2759   3.589   0.194   1.116 -1.2921 -0.0233  1.0526
  678SOL    MW4 2760   3.578   0.110   1.099 -0.1321 -0.0304  0.2837
  679SOL     OW 2761   1.499   3.607   0.514 -0.0730  0.5018  0.2230
  679SOL    HW2 2762   1.494   3.527   0.567 -0.3109  0.3033 -0.0992
  679SOL    HW3 2763   1.571   3.590   0.453 -0.4589  0.3254 -0.1875
  679SOL    MW4 2764   1.508   3.594   0.513 -0.1552  0.4523  0.1262
  680SOL     OW 2765   3.589   0.367   1.159 -0.0470 -0.1056 -0.4319
  680SOL    HW2 2766   3.530   0.436   1.189 -0.9180 -1.3564  0.7821
  680SOL    HW3 2767   3.676   0.396   1.186 -0.7055 -0.8050  2.6624
  680SOL    MW4 2768   3.592   0.380   1.166 -0.2489 -0.3629  0.1364
  681SOL     OW 2769   3.848   0.769   1.146  0.3470  0.6217  0.1114
  681SOL    HW2 2770   3.912   0.819   1.197  0.4621  0.7100 -0.1140
  681SOL    HW3 2771   3.763   0.799   1.177  0.4145 -0.4313  1.3139
  681SOL    MW4 2772   3.846   0.780   1.157  0.3712  0.4944  0.2404
  682SOL     OW 2773   3.617   0.922   1.262 -0.0255  0.2180 -0.0245
  682SOL    HW2 2774   3.601   1.014   1.239  1.9549  0.7797  0.8092
  682SOL    HW3 2775   3.540   0.876   1.228 -1.2998  2.2467  0.0285
  682SOL    MW4 2776   3.605   0.928   1.254  0.0677  0.5597  0.0924
  683SOL     OW 2777   3.360   1.262   1.314 -0.0802  0.2226 -0.1811
  683SOL    HW2 2778   3.367   1.354   1.289  0.3917  0.1709 -0.2311
  683SOL    HW3 2779   3.358   1.263   1.410  1.5066  0.1742 -0.1317
  683SOL    MW4 2780   3.360   1.275   1.323  0.1915  0.2096 -0.1813
  684SOL     OW 2781   3.824   1.327   1.228 -0.2628  0.2547  0.4634
  684SOL    HW2 2782   3.815   1.334   1.323 -1.3181  0.8605  0.3274
  684SOL    HW3 2783   3.839   1.417   1.198  0.4725  0.0153  0.0913
  684SOL    MW4 2784   3.824   1.340   1.236 -0.3049  0.3031  0.3964
  685SOL     OW 2785   3.830   1.587   1.148  0.0429  0.0468 -0.3005
  685SOL    HW2 2786   3.911   1.631   1.175 -1.6380  1.6889  2.3081
  685SOL    HW3 2787   3.834   1.587   1.052  2.9208  0.4663 -0.2341
  685SOL    MW4 2788   3.841   1.593   1.139  0.2010  0.3186  0.0523
  686SOL     OW 2789   3.606   1.661   1.268  0.0949 -0.1158 -0.2969
  686SOL    HW2 2790   3.579   1.746   1.232 -0.8950 -0.1082  0.4154
  686SOL    HW3 2791   3.688   1.641   1.225 -0.2752  0.6424 -1.3738
  686SOL    MW4 2792   3.613   1.670   1.258 -0.0844 -0.0148 -0.3450
  687SOL     OW 2793   3.193   1.177   0.923 -0.0797 -0.0020  0.2095
  687SOL    HW2 2794   3.289   1.178   0.926 -0.0244  0.6171 -1.2892
  687SOL    HW3 2795   3.172   1.118   0.851 -0.8778 -1.2688  1.4544
  687SOL    MW4 2796   3.203   1.170   0.914 -0.1781 -0.0875  0.1760
  688SOL     OW 2797   4.253   2.081   1.259 -0.6276 -0.2750 -0.0029
  688SOL    HW2 2798   4.278   2.164   1.218 -0.7655 -0.3935 -0.3287
  688SOL    HW3 2799   4.185   2.046   1.202 -0.5317 -0.6381  0.1057
  688SOL    MW4 2800   4.247   2.088   1.246 -0.6332 -0.3386 -0.0314
  689SOL     OW 2801   3.596   2.437   1.468  0.0147 -0.2497 -0.1402
  689SOL    HW2 2802   3.595   2.518   1.519 -1.1000  0.7107 -1.6388
  689SOL    HW3 2803   3.681   2.397   1.488  1.3437  2.1782 -0.7192
  689SOL    MW4 2804   3.607   2.442   1.477  0.0429  0.1976 -0.4143
  690SOL     OW 2805   2.455   3.516   0.350 -0.1570  0.0971  0.2772
  690SOL    HW2 2806   2.523   3.451   0.337  0.1626  0.2572  1.0976
  690SOL    HW3 2807   2.432   3.508   0.443  1.3592  2.5544  0.9111
  690SOL    MW4 2808   2.461   3.507   0.360  0.0851  0.4425  0.4690
  691SOL     OW 2809   3.620   2.436   1.176  0.1445  0.2410  0.2875
  691SOL    HW2 2810   3.700   2.389   1.153  1.2890  1.4605  1.6626
  691SOL    HW3 2811   3.611   2.424   1.271 -1.9938 -0.9115 -0.0237
  691SOL    MW4 2812   3.629   2.428   1.185  0.0136  0.2496  0.4278
  692SOL     OW 2813   3.568   2.705   1.113  0.0958 -0.2825  0.3878
  692SOL    HW2 2814   3.493   2.734   1.163 -0.2584 -0.2301 -0.1693
  692SOL    HW3 2815   3.583   2.614   1.142  0.3378 -0.0229  1.0978
  692SOL    MW4 2816   3.560   2.697   1.123  0.0811 -0.2413  0.4079
  693SOL     OW 2817   3.808   2.856   1.215  0.3365  0.3443  0.4019
  693SOL    HW2 2818   3.796   2.831   1.307  0.4848  0.7581  0.5353
  693SOL    HW3 2819   3.731   2.821   1.170  0.4244 -0.1478  0.6225
  693SOL    MW4 2820   3.797   2.848   1.221  0.3676  0.3343  0.4486
  694SOL     OW 2821   3.630   3.491   1.198  0.3290  0.3186 -0.3925
  694SOL    HW2 2822   3.716   3.516   1.232  0.5506  1.2003 -1.5662
  694SOL    HW3 2823   3.649   3.456   1.111 -0.2290 -1.9179  0.3328
  694SOL    MW4 2824   3.644   3.490   1.191  0.2847  0.1397 -0.4516
  695SOL     OW 2825   3.892   3.577   1.294 -0.4803 -0.0659 -0.3264
  695SOL    HW2 2826   3.867   3.593   1.385  1.1042  0.4579  0.0416
  695SOL    HW3 2827   3.891   3.664   1.253 -1.1915 -0.3001 -0.8106
  695SOL    MW4 2828   3.889   3.591   1.301 -0.3653 -0.0279 -0.3418
  696SOL     OW 2829   3.540   2.907   0.443  0.1557  0.1614 -0.3842
  696SOL    HW2 2830   3.560   2.931   0.533  1.3819  1.3198 -0.9537
  696SOL    HW3 2831   3.559   2.985   0.392 -2.3743  0.1535 -1.4344
  696SOL    MW4 2832   3.545   2.920   0.448 -0.0165  0.3133 -0.5979
  697SOL     OW 2833   4.070   4.016   1.279 -0.2568  0.1198  0.4006
  697SOL    HW2 2834   4.058   4.104   1.244 -0.0740 -0.7205 -1.8473
  697SOL    HW3 2835   3.993   3.968   1.249 -0.1382 -0.6233  1.2466
  697SOL    MW4 2836   4.058   4.021   1.271 -0.2174 -0.0887  0.2156
  698SOL     OW 2837   4.036   3.839   0.816 -0.2932 -0.5438 -0.0971
  698SOL    HW2 2838   4.111   3.886   0.852 -0.5123  0.8161 -1.3508
  698SOL    HW3 2839   3.969   3.845   0.884  0.4467 -1.0492  0.6908
  698SOL    MW4 2840   4.037   3.846   0.829 -0.2246 -0.4308 -0.1585
  699SOL     OW 2841   0.103   2.600   0.526  0.0013 -0.5622  0.3592
  699SOL    HW2 2842   0.107   2.681   0.576 -0.0099 -0.8346  0.8009
  699SOL    HW3 2843   0.010   2.576   0.527 -0.3962  0.7320 -1.8756
  699SOL    MW4 2844   0.091   2.608   0.533 -0.0526 -0.4275  0.1226
  700SOL     OW 2845   3.618   4.256   1.179  0.1075 -0.3721  0.0566
  700SOL    HW2 2846   3.612   4.239   1.085  1.3466 -0.6726  0.0139
  700SOL    HW3 2847   3.619   4.169   1.219 -1.0278 -0.2328  0.3939
  700SOL    MW4 2848   3.618   4.242   1.172  0.1211 -0.3934  0.0956
  701SOL     OW 2849   4.249   4.653   1.222  0.2478 -0.2028  0.1302
  701SOL    HW2 2850   4.171   4.705   1.239  0.3230  0.0753 -0.3672
  701SOL    HW3 2851   4.317   4.717   1.202 -0.1542 -0.5531 -2.4914
  701SOL    MW4 2852   4.248   4.668   1.222  0.2046 -0.2122 -0.2812
  702SOL     OW 2853   4.010   0.127   1.309  0.3080 -0.4173  0.0200
  702SOL    HW2 2854   4.015   0.139   1.404 -2.4139  0.8803  0.0366
  702SOL    HW3 2855   3.918   0.107   1.292  0.4870  0.7186 -2.4930
  702SOL    MW4 2856   3.999   0.126   1.320 -0.0277 -0.0962 -0.3095
  703SOL     OW 2857   4.042   0.362   1.156  0.6107 -0.1597  0.2509
  703SOL    HW2 2858   4.034   0.289   1.218  1.7142 -0.2798  0.2635
  703SOL    HW3 2859   4.032   0.321   1.070 -0.3336 -0.0807  0.3146
  703SOL    MW4 2860   4.039   0.347   1.153  0.6318 -0.1651  0.2609
  704SOL     OW 2861   4.293   0.492   1.180  0.0868 -0.0680 -0.1250
  704SOL    HW2 2862   4.300   0.490   1.276 -0.1087 -0.3545 -0.1169
  704SOL    HW3 2863   4.213   0.443   1.161  1.5776 -2.4163 -0.5839
  704SOL    MW4 2864   4.283   0.485   1.190  0.2580 -0.4157 -0.1845
  705SOL     OW 2865   1.173   2.752   0.758 -0.4330  0.7477  0.3606
  705SOL    HW2 2866   1.155   2.675   0.705 -1.0911  0.9606  0.2653
  705SOL    HW3 2867   1.255   2.732   0.803 -0.9503 -0.2783  0.8609
  705SOL    MW4 2868   1.181   2.740   0.757 -0.5881  0.6409  0.4141
  706SOL     OW 2869   4.064   0.905   1.266  0.5396  0.3632 -0.1954
  706SOL    HW2 2870   4.059   0.888   1.360  1.6790  1.9508  0.1602
  706SOL    HW3 2871   4.149   0.868   1.240  0.7893  1.0447 -0.3549
  706SOL    MW4 2872   4.075   0.898   1.275  0.7229  0.6625 -0.1696
  707SOL     OW 2873   4.481   1.208   1.115 -0.1124 -0.8369  0.5258
  707SOL    HW2 2874   4.405   1.253   1.153  1.9024  0.8646  2.6805
  707SOL    HW3 2875   4.481   1.122   1.156 -0.0485 -0.3052  1.6732
  707SOL    MW4 2876   4.471   1.203   1.125  0.1616 -0.5423  0.9615
  708SOL     OW 2877   4.257   1.350   1.220 -0.1947  0.3565 -0.0992
  708SOL    HW2 2878   4.267   1.316   1.309 -0.3453 -0.5643 -0.4329
  708SOL    HW3 2879   4.184   1.301   1.184 -0.1275  0.7262 -0.7358
  708SOL    MW4 2880   4.249   1.339   1.227 -0.2060  0.2838 -0.2272
  709SOL     OW 2881   0.538   4.263   0.924 -0.7964  0.5198 -0.0821
  709SOL    HW2 2882   0.450   4.248   0.890 -0.8610  0.4753  0.1075
  709SOL    HW3 2883   0.524   4.308   1.008 -0.6533  0.0739  0.1800
  709SOL    MW4 2884   0.524   4.267   0.930 -0.7860  0.4559 -0.0224
  710SOL     OW 2885   1.829   0.818   0.154 -0.1344 -0.2787  0.2708
  710SOL    HW2 2886   1.740   0.826   0.190  0.0412  1.0822  0.4472
  710SOL    HW3 2887   1.822   0.854   0.065  0.4397  0.7885  0.6409
  710SOL    MW4 2888   1.816   0.824   0.147 -0.0354  0.0417  0.3429
  711SOL     OW 2889   4.066   1.703   1.225  0.4501 -0.0086  0.0111
  711SOL    HW2 2890   4.146   1.666   1.188  1.1637  1.3254  0.1584
  711SOL    HW3 2891   4.069   1.679   1.317 -0.7422 -2.3460 -0.5287
  711SOL    MW4 2892   4.077   1.695   1.232  0.3867 -0.1410 -0.0407
  712SOL     OW 2893   0.241   2.065   1.261  0.1282  0.3124 -0.1300
  712SOL    HW2 2894   0.239   2.155   1.229  0.3754  0.5946  0.6419
  712SOL    HW3 2895   0.168   2.022   1.218  0.1150  0.8397 -0.6328
  712SOL    MW4 2896   0.231   2.071   1.251  0.1590  0.4194 -0.0945
  713SOL     OW 2897   4.292   2.344   1.153  0.2214 -0.0306  0.5519
  713SOL    HW2 2898   4.213   2.395   1.170  0.1506 -0.3153  1.1107
  713SOL    HW3 2899   4.310   2.356   1.060 -0.3544  0.2151  0.4742
  713SOL    MW4 2900   4.284   2.352   1.143  0.1359 -0.0358  0.6156
  714SOL     OW 2901   3.848   2.287   1.123 -0.0460  0.1226 -0.2440
  714SOL    HW2 2902   3.915   2.348   1.155 -0.4131  0.5606 -0.2933
  714SOL    HW3 2903   3.855   2.292   1.028 -0.1463  0.1735 -0.2493
  714SOL    MW4 2904   3.858   2.296   1.115 -0.1075  0.1872 -0.2512
  715SOL     OW 2905   3.453   2.533   0.727 -0.2391  0.2395 -0.2184
  715SOL    HW2 2906   3.469   2.449   0.770  0.7995  0.4262 -0.2374
  715SOL    HW3 2907   3.400   2.510   0.650 -3.1794  0.0548  1.7914
  715SOL    MW4 2908   3.448   2.519   0.722 -0.4900  0.2396  0.0443
  716SOL     OW 2909   4.222   2.929   1.201 -0.6913 -0.1931 -0.0593
  716SOL    HW2 2910   4.178   3.014   1.196 -0.7118 -0.3176 -2.9822
  716SOL    HW3 2911   4.155   2.866   1.175 -0.5438 -1.0758  1.6550
  716SOL    MW4 2912   4.208   2.932   1.197 -0.6742 -0.3259 -0.2187
  717SOL     OW 2913   3.923   3.232   0.969 -0.5272 -0.1758  0.2811
  717SOL    HW2 2914   3.860   3.300   0.946 -0.9008 -0.5326  0.2537
  717SOL    HW3 2915   3.893   3.198   1.053  0.6598  0.9066  1.1635
  717SOL    MW4 2916   3.911   3.236   0.977 -0.4199 -0.0799  0.3939
  718SOL     OW 2917   3.591   3.228   1.234 -0.6076 -0.7065 -0.1859
  718SOL    HW2 2918   3.593   3.322   1.219  0.1840 -0.8145 -0.8020
  718SOL    HW3 2919   3.682   3.200   1.222 -0.8115 -1.5292  0.1369
  718SOL    MW4 2920   3.603   3.237   1.231 -0.5302 -0.8292 -0.2247
  719SOL     OW 2921   4.127   3.195   1.277  0.3197 -0.1474  0.4530
  719SOL    HW2 2922   4.104   3.192   1.370  0.8549 -0.7645  0.5744
  719SOL    HW3 2923   4.112   3.286   1.251  0.2540  0.0499  1.1690
  719SOL    MW4 2924   4.122   3.207   1.286  0.3815 -0.2031  0.5636
  720SOL     OW 2925   4.319   3.602   1.258 -0.0860  0.2328  0.2033
  720SOL    HW2 2926   4.251   3.565   1.202 -0.0150 -0.3734  0.5153
  720SOL    HW3 2927   4.393   3.542   1.249 -0.1007  0.0881  0.9966
  720SOL    MW4 2928   4.320   3.589   1.249 -0.0787  0.1335  0.3492
  721SOL     OW 2929   3.558   4.646   0.716 -0.1826 -0.2274  0.0596
  721SOL    HW2 2930   3.620   4.719   0.714  0.8668 -1.1200 -1.0643
  721SOL    HW3 2931   3.514   4.650   0.631 -1.3763  0.1380  0.6812
  721SOL    MW4 2932   3.560   4.657   0.704 -0.2015 -0.2971 -0.0067
  722SOL     OW 2933   4.312   3.895   1.190 -0.9533  0.0106 -0.1899
  722SOL    HW2 2934   4.324   3.805   1.221 -0.7667  0.9387  2.6296
  722SOL    HW3 2935   4.234   3.926   1.236 -1.0461  1.2781 -1.1771
  722SOL    MW4 2936   4.303   3.887   1.200 -0.9403  0.3002  0.0519
  723SOL     OW 2937   4.036   4.269   1.195  0.5037 -0.0672  0.4939
  723SOL    HW2 2938   3.975   4.326   1.242 -0.9304 -2.6245  1.8403
  723SOL    HW3 2939   4.122   4.310   1.210 -0.6231  2.5305  0.1496
  723SOL    MW4 2940   4.039   4.282   1.203  0.1655 -0.0625  0.6261
  724SOL     OW 2941   4.277   4.381   1.317  0.4858  0.2843 -0.3478
  724SOL    HW2 2942   4.363   4.355   1.282  0.2829  0.4687 -1.0008
  724SOL    HW3 2943   4.267   4.472   1.288  0.2427  0.3919  0.0718
  724SOL    MW4 2944   4.287   4.390   1.308  0.4268  0.3223 -0.3785
  725SOL     OW 2945   0.209   0.005   1.645  0.0804 -0.1191 -0.5328
  725SOL    HW2 2946   0.285   0.063   1.633 -1.0873  1.7132  0.6726
  725SOL    HW3 2947   0.141   0.043   1.590 -0.6242 -0.4994  0.0714
  725SOL    MW4 2948   0.210   0.017   1.636 -0.1666  0.0730 -0.2941
  726SOL     OW 2949   4.480   0.130   1.485 -0.2859 -0.0320  0.0411
  726SOL    HW2 2950   4.407   0.077   1.518 -2.8418  3.4283  0.2813
  726SOL    HW3 2951   4.491   0.103   1.394 -2.1768 -0.2790 -0.1302
  726SOL    MW4 2952   4.472   0.119   1.478 -0.8725  0.3919  0.0502
  727SOL     OW 2953   0.016   0.364   1.619 -0.2849 -0.4381 -0.2841
  727SOL    HW2 2954   0.015   0.351   1.714 -0.6544 -0.1548 -0.2498
  727SOL    HW3 2955   0.007   0.275   1.583  0.4460 -0.6075 -0.0605
  727SOL    MW4 2956   0.015   0.350   1.627 -0.2372 -0.4231 -0.2500
  728SOL     OW 2957   0.249   0.490   1.546 -0.1454 -0.1225  0.1871
  728SOL    HW2 2958   0.162   0.452   1.562 -1.3247  1.8726 -1.1837
  728SOL    HW3 2959   0.241   0.530   1.459  1.5635  1.6907  0.8435
  728SOL    MW4 2960   0.236   0.491   1.536 -0.0755  0.3799  0.0929
  729SOL     OW 2961   0.254   0.742   1.688 -0.1472 -0.2396 -0.2322
  729SOL    HW2 2962   0.329   0.779   1.641  0.7483 -0.2088  1.2230
  729SOL    HW3 2963   0.247   0.653   1.654  0.4194 -0.1812 -0.5090
  729SOL    MW4 2964   0.263   0.735   1.677  0.0457 -0.2279 -0.0768
  730SOL     OW 2965   0.037   0.898   1.553  0.0909  0.2842  0.7427
  730SOL    HW2 2966   0.025   0.988   1.583  2.0402  0.9841 -0.4896
  730SOL    HW3 2967   0.122   0.871   1.587 -1.2551 -1.7785  2.6461
  730SOL    MW4 2968   0.047   0.906   1.561  0.1705  0.1044  0.8312
  731SOL     OW 2969   0.007   1.177   1.616  0.2491  0.0878 -0.1154
  731SOL    HW2 2970  -0.009   1.167   1.709  0.4866 -1.1054 -0.1831
  731SOL    HW3 2971   0.077   1.242   1.610 -0.3445  0.7882  0.4837
  731SOL    MW4 2972   0.014   1.184   1.627  0.2017  0.0228 -0.0453
  732SOL     OW 2973   0.246   1.291   1.539  0.3293  0.1551  0.1389
  732SOL    HW2 2974   0.247   1.382   1.569 -0.4953  0.4075 -0.5717
  732SOL    HW3 2975   0.238   1.298   1.444  1.0292 -0.6505  0.0198
  732SOL    MW4 2976   0.245   1.304   1.530  0.3128  0.0824  0.0294
  733SOL     OW 2977   0.026   1.708   1.269 -0.0699  0.0957  0.0223
  733SOL    HW2 2978   0.100   1.649   1.252 -0.7573 -0.7066 -0.2296
  733SOL    HW3 2979  -0.046   1.670   1.219 -0.9660  0.2016  1.2184
  733SOL    MW4 2980   0.026   1.695   1.260 -0.2789  0.0038  0.1469
  734SOL     OW 2981   0.197   1.541   1.649 -0.2117  0.3519 -0.2753
  734SOL    HW2 2982   0.190   1.536   1.744 -1.3828 -0.3985 -0.3918
  734SOL    HW3 2983   0.137   1.612   1.624 -1.9855 -1.2266 -0.6569
  734SOL    MW4 2984   0.188   1.550   1.658 -0.6003  0.0447 -0.3411
  735SOL     OW 2985   4.454   1.687   1.555  0.1432  0.2030  0.5270
  735SOL    HW2 2986   4.496   1.770   1.577 -0.7062  0.5234  0.9795
  735SOL    HW3 2987   4.467   1.678   1.460 -0.5004  1.2849  0.3217
  735SOL    MW4 2988   4.461   1.697   1.545 -0.0538  0.3879  0.5596
  736SOL     OW 2989   0.062   1.935   1.640 -0.5285 -0.1578  0.0036
  736SOL    HW2 2990   0.040   1.913   1.731 -1.8121 -0.0146 -0.2678
  736SOL    HW3 2991  -0.015   1.981   1.607  0.7713  1.7229 -0.4948
  736SOL    MW4 2992   0.049   1.938   1.648 -0.5263  0.1092 -0.0981
  737SOL     OW 2993   0.215   2.358   1.620 -0.3650 -0.6285  0.2458
  737SOL    HW2 2994   0.198   2.356   1.714  1.3812  0.9101  0.6398
  737SOL    HW3 2995   0.205   2.268   1.591 -0.4847 -1.1840  1.9960
  737SOL    MW4 2996   0.212   2.346   1.628 -0.1504 -0.4990  0.5287
  738SOL     OW 2997   0.003   2.490   1.514  0.0242  0.3969  0.5122
  738SOL    HW2 2998  -0.067   2.431   1.543 -0.1833  1.0738  1.4034
  738SOL    HW3 2999   0.083   2.451   1.549  0.1909 -0.7913 -1.1517
  738SOL    MW4 3000   0.004   2.477   1.523  0.0186  0.3295  0.4101
  739SOL     OW 3001   4.454   2.762   1.618 -0.3741  0.1877  0.0329
  739SOL    HW2 3002   4.387   2.790   1.555  0.1898 -0.4440 -0.8782
  739SOL    HW3 3003   4.471   2.670   1.595  1.3333  0.5529 -0.2424
  739SOL    MW4 3004   4.447   2.753   1.606 -0.0749  0.1523 -0.1237
  740SOL     OW 3005   0.218   2.873   1.566  0.5467  0.3073 -0.5471
  740SOL    HW2 3006   0.136   2.827   1.584  0.6670  0.1395 -0.4333
  740SOL    HW3 3007   0.286   2.806   1.569  0.9457  0.7385  1.3246
  740SOL    MW4 3008   0.216   2.858   1.569  0.6152  0.3421 -0.2851
  741SOL     OW 3009   0.211   3.162   1.632 -0.0269  0.1271  0.1963
  741SOL    HW2 3010   0.214   3.066   1.628  1.5648  0.1067  1.4496
  741SOL    HW3 3011   0.123   3.184   1.601  0.0312 -1.6623 -1.3415
  741SOL    MW4 3012   0.200   3.152   1.627  0.1908 -0.1116  0.1588
  742SOL     OW 3013   4.457   3.258   1.526 -0.0776  0.3942  0.1930
  742SOL    HW2 3014   4.482   3.343   1.563 -2.5713  1.2976 -0.0919
  742SOL    HW3 3015   4.458   3.273   1.431 -1.6465  0.4662  0.1741
  742SOL    MW4 3016   4.460   3.271   1.518 -0.6132  0.5229  0.1529
  743SOL     OW 3017   0.019   3.506   1.641  0.4111 -0.6285 -0.1573
  743SOL    HW2 3018   0.017   3.497   1.736 -0.0472  0.9884  0.0000
  743SOL    HW3 3019  -0.055   3.563   1.620  0.5105 -0.9647 -1.4733
  743SOL    MW4 3020   0.009   3.513   1.651  0.3633 -0.4594 -0.3102
  744SOL     OW 3021   0.225   3.613   1.508  0.2977 -0.3525  0.1668
  744SOL    HW2 3022   0.158   3.559   1.550  0.3475 -0.8595 -0.3922
  744SOL    HW3 3023   0.307   3.587   1.549  0.3096 -0.6397 -0.0354
  744SOL    MW4 3024   0.227   3.603   1.519  0.3059 -0.4570  0.0664
  745SOL     OW 3025   0.205   3.859   1.631 -0.5357  0.3933  0.1802
  745SOL    HW2 3026   0.220   3.850   1.725  1.6241 -0.2549 -0.2143
  745SOL    HW3 3027   0.222   3.772   1.596 -0.9650  0.7346 -0.8718
  745SOL    MW4 3028   0.209   3.846   1.639 -0.3074  0.3529 -0.0106
  746SOL     OW 3029   4.486   4.013   1.555 -0.0738 -0.4089 -0.4580
  746SOL    HW2 3030   4.497   4.101   1.592  1.1934 -0.1797 -1.3404
  746SOL    HW3 3031   4.565   3.966   1.582 -0.4290 -1.0719 -0.5735
  746SOL    MW4 3032   4.498   4.019   1.564  0.0463 -0.4668 -0.5895
  747SOL     OW 3033   0.030   4.268   1.670 -0.0048 -0.7273  0.1503
  747SOL    HW2 3034   0.055   4.271   1.762  1.5792 -1.2683 -0.2530
  747SOL    HW3 3035  -0.049   4.322   1.665  1.4580  1.5883  1.3381
  747SOL    MW4 3036   0.023   4.276   1.682  0.3972 -0.4930  0.2538
  748SOL     OW 3037   0.257   4.384   1.538 -0.2374  0.4883  0.4278
  748SOL    HW2 3038   0.246   4.478   1.551  1.3782  0.4383  2.2668
  748SOL    HW3 3039   0.188   4.344   1.591 -0.9042  0.6026 -0.3293
  748SOL    MW4 3040   0.246   4.391   1.547 -0.1122  0.4969  0.5705
  749SOL     OW 3041   0.696   0.027   1.648 -0.1182  0.3284  0.0375
  749SOL    HW2 3042   0.748   0.084   1.592 -0.1141 -0.5410 -0.8798
  749SOL    HW3 3043   0.606   0.059   1.638 -0.2153 -0.2587 -1.0370
  749SOL    MW4 3044   0.691   0.039   1.639 -0.1305  0.1362 -0.2252
  750SOL     OW 3045   0.447   0.148   1.567 -0.2892  1.1689  0.5775
  750SOL    HW2 3046   0.447   0.235   1.607 -0.2435  1.6629 -0.4868
  750SOL    HW3 3047   0.448   0.165   1.473 -0.4748  0.0159  0.3642
  750SOL    MW4 3048   0.447   0.162   1.560 -0.3076  1.0820  0.4089
  751SOL     OW 3049   0.467   0.395   1.699 -0.0953  0.3099  0.4038
  751SOL    HW2 3050   0.541   0.419   1.644 -1.1487  0.6843 -0.8761
  751SOL    HW3 3051   0.390   0.423   1.650 -1.1732 -1.7925  0.8136
  751SOL    MW4 3052   0.467   0.402   1.685 -0.3765  0.0819  0.2891
  752SOL     OW 3053   0.671   0.503   1.552 -0.0954  0.0317  0.3304
  752SOL    HW2 3054   0.673   0.593   1.585  0.7741 -0.3776  1.4376
  752SOL    HW3 3055   0.674   0.512   1.457 -1.2087  1.1993  0.3852
  752SOL    MW4 3056   0.671   0.516   1.544 -0.1276  0.1318  0.4835
  753SOL     OW 3057   0.700   0.765   1.619  0.3282 -0.4056 -0.2394
  753SOL    HW2 3058   0.708   0.777   1.714  2.1513 -2.0832 -0.1720
  753SOL    HW3 3059   0.770   0.819   1.582 -0.2437  0.0742 -0.6306
  753SOL    MW4 3060   0.710   0.774   1.627  0.4933 -0.5636 -0.2820
  754SOL     OW 3061   0.459   0.870   1.554  0.6538 -0.4883 -0.3916
  754SOL    HW2 3062   0.456   0.962   1.582 -0.3606 -1.1241  1.6812
  754SOL    HW3 3063   0.547   0.841   1.579  1.0716 -0.0209 -1.2898
  754SOL    MW4 3064   0.470   0.878   1.561  0.5751 -0.5106 -0.2366
  755SOL     OW 3065   0.440   1.135   1.650  0.3938  0.0839 -0.0656
  755SOL    HW2 3066   0.528   1.157   1.622  0.9872 -0.6831  1.1557
  755SOL    HW3 3067   0.383   1.190   1.596  1.6217  0.8656 -0.5845
  755SOL    MW4 3068   0.444   1.145   1.639  0.6340  0.0858  0.0271
  756SOL     OW 3069   0.686   1.259   1.601 -0.1516 -0.4873 -0.0055
  756SOL    HW2 3070   0.668   1.348   1.631  0.7531 -0.3622  0.1839
  756SOL    HW3 3071   0.693   1.267   1.506 -2.0454 -0.7126 -0.1810
  756SOL    MW4 3072   0.685   1.272   1.593 -0.2822 -0.5004 -0.0037
  757SOL     OW 3073   0.648   1.552   1.687 -0.0479 -0.4680 -0.2020
  757SOL    HW2 3074   0.730   1.576   1.645  0.3709  0.2637  1.0024
  757SOL    HW3 3075   0.582   1.606   1.645  0.2004 -0.5217 -0.6583
  757SOL    MW4 3076   0.650   1.562   1.676  0.0400 -0.3785 -0.1034
  758SOL     OW 3077   0.452   1.692   1.563  0.0262  0.4811  0.4209
  758SOL    HW2 3078   0.459   1.779   1.602 -0.0602  0.8157 -0.3092
  758SOL    HW3 3079   0.368   1.658   1.594 -1.1644  1.6946 -1.3721
  758SOL    MW4 3080   0.442   1.699   1.572 -0.1423  0.6853  0.0881
  759SOL     OW 3081   0.462   1.937   1.687  0.4562 -0.3968 -0.0349
  759SOL    HW2 3082   0.460   1.940   1.783 -1.5346 -2.9368  0.0349
  759SOL    HW3 3083   0.399   2.004   1.660  1.2745  0.5619  0.3993
  759SOL    MW4 3084   0.453   1.947   1.696  0.3015 -0.6055  0.0315
  760SOL     OW 3085   0.694   2.060   1.554 -0.3228  0.1213 -0.1800
  760SOL    HW2 3086   0.764   2.023   1.609 -0.2646  0.7792  0.1903
  760SOL    HW3 3087   0.616   2.010   1.579 -0.1971  0.0839  0.1487
  760SOL    MW4 3088   0.693   2.048   1.565 -0.2986  0.2031 -0.0877
  761SOL     OW 3089   0.645   2.304   1.666  0.1806 -0.0719 -0.1604
  761SOL    HW2 3090   0.566   2.340   1.626 -0.4741 -1.2303  0.0531
  761SOL    HW3 3091   0.664   2.225   1.614 -0.4037 -1.3339  1.4756
  761SOL    MW4 3092   0.637   2.298   1.654  0.0171 -0.3912  0.0836
  762SOL     OW 3093   0.450   2.451   1.532  0.3838 -0.6158 -0.3427
  762SOL    HW2 3094   0.476   2.540   1.556  1.3252 -0.3278 -2.3844
  762SOL    HW3 3095   0.363   2.440   1.571  0.9538  0.5923  1.3272
  762SOL    MW4 3096   0.442   2.461   1.541  0.5832 -0.4182 -0.3918
  763SOL     OW 3097   0.455   2.719   1.622 -0.1176 -0.1524  0.4134
  763SOL    HW2 3098   0.418   2.727   1.710  0.5525 -0.5824  0.7452
  763SOL    HW3 3099   0.537   2.768   1.626 -0.3305  0.2429 -0.1171
  763SOL    MW4 3100   0.461   2.727   1.634 -0.0573 -0.1571  0.3871
  764SOL     OW 3101   0.689   2.862   1.559  0.0772  0.3692  0.3373
  764SOL    HW2 3102   0.686   2.955   1.578 -0.0290  0.1014  1.7011
  764SOL    HW3 3103   0.653   2.854   1.470  0.8237  1.6893 -0.0958
  764SOL    MW4 3104   0.684   2.873   1.549  0.1616  0.5081  0.4601
  765SOL     OW 3105   0.685   3.126   1.626 -0.0371  0.2756  0.3318
  765SOL    HW2 3106   0.753   3.178   1.582 -1.4799  1.5558 -0.4534
  765SOL    HW3 3107   0.603   3.173   1.607 -1.1525 -1.2742  1.1916
  765SOL    MW4 3108   0.683   3.139   1.617 -0.3746  0.2401  0.3418
  766SOL     OW 3109   0.466   3.292   1.580 -0.1853  0.0109  0.0945
  766SOL    HW2 3110   0.470   3.292   1.484 -0.5888  3.0534  0.0210
  766SOL    HW3 3111   0.388   3.241   1.601 -1.2605  1.0366 -1.3059
  766SOL    MW4 3112   0.456   3.286   1.570 -0.3804  0.5476 -0.0999
  767SOL     OW 3113   0.465   3.539   1.681  0.1310  1.0539 -0.1910
  767SOL    HW2 3114   0.445   3.551   1.774  1.5856  1.9027  0.0322
  767SOL    HW3 3115   0.461   3.445   1.668 -0.6797  0.9672  0.5875
  767SOL    MW4 3116   0.462   3.528   1.692  0.2160  1.1544 -0.0588
  768SOL     OW 3117   0.687   3.636   1.542 -0.0492  0.1810  0.1256
  768SOL    HW2 3118   0.761   3.588   1.580  0.5461 -0.7209 -2.1014
  768SOL    HW3 3119   0.610   3.600   1.586  0.7159  0.0342  1.3644
  768SOL    MW4 3120   0.687   3.625   1.553  0.1303  0.0427 -0.0048
  769SOL     OW 3121   0.633   3.868   1.675 -0.0896  0.1649  0.2353
  769SOL    HW2 3122   0.709   3.925   1.660 -1.6263  2.0998 -0.4964
  769SOL    HW3 3123   0.649   3.791   1.620 -0.0100  1.8618 -2.2174
  769SOL    MW4 3124   0.645   3.866   1.666 -0.2818  0.6442 -0.1850
  770SOL     OW 3125   0.432   4.022   1.571 -0.2168 -0.2764 -0.0008
  770SOL    HW2 3126   0.514   3.981   1.598 -0.4764 -1.7895 -1.3827
  770SOL    HW3 3127   0.364   3.970   1.613 -0.5379 -0.9426 -1.3239
  770SOL    MW4 3128   0.434   4.010   1.580 -0.2935 -0.5641 -0.3577
  771SOL     OW 3129   0.486   4.282   1.677 -0.2313 -0.0311  0.0265
  771SOL    HW2 3130   0.477   4.190   1.652 -0.2346 -0.1503  0.4673
  771SOL    HW3 3131   0.423   4.328   1.621 -1.1887 -0.4625  0.7425
  771SOL    MW4 3132   0.476   4.276   1.666 -0.3580 -0.1040  0.1791
  772SOL     OW 3133   0.701   4.424   1.590  0.5943 -0.6276 -0.0631
  772SOL    HW2 3134   0.627   4.375   1.626 -0.8731  0.0555 -2.0339
  772SOL    HW3 3135   0.677   4.516   1.602  1.1536 -0.4014 -0.6404
  772SOL    MW4 3136   0.688   4.430   1.597  0.4745 -0.5078 -0.3994
  773SOL     OW 3137   1.086   0.032   1.589 -0.2986 -0.1700  0.7301
  773SOL    HW2 3138   1.103   0.033   1.683  0.5616  2.2882  0.5855
  773SOL    HW3 3139   1.165   0.067   1.549 -1.2095  0.2116 -0.8130
  773SOL    MW4 3140   1.098   0.037   1.596 -0.3054  0.2047  0.5074
  774SOL     OW 3141   0.854   0.191   1.496 -0.0010 -0.3288  0.2233
  774SOL    HW2 3142   0.933   0.152   1.534  0.2354 -0.2679 -0.1945
  774SOL    HW3 3143   0.864   0.285   1.511 -0.8868 -0.4742  1.8167
  774SOL    MW4 3144   0.866   0.198   1.503 -0.0867 -0.3399  0.3785
  775SOL     OW 3145   0.927   0.415   1.650 -0.1588 -0.3965  0.0436
  775SOL    HW2 3146   0.925   0.405   1.745 -1.2759 -0.9237 -0.0194
  775SOL    HW3 3147   0.847   0.462   1.629  0.0791 -0.2887 -0.6414
  775SOL    MW4 3148   0.916   0.420   1.660 -0.2748 -0.4518 -0.0551
  776SOL     OW 3149   1.134   0.525   1.504  0.2421  0.4484 -0.1776
  776SOL    HW2 3150   1.148   0.616   1.528 -1.4237  0.5754  0.3757
  776SOL    HW3 3151   1.069   0.493   1.567  0.2664 -0.9021 -0.8180
  776SOL    MW4 3152   1.127   0.532   1.515  0.0256  0.2869 -0.1892
  777SOL     OW 3153   1.164   0.794   1.608  0.1576 -0.2824 -0.9040
  777SOL    HW2 3154   1.171   0.782   1.703 -0.0036 -0.0692 -0.8671
  777SOL    HW3 3155   1.240   0.848   1.586  0.5799 -0.9114 -0.9939
  777SOL    MW4 3156   1.175   0.800   1.618  0.1922 -0.3372 -0.9110
  778SOL     OW 3157   0.932   0.919   1.524  0.2183 -0.3802 -0.3805
  778SOL    HW2 3158   1.009   0.878   1.563 -0.5845 -1.8350 -0.2936
  778SOL    HW3 3159   0.953   0.925   1.431 -0.0326 -1.9114 -0.5566
  778SOL    MW4 3160   0.945   0.914   1.517  0.0793 -0.7742 -0.3923
  779SOL     OW 3161   0.922   1.160   1.674  0.2827 -0.7768 -0.2149
  779SOL    HW2 3162   0.932   1.078   1.626  0.8170 -0.9453  0.1656
  779SOL    HW3 3163   0.839   1.196   1.644 -0.0686 -1.5704 -0.2208
  779SOL    MW4 3164   0.913   1.154   1.664  0.3069 -0.9036 -0.1655
  780SOL     OW 3165   1.129   1.329   1.607  0.1394 -0.0939  0.4880
  780SOL    HW2 3166   1.212   1.290   1.633  0.9045 -0.2338 -2.0309
  780SOL    HW3 3167   1.063   1.266   1.634  1.1889 -2.0477 -1.3918
  780SOL    MW4 3168   1.131   1.316   1.614  0.3790 -0.3701 -0.0924
  781SOL     OW 3169   1.109   1.582   1.713 -0.0520 -0.0093 -0.5140
  781SOL    HW2 3170   1.194   1.609   1.678  1.6115 -1.8199  2.0053
  781SOL    HW3 3171   1.101   1.490   1.689 -1.1157  0.0291 -0.3477
  781SOL    MW4 3172   1.119   1.573   1.705  0.0272 -0.2431 -0.1597
  782SOL     OW 3173   0.885   1.635   1.560  0.4592  0.4987 -0.5184
  782SOL    HW2 3174   0.975   1.632   1.590  1.3564 -0.0033 -3.0986
  782SOL    HW3 3175   0.889   1.602   1.470 -2.3067  0.3669 -0.6385
  782SOL    MW4 3176   0.897   1.630   1.552  0.2127  0.4151 -0.8746
  783SOL     OW 3177   0.882   1.882   1.690  0.3939  0.1781 -0.1431
  783SOL    HW2 3178   0.962   1.929   1.664  0.4740  0.4768  0.6224
  783SOL    HW3 3179   0.877   1.809   1.629  1.1162  0.3061 -0.3669
  783SOL    MW4 3180   0.892   1.879   1.679  0.4998  0.2344 -0.0716
  784SOL     OW 3181   1.102   2.019   1.547  0.3553  0.3633  0.1498
  784SOL    HW2 3182   1.192   2.006   1.576  0.9309  0.8014 -1.3561
  784SOL    HW3 3183   1.089   2.114   1.550  0.3804  0.4099 -0.8092
  784SOL    MW4 3184   1.112   2.030   1.551  0.4345  0.4272 -0.1755
  785SOL     OW 3185   1.090   2.296   1.611  0.1472  0.3605  0.0191
  785SOL    HW2 3186   1.156   2.356   1.577 -1.0804  1.6560 -0.1182
  785SOL    HW3 3187   1.007   2.332   1.582 -0.5953 -1.7676 -0.5908
  785SOL    MW4 3188   1.088   2.309   1.603 -0.1127  0.2508 -0.0794
  786SOL     OW 3189   0.862   2.403   1.510 -0.0016  0.0430  0.3352
  786SOL    HW2 3190   0.886   2.490   1.542 -0.9204 -0.0953  1.4223
  786SOL    HW3 3191   0.797   2.371   1.572  0.9009 -1.7537  0.4027
  786SOL    MW4 3192   0.857   2.410   1.522 -0.0037 -0.2127  0.4876
  787SOL     OW 3193   0.891   2.677   1.622 -0.4269 -0.2654  0.7822
  787SOL    HW2 3194   0.898   2.690   1.717 -1.4847  1.7503  0.6096
  787SOL    HW3 3195   0.815   2.729   1.596  0.8050  0.5116 -1.4089
  787SOL    MW4 3196   0.882   2.685   1.631 -0.4039  0.1030  0.4704
  788SOL     OW 3197   1.134   2.822   1.544  0.1368 -0.0720 -0.4208
  788SOL    HW2 3198   1.130   2.912   1.575  2.0961  0.4524 -1.5856
  788SOL    HW3 3199   1.057   2.780   1.582 -0.0637  1.7262  1.2689
  788SOL    MW4 3200   1.123   2.828   1.553  0.3688  0.2341 -0.3515
  789SOL     OW 3201   1.122   3.102   1.593  0.3813 -0.1101  0.2671
  789SOL    HW2 3202   1.124   3.101   1.689  0.6186 -0.1002  0.2610
  789SOL    HW3 3203   1.192   3.161   1.567 -0.0793  0.3677  0.0967
  789SOL    MW4 3204   1.131   3.109   1.602  0.3519 -0.0460  0.2440
  790SOL     OW 3205   0.899   3.257   1.552 -0.2235  0.1326 -0.5296
  790SOL    HW2 3206   0.972   3.199   1.577 -0.8563 -0.5014 -0.1414
  790SOL    HW3 3207   0.895   3.250   1.456 -0.1060 -0.2448 -0.5105
  790SOL    MW4 3208   0.908   3.248   1.542 -0.2915 -0.0007 -0.4758
  791SOL     OW 3209   0.891   3.508   1.687  0.3020 -0.2433  0.0673
  791SOL    HW2 3210   0.966   3.555   1.650 -0.0132  0.5181  0.3880
  791SOL    HW3 3211   0.896   3.421   1.648  0.7933  0.1087 -0.6725
  791SOL    MW4 3212   0.901   3.503   1.677  0.3252 -0.0966  0.0120
  792SOL     OW 3213   1.113   3.631   1.556  0.3332  0.6819 -0.1328
  792SOL    HW2 3214   1.199   3.593   1.573  0.1318 -0.0649 -0.7629
  792SOL    HW3 3215   1.108   3.637   1.460 -0.9611 -0.8112 -0.1796
  792SOL    MW4 3216   1.124   3.627   1.545  0.1359  0.3865 -0.2220
  793SOL     OW 3217   1.105   3.889   1.697  0.4317  0.3028 -0.0281
  793SOL    HW2 3218   1.171   3.944   1.655  1.9930  0.0529  2.0530
  793SOL    HW3 3219   1.102   3.809   1.643  2.3898 -0.0060  0.2976
  793SOL    MW4 3220   1.113   3.885   1.684  0.8960  0.2289  0.2894
  794SOL     OW 3221   0.844   4.023   1.627  0.3633 -0.1548  0.3316
  794SOL    HW2 3222   0.855   4.115   1.651  0.9245 -0.5952  1.8219
  794SOL    HW3 3223   0.924   3.981   1.656 -1.1548 -1.6634  2.4650
  794SOL    MW4 3224   0.856   4.030   1.634  0.2371 -0.4120  0.8098
  795SOL     OW 3225   0.907   4.284   1.677  0.0109  0.0731  0.3488
  795SOL    HW2 3226   0.908   4.291   1.773 -0.5853 -2.0832  0.5319
  795SOL    HW3 3227   0.841   4.348   1.649 -1.4788 -0.9120  1.5345
  795SOL    MW4 3228   0.898   4.294   1.686 -0.2643 -0.3414  0.5294
  796SOL     OW 3229   1.108   4.438   1.537 -0.1037  0.5781 -0.1553
  796SOL    HW2 3230   1.035   4.390   1.576 -1.0344  2.0607 -0.0447
  796SOL    HW3 3231   1.096   4.529   1.566  1.5055  0.9365 -0.5314
  796SOL    MW4 3232   1.097   4.444   1.546 -0.0142  0.8216 -0.1904
  797SOL     OW 3233   1.590   0.003   1.627  0.1347  0.7689  0.2591
  797SOL    HW2 3234   1.566  -0.013   1.718  2.0246  0.7013  0.7733
  797SOL    HW3 3235   1.519   0.057   1.592 -3.0722 -3.2083  0.3625
  797SOL    MW4 3236   1.577   0.008   1.634 -0.0390  0.2351  0.3406
  798SOL     OW 3237   1.356   0.125   1.483 -0.5316  0.3837 -0.6100
  798SOL    HW2 3238   1.343   0.213   1.516  0.4991  1.1643 -2.1865
  798SOL    HW3 3239   1.358   0.135   1.387 -0.1624 -1.2974 -0.8023
  798SOL    MW4 3240   1.355   0.138   1.475 -0.3470  0.2649 -0.8434
  799SOL     OW 3241   1.333   0.361   1.599 -0.0716  0.1105 -0.0161
  799SOL    HW2 3242   1.408   0.413   1.570 -0.6271  1.0348  0.1763
  799SOL    HW3 3243   1.259   0.395   1.549 -0.3098 -1.0297 -0.4568
  799SOL    MW4 3244   1.333   0.372   1.589 -0.1762  0.0820 -0.0489
  800SOL     OW 3245   1.564   0.514   1.536 -0.4999 -0.1019  0.2542
  800SOL    HW2 3246   1.637   0.471   1.582  0.0321  1.6203  1.1065
  800SOL    HW3 3247   1.594   0.522   1.445 -0.1863 -0.6288  0.3125
  800SOL    MW4 3248   1.578   0.510   1.530 -0.3884  0.0558  0.3743
  801SOL     OW 3249   1.636   0.769   1.656  0.2297  0.3105 -0.6239
  801SOL    HW2 3250   1.635   0.756   1.751 -3.3546  2.7084 -0.2560
  801SOL    HW3 3251   1.629   0.680   1.620  2.1231 -0.6613  1.2864
  801SOL    MW4 3252   1.635   0.755   1.664  0.0067  0.4987 -0.3232
  802SOL     OW 3253   1.438   0.928   1.548  0.6439 -0.4255  0.4604
  802SOL    HW2 3254   1.486   0.856   1.590  0.2936 -1.4801 -0.8951
  802SOL    HW3 3255   1.432   0.902   1.456 -1.0373  0.5033  0.2923
  802SOL    MW4 3256   1.444   0.915   1.541  0.3757 -0.4421  0.2594
  803SOL     OW 3257   1.362   1.177   1.657 -0.0125 -0.0475 -0.2021
  803SOL    HW2 3258   1.349   1.160   1.751 -1.2181  0.7660 -0.2237
  803SOL    HW3 3259   1.391   1.092   1.622  0.5331 -0.3340  0.9176
  803SOL    MW4 3260   1.364   1.163   1.665 -0.0994  0.0221 -0.0570
  804SOL     OW 3261   1.627   1.287   1.556 -0.3143  0.2613  0.3454
  804SOL    HW2 3262   1.550   1.252   1.601  0.4349 -0.4975  1.0401
  804SOL    HW3 3263   1.608   1.273   1.463 -1.6850  1.4775  0.4081
  804SOL    MW4 3264   1.614   1.281   1.550 -0.3964  0.3215  0.4454
  805SOL     OW 3265   1.587   1.555   1.634  0.5205  0.1194 -0.1181
  805SOL    HW2 3266   1.591   1.557   1.730  1.4896  0.6942 -0.1582
  805SOL    HW3 3267   1.589   1.462   1.612 -1.9847 -0.0970  0.4896
  805SOL    MW4 3268   1.588   1.543   1.644  0.3178  0.1665 -0.0432
  806SOL     OW 3269   1.330   1.676   1.571  0.1454  0.0547 -0.3175
  806SOL    HW2 3270   1.415   1.641   1.597  0.2401  0.0063 -0.6893
  806SOL    HW3 3271   1.326   1.661   1.477 -0.7987 -1.0729 -0.1062
  806SOL    MW4 3272   1.341   1.669   1.562  0.0334 -0.1005 -0.3386
  807SOL     OW 3273   1.347   1.933   1.663  0.0490  0.4380  0.0572
  807SOL    HW2 3274   1.353   1.912   1.756  0.0755 -1.0528 -0.2711
  807SOL    HW3 3275   1.341   1.848   1.619 -1.9737  1.1813 -1.1645
  807SOL    MW4 3276   1.347   1.919   1.669 -0.2145  0.3394 -0.1473
  808SOL     OW 3277   1.583   2.061   1.568 -0.1574 -0.4467 -0.2129
  808SOL    HW2 3278   1.506   2.012   1.598 -0.1905 -0.4703 -0.3324
  808SOL    HW3 3279   1.577   2.057   1.472  1.0314 -2.1036 -0.2376
  808SOL    MW4 3280   1.572   2.054   1.559 -0.0050 -0.6685 -0.2319
  809SOL     OW 3281   1.551   2.335   1.600 -0.1379 -0.1909 -0.0854
  809SOL    HW2 3282   1.623   2.371   1.547 -0.1266  0.9755  0.7236
  809SOL    HW3 3283   1.561   2.240   1.591  0.0298 -0.0172 -1.9555
  809SOL    MW4 3284   1.562   2.327   1.592 -0.1141 -0.0143 -0.2254
  810SOL     OW 3285   1.305   2.452   1.524 -0.0992  0.1026  0.2828
  810SOL    HW2 3286   1.315   2.534   1.572  0.5455 -0.1438  0.5667
  810SOL    HW3 3287   1.381   2.400   1.548  1.4742  0.8854 -2.7970
  810SOL    MW4 3288   1.316   2.456   1.533  0.1935  0.1733 -0.0859
  811SOL     OW 3289   1.363   2.694   1.640  0.1972 -0.3560  0.5135
  811SOL    HW2 3290   1.436   2.738   1.595  0.6191  0.6691  2.1429
  811SOL    HW3 3291   1.285   2.736   1.604  0.3678 -1.8349 -1.6396
  811SOL    MW4 3292   1.362   2.706   1.630  0.2754 -0.4160  0.4443
  812SOL     OW 3293   1.563   2.851   1.520 -0.4373  0.2178  0.3057
  812SOL    HW2 3294   1.648   2.810   1.535 -0.7643 -0.4815  0.2944
  812SOL    HW3 3295   1.560   2.865   1.425 -0.8381 -0.8963  0.1463
  812SOL    MW4 3296   1.574   2.847   1.509 -0.5333 -0.0215  0.2832
  813SOL     OW 3297   1.588   3.120   1.600 -0.2743  0.1292 -0.4827
  813SOL    HW2 3298   1.665   3.157   1.555 -1.0258  2.0096 -0.2775
  813SOL    HW3 3299   1.598   3.025   1.591  2.2686  0.3204 -0.1449
  813SOL    MW4 3300   1.600   3.112   1.593 -0.0379  0.4027 -0.4112
  814SOL     OW 3301   1.357   3.233   1.533  0.0215 -0.1582 -0.3683
  814SOL    HW2 3302   1.376   3.320   1.565  0.4819 -0.1685 -0.6071
  814SOL    HW3 3303   1.439   3.185   1.543 -0.2003 -0.5327 -0.3330
  814SOL    MW4 3304   1.370   3.238   1.538  0.0530 -0.2091 -0.3952
  815SOL     OW 3305   1.362   3.505   1.633  0.0303  0.1786 -0.0395
  815SOL    HW2 3306   1.337   3.505   1.725 -0.2197 -2.0549 -0.0783
  815SOL    HW3 3307   1.436   3.566   1.628  1.0581 -0.8492  1.9363
  815SOL    MW4 3308   1.369   3.513   1.644  0.1328 -0.2518  0.2160
  816SOL     OW 3309   1.619   3.689   1.558  0.7345 -0.1773  0.2561
  816SOL    HW2 3310   1.596   3.781   1.569 -0.0011 -0.3540  0.1853
  816SOL    HW3 3311   1.587   3.666   1.470  1.0724 -0.4535  0.2031
  816SOL    MW4 3312   1.612   3.698   1.548  0.6820 -0.2370  0.2397
  817SOL     OW 3313   1.560   3.960   1.641  0.2519 -0.2381  0.3860
  817SOL    HW2 3314   1.549   3.928   1.731 -1.7639  0.0400  0.2703
  817SOL    HW3 3315   1.474   3.997   1.618  0.9627  0.3678 -1.3878
  817SOL    MW4 3316   1.547   3.961   1.650  0.0796 -0.1214  0.1367
  818SOL     OW 3317   1.311   4.030   1.567  0.2948 -0.0690 -0.1391
  818SOL    HW2 3318   1.307   4.120   1.597  2.1125  0.1942 -0.5951
  818SOL    HW3 3319   1.324   4.036   1.472 -0.8173 -0.8377 -0.3604
  818SOL    MW4 3320   1.312   4.042   1.558  0.3879 -0.1359 -0.2284
  819SOL     OW 3321   1.335   4.292   1.648  0.2733 -0.4277 -0.1723
  819SOL    HW2 3322   1.405   4.339   1.603  0.6355  0.5084  1.3367
  819SOL    HW3 3323   1.254   4.337   1.620  0.2146 -1.7088 -2.1592
  819SOL    MW4 3324   1.333   4.305   1.638  0.3133 -0.4730 -0.2353
  820SOL     OW 3325   1.581   4.411   1.521 -0.1757 -0.2264 -0.3077
  820SOL    HW2 3326   1.647   4.351   1.555 -0.3051 -0.9085 -1.2506
  820SOL    HW3 3327   1.587   4.488   1.578  0.6064 -0.7653  0.3457
  820SOL    MW4 3328   1.591   4.413   1.533 -0.0894 -0.3872 -0.3458
  821SOL     OW 3329   2.026   4.642   1.628 -0.0347  0.3565  0.1686
  821SOL    HW2 3330   2.022   4.637   1.723  1.3457 -2.0726  0.1426
  821SOL    HW3 3331   1.941   4.676   1.602 -1.1453 -0.8121  2.1701
  821SOL    MW4 3332   2.014   4.646   1.637  0.0010 -0.1178  0.4293
  822SOL     OW 3333   1.825   0.120   1.510 -0.0024  0.3103 -0.0007
  822SOL    HW2 3334   1.741   0.082   1.535  0.3117 -0.5972 -0.2991
  822SOL    HW3 3335   1.823   0.119   1.414  0.4247  0.0929 -0.0085
  822SOL    MW4 3336   1.814   0.115   1.500  0.0952  0.1619 -0.0411
  823SOL     OW 3337   1.793   0.383   1.587 -0.2975  0.1635 -0.3298
  823SOL    HW2 3338   1.861   0.430   1.538 -0.9590  0.2223 -1.2007
  823SOL    HW3 3339   1.809   0.291   1.567 -1.2525  0.2522 -1.5750
  823SOL    MW4 3340   1.804   0.377   1.578 -0.5108  0.1830 -0.6090
  824SOL     OW 3341   2.043   0.493   1.504  0.0874  0.3721  0.2090
  824SOL    HW2 3342   2.119   0.439   1.525  0.1814 -0.2902 -1.6830
  824SOL    HW3 3343   2.055   0.573   1.554  0.7320 -0.7452  1.8844
  824SOL    MW4 3344   2.055   0.496   1.513  0.1848  0.1373  0.1804
  825SOL     OW 3345   2.074   0.759   1.570  0.0554 -0.2935 -1.0552
  825SOL    HW2 3346   2.154   0.806   1.547 -0.0779  0.1484 -0.6311
  825SOL    HW3 3347   2.003   0.820   1.545 -0.1637 -0.9203 -1.9733
  825SOL    MW4 3348   2.075   0.774   1.563  0.0088 -0.3179 -1.1203
  826SOL     OW 3349   1.828   0.910   1.523  0.3598 -0.3493 -0.4054
  826SOL    HW2 3350   1.819   0.993   1.570  2.1642  0.0289 -0.6741
  826SOL    HW3 3351   1.769   0.850   1.567 -1.2435  1.1872 -0.4307
  826SOL    MW4 3352   1.819   0.913   1.535  0.3864 -0.0967 -0.4442
  827SOL     OW 3353   1.840   1.142   1.682  0.4462  0.0893  0.0581
  827SOL    HW2 3354   1.915   1.169   1.628  0.6297  0.1675  0.3514
  827SOL    HW3 3355   1.767   1.195   1.649  0.5709  0.1844 -0.0703
  827SOL    MW4 3356   1.841   1.153   1.670  0.4869  0.1121  0.0799
  828SOL     OW 3357   2.064   1.238   1.552  0.5657  0.1437 -0.2130
  828SOL    HW2 3358   2.045   1.328   1.578 -1.8443 -0.3230 -0.2725
  828SOL    HW3 3359   2.048   1.237   1.458 -0.2705 -0.5496 -0.0664
  828SOL    MW4 3360   2.059   1.250   1.543  0.1371 -0.0093 -0.2015
  829SOL     OW 3361   2.058   1.496   1.624 -0.3134 -0.0097  0.0669
  829SOL    HW2 3362   2.144   1.535   1.607  0.2617 -1.5881 -0.7857
  829SOL    HW3 3363   1.995   1.562   1.596  0.6203  0.8548 -0.0205
  829SOL    MW4 3364   2.061   1.510   1.618 -0.1140 -0.1038 -0.0571
  830SOL     OW 3365   1.820   1.643   1.539  0.3776  0.1673 -0.3257
  830SOL    HW2 3366   1.734   1.610   1.569  0.4648  0.0800 -0.1673
  830SOL    HW3 3367   1.804   1.674   1.450 -0.0826  1.1987  0.1076
  830SOL    MW4 3368   1.806   1.642   1.532  0.3282  0.2918 -0.2475
  831SOL     OW 3369   1.808   1.916   1.654  0.1796  0.1307 -0.0654
  831SOL    HW2 3370   1.813   1.839   1.598 -0.4661 -1.1681  1.6115
  831SOL    HW3 3371   1.727   1.960   1.629 -0.3027 -0.6578  0.1044
  831SOL    MW4 3372   1.798   1.912   1.644  0.0308 -0.1447  0.1783
  832SOL     OW 3373   1.972   2.097   1.542  0.7512 -0.2412  1.0690
  832SOL    HW2 3374   1.915   2.036   1.588  1.4705 -0.8972  1.1100
  832SOL    HW3 3375   2.061   2.065   1.561  1.0540 -0.4935 -0.7154
  832SOL    MW4 3376   1.976   2.085   1.551  0.8861 -0.3610  0.8390
  833SOL     OW 3377   1.964   2.354   1.623  0.1458 -0.1560 -0.0258
  833SOL    HW2 3378   1.977   2.358   1.718 -1.7338 -0.5875  0.2746
  833SOL    HW3 3379   1.959   2.260   1.604 -0.5072 -0.0505 -0.3879
  833SOL    MW4 3380   1.965   2.342   1.633 -0.1884 -0.1991 -0.0340
  834SOL     OW 3381   1.769   2.471   1.459  0.6403 -0.4162 -0.0108
  834SOL    HW2 3382   1.843   2.428   1.500  0.6212 -1.1417 -0.7228
  834SOL    HW3 3383   1.774   2.445   1.367 -1.5240 -1.9626  0.2696
  834SOL    MW4 3384   1.779   2.462   1.452  0.3524 -0.7157 -0.0676
  835SOL     OW 3385   2.013   2.848   1.469  0.4240  0.6371  0.1281
  835SOL    HW2 3386   2.019   2.932   1.513  0.1432  0.6659  0.1093
  835SOL    HW3 3387   1.986   2.869   1.379  2.2821  0.6897 -0.4376
  835SOL    MW4 3388   2.010   2.862   1.463  0.6320  0.6480  0.0510
  836SOL     OW 3389   2.034   3.085   1.615  0.6866 -0.3490  0.2409
  836SOL    HW2 3390   2.022   3.082   1.710 -0.3810 -0.3934  0.1113
  836SOL    HW3 3391   2.100   3.152   1.601  1.0361 -0.5250  1.0367
  836SOL    MW4 3392   2.041   3.093   1.626  0.5920 -0.3781  0.3289
  837SOL     OW 3393   2.266   3.238   1.562  0.5509 -0.3194 -0.4628
  837SOL    HW2 3394   2.275   3.333   1.577 -0.1846  0.0287 -2.1614
  837SOL    HW3 3395   2.263   3.229   1.467 -1.5268 -1.8414 -0.2676
  837SOL    MW4 3396   2.267   3.250   1.552  0.1798 -0.4745 -0.6613
  838SOL     OW 3397   1.830   3.225   1.492  0.2630  0.3322 -0.5059
  838SOL    HW2 3398   1.819   3.307   1.540  1.3517  0.3013 -0.1894
  838SOL    HW3 3399   1.893   3.175   1.544 -0.4140 -0.7304 -0.6770
  838SOL    MW4 3400   1.837   3.229   1.505  0.3175  0.1879 -0.4867
  839SOL     OW 3401   1.785   3.465   1.650 -0.5184 -0.1575  0.3116
  839SOL    HW2 3402   1.796   3.462   1.745 -1.6945 -0.1262  0.4598
  839SOL    HW3 3403   1.733   3.544   1.634 -2.0409 -1.2125 -0.1532
  839SOL    MW4 3404   1.779   3.475   1.660 -0.8744 -0.2925  0.2699
  840SOL     OW 3405   2.008   3.606   1.494 -0.0494  0.2760  0.0308
  840SOL    HW2 3406   2.088   3.570   1.532  0.0422 -1.7458 -2.0083
  840SOL    HW3 3407   1.938   3.563   1.543  0.0704  1.7317  1.5290
  840SOL    MW4 3408   2.009   3.595   1.506 -0.0217  0.2015 -0.0405
  841SOL     OW 3409   2.010   3.869   1.625 -0.0670  0.1832  0.1298
  841SOL    HW2 3410   2.089   3.919   1.604 -0.3049  0.4036 -0.2445
  841SOL    HW3 3411   2.018   3.789   1.573  0.0261  0.0987  0.2745
  841SOL    MW4 3412   2.021   3.865   1.615 -0.0863  0.2012  0.0995
  842SOL     OW 3413   1.799   4.002   1.489 -0.6817 -0.0555  0.0842
  842SOL    HW2 3414   1.870   3.953   1.529 -0.0815  0.1184 -0.7477
  842SOL    HW3 3415   1.723   3.985   1.545 -0.0898 -0.5859  0.7336
  842SOL    MW4 3416   1.798   3.994   1.501 -0.5244 -0.1030  0.0600
  843SOL     OW 3417   1.774   4.245   1.647 -0.2891 -0.3644 -0.2282
  843SOL    HW2 3418   1.851   4.293   1.616  0.5839  0.3097  2.7879
  843SOL    HW3 3419   1.772   4.166   1.595  2.7975 -0.6322 -0.0268
  843SOL    MW4 3420   1.784   4.241   1.636  0.2332 -0.3109  0.1963
  844SOL     OW 3421   2.004   4.375   1.552  0.5554 -0.2389  0.1569
  844SOL    HW2 3422   2.088   4.348   1.588 -0.0888  0.4674  2.2539
  844SOL    HW3 3423   1.995   4.467   1.578 -0.8937 -0.3291  0.0074
  844SOL    MW4 3424   2.014   4.384   1.560  0.2789 -0.1569  0.4138
  845SOL     OW 3425   2.490   4.661   1.592 -0.2602 -0.0360  0.0217
  845SOL    HW2 3426   2.485   4.678   1.686 -0.1675  0.7503 -0.1111
  845SOL    HW3 3427   2.407   4.693   1.557 -1.4233 -2.7309  0.1786
  845SOL    MW4 3428   2.479   4.667   1.600 -0.4015 -0.2878  0.0249
  846SOL     OW 3429   2.246   0.086   1.493 -0.5847  0.3782 -0.3412
  846SOL    HW2 3430   2.167   0.049   1.533 -0.9108  0.9975 -0.4047
  846SOL    HW3 3431   2.230   0.079   1.399 -1.0983  1.6264 -0.3528
  846SOL    MW4 3432   2.233   0.080   1.486 -0.6955  0.6246 -0.3511
  847SOL     OW 3433   2.248   0.344   1.608 -0.0925 -0.3379 -0.2722
  847SOL    HW2 3434   2.236   0.337   1.703 -2.2048  0.4804 -0.4673
  847SOL    HW3 3435   2.248   0.254   1.577  1.9050 -0.6803  0.6369
  847SOL    MW4 3436   2.247   0.332   1.617 -0.1078 -0.2751 -0.1780
  848SOL     OW 3437   2.472   0.519   1.541 -0.0862  0.4844 -0.2751
  848SOL    HW2 3438   2.553   0.474   1.565  0.1218 -0.2550 -2.2222
  848SOL    HW3 3439   2.404   0.453   1.554 -0.1900  0.6293 -0.0812
  848SOL    MW4 3440   2.474   0.504   1.546 -0.0725  0.4060 -0.5064
  849SOL     OW 3441   2.504   0.772   1.637 -0.6300 -0.1414 -0.2448
  849SOL    HW2 3442   2.440   0.825   1.588  0.8691  0.0361 -2.0822
  849SOL    HW3 3443   2.504   0.688   1.591  1.0005  0.1198 -0.7503
  849SOL    MW4 3444   2.496   0.768   1.624 -0.2167 -0.0834 -0.5541
  850SOL     OW 3445   2.303   0.900   1.521 -0.1830  0.0954 -0.4988
  850SOL    HW2 3446   2.312   0.975   1.580 -0.5842 -0.5093  0.3383
  850SOL    HW3 3447   2.300   0.939   1.434  0.3710  1.0064 -0.1287
  850SOL    MW4 3448   2.304   0.915   1.517 -0.1628  0.1358 -0.3395
  851SOL     OW 3449   2.287   1.125   1.678 -0.3046 -0.2982 -0.3045
  851SOL    HW2 3450   2.265   1.130   1.771 -0.3173 -0.9404 -0.2667
  851SOL    HW3 3451   2.213   1.164   1.633 -0.7603 -0.9106 -0.0931
  851SOL    MW4 3452   2.274   1.131   1.684 -0.3664 -0.4637 -0.2717
  852SOL     OW 3453   2.476   1.296   1.582  0.0893  0.3296 -0.3587
  852SOL    HW2 3454   2.411   1.244   1.629  0.7739 -0.3742 -0.1802
  852SOL    HW3 3455   2.461   1.276   1.490 -0.1173  0.3591 -0.3301
  852SOL    MW4 3456   2.466   1.286   1.576  0.1523  0.2408 -0.3315
  853SOL     OW 3457   2.472   1.564   1.676 -0.0886 -0.0513  0.4128
  853SOL    HW2 3458   2.554   1.603   1.646 -0.2735 -0.4390 -0.6143
  853SOL    HW3 3459   2.470   1.477   1.635 -0.9546 -0.0844  0.5159
  853SOL    MW4 3460   2.482   1.558   1.666 -0.2272 -0.1067  0.2909
  854SOL     OW 3461   2.271   1.713   1.551 -0.2687 -0.1574  0.2330
  854SOL    HW2 3462   2.335   1.665   1.604 -0.1922  0.8789  1.0903
  854SOL    HW3 3463   2.278   1.673   1.464  0.6186 -0.9218  0.6421
  854SOL    MW4 3464   2.281   1.702   1.547 -0.1419 -0.1216  0.4002
  855SOL     OW 3465   2.220   1.980   1.620  0.2102  0.0700 -0.5560
  855SOL    HW2 3466   2.220   1.968   1.715 -0.9943 -0.2173 -0.5952
  855SOL    HW3 3467   2.212   1.892   1.584  0.8810  0.1541 -0.9417
  855SOL    MW4 3468   2.219   1.967   1.628  0.1400  0.0432 -0.6119
  856SOL     OW 3469   2.490   2.060   1.543  0.2034  0.4189  0.1254
  856SOL    HW2 3470   2.401   2.035   1.570 -0.0042  0.5121 -0.4634
  856SOL    HW3 3471   2.483   2.075   1.449  1.2744 -1.4547 -0.2859
  856SOL    MW4 3472   2.477   2.058   1.534  0.3173  0.1838 -0.0066
  857SOL     OW 3473   2.453   2.314   1.621  0.1800  0.1577 -0.4065
  857SOL    HW2 3474   2.459   2.322   1.716 -1.3757  1.0016 -0.3568
  857SOL    HW3 3475   2.468   2.221   1.603 -0.2977 -0.1451  0.7377
  857SOL    MW4 3476   2.456   2.303   1.631 -0.0880  0.2291 -0.2490
  858SOL     OW 3477   2.219   2.449   1.515 -0.3493  0.1051  0.9304
  858SOL    HW2 3478   2.299   2.423   1.561 -0.9393 -0.1425  1.8287
  858SOL    HW3 3479   2.148   2.406   1.563 -0.9566 -0.4282 -0.3990
  858SOL    MW4 3480   2.220   2.440   1.527 -0.5074  0.0019  0.8736
  859SOL     OW 3481   2.207   2.719   1.616  0.0236  0.5137  0.4506
  859SOL    HW2 3482   2.210   2.626   1.595 -1.0775  0.3584  0.9175
  859SOL    HW3 3483   2.152   2.757   1.547  0.6186  0.8538  0.1585
  859SOL    MW4 3484   2.200   2.712   1.604 -0.0434  0.5381  0.4737
  860SOL     OW 3485   2.444   2.834   1.492 -0.3809  0.9443 -0.3081
  860SOL    HW2 3486   2.447   2.918   1.538  0.0126 -0.1164  1.6149
  860SOL    HW3 3487   2.374   2.785   1.534  0.8296 -0.5280  0.0333
  860SOL    MW4 3488   2.435   2.839   1.504 -0.1695  0.6104 -0.0093
  861SOL     OW 3489   2.480   3.070   1.627 -0.7174  0.3466 -0.2977
  861SOL    HW2 3490   2.545   3.138   1.611  0.4024  0.0263  2.6497
  861SOL    HW3 3491   2.396   3.114   1.613  0.0534  1.1714 -2.5837
  861SOL    MW4 3492   2.477   3.085   1.623 -0.4680  0.4132 -0.2104
  862SOL     OW 3493   2.271   3.206   1.287  0.5223  0.0007 -0.3213
  862SOL    HW2 3494   2.278   3.297   1.257  1.6387  0.0985  0.2422
  862SOL    HW3 3495   2.342   3.161   1.242  0.1048 -0.5534 -0.4228
  862SOL    MW4 3496   2.281   3.212   1.277  0.6146 -0.0594 -0.2605
  863SOL     OW 3497   2.228   3.500   1.612  0.0969 -0.5848  0.2001
  863SOL    HW2 3498   2.224   3.492   1.708  0.2498  1.7908  0.4310
  863SOL    HW3 3499   2.315   3.537   1.595 -0.1222 -0.5213 -0.8099
  863SOL    MW4 3500   2.239   3.504   1.623  0.0880 -0.2632  0.0972
  864SOL     OW 3501   2.481   3.616   1.565 -0.2519 -0.0662  0.6369
  864SOL    HW2 3502   2.568   3.592   1.597  0.3941  0.4345 -0.7008
  864SOL    HW3 3503   2.477   3.711   1.572 -0.2316  0.0216 -0.4099
  864SOL    MW4 3504   2.492   3.625   1.570 -0.1640  0.0117  0.3221
  865SOL     OW 3505   2.470   3.901   1.661  0.1531  0.1681 -0.0497
  865SOL    HW2 3506   2.488   3.872   1.750  1.1985 -2.3880 -1.0460
  865SOL    HW3 3507   2.551   3.944   1.632  0.9688 -1.8276 -0.8279
  865SOL    MW4 3508   2.483   3.903   1.669  0.3986 -0.4325 -0.2838
  866SOL     OW 3509   2.248   4.002   1.556 -0.2055 -0.1005 -0.5492
  866SOL    HW2 3510   2.333   3.970   1.585 -0.9485 -0.6655  1.0412
  866SOL    HW3 3511   2.244   3.979   1.463  0.6989 -1.5078 -0.2523
  866SOL    MW4 3512   2.259   3.995   1.547 -0.1841 -0.3610 -0.3002
  867SOL     OW 3513   2.266   4.274   1.637  0.2399  0.0605 -0.0794
  867SOL    HW2 3514   2.348   4.309   1.602  0.4523  0.3485  0.7214
  867SOL    HW3 3515   2.265   4.182   1.607  0.1426  0.4601 -1.3313
  867SOL    MW4 3516   2.277   4.266   1.628  0.2551  0.1512 -0.1388
  868SOL     OW 3517   2.492   4.399   1.532 -0.6421 -0.1749 -0.3711
  868SOL    HW2 3518   2.493   4.493   1.551  0.5708 -0.2330 -0.1373
  868SOL    HW3 3519   2.510   4.394   1.438  0.8961 -0.2376 -0.0860
  868SOL    MW4 3520   2.494   4.411   1.522 -0.2792 -0.1912 -0.3026
  869SOL     OW 3521   2.913   4.634   1.634  0.1669 -0.3432  0.0081
  869SOL    HW2 3522   2.913   4.669   1.723  2.3987 -0.6529  0.1710
  869SOL    HW3 3523   2.854   4.691   1.585  1.3399  1.7398  0.9794
  869SOL    MW4 3524   2.905   4.646   1.639  0.6161 -0.1092  0.1578
  870SOL     OW 3525   2.722   0.128   1.491 -0.5521 -0.5784  0.8143
  870SOL    HW2 3526   2.721   0.212   1.537 -1.7724  0.3281 -0.8227
  870SOL    HW3 3527   2.639   0.087   1.515 -0.5636 -0.7279  0.5170
  870SOL    MW4 3528   2.711   0.134   1.500 -0.7148 -0.4786  0.5592
  871SOL     OW 3529   2.726   0.385   1.607 -0.5964  0.7078 -0.3366
  871SOL    HW2 3530   2.752   0.389   1.699 -0.3587 -1.0849 -0.3032
  871SOL    HW3 3531   2.801   0.417   1.559  0.0224 -0.2009  0.0056
  871SOL    MW4 3532   2.739   0.390   1.613 -0.4830  0.3514 -0.2872
  872SOL     OW 3533   2.957   0.522   1.503  0.2371  0.3027  0.0219
  872SOL    HW2 3534   2.931   0.606   1.543 -0.3291  0.3030 -0.3338
  872SOL    HW3 3535   2.943   0.535   1.410 -3.2193 -1.2934  0.2085
  872SOL    MW4 3536   2.951   0.535   1.496 -0.2935  0.0921 -0.0004
  873SOL     OW 3537   2.958   0.785   1.623  0.2649 -0.0728 -0.1306
  873SOL    HW2 3538   2.941   0.755   1.712 -0.1268 -0.6252 -0.3899
  873SOL    HW3 3539   2.874   0.820   1.593  0.6290  0.9504  0.0420
  873SOL    MW4 3540   2.945   0.785   1.631  0.2613 -0.0107 -0.1420
  874SOL     OW 3541   2.713   0.901   1.523  0.3014  0.7827  0.0882
  874SOL    HW2 3542   2.653   0.841   1.566 -1.1910  2.7012  0.7149
  874SOL    HW3 3543   2.702   0.883   1.429  2.0333 -1.9284  0.3326
  874SOL    MW4 3544   2.704   0.891   1.516  0.3328  0.6782  0.2033
  875SOL     OW 3545   2.735   1.166   1.649 -0.4055 -0.4895  0.1814
  875SOL    HW2 3546   2.729   1.081   1.606  0.5092 -0.1927 -0.5608
  875SOL    HW3 3547   2.654   1.211   1.625 -1.3138 -1.4859  1.3380
  875SOL    MW4 3548   2.724   1.161   1.640 -0.4048 -0.5817  0.2359
  876SOL     OW 3549   2.979   1.323   1.620 -0.6585 -0.6157  0.1831
  876SOL    HW2 3550   3.054   1.263   1.618  0.8109  1.1441  0.9588
  876SOL    HW3 3551   2.904   1.267   1.639  0.7966 -2.1316  1.6461
  876SOL    MW4 3552   2.979   1.308   1.622 -0.2728 -0.5835  0.4785
  877SOL     OW 3553   2.913   1.581   1.647  0.1028 -0.5902  0.3578
  877SOL    HW2 3554   2.822   1.588   1.618  0.4639 -1.2656 -1.0128
  877SOL    HW3 3555   2.931   1.487   1.645  0.6547 -0.5039  1.1906
  877SOL    MW4 3556   2.903   1.569   1.643  0.2232 -0.6679  0.2867
  878SOL     OW 3557   2.675   1.721   1.574  0.5113  0.5123 -0.3902
  878SOL    HW2 3558   2.686   1.813   1.598  1.5578  0.7223 -1.6448
  878SOL    HW3 3559   2.678   1.720   1.478  0.6795 -0.8491 -0.3861
  878SOL    MW4 3560   2.677   1.733   1.565  0.6714  0.3605 -0.5550
  879SOL     OW 3561   2.706   1.968   1.684 -0.2617  0.0317  0.3808
  879SOL    HW2 3562   2.684   1.961   1.776  1.1273  0.8149  0.7985
  879SOL    HW3 3563   2.624   1.989   1.640 -0.8589 -0.0033  1.4924
  879SOL    MW4 3564   2.693   1.970   1.690 -0.1574  0.1303  0.5825
  880SOL     OW 3565   2.928   2.037   1.510  0.3030  0.4964  0.5263
  880SOL    HW2 3566   2.942   2.120   1.554  0.1851  0.4816  0.5913
  880SOL    HW3 3567   2.853   1.998   1.554  1.0886 -0.1835  1.2937
  880SOL    MW4 3568   2.920   2.043   1.522  0.3912  0.4048  0.6362
  881SOL     OW 3569   2.912   2.305   1.578  0.1687 -0.0159 -1.0912
  881SOL    HW2 3570   2.925   2.302   1.672  0.9864  0.2641 -1.1877
  881SOL    HW3 3571   2.828   2.350   1.566 -0.5350 -1.1483 -0.4671
  881SOL    MW4 3572   2.903   2.311   1.589  0.1838 -0.1283 -1.0216
  882SOL     OW 3573   2.671   2.436   1.513  0.1144  0.2412 -0.1494
  882SOL    HW2 3574   2.667   2.525   1.549  0.0498  0.1445  0.0815
  882SOL    HW3 3575   2.591   2.394   1.543  0.6597 -0.2339  0.6397
  882SOL    MW4 3576   2.660   2.442   1.521  0.1776  0.1655 -0.0147
  883SOL     OW 3577   2.660   2.702   1.596 -0.2027  0.4167 -0.3420
  883SOL    HW2 3578   2.735   2.749   1.559 -0.6278  1.6444  0.3286
  883SOL    HW3 3579   2.584   2.746   1.560 -0.6116  0.3724  0.4589
  883SOL    MW4 3580   2.660   2.714   1.587 -0.3128  0.5729 -0.1479
  884SOL     OW 3581   2.874   2.835   1.499  0.3594 -0.1428  0.1758
  884SOL    HW2 3582   2.951   2.786   1.528 -1.4195 -2.6858  0.7051
  884SOL    HW3 3583   2.882   2.920   1.542  2.5774 -0.5538  0.6293
  884SOL    MW4 3584   2.885   2.840   1.508  0.4175 -0.5326  0.3054
  885SOL     OW 3585   2.877   3.083   1.636  0.3497 -0.2260  0.2484
  885SOL    HW2 3586   2.884   3.076   1.732  0.5480 -0.1338  0.2412
  885SOL    HW3 3587   2.965   3.110   1.608  0.5893 -1.2970 -0.0539
  885SOL    MW4 3588   2.890   3.086   1.645  0.4077 -0.3550  0.2075
  886SOL     OW 3589   2.674   3.242   1.538 -0.1203 -0.2513 -0.3303
  886SOL    HW2 3590   2.748   3.184   1.556 -0.1505 -0.4496 -0.8291
  886SOL    HW3 3591   2.667   3.243   1.442 -0.4001  0.2247 -0.3084
  886SOL    MW4 3592   2.683   3.235   1.528 -0.1614 -0.2146 -0.3932
  887SOL     OW 3593   2.714   3.494   1.639  0.0770 -0.5650 -0.2238
  887SOL    HW2 3594   2.707   3.487   1.734 -1.8416 -1.1370 -0.3997
  887SOL    HW3 3595   2.701   3.405   1.607  0.0580 -0.2678 -1.0576
  887SOL    MW4 3596   2.711   3.481   1.647 -0.1786 -0.6015 -0.3570
  888SOL     OW 3597   2.946   3.623   1.575  0.3138 -0.3295 -0.3093
  888SOL    HW2 3598   2.877   3.567   1.609  1.8050 -0.8814  1.9854
  888SOL    HW3 3599   2.948   3.606   1.481  0.4472 -3.8660  0.2669
  888SOL    MW4 3600   2.937   3.614   1.567  0.5286 -0.8688  0.0693
  889SOL     OW 3601   2.921   3.885   1.657  0.0041  1.0692 -0.2393
  889SOL    HW2 3602   2.842   3.918   1.616  0.9533  1.0980 -2.0719
  889SOL    HW3 3603   2.921   3.791   1.638 -0.0174  0.9082  0.5112
  889SOL    MW4 3604   2.911   3.877   1.649  0.1266  1.0519 -0.3819
  890SOL     OW 3605   2.690   3.998   1.546  0.5796  0.2731 -0.4251
  890SOL    HW2 3606   2.709   4.090   1.562  1.0197  0.2896 -1.0427
  890SOL    HW3 3607   2.684   3.991   1.451 -0.3613 -0.1567 -0.3463
  890SOL    MW4 3608   2.692   4.009   1.536  0.5136  0.2184 -0.4960
  891SOL     OW 3609   2.724   4.271   1.622 -0.0432 -0.3460  0.0440
  891SOL    HW2 3610   2.652   4.321   1.582 -0.4076  0.1086  1.2493
  891SOL    HW3 3611   2.802   4.323   1.604 -0.2173 -0.0926  0.0157
  891SOL    MW4 3612   2.724   4.284   1.614 -0.1140 -0.2532  0.1992
  892SOL     OW 3613   2.966   4.378   1.549  0.2040  0.5286 -0.3945
  892SOL    HW2 3614   2.962   4.469   1.578 -2.4049  0.6347 -0.9429
  892SOL    HW3 3615   2.966   4.383   1.453  2.0402 -0.0204 -0.4499
  892SOL    MW4 3616   2.965   4.391   1.540  0.1018  0.4702 -0.4742
  893SOL     OW 3617   3.378   0.005   1.652 -0.0223 -0.3594  0.1122
  893SOL    HW2 3618   3.458   0.045   1.620 -0.2943  0.5865  0.5891
  893SOL    HW3 3619   3.384  -0.087   1.626  1.5686 -0.4644  0.8456
  893SOL    MW4 3620   3.389  -0.002   1.645  0.1516 -0.2484  0.2719
  894SOL     OW 3621   3.128   0.159   1.563  0.7939 -0.0533  0.8070
  894SOL    HW2 3622   3.200   0.114   1.607  0.9244  1.0839  1.7557
  894SOL    HW3 3623   3.051   0.105   1.580  1.3813 -1.2011 -0.1008
  894SOL    MW4 3624   3.127   0.146   1.571  0.8891 -0.0547  0.8123
  895SOL     OW 3625   3.155   0.429   1.654  0.6063  0.1751  0.0239
  895SOL    HW2 3626   3.162   0.336   1.635 -0.1176 -0.2409  1.6822
  895SOL    HW3 3627   3.081   0.460   1.603 -0.0542 -0.4812  0.5778
  895SOL    MW4 3628   3.146   0.421   1.645  0.4232  0.0336  0.3158
  896SOL     OW 3629   3.393   0.462   1.525  0.3354  0.1975 -0.5440
  896SOL    HW2 3630   3.309   0.462   1.569  0.2681  1.0840 -0.6658
  896SOL    HW3 3631   3.373   0.482   1.433  0.2216 -3.8446 -1.5151
  896SOL    MW4 3632   3.380   0.464   1.519  0.3111 -0.2189 -0.6881
  897SOL     OW 3633   3.418   0.721   1.632  0.2968 -0.4833 -0.2284
  897SOL    HW2 3634   3.391   0.732   1.723  2.5262  1.1269  0.2837
  897SOL    HW3 3635   3.414   0.627   1.617  0.0986 -0.7814  1.6075
  897SOL    MW4 3636   3.414   0.710   1.642  0.5648 -0.3102  0.0814
  898SOL     OW 3637   3.205   0.853   1.516 -0.6940  0.1009 -0.0486
  898SOL    HW2 3638   3.279   0.810   1.558  0.1439 -2.0330 -3.5158
  898SOL    HW3 3639   3.128   0.819   1.561  0.1598 -2.3512 -0.3585
  898SOL    MW4 3640   3.205   0.843   1.527 -0.4706 -0.5041 -0.5469
  899SOL     OW 3641   3.169   1.109   1.624  0.5928  0.3729  0.4723
  899SOL    HW2 3642   3.156   1.092   1.717 -0.3334  0.2404  0.3313
  899SOL    HW3 3643   3.174   1.022   1.584  0.3013  0.4234  0.3193
  899SOL    MW4 3644   3.168   1.095   1.631  0.4320  0.3622  0.4334
  900SOL     OW 3645   3.404   1.273   1.600 -0.0205  0.0102 -0.2910
  900SOL    HW2 3646   3.476   1.210   1.598 -1.3435 -1.5352 -0.3029
  900SOL    HW3 3647   3.335   1.228   1.648 -0.8686  1.6065  0.0055
  900SOL    MW4 3648   3.405   1.259   1.606 -0.3068  0.0169 -0.2534
  901SOL     OW 3649   3.398   1.555   1.659 -0.3851 -0.5804 -0.3125
  901SOL    HW2 3650   3.399   1.565   1.754 -1.8365  1.2764 -0.4767
  901SOL    HW3 3651   3.419   1.463   1.645 -1.4100 -1.1691  1.8445
  901SOL    MW4 3652   3.401   1.544   1.670 -0.7119 -0.4129 -0.0496
  902SOL     OW 3653   3.165   1.672   1.548 -0.0287  0.1825  0.0374
  902SOL    HW2 3654   3.244   1.626   1.579  0.0041  0.7059  0.7486
  902SOL    HW3 3655   3.093   1.623   1.588 -0.0483 -0.1014 -0.3494
  902SOL    MW4 3656   3.166   1.659   1.558 -0.0269  0.2141  0.0801
  903SOL     OW 3657   3.142   1.948   1.654  0.3729 -0.2883  0.1467
  903SOL    HW2 3658   3.156   1.857   1.628 -0.9179 -0.8587  1.3838
  903SOL    HW3 3659   3.058   1.972   1.615 -0.2074 -0.2411  1.4003
  903SOL    MW4 3660   3.133   1.939   1.645  0.1261 -0.3572  0.4753
  904SOL     OW 3661   3.354   2.055   1.524  0.4966 -0.0447  0.1240
  904SOL    HW2 3662   3.288   2.016   1.581  1.4743 -1.8130  0.0865
  904SOL    HW3 3663   3.322   2.041   1.435  0.9623 -0.9784  0.1032
  904SOL    MW4 3664   3.341   2.048   1.520  0.6869 -0.4010  0.1162
  905SOL     OW 3665   3.394   2.314   1.610  0.1699 -0.6007  0.1736
  905SOL    HW2 3666   3.468   2.358   1.569  0.0765 -0.9943 -0.4173
  905SOL    HW3 3667   3.394   2.226   1.573 -0.7368 -0.5256 -0.0285
  905SOL    MW4 3668   3.404   2.309   1.600  0.0379 -0.6425  0.0690
  906SOL     OW 3669   3.142   2.438   1.500  0.4023 -0.3099 -0.2260
  906SOL    HW2 3670   3.214   2.381   1.528  0.6650  0.0244 -0.2277
  906SOL    HW3 3671   3.063   2.388   1.521  0.5991 -0.2136  0.8004
  906SOL    MW4 3672   3.141   2.424   1.507  0.4628 -0.2532 -0.0908
  907SOL     OW 3673   3.099   2.706   1.603 -0.7019 -0.6463  0.0501
  907SOL    HW2 3674   3.186   2.743   1.586 -0.5171 -1.3241 -0.5418
  907SOL    HW3 3675   3.099   2.624   1.554 -1.6640 -0.6684  0.0855
  907SOL    MW4 3676   3.111   2.700   1.594 -0.8042 -0.7386 -0.0234
  908SOL     OW 3677   3.344   2.821   1.529  0.0914 -0.3242 -0.0711
  908SOL    HW2 3678   3.359   2.912   1.557 -0.7201 -0.2192  0.0450
  908SOL    HW3 3679   3.336   2.826   1.434 -0.4244 -0.2009 -0.0239
  908SOL    MW4 3680   3.345   2.834   1.521 -0.0839 -0.2942 -0.0495
  909SOL     OW 3681   3.341   3.089   1.633  0.5152 -0.1339  0.6476
  909SOL    HW2 3682   3.349   3.096   1.728  0.7726 -1.7069  0.7614
  909SOL    HW3 3683   3.423   3.123   1.598  1.3270 -1.6046  1.0962
  909SOL    MW4 3684   3.353   3.094   1.641  0.6566 -0.5355  0.7218
  910SOL     OW 3685   3.106   3.208   1.539  0.5873  0.1646  0.2846
  910SOL    HW2 3686   3.179   3.161   1.579  0.0825  1.2085  2.4914
  910SOL    HW3 3687   3.127   3.210   1.445  1.5005 -2.8104  0.3879
  910SOL    MW4 3688   3.118   3.202   1.532  0.6413 -0.0901  0.5895
  911SOL     OW 3689   3.153   3.475   1.654  0.1223  0.1747 -0.0625
  911SOL    HW2 3690   3.121   3.396   1.611  0.5492 -0.2655  0.4383
  911SOL    HW3 3691   3.090   3.543   1.628  0.8384  0.0973 -2.0465
  911SOL    MW4 3692   3.140   3.474   1.645  0.2728  0.1063 -0.2582
  912SOL     OW 3693   3.404   3.590   1.574 -0.2786 -0.1043 -0.1974
  912SOL    HW2 3694   3.473   3.542   1.620  0.7480 -0.0430 -1.6293
  912SOL    HW3 3695   3.325   3.572   1.624  0.6139 -0.9254  0.9516
  912SOL    MW4 3696   3.403   3.581   1.587 -0.0255 -0.2043 -0.2346
  913SOL     OW 3697   3.379   3.884   1.645  0.1814  0.0956  0.0910
  913SOL    HW2 3698   3.297   3.911   1.605 -0.5463  0.4879  1.7781
  913SOL    HW3 3699   3.393   3.794   1.617 -1.5935 -0.4648  0.9711
  913SOL    MW4 3700   3.370   3.876   1.636 -0.1490  0.0734  0.4297
  914SOL     OW 3701   3.143   3.997   1.542  0.1281 -0.4108  0.1777
  914SOL    HW2 3702   3.158   4.080   1.588  0.0624  0.3249 -1.1088
  914SOL    HW3 3703   3.056   3.969   1.572  0.1196  0.0198  0.5596
  914SOL    MW4 3704   3.133   4.004   1.552  0.1180 -0.2570  0.0585
  915SOL     OW 3705   3.211   4.255   1.652 -0.6816 -0.2544  0.0131
  915SOL    HW2 3706   3.197   4.246   1.746  0.1310 -0.0862  0.1513
  915SOL    HW3 3707   3.145   4.319   1.625  0.0005  0.7623  0.7160
  915SOL    MW4 3708   3.200   4.263   1.661 -0.4842 -0.0982  0.1241
  916SOL     OW 3709   3.413   4.421   1.566 -0.0278  0.3616  0.2292
  916SOL    HW2 3710   3.350   4.374   1.621  0.4425 -1.7904 -1.0410
  916SOL    HW3 3711   3.381   4.409   1.477  1.1234  0.9005 -0.2674
  916SOL    MW4 3712   3.400   4.413   1.562  0.1860  0.1488 -0.0039
  917SOL     OW 3713   3.830   4.657   1.691  0.0443  0.4026 -0.2367
  917SOL    HW2 3714   3.847   4.653   1.786 -0.3867 -0.4748 -0.1939
  917SOL    HW3 3715   3.901   4.711   1.657  0.0253  0.9924  0.6321
  917SOL    MW4 3716   3.842   4.663   1.699 -0.0153  0.3647 -0.1162
  918SOL     OW 3717   3.614   0.086   1.550  0.4981  0.0930  0.5629
  918SOL    HW2 3718   3.679   0.036   1.599  1.7750  1.3537  0.1846
  918SOL    HW3 3719   3.655   0.102   1.465 -0.1181  1.2692  0.4708
  918SOL    MW4 3720   3.628   0.082   1.545  0.5851  0.4146  0.5009
  919SOL     OW 3721   3.628   0.346   1.613  0.3587  0.4211  0.5780
  919SOL    HW2 3722   3.622   0.252   1.596 -0.2644  0.4785  0.4927
  919SOL    HW3 3723   3.553   0.384   1.568  0.6552  0.9734  0.5405
  919SOL    MW4 3724   3.618   0.339   1.604  0.3154  0.5016  0.5617
  920SOL     OW 3725   3.850   0.503   1.530 -0.1922  0.2167 -0.2713
  920SOL    HW2 3726   3.777   0.443   1.548  0.4830 -0.9481 -1.3863
  920SOL    HW3 3727   3.854   0.509   1.435  1.1697  0.2762 -0.2173
  920SOL    MW4 3728   3.841   0.496   1.520  0.0763  0.0708 -0.4113
  921SOL     OW 3729   3.854   0.744   1.656 -0.2266 -0.2629 -0.1506
  921SOL    HW2 3730   3.789   0.798   1.612  0.2270 -0.9638 -1.7187
  921SOL    HW3 3731   3.838   0.656   1.622  1.3816 -0.4778 -0.3793
  921SOL    MW4 3732   3.843   0.739   1.646  0.0453 -0.3837 -0.3875
  922SOL     OW 3733   3.632   0.878   1.544  0.5242  0.4692 -0.0623
  922SOL    HW2 3734   3.556   0.829   1.574  1.9986 -1.1923  1.0928
  922SOL    HW3 3735   3.626   0.876   1.448 -0.4068 -0.3973  0.0047
  922SOL    MW4 3736   3.621   0.871   1.535  0.5958  0.1357  0.0988
  923SOL     OW 3737   3.616   1.119   1.638  0.2508 -0.3270 -0.7075
  923SOL    HW2 3738   3.693   1.165   1.604 -0.1534  1.1095  0.2760
  923SOL    HW3 3739   3.622   1.031   1.600  1.5736  0.2221 -1.8298
  923SOL    MW4 3740   3.627   1.113   1.628  0.3719 -0.0650 -0.7259
  924SOL     OW 3741   3.806   1.269   1.515  0.5463  0.2299 -0.0883
  924SOL    HW2 3742   3.896   1.236   1.518  0.2889 -0.5990 -1.2700
  924SOL    HW3 3743   3.813   1.361   1.541  2.2162  1.1343 -3.5292
  924SOL    MW4 3744   3.819   1.277   1.519  0.7331  0.2397 -0.6981
  925SOL     OW 3745   3.830   1.545   1.606  0.3599 -0.1823  0.3258
  925SOL    HW2 3746   3.821   1.536   1.700  1.2030 -1.3481  0.3040
  925SOL    HW3 3747   3.747   1.583   1.577  0.4399  1.0028  1.6336
  925SOL    MW4 3748   3.818   1.549   1.614  0.4816 -0.1800  0.4954
  926SOL     OW 3749   3.621   1.679   1.534 -0.3846  0.3079 -0.0308
  926SOL    HW2 3750   3.538   1.655   1.573 -1.6025  3.6632 -0.4013
  926SOL    HW3 3751   3.606   1.673   1.439 -0.2697  1.1220 -0.1024
  926SOL    MW4 3752   3.608   1.675   1.526 -0.5302  0.8581 -0.0890
  927SOL     OW 3753   3.619   1.944   1.593 -0.2965 -0.3034  0.2164
  927SOL    HW2 3754   3.625   1.853   1.565  1.1272  0.4448 -2.1434
  927SOL    HW3 3755   3.541   1.978   1.548 -0.3408 -0.1600  0.4028
  927SOL    MW4 3756   3.610   1.937   1.583 -0.1144 -0.1857 -0.0702
  928SOL     OW 3757   3.855   2.062   1.526  0.1370  0.3739 -0.0037
  928SOL    HW2 3758   3.845   2.155   1.545  2.2034  0.3024  1.5589
  928SOL    HW3 3759   3.771   2.024   1.550  0.0602  1.4949  1.6171
  928SOL    MW4 3760   3.842   2.069   1.532  0.3996  0.5126  0.4163
  929SOL     OW 3761   4.066   2.448   1.526 -0.2395  0.2859  0.2012
  929SOL    HW2 3762   4.139   2.407   1.572 -1.3177 -0.9461  0.8440
  929SOL    HW3 3763   4.066   2.539   1.557  1.0590  0.3245  0.1218
  929SOL    MW4 3764   4.076   2.455   1.536 -0.2108  0.1285  0.2757
  930SOL     OW 3765   3.825   2.336   1.600  0.3514  0.0827 -0.5801
  930SOL    HW2 3766   3.806   2.344   1.693 -0.1941  0.2050 -0.7029
  930SOL    HW3 3767   3.902   2.392   1.586  1.3449 -1.0776  0.0738
  930SOL    MW4 3768   3.833   2.344   1.610  0.4106 -0.0546 -0.5100
  931SOL     OW 3769   3.578   2.677   1.606  0.4324  0.7031  0.0710
  931SOL    HW2 3770   3.570   2.691   1.700 -1.3038  1.2522 -0.1334
  931SOL    HW3 3771   3.496   2.711   1.570  1.1426  0.6356 -1.6524
  931SOL    MW4 3772   3.566   2.683   1.614  0.2971  0.7668 -0.1833
  932SOL     OW 3773   3.809   2.815   1.501 -0.1957  0.0761 -0.1343
  932SOL    HW2 3774   3.871   2.763   1.553 -0.8214 -1.0544 -0.5034
  932SOL    HW3 3775   3.723   2.787   1.533 -0.5248  1.3840  0.1321
  932SOL    MW4 3776   3.806   2.804   1.512 -0.3216  0.0997 -0.1478
  933SOL     OW 3777   3.831   3.065   1.651 -0.1532  0.4080  0.0219
  933SOL    HW2 3778   3.903   3.120   1.620  0.3741 -0.3208 -0.0542
  933SOL    HW3 3779   3.849   2.979   1.614 -0.4371 -0.0635  0.9665
  933SOL    MW4 3780   3.843   3.061   1.642 -0.1209  0.2496  0.1365
  934SOL     OW 3781   3.586   3.182   1.531  0.0095  0.0979 -0.2177
  934SOL    HW2 3782   3.672   3.142   1.545  0.2828  0.4862 -0.7538
  934SOL    HW3 3783   3.582   3.196   1.437 -1.2467 -1.2368 -0.3686
  934SOL    MW4 3784   3.597   3.179   1.521 -0.1202 -0.0269 -0.3084
  935SOL     OW 3785   3.617   3.439   1.670 -0.0294  0.4222  0.4474
  935SOL    HW2 3786   3.675   3.495   1.619  0.0250  1.0655  1.2072
  935SOL    HW3 3787   3.632   3.351   1.635  1.0670  0.6463  0.3417
  935SOL    MW4 3788   3.626   3.435   1.658  0.1221  0.5367  0.5337
  936SOL     OW 3789   3.825   3.605   1.574  0.1022 -0.1764  0.2162
  936SOL    HW2 3790   3.903   3.555   1.597 -0.3366 -0.1787  1.7553
  936SOL    HW3 3791   3.838   3.691   1.613 -0.3658  0.0467 -0.1041
  936SOL    MW4 3792   3.837   3.610   1.582 -0.0174 -0.1471  0.3771
  937SOL     OW 3793   3.834   3.879   1.645 -0.3475  0.1907 -0.2223
  937SOL    HW2 3794   3.909   3.933   1.621  1.1123 -0.4791  2.5275
  937SOL    HW3 3795   3.758   3.933   1.626  0.9127  1.6960 -1.1271
  937SOL    MW4 3796   3.834   3.893   1.640  0.0112  0.3006  0.0211
  938SOL     OW 3797   3.605   4.022   1.565 -0.1274 -0.2822  0.2446
  938SOL    HW2 3798   3.604   4.114   1.591  1.1298  0.0766 -0.9457
  938SOL    HW3 3799   3.518   3.989   1.590 -0.4529  1.1175  1.0091
  938SOL    MW4 3800   3.593   4.030   1.572 -0.0045 -0.0496  0.1886
  939SOL     OW 3801   3.643   4.280   1.655  1.0909  0.3942  0.4205
  939SOL    HW2 3802   3.624   4.267   1.748 -0.2743 -0.8146  0.0004
  939SOL    HW3 3803   3.571   4.335   1.624  1.5595  0.8186  0.0897
  939SOL    MW4 3804   3.631   4.285   1.663  0.9727  0.2909  0.3215
  940SOL     OW 3805   3.846   4.410   1.555 -0.1217  0.1989 -0.2150
  940SOL    HW2 3806   3.776   4.358   1.595  1.4290 -0.3603  1.8675
  940SOL    HW3 3807   3.847   4.492   1.604  0.2116  0.4795 -0.6878
  940SOL    MW4 3808   3.837   4.414   1.567  0.1271  0.1621 -0.0026
  941SOL     OW 3809   4.298   4.660   1.640 -0.2248 -0.1524  0.7374
  941SOL    HW2 3810   4.311   4.672   1.734  0.0055  1.1446  0.5599
  941SOL    HW3 3811   4.299   4.566   1.627  1.8924 -0.2998  1.7362
  941SOL    MW4 3812   4.300   4.649   1.651  0.0849 -0.0010  0.8458
  942SOL     OW 3813   4.043   0.145   1.585 -0.1888 -0.5838  0.0698
  942SOL    HW2 3814   4.060   0.238   1.603 -1.1330  0.0152 -1.9700
  942SOL    HW3 3815   4.122   0.100   1.614  0.7676  1.0015 -0.0334
  942SOL    MW4 3816   4.055   0.151   1.591 -0.1874 -0.2956 -0.2130
  943SOL     OW 3817   4.110   0.425   1.622 -0.4037 -0.0365 -0.2240
  943SOL    HW2 3818   4.104   0.399   1.713  1.8687 -0.7934 -0.2576
  943SOL    HW3 3819   4.024   0.462   1.601 -1.0217 -0.1071  2.1232
  943SOL    MW4 3820   4.098   0.427   1.631 -0.1855 -0.1456  0.0812
  944SOL     OW 3821   4.323   0.501   1.472  0.3334  0.0071 -0.1734
  944SOL    HW2 3822   4.244   0.458   1.504 -0.5643  0.8017 -1.2842
  944SOL    HW3 3823   4.394   0.458   1.519 -0.6665 -1.5194 -0.0073
  944SOL    MW4 3824   4.322   0.490   1.482  0.0834 -0.0895 -0.2980
  945SOL     OW 3825   4.294   0.748   1.610 -0.3033  0.0347  0.4721
  945SOL    HW2 3826   4.304   0.658   1.579 -0.4969  0.2756 -0.3163
  945SOL    HW3 3827   4.375   0.792   1.581 -1.1812  0.6507 -1.1180
  945SOL    MW4 3828   4.306   0.742   1.602 -0.4449  0.1478  0.1583
  946SOL     OW 3829   4.049   0.867   1.527  0.3038 -0.4793 -0.0586
  946SOL    HW2 3830   4.133   0.851   1.570  0.2243  0.0792  0.3055
  946SOL    HW3 3831   3.984   0.830   1.587  0.1032  1.3733  0.8795
  946SOL    MW4 3832   4.052   0.860   1.541  0.2670 -0.1612  0.1132
  947SOL     OW 3833   4.044   1.144   1.590 -0.0643 -0.0167  0.5346
  947SOL    HW2 3834   4.030   1.160   1.683  2.4016  0.1197  0.9063
  947SOL    HW3 3835   4.041   1.049   1.581  1.9079 -0.1505  1.1466
  947SOL    MW4 3836   4.041   1.134   1.601  0.5217 -0.0163  0.6644
  948SOL     OW 3837   4.280   1.277   1.500  0.0274  0.2094  0.1140
  948SOL    HW2 3838   4.209   1.228   1.543  0.1982 -0.3825 -0.2811
  948SOL    HW3 3839   4.360   1.236   1.531  0.2323  1.2711  1.0413
  948SOL    MW4 3840   4.281   1.265   1.510  0.0768  0.2714  0.1842
  949SOL     OW 3841   4.257   1.517   1.637  0.1421  0.3407  0.5696
  949SOL    HW2 3842   4.273   1.444   1.579 -0.6777  0.6689 -0.0802
  949SOL    HW3 3843   4.323   1.582   1.613 -0.5863  0.7230 -0.4246
  949SOL    MW4 3844   4.268   1.516   1.626 -0.0625  0.4345  0.3526
  950SOL     OW 3845   4.057   1.647   1.505 -0.1639 -0.2655  0.1142
  950SOL    HW2 3846   4.119   1.591   1.551 -0.5355  0.1177  1.0863
  950SOL    HW3 3847   3.971   1.617   1.535 -0.4734 -0.8129 -1.2422
  950SOL    MW4 3848   4.054   1.636   1.515 -0.2532 -0.2873  0.0635
  951SOL     OW 3849   4.089   1.896   1.621 -0.3042 -0.0323 -0.3286
  951SOL    HW2 3850   4.084   1.811   1.576 -1.9124 -1.1580  1.8890
  951SOL    HW3 3851   4.007   1.940   1.599  0.0149  0.4883 -0.5042
  951SOL    MW4 3852   4.077   1.890   1.612 -0.4740 -0.1121 -0.0591
  952SOL     OW 3853   4.317   2.052   1.527  0.0327 -0.1341  0.1466
  952SOL    HW2 3854   4.237   2.013   1.562  0.9095 -2.3829 -0.2861
  952SOL    HW3 3855   4.300   2.065   1.434 -0.5403  1.2985  0.4356
  952SOL    MW4 3856   4.304   2.048   1.520  0.0730 -0.2418  0.1276
  953SOL     OW 3857   4.298   2.315   1.619 -0.4522  0.3149  0.4062
  953SOL    HW2 3858   4.295   2.300   1.714  0.3108  0.5797  0.4776
  953SOL    HW3 3859   4.313   2.228   1.582  0.3798  0.3686  0.6030
  953SOL    MW4 3860   4.300   2.301   1.627 -0.2418  0.3569  0.4417
  954SOL     OW 3861   4.057   2.479   1.216  0.4707  0.1469 -0.6378
  954SOL    HW2 3862   4.073   2.568   1.186  0.4778 -0.2630 -1.8582
  954SOL    HW3 3863   4.050   2.487   1.311 -1.5819  1.7794 -0.8861
  954SOL    MW4 3864   4.058   2.492   1.225  0.2007  0.3085 -0.8317
  955SOL     OW 3865   4.037   2.704   1.630  0.3717  0.4032 -0.1220
  955SOL    HW2 3866   4.046   2.701   1.726 -1.8670 -0.3751  0.1084
  955SOL    HW3 3867   4.100   2.769   1.602  0.9922  0.7317  1.9130
  955SOL    MW4 3868   4.046   2.712   1.639  0.1578  0.3440  0.1769
  956SOL     OW 3869   4.217   2.854   1.482  0.3758 -0.1141  0.1053
  956SOL    HW2 3870   4.233   2.941   1.517  0.2358 -0.0012 -0.1111
  956SOL    HW3 3871   4.222   2.865   1.387  1.4799 -0.5605  0.1088
  956SOL    MW4 3872   4.220   2.867   1.474  0.5031 -0.1578  0.0772
  957SOL     OW 3873   4.267   3.080   1.633  0.1999 -0.1104 -0.0076
  957SOL    HW2 3874   4.265   3.095   1.727 -1.1111  2.4437 -0.3924
  957SOL    HW3 3875   4.322   3.150   1.598 -1.1195  0.3286 -1.3090
  957SOL    MW4 3876   4.274   3.091   1.641 -0.1469  0.2844 -0.2301
  958SOL     OW 3877   4.031   3.203   1.540 -0.1896  0.4516  0.1092
  958SOL    HW2 3878   4.036   3.298   1.549 -0.6933  0.5061 -0.1614
  958SOL    HW3 3879   4.101   3.170   1.596  1.0504  1.0466 -1.0453
  958SOL    MW4 3880   4.041   3.211   1.548 -0.0925  0.5372 -0.0788
  959SOL     OW 3881   4.064   3.476   1.627 -0.3989 -0.1458 -0.3331
  959SOL    HW2 3882   4.071   3.467   1.722 -0.4080 -0.3006 -0.3476
  959SOL    HW3 3883   4.146   3.519   1.601  0.3899 -1.6730 -0.4624
  959SOL    MW4 3884   4.076   3.480   1.636 -0.2956 -0.3676 -0.3520
  960SOL     OW 3885   4.271   3.631   1.538  0.3571 -0.0187 -0.1068
  960SOL    HW2 3886   4.282   3.722   1.565 -0.8193 -0.0345  0.4693
  960SOL    HW3 3887   4.275   3.633   1.442 -0.5232  0.7727 -0.1331
  960SOL    MW4 3888   4.273   3.643   1.529  0.0858  0.0837 -0.0343
  961SOL     OW 3889   4.279   3.891   1.672  0.1858 -0.1946 -0.2469
  961SOL    HW2 3890   4.202   3.925   1.627  0.2349  0.6352  0.2863
  961SOL    HW3 3891   4.351   3.947   1.643  0.5857 -0.9195 -0.6872
  961SOL    MW4 3892   4.278   3.903   1.662  0.2451 -0.1810 -0.2347
  962SOL     OW 3893   4.061   4.030   1.565  0.4547 -0.2489  0.1297
  962SOL    HW2 3894   4.047   4.122   1.588 -1.3980 -0.6114  0.4995
  962SOL    HW3 3895   4.068   4.029   1.470 -2.2167 -0.0369 -0.1072
  962SOL    MW4 3896   4.060   4.042   1.556 -0.1416 -0.2685  0.1473
  963SOL     OW 3897   4.051   4.277   1.677  0.3929 -0.3274  0.3111
  963SOL    HW2 3898   4.026   4.270   1.769 -1.5703 -1.1261 -0.2574
  963SOL    HW3 3899   3.982   4.332   1.638  0.8436 -0.5468 -0.8057
  963SOL    MW4 3900   4.038   4.284   1.684  0.1931 -0.4621  0.0887
  964SOL     OW 3901   4.272   4.404   1.600 -0.3345  0.1399 -0.2591
  964SOL    HW2 3902   4.199   4.358   1.641  0.5200 -1.2543 -0.2858
  964SOL    HW3 3903   4.255   4.395   1.506  0.4202 -1.1071 -0.2865
  964SOL    MW4 3904   4.260   4.397   1.593 -0.1221 -0.2089 -0.2663
  965SOL     OW 3905   0.228   0.029   1.917  0.1420  0.2001  0.1106
  965SOL    HW2 3906   0.319   0.052   1.935  0.6452 -0.8297 -1.0277
  965SOL    HW3 3907   0.226   0.012   1.822 -1.5256  1.5028 -0.1120
  965SOL    MW4 3908   0.239   0.030   1.906 -0.0116  0.2365 -0.0690
  966SOL     OW 3909   0.018   0.147   2.065 -0.1362 -0.1706  0.6354
  966SOL    HW2 3910   0.013   0.234   2.024 -0.2463 -0.4144  0.1329
  966SOL    HW3 3911   0.098   0.108   2.030 -1.5113 -1.3494 -1.2647
  966SOL    MW4 3912   0.028   0.154   2.055 -0.3322 -0.3583  0.3185
  967SOL     OW 3913   0.013   0.363   1.893 -0.3441  0.6113  0.2331
  967SOL    HW2 3914  -0.073   0.404   1.898 -0.3923  0.4003  1.3617
  967SOL    HW3 3915   0.069   0.421   1.945  0.2008  0.7612 -0.5210
  967SOL    MW4 3916   0.009   0.376   1.901 -0.2785  0.6032  0.2825
  968SOL     OW 3917   0.196   0.491   2.048  0.2819 -0.1607  0.5735
  968SOL    HW2 3918   0.280   0.468   2.009  0.3385 -0.2767  0.7630
  968SOL    HW3 3919   0.182   0.582   2.023  0.2465 -0.2813  0.1572
  968SOL    MW4 3920   0.206   0.500   2.040  0.2847 -0.1920  0.5438
  969SOL     OW 3921   0.197   0.748   1.979  0.1194  0.0913 -0.4364
  969SOL    HW2 3922   0.286   0.762   2.009  0.1396  0.9903 -0.9119
  969SOL    HW3 3923   0.199   0.767   1.886 -0.0000 -2.4580 -1.0109
  969SOL    MW4 3924   0.209   0.752   1.971  0.1063 -0.1264 -0.5748
  970SOL     OW 3925   4.463   0.906   2.039 -0.0708 -0.3864 -0.4742
  970SOL    HW2 3926   4.393   0.869   1.985  0.1445  1.1914 -1.8919
  970SOL    HW3 3927   4.535   0.843   2.032 -0.8666 -1.3389 -0.1256
  970SOL    MW4 3928   4.463   0.893   2.031 -0.1473 -0.3039 -0.6151
  971SOL     OW 3929   4.471   1.129   1.885  0.2467 -0.3672 -0.5370
  971SOL    HW2 3930   4.401   1.179   1.927  1.2194  0.4464  0.1287
  971SOL    HW3 3931   4.475   1.047   1.936 -0.5180 -0.6152 -0.8659
  971SOL    MW4 3932   4.462   1.125   1.898  0.2742 -0.2925 -0.4926
  972SOL     OW 3933   0.188   1.273   2.014  0.1667  0.3310  0.2552
  972SOL    HW2 3934   0.174   1.361   1.978 -1.6450  0.4870  1.2928
  972SOL    HW3 3935   0.121   1.219   1.971  2.2958 -0.9251 -1.5994
  972SOL    MW4 3936   0.177   1.277   2.004  0.2086  0.1857  0.1471
  973SOL     OW 3937   0.198   1.519   1.924  0.0984 -0.5592  0.3061
  973SOL    HW2 3938   0.278   1.562   1.955 -0.3117 -0.6475  1.4960
  973SOL    HW3 3939   0.127   1.569   1.965 -0.4764 -0.3068 -0.9661
  973SOL    MW4 3940   0.199   1.531   1.934 -0.0315 -0.5375  0.2953
  974SOL     OW 3941   4.487   1.671   2.039  0.4490 -0.1102  0.4520
  974SOL    HW2 3942   4.483   1.679   2.134  0.3230  0.1720  0.4227
  974SOL    HW3 3943   4.414   1.613   2.017  0.0892  0.3335  0.4688
  974SOL    MW4 3944   4.476   1.664   2.049  0.3848 -0.0145  0.4504
  975SOL     OW 3945   0.006   1.908   1.906  0.5620  0.6202 -0.0739
  975SOL    HW2 3946  -0.062   1.955   1.954  0.4014 -1.4351  1.7712
  975SOL    HW3 3947   0.007   1.821   1.945  0.8433 -0.9452 -3.4328
  975SOL    MW4 3948  -0.003   1.903   1.917  0.5779  0.1427 -0.2736
  976SOL     OW 3949   0.207   2.046   2.011  0.2646  0.2912 -0.1242
  976SOL    HW2 3950   0.200   2.137   1.983 -1.1290  0.5657  1.0893
  976SOL    HW3 3951   0.128   2.003   1.977  0.6472 -0.3501 -0.2268
  976SOL    MW4 3952   0.196   2.052   2.003  0.1312  0.2427  0.0224
  977SOL     OW 3953   0.181   2.336   1.896 -0.3215 -0.0042  0.0594
  977SOL    HW2 3954   0.250   2.387   1.939 -0.6172 -1.0463  1.8236
  977SOL    HW3 3955   0.100   2.371   1.933 -0.6665  0.2069 -0.8944
  977SOL    MW4 3956   0.180   2.348   1.907 -0.4060 -0.1140  0.1663
  978SOL     OW 3957   4.454   2.453   2.008  0.3000 -0.7963 -0.1154
  978SOL    HW2 3958   4.441   2.450   2.103  2.0977 -0.2180  0.1599
  978SOL    HW3 3959   4.461   2.546   1.988  0.3776 -0.9386 -0.7608
  978SOL    MW4 3960   4.453   2.465   2.018  0.5474 -0.7389 -0.1643
  979SOL     OW 3961   4.462   2.746   1.923 -0.3369 -0.2204 -0.1320
  979SOL    HW2 3962   4.374   2.766   1.956  0.2564  0.3783  1.1455
  979SOL    HW3 3963   4.460   2.771   1.831 -0.8400  1.9161  0.4359
  979SOL    MW4 3964   4.450   2.752   1.915 -0.3252  0.1404  0.1115
  980SOL     OW 3965   0.208   2.861   2.032  0.0787 -0.2642  0.0745
  980SOL    HW2 3966   0.209   2.947   1.990  2.0002 -1.2246 -1.9117
  980SOL    HW3 3967   0.122   2.824   2.009 -0.6958  1.0427  0.8179
  980SOL    MW4 3968   0.197   2.867   2.023  0.2301 -0.2184 -0.0894
  981SOL     OW 3969   0.182   3.132   1.916 -0.7900  0.3049  0.5754
  981SOL    HW2 3970   0.258   3.181   1.947 -0.9251 -0.0123  1.4174
  981SOL    HW3 3971   0.181   3.148   1.822 -0.0067  0.7680  0.6344
  981SOL    MW4 3972   0.192   3.141   1.908 -0.7045  0.3242  0.6943
  982SOL     OW 3973   4.439   3.219   2.047  0.0132  0.7591  0.0717
  982SOL    HW2 3974   4.371   3.190   1.987 -0.7219  1.0384  0.7640
  982SOL    HW3 3975   4.519   3.179   2.013 -1.1006 -2.8278  1.4595
  982SOL    MW4 3976   4.441   3.210   2.035 -0.2308  0.3226  0.3462
  983SOL     OW 3977   0.010   3.458   1.928 -0.0466  0.0074 -0.2996
  983SOL    HW2 3978  -0.065   3.512   1.956 -0.3317  0.8420 -2.5486
  983SOL    HW3 3979  -0.008   3.372   1.965 -2.1030  0.2224 -0.7046
  983SOL    MW4 3980  -0.002   3.454   1.936 -0.3557  0.1459 -0.6497
  984SOL     OW 3981   0.206   3.638   2.047  0.1083  0.0060  0.3236
  984SOL    HW2 3982   0.182   3.625   2.139 -0.5888  1.7102  0.3928
  984SOL    HW3 3983   0.164   3.565   2.001 -0.3677 -0.3010  1.2230
  984SOL    MW4 3984   0.197   3.627   2.053 -0.0464  0.1900  0.4513
  985SOL     OW 3985   0.245   3.880   1.925 -0.4770 -0.0505 -0.1448
  985SOL    HW2 3986   0.313   3.929   1.971 -0.7226  0.1976 -0.0439
  985SOL    HW3 3987   0.239   3.797   1.972 -1.0795  0.4036  0.5802
  985SOL    MW4 3988   0.253   3.875   1.937 -0.5889  0.0420 -0.0356
  986SOL     OW 3989   0.007   3.984   2.040  0.2674  0.5259  0.0402
  986SOL    HW2 3990   0.004   4.070   1.998  0.5739  0.3280 -0.3953
  986SOL    HW3 3991   0.086   3.943   2.004 -0.7390 -0.5564 -0.9812
  986SOL    MW4 3992   0.017   3.990   2.029  0.1751  0.3572 -0.1519
  987SOL     OW 3993   0.011   4.253   1.961  0.1031 -0.0986  0.0687
  987SOL    HW2 3994  -0.075   4.292   1.974  0.6552  0.3034  2.7675
  987SOL    HW3 3995   0.072   4.319   1.994  1.3913 -0.8509 -0.7788
  987SOL    MW4 3996   0.008   4.267   1.967  0.3459 -0.1445  0.3130
  988SOL     OW 3997   0.207   4.429   2.034 -0.0322  0.2656 -0.5428
  988SOL    HW2 3998   0.196   4.435   2.129 -1.3604 -0.3642 -0.6533
  988SOL    HW3 3999   0.241   4.515   2.009  0.6220  0.3357  0.5330
  988SOL    MW4 4000   0.210   4.441   2.044 -0.1211  0.1922 -0.4153
  989SOL     OW 4001   0.694   0.033   1.916 -0.8996  0.6004 -0.3123
  989SOL    HW2 4002   0.703  -0.058   1.943 -0.4112  0.8556  0.3885
  989SOL    HW3 4003   0.705   0.030   1.821  0.7646  0.1306 -0.1269
  989SOL    MW4 4004   0.697   0.021   1.907 -0.6157  0.5721 -0.1953
  990SOL     OW 4005   0.459   0.137   2.020 -0.0033 -0.2930 -0.2690
  990SOL    HW2 4006   0.464   0.230   2.000  1.5795 -0.2468  0.2464
  990SOL    HW3 4007   0.542   0.101   1.988 -0.3266 -1.4066  0.1150
  990SOL    MW4 4008   0.471   0.144   2.013  0.1629 -0.4339 -0.1504
  991SOL     OW 4009   0.466   0.404   1.972 -0.2986 -0.3825 -0.6004
  991SOL    HW2 4010   0.538   0.462   1.994  0.3655 -1.5322  0.3518
  991SOL    HW3 4011   0.465   0.401   1.877  1.3766 -0.9093 -0.6177
  991SOL    MW4 4012   0.475   0.411   1.963  0.0100 -0.6037 -0.4771
  992SOL     OW 4013   0.697   0.549   2.033 -0.2079  0.3353  0.1759
  992SOL    HW2 4014   0.700   0.531   2.127 -0.1884 -1.4678 -0.1421
  992SOL    HW3 4015   0.778   0.511   1.998 -0.8540 -0.2192 -0.7541
  992SOL    MW4 4016   0.708   0.542   2.040 -0.2906  0.0243  0.0112
  993SOL     OW 4017   0.706   0.792   1.890  0.1054  0.1564 -0.0183
  993SOL    HW2 4018   0.767   0.836   1.949 -1.0998  0.5618  0.9541
  993SOL    HW3 4019   0.687   0.709   1.933 -0.2940  0.1838 -0.1413
  993SOL    MW4 4020   0.712   0.787   1.903 -0.1063  0.2136  0.0938
  994SOL     OW 4021   0.450   0.861   2.055  0.4615 -0.1409 -0.2536
  994SOL    HW2 4022   0.416   0.935   2.006  2.1969  1.1319  0.4221
  994SOL    HW3 4023   0.532   0.838   2.010  0.7997 -0.5584  0.5577
  994SOL    MW4 4024   0.456   0.868   2.043  0.7351 -0.0281 -0.0572
  995SOL     OW 4025   0.392   1.102   1.923 -0.0912  0.0427 -0.5653
  995SOL    HW2 4026   0.325   1.167   1.945 -0.9911 -0.7434 -0.9655
  995SOL    HW3 4027   0.395   1.102   1.828  0.8183  0.4087 -0.5415
  995SOL    MW4 4028   0.384   1.111   1.913 -0.0899 -0.0128 -0.6149
  996SOL     OW 4029   0.629   1.279   2.029 -0.0020 -0.2694 -0.2286
  996SOL    HW2 4030   0.636   1.287   2.124  0.5874  2.0552 -0.4379
  996SOL    HW3 4031   0.555   1.219   2.015 -0.4978 -0.1159  1.6783
  996SOL    MW4 4032   0.620   1.272   2.040  0.0103  0.0575 -0.0043
  997SOL     OW 4033   0.657   1.541   1.962 -0.3138 -0.1575  0.2774
  997SOL    HW2 4034   0.635   1.450   1.982 -0.8833 -0.0986 -0.0651
  997SOL    HW3 4035   0.661   1.544   1.866 -1.2384  0.3892  0.2497
  997SOL    MW4 4036   0.654   1.530   1.952 -0.5109 -0.0776  0.2285
  998SOL     OW 4037   0.427   1.657   2.046 -0.5817 -0.1632 -0.6647
  998SOL    HW2 4038   0.423   1.644   2.140 -0.3394 -1.1511 -0.7878
  998SOL    HW3 4039   0.505   1.610   2.018 -1.3793 -1.0107 -1.5354
  998SOL    MW4 4040   0.436   1.649   2.054 -0.6549 -0.4052 -0.7961
  999SOL     OW 4041   0.455   1.930   1.976 -0.0073 -0.6192  0.1966
  999SOL    HW2 4042   0.443   1.839   2.004 -1.4319 -0.8317 -1.0274
  999SOL    HW3 4043   0.370   1.971   1.990  0.4059  0.3178  0.0077
  999SOL    MW4 4044   0.442   1.923   1.981 -0.1408 -0.5237  0.0101
 1000SOL     OW 4045   0.667   2.085   2.051  1.0031  0.1190 -0.0580
 1000SOL    HW2 4046   0.659   2.071   2.145  2.4797 -0.1232  0.0377
 1000SOL    HW3 4047   0.599   2.029   2.012 -0.9262  1.7269  0.9521
 1000SOL    MW4 4048   0.657   2.076   2.058  0.9434  0.2992  0.0880
 1001SOL     OW 4049   0.666   2.339   1.940  0.3182  0.2260  0.2668
 1001SOL    HW2 4050   0.676   2.252   1.978 -0.6208  0.7371  1.7360
 1001SOL    HW3 4051   0.646   2.324   1.848 -1.2982 -1.1658  0.8213
 1001SOL    MW4 4052   0.665   2.326   1.933 -0.0190  0.1097  0.5338
 1002SOL     OW 4053   0.411   2.447   1.998  0.9583  0.2065 -0.3656
 1002SOL    HW2 4054   0.411   2.466   2.092  0.4681  0.8835 -0.5059
 1002SOL    HW3 4055   0.499   2.411   1.981  0.8348 -0.4854  0.4630
 1002SOL    MW4 4056   0.423   2.445   2.008  0.8773  0.2046 -0.2749
 1003SOL     OW 4057   0.410   2.720   1.892 -0.1629 -0.1994 -0.0099
 1003SOL    HW2 4058   0.410   2.631   1.925  0.1367 -1.2076 -2.6000
 1003SOL    HW3 4059   0.330   2.759   1.928 -1.1316 -2.0194 -0.1320
 1003SOL    MW4 4060   0.400   2.714   1.901 -0.2512 -0.5727 -0.3676
 1004SOL     OW 4061   0.670   2.828   1.986 -0.5372  0.4930 -0.0131
 1004SOL    HW2 4062   0.665   2.844   2.080  0.8842 -0.0180  0.1625
 1004SOL    HW3 4063   0.586   2.788   1.963 -0.1220 -1.2125  1.4011
 1004SOL    MW4 4064   0.658   2.825   1.995 -0.2949  0.2005  0.1967
 1005SOL     OW 4065   0.658   3.121   1.905  0.3367  0.6837  0.0073
 1005SOL    HW2 4066   0.684   3.033   1.934  0.2619  0.8639  0.6414
 1005SOL    HW3 4067   0.662   3.117   1.810 -1.2480 -0.4956 -0.0221
 1005SOL    MW4 4068   0.662   3.109   1.896  0.1178  0.5517  0.0870
 1006SOL     OW 4069   0.425   3.248   2.021 -0.1847 -0.6684 -0.4866
 1006SOL    HW2 4070   0.420   3.330   1.972 -0.3752 -1.1178 -1.2229
 1006SOL    HW3 4071   0.503   3.204   1.986  1.4416  0.3485  1.7048
 1006SOL    MW4 4072   0.435   3.253   2.010  0.0047 -0.5934 -0.2947
 1007SOL     OW 4073   0.435   3.527   1.949 -0.1125 -0.0666 -0.0110
 1007SOL    HW2 4074   0.505   3.563   2.003 -0.9475  0.5452  0.6986
 1007SOL    HW3 4075   0.356   3.571   1.981 -0.7274 -0.2550 -1.2369
 1007SOL    MW4 4076   0.433   3.538   1.961 -0.3038 -0.0105 -0.0792
 1008SOL     OW 4077   0.641   3.650   2.091 -1.1034  0.6890 -0.6253
 1008SOL    HW2 4078   0.710   3.597   2.052 -2.4011 -1.8137  0.3675
 1008SOL    HW3 4079   0.651   3.736   2.050 -0.2602 -0.8556 -3.8560
 1008SOL    MW4 4080   0.651   3.654   2.080 -1.1633  0.1550 -0.9208
 1009SOL     OW 4081   0.643   3.900   1.961 -0.1270 -0.5380  0.1218
 1009SOL    HW2 4082   0.732   3.933   1.976  0.7332 -2.7234  0.0121
 1009SOL    HW3 4083   0.639   3.881   1.868 -0.2997 -1.5632  0.3279
 1009SOL    MW4 4084   0.654   3.902   1.951 -0.0363 -0.9613  0.1345
 1010SOL     OW 4085   0.437   4.016   2.059  0.1344 -0.5199 -0.2279
 1010SOL    HW2 4086   0.435   4.103   2.019  0.4822 -0.4138 -0.0221
 1010SOL    HW3 4087   0.518   3.977   2.027  1.1159  0.0770  1.4029
 1010SOL    MW4 4088   0.448   4.023   2.050  0.3098 -0.4272  0.0143
 1011SOL     OW 4089   0.443   4.275   1.957 -0.1262 -0.3695 -0.1729
 1011SOL    HW2 4090   0.370   4.331   1.982 -0.1590 -0.9221  0.9987
 1011SOL    HW3 4091   0.436   4.267   1.862 -0.5291  1.0406 -0.2706
 1011SOL    MW4 4092   0.433   4.281   1.947 -0.1837 -0.2556 -0.0312
 1012SOL     OW 4093   0.692   4.435   2.002  0.1989 -0.1752 -0.0633
 1012SOL    HW2 4094   0.767   4.378   1.986 -1.0077 -1.7946 -0.0572
 1012SOL    HW3 4095   0.615   4.381   1.982 -0.9737  1.5686 -0.4704
 1012SOL    MW4 4096   0.691   4.421   1.997 -0.1150 -0.1583 -0.1163
 1013SOL     OW 4097   1.098   0.032   1.892 -0.2756 -0.2644 -0.2148
 1013SOL    HW2 4098   1.188   0.055   1.914 -0.1714 -0.7223 -0.1513
 1013SOL    HW3 4099   1.095  -0.063   1.901 -1.0622 -0.1532  0.9194
 1013SOL    MW4 4100   1.109   0.023   1.896 -0.3656 -0.3101 -0.0569
 1014SOL     OW 4101   0.906   0.183   2.039 -0.2209 -0.1150  0.2576
 1014SOL    HW2 4102   0.974   0.131   1.995  0.5724  0.1933  1.1131
 1014SOL    HW3 4103   0.824   0.140   2.015  0.3879 -1.4055  0.4548
 1014SOL    MW4 4104   0.904   0.170   2.030 -0.0359 -0.2446  0.3967
 1015SOL     OW 4105   0.902   0.426   1.916 -0.0830  0.2146 -0.1511
 1015SOL    HW2 4106   0.980   0.456   1.963 -0.7312 -0.8563  1.6739
 1015SOL    HW3 4107   0.887   0.337   1.950 -0.6443 -0.5618 -2.3197
 1015SOL    MW4 4108   0.911   0.418   1.926 -0.2426 -0.0291 -0.1965
 1016SOL     OW 4109   1.145   0.545   2.017  0.5342  0.2156  0.1691
 1016SOL    HW2 4110   1.220   0.488   1.995 -0.9019 -0.5404 -2.9809
 1016SOL    HW3 4111   1.156   0.622   1.961 -0.3412  0.6895  0.6484
 1016SOL    MW4 4112   1.157   0.547   2.007  0.2292  0.1784 -0.1833
 1017SOL     OW 4113   1.140   0.779   1.887  0.1763 -0.2077 -0.1594
 1017SOL    HW2 4114   1.217   0.809   1.937  0.2788  0.4152 -0.6770
 1017SOL    HW3 4115   1.065   0.815   1.935  0.2651  0.2167 -0.3352
 1017SOL    MW4 4116   1.140   0.788   1.900  0.2015 -0.0694 -0.2508
 1018SOL     OW 4117   0.933   0.887   2.027 -0.1211 -0.1344 -0.5140
 1018SOL    HW2 4118   0.938   0.879   2.123  1.1931 -1.2600 -0.6575
 1018SOL    HW3 4119   0.931   0.982   2.012  0.0950  0.0692  0.6167
 1018SOL    MW4 4120   0.933   0.899   2.038  0.0808 -0.2561 -0.3836
 1019SOL     OW 4121   0.882   1.155   1.975 -0.0244  1.1139  0.2913
 1019SOL    HW2 4122   0.796   1.197   1.977 -0.2932  0.5452  1.1662
 1019SOL    HW3 4123   0.902   1.144   1.882 -2.0551 -1.1012  0.0716
 1019SOL    MW4 4124   0.874   1.159   1.963 -0.3278  0.7466  0.3778
 1020SOL     OW 4125   1.086   1.278   2.096 -0.5719  0.2837  0.3581
 1020SOL    HW2 4126   1.082   1.366   2.057  0.5782  0.1532 -0.0600
 1020SOL    HW3 4127   1.013   1.231   2.055  0.2972  0.3146 -1.2674
 1020SOL    MW4 4128   1.076   1.283   2.085 -0.3055  0.2706  0.0882
 1021SOL     OW 4129   1.086   1.538   1.992  0.2855  0.3109 -0.1768
 1021SOL    HW2 4130   0.999   1.575   2.010  0.1103 -0.1414 -0.1002
 1021SOL    HW3 4131   1.100   1.555   1.899 -0.1344 -0.1464 -0.3219
 1021SOL    MW4 4132   1.076   1.545   1.982  0.2069  0.1909 -0.1858
 1022SOL     OW 4133   0.859   1.670   2.091 -0.0242 -0.4070  0.3996
 1022SOL    HW2 4134   0.869   1.759   2.058  0.8217 -0.3626  0.7820
 1022SOL    HW3 4135   0.780   1.637   2.047  0.8404 -0.2024 -1.3310
 1022SOL    MW4 4136   0.850   1.677   2.081  0.2015 -0.3742  0.2217
 1023SOL     OW 4137   0.890   1.919   1.969 -0.1260 -0.6501  0.0429
 1023SOL    HW2 4138   0.819   1.981   1.983 -0.5887 -0.8625 -1.3534
 1023SOL    HW3 4139   0.884   1.895   1.877  0.7241 -1.9463  0.3099
 1023SOL    MW4 4140   0.880   1.924   1.959 -0.0749 -0.8492 -0.1062
 1024SOL     OW 4141   1.124   2.048   2.032 -0.3701  0.3134  0.0178
 1024SOL    HW2 4142   1.116   2.134   1.992  0.7868  0.7311  0.6692
 1024SOL    HW3 4143   1.053   1.997   1.993 -1.4661  1.7411  0.1151
 1024SOL    MW4 4144   1.113   2.052   2.021 -0.3620  0.5567  0.1168
 1025SOL     OW 4145   1.124   2.283   1.902  0.4250  0.2950  0.1709
 1025SOL    HW2 4146   1.207   2.320   1.933 -0.3555  1.2157  1.1715
 1025SOL    HW3 4147   1.139   2.269   1.808  2.0861 -0.5799  0.5389
 1025SOL    MW4 4148   1.137   2.286   1.893  0.5413  0.3011  0.3515
 1026SOL     OW 4149   0.908   2.448   2.030 -0.3398  0.1736 -0.1880
 1026SOL    HW2 4150   0.974   2.389   1.994 -0.5925 -0.5858  0.5765
 1026SOL    HW3 4151   0.826   2.421   1.990 -0.1299  1.4270 -1.5048
 1026SOL    MW4 4152   0.906   2.437   2.020 -0.3454  0.2387 -0.2611
 1027SOL     OW 4153   0.911   2.694   1.905  0.1127 -0.1657  0.0386
 1027SOL    HW2 4154   0.906   2.608   1.946 -0.1847 -0.6647 -1.0182
 1027SOL    HW3 4155   0.828   2.737   1.928 -0.1947 -0.5665 -0.3245
 1027SOL    MW4 4156   0.899   2.688   1.913  0.0328 -0.2844 -0.1488
 1028SOL     OW 4157   1.133   2.839   1.987 -0.3807  0.0832  0.1844
 1028SOL    HW2 4158   1.135   2.838   2.082 -0.1041  0.2745  0.1815
 1028SOL    HW3 4159   1.058   2.785   1.964 -0.7962  0.5065  0.5226
 1028SOL    MW4 4160   1.123   2.832   1.996 -0.3989  0.1643  0.2289
 1029SOL     OW 4161   1.115   3.109   1.877  0.7880  0.3376 -0.3433
 1029SOL    HW2 4162   1.046   3.148   1.931 -0.0374  0.2794 -1.3188
 1029SOL    HW3 4163   1.125   3.020   1.910  2.0107  1.0583  1.2836
 1029SOL    MW4 4164   1.107   3.103   1.888  0.8403  0.4249 -0.2573
 1030SOL     OW 4165   0.895   3.204   2.013 -0.0017  0.4041 -0.3386
 1030SOL    HW2 4166   0.890   3.185   2.106  1.5136  1.4365 -0.0202
 1030SOL    HW3 4167   0.810   3.179   1.978 -0.2221 -0.9521  1.1377
 1030SOL    MW4 4168   0.883   3.198   2.020  0.1692  0.3617 -0.1016
 1031SOL     OW 4169   0.849   3.497   1.974  0.2143 -0.5105 -0.0980
 1031SOL    HW2 4170   0.884   3.410   1.997 -0.8638 -0.7924  0.4985
 1031SOL    HW3 4171   0.856   3.501   1.879  0.9769 -0.9408 -0.0703
 1031SOL    MW4 4172   0.855   3.486   1.965  0.1726 -0.6044 -0.0157
 1032SOL     OW 4173   1.107   3.598   2.025 -0.0197 -0.7255 -0.4488
 1032SOL    HW2 4174   1.114   3.606   2.120 -1.1757  1.1238 -0.5119
 1032SOL    HW3 4175   1.018   3.566   2.010  0.2050 -1.1392 -0.9143
 1032SOL    MW4 4176   1.096   3.595   2.035 -0.1426 -0.5362 -0.5188
 1033SOL     OW 4177   1.139   3.881   1.970 -0.3514  0.0407 -0.2029
 1033SOL    HW2 4178   1.129   3.787   1.986 -0.1049 -0.0336 -0.4827
 1033SOL    HW3 4179   1.129   3.891   1.875 -0.4732  0.3081 -0.1621
 1033SOL    MW4 4180   1.137   3.870   1.960 -0.3350  0.0663 -0.2345
 1034SOL     OW 4181   0.906   3.999   2.030  0.0447 -0.3515 -0.0480
 1034SOL    HW2 4182   0.889   4.018   2.122 -0.5581 -0.4360 -0.1370
 1034SOL    HW3 4183   0.996   3.967   2.027  0.4016  0.5993  0.3782
 1034SOL    MW4 4184   0.916   3.997   2.042  0.0123 -0.2370 -0.0033
 1035SOL     OW 4185   0.921   4.302   1.949 -0.0764 -0.5701  0.0602
 1035SOL    HW2 4186   0.996   4.349   1.985  0.3130 -0.0368 -1.4254
 1035SOL    HW3 4187   0.939   4.210   1.969  1.1306 -0.4792 -0.5563
 1035SOL    MW4 4188   0.933   4.296   1.956  0.1342 -0.4883 -0.2172
 1036SOL     OW 4189   1.141   4.423   2.019 -0.3879  0.1790 -0.1015
 1036SOL    HW2 4190   1.133   4.395   2.110 -1.2551  1.2739  0.1668
 1036SOL    HW3 4191   1.199   4.358   1.979 -1.3870 -1.3157  0.8002
 1036SOL    MW4 4192   1.147   4.411   2.026 -0.6342  0.1264  0.0529
 1037SOL     OW 4193   1.571   4.616   1.900 -0.1141 -0.1513 -0.4371
 1037SOL    HW2 4194   1.654   4.660   1.921 -1.0691  0.8628  1.2684
 1037SOL    HW3 4195   1.582   4.527   1.936  0.9252 -0.6007 -1.8390
 1037SOL    MW4 4196   1.584   4.610   1.908 -0.1029 -0.0763 -0.3971
 1038SOL     OW 4197   1.352   0.085   1.965 -0.3609 -0.4269  0.2437
 1038SOL    HW2 4198   1.372   0.090   2.059  2.8496 -1.3719 -0.3179
 1038SOL    HW3 4199   1.413   0.019   1.931 -3.9474 -2.8237 -1.9152
 1038SOL    MW4 4200   1.363   0.077   1.973 -0.4106 -0.8678 -0.1153
 1039SOL     OW 4201   1.359   0.389   1.918  0.5758  0.3377  0.4144
 1039SOL    HW2 4202   1.353   0.296   1.939  1.6187  0.0916 -0.3161
 1039SOL    HW3 4203   1.322   0.397   1.830 -0.9453  0.8724  1.0813
 1039SOL    MW4 4204   1.354   0.378   1.909  0.5126  0.3758  0.4061
 1040SOL     OW 4205   1.591   0.496   2.033  0.0146  0.1451  0.3384
 1040SOL    HW2 4206   1.669   0.474   1.983 -0.2575 -0.0172 -0.0096
 1040SOL    HW3 4207   1.519   0.452   1.988 -0.2415  0.0545  0.8242
 1040SOL    MW4 4208   1.592   0.487   2.021 -0.0551  0.1117  0.3569
 1041SOL     OW 4209   1.616   0.760   1.937 -0.2320 -0.2723 -0.5468
 1041SOL    HW2 4210   1.693   0.805   1.971  0.8803 -1.5767 -1.2683
 1041SOL    HW3 4211   1.620   0.673   1.977 -0.5883 -0.7922 -1.6244
 1041SOL    MW4 4212   1.626   0.755   1.946 -0.1323 -0.5130 -0.7842
 1042SOL     OW 4213   1.364   0.899   2.014  0.1556 -0.2878  0.2762
 1042SOL    HW2 4214   1.392   0.892   2.105  2.7423  2.5985 -0.2458
 1042SOL    HW3 4215   1.435   0.860   1.963 -0.2386  0.1587 -0.6338
 1042SOL    MW4 4216   1.377   0.893   2.019  0.4448  0.1519  0.0875
 1043SOL     OW 4217   1.312   1.160   1.947 -0.5209  0.3859 -0.4143
 1043SOL    HW2 4218   1.319   1.073   1.986 -0.5116  0.4373 -0.3013
 1043SOL    HW3 4219   1.245   1.204   1.998  0.0720  0.7344  0.0691
 1043SOL    MW4 4220   1.304   1.154   1.959 -0.4414  0.4388 -0.3357
 1044SOL     OW 4221   1.556   1.260   2.007  0.0395  0.4790  0.3115
 1044SOL    HW2 4222   1.571   1.352   1.987 -1.8531  0.6022 -0.5620
 1044SOL    HW3 4223   1.472   1.239   1.967  1.4049 -2.1917 -1.3455
 1044SOL    MW4 4224   1.547   1.269   1.999 -0.0302  0.1429 -0.0225
 1045SOL     OW 4225   1.575   1.520   1.902 -0.2428 -0.6083 -0.1672
 1045SOL    HW2 4226   1.642   1.579   1.937 -0.2087 -1.2863  0.9301
 1045SOL    HW3 4227   1.492   1.556   1.935 -0.5000  0.5467 -1.9675
 1045SOL    MW4 4228   1.573   1.533   1.911 -0.2723 -0.5451 -0.2600
 1046SOL     OW 4229   1.334   1.654   2.027  0.0791 -0.2937 -0.1196
 1046SOL    HW2 4230   1.338   1.666   2.122  0.8772  0.3081 -0.2216
 1046SOL    HW3 4231   1.245   1.625   2.010 -0.8040  1.8633  0.5834
 1046SOL    MW4 4232   1.323   1.652   2.037  0.0677  0.0703 -0.0401
 1047SOL     OW 4233   1.352   1.901   1.942 -0.7238 -0.4640  0.0520
 1047SOL    HW2 4234   1.363   1.818   1.988  0.8366  0.2181  0.9451
 1047SOL    HW3 4235   1.271   1.939   1.979  0.6978  0.2476  2.5450
 1047SOL    MW4 4236   1.343   1.895   1.953 -0.3302 -0.2803  0.4989
 1048SOL     OW 4237   1.533   2.094   2.019  0.2585  0.4650  0.0723
 1048SOL    HW2 4238   1.522   2.179   1.977 -0.8540  0.5861  0.5714
 1048SOL    HW3 4239   1.461   2.041   1.984  0.7763 -0.1865 -0.0191
 1048SOL    MW4 4240   1.522   2.098   2.009  0.1800  0.3953  0.1259
 1049SOL     OW 4241   1.538   2.316   1.881  0.0069  0.2467  0.3768
 1049SOL    HW2 4242   1.605   2.376   1.913  0.2027  0.0683  0.3010
 1049SOL    HW3 4243   1.544   2.322   1.785  0.1403 -0.0164  0.3665
 1049SOL    MW4 4244   1.548   2.324   1.872  0.0503  0.1886  0.3655
 1050SOL     OW 4245   1.333   2.423   2.007 -0.0834  0.3141 -0.3209
 1050SOL    HW2 4246   1.330   2.510   1.968 -0.1330  0.2535 -0.4508
 1050SOL    HW3 4247   1.413   2.384   1.973 -0.0180  0.3389 -0.1970
 1050SOL    MW4 4248   1.343   2.430   1.998 -0.0813  0.3092 -0.3217
 1051SOL     OW 4249   1.356   2.699   1.906  0.0513 -0.0655 -0.4683
 1051SOL    HW2 4250   1.272   2.741   1.922  0.6638  0.8747  0.3435
 1051SOL    HW3 4251   1.370   2.706   1.812 -1.5429 -1.7229 -0.8633
 1051SOL    MW4 4252   1.347   2.705   1.896 -0.0783 -0.1602 -0.4134
 1052SOL     OW 4253   1.542   2.861   2.022 -0.3346 -0.0135 -0.6012
 1052SOL    HW2 4254   1.631   2.829   2.007 -0.6751 -2.2327  1.7052
 1052SOL    HW3 4255   1.486   2.797   1.978 -0.8493  0.5585 -0.7829
 1052SOL    MW4 4256   1.547   2.848   2.014 -0.4475 -0.2310 -0.3209
 1053SOL     OW 4257   1.546   3.111   1.902 -0.0408 -0.0254  0.0332
 1053SOL    HW2 4258   1.526   3.020   1.921  0.3483 -0.0573  0.2893
 1053SOL    HW3 4259   1.572   3.111   1.810 -0.9650 -0.0227 -0.2307
 1053SOL    MW4 4260   1.547   3.099   1.892 -0.1115 -0.0296  0.0322
 1054SOL     OW 4261   1.320   3.223   2.009 -0.0208 -0.0056  0.3231
 1054SOL    HW2 4262   1.394   3.185   1.963  0.2437 -0.5163  1.1722
 1054SOL    HW3 4263   1.243   3.188   1.963  0.2523  0.2517 -0.3362
 1054SOL    MW4 4264   1.319   3.213   1.997  0.0502 -0.0393  0.3483
 1055SOL     OW 4265   1.330   3.484   1.904 -0.8232 -0.1811 -0.3136
 1055SOL    HW2 4266   1.332   3.394   1.936  0.6847  0.2523  0.8707
 1055SOL    HW3 4267   1.271   3.529   1.965  0.2982  0.1512  0.5372
 1055SOL    MW4 4268   1.322   3.478   1.916 -0.4761 -0.0801 -0.0451
 1056SOL     OW 4269   1.582   3.600   1.993  0.0605 -0.2897 -0.6012
 1056SOL    HW2 4270   1.599   3.583   2.086 -2.0063  0.3161 -0.0801
 1056SOL    HW3 4271   1.503   3.549   1.974  0.5073 -0.4539 -2.0552
 1056SOL    MW4 4272   1.574   3.591   2.003 -0.1533 -0.2313 -0.7241
 1057SOL     OW 4273   1.594   3.883   1.918 -0.3819  0.2946 -0.6726
 1057SOL    HW2 4274   1.684   3.908   1.940 -0.1413  0.3648 -1.7263
 1057SOL    HW3 4275   1.588   3.792   1.946 -0.1717  0.4607 -0.0571
 1057SOL    MW4 4276   1.605   3.874   1.925 -0.3223  0.3259 -0.7304
 1058SOL     OW 4277   1.371   4.019   2.031 -0.5712 -0.1667 -0.2972
 1058SOL    HW2 4278   1.451   3.972   2.006 -0.7922  0.3290 -1.9963
 1058SOL    HW3 4279   1.301   3.957   2.012 -0.6058 -0.6181  1.2388
 1058SOL    MW4 4280   1.373   4.004   2.025 -0.6050 -0.1607 -0.3190
 1059SOL     OW 4281   1.339   4.265   1.910  0.6455  0.3274  0.0179
 1059SOL    HW2 4282   1.338   4.171   1.927 -1.5109  0.3323 -0.0095
 1059SOL    HW3 4283   1.368   4.272   1.819 -0.5086 -0.4074 -0.4216
 1059SOL    MW4 4284   1.343   4.254   1.900  0.2086  0.2308 -0.0437
 1060SOL     OW 4285   1.574   4.374   2.021 -0.3725 -0.4790  0.4701
 1060SOL    HW2 4286   1.570   4.370   2.117 -0.0599  0.0216  0.5081
 1060SOL    HW3 4287   1.492   4.335   1.992 -1.0202  0.4814  0.9752
 1060SOL    MW4 4288   1.563   4.368   2.030 -0.4166 -0.2861  0.5419
 1061SOL     OW 4289   2.022   4.628   1.921  0.1540  0.6328 -0.0867
 1061SOL    HW2 4290   2.093   4.689   1.943 -0.7407  1.9072 -0.6451
 1061SOL    HW3 4291   2.050   4.544   1.957  2.0497  1.0715 -0.4874
 1061SOL    MW4 4292   2.035   4.625   1.929  0.2861  0.8593 -0.2133
 1062SOL     OW 4293   1.794   0.113   1.965  0.1126 -0.0998  0.3384
 1062SOL    HW2 4294   1.780   0.101   2.059  0.0146  0.6448  0.4274
 1062SOL    HW3 4295   1.868   0.057   1.944  1.1976  0.9646  1.1946
 1062SOL    MW4 4296   1.802   0.104   1.975  0.2428  0.1389  0.4631
 1063SOL     OW 4297   1.808   0.392   1.871  0.0570  0.9859 -0.2341
 1063SOL    HW2 4298   1.800   0.305   1.910  0.5071  1.2224  0.4007
 1063SOL    HW3 4299   1.811   0.376   1.777 -2.3497  0.4890 -0.2711
 1063SOL    MW4 4300   1.807   0.379   1.864 -0.2012  0.9515 -0.1553
 1064SOL     OW 4301   2.053   0.505   1.967  0.3469 -0.0878 -0.0844
 1064SOL    HW2 4302   2.052   0.596   1.937  0.0519  0.3722  1.3022
 1064SOL    HW3 4303   1.969   0.469   1.940 -0.3982  0.6660  1.2130
 1064SOL    MW4 4304   2.042   0.512   1.959  0.2098  0.0724  0.2698
 1065SOL     OW 4305   2.044   0.784   1.852  0.1919 -0.2214  0.5445
 1065SOL    HW2 4306   2.117   0.835   1.887  0.5031 -0.0971 -0.2863
 1065SOL    HW3 4307   2.050   0.794   1.758 -1.4504  0.5639  0.4966
 1065SOL    MW4 4308   2.054   0.792   1.845  0.0162 -0.1013  0.4284
 1066SOL     OW 4309   1.848   0.893   2.025 -0.6372  0.1005 -0.3928
 1066SOL    HW2 4310   1.859   0.987   2.008  0.1095  0.2474  0.8686
 1066SOL    HW3 4311   1.903   0.851   1.959  0.2078  0.5961 -0.0132
 1066SOL    MW4 4312   1.857   0.900   2.014 -0.4271  0.1853 -0.1762
 1067SOL     OW 4313   1.816   1.160   1.959 -0.2872 -0.0478 -0.7736
 1067SOL    HW2 4314   1.723   1.181   1.965 -0.0253  0.9268 -0.0088
 1067SOL    HW3 4315   1.830   1.142   1.866 -1.2689 -0.3813 -0.8684
 1067SOL    MW4 4316   1.806   1.160   1.948 -0.3822  0.0368 -0.6852
 1068SOL     OW 4317   2.049   1.305   2.046 -0.0954 -0.3884  0.1788
 1068SOL    HW2 4318   2.121   1.248   2.020 -1.0607 -0.2731 -2.9514
 1068SOL    HW3 4319   1.970   1.253   2.033 -0.8315  0.8303 -0.3407
 1068SOL    MW4 4320   2.048   1.291   2.041 -0.3197 -0.2124 -0.3030
 1069SOL     OW 4321   2.019   1.529   1.892  0.0488 -0.0721  0.1078
 1069SOL    HW2 4322   2.032   1.454   1.950 -0.0010  0.0873  0.3261
 1069SOL    HW3 4323   2.012   1.491   1.805 -1.6143 -0.4849  0.3887
 1069SOL    MW4 4324   2.020   1.514   1.889 -0.1776 -0.1055  0.1737
 1070SOL     OW 4325   1.800   1.660   1.997  0.5303 -0.1607 -0.3159
 1070SOL    HW2 4326   1.813   1.754   1.999  0.1756 -0.1202  1.3493
 1070SOL    HW3 4327   1.879   1.625   1.955  1.8219  0.7022  1.3387
 1070SOL    MW4 4328   1.812   1.668   1.992  0.6539 -0.0415  0.1222
 1071SOL     OW 4329   1.780   1.951   1.939  0.1180 -0.1220 -0.0411
 1071SOL    HW2 4330   1.697   1.991   1.966 -1.1885 -0.8722 -2.7229
 1071SOL    HW3 4331   1.772   1.943   1.844  3.2495 -0.3132 -0.3233
 1071SOL    MW4 4332   1.768   1.955   1.930  0.3587 -0.2464 -0.4321
 1072SOL     OW 4333   2.021   2.092   1.993  0.6440  0.3623  0.5865
 1072SOL    HW2 4334   2.090   2.033   1.963  0.2101  1.0331 -1.8635
 1072SOL    HW3 4335   1.940   2.047   1.967  0.2275  0.5516  1.5672
 1072SOL    MW4 4336   2.019   2.078   1.985  0.5317  0.4759  0.3928
 1073SOL     OW 4337   2.003   2.354   1.902 -0.7395  0.2298 -0.3984
 1073SOL    HW2 4338   2.075   2.402   1.943 -0.1879  0.2604 -1.3783
 1073SOL    HW3 4339   2.016   2.263   1.931 -2.1550  0.7514  1.9627
 1073SOL    MW4 4340   2.014   2.348   1.911 -0.8538  0.3026 -0.2162
 1074SOL     OW 4341   1.754   2.468   1.979 -0.1543  0.0125 -0.3599
 1074SOL    HW2 4342   1.747   2.452   2.073  2.0509  0.5799 -0.0749
 1074SOL    HW3 4343   1.840   2.433   1.955 -0.2051  0.9351 -1.9471
 1074SOL    MW4 4344   1.765   2.461   1.988  0.1301  0.2091 -0.5318
 1075SOL     OW 4345   1.782   2.731   1.876 -0.1888 -0.1142 -0.2302
 1075SOL    HW2 4346   1.796   2.738   1.781  0.1919  0.7703 -0.1090
 1075SOL    HW3 4347   1.767   2.637   1.890  0.0493 -0.2998 -1.1261
 1075SOL    MW4 4348   1.782   2.719   1.865 -0.1070 -0.0222 -0.3325
 1076SOL     OW 4349   1.998   2.868   1.994 -0.5420 -0.0671  0.1580
 1076SOL    HW2 4350   1.985   2.854   2.088 -0.1621 -0.7526  0.1073
 1076SOL    HW3 4351   1.936   2.809   1.952 -1.7136  1.2557 -0.0168
 1076SOL    MW4 4352   1.988   2.858   2.001 -0.6464  0.0172  0.1280
 1077SOL     OW 4353   2.039   3.124   1.900 -0.6498  0.0100 -0.2238
 1077SOL    HW2 4354   1.973   3.171   1.950  0.5401  0.6126  0.8219
 1077SOL    HW3 4355   2.031   3.033   1.930 -0.7851  0.1462  0.1589
 1077SOL    MW4 4356   2.030   3.118   1.911 -0.5105  0.1073 -0.0352
 1078SOL     OW 4357   1.809   3.216   2.024 -0.2352  0.4085  0.2416
 1078SOL    HW2 4358   1.810   3.211   2.120  0.6529 -1.8998  0.1424
 1078SOL    HW3 4359   1.735   3.161   1.998  0.1941  0.1358 -0.4239
 1078SOL    MW4 4360   1.799   3.208   2.033 -0.0614  0.0679  0.1407
 1079SOL     OW 4361   1.810   3.484   1.936  0.6017 -0.5831  0.3443
 1079SOL    HW2 4362   1.803   3.399   1.978 -0.5459 -1.6768 -1.9644
 1079SOL    HW3 4363   1.721   3.520   1.938  1.1339  0.6871  1.5541
 1079SOL    MW4 4364   1.797   3.478   1.941  0.5205 -0.5598  0.1994
 1080SOL     OW 4365   2.053   3.571   2.041  0.6232  0.2993 -0.2772
 1080SOL    HW2 4366   2.028   3.661   2.019  0.5839  0.3328 -0.0959
 1080SOL    HW3 4367   1.972   3.521   2.030  0.6592  0.2765 -0.4358
 1080SOL    MW4 4368   2.039   3.576   2.037  0.6230  0.3009 -0.2744
 1081SOL     OW 4369   2.030   3.821   1.912  0.2477  0.5130  0.0474
 1081SOL    HW2 4370   2.093   3.891   1.930  1.5243 -0.2422 -1.3101
 1081SOL    HW3 4371   2.020   3.822   1.817 -2.3653  1.0800  0.2879
 1081SOL    MW4 4372   2.037   3.830   1.902  0.0713  0.4883 -0.0999
 1082SOL     OW 4373   1.829   3.993   1.996  0.2380  0.8468  0.2333
 1082SOL    HW2 4374   1.846   4.084   1.969  1.3570  0.9592  1.2774
 1082SOL    HW3 4375   1.900   3.943   1.956 -0.7824  0.3202 -0.9298
 1082SOL    MW4 4376   1.841   3.998   1.987  0.2508  0.7925  0.2176
 1083SOL     OW 4377   1.816   4.260   1.921  0.5928  0.1913  0.2050
 1083SOL    HW2 4378   1.731   4.285   1.957  0.0460 -0.9546 -0.2803
 1083SOL    HW3 4379   1.804   4.265   1.826  0.7803 -0.9161  0.1221
 1083SOL    MW4 4380   1.803   4.264   1.913  0.5454 -0.1059  0.1301
 1084SOL     OW 4381   2.047   4.371   2.021 -0.3171 -0.2948 -0.1568
 1084SOL    HW2 4382   2.116   4.323   1.976  1.7137  0.9240  1.5668
 1084SOL    HW3 4383   1.966   4.343   1.978  1.2778 -1.3450 -2.5729
 1084SOL    MW4 4384   2.046   4.361   2.009  0.1614 -0.2728 -0.2480
 1085SOL     OW 4385   2.488   0.020   1.873 -0.2063 -0.0647  0.0241
 1085SOL    HW2 4386   2.568   0.056   1.911  0.1893 -0.0841 -0.7872
 1085SOL    HW3 4387   2.493  -0.074   1.892 -0.3469  0.0257  0.5237
 1085SOL    MW4 4388   2.499   0.013   1.880 -0.1726 -0.0553 -0.0170
 1086SOL     OW 4389   2.248   0.129   1.996  0.1720  0.2937 -0.1100
 1086SOL    HW2 4390   2.247   0.120   2.092 -0.5312 -0.3848 -0.1738
 1086SOL    HW3 4391   2.325   0.080   1.968  0.2373  0.2816  0.0863
 1086SOL    MW4 4392   2.258   0.121   2.005  0.0877  0.2026 -0.0923
 1087SOL     OW 4393   2.289   0.385   1.898  0.0131 -0.1222  0.1696
 1087SOL    HW2 4394   2.278   0.297   1.933  1.3250 -0.3068  0.1476
 1087SOL    HW3 4395   2.207   0.430   1.919 -0.2385 -1.0156  1.1278
 1087SOL    MW4 4396   2.277   0.380   1.905  0.1528 -0.2645  0.2931
 1088SOL     OW 4397   2.515   0.517   1.980 -0.4187  0.1119  0.0405
 1088SOL    HW2 4398   2.587   0.468   1.940 -0.1744  0.1566  0.4235
 1088SOL    HW3 4399   2.436   0.478   1.943 -0.2666 -1.3628  1.2400
 1088SOL    MW4 4400   2.514   0.506   1.970 -0.3662 -0.0768  0.2494
 1089SOL     OW 4401   2.475   0.785   1.918  0.5785 -0.1715 -0.0730
 1089SOL    HW2 4402   2.491   0.692   1.933  0.6016 -0.4236 -1.5183
 1089SOL    HW3 4403   2.470   0.793   1.822 -0.1415  1.1897  0.0587
 1089SOL    MW4 4404   2.476   0.774   1.907  0.4866 -0.0252 -0.2464
 1090SOL     OW 4405   2.250   0.898   2.015 -0.6664 -0.3774  0.3669
 1090SOL    HW2 4406   2.246   0.881   2.110 -2.6726 -1.5408  0.1008
 1090SOL    HW3 4407   2.327   0.848   1.986 -1.8353 -2.5687  0.9110
 1090SOL    MW4 4408   2.260   0.889   2.024 -1.0853 -0.8200  0.4034
 1091SOL     OW 4409   2.255   1.163   1.956 -0.7108  0.1678 -0.3756
 1091SOL    HW2 4410   2.342   1.201   1.970 -0.3341 -1.1634  1.1344
 1091SOL    HW3 4411   2.263   1.073   1.989 -2.3107 -0.3761 -1.4059
 1091SOL    MW4 4412   2.268   1.156   1.962 -0.8721 -0.0795 -0.3123
 1092SOL     OW 4413   2.476   1.311   2.045 -0.1122 -0.2439 -0.2243
 1092SOL    HW2 4414   2.454   1.310   2.138 -3.3796 -1.2455 -0.9384
 1092SOL    HW3 4415   2.466   1.403   2.019  0.1070 -0.0845  0.2485
 1092SOL    MW4 4416   2.472   1.323   2.054 -0.5143 -0.3550 -0.2563
 1093SOL     OW 4417   2.460   1.566   1.943 -0.5082 -0.0447 -0.3120
 1093SOL    HW2 4418   2.379   1.617   1.951 -0.7402 -0.5363  0.5840
 1093SOL    HW3 4419   2.473   1.556   1.849 -1.9278 -0.6408 -0.4620
 1093SOL    MW4 4420   2.451   1.571   1.932 -0.7262 -0.1882 -0.2136
 1094SOL     OW 4421   2.215   1.680   2.022 -0.1756 -0.1370  0.0508
 1094SOL    HW2 4422   2.203   1.657   2.114  0.0454 -0.4913 -0.0060
 1094SOL    HW3 4423   2.143   1.637   1.977 -0.5789  0.4609  0.1208
 1094SOL    MW4 4424   2.204   1.671   2.028 -0.1996 -0.1048  0.0527
 1095SOL     OW 4425   2.228   1.939   1.891 -0.5715  0.1226 -0.1232
 1095SOL    HW2 4426   2.297   1.979   1.945 -0.2959 -0.0080 -0.3815
 1095SOL    HW3 4427   2.217   1.851   1.927  0.4299 -0.3733 -1.0307
 1095SOL    MW4 4428   2.235   1.933   1.903 -0.4029  0.0399 -0.2770
 1096SOL     OW 4429   2.446   2.068   2.006 -0.2694 -0.5094 -0.4070
 1096SOL    HW2 4430   2.529   2.019   2.003 -0.2056 -0.4607  0.3593
 1096SOL    HW3 4431   2.468   2.154   1.971 -0.1387 -0.7044 -0.7990
 1096SOL    MW4 4432   2.460   2.073   2.001 -0.2437 -0.5288 -0.3576
 1097SOL     OW 4433   2.483   2.341   1.915 -0.2531 -0.0701 -0.3512
 1097SOL    HW2 4434   2.555   2.396   1.947 -0.3270 -0.6722  0.8626
 1097SOL    HW3 4435   2.405   2.393   1.932 -0.3543 -0.7063  1.1471
 1097SOL    MW4 4436   2.483   2.355   1.922 -0.2761 -0.2334  0.0067
 1098SOL     OW 4437   2.229   2.481   1.992 -0.0498  0.2172  0.1936
 1098SOL    HW2 4438   2.223   2.477   2.088 -0.5022 -1.8497  0.1034
 1098SOL    HW3 4439   2.232   2.574   1.972 -2.0997  0.7217  2.1052
 1098SOL    MW4 4440   2.229   2.492   2.002 -0.3796  0.0112  0.4339
 1099SOL     OW 4441   2.229   2.746   1.900  0.6417  0.2020 -0.3745
 1099SOL    HW2 4442   2.158   2.794   1.941  1.1632  1.8692 -1.3836
 1099SOL    HW3 4443   2.202   2.736   1.808  0.8097 -0.9024 -0.3118
 1099SOL    MW4 4444   2.216   2.751   1.893  0.7327  0.2766 -0.4995
 1100SOL     OW 4445   2.474   2.808   1.995  0.2127  0.2849  0.1719
 1100SOL    HW2 4446   2.477   2.898   1.962  0.2320 -0.0212 -0.6777
 1100SOL    HW3 4447   2.392   2.773   1.962 -0.6841  0.5536  2.0344
 1100SOL    MW4 4448   2.464   2.816   1.987  0.0968  0.2797  0.3057
 1101SOL     OW 4449   2.506   3.076   1.934 -0.3469 -0.2980  0.5107
 1101SOL    HW2 4450   2.437   3.126   1.978  1.1937  2.2675  0.0684
 1101SOL    HW3 4451   2.488   3.087   1.841  0.4468  0.0540  0.4002
 1101SOL    MW4 4452   2.495   3.084   1.928 -0.0389  0.0870  0.4377
 1102SOL     OW 4453   2.279   3.195   2.018  0.5428  0.1852 -0.2302
 1102SOL    HW2 4454   2.257   3.191   2.111  1.4806 -0.7142 -0.0351
 1102SOL    HW3 4455   2.207   3.149   1.974 -0.5543  1.7242 -0.0808
 1102SOL    MW4 4456   2.266   3.188   2.025  0.5214  0.2697 -0.1850
 1103SOL     OW 4457   2.227   3.454   1.883  0.0065  0.1682 -0.0151
 1103SOL    HW2 4458   2.232   3.377   1.940 -0.9689  0.1196  0.0066
 1103SOL    HW3 4459   2.161   3.510   1.924  0.5357  0.9078 -0.1654
 1103SOL    MW4 4460   2.219   3.451   1.896 -0.0525  0.2596 -0.0319
 1104SOL     OW 4461   2.434   3.588   2.014  0.1662  0.0340  0.1072
 1104SOL    HW2 4462   2.440   3.574   2.108  0.9916 -1.0891 -0.1057
 1104SOL    HW3 4463   2.360   3.533   1.986  0.1191  0.1255  0.0520
 1104SOL    MW4 4464   2.425   3.579   2.023  0.2689 -0.1018  0.0720
 1105SOL     OW 4465   2.448   3.842   1.940 -0.3786  0.0344  0.0507
 1105SOL    HW2 4466   2.362   3.883   1.941  0.3611  1.6036  0.1350
 1105SOL    HW3 4467   2.430   3.749   1.954 -2.1051  0.2465 -0.6376
 1105SOL    MW4 4468   2.434   3.835   1.942 -0.5085  0.2694 -0.0290
 1106SOL     OW 4469   2.208   4.004   2.000  0.1456 -0.1520  0.2783
 1106SOL    HW2 4470   2.207   3.990   2.094 -1.0122  0.7921  0.4198
 1106SOL    HW3 4471   2.235   4.096   1.989 -1.5701  0.3138 -0.2130
 1106SOL    MW4 4472   2.212   4.015   2.011 -0.2334  0.0339  0.2320
 1107SOL     OW 4473   2.277   4.264   1.905 -0.2739  0.0786  0.2307
 1107SOL    HW2 4474   2.349   4.320   1.935  1.1051 -0.9914 -1.0108
 1107SOL    HW3 4475   2.274   4.278   1.810 -1.1410 -0.5305  0.1649
 1107SOL    MW4 4476   2.286   4.273   1.896 -0.2062 -0.1431  0.0583
 1108SOL     OW 4477   2.490   4.419   2.015  0.0821  0.0961 -0.1243
 1108SOL    HW2 4478   2.485   4.396   2.108  1.1818  1.5518  0.3170
 1108SOL    HW3 4479   2.573   4.381   1.985  0.4090  0.8245 -0.1528
 1108SOL    MW4 4480   2.500   4.411   2.023  0.2704  0.3834 -0.0699
 1109SOL     OW 4481   2.963   0.027   1.895 -0.2438 -0.2100 -0.3554
 1109SOL    HW2 4482   3.038   0.075   1.928 -0.2705 -0.6758  0.4027
 1109SOL    HW3 4483   2.968  -0.059   1.938 -0.6525 -0.5923 -1.0527
 1109SOL    MW4 4484   2.973   0.022   1.905 -0.3016 -0.3219 -0.3475
 1110SOL     OW 4485   2.723   0.136   1.967  0.5652  0.3007 -0.2896
 1110SOL    HW2 4486   2.717   0.136   2.063  0.6341 -0.5396 -0.2739
 1110SOL    HW3 4487   2.805   0.090   1.949  0.7234  0.7625 -0.7460
 1110SOL    MW4 4488   2.733   0.130   1.977  0.5953  0.2508 -0.3476
 1111SOL     OW 4489   2.765   0.400   1.875  0.0411  0.1858 -0.5829
 1111SOL    HW2 4490   2.816   0.442   1.944 -1.8950  0.9868  0.3900
 1111SOL    HW3 4491   2.750   0.311   1.907  0.2022  0.1759 -0.5348
 1111SOL    MW4 4492   2.770   0.394   1.888 -0.1931  0.2902 -0.4481
 1112SOL     OW 4493   2.961   0.532   2.032  0.4379  0.1383  0.0136
 1112SOL    HW2 4494   3.038   0.496   1.987 -0.5501 -2.1555  0.1138
 1112SOL    HW3 4495   2.930   0.601   1.974  1.7728  0.1613 -0.6940
 1112SOL    MW4 4496   2.967   0.536   2.019  0.4835 -0.1612 -0.0665
 1113SOL     OW 4497   2.904   0.765   1.901 -0.4471 -0.3250  0.0750
 1113SOL    HW2 4498   2.983   0.811   1.929 -0.7440  0.8703 -1.0092
 1113SOL    HW3 4499   2.832   0.820   1.932 -0.8302 -0.8041  0.0380
 1113SOL    MW4 4500   2.905   0.779   1.909 -0.5369 -0.2304 -0.0730
 1114SOL     OW 4501   2.696   0.922   2.009  0.3372  0.6677 -0.2088
 1114SOL    HW2 4502   2.709   1.011   1.977 -1.2336  0.8853 -0.2732
 1114SOL    HW3 4503   2.621   0.889   1.959  0.4456 -0.4335  0.3367
 1114SOL    MW4 4504   2.688   0.929   1.998  0.1442  0.5511 -0.1452
 1115SOL     OW 4505   2.701   1.175   1.926  0.2061 -0.0328  0.5131
 1115SOL    HW2 4506   2.618   1.213   1.956 -0.2010 -0.7709  0.3445
 1115SOL    HW3 4507   2.701   1.187   1.831  0.2913 -0.0290  0.5135
 1115SOL    MW4 4508   2.690   1.181   1.918  0.1638 -0.1298  0.4910
 1116SOL     OW 4509   2.929   1.290   2.019  0.2817 -0.3559 -0.4312
 1116SOL    HW2 4510   2.926   1.381   1.993  1.1299  0.1549  1.1494
 1116SOL    HW3 4511   2.843   1.255   1.997 -0.5274  1.1863  0.1934
 1116SOL    MW4 4512   2.917   1.297   2.013  0.2868 -0.0851 -0.1402
 1117SOL     OW 4513   2.895   1.588   1.930 -0.3513 -0.2459  0.1454
 1117SOL    HW2 4514   2.978   1.619   1.966 -1.0263 -0.6011  2.0650
 1117SOL    HW3 4515   2.910   1.583   1.835  1.2403  1.4322  0.2724
 1117SOL    MW4 4516   2.908   1.592   1.922 -0.2301 -0.0715  0.4156
 1118SOL     OW 4517   2.668   1.684   2.059 -0.1265 -0.1822  0.2659
 1118SOL    HW2 4518   2.742   1.636   2.022 -0.1955  0.9404 -1.3823
 1118SOL    HW3 4519   2.592   1.652   2.011 -0.2678  0.9891 -0.3169
 1118SOL    MW4 4520   2.668   1.673   2.048 -0.1543  0.1205 -0.0286
 1119SOL     OW 4521   2.676   1.938   1.971  0.3254 -0.0750  0.1849
 1119SOL    HW2 4522   2.753   1.984   2.005  2.0565 -2.2906 -0.5765
 1119SOL    HW3 4523   2.693   1.845   1.991 -3.6571 -0.3001  2.8158
 1119SOL    MW4 4524   2.689   1.931   1.978  0.0286 -0.3970  0.4317
 1120SOL     OW 4525   2.906   2.079   2.034 -0.1167  0.4808  0.5636
 1120SOL    HW2 4526   2.908   2.078   2.130 -1.3590  0.0872  0.5851
 1120SOL    HW3 4527   2.985   2.032   2.009 -0.3747 -0.4127  1.3975
 1120SOL    MW4 4528   2.917   2.073   2.044 -0.3150  0.3111  0.6764
 1121SOL     OW 4529   2.925   2.309   1.854 -0.4417 -0.1044 -0.3188
 1121SOL    HW2 4530   2.989   2.353   1.909  0.8762  0.1523 -2.0033
 1121SOL    HW3 4531   2.905   2.227   1.900  1.4786 -0.4142  0.0030
 1121SOL    MW4 4532   2.931   2.304   1.867 -0.0145 -0.1116 -0.4988
 1122SOL     OW 4533   2.716   2.463   1.981  0.6412 -0.0807 -0.0680
 1122SOL    HW2 4534   2.722   2.547   1.937  3.1208  0.1521  0.6594
 1122SOL    HW3 4535   2.770   2.404   1.928 -1.0852 -1.2448 -0.5842
 1122SOL    MW4 4536   2.724   2.466   1.968  0.7403 -0.2034 -0.0401
 1123SOL     OW 4537   2.713   2.705   1.855 -0.0451 -0.6538  0.1790
 1123SOL    HW2 4538   2.639   2.743   1.903 -0.8637 -2.6636  0.5487
 1123SOL    HW3 4539   2.684   2.704   1.763 -0.3032 -1.0202  0.2630
 1123SOL    MW4 4540   2.699   2.710   1.849 -0.1872 -0.9670  0.2389
 1124SOL     OW 4541   2.942   2.778   2.033  0.1327  0.0823  0.0091
 1124SOL    HW2 4542   2.877   2.726   1.984  0.2491  0.5038 -0.6039
 1124SOL    HW3 4543   2.921   2.869   2.011  0.5659  0.2476  0.2795
 1124SOL    MW4 4544   2.930   2.783   2.023  0.2048  0.1597 -0.0358
 1125SOL     OW 4545   2.935   3.047   1.916  0.5579  0.3873  0.1104
 1125SOL    HW2 4546   3.023   3.070   1.946  0.6533  0.6542 -0.3594
 1125SOL    HW3 4547   2.879   3.114   1.955  0.2206 -1.2148  2.4334
 1125SOL    MW4 4548   2.939   3.059   1.925  0.5262  0.2110  0.3549
 1126SOL     OW 4549   2.725   3.218   2.031 -0.3323  0.2651  0.1988
 1126SOL    HW2 4550   2.687   3.302   2.004 -1.3132  0.0627  0.9648
 1126SOL    HW3 4551   2.657   3.153   2.014 -0.1909 -0.1521  1.1840
 1126SOL    MW4 4552   2.711   3.221   2.025 -0.4432  0.1836  0.4299
 1127SOL     OW 4553   2.656   3.455   1.917 -0.1358 -0.4850  0.2893
 1127SOL    HW2 4554   2.733   3.502   1.949  0.1408 -0.8466  0.1630
 1127SOL    HW3 4555   2.581   3.502   1.954  0.1706 -0.6685  1.1517
 1127SOL    MW4 4556   2.656   3.467   1.926 -0.0591 -0.5569  0.3864
 1128SOL     OW 4557   2.866   3.607   1.997  0.5745  0.7436  0.1680
 1128SOL    HW2 4558   2.860   3.600   2.092  0.1555  0.0648  0.0923
 1128SOL    HW3 4559   2.945   3.558   1.974 -0.2678 -0.5361  0.0019
 1128SOL    MW4 4560   2.876   3.600   2.006  0.4079  0.4849  0.1361
 1129SOL     OW 4561   2.897   3.894   1.931  0.5849  0.0543  0.0986
 1129SOL    HW2 4562   2.878   3.801   1.950  1.6607 -0.0201  0.8309
 1129SOL    HW3 4563   2.886   3.902   1.836 -0.5438 -0.5835  0.1622
 1129SOL    MW4 4564   2.893   3.882   1.921  0.5784 -0.0396  0.2036
 1130SOL     OW 4565   2.651   4.015   2.006  0.5416 -0.2751  0.0040
 1130SOL    HW2 4566   2.727   3.959   1.998  0.1165 -0.8075 -0.3252
 1130SOL    HW3 4567   2.577   3.960   1.979  0.3343  0.9873 -2.0723
 1130SOL    MW4 4568   2.651   4.000   2.001  0.4582 -0.1783 -0.3135
 1131SOL     OW 4569   2.732   4.292   1.915  0.0150 -0.3186 -0.5334
 1131SOL    HW2 4570   2.721   4.204   1.953 -1.9460 -0.4304 -1.3265
 1131SOL    HW3 4571   2.714   4.280   1.822 -0.6430  0.9918 -0.5781
 1131SOL    MW4 4572   2.728   4.279   1.908 -0.3304 -0.1607 -0.6438
 1132SOL     OW 4573   2.949   4.438   2.018 -0.2865 -0.6826 -0.0608
 1132SOL    HW2 4574   2.941   4.425   2.112 -1.0707 -1.6011 -0.2487
 1132SOL    HW3 4575   2.871   4.397   1.981 -1.3428  1.9531 -0.9305
 1132SOL    MW4 4576   2.938   4.431   2.025 -0.5293 -0.4563 -0.2003
 1133SOL     OW 4577   3.373   4.657   1.936 -0.1782  0.6282  0.2335
 1133SOL    HW2 4578   3.374   4.566   1.967  0.4191  0.6883  0.3904
 1133SOL    HW3 4579   3.375   4.649   1.840  0.0687  0.4785  0.2501
 1133SOL    MW4 4580   3.374   4.644   1.927 -0.0670  0.6166  0.2564
 1134SOL     OW 4581   3.169   0.169   2.017 -0.1584 -0.3960  0.3662
 1134SOL    HW2 4582   3.163   0.153   2.111 -0.0440 -1.4927  0.1969
 1134SOL    HW3 4583   3.236   0.108   1.986 -0.1330  0.0160 -0.4129
 1134SOL    MW4 4584   3.177   0.159   2.025 -0.1402 -0.4864  0.2408
 1135SOL     OW 4585   3.187   0.420   1.927  0.5010  0.2878  0.0943
 1135SOL    HW2 4586   3.188   0.331   1.962 -0.8681  0.5070  0.7089
 1135SOL    HW3 4587   3.156   0.410   1.837 -0.0719  0.1834  0.3005
 1135SOL    MW4 4588   3.183   0.407   1.920  0.2446  0.3030  0.2028
 1136SOL     OW 4589   3.431   0.531   2.006  0.3295  0.1442  0.1480
 1136SOL    HW2 4590   3.503   0.473   1.982 -0.1766 -0.6816  0.5972
 1136SOL    HW3 4591   3.352   0.484   1.978 -0.0715  0.6928  0.3506
 1136SOL    MW4 4592   3.430   0.517   2.000  0.2098  0.1077  0.2341
 1137SOL     OW 4593   3.403   0.779   1.910  0.0838 -0.0288  0.3917
 1137SOL    HW2 4594   3.324   0.818   1.946 -0.4232 -0.9399  0.2743
 1137SOL    HW3 4595   3.406   0.691   1.948  0.5881 -0.2969 -0.2546
 1137SOL    MW4 4596   3.393   0.772   1.920  0.0837 -0.1844  0.2909
 1138SOL     OW 4597   3.158   0.886   1.982 -0.3083  0.6732 -0.1626
 1138SOL    HW2 4598   3.167   0.900   2.077 -1.6172 -0.1854  0.1082
 1138SOL    HW3 4599   3.129   0.970   1.948 -2.0412  0.3897  0.5423
 1138SOL    MW4 4600   3.155   0.899   1.990 -0.7095  0.5225 -0.0340
 1139SOL     OW 4601   3.127   1.138   1.893 -0.1107 -0.1491 -0.2360
 1139SOL    HW2 4602   3.206   1.190   1.906  0.6776 -1.0405 -1.3266
 1139SOL    HW3 4603   3.056   1.193   1.926  1.0657  0.2223  1.8122
 1139SOL    MW4 4604   3.128   1.152   1.899  0.1483 -0.2178 -0.1097
 1140SOL     OW 4605   3.330   1.298   1.988  0.1060 -0.0764 -0.3719
 1140SOL    HW2 4606   3.304   1.280   2.078  0.2715  0.9436 -0.1114
 1140SOL    HW3 4607   3.365   1.387   1.990  1.0074 -0.3963 -1.2628
 1140SOL    MW4 4608   3.331   1.308   2.000  0.2468  0.0157 -0.4551
 1141SOL     OW 4609   3.419   1.580   1.934  0.0539  0.1749  0.1357
 1141SOL    HW2 4610   3.487   1.634   1.974  0.0234  0.9715 -0.8836
 1141SOL    HW3 4611   3.337   1.615   1.968  0.0604  0.4339 -0.1144
 1141SOL    MW4 4612   3.417   1.591   1.944  0.0505  0.3141 -0.0317
 1142SOL     OW 4613   3.159   1.676   2.007 -0.2720 -0.0800  0.3000
 1142SOL    HW2 4614   3.162   1.672   2.102 -0.8652 -0.0550  0.3209
 1142SOL    HW3 4615   3.135   1.766   1.987  2.0354  0.5118  0.0684
 1142SOL    MW4 4616   3.156   1.687   2.017 -0.0458  0.0014  0.2720
 1143SOL     OW 4617   3.140   1.942   1.935  0.1934  0.2465  0.7902
 1143SOL    HW2 4618   3.221   1.977   1.973  1.2803 -1.7950  0.4695
 1143SOL    HW3 4619   3.160   1.929   1.842 -0.4328 -0.4140  0.7377
 1143SOL    MW4 4620   3.154   1.945   1.928  0.2542 -0.1101  0.7410
 1144SOL     OW 4621   3.367   2.053   2.003 -0.3780  0.6534 -0.0984
 1144SOL    HW2 4622   3.428   2.011   1.942  0.7726  1.6741  0.3183
 1144SOL    HW3 4623   3.354   2.141   1.968 -1.5046  0.4935 -0.1019
 1144SOL    MW4 4624   3.374   2.059   1.991 -0.3750  0.7668 -0.0440
 1145SOL     OW 4625   3.357   2.313   1.902  0.0441  0.2168  0.4510
 1145SOL    HW2 4626   3.270   2.347   1.923 -1.1835 -1.7601 -1.2143
 1145SOL    HW3 4627   3.354   2.296   1.808  1.5544 -1.7128  0.7186
 1145SOL    MW4 4628   3.345   2.315   1.892  0.0815 -0.2985  0.2667
 1146SOL     OW 4629   3.106   2.433   2.000  0.6575  0.5666 -0.0251
 1146SOL    HW2 4630   3.087   2.444   2.093 -1.9413  1.9763 -0.6803
 1146SOL    HW3 4631   3.120   2.522   1.967  0.6435  0.1585 -1.1679
 1146SOL    MW4 4632   3.105   2.446   2.008  0.3128  0.6988 -0.2625
 1147SOL     OW 4633   3.160   2.683   1.877  0.2600 -0.5595  0.2990
 1147SOL    HW2 4634   3.083   2.725   1.913  0.6229  0.0844  0.3351
 1147SOL    HW3 4635   3.154   2.698   1.782  0.0987 -0.9192  0.2511
 1147SOL    MW4 4636   3.149   2.691   1.869  0.2866 -0.5221  0.2975
 1148SOL     OW 4637   3.363   2.814   2.011 -0.0160 -0.4035 -0.2846
 1148SOL    HW2 4638   3.349   2.805   2.105 -0.1112  2.8564  0.0558
 1148SOL    HW3 4639   3.284   2.777   1.972 -0.6589 -0.3870  0.9639
 1148SOL    MW4 4640   3.351   2.808   2.018 -0.1135  0.0286 -0.0751
 1149SOL     OW 4641   3.341   3.087   1.898  0.4590 -0.2755  0.4405
 1149SOL    HW2 4642   3.424   3.128   1.921  0.4165 -0.3248  0.6848
 1149SOL    HW3 4643   3.346   2.999   1.936 -0.2278  0.1683  1.5907
 1149SOL    MW4 4644   3.352   3.081   1.906  0.3629 -0.2236  0.6245
 1150SOL     OW 4645   3.142   3.201   2.048  0.2992  0.1618  0.3231
 1150SOL    HW2 4646   3.116   3.272   1.990  0.3989 -0.0551  0.0061
 1150SOL    HW3 4647   3.221   3.165   2.007 -0.1396 -0.5699  0.1045
 1150SOL    MW4 4648   3.149   3.205   2.035  0.2542  0.0367  0.2525
 1151SOL     OW 4649   3.089   3.460   1.940 -0.1797 -0.2315 -0.3722
 1151SOL    HW2 4650   3.176   3.493   1.962 -0.2050 -0.1626 -0.3754
 1151SOL    HW3 4651   3.085   3.464   1.845  0.4510 -1.8536 -0.4827
 1151SOL    MW4 4652   3.100   3.465   1.930 -0.0999 -0.4365 -0.3872
 1152SOL     OW 4653   3.592   3.471   1.925 -0.0456  0.2926  0.5454
 1152SOL    HW2 4654   3.617   3.469   1.833 -0.7601 -2.6166  0.3742
 1152SOL    HW3 4655   3.662   3.520   1.968  1.0887  0.3283 -1.2997
 1152SOL    MW4 4656   3.605   3.477   1.918  0.0100 -0.0863  0.2794
 1153SOL     OW 4657   3.357   3.867   1.929  0.0069  0.4623  0.2905
 1153SOL    HW2 4658   3.286   3.928   1.950 -0.0904  0.8379 -1.0681
 1153SOL    HW3 4659   3.379   3.887   1.838 -0.5484 -2.0093 -0.4351
 1153SOL    MW4 4660   3.350   3.878   1.920 -0.0792  0.1857  0.0155
 1154SOL     OW 4661   3.127   4.015   2.015 -0.0890 -0.1255  0.3225
 1154SOL    HW2 4662   3.114   4.026   2.109  0.1902  2.7634  0.0895
 1154SOL    HW3 4663   3.048   3.971   1.984 -0.7607  0.0755  1.7156
 1154SOL    MW4 4664   3.115   4.011   2.023 -0.1409  0.2823  0.4756
 1155SOL     OW 4665   3.178   4.262   1.927  0.0313 -0.3798  0.4370
 1155SOL    HW2 4666   3.157   4.171   1.947 -0.4208 -0.3094  0.2873
 1155SOL    HW3 4667   3.104   4.312   1.963 -0.5748 -0.2107 -1.0094
 1155SOL    MW4 4668   3.165   4.257   1.934 -0.1082 -0.3486  0.2265
 1156SOL     OW 4669   3.383   4.393   2.020 -0.4417 -0.3639 -0.1300
 1156SOL    HW2 4670   3.464   4.344   2.000  0.2507  1.0349 -0.7999
 1156SOL    HW3 4671   3.313   4.339   1.982  0.2239 -1.2850 -0.0847
 1156SOL    MW4 4672   3.385   4.379   2.012 -0.2625 -0.3009 -0.2124
 1157SOL     OW 4673   3.847   4.665   1.987 -0.3944 -0.1345  0.1087
 1157SOL    HW2 4674   3.852   4.576   2.022 -0.7643  0.4206  1.5838
 1157SOL    HW3 4675   3.758   4.693   2.005  0.3718  1.3546  1.7021
 1157SOL    MW4 4676   3.836   4.657   1.994 -0.3421  0.1354  0.5136
 1158SOL     OW 4677   3.614   0.086   2.039 -0.6517  0.1013  0.1423
 1158SOL    HW2 4678   3.603   0.087   2.134 -1.7398  0.4998  0.0120
 1158SOL    HW3 4679   3.529   0.060   2.005 -0.7740  1.6833 -0.8094
 1158SOL    MW4 4680   3.602   0.082   2.047 -0.8113  0.3626 -0.0005
 1159SOL     OW 4681   3.618   0.347   1.904  0.4008 -0.3630 -0.0256
 1159SOL    HW2 4682   3.614   0.259   1.940  0.8911 -0.1380  0.5910
 1159SOL    HW3 4683   3.599   0.336   1.811 -2.1449 -0.7815  0.5152
 1159SOL    MW4 4684   3.615   0.334   1.896  0.1295 -0.3886  0.1268
 1160SOL     OW 4685   3.857   0.462   2.008 -0.4439  0.0823  0.2615
 1160SOL    HW2 4686   3.855   0.556   1.989 -0.9657  0.3756  1.7070
 1160SOL    HW3 4687   3.779   0.428   1.964 -0.4058  0.3714 -0.0343
 1160SOL    MW4 4688   3.846   0.470   2.000 -0.5076  0.1591  0.4131
 1161SOL     OW 4689   3.858   0.722   1.948  0.3151 -0.3249 -0.0680
 1161SOL    HW2 4690   3.795   0.777   1.994 -0.7102 -0.8188 -0.8489
 1161SOL    HW3 4691   3.840   0.739   1.855  1.4706 -0.3273 -0.3039
 1161SOL    MW4 4692   3.848   0.732   1.941  0.3321 -0.3905 -0.2022
 1162SOL     OW 4693   3.618   0.913   2.011  0.4853  0.3655  0.3153
 1162SOL    HW2 4694   3.598   1.004   1.991  1.5503  0.7282  0.8649
 1162SOL    HW3 4695   3.541   0.864   1.980  0.6204  1.2572 -1.4938
 1162SOL    MW4 4696   3.605   0.919   2.004  0.6440  0.5310  0.1490
 1163SOL     OW 4697   3.579   1.173   1.907 -0.4368 -0.0476  0.1717
 1163SOL    HW2 4698   3.496   1.217   1.921 -0.2902  0.6142 -1.0203
 1163SOL    HW3 4699   3.578   1.148   1.815  0.7149  0.0440  0.1271
 1163SOL    MW4 4700   3.568   1.175   1.897 -0.2658  0.0519  0.0086
 1164SOL     OW 4701   3.821   1.280   2.004 -0.3465  0.2432  0.1547
 1164SOL    HW2 4702   3.814   1.265   2.098  0.3485  0.0308  0.1743
 1164SOL    HW3 4703   3.748   1.230   1.966  0.3997 -1.0892  0.4372
 1164SOL    MW4 4704   3.810   1.271   2.011 -0.1564  0.0395  0.1945
 1165SOL     OW 4705   3.822   1.524   1.893 -0.2359 -0.0038  0.2066
 1165SOL    HW2 4706   3.903   1.559   1.929 -0.3729 -0.4548  0.9467
 1165SOL    HW3 4707   3.821   1.432   1.919 -1.2126  0.1144  0.6104
 1165SOL    MW4 4708   3.833   1.517   1.901 -0.3831 -0.0477  0.3575
 1166SOL     OW 4709   3.637   1.702   2.049  0.0746 -0.1374  0.1941
 1166SOL    HW2 4710   3.647   1.779   1.994 -0.0230 -0.1894  0.1041
 1166SOL    HW3 4711   3.696   1.637   2.011  0.4272  0.0133  0.4859
 1166SOL    MW4 4712   3.646   1.703   2.037  0.1082 -0.1242  0.2208
 1167SOL     OW 4713   3.573   1.944   1.864  0.1532 -0.0101  0.3358
 1167SOL    HW2 4714   3.642   2.004   1.893 -1.3965  2.4257 -0.8310
 1167SOL    HW3 4715   3.579   1.945   1.768 -1.4605  0.2217  0.2213
 1167SOL    MW4 4716   3.583   1.952   1.855 -0.2642  0.3419  0.1668
 1168SOL     OW 4717   3.834   2.052   1.962  0.2793  0.3850  0.1713
 1168SOL    HW2 4718   3.905   1.995   1.935  0.7506  0.1305  1.9055
 1168SOL    HW3 4719   3.851   2.135   1.917  1.9660  0.4879  0.9636
 1168SOL    MW4 4720   3.846   2.056   1.953  0.5641  0.3648  0.5047
 1169SOL     OW 4721   3.813   2.321   1.878  0.0166  0.1266 -0.2004
 1169SOL    HW2 4722   3.887   2.362   1.924  0.9269 -1.4437 -0.2132
 1169SOL    HW3 4723   3.736   2.368   1.908  1.1072  2.3412 -0.8127
 1169SOL    MW4 4724   3.813   2.332   1.888  0.2804  0.2117 -0.2829
 1170SOL     OW 4725   3.589   2.447   2.009  0.8084  0.0875 -0.0685
 1170SOL    HW2 4726   3.584   2.539   1.983 -1.3168  0.0625  0.2086
 1170SOL    HW3 4727   3.513   2.406   1.970  1.2198 -1.3641  0.6205
 1170SOL    MW4 4728   3.579   2.454   2.001  0.5825 -0.1075  0.0589
 1171SOL     OW 4729   3.570   2.697   1.891 -0.2289  0.0996 -0.3264
 1171SOL    HW2 4730   3.654   2.736   1.914 -0.5064 -0.4119  1.6223
 1171SOL    HW3 4731   3.505   2.752   1.935 -0.6840 -1.7991  1.4864
 1171SOL    MW4 4732   3.573   2.709   1.900 -0.3254 -0.2186  0.1699
 1172SOL     OW 4733   3.828   2.788   1.992 -0.5591 -0.1046 -0.5358
 1172SOL    HW2 4734   3.813   2.800   2.086  2.6959 -2.9539  0.4309
 1172SOL    HW3 4735   3.834   2.877   1.958 -2.1027  0.9832  1.8836
 1172SOL    MW4 4736   3.827   2.802   2.000 -0.3331 -0.3371 -0.0894
 1173SOL     OW 4737   3.825   3.058   1.928 -0.0104 -0.1800 -0.2174
 1173SOL    HW2 4738   3.749   3.104   1.962  0.7097 -0.0911  1.3061
 1173SOL    HW3 4739   3.818   3.067   1.833 -0.9410  1.3548 -0.0146
 1173SOL    MW4 4740   3.814   3.065   1.920 -0.0381  0.0343  0.0105
 1174SOL     OW 4741   3.582   3.194   1.977 -0.2570  0.1064 -0.1438
 1174SOL    HW2 4742   3.574   3.189   2.073  0.8113  0.8709  0.0045
 1174SOL    HW3 4743   3.594   3.288   1.960  0.0998 -0.0912 -0.9804
 1174SOL    MW4 4744   3.583   3.206   1.988 -0.0689  0.1814 -0.2345
 1175SOL     OW 4745   3.784   3.655   2.027 -0.2483 -0.4958  0.4315
 1175SOL    HW2 4746   3.868   3.616   2.003 -0.4577 -0.2647 -0.6767
 1175SOL    HW3 4747   3.791   3.746   1.999  0.1490  0.2518  2.7972
 1175SOL    MW4 4748   3.796   3.662   2.020 -0.2234 -0.3664  0.5975
 1176SOL     OW 4749   3.346   3.592   1.995  0.0941 -0.1158 -0.1832
 1176SOL    HW2 4750   3.431   3.563   1.962 -0.2058 -0.0687 -1.0200
 1176SOL    HW3 4751   3.350   3.688   1.989  0.5088 -0.0509  1.1178
 1176SOL    MW4 4752   3.358   3.601   1.990  0.1092 -0.1011 -0.1221
 1177SOL     OW 4753   3.833   3.902   1.931  0.2093  0.1332  0.5973
 1177SOL    HW2 4754   3.752   3.946   1.956 -0.1096 -0.7725  1.1634
 1177SOL    HW3 4755   3.829   3.897   1.835 -0.4816 -0.0627  0.6352
 1177SOL    MW4 4756   3.822   3.907   1.921  0.0761 -0.0119  0.6769
 1178SOL     OW 4757   3.603   3.986   2.037  0.1322  0.2151 -0.2481
 1178SOL    HW2 4758   3.598   3.971   2.131 -1.2577 -2.1481 -0.6388
 1178SOL    HW3 4759   3.526   3.941   2.002  0.9187  0.5936 -2.5604
 1178SOL    MW4 4760   3.592   3.978   2.045  0.0527 -0.0470 -0.6049
 1179SOL     OW 4761   3.619   4.257   1.953  0.2876 -0.1184 -0.0139
 1179SOL    HW2 4762   3.701   4.297   1.981  0.0453 -0.5469  1.3245
 1179SOL    HW3 4763   3.616   4.173   1.998 -0.7089 -0.2598 -0.3319
 1179SOL    MW4 4764   3.629   4.251   1.963  0.1242 -0.1936  0.1208
 1180SOL     OW 4765   3.840   4.397   2.062 -0.0737 -0.6486 -0.0670
 1180SOL    HW2 4766   3.842   4.387   2.157 -1.3145  0.0854  0.0424
 1180SOL    HW3 4767   3.913   4.343   2.031 -0.7900 -2.3788  1.1748
 1180SOL    MW4 4768   3.850   4.388   2.070 -0.3321 -0.7801  0.1113
 1181SOL     OW 4769   4.313   4.641   1.915  0.4438 -0.1162  0.6549
 1181SOL    HW2 4770   4.233   4.687   1.943 -0.0707 -0.7972  0.3151
 1181SOL    HW3 4771   4.383   4.682   1.966  0.1636  1.9002 -0.5211
 1181SOL    MW4 4772   4.311   4.653   1.925  0.3386  0.0601  0.4549
 1182SOL     OW 4773   4.102   0.088   2.043 -0.1827 -0.2371  0.0110
 1182SOL    HW2 4774   4.121   0.121   2.131  0.3145 -1.9210  0.5518
 1182SOL    HW3 4775   4.008   0.070   2.043  0.2139 -2.3860  0.9498
 1182SOL    MW4 4776   4.092   0.090   2.055 -0.0644 -0.7428  0.2067
 1183SOL     OW 4777   4.103   0.333   1.890  0.1663 -0.0767  0.0949
 1183SOL    HW2 4778   4.108   0.243   1.921 -0.1344 -0.0140  0.3226
 1183SOL    HW3 4779   4.018   0.364   1.920 -0.2797 -0.1297 -1.0953
 1183SOL    MW4 4780   4.093   0.325   1.898  0.0672 -0.0754 -0.0321
 1184SOL     OW 4781   4.287   0.533   2.010  0.2256 -0.5272  0.2240
 1184SOL    HW2 4782   4.274   0.533   2.105  0.5964 -1.1101  0.2777
 1184SOL    HW3 4783   4.220   0.473   1.977  0.3183 -0.5867  0.1474
 1184SOL    MW4 4784   4.276   0.525   2.018  0.2866 -0.6120  0.2210
 1185SOL     OW 4785   4.261   0.771   1.890 -0.3199  0.1069  0.2770
 1185SOL    HW2 4786   4.282   0.692   1.940 -2.3123 -0.2355  0.6505
 1185SOL    HW3 4787   4.271   0.746   1.799  1.2075  0.0790  0.4475
 1185SOL    MW4 4788   4.265   0.757   1.885 -0.3815  0.0581  0.3488
 1186SOL     OW 4789   4.070   0.904   2.022  0.6532 -0.2018  0.4505
 1186SOL    HW2 4790   4.137   0.864   1.966  0.9758  0.6558  0.2063
 1186SOL    HW3 4791   4.000   0.839   2.027  1.8189 -1.4272  1.3213
 1186SOL    MW4 4792   4.070   0.890   2.015  0.8502 -0.2503  0.5333
 1187SOL     OW 4793   4.041   1.142   1.881 -0.1764  0.1450 -0.5015
 1187SOL    HW2 4794   4.049   1.057   1.924 -1.1888 -0.3966 -1.3848
 1187SOL    HW3 4795   3.964   1.182   1.921 -0.1540  0.3300 -0.6410
 1187SOL    MW4 4796   4.032   1.136   1.892 -0.3071  0.0978 -0.6365
 1188SOL     OW 4797   4.268   1.270   2.024 -0.1161 -0.2173 -0.2062
 1188SOL    HW2 4798   4.247   1.268   2.118 -2.0643 -2.2442 -0.6478
 1188SOL    HW3 4799   4.191   1.233   1.982  0.6941  0.7993 -2.6523
 1188SOL    MW4 4800   4.255   1.265   2.031 -0.2661 -0.3506 -0.5870
 1189SOL     OW 4801   4.280   1.525   1.918 -0.4556  0.1845  0.5152
 1189SOL    HW2 4802   4.295   1.435   1.947 -0.1828  0.0336 -0.0974
 1189SOL    HW3 4803   4.259   1.518   1.825  0.0709  0.7993  0.3443
 1189SOL    MW4 4804   4.279   1.513   1.910 -0.3495  0.2457  0.4119
 1190SOL     OW 4805   4.045   1.649   2.006 -0.3362 -0.2417 -0.1452
 1190SOL    HW2 4806   4.041   1.642   2.101 -0.7485  0.5344 -0.0959
 1190SOL    HW3 4807   4.133   1.620   1.983 -0.5049 -1.2013  0.3969
 1190SOL    MW4 4808   4.056   1.644   2.016 -0.4125 -0.2658 -0.0670
 1191SOL     OW 4809   4.067   1.907   1.912 -0.0841 -0.2637 -0.1895
 1191SOL    HW2 4810   4.068   1.819   1.948 -0.2887  0.1080  0.7448
 1191SOL    HW3 4811   4.072   1.895   1.817 -1.1387 -1.3001 -0.1165
 1191SOL    MW4 4812   4.068   1.894   1.904 -0.2503 -0.3514 -0.0566
 1192SOL     OW 4813   4.281   2.016   2.026  0.3931  0.0687 -0.0779
 1192SOL    HW2 4814   4.267   2.014   2.121  1.6639  0.0572  0.1185
 1192SOL    HW3 4815   4.197   1.990   1.989 -0.1621  0.2226  1.0404
 1192SOL    MW4 4816   4.268   2.013   2.034  0.4883  0.0875  0.0956
 1193SOL     OW 4817   4.269   2.278   1.898 -0.2039 -0.0640  0.3379
 1193SOL    HW2 4818   4.292   2.194   1.937  1.2573 -0.0199 -0.3956
 1193SOL    HW3 4819   4.337   2.338   1.928  0.2699  0.2391 -1.2924
 1193SOL    MW4 4820   4.281   2.275   1.907  0.0515 -0.0181  0.0261
 1194SOL     OW 4821   4.048   2.416   1.999  0.4266 -0.0169  0.0982
 1194SOL    HW2 4822   4.044   2.400   2.093  0.2297 -1.4460 -0.1377
 1194SOL    HW3 4823   4.132   2.378   1.972  1.7149  2.7095  0.1037
 1194SOL    MW4 4824   4.059   2.409   2.008  0.5708  0.1543  0.0677
 1195SOL     OW 4825   4.062   2.670   1.918  0.7226  0.3954 -0.5168
 1195SOL    HW2 4826   4.062   2.578   1.946 -0.5350 -0.2281 -2.4656
 1195SOL    HW3 4827   3.975   2.702   1.939  0.2783  0.3620 -2.2392
 1195SOL    MW4 4828   4.051   2.662   1.924  0.4978  0.3090 -1.0010
 1196SOL     OW 4829   4.233   2.870   2.025  0.0128  0.1354 -0.1861
 1196SOL    HW2 4830   4.235   2.869   2.120 -0.2574 -0.0074 -0.1799
 1196SOL    HW3 4831   4.172   2.799   2.002  0.3951 -0.1006 -0.4715
 1196SOL    MW4 4832   4.225   2.860   2.034  0.0277  0.0854 -0.2232
 1197SOL     OW 4833   4.228   3.110   1.898  0.2242  0.2777 -0.2811
 1197SOL    HW2 4834   4.158   3.157   1.942  0.8571 -0.3363  1.4175
 1197SOL    HW3 4835   4.231   3.025   1.942  1.3365 -0.0817 -1.0319
 1197SOL    MW4 4836   4.219   3.105   1.909  0.4549  0.1493 -0.1560
 1198SOL     OW 4837   4.011   3.234   2.025 -0.1355  0.3261  0.1304
 1198SOL    HW2 4838   4.017   3.216   2.119  0.2223  0.7924  0.2022
 1198SOL    HW3 4839   3.937   3.182   1.995  0.9436 -1.3498  0.2997
 1198SOL    MW4 4840   4.002   3.225   2.034  0.0544  0.1664  0.1624
 1199SOL     OW 4841   4.016   3.505   1.928 -0.2353 -0.3758 -0.3762
 1199SOL    HW2 4842   4.098   3.542   1.960 -1.0814  1.2338 -0.0085
 1199SOL    HW3 4843   4.016   3.415   1.959  1.2316 -0.2841 -0.0855
 1199SOL    MW4 4844   4.027   3.498   1.936 -0.1535 -0.1512 -0.2893
 1200SOL     OW 4845   4.271   3.598   2.031 -0.4723 -0.8036  0.1142
 1200SOL    HW2 4846   4.295   3.688   2.009  1.4873 -0.9848  1.4471
 1200SOL    HW3 4847   4.236   3.603   2.120 -3.0447 -0.9545 -0.8376
 1200SOL    MW4 4848   4.269   3.611   2.040 -0.5536 -0.8476  0.1643
 1201SOL     OW 4849   4.270   3.859   1.952  0.1655 -0.6325  0.0414
 1201SOL    HW2 4850   4.339   3.921   1.977  0.1003 -0.1352 -0.9829
 1201SOL    HW3 4851   4.270   3.861   1.856 -1.3222 -0.5926  0.0415
 1201SOL    MW4 4852   4.279   3.867   1.942 -0.0396 -0.5615 -0.0936
 1202SOL     OW 4853   4.055   3.993   2.065  0.5201  0.3808 -0.1068
 1202SOL    HW2 4854   4.121   3.934   2.029  0.5057  0.9308 -1.0753
 1202SOL    HW3 4855   3.971   3.956   2.037  0.3812 -0.7049  1.7254
 1202SOL    MW4 4856   4.052   3.980   2.056  0.4997  0.3099  0.0072
 1203SOL     OW 4857   4.034   4.244   1.933 -0.3591  0.3852  0.3089
 1203SOL    HW2 4858   4.114   4.283   1.969 -1.5549  0.9748  2.4134
 1203SOL    HW3 4859   4.027   4.159   1.976 -1.3219  0.7119  0.8154
 1203SOL    MW4 4860   4.044   4.238   1.944 -0.6437  0.5059  0.6534
 1204SOL     OW 4861   4.259   4.369   2.032 -0.4937  0.0006 -0.3347
 1204SOL    HW2 4862   4.250   4.384   2.126 -0.4156 -0.7059 -0.2072
 1204SOL    HW3 4863   4.264   4.456   1.994  0.6827  0.2799  0.4307
 1204SOL    MW4 4864   4.258   4.382   2.039 -0.3281 -0.0558 -0.2167
 1205SOL     OW 4865   0.254   0.014   2.418  0.0954 -0.2064  0.1101
 1205SOL    HW2 4866   0.270   0.002   2.512  1.3755  0.7775  0.0430
 1205SOL    HW3 4867   0.328   0.068   2.389  0.0608 -1.0543 -1.5920
 1205SOL    MW4 4868   0.266   0.020   2.427  0.2597 -0.1888 -0.1235
 1206SOL     OW 4869   0.010   0.147   2.339 -0.1548 -0.2912  0.0605
 1206SOL    HW2 4870   0.083   0.096   2.374  0.7217  0.6387 -0.3699
 1206SOL    HW3 4871   0.018   0.137   2.244 -0.4714 -0.0197  0.0051
 1206SOL    MW4 4872   0.021   0.139   2.331 -0.0809 -0.1327 -0.0033
 1207SOL     OW 4873   4.485   0.405   2.397  0.4370 -0.2272  0.0770
 1207SOL    HW2 4874   4.571   0.434   2.368 -0.4205  0.6276 -1.6457
 1207SOL    HW3 4875   4.482   0.312   2.376 -0.1254  0.3535 -2.4888
 1207SOL    MW4 4876   4.496   0.397   2.391  0.2497 -0.0378 -0.4888
 1208SOL     OW 4877   0.232   0.533   2.329 -0.1226 -0.0534  0.2561
 1208SOL    HW2 4878   0.306   0.480   2.358 -1.0869 -0.9486  1.1277
 1208SOL    HW3 4879   0.220   0.509   2.237  0.9398  0.4333 -0.0209
 1208SOL    MW4 4880   0.240   0.523   2.321 -0.1097 -0.1073  0.3343
 1209SOL     OW 4881   0.195   0.791   2.417 -0.5197  0.4267  0.1961
 1209SOL    HW2 4882   0.179   0.775   2.510 -2.5766  1.0097 -0.0284
 1209SOL    HW3 4883   0.204   0.704   2.378 -1.9643  0.1096  0.5678
 1209SOL    MW4 4884   0.194   0.778   2.424 -0.9817  0.4618  0.2155
 1210SOL     OW 4885   4.438   0.915   2.321 -0.8935 -0.3857 -0.1460
 1210SOL    HW2 4886   4.524   0.881   2.344 -0.3592  1.2035  0.2746
 1210SOL    HW3 4887   4.433   0.906   2.226  0.2146  0.5640 -0.3058
 1210SOL    MW4 4888   4.449   0.910   2.312 -0.6768 -0.0508 -0.1113
 1211SOL     OW 4889   4.477   1.184   2.416 -0.0345  0.0820  0.0606
 1211SOL    HW2 4890   4.484   1.162   2.509  0.4492  1.1674  0.2909
 1211SOL    HW3 4891   4.449   1.103   2.374  2.4349 -1.2133  0.7758
 1211SOL    MW4 4892   4.475   1.171   2.423  0.3552  0.0544  0.1850
 1212SOL     OW 4893   0.221   1.278   2.304 -0.2914 -0.1811  0.2175
 1212SOL    HW2 4894   0.141   1.240   2.340 -0.3843 -0.9581 -0.8038
 1212SOL    HW3 4895   0.205   1.283   2.210  1.1183 -0.9747 -0.0789
 1212SOL    MW4 4896   0.208   1.274   2.297 -0.1177 -0.3883  0.0436
 1213SOL     OW 4897   0.182   1.525   2.427 -0.2238 -0.2290  0.2142
 1213SOL    HW2 4898   0.193   1.513   2.521  1.5629 -1.0037 -0.0757
 1213SOL    HW3 4899   0.187   1.436   2.391  0.4104  0.1853 -0.7289
 1213SOL    MW4 4900   0.184   1.511   2.434  0.0956 -0.2764  0.0517
 1214SOL     OW 4901   4.464   1.688   2.323  0.1960  0.2248  0.2455
 1214SOL    HW2 4902   4.472   1.778   2.354 -0.4111  0.1855  0.5232
 1214SOL    HW3 4903   4.545   1.646   2.353  0.2248  0.5331  0.6047
 1214SOL    MW4 4904   4.476   1.694   2.331  0.1197  0.2604  0.3295
 1215SOL     OW 4905   4.487   1.938   2.429 -0.1272 -0.0455  0.1534
 1215SOL    HW2 4906   4.407   1.972   2.388  0.2273  0.1328 -0.4042
 1215SOL    HW3 4907   4.558   1.980   2.380  0.3093 -0.5943  0.3096
 1215SOL    MW4 4908   4.486   1.948   2.417 -0.0229 -0.0943  0.1006
 1216SOL     OW 4909   0.192   2.069   2.282 -0.0005  0.3355 -0.0333
 1216SOL    HW2 4910   0.259   2.015   2.324 -0.2827 -0.7847 -1.0238
 1216SOL    HW3 4911   0.190   2.041   2.191 -3.2126 -1.1041  0.3853
 1216SOL    MW4 4912   0.200   2.058   2.276 -0.4615 -0.0021 -0.1090
 1217SOL     OW 4913   0.207   2.347   2.388 -0.7654 -0.5676 -0.1083
 1217SOL    HW2 4914   0.211   2.314   2.478  1.2740 -0.5751 -0.1820
 1217SOL    HW3 4915   0.218   2.269   2.333 -0.1656 -0.3324 -0.3284
 1217SOL    MW4 4916   0.209   2.332   2.392 -0.4172 -0.5374 -0.1471
 1218SOL     OW 4917   4.433   2.460   2.289  0.1813 -0.1637  0.1204
 1218SOL    HW2 4918   4.446   2.547   2.327  1.2028 -0.2840  0.0611
 1218SOL    HW3 4919   4.504   2.407   2.327 -0.7213 -1.0912  0.5267
 1218SOL    MW4 4920   4.444   2.464   2.299  0.1965 -0.3021  0.1664
 1219SOL     OW 4921   0.007   2.704   2.381  0.5528  0.2623  0.2299
 1219SOL    HW2 4922  -0.000   2.708   2.476 -0.4623  0.7766  0.1335
 1219SOL    HW3 4923   0.073   2.770   2.359 -0.5617  1.4650  0.4336
 1219SOL    MW4 4924   0.015   2.714   2.391  0.2713  0.4890  0.2439
 1220SOL     OW 4925   0.228   2.871   2.315  0.3808 -0.0394 -0.1508
 1220SOL    HW2 4926   0.310   2.825   2.333  1.0035  0.9691 -0.4216
 1220SOL    HW3 4927   0.213   2.856   2.221 -0.4226 -1.3076  0.1644
 1220SOL    MW4 4928   0.237   2.863   2.305  0.3569 -0.0737 -0.1450
 1221SOL     OW 4929   0.223   3.149   2.390 -0.1842 -0.0514  0.3724
 1221SOL    HW2 4930   0.132   3.165   2.366  0.2530  1.0285 -0.6524
 1221SOL    HW3 4931   0.241   3.061   2.358 -0.6147  0.0794 -0.2408
 1221SOL    MW4 4932   0.214   3.140   2.382 -0.1833  0.1085  0.1564
 1222SOL     OW 4933   4.440   3.206   2.328 -0.5402 -0.1547 -0.2212
 1222SOL    HW2 4934   4.448   3.293   2.367  1.6399 -0.8583  0.9786
 1222SOL    HW3 4935   4.437   3.222   2.234  0.1057  1.2222 -0.0259
 1222SOL    MW4 4936   4.441   3.220   2.321 -0.1674 -0.0658 -0.0370
 1223SOL     OW 4937   4.464   3.477   2.437 -0.6412  0.2586 -0.2405
 1223SOL    HW2 4938   4.454   3.481   2.532  0.7491  1.4924 -0.1285
 1223SOL    HW3 4939   4.388   3.525   2.403 -0.2481  1.2995  0.3154
 1223SOL    MW4 4940   4.452   3.484   2.445 -0.4060  0.5589 -0.1521
 1224SOL     OW 4941   0.187   3.593   2.323 -0.2440 -0.3916  0.2378
 1224SOL    HW2 4942   0.272   3.570   2.362  0.1887  1.9838  0.7884
 1224SOL    HW3 4943   0.123   3.544   2.376  0.6437 -0.6713  1.0794
 1224SOL    MW4 4944   0.190   3.583   2.335 -0.0698 -0.1147  0.4213
 1225SOL     OW 4945   0.202   3.851   2.395  0.1472 -0.9662 -0.1227
 1225SOL    HW2 4946   0.122   3.891   2.362  0.7015  0.0078 -0.3103
 1225SOL    HW3 4947   0.188   3.757   2.385 -0.6872 -0.7742 -0.8181
 1225SOL    MW4 4948   0.189   3.844   2.389  0.1102 -0.8125 -0.2391
 1226SOL     OW 4949   4.448   3.971   2.302  0.2919 -0.5068 -0.0751
 1226SOL    HW2 4950   4.448   4.061   2.331 -3.5764 -0.2569 -0.6658
 1226SOL    HW3 4951   4.464   3.976   2.207  1.0977 -0.5559  0.0485
 1226SOL    MW4 4952   4.450   3.983   2.293 -0.1121 -0.4802 -0.1366
 1227SOL     OW 4953   4.478   4.227   2.395  0.2092  0.8311 -0.2248
 1227SOL    HW2 4954   4.494   4.250   2.487  0.4236 -1.2551  0.2708
 1227SOL    HW3 4955   4.536   4.286   2.346  0.0766  1.9769  0.9624
 1227SOL    MW4 4956   4.488   4.238   2.401  0.2198  0.7071 -0.0029
 1228SOL     OW 4957   0.204   4.417   2.322 -0.1868  0.4053 -0.0690
 1228SOL    HW2 4958   0.281   4.383   2.366  0.2106  1.0804 -0.2501
 1228SOL    HW3 4959   0.207   4.511   2.334 -0.2110  0.5783 -1.3055
 1228SOL    MW4 4960   0.214   4.425   2.329 -0.1376  0.5164 -0.2561
 1229SOL     OW 4961   0.678   0.030   2.388 -0.3754  0.1241  0.3500
 1229SOL    HW2 4962   0.671  -0.005   2.477 -1.7575 -2.1163 -0.6090
 1229SOL    HW3 4963   0.766   0.068   2.384 -0.3426  0.3708  2.6992
 1229SOL    MW4 4964   0.689   0.030   2.399 -0.5534 -0.1392  0.5333
 1230SOL     OW 4965   0.465   0.169   2.299  0.0549  0.2317  0.0652
 1230SOL    HW2 4966   0.534   0.112   2.332 -0.8133 -0.0975  1.3248
 1230SOL    HW3 4967   0.460   0.149   2.206  1.7042  0.3060 -0.0504
 1230SOL    MW4 4968   0.474   0.159   2.291  0.1579  0.1981  0.2162
 1231SOL     OW 4969   0.454   0.414   2.429 -0.1692  0.1953  0.1616
 1231SOL    HW2 4970   0.447   0.400   2.523  0.3350 -1.0769  0.0219
 1231SOL    HW3 4971   0.475   0.328   2.393  2.5690  1.1854 -0.7919
 1231SOL    MW4 4972   0.456   0.401   2.437  0.2586  0.1581  0.0174
 1232SOL     OW 4973   0.674   0.531   2.302 -0.4603 -0.1022 -0.0614
 1232SOL    HW2 4974   0.684   0.619   2.337  1.7547 -0.2051 -0.3855
 1232SOL    HW3 4975   0.588   0.502   2.333 -0.4489  1.4937  1.4964
 1232SOL    MW4 4976   0.664   0.539   2.310 -0.1665  0.0948  0.1013
 1233SOL     OW 4977   0.666   0.800   2.406  0.3804 -0.2798 -0.0688
 1233SOL    HW2 4978   0.648   0.770   2.495  1.6974 -0.3737  0.1797
 1233SOL    HW3 4979   0.582   0.830   2.373 -0.0870 -0.0893  1.2741
 1233SOL    MW4 4980   0.653   0.800   2.413  0.4925 -0.2670  0.1414
 1234SOL     OW 4981   0.434   0.883   2.324  0.4451 -0.1716  0.0901
 1234SOL    HW2 4982   0.346   0.851   2.345 -0.0454  0.5309 -0.8160
 1234SOL    HW3 4983   0.435   0.887   2.228  1.5761 -0.4877  0.0904
 1234SOL    MW4 4984   0.422   0.880   2.314  0.5296 -0.1206 -0.0298
 1235SOL     OW 4985   0.430   1.153   2.429  0.1038 -0.0171  0.0041
 1235SOL    HW2 4986   0.427   1.064   2.393 -1.1040 -0.2573  0.6897
 1235SOL    HW3 4987   0.353   1.196   2.393  0.4126  0.5977  0.0801
 1235SOL    MW4 4988   0.420   1.147   2.420 -0.0148  0.0323  0.1047
 1236SOL     OW 4989   0.642   1.314   2.327 -0.1849 -0.1029  0.5758
 1236SOL    HW2 4990   0.630   1.392   2.382  0.5464  0.5323 -0.1535
 1236SOL    HW3 4991   0.569   1.257   2.351 -1.5822  1.4312  0.0898
 1236SOL    MW4 4992   0.630   1.317   2.337 -0.2728  0.1833  0.4153
 1237SOL     OW 4993   0.624   1.536   2.478 -0.2792  0.1956 -0.0733
 1237SOL    HW2 4994   0.634   1.526   2.573  1.3396 -3.1123 -0.5173
 1237SOL    HW3 4995   0.706   1.578   2.450 -0.1141 -0.1750 -0.1574
 1237SOL    MW4 4996   0.636   1.540   2.487 -0.0439 -0.2898 -0.1428
 1238SOL     OW 4997   0.415   1.649   2.324 -0.2828 -0.1474 -0.2439
 1238SOL    HW2 4998   0.489   1.610   2.371  0.1217  0.5602 -0.2835
 1238SOL    HW3 4999   0.338   1.618   2.371  0.0078 -1.2658 -0.4756
 1238SOL    MW4 5000   0.415   1.640   2.336 -0.1911 -0.2016 -0.2797
 1239SOL     OW 5001   0.401   1.920   2.414 -0.0179 -0.2780 -0.7240
 1239SOL    HW2 5002   0.486   1.958   2.391  0.1946  0.9864  1.9933
 1239SOL    HW3 5003   0.414   1.826   2.405  2.1090 -0.1877  0.9933
 1239SOL    MW4 5004   0.414   1.913   2.410  0.2908 -0.0992 -0.1388
 1240SOL     OW 5005   0.641   2.039   2.317 -0.3097  0.8565  0.3130
 1240SOL    HW2 5006   0.718   2.004   2.361  0.0600  1.0058 -0.2210
 1240SOL    HW3 5007   0.633   2.128   2.350 -0.7121  0.5891  0.9610
 1240SOL    MW4 5008   0.650   2.046   2.328 -0.3141  0.8409  0.3281
 1241SOL     OW 5009   0.658   2.297   2.411 -0.1599  0.2472  0.1675
 1241SOL    HW2 5010   0.660   2.314   2.505 -1.7523  1.6133 -0.0238
 1241SOL    HW3 5011   0.730   2.351   2.376  0.4615 -0.2991  0.6052
 1241SOL    MW4 5012   0.668   2.306   2.419 -0.2880  0.3552  0.2000
 1242SOL     OW 5013   0.446   2.445   2.277 -0.1113 -0.1191 -0.0250
 1242SOL    HW2 5014   0.516   2.387   2.306 -0.3080  0.1805  1.0453
 1242SOL    HW3 5015   0.367   2.411   2.319 -0.7388 -0.8204 -1.7012
 1242SOL    MW4 5016   0.445   2.433   2.286 -0.2201 -0.1721 -0.1049
 1243SOL     OW 5017   0.446   2.706   2.387 -0.4711  0.2329 -0.2816
 1243SOL    HW2 5018   0.454   2.702   2.482  2.1287  0.4642 -0.4493
 1243SOL    HW3 5019   0.458   2.615   2.358  0.7413  0.4452 -0.4865
 1243SOL    MW4 5020   0.449   2.693   2.396  0.0319  0.2913 -0.3307
 1244SOL     OW 5021   0.657   2.870   2.306 -0.2900  0.0422 -0.4777
 1244SOL    HW2 5022   0.740   2.828   2.329 -0.0788 -0.0612 -1.3958
 1244SOL    HW3 5023   0.590   2.806   2.329 -0.1411  0.2937  0.6537
 1244SOL    MW4 5024   0.659   2.856   2.312 -0.2425  0.0620 -0.4494
 1245SOL     OW 5025   0.675   3.124   2.430  0.1120  0.2518  0.3723
 1245SOL    HW2 5026   0.607   3.187   2.406 -1.4007 -0.4232  2.7114
 1245SOL    HW3 5027   0.664   3.051   2.369 -1.2822  0.1358  0.7614
 1245SOL    MW4 5028   0.665   3.123   2.419 -0.2714  0.1471  0.7322
 1246SOL     OW 5029   0.463   3.275   2.286 -0.1451  0.0406  0.0885
 1246SOL    HW2 5030   0.384   3.230   2.313  0.0109  0.0116  0.5007
 1246SOL    HW3 5031   0.453   3.288   2.192  0.0173 -1.2578 -0.1154
 1246SOL    MW4 5032   0.452   3.271   2.277 -0.1031 -0.1347  0.1163
 1247SOL     OW 5033   0.441   3.515   2.427  0.5586  0.1742  0.3765
 1247SOL    HW2 5034   0.524   3.562   2.421 -0.0739  1.3107  0.4286
 1247SOL    HW3 5035   0.456   3.434   2.377  2.3347 -0.5750  2.0509
 1247SOL    MW4 5036   0.454   3.511   2.419  0.7095  0.2253  0.6046
 1248SOL     OW 5037   0.670   3.643   2.374  0.0783  0.3279  0.3568
 1248SOL    HW2 5038   0.690   3.733   2.401 -0.1952  0.1522  1.1705
 1248SOL    HW3 5039   0.653   3.650   2.280  0.4192  1.0657  0.3422
 1248SOL    MW4 5040   0.670   3.656   2.365  0.0872  0.4022  0.4623
 1249SOL     OW 5041   0.703   3.911   2.431  0.0089  0.0019 -1.0115
 1249SOL    HW2 5042   0.711   3.914   2.527  1.4062 -0.5012 -1.1011
 1249SOL    HW3 5043   0.612   3.936   2.414  0.1509  1.5613  0.3571
 1249SOL    MW4 5044   0.692   3.914   2.442  0.2120  0.1414 -0.8426
 1250SOL     OW 5045   0.452   3.997   2.346  0.9328  0.3189  0.3633
 1250SOL    HW2 5046   0.376   3.940   2.356  1.4224 -0.3525  0.2603
 1250SOL    HW3 5047   0.460   4.009   2.251  0.8927  0.4823  0.3797
 1250SOL    MW4 5048   0.443   3.991   2.335  0.9921  0.2520  0.3519
 1251SOL     OW 5049   0.463   4.287   2.429  0.4411  0.2311 -0.1142
 1251SOL    HW2 5050   0.536   4.325   2.380  1.2507 -1.1081  0.0437
 1251SOL    HW3 5051   0.458   4.197   2.399  0.0266 -0.2043  1.2199
 1251SOL    MW4 5052   0.472   4.280   2.419  0.4932 -0.0033  0.0827
 1252SOL     OW 5053   0.675   4.411   2.282 -0.1413  0.1658  0.4484
 1252SOL    HW2 5054   0.675   4.502   2.310 -0.1591  0.3595 -0.1613
 1252SOL    HW3 5055   0.674   4.416   2.186 -1.7865 -0.4716  0.4126
 1252SOL    MW4 5056   0.675   4.424   2.273 -0.3607  0.1078  0.3633
 1253SOL     OW 5057   1.119   4.634   2.361 -0.3842  0.5018  0.3382
 1253SOL    HW2 5058   1.133   4.635   2.455  3.1596  1.9251 -0.1366
 1253SOL    HW3 5059   1.058   4.706   2.344  0.3453  1.3634  1.3533
 1253SOL    MW4 5060   1.113   4.643   2.371  0.1795  0.8039  0.4096
 1254SOL     OW 5061   0.909   0.156   2.318  0.0175  0.5437 -0.5686
 1254SOL    HW2 5062   0.899   0.240   2.362  1.1831  0.6027 -0.3948
 1254SOL    HW3 5063   0.914   0.179   2.225 -0.3105  0.6043 -0.5733
 1254SOL    MW4 5064   0.908   0.170   2.311  0.1280  0.5595 -0.5462
 1255SOL     OW 5065   0.868   0.403   2.435  0.0321 -0.5697 -0.0060
 1255SOL    HW2 5066   0.941   0.442   2.386 -0.2965 -0.7200 -0.6225
 1255SOL    HW3 5067   0.791   0.450   2.405  0.0719  0.8509  1.9934
 1255SOL    MW4 5068   0.868   0.414   2.425 -0.0060 -0.4022  0.1764
 1256SOL     OW 5069   1.102   0.555   2.297 -0.0377 -0.2949 -0.1815
 1256SOL    HW2 5070   1.178   0.509   2.332  0.4568 -0.7899 -1.8500
 1256SOL    HW3 5071   1.121   0.567   2.204 -2.3196 -1.1462 -0.8130
 1256SOL    MW4 5072   1.114   0.550   2.290 -0.2737 -0.4725 -0.4849
 1257SOL     OW 5073   1.116   0.814   2.406  0.8188 -0.1106 -0.0254
 1257SOL    HW2 5074   1.048   0.875   2.377  1.1095  0.3275  0.2112
 1257SOL    HW3 5075   1.087   0.729   2.372  0.4452  0.1662 -0.4153
 1257SOL    MW4 5076   1.103   0.811   2.397  0.8078 -0.0162 -0.0458
 1258SOL     OW 5077   0.893   0.930   2.302  0.1478 -0.2370 -0.1717
 1258SOL    HW2 5078   0.886   1.024   2.323 -0.7907 -0.0409 -1.3014
 1258SOL    HW3 5079   0.807   0.895   2.324 -0.1161 -0.4608 -1.5389
 1258SOL    MW4 5080   0.881   0.938   2.308 -0.0108 -0.2407 -0.5012
 1259SOL     OW 5081   0.857   1.184   2.434 -0.2147  0.3673  0.2688
 1259SOL    HW2 5082   0.937   1.236   2.425  0.0963 -0.1546 -0.0136
 1259SOL    HW3 5083   0.790   1.235   2.389 -0.2744  1.2960  1.3704
 1259SOL    MW4 5084   0.859   1.198   2.427 -0.1816  0.4210  0.3769
 1260SOL     OW 5085   1.113   1.275   2.376 -0.0213  0.2044  0.1123
 1260SOL    HW2 5086   1.197   1.233   2.398 -0.2627 -0.5645 -0.4014
 1260SOL    HW3 5087   1.113   1.279   2.281 -0.0353  1.3334  0.1505
 1260SOL    MW4 5088   1.124   1.270   2.367 -0.0550  0.2519  0.0496
 1261SOL     OW 5089   1.106   1.563   2.381  0.1665  0.1734 -0.0443
 1261SOL    HW2 5090   1.019   1.597   2.358  0.2447 -0.6560 -1.6281
 1261SOL    HW3 5091   1.094   1.468   2.381  1.5547 -0.0362 -2.3537
 1261SOL    MW4 5092   1.093   1.555   2.378  0.3600  0.0364 -0.5579
 1262SOL     OW 5093   0.848   1.671   2.365  0.5883  0.0351 -0.5269
 1262SOL    HW2 5094   0.865   1.763   2.383 -1.6709  0.7066 -1.6940
 1262SOL    HW3 5095   0.825   1.668   2.272 -1.1368 -1.4158 -0.0867
 1262SOL    MW4 5096   0.847   1.683   2.355  0.0626 -0.0677 -0.6227
 1263SOL     OW 5097   0.893   1.929   2.424  0.1488  0.1455 -0.2201
 1263SOL    HW2 5098   0.911   1.933   2.518 -1.1101 -0.9486  0.0775
 1263SOL    HW3 5099   0.966   1.976   2.384  0.8800  0.3216  1.2821
 1263SOL    MW4 5100   0.905   1.935   2.431  0.0792  0.0243  0.0174
 1264SOL     OW 5101   1.100   2.055   2.311 -0.0531 -0.1448 -0.1436
 1264SOL    HW2 5102   1.182   2.015   2.339  0.1103  0.5406  0.3786
 1264SOL    HW3 5103   1.101   2.048   2.216  0.8571  0.3238 -0.1720
 1264SOL    MW4 5104   1.111   2.049   2.302  0.0886  0.0081 -0.0782
 1265SOL     OW 5105   1.088   2.320   2.413 -0.4824 -0.3679  0.3423
 1265SOL    HW2 5106   1.169   2.362   2.383 -0.2199 -0.2223  1.2531
 1265SOL    HW3 5107   1.085   2.237   2.365 -0.0193 -0.1745 -0.0255
 1265SOL    MW4 5108   1.099   2.315   2.403 -0.3866 -0.3231  0.4137
 1266SOL     OW 5109   0.874   2.465   2.301  0.2895  0.3593  0.2120
 1266SOL    HW2 5110   0.954   2.423   2.334  0.7805  0.0488 -1.3531
 1266SOL    HW3 5111   0.886   2.469   2.206 -0.8492  1.7894  0.1114
 1266SOL    MW4 5112   0.886   2.460   2.293  0.2041  0.5069 -0.0079
 1267SOL     OW 5113   0.891   2.727   2.390  0.2385 -0.1706 -0.0332
 1267SOL    HW2 5114   0.912   2.710   2.482  0.8899  0.0102 -0.1438
 1267SOL    HW3 5115   0.879   2.640   2.351 -1.2237 -0.2162  0.4835
 1267SOL    MW4 5116   0.892   2.713   2.397  0.1315 -0.1528  0.0205
 1268SOL     OW 5117   1.116   2.812   2.258  0.6488 -0.0886  0.0009
 1268SOL    HW2 5118   1.186   2.770   2.309 -1.0089 -1.0650  1.4912
 1268SOL    HW3 5119   1.035   2.784   2.300 -0.7223 -0.0310 -2.5094
 1268SOL    MW4 5120   1.115   2.803   2.270  0.2491 -0.2098 -0.1335
 1269SOL     OW 5121   1.145   3.074   2.399 -0.0900 -0.1519  0.3666
 1269SOL    HW2 5122   1.064   3.117   2.371  0.6621  0.1557 -1.4230
 1269SOL    HW3 5123   1.144   2.989   2.355  1.9210  1.0141 -2.0324
 1269SOL    MW4 5124   1.134   3.069   2.390  0.2745  0.0424 -0.1860
 1270SOL     OW 5125   0.905   3.201   2.296 -0.4573 -0.2271 -0.2261
 1270SOL    HW2 5126   0.920   3.293   2.318  0.7367 -0.3007 -0.7018
 1270SOL    HW3 5127   0.830   3.175   2.350 -0.3882  0.8404  0.3875
 1270SOL    MW4 5128   0.897   3.210   2.306 -0.2906 -0.0961 -0.2079
 1271SOL     OW 5129   0.878   3.468   2.414  0.0813  0.1027 -0.0307
 1271SOL    HW2 5130   0.874   3.458   2.509  1.1259 -0.3082 -0.0276
 1271SOL    HW3 5131   0.804   3.526   2.393 -0.8365 -0.7033  0.8961
 1271SOL    MW4 5132   0.867   3.475   2.423  0.0980 -0.0577  0.0920
 1272SOL     OW 5133   1.080   3.612   2.304  0.0193 -0.5019  0.0882
 1272SOL    HW2 5134   1.169   3.589   2.331  0.2386 -0.0170 -0.2105
 1272SOL    HW3 5135   1.023   3.556   2.357  0.4604  0.0193  1.1151
 1272SOL    MW4 5136   1.084   3.602   2.314  0.1065 -0.3691  0.1843
 1273SOL     OW 5137   1.116   3.871   2.376  0.3095 -0.3012 -0.3033
 1273SOL    HW2 5138   1.195   3.909   2.337  1.4906 -1.1444  1.2276
 1273SOL    HW3 5139   1.110   3.784   2.335 -0.7280  0.3568 -1.5891
 1273SOL    MW4 5140   1.126   3.864   2.365  0.3285 -0.3257 -0.2708
 1274SOL     OW 5141   0.895   4.036   2.309  0.8731  0.1015 -0.6652
 1274SOL    HW2 5142   0.969   3.979   2.330 -0.0599 -0.9847 -0.3089
 1274SOL    HW3 5143   0.819   3.992   2.346 -0.0544  0.8599 -1.6330
 1274SOL    MW4 5144   0.895   4.022   2.316  0.6276  0.0577 -0.7458
 1275SOL     OW 5145   0.881   4.289   2.423 -0.3109 -0.3378  0.3360
 1275SOL    HW2 5146   0.883   4.203   2.382 -1.5238 -0.3647  0.3191
 1275SOL    HW3 5147   0.816   4.338   2.372  0.2416  0.5344  0.4526
 1275SOL    MW4 5148   0.872   4.284   2.411 -0.3980 -0.2265  0.3493
 1276SOL     OW 5149   1.105   4.366   2.280 -0.2998 -0.0690  0.5243
 1276SOL    HW2 5150   1.023   4.343   2.322 -0.2502  1.1782  1.3440
 1276SOL    HW3 5151   1.111   4.461   2.290  0.6024  0.0182 -0.6827
 1276SOL    MW4 5152   1.095   4.376   2.286 -0.1742  0.1073  0.4733
 1277SOL     OW 5153   1.562   0.009   2.363  0.0023  0.4029 -0.1068
 1277SOL    HW2 5154   1.638   0.051   2.323 -0.0271  1.0424  0.4948
 1277SOL    HW3 5155   1.487   0.062   2.334 -0.0317  0.7915  0.6868
 1277SOL    MW4 5156   1.562   0.022   2.354 -0.0062  0.5386  0.0772
 1278SOL     OW 5157   1.330   0.134   2.239  0.4428 -0.2710 -0.5508
 1278SOL    HW2 5158   1.317   0.212   2.292  2.3067 -0.7280  0.6473
 1278SOL    HW3 5159   1.266   0.071   2.271 -0.1492  0.3131 -0.5903
 1278SOL    MW4 5160   1.320   0.136   2.250  0.6105 -0.2542 -0.3977
 1279SOL     OW 5161   1.322   0.381   2.384 -0.0060 -0.5706  0.7653
 1279SOL    HW2 5162   1.337   0.371   2.478 -0.7369 -1.1017  0.8330
 1279SOL    HW3 5163   1.407   0.407   2.348  0.3096 -0.5134  1.5512
 1279SOL    MW4 5164   1.335   0.383   2.392 -0.0607 -0.6332  0.8779
 1280SOL     OW 5165   1.575   0.480   2.326 -0.4133  0.2038  0.6236
 1280SOL    HW2 5166   1.652   0.428   2.348 -0.5725  0.0219  0.7514
 1280SOL    HW3 5167   1.573   0.482   2.231 -1.0712 -1.0067  0.6042
 1280SOL    MW4 5168   1.585   0.474   2.317 -0.5209  0.0201  0.6380
 1281SOL     OW 5169   1.586   0.772   2.397  0.3822 -0.3616  0.2730
 1281SOL    HW2 5170   1.667   0.811   2.365  0.1788  0.5446  0.8064
 1281SOL    HW3 5171   1.593   0.679   2.377  1.0710 -0.1086 -0.6665
 1281SOL    MW4 5172   1.598   0.765   2.390  0.4463 -0.2086  0.2196
 1282SOL     OW 5173   1.368   0.882   2.299  0.2738 -0.2014 -0.2808
 1282SOL    HW2 5174   1.447   0.844   2.338  0.8987 -0.0881 -1.4222
 1282SOL    HW3 5175   1.295   0.840   2.346  1.0052 -0.0437  1.0205
 1282SOL    MW4 5176   1.369   0.872   2.311  0.4526 -0.1656 -0.2596
 1283SOL     OW 5177   1.372   1.149   2.391  0.1864  0.1421 -0.1686
 1283SOL    HW2 5178   1.368   1.139   2.486  0.3063 -0.2323 -0.2016
 1283SOL    HW3 5179   1.361   1.060   2.357 -2.2169  0.5550 -0.5779
 1283SOL    MW4 5180   1.370   1.136   2.399 -0.1149  0.1473 -0.2270
 1284SOL     OW 5181   1.600   1.226   2.280  0.2465 -0.3653 -0.1743
 1284SOL    HW2 5182   1.522   1.194   2.325  0.6213  0.2044  0.8955
 1284SOL    HW3 5183   1.576   1.227   2.187 -0.5715 -1.4344  0.0276
 1284SOL    MW4 5184   1.587   1.222   2.273  0.1881 -0.4312 -0.0067
 1285SOL     OW 5185   1.574   1.502   2.355 -0.2363  0.2229 -0.0179
 1285SOL    HW2 5186   1.652   1.554   2.335 -0.6353  0.6006 -0.6328
 1285SOL    HW3 5187   1.603   1.411   2.349  0.3105  0.3647  0.4114
 1285SOL    MW4 5188   1.588   1.497   2.352 -0.2167  0.2916 -0.0424
 1286SOL     OW 5189   1.356   1.684   2.293  0.2551  0.3462  0.2938
 1286SOL    HW2 5190   1.435   1.632   2.307  0.3256  0.2346 -0.4977
 1286SOL    HW3 5191   1.284   1.628   2.323  0.2960 -0.3652 -0.8761
 1286SOL    MW4 5192   1.357   1.670   2.299  0.2699  0.2375  0.0348
 1287SOL     OW 5193   1.310   1.916   2.397 -0.2105  0.0786 -0.0286
 1287SOL    HW2 5194   1.386   1.954   2.352  0.2647 -0.5251  0.2463
 1287SOL    HW3 5195   1.304   1.827   2.362 -0.4353 -0.0672  0.3844
 1287SOL    MW4 5196   1.319   1.909   2.386 -0.1773 -0.0204  0.0620
 1288SOL     OW 5197   1.559   2.053   2.287 -0.2052  0.0735 -0.2742
 1288SOL    HW2 5198   1.641   2.012   2.313  0.0784  0.3408 -0.7374
 1288SOL    HW3 5199   1.564   2.058   2.191 -1.2747 -0.9964 -0.4089
 1288SOL    MW4 5200   1.570   2.048   2.278 -0.3089 -0.0327 -0.3533
 1289SOL     OW 5201   1.559   2.303   2.408  0.0792  0.4972 -0.0102
 1289SOL    HW2 5202   1.578   2.280   2.499  0.0771 -0.4477 -0.2481
 1289SOL    HW3 5203   1.565   2.221   2.361 -0.8834  0.8254 -0.7112
 1289SOL    MW4 5204   1.562   2.289   2.414 -0.0479  0.4160 -0.1342
 1290SOL     OW 5205   1.322   2.443   2.314 -0.0763 -0.2383 -0.1085
 1290SOL    HW2 5206   1.402   2.399   2.344  1.1289  1.3218 -0.9634
 1290SOL    HW3 5207   1.323   2.431   2.219 -1.5075 -1.2412 -0.0112
 1290SOL    MW4 5208   1.333   2.436   2.306 -0.1061 -0.1647 -0.2084
 1291SOL     OW 5209   1.313   2.694   2.431 -0.1066 -0.2636 -0.3919
 1291SOL    HW2 5210   1.393   2.722   2.387  0.7323 -1.5221  0.3190
 1291SOL    HW3 5211   1.302   2.602   2.405 -0.6770 -0.4424  0.4467
 1291SOL    MW4 5212   1.322   2.685   2.421 -0.0712 -0.4532 -0.1872
 1292SOL     OW 5213   1.521   2.814   2.295  0.3744  0.3606 -0.3770
 1292SOL    HW2 5214   1.516   2.903   2.328  0.0335  0.1976  0.0122
 1292SOL    HW3 5215   1.538   2.824   2.202 -3.3548  0.8986 -1.0669
 1292SOL    MW4 5216   1.523   2.827   2.287 -0.1626  0.4101 -0.4163
 1293SOL     OW 5217   1.563   3.084   2.355  0.0202 -0.7386  0.2414
 1293SOL    HW2 5218   1.565   3.099   2.450  2.1833  0.4377  0.0383
 1293SOL    HW3 5219   1.503   3.150   2.322 -0.2080 -0.7062  0.7150
 1293SOL    MW4 5220   1.555   3.095   2.363  0.2755 -0.5791  0.2770
 1294SOL     OW 5221   1.338   3.247   2.300  0.3395  0.3792 -0.4862
 1294SOL    HW2 5222   1.264   3.201   2.340 -0.1592  0.8801 -0.8296
 1294SOL    HW3 5223   1.327   3.235   2.206  1.1536 -0.2424 -0.5034
 1294SOL    MW4 5224   1.327   3.239   2.293  0.3811  0.3631 -0.5338
 1295SOL     OW 5225   1.340   3.519   2.378  0.0389 -0.0468 -0.2604
 1295SOL    HW2 5226   1.329   3.524   2.473 -1.7574  3.6953 -0.5850
 1295SOL    HW3 5227   1.324   3.427   2.356 -1.7791 -0.4996  2.7902
 1295SOL    MW4 5228   1.336   3.508   2.387 -0.4381  0.3870  0.0992
 1296SOL     OW 5229   1.595   3.601   2.279 -0.0331 -0.0185 -0.1203
 1296SOL    HW2 5230   1.587   3.694   2.301 -0.0692 -0.5023  2.0544
 1296SOL    HW3 5231   1.517   3.561   2.319 -0.2338 -0.9308 -1.3969
 1296SOL    MW4 5232   1.583   3.608   2.287 -0.0643 -0.2027 -0.0014
 1297SOL     OW 5233   1.568   3.880   2.387  0.1643 -0.1526 -0.4783
 1297SOL    HW2 5234   1.567   3.907   2.479 -1.7243  0.3908 -0.6201
 1297SOL    HW3 5235   1.639   3.930   2.348 -0.9886  1.9721  0.0409
 1297SOL    MW4 5236   1.577   3.890   2.394 -0.2370  0.1996 -0.4284
 1298SOL     OW 5237   1.355   4.004   2.290  0.4581 -0.5715 -0.0759
 1298SOL    HW2 5238   1.432   3.960   2.326  1.8559  1.6293 -0.2659
 1298SOL    HW3 5239   1.366   3.998   2.195  1.3241  1.2856 -0.1031
 1298SOL    MW4 5240   1.366   3.997   2.282  0.7567 -0.0358 -0.1044
 1299SOL     OW 5241   1.341   4.283   2.383  0.0193  0.0601 -0.1097
 1299SOL    HW2 5242   1.343   4.196   2.345 -1.1272  0.5248 -1.2707
 1299SOL    HW3 5243   1.250   4.311   2.374  0.4618  1.5293 -0.1287
 1299SOL    MW4 5244   1.329   4.275   2.377 -0.0737  0.3157 -0.2649
 1300SOL     OW 5245   1.571   4.380   2.289 -0.0090 -0.7831  0.3149
 1300SOL    HW2 5246   1.494   4.335   2.325 -0.6058 -1.1680 -1.3715
 1300SOL    HW3 5247   1.562   4.470   2.318 -2.1326 -0.4016 -1.4574
 1300SOL    MW4 5248   1.560   4.386   2.298 -0.3680 -0.7834 -0.1416
 1301SOL     OW 5249   2.025   4.662   2.324 -0.2515  0.0510 -0.7036
 1301SOL    HW2 5250   2.105   4.706   2.297 -0.7353  0.5262 -1.3920
 1301SOL    HW3 5251   2.038   4.571   2.298  0.1456  0.0839 -0.6238
 1301SOL    MW4 5252   2.037   4.656   2.317 -0.2630  0.1179 -0.7837
 1302SOL     OW 5253   1.788   0.112   2.245  0.9326  0.1327  0.1276
 1302SOL    HW2 5254   1.798   0.198   2.286 -0.9979 -0.4297  1.8065
 1302SOL    HW3 5255   1.874   0.070   2.256  2.3409  2.3378 -1.9572
 1302SOL    MW4 5256   1.801   0.118   2.252  0.8637  0.3494  0.0739
 1303SOL     OW 5257   1.823   0.369   2.361  0.4497  0.1079 -0.2372
 1303SOL    HW2 5258   1.855   0.385   2.450 -0.0855  0.6253 -0.1341
 1303SOL    HW3 5259   1.882   0.419   2.305  1.1808 -0.7435 -0.2212
 1303SOL    MW4 5260   1.835   0.378   2.365  0.4755  0.0638 -0.2215
 1304SOL     OW 5261   2.035   0.517   2.259 -0.6674  0.0224  0.4046
 1304SOL    HW2 5262   2.027   0.605   2.294 -0.9158  0.6148 -1.1413
 1304SOL    HW3 5263   2.032   0.527   2.164 -0.0251 -1.5724  0.1839
 1304SOL    MW4 5264   2.034   0.530   2.251 -0.6151 -0.1099  0.1717
 1305SOL     OW 5265   2.058   0.747   2.391 -0.4227  0.4368 -0.0959
 1305SOL    HW2 5266   2.137   0.779   2.347 -0.2913  0.5584  0.2245
 1305SOL    HW3 5267   1.990   0.809   2.365 -0.6665 -0.3087 -1.2726
 1305SOL    MW4 5268   2.060   0.760   2.382 -0.4375  0.3545 -0.2089
 1306SOL     OW 5269   1.834   0.873   2.293 -0.2852 -0.3059 -0.1051
 1306SOL    HW2 5270   1.830   0.953   2.345 -0.2396 -0.7790  0.6324
 1306SOL    HW3 5271   1.817   0.902   2.203 -0.1082  0.5505  0.1339
 1306SOL    MW4 5272   1.831   0.887   2.288 -0.2558 -0.2555  0.0238
 1307SOL     OW 5273   1.812   1.114   2.407 -0.5706 -0.0861  0.6884
 1307SOL    HW2 5274   1.891   1.164   2.387 -1.1753  0.6161 -0.0291
 1307SOL    HW3 5275   1.745   1.151   2.348 -0.6475 -2.8350 -1.0471
 1307SOL    MW4 5276   1.813   1.126   2.397 -0.6605 -0.3562  0.3645
 1308SOL     OW 5277   2.029   1.251   2.325 -0.2742  0.3028  0.1001
 1308SOL    HW2 5278   2.012   1.336   2.364  0.4619  0.0171  1.0514
 1308SOL    HW3 5279   2.024   1.267   2.231  2.1271  1.9046  0.1933
 1308SOL    MW4 5280   2.026   1.264   2.318  0.1400  0.4764  0.2382
 1309SOL     OW 5281   1.973   1.517   2.403 -0.4568  0.1009 -0.1751
 1309SOL    HW2 5282   1.988   1.546   2.493 -0.9167  0.1662 -0.1186
 1309SOL    HW3 5283   1.903   1.573   2.371 -0.8866 -0.4896 -0.2884
 1309SOL    MW4 5284   1.966   1.528   2.411 -0.5742  0.0316 -0.1824
 1310SOL     OW 5285   1.784   1.668   2.283  0.0490 -0.5265 -0.0939
 1310SOL    HW2 5286   1.778   1.763   2.290  0.9554 -0.4890  0.2248
 1310SOL    HW3 5287   1.790   1.651   2.189 -2.0051 -0.3943 -0.2589
 1310SOL    MW4 5288   1.784   1.678   2.271 -0.1024 -0.5040 -0.0734
 1311SOL     OW 5289   1.794   1.938   2.345  0.1656  0.0729 -0.7604
 1311SOL    HW2 5290   1.801   1.950   2.440 -0.7904 -0.3133 -0.6355
 1311SOL    HW3 5291   1.868   1.987   2.309 -0.4128  1.6009  0.0893
 1311SOL    MW4 5292   1.804   1.946   2.353 -0.0370  0.2236 -0.6318
 1312SOL     OW 5293   2.000   2.102   2.265 -0.2990 -0.2998 -0.0359
 1312SOL    HW2 5294   2.072   2.044   2.289  0.1601  0.5580  0.7194
 1312SOL    HW3 5295   2.003   2.106   2.169  1.0933  0.2430  0.0164
 1312SOL    MW4 5296   2.010   2.095   2.256 -0.0548 -0.1152  0.0706
 1313SOL     OW 5297   2.019   2.337   2.393 -0.0384 -0.0469  0.2783
 1313SOL    HW2 5298   2.088   2.387   2.350 -0.0839  0.1713  0.4600
 1313SOL    HW3 5299   2.020   2.252   2.348 -0.2740  0.2750 -0.3358
 1313SOL    MW4 5300   2.028   2.332   2.382 -0.0753  0.0241  0.2213
 1314SOL     OW 5301   1.769   2.425   2.251 -0.3222  0.1643 -0.6986
 1314SOL    HW2 5302   1.846   2.388   2.294 -1.4198  0.6614  1.8105
 1314SOL    HW3 5303   1.695   2.391   2.301 -1.6673  0.8682 -2.1462
 1314SOL    MW4 5304   1.769   2.416   2.263 -0.6446  0.3231 -0.5584
 1315SOL     OW 5305   1.769   2.696   2.361 -0.0267  0.5448 -0.7350
 1315SOL    HW2 5306   1.779   2.606   2.330 -0.4617 -0.1875  1.2147
 1315SOL    HW3 5307   1.679   2.720   2.335 -0.7720 -0.4432  0.8553
 1315SOL    MW4 5308   1.758   2.687   2.353 -0.1824  0.3178 -0.2682
 1316SOL     OW 5309   2.007   2.799   2.251  0.5398  0.2992 -0.2102
 1316SOL    HW2 5310   2.085   2.752   2.281  0.4927 -0.0978 -0.7192
 1316SOL    HW3 5311   1.935   2.758   2.298  0.2928 -1.2909 -1.9366
 1316SOL    MW4 5312   2.008   2.788   2.261  0.5012  0.0367 -0.5052
 1317SOL     OW 5313   2.002   3.047   2.381  0.1131  0.2063  0.4494
 1317SOL    HW2 5314   2.079   3.093   2.347  0.4466  0.8820  2.0749
 1317SOL    HW3 5315   2.003   2.963   2.336  2.7205 -0.4243  1.5557
 1317SOL    MW4 5316   2.012   3.042   2.371  0.5009  0.2124  0.8097
 1318SOL     OW 5317   1.811   3.217   2.301 -0.0406  0.2135  0.2733
 1318SOL    HW2 5318   1.880   3.163   2.338 -0.9654 -0.5956  0.8510
 1318SOL    HW3 5319   1.733   3.162   2.305 -0.3643  0.4331 -2.0301
 1318SOL    MW4 5320   1.810   3.202   2.306 -0.2053  0.1361  0.0453
 1319SOL     OW 5321   1.776   3.458   2.431  0.1990 -0.3539 -0.1175
 1319SOL    HW2 5322   1.779   3.368   2.396 -0.2801  0.1240 -1.4186
 1319SOL    HW3 5323   1.712   3.503   2.376 -0.8564  0.3337  1.6417
 1319SOL    MW4 5324   1.768   3.452   2.419 -0.0036 -0.1998 -0.0572
 1320SOL     OW 5325   2.011   3.572   2.326  0.0177 -0.3975 -0.6002
 1320SOL    HW2 5326   1.934   3.526   2.359 -2.1227  1.2243 -3.1655
 1320SOL    HW3 5327   2.007   3.561   2.231  0.5218  3.3414 -1.1285
 1320SOL    MW4 5328   2.000   3.565   2.318 -0.1981  0.3099 -1.0083
 1321SOL     OW 5329   1.972   3.835   2.402 -0.0125  0.0407  0.0304
 1321SOL    HW2 5330   1.998   3.827   2.494 -0.1288  0.9272  0.1439
 1321SOL    HW3 5331   1.975   3.746   2.368  1.8415 -0.0634  0.4055
 1321SOL    MW4 5332   1.976   3.822   2.410  0.2167  0.1438  0.0951
 1322SOL     OW 5333   1.789   4.008   2.297  0.4728 -0.6900  0.1224
 1322SOL    HW2 5334   1.850   3.944   2.334  1.5222 -0.0309 -0.4111
 1322SOL    HW3 5335   1.814   4.013   2.205 -0.1669 -0.1473 -0.0223
 1322SOL    MW4 5336   1.801   4.000   2.290  0.5270 -0.5317  0.0329
 1323SOL     OW 5337   1.828   4.280   2.399 -0.3141 -0.6517  0.1311
 1323SOL    HW2 5338   1.822   4.188   2.374  0.0699 -0.8837  0.8747
 1323SOL    HW3 5339   1.754   4.322   2.356 -1.3780 -1.5866  1.0374
 1323SOL    MW4 5340   1.818   4.273   2.390 -0.4038 -0.8059  0.3490
 1324SOL     OW 5341   2.059   4.396   2.295 -0.2691  0.1220 -0.4638
 1324SOL    HW2 5342   1.981   4.356   2.334 -0.6452  0.9944 -0.3094
 1324SOL    HW3 5343   2.050   4.379   2.201 -0.9059  0.6633 -0.5036
 1324SOL    MW4 5344   2.047   4.388   2.288 -0.4029  0.3085 -0.4489
 1325SOL     OW 5345   2.479   4.661   2.383  0.6417 -0.3457  0.5422
 1325SOL    HW2 5346   2.550   4.703   2.336 -0.6836  0.9029 -0.4034
 1325SOL    HW3 5347   2.482   4.569   2.355  1.0808 -0.0283 -0.4566
 1325SOL    MW4 5348   2.489   4.654   2.373  0.5248 -0.1388  0.2856
 1326SOL     OW 5349   2.258   0.122   2.273 -0.0777 -0.1114 -0.1609
 1326SOL    HW2 5350   2.270   0.214   2.297 -0.3281  0.3005 -1.6126
 1326SOL    HW3 5351   2.334   0.078   2.312 -0.0467  0.6703  0.6846
 1326SOL    MW4 5352   2.270   0.129   2.282 -0.1066  0.0460 -0.2410
 1327SOL     OW 5353   2.265   0.392   2.354  0.1479  0.0874  0.1712
 1327SOL    HW2 5354   2.335   0.451   2.325 -0.2604  0.7838  0.5730
 1327SOL    HW3 5355   2.186   0.428   2.315 -0.3555  0.8232  1.7985
 1327SOL    MW4 5356   2.264   0.405   2.345  0.0277  0.2764  0.4387
 1328SOL     OW 5357   2.487   0.542   2.251 -0.0516  0.3564 -0.5962
 1328SOL    HW2 5358   2.553   0.492   2.300 -0.4570  2.0991  1.7983
 1328SOL    HW3 5359   2.517   0.538   2.160  3.1775  0.7960  0.3839
 1328SOL    MW4 5360   2.500   0.535   2.245  0.3209  0.6443 -0.1509
 1329SOL     OW 5361   2.498   0.762   2.408 -0.0052 -0.3545  0.3367
 1329SOL    HW2 5362   2.572   0.811   2.372  0.0144 -0.6879 -0.0803
 1329SOL    HW3 5363   2.496   0.681   2.357 -0.7339 -0.2906  0.2613
 1329SOL    MW4 5364   2.507   0.758   2.397 -0.0987 -0.3901  0.2718
 1330SOL     OW 5365   2.280   0.866   2.284 -0.3271 -0.4525  0.0484
 1330SOL    HW2 5366   2.272   0.944   2.338  0.1986 -0.2585 -0.1506
 1330SOL    HW3 5367   2.359   0.822   2.317 -0.5117 -0.7954  0.0334
 1330SOL    MW4 5368   2.290   0.870   2.295 -0.2820 -0.4721  0.0200
 1331SOL     OW 5369   2.253   1.116   2.417 -0.2461 -0.1456 -0.0140
 1331SOL    HW2 5370   2.321   1.181   2.399 -0.1309 -0.6727 -1.6287
 1331SOL    HW3 5371   2.176   1.147   2.369 -0.3997 -0.8391 -0.2210
 1331SOL    MW4 5372   2.252   1.129   2.408 -0.2511 -0.3067 -0.2539
 1332SOL     OW 5373   2.448   1.295   2.320  0.3245 -0.3194 -0.6312
 1332SOL    HW2 5374   2.517   1.243   2.361 -1.6989 -1.8960  0.8785
 1332SOL    HW3 5375   2.450   1.379   2.365 -1.1962 -1.6794  2.0697
 1332SOL    MW4 5376   2.457   1.299   2.331 -0.1433 -0.7069 -0.0758
 1333SOL     OW 5377   2.428   1.560   2.413 -0.1884  0.0669 -0.4953
 1333SOL    HW2 5378   2.427   1.559   2.509 -0.3924 -0.9928 -0.5002
 1333SOL    HW3 5379   2.508   1.608   2.391 -0.4420  0.8225  0.2032
 1333SOL    MW4 5380   2.439   1.566   2.423 -0.2489  0.0267 -0.4036
 1334SOL     OW 5381   2.179   1.664   2.300 -0.8743 -0.2209  0.0851
 1334SOL    HW2 5382   2.247   1.609   2.339 -0.4112  0.4656  0.2429
 1334SOL    HW3 5383   2.097   1.626   2.331 -0.5661 -1.0235 -0.0686
 1334SOL    MW4 5384   2.177   1.652   2.309 -0.7727 -0.2362  0.0858
 1335SOL     OW 5385   2.183   1.938   2.374  0.0221  0.4944 -0.6659
 1335SOL    HW2 5386   2.265   1.981   2.351  1.5590 -1.4319  1.0263
 1335SOL    HW3 5387   2.193   1.848   2.344 -0.8084 -0.1809  1.0053
 1335SOL    MW4 5388   2.195   1.932   2.367  0.1154  0.1513 -0.2222
 1336SOL     OW 5389   2.418   2.049   2.297  0.3294 -0.1549 -0.0650
 1336SOL    HW2 5390   2.495   2.007   2.335  0.8571  0.7246 -0.1336
 1336SOL    HW3 5391   2.434   2.048   2.202  0.2007 -0.0804 -0.0883
 1336SOL    MW4 5392   2.430   2.044   2.289  0.3822 -0.0291 -0.0770
 1337SOL     OW 5393   2.447   2.302   2.399 -0.4228  0.3353  0.5404
 1337SOL    HW2 5394   2.518   2.347   2.352 -0.2154 -1.1524 -0.6327
 1337SOL    HW3 5395   2.440   2.217   2.355 -1.0503 -0.6373  2.4678
 1337SOL    MW4 5396   2.456   2.296   2.387 -0.4783  0.0105  0.6402
 1338SOL     OW 5397   2.257   2.463   2.267  0.0221 -0.0760  0.4574
 1338SOL    HW2 5398   2.257   2.545   2.316  0.9138  1.0267 -1.3383
 1338SOL    HW3 5399   2.311   2.404   2.319 -1.4480  0.1401  2.2794
 1338SOL    MW4 5400   2.264   2.466   2.281 -0.0544  0.0980  0.4606
 1339SOL     OW 5401   2.223   2.700   2.394  0.1445 -0.2857 -0.3747
 1339SOL    HW2 5402   2.225   2.711   2.490 -0.1780 -0.1276 -0.3884
 1339SOL    HW3 5403   2.298   2.750   2.363 -0.7890  1.1381 -0.3579
 1339SOL    MW4 5404   2.233   2.708   2.403 -0.0212 -0.0770 -0.3741
 1340SOL     OW 5405   2.464   2.787   2.294  0.0343 -0.2388 -0.1390
 1340SOL    HW2 5406   2.544   2.749   2.331  1.6242  1.5724 -1.6199
 1340SOL    HW3 5407   2.474   2.778   2.200 -1.2893  0.4370 -0.3595
 1340SOL    MW4 5408   2.476   2.781   2.287  0.0696  0.0892 -0.3633
 1341SOL     OW 5409   2.438   3.060   2.392  0.1973  0.0527  0.1015
 1341SOL    HW2 5410   2.507   3.116   2.356 -0.6561  0.9454 -0.1371
 1341SOL    HW3 5411   2.451   2.976   2.347  0.6124  0.4572 -0.5528
 1341SOL    MW4 5412   2.449   3.056   2.381  0.1395  0.2239 -0.0165
 1342SOL     OW 5413   2.216   3.172   2.288  0.4835 -0.0262 -0.0677
 1342SOL    HW2 5414   2.214   3.250   2.342  0.3782 -0.3367  0.3825
 1342SOL    HW3 5415   2.277   3.113   2.332 -1.0713 -1.0436  0.7871
 1342SOL    MW4 5416   2.223   3.174   2.301  0.2644 -0.2015  0.1044
 1343SOL     OW 5417   2.230   3.429   2.428 -0.0230 -0.1999 -0.1797
 1343SOL    HW2 5418   2.254   3.429   2.521 -0.0879 -0.0502 -0.1632
 1343SOL    HW3 5419   2.155   3.488   2.423  0.8139  0.8367 -0.5468
 1343SOL    MW4 5420   2.223   3.437   2.440  0.0789 -0.0432 -0.2260
 1344SOL     OW 5421   2.450   3.591   2.301 -0.0847  0.2600  0.4201
 1344SOL    HW2 5422   2.423   3.676   2.337 -0.7600 -0.0539  0.6639
 1344SOL    HW3 5423   2.381   3.531   2.328  0.3766 -0.3635  0.2179
 1344SOL    MW4 5424   2.437   3.595   2.309 -0.1132  0.1361  0.4256
 1345SOL     OW 5425   2.434   3.878   2.390 -0.3885  0.2004 -0.1676
 1345SOL    HW2 5426   2.427   3.888   2.485  0.8403 -0.9882  0.0728
 1345SOL    HW3 5427   2.353   3.915   2.356 -0.4588  1.4639  1.2825
 1345SOL    MW4 5428   2.423   3.884   2.398 -0.2356  0.2103  0.0553
 1346SOL     OW 5429   2.198   3.984   2.301 -0.0346 -0.3156  0.1816
 1346SOL    HW2 5430   2.211   4.068   2.344  1.1519 -0.2978 -0.1929
 1346SOL    HW3 5431   2.108   3.959   2.322 -0.0630  0.5754  1.1090
 1346SOL    MW4 5432   2.187   3.992   2.309  0.1183 -0.1957  0.2544
 1347SOL     OW 5433   2.245   4.234   2.397  0.4353  0.6503  0.1880
 1347SOL    HW2 5434   2.250   4.247   2.492 -1.7505 -0.8078  0.5375
 1347SOL    HW3 5435   2.177   4.295   2.368  0.2804  0.2720 -0.2576
 1347SOL    MW4 5436   2.237   4.244   2.406  0.1264  0.4082  0.1752
 1348SOL     OW 5437   2.480   4.394   2.293 -1.6028 -0.1504  0.2478
 1348SOL    HW2 5438   2.557   4.357   2.336 -0.9438 -0.0967 -0.8919
 1348SOL    HW3 5439   2.410   4.330   2.310 -1.3804 -0.0847  1.4823
 1348SOL    MW4 5440   2.481   4.381   2.301 -1.4865 -0.1345  0.2604
 1349SOL     OW 5441   2.916   4.648   2.386  0.0883  0.4873 -0.0150
 1349SOL    HW2 5442   2.995   4.693   2.356  0.7678 -0.4021  0.4379
 1349SOL    HW3 5443   2.920   4.562   2.346 -0.3462  0.2263  0.5008
 1349SOL    MW4 5444   2.927   4.643   2.377  0.1209  0.3355  0.1128
 1350SOL     OW 5445   2.682   0.129   2.251  0.1228  0.4968  0.2376
 1350SOL    HW2 5446   2.682   0.220   2.279  0.5440  0.1742  1.2795
 1350SOL    HW3 5447   2.764   0.093   2.284 -0.3948 -0.4629  0.4985
 1350SOL    MW4 5448   2.693   0.136   2.259  0.1097  0.3276  0.4094
 1351SOL     OW 5449   2.695   0.377   2.364  0.2994  0.0719 -0.6433
 1351SOL    HW2 5450   2.691   0.360   2.458 -1.3280 -1.1381 -0.9172
 1351SOL    HW3 5451   2.772   0.433   2.353 -0.6544  1.9137  1.6567
 1351SOL    MW4 5452   2.705   0.382   2.375 -0.0410  0.1552 -0.3762
 1352SOL     OW 5453   2.930   0.505   2.323 -0.0008 -0.0458 -0.0894
 1352SOL    HW2 5454   2.922   0.594   2.356 -0.7563  0.5271 -1.7459
 1352SOL    HW3 5455   2.932   0.515   2.227  0.1152 -1.7771 -0.2869
 1352SOL    MW4 5456   2.929   0.518   2.314 -0.0854 -0.1987 -0.3340
 1353SOL     OW 5457   2.926   0.797   2.391 -0.0880 -0.0462  0.3633
 1353SOL    HW2 5458   2.904   0.812   2.483 -1.7703 -0.9142  0.1068
 1353SOL    HW3 5459   2.853   0.834   2.342  1.6700  2.1179 -0.7271
 1353SOL    MW4 5460   2.914   0.804   2.396 -0.0780  0.1248  0.1857
 1354SOL     OW 5461   2.696   0.909   2.281 -0.0749  0.0895  0.0066
 1354SOL    HW2 5462   2.673   0.996   2.312 -0.6348 -0.1861  0.3753
 1354SOL    HW3 5463   2.683   0.912   2.187  3.1476  1.4093 -0.4558
 1354SOL    MW4 5464   2.691   0.921   2.273  0.2763  0.2273 -0.0057
 1355SOL     OW 5465   2.654   1.150   2.417  0.1164  0.0945  0.0118
 1355SOL    HW2 5466   2.659   1.134   2.511 -0.2962 -2.3605 -0.3377
 1355SOL    HW3 5467   2.727   1.209   2.399  1.1121 -0.5795  1.6634
 1355SOL    MW4 5468   2.665   1.156   2.427  0.1934 -0.3183  0.1836
 1356SOL     OW 5469   2.888   1.262   2.309 -0.2709 -0.1224 -0.4541
 1356SOL    HW2 5470   2.965   1.216   2.342  0.6123  0.9401 -1.0065
 1356SOL    HW3 5471   2.893   1.252   2.214 -0.8314 -0.0523 -0.4969
 1356SOL    MW4 5472   2.899   1.255   2.301 -0.2284  0.0269 -0.5322
 1357SOL     OW 5473   2.898   1.525   2.383  0.3009 -0.5930 -0.1080
 1357SOL    HW2 5474   2.904   1.513   2.477 -0.7606 -1.3783 -0.1372
 1357SOL    HW3 5475   2.908   1.437   2.347 -0.7192 -0.4858 -0.6610
 1357SOL    MW4 5476   2.900   1.512   2.390  0.0265 -0.6826 -0.1848
 1358SOL     OW 5477   2.675   1.691   2.334  0.0412 -0.3700 -0.4833
 1358SOL    HW2 5478   2.753   1.645   2.366 -0.3748 -1.2306 -0.6924
 1358SOL    HW3 5479   2.689   1.698   2.239  0.8745  1.4157 -0.2398
 1358SOL    MW4 5480   2.687   1.686   2.325  0.0963 -0.2480 -0.4790
 1359SOL     OW 5481   2.674   1.947   2.411 -0.1178  0.2786 -0.1879
 1359SOL    HW2 5482   2.665   1.963   2.505  2.0522 -0.2192  0.1302
 1359SOL    HW3 5483   2.670   1.852   2.402 -2.7443  0.4102 -0.9150
 1359SOL    MW4 5484   2.672   1.937   2.422 -0.1779  0.2302 -0.2418
 1360SOL     OW 5485   2.896   2.062   2.313 -0.2642 -0.0369 -0.2969
 1360SOL    HW2 5486   2.968   2.003   2.334  0.3355  0.5823 -0.5850
 1360SOL    HW3 5487   2.818   2.017   2.343  0.2733 -0.6024  0.2535
 1360SOL    MW4 5488   2.896   2.048   2.319 -0.1140 -0.0298 -0.2623
 1361SOL     OW 5489   2.851   2.323   2.414  0.0522 -0.1822 -0.4407
 1361SOL    HW2 5490   2.851   2.328   2.510  1.9237  1.1544 -0.4643
 1361SOL    HW3 5491   2.867   2.231   2.395  0.4408 -0.3330  0.5622
 1361SOL    MW4 5492   2.853   2.312   2.424  0.3505 -0.0257 -0.3114
 1362SOL     OW 5493   2.652   2.459   2.261  0.0548 -0.4350 -0.0883
 1362SOL    HW2 5494   2.715   2.404   2.307  0.9161 -0.4959 -1.3280
 1362SOL    HW3 5495   2.686   2.465   2.172 -1.1677  0.3510 -0.5078
 1362SOL    MW4 5496   2.665   2.453   2.255  0.0072 -0.3393 -0.3073
 1363SOL     OW 5497   2.689   2.675   2.422 -0.4018 -0.0175 -0.3239
 1363SOL    HW2 5498   2.762   2.722   2.382 -1.1656  0.8668 -0.6774
 1363SOL    HW3 5499   2.673   2.601   2.363 -1.2623  1.0537 -1.4549
 1363SOL    MW4 5500   2.697   2.671   2.409 -0.6161  0.2408 -0.5200
 1364SOL     OW 5501   2.888   2.829   2.316 -0.4046 -0.4050  0.1629
 1364SOL    HW2 5502   2.904   2.919   2.344 -1.9573  0.0250 -0.2564
 1364SOL    HW3 5503   2.898   2.831   2.221  1.1956 -1.0522  0.3038
 1364SOL    MW4 5504   2.891   2.841   2.307 -0.3984 -0.4337  0.1264
 1365SOL     OW 5505   2.875   3.095   2.380  0.3110  0.0058  0.3041
 1365SOL    HW2 5506   2.948   3.132   2.330  0.2336 -0.4634 -0.1521
 1365SOL    HW3 5507   2.797   3.137   2.344  0.3405  0.4502  0.7407
 1365SOL    MW4 5508   2.874   3.106   2.369  0.3047  0.0024  0.3016
 1366SOL     OW 5509   2.598   3.243   2.284 -0.6124  0.1699 -0.3907
 1366SOL    HW2 5510   2.610   3.333   2.315  0.2233 -0.0102 -0.1931
 1366SOL    HW3 5511   2.630   3.244   2.194  0.5697 -0.2264  0.0214
 1366SOL    MW4 5512   2.604   3.255   2.276 -0.3459  0.0942 -0.3099
 1367SOL     OW 5513   2.668   3.487   2.428 -0.2911 -0.0073  0.4732
 1367SOL    HW2 5514   2.737   3.522   2.371 -0.7147  2.3659  1.3623
 1367SOL    HW3 5515   2.592   3.542   2.410 -0.7065  0.1466  2.6240
 1367SOL    MW4 5516   2.667   3.499   2.418 -0.4015  0.3264  0.8743
 1368SOL     OW 5517   2.869   3.610   2.272  0.2884  0.4247  0.0878
 1368SOL    HW2 5518   2.945   3.558   2.299 -0.5259 -0.0309  1.5375
 1368SOL    HW3 5519   2.897   3.701   2.284  0.8775  0.2797 -0.1640
 1368SOL    MW4 5520   2.883   3.615   2.277  0.2589  0.3457  0.2458
 1369SOL     OW 5521   2.892   3.873   2.343 -0.6401  0.1200 -0.0221
 1369SOL    HW2 5522   2.883   3.864   2.437 -1.1605 -0.2565 -0.1056
 1369SOL    HW3 5523   2.815   3.923   2.316 -0.1891  0.7373 -0.1714
 1369SOL    MW4 5524   2.881   3.878   2.352 -0.6492  0.1516 -0.0527
 1370SOL     OW 5525   2.659   4.005   2.274 -0.3302  0.3379 -0.2143
 1370SOL    HW2 5526   2.596   3.945   2.314 -0.4703  0.7766  0.2265
 1370SOL    HW3 5527   2.639   4.001   2.180 -1.8471  1.4192  0.0413
 1370SOL    MW4 5528   2.648   3.996   2.267 -0.5488  0.5381 -0.1223
 1371SOL     OW 5529   2.684   4.256   2.401  0.1967 -0.0992 -0.1981
 1371SOL    HW2 5530   2.696   4.232   2.493 -1.8424 -0.3169  0.0370
 1371SOL    HW3 5531   2.671   4.173   2.356  2.0977 -0.0588 -0.8418
 1371SOL    MW4 5532   2.684   4.242   2.407  0.1786 -0.1221 -0.2520
 1372SOL     OW 5533   2.917   4.392   2.289  0.4564 -0.4708 -0.1484
 1372SOL    HW2 5534   2.997   4.362   2.333  0.1102 -0.9569  0.1658
 1372SOL    HW3 5535   2.848   4.336   2.325  0.0174 -0.2379 -0.6189
 1372SOL    MW4 5536   2.918   4.381   2.300  0.3529 -0.5035 -0.1690
 1373SOL     OW 5537   3.382   0.005   2.419 -0.7293  0.6332  0.6650
 1373SOL    HW2 5538   3.406  -0.006   2.511  2.7445 -1.3526 -0.4041
 1373SOL    HW3 5539   3.449   0.064   2.384 -0.6791 -0.4934 -1.1393
 1373SOL    MW4 5540   3.394   0.012   2.427 -0.2644  0.2225  0.2859
 1374SOL     OW 5541   3.152   0.113   2.285 -0.0242 -0.6099  0.8289
 1374SOL    HW2 5542   3.145   0.191   2.341  0.5962 -0.9944  1.4628
 1374SOL    HW3 5543   3.222   0.062   2.326  1.2142 -0.3894 -0.9309
 1374SOL    MW4 5544   3.161   0.117   2.298  0.2210 -0.6316  0.6807
 1375SOL     OW 5545   3.169   0.365   2.384 -0.7875 -0.1784 -0.2685
 1375SOL    HW2 5546   3.242   0.406   2.338 -1.1144 -0.8012 -1.3500
 1375SOL    HW3 5547   3.091   0.402   2.343 -1.0953 -2.1484 -1.5250
 1375SOL    MW4 5548   3.168   0.375   2.373 -0.8712 -0.5205 -0.5767
 1376SOL     OW 5549   3.392   0.496   2.284 -0.5724 -0.4763 -0.1812
 1376SOL    HW2 5550   3.472   0.450   2.308  1.0805  1.1229 -2.4229
 1376SOL    HW3 5551   3.391   0.495   2.188 -1.0434  3.0971 -0.3112
 1376SOL    MW4 5552   3.402   0.490   2.275 -0.4168  0.2061 -0.4942
 1377SOL     OW 5553   3.364   0.765   2.393 -0.2073 -0.6124  0.6847
 1377SOL    HW2 5554   3.451   0.790   2.362 -1.2865  0.9596 -1.2459
 1377SOL    HW3 5555   3.349   0.678   2.355 -0.2649 -0.0181 -0.6950
 1377SOL    MW4 5556   3.373   0.757   2.384 -0.3572 -0.3265  0.2477
 1378SOL     OW 5557   3.148   0.895   2.269  0.2643  0.4110  0.6135
 1378SOL    HW2 5558   3.226   0.852   2.306  0.3884 -0.3920 -0.5435
 1378SOL    HW3 5559   3.075   0.855   2.316  0.5542  1.2935  1.8302
 1378SOL    MW4 5560   3.149   0.884   2.280  0.3190  0.4215  0.6213
 1379SOL     OW 5561   3.113   1.146   2.398 -0.3255 -0.0530  0.0237
 1379SOL    HW2 5562   3.186   1.189   2.353 -0.4834 -0.7304 -0.8903
 1379SOL    HW3 5563   3.118   1.055   2.369 -2.2103  0.1325 -0.9209
 1379SOL    MW4 5564   3.124   1.140   2.388 -0.5949 -0.1179 -0.2215
 1380SOL     OW 5565   3.329   1.287   2.314 -0.1642  0.2320  0.1148
 1380SOL    HW2 5566   3.409   1.238   2.333  0.4648  1.1264 -0.2113
 1380SOL    HW3 5567   3.350   1.378   2.332 -0.9078  0.5586 -0.5866
 1380SOL    MW4 5568   3.342   1.292   2.319 -0.1795  0.3930 -0.0207
 1381SOL     OW 5569   3.390   1.549   2.405 -0.0066  0.1389 -0.4531
 1381SOL    HW2 5570   3.399   1.568   2.498 -0.1137 -0.6404 -0.2806
 1381SOL    HW3 5571   3.304   1.583   2.381  0.5769  1.5769 -0.5865
 1381SOL    MW4 5572   3.380   1.556   2.414  0.0560  0.2258 -0.4482
 1382SOL     OW 5573   3.133   1.652   2.298  0.0728  0.0161 -0.2901
 1382SOL    HW2 5574   3.121   1.741   2.331 -1.4827 -0.8368  1.5199
 1382SOL    HW3 5575   3.054   1.606   2.325  0.9241 -1.9458 -1.1141
 1382SOL    MW4 5576   3.121   1.658   2.306 -0.0200 -0.3554 -0.1600
 1383SOL     OW 5577   3.115   1.910   2.382  0.4813 -0.0751 -0.1196
 1383SOL    HW2 5578   3.088   1.928   2.472 -0.5410 -0.5844 -0.3164
 1383SOL    HW3 5579   3.189   1.969   2.367  0.2627  0.4563  0.8418
 1383SOL    MW4 5580   3.121   1.920   2.392  0.3176 -0.0721 -0.0186
 1384SOL     OW 5581   3.345   2.048   2.284  0.1408 -0.1332 -0.1126
 1384SOL    HW2 5582   3.430   2.013   2.313  0.4395  0.0028 -0.8293
 1384SOL    HW3 5583   3.347   2.043   2.189 -1.1748 -1.3261 -0.0920
 1384SOL    MW4 5584   3.356   2.043   2.276  0.0067 -0.2728 -0.2043
 1385SOL     OW 5585   3.346   2.311   2.352  0.3609 -0.3103  0.0048
 1385SOL    HW2 5586   3.267   2.336   2.305  0.2046  0.5581  0.7203
 1385SOL    HW3 5587   3.353   2.216   2.339 -0.5929 -0.3323 -0.3564
 1385SOL    MW4 5588   3.337   2.301   2.344  0.2146 -0.1986  0.0515
 1386SOL     OW 5589   3.099   2.413   2.275  0.0408 -0.1724  0.3788
 1386SOL    HW2 5590   3.099   2.506   2.296  0.5920 -0.2233  0.6079
 1386SOL    HW3 5591   3.021   2.379   2.320 -0.8993  0.4098 -0.7884
 1386SOL    MW4 5592   3.088   2.420   2.284 -0.0107 -0.1025  0.2549
 1387SOL     OW 5593   3.108   2.685   2.372 -0.1659 -0.0304 -0.6810
 1387SOL    HW2 5594   3.114   2.675   2.467  0.1156 -1.2000 -0.8194
 1387SOL    HW3 5595   3.023   2.728   2.357 -1.1430 -1.7147 -0.0325
 1387SOL    MW4 5596   3.098   2.689   2.382 -0.2577 -0.4072 -0.6137
 1388SOL     OW 5597   3.333   2.797   2.286  0.1525  0.6570  0.3697
 1388SOL    HW2 5598   3.344   2.885   2.322 -2.1716  0.9825  0.3145
 1388SOL    HW3 5599   3.259   2.760   2.334  0.4037 -0.8600 -0.3897
 1388SOL    MW4 5600   3.325   2.804   2.297 -0.1209  0.4995  0.2623
 1389SOL     OW 5601   3.334   3.071   2.409 -0.0014  0.0024  0.0145
 1389SOL    HW2 5602   3.411   3.094   2.358 -0.0718 -1.3354 -0.7143
 1389SOL    HW3 5603   3.264   3.127   2.373  0.4127  0.5161  0.0148
 1389SOL    MW4 5604   3.335   3.081   2.397  0.0439 -0.1061 -0.0815
 1390SOL     OW 5605   3.106   3.222   2.315  0.0037 -0.5715  0.1983
 1390SOL    HW2 5606   3.111   3.314   2.340 -0.9640 -0.7450  1.0770
 1390SOL    HW3 5607   3.123   3.222   2.221 -1.1729  0.6291 -0.0265
 1390SOL    MW4 5608   3.109   3.234   2.306 -0.2794 -0.4358  0.2844
 1391SOL     OW 5609   3.090   3.501   2.374  0.0499  0.1189  0.1414
 1391SOL    HW2 5610   3.103   3.509   2.468  1.3880  1.1643 -0.1107
 1391SOL    HW3 5611   3.173   3.531   2.336 -1.6577  3.1533 -1.4284
 1391SOL    MW4 5612   3.103   3.506   2.381  0.0012  0.6573 -0.0992
 1392SOL     OW 5613   3.327   3.601   2.276  0.4368  0.6263 -0.7280
 1392SOL    HW2 5614   3.406   3.574   2.323  0.2614  0.9425 -0.2450
 1392SOL    HW3 5615   3.348   3.586   2.184 -0.0642 -2.2195 -0.4278
 1392SOL    MW4 5616   3.340   3.595   2.270  0.3476  0.2923 -0.6247
 1393SOL     OW 5617   3.319   3.872   2.350  0.5282 -0.0230 -0.4319
 1393SOL    HW2 5618   3.408   3.905   2.339  0.3091  1.3200  1.4674
 1393SOL    HW3 5619   3.323   3.781   2.321  2.2053  0.3880 -1.5754
 1393SOL    MW4 5620   3.331   3.864   2.345  0.7205  0.2084 -0.3324
 1394SOL     OW 5621   3.101   4.056   2.302 -0.6264 -0.0333 -0.4309
 1394SOL    HW2 5622   3.172   4.007   2.345 -1.9959 -0.2243  1.6831
 1394SOL    HW3 5623   3.025   3.998   2.310 -1.5371  1.1256 -0.6671
 1394SOL    MW4 5624   3.101   4.042   2.309 -0.9274  0.0949 -0.1831
 1395SOL     OW 5625   3.153   4.324   2.408  0.4242  0.1698  0.0352
 1395SOL    HW2 5626   3.241   4.358   2.391  0.3047  1.8681  2.5370
 1395SOL    HW3 5627   3.153   4.237   2.367  3.0699  0.3950 -0.5411
 1395SOL    MW4 5628   3.165   4.317   2.400  0.7575  0.4239  0.2892
 1396SOL     OW 5629   3.407   4.402   2.288  0.7425 -0.0154  0.2864
 1396SOL    HW2 5630   3.426   4.492   2.314  1.3389 -0.1941  0.4750
 1396SOL    HW3 5631   3.393   4.407   2.194  0.2407  0.3601  0.3764
 1396SOL    MW4 5632   3.408   4.415   2.279  0.7548  0.0105  0.3231
 1397SOL     OW 5633   3.897   4.655   2.418 -0.0709 -0.1042 -0.1771
 1397SOL    HW2 5634   3.898   4.664   2.513 -0.7762 -1.9504  0.0343
 1397SOL    HW3 5635   3.978   4.698   2.389  0.4806 -0.0905  1.3133
 1397SOL    MW4 5636   3.908   4.662   2.427 -0.0913 -0.3457  0.0472
 1398SOL     OW 5637   3.629   0.083   2.316 -0.1085 -0.1015 -0.2709
 1398SOL    HW2 5638   3.625   0.176   2.340 -2.7837 -0.2924  0.1356
 1398SOL    HW3 5639   3.714   0.054   2.349 -0.1177  1.7094  1.4513
 1398SOL    MW4 5640   3.640   0.091   2.323 -0.4625  0.1123  0.0100
 1399SOL     OW 5641   3.603   0.348   2.404  0.1684 -0.3976 -0.0308
 1399SOL    HW2 5642   3.615   0.367   2.497 -2.0279  0.9533  0.0132
 1399SOL    HW3 5643   3.676   0.392   2.361 -0.0088  0.8233  0.8870
 1399SOL    MW4 5644   3.614   0.356   2.411 -0.1447 -0.0583  0.0961
 1400SOL     OW 5645   3.821   0.452   2.271 -0.1913 -0.1423 -0.0171
 1400SOL    HW2 5646   3.824   0.547   2.284  1.1384 -0.2211  0.3510
 1400SOL    HW3 5647   3.839   0.441   2.178  0.6162 -0.0681  0.1233
 1400SOL    MW4 5648   3.824   0.463   2.260  0.0906 -0.1429  0.0501
 1401SOL     OW 5649   3.830   0.722   2.345  0.5539  0.4049  0.3234
 1401SOL    HW2 5650   3.840   0.708   2.439 -0.9419 -0.7185  0.3459
 1401SOL    HW3 5651   3.898   0.785   2.322  2.5726 -1.2081  1.6933
 1401SOL    MW4 5652   3.840   0.729   2.355  0.6227  0.0439  0.5074
 1402SOL     OW 5653   3.599   0.873   2.289  0.0849  0.2877 -0.2503
 1402SOL    HW2 5654   3.674   0.818   2.312 -0.2801  0.1362  0.6043
 1402SOL    HW3 5655   3.599   0.876   2.194  1.9283  1.3137 -0.2440
 1402SOL    MW4 5656   3.609   0.866   2.280  0.2799  0.4031 -0.1364
 1403SOL     OW 5657   3.563   1.132   2.409  0.2960 -0.0929  0.1406
 1403SOL    HW2 5658   3.554   1.146   2.503 -0.4449 -1.1361  0.2299
 1403SOL    HW3 5659   3.567   1.037   2.399 -0.6520 -0.0248 -0.9665
 1403SOL    MW4 5660   3.562   1.122   2.420  0.0732 -0.2215  0.0064
 1404SOL     OW 5661   3.783   1.258   2.283 -0.0809 -0.0344  0.1042
 1404SOL    HW2 5662   3.787   1.340   2.333 -0.1663  0.0606 -0.0448
 1404SOL    HW3 5663   3.703   1.215   2.314 -1.6914  1.3506 -1.9928
 1404SOL    MW4 5664   3.773   1.263   2.294 -0.3047  0.1609 -0.1919
 1405SOL     OW 5665   3.787   1.502   2.426 -0.0059  0.9505 -0.0404
 1405SOL    HW2 5666   3.774   1.514   2.520 -2.0644 -1.3962 -0.0049
 1405SOL    HW3 5667   3.736   1.573   2.386 -1.0448  0.5335  0.5388
 1405SOL    MW4 5668   3.779   1.513   2.433 -0.4148  0.5857  0.0408
 1406SOL     OW 5669   3.612   1.696   2.324  0.0049  0.0688  0.2485
 1406SOL    HW2 5670   3.534   1.646   2.348  0.0308  0.2996  0.8166
 1406SOL    HW3 5671   3.626   1.676   2.231  0.6290 -1.8198  0.7223
 1406SOL    MW4 5672   3.604   1.687   2.315  0.0906 -0.1500  0.3860
 1407SOL     OW 5673   3.586   1.978   2.397  0.2359 -0.3330  0.4439
 1407SOL    HW2 5674   3.657   2.027   2.355  0.5651  1.2843  2.7707
 1407SOL    HW3 5675   3.604   1.886   2.376  1.7358  0.2467 -0.8623
 1407SOL    MW4 5676   3.598   1.972   2.389  0.4773 -0.0430  0.5784
 1408SOL     OW 5677   3.822   2.055   2.248 -0.0633  0.2438  0.1761
 1408SOL    HW2 5678   3.876   1.986   2.286 -0.2144  0.5461  0.9370
 1408SOL    HW3 5679   3.826   2.039   2.153 -0.8313 -1.3660  0.3911
 1408SOL    MW4 5680   3.830   2.044   2.240 -0.1848  0.0710  0.3047
 1409SOL     OW 5681   3.781   2.272   2.406 -0.4889  0.1987 -0.4286
 1409SOL    HW2 5682   3.723   2.333   2.360 -0.3777  0.7970  0.2158
 1409SOL    HW3 5683   3.797   2.201   2.343 -0.5645  0.8721 -1.2125
 1409SOL    MW4 5684   3.776   2.271   2.392 -0.4842  0.3669 -0.4468
 1410SOL     OW 5685   3.582   2.434   2.279 -0.5617  0.1369  0.1172
 1410SOL    HW2 5686   3.502   2.391   2.312  0.7949 -2.1876  0.4848
 1410SOL    HW3 5687   3.575   2.428   2.184  0.4041 -2.5498  0.1574
 1410SOL    MW4 5688   3.570   2.428   2.271 -0.2551 -0.5243  0.1707
 1411SOL     OW 5689   3.588   2.695   2.360  0.2145  0.5320 -0.1383
 1411SOL    HW2 5690   3.598   2.604   2.333 -0.6390  0.6747 -0.9567
 1411SOL    HW3 5691   3.499   2.718   2.334 -0.1573  1.0911  1.5940
 1411SOL    MW4 5692   3.578   2.686   2.353  0.0529  0.6249 -0.0176
 1412SOL     OW 5693   3.814   2.803   2.275 -0.4259 -0.6870 -0.1784
 1412SOL    HW2 5694   3.811   2.893   2.308  0.5159  0.2432 -2.5598
 1412SOL    HW3 5695   3.731   2.764   2.305 -0.4277  0.6582  1.6752
 1412SOL    MW4 5696   3.802   2.809   2.283 -0.3021 -0.3872 -0.2482
 1413SOL     OW 5697   3.778   3.059   2.373 -0.1324 -0.8147  0.0863
 1413SOL    HW2 5698   3.769   3.078   2.466 -1.3939  0.6455 -0.3102
 1413SOL    HW3 5699   3.848   3.119   2.343 -1.5423  0.6196 -0.4138
 1413SOL    MW4 5700   3.786   3.070   2.381 -0.4849 -0.4325 -0.0319
 1414SOL     OW 5701   3.541   3.165   2.271 -0.3859  0.0061  0.4014
 1414SOL    HW2 5702   3.536   3.252   2.311 -0.5374  0.1951 -0.0317
 1414SOL    HW3 5703   3.616   3.124   2.313  1.5157  1.4312 -1.5321
 1414SOL    MW4 5704   3.550   3.171   2.282 -0.1550  0.2191  0.0889
 1415SOL     OW 5705   3.539   3.427   2.380  0.2355  0.1402  0.2137
 1415SOL    HW2 5706   3.545   3.449   2.473 -0.1703  1.6560 -0.1079
 1415SOL    HW3 5707   3.607   3.479   2.338  0.8586 -1.0394 -0.2598
 1415SOL    MW4 5708   3.549   3.436   2.387  0.2642  0.1848  0.1087
 1416SOL     OW 5709   3.770   3.589   2.293 -0.1448  0.1015 -0.6432
 1416SOL    HW2 5710   3.767   3.664   2.351  0.6851  1.0320 -1.7886
 1416SOL    HW3 5711   3.778   3.626   2.205 -0.0790 -1.3066 -1.2526
 1416SOL    MW4 5712   3.770   3.604   2.289 -0.0267  0.0381 -0.8748
 1417SOL     OW 5713   3.779   3.837   2.426 -0.2006  0.5925  0.4046
 1417SOL    HW2 5714   3.773   3.851   2.521 -0.6346  0.7320  0.3618
 1417SOL    HW3 5715   3.858   3.884   2.399 -0.9795  1.9771  0.4498
 1417SOL    MW4 5716   3.788   3.845   2.435 -0.3607  0.7937  0.4048
 1418SOL     OW 5717   3.584   3.997   2.338 -0.2811 -0.8686 -0.0888
 1418SOL    HW2 5718   3.594   4.088   2.367 -1.5218 -0.4246 -1.0125
 1418SOL    HW3 5719   3.657   3.951   2.379  1.2018  0.8163 -0.7567
 1418SOL    MW4 5720   3.595   4.003   2.347 -0.2491 -0.5875 -0.2990
 1419SOL     OW 5721   3.607   4.267   2.427  0.6172 -0.4882  0.1912
 1419SOL    HW2 5722   3.687   4.305   2.391 -0.0658  0.9732  0.1940
 1419SOL    HW3 5723   3.536   4.313   2.383 -0.2428 -2.1213 -0.1842
 1419SOL    MW4 5724   3.608   4.278   2.417  0.4137 -0.5112  0.1421
 1420SOL     OW 5725   3.834   4.388   2.335 -0.3030  0.2801  0.3422
 1420SOL    HW2 5726   3.914   4.352   2.373 -0.0448  0.1322 -0.3488
 1420SOL    HW3 5727   3.833   4.479   2.365 -0.1014  0.1615  0.7145
 1420SOL    MW4 5728   3.845   4.395   2.344 -0.2425  0.2456  0.3004
 1421SOL     OW 5729   4.314   4.640   2.429  0.1183 -0.3852 -0.0021
 1421SOL    HW2 5730   4.304   4.638   2.524  0.2920 -0.9810  0.0050
 1421SOL    HW3 5731   4.387   4.699   2.413 -0.0642 -0.0990  0.2212
 1421SOL    MW4 5732   4.322   4.648   2.439  0.1168 -0.4263  0.0284
 1422SOL     OW 5733   4.118   0.148   2.312  0.0189 -0.0073 -0.1348
 1422SOL    HW2 5734   4.107   0.236   2.348 -0.5945  0.2677 -0.9650
 1422SOL    HW3 5735   4.188   0.108   2.364  0.9351  1.3005 -0.3545
 1422SOL    MW4 5736   4.126   0.154   2.324  0.0582  0.2016 -0.2735
 1423SOL     OW 5737   4.073   0.399   2.415  0.5054  0.2774 -0.5448
 1423SOL    HW2 5738   4.149   0.444   2.378  0.2139  1.3481  0.1344
 1423SOL    HW3 5739   4.001   0.422   2.356  0.6277 -0.4328 -0.9774
 1423SOL    MW4 5740   4.073   0.408   2.402  0.4830  0.3250 -0.5124
 1424SOL     OW 5741   4.282   0.555   2.283 -0.5044  0.4638 -0.4955
 1424SOL    HW2 5742   4.263   0.628   2.341 -2.0007  0.1170 -0.5379
 1424SOL    HW3 5743   4.357   0.511   2.323 -0.8828  0.8236  0.6120
 1424SOL    MW4 5744   4.290   0.559   2.296 -0.7520  0.4655 -0.3550
 1425SOL     OW 5745   4.232   0.771   2.429 -0.5303  0.0699  0.2842
 1425SOL    HW2 5746   4.149   0.807   2.398  0.3324  1.1178 -0.9116
 1425SOL    HW3 5747   4.298   0.833   2.396  0.5013  1.0346  3.9046
 1425SOL    MW4 5748   4.230   0.784   2.420 -0.2804  0.3355  0.6042
 1426SOL     OW 5749   4.043   0.889   2.287  0.3282 -0.0478  0.2862
 1426SOL    HW2 5750   4.035   0.977   2.323 -0.9516  0.0091 -0.1059
 1426SOL    HW3 5751   4.069   0.903   2.195  0.1354 -0.0844  0.2264
 1426SOL    MW4 5752   4.045   0.902   2.279  0.1340 -0.0451  0.2265
 1427SOL     OW 5753   4.015   1.150   2.397  0.4653 -0.0861 -0.0167
 1427SOL    HW2 5754   3.997   1.150   2.491  2.1565 -1.5338  0.3322
 1427SOL    HW3 5755   3.938   1.190   2.357 -1.5157 -2.0935  1.7397
 1427SOL    MW4 5756   4.003   1.155   2.404  0.4268 -0.5419  0.2611
 1428SOL     OW 5757   4.216   1.304   2.319  0.1415  0.1836  0.0339
 1428SOL    HW2 5758   4.148   1.245   2.353 -0.0719  0.6500  0.4226
 1428SOL    HW3 5759   4.299   1.263   2.346 -0.0299  0.6697  1.3252
 1428SOL    MW4 5760   4.218   1.291   2.327  0.0911  0.3093  0.2556
 1429SOL     OW 5761   4.254   1.546   2.439 -0.2793  0.1628  0.4076
 1429SOL    HW2 5762   4.244   1.458   2.405  1.3911  0.1377 -0.0278
 1429SOL    HW3 5763   4.342   1.573   2.414 -0.1213  1.2973  2.0542
 1429SOL    MW4 5764   4.264   1.538   2.432 -0.0381  0.3091  0.5674
 1430SOL     OW 5765   4.032   1.663   2.289  0.4321  0.3056  0.1474
 1430SOL    HW2 5766   4.098   1.626   2.348 -1.0913 -0.5930  1.3401
 1430SOL    HW3 5767   3.949   1.624   2.318 -0.8893  2.7758 -0.1297
 1430SOL    MW4 5768   4.030   1.653   2.301  0.0572  0.5130  0.2682
 1431SOL     OW 5769   4.009   1.930   2.392 -0.1889  0.0151  0.3757
 1431SOL    HW2 5770   4.010   1.921   2.488 -0.2645 -1.3405  0.2530
 1431SOL    HW3 5771   4.000   1.841   2.359 -0.7117  0.5180 -0.8940
 1431SOL    MW4 5772   4.008   1.917   2.401 -0.2675 -0.0974  0.1922
 1432SOL     OW 5773   4.270   2.065   2.324 -0.1484 -0.7177 -0.0427
 1432SOL    HW2 5774   4.265   2.157   2.350  0.5090 -0.8174  0.4098
 1432SOL    HW3 5775   4.184   2.030   2.346 -0.1328 -0.4102  0.5117
 1432SOL    MW4 5776   4.258   2.073   2.330 -0.0591 -0.6902  0.0901
 1433SOL     OW 5777   4.222   2.343   2.410  0.4001 -0.1697  0.2197
 1433SOL    HW2 5778   4.151   2.374   2.354  0.8563 -0.0595 -0.2986
 1433SOL    HW3 5779   4.302   2.379   2.371  0.6509  0.6601  1.4628
 1433SOL    MW4 5780   4.223   2.352   2.398  0.4930 -0.0458  0.3154
 1434SOL     OW 5781   4.002   2.407   2.270 -0.1424 -0.0831 -0.6452
 1434SOL    HW2 5782   4.012   2.490   2.315  0.2203  0.0985 -1.0604
 1434SOL    HW3 5783   3.928   2.364   2.314 -0.6402  0.6630 -0.7447
 1434SOL    MW4 5784   3.993   2.412   2.282 -0.1605  0.0393 -0.7131
 1435SOL     OW 5785   4.028   2.652   2.377 -0.4091 -0.5688 -0.0009
 1435SOL    HW2 5786   4.014   2.658   2.471  0.9986 -1.6588  0.3081
 1435SOL    HW3 5787   3.966   2.714   2.339  0.4229  1.4006  1.7573
 1435SOL    MW4 5788   4.018   2.661   2.384 -0.1135 -0.4525  0.2718
 1436SOL     OW 5789   4.255   2.804   2.296  0.1402 -0.2961 -0.2356
 1436SOL    HW2 5790   4.188   2.747   2.334  0.9951 -1.6520 -0.7040
 1436SOL    HW3 5791   4.338   2.763   2.321  0.7676  0.5612 -0.8718
 1436SOL    MW4 5792   4.257   2.791   2.304  0.3357 -0.3617 -0.3815
 1437SOL     OW 5793   4.226   3.058   2.432 -0.2406  0.3188  0.0474
 1437SOL    HW2 5794   4.229   2.970   2.394 -2.1963  0.4777 -0.4864
 1437SOL    HW3 5795   4.302   3.103   2.394  0.3381 -0.8976 -0.2485
 1437SOL    MW4 5796   4.237   3.053   2.422 -0.4225  0.1795 -0.0620
 1438SOL     OW 5797   4.013   3.203   2.307  0.3620 -0.6555  0.2202
 1438SOL    HW2 5798   4.023   3.291   2.342 -0.8416 -0.5514  0.3094
 1438SOL    HW3 5799   4.079   3.151   2.353  0.1658 -0.0935  1.1329
 1438SOL    MW4 5800   4.023   3.208   2.318  0.1774 -0.5677  0.3524
 1439SOL     OW 5801   4.021   3.469   2.369  0.0818  0.1435  0.4584
 1439SOL    HW2 5802   3.939   3.511   2.345  0.2136  0.0278 -0.2090
 1439SOL    HW3 5803   4.017   3.459   2.464 -0.1501  1.2412  0.5642
 1439SOL    MW4 5804   4.010   3.473   2.378  0.0687  0.2730  0.3843
 1440SOL     OW 5805   4.252   3.607   2.307 -0.4585  0.2905  0.0057
 1440SOL    HW2 5806   4.261   3.698   2.335 -2.1151  0.2699  0.6409
 1440SOL    HW3 5807   4.168   3.579   2.343  0.8890 -2.0893  1.4723
 1440SOL    MW4 5808   4.242   3.615   2.316 -0.4992 -0.0260  0.2828
 1441SOL     OW 5809   4.231   3.871   2.448  0.1302  0.1682  0.2176
 1441SOL    HW2 5810   4.241   3.891   2.542  0.8944  0.8011  0.0073
 1441SOL    HW3 5811   4.298   3.924   2.405  1.8474 -2.4328 -0.4310
 1441SOL    MW4 5812   4.241   3.881   2.455  0.4578 -0.0918  0.1042
 1442SOL     OW 5813   4.002   3.985   2.342  0.0756 -0.1488 -0.3469
 1442SOL    HW2 5814   4.085   3.950   2.373 -0.0135 -1.1242 -1.1693
 1442SOL    HW3 5815   4.012   3.990   2.247 -1.1583 -1.2908 -0.5709
 1442SOL    MW4 5816   4.014   3.981   2.334 -0.0992 -0.4282 -0.4849
 1443SOL     OW 5817   4.044   4.250   2.457 -0.5262  0.1795 -0.1659
 1443SOL    HW2 5818   4.110   4.297   2.404 -0.5397  1.5268  0.9782
 1443SOL    HW3 5819   4.038   4.164   2.416 -0.5409  1.1791 -2.3829
 1443SOL    MW4 5820   4.052   4.245   2.444 -0.5302  0.4892 -0.3076
 1444SOL     OW 5821   4.263   4.385   2.332  0.4199  0.1798 -0.3547
 1444SOL    HW2 5822   4.284   4.471   2.368  0.7126 -0.7400  1.7748
 1444SOL    HW3 5823   4.342   4.332   2.348  0.4192 -0.3640 -2.0652
 1444SOL    MW4 5824   4.276   4.389   2.339  0.4582 -0.0138 -0.2992
 1445SOL     OW 5825   0.258   0.009   2.691  0.1642  0.4224  0.3293
 1445SOL    HW2 5826   0.270  -0.082   2.716 -1.4431 -0.3119 -1.4234
 1445SOL    HW3 5827   0.175   0.034   2.731 -1.1100  0.0326 -1.9824
 1445SOL    MW4 5828   0.249   0.000   2.699 -0.2159  0.2742 -0.2072
 1446SOL     OW 5829   0.014   0.130   2.762  0.5856 -0.1404  0.0425
 1446SOL    HW2 5830   0.001   0.127   2.857  0.7731  0.4330  0.0848
 1446SOL    HW3 5831   0.004   0.222   2.739 -0.7910 -0.4601 -0.6883
 1446SOL    MW4 5832   0.011   0.142   2.772  0.4287 -0.1069 -0.0484
 1447SOL     OW 5833   4.473   0.384   2.673 -0.4626  0.1571  0.2429
 1447SOL    HW2 5834   4.555   0.420   2.706  0.3791 -1.8119  0.4068
 1447SOL    HW3 5835   4.471   0.408   2.581  1.0516 -1.0523 -0.1314
 1447SOL    MW4 5836   4.484   0.392   2.666 -0.1516 -0.2623  0.2151
 1448SOL     OW 5837   0.197   0.503   2.777  0.2867 -0.1391 -0.0901
 1448SOL    HW2 5838   0.195   0.494   2.872 -0.1716 -1.0962 -0.1798
 1448SOL    HW3 5839   0.280   0.463   2.751 -0.1528 -1.0143 -0.1872
 1448SOL    MW4 5840   0.208   0.496   2.786  0.1683 -0.3808 -0.1149
 1449SOL     OW 5841   0.177   0.755   2.702  0.3832  0.1164  0.0603
 1449SOL    HW2 5842   0.254   0.802   2.733 -1.7066  1.6554  3.1130
 1449SOL    HW3 5843   0.192   0.664   2.728  1.5112  0.2424 -0.1218
 1449SOL    MW4 5844   0.189   0.749   2.709  0.2563  0.3361  0.4387
 1450SOL     OW 5845   4.474   0.893   2.829 -0.0672 -0.6019  0.1951
 1450SOL    HW2 5846   4.398   0.860   2.781  0.1891  0.0887 -0.6951
 1450SOL    HW3 5847   4.547   0.841   2.797 -0.1545 -1.2632  1.0495
 1450SOL    MW4 5848   4.473   0.882   2.818 -0.0448 -0.5981  0.1905
 1451SOL     OW 5849   4.484   1.142   2.709 -0.2212 -0.4954 -0.3959
 1451SOL    HW2 5850   4.561   1.185   2.747 -0.7070 -0.6345  0.7679
 1451SOL    HW3 5851   4.484   1.055   2.747  0.2104 -1.2163 -2.0134
 1451SOL    MW4 5852   4.494   1.136   2.719 -0.2284 -0.6089 -0.4559
 1452SOL     OW 5853   0.203   1.273   2.822  0.2768 -0.2216  0.0760
 1452SOL    HW2 5854   0.284   1.226   2.803  0.2742 -0.5000  0.7676
 1452SOL    HW3 5855   0.215   1.358   2.778  0.8471 -0.3428 -0.0107
 1452SOL    MW4 5856   0.215   1.278   2.814  0.3517 -0.2743  0.1559
 1453SOL     OW 5857   0.253   1.510   2.699 -0.4250 -0.2918  0.3048
 1453SOL    HW2 5858   0.326   1.569   2.718 -0.7001 -0.2159  1.1269
 1453SOL    HW3 5859   0.175   1.559   2.726 -0.6434 -1.0821  1.1362
 1453SOL    MW4 5860   0.252   1.524   2.705 -0.4901 -0.3861  0.5229
 1454SOL     OW 5861   0.031   1.661   2.732  0.1474 -0.7807  0.2090
 1454SOL    HW2 5862   0.034   1.668   2.828 -0.3251 -0.1118  0.1728
 1454SOL    HW3 5863   0.009   1.749   2.702  3.8994 -0.0702 -0.6941
 1454SOL    MW4 5864   0.029   1.673   2.741  0.5801 -0.5987  0.0846
 1455SOL     OW 5865   4.480   1.936   2.720  0.0898  0.3637 -0.2150
 1455SOL    HW2 5866   4.561   1.970   2.758 -0.6401  0.5899  1.1678
 1455SOL    HW3 5867   4.493   1.945   2.626  2.4783 -1.4582 -0.1153
 1455SOL    MW4 5868   4.493   1.942   2.713  0.3090  0.1532 -0.0193
 1456SOL     OW 5869   0.235   2.034   2.795 -0.3637  0.1545  0.3976
 1456SOL    HW2 5870   0.307   1.981   2.759 -1.8092 -1.9330  0.5063
 1456SOL    HW3 5871   0.247   2.120   2.755  1.4005 -0.5500 -0.6556
 1456SOL    MW4 5872   0.246   2.038   2.785 -0.3216 -0.2141  0.2730
 1457SOL     OW 5873   0.197   2.279   2.654  0.2097 -0.1511  0.3727
 1457SOL    HW2 5874   0.276   2.316   2.694  0.0082 -0.0057  0.6337
 1457SOL    HW3 5875   0.125   2.332   2.688  0.2371  1.4580 -1.9488
 1457SOL    MW4 5876   0.198   2.290   2.664  0.1867  0.0806  0.1009
 1458SOL     OW 5877   4.448   2.407   2.762  0.2867  0.2532 -0.3202
 1458SOL    HW2 5878   4.451   2.399   2.858  0.6477 -0.2138 -0.3706
 1458SOL    HW3 5879   4.374   2.352   2.736  1.4490 -1.2716 -0.4801
 1458SOL    MW4 5880   4.438   2.399   2.771  0.4869 -0.0098 -0.3481
 1459SOL     OW 5881   4.458   2.681   2.673  0.0678  0.1981  0.4351
 1459SOL    HW2 5882   4.378   2.720   2.709  0.2299  0.3131  0.6740
 1459SOL    HW3 5883   4.457   2.591   2.706  0.2123  0.3010  0.7252
 1459SOL    MW4 5884   4.447   2.674   2.682  0.1082  0.2270  0.5050
 1460SOL     OW 5885   0.174   2.825   2.783 -0.0165  0.2383  0.2493
 1460SOL    HW2 5886   0.162   2.909   2.739  1.6058  0.4617  0.2276
 1460SOL    HW3 5887   0.102   2.771   2.750 -2.7214  2.4153  2.3201
 1460SOL    MW4 5888   0.163   2.829   2.773 -0.1593  0.5550  0.5198
 1461SOL     OW 5889   0.221   3.088   2.662  0.1300  0.1212  0.0071
 1461SOL    HW2 5890   0.297   3.122   2.709 -1.1212  1.9624  0.7478
 1461SOL    HW3 5891   0.228   3.126   2.575  0.6600 -0.6386 -0.2907
 1461SOL    MW4 5892   0.232   3.097   2.657  0.0348  0.2642  0.0656
 1462SOL     OW 5893   0.017   3.201   2.809 -0.4122 -0.5791 -0.8351
 1462SOL    HW2 5894  -0.059   3.167   2.762  0.5048 -2.3358 -1.0994
 1462SOL    HW3 5895   0.091   3.153   2.772  0.5578 -0.5644  1.0290
 1462SOL    MW4 5896   0.017   3.190   2.798 -0.1632 -0.8087 -0.6237
 1463SOL     OW 5897   4.470   3.467   2.714  0.1075  0.1627 -0.5217
 1463SOL    HW2 5898   4.526   3.542   2.733 -0.5383 -0.1269  2.7550
 1463SOL    HW3 5899   4.515   3.392   2.753 -1.6583 -0.3588  0.5686
 1463SOL    MW4 5900   4.483   3.467   2.721 -0.2107  0.0556  0.0544
 1464SOL     OW 5901   0.200   3.633   2.802 -0.2839  0.2093 -0.4130
 1464SOL    HW2 5902   0.192   3.604   2.893 -0.5174 -0.2696 -0.5811
 1464SOL    HW3 5903   0.275   3.584   2.768  0.7251  1.4869 -0.0646
 1464SOL    MW4 5904   0.209   3.622   2.810 -0.1816  0.3147 -0.3891
 1465SOL     OW 5905   0.202   3.881   2.679  0.2576 -0.2686 -0.5818
 1465SOL    HW2 5906   0.196   3.788   2.703  0.2408 -0.5554 -1.6575
 1465SOL    HW3 5907   0.218   3.880   2.584 -0.8731  0.8435 -0.8034
 1465SOL    MW4 5908   0.203   3.868   2.669  0.1062 -0.1597 -0.7532
 1466SOL     OW 5909   4.477   4.027   2.781  0.2825 -0.0876  0.3947
 1466SOL    HW2 5910   4.492   4.120   2.762  1.8916 -0.0750  1.5872
 1466SOL    HW3 5911   4.545   3.982   2.731  2.7002 -0.2425  3.5948
 1466SOL    MW4 5912   4.488   4.033   2.772  0.8140 -0.1063  0.9744
 1467SOL     OW 5913   0.036   4.297   2.660 -0.1107 -0.0303  0.3983
 1467SOL    HW2 5914  -0.031   4.348   2.706  0.0325 -0.8773  1.6013
 1467SOL    HW3 5915   0.119   4.335   2.689 -0.0465  0.6769 -0.6810
 1467SOL    MW4 5916   0.038   4.309   2.670 -0.0834 -0.0486  0.4148
 1468SOL     OW 5917   0.255   4.402   2.781  0.4915  0.3587  0.0177
 1468SOL    HW2 5918   0.236   4.382   2.873 -0.4415  0.0915 -0.2251
 1468SOL    HW3 5919   0.329   4.346   2.758  1.4590  1.2420  0.9296
 1468SOL    MW4 5920   0.262   4.392   2.790  0.4961  0.4396  0.1059
 1469SOL     OW 5921   0.649   4.646   2.667  0.0103  0.3654  0.3126
 1469SOL    HW2 5922   0.733   4.673   2.705 -0.4024 -0.8985  2.1382
 1469SOL    HW3 5923   0.585   4.704   2.707 -0.0837  1.0024 -0.7211
 1469SOL    MW4 5924   0.652   4.658   2.677 -0.0566  0.2827  0.4170
 1470SOL     OW 5925   0.499   0.156   2.795 -0.0830 -0.0141 -0.0064
 1470SOL    HW2 5926   0.495   0.154   2.890 -1.0644 -0.8163 -0.0609
 1470SOL    HW3 5927   0.418   0.115   2.766  0.5704 -0.4970 -1.1919
 1470SOL    MW4 5928   0.487   0.151   2.803 -0.1263 -0.1836 -0.1700
 1471SOL     OW 5929   0.434   0.403   2.702 -0.1463 -0.2797  0.0132
 1471SOL    HW2 5930   0.500   0.457   2.746  0.1965  0.2905 -1.1645
 1471SOL    HW3 5931   0.450   0.315   2.734  0.1320  0.1056  0.9768
 1471SOL    MW4 5932   0.445   0.399   2.712 -0.0643 -0.1536 -0.0153
 1472SOL     OW 5933   0.663   0.500   2.817  0.1750 -0.0751 -0.3238
 1472SOL    HW2 5934   0.672   0.497   2.913  0.1123 -0.8805 -0.3406
 1472SOL    HW3 5935   0.737   0.449   2.785 -0.4328 -0.7409 -0.6733
 1472SOL    MW4 5936   0.674   0.493   2.826  0.0865 -0.2692 -0.3722
 1473SOL     OW 5937   0.627   0.745   2.671 -0.3248  0.1983  0.6471
 1473SOL    HW2 5938   0.700   0.799   2.700  0.0689 -0.3779  0.7482
 1473SOL    HW3 5939   0.624   0.673   2.735 -1.2996  0.4874  0.9438
 1473SOL    MW4 5940   0.636   0.743   2.684 -0.4015  0.1605  0.6995
 1474SOL     OW 5941   0.420   0.886   2.783 -0.3426  0.2695 -0.4423
 1474SOL    HW2 5942   0.413   0.979   2.762 -1.0393  0.2985 -0.0887
 1474SOL    HW3 5943   0.496   0.856   2.733  0.8156  1.3650  0.6162
 1474SOL    MW4 5944   0.429   0.894   2.774 -0.2817  0.4179 -0.2561
 1475SOL     OW 5945   0.425   1.154   2.712 -0.6326  0.5575 -0.0081
 1475SOL    HW2 5946   0.509   1.178   2.751 -1.2687  0.1861  1.6552
 1475SOL    HW3 5947   0.441   1.156   2.618  1.4722 -0.2878  0.2795
 1475SOL    MW4 5948   0.438   1.157   2.705 -0.4388  0.3968  0.2494
 1476SOL     OW 5949   0.655   1.250   2.838  0.4820  0.1278 -0.4221
 1476SOL    HW2 5950   0.667   1.244   2.933  0.8052 -0.4524 -0.4942
 1476SOL    HW3 5951   0.738   1.219   2.802  0.2111 -0.0463 -0.8982
 1476SOL    MW4 5952   0.667   1.245   2.846  0.4889  0.0283 -0.4942
 1477SOL     OW 5953   0.696   1.512   2.776 -0.0056 -0.0093  0.2345
 1477SOL    HW2 5954   0.623   1.563   2.809  0.7918  0.5350  1.1957
 1477SOL    HW3 5955   0.671   1.421   2.791 -0.5346  0.1686  0.4463
 1477SOL    MW4 5956   0.683   1.506   2.782  0.0299  0.0861  0.3893
 1478SOL     OW 5957   0.459   1.661   2.855  0.1451 -0.6330  0.2140
 1478SOL    HW2 5958   0.462   1.682   2.948  1.0830  0.0680  0.0270
 1478SOL    HW3 5959   0.462   1.746   2.811 -0.2407 -0.9621 -0.4607
 1478SOL    MW4 5960   0.459   1.675   2.861  0.2180 -0.5839  0.1006
 1479SOL     OW 5961   0.474   1.912   2.697 -0.2178 -0.1794 -0.1056
 1479SOL    HW2 5962   0.541   1.973   2.727 -0.3180 -0.9491  1.7971
 1479SOL    HW3 5963   0.455   1.939   2.607  1.3652  1.1429 -0.0758
 1479SOL    MW4 5964   0.481   1.923   2.689 -0.0222 -0.1066  0.1495
 1480SOL     OW 5965   0.661   2.093   2.766  0.0867 -0.4009  0.1623
 1480SOL    HW2 5966   0.663   2.087   2.861 -1.2538 -1.0362  0.1664
 1480SOL    HW3 5967   0.742   2.052   2.737  0.7643  0.2958  1.0440
 1480SOL    MW4 5968   0.672   2.087   2.775 -0.0008 -0.3927  0.2794
 1481SOL     OW 5969   0.673   2.351   2.681  0.3709  0.1090 -0.0931
 1481SOL    HW2 5970   0.743   2.385   2.736  1.0537 -1.6311  0.1472
 1481SOL    HW3 5971   0.657   2.262   2.714 -0.1569 -0.4569 -1.8009
 1481SOL    MW4 5972   0.680   2.344   2.693  0.3913 -0.1950 -0.2868
 1482SOL     OW 5973   0.423   2.409   2.737  0.0981 -0.1845 -0.2093
 1482SOL    HW2 5974   0.395   2.499   2.721  0.7442  0.1520  0.5654
 1482SOL    HW3 5975   0.517   2.409   2.716 -0.4120 -1.2865 -2.7301
 1482SOL    MW4 5976   0.432   2.421   2.732  0.1161 -0.2854 -0.4396
 1483SOL     OW 5977   0.416   2.684   2.685 -0.0081 -0.4352  0.0722
 1483SOL    HW2 5978   0.495   2.725   2.722  0.1179  1.0127 -1.7177
 1483SOL    HW3 5979   0.346   2.748   2.702 -0.7695 -1.6317  1.4916
 1483SOL    MW4 5980   0.417   2.698   2.692 -0.0919 -0.4022  0.0234
 1484SOL     OW 5981   0.673   2.794   2.773  0.0081  0.8448 -0.0276
 1484SOL    HW2 5982   0.682   2.796   2.868  0.0517  0.3467 -0.0196
 1484SOL    HW3 5983   0.670   2.886   2.747 -1.1347  0.9816  0.5624
 1484SOL    MW4 5984   0.674   2.806   2.782 -0.1369  0.7970  0.0515
 1485SOL     OW 5985   0.686   3.069   2.713 -0.5118  0.0840 -0.4765
 1485SOL    HW2 5986   0.775   3.092   2.740 -0.2092 -1.8793  0.2538
 1485SOL    HW3 5987   0.685   3.080   2.618  1.0965 -1.8579 -0.7196
 1485SOL    MW4 5988   0.697   3.074   2.704 -0.2597 -0.4311 -0.4125
 1486SOL     OW 5989   0.447   3.212   2.785 -0.1429 -0.0599  0.4624
 1486SOL    HW2 5990   0.450   3.223   2.880 -0.9005  1.8788  0.2826
 1486SOL    HW3 5991   0.529   3.168   2.764  0.4195  0.2429  1.9181
 1486SOL    MW4 5992   0.459   3.207   2.795 -0.1687  0.2358  0.6306
 1487SOL     OW 5993   0.436   3.512   2.707  0.2195 -0.1581  0.2117
 1487SOL    HW2 5994   0.463   3.427   2.742 -0.5623 -0.9899 -1.1509
 1487SOL    HW3 5995   0.450   3.504   2.612 -0.7603  0.9011 -0.0291
 1487SOL    MW4 5996   0.442   3.500   2.699 -0.0129 -0.1283  0.0002
 1488SOL     OW 5997   0.674   3.621   2.789  0.0290 -0.1623  0.0249
 1488SOL    HW2 5998   0.677   3.618   2.884  1.3055  1.6692  0.0755
 1488SOL    HW3 5999   0.596   3.571   2.765  0.9883 -2.6653  1.9022
 1488SOL    MW4 6000   0.664   3.614   2.798  0.3241 -0.2508  0.2794
 1489SOL     OW 6001   0.659   3.891   2.706  0.2615 -0.2516 -0.1307
 1489SOL    HW2 6002   0.573   3.920   2.736  1.3393  1.0796  1.7230
 1489SOL    HW3 6003   0.665   3.799   2.734 -1.0570 -0.7561 -1.4354
 1489SOL    MW4 6004   0.649   3.883   2.713  0.2298 -0.1423 -0.0582
 1490SOL     OW 6005   0.425   3.984   2.838  0.2273  0.0088 -0.7858
 1490SOL    HW2 6006   0.447   4.063   2.789 -0.5037  0.1155 -0.9548
 1490SOL    HW3 6007   0.345   3.951   2.795 -0.4028  0.0849  0.3108
 1490SOL    MW4 6008   0.417   3.990   2.826  0.0477  0.0329 -0.6633
 1491SOL     OW 6009   0.477   4.218   2.701  0.2379 -0.1753  0.4754
 1491SOL    HW2 6010   0.556   4.266   2.725 -0.4546  0.8528  0.7475
 1491SOL    HW3 6011   0.463   4.240   2.609 -0.6922  1.0710  0.8874
 1491SOL    MW4 6012   0.486   4.227   2.692  0.0238  0.1245  0.5655
 1492SOL     OW 6013   0.663   4.380   2.787 -0.7878 -0.0962 -0.1526
 1492SOL    HW2 6014   0.740   4.334   2.755 -0.7666  0.0075 -0.2478
 1492SOL    HW3 6015   0.663   4.463   2.741 -1.3941 -0.4181 -0.7396
 1492SOL    MW4 6016   0.673   4.385   2.777 -0.8649 -0.1245 -0.2427
 1493SOL     OW 6017   1.113   4.621   2.682  0.1059 -0.0369  0.5779
 1493SOL    HW2 6018   1.184   4.663   2.730  1.2107 -1.0010 -0.1675
 1493SOL    HW3 6019   1.116   4.529   2.710 -1.3596  0.0652  1.1285
 1493SOL    MW4 6020   1.123   4.614   2.692  0.0583 -0.1507  0.5522
 1494SOL     OW 6021   0.902   0.118   2.785 -0.6198  0.2594 -0.3614
 1494SOL    HW2 6022   0.923   0.119   2.878 -0.6686 -0.6188 -0.3337
 1494SOL    HW3 6023   0.969   0.062   2.746 -0.7261  0.4486 -0.8200
 1494SOL    MW4 6024   0.914   0.110   2.792 -0.6403  0.1685 -0.4184
 1495SOL     OW 6025   0.881   0.396   2.721  0.1522 -0.1083 -0.2284
 1495SOL    HW2 6026   0.901   0.305   2.743  1.1407  0.4259  1.1970
 1495SOL    HW3 6027   0.870   0.396   2.626  0.3940 -1.6643 -0.2759
 1495SOL    MW4 6028   0.882   0.384   2.711  0.3146 -0.2431 -0.0467
 1496SOL     OW 6029   1.125   0.543   2.773 -0.2218  0.4158  0.0640
 1496SOL    HW2 6030   1.129   0.631   2.735  0.4012 -0.0447 -0.9586
 1496SOL    HW3 6031   1.033   0.519   2.767 -0.4410  1.0875  0.5741
 1496SOL    MW4 6032   1.113   0.552   2.767 -0.1686  0.4436 -0.0036
 1497SOL     OW 6033   1.106   0.808   2.678  0.2556  0.7347  0.2400
 1497SOL    HW2 6034   1.181   0.859   2.709 -0.6871  2.0039  0.4456
 1497SOL    HW3 6035   1.116   0.808   2.583  0.7862  0.4867  0.2935
 1497SOL    MW4 6036   1.117   0.815   2.669  0.2011  0.8694  0.2742
 1498SOL     OW 6037   0.851   0.862   2.788 -0.1893 -0.0031  0.8244
 1498SOL    HW2 6038   0.872   0.877   2.881 -0.3608  0.8547  0.7371
 1498SOL    HW3 6039   0.936   0.848   2.746 -0.1224 -0.5229  1.1387
 1498SOL    MW4 6040   0.865   0.862   2.795 -0.2031  0.0415  0.8545
 1499SOL     OW 6041   0.851   1.137   2.707  0.2158 -0.2210 -0.0944
 1499SOL    HW2 6042   0.842   1.042   2.714  0.4974 -0.3784 -1.6242
 1499SOL    HW3 6043   0.850   1.154   2.613  1.6335  1.1422  0.1172
 1499SOL    MW4 6044   0.850   1.127   2.695  0.4399 -0.0621 -0.2680
 1500SOL     OW 6045   1.111   1.295   2.738  0.2023 -1.0223  0.0767
 1500SOL    HW2 6046   1.102   1.390   2.726 -0.5720 -1.0205  0.5928
 1500SOL    HW3 6047   1.021   1.263   2.740  0.4654 -2.2354 -3.5466
 1500SOL    MW4 6048   1.098   1.303   2.737  0.1349 -1.1822 -0.3335
 1501SOL     OW 6049   1.111   1.562   2.654 -0.2731 -0.0644  0.0015
 1501SOL    HW2 6050   1.036   1.613   2.685  0.6020  1.5388 -0.4482
 1501SOL    HW3 6051   1.112   1.576   2.560  0.1565 -0.6662 -0.0807
 1501SOL    MW4 6052   1.101   1.571   2.646 -0.1009  0.0678 -0.0689
 1502SOL     OW 6053   0.922   1.689   2.787 -0.1235  0.1110  0.5018
 1502SOL    HW2 6054   0.963   1.644   2.862 -0.3683  0.9859  1.1695
 1502SOL    HW3 6055   0.834   1.650   2.782 -0.3804  0.5860  1.1587
 1502SOL    MW4 6056   0.916   1.678   2.796 -0.1897  0.2891  0.6766
 1503SOL     OW 6057   0.899   1.950   2.706  0.1642  0.3017  0.1856
 1503SOL    HW2 6058   0.985   1.991   2.715  0.8227 -1.1287  0.4572
 1503SOL    HW3 6059   0.909   1.864   2.746 -0.7758 -0.7490 -1.8097
 1503SOL    MW4 6060   0.911   1.944   2.713  0.1270 -0.0257 -0.0420
 1504SOL     OW 6061   1.141   2.064   2.768  0.3167 -0.4833 -0.0798
 1504SOL    HW2 6062   1.217   2.021   2.730  1.4237  0.8262  0.5883
 1504SOL    HW3 6063   1.141   2.152   2.730  1.1117  0.6580  2.4269
 1504SOL    MW4 6064   1.151   2.070   2.758  0.5676 -0.1600  0.3393
 1505SOL     OW 6065   1.115   2.323   2.687  0.1183  0.1424  0.0216
 1505SOL    HW2 6066   1.207   2.343   2.701 -0.1633  0.8335  0.9519
 1505SOL    HW3 6067   1.103   2.328   2.592  0.8400  0.9549 -0.0350
 1505SOL    MW4 6068   1.126   2.326   2.677  0.1763  0.3409  0.1371
 1506SOL     OW 6069   0.889   2.448   2.814 -0.5242 -0.3900 -0.2497
 1506SOL    HW2 6070   0.903   2.535   2.776 -3.8946 -0.8004 -2.6798
 1506SOL    HW3 6071   0.965   2.397   2.787  0.7859  1.4162 -0.0167
 1506SOL    MW4 6072   0.901   2.453   2.805 -0.7961 -0.2058 -0.5395
 1507SOL     OW 6073   0.924   2.705   2.655  0.2445  0.2170 -0.3988
 1507SOL    HW2 6074   0.990   2.754   2.704  0.1513 -0.8877  0.8469
 1507SOL    HW3 6075   0.840   2.741   2.683  0.1727 -0.6740  0.5663
 1507SOL    MW4 6076   0.922   2.716   2.665  0.2227 -0.0465 -0.1073
 1508SOL     OW 6077   1.103   2.847   2.818 -0.2789  0.0315  0.6139
 1508SOL    HW2 6078   1.099   2.867   2.912  1.0295  2.2899  0.2225
 1508SOL    HW3 6079   1.185   2.800   2.807 -0.7217 -0.7628  0.6863
 1508SOL    MW4 6080   1.113   2.843   2.829 -0.1647  0.2248  0.5715
 1509SOL     OW 6081   1.148   3.096   2.674  0.0000  0.0000 -0.0324
 1509SOL    HW2 6082   1.122   3.007   2.697  0.0000  0.0000 -0.0444
 1509SOL    HW3 6083   1.136   3.101   2.579  0.0000  0.0000 -0.0322
 1509SOL    MW4 6084   1.143   3.085   2.665  0.0000  0.0000 -0.0339
 1510SOL     OW 6085   0.919   3.208   2.835  0.0000  0.0000  0.4008
 1510SOL    HW2 6086   0.903   3.287   2.783  0.0000  0.0000  0.4012
 1510SOL    HW3 6087   1.006   3.179   2.806  0.0000  0.0000  0.4017
 1510SOL    MW4 6088   0.928   3.215   2.824  0.0000  0.0000  0.4005
 1511SOL     OW 6089   0.887   3.462   2.680  0.0000  0.0000  0.0850
 1511SOL    HW2 6090   0.961   3.508   2.720  0.0000  0.0000  0.1416
 1511SOL    HW3 6091   0.810   3.512   2.709  0.0000  0.0000  0.0175
 1511SOL    MW4 6092   0.887   3.475   2.689  0.0000  0.0000  0.0837
 1512SOL     OW 6093   1.102   3.599   2.782  0.0000  0.0000 -0.1289
 1512SOL    HW2 6094   1.101   3.626   2.874  0.0000  0.0000 -0.1259
 1512SOL    HW3 6095   1.100   3.681   2.733  0.0000  0.0000 -0.1196
 1512SOL    MW4 6096   1.102   3.613   2.788  0.0000  0.0000 -0.1276
 1513SOL     OW 6097   1.098   3.851   2.665  0.0000  0.0000 -0.3081
 1513SOL    HW2 6098   1.178   3.889   2.703  0.0000  0.0000 -0.2917
 1513SOL    HW3 6099   1.110   3.859   2.571  0.0000  0.0000 -0.3055
 1513SOL    MW4 6100   1.110   3.857   2.658  0.0000  0.0000 -0.3054
 1514SOL     OW 6101   0.893   4.008   2.801  0.0000  0.0000 -0.3530
 1514SOL    HW2 6102   0.957   3.963   2.746  0.0000  0.0000 -0.3403
 1514SOL    HW3 6103   0.809   3.969   2.775  0.0000  0.0000 -0.3766
 1514SOL    MW4 6104   0.890   3.997   2.790  0.0000  0.0000 -0.3545
 1515SOL     OW 6105   0.888   4.266   2.703  0.0000  0.0000  0.0205
 1515SOL    HW2 6106   0.892   4.173   2.728  0.0000  0.0000  0.0155
 1515SOL    HW3 6107   0.884   4.265   2.607  0.0000  0.0000  0.0205
 1515SOL    MW4 6108   0.888   4.254   2.693  0.0000  0.0000  0.0200
 1516SOL     OW 6109   1.144   4.351   2.772  0.0000  0.0000 -0.2909
 1516SOL    HW2 6110   1.137   4.378   2.863  0.0000  0.0000 -0.2912
 1516SOL    HW3 6111   1.055   4.327   2.747  0.0000  0.0000 -0.2951
 1516SOL    MW4 6112   1.131   4.351   2.781  0.0000  0.0000 -0.2913
 1517SOL     OW 6113   1.593   4.643   2.641  0.0000  0.0000 -0.0902
 1517SOL    HW2 6114   1.588   4.549   2.657  0.0000  0.0000 -0.0968
 1517SOL    HW3 6115   1.581   4.652   2.547  0.0000  0.0000 -0.0896
 1517SOL    MW4 6116   1.591   4.632   2.631  0.0000  0.0000 -0.0913
 1518SOL     OW 6117   1.376   0.094   2.771  0.2114  0.5710 -0.2394
 1518SOL    HW2 6118   1.355   0.184   2.749 -0.9819  0.0782 -1.1834
 1518SOL    HW3 6119   1.450   0.072   2.714  0.4207  0.9073 -0.0987
 1518SOL    MW4 6120   1.383   0.103   2.760  0.0814  0.5504 -0.3455
 1519SOL     OW 6121   1.318   0.347   2.674  0.1010  0.4313  0.2628
 1519SOL    HW2 6122   1.394   0.393   2.710 -0.4287  0.4716  1.3287
 1519SOL    HW3 6123   1.243   0.399   2.703 -0.3122  0.8672 -1.4791
 1519SOL    MW4 6124   1.318   0.360   2.682 -0.0234  0.4941  0.1736
 1520SOL     OW 6125   1.572   0.508   2.757 -0.1448 -0.0406  0.3385
 1520SOL    HW2 6126   1.656   0.466   2.737  0.2882  0.5068  1.0001
 1520SOL    HW3 6127   1.579   0.595   2.719 -0.3190  0.0885  0.6018
 1520SOL    MW4 6128   1.584   0.514   2.749 -0.1107  0.0486  0.4606
 1521SOL     OW 6129   1.554   0.763   2.667 -0.1858 -0.6295  0.1919
 1521SOL    HW2 6130   1.465   0.783   2.693 -0.2189 -0.5702  0.0305
 1521SOL    HW3 6131   1.554   0.771   2.571  0.2081  0.2169  0.2658
 1521SOL    MW4 6132   1.542   0.766   2.658 -0.1382 -0.5100  0.1805
 1522SOL     OW 6133   1.345   0.886   2.779 -0.4735 -0.1588 -0.3796
 1522SOL    HW2 6134   1.350   0.894   2.874  1.9103  0.8530 -0.5693
 1522SOL    HW3 6135   1.352   0.976   2.747 -0.1881 -0.5934 -1.5592
 1522SOL    MW4 6136   1.347   0.899   2.787 -0.1212 -0.0827 -0.5603
 1523SOL     OW 6137   1.347   1.145   2.674 -0.0528 -0.2202 -0.1306
 1523SOL    HW2 6138   1.425   1.193   2.701  0.7744 -0.9897 -1.0792
 1523SOL    HW3 6139   1.275   1.204   2.692  0.7136  0.3530  1.1272
 1523SOL    MW4 6140   1.348   1.159   2.680  0.1576 -0.2462 -0.0899
 1524SOL     OW 6141   1.566   1.274   2.777  0.1786  0.6145  0.2598
 1524SOL    HW2 6142   1.562   1.281   2.873  1.4277  2.0937  0.2353
 1524SOL    HW3 6143   1.646   1.224   2.760 -2.1846 -3.2503  0.0570
 1524SOL    MW4 6144   1.576   1.268   2.788  0.0317  0.2998  0.2296
 1525SOL     OW 6145   1.522   1.526   2.641 -0.4332  0.6632  0.1715
 1525SOL    HW2 6146   1.551   1.439   2.671  0.3844  1.1544  0.8213
 1525SOL    HW3 6147   1.544   1.527   2.548 -1.2629 -0.1573 -0.0490
 1525SOL    MW4 6148   1.529   1.514   2.633 -0.4348  0.6198  0.2279
 1526SOL     OW 6149   1.346   1.682   2.771 -0.2418 -0.0444 -0.1786
 1526SOL    HW2 6150   1.411   1.628   2.726  0.5563  1.6624 -1.1446
 1526SOL    HW3 6151   1.263   1.660   2.730 -0.1658 -1.6801  0.5269
 1526SOL    MW4 6152   1.344   1.672   2.759 -0.1265 -0.0350 -0.2131
 1527SOL     OW 6153   1.356   1.943   2.665 -0.3255 -0.3845  0.0771
 1527SOL    HW2 6154   1.359   1.852   2.694 -0.0821 -0.1232  0.8906
 1527SOL    HW3 6155   1.336   1.938   2.572  1.6176 -1.3408 -0.3205
 1527SOL    MW4 6156   1.354   1.930   2.657 -0.0370 -0.4761  0.1318
 1528SOL     OW 6157   1.589   2.055   2.783  0.0536  0.0338  0.1710
 1528SOL    HW2 6158   1.662   2.010   2.740  1.7333  0.2982  2.6435
 1528SOL    HW3 6159   1.511   2.006   2.756  1.3811 -1.6325 -0.7334
 1528SOL    MW4 6160   1.589   2.043   2.774  0.4504 -0.1512  0.3779
 1529SOL     OW 6161   1.561   2.299   2.678  0.0501  0.2089 -0.2142
 1529SOL    HW2 6162   1.636   2.348   2.712  0.5978  0.1148 -1.2668
 1529SOL    HW3 6163   1.579   2.208   2.703 -1.0523  0.5309  1.8921
 1529SOL    MW4 6164   1.573   2.293   2.686 -0.0232  0.2389 -0.0753
 1530SOL     OW 6165   1.330   2.429   2.777 -0.1860 -0.1910 -0.6959
 1530SOL    HW2 6166   1.334   2.523   2.761  0.3921  0.3215  2.1266
 1530SOL    HW3 6167   1.412   2.394   2.744  0.0409  0.4489 -0.8038
 1530SOL    MW4 6168   1.341   2.437   2.771 -0.0796 -0.0391 -0.3381
 1531SOL     OW 6169   1.345   2.699   2.719 -0.4744  0.4819  0.0136
 1531SOL    HW2 6170   1.437   2.724   2.723 -0.0002 -1.0398 -1.0946
 1531SOL    HW3 6171   1.318   2.720   2.629 -1.1700  0.7735  0.2857
 1531SOL    MW4 6172   1.354   2.705   2.707 -0.5038  0.3197 -0.0966
 1532SOL     OW 6173   1.589   2.829   2.748 -0.2065  0.0782  0.2035
 1532SOL    HW2 6174   1.605   2.827   2.842 -0.0437 -0.8155  0.1620
 1532SOL    HW3 6175   1.664   2.783   2.710 -0.4396  0.1346 -0.3325
 1532SOL    MW4 6176   1.601   2.822   2.756 -0.2158 -0.0322  0.1273
 1533SOL     OW 6177   1.572   3.069   2.646 -0.1427  0.4219  0.5770
 1533SOL    HW2 6178   1.648   3.112   2.685  0.4950  0.4139 -0.6308
 1533SOL    HW3 6179   1.573   2.981   2.682  0.7597  0.2397  0.1237
 1533SOL    MW4 6180   1.582   3.063   2.656  0.0606  0.3970  0.3579
 1534SOL     OW 6181   1.380   3.228   2.756 -0.7243  0.3464 -0.2015
 1534SOL    HW2 6182   1.449   3.162   2.744 -2.0568 -1.5684  2.2546
 1534SOL    HW3 6183   1.299   3.183   2.731 -1.4300  1.6909 -0.3766
 1534SOL    MW4 6184   1.378   3.213   2.751 -0.9933  0.2713  0.0997
 1535SOL     OW 6185   1.325   3.486   2.650 -0.0302 -0.1770 -0.7732
 1535SOL    HW2 6186   1.343   3.396   2.678  1.2164  0.4266  0.3870
 1535SOL    HW3 6187   1.245   3.510   2.696 -0.7799 -0.9198 -1.6442
 1535SOL    MW4 6188   1.317   3.477   2.660  0.0353 -0.1955 -0.7348
 1536SOL     OW 6189   1.524   3.611   2.767  0.4488 -0.3378  0.2895
 1536SOL    HW2 6190   1.600   3.556   2.752  0.5855  0.6302 -2.9649
 1536SOL    HW3 6191   1.452   3.566   2.723  0.0739  0.8176 -0.3210
 1536SOL    MW4 6192   1.525   3.598   2.759  0.4174 -0.0579 -0.2205
 1537SOL     OW 6193   1.545   3.875   2.665  0.0459 -0.0762  0.3673
 1537SOL    HW2 6194   1.458   3.907   2.689 -1.2562 -0.2009 -3.9384
 1537SOL    HW3 6195   1.549   3.786   2.702 -1.0253  0.4979  1.8943
 1537SOL    MW4 6196   1.534   3.867   2.673 -0.2673 -0.0169  0.0005
 1538SOL     OW 6197   1.312   3.994   2.770 -0.1949  0.0525  0.0757
 1538SOL    HW2 6198   1.295   4.007   2.863  0.6268  2.9784 -0.1316
 1538SOL    HW3 6199   1.333   4.082   2.737  0.2637 -1.0557 -2.7106
 1538SOL    MW4 6200   1.313   4.008   2.778 -0.0260  0.2928 -0.3192
 1539SOL     OW 6201   1.367   4.247   2.655 -0.2451  0.9038  0.5834
 1539SOL    HW2 6202   1.281   4.282   2.680 -0.6096  0.2885  0.2059
 1539SOL    HW3 6203   1.367   4.249   2.559 -0.4533 -0.5264  0.5360
 1539SOL    MW4 6204   1.355   4.252   2.646 -0.3206  0.6342  0.5274
 1540SOL     OW 6205   1.585   4.377   2.771  0.6365 -0.5658 -0.3419
 1540SOL    HW2 6206   1.569   4.406   2.861 -0.0740  0.3400 -0.7425
 1540SOL    HW3 6207   1.507   4.327   2.748  0.4531 -0.1128 -0.7207
 1540SOL    MW4 6208   1.572   4.374   2.780  0.5187 -0.3867 -0.4444
 1541SOL     OW 6209   2.012   4.658   2.625 -0.4358 -0.1933  0.0057
 1541SOL    HW2 6210   2.091   4.690   2.668 -0.4499 -0.7465  0.4553
 1541SOL    HW3 6211   2.030   4.667   2.532  0.4525 -0.9956  0.0952
 1541SOL    MW4 6212   2.025   4.663   2.618 -0.3204 -0.3724  0.0770
 1542SOL     OW 6213   1.804   0.151   2.763 -0.4624  0.1498  0.3593
 1542SOL    HW2 6214   1.877   0.118   2.711 -0.5719  0.8856 -0.2708
 1542SOL    HW3 6215   1.735   0.085   2.753  0.0866 -0.5044  0.8903
 1542SOL    MW4 6216   1.804   0.138   2.755 -0.4044  0.1606  0.3462
 1543SOL     OW 6217   1.818   0.410   2.666 -0.5978  0.0159  0.4568
 1543SOL    HW2 6218   1.901   0.435   2.705 -0.3931  0.7820 -0.4551
 1543SOL    HW3 6219   1.805   0.319   2.694  0.1837  0.1278  1.2008
 1543SOL    MW4 6220   1.827   0.401   2.675 -0.4678  0.1318  0.4346
 1544SOL     OW 6221   2.057   0.489   2.754 -0.0385  0.2011 -0.2628
 1544SOL    HW2 6222   2.140   0.460   2.717  0.3450 -1.1730  1.5742
 1544SOL    HW3 6223   2.048   0.580   2.726  1.6602  0.0902 -1.1980
 1544SOL    MW4 6224   2.067   0.497   2.746  0.2360  0.0052 -0.1438
 1545SOL     OW 6225   2.053   0.743   2.666  0.6930  0.1783 -0.2969
 1545SOL    HW2 6226   1.975   0.795   2.683  0.1219 -0.4117 -1.0925
 1545SOL    HW3 6227   2.065   0.747   2.571 -0.8844 -3.3046 -0.6832
 1545SOL    MW4 6228   2.045   0.751   2.656  0.4096 -0.3591 -0.4528
 1546SOL     OW 6229   1.803   0.879   2.761  0.0485  0.1045 -0.4285
 1546SOL    HW2 6230   1.791   0.972   2.745  1.2690  0.2992 -0.2435
 1546SOL    HW3 6231   1.719   0.839   2.737 -0.6537  1.3115  0.0141
 1546SOL    MW4 6232   1.790   0.886   2.756  0.1171  0.2894 -0.3457
 1547SOL     OW 6233   1.797   1.157   2.696 -0.0333 -0.0379 -0.4878
 1547SOL    HW2 6234   1.880   1.196   2.724 -0.0765 -0.0758 -0.3083
 1547SOL    HW3 6235   1.805   1.151   2.601 -0.8675  2.2981 -0.7272
 1547SOL    MW4 6236   1.809   1.161   2.687 -0.1491  0.2654 -0.4957
 1548SOL     OW 6237   2.046   1.278   2.759 -0.6024  0.1328 -0.5362
 1548SOL    HW2 6238   2.046   1.268   2.854  0.5638 -0.8316 -0.6242
 1548SOL    HW3 6239   2.117   1.221   2.729 -1.5909 -0.3241 -2.0621
 1548SOL    MW4 6240   2.055   1.269   2.768 -0.5791 -0.0547 -0.7493
 1549SOL     OW 6241   2.024   1.549   2.675  0.2861  0.4668  0.1623
 1549SOL    HW2 6242   1.939   1.588   2.696 -0.0483  0.2741 -0.8193
 1549SOL    HW3 6243   2.016   1.457   2.702  0.7015  0.7963  1.4564
 1549SOL    MW4 6244   2.012   1.542   2.682  0.2966  0.4847  0.2036
 1550SOL     OW 6245   1.767   1.639   2.703  0.1551 -0.3164  0.1560
 1550SOL    HW2 6246   1.760   1.646   2.799  1.5600 -0.3614  0.2674
 1550SOL    HW3 6247   1.693   1.584   2.678 -1.0667  0.8642  1.0671
 1550SOL    MW4 6248   1.756   1.633   2.713  0.1792 -0.1665  0.2909
 1551SOL     OW 6249   1.779   1.919   2.626 -0.7505 -0.2586  0.1699
 1551SOL    HW2 6250   1.863   1.945   2.663 -0.2173 -0.7136 -0.7191
 1551SOL    HW3 6251   1.771   1.826   2.649 -0.8061 -0.3297 -0.1437
 1551SOL    MW4 6252   1.789   1.910   2.634 -0.6875 -0.3281  0.0110
 1552SOL     OW 6253   2.003   2.023   2.746 -0.0623 -0.4873  0.5345
 1552SOL    HW2 6254   2.017   2.019   2.841  0.2533  1.3749  0.5748
 1552SOL    HW3 6255   1.989   2.116   2.727  0.3116 -0.7860 -1.3040
 1552SOL    MW4 6256   2.003   2.035   2.756  0.0286 -0.2806  0.2973
 1553SOL     OW 6257   1.988   2.309   2.657 -0.2199  0.5003  0.2452
 1553SOL    HW2 6258   2.060   2.356   2.698  0.9173 -0.5708 -0.5095
 1553SOL    HW3 6259   2.013   2.302   2.565 -0.5583 -1.2159  0.2675
 1553SOL    MW4 6260   2.001   2.314   2.650 -0.1144  0.1326  0.1485
 1554SOL     OW 6261   1.763   2.453   2.748  0.3866  0.6384 -0.4095
 1554SOL    HW2 6262   1.755   2.441   2.842  0.2354  2.0367 -0.2338
 1554SOL    HW3 6263   1.838   2.400   2.723  1.0868  1.1067  0.6663
 1554SOL    MW4 6264   1.772   2.444   2.757  0.4590  0.8848 -0.2441
 1555SOL     OW 6265   1.808   2.704   2.635  0.1590  0.0794 -0.4235
 1555SOL    HW2 6266   1.807   2.616   2.672  0.5455  0.5011  0.6205
 1555SOL    HW3 6267   1.797   2.691   2.541  1.2471 -1.1488 -0.3997
 1555SOL    MW4 6268   1.807   2.691   2.627  0.3536 -0.0269 -0.2825
 1556SOL     OW 6269   2.018   2.815   2.779 -0.1587 -0.3245 -0.7192
 1556SOL    HW2 6270   2.092   2.759   2.755 -1.2540 -1.5910 -1.2338
 1556SOL    HW3 6271   1.945   2.780   2.727 -1.1327  0.8370 -0.1341
 1556SOL    MW4 6272   2.018   2.803   2.769 -0.4318 -0.3383 -0.7095
 1557SOL     OW 6273   2.044   3.070   2.676 -0.1160 -0.3066  0.1258
 1557SOL    HW2 6274   2.044   2.983   2.715  1.6272 -0.8487 -1.0328
 1557SOL    HW3 6275   2.039   3.054   2.582  1.4297  0.7889 -0.1588
 1557SOL    MW4 6276   2.043   3.056   2.669  0.3178 -0.2339 -0.0646
 1558SOL     OW 6277   1.785   3.202   2.774  0.0135  0.6145 -0.0895
 1558SOL    HW2 6278   1.779   3.294   2.747  1.1061  1.0894  1.1947
 1558SOL    HW3 6279   1.860   3.168   2.726 -0.9212  0.1452 -1.2266
 1558SOL    MW4 6280   1.794   3.210   2.764  0.0343  0.6156 -0.0699
 1559SOL     OW 6281   1.735   3.444   2.695  0.4150 -0.2012 -0.0210
 1559SOL    HW2 6282   1.817   3.491   2.710  0.8593 -0.8868 -0.2737
 1559SOL    HW3 6283   1.727   3.439   2.600  0.6023 -1.0369  0.0046
 1559SOL    MW4 6284   1.745   3.450   2.685  0.4984 -0.4020 -0.0510
 1560SOL     OW 6285   1.971   3.597   2.746 -0.1669 -0.1965  0.0198
 1560SOL    HW2 6286   1.972   3.582   2.841 -0.2844 -2.7586 -0.3552
 1560SOL    HW3 6287   2.052   3.558   2.714 -0.6773 -0.3870 -1.0803
 1560SOL    MW4 6288   1.981   3.590   2.754 -0.2499 -0.5598 -0.1748
 1561SOL     OW 6289   2.051   3.854   2.656  0.5676  0.4848 -0.3540
 1561SOL    HW2 6290   1.968   3.892   2.686  1.3176  1.6963  0.1992
 1561SOL    HW3 6291   2.044   3.761   2.678  0.0405  0.8764  1.1915
 1561SOL    MW4 6292   2.039   3.847   2.663  0.5970  0.6964 -0.0770
 1562SOL     OW 6293   1.796   3.988   2.751 -0.4407 -0.0674 -0.9565
 1562SOL    HW2 6294   1.790   4.081   2.733  1.4365  0.1345 -0.5802
 1562SOL    HW3 6295   1.711   3.953   2.722 -1.1048  1.7069 -1.2369
 1562SOL    MW4 6296   1.784   3.995   2.745 -0.2805  0.1936 -0.9437
 1563SOL     OW 6297   1.819   4.256   2.677 -0.0611 -0.2886 -0.5019
 1563SOL    HW2 6298   1.735   4.285   2.711  0.3893 -0.2614  0.6170
 1563SOL    HW3 6299   1.812   4.267   2.582 -1.8883 -1.7970 -0.5652
 1563SOL    MW4 6300   1.807   4.261   2.669 -0.2428 -0.4845 -0.3626
 1564SOL     OW 6301   2.012   4.411   2.757  0.3554 -0.0393 -0.2189
 1564SOL    HW2 6302   2.004   4.495   2.713 -2.2810  0.7127  1.5639
 1564SOL    HW3 6303   1.941   4.358   2.721  0.5142 -0.6877  0.4084
 1564SOL    MW4 6304   2.002   4.415   2.747  0.0284 -0.0262  0.0989
 1565SOL     OW 6305   2.507   4.662   2.669 -0.0046 -0.0896  0.0306
 1565SOL    HW2 6306   2.585   4.693   2.715  0.4357 -2.4622  0.9270
 1565SOL    HW3 6307   2.527   4.675   2.577  0.4419  1.5984  0.3441
 1565SOL    MW4 6308   2.520   4.668   2.663  0.1128 -0.1802  0.1903
 1566SOL     OW 6309   2.255   0.116   2.733 -0.3293  0.1878 -0.0622
 1566SOL    HW2 6310   2.279   0.123   2.826 -1.3625 -1.3086  0.3459
 1566SOL    HW3 6311   2.329   0.070   2.693 -0.8408 -1.0857  0.4472
 1566SOL    MW4 6312   2.268   0.111   2.740 -0.5331 -0.1777  0.0591
 1567SOL     OW 6313   2.286   0.383   2.647 -0.3422 -0.4006 -0.3879
 1567SOL    HW2 6314   2.276   0.290   2.667 -2.2162 -0.0864  0.2330
 1567SOL    HW3 6315   2.268   0.389   2.553 -0.4737 -0.6176 -0.3763
 1567SOL    MW4 6316   2.282   0.371   2.637 -0.6068 -0.3878 -0.3045
 1568SOL     OW 6317   2.490   0.501   2.776 -0.6573  0.4911  0.0697
 1568SOL    HW2 6318   2.489   0.591   2.743 -0.8038 -0.5139 -2.8236
 1568SOL    HW3 6319   2.423   0.456   2.724  0.9105 -1.7948 -0.0421
 1568SOL    MW4 6320   2.481   0.507   2.765 -0.4697  0.0569 -0.3266
 1569SOL     OW 6321   2.516   0.750   2.679  0.3721 -0.2593 -0.4186
 1569SOL    HW2 6322   2.437   0.795   2.708  1.8141  2.1096 -0.0091
 1569SOL    HW3 6323   2.508   0.746   2.583 -0.4088 -0.3420 -0.3464
 1569SOL    MW4 6324   2.505   0.755   2.670  0.4592  0.0424 -0.3548
 1570SOL     OW 6325   2.293   0.847   2.774 -0.0984 -0.1617 -0.1974
 1570SOL    HW2 6326   2.281   0.861   2.868  0.2424  0.4247 -0.2424
 1570SOL    HW3 6327   2.211   0.806   2.745  0.3457 -1.6636  0.6170
 1570SOL    MW4 6328   2.280   0.843   2.782  0.0055 -0.2825 -0.0958
 1571SOL     OW 6329   2.258   1.117   2.698 -0.4194  0.2948 -0.3193
 1571SOL    HW2 6330   2.275   1.029   2.731 -0.5625  0.4356  0.1297
 1571SOL    HW3 6331   2.253   1.107   2.603 -0.6622 -0.2179 -0.2502
 1571SOL    MW4 6332   2.259   1.104   2.690 -0.4702  0.2458 -0.2511
 1572SOL     OW 6333   2.446   1.279   2.814  0.3640 -0.4242  0.2989
 1572SOL    HW2 6334   2.518   1.226   2.781 -0.0130  0.8847 -2.7878
 1572SOL    HW3 6335   2.367   1.235   2.783 -0.0439  0.0818  0.6098
 1572SOL    MW4 6336   2.445   1.267   2.806  0.2606 -0.1849 -0.0675
 1573SOL     OW 6337   2.418   1.536   2.690  0.0062  0.1161 -0.0628
 1573SOL    HW2 6338   2.353   1.574   2.750 -1.1723 -0.4909 -0.9395
 1573SOL    HW3 6339   2.437   1.449   2.727 -0.6681 -0.2308 -0.5373
 1573SOL    MW4 6340   2.412   1.530   2.703 -0.2384 -0.0098 -0.2410
 1574SOL     OW 6341   2.217   1.710   2.802 -0.5145 -0.5491  0.0211
 1574SOL    HW2 6342   2.229   1.782   2.739  1.5581 -1.2400 -0.4144
 1574SOL    HW3 6343   2.155   1.651   2.759 -0.8218  0.0880 -0.4163
 1574SOL    MW4 6344   2.210   1.712   2.788 -0.2818 -0.5562 -0.0939
 1575SOL     OW 6345   2.248   1.936   2.642  0.0073 -0.3999 -0.1614
 1575SOL    HW2 6346   2.167   1.977   2.672  0.3312  0.0001  0.1708
 1575SOL    HW3 6347   2.233   1.919   2.549 -0.4774 -0.3780 -0.0892
 1575SOL    MW4 6348   2.235   1.939   2.634 -0.0138 -0.3442 -0.1080
 1576SOL     OW 6349   2.399   2.032   2.845  0.5263  0.4162 -0.1613
 1576SOL    HW2 6350   2.400   2.119   2.806  0.5662  0.6238  0.3014
 1576SOL    HW3 6351   2.357   1.977   2.779  1.5845  0.5426 -0.9527
 1576SOL    MW4 6352   2.394   2.036   2.831  0.6711  0.4604 -0.2046
 1577SOL     OW 6353   2.428   2.261   2.688  0.0423  0.2087 -0.2386
 1577SOL    HW2 6354   2.492   2.322   2.725  0.2357  0.9319 -1.7684
 1577SOL    HW3 6355   2.452   2.252   2.596 -0.5921 -1.4031 -0.2751
 1577SOL    MW4 6356   2.440   2.268   2.681 -0.0160  0.0913 -0.4454
 1578SOL     OW 6357   2.208   2.427   2.756  0.2355 -0.2117  0.6299
 1578SOL    HW2 6358   2.216   2.447   2.849 -0.0896 -1.0339  0.8309
 1578SOL    HW3 6359   2.279   2.365   2.739 -0.0754 -0.5221  0.4619
 1578SOL    MW4 6360   2.219   2.422   2.766  0.1516 -0.3610  0.6344
 1579SOL     OW 6361   2.251   2.682   2.680  0.1807  0.4924  0.0407
 1579SOL    HW2 6362   2.335   2.714   2.712  0.2621 -0.4201  0.7727
 1579SOL    HW3 6363   2.252   2.588   2.701 -1.3242  0.6162  0.7366
 1579SOL    MW4 6364   2.262   2.674   2.687 -0.0072  0.3881  0.2291
 1580SOL     OW 6365   2.471   2.799   2.794  0.0621  0.0752  0.3100
 1580SOL    HW2 6366   2.547   2.754   2.758  1.0926  1.3377  0.8619
 1580SOL    HW3 6367   2.463   2.879   2.741 -1.5618 -0.5797 -0.4647
 1580SOL    MW4 6368   2.480   2.804   2.782 -0.0160  0.1557  0.2804
 1581SOL     OW 6369   2.488   3.041   2.656 -0.0891 -0.5234  0.0973
 1581SOL    HW2 6370   2.415   3.094   2.689 -0.2285 -0.5124 -0.2269
 1581SOL    HW3 6371   2.480   3.047   2.561  0.2808 -0.5994  0.0644
 1581SOL    MW4 6372   2.477   3.049   2.648 -0.0587 -0.5319  0.0503
 1582SOL     OW 6373   2.267   3.184   2.749 -0.0917 -0.2402  0.2973
 1582SOL    HW2 6374   2.268   3.193   2.844  0.2289  1.0154  0.1850
 1582SOL    HW3 6375   2.182   3.146   2.729 -0.4596  0.1959  1.0265
 1582SOL    MW4 6376   2.256   3.180   2.759 -0.0978 -0.0169  0.3786
 1583SOL     OW 6377   2.207   3.453   2.713 -0.1427  0.3012 -0.1963
 1583SOL    HW2 6378   2.293   3.494   2.725  0.1147 -0.3686  0.3254
 1583SOL    HW3 6379   2.224   3.359   2.720 -0.9315  0.1647 -0.0179
 1583SOL    MW4 6380   2.221   3.446   2.716 -0.2127  0.1948 -0.1037
 1584SOL     OW 6381   2.439   3.601   2.729  0.1400 -0.3162 -0.5363
 1584SOL    HW2 6382   2.434   3.621   2.822  0.6245 -1.4037 -0.2726
 1584SOL    HW3 6383   2.440   3.687   2.686 -0.2913  0.1841  0.4428
 1584SOL    MW4 6384   2.439   3.615   2.735  0.1471 -0.3934 -0.3722
 1585SOL     OW 6385   2.456   3.891   2.673  0.5720 -0.0550 -0.0187
 1585SOL    HW2 6386   2.533   3.922   2.720 -0.8653  1.3452  1.4849
 1585SOL    HW3 6387   2.382   3.935   2.717 -1.1087 -1.7531 -1.0849
 1585SOL    MW4 6388   2.456   3.901   2.685  0.1609 -0.0944  0.0391
 1586SOL     OW 6389   2.243   4.002   2.808 -0.3296 -0.1462  0.2713
 1586SOL    HW2 6390   2.223   4.011   2.901 -0.0458 -0.7757  0.3976
 1586SOL    HW3 6391   2.181   3.937   2.777 -0.7234  0.3971 -0.0799
 1586SOL    MW4 6392   2.232   3.995   2.816 -0.3440 -0.1576  0.2418
 1587SOL     OW 6393   2.258   4.255   2.691 -0.0437  0.0395  0.0183
 1587SOL    HW2 6394   2.252   4.173   2.739  1.4852  0.4833  1.0259
 1587SOL    HW3 6395   2.177   4.302   2.712 -0.2013 -0.5370  0.7278
 1587SOL    MW4 6396   2.247   4.250   2.700  0.1371  0.0215  0.2446
 1588SOL     OW 6397   2.492   4.396   2.728  0.2268  0.2243  0.0505
 1588SOL    HW2 6398   2.405   4.363   2.705 -0.5604  0.9538  1.8613
 1588SOL    HW3 6399   2.493   4.486   2.698  0.7963 -0.1314 -1.0163
 1588SOL    MW4 6400   2.481   4.403   2.721  0.1981  0.2737  0.1483
 1589SOL     OW 6401   2.884   4.661   2.673  0.1116 -0.4786  0.1256
 1589SOL    HW2 6402   2.975   4.681   2.695  0.2271 -0.4750 -0.3547
 1589SOL    HW3 6403   2.882   4.659   2.578 -0.5614  0.2988  0.1172
 1589SOL    MW4 6404   2.895   4.663   2.664  0.0381 -0.3755  0.0608
 1590SOL     OW 6405   2.700   0.166   2.784 -0.0936 -0.0289 -0.2190
 1590SOL    HW2 6406   2.689   0.144   2.877 -0.8072 -0.4223 -0.3888
 1590SOL    HW3 6407   2.771   0.109   2.754 -0.2404 -0.3016 -0.0479
 1590SOL    MW4 6408   2.708   0.156   2.792 -0.2069 -0.1168 -0.2186
 1591SOL     OW 6409   2.711   0.405   2.636  0.1382 -0.3902 -0.1620
 1591SOL    HW2 6410   2.708   0.320   2.681  0.5756 -0.6189 -0.5542
 1591SOL    HW3 6411   2.641   0.456   2.676  1.7319  0.0732  2.1259
 1591SOL    MW4 6412   2.702   0.400   2.647  0.4060 -0.3592  0.0882
 1592SOL     OW 6413   2.935   0.481   2.768 -0.0259 -0.0744 -0.0107
 1592SOL    HW2 6414   2.939   0.575   2.750  0.6302  0.3250  2.0868
 1592SOL    HW3 6415   2.849   0.454   2.734 -1.1119  1.7021  1.2075
 1592SOL    MW4 6416   2.924   0.490   2.761 -0.0827  0.2127  0.4268
 1593SOL     OW 6417   2.937   0.768   2.681 -0.1910  0.0140 -0.4785
 1593SOL    HW2 6418   3.006   0.810   2.732  0.2398 -0.2390 -0.8486
 1593SOL    HW3 6419   2.856   0.808   2.712  0.1601  0.6287 -0.3576
 1593SOL    MW4 6420   2.935   0.779   2.692 -0.0875  0.0618 -0.5116
 1594SOL     OW 6421   2.717   0.874   2.803 -0.1239 -0.3485  0.2762
 1594SOL    HW2 6422   2.723   0.859   2.897 -0.2026 -0.3734  0.2774
 1594SOL    HW3 6423   2.640   0.823   2.776 -0.2061 -0.1977  0.2279
 1594SOL    MW4 6424   2.707   0.865   2.811 -0.1450 -0.3319  0.2699
 1595SOL     OW 6425   2.662   1.137   2.702  0.7870  0.4451  0.5592
 1595SOL    HW2 6426   2.735   1.189   2.737  0.6058  0.5614  0.7621
 1595SOL    HW3 6427   2.671   1.052   2.744  0.6592  0.5374  0.7750
 1595SOL    MW4 6428   2.673   1.133   2.712  0.7463  0.4727  0.6144
 1596SOL     OW 6429   2.920   1.298   2.787  0.6870 -0.1560 -0.4691
 1596SOL    HW2 6430   2.921   1.279   2.880  0.7001 -1.0676 -0.6490
 1596SOL    HW3 6431   2.976   1.232   2.748  1.4762  0.8295 -1.0218
 1596SOL    MW4 6432   2.927   1.287   2.794  0.7927 -0.1463 -0.5655
 1597SOL     OW 6433   2.852   1.540   2.658 -0.1040 -0.2242 -0.5338
 1597SOL    HW2 6434   2.772   1.576   2.697  0.0988 -0.6900  0.3207
 1597SOL    HW3 6435   2.869   1.460   2.707 -0.0941 -1.0675 -1.8945
 1597SOL    MW4 6436   2.843   1.534   2.670 -0.0756 -0.3970 -0.6006
 1598SOL     OW 6437   2.649   1.671   2.774  0.0322  0.4759 -0.0208
 1598SOL    HW2 6438   2.645   1.655   2.868  2.0482 -1.5542 -0.2367
 1598SOL    HW3 6439   2.572   1.627   2.738  0.7384 -1.1351  0.3991
 1598SOL    MW4 6440   2.639   1.663   2.782  0.3915 -0.0044  0.0060
 1599SOL     OW 6441   2.639   1.945   2.710  0.4977 -0.5085 -0.6741
 1599SOL    HW2 6442   2.643   1.852   2.733  3.1175  0.4476  3.2340
 1599SOL    HW3 6443   2.568   1.980   2.765  1.6256  0.3430  0.2711
 1599SOL    MW4 6444   2.630   1.937   2.721  0.9921 -0.2700 -0.0336
 1600SOL     OW 6445   2.856   2.053   2.827 -0.0546 -0.8401  0.2593
 1600SOL    HW2 6446   2.851   2.146   2.804  0.6479 -0.7483  0.4530
 1600SOL    HW3 6447   2.782   2.013   2.783 -0.2542 -0.2157  0.0231
 1600SOL    MW4 6448   2.846   2.060   2.818  0.0119 -0.7455  0.2537
 1601SOL     OW 6449   2.846   2.320   2.692  0.3034 -0.0789  0.2132
 1601SOL    HW2 6450   2.926   2.367   2.716 -0.1466  0.5395  0.5252
 1601SOL    HW3 6451   2.777   2.363   2.742 -0.3304 -0.1749 -0.5613
 1601SOL    MW4 6452   2.848   2.332   2.702  0.1605 -0.0100  0.1519
 1602SOL     OW 6453   2.597   2.433   2.804  0.2183 -0.2182  0.3271
 1602SOL    HW2 6454   2.610   2.416   2.897 -1.0372  0.6281  0.6731
 1602SOL    HW3 6455   2.626   2.523   2.792 -2.1042  0.5784  0.4589
 1602SOL    MW4 6456   2.602   2.442   2.815 -0.2537 -0.0017  0.3903
 1603SOL     OW 6457   2.686   2.664   2.708  0.1110 -0.3072  0.6520
 1603SOL    HW2 6458   2.765   2.708   2.740  0.1297  0.7081 -0.7126
 1603SOL    HW3 6459   2.698   2.662   2.613 -1.5599 -0.0281  0.4270
 1603SOL    MW4 6460   2.698   2.670   2.699 -0.1068 -0.1364  0.4420
 1604SOL     OW 6461   2.909   2.814   2.788  0.0045 -0.2032 -0.3708
 1604SOL    HW2 6462   2.902   2.829   2.882  0.8708 -0.6489 -0.2282
 1604SOL    HW3 6463   2.902   2.901   2.749 -0.3498 -0.0177  0.1068
 1604SOL    MW4 6464   2.907   2.827   2.795  0.0718 -0.2375 -0.2890
 1605SOL     OW 6465   2.923   3.062   2.663 -0.3173  0.2570  0.3330
 1605SOL    HW2 6466   2.843   3.105   2.693  0.1540  2.4283 -1.4113
 1605SOL    HW3 6467   2.922   3.074   2.568  1.0026 -1.5901  0.0549
 1605SOL    MW4 6468   2.912   3.069   2.654 -0.0811  0.2995  0.0660
 1606SOL     OW 6469   2.693   3.178   2.771  0.2278 -0.3157  0.2848
 1606SOL    HW2 6470   2.687   3.271   2.747 -0.2691 -0.2817  0.5398
 1606SOL    HW3 6471   2.628   3.135   2.715  1.3258 -0.6901 -0.7305
 1606SOL    MW4 6472   2.684   3.184   2.760  0.3073 -0.3610  0.1843
 1607SOL     OW 6473   2.674   3.475   2.687 -0.6147  0.2396 -0.0384
 1607SOL    HW2 6474   2.598   3.529   2.704 -1.0490 -0.4082  0.0918
 1607SOL    HW3 6475   2.675   3.464   2.592 -0.7685  0.1162 -0.0242
 1607SOL    MW4 6476   2.664   3.481   2.676 -0.6921  0.1380 -0.0193
 1608SOL     OW 6477   2.925   3.609   2.724  0.2135  0.4555  1.2471
 1608SOL    HW2 6478   2.904   3.624   2.816 -0.8980 -1.7002  1.3745
 1608SOL    HW3 6479   2.845   3.571   2.687  0.7455  1.0141 -0.5485
 1608SOL    MW4 6480   2.912   3.606   2.731  0.1369  0.2449  1.0271
 1609SOL     OW 6481   2.887   3.881   2.623  0.1763 -0.1814 -0.2206
 1609SOL    HW2 6482   2.961   3.929   2.661  0.1242  0.4948 -0.9599
 1609SOL    HW3 6483   2.898   3.792   2.655  0.0415  0.4069  1.5038
 1609SOL    MW4 6484   2.898   3.876   2.632  0.1516 -0.0145 -0.0906
 1610SOL     OW 6485   2.709   3.984   2.795 -0.1437  0.2224  0.1827
 1610SOL    HW2 6486   2.715   4.073   2.759 -1.0362  1.5798  3.2199
 1610SOL    HW3 6487   2.765   3.932   2.738 -0.4774  2.4923 -2.3641
 1610SOL    MW4 6488   2.717   3.989   2.783 -0.3057  0.7007  0.2472
 1611SOL     OW 6489   2.708   4.233   2.685  0.0814  0.3458  0.5951
 1611SOL    HW2 6490   2.780   4.284   2.722  0.2709  0.4863  0.0393
 1611SOL    HW3 6491   2.629   4.283   2.707  0.3475  1.3759 -0.7710
 1611SOL    MW4 6492   2.707   4.246   2.693  0.1414  0.5002  0.3414
 1612SOL     OW 6493   2.924   4.394   2.784  0.2578 -0.3459  0.2666
 1612SOL    HW2 6494   2.924   4.410   2.879  0.2511 -2.7362  0.6975
 1612SOL    HW3 6495   2.907   4.480   2.746  1.0259  0.8043  2.4026
 1612SOL    MW4 6496   2.922   4.407   2.792  0.3583 -0.5093  0.6053
 1613SOL     OW 6497   3.390   0.012   2.700  0.3602  0.0670  0.0690
 1613SOL    HW2 6498   3.377  -0.070   2.748  0.9996  0.2182  0.5058
 1613SOL    HW3 6499   3.308   0.060   2.712 -0.1554 -0.6657 -0.4940
 1613SOL    MW4 6500   3.377   0.007   2.708  0.3767 -0.0095  0.0522
 1614SOL     OW 6501   3.116   0.108   2.767 -0.4491 -0.0665  0.1158
 1614SOL    HW2 6502   3.119   0.112   2.863 -1.5017 -0.8172  0.2010
 1614SOL    HW3 6503   3.124   0.199   2.739  2.0340 -0.0282  0.8227
 1614SOL    MW4 6504   3.117   0.120   2.776 -0.2606 -0.1605  0.2201
 1615SOL     OW 6505   3.156   0.346   2.665  1.0266 -0.2155 -0.4173
 1615SOL    HW2 6506   3.088   0.408   2.694  1.7418  0.1299  0.5343
 1615SOL    HW3 6507   3.144   0.340   2.570  1.0584  1.5211 -0.5430
 1615SOL    MW4 6508   3.145   0.354   2.656  1.1249  0.0592 -0.3088
 1616SOL     OW 6509   3.356   0.506   2.763 -0.1519 -0.1888  0.5958
 1616SOL    HW2 6510   3.340   0.600   2.751 -1.7826 -0.3072  1.7623
 1616SOL    HW3 6511   3.288   0.463   2.712 -0.4195 -0.7286  1.3966
 1616SOL    MW4 6512   3.345   0.513   2.755 -0.4027 -0.2756  0.8552
 1617SOL     OW 6513   3.326   0.765   2.677  0.0930 -0.2971  0.1872
 1617SOL    HW2 6514   3.409   0.797   2.711 -0.8229  1.3224  0.9956
 1617SOL    HW3 6515   3.340   0.755   2.583  1.3286 -0.4873  0.3870
 1617SOL    MW4 6516   3.339   0.768   2.669  0.1352 -0.1085  0.3202
 1618SOL     OW 6517   3.146   0.905   2.824  0.3971 -0.5963 -0.3328
 1618SOL    HW2 6518   3.159   0.877   2.914 -1.0118 -0.5018 -0.0881
 1618SOL    HW3 6519   3.220   0.868   2.776  0.4929 -1.6719  0.6340
 1618SOL    MW4 6520   3.158   0.897   2.829  0.2239 -0.7257 -0.1729
 1619SOL     OW 6521   3.125   1.148   2.688  0.2965  0.3552  0.1881
 1619SOL    HW2 6522   3.131   1.067   2.738 -0.4837 -0.0632 -0.4082
 1619SOL    HW3 6523   3.125   1.121   2.596  0.9764  1.0804 -0.0348
 1619SOL    MW4 6524   3.126   1.134   2.682  0.2830  0.3957  0.0799
 1620SOL     OW 6525   3.347   1.307   2.754 -0.0401  0.4695  0.2317
 1620SOL    HW2 6526   3.362   1.292   2.847  1.0226  0.7761  0.1131
 1620SOL    HW3 6527   3.271   1.252   2.733  1.1220 -1.3773  0.7666
 1620SOL    MW4 6528   3.339   1.298   2.764  0.2532  0.2663  0.2863
 1621SOL     OW 6529   3.344   1.582   2.680 -0.7058  0.1322 -0.4681
 1621SOL    HW2 6530   3.261   1.614   2.717  0.0423 -0.3045  1.7156
 1621SOL    HW3 6531   3.342   1.488   2.696 -0.6273 -0.1665 -2.1665
 1621SOL    MW4 6532   3.333   1.574   2.687 -0.5968  0.0349 -0.4041
 1622SOL     OW 6533   3.075   1.675   2.769 -0.4155 -0.2590  0.0381
 1622SOL    HW2 6534   3.064   1.764   2.736  1.5919 -0.2279 -0.5733
 1622SOL    HW3 6535   3.001   1.626   2.732 -1.6663  1.1820  0.5814
 1622SOL    MW4 6536   3.063   1.680   2.760 -0.3157 -0.0647  0.0293
 1623SOL     OW 6537   3.060   1.933   2.660 -0.5601  0.4671 -0.0374
 1623SOL    HW2 6538   3.140   1.973   2.695 -0.4540 -0.5007  0.8263
 1623SOL    HW3 6539   2.989   1.979   2.705 -0.5292  1.7635 -1.2612
 1623SOL    MW4 6540   3.061   1.944   2.670 -0.5419  0.5105 -0.0849
 1624SOL     OW 6541   3.281   2.047   2.756 -0.0426 -0.0157  0.6080
 1624SOL    HW2 6542   3.288   2.050   2.851 -2.7761  1.9679  0.7849
 1624SOL    HW3 6543   3.294   2.138   2.728 -0.6692 -0.3531 -0.8058
 1624SOL    MW4 6544   3.284   2.059   2.765 -0.4857  0.2017  0.4447
 1625SOL     OW 6545   3.332   2.285   2.636 -0.1833 -0.0698 -0.2459
 1625SOL    HW2 6546   3.418   2.323   2.654  1.1199 -2.1584 -1.7771
 1625SOL    HW3 6547   3.328   2.278   2.540 -2.6446  1.2635 -0.2739
 1625SOL    MW4 6548   3.343   2.289   2.626 -0.3362 -0.1695 -0.4518
 1626SOL     OW 6549   3.111   2.433   2.765  0.1855 -0.1306 -0.1324
 1626SOL    HW2 6550   3.101   2.516   2.719 -0.4639 -0.8569 -1.3286
 1626SOL    HW3 6551   3.185   2.390   2.721 -0.4080 -0.8034 -0.5085
 1626SOL    MW4 6552   3.119   2.438   2.753  0.0215 -0.3154 -0.3400
 1627SOL     OW 6553   3.127   2.675   2.644 -0.1448 -0.2161 -0.2627
 1627SOL    HW2 6554   3.206   2.724   2.666  0.3638  0.0955 -2.5695
 1627SOL    HW3 6555   3.055   2.733   2.669  0.3792 -0.0392  0.8440
 1627SOL    MW4 6556   3.128   2.689   2.650 -0.0088 -0.1516 -0.4213
 1628SOL     OW 6557   3.338   2.829   2.749 -0.0144 -0.5500 -0.2921
 1628SOL    HW2 6558   3.344   2.821   2.845  2.2657 -1.5661 -0.4838
 1628SOL    HW3 6559   3.421   2.794   2.717 -1.1874 -1.1748 -2.7290
 1628SOL    MW4 6560   3.350   2.823   2.758  0.1314 -0.7668 -0.6390
 1629SOL     OW 6561   3.391   3.089   2.669 -0.1396 -0.1875 -0.2678
 1629SOL    HW2 6562   3.361   3.006   2.706 -1.5311  0.1774 -0.5463
 1629SOL    HW3 6563   3.365   3.085   2.576 -3.3343  1.9247  0.4213
 1629SOL    MW4 6564   3.383   3.078   2.661 -0.7446  0.1392 -0.2136
 1630SOL     OW 6565   3.152   3.229   2.740 -0.0720  0.1205  0.2477
 1630SOL    HW2 6566   3.241   3.196   2.731  0.1237  0.3553  1.2254
 1630SOL    HW3 6567   3.098   3.169   2.689  0.7590  0.4867 -1.0828
 1630SOL    MW4 6568   3.157   3.217   2.733  0.0634  0.1998  0.2010
 1631SOL     OW 6569   3.155   3.477   2.653 -0.0476  0.0059  0.3816
 1631SOL    HW2 6570   3.159   3.382   2.665 -0.8463  0.1135  1.5027
 1631SOL    HW3 6571   3.071   3.503   2.690  0.0194  1.1149 -0.2206
 1631SOL    MW4 6572   3.145   3.468   2.659 -0.1442  0.1664  0.4499
 1632SOL     OW 6573   3.351   3.646   2.774  0.1519  0.0526  0.0511
 1632SOL    HW2 6574   3.353   3.654   2.869 -0.4607  0.9533 -0.0131
 1632SOL    HW3 6575   3.290   3.574   2.758  0.1724 -0.0290  0.3285
 1632SOL    MW4 6576   3.344   3.637   2.785  0.0737  0.1607  0.0789
 1633SOL     OW 6577   3.316   3.896   2.644  0.1795  0.1565 -0.0310
 1633SOL    HW2 6578   3.324   3.812   2.690  0.6318  0.7787  1.0330
 1633SOL    HW3 6579   3.298   3.871   2.553 -0.9071 -1.0818  0.4997
 1633SOL    MW4 6580   3.315   3.881   2.638  0.0956  0.0751  0.1795
 1634SOL     OW 6581   3.098   4.033   2.778  0.2630 -0.0698  0.2073
 1634SOL    HW2 6582   3.117   4.122   2.748 -0.0257 -1.0678 -3.2127
 1634SOL    HW3 6583   3.166   3.979   2.738 -2.2827 -1.9678 -1.7982
 1634SOL    MW4 6584   3.109   4.037   2.768 -0.1109 -0.4520 -0.5083
 1635SOL     OW 6585   3.156   4.288   2.708 -0.4183  0.5020  0.0326
 1635SOL    HW2 6586   3.063   4.307   2.725 -1.3096 -2.0311 -1.7418
 1635SOL    HW3 6587   3.163   4.284   2.613  1.3442 -0.1191  0.1762
 1635SOL    MW4 6588   3.144   4.290   2.698 -0.3035  0.0863 -0.1826
 1636SOL     OW 6589   3.380   4.416   2.804  0.4068 -0.3853 -0.2616
 1636SOL    HW2 6590   3.386   4.390   2.896  2.9403  0.4462 -0.1570
 1636SOL    HW3 6591   3.306   4.366   2.770 -0.9750 -0.2217  2.3795
 1636SOL    MW4 6592   3.371   4.406   2.812  0.5589 -0.2546  0.1009
 1637SOL     OW 6593   3.867   0.011   2.712 -1.0895  0.6832 -0.5118
 1637SOL    HW2 6594   3.875  -0.077   2.747 -0.1634  0.4723 -1.2495
 1637SOL    HW3 6595   3.788   0.046   2.753 -2.1168 -0.9004 -1.0894
 1637SOL    MW4 6596   3.857   0.004   2.722 -1.1032  0.4464 -0.6852
 1638SOL     OW 6597   3.633   0.125   2.812  0.2172  0.0388  0.0843
 1638SOL    HW2 6598   3.644   0.208   2.765  1.4935 -0.6878 -0.9322
 1638SOL    HW3 6599   3.543   0.099   2.793 -0.5008  1.6395  1.1670
 1638SOL    MW4 6600   3.623   0.133   2.803  0.2906  0.1541  0.0932
 1639SOL     OW 6601   3.611   0.372   2.696  0.0679 -0.4225  0.4287
 1639SOL    HW2 6602   3.669   0.433   2.743 -0.8318  1.6646 -1.1012
 1639SOL    HW3 6603   3.523   0.399   2.721 -0.4089  0.4006 -2.0233
 1639SOL    MW4 6604   3.607   0.383   2.706 -0.1137 -0.0385 -0.0966
 1640SOL     OW 6605   3.814   0.532   2.802  0.1336 -0.0538  0.0968
 1640SOL    HW2 6606   3.839   0.522   2.894  1.2539 -1.2919 -0.3214
 1640SOL    HW3 6607   3.879   0.480   2.754 -1.4820 -0.8567 -1.2602
 1640SOL    MW4 6608   3.826   0.523   2.808  0.0682 -0.3231 -0.1373
 1641SOL     OW 6609   3.797   0.750   2.640 -0.4136 -0.1833 -0.0717
 1641SOL    HW2 6610   3.716   0.795   2.664 -1.0124 -0.5298 -1.4454
 1641SOL    HW3 6611   3.800   0.674   2.698 -0.8145  0.1007  0.3261
 1641SOL    MW4 6612   3.787   0.746   2.651 -0.5453 -0.1916 -0.2005
 1642SOL     OW 6613   3.579   0.864   2.767  0.2094  0.2250  0.1785
 1642SOL    HW2 6614   3.589   0.853   2.862 -1.3414 -0.7581  0.2502
 1642SOL    HW3 6615   3.572   0.958   2.754  1.1399  0.4084  0.9599
 1642SOL    MW4 6616   3.580   0.875   2.778  0.1276  0.1194  0.2909
 1643SOL     OW 6617   3.541   1.130   2.685  0.2651 -0.3398  0.1294
 1643SOL    HW2 6618   3.616   1.174   2.726  1.0682 -1.3070 -0.3002
 1643SOL    HW3 6619   3.470   1.194   2.692  0.8875  0.2422  1.3363
 1643SOL    MW4 6620   3.542   1.144   2.691  0.4532 -0.3904  0.2320
 1644SOL     OW 6621   3.765   1.264   2.779 -0.0762 -0.1578 -0.2866
 1644SOL    HW2 6622   3.849   1.224   2.757 -0.9643 -1.1148 -1.9406
 1644SOL    HW3 6623   3.773   1.355   2.748  0.8451  0.1484  0.8159
 1644SOL    MW4 6624   3.777   1.271   2.772 -0.0720 -0.2437 -0.3595
 1645SOL     OW 6625   3.773   1.543   2.702 -0.0164 -0.0579  0.2699
 1645SOL    HW2 6626   3.849   1.593   2.731 -0.2469  0.8456 -0.6442
 1645SOL    HW3 6627   3.699   1.603   2.714 -0.5132 -0.7379  0.6376
 1645SOL    MW4 6628   3.773   1.558   2.707 -0.1125 -0.0284  0.1979
 1646SOL     OW 6629   3.573   1.716   2.754  0.1666  0.4522 -0.3674
 1646SOL    HW2 6630   3.560   1.808   2.731  0.0308  0.2441 -1.1485
 1646SOL    HW3 6631   3.494   1.673   2.723  0.5258 -0.0343 -0.6014
 1646SOL    MW4 6632   3.561   1.723   2.747  0.1960  0.3606 -0.5014
 1647SOL     OW 6633   3.554   1.995   2.702  0.7212  0.4606  0.1626
 1647SOL    HW2 6634   3.460   2.003   2.720  0.5231  1.4032 -1.2407
 1647SOL    HW3 6635   3.564   2.027   2.613  1.9457 -2.5221 -0.8347
 1647SOL    MW4 6636   3.543   2.000   2.693  0.8569  0.1912 -0.1545
 1648SOL     OW 6637   3.808   2.074   2.802  0.5873 -0.3259  0.1515
 1648SOL    HW2 6638   3.853   2.004   2.754  0.0105 -0.1663 -0.6292
 1648SOL    HW3 6639   3.715   2.055   2.790  0.4365 -0.1604  1.0321
 1648SOL    MW4 6640   3.801   2.062   2.794  0.4911 -0.2830  0.1650
 1649SOL     OW 6641   3.787   2.328   2.695  0.0705 -0.0038 -0.3622
 1649SOL    HW2 6642   3.794   2.237   2.722  2.5203  0.5851  1.1902
 1649SOL    HW3 6643   3.792   2.325   2.599 -0.2767 -1.5213 -0.3386
 1649SOL    MW4 6644   3.789   2.316   2.686  0.3479 -0.1264 -0.1543
 1650SOL     OW 6645   3.542   2.434   2.733 -0.0696 -0.1214 -0.2656
 1650SOL    HW2 6646   3.523   2.461   2.823 -0.8537  1.4145 -0.8708
 1650SOL    HW3 6647   3.631   2.399   2.737  0.7504  1.9580  0.7106
 1650SOL    MW4 6648   3.552   2.433   2.746 -0.0648  0.3555 -0.2167
 1651SOL     OW 6649   3.565   2.707   2.661 -0.3233  0.3166 -0.1791
 1651SOL    HW2 6650   3.554   2.614   2.679  0.7591  0.1231 -0.4397
 1651SOL    HW3 6651   3.569   2.713   2.565 -0.7632  0.6782 -0.1785
 1651SOL    MW4 6652   3.564   2.696   2.651 -0.2389  0.3386 -0.2136
 1652SOL     OW 6653   3.791   2.847   2.749  0.2662  0.0638  0.6201
 1652SOL    HW2 6654   3.864   2.792   2.720 -0.0858 -0.1540  0.1434
 1652SOL    HW3 6655   3.713   2.795   2.731 -0.0835  0.8258 -0.0939
 1652SOL    MW4 6656   3.790   2.833   2.742  0.1736  0.1357  0.4630
 1653SOL     OW 6657   3.788   3.104   2.638 -0.1428 -0.1483 -0.5423
 1653SOL    HW2 6658   3.713   3.148   2.680 -0.4338 -0.6337 -0.5553
 1653SOL    HW3 6659   3.781   3.013   2.665  1.4274  0.1137  0.8347
 1653SOL    MW4 6660   3.777   3.098   2.647  0.0262 -0.1779 -0.3624
 1654SOL     OW 6661   3.598   3.238   2.774  0.2762 -0.5432 -0.1693
 1654SOL    HW2 6662   3.577   3.325   2.738 -0.3563 -0.2485  0.8776
 1654SOL    HW3 6663   3.535   3.179   2.731 -0.5966 -0.1653  0.5630
 1654SOL    MW4 6664   3.587   3.242   2.764  0.0775 -0.4547  0.0656
 1655SOL     OW 6665   3.564   3.496   2.659 -0.2222 -0.2642  0.4053
 1655SOL    HW2 6666   3.638   3.529   2.710  0.5769 -2.1418  0.5044
 1655SOL    HW3 6667   3.486   3.530   2.704  0.5669  1.8025  0.2488
 1655SOL    MW4 6668   3.563   3.505   2.672 -0.0126 -0.2391  0.3979
 1656SOL     OW 6669   3.799   3.601   2.735 -0.1086 -0.3020 -0.2882
 1656SOL    HW2 6670   3.823   3.601   2.828 -0.7845 -1.6231 -0.1010
 1656SOL    HW3 6671   3.769   3.690   2.718  1.0999  0.2739  0.4692
 1656SOL    MW4 6672   3.798   3.612   2.745 -0.0381 -0.4003 -0.1636
 1657SOL     OW 6673   3.765   3.873   2.702  0.0525  0.1515 -0.0018
 1657SOL    HW2 6674   3.840   3.919   2.741  0.6124  0.4230 -1.3919
 1657SOL    HW3 6675   3.689   3.923   2.732  0.5835  1.3210 -0.5687
 1657SOL    MW4 6676   3.765   3.886   2.711  0.1965  0.3414 -0.2599
 1658SOL     OW 6677   3.541   4.039   2.779  0.0524  0.8216  0.0048
 1658SOL    HW2 6678   3.565   4.122   2.738  0.7285  0.7503  0.2492
 1658SOL    HW3 6679   3.460   4.013   2.736  0.3778  1.1042 -0.7890
 1658SOL    MW4 6680   3.534   4.046   2.768  0.1843  0.8492 -0.0679
 1659SOL     OW 6681   3.635   4.308   2.701 -0.0896 -0.4261 -0.1566
 1659SOL    HW2 6682   3.559   4.356   2.734  0.0889  0.5144 -1.0788
 1659SOL    HW3 6683   3.628   4.315   2.605  1.1728 -0.3029 -0.2528
 1659SOL    MW4 6684   3.624   4.315   2.692  0.1004 -0.2861 -0.2909
 1660SOL     OW 6685   3.876   4.411   2.816 -0.8698 -0.6734  0.2716
 1660SOL    HW2 6686   3.953   4.360   2.792 -0.3837 -0.4805  1.3880
 1660SOL    HW3 6687   3.802   4.361   2.781 -0.2323 -0.6701 -1.1453
 1660SOL    MW4 6688   3.876   4.398   2.808 -0.7217 -0.6475  0.2320
 1661SOL     OW 6689   4.273   4.666   2.685  0.2314  0.1642  0.0514
 1661SOL    HW2 6690   4.193   4.712   2.712 -0.2611 -0.9041  0.4631
 1661SOL    HW3 6691   4.344   4.726   2.707 -0.3637  0.5184  1.0619
 1661SOL    MW4 6692   4.271   4.680   2.692  0.0877  0.0701  0.2391
 1662SOL     OW 6693   4.077   0.149   2.806 -0.0111  0.0702 -0.1691
 1662SOL    HW2 6694   4.081   0.155   2.901  1.2027 -1.1975 -0.1206
 1662SOL    HW3 6695   3.997   0.099   2.788  0.0834 -0.2247  0.2262
 1662SOL    MW4 6696   4.067   0.143   2.816  0.1612 -0.1360 -0.1106
 1663SOL     OW 6697   3.994   0.391   2.678 -0.3184  0.3689  0.3330
 1663SOL    HW2 6698   4.018   0.309   2.720  1.8390  1.0671  0.4863
 1663SOL    HW3 6699   4.027   0.383   2.588  1.0563  1.5805  0.7232
 1663SOL    MW4 6700   4.001   0.379   2.671  0.1473  0.6208  0.4048
 1664SOL     OW 6701   4.251   0.506   2.785  0.1540  0.1695 -0.1325
 1664SOL    HW2 6702   4.173   0.466   2.748 -0.4159  0.1381  1.0889
 1664SOL    HW3 6703   4.323   0.449   2.756 -0.6527 -1.7534  1.5748
 1664SOL    MW4 6704   4.250   0.493   2.776 -0.0277 -0.0884  0.2539
 1665SOL     OW 6705   4.246   0.770   2.705  0.1235  0.0636 -0.1963
 1665SOL    HW2 6706   4.266   0.678   2.720 -1.4880 -0.3650 -0.6409
 1665SOL    HW3 6707   4.251   0.781   2.610 -2.3932 -0.2158 -0.3816
 1665SOL    MW4 6708   4.250   0.760   2.695 -0.4215 -0.0298 -0.2792
 1666SOL     OW 6709   3.994   0.877   2.776  0.1231 -0.1014 -0.2662
 1666SOL    HW2 6710   4.072   0.834   2.739  0.3944  0.4444 -0.3376
 1666SOL    HW3 6711   3.920   0.832   2.734  0.3748 -1.2053  0.4540
 1666SOL    MW4 6712   3.995   0.865   2.765  0.1919 -0.1751 -0.1807
 1667SOL     OW 6713   4.021   1.133   2.699  0.0953  0.0145 -0.1034
 1667SOL    HW2 6714   4.097   1.186   2.725  0.2807  0.2576 -1.1440
 1667SOL    HW3 6715   4.043   1.044   2.729 -0.3879  0.5687  2.0075
 1667SOL    MW4 6716   4.034   1.128   2.707  0.0558  0.1197  0.0377
 1668SOL     OW 6717   4.261   1.289   2.769 -0.4801  0.6557  0.3615
 1668SOL    HW2 6718   4.264   1.381   2.743  2.0319  1.1404  2.1080
 1668SOL    HW3 6719   4.347   1.255   2.744 -1.2052 -1.0971  0.2007
 1668SOL    MW4 6720   4.273   1.296   2.762 -0.2446  0.4885  0.5705
 1669SOL     OW 6721   4.255   1.552   2.705 -0.0865 -0.3184 -0.5451
 1669SOL    HW2 6722   4.341   1.587   2.729 -0.2750 -0.3446  0.1713
 1669SOL    HW3 6723   4.250   1.563   2.610 -0.3800  2.1373 -0.2628
 1669SOL    MW4 6724   4.265   1.558   2.696 -0.1507  0.0021 -0.4127
 1670SOL     OW 6725   4.024   1.659   2.783  0.1058  0.0498 -0.1271
 1670SOL    HW2 6726   4.027   1.657   2.879  2.2440  0.4628 -0.1739
 1670SOL    HW3 6727   4.104   1.615   2.755 -0.4507  0.0203 -1.7322
 1670SOL    MW4 6728   4.035   1.653   2.792  0.3138  0.1004 -0.3450
 1671SOL     OW 6729   4.013   1.901   2.673 -0.4763  0.0120  0.8237
 1671SOL    HW2 6730   4.095   1.934   2.710 -0.6312  0.3010  0.9113
 1671SOL    HW3 6731   4.004   1.813   2.709 -0.0585 -0.1285  0.5855
 1671SOL    MW4 6732   4.023   1.894   2.683 -0.4416  0.0315  0.8037
 1672SOL     OW 6733   4.240   2.028   2.800 -0.3535 -0.2591 -0.2502
 1672SOL    HW2 6734   4.213   2.101   2.745 -0.2067 -0.3012 -0.3795
 1672SOL    HW3 6735   4.333   2.016   2.781 -0.8628 -1.8750 -1.8586
 1672SOL    MW4 6736   4.249   2.036   2.790 -0.4015 -0.4778 -0.4792
 1673SOL     OW 6737   4.188   2.281   2.679 -0.0980  0.3699  0.4444
 1673SOL    HW2 6738   4.120   2.338   2.716  1.1251  1.2054  1.4364
 1673SOL    HW3 6739   4.195   2.308   2.587 -2.2159 -0.8208 -0.1182
 1673SOL    MW4 6740   4.180   2.292   2.672 -0.2160  0.3228  0.5009
 1674SOL     OW 6741   4.004   2.487   2.782  0.1838 -0.0277 -0.0680
 1674SOL    HW2 6742   3.994   2.469   2.876  0.3274 -1.3671 -0.2957
 1674SOL    HW3 6743   3.932   2.439   2.741 -0.5964  1.5399 -0.5487
 1674SOL    MW4 6744   3.994   2.478   2.789  0.0997  0.0024 -0.1614
 1675SOL     OW 6745   4.011   2.714   2.632  0.1033  0.4035 -0.2976
 1675SOL    HW2 6746   4.080   2.758   2.682 -1.8009  0.5800  2.2678
 1675SOL    HW3 6747   3.993   2.634   2.681 -1.1465  0.0923 -1.2564
 1675SOL    MW4 6748   4.018   2.710   2.645 -0.3128  0.3860 -0.0856
 1676SOL     OW 6749   4.230   2.835   2.785  0.7195  0.4394  0.4216
 1676SOL    HW2 6750   4.208   2.832   2.878  2.4534  0.3837  0.8483
 1676SOL    HW3 6751   4.241   2.928   2.766 -0.6745  0.5236  0.0151
 1676SOL    MW4 6752   4.229   2.847   2.795  0.7644  0.4432  0.4241
 1677SOL     OW 6753   4.285   3.113   2.697 -0.2118 -0.0794 -0.1428
 1677SOL    HW2 6754   4.209   3.168   2.713 -0.6296 -0.3561 -1.1697
 1677SOL    HW3 6755   4.272   3.077   2.610  0.9760 -0.3220 -0.2376
 1677SOL    MW4 6756   4.273   3.115   2.688 -0.1101 -0.1481 -0.2906
 1678SOL     OW 6757   4.027   3.220   2.759  0.3914 -0.1476 -0.4384
 1678SOL    HW2 6758   4.016   3.308   2.722  0.1265 -0.3518 -0.8502
 1678SOL    HW3 6759   3.965   3.166   2.711 -1.3514 -0.0596  1.6422
 1678SOL    MW4 6760   4.017   3.225   2.748  0.1268 -0.1631 -0.2182
 1679SOL     OW 6761   4.022   3.459   2.651  0.2117 -0.1293  0.5143
 1679SOL    HW2 6762   4.079   3.512   2.706 -0.2667  0.4395  0.4550
 1679SOL    HW3 6763   3.935   3.497   2.661  0.1934  0.2345 -0.9505
 1679SOL    MW4 6764   4.018   3.471   2.659  0.1464 -0.0064  0.3133
 1680SOL     OW 6765   4.221   3.574   2.806 -0.0564  0.2366  0.2040
 1680SOL    HW2 6766   4.237   3.583   2.900 -0.3962 -0.2558  0.3086
 1680SOL    HW3 6767   4.301   3.535   2.772  0.6535  1.7706  0.0513
 1680SOL    MW4 6768   4.234   3.570   2.814 -0.0076  0.3738  0.1974
 1681SOL     OW 6769   4.261   3.844   2.735 -0.1068 -0.6312 -0.3327
 1681SOL    HW2 6770   4.273   3.757   2.774 -0.8718 -0.1797  0.9301
 1681SOL    HW3 6771   4.340   3.892   2.759 -0.3896 -0.4851  0.3118
 1681SOL    MW4 6772   4.273   3.839   2.743 -0.2451 -0.5522 -0.0808
 1682SOL     OW 6773   4.014   3.969   2.802 -0.1115  0.1481  0.1842
 1682SOL    HW2 6774   4.021   3.987   2.895  2.5523 -0.2231  0.1160
 1682SOL    HW3 6775   4.080   3.901   2.786 -2.5669 -1.9639 -1.4364
 1682SOL    MW4 6776   4.024   3.962   2.812 -0.0844 -0.1795 -0.0386
 1683SOL     OW 6777   4.084   4.238   2.738 -0.2654  0.2074  0.1646
 1683SOL    HW2 6778   4.060   4.149   2.766 -0.0716  0.0915 -0.0382
 1683SOL    HW3 6779   4.061   4.241   2.645 -1.2483  0.7117  0.4190
 1683SOL    MW4 6780   4.078   4.226   2.729 -0.3695  0.2589  0.1714
 1684SOL     OW 6781   4.321   4.416   2.808  0.8095  0.2457  0.2148
 1684SOL    HW2 6782   4.242   4.365   2.788  1.7815 -0.6232 -1.5425
 1684SOL    HW3 6783   4.300   4.504   2.777 -0.0325  0.3922  1.1724
 1684SOL    MW4 6784   4.308   4.421   2.801  0.8268  0.1507  0.1092
 1685SOL     OW 6785   0.248   4.638   3.139 -0.0153  0.0661 -0.2895
 1685SOL    HW2 6786   0.234   4.639   3.234 -2.6412 -1.3390 -0.6046
 1685SOL    HW3 6787   0.168   4.675   3.103  0.2769 -0.9056 -2.0078
 1685SOL    MW4 6788   0.235   4.643   3.147 -0.3232 -0.2470 -0.5579
 1686SOL     OW 6789   0.033   0.100   3.029 -0.2279 -0.2357 -0.1733
 1686SOL    HW2 6790  -0.042   0.056   3.069 -0.8342  0.6242 -0.3526
 1686SOL    HW3 6791   0.031   0.189   3.065  0.5320 -0.1188 -0.4073
 1686SOL    MW4 6792   0.023   0.106   3.039 -0.2076 -0.1068 -0.2279
 1687SOL     OW 6793   0.006   0.341   3.150  0.0627 -0.2201  0.1593
 1687SOL    HW2 6794  -0.013   0.344   3.244 -0.9108  0.0142 -0.0306
 1687SOL    HW3 6795  -0.076   0.369   3.109  0.1536 -1.2950 -0.7889
 1687SOL    MW4 6796  -0.008   0.345   3.157 -0.0538 -0.3310  0.0091
 1688SOL     OW 6797   0.183   0.506   3.050 -0.9800 -0.7044 -0.5215
 1688SOL    HW2 6798   0.261   0.461   3.082 -1.5723 -0.7040  0.9707
 1688SOL    HW3 6799   0.110   0.450   3.077 -1.5520 -0.2226 -1.0603
 1688SOL    MW4 6800   0.183   0.493   3.058 -1.1337 -0.6408 -0.3955
 1689SOL     OW 6801   0.225   0.767   3.142 -0.0674  0.1481 -0.2130
 1689SOL    HW2 6802   0.210   0.748   3.234 -1.6328 -0.5405 -0.5911
 1689SOL    HW3 6803   0.211   0.683   3.098  0.1338  0.5973 -1.1457
 1689SOL    MW4 6804   0.221   0.753   3.148 -0.2474  0.1165 -0.3858
 1690SOL     OW 6805   4.466   0.910   3.111  0.2770  0.5315  0.2298
 1690SOL    HW2 6806   4.541   0.852   3.128 -0.2497 -0.2873 -0.1658
 1690SOL    HW3 6807   4.471   0.927   3.017  0.4793  1.2021  0.3634
 1690SOL    MW4 6808   4.477   0.904   3.101  0.2341  0.5119  0.1950
 1691SOL     OW 6809   4.479   1.168   3.216 -0.1031  0.1424 -0.2498
 1691SOL    HW2 6810   4.406   1.205   3.166 -1.3092  0.1739  1.4665
 1691SOL    HW3 6811   4.490   1.079   3.181 -0.6254  0.3135 -0.8603
 1691SOL    MW4 6812   4.471   1.161   3.205 -0.3311  0.1692 -0.1040
 1692SOL     OW 6813   0.201   1.295   3.128 -0.4239 -0.4250  0.1802
 1692SOL    HW2 6814   0.127   1.255   3.174 -0.9066 -0.4757 -0.6338
 1692SOL    HW3 6815   0.178   1.288   3.035  0.0751  0.5869 -0.0250
 1692SOL    MW4 6816   0.188   1.289   3.122 -0.4218 -0.2981  0.0460
 1693SOL     OW 6817   0.260   1.561   3.123 -0.0430 -0.0257  0.4427
 1693SOL    HW2 6818   0.183   1.597   3.079 -0.3701  0.9246  1.7444
 1693SOL    HW3 6819   0.240   1.468   3.133 -0.1406 -0.1705 -1.0181
 1693SOL    MW4 6820   0.247   1.554   3.119 -0.0990  0.0806  0.4215
 1694SOL     OW 6821   0.015   1.661   3.008  0.2370 -0.0733  0.4010
 1694SOL    HW2 6822  -0.065   1.618   3.038 -1.4786  1.6850 -1.5478
 1694SOL    HW3 6823   0.010   1.750   3.043  1.5351 -0.0667  0.5956
 1694SOL    MW4 6824   0.004   1.667   3.016  0.1817  0.1596  0.1695
 1695SOL     OW 6825   0.006   1.911   3.122  0.1098  0.2419  0.1080
 1695SOL    HW2 6826  -0.077   1.952   3.099 -0.8801 -0.4446  2.3272
 1695SOL    HW3 6827   0.072   1.979   3.104 -0.9150  0.7878 -1.6624
 1695SOL    MW4 6828   0.004   1.926   3.117 -0.1560  0.2233  0.1674
 1696SOL     OW 6829   0.249   2.089   3.079  0.4040 -0.1712  0.0464
 1696SOL    HW2 6830   0.239   2.182   3.095  0.0621 -0.2277  0.1482
 1696SOL    HW3 6831   0.242   2.080   2.984  3.0091  0.2368 -0.2359
 1696SOL    MW4 6832   0.247   2.100   3.069  0.7026 -0.1249  0.0226
 1697SOL     OW 6833   0.195   2.348   3.151  0.1950 -0.2450  0.2762
 1697SOL    HW2 6834   0.201   2.348   3.247  0.0993 -1.2629  0.2793
 1697SOL    HW3 6835   0.270   2.400   3.123  0.5190 -0.3800  0.8856
 1697SOL    MW4 6836   0.206   2.355   3.160  0.2251 -0.3972  0.3572
 1698SOL     OW 6837   4.445   2.437   3.030  0.3580  0.3708  0.1013
 1698SOL    HW2 6838   4.441   2.525   3.069  0.6718  1.0999 -1.4935
 1698SOL    HW3 6839   4.532   2.404   3.055 -0.5690 -0.3568  2.5028
 1698SOL    MW4 6840   4.456   2.444   3.039  0.2766  0.3710  0.2077
 1699SOL     OW 6841   4.459   2.696   3.132 -0.2460  0.4043 -0.3111
 1699SOL    HW2 6842   4.461   2.695   3.227  1.3970 -1.2250 -0.3427
 1699SOL    HW3 6843   4.542   2.736   3.106 -0.4426  0.3317 -1.0839
 1699SOL    MW4 6844   4.470   2.701   3.141 -0.0553  0.1800 -0.4170
 1700SOL     OW 6845   0.195   2.809   3.057 -0.1915  0.3108  0.4394
 1700SOL    HW2 6846   0.276   2.772   3.093 -0.1647  0.2611  0.3301
 1700SOL    HW3 6847   0.207   2.804   2.962  0.0858  1.2049  0.4239
 1700SOL    MW4 6848   0.207   2.803   3.049 -0.1513  0.4222  0.4230
 1701SOL     OW 6849   0.210   3.070   3.140  0.0534 -0.0688 -0.0513
 1701SOL    HW2 6850   0.123   3.106   3.123 -0.3198 -0.8891  0.0913
 1701SOL    HW3 6851   0.202   2.977   3.116  1.0639 -0.0122 -0.6361
 1701SOL    MW4 6852   0.197   3.062   3.134  0.1375 -0.1698 -0.1094
 1702SOL     OW 6853   4.463   3.195   3.077  0.3619  0.0146 -0.2892
 1702SOL    HW2 6854   4.377   3.155   3.090 -0.0914  1.1610  0.3471
 1702SOL    HW3 6855   4.482   3.180   2.985 -0.3723 -0.5336 -0.3649
 1702SOL    MW4 6856   4.454   3.188   3.067  0.2050  0.0932 -0.2151
 1703SOL     OW 6857   4.457   3.448   3.190 -0.0497 -0.4213  0.1995
 1703SOL    HW2 6858   4.378   3.473   3.141  0.4440  0.7635 -0.0062
 1703SOL    HW3 6859   4.478   3.360   3.157 -1.4943 -0.9042  0.5358
 1703SOL    MW4 6860   4.450   3.439   3.179 -0.1750 -0.3288  0.2167
 1704SOL     OW 6861   0.436   3.491   3.183 -0.0230 -0.0675  0.1574
 1704SOL    HW2 6862   0.444   3.502   3.278 -0.5657  1.3369  0.0470
 1704SOL    HW3 6863   0.354   3.536   3.160  1.1924  1.5046 -1.2646
 1704SOL    MW4 6864   0.426   3.499   3.192  0.0658  0.3250 -0.0446
 1705SOL     OW 6865   0.187   3.574   3.095 -0.1970  0.5071 -0.2142
 1705SOL    HW2 6866   0.105   3.546   3.135  0.1142  0.9774  0.7700
 1705SOL    HW3 6867   0.185   3.670   3.103  1.1033  0.4305  1.1167
 1705SOL    MW4 6868   0.176   3.583   3.101  0.0156  0.5591  0.0913
 1706SOL     OW 6869   4.486   3.998   3.072  0.7526  0.4155  0.1159
 1706SOL    HW2 6870   4.571   3.954   3.082  0.6129 -0.2175 -1.3573
 1706SOL    HW3 6871   4.473   4.003   2.977 -0.3832  1.4381  0.3200
 1706SOL    MW4 6872   4.496   3.993   3.060  0.5846  0.4668 -0.0515
 1707SOL     OW 6873   0.024   4.249   3.181  0.0573  0.0012  0.1732
 1707SOL    HW2 6874   0.022   4.240   3.277  0.5651 -0.5076  0.1400
 1707SOL    HW3 6875   0.023   4.159   3.149 -0.5999  0.1789 -0.3162
 1707SOL    MW4 6876   0.024   4.236   3.190  0.0377 -0.0424  0.1042
 1708SOL     OW 6877   0.238   4.367   3.081  0.8026  0.0985  0.2030
 1708SOL    HW2 6878   0.159   4.330   3.120 -0.6744  0.8373 -2.0183
 1708SOL    HW3 6879   0.234   4.460   3.101  1.2820  0.1008  0.3106
 1708SOL    MW4 6880   0.227   4.374   3.089  0.6709  0.1965 -0.0758
 1709SOL     OW 6881   0.697   4.624   3.163 -0.1874  0.1815 -0.5583
 1709SOL    HW2 6882   0.712   4.541   3.118  1.4998  0.6703 -0.9241
 1709SOL    HW3 6883   0.632   4.669   3.109  0.5527  0.0449 -1.5784
 1709SOL    MW4 6884   0.690   4.619   3.150  0.1328  0.2279 -0.7412
 1710SOL     OW 6885   0.495   0.144   3.061 -0.1884  0.1660 -0.1009
 1710SOL    HW2 6886   0.501   0.230   3.104 -2.8025  1.1319 -1.5476
 1710SOL    HW3 6887   0.426   0.098   3.109 -0.3647 -0.2467 -0.7419
 1710SOL    MW4 6888   0.487   0.150   3.073 -0.5566  0.2390 -0.3762
 1711SOL     OW 6889   0.405   0.396   3.181 -0.5492  0.5344  0.4455
 1711SOL    HW2 6890   0.432   0.380   3.272  2.7083 -1.0989 -0.7009
 1711SOL    HW3 6891   0.478   0.447   3.144 -1.5773  0.6780 -1.4087
 1711SOL    MW4 6892   0.418   0.401   3.188 -0.2550  0.3378  0.0496
 1712SOL     OW 6893   0.641   0.504   3.104  0.3187  0.5125 -0.0052
 1712SOL    HW2 6894   0.724   0.470   3.136 -0.2431 -1.0213 -0.1351
 1712SOL    HW3 6895   0.639   0.595   3.133  1.2309  0.0429  1.5764
 1712SOL    MW4 6896   0.652   0.511   3.112  0.3650  0.2481  0.1862
 1713SOL     OW 6897   0.664   0.777   3.155  0.0773  0.0364 -0.3978
 1713SOL    HW2 6898   0.669   0.756   3.248 -1.4379 -2.3902 -0.8428
 1713SOL    HW3 6899   0.596   0.845   3.150  0.7563  0.7926  0.3353
 1713SOL    MW4 6900   0.656   0.783   3.167 -0.0330 -0.1840 -0.3598
 1714SOL     OW 6901   0.427   0.945   3.084  0.3029 -0.1439  0.1370
 1714SOL    HW2 6902   0.367   0.879   3.119 -0.5963  1.1375  1.0339
 1714SOL    HW3 6903   0.433   0.923   2.991  1.4058 -2.5602  0.7326
 1714SOL    MW4 6904   0.420   0.933   3.076  0.3297 -0.2937  0.3338
 1715SOL     OW 6905   0.433   1.169   3.234  0.1161  0.0283 -0.4613
 1715SOL    HW2 6906   0.435   1.092   3.177 -0.4303 -0.3212 -0.0079
 1715SOL    HW3 6907   0.367   1.226   3.194  0.0997  0.0061 -0.4663
 1715SOL    MW4 6908   0.424   1.166   3.221  0.0418 -0.0209 -0.4020
 1716SOL     OW 6909   0.654   1.288   3.117 -0.0891  0.2597  0.1033
 1716SOL    HW2 6910   0.736   1.242   3.135  0.3578  0.7583 -0.6483
 1716SOL    HW3 6911   0.590   1.247   3.176  0.7760  0.1049  0.9320
 1716SOL    MW4 6912   0.656   1.276   3.127  0.0839  0.3051  0.1135
 1717SOL     OW 6913   0.733   1.542   3.190  0.2201  0.4752  0.3072
 1717SOL    HW2 6914   0.731   1.524   3.284  0.8859  0.7072  0.3726
 1717SOL    HW3 6915   0.707   1.459   3.149  0.4637  0.2109  0.6815
 1717SOL    MW4 6916   0.730   1.528   3.197  0.3401  0.4711  0.3653
 1718SOL     OW 6917   0.504   1.717   3.102  0.1214 -0.6119 -0.9857
 1718SOL    HW2 6918   0.573   1.655   3.126 -0.7924 -1.4944 -0.5618
 1718SOL    HW3 6919   0.422   1.668   3.116 -0.7380  1.4729  1.7155
 1718SOL    MW4 6920   0.502   1.702   3.107 -0.1125 -0.4532 -0.5736
 1719SOL     OW 6921   0.505   1.993   3.170  0.2345  0.1017  0.1196
 1719SOL    HW2 6922   0.516   1.913   3.118  0.6660 -0.7551  1.5020
 1719SOL    HW3 6923   0.415   2.021   3.152  0.4900  0.0123 -1.3545
 1719SOL    MW4 6924   0.495   1.986   3.160  0.3251 -0.0231  0.1075
 1720SOL     OW 6925   0.742   2.096   3.054 -0.4591  0.0316  0.3253
 1720SOL    HW2 6926   0.801   2.049   3.113 -0.6656  1.4526  1.6978
 1720SOL    HW3 6927   0.655   2.081   3.092 -0.6505  0.5030  0.0653
 1720SOL    MW4 6928   0.738   2.088   3.067 -0.5116  0.2816  0.4718
 1721SOL     OW 6929   0.682   2.353   3.163 -0.5955 -0.3474  0.3671
 1721SOL    HW2 6930   0.684   2.332   3.256 -2.1107 -0.3583  0.3956
 1721SOL    HW3 6931   0.707   2.271   3.119  3.5815  0.5202  0.8393
 1721SOL    MW4 6932   0.686   2.339   3.169 -0.2443 -0.2341  0.4330
 1722SOL     OW 6933   0.445   2.452   3.049 -0.1785 -0.5695  0.5216
 1722SOL    HW2 6934   0.526   2.420   3.090  1.7439  1.9183 -1.1282
 1722SOL    HW3 6935   0.460   2.438   2.955 -1.3373  0.6307  0.1472
 1722SOL    MW4 6936   0.458   2.446   3.042 -0.0778 -0.0830  0.2546
 1723SOL     OW 6937   0.447   2.716   3.156 -0.1807  0.3867 -0.3578
 1723SOL    HW2 6938   0.522   2.759   3.116  2.3048 -2.1698  1.4014
 1723SOL    HW3 6939   0.449   2.627   3.121 -0.9442 -0.4194  1.5784
 1723SOL    MW4 6940   0.457   2.710   3.146  0.0465 -0.0570  0.1299
 1724SOL     OW 6941   0.677   2.820   3.052  0.2260  0.1272 -0.2256
 1724SOL    HW2 6942   0.751   2.787   3.104  1.3756  0.4463 -1.6336
 1724SOL    HW3 6943   0.665   2.910   3.082  1.8190  0.7814 -1.4898
 1724SOL    MW4 6944   0.685   2.828   3.063  0.5878  0.2556 -0.5779
 1725SOL     OW 6945   0.637   3.068   3.165  0.3407 -0.2033  0.3768
 1725SOL    HW2 6946   0.652   3.091   3.257  1.3421 -0.7589  0.3642
 1725SOL    HW3 6947   0.576   3.134   3.133 -0.6866 -0.4981  1.6708
 1725SOL    MW4 6948   0.631   3.080   3.173  0.3373 -0.3154  0.5460
 1726SOL     OW 6949   0.395   3.239   3.061 -0.0956  0.0711 -0.5283
 1726SOL    HW2 6950   0.358   3.319   3.098  0.5048  0.1401 -0.0656
 1726SOL    HW3 6951   0.334   3.170   3.090 -0.2414  0.2709 -0.3507
 1726SOL    MW4 6952   0.382   3.240   3.070 -0.0356  0.1068 -0.4442
 1727SOL     OW 6953   0.651   3.625   3.066  0.0712 -0.3497 -0.5282
 1727SOL    HW2 6954   0.733   3.589   3.101 -0.2464 -1.3234 -0.7852
 1727SOL    HW3 6955   0.583   3.566   3.099 -0.6314  0.9633  0.4184
 1727SOL    MW4 6956   0.653   3.612   3.075 -0.0634 -0.3049 -0.4373
 1728SOL     OW 6957   0.889   3.530   3.158 -0.1918  0.1738  0.5074
 1728SOL    HW2 6958   0.975   3.554   3.123 -0.5496  0.3645 -0.2665
 1728SOL    HW3 6959   0.875   3.440   3.127 -0.5524  0.3759  0.0755
 1728SOL    MW4 6960   0.898   3.521   3.149 -0.2866  0.2253  0.3486
 1729SOL     OW 6961   0.430   4.012   3.102  0.1727 -0.2313  0.0784
 1729SOL    HW2 6962   0.507   3.966   3.136  0.8374  0.3335 -0.6551
 1729SOL    HW3 6963   0.432   3.996   3.008 -1.2739 -1.1925  0.1940
 1729SOL    MW4 6964   0.441   4.003   3.094  0.0696 -0.2842 -0.0031
 1730SOL     OW 6965   0.211   3.854   3.123  0.2617  0.0401  0.3244
 1730SOL    HW2 6966   0.189   3.847   3.216 -1.4351 -0.0477 -0.0621
 1730SOL    HW3 6967   0.289   3.910   3.120  0.4789 -0.1767  1.8113
 1730SOL    MW4 6968   0.218   3.860   3.135  0.0665 -0.0002  0.4697
 1731SOL     OW 6969   0.502   4.273   3.154 -0.1786  0.5416 -0.4548
 1731SOL    HW2 6970   0.478   4.183   3.134  0.7440 -0.1231  1.3619
 1731SOL    HW3 6971   0.427   4.325   3.124 -0.0995 -0.6626 -2.8455
 1731SOL    MW4 6972   0.489   4.268   3.147 -0.0465  0.2952 -0.5305
 1732SOL     OW 6973   0.731   4.372   3.062  0.2097 -0.3621 -0.1736
 1732SOL    HW2 6974   0.651   4.333   3.098  0.1545  0.3246  0.4717
 1732SOL    HW3 6975   0.713   4.382   2.969 -0.3193 -0.5519 -0.0953
 1732SOL    MW4 6976   0.718   4.368   3.054  0.1326 -0.2966 -0.0782
 1733SOL     OW 6977   1.141   0.014   3.165  0.3400  0.3522  0.2026
 1733SOL    HW2 6978   1.211   0.036   3.104 -0.5871 -1.2496 -1.5162
 1733SOL    HW3 6979   1.073   0.079   3.148  0.2316  0.1319 -0.2029
 1733SOL    MW4 6980   1.141   0.025   3.155  0.2033  0.1116 -0.0777
 1734SOL     OW 6981   0.906   0.158   3.084 -0.2166  0.4752 -0.0628
 1734SOL    HW2 6982   0.883   0.245   3.116  0.4655 -0.2252  2.4518
 1734SOL    HW3 6983   0.823   0.110   3.083 -0.2843  0.5819  0.4091
 1734SOL    MW4 6984   0.892   0.163   3.088 -0.1355  0.3969  0.3314
 1735SOL     OW 6985   0.889   0.400   3.198 -0.1645 -0.4817 -0.2214
 1735SOL    HW2 6986   0.902   0.387   3.292  1.6119  1.1807 -0.2138
 1735SOL    HW3 6987   0.975   0.423   3.164 -0.9083 -0.4469 -2.1666
 1735SOL    MW4 6988   0.902   0.401   3.206 -0.0283 -0.2578 -0.4768
 1736SOL     OW 6989   1.126   0.521   3.050 -0.0934 -0.3319 -0.1085
 1736SOL    HW2 6990   1.215   0.500   3.076 -0.1862  0.4097  0.8399
 1736SOL    HW3 6991   1.133   0.544   2.957  0.8086  0.3594  0.1232
 1736SOL    MW4 6992   1.139   0.521   3.041  0.0132 -0.1429  0.0467
 1737SOL     OW 6993   1.131   0.771   3.150 -0.3552  0.0079  0.3055
 1737SOL    HW2 6994   1.127   0.756   3.245 -0.6283 -0.1628  0.2689
 1737SOL    HW3 6995   1.118   0.684   3.112  2.0046 -0.2834  0.1386
 1737SOL    MW4 6996   1.128   0.758   3.157 -0.0799 -0.0530  0.2787
 1738SOL     OW 6997   0.886   0.892   3.067 -0.4036 -0.8968 -0.2670
 1738SOL    HW2 6998   0.805   0.847   3.093 -0.2890 -0.1073  1.5001
 1738SOL    HW3 6999   0.955   0.847   3.115  0.2187 -1.5153 -1.7149
 1738SOL    MW4 7000   0.884   0.880   3.076 -0.3063 -0.8742 -0.2251
 1739SOL     OW 7001   0.886   1.144   3.153 -0.9945  0.0251 -0.3682
 1739SOL    HW2 7002   0.960   1.194   3.117 -0.6027  0.5717  1.1573
 1739SOL    HW3 7003   0.889   1.060   3.107  0.1088  0.3371 -0.8816
 1739SOL    MW4 7004   0.896   1.139   3.142 -0.7972  0.1384 -0.2344
 1740SOL     OW 7005   1.104   1.300   3.019  0.2231  0.0437  0.4116
 1740SOL    HW2 7006   1.162   1.235   3.059  0.5900  1.5945  2.5155
 1740SOL    HW3 7007   1.111   1.285   2.925  1.2403 -2.1414  0.8178
 1740SOL    MW4 7008   1.112   1.290   3.012  0.4057 -0.0398  0.7424
 1741SOL     OW 7009   1.077   1.579   2.984  0.7265  0.3784  0.0137
 1741SOL    HW2 7010   1.168   1.606   2.994  0.3035  0.9269  2.7313
 1741SOL    HW3 7011   1.077   1.485   3.002  0.7208  0.4378  0.3317
 1741SOL    MW4 7012   1.089   1.571   2.988  0.6698  0.4586  0.4139
 1742SOL     OW 7013   0.960   1.703   3.207 -0.7214  0.3037  0.2224
 1742SOL    HW2 7014   0.998   1.678   3.123 -0.8985  0.0341  0.2214
 1742SOL    HW3 7015   0.867   1.681   3.198 -0.4571 -1.2377  1.0567
 1742SOL    MW4 7016   0.953   1.696   3.195 -0.7099  0.0648  0.3321
 1743SOL     OW 7017   0.938   1.974   3.229 -0.0508 -0.1970 -0.1389
 1743SOL    HW2 7018   0.913   1.993   3.320  0.5961 -0.1448  0.0286
 1743SOL    HW3 7019   0.944   1.879   3.225 -0.9580 -0.2536 -0.3644
 1743SOL    MW4 7020   0.935   1.964   3.241 -0.0852 -0.1976 -0.1466
 1744SOL     OW 7021   1.101   2.095   3.048 -0.2183  0.4905  0.2452
 1744SOL    HW2 7022   1.033   2.048   3.096  0.4336 -1.5614 -0.7825
 1744SOL    HW3 7023   1.082   2.079   2.956  1.1163  0.6889 -0.0785
 1744SOL    MW4 7024   1.090   2.087   3.042  0.0437  0.2463  0.0672
 1745SOL     OW 7025   1.125   2.326   3.186 -0.4228 -0.5313 -0.2342
 1745SOL    HW2 7026   1.065   2.385   3.139 -0.9679 -1.0616 -0.2131
 1745SOL    HW3 7027   1.117   2.243   3.139  1.0544 -0.3303 -0.8439
 1745SOL    MW4 7028   1.116   2.323   3.173 -0.2998 -0.5748 -0.3116
 1746SOL     OW 7029   0.916   2.460   3.087  0.3892  0.4406  0.6415
 1746SOL    HW2 7030   0.839   2.416   3.122  0.1094 -0.9463 -1.5881
 1746SOL    HW3 7031   0.912   2.444   2.993  2.6057  1.6340  0.2999
 1746SOL    MW4 7032   0.905   2.452   3.079  0.6447  0.4151  0.3021
 1747SOL     OW 7033   0.904   2.699   3.188 -0.1688  0.1314 -0.3969
 1747SOL    HW2 7034   0.881   2.692   3.280 -1.0947 -0.3723 -0.6557
 1747SOL    HW3 7035   0.912   2.608   3.159  0.8579  0.2883 -0.6412
 1747SOL    MW4 7036   0.902   2.686   3.196 -0.1555  0.0858 -0.4632
 1748SOL     OW 7037   1.107   2.846   3.095  0.8303  0.0913  0.0677
 1748SOL    HW2 7038   1.116   2.930   3.139 -0.2798  0.4692 -0.4193
 1748SOL    HW3 7039   1.028   2.806   3.133  2.8497 -1.9665  2.2922
 1748SOL    MW4 7040   1.098   2.852   3.106  0.9501 -0.1307  0.2968
 1749SOL     OW 7041   1.053   3.101   3.198  0.1741  0.2751  0.5116
 1749SOL    HW2 7042   1.117   3.147   3.143  0.3700 -2.3648 -1.5414
 1749SOL    HW3 7043   0.970   3.145   3.179  0.8248  1.6772  0.8121
 1749SOL    MW4 7044   1.050   3.113   3.188  0.2857  0.1118  0.2806
 1750SOL     OW 7045   0.829   3.258   3.093  0.5972  0.0974  0.5547
 1750SOL    HW2 7046   0.758   3.198   3.113  0.3035  0.9446  2.1423
 1750SOL    HW3 7047   0.866   3.225   3.011 -1.1913 -0.7318  0.0547
 1750SOL    MW4 7048   0.825   3.246   3.085  0.3225  0.0999  0.6983
 1751SOL     OW 7049   0.923   3.477   3.430  0.2708 -0.1567  0.1593
 1751SOL    HW2 7050   0.913   3.469   3.335 -1.5007  0.6185  0.2680
 1751SOL    HW3 7051   0.899   3.391   3.464 -4.6526  1.1057  0.2716
 1751SOL    MW4 7052   0.918   3.464   3.422 -0.6126  0.1123  0.1884
 1752SOL     OW 7053   1.115   3.643   3.055  0.4407  0.0236 -0.8592
 1752SOL    HW2 7054   1.204   3.614   3.076  0.0025  0.4325  1.6503
 1752SOL    HW3 7055   1.107   3.728   3.098 -0.1520  1.4589 -3.6392
 1752SOL    MW4 7056   1.126   3.651   3.063  0.3047  0.2668 -0.8945
 1753SOL     OW 7057   1.130   3.914   3.189 -0.1760 -0.5675  0.4542
 1753SOL    HW2 7058   1.120   3.906   3.283 -0.0879  2.1353  0.7410
 1753SOL    HW3 7059   1.045   3.944   3.158  0.3578  0.4428 -0.0573
 1753SOL    MW4 7060   1.118   3.917   3.197 -0.0938 -0.0775  0.4249
 1754SOL     OW 7061   0.887   3.992   3.075  0.2586  0.2779  0.2484
 1754SOL    HW2 7062   0.804   3.950   3.095  0.2471  0.3715  0.3950
 1754SOL    HW3 7063   0.897   3.982   2.980 -0.7507  1.7818 -0.0391
 1754SOL    MW4 7064   0.877   3.985   3.065  0.1239  0.4888  0.2298
 1755SOL     OW 7065   0.935   4.247   3.180  0.5263 -0.5454  0.0630
 1755SOL    HW2 7066   0.917   4.166   3.133  1.2712 -0.3298 -0.5913
 1755SOL    HW3 7067   0.863   4.306   3.155  3.0498  0.9610 -4.0413
 1755SOL    MW4 7068   0.923   4.244   3.171  0.9575 -0.3181 -0.5651
 1756SOL     OW 7069   1.129   4.412   3.077 -0.1165  0.3201 -0.0481
 1756SOL    HW2 7070   1.061   4.364   3.124  0.8755 -0.2650  0.8247
 1756SOL    HW3 7071   1.133   4.497   3.120 -1.3296  0.9230 -1.0848
 1756SOL    MW4 7072   1.121   4.417   3.089 -0.1458  0.3223 -0.0696
 1757SOL     OW 7073   1.620   0.006   3.130 -0.1567  0.1220 -0.5285
 1757SOL    HW2 7074   1.612   0.014   3.226  0.2406  1.1629 -0.5744
 1757SOL    HW3 7075   1.533   0.028   3.097 -0.0688  0.6162 -0.4430
 1757SOL    MW4 7076   1.608   0.010   3.139 -0.0927  0.3242 -0.5236
 1758SOL     OW 7077   1.362   0.083   3.039  0.1944 -0.2627 -0.3021
 1758SOL    HW2 7078   1.355   0.172   3.072 -1.8592 -0.4080 -0.2973
 1758SOL    HW3 7079   1.380   0.093   2.945  0.6320  0.1522 -0.1718
 1758SOL    MW4 7080   1.363   0.096   3.031 -0.0190 -0.2271 -0.2844
 1759SOL     OW 7081   1.358   0.350   3.115  0.3577 -0.0509  0.3846
 1759SOL    HW2 7082   1.354   0.337   3.210 -0.6260  0.4012  0.4085
 1759SOL    HW3 7083   1.438   0.400   3.101  0.7156 -0.4576  0.9317
 1759SOL    MW4 7084   1.368   0.355   3.126  0.2751 -0.0449  0.4599
 1760SOL     OW 7085   1.583   0.506   3.019 -0.2934 -0.5397 -0.0943
 1760SOL    HW2 7086   1.592   0.597   3.047  0.3477 -0.9430  1.0300
 1760SOL    HW3 7087   1.581   0.511   2.923 -1.0513  0.7234 -0.0267
 1760SOL    MW4 7088   1.584   0.519   3.010 -0.3090 -0.4262  0.0629
 1761SOL     OW 7089   1.580   0.768   3.118  0.0407 -0.2243 -0.5484
 1761SOL    HW2 7090   1.571   0.782   3.212  0.8087 -1.1474 -0.3299
 1761SOL    HW3 7091   1.510   0.820   3.079  0.3220  0.9486  0.4766
 1761SOL    MW4 7092   1.570   0.777   3.125  0.1791 -0.1913 -0.3846
 1762SOL     OW 7093   1.348   0.904   3.060  0.0371  0.0579 -0.2130
 1762SOL    HW2 7094   1.324   0.988   3.099  2.1790 -0.4135  2.3060
 1762SOL    HW3 7095   1.283   0.842   3.092 -1.3328  0.6655 -1.7809
 1762SOL    MW4 7096   1.336   0.907   3.069  0.1390  0.0759 -0.0877
 1763SOL     OW 7097   1.298   1.156   3.164 -0.3502 -0.4968 -0.0502
 1763SOL    HW2 7098   1.283   1.182   3.255  0.0574 -0.8124  0.1097
 1763SOL    HW3 7099   1.375   1.207   3.137 -0.1814 -0.7606 -0.0669
 1763SOL    MW4 7100   1.306   1.166   3.172 -0.2742 -0.5733 -0.0315
 1764SOL     OW 7101   1.519   1.291   3.059  0.1029  0.1673  0.6065
 1764SOL    HW2 7102   1.605   1.261   3.088  0.7797  1.3239 -0.2041
 1764SOL    HW3 7103   1.509   1.378   3.098  0.0857  0.8089 -0.8206
 1764SOL    MW4 7104   1.529   1.299   3.068  0.1899  0.4045  0.3111
 1765SOL     OW 7105   1.529   1.558   3.152 -0.4993  0.2989 -0.0542
 1765SOL    HW2 7106   1.606   1.602   3.117 -0.6606  0.1107 -0.6398
 1765SOL    HW3 7107   1.455   1.609   3.120 -0.5686  1.3890  1.7712
 1765SOL    MW4 7108   1.530   1.570   3.143 -0.5298  0.4179  0.1094
 1766SOL     OW 7109   1.314   1.689   3.054 -0.2832  0.2546  0.5030
 1766SOL    HW2 7110   1.316   1.780   3.083 -1.5192  0.0348  1.3056
 1766SOL    HW3 7111   1.338   1.693   2.962  1.5251  1.1918  0.9905
 1766SOL    MW4 7112   1.317   1.701   3.046 -0.2075  0.3493  0.6731
 1767SOL     OW 7113   1.335   1.936   3.159  0.3433  0.1096 -0.6064
 1767SOL    HW2 7114   1.314   1.938   3.253 -1.4253 -0.3087 -0.9714
 1767SOL    HW3 7115   1.276   2.001   3.120 -0.9487 -1.7124 -1.7857
 1767SOL    MW4 7116   1.324   1.945   3.167 -0.0604 -0.1861 -0.8101
 1768SOL     OW 7117   1.570   2.068   3.075  0.5040  0.3553  0.2115
 1768SOL    HW2 7118   1.493   2.025   3.113  0.4476  0.8918  0.7184
 1768SOL    HW3 7119   1.556   2.065   2.981  0.5777 -0.8823  0.2282
 1768SOL    MW4 7120   1.558   2.062   3.068  0.5064  0.2627  0.2806
 1769SOL     OW 7121   1.551   2.331   3.154  0.1308 -0.1124  0.2714
 1769SOL    HW2 7122   1.476   2.364   3.104 -0.6972 -1.6755  0.4427
 1769SOL    HW3 7123   1.566   2.244   3.119  2.2321  0.3983 -0.1236
 1769SOL    MW4 7124   1.543   2.324   3.143  0.2987 -0.2511  0.2418
 1770SOL     OW 7125   1.339   2.447   3.062  0.1085 -0.0355  0.0738
 1770SOL    HW2 7126   1.279   2.378   3.090 -1.9607  1.9732  0.7125
 1770SOL    HW3 7127   1.344   2.437   2.967  2.7524 -3.3195  0.4461
 1770SOL    MW4 7128   1.332   2.437   3.053  0.1844 -0.2036  0.2069
 1771SOL     OW 7129   1.370   2.698   3.151 -0.3816  0.2987 -0.0189
 1771SOL    HW2 7130   1.351   2.613   3.111 -0.1526  0.8165 -1.2472
 1771SOL    HW3 7131   1.301   2.756   3.119  0.4364  0.9917 -0.5408
 1771SOL    MW4 7132   1.358   2.694   3.142 -0.2435  0.4585 -0.2499
 1772SOL     OW 7133   1.584   2.819   3.035 -0.2188 -0.1819 -0.5405
 1772SOL    HW2 7134   1.659   2.770   3.068 -0.0756  0.2519 -0.2198
 1772SOL    HW3 7135   1.508   2.775   3.073 -0.1116 -0.3750 -0.5453
 1772SOL    MW4 7136   1.584   2.807   3.044 -0.1857 -0.1500 -0.4988
 1773SOL     OW 7137   1.508   3.064   3.132 -0.0654 -0.3846  0.3294
 1773SOL    HW2 7138   1.527   3.061   3.226  1.9858  1.0168  0.0034
 1773SOL    HW3 7139   1.537   2.979   3.100  0.1636 -0.4957  0.8159
 1773SOL    MW4 7140   1.514   3.053   3.140  0.2354 -0.2146  0.3505
 1774SOL     OW 7141   1.316   3.237   3.021  0.2761  0.0388  0.1218
 1774SOL    HW2 7142   1.386   3.192   3.070  1.7257  2.7288  0.5941
 1774SOL    HW3 7143   1.346   3.237   2.931  0.0779 -0.2630  0.0530
 1774SOL    MW4 7144   1.329   3.231   3.016  0.4412  0.3541  0.1750
 1775SOL     OW 7145   1.348   3.520   3.118  0.2300 -0.1422 -0.0511
 1775SOL    HW2 7146   1.348   3.515   3.214  0.5642  0.1010 -0.0408
 1775SOL    HW3 7147   1.350   3.428   3.090  1.6879 -0.1844  0.1717
 1775SOL    MW4 7148   1.348   3.507   3.127  0.4665 -0.1154 -0.0203
 1776SOL     OW 7149   1.589   3.622   3.027  0.3067 -0.0917 -0.3038
 1776SOL    HW2 7150   1.512   3.588   3.072  0.5379 -0.5511 -0.2506
 1776SOL    HW3 7151   1.563   3.628   2.935  0.4932 -1.0929 -0.4251
 1776SOL    MW4 7152   1.576   3.619   3.021  0.3618 -0.2844 -0.3128
 1777SOL     OW 7153   1.587   3.881   3.148 -0.3547  0.0648  0.5190
 1777SOL    HW2 7154   1.504   3.908   3.109  0.1185  0.6105 -0.1243
 1777SOL    HW3 7155   1.604   3.795   3.111 -0.2843  0.2595  0.0903
 1777SOL    MW4 7156   1.579   3.873   3.138 -0.2829  0.1626  0.3774
 1778SOL     OW 7157   1.338   4.029   3.045 -0.0027  0.1541 -0.5939
 1778SOL    HW2 7158   1.264   3.999   3.099  0.5506 -2.2190 -1.0863
 1778SOL    HW3 7159   1.355   4.118   3.076 -0.7354 -0.5661  2.0507
 1778SOL    MW4 7160   1.330   4.037   3.057 -0.0265 -0.2542 -0.3099
 1779SOL     OW 7161   1.381   4.276   3.140 -0.3695 -0.0923 -0.5218
 1779SOL    HW2 7162   1.458   4.330   3.123 -0.0213 -0.6784 -0.8283
 1779SOL    HW3 7163   1.306   4.333   3.121 -0.0090  0.3701 -0.5558
 1779SOL    MW4 7164   1.381   4.291   3.135 -0.2760 -0.1082 -0.5667
 1780SOL     OW 7165   1.599   4.419   3.048  0.0517  0.2673 -0.3952
 1780SOL    HW2 7166   1.605   4.503   3.094 -1.5590 -0.6485  1.5752
 1780SOL    HW3 7167   1.671   4.367   3.085 -1.3803 -0.5457  1.3069
 1780SOL    MW4 7168   1.610   4.423   3.059 -0.3498  0.0396  0.0894
 1781SOL     OW 7169   2.101   4.652   3.134  0.0738 -0.0741 -0.1448
 1781SOL    HW2 7170   2.098   4.662   3.230  0.4153  0.6097 -0.2000
 1781SOL    HW3 7171   2.015   4.679   3.104  0.4033  1.0069 -0.1381
 1781SOL    MW4 7172   2.090   4.657   3.143  0.1624  0.1593 -0.1512
 1782SOL     OW 7173   1.865   0.067   3.035  0.3139  0.1591 -0.4853
 1782SOL    HW2 7174   1.775   0.066   3.065  0.3568  0.7440 -0.3371
 1782SOL    HW3 7175   1.859   0.085   2.941  0.3945  3.0659  0.0101
 1782SOL    MW4 7176   1.853   0.069   3.026  0.3302  0.6198 -0.4005
 1783SOL     OW 7177   1.857   0.334   3.094  0.0286  0.2630  0.2051
 1783SOL    HW2 7178   1.853   0.241   3.070 -0.7872  0.1096  0.8910
 1783SOL    HW3 7179   1.770   0.368   3.072  0.2018  0.7726  0.3073
 1783SOL    MW4 7180   1.845   0.326   3.088 -0.0561  0.3100  0.3090
 1784SOL     OW 7181   2.029   0.552   3.054 -0.3907  0.7150 -0.5967
 1784SOL    HW2 7182   1.970   0.481   3.080 -1.1692  1.0027 -1.5371
 1784SOL    HW3 7183   2.044   0.537   2.961  3.2157 -0.9238  0.1571
 1784SOL    MW4 7184   2.023   0.541   3.045 -0.0176  0.5367 -0.6216
 1785SOL     OW 7185   2.022   0.806   3.156  0.1092 -0.6556  0.5637
 1785SOL    HW2 7186   1.941   0.837   3.115  0.4117  1.0190  1.2292
 1785SOL    HW3 7187   2.027   0.714   3.130 -0.6574 -0.1071 -1.6501
 1785SOL    MW4 7188   2.012   0.798   3.147  0.0479 -0.3623  0.3593
 1786SOL     OW 7189   1.795   0.910   3.034 -0.1412  0.1589 -0.4250
 1786SOL    HW2 7190   1.725   0.851   3.061  0.5997 -0.3954  0.3184
 1786SOL    HW3 7191   1.791   0.911   2.939 -0.9402 -0.1396 -0.3949
 1786SOL    MW4 7192   1.785   0.902   3.025 -0.1489  0.0464 -0.3228
 1787SOL     OW 7193   1.756   1.166   3.149 -0.1096  0.1257 -0.6425
 1787SOL    HW2 7194   1.760   1.169   3.244 -0.0498  0.9290 -0.6658
 1787SOL    HW3 7195   1.775   1.074   3.127 -0.5324 -0.1519  0.1306
 1787SOL    MW4 7196   1.759   1.154   3.159 -0.1575  0.1951 -0.5436
 1788SOL     OW 7197   1.985   1.248   3.031  0.4499 -0.2938  0.4355
 1788SOL    HW2 7198   2.047   1.219   3.097  1.1582 -1.2221 -0.6115
 1788SOL    HW3 7199   1.900   1.215   3.061  0.5722  0.3058  1.4686
 1788SOL    MW4 7200   1.982   1.240   3.043  0.5594 -0.3372  0.4334
 1789SOL     OW 7201   1.965   1.523   3.093 -0.4520  0.1739 -0.6769
 1789SOL    HW2 7202   1.975   1.535   3.188 -0.5732  1.7937 -0.8519
 1789SOL    HW3 7203   1.965   1.428   3.081  0.0650 -0.0450  0.8901
 1789SOL    MW4 7204   1.966   1.512   3.104 -0.3997  0.3587 -0.4933
 1790SOL     OW 7205   1.747   1.674   3.012 -0.3677 -0.1341  0.1229
 1790SOL    HW2 7206   1.769   1.762   3.043  0.6187 -0.3085 -0.0413
 1790SOL    HW3 7207   1.825   1.622   3.033 -0.4359 -0.6723 -0.9520
 1790SOL    MW4 7208   1.760   1.679   3.019 -0.2465 -0.2282 -0.0408
 1791SOL     OW 7209   1.801   1.916   3.132  0.0588  0.0019 -0.0687
 1791SOL    HW2 7210   1.873   1.949   3.077  0.8892 -0.9923  0.3848
 1791SOL    HW3 7211   1.725   1.968   3.107  0.4816 -0.2400 -1.9746
 1791SOL    MW4 7212   1.801   1.927   3.121  0.2241 -0.1613 -0.2601
 1792SOL     OW 7213   2.030   2.014   3.022  0.2727 -0.4515  0.0658
 1792SOL    HW2 7214   2.100   1.971   3.073 -0.1083 -0.6312  0.4400
 1792SOL    HW3 7215   2.019   2.099   3.063 -0.8574 -1.0548  1.0386
 1792SOL    MW4 7216   2.038   2.020   3.034  0.0732 -0.5548  0.2434
 1793SOL     OW 7217   2.021   2.271   3.164  0.0090 -0.1031 -0.7639
 1793SOL    HW2 7218   2.094   2.327   3.137  0.2887  0.0446  0.2748
 1793SOL    HW3 7219   1.946   2.303   3.114  0.4443  0.3749 -1.1152
 1793SOL    MW4 7220   2.021   2.283   3.154  0.1035 -0.0203 -0.6735
 1794SOL     OW 7221   1.796   2.420   3.028  0.0562  0.6078  0.3574
 1794SOL    HW2 7222   1.806   2.510   3.060  1.0536 -0.0319  1.8661
 1794SOL    HW3 7223   1.723   2.384   3.080  0.3545  0.2063  0.4978
 1794SOL    MW4 7224   1.787   2.427   3.039  0.2272  0.4704  0.5748
 1795SOL     OW 7225   1.798   2.670   3.140 -0.4991  0.6157 -0.1948
 1795SOL    HW2 7226   1.757   2.671   3.227 -0.8955  1.0966 -0.3879
 1795SOL    HW3 7227   1.884   2.711   3.153 -0.3497  0.2166  0.0747
 1795SOL    MW4 7228   1.804   2.675   3.153 -0.5317  0.6266 -0.1848
 1796SOL     OW 7229   2.052   2.808   3.067 -0.0707 -0.0481  0.7128
 1796SOL    HW2 7230   2.035   2.897   3.097 -1.2165 -0.4631  1.3245
 1796SOL    HW3 7231   2.036   2.811   2.973 -0.1317  0.3891  0.7376
 1796SOL    MW4 7232   2.048   2.820   3.059 -0.2301 -0.0455  0.7968
 1797SOL     OW 7233   1.986   3.069   3.137  0.1224 -0.5466  0.1841
 1797SOL    HW2 7234   2.003   3.082   3.230  0.6461 -0.3406  0.0620
 1797SOL    HW3 7235   1.899   3.106   3.122  0.3412  0.0657  0.4468
 1797SOL    MW4 7236   1.977   3.075   3.147  0.2203 -0.4387  0.2027
 1798SOL     OW 7237   1.754   3.183   3.046 -0.1299  0.4542  0.3783
 1798SOL    HW2 7238   1.668   3.148   3.068 -1.3510  2.5033 -1.0015
 1798SOL    HW3 7239   1.764   3.167   2.953  1.0006  0.2437  0.5273
 1798SOL    MW4 7240   1.744   3.176   3.037 -0.1419  0.6967  0.2162
 1799SOL     OW 7241   1.778   3.450   3.140 -0.4025  0.0069 -0.6614
 1799SOL    HW2 7242   1.760   3.363   3.104 -0.1899 -0.5943  0.6705
 1799SOL    HW3 7243   1.715   3.508   3.096 -2.6900 -1.3478  0.7370
 1799SOL    MW4 7244   1.767   3.446   3.129 -0.6763 -0.2511 -0.3011
 1800SOL     OW 7245   2.012   3.574   3.023  0.0569 -0.5229  0.0956
 1800SOL    HW2 7246   2.012   3.666   3.050 -0.0347  0.2392 -2.3750
 1800SOL    HW3 7247   1.941   3.534   3.073  1.2386  0.2865  2.5495
 1800SOL    MW4 7248   2.003   3.581   3.033  0.2010 -0.3157  0.0935
 1801SOL     OW 7249   1.984   3.829   3.112  0.0391  0.1170 -0.3907
 1801SOL    HW2 7250   1.986   3.833   3.208 -1.5875 -0.9924 -0.2860
 1801SOL    HW3 7251   1.916   3.891   3.087  0.3965  0.3330 -0.8224
 1801SOL    MW4 7252   1.976   3.837   3.121 -0.1284 -0.0007 -0.4339
 1802SOL     OW 7253   1.788   4.029   3.016  0.2394 -0.0869 -0.1717
 1802SOL    HW2 7254   1.710   3.995   3.059 -0.2445  2.0049  0.6323
 1802SOL    HW3 7255   1.787   3.989   2.929 -0.8532 -1.3116  0.3914
 1802SOL    MW4 7256   1.778   4.019   3.011  0.0312  0.0272  0.0086
 1803SOL     OW 7257   1.812   4.275   3.157  0.0953 -0.1307  0.1011
 1803SOL    HW2 7258   1.888   4.319   3.118  0.9318 -0.7903  0.9674
 1803SOL    HW3 7259   1.816   4.186   3.123 -1.3975  0.3337 -1.3683
 1803SOL    MW4 7260   1.823   4.269   3.148  0.0087 -0.1569  0.0215
 1804SOL     OW 7261   2.042   4.388   3.025  0.3796  0.2542 -0.2046
 1804SOL    HW2 7262   2.014   4.398   2.933 -0.8525 -0.5435  0.0691
 1804SOL    HW3 7263   2.054   4.478   3.056 -2.9328  0.7302 -0.0494
 1804SOL    MW4 7264   2.040   4.402   3.017 -0.2201  0.2122 -0.1481
 1805SOL     OW 7265   2.494   0.001   3.130 -0.1150 -0.1376 -0.5785
 1805SOL    HW2 7266   2.505  -0.084   3.087  1.9648  0.9922 -2.4370
 1805SOL    HW3 7267   2.424   0.045   3.081 -0.5520 -0.4259 -0.2101
 1805SOL    MW4 7268   2.487  -0.004   3.118  0.1018 -0.0266 -0.7753
 1806SOL     OW 7269   2.288   0.137   3.014 -0.3155  0.0410  0.2620
 1806SOL    HW2 7270   2.265   0.224   3.045  0.7117  0.2083  0.5773
 1806SOL    HW3 7271   2.220   0.080   3.050  0.0851  0.4285  1.6701
 1806SOL    MW4 7272   2.276   0.141   3.023 -0.1268  0.1142  0.4892
 1807SOL     OW 7273   2.238   0.376   3.148  0.6235  0.8229 -0.2870
 1807SOL    HW2 7274   2.239   0.371   3.244 -0.2442 -1.5517 -0.3601
 1807SOL    HW3 7275   2.176   0.447   3.129 -0.0096  0.6074  0.8986
 1807SOL    MW4 7276   2.230   0.385   3.158  0.4256  0.4812 -0.1402
 1808SOL     OW 7277   2.488   0.493   3.059  0.5588 -0.3183 -0.5524
 1808SOL    HW2 7278   2.414   0.451   3.101  0.9887 -0.1494  0.3898
 1808SOL    HW3 7279   2.467   0.491   2.965 -0.9434  0.3496 -0.2395
 1808SOL    MW4 7280   2.476   0.487   3.052  0.4172 -0.2079 -0.3867
 1809SOL     OW 7281   2.480   0.746   3.147 -0.1576  0.0695 -0.1155
 1809SOL    HW2 7282   2.568   0.781   3.131  0.0145 -0.2899  0.0298
 1809SOL    HW3 7283   2.483   0.658   3.109 -0.9519  0.6417 -1.5583
 1809SOL    MW4 7284   2.492   0.739   3.140 -0.2396  0.0976 -0.2868
 1810SOL     OW 7285   2.270   0.883   3.044  0.3989  0.1518  0.3384
 1810SOL    HW2 7286   2.344   0.836   3.082  0.8268  1.1071  0.7227
 1810SOL    HW3 7287   2.193   0.833   3.071  0.9052 -0.9132 -0.1604
 1810SOL    MW4 7288   2.269   0.870   3.053  0.5224  0.1373  0.3233
 1811SOL     OW 7289   2.201   1.125   3.172  0.1490  0.2577 -0.0137
 1811SOL    HW2 7290   2.207   1.116   3.267  0.0237  0.6141  0.0296
 1811SOL    HW3 7291   2.214   1.036   3.138  1.5064  0.3307  0.2711
 1811SOL    MW4 7292   2.204   1.112   3.180  0.3114  0.3144  0.0296
 1812SOL     OW 7293   2.464   1.234   3.090  0.1510  0.4327  0.1623
 1812SOL    HW2 7294   2.381   1.197   3.119  0.0953  0.5534  0.1587
 1812SOL    HW3 7295   2.454   1.245   2.996  0.3440  0.0133  0.0918
 1812SOL    MW4 7296   2.452   1.231   3.081  0.1690  0.3934  0.1526
 1813SOL     OW 7297   2.452   1.499   3.170 -0.0926 -0.2742  0.4946
 1813SOL    HW2 7298   2.369   1.534   3.137 -0.4175 -0.1064  1.4828
 1813SOL    HW3 7299   2.452   1.408   3.142 -0.0803  0.0276 -0.5067
 1813SOL    MW4 7300   2.441   1.492   3.162 -0.1338 -0.2123  0.4930
 1814SOL     OW 7301   2.218   1.633   3.064  0.2918 -0.3326 -0.8096
 1814SOL    HW2 7302   2.134   1.590   3.077  0.2508 -0.2743 -0.8823
 1814SOL    HW3 7303   2.216   1.663   2.973  0.9206 -1.5064 -1.2156
 1814SOL    MW4 7304   2.207   1.631   3.053  0.3693 -0.4798 -0.8729
 1815SOL     OW 7305   2.179   1.872   3.193  0.0669 -0.3597  0.1679
 1815SOL    HW2 7306   2.254   1.926   3.169  0.1021 -0.5712 -0.2135
 1815SOL    HW3 7307   2.194   1.789   3.146 -0.1135 -0.6066  0.5434
 1815SOL    MW4 7308   2.191   1.868   3.183  0.0477 -0.4201  0.1669
 1816SOL     OW 7309   2.408   2.014   3.129 -0.1378  0.3353  0.0292
 1816SOL    HW2 7310   2.493   1.974   3.148 -1.3132 -2.2377  0.1163
 1816SOL    HW3 7311   2.405   2.019   3.033 -0.6679 -1.4357 -0.0692
 1816SOL    MW4 7312   2.418   2.009   3.119 -0.3629 -0.2377  0.0277
 1817SOL     OW 7313   2.456   2.283   3.191 -0.8349  0.2987  0.0064
 1817SOL    HW2 7314   2.471   2.289   3.285  0.5847  0.3374 -0.2181
 1817SOL    HW3 7315   2.426   2.193   3.177  0.6438 -0.2410  0.2671
 1817SOL    MW4 7316   2.454   2.272   3.201 -0.4528  0.2329  0.0112
 1818SOL     OW 7317   2.249   2.409   3.053 -0.4636 -0.2677  0.4434
 1818SOL    HW2 7318   2.257   2.497   3.090  0.5044 -0.0450 -0.3079
 1818SOL    HW3 7319   2.312   2.357   3.102  0.9884  0.0779 -1.0420
 1818SOL    MW4 7320   2.258   2.414   3.064 -0.1440 -0.1926  0.1483
 1819SOL     OW 7321   2.248   2.648   3.172 -0.1550 -0.4980  0.2346
 1819SOL    HW2 7322   2.323   2.702   3.150 -0.2856  0.0301  1.0417
 1819SOL    HW3 7323   2.175   2.687   3.125 -0.0850 -0.5040  0.1196
 1819SOL    MW4 7324   2.248   2.660   3.163 -0.1628 -0.4292  0.3259
 1820SOL     OW 7325   2.460   2.787   3.071 -0.1673 -0.1079 -0.8223
 1820SOL    HW2 7326   2.445   2.876   3.102 -0.5681  0.2492 -1.9928
 1820SOL    HW3 7327   2.460   2.795   2.975 -0.2676 -1.3732 -0.9382
 1820SOL    MW4 7328   2.458   2.800   3.062 -0.2332 -0.2277 -0.9921
 1821SOL     OW 7329   2.419   3.051   3.167  0.0700  0.1964  0.2754
 1821SOL    HW2 7330   2.491   3.109   3.142 -0.1462  0.3666  0.0446
 1821SOL    HW3 7331   2.340   3.099   3.141 -0.1746  0.5920  1.7421
 1821SOL    MW4 7332   2.418   3.065   3.160  0.0091  0.2711  0.4387
 1822SOL     OW 7333   2.221   3.233   3.043 -0.2236 -0.0538  0.4190
 1822SOL    HW2 7334   2.240   3.314   3.090  1.1898 -0.2051  0.1087
 1822SOL    HW3 7335   2.134   3.208   3.075 -0.1032  0.8687  1.5252
 1822SOL    MW4 7336   2.212   3.240   3.054 -0.0212  0.0479  0.5238
 1823SOL     OW 7337   2.252   3.473   3.145 -0.1098 -0.6500  0.2095
 1823SOL    HW2 7338   2.318   3.528   3.102 -0.1825  0.2332  1.1920
 1823SOL    HW3 7339   2.172   3.489   3.096 -0.0478 -0.1408  0.2722
 1823SOL    MW4 7340   2.250   3.483   3.133 -0.1111 -0.4661  0.3476
 1824SOL     OW 7341   2.450   3.601   3.018 -0.3366 -0.2572  0.0898
 1824SOL    HW2 7342   2.520   3.544   3.048  0.3603 -0.2596 -1.4674
 1824SOL    HW3 7343   2.471   3.687   3.054  0.3416 -0.3081 -0.1803
 1824SOL    MW4 7344   2.462   3.605   3.027 -0.1552 -0.2642 -0.1512
 1825SOL     OW 7345   2.481   3.847   3.139  0.2304 -0.3420  0.0907
 1825SOL    HW2 7346   2.464   3.836   3.233  0.3636  1.5620  0.3690
 1825SOL    HW3 7347   2.546   3.917   3.135 -0.8916  0.6512 -1.4741
 1825SOL    MW4 7348   2.487   3.855   3.151  0.0999  0.0401 -0.0787
 1826SOL     OW 7349   2.218   3.982   3.092  0.0939 -0.0823  0.1631
 1826SOL    HW2 7350   2.301   3.935   3.101  0.1373 -0.1598 -0.6358
 1826SOL    HW3 7351   2.151   3.917   3.113  0.2457  0.0796  1.1800
 1826SOL    MW4 7352   2.220   3.968   3.096  0.1197 -0.0713  0.1919
 1827SOL     OW 7353   2.258   4.260   3.157 -0.0673 -0.0638  0.3553
 1827SOL    HW2 7354   2.240   4.166   3.155  1.9840 -0.4866  0.4227
 1827SOL    HW3 7355   2.184   4.299   3.111 -0.9954 -1.6970  0.4009
 1827SOL    MW4 7356   2.246   4.252   3.151  0.0808 -0.3352  0.3703
 1828SOL     OW 7357   2.471   4.407   3.030 -0.1881 -0.0205 -0.7742
 1828SOL    HW2 7358   2.394   4.378   3.078  0.1721  0.2072 -0.0471
 1828SOL    HW3 7359   2.440   4.421   2.941 -1.7378  2.9792  0.1337
 1828SOL    MW4 7360   2.457   4.405   3.025 -0.3450  0.4053 -0.5584
 1829SOL     OW 7361   2.959   0.021   3.205  0.2761  0.1148  0.1157
 1829SOL    HW2 7362   3.026   0.070   3.156 -0.4463  1.1406  0.1584
 1829SOL    HW3 7363   2.958  -0.065   3.163  0.7439  0.4995 -0.6978
 1829SOL    MW4 7364   2.968   0.016   3.193  0.2427  0.3004  0.0138
 1830SOL     OW 7365   2.741   0.140   3.095 -0.8245  0.5660  0.4038
 1830SOL    HW2 7366   2.817   0.091   3.126 -0.9386  0.3107  0.2811
 1830SOL    HW3 7367   2.665   0.090   3.126 -0.9494  1.1268  1.0234
 1830SOL    MW4 7368   2.741   0.127   3.103 -0.8559  0.6063  0.4694
 1831SOL     OW 7369   2.747   0.415   3.180 -0.7155 -0.4140  0.2017
 1831SOL    HW2 7370   2.766   0.325   3.155 -1.2157 -0.7267  0.9548
 1831SOL    HW3 7371   2.661   0.433   3.142 -0.5947 -0.2371  0.0113
 1831SOL    MW4 7372   2.738   0.406   3.172 -0.7656 -0.4319  0.2761
 1832SOL     OW 7373   2.962   0.521   3.074  0.3530 -0.1214 -0.3006
 1832SOL    HW2 7374   2.878   0.483   3.101  0.3451 -0.4426 -0.7858
 1832SOL    HW3 7375   2.964   0.512   2.979  0.8847 -0.0052 -0.3040
 1832SOL    MW4 7376   2.951   0.515   3.065  0.4222 -0.1484 -0.3650
 1833SOL     OW 7377   2.943   0.771   3.184 -0.1750 -0.4000  0.0450
 1833SOL    HW2 7378   2.945   0.734   3.272  2.3835 -0.9378 -0.1731
 1833SOL    HW3 7379   2.948   0.694   3.126  2.2237  0.0721 -0.4557
 1833SOL    MW4 7380   2.944   0.756   3.188  0.4790 -0.4086 -0.0501
 1834SOL     OW 7381   2.708   0.858   3.068 -0.3739  0.5073  0.2077
 1834SOL    HW2 7382   2.708   0.949   3.096 -0.1433  0.5756 -0.0181
 1834SOL    HW3 7383   2.792   0.824   3.097 -0.0091  0.6574 -0.6630
 1834SOL    MW4 7384   2.719   0.865   3.075 -0.2956  0.5361  0.0632
 1835SOL     OW 7385   2.709   1.112   3.177 -0.1460 -0.0709 -0.3788
 1835SOL    HW2 7386   2.777   1.165   3.137 -0.0235 -0.1391 -0.2602
 1835SOL    HW3 7387   2.627   1.153   3.150 -0.0341  0.6169  0.3342
 1835SOL    MW4 7388   2.707   1.124   3.168 -0.1149  0.0108 -0.2692
 1836SOL     OW 7389   2.902   1.255   3.045  0.3566  0.3793 -0.1223
 1836SOL    HW2 7390   2.986   1.223   3.077  0.0347  0.2687  0.6320
 1836SOL    HW3 7391   2.894   1.342   3.083  0.7195  0.9248 -1.2596
 1836SOL    MW4 7392   2.912   1.262   3.054  0.3619  0.4365 -0.1729
 1837SOL     OW 7393   2.885   1.523   3.115 -0.5498 -0.4427  0.1554
 1837SOL    HW2 7394   2.885   1.534   3.210 -0.7344 -0.2395  0.1329
 1837SOL    HW3 7395   2.959   1.576   3.084  1.0012 -2.4256  0.3989
 1837SOL    MW4 7396   2.895   1.532   3.124 -0.3695 -0.6776  0.1845
 1838SOL     OW 7397   2.656   1.647   3.056  0.4220  0.0459  0.4845
 1838SOL    HW2 7398   2.735   1.597   3.079 -0.2601 -1.6703 -0.8428
 1838SOL    HW3 7399   2.585   1.600   3.100  0.0147  1.0113  0.8589
 1838SOL    MW4 7400   2.657   1.634   3.065  0.2785 -0.0532  0.3586
 1839SOL     OW 7401   2.649   1.893   3.181  0.2604  0.3186 -0.2079
 1839SOL    HW2 7402   2.735   1.928   3.156  0.6948 -0.2876  0.4188
 1839SOL    HW3 7403   2.646   1.806   3.141  0.9684 -0.6655  1.8253
 1839SOL    MW4 7404   2.660   1.887   3.172  0.4113  0.1088  0.1433
 1840SOL     OW 7405   2.858   2.051   3.101 -0.0924 -0.2650 -0.0662
 1840SOL    HW2 7406   2.842   2.138   3.139  1.4635  0.1910 -0.4172
 1840SOL    HW3 7407   2.843   2.062   3.008  2.9575  0.4015 -0.5395
 1840SOL    MW4 7408   2.854   2.064   3.094  0.5155 -0.1168 -0.1752
 1841SOL     OW 7409   2.885   2.328   3.171 -0.4709 -0.0226  0.3514
 1841SOL    HW2 7410   2.954   2.382   3.132  0.0666  0.2577  1.6683
 1841SOL    HW3 7411   2.805   2.358   3.128 -0.0080  0.9384  0.1400
 1841SOL    MW4 7412   2.884   2.339   3.160 -0.3390  0.1414  0.4971
 1842SOL     OW 7413   2.656   2.416   3.052 -0.2005  0.4260  0.4539
 1842SOL    HW2 7414   2.658   2.502   3.093 -1.0771  1.6535 -1.9680
 1842SOL    HW3 7415   2.588   2.368   3.099 -1.0852  1.7501  0.5518
 1842SOL    MW4 7416   2.647   2.421   3.064 -0.4330  0.7627  0.1471
 1843SOL     OW 7417   2.682   2.649   3.187  0.2922  0.4921  0.0990
 1843SOL    HW2 7418   2.695   2.656   3.281  0.6431 -0.3449  0.1093
 1843SOL    HW3 7419   2.607   2.706   3.169 -1.2853 -1.1813  1.2205
 1843SOL    MW4 7420   2.674   2.658   3.197  0.1302  0.1609  0.2484
 1844SOL     OW 7421   2.908   2.820   3.093  0.4419 -0.0152  0.3290
 1844SOL    HW2 7422   2.995   2.790   3.119 -0.0861 -0.5902  1.4858
 1844SOL    HW3 7423   2.852   2.744   3.106 -0.5615  0.8825  1.3671
 1844SOL    MW4 7424   2.912   2.806   3.098  0.2398  0.0274  0.6187
 1845SOL     OW 7425   2.899   3.098   3.128 -0.2539 -0.0962 -0.2399
 1845SOL    HW2 7426   2.807   3.108   3.103 -0.2980 -1.0466 -0.4801
 1845SOL    HW3 7427   2.912   3.003   3.135  1.5492 -0.1562 -3.4049
 1845SOL    MW4 7428   2.889   3.087   3.126 -0.0217 -0.2291 -0.6893
 1846SOL     OW 7429   2.649   3.180   3.062 -0.0513  0.0779  0.5771
 1846SOL    HW2 7430   2.654   3.276   3.059 -0.0145  0.0369 -1.1203
 1846SOL    HW3 7431   2.651   3.153   2.970 -0.0559 -1.5577  1.0436
 1846SOL    MW4 7432   2.650   3.189   3.049 -0.0470 -0.1433  0.4148
 1847SOL     OW 7433   2.673   3.465   3.092 -0.1791 -0.6025  0.3682
 1847SOL    HW2 7434   2.692   3.456   3.185  0.8774  0.5700  0.2750
 1847SOL    HW3 7435   2.749   3.510   3.056  0.1301 -2.4499 -1.3604
 1847SOL    MW4 7436   2.685   3.470   3.100  0.0012 -0.6914  0.1280
 1848SOL     OW 7437   2.902   3.637   3.010  0.3015  0.0533  0.1356
 1848SOL    HW2 7438   2.970   3.591   3.059  0.4877  1.0560  0.8061
 1848SOL    HW3 7439   2.890   3.720   3.055 -2.2447 -0.6045  0.7720
 1848SOL    MW4 7440   2.909   3.642   3.022 -0.0098  0.0989  0.3080
 1849SOL     OW 7441   2.903   3.873   3.165 -0.2304 -0.7123  0.1161
 1849SOL    HW2 7442   2.917   3.863   3.259 -0.2561 -2.0998 -0.0054
 1849SOL    HW3 7443   2.820   3.920   3.157  0.2433  0.2302  0.7924
 1849SOL    MW4 7444   2.894   3.878   3.176 -0.1714 -0.7710  0.1893
 1850SOL     OW 7445   2.680   4.036   3.069  0.2378  0.4345  0.0773
 1850SOL    HW2 7446   2.713   4.125   3.079  0.0233  0.4764  0.4304
 1850SOL    HW3 7447   2.692   4.016   2.977 -1.1860  1.4123 -0.3349
 1850SOL    MW4 7448   2.686   4.045   3.058  0.0215  0.5693  0.0696
 1851SOL     OW 7449   2.709   4.310   3.149 -0.4351  0.0623  0.5506
 1851SOL    HW2 7450   2.686   4.306   3.242 -3.0550  2.0443  0.0417
 1851SOL    HW3 7451   2.633   4.349   3.107  0.1547 -2.0493 -2.6714
 1851SOL    MW4 7452   2.696   4.315   3.156 -0.7029  0.0458  0.0584
 1852SOL     OW 7453   2.930   4.448   3.059 -0.2241  0.1721  0.1589
 1852SOL    HW2 7454   2.998   4.396   3.102  0.2935  1.2868  0.7180
 1852SOL    HW3 7455   2.848   4.410   3.089  0.1523 -0.3119  0.5781
 1852SOL    MW4 7456   2.928   4.436   3.069 -0.1059  0.2551  0.2878
 1853SOL     OW 7457   3.392   0.038   3.145  0.2672 -0.1728  0.5140
 1853SOL    HW2 7458   3.477   0.080   3.133  0.2605  0.2979  1.9614
 1853SOL    HW3 7459   3.409  -0.055   3.132  0.9900 -0.0682  0.6951
 1853SOL    MW4 7460   3.406   0.032   3.142  0.3619 -0.0973  0.7288
 1854SOL     OW 7461   3.157   0.151   3.038  0.2158  0.0682 -0.2117
 1854SOL    HW2 7462   3.158   0.227   3.097  2.6402  0.6683 -0.9653
 1854SOL    HW3 7463   3.241   0.108   3.055 -0.5245 -1.6296 -0.8415
 1854SOL    MW4 7464   3.168   0.156   3.048  0.4377 -0.0766 -0.3943
 1855SOL     OW 7465   3.166   0.385   3.188 -0.7425  0.1317  0.1365
 1855SOL    HW2 7466   3.233   0.422   3.130 -0.3666  0.0617  0.5193
 1855SOL    HW3 7467   3.090   0.441   3.176 -0.2102  0.9759  0.6328
 1855SOL    MW4 7468   3.165   0.397   3.179 -0.6225  0.2339  0.2525
 1856SOL     OW 7469   3.359   0.523   3.044  0.0151 -0.4003 -0.1974
 1856SOL    HW2 7470   3.446   0.503   3.079 -0.6523 -1.7237  0.7812
 1856SOL    HW3 7471   3.362   0.492   2.954  0.6358 -0.2302 -0.2381
 1856SOL    MW4 7472   3.371   0.516   3.037  0.0091 -0.5525 -0.0737
 1857SOL     OW 7473   3.415   0.747   3.199  0.4648  0.2555 -0.2927
 1857SOL    HW2 7474   3.411   0.740   3.294  0.0760  0.9693 -0.2545
 1857SOL    HW3 7475   3.386   0.661   3.167 -1.2097  0.6202  0.2138
 1857SOL    MW4 7476   3.411   0.735   3.207  0.1924  0.3977 -0.2210
 1858SOL     OW 7477   3.195   0.871   3.099 -0.0061  0.3088 -0.3676
 1858SOL    HW2 7478   3.274   0.835   3.140  0.6463  1.9727 -0.1568
 1858SOL    HW3 7479   3.123   0.829   3.147  0.7465 -0.3372  0.2160
 1858SOL    MW4 7480   3.196   0.860   3.111  0.1793  0.4432 -0.2630
 1859SOL     OW 7481   3.159   1.161   3.159  0.3322  0.1621  0.3471
 1859SOL    HW2 7482   3.151   1.165   3.254 -1.7540  0.1602  0.1926
 1859SOL    HW3 7483   3.173   1.068   3.140  0.3812  0.1134  0.6316
 1859SOL    MW4 7484   3.160   1.149   3.169  0.0637  0.1553  0.3641
 1860SOL     OW 7485   3.388   1.286   3.025 -0.2651 -0.3772 -0.0014
 1860SOL    HW2 7486   3.459   1.245   3.074 -0.5622 -0.1516  0.6275
 1860SOL    HW3 7487   3.309   1.240   3.054 -0.5426  0.3114  0.3584
 1860SOL    MW4 7488   3.387   1.275   3.036 -0.3407 -0.2567  0.1290
 1861SOL     OW 7489   3.340   1.565   3.093  0.5532  0.1565 -0.1860
 1861SOL    HW2 7490   3.351   1.560   3.187 -0.4634 -0.9515 -0.1160
 1861SOL    HW3 7491   3.360   1.477   3.061 -1.1322 -0.0386 -0.7682
 1861SOL    MW4 7492   3.344   1.553   3.101  0.1967 -0.0155 -0.2537
 1862SOL     OW 7493   3.098   1.693   3.049  0.4496  0.0939 -0.4436
 1862SOL    HW2 7494   3.181   1.655   3.075  2.0953  1.4707 -3.4414
 1862SOL    HW3 7495   3.087   1.668   2.957 -1.0152  2.3334 -0.9299
 1862SOL    MW4 7496   3.107   1.685   3.040  0.4735  0.5710 -0.9031
 1863SOL     OW 7497   3.118   1.948   3.166 -0.0396 -0.2620  0.0488
 1863SOL    HW2 7498   3.113   1.862   3.125 -0.4149 -0.3976  0.3749
 1863SOL    HW3 7499   3.034   1.989   3.145  0.2535  0.1347 -0.3506
 1863SOL    MW4 7500   3.106   1.942   3.158 -0.0503 -0.2276  0.0393
 1864SOL     OW 7501   3.350   2.022   3.007 -0.1505 -0.1192 -0.3322
 1864SOL    HW2 7502   3.425   2.034   3.065  0.9272 -2.1365 -1.2486
 1864SOL    HW3 7503   3.278   1.997   3.065  0.9516 -2.2465  0.1689
 1864SOL    MW4 7504   3.351   2.020   3.022  0.1373 -0.6661 -0.3870
 1865SOL     OW 7505   3.345   2.281   3.104 -0.2862  0.2517  0.7505
 1865SOL    HW2 7506   3.344   2.275   3.199 -0.6253  0.7803  0.7848
 1865SOL    HW3 7507   3.335   2.191   3.073  0.8009 -0.0279  1.2142
 1865SOL    MW4 7508   3.343   2.268   3.112 -0.1876  0.2842  0.8163
 1866SOL     OW 7509   3.124   2.452   3.033  0.0525 -0.1693 -0.0713
 1866SOL    HW2 7510   3.201   2.404   3.062 -0.2208 -0.2406  0.5440
 1866SOL    HW3 7511   3.131   2.454   2.937 -0.4435 -2.2983 -0.1660
 1866SOL    MW4 7512   3.135   2.446   3.024 -0.0489 -0.4597 -0.0024
 1867SOL     OW 7513   3.146   2.706   3.128 -0.2193  0.3884 -0.2263
 1867SOL    HW2 7514   3.142   2.706   3.224  1.1969 -1.1758 -0.1491
 1867SOL    HW3 7515   3.145   2.613   3.104  0.2796  0.7516 -1.6867
 1867SOL    MW4 7516   3.146   2.694   3.138  0.0331  0.2298 -0.4086
 1868SOL     OW 7517   3.362   2.815   3.022 -0.3840 -0.3292  0.3337
 1868SOL    HW2 7518   3.349   2.899   3.065 -1.1184 -0.0364 -0.4269
 1868SOL    HW3 7519   3.294   2.758   3.059 -0.5040 -0.3012  0.1643
 1868SOL    MW4 7520   3.351   2.818   3.032 -0.4969 -0.2868  0.2110
 1869SOL     OW 7521   3.335   3.089   3.103 -0.4332 -0.3945  0.7219
 1869SOL    HW2 7522   3.347   3.103   3.196 -0.5577 -0.8515  0.8074
 1869SOL    HW3 7523   3.251   3.130   3.083  0.6980  1.8661  0.3298
 1869SOL    MW4 7524   3.326   3.096   3.112 -0.3004 -0.1564  0.6814
 1870SOL     OW 7525   3.117   3.241   3.032 -0.0316 -0.1474  0.4063
 1870SOL    HW2 7526   3.032   3.206   3.060 -0.3235 -0.5635 -0.9529
 1870SOL    HW3 7527   3.116   3.233   2.936  1.6528 -0.4116  0.3907
 1870SOL    MW4 7528   3.106   3.235   3.023  0.1519 -0.2372  0.2248
 1871SOL     OW 7529   3.111   3.505   3.135  0.2091 -0.0287  0.0372
 1871SOL    HW2 7530   3.182   3.557   3.097  0.7304 -1.8588 -1.5305
 1871SOL    HW3 7531   3.132   3.415   3.113 -1.1753 -0.8535  1.9556
 1871SOL    MW4 7532   3.123   3.500   3.127  0.0954 -0.3786  0.0837
 1872SOL     OW 7533   3.361   3.676   3.062  0.1207 -0.1034 -0.0485
 1872SOL    HW2 7534   3.424   3.610   3.091  0.8261  0.0108 -1.2969
 1872SOL    HW3 7535   3.375   3.750   3.121 -0.1335 -0.7650  0.8593
 1872SOL    MW4 7536   3.371   3.677   3.074  0.1802 -0.1757 -0.0932
 1873SOL     OW 7537   3.365   3.923   3.185 -0.3958  0.1495  0.3538
 1873SOL    HW2 7538   3.332   3.894   3.270 -1.9967 -0.6785 -0.5300
 1873SOL    HW3 7539   3.287   3.942   3.133  0.5736  3.7173  0.0660
 1873SOL    MW4 7540   3.351   3.922   3.189 -0.4792  0.5109  0.1991
 1874SOL     OW 7541   3.132   3.989   3.070  0.2518 -0.2320  0.1133
 1874SOL    HW2 7542   3.049   3.950   3.095  0.8620 -1.1855  0.6801
 1874SOL    HW3 7543   3.122   4.009   2.977 -1.6251  2.3034  0.7894
 1874SOL    MW4 7544   3.120   3.986   3.061  0.0846 -0.0234  0.2775
 1875SOL     OW 7545   3.108   4.278   3.192 -0.2013  0.2395 -0.2106
 1875SOL    HW2 7546   3.124   4.277   3.286 -2.3020  0.1774  0.1542
 1875SOL    HW3 7547   3.116   4.186   3.166  2.4231  0.4877 -0.4950
 1875SOL    MW4 7548   3.111   4.266   3.201 -0.1321  0.2637 -0.1998
 1876SOL     OW 7549   3.373   4.392   3.104  0.1499  0.1587  0.5625
 1876SOL    HW2 7550   3.438   4.332   3.140 -0.3799 -1.6655 -1.4578
 1876SOL    HW3 7551   3.289   4.360   3.137 -0.0299  0.5365  0.4775
 1876SOL    MW4 7552   3.371   4.380   3.113  0.0565 -0.0319  0.2847
 1877SOL     OW 7553   3.823   4.655   3.233  0.0413  0.2840 -0.3427
 1877SOL    HW2 7554   3.825   4.578   3.177 -2.2039 -0.0248 -0.0606
 1877SOL    HW3 7555   3.765   4.716   3.187  0.7703  1.2887  0.0615
 1877SOL    MW4 7556   3.815   4.653   3.220 -0.1588  0.3753 -0.2520
 1878SOL     OW 7557   3.654   0.147   3.078  0.0082  0.3069 -0.0688
 1878SOL    HW2 7558   3.662   0.242   3.086  0.0179  0.3333 -0.3988
 1878SOL    HW3 7559   3.640   0.132   2.985  0.1157 -0.0237 -0.0313
 1878SOL    MW4 7560   3.653   0.158   3.067  0.0241  0.2668 -0.1075
 1879SOL     OW 7561   3.594   0.457   3.161  0.0787 -0.1140 -0.0473
 1879SOL    HW2 7562   3.597   0.470   3.256 -1.3227 -1.0091  0.1370
 1879SOL    HW3 7563   3.680   0.486   3.130 -0.5696  3.2483  1.0820
 1879SOL    MW4 7564   3.606   0.463   3.169 -0.1917  0.2115  0.1261
 1880SOL     OW 7565   3.847   0.526   3.069 -0.5434  0.2071 -0.3304
 1880SOL    HW2 7566   3.911   0.477   3.121 -0.0272  0.0956 -1.0483
 1880SOL    HW3 7567   3.853   0.616   3.100 -2.3283 -0.3835  1.8053
 1880SOL    MW4 7568   3.856   0.531   3.080 -0.7110  0.1145 -0.1435
 1881SOL     OW 7569   3.808   0.784   3.210  0.3337  0.4108 -0.1261
 1881SOL    HW2 7570   3.822   0.786   3.304  0.9111  0.9410 -0.2266
 1881SOL    HW3 7571   3.884   0.828   3.172  1.9557 -3.0354 -1.0532
 1881SOL    MW4 7572   3.820   0.790   3.217  0.6237  0.0260 -0.2615
 1882SOL     OW 7573   3.604   0.896   3.041  0.5269  0.0232  0.0228
 1882SOL    HW2 7574   3.675   0.847   3.083 -0.0205 -1.1707 -0.4178
 1882SOL    HW3 7575   3.525   0.871   3.090  0.3855  1.2718  0.4532
 1882SOL    MW4 7576   3.603   0.886   3.053  0.4361  0.0305  0.0215
 1883SOL     OW 7577   3.591   1.162   3.160  0.4268  0.4715 -0.1334
 1883SOL    HW2 7578   3.663   1.215   3.126  0.6590  0.0611 -0.2778
 1883SOL    HW3 7579   3.596   1.080   3.112  1.2749 -0.4512  1.4775
 1883SOL    MW4 7580   3.601   1.158   3.149  0.5693  0.2955  0.0601
 1884SOL     OW 7581   3.816   1.257   3.038  0.1716 -0.5066  0.3255
 1884SOL    HW2 7582   3.817   1.345   3.074  0.1353 -0.6972  0.7990
 1884SOL    HW3 7583   3.779   1.267   2.951 -2.7566 -0.4858  1.5238
 1884SOL    MW4 7584   3.811   1.270   3.031 -0.2196 -0.5291  0.5462
 1885SOL     OW 7585   3.792   1.524   3.161 -0.0885  0.0564  0.4619
 1885SOL    HW2 7586   3.790   1.513   3.256  0.1414  0.1069  0.4727
 1885SOL    HW3 7587   3.710   1.569   3.141  1.0000  2.3603  0.9545
 1885SOL    MW4 7588   3.781   1.529   3.171  0.0856  0.3669  0.5283
 1886SOL     OW 7589   3.588   1.691   3.035 -0.1783 -0.4431  0.2444
 1886SOL    HW2 7590   3.503   1.654   3.058  0.2019 -1.7014 -0.3242
 1886SOL    HW3 7591   3.586   1.701   2.940  0.2889 -0.4384  0.2321
 1886SOL    MW4 7592   3.577   1.688   3.026 -0.0665 -0.6084  0.1674
 1887SOL     OW 7593   3.582   1.948   3.174  0.2466  0.0069  0.2409
 1887SOL    HW2 7594   3.583   1.920   3.266 -0.9676 -1.6830 -0.2321
 1887SOL    HW3 7595   3.571   1.867   3.125  0.3448  0.9601 -1.3846
 1887SOL    MW4 7596   3.581   1.934   3.180  0.0994 -0.0902 -0.0360
 1888SOL     OW 7597   3.839   2.061   3.091 -0.1248  0.0028 -0.2171
 1888SOL    HW2 7598   3.752   2.030   3.117 -0.3427  0.3472 -0.5353
 1888SOL    HW3 7599   3.835   2.066   2.996  0.7161 -1.3979 -0.3448
 1888SOL    MW4 7600   3.827   2.058   3.082 -0.0424 -0.1366 -0.2761
 1889SOL     OW 7601   3.777   2.331   3.150 -0.2433 -0.2181 -0.2748
 1889SOL    HW2 7602   3.757   2.338   3.243  1.1965  0.0282  0.0254
 1889SOL    HW3 7603   3.810   2.242   3.139 -1.0046 -0.4594 -0.6775
 1889SOL    MW4 7604   3.779   2.320   3.161 -0.1535 -0.2172 -0.2880
 1890SOL     OW 7605   3.559   2.445   3.029  0.2901 -0.2514 -0.4081
 1890SOL    HW2 7606   3.639   2.400   3.059  0.4352  1.0341  1.1442
 1890SOL    HW3 7607   3.488   2.391   3.061  0.5021 -0.9803 -1.1287
 1890SOL    MW4 7608   3.560   2.432   3.037  0.3374 -0.1781 -0.2985
 1891SOL     OW 7609   3.589   2.707   3.145 -0.0813  0.4574  0.3040
 1891SOL    HW2 7610   3.589   2.619   3.107 -0.2746  0.9876 -0.9716
 1891SOL    HW3 7611   3.501   2.740   3.126 -0.0231  0.9084  0.8255
 1891SOL    MW4 7612   3.577   2.700   3.137 -0.0992  0.5867  0.2046
 1892SOL     OW 7613   3.787   2.851   3.019 -0.2171  0.0547  0.1991
 1892SOL    HW2 7614   3.714   2.792   3.035  0.8215 -1.4912 -0.5086
 1892SOL    HW3 7615   3.800   2.848   2.924  0.7007  0.3613  0.3012
 1892SOL    MW4 7616   3.779   2.843   3.008  0.0410 -0.1085  0.1190
 1893SOL     OW 7617   3.765   3.095   3.150 -0.4608  0.1235 -0.0017
 1893SOL    HW2 7618   3.752   3.013   3.102 -3.0004  0.3646  0.2253
 1893SOL    HW3 7619   3.702   3.156   3.111  1.9773  2.2938 -0.7770
 1893SOL    MW4 7620   3.755   3.093   3.138 -0.4742  0.4418 -0.0739
 1894SOL     OW 7621   3.552   3.261   3.054 -0.0681  0.5474  0.5113
 1894SOL    HW2 7622   3.482   3.196   3.061  1.7206 -1.4363  0.7437
 1894SOL    HW3 7623   3.574   3.263   2.961  1.9261 -1.4840  0.9030
 1894SOL    MW4 7624   3.546   3.253   3.043  0.4308  0.0176  0.5934
 1895SOL     OW 7625   3.529   3.512   3.180 -0.1479 -0.4453 -0.0555
 1895SOL    HW2 7626   3.609   3.545   3.138 -1.3001  1.2556 -0.9599
 1895SOL    HW3 7627   3.520   3.422   3.148 -0.0132  0.2276 -2.0160
 1895SOL    MW4 7628   3.538   3.504   3.170 -0.2820 -0.1323 -0.4334
 1896SOL     OW 7629   3.767   3.612   3.038  0.8269  0.4207  0.2397
 1896SOL    HW2 7630   3.833   3.561   3.085 -0.1056 -0.9055  0.1390
 1896SOL    HW3 7631   3.790   3.704   3.056  2.2525 -0.0290  0.7959
 1896SOL    MW4 7632   3.779   3.618   3.047  0.8919  0.1864  0.2997
 1897SOL     OW 7633   3.784   3.856   3.154  0.0730  0.4120 -0.5734
 1897SOL    HW2 7634   3.791   3.857   3.249 -2.7416 -0.7172 -0.3086
 1897SOL    HW3 7635   3.703   3.902   3.134 -0.9377 -1.9439 -2.2070
 1897SOL    MW4 7636   3.774   3.862   3.164 -0.4318 -0.0479 -0.7541
 1898SOL     OW 7637   3.583   4.030   3.058  0.2350  0.3506 -0.1324
 1898SOL    HW2 7638   3.497   3.995   3.083  0.4983  0.6054  1.1961
 1898SOL    HW3 7639   3.575   4.050   2.965 -1.0284  0.0150 -0.1063
 1898SOL    MW4 7640   3.570   4.028   3.049  0.1030  0.3395  0.0463
 1899SOL     OW 7641   3.609   4.277   3.175 -0.5003  0.4022  0.2783
 1899SOL    HW2 7642   3.676   4.317   3.120 -1.5219  0.9318 -0.5970
 1899SOL    HW3 7643   3.611   4.184   3.153 -0.9820  0.6304 -0.7484
 1899SOL    MW4 7644   3.618   4.270   3.165 -0.6983  0.5026  0.0272
 1900SOL     OW 7645   3.837   4.421   3.083 -0.1984 -0.0822  0.4264
 1900SOL    HW2 7646   3.911   4.365   3.104  0.8615  1.1173 -0.0829
 1900SOL    HW3 7647   3.836   4.425   2.988 -1.2734 -0.5457  0.4062
 1900SOL    MW4 7648   3.846   4.414   3.074 -0.2003  0.0148  0.3567
 1901SOL     OW 7649   4.292   0.006   3.144  0.1576 -0.5926 -0.1272
 1901SOL    HW2 7650   4.279   0.015   3.239 -0.2246 -1.1837 -0.1226
 1901SOL    HW3 7651   4.294  -0.088   3.129 -0.5351 -0.5011 -0.8114
 1901SOL    MW4 7652   4.291  -0.005   3.155  0.0157 -0.6585 -0.2165
 1902SOL     OW 7653   4.049   0.117   3.091 -0.2828 -0.2426 -0.0685
 1902SOL    HW2 7654   4.121   0.056   3.112  0.2530  1.0077  1.8540
 1902SOL    HW3 7655   3.986   0.104   3.162 -0.1491  1.4281  0.3687
 1902SOL    MW4 7656   4.050   0.107   3.103 -0.1941  0.1428  0.2427
 1903SOL     OW 7657   4.059   0.381   3.174 -0.1850  0.5592 -0.6438
 1903SOL    HW2 7658   4.138   0.415   3.132  1.8699 -1.2063  1.6289
 1903SOL    HW3 7659   4.063   0.286   3.158 -1.7647  0.4436 -0.3790
 1903SOL    MW4 7660   4.070   0.373   3.166 -0.1221  0.3110 -0.3092
 1904SOL     OW 7661   4.292   0.504   3.060 -0.1091  0.1724 -0.0614
 1904SOL    HW2 7662   4.283   0.592   3.097 -2.6567  0.4625 -1.2634
 1904SOL    HW3 7663   4.273   0.515   2.967  2.0594 -1.2567 -0.7187
 1904SOL    MW4 7664   4.288   0.517   3.053 -0.1588  0.0221 -0.3066
 1905SOL     OW 7665   4.261   0.753   3.190  0.0600 -0.1566 -0.3561
 1905SOL    HW2 7666   4.184   0.787   3.144  0.0450 -0.8158 -0.8240
 1905SOL    HW3 7667   4.332   0.812   3.165 -0.3635  0.6655  0.3599
 1905SOL    MW4 7668   4.260   0.765   3.181  0.0019 -0.1351 -0.3235
 1906SOL     OW 7669   4.043   0.886   3.049  0.0627  0.0292  0.3198
 1906SOL    HW2 7670   4.064   0.979   3.059  0.9830 -0.2043  0.6256
 1906SOL    HW3 7671   4.009   0.878   2.960 -1.1384  0.8583  0.6929
 1906SOL    MW4 7672   4.041   0.897   3.038  0.0257  0.1078  0.4094
 1907SOL     OW 7673   4.045   1.153   3.138  0.2886  0.4280  0.0847
 1907SOL    HW2 7674   4.036   1.154   3.234  0.0757  1.8279  0.0568
 1907SOL    HW3 7675   3.956   1.170   3.106  1.0379  3.9346 -0.2980
 1907SOL    MW4 7676   4.032   1.155   3.147  0.3600  1.0754  0.0305
 1908SOL     OW 7677   4.275   1.278   3.069 -0.4154  0.4227  0.3132
 1908SOL    HW2 7678   4.197   1.227   3.093 -2.0407  2.7345  0.0834
 1908SOL    HW3 7679   4.278   1.272   2.974 -0.3103  0.3243  0.3229
 1908SOL    MW4 7680   4.265   1.270   3.060 -0.6156  0.7147  0.2837
 1909SOL     OW 7681   4.274   1.549   3.125 -0.0216  0.3033  0.7781
 1909SOL    HW2 7682   4.190   1.583   3.094 -0.3453 -0.3796  0.8965
 1909SOL    HW3 7683   4.268   1.454   3.112  1.2776  0.3708 -0.5297
 1909SOL    MW4 7684   4.262   1.541   3.119  0.1068  0.2221  0.6211
 1910SOL     OW 7685   4.013   1.667   3.061  0.2831 -0.7561  0.2340
 1910SOL    HW2 7686   4.030   1.752   3.101 -0.7123 -0.7542  0.6842
 1910SOL    HW3 7687   3.927   1.641   3.096  0.3473 -1.7067 -0.2945
 1910SOL    MW4 7688   4.004   1.675   3.071  0.1602 -0.8814  0.2234
 1911SOL     OW 7689   4.052   1.907   3.175  0.2930 -0.4771  0.0582
 1911SOL    HW2 7690   4.134   1.943   3.139  0.6343 -2.0316 -0.7486
 1911SOL    HW3 7691   3.985   1.971   3.150  1.2418  0.7621  0.6341
 1911SOL    MW4 7692   4.054   1.920   3.167  0.4630 -0.5188  0.0277
 1912SOL     OW 7693   4.271   2.038   3.065  0.3057  0.6639  0.3152
 1912SOL    HW2 7694   4.266   2.129   3.093  1.8340  0.6206  0.7587
 1912SOL    HW3 7695   4.258   2.042   2.970 -0.0390  1.2945  0.3829
 1912SOL    MW4 7696   4.268   2.051   3.056  0.4621  0.7412  0.3827
 1913SOL     OW 7697   4.227   2.308   3.157  0.5917  0.3116 -0.1977
 1913SOL    HW2 7698   4.152   2.357   3.123  0.7944  0.6060 -0.2214
 1913SOL    HW3 7699   4.303   2.346   3.112  0.7046 -0.3256 -0.5492
 1913SOL    MW4 7700   4.227   2.320   3.147  0.6342  0.2663 -0.2475
 1914SOL     OW 7701   4.002   2.466   3.055 -0.6478 -0.1856  0.1364
 1914SOL    HW2 7702   4.002   2.546   3.107 -1.3791 -0.7721  1.0646
 1914SOL    HW3 7703   3.925   2.417   3.087 -0.5551 -0.9740 -0.8366
 1914SOL    MW4 7704   3.991   2.470   3.066 -0.7317 -0.3669  0.1307
 1915SOL     OW 7705   3.975   2.714   3.179 -0.1850  0.0991 -0.0667
 1915SOL    HW2 7706   3.964   2.706   3.274  0.5466  0.7667  0.0789
 1915SOL    HW3 7707   3.914   2.782   3.153  0.3854  0.6706  0.0847
 1915SOL    MW4 7708   3.965   2.722   3.188 -0.0134  0.2625 -0.0277
 1916SOL     OW 7709   4.208   2.810   3.063  0.2665 -0.5790  0.2663
 1916SOL    HW2 7710   4.134   2.769   3.106  0.6988 -0.2504  1.3481
 1916SOL    HW3 7711   4.285   2.767   3.101  0.7065  0.9357  1.1159
 1916SOL    MW4 7712   4.209   2.799   3.074  0.3815 -0.3359  0.5212
 1917SOL     OW 7713   4.241   3.070   3.144  0.2487  0.3709  0.6126
 1917SOL    HW2 7714   4.164   3.123   3.125 -1.1610 -1.3332  1.4683
 1917SOL    HW3 7715   4.227   2.988   3.097  1.5627  0.0664  0.7241
 1917SOL    MW4 7716   4.229   3.066   3.135  0.2360  0.1059  0.7405
 1918SOL     OW 7717   4.011   3.208   3.050 -0.5113  0.1222 -0.1572
 1918SOL    HW2 7718   3.931   3.167   3.084 -0.8166  0.2297 -0.7184
 1918SOL    HW3 7719   4.000   3.204   2.955  0.7963 -1.1018 -0.2615
 1918SOL    MW4 7720   3.999   3.202   3.042 -0.3786 -0.0253 -0.2451
 1919SOL     OW 7721   3.980   3.479   3.150 -0.2371  0.0749 -0.1844
 1919SOL    HW2 7722   3.991   3.386   3.134 -1.3450 -0.0055 -0.5025
 1919SOL    HW3 7723   3.983   3.488   3.246  1.7665 -0.0265 -0.2109
 1919SOL    MW4 7724   3.982   3.468   3.161 -0.1187  0.0508 -0.2298
 1920SOL     OW 7725   4.239   3.587   3.083  0.1124  0.5206  0.6018
 1920SOL    HW2 7726   4.249   3.676   3.117 -1.3520  1.2806 -0.8596
 1920SOL    HW3 7727   4.146   3.568   3.093  0.3931 -0.8090  0.7734
 1920SOL    MW4 7728   4.228   3.596   3.089 -0.0439  0.4456  0.4315
 1921SOL     OW 7729   4.274   3.843   3.158  0.5515 -0.2204  0.1123
 1921SOL    HW2 7730   4.192   3.889   3.137  0.2291 -0.9582 -0.2434
 1921SOL    HW3 7731   4.342   3.902   3.127  0.1016 -0.6118 -1.6631
 1921SOL    MW4 7732   4.272   3.857   3.151  0.4492 -0.3691 -0.1690
 1922SOL     OW 7733   4.031   3.975   3.101  0.2691 -0.2070 -0.1055
 1922SOL    HW2 7734   4.027   4.066   3.128  0.4654 -0.9577  2.5167
 1922SOL    HW3 7735   3.950   3.936   3.132  0.0122 -0.8726 -1.5347
 1922SOL    MW4 7736   4.020   3.982   3.108  0.2608 -0.3941  0.0517
 1923SOL     OW 7737   4.051   4.252   3.168  0.1305 -0.0845  0.5237
 1923SOL    HW2 7738   4.040   4.236   3.262 -0.0675 -0.4566  0.4371
 1923SOL    HW3 7739   4.144   4.272   3.158  0.2950 -0.7706  0.6895
 1923SOL    MW4 7740   4.062   4.253   3.179  0.1259 -0.2246  0.5343
 1924SOL     OW 7741   4.284   4.392   3.097  0.2821  0.1319 -0.3027
 1924SOL    HW2 7742   4.365   4.355   3.131 -0.5876 -0.7592  0.8270
 1924SOL    HW3 7743   4.287   4.374   3.003  1.1553 -0.3499 -0.1889
 1924SOL    MW4 7744   4.295   4.385   3.089  0.2823 -0.0496 -0.1388
 1925SOL     OW 7745   0.238   4.636   3.430 -0.5435 -0.3721 -0.0704
 1925SOL    HW2 7746   0.303   4.687   3.479  0.2317 -0.1889 -1.2706
 1925SOL    HW3 7747   0.244   4.548   3.466  0.4294 -0.3747 -0.2231
 1925SOL    MW4 7748   0.248   4.631   3.441 -0.3129 -0.3476 -0.2489
 1926SOL     OW 7749   0.005   0.108   3.476 -0.2420  0.1380  0.4618
 1926SOL    HW2 7750   0.008   0.199   3.448  0.0428 -0.3557 -1.1329
 1926SOL    HW3 7751   0.095   0.077   3.467 -0.3141 -0.2785  1.1065
 1926SOL    MW4 7752   0.017   0.116   3.471 -0.2136  0.0179  0.3366
 1927SOL     OW 7753   0.008   0.376   3.434  0.3482 -0.5354 -0.1711
 1927SOL    HW2 7754  -0.065   0.420   3.476  0.7361 -0.3904  0.3586
 1927SOL    HW3 7755   0.086   0.411   3.477  0.7897  0.0238 -1.3871
 1927SOL    MW4 7756   0.009   0.386   3.445  0.4578 -0.4424 -0.2618
 1928SOL     OW 7757   0.231   0.447   3.571  0.3286  0.1932 -0.0339
 1928SOL    HW2 7758   0.314   0.417   3.533 -0.3374 -0.6897 -0.8189
 1928SOL    HW3 7759   0.225   0.539   3.547  1.6890  0.6077  1.1294
 1928SOL    MW4 7760   0.241   0.455   3.563  0.4202  0.1314  0.0162
 1929SOL     OW 7761   0.203   0.709   3.454 -0.0117  0.5312 -0.1525
 1929SOL    HW2 7762   0.277   0.761   3.485 -0.2050  1.1450 -0.7107
 1929SOL    HW3 7763   0.127   0.744   3.501  0.1092 -0.3365  0.6860
 1929SOL    MW4 7764   0.203   0.720   3.464 -0.0213  0.4978 -0.1156
 1930SOL     OW 7765   4.479   0.853   3.546  0.0367 -0.4714  0.1735
 1930SOL    HW2 7766   4.485   0.866   3.641 -1.6234 -1.0095  0.3530
 1930SOL    HW3 7767   4.480   0.942   3.511 -0.2553 -0.2295  0.7591
 1930SOL    MW4 7768   4.480   0.867   3.554 -0.2208 -0.5105  0.2744
 1931SOL     OW 7769   0.030   1.113   3.471 -0.3514  0.4021 -0.1821
 1931SOL    HW2 7770   0.070   1.184   3.521  0.1251 -0.0311  0.0576
 1931SOL    HW3 7771   0.041   1.138   3.379 -1.4734  1.3319 -0.0584
 1931SOL    MW4 7772   0.037   1.125   3.465 -0.4365  0.4678 -0.1342
 1932SOL     OW 7773   0.215   1.318   3.594 -0.6065 -0.0789 -0.3551
 1932SOL    HW2 7774   0.281   1.263   3.552  0.1416  1.1257 -0.7933
 1932SOL    HW3 7775   0.198   1.387   3.531 -1.5972  0.1499  0.1543
 1932SOL    MW4 7776   0.222   1.320   3.580 -0.6385  0.1101 -0.3457
 1933SOL     OW 7777   0.221   1.543   3.390 -0.2130  0.4814 -0.2024
 1933SOL    HW2 7778   0.297   1.567   3.442  0.1706 -1.6492  0.2541
 1933SOL    HW3 7779   0.242   1.573   3.301  0.9522  0.3071  0.0126
 1933SOL    MW4 7780   0.234   1.550   3.385 -0.0087  0.1774 -0.1140
 1934SOL     OW 7781   4.485   1.673   3.476  0.2538 -0.0915 -0.3666
 1934SOL    HW2 7782   4.405   1.623   3.461  0.6201 -0.2613 -1.8277
 1934SOL    HW3 7783   4.553   1.626   3.427  1.5058 -0.6274  1.8112
 1934SOL    MW4 7784   4.484   1.660   3.468  0.4678 -0.1845 -0.2723
 1935SOL     OW 7785   4.472   1.949   3.400 -0.4439  0.2105 -0.4445
 1935SOL    HW2 7786   4.448   1.860   3.423 -0.4646  0.2485 -0.3165
 1935SOL    HW3 7787   4.477   1.950   3.305 -0.5918  0.1116 -0.4511
 1935SOL    MW4 7788   4.470   1.938   3.391 -0.4663  0.2023 -0.4287
 1936SOL     OW 7789   0.235   2.033   3.506  0.8148  0.0683 -0.1214
 1936SOL    HW2 7790   0.227   2.035   3.601 -1.0291  0.2037 -0.2499
 1936SOL    HW3 7791   0.150   2.001   3.476  1.0207  1.0134 -1.7686
 1936SOL    MW4 7792   0.223   2.029   3.514  0.5987  0.2108 -0.3557
 1937SOL     OW 7793   0.187   2.306   3.431 -0.0751 -0.1830  0.1293
 1937SOL    HW2 7794   0.119   2.351   3.482  0.9041  1.6417 -0.1248
 1937SOL    HW3 7795   0.185   2.216   3.462 -0.9334  0.4173  1.8829
 1937SOL    MW4 7796   0.178   2.300   3.442 -0.0592  0.1369  0.3271
 1938SOL     OW 7797   4.468   2.469   3.550  0.0152  0.4153 -0.2465
 1938SOL    HW2 7798   4.452   2.446   3.642  0.1774  0.4756 -0.2041
 1938SOL    HW3 7799   4.407   2.414   3.501 -0.4820  0.8044 -0.0671
 1938SOL    MW4 7800   4.458   2.459   3.556 -0.0291  0.4745 -0.2170
 1939SOL     OW 7801   0.014   2.728   3.411  0.7360 -0.4132 -0.3012
 1939SOL    HW2 7802   0.086   2.782   3.443 -1.3285  1.8041  0.8105
 1939SOL    HW3 7803   0.021   2.646   3.461  0.3421  1.2004  2.5379
 1939SOL    MW4 7804   0.025   2.724   3.422  0.4115  0.0923  0.2201
 1940SOL     OW 7805   0.210   2.864   3.575  0.6997  0.1909 -0.1240
 1940SOL    HW2 7806   0.281   2.817   3.531  1.2793  1.5583 -0.6659
 1940SOL    HW3 7807   0.221   2.955   3.548 -0.5512  0.6089  0.7375
 1940SOL    MW4 7808   0.221   2.870   3.566  0.6112  0.4265 -0.0818
 1941SOL     OW 7809   0.100   4.128   4.214  0.1846  0.2300 -0.1754
 1941SOL    HW2 7810   0.141   4.048   4.181  0.5039  0.4467 -0.3061
 1941SOL    HW3 7811   0.139   4.141   4.300 -0.1655  0.0257  0.0187
 1941SOL    MW4 7812   0.110   4.119   4.221  0.1806  0.2313 -0.1669
 1942SOL     OW 7813   4.269   2.831   3.514  0.4609 -0.1211  0.2423
 1942SOL    HW2 7814   4.350   2.795   3.478  0.1978  0.7933 -1.3545
 1942SOL    HW3 7815   4.271   2.924   3.488 -0.6947  0.0940  0.8884
 1942SOL    MW4 7816   4.280   2.839   3.506  0.2737  0.0279  0.1168
 1943SOL     OW 7817   4.466   3.464   3.476  0.5413 -0.0964 -0.0064
 1943SOL    HW2 7818   4.383   3.496   3.511  0.7325  1.4090 -0.8917
 1943SOL    HW3 7819   4.455   3.468   3.381  0.8565 -1.9715 -0.1542
 1943SOL    MW4 7820   4.453   3.469   3.468  0.6075 -0.1454 -0.1428
 1944SOL     OW 7821   0.203   3.580   3.579 -0.0700  0.0629  0.0518
 1944SOL    HW2 7822   0.186   3.582   3.673 -0.3914 -3.4197  0.1070
 1944SOL    HW3 7823   0.126   3.538   3.542  0.1459  1.2333 -1.7767
 1944SOL    MW4 7824   0.191   3.575   3.587 -0.0839 -0.2422 -0.1824
 1945SOL     OW 7825   0.234   3.828   3.416  0.5497 -0.2661  0.2451
 1945SOL    HW2 7826   0.168   3.890   3.447  0.5144  0.7623 -1.8298
 1945SOL    HW3 7827   0.223   3.751   3.473 -2.7121 -0.2706 -0.2860
 1945SOL    MW4 7828   0.224   3.826   3.428  0.1147 -0.1311 -0.0985
 1946SOL     OW 7829   0.037   3.966   3.522  0.1723  0.2853  0.3749
 1946SOL    HW2 7830   0.030   3.953   3.617 -1.7060  0.6546  0.3059
 1946SOL    HW3 7831   0.005   4.054   3.507  0.4441  0.2231 -0.6123
 1946SOL    MW4 7832   0.032   3.976   3.533 -0.0397  0.3257  0.2356
 1947SOL     OW 7833   0.007   4.233   3.454 -0.1309  0.6051 -0.2819
 1947SOL    HW2 7834  -0.064   4.286   3.492 -0.1104 -0.8073  1.8176
 1947SOL    HW3 7835   0.087   4.275   3.485 -0.1135 -0.5676  1.3290
 1947SOL    MW4 7836   0.008   4.246   3.463 -0.1259  0.2642  0.2077
 1948SOL     OW 7837   0.235   4.383   3.517  0.0310 -0.0544 -0.1689
 1948SOL    HW2 7838   0.247   4.374   3.612  1.0898  1.9956 -0.0769
 1948SOL    HW3 7839   0.310   4.336   3.479 -0.5233 -1.0836 -0.0170
 1948SOL    MW4 7840   0.247   4.376   3.524  0.0975  0.0806 -0.1369
 1949SOL     OW 7841   0.668   0.004   3.446 -0.2278 -0.0373  0.0922
 1949SOL    HW2 7842   0.743   0.048   3.484 -1.2261  1.8204  0.0021
 1949SOL    HW3 7843   0.689  -0.004   3.353  0.1736 -0.2147  0.1988
 1949SOL    MW4 7844   0.680   0.009   3.438 -0.3065  0.1844  0.0944
 1950SOL     OW 7845   0.440   0.130   3.527  0.2827  0.0610  0.7441
 1950SOL    HW2 7846   0.437   0.120   3.622 -0.4758 -1.7217  0.5469
 1950SOL    HW3 7847   0.514   0.075   3.500 -0.7478 -1.0551  0.1290
 1950SOL    MW4 7848   0.450   0.121   3.536  0.0466 -0.3215  0.6373
 1951SOL     OW 7849   0.487   0.390   3.473 -0.1758 -0.1789  0.3413
 1951SOL    HW2 7850   0.572   0.421   3.506 -0.4457 -0.7093  1.5697
 1951SOL    HW3 7851   0.485   0.297   3.498 -1.3901 -0.0094  0.8891
 1951SOL    MW4 7852   0.498   0.382   3.481 -0.3716 -0.2265  0.5758
 1952SOL     OW 7853   0.725   0.527   3.605  0.1453  0.3756  0.1680
 1952SOL    HW2 7854   0.701   0.483   3.686 -0.2128  0.3969  0.0747
 1952SOL    HW3 7855   0.804   0.482   3.576  0.2076  0.2921  0.4688
 1952SOL    MW4 7856   0.732   0.515   3.612  0.1062  0.3675  0.1955
 1953SOL     OW 7857   0.656   0.718   3.428  0.1046  0.2025 -0.2663
 1953SOL    HW2 7858   0.581   0.765   3.464  1.0222  2.0077 -0.6352
 1953SOL    HW3 7859   0.671   0.647   3.490 -0.6619  1.0266  0.8978
 1953SOL    MW4 7860   0.648   0.715   3.441  0.1245  0.5494 -0.1614
 1954SOL     OW 7861   0.429   0.838   3.541 -0.1871  0.5419 -0.3042
 1954SOL    HW2 7862   0.440   0.827   3.636 -0.5038  1.6361 -0.1387
 1954SOL    HW3 7863   0.421   0.932   3.528  2.1939  0.5735 -1.6901
 1954SOL    MW4 7864   0.429   0.849   3.552  0.0853  0.6904 -0.4654
 1955SOL     OW 7865   0.423   1.109   3.501  0.1828  0.6150 -0.3088
 1955SOL    HW2 7866   0.499   1.158   3.531 -1.1087  2.6168 -0.2162
 1955SOL    HW3 7867   0.419   1.125   3.407  0.4464 -0.2942 -0.4757
 1955SOL    MW4 7868   0.432   1.117   3.493  0.0472  0.7591 -0.3185
 1956SOL     OW 7869   0.636   1.264   3.573 -0.6404  0.1039  0.6126
 1956SOL    HW2 7870   0.704   1.209   3.533  0.4806  0.9134  1.3851
 1956SOL    HW3 7871   0.647   1.349   3.532 -2.3565 -0.2123 -0.5491
 1956SOL    MW4 7872   0.646   1.268   3.562 -0.7190  0.1689  0.5612
 1957SOL     OW 7873   0.685   1.511   3.458  0.5564  0.3163 -0.1525
 1957SOL    HW2 7874   0.740   1.569   3.510  1.4568 -1.3786  0.8368
 1957SOL    HW3 7875   0.596   1.528   3.488  0.7219  1.6710 -0.3819
 1957SOL    MW4 7876   0.680   1.521   3.469  0.6970  0.2714 -0.0522
 1958SOL     OW 7877   0.436   1.625   3.537 -0.4235 -0.1613 -0.8922
 1958SOL    HW2 7878   0.435   1.639   3.631 -0.6613 -0.0161 -0.9178
 1958SOL    HW3 7879   0.455   1.711   3.499 -3.3459  0.4327 -1.1178
 1958SOL    MW4 7880   0.439   1.638   3.544 -0.8405 -0.0639 -0.9251
 1959SOL     OW 7881   0.478   1.903   3.450 -0.2635  0.1609  0.0100
 1959SOL    HW2 7882   0.408   1.966   3.466 -1.7866 -1.1595 -1.3375
 1959SOL    HW3 7883   0.515   1.930   3.366 -1.2653 -1.0464 -0.8227
 1959SOL    MW4 7884   0.474   1.915   3.441 -0.5966 -0.1726 -0.2780
 1960SOL     OW 7885   0.620   2.056   3.629 -0.2525  0.1510  0.0920
 1960SOL    HW2 7886   0.619   2.131   3.571  2.3034 -0.0517 -0.2661
 1960SOL    HW3 7887   0.577   1.986   3.580 -0.4295  0.6941 -0.5237
 1960SOL    MW4 7888   0.615   2.056   3.615  0.0614  0.1962 -0.0367
 1961SOL     OW 7889   0.630   2.260   3.444  0.0789 -0.1348 -0.0974
 1961SOL    HW2 7890   0.557   2.321   3.454  0.4506  0.4498 -0.9154
 1961SOL    HW3 7891   0.705   2.305   3.483  0.2594 -0.2609 -0.2969
 1961SOL    MW4 7892   0.630   2.274   3.450  0.1518 -0.0744 -0.2315
 1962SOL     OW 7893   0.426   2.435   3.503  0.3973 -0.5507 -0.3634
 1962SOL    HW2 7894   0.430   2.425   3.598  2.4424 -1.1013 -0.4980
 1962SOL    HW3 7895   0.349   2.385   3.477  0.6434 -1.5851  0.8491
 1962SOL    MW4 7896   0.416   2.427   3.512  0.6995 -0.7601 -0.2210
 1963SOL     OW 7897   0.384   2.709   3.426 -0.4786  0.7758 -0.5153
 1963SOL    HW2 7898   0.420   2.625   3.453  1.9742  1.8624 -0.2869
 1963SOL    HW3 7899   0.388   2.708   3.330 -2.2311 -0.1085 -0.5915
 1963SOL    MW4 7900   0.389   2.698   3.417 -0.3862  0.8025 -0.4952
 1964SOL     OW 7901   0.674   3.093   3.451 -0.0865 -0.1466  0.3741
 1964SOL    HW2 7902   0.666   2.998   3.465 -1.6427 -0.2418 -1.0183
 1964SOL    HW3 7903   0.596   3.130   3.493 -1.2923  0.1679 -2.0363
 1964SOL    MW4 7904   0.662   3.085   3.458 -0.4510 -0.1178 -0.1276
 1965SOL     OW 7905   0.455   3.220   3.585  0.0237  0.2974  0.0161
 1965SOL    HW2 7906   0.380   3.175   3.545  0.6515 -1.5078  0.8175
 1965SOL    HW3 7907   0.435   3.222   3.678  0.6352  0.4847  0.1433
 1965SOL    MW4 7908   0.442   3.214   3.592  0.1872  0.0842  0.1390
 1966SOL     OW 7909   0.242   3.100   3.422  0.4535 -0.1871 -0.6269
 1966SOL    HW2 7910   0.223   3.090   3.329 -2.3691  1.7853 -0.3271
 1966SOL    HW3 7911   0.160   3.133   3.460  2.0212  0.5440  2.2955
 1966SOL    MW4 7912   0.229   3.103   3.415  0.2879  0.1698 -0.2015
 1967SOL     OW 7913   0.437   3.476   3.463  0.0813  0.1503  0.3979
 1967SOL    HW2 7914   0.446   3.389   3.502  0.1297  1.0341  2.4062
 1967SOL    HW3 7915   0.360   3.514   3.506  0.0103  1.0795 -0.5290
 1967SOL    MW4 7916   0.428   3.469   3.474  0.0783  0.3898  0.5407
 1968SOL     OW 7917   0.703   3.617   3.546  0.7095  0.5286 -0.7339
 1968SOL    HW2 7918   0.767   3.566   3.495  0.0953 -0.1852 -0.8108
 1968SOL    HW3 7919   0.622   3.565   3.540  0.1930  1.2994 -0.4356
 1968SOL    MW4 7920   0.700   3.603   3.538  0.5603  0.5364 -0.7048
 1969SOL     OW 7921   0.659   3.870   3.174  0.2287 -0.2869 -0.0703
 1969SOL    HW2 7922   0.675   3.858   3.268 -1.2742 -0.4719  0.1703
 1969SOL    HW3 7923   0.651   3.781   3.140  2.8898 -0.2965 -0.7741
 1969SOL    MW4 7924   0.660   3.856   3.182  0.3815 -0.3126 -0.1314
 1970SOL     OW 7925   0.423   4.006   3.518  0.0290 -0.0401  0.1488
 1970SOL    HW2 7926   0.422   4.098   3.491 -1.2709 -0.2174 -0.4502
 1970SOL    HW3 7927   0.357   3.964   3.462  1.4180 -1.5590 -0.3870
 1970SOL    MW4 7928   0.414   4.012   3.507  0.0408 -0.2642 -0.0010
 1971SOL     OW 7929   0.467   4.249   3.427  0.2262 -0.7430 -0.2165
 1971SOL    HW2 7930   0.541   4.298   3.462  0.3750 -0.2359 -1.2262
 1971SOL    HW3 7931   0.486   4.240   3.334  0.7945 -3.7963  0.1424
 1971SOL    MW4 7932   0.479   4.254   3.419  0.3208 -1.0791 -0.3026
 1972SOL     OW 7933   0.689   4.407   3.538  0.0592 -0.4790  0.0818
 1972SOL    HW2 7934   0.768   4.370   3.497  0.1578 -1.5614  1.2137
 1972SOL    HW3 7935   0.683   4.496   3.503  1.7997 -0.3803  0.0002
 1972SOL    MW4 7936   0.699   4.414   3.528  0.3020 -0.6089  0.2205
 1973SOL     OW 7937   1.080   0.035   3.439  0.2377  0.6826  0.4625
 1973SOL    HW2 7938   1.163   0.073   3.468 -0.7729  2.3417  1.2231
 1973SOL    HW3 7939   1.088   0.029   3.343  1.4925  0.2018  0.5970
 1973SOL    MW4 7940   1.092   0.039   3.430  0.2699  0.8378  0.5808
 1974SOL     OW 7941   0.868   0.130   3.581  0.1761  0.0615 -0.0494
 1974SOL    HW2 7942   0.901   0.143   3.670 -0.8069  1.0821  0.1881
 1974SOL    HW3 7943   0.938   0.084   3.535  1.4424  1.1527  0.7556
 1974SOL    MW4 7944   0.881   0.126   3.587  0.2135  0.3401  0.0885
 1975SOL     OW 7945   0.925   0.386   3.473  0.1838  0.0834  0.1835
 1975SOL    HW2 7946   1.014   0.419   3.485  0.3462 -0.2085 -0.2071
 1975SOL    HW3 7947   0.920   0.308   3.528  0.2784 -0.0874 -0.0456
 1975SOL    MW4 7948   0.936   0.380   3.482  0.2177  0.0223  0.1016
 1976SOL     OW 7949   1.181   0.509   3.522 -0.1329  0.1516  0.1680
 1976SOL    HW2 7950   1.198   0.515   3.616 -1.6470  0.1748  0.4590
 1976SOL    HW3 7951   1.151   0.596   3.497  1.0566  0.3776 -0.5203
 1976SOL    MW4 7952   1.179   0.521   3.531 -0.1758  0.1844  0.1159
 1977SOL     OW 7953   1.099   0.759   3.451 -0.1076 -0.2352 -0.2432
 1977SOL    HW2 7954   1.174   0.812   3.478  0.4921 -1.2020  0.0341
 1977SOL    HW3 7955   1.023   0.806   3.484  0.4513  0.1184  0.5607
 1977SOL    MW4 7956   1.099   0.772   3.459  0.0452 -0.3161 -0.1006
 1978SOL     OW 7957   0.855   0.857   3.556 -0.5284 -0.0015  0.1236
 1978SOL    HW2 7958   0.858   0.943   3.516  2.6035 -0.9780 -1.8539
 1978SOL    HW3 7959   0.784   0.811   3.511  0.3078  0.2848 -1.5076
 1978SOL    MW4 7960   0.846   0.862   3.545 -0.0049 -0.0926 -0.3526
 1979SOL     OW 7961   0.844   1.143   3.434 -0.2419  0.3062 -0.0294
 1979SOL    HW2 7962   0.925   1.173   3.474  0.9831 -0.5967 -1.7844
 1979SOL    HW3 7963   0.859   1.150   3.340 -3.0097  2.2550 -0.4019
 1979SOL    MW4 7964   0.856   1.148   3.427 -0.4454  0.4443 -0.3104
 1980SOL     OW 7965   1.056   1.318   3.533  0.0670 -0.2458  0.3508
 1980SOL    HW2 7966   1.083   1.336   3.624  1.9495  0.4210 -0.3181
 1980SOL    HW3 7967   1.032   1.404   3.498 -0.6070 -0.4962  0.1854
 1980SOL    MW4 7968   1.056   1.332   3.541  0.2264 -0.1907  0.2408
 1981SOL     OW 7969   1.059   1.559   3.429  0.1631 -0.1780 -0.5877
 1981SOL    HW2 7970   1.125   1.608   3.478 -0.3814  0.6321 -0.6430
 1981SOL    HW3 7971   1.042   1.613   3.352  1.0037 -1.4458 -1.6712
 1981SOL    MW4 7972   1.065   1.573   3.425  0.2021 -0.2384 -0.7377
 1982SOL     OW 7973   0.865   1.703   3.586  0.5036 -0.2573  0.0249
 1982SOL    HW2 7974   0.867   1.787   3.539 -2.3397  0.3920  0.9510
 1982SOL    HW3 7975   0.933   1.651   3.544 -0.4286  1.0768 -3.3395
 1982SOL    MW4 7976   0.874   1.707   3.574  0.0055  0.0042 -0.2968
 1983SOL     OW 7977   0.877   1.994   3.493  0.0268  0.1014 -0.1059
 1983SOL    HW2 7978   0.948   2.018   3.553 -1.7000 -0.8024  2.3756
 1983SOL    HW3 7979   0.799   2.032   3.533 -1.0260  0.4830 -2.4409
 1983SOL    MW4 7980   0.876   2.002   3.506 -0.3399  0.0324 -0.0865
 1984SOL     OW 7981   1.109   2.095   3.587 -0.5541 -0.2506 -0.3782
 1984SOL    HW2 7982   1.160   2.034   3.535  1.2022 -0.5996  1.6700
 1984SOL    HW3 7983   1.135   2.182   3.554  0.5071 -0.4645 -0.1129
 1984SOL    MW4 7984   1.119   2.099   3.576 -0.1824 -0.3250 -0.0730
 1985SOL     OW 7985   1.162   2.331   3.468  0.2166 -0.3463  0.2545
 1985SOL    HW2 7986   1.230   2.392   3.498 -1.3611  0.5644  2.0550
 1985SOL    HW3 7987   1.154   2.349   3.374  2.1330 -0.1557  0.0998
 1985SOL    MW4 7988   1.170   2.341   3.460  0.2613 -0.2010  0.4718
 1986SOL     OW 7989   0.851   2.383   3.521 -0.1427  0.1897 -0.2078
 1986SOL    HW2 7990   0.857   2.401   3.614 -0.9684 -0.6308  0.0009
 1986SOL    HW3 7991   0.932   2.335   3.501  0.3698  0.9834 -0.0640
 1986SOL    MW4 7992   0.863   2.379   3.530 -0.1841  0.1862 -0.1614
 1987SOL     OW 7993   1.094   2.819   3.550  0.7766 -0.0090  0.5239
 1987SOL    HW2 7994   1.170   2.767   3.525  0.3995 -1.2458  1.8527
 1987SOL    HW3 7995   1.117   2.909   3.526  1.2182 -0.8236 -2.3760
 1987SOL    MW4 7996   1.107   2.824   3.543  0.7852 -0.2797  0.3166
 1988SOL     OW 7997   0.857   2.662   3.468  0.3744 -0.4018 -0.1074
 1988SOL    HW2 7998   0.940   2.702   3.495  0.5050  0.8045 -2.1520
 1988SOL    HW3 7999   0.866   2.570   3.490  1.2166  0.1758  2.1008
 1988SOL    MW4 8000   0.869   2.655   3.474  0.5028 -0.1664 -0.0856
 1989SOL     OW 8001   1.080   3.104   3.473 -0.5193 -0.2418  0.0590
 1989SOL    HW2 8002   1.165   3.143   3.494 -0.3503 -0.5195 -0.1095
 1989SOL    HW3 8003   1.073   3.113   3.378 -0.8720  0.1737  0.1224
 1989SOL    MW4 8004   1.090   3.111   3.463 -0.5436 -0.2239  0.0453
 1990SOL     OW 8005   0.853   3.255   3.583 -0.1109  0.2481  0.2789
 1990SOL    HW2 8006   0.939   3.213   3.582 -0.1419  0.1879  0.0621
 1990SOL    HW3 8007   0.794   3.191   3.543 -0.2579  0.2853  0.4336
 1990SOL    MW4 8008   0.856   3.241   3.577 -0.1345  0.2449  0.2708
 1991SOL     OW 8009   0.581   3.108   4.237 -0.4684 -0.3688 -0.1650
 1991SOL    HW2 8010   0.515   3.053   4.195  0.2335 -0.7064 -0.8377
 1991SOL    HW3 8011   0.654   3.049   4.253 -0.2169  0.0728  0.3065
 1991SOL    MW4 8012   0.582   3.093   4.233 -0.3427 -0.3550 -0.1912
 1992SOL     OW 8013   2.692   3.224   4.606 -0.4409 -0.5226  0.0478
 1992SOL    HW2 8014   2.775   3.263   4.632  0.0240 -1.6047  0.1699
 1992SOL    HW3 8015   2.674   3.261   4.519 -0.4211  0.6206  0.5231
 1992SOL    MW4 8016   2.700   3.234   4.598 -0.3769 -0.5140  0.1264
 1993SOL     OW 8017   0.905   4.017   3.560  0.2605  0.3945  0.5014
 1993SOL    HW2 8018   0.978   3.968   3.523 -0.5503  0.0636 -0.6839
 1993SOL    HW3 8019   0.829   3.990   3.509 -0.2550  2.6525 -0.0068
 1993SOL    MW4 8020   0.904   4.007   3.548  0.0854  0.6485  0.2780
 1994SOL     OW 8021   0.686   3.882   3.439  0.2665  0.4351  0.1597
 1994SOL    HW2 8022   0.703   3.791   3.462  0.1520 -0.0608 -1.6002
 1994SOL    HW3 8023   0.596   3.899   3.468 -0.0996 -0.3678 -0.4879
 1994SOL    MW4 8024   0.676   3.873   3.446  0.2030  0.2639 -0.1578
 1995SOL     OW 8025   0.945   4.257   3.453  0.2460 -0.2430 -0.4303
 1995SOL    HW2 8026   0.942   4.169   3.491  1.4427  0.2755  0.8897
 1995SOL    HW3 8027   0.951   4.241   3.359 -1.3520 -1.5442 -0.3393
 1995SOL    MW4 8028   0.946   4.243   3.445  0.1931 -0.3467 -0.2439
 1996SOL     OW 8029   1.154   4.434   3.490  0.0796 -0.2650  0.5836
 1996SOL    HW2 8030   1.119   4.523   3.484 -0.5673 -0.5283  0.3496
 1996SOL    HW3 8031   1.077   4.378   3.483  0.6032 -0.8741 -0.3858
 1996SOL    MW4 8032   1.139   4.439   3.488  0.0633 -0.3805  0.4249
 1997SOL     OW 8033   1.561   0.013   3.409 -0.4851 -0.0782  0.2028
 1997SOL    HW2 8034   1.556  -0.079   3.433 -1.1685  0.0538  0.5745
 1997SOL    HW3 8035   1.485   0.053   3.451 -0.9981  0.3953 -1.1332
 1997SOL    MW4 8036   1.550   0.006   3.418 -0.6430  0.0017  0.0753
 1998SOL     OW 8037   1.319   0.134   3.542  0.6576 -0.3515 -0.3640
 1998SOL    HW2 8038   1.343   0.126   3.635  0.8162 -0.3568 -0.4046
 1998SOL    HW3 8039   1.354   0.219   3.516 -2.4916  1.2880  0.5068
 1998SOL    MW4 8040   1.327   0.144   3.551  0.2631 -0.1359 -0.2546
 1999SOL     OW 8041   1.393   0.368   3.397  0.5254 -0.5925  0.1100
 1999SOL    HW2 8042   1.467   0.428   3.394  0.4738 -0.4534  1.5063
 1999SOL    HW3 8043   1.323   0.418   3.439 -0.1665 -0.9288 -0.6283
 1999SOL    MW4 8044   1.393   0.382   3.402  0.4274 -0.6185  0.1972
 2000SOL     OW 8045   1.613   0.549   3.460  0.3797 -0.3216  0.0055
 2000SOL    HW2 8046   1.622   0.531   3.554  2.1919  3.3420  0.6264
 2000SOL    HW3 8047   1.678   0.493   3.418 -0.8213 -2.3905  0.8443
 2000SOL    MW4 8048   1.623   0.539   3.467  0.4604 -0.1112  0.1981
 2001SOL     OW 8049   1.562   0.810   3.404 -0.4182 -0.3277  0.2117
 2001SOL    HW2 8050   1.481   0.837   3.448  1.8150  0.6698  3.8967
 2001SOL    HW3 8051   1.582   0.725   3.442 -0.3273 -1.1349 -1.5918
 2001SOL    MW4 8052   1.554   0.802   3.415 -0.1116 -0.3026  0.4599
 2002SOL     OW 8053   1.316   0.918   3.524 -0.3717  0.1640  0.2103
 2002SOL    HW2 8054   1.349   0.937   3.612  1.9213  0.6269 -0.7138
 2002SOL    HW3 8055   1.296   1.004   3.486 -0.4480  0.0278 -0.0652
 2002SOL    MW4 8056   1.318   0.932   3.530 -0.0792  0.2072  0.0520
 2003SOL     OW 8057   1.302   1.192   3.439  0.3061  0.2089 -0.3842
 2003SOL    HW2 8058   1.385   1.225   3.474  0.1603  1.2828 -1.0220
 2003SOL    HW3 8059   1.237   1.256   3.466 -0.2756 -0.5015 -0.1051
 2003SOL    MW4 8060   1.304   1.205   3.447  0.2100  0.2569 -0.4313
 2004SOL     OW 8061   1.573   1.380   3.544  0.2635  0.8088  0.0144
 2004SOL    HW2 8062   1.587   1.349   3.633 -2.1580 -2.0494 -0.5178
 2004SOL    HW3 8063   1.630   1.325   3.490  1.2262  2.0791 -0.2828
 2004SOL    MW4 8064   1.582   1.369   3.548  0.0712  0.5994 -0.0951
 2005SOL     OW 8065   1.486   1.618   3.423  0.1726 -0.4700 -0.1900
 2005SOL    HW2 8066   1.507   1.533   3.462 -2.5684 -1.8322 -1.5557
 2005SOL    HW3 8067   1.503   1.606   3.329 -1.9505 -0.1243 -0.6395
 2005SOL    MW4 8068   1.491   1.605   3.416 -0.4691 -0.6040 -0.4296
 2006SOL     OW 8069   1.255   1.690   3.566  0.1453 -0.2270 -0.0777
 2006SOL    HW2 8070   1.288   1.690   3.655  0.3266  0.2133 -0.1456
 2006SOL    HW3 8071   1.324   1.649   3.514  0.7629  1.0596 -0.2847
 2006SOL    MW4 8072   1.268   1.685   3.571  0.2508  0.0010 -0.1140
 2007SOL     OW 8073   1.280   1.930   3.428  0.2286 -0.0548 -0.4635
 2007SOL    HW2 8074   1.354   1.978   3.464 -1.4349  0.5855  2.2924
 2007SOL    HW3 8075   1.291   1.841   3.462  0.0731 -0.1167 -0.5741
 2007SOL    MW4 8076   1.291   1.924   3.437 -0.0114  0.0213 -0.1144
 2008SOL     OW 8077   1.521   2.055   3.529  0.7359  0.4060  0.3163
 2008SOL    HW2 8078   1.609   2.032   3.498  0.1227 -0.9323 -0.4752
 2008SOL    HW3 8079   1.531   2.070   3.623  1.5258 -1.2498  0.5029
 2008SOL    MW4 8080   1.534   2.054   3.537  0.7591  0.0110  0.2367
 2009SOL     OW 8081   1.390   2.478   3.601  0.6739 -0.8805  0.2335
 2009SOL    HW2 8082   1.372   2.553   3.545 -1.5087 -1.9459 -0.5360
 2009SOL    HW3 8083   1.458   2.429   3.554 -0.6922 -1.4357 -1.1837
 2009SOL    MW4 8084   1.397   2.482   3.588  0.2056 -1.0946 -0.0551
 2010SOL     OW 8085   3.595   0.934   4.583  0.1404 -0.2262 -0.0718
 2010SOL    HW2 8086   3.606   0.854   4.634  0.1823  0.3817  0.8908
 2010SOL    HW3 8087   3.516   0.919   4.531 -0.5418 -0.4282  1.0121
 2010SOL    MW4 8088   3.586   0.921   4.583  0.0558 -0.1727  0.1984
 2011SOL     OW 8089   1.324   2.686   3.436 -0.3987 -0.3023 -0.3945
 2011SOL    HW2 8090   1.399   2.737   3.467 -0.1897 -1.0417  0.3556
 2011SOL    HW3 8091   1.340   2.674   3.342  0.4545 -0.4834 -0.2363
 2011SOL    MW4 8092   1.336   2.691   3.428 -0.2584 -0.4237 -0.2747
 2012SOL     OW 8093   1.530   2.834   3.536  0.3463 -0.3234  0.0206
 2012SOL    HW2 8094   1.606   2.795   3.492  1.6784  0.3847  1.6442
 2012SOL    HW3 8095   1.521   2.920   3.495  0.7217 -0.2133  0.1693
 2012SOL    MW4 8096   1.539   2.840   3.525  0.5716 -0.2155  0.2544
 2013SOL     OW 8097   1.534   3.100   3.437 -0.5138 -0.3775  0.2092
 2013SOL    HW2 8098   1.616   3.132   3.474  0.1412 -2.2299  0.4379
 2013SOL    HW3 8099   1.466   3.148   3.484  0.4256  1.0686  0.1162
 2013SOL    MW4 8100   1.536   3.110   3.448 -0.3034 -0.4311  0.2270
 2014SOL     OW 8101   1.324   3.244   3.531  0.4336 -0.0398 -0.4825
 2014SOL    HW2 8102   1.346   3.254   3.623 -0.8682 -0.5492 -0.1179
 2014SOL    HW3 8103   1.332   3.333   3.495  1.2419  0.1061  0.0387
 2014SOL    MW4 8104   1.328   3.257   3.538  0.3684 -0.0877 -0.3657
 2015SOL     OW 8105   1.357   3.506   3.405 -0.3615  0.0859 -0.2808
 2015SOL    HW2 8106   1.440   3.538   3.441 -0.3101  0.6253 -0.8835
 2015SOL    HW3 8107   1.291   3.566   3.439 -0.1608  1.3679 -2.1167
 2015SOL    MW4 8108   1.359   3.518   3.414 -0.3283  0.3264 -0.6025
 2016SOL     OW 8109   1.567   3.607   3.543  0.0526 -0.1565  0.1384
 2016SOL    HW2 8110   1.568   3.609   3.639  0.6471 -0.3885  0.1382
 2016SOL    HW3 8111   1.569   3.699   3.517 -0.0802 -0.0941  0.3473
 2016SOL    MW4 8112   1.567   3.620   3.552  0.1135 -0.1788  0.1662
 2017SOL     OW 8113   1.591   3.875   3.420  0.4332 -0.0120  0.1217
 2017SOL    HW2 8114   1.668   3.926   3.445 -1.4196  3.1970 -0.4231
 2017SOL    HW3 8115   1.592   3.876   3.324  0.8994 -1.8944  0.0847
 2017SOL    MW4 8116   1.601   3.882   3.411  0.2503  0.1631  0.0453
 2018SOL     OW 8117   1.361   3.992   3.553  0.0707 -0.1573  0.1916
 2018SOL    HW2 8118   1.358   4.080   3.517  0.4526 -0.5306 -0.7462
 2018SOL    HW3 8119   1.422   3.944   3.497  0.8195 -0.6923  1.4316
 2018SOL    MW4 8120   1.369   3.997   3.541  0.2198 -0.2770  0.2315
 2019SOL     OW 8121   1.350   4.247   3.426  0.1419  0.4295  0.2301
 2019SOL    HW2 8122   1.278   4.309   3.434  0.1601  0.3035  1.5328
 2019SOL    HW3 8123   1.356   4.228   3.332 -1.3360  0.6608  0.0790
 2019SOL    MW4 8124   1.341   4.253   3.415 -0.0508  0.4430  0.3819
 2020SOL     OW 8125   1.588   4.406   3.485 -0.9095 -0.0503 -0.0316
 2020SOL    HW2 8126   1.666   4.354   3.467 -0.7254 -0.5232  1.9729
 2020SOL    HW3 8127   1.515   4.347   3.467 -0.7290 -0.4899  0.6354
 2020SOL    MW4 8128   1.589   4.391   3.481 -0.8613 -0.1707  0.3209
 2021SOL     OW 8129   2.063   0.023   3.410 -0.1583 -0.1389  0.1570
 2021SOL    HW2 8130   2.134   0.066   3.456  0.9511 -0.2796 -1.3686
 2021SOL    HW3 8131   1.983   0.054   3.452  0.6789  2.3244 -0.0463
 2021SOL    MW4 8132   2.062   0.033   3.421  0.0985  0.1676 -0.0710
 2022SOL     OW 8133   1.813   0.129   3.487 -0.3389 -0.2456  0.9444
 2022SOL    HW2 8134   1.814   0.137   3.582  0.2635 -3.1461  1.2116
 2022SOL    HW3 8135   1.734   0.080   3.467 -0.7550  0.8294 -0.1186
 2022SOL    MW4 8136   1.803   0.124   3.497 -0.3144 -0.4864  0.8395
 2023SOL     OW 8137   1.817   0.388   3.354 -0.2440  0.8726 -0.1410
 2023SOL    HW2 8138   1.816   0.304   3.398  0.5602  1.5971  1.2880
 2023SOL    HW3 8139   1.840   0.367   3.263 -0.1594 -0.4423  0.1776
 2023SOL    MW4 8140   1.820   0.374   3.348 -0.1267  0.7947  0.0899
 2024SOL     OW 8141   1.995   0.482   3.550  0.2007  0.0705  0.1523
 2024SOL    HW2 8142   1.988   0.575   3.530  1.9818 -0.0977 -1.3020
 2024SOL    HW3 8143   1.940   0.439   3.484 -0.1014  0.0368  0.4230
 2024SOL    MW4 8144   1.986   0.489   3.539  0.3958  0.0438 -0.0041
 2025SOL     OW 8145   1.979   0.741   3.438  0.4131 -0.0841  0.6475
 2025SOL    HW2 8146   2.067   0.768   3.462 -0.2419  1.4797  1.2906
 2025SOL    HW3 8147   1.978   0.745   3.342  0.2646  2.3562  0.7405
 2025SOL    MW4 8148   1.991   0.745   3.428  0.3071  0.4442  0.7446
 2026SOL     OW 8149   1.795   0.928   3.523 -0.4362 -0.3210 -0.3820
 2026SOL    HW2 8150   1.865   0.871   3.492  0.4024 -0.3867  1.5485
 2026SOL    HW3 8151   1.715   0.888   3.489  0.2929 -1.5421 -0.7111
 2026SOL    MW4 8152   1.793   0.915   3.515 -0.2292 -0.4908 -0.1709
 2027SOL     OW 8153   1.772   1.186   3.435 -0.0242  0.1386  0.7311
 2027SOL    HW2 8154   1.855   1.222   3.466 -0.5344  1.2695  0.8124
 2027SOL    HW3 8155   1.766   1.100   3.478  0.2782  0.7819  2.1099
 2027SOL    MW4 8156   1.782   1.179   3.445 -0.0515  0.3726  0.9236
 2028SOL     OW 8157   2.005   1.297   3.516  0.4025  0.2758 -0.1675
 2028SOL    HW2 8158   1.984   1.270   3.605  0.1356  0.0232 -0.3075
 2028SOL    HW3 8159   2.028   1.390   3.524  0.1652  0.3095  0.1273
 2028SOL    MW4 8160   2.005   1.306   3.529  0.3359  0.2470 -0.1471
 2029SOL     OW 8161   1.999   1.556   3.357 -0.5015 -0.1861  0.2727
 2029SOL    HW2 8162   2.064   1.600   3.412 -0.2549 -1.4098  0.9696
 2029SOL    HW3 8163   1.915   1.587   3.390 -0.3273  0.0027  0.5478
 2029SOL    MW4 8164   1.996   1.566   3.369 -0.4461 -0.3228  0.4008
 2030SOL     OW 8165   2.546   1.426   3.947  0.1345  0.3328  0.0545
 2030SOL    HW2 8166   2.614   1.370   3.984  0.5816  0.0729 -1.1383
 2030SOL    HW3 8167   2.593   1.484   3.887 -0.6629  0.3161 -0.5886
 2030SOL    MW4 8168   2.561   1.427   3.944  0.0882  0.2964 -0.1879
 2031SOL     OW 8169   1.781   1.958   3.396  0.0782  0.4925 -0.0547
 2031SOL    HW2 8170   1.858   2.004   3.429  0.4095  0.5499 -0.9018
 2031SOL    HW3 8171   1.798   1.946   3.303 -0.5311 -0.3043 -0.0717
 2031SOL    MW4 8172   1.793   1.962   3.388  0.0415  0.3951 -0.1690
 2032SOL     OW 8173   2.006   2.062   3.536 -0.1342 -0.2325 -0.5183
 2032SOL    HW2 8174   2.071   2.009   3.490  0.9126  1.0411 -0.5308
 2032SOL    HW3 8175   1.998   2.142   3.483  0.7156  1.0358  1.2288
 2032SOL    MW4 8176   2.013   2.066   3.523  0.1159  0.1032 -0.2892
 2033SOL     OW 8177   2.000   2.334   3.416  0.0689 -0.7696  0.3039
 2033SOL    HW2 8178   2.086   2.354   3.453  0.7065  0.8659 -1.9465
 2033SOL    HW3 8179   2.016   2.324   3.322 -2.2943  0.1864 -0.2411
 2033SOL    MW4 8180   2.014   2.336   3.408 -0.1588 -0.4277 -0.0648
 2034SOL     OW 8181   1.541   2.310   3.430 -0.4844 -0.1319  0.4038
 2034SOL    HW2 8182   1.524   2.217   3.440  0.0452 -0.4310 -1.2907
 2034SOL    HW3 8183   1.523   2.328   3.337  1.3028  1.0230  0.2430
 2034SOL    MW4 8184   1.536   2.300   3.419 -0.1787 -0.0191  0.1590
 2035SOL     OW 8185   1.742   2.705   3.414 -0.1929  0.3122  0.1218
 2035SOL    HW2 8186   1.820   2.759   3.423 -0.4356  0.6649  0.1313
 2035SOL    HW3 8187   1.761   2.626   3.465  0.6227 -0.1386 -0.8652
 2035SOL    MW4 8188   1.755   2.702   3.422 -0.1172  0.2992 -0.0072
 2036SOL     OW 8189   1.994   2.863   3.454  0.0281  0.0952  0.0482
 2036SOL    HW2 8190   1.992   2.871   3.549  1.0726  0.4247  0.0455
 2036SOL    HW3 8191   2.004   2.953   3.423  0.9404 -0.1257 -0.3277
 2036SOL    MW4 8192   1.995   2.876   3.462  0.2862  0.1097 -0.0017
 2037SOL     OW 8193   2.020   3.133   3.422 -0.4530  0.6650  0.2113
 2037SOL    HW2 8194   2.097   3.160   3.472  0.9699 -0.0572 -1.5165
 2037SOL    HW3 8195   1.946   3.166   3.472  1.0174  2.3006  1.3800
 2037SOL    MW4 8196   2.021   3.141   3.435 -0.0710  0.7858  0.1376
 2038SOL     OW 8197   1.782   3.204   3.542  0.1058  0.2086  0.4961
 2038SOL    HW2 8198   1.804   3.206   3.635 -0.3573  0.1086  0.6071
 2038SOL    HW3 8199   1.792   3.295   3.513  0.8879  0.1243  0.4934
 2038SOL    MW4 8200   1.786   3.216   3.551  0.1479  0.1843  0.5102
 2039SOL     OW 8201   1.785   3.451   3.429 -0.5713  0.0869  0.5822
 2039SOL    HW2 8202   1.699   3.483   3.458 -0.4089  0.2394  0.8994
 2039SOL    HW3 8203   1.770   3.419   3.340 -1.4502 -1.8124  1.3738
 2039SOL    MW4 8204   1.772   3.451   3.421 -0.6658 -0.1438  0.7284
 2040SOL     OW 8205   2.012   3.608   3.484 -0.4203 -0.0776  0.2944
 2040SOL    HW2 8206   2.096   3.563   3.480 -0.5728 -0.2565 -1.6750
 2040SOL    HW3 8207   1.948   3.540   3.461 -1.0457  0.2011  1.1847
 2040SOL    MW4 8208   2.014   3.593   3.480 -0.5229 -0.0644  0.1521
 2041SOL     OW 8209   2.008   3.857   3.376  0.1459 -0.5863  0.4718
 2041SOL    HW2 8210   1.951   3.909   3.432  0.8983  0.0020  0.7045
 2041SOL    HW3 8211   2.018   3.774   3.422 -0.3025 -0.5901  0.5633
 2041SOL    MW4 8212   2.002   3.853   3.389  0.1862 -0.5093  0.5147
 2042SOL     OW 8213   1.809   4.013   3.522  0.1897  0.2588  0.0974
 2042SOL    HW2 8214   1.782   4.038   3.611  1.0095  0.8039  0.2024
 2042SOL    HW3 8215   1.818   4.097   3.476  1.7641  0.1059  0.0955
 2042SOL    MW4 8216   1.807   4.028   3.528  0.5054  0.3109  0.1111
 2043SOL     OW 8217   1.820   4.287   3.447  0.2852  0.2707  0.1094
 2043SOL    HW2 8218   1.837   4.286   3.353  2.2410 -2.7053  0.4300
 2043SOL    HW3 8219   1.897   4.331   3.484  1.2505 -1.7677  0.5735
 2043SOL    MW4 8220   1.833   4.293   3.440  0.6706 -0.3905  0.2129
 2044SOL     OW 8221   2.040   4.453   3.541  0.4166 -0.3217  0.0379
 2044SOL    HW2 8222   2.087   4.384   3.495  0.4239 -1.5012  1.7485
 2044SOL    HW3 8223   2.062   4.533   3.493  1.9024 -1.2396 -0.8696
 2044SOL    MW4 8224   2.049   4.454   3.529  0.6135 -0.5989  0.1438
 2045SOL     OW 8225   2.472   0.004   3.408  0.6441  0.0585 -0.3654
 2045SOL    HW2 8226   2.440  -0.085   3.422 -0.8633  0.6045 -0.2564
 2045SOL    HW3 8227   2.471   0.015   3.313  0.6207  0.0296 -0.3682
 2045SOL    MW4 8228   2.468  -0.006   3.397  0.4420  0.1268 -0.3514
 2046SOL     OW 8229   2.294   0.153   3.540 -0.4489 -0.6544 -0.3102
 2046SOL    HW2 8230   2.298   0.241   3.502  2.1460  0.3093  1.9735
 2046SOL    HW3 8231   2.365   0.105   3.498  1.5294 -0.0031  2.1687
 2046SOL    MW4 8232   2.304   0.158   3.530  0.1545 -0.4413  0.3181
 2047SOL     OW 8233   2.276   0.402   3.436  0.3002  0.1380  0.3807
 2047SOL    HW2 8234   2.349   0.443   3.484 -0.3281  1.8195 -0.0411
 2047SOL    HW3 8235   2.197   0.438   3.476 -0.2591 -0.0927 -0.4852
 2047SOL    MW4 8236   2.276   0.412   3.447  0.1438  0.3294  0.2105
 2048SOL     OW 8237   2.491   0.510   3.530 -0.0663  0.8493 -0.2303
 2048SOL    HW2 8238   2.536   0.522   3.613  0.8166 -0.2852 -0.5296
 2048SOL    HW3 8239   2.543   0.444   3.484 -2.2511 -0.7835 -0.4343
 2048SOL    MW4 8240   2.504   0.503   3.535 -0.2382  0.4842 -0.2968
 2049SOL     OW 8241   2.460   0.760   3.413  0.0402 -0.1040  0.2998
 2049SOL    HW2 8242   2.471   0.673   3.452  0.5154 -0.3308 -0.3303
 2049SOL    HW3 8243   2.464   0.744   3.319 -0.1383  0.5663  0.1814
 2049SOL    MW4 8244   2.462   0.746   3.406  0.0796 -0.0455  0.2007
 2050SOL     OW 8245   2.218   0.833   3.516 -0.0717 -0.4206 -0.1127
 2050SOL    HW2 8246   2.193   0.923   3.495 -2.0307 -1.1346 -0.8928
 2050SOL    HW3 8247   2.294   0.817   3.460  0.9434  1.0782  0.7886
 2050SOL    MW4 8248   2.225   0.843   3.506 -0.1962 -0.3171 -0.0970
 2051SOL     OW 8249   2.194   1.110   3.453 -0.2045 -0.4939 -0.3073
 2051SOL    HW2 8250   2.284   1.138   3.465 -0.2032  0.3676 -2.2098
 2051SOL    HW3 8251   2.141   1.187   3.472 -0.3811 -0.2103 -1.8293
 2051SOL    MW4 8252   2.199   1.124   3.457 -0.2277 -0.3427 -0.7589
 2052SOL     OW 8253   2.459   1.227   3.518 -0.4418 -0.4487 -0.4703
 2052SOL    HW2 8254   2.446   1.242   3.612  0.1095  1.9260 -0.7525
 2052SOL    HW3 8255   2.548   1.192   3.512  0.2283  1.1620 -0.2464
 2052SOL    MW4 8256   2.469   1.224   3.530 -0.2806  0.0771 -0.4780
 2053SOL     OW 8257   2.450   1.494   3.442  0.6233 -0.1046  0.5696
 2053SOL    HW2 8258   2.467   1.406   3.475 -1.3672 -0.4738  0.7049
 2053SOL    HW3 8259   2.454   1.485   3.347 -0.6176 -0.5844  0.5560
 2053SOL    MW4 8260   2.453   1.481   3.434  0.1972 -0.2165  0.5858
 2054SOL     OW 8261   2.208   1.612   3.537 -0.0676 -0.0503  0.0423
 2054SOL    HW2 8262   2.198   1.610   3.632  0.9288  1.7152  0.1918
 2054SOL    HW3 8263   2.293   1.572   3.520 -0.3833 -0.6552 -0.1393
 2054SOL    MW4 8264   2.218   1.607   3.547  0.0224  0.1028  0.0381
 2055SOL     OW 8265   2.206   1.891   3.478 -0.4269  0.1340 -0.1527
 2055SOL    HW2 8266   2.200   1.812   3.532 -1.3220  0.4271  0.2041
 2055SOL    HW3 8267   2.207   1.859   3.388  0.7430 -0.3479  0.0258
 2055SOL    MW4 8268   2.205   1.877   3.473 -0.3908  0.1091 -0.0820
 2056SOL     OW 8269   2.416   2.048   3.579 -0.4657  0.1385 -0.1179
 2056SOL    HW2 8270   2.431   2.024   3.670  1.5792  1.6782  0.0074
 2056SOL    HW3 8271   2.341   1.996   3.552  1.0709 -2.9814  1.3880
 2056SOL    MW4 8272   2.408   2.038   3.587  0.0069 -0.0701  0.0973
 2057SOL     OW 8273   2.461   2.289   3.476 -0.4456 -0.8274 -0.3989
 2057SOL    HW2 8274   2.537   2.324   3.523  0.5707 -1.1103 -1.7933
 2057SOL    HW3 8275   2.453   2.199   3.506 -0.8531 -0.5058  0.4890
 2057SOL    MW4 8276   2.470   2.282   3.486 -0.3653 -0.8223 -0.4659
 2058SOL     OW 8277   2.223   2.418   3.552 -0.7957  0.3626 -0.7689
 2058SOL    HW2 8278   2.311   2.381   3.540 -1.9226 -2.1646 -1.4888
 2058SOL    HW3 8279   2.232   2.509   3.524  1.6200  0.1637 -0.7380
 2058SOL    MW4 8280   2.236   2.425   3.546 -0.6258  0.0029 -0.8602
 2059SOL     OW 8281   2.225   2.693   3.447 -0.3753 -0.4068 -0.2006
 2059SOL    HW2 8282   2.220   2.664   3.356 -0.8963 -1.6856  0.2205
 2059SOL    HW3 8283   2.144   2.743   3.460 -0.3110 -0.2413 -0.4290
 2059SOL    MW4 8284   2.214   2.696   3.436 -0.4354 -0.5536 -0.1752
 2060SOL     OW 8285   2.473   2.828   3.532 -0.0799  0.2144  0.1758
 2060SOL    HW2 8286   2.398   2.779   3.498  0.5284 -0.9091  0.4281
 2060SOL    HW3 8287   2.445   2.855   3.620 -0.2318 -0.1134  0.2316
 2060SOL    MW4 8288   2.459   2.825   3.539 -0.0198  0.0226  0.2167
 2061SOL     OW 8289   2.454   3.085   3.455 -0.3485 -0.3401 -0.3308
 2061SOL    HW2 8290   2.452   2.997   3.492 -2.7569 -0.4673 -0.7119
 2061SOL    HW3 8291   2.446   3.072   3.361  1.5363  0.2118 -0.5991
 2061SOL    MW4 8292   2.453   3.072   3.448 -0.4175 -0.2840 -0.4165
 2062SOL     OW 8293   2.232   3.235   3.571  0.2009  0.3814 -0.2844
 2062SOL    HW2 8294   2.261   3.256   3.660 -0.0242  1.9613 -0.5676
 2062SOL    HW3 8295   2.302   3.181   3.535  1.3949  1.6588  0.0613
 2062SOL    MW4 8296   2.245   3.231   3.578  0.3290  0.7584 -0.2761
 2063SOL     OW 8297   2.260   3.478   3.446 -0.1706 -0.7079 -0.3915
 2063SOL    HW2 8298   2.238   3.399   3.494 -1.0629 -0.6827 -0.7637
 2063SOL    HW3 8299   2.263   3.452   3.354  0.5187 -0.5287 -0.4245
 2063SOL    MW4 8300   2.258   3.464   3.440 -0.1974 -0.6809 -0.4451
 2064SOL     OW 8301   2.466   3.637   3.513 -0.4124  0.0665 -0.5297
 2064SOL    HW2 8302   2.447   3.719   3.468  0.0400 -0.5931 -1.9596
 2064SOL    HW3 8303   2.389   3.582   3.496 -0.0318 -0.3539 -0.8875
 2064SOL    MW4 8304   2.453   3.640   3.505 -0.3026 -0.0761 -0.7656
 2065SOL     OW 8305   2.464   3.889   3.422 -0.1554 -0.5149 -0.1454
 2065SOL    HW2 8306   2.544   3.920   3.465 -0.9634  1.8161 -0.2144
 2065SOL    HW3 8307   2.394   3.937   3.466 -1.2114  0.0268 -2.3493
 2065SOL    MW4 8308   2.466   3.900   3.434 -0.4013 -0.1359 -0.4454
 2066SOL     OW 8309   2.243   4.021   3.501  0.1423 -0.4448  0.5132
 2066SOL    HW2 8310   2.217   4.034   3.593 -0.7459 -2.3971  0.5537
 2066SOL    HW3 8311   2.170   3.973   3.462  1.8451 -2.3692 -0.4197
 2066SOL    MW4 8312   2.230   4.016   3.508  0.2499 -0.9565  0.3953
 2067SOL     OW 8313   2.208   4.272   3.428  0.3098  0.0613  0.0928
 2067SOL    HW2 8314   2.233   4.182   3.448  0.5066 -0.0006 -0.4176
 2067SOL    HW3 8315   2.234   4.284   3.336 -0.5071  0.3577 -0.1006
 2067SOL    MW4 8316   2.215   4.262   3.419  0.2279  0.0920 -0.0002
 2068SOL     OW 8317   2.424   4.429   3.524 -0.8043 -0.1049  0.0563
 2068SOL    HW2 8318   2.425   4.411   3.618  0.6940 -0.7632 -0.0717
 2068SOL    HW3 8319   2.343   4.387   3.493 -0.8002 -0.7548  0.8905
 2068SOL    MW4 8320   2.413   4.421   3.533 -0.6061 -0.2775  0.1497
 2069SOL     OW 8321   2.936   4.647   3.469 -0.5165 -0.7242  0.1785
 2069SOL    HW2 8322   2.842   4.651   3.487 -0.5611  0.0532 -0.1932
 2069SOL    HW3 8323   2.943   4.665   3.375  0.1357  1.2521  0.5758
 2069SOL    MW4 8324   2.925   4.650   3.459 -0.4363 -0.3610  0.1819
 2070SOL     OW 8325   2.686   0.045   3.554  0.1090  0.0404 -0.0031
 2070SOL    HW2 8326   2.689   0.130   3.511  1.5096 -0.5072 -1.0298
 2070SOL    HW3 8327   2.617  -0.003   3.508  1.3295 -0.4022 -1.4392
 2070SOL    MW4 8328   2.677   0.050   3.542  0.4547 -0.0902 -0.3278
 2071SOL     OW 8329   2.709   0.332   3.452 -0.1340  0.3111 -0.3155
 2071SOL    HW2 8330   2.788   0.362   3.496  0.9245  0.1005 -2.0372
 2071SOL    HW3 8331   2.723   0.353   3.359 -1.7834 -0.3713 -0.7424
 2071SOL    MW4 8332   2.721   0.339   3.445 -0.2120  0.1932 -0.5989
 2072SOL     OW 8333   2.952   0.453   3.592 -0.4215 -0.2729  0.0697
 2072SOL    HW2 8334   2.959   0.464   3.686  0.8887 -1.0290  0.0830
 2072SOL    HW3 8335   2.975   0.539   3.556  0.0993 -0.2627  0.4215
 2072SOL    MW4 8336   2.956   0.466   3.599 -0.1798 -0.3713  0.1183
 2073SOL     OW 8337   2.950   0.728   3.457  0.6680  0.6036 -0.4845
 2073SOL    HW2 8338   3.014   0.796   3.477 -0.2619  1.2741  0.2113
 2073SOL    HW3 8339   2.867   0.763   3.487  0.2923 -1.1646  0.5927
 2073SOL    MW4 8340   2.948   0.741   3.464  0.4957  0.4587 -0.2506
 2074SOL     OW 8341   2.694   0.842   3.539  0.2485  0.3638 -0.1780
 2074SOL    HW2 8342   2.619   0.812   3.488  0.6094 -0.1314 -0.4144
 2074SOL    HW3 8343   2.720   0.924   3.497  0.7555 -0.2131 -1.0069
 2074SOL    MW4 8344   2.687   0.849   3.527  0.3631  0.2224 -0.3185
 2075SOL     OW 8345   2.687   1.108   3.458 -0.1219  0.5108 -0.4044
 2075SOL    HW2 8346   2.756   1.170   3.481  0.6849 -0.7313  0.5841
 2075SOL    HW3 8347   2.690   1.103   3.362  0.2041  1.5247 -0.4509
 2075SOL    MW4 8348   2.696   1.116   3.448  0.0274  0.4808 -0.2801
 2076SOL     OW 8349   2.885   1.278   3.516  0.2985 -0.1629 -0.2230
 2076SOL    HW2 8350   2.895   1.262   3.610 -0.4190  0.4321 -0.0368
 2076SOL    HW3 8351   2.971   1.257   3.479  0.2951 -1.3708  0.4194
 2076SOL    MW4 8352   2.898   1.273   3.523  0.2034 -0.2438 -0.1140
 2077SOL     OW 8353   2.888   1.540   3.400  0.5561 -0.1673 -0.1254
 2077SOL    HW2 8354   2.817   1.599   3.428 -0.0227 -0.1869 -1.5182
 2077SOL    HW3 8355   2.884   1.467   3.461 -0.4869 -0.0559 -0.0471
 2077SOL    MW4 8356   2.878   1.538   3.412  0.3421 -0.1552 -0.2987
 2078SOL     OW 8357   2.659   1.655   3.545  0.2593 -0.3983 -0.6829
 2078SOL    HW2 8358   2.649   1.747   3.518  0.4210 -0.3973 -0.7347
 2078SOL    HW3 8359   2.582   1.611   3.507 -1.1479  0.1857  1.4004
 2078SOL    MW4 8360   2.647   1.662   3.536  0.0951 -0.3211 -0.4148
 2079SOL     OW 8361   2.645   1.915   3.463 -0.2278  0.1853 -0.2848
 2079SOL    HW2 8362   2.561   1.957   3.483 -0.5066 -0.5091  0.0371
 2079SOL    HW3 8363   2.659   1.933   3.370 -0.4007  0.8866 -0.1738
 2079SOL    MW4 8364   2.636   1.923   3.453 -0.2875  0.1861 -0.2279
 2080SOL     OW 8365   2.900   2.011   3.541  0.1578 -0.6933  0.2173
 2080SOL    HW2 8366   2.891   2.034   3.633 -0.0626  1.3621 -0.2953
 2080SOL    HW3 8367   2.814   1.977   3.516 -0.9795  2.2985 -0.1572
 2080SOL    MW4 8368   2.888   2.010   3.550 -0.0212 -0.0274  0.1004
 2081SOL     OW 8369   2.871   2.307   3.440  0.1331  0.0988  0.7210
 2081SOL    HW2 8370   2.900   2.216   3.453 -0.7618 -0.3077 -0.0362
 2081SOL    HW3 8371   2.877   2.321   3.346 -1.7513  0.1159  0.5824
 2081SOL    MW4 8372   2.876   2.297   3.430 -0.2337  0.0477  0.6030
 2082SOL     OW 8373   2.672   2.418   3.602  0.1200  0.2175  0.0483
 2082SOL    HW2 8374   2.678   2.412   3.697  0.4672 -1.0739 -0.0463
 2082SOL    HW3 8375   2.735   2.354   3.570 -0.2336  0.4058 -1.0474
 2082SOL    MW4 8376   2.681   2.408   3.610  0.1190  0.0718 -0.1087
 2083SOL     OW 8377   2.685   2.666   3.464 -0.2425 -0.1829 -0.2983
 2083SOL    HW2 8378   2.690   2.587   3.518 -1.2601  0.5969  0.9555
 2083SOL    HW3 8379   2.610   2.714   3.499  1.1537  1.9733 -0.2263
 2083SOL    MW4 8380   2.676   2.662   3.476 -0.1924  0.2043 -0.1233
 2084SOL     OW 8381   2.886   2.850   3.565 -0.4279  0.1622  0.0833
 2084SOL    HW2 8382   2.956   2.809   3.514 -0.1026  2.1387 -1.1348
 2084SOL    HW3 8383   2.808   2.798   3.545  0.2624 -0.7867 -0.2093
 2084SOL    MW4 8384   2.885   2.838   3.556 -0.2940  0.2975 -0.1159
 2085SOL     OW 8385   2.872   3.108   3.433 -0.0414 -0.4494  0.2451
 2085SOL    HW2 8386   2.860   3.020   3.468  0.5961 -1.1565 -1.2318
 2085SOL    HW3 8387   2.863   3.097   3.338 -4.8757  1.9088  0.2734
 2085SOL    MW4 8388   2.870   3.095   3.425 -0.5953 -0.2315  0.0541
 2086SOL     OW 8389   2.670   3.266   3.546 -0.0962  0.2547 -0.4854
 2086SOL    HW2 8390   2.603   3.205   3.514  0.9483 -0.0370 -2.1640
 2086SOL    HW3 8391   2.752   3.217   3.538  0.5491  1.2814 -0.1941
 2086SOL    MW4 8392   2.672   3.251   3.541  0.1266  0.3517 -0.6685
 2087SOL     OW 8393   2.698   3.510   3.399  0.2000  0.0519 -0.1890
 2087SOL    HW2 8394   2.688   3.425   3.442  0.2896 -1.4085 -2.9347
 2087SOL    HW3 8395   2.629   3.564   3.437 -0.8847 -1.7377  0.4645
 2087SOL    MW4 8396   2.688   3.506   3.410  0.0687 -0.3767 -0.4647
 2088SOL     OW 8397   2.900   3.605   3.556  0.2497  0.1518  0.5169
 2088SOL    HW2 8398   2.886   3.698   3.541  1.6814  0.0538 -1.6665
 2088SOL    HW3 8399   2.835   3.562   3.501  0.0879 -0.1602  0.9441
 2088SOL    MW4 8400   2.889   3.612   3.547  0.4170  0.0975  0.2851
 2089SOL     OW 8401   2.904   3.865   3.468 -0.1642  0.0836 -0.2280
 2089SOL    HW2 8402   2.973   3.920   3.505  0.4059 -1.3771  0.9211
 2089SOL    HW3 8403   2.825   3.918   3.477  0.5064  1.0665  0.0437
 2089SOL    MW4 8404   2.903   3.879   3.474 -0.0007  0.0205 -0.0405
 2090SOL     OW 8405   2.692   4.010   3.530 -0.7027  0.3774  0.4605
 2090SOL    HW2 8406   2.723   4.036   3.617  0.5806 -0.0894  0.1539
 2090SOL    HW3 8407   2.677   4.093   3.484  2.0598  0.6337 -0.0518
 2090SOL    MW4 8408   2.694   4.025   3.535 -0.1688  0.3495  0.3521
 2091SOL     OW 8409   2.671   4.279   3.431  0.2181  0.1957 -0.0752
 2091SOL    HW2 8410   2.752   4.315   3.469  0.4368  0.9045 -1.1897
 2091SOL    HW3 8411   2.603   4.342   3.456  0.1453 -0.0066  0.2296
 2091SOL    MW4 8412   2.673   4.292   3.440  0.2372  0.2627 -0.1822
 2092SOL     OW 8413   2.921   4.370   3.549  0.2211 -0.1198  0.3745
 2092SOL    HW2 8414   2.905   4.399   3.639 -0.1992  0.4196  0.1346
 2092SOL    HW3 8415   2.922   4.451   3.498 -2.1263 -0.5780 -0.4819
 2092SOL    MW4 8416   2.919   4.384   3.555 -0.1442 -0.1087  0.2301
 2093SOL     OW 8417   3.428   0.022   3.416 -0.2457  0.2614  0.2956
 2093SOL    HW2 8418   3.347   0.030   3.468 -0.3992  0.0690  0.0901
 2093SOL    HW3 8419   3.399   0.033   3.326 -0.1894 -0.7220  0.1522
 2093SOL    MW4 8420   3.413   0.024   3.411 -0.2584  0.1062  0.2494
 2094SOL     OW 8421   3.192   0.078   3.568 -0.0554 -0.0569 -0.1287
 2094SOL    HW2 8422   3.191   0.172   3.550 -1.1533  0.1895  1.1904
 2094SOL    HW3 8423   3.110   0.045   3.531  1.1304 -0.8187 -2.1716
 2094SOL    MW4 8424   3.181   0.086   3.561 -0.0434 -0.1249 -0.2241
 2095SOL     OW 8425   3.188   0.334   3.477 -0.0966 -0.3808  0.2933
 2095SOL    HW2 8426   3.111   0.375   3.518  1.4608  1.4795  1.4143
 2095SOL    HW3 8427   3.173   0.345   3.383 -1.1278  0.1069  0.5046
 2095SOL    MW4 8428   3.176   0.341   3.470 -0.0269 -0.0710  0.4690
 2096SOL     OW 8429   3.375   0.512   3.584  0.0201 -0.0550 -0.2605
 2096SOL    HW2 8430   3.389   0.482   3.674  0.0789  0.3753 -0.1282
 2096SOL    HW3 8431   3.319   0.445   3.545  1.3511 -1.1215 -0.3958
 2096SOL    MW4 8432   3.370   0.499   3.591  0.2036 -0.1388 -0.2611
 2097SOL     OW 8433   3.362   0.768   3.477  0.1538  0.8917 -0.1956
 2097SOL    HW2 8434   3.445   0.810   3.500  1.3411 -1.0965 -0.7510
 2097SOL    HW3 8435   3.364   0.684   3.523 -1.6234  0.8841 -0.1009
 2097SOL    MW4 8436   3.374   0.763   3.486  0.0761  0.6284 -0.2565
 2098SOL     OW 8437   3.135   0.925   3.534  0.4920 -0.1267  0.0462
 2098SOL    HW2 8438   3.152   0.899   3.625  0.0963 -0.7783 -0.0605
 2098SOL    HW3 8439   3.213   0.898   3.486  0.9602  0.7672  0.2909
 2098SOL    MW4 8440   3.147   0.918   3.540  0.5014 -0.0947  0.0641
 2099SOL     OW 8441   3.133   1.189   3.426  0.4781 -0.1426  0.2431
 2099SOL    HW2 8442   3.117   1.099   3.456  1.3996 -0.9248 -1.5299
 2099SOL    HW3 8443   3.217   1.212   3.464  0.2656 -0.0567  0.6582
 2099SOL    MW4 8444   3.142   1.180   3.435  0.5715 -0.2345  0.0641
 2100SOL     OW 8445   3.367   1.274   3.551 -0.2965  0.0332  0.0829
 2100SOL    HW2 8446   3.432   1.208   3.528 -0.2781 -0.4056  1.3382
 2100SOL    HW3 8447   3.385   1.347   3.492 -0.6074 -1.2400 -1.6431
 2100SOL    MW4 8448   3.378   1.275   3.540 -0.3352 -0.1926  0.0210
 2101SOL     OW 8449   3.359   1.532   3.378  0.2998 -0.4904 -0.2553
 2101SOL    HW2 8450   3.439   1.572   3.412 -0.2999  1.0862 -0.6875
 2101SOL    HW3 8451   3.289   1.572   3.428 -0.2845 -1.3876 -0.3406
 2101SOL    MW4 8452   3.361   1.542   3.389  0.1435 -0.4007 -0.3235
 2102SOL     OW 8453   3.141   1.667   3.504  0.7573 -0.2392 -0.1365
 2102SOL    HW2 8454   3.146   1.760   3.485  0.9230 -0.2603 -0.1926
 2102SOL    HW3 8455   3.054   1.641   3.471  1.0769 -0.2934 -0.9436
 2102SOL    MW4 8456   3.130   1.676   3.497  0.8216 -0.2491 -0.2503
 2103SOL     OW 8457   3.134   1.940   3.434 -0.1503 -0.2687 -0.0725
 2103SOL    HW2 8458   3.049   1.960   3.474 -0.4154 -1.7821  0.1411
 2103SOL    HW3 8459   3.120   1.954   3.340 -0.8269 -1.1456 -0.1098
 2103SOL    MW4 8460   3.121   1.945   3.427 -0.2744 -0.5841 -0.0496
 2104SOL     OW 8461   3.367   2.076   3.507 -0.3208  0.0899 -0.8107
 2104SOL    HW2 8462   3.336   2.154   3.461 -0.1042  0.0617 -1.0076
 2104SOL    HW3 8463   3.299   2.011   3.493  0.7713 -0.6589 -3.0722
 2104SOL    MW4 8464   3.354   2.077   3.499 -0.1483 -0.0126 -1.1351
 2105SOL     OW 8465   3.312   2.304   3.377  0.0428  0.2272 -0.9686
 2105SOL    HW2 8466   3.401   2.341   3.377 -0.3189  1.1026 -0.6378
 2105SOL    HW3 8467   3.260   2.367   3.427 -0.6832 -0.4917 -0.8139
 2105SOL    MW4 8468   3.317   2.317   3.384 -0.1004  0.2480 -0.9046
 2106SOL     OW 8469   3.102   2.460   3.519 -0.0210  0.4102  0.5125
 2106SOL    HW2 8470   3.124   2.446   3.611 -0.4430 -0.3400  0.5024
 2106SOL    HW3 8471   3.020   2.412   3.506  1.0406 -1.1598 -0.7181
 2106SOL    MW4 8472   3.094   2.452   3.530  0.0632  0.1042  0.3490
 2107SOL     OW 8473   3.093   2.730   3.415  0.1547 -0.0179  0.0077
 2107SOL    HW2 8474   3.174   2.768   3.449  0.3412 -0.6535  0.2690
 2107SOL    HW3 8475   3.085   2.646   3.460 -0.9044  0.2617  0.3414
 2107SOL    MW4 8476   3.103   2.724   3.425  0.0396 -0.0646  0.0861
 2108SOL     OW 8477   3.325   2.847   3.515  0.0638  0.2259 -0.1030
 2108SOL    HW2 8478   3.390   2.791   3.474 -0.9331  0.4813 -2.1176
 2108SOL    HW3 8479   3.321   2.924   3.458  0.1297  1.5553  1.6345
 2108SOL    MW4 8480   3.333   2.850   3.502 -0.0591  0.4349 -0.1397
 2109SOL     OW 8481   3.332   3.110   3.390 -0.2203 -0.2569 -0.2264
 2109SOL    HW2 8482   3.391   3.156   3.449 -0.1365  0.3804 -0.8053
 2109SOL    HW3 8483   3.244   3.138   3.418 -0.2478 -0.9275  0.3986
 2109SOL    MW4 8484   3.328   3.120   3.402 -0.2129 -0.2613 -0.2203
 2110SOL     OW 8485   3.092   3.219   3.549  0.2110  0.3379  0.1604
 2110SOL    HW2 8486   3.094   3.307   3.510 -0.5312 -0.0497 -0.7871
 2110SOL    HW3 8487   3.011   3.181   3.516 -0.2829 -0.1144  1.8904
 2110SOL    MW4 8488   3.082   3.226   3.539  0.0477  0.2272  0.2635
 2111SOL     OW 8489   3.106   3.468   3.430  0.1834  0.2562  0.6931
 2111SOL    HW2 8490   3.034   3.508   3.479  0.3865  0.1437  1.0846
 2111SOL    HW3 8491   3.086   3.487   3.338  1.6829  3.7101  0.9712
 2111SOL    MW4 8492   3.094   3.476   3.424  0.4079  0.6971  0.7815
 2112SOL     OW 8493   3.340   3.587   3.550 -0.3494  0.3601 -0.1032
 2112SOL    HW2 8494   3.330   3.682   3.544  0.8431  0.4849 -0.1879
 2112SOL    HW3 8495   3.258   3.552   3.514 -0.7585  1.3482 -0.1431
 2112SOL    MW4 8496   3.328   3.595   3.544 -0.2460  0.5069 -0.1199
 2113SOL     OW 8497   3.321   3.867   3.482  0.4684  0.2418  0.1231
 2113SOL    HW2 8498   3.398   3.918   3.507 -1.1427  1.9608  1.7595
 2113SOL    HW3 8499   3.247   3.918   3.515 -1.3158 -2.0032 -0.2953
 2113SOL    MW4 8500   3.321   3.881   3.490  0.0205  0.1721  0.2842
 2114SOL     OW 8501   3.119   4.015   3.569  0.3898 -0.6817 -0.1273
 2114SOL    HW2 8502   3.119   4.021   3.664  0.8079 -0.4886 -0.1380
 2114SOL    HW3 8503   3.131   4.105   3.539  2.0394 -0.9569 -0.3413
 2114SOL    MW4 8504   3.120   4.028   3.577  0.6626 -0.6924 -0.1571
 2115SOL     OW 8505   3.153   4.280   3.462 -0.0183 -0.0474 -0.5469
 2115SOL    HW2 8506   3.228   4.323   3.503 -0.0699 -0.9649  0.5238
 2115SOL    HW3 8507   3.077   4.309   3.512 -0.0541 -1.3597  0.2018
 2115SOL    MW4 8508   3.153   4.289   3.474 -0.0296 -0.3414 -0.3071
 2116SOL     OW 8509   3.380   4.395   3.553  0.4195  0.1267  0.3994
 2116SOL    HW2 8510   3.378   4.388   3.648  1.6438  0.6913  0.4737
 2116SOL    HW3 8511   3.405   4.486   3.535  1.0593 -0.2015 -0.4451
 2116SOL    MW4 8512   3.383   4.406   3.563  0.6652  0.1578  0.2975
 2117SOL     OW 8513   3.805   4.614   3.494  0.1407  0.2418 -0.2926
 2117SOL    HW2 8514   3.740   4.680   3.521  0.0280  0.2480 -0.5786
 2117SOL    HW3 8515   3.819   4.631   3.401  0.9802  0.6051 -0.0997
 2117SOL    MW4 8516   3.798   4.625   3.486  0.2365  0.2913 -0.3049
 2118SOL     OW 8517   3.641   0.170   3.536  0.3394  0.3764 -0.2122
 2118SOL    HW2 8518   3.633   0.257   3.498  1.4083  1.1067  1.1627
 2118SOL    HW3 8519   3.559   0.126   3.515 -0.7507  2.1694  0.1874
 2118SOL    MW4 8520   3.629   0.175   3.529  0.3366  0.7093  0.0219
 2119SOL     OW 8521   3.614   0.456   3.446  0.6345 -0.5221 -0.3638
 2119SOL    HW2 8522   3.695   0.479   3.492  0.0947  0.2196  0.2358
 2119SOL    HW3 8523   3.544   0.479   3.507 -0.0027 -2.1164 -0.4753
 2119SOL    MW4 8524   3.615   0.462   3.460  0.4795 -0.6346 -0.2992
 2120SOL     OW 8525   3.856   0.512   3.609 -0.1955  0.0872  0.1580
 2120SOL    HW2 8526   3.856   0.489   3.702  2.3097  0.6057  0.3308
 2120SOL    HW3 8527   3.919   0.452   3.569 -0.1542  0.8385 -0.9504
 2120SOL    MW4 8528   3.864   0.501   3.616  0.1407  0.2548  0.0348
 2121SOL     OW 8529   3.886   0.773   3.480  0.9272  0.0658  0.2249
 2121SOL    HW2 8530   3.954   0.815   3.532  0.8819 -1.3704  1.4655
 2121SOL    HW3 8531   3.873   0.688   3.521 -1.9824  0.4865  0.3412
 2121SOL    MW4 8532   3.893   0.768   3.492  0.5372 -0.0682  0.4041
 2122SOL     OW 8533   3.632   0.865   3.550 -0.2460  0.2796 -0.0100
 2122SOL    HW2 8534   3.637   0.875   3.645 -2.0867  0.2045  0.1108
 2122SOL    HW3 8535   3.717   0.828   3.525 -1.2730 -3.8946  2.1640
 2122SOL    MW4 8536   3.644   0.861   3.559 -0.6242 -0.2810  0.2928
 2123SOL     OW 8537   3.568   1.109   3.444  0.3893  0.4525 -0.1664
 2123SOL    HW2 8538   3.599   1.028   3.484 -0.0585  0.7087  0.7349
 2123SOL    HW3 8539   3.567   1.092   3.350  1.3863 -0.1995 -0.0577
 2123SOL    MW4 8540   3.572   1.096   3.437  0.4618  0.4002 -0.0331
 2124SOL     OW 8541   3.810   1.254   3.509 -0.1490 -0.4706 -0.2728
 2124SOL    HW2 8542   3.811   1.245   3.604 -0.3201 -0.0610 -0.2338
 2124SOL    HW3 8543   3.735   1.201   3.481  1.3579 -2.6120 -0.3882
 2124SOL    MW4 8544   3.800   1.246   3.518  0.0272 -0.6990 -0.2828
 2125SOL     OW 8545   3.776   1.503   3.423 -0.1099  0.1481  0.2082
 2125SOL    HW2 8546   3.853   1.547   3.461  0.7189 -0.5526 -0.6504
 2125SOL    HW3 8547   3.789   1.411   3.444  0.2474 -0.2168 -1.5721
 2125SOL    MW4 8548   3.788   1.497   3.431  0.0467  0.0076 -0.1400
 2126SOL     OW 8549   3.561   1.626   3.546  0.5056 -0.0912 -0.2928
 2126SOL    HW2 8550   3.569   1.714   3.509  0.8597 -0.5732 -1.3811
 2126SOL    HW3 8551   3.629   1.575   3.501 -0.3382 -1.1598 -0.3725
 2126SOL    MW4 8552   3.571   1.631   3.535  0.4408 -0.2960 -0.4470
 2127SOL     OW 8553   3.576   1.880   3.459  0.4003  0.0302 -0.2923
 2127SOL    HW2 8554   3.656   1.932   3.469  0.2015 -0.0473  1.9487
 2127SOL    HW3 8555   3.505   1.941   3.481 -0.0299 -0.3713 -0.5543
 2127SOL    MW4 8556   3.577   1.895   3.464  0.3171 -0.0329 -0.0312
 2128SOL     OW 8557   3.811   2.049   3.535 -0.4948  0.1684  0.3446
 2128SOL    HW2 8558   3.806   2.057   3.630 -0.3334  1.7433  0.2327
 2128SOL    HW3 8559   3.890   1.997   3.519 -0.0826  0.5830  1.0437
 2128SOL    MW4 8560   3.821   2.043   3.545 -0.4191  0.4306  0.4222
 2129SOL     OW 8561   3.805   2.304   3.438  0.7740 -0.4411  0.0825
 2129SOL    HW2 8562   3.883   2.345   3.475  0.5360 -0.9146  1.1442
 2129SOL    HW3 8563   3.806   2.215   3.475 -0.0616 -0.5667 -0.1951
 2129SOL    MW4 8564   3.816   2.297   3.448  0.6323 -0.5202  0.1862
 2130SOL     OW 8565   3.544   2.411   3.465  0.2128  0.2507  0.0673
 2130SOL    HW2 8566   3.544   2.505   3.449 -0.8656  0.0948 -0.9136
 2130SOL    HW3 8567   3.637   2.386   3.462  0.3221  0.7982 -2.6919
 2130SOL    MW4 8568   3.557   2.420   3.462  0.0846  0.3023 -0.4261
 2131SOL     OW 8569   3.542   2.698   3.426  0.1093 -0.2320 -0.2205
 2131SOL    HW2 8570   3.595   2.757   3.479 -0.4286  0.1640 -0.1171
 2131SOL    HW3 8571   3.579   2.706   3.338 -1.0346  1.5891 -0.5701
 2131SOL    MW4 8572   3.554   2.707   3.421 -0.1123  0.0606 -0.2530
 2132SOL     OW 8573   3.739   2.852   3.544  0.5850  0.5011 -0.2670
 2132SOL    HW2 8574   3.772   2.846   3.634  1.1266  0.9151 -0.4353
 2132SOL    HW3 8575   3.753   2.943   3.520  1.1270  0.2187 -1.0304
 2132SOL    MW4 8576   3.745   2.863   3.553  0.7279  0.5183 -0.3898
 2133SOL     OW 8577   3.786   3.110   3.439  0.0121 -0.1035  0.4196
 2133SOL    HW2 8578   3.874   3.145   3.450  0.6543 -1.1646 -1.1302
 2133SOL    HW3 8579   3.773   3.107   3.344 -1.4702 -0.5064  0.6130
 2133SOL    MW4 8580   3.796   3.114   3.428 -0.0989 -0.2966  0.2408
 2134SOL     OW 8581   3.547   3.223   3.535  0.0815  0.1259 -0.0915
 2134SOL    HW2 8582   3.563   3.309   3.495  0.7384 -0.3485 -0.8436
 2134SOL    HW3 8583   3.628   3.174   3.521 -0.1313 -0.4736  0.7300
 2134SOL    MW4 8584   3.560   3.228   3.528  0.1402 -0.0160 -0.0823
 2135SOL     OW 8585   3.575   3.493   3.452 -0.1046 -0.3750 -0.0478
 2135SOL    HW2 8586   3.493   3.530   3.484  0.6550  0.8127  0.5654
 2135SOL    HW3 8587   3.567   3.495   3.357 -1.0484 -0.8943  0.0094
 2135SOL    MW4 8588   3.563   3.498   3.444 -0.1287 -0.2866  0.0408
 2136SOL     OW 8589   3.796   3.621   3.557 -0.5402 -0.1072 -0.3100
 2136SOL    HW2 8590   3.776   3.624   3.650  0.9927 -0.0232  0.0286
 2136SOL    HW3 8591   3.720   3.578   3.517 -0.6093 -1.3353  1.1259
 2136SOL    MW4 8592   3.783   3.616   3.564 -0.3469 -0.2582 -0.0758
 2137SOL     OW 8593   3.804   3.873   3.429 -0.1506 -0.3258 -0.4873
 2137SOL    HW2 8594   3.735   3.932   3.461  0.3319 -0.2120  0.3485
 2137SOL    HW3 8595   3.790   3.792   3.478  0.2548 -0.3331 -0.3855
 2137SOL    MW4 8596   3.793   3.870   3.440 -0.0334 -0.3119 -0.3636
 2138SOL     OW 8597   3.565   4.015   3.543 -0.3033 -0.4989 -0.1118
 2138SOL    HW2 8598   3.575   4.011   3.638 -2.1363 -1.5872  0.0517
 2138SOL    HW3 8599   3.566   4.109   3.523 -0.2327 -0.2533  1.0068
 2138SOL    MW4 8600   3.567   4.027   3.553 -0.5357 -0.6104  0.0572
 2139SOL     OW 8601   3.601   4.291   3.460  0.1785  0.2482  0.0137
 2139SOL    HW2 8602   3.513   4.316   3.488 -0.5184 -0.5445 -1.3841
 2139SOL    HW3 8603   3.598   4.294   3.364  1.7204  0.3556 -0.0513
 2139SOL    MW4 8604   3.589   4.295   3.451  0.2899  0.1574 -0.1795
 2140SOL     OW 8605   3.842   4.353   3.572  0.4677  0.4552 -0.0638
 2140SOL    HW2 8606   3.762   4.312   3.539 -0.0978  0.1938  1.5948
 2140SOL    HW3 8607   3.832   4.445   3.551  1.2616 -0.0386 -2.8507
 2140SOL    MW4 8608   3.831   4.359   3.565  0.4978  0.3557 -0.2127
 2141SOL     OW 8609   4.283   4.624   3.410  0.4061 -0.2999  0.1121
 2141SOL    HW2 8610   4.292   4.533   3.436  0.2014 -0.3788 -0.0867
 2141SOL    HW3 8611   4.358   4.669   3.449  1.0781 -0.7405 -0.6602
 2141SOL    MW4 8612   4.294   4.618   3.418  0.4673 -0.3686 -0.0157
 2142SOL     OW 8613   4.057   0.067   3.520 -0.2750 -0.0357  0.3009
 2142SOL    HW2 8614   4.131   0.028   3.472  0.5152 -0.1919  1.6174
 2142SOL    HW3 8615   3.986   0.003   3.509 -0.7536  0.8757 -2.3385
 2142SOL    MW4 8616   4.057   0.053   3.512 -0.2341  0.0640  0.1261
 2143SOL     OW 8617   4.053   0.337   3.461  0.1073 -0.1797 -0.2327
 2143SOL    HW2 8618   4.057   0.243   3.478  1.2149 -0.2902 -1.0343
 2143SOL    HW3 8619   4.039   0.345   3.367 -0.5971  0.4507 -0.0746
 2143SOL    MW4 8620   4.052   0.326   3.451  0.1607 -0.1111 -0.3178
 2144SOL     OW 8621   4.267   0.483   3.546 -0.0935 -0.0010  0.2407
 2144SOL    HW2 8622   4.257   0.573   3.517  0.4307 -0.3319 -1.0142
 2144SOL    HW3 8623   4.196   0.435   3.503  1.2516 -0.6678 -1.2990
 2144SOL    MW4 8624   4.257   0.488   3.537  0.1531 -0.1327 -0.1283
 2145SOL     OW 8625   4.240   0.740   3.473  0.0790  0.2670  0.0632
 2145SOL    HW2 8626   4.323   0.781   3.499  0.2308  0.2011 -0.3119
 2145SOL    HW3 8627   4.241   0.742   3.377 -0.0096 -0.4151  0.0422
 2145SOL    MW4 8628   4.251   0.746   3.464  0.0877  0.1683  0.0107
 2146SOL     OW 8629   4.088   0.917   3.615 -0.0944 -0.4411  0.1979
 2146SOL    HW2 8630   4.072   0.993   3.560  0.3102 -0.3683  0.1800
 2146SOL    HW3 8631   4.145   0.861   3.563  1.5857  0.3441  1.1504
 2146SOL    MW4 8632   4.093   0.919   3.601  0.1802 -0.3279  0.3214
 2147SOL     OW 8633   4.056   1.121   3.409  0.3051 -0.3533 -0.1031
 2147SOL    HW2 8634   4.132   1.172   3.436  0.2673 -0.5870  0.4506
 2147SOL    HW3 8635   3.981   1.172   3.438  0.2539 -0.2977 -0.3308
 2147SOL    MW4 8636   4.056   1.134   3.416  0.2933 -0.3766 -0.0598
 2148SOL     OW 8637   4.282   1.257   3.458  0.0194 -0.2907  0.3227
 2148SOL    HW2 8638   4.292   1.349   3.434  1.1747 -0.7141 -0.9118
 2148SOL    HW3 8639   4.370   1.220   3.449 -0.0563 -1.1010  2.6461
 2148SOL    MW4 8640   4.295   1.264   3.454  0.1616 -0.4534  0.4661
 2149SOL     OW 8641   4.275   1.519   3.403  0.3469 -0.2147 -0.0694
 2149SOL    HW2 8642   4.188   1.545   3.432  1.7929  3.0665  1.6660
 2149SOL    HW3 8643   4.271   1.524   3.307 -1.0086  1.2267  0.0463
 2149SOL    MW4 8644   4.263   1.523   3.394  0.3591  0.4085  0.1748
 2150SOL     OW 8645   4.040   1.606   3.513 -0.0188 -0.4996  0.1193
 2150SOL    HW2 8646   4.047   1.598   3.608 -0.7949  0.9392  0.3194
 2150SOL    HW3 8647   4.058   1.699   3.496  0.2819 -0.7883 -1.1443
 2150SOL    MW4 8648   4.043   1.617   3.523 -0.0815 -0.3479 -0.0212
 2151SOL     OW 8649   4.042   1.893   3.444 -0.1222  0.0293 -0.2439
 2151SOL    HW2 8650   4.112   1.948   3.480 -0.2716 -0.6409  1.1240
 2151SOL    HW3 8651   4.046   1.907   3.350  1.2891  0.6715 -0.1021
 2151SOL    MW4 8652   4.052   1.902   3.437  0.0443  0.0257 -0.0448
 2152SOL     OW 8653   4.278   2.077   3.537  0.2912 -0.1936 -0.3516
 2152SOL    HW2 8654   4.261   2.165   3.503 -0.2516 -0.1923 -0.0848
 2152SOL    HW3 8655   4.348   2.043   3.481  3.2687  1.8750  1.9914
 2152SOL    MW4 8656   4.285   2.084   3.525  0.6123  0.0794 -0.0074
 2153SOL     OW 8657   4.262   2.338   3.426 -0.1849 -0.3052 -0.1438
 2153SOL    HW2 8658   4.183   2.385   3.455 -0.2800 -0.1857 -0.5924
 2153SOL    HW3 8659   4.244   2.316   3.334 -0.3206 -1.6007  0.1785
 2153SOL    MW4 8660   4.249   2.341   3.418 -0.2155 -0.4604 -0.1602
 2154SOL     OW 8661   4.024   2.447   3.519 -0.2949  0.3684 -0.2952
 2154SOL    HW2 8662   4.042   2.448   3.613  2.4596 -0.1171 -0.7995
 2154SOL    HW3 8663   4.005   2.538   3.497 -0.3906  0.5707  0.6130
 2154SOL    MW4 8664   4.024   2.459   3.529  0.0558  0.3309 -0.2422
 2155SOL     OW 8665   3.980   2.710   3.455 -0.2070 -0.3245 -0.2493
 2155SOL    HW2 8666   4.058   2.761   3.477 -0.5104 -0.0212  0.1296
 2155SOL    HW3 8667   3.907   2.758   3.495 -0.3295 -1.8751  1.4489
 2155SOL    MW4 8668   3.981   2.723   3.463 -0.2632 -0.4892  0.0250
 2156SOL     OW 8669   4.418   3.474   3.884  0.1963  0.1410 -0.2516
 2156SOL    HW2 8670   4.502   3.520   3.885 -0.1543  0.7729  1.5860
 2156SOL    HW3 8671   4.404   3.448   3.975 -0.8989 -1.2605 -0.8038
 2156SOL    MW4 8672   4.427   3.476   3.896  0.0062  0.0396 -0.0823
 2157SOL     OW 8673   4.274   3.111   3.422 -0.0604 -0.1014  0.1580
 2157SOL    HW2 8674   4.186   3.137   3.448 -0.3189 -1.6178  0.8235
 2157SOL    HW3 8675   4.266   3.091   3.328 -0.7787 -1.6901  0.5426
 2157SOL    MW4 8676   4.262   3.112   3.413 -0.1898 -0.5112  0.2966
 2158SOL     OW 8677   4.043   3.208   3.544  0.3463  0.1139  0.6350
 2158SOL    HW2 8678   4.051   3.301   3.520 -0.3650  0.0960  0.3227
 2158SOL    HW3 8679   4.034   3.208   3.639  1.8992  0.2648  0.8066
 2158SOL    MW4 8680   4.043   3.220   3.553  0.4578  0.1314  0.6166
 2159SOL     OW 8681   3.985   3.467   3.429 -0.5600  0.1191  0.2475
 2159SOL    HW2 8682   4.068   3.502   3.460 -0.9700 -0.6872  2.3260
 2159SOL    HW3 8683   3.919   3.523   3.469 -1.0568 -0.0032 -0.3937
 2159SOL    MW4 8684   3.987   3.479   3.438 -0.6797 -0.0036  0.4370
 2160SOL     OW 8685   4.233   3.584   3.526 -0.3009 -0.6393 -0.5426
 2160SOL    HW2 8686   4.211   3.591   3.618  0.0324 -1.0209 -0.4321
 2160SOL    HW3 8687   4.246   3.674   3.497 -3.0660 -0.3046 -0.8793
 2160SOL    MW4 8688   4.232   3.597   3.534 -0.6213 -0.6454 -0.5727
 2161SOL     OW 8689   4.273   3.840   3.440 -0.1410  0.4330 -0.2068
 2161SOL    HW2 8690   4.361   3.870   3.461  0.2319 -1.0129  0.4024
 2161SOL    HW3 8691   4.273   3.829   3.345  0.1300  1.0351 -0.2805
 2161SOL    MW4 8692   4.285   3.842   3.431 -0.0563  0.3216 -0.1361
 2162SOL     OW 8693   4.066   3.969   3.544 -0.0007 -0.3062  0.0925
 2162SOL    HW2 8694   4.136   3.926   3.494 -1.2793 -3.3301  0.8071
 2162SOL    HW3 8695   3.985   3.927   3.513 -1.2564  1.2822  1.1636
 2162SOL    MW4 8696   4.065   3.958   3.534 -0.3357 -0.4957  0.3283
 2163SOL     OW 8697   4.038   4.226   3.431 -0.0622  0.0672  0.6270
 2163SOL    HW2 8698   4.047   4.135   3.457  0.3846  0.0016  0.2416
 2163SOL    HW3 8699   3.963   4.258   3.482 -0.2888 -0.5397  0.6774
 2163SOL    MW4 8700   4.029   4.218   3.441 -0.0334 -0.0215  0.5827
 2164SOL     OW 8701   4.272   4.371   3.527 -0.2261 -0.2070 -0.2796
 2164SOL    HW2 8702   4.259   4.398   3.618  0.1296 -0.1427 -0.2449
 2164SOL    HW3 8703   4.188   4.336   3.499 -0.2555 -0.4994  0.1712
 2164SOL    MW4 8704   4.259   4.370   3.535 -0.1826 -0.2375 -0.2158
 2165SOL     OW 8705   4.267   0.046   4.179 -0.4754  0.3280 -0.0633
 2165SOL    HW2 8706   4.331   0.115   4.198  0.0516 -0.1967  0.0864
 2165SOL    HW3 8707   4.189   0.073   4.227 -1.2406  2.3236 -2.3385
 2165SOL    MW4 8708   4.265   0.059   4.188 -0.5064  0.5221 -0.3438
 2166SOL     OW 8709   4.487   0.097   3.783 -0.4017 -0.4046 -0.3742
 2166SOL    HW2 8710   4.479   0.177   3.835 -1.0758 -1.2728  0.8866
 2166SOL    HW3 8711   4.480   0.127   3.692 -1.4105  0.8841  0.1032
 2166SOL    MW4 8712   4.485   0.112   3.777 -0.6237 -0.3491 -0.1450
 2167SOL     OW 8713   4.479   0.364   3.924  0.3890 -0.1321 -0.2317
 2167SOL    HW2 8714   4.495   0.338   4.015  0.8419  0.7579 -0.0565
 2167SOL    HW3 8715   4.561   0.402   3.895 -0.2426  1.0203 -0.5221
 2167SOL    MW4 8716   4.492   0.365   3.932  0.3653  0.1374 -0.2470
 2168SOL     OW 8717   0.221   0.470   3.840 -0.1882  0.8620  0.5897
 2168SOL    HW2 8718   0.220   0.565   3.845 -0.4204  0.8635  0.5054
 2168SOL    HW3 8719   0.231   0.451   3.746  0.4675  0.8084  0.6674
 2168SOL    MW4 8720   0.223   0.480   3.828 -0.1323  0.8551  0.5889
 2169SOL     OW 8721   1.144   4.501   4.435  0.1831 -0.1893  0.7166
 2169SOL    HW2 8722   1.145   4.528   4.343 -0.1040 -2.0039  0.1631
 2169SOL    HW3 8723   1.199   4.566   4.479  1.0646  0.1888 -0.8905
 2169SOL    MW4 8724   1.152   4.513   4.429  0.2615 -0.3786  0.4315
 2170SOL     OW 8725   4.484   0.875   3.818 -0.1062 -0.3897  0.4596
 2170SOL    HW2 8726   4.411   0.835   3.865 -0.6113  0.7527  0.6580
 2170SOL    HW3 8727   4.488   0.965   3.851  2.0362 -0.7272  1.1988
 2170SOL    MW4 8728   4.475   0.881   3.828  0.1099 -0.2835  0.5834
 2171SOL     OW 8729   0.007   1.136   3.914 -0.2679  0.1074 -0.6302
 2171SOL    HW2 8730   0.082   1.191   3.892 -0.0340 -0.0510 -0.2309
 2171SOL    HW3 8731  -0.068   1.180   3.873  0.2279 -0.4300 -2.1342
 2171SOL    MW4 8732   0.007   1.149   3.906 -0.1721  0.0156 -0.7761
 2172SOL     OW 8733   0.254   1.250   3.864 -0.1112 -0.5602 -0.1798
 2172SOL    HW2 8734   0.273   1.332   3.910 -1.1496 -0.5140  0.2013
 2172SOL    HW3 8735   0.241   1.276   3.773  0.2109 -0.3946 -0.1785
 2172SOL    MW4 8736   0.254   1.264   3.858 -0.2058 -0.5323 -0.1292
 2173SOL     OW 8737   0.251   1.533   3.908  0.3319  0.2343  0.1052
 2173SOL    HW2 8738   0.181   1.573   3.855 -0.9498  1.1813  2.4671
 2173SOL    HW3 8739   0.332   1.565   3.869 -0.5061 -0.4733 -2.3724
 2173SOL    MW4 8740   0.252   1.542   3.896  0.0522  0.2658  0.0899
 2174SOL     OW 8741   0.064   1.679   3.765  0.5156  0.1320 -0.3999
 2174SOL    HW2 8742   0.060   1.769   3.798 -0.2917  0.0973 -0.3857
 2174SOL    HW3 8743   0.053   1.687   3.670 -0.9437 -0.0468 -0.2579
 2174SOL    MW4 8744   0.062   1.692   3.757  0.2165  0.1038 -0.3788
 2175SOL     OW 8745   3.303   1.146   4.250 -0.2087  0.7764  0.2206
 2175SOL    HW2 8746   3.281   1.225   4.298 -1.4522  0.0622  0.8500
 2175SOL    HW3 8747   3.359   1.176   4.178 -1.9186  2.4452 -0.4704
 2175SOL    MW4 8748   3.307   1.160   4.247 -0.5984  0.9024  0.2127
 2176SOL     OW 8749   0.009   1.928   3.891 -0.3932  0.9546  0.1958
 2176SOL    HW2 8750  -0.074   1.963   3.858 -0.9225 -1.1263 -0.7679
 2176SOL    HW3 8751  -0.004   1.921   3.986 -1.9056 -0.8486 -0.1302
 2176SOL    MW4 8752  -0.004   1.932   3.899 -0.6623  0.4421  0.0257
 2177SOL     OW 8753   0.217   2.324   3.913 -0.3504  0.1030  0.0694
 2177SOL    HW2 8754   0.133   2.358   3.882  0.0610 -0.0487 -1.2502
 2177SOL    HW3 8755   0.219   2.234   3.880 -0.0738 -0.1884  0.8850
 2177SOL    MW4 8756   0.206   2.316   3.904 -0.2596  0.0443  0.0026
 2178SOL     OW 8757   4.448   2.411   3.838 -0.5894  0.2857 -0.4188
 2178SOL    HW2 8758   4.443   2.484   3.900 -4.0997  0.3681 -0.6554
 2178SOL    HW3 8759   4.404   2.339   3.883  2.0494 -1.4716 -0.5453
 2178SOL    MW4 8760   4.441   2.411   3.852 -0.7044  0.0648 -0.4666
 2179SOL     OW 8761   0.156   3.086   3.912 -0.0755 -0.2648 -0.7535
 2179SOL    HW2 8762   0.231   3.145   3.906 -0.7944  0.8409  0.8752
 2179SOL    HW3 8763   0.089   3.127   3.857  0.0347 -0.5260 -1.0858
 2179SOL    MW4 8764   0.157   3.099   3.904 -0.1558 -0.1535 -0.5825
 2180SOL     OW 8765   3.428   1.549   4.612 -0.1676  0.0454 -0.1841
 2180SOL    HW2 8766   3.434   1.463   4.571  1.0008 -0.1420  0.3549
 2180SOL    HW3 8767   3.514   1.588   4.597 -0.2118  0.5434  0.8294
 2180SOL    MW4 8768   3.440   1.543   4.604 -0.0196  0.0864  0.0205
 2181SOL     OW 8769   1.345   3.201   3.825 -0.0062  0.6970 -0.3343
 2181SOL    HW2 8770   1.277   3.165   3.883  0.1954 -0.1588 -0.6340
 2181SOL    HW3 8771   1.423   3.149   3.845  0.4781  1.4667 -0.2247
 2181SOL    MW4 8772   1.346   3.189   3.836  0.0843  0.6855 -0.3593
 2182SOL     OW 8773   0.899   3.493   3.950  0.3488  0.4868  0.0743
 2182SOL    HW2 8774   0.886   3.409   3.906 -1.4253  1.3248 -1.1157
 2182SOL    HW3 8775   0.879   3.476   4.042  0.0907 -0.4257 -0.1428
 2182SOL    MW4 8776   0.894   3.480   3.956  0.0806  0.4771 -0.1116
 2183SOL     OW 8777   0.468   3.997   4.536  0.5203  0.0134  0.0909
 2183SOL    HW2 8778   0.400   4.062   4.554 -0.1409 -1.3221  2.7310
 2183SOL    HW3 8779   0.541   4.023   4.593  1.6422  0.4918 -1.5253
 2183SOL    MW4 8780   0.469   4.009   4.546  0.5811 -0.0997  0.2260
 2184SOL     OW 8781   4.420   3.212   3.802 -0.1280  0.1004  0.2819
 2184SOL    HW2 8782   4.413   3.305   3.822  2.3668  0.0690  1.4775
 2184SOL    HW3 8783   4.445   3.209   3.710 -0.3900  0.5906  0.1933
 2184SOL    MW4 8784   4.422   3.224   3.792  0.1664  0.1612  0.4280
 2185SOL     OW 8785   0.448   4.236   3.906  0.0514  0.0410  0.2135
 2185SOL    HW2 8786   0.464   4.255   3.998 -0.1727  1.8544 -0.1062
 2185SOL    HW3 8787   0.523   4.274   3.861  0.4738 -1.3775 -0.3193
 2185SOL    MW4 8788   0.460   4.243   3.912  0.0775  0.0925  0.1011
 2186SOL     OW 8789   4.365   3.904   4.598 -0.4066 -0.5399 -0.4563
 2186SOL    HW2 8790   4.346   3.944   4.513 -0.6167 -0.3900 -0.3372
 2186SOL    HW3 8791   4.457   3.926   4.615 -0.6085  0.1578 -0.2445
 2186SOL    MW4 8792   4.374   3.912   4.589 -0.4611 -0.4282 -0.4120
 2187SOL     OW 8793   1.438   3.246   4.376  0.2099 -0.0898  0.0315
 2187SOL    HW2 8794   1.440   3.188   4.300  1.0871 -0.4576  0.3367
 2187SOL    HW3 8795   1.458   3.333   4.341  2.1693 -0.5144  0.0769
 2187SOL    MW4 8796   1.441   3.250   4.362  0.5840 -0.1943  0.0777
 2188SOL     OW 8797   0.195   4.601   3.873 -0.3185  0.1046 -0.0955
 2188SOL    HW2 8798   0.121   4.656   3.847 -0.2691  0.7227  1.0159
 2188SOL    HW3 8799   0.175   4.576   3.963  0.3476 -0.5542 -0.1240
 2188SOL    MW4 8800   0.182   4.605   3.882 -0.2241  0.0997  0.0472
 2189SOL     OW 8801   2.695   1.911   4.642 -0.1559  0.3544  0.1685
 2189SOL    HW2 8802   2.720   2.001   4.666 -0.7626  0.5473  0.0964
 2189SOL    HW3 8803   2.738   1.856   4.707  1.1013  0.6196 -0.4271
 2189SOL    MW4 8804   2.704   1.916   4.654 -0.0699  0.4146  0.0811
 2190SOL     OW 8805   0.435   0.072   3.811  0.1099 -0.3694  0.5342
 2190SOL    HW2 8806   0.444   0.148   3.868  0.8304 -0.2024  0.2082
 2190SOL    HW3 8807   0.348   0.038   3.829  0.3659 -0.3772  1.8090
 2190SOL    MW4 8808   0.425   0.078   3.821  0.2387 -0.3484  0.6595
 2191SOL     OW 8809   0.436   0.308   3.959  0.8511  0.2734  0.1089
 2191SOL    HW2 8810   0.360   0.346   3.914 -0.0354 -0.3570  1.0287
 2191SOL    HW3 8811   0.403   0.288   4.047  1.7019 -1.3159  0.0735
 2191SOL    MW4 8812   0.421   0.311   3.965  0.8464 -0.0195  0.2255
 2192SOL     OW 8813   0.672   0.456   3.885 -0.5264 -0.4818 -0.0567
 2192SOL    HW2 8814   0.673   0.538   3.934  0.4697 -0.2508 -0.4383
 2192SOL    HW3 8815   0.586   0.419   3.901  0.2081 -1.0526  2.9135
 2192SOL    MW4 8816   0.661   0.462   3.893 -0.2981 -0.5266  0.2849
 2193SOL     OW 8817   0.713   0.733   3.950 -0.4730  0.0201  0.5997
 2193SOL    HW2 8818   0.783   0.780   3.904  0.4956 -0.1303  1.8725
 2193SOL    HW3 8819   0.634   0.753   3.901  0.5171 -0.0260 -1.0378
 2193SOL    MW4 8820   0.712   0.742   3.938 -0.2145 -0.0058  0.5515
 2194SOL     OW 8821   0.485   0.808   3.828 -0.5791  0.1956  0.1155
 2194SOL    HW2 8822   0.480   0.899   3.856  0.0103  0.5570 -0.9708
 2194SOL    HW3 8823   0.405   0.768   3.862 -0.5355  0.9558  1.1400
 2194SOL    MW4 8824   0.474   0.815   3.836 -0.4956  0.3436  0.1073
 2195SOL     OW 8825   0.474   1.081   3.899 -0.1330  0.1651  0.5314
 2195SOL    HW2 8826   0.548   1.138   3.874 -0.7720  1.2764  1.1705
 2195SOL    HW3 8827   0.397   1.124   3.861 -0.7117  0.1126  1.6498
 2195SOL    MW4 8828   0.474   1.094   3.890 -0.2937  0.3048  0.7632
 2196SOL     OW 8829   0.960   1.142   3.910 -0.2268  0.5553  0.2939
 2196SOL    HW2 8830   0.968   1.144   4.006  0.6577  1.2975  0.2162
 2196SOL    HW3 8831   0.875   1.182   3.892  0.3045  1.8976  0.7012
 2196SOL    MW4 8832   0.950   1.148   3.920 -0.0400  0.8304  0.3374
 2197SOL     OW 8833   0.008   4.621   4.800 -0.0052  0.7624 -0.3617
 2197SOL    HW2 8834  -0.007   4.696   4.858  0.2893  0.1793  0.4891
 2197SOL    HW3 8835  -0.077   4.603   4.761  0.1533  2.2460 -1.4551
 2197SOL    MW4 8836  -0.005   4.629   4.803  0.0548  0.8812 -0.3943
 2198SOL     OW 8837   0.481   1.672   3.796  0.1707 -0.3642  0.2191
 2198SOL    HW2 8838   0.562   1.634   3.831  1.0373  1.3557  0.1039
 2198SOL    HW3 8839   0.469   1.754   3.845 -0.6235  0.2128 -0.9112
 2198SOL    MW4 8840   0.490   1.678   3.807  0.1803 -0.0612  0.0546
 2199SOL     OW 8841   0.905   1.898   3.968  0.2684  0.1200  0.1989
 2199SOL    HW2 8842   0.964   1.958   3.925 -0.7236  0.4818 -0.6680
 2199SOL    HW3 8843   0.821   1.943   3.970 -0.0457 -0.4820  1.1979
 2199SOL    MW4 8844   0.902   1.912   3.963  0.0961  0.0885  0.2162
 2200SOL     OW 8845   0.662   2.348   3.939  0.1289 -0.1965  0.0578
 2200SOL    HW2 8846   0.585   2.351   3.883  0.2955 -1.8133 -0.2587
 2200SOL    HW3 8847   0.735   2.371   3.881 -0.0964  1.4605  0.3851
 2200SOL    MW4 8848   0.661   2.352   3.924  0.1212 -0.1912  0.0591
 2201SOL     OW 8849   0.399   2.384   4.277 -0.2379 -0.0223  0.3973
 2201SOL    HW2 8850   0.485   2.346   4.261 -0.0244  0.0539  1.3297
 2201SOL    HW3 8851   0.398   2.463   4.223 -0.7881 -1.4547 -1.7417
 2201SOL    MW4 8852   0.410   2.390   4.268 -0.2823 -0.2012  0.2389
 2202SOL     OW 8853   0.434   2.422   3.778 -0.3469 -0.4759 -0.4114
 2202SOL    HW2 8854   0.438   2.515   3.802  2.0982 -1.0575  1.6499
 2202SOL    HW3 8855   0.356   2.388   3.823 -0.4180  0.2580  0.0247
 2202SOL    MW4 8856   0.424   2.430   3.787 -0.0336 -0.4559 -0.0820
 2203SOL     OW 8857   2.482   4.327   4.686  0.1605  0.1867  0.0073
 2203SOL    HW2 8858   2.393   4.358   4.670 -0.3179  0.3788  2.8547
 2203SOL    HW3 8859   2.530   4.405   4.716  0.5110 -0.5527  1.3796
 2203SOL    MW4 8860   2.477   4.342   4.687  0.1435  0.1149  0.5641
 2204SOL     OW 8861   4.179   2.056   4.567 -0.0304 -0.2021 -0.5334
 2204SOL    HW2 8862   4.269   2.070   4.598  0.2339 -1.2754 -0.8063
 2204SOL    HW3 8863   4.188   2.042   4.473 -0.6407  1.1493 -0.8035
 2204SOL    MW4 8864   4.192   2.056   4.558 -0.0753 -0.1655 -0.6051
 2205SOL     OW 8865   0.779   2.921   4.277 -0.1119  0.0084 -0.3455
 2205SOL    HW2 8866   0.770   2.828   4.257  0.8781 -0.2524  0.3697
 2205SOL    HW3 8867   0.867   2.943   4.248 -0.0127  0.5061  0.3285
 2205SOL    MW4 8868   0.789   2.911   4.270  0.0318  0.0398 -0.1626
 2206SOL     OW 8869   0.899   3.450   4.219 -0.1461  0.0516 -0.4657
 2206SOL    HW2 8870   0.948   3.516   4.266 -0.6324  0.1313 -0.0659
 2206SOL    HW3 8871   0.926   3.367   4.258 -0.9065  0.1537  0.2807
 2206SOL    MW4 8872   0.909   3.447   4.230 -0.3106  0.0756 -0.3152
 2207SOL     OW 8873   4.009   1.781   4.587  0.1131  0.0685 -0.6143
 2207SOL    HW2 8874   3.932   1.812   4.635  0.1884  0.1555 -0.5504
 2207SOL    HW3 8875   4.070   1.854   4.590  0.4689 -0.2427 -0.0721
 2207SOL    MW4 8876   4.007   1.794   4.594  0.1702  0.0387 -0.5345
 2208SOL     OW 8877   1.352   3.443   3.960 -0.2189 -1.2308 -0.4243
 2208SOL    HW2 8878   1.270   3.475   3.923 -0.3700 -1.7723 -0.5578
 2208SOL    HW3 8879   1.370   3.362   3.913  0.6955 -0.8224 -0.8153
 2208SOL    MW4 8880   1.344   3.437   3.949 -0.1181 -1.2484 -0.4935
 2209SOL     OW 8881   2.861   3.923   4.599  0.0670 -0.0797 -0.1019
 2209SOL    HW2 8882   2.940   3.977   4.605  0.2351  0.0463 -2.7574
 2209SOL    HW3 8883   2.891   3.834   4.621  0.8232  0.0765 -0.5003
 2209SOL    MW4 8884   2.876   3.918   4.603  0.1888 -0.0427 -0.5054
 2210SOL     OW 8885   0.804   3.802   4.341  0.1432 -0.1696  0.1039
 2210SOL    HW2 8886   0.879   3.744   4.351 -0.0512 -0.5066 -0.3546
 2210SOL    HW3 8887   0.733   3.745   4.312  0.3985  0.5556 -2.0447
 2210SOL    MW4 8888   0.804   3.787   4.338  0.1513 -0.1183 -0.2403
 2211SOL     OW 8889   1.573   3.887   3.931 -0.0155 -0.8286  0.1621
 2211SOL    HW2 8890   1.563   3.794   3.912  1.6634 -1.2067  1.0123
 2211SOL    HW3 8891   1.585   3.891   4.026 -0.3904  0.2812  0.1691
 2211SOL    MW4 8892   1.574   3.876   3.941  0.1566 -0.7322  0.2754
 2212SOL     OW 8893   0.926   4.279   3.867 -0.2526  0.0443 -0.0062
 2212SOL    HW2 8894   0.993   4.312   3.807 -2.1600  0.8493 -1.7481
 2212SOL    HW3 8895   0.926   4.184   3.853  1.1565 -0.0638  0.6877
 2212SOL    MW4 8896   0.935   4.270   3.857 -0.3183  0.1364 -0.1445
 2213SOL     OW 8897   0.945   0.143   3.846  0.3783  0.5779  0.6479
 2213SOL    HW2 8898   0.946   0.225   3.896  0.9701 -0.5347  2.4835
 2213SOL    HW3 8899   0.861   0.102   3.869 -0.5377  1.2516 -1.3021
 2213SOL    MW4 8900   0.934   0.148   3.855  0.3356  0.5200  0.6328
 2214SOL     OW 8901   0.680   4.350   3.826  0.4978  0.6985  0.7755
 2214SOL    HW2 8902   0.678   4.371   3.733 -1.3547 -2.0954  0.1153
 2214SOL    HW3 8903   0.766   4.312   3.841  0.4004  0.1507 -0.0389
 2214SOL    MW4 8904   0.691   4.348   3.816  0.2406  0.2570  0.5810
 2215SOL     OW 8905   1.183   3.848   3.900  0.0471 -0.0694 -0.5126
 2215SOL    HW2 8906   1.244   3.922   3.897  1.1380 -0.9565 -0.6417
 2215SOL    HW3 8907   1.105   3.880   3.855  0.2671  1.2100 -0.0325
 2215SOL    MW4 8908   1.181   3.862   3.894  0.2201 -0.0174 -0.4663
 2216SOL     OW 8909   1.390   0.381   3.909  0.2710  0.9777 -0.0370
 2216SOL    HW2 8910   1.388   0.292   3.874 -0.6426  0.6330  0.8522
 2216SOL    HW3 8911   1.440   0.431   3.845 -0.9022  0.2448 -1.5591
 2216SOL    MW4 8912   1.396   0.376   3.896 -0.0043  0.8355 -0.1206
 2217SOL     OW 8913   0.937   0.375   3.985  0.0302  0.1462 -0.4176
 2217SOL    HW2 8914   0.852   0.390   3.942  0.4473  2.2829 -0.5861
 2217SOL    HW3 8915   0.916   0.373   4.078 -0.3513 -0.4927 -0.5116
 2217SOL    MW4 8916   0.923   0.377   3.992  0.0349  0.3438 -0.4523
 2218SOL     OW 8917   0.931   0.859   3.834 -0.1226  0.1888 -0.2765
 2218SOL    HW2 8918   0.902   0.847   3.743  1.6022 -0.5767 -0.7380
 2218SOL    HW3 8919   0.935   0.954   3.846 -0.8888  0.2965 -0.8126
 2218SOL    MW4 8920   0.928   0.870   3.824  0.0039  0.1020 -0.4082
 2219SOL     OW 8921   0.237   3.671   4.316  0.8983 -0.4303  0.1510
 2219SOL    HW2 8922   0.253   3.683   4.410  2.2800  1.9199 -0.3427
 2219SOL    HW3 8923   0.145   3.645   4.310  1.2325 -2.2011  2.2487
 2219SOL    MW4 8924   0.226   3.669   4.328  1.1247 -0.3538  0.3629
 2220SOL     OW 8925   2.224   1.179   4.096 -0.2205 -0.2422 -0.9282
 2220SOL    HW2 8926   2.319   1.185   4.095 -0.2498  0.6223  0.4518
 2220SOL    HW3 8927   2.195   1.235   4.024  0.2888 -0.0462 -0.9778
 2220SOL    MW4 8928   2.232   1.187   4.086 -0.1571 -0.1023 -0.7529
 2221SOL     OW 8929   1.142   1.323   3.813 -0.3959 -0.5503 -0.2108
 2221SOL    HW2 8930   1.084   1.262   3.859  0.4799  0.1242  1.8131
 2221SOL    HW3 8931   1.151   1.397   3.872  1.1176  0.1442 -1.2818
 2221SOL    MW4 8932   1.135   1.325   3.827 -0.0807 -0.3698 -0.0849
 2222SOL     OW 8933   0.935   1.661   3.847 -0.3563 -0.1298 -0.2934
 2222SOL    HW2 8934   0.938   1.751   3.881  1.2138 -0.1185 -0.4001
 2222SOL    HW3 8935   0.891   1.669   3.762  1.3254  0.8385 -1.1100
 2222SOL    MW4 8936   0.930   1.674   3.840  0.0728 -0.0006 -0.4151
 2223SOL     OW 8937   1.498   2.523   4.318 -0.1394  0.2158 -0.4577
 2223SOL    HW2 8938   1.525   2.561   4.401  0.0629 -0.6712 -0.1142
 2223SOL    HW3 8939   1.414   2.566   4.298 -0.3447  0.2018  0.3493
 2223SOL    MW4 8940   1.490   2.534   4.326 -0.1398  0.0968 -0.3061
 2224SOL     OW 8941   1.120   2.045   3.874 -0.3567  0.5684  0.5260
 2224SOL    HW2 8942   1.197   1.994   3.900 -0.5002  0.4188  0.6624
 2224SOL    HW3 8943   1.133   2.064   3.781 -0.3825  0.1392  0.4329
 2224SOL    MW4 8944   1.132   2.041   3.865 -0.3790  0.4919  0.5319
 2225SOL     OW 8945   1.607   2.344   3.943 -0.3901  0.0015 -0.1326
 2225SOL    HW2 8946   1.599   2.262   3.893  0.6293 -0.2326  0.0604
 2225SOL    HW3 8947   1.675   2.393   3.896 -0.3376  0.3337  0.2933
 2225SOL    MW4 8948   1.615   2.339   3.930 -0.2487  0.0143 -0.0510
 2226SOL     OW 8949   1.357   2.438   3.861  0.3668  0.3634 -0.4175
 2226SOL    HW2 8950   1.445   2.408   3.884  0.3684  0.0564 -0.8196
 2226SOL    HW3 8951   1.362   2.459   3.767 -0.4141 -1.2196 -0.8309
 2226SOL    MW4 8952   1.369   2.437   3.851  0.2639  0.1140 -0.5250
 2227SOL     OW 8953   0.619   2.819   3.540  0.0211 -0.0180 -0.7419
 2227SOL    HW2 8954   0.693   2.766   3.512  0.1792  1.5886 -3.6804
 2227SOL    HW3 8955   0.546   2.788   3.485 -0.9856 -0.2089  0.6835
 2227SOL    MW4 8956   0.619   2.808   3.529 -0.0908  0.1686 -0.9415
 2228SOL     OW 8957   1.099   2.347   3.906 -0.3056  0.0492 -0.4157
 2228SOL    HW2 8958   1.188   2.380   3.905 -0.6448  1.0505  1.3802
 2228SOL    HW3 8959   1.108   2.252   3.906  0.7193  0.1353 -1.6620
 2228SOL    MW4 8960   1.112   2.339   3.906 -0.2151  0.1929 -0.3428
 2229SOL     OW 8961   1.068   2.829   3.843  0.1653  0.1430  0.3884
 2229SOL    HW2 8962   1.044   2.811   3.753  1.5214  0.6541 -0.0912
 2229SOL    HW3 8963   1.154   2.788   3.854  1.3140  2.4989  0.5689
 2229SOL    MW4 8964   1.077   2.821   3.833  0.4958  0.5214  0.3488
 2230SOL     OW 8965   0.434   2.639   4.184  0.0818  0.0556 -0.5490
 2230SOL    HW2 8966   0.528   2.654   4.175  0.4852  0.1898  3.2164
 2230SOL    HW3 8967   0.402   2.715   4.232 -1.3250 -1.6042  1.2263
 2230SOL    MW4 8968   0.442   2.651   4.189 -0.0506 -0.1454  0.1822
 2231SOL     OW 8969   1.263   2.841   4.152 -0.1948 -0.1622 -0.2406
 2231SOL    HW2 8970   1.178   2.886   4.151  0.0291  0.2953  0.6187
 2231SOL    HW3 8971   1.274   2.809   4.063 -1.3842 -0.4331 -0.3073
 2231SOL    MW4 8972   1.253   2.842   4.140 -0.3222 -0.1376 -0.1364
 2232SOL     OW 8973   3.811   3.916   4.155 -0.1576  0.0717  0.1307
 2232SOL    HW2 8974   3.837   3.993   4.207  1.2044  0.2223 -0.7505
 2232SOL    HW3 8975   3.872   3.847   4.182 -0.4958 -0.3072 -0.0785
 2232SOL    MW4 8976   3.823   3.917   4.166 -0.0226  0.0415 -0.0129
 2233SOL     OW 8977   0.872   0.354   4.262 -0.1265 -0.1165  0.0111
 2233SOL    HW2 8978   0.822   0.272   4.261 -0.4516  0.0762  0.4367
 2233SOL    HW3 8979   0.959   0.329   4.291 -0.2976 -0.2699  0.3894
 2233SOL    MW4 8980   0.877   0.340   4.266 -0.1920 -0.1113  0.1173
 2234SOL     OW 8981   1.134   3.634   3.537  0.0010  0.0142 -0.0934
 2234SOL    HW2 8982   1.069   3.566   3.519  0.7026 -0.4081 -1.0988
 2234SOL    HW3 8983   1.142   3.635   3.632 -0.4604 -0.8860 -0.0354
 2234SOL    MW4 8984   1.126   3.625   3.547  0.0328 -0.1602 -0.2182
 2235SOL     OW 8985   0.469   3.975   3.800  0.2242 -0.0695 -0.4743
 2235SOL    HW2 8986   0.462   4.000   3.708  0.7145 -0.5835 -0.6572
 2235SOL    HW3 8987   0.465   4.058   3.848  0.2568  0.2259 -0.9741
 2235SOL    MW4 8988   0.468   3.989   3.794  0.2932 -0.0980 -0.5646
 2236SOL     OW 8989   1.156   4.425   3.766 -0.4131  0.3002  0.0272
 2236SOL    HW2 8990   1.187   4.456   3.681  1.1369  0.8953  0.7769
 2236SOL    HW3 8991   1.234   4.385   3.806 -0.9344  0.7269  1.4716
 2236SOL    MW4 8992   1.171   4.424   3.760 -0.2773  0.4354  0.3164
 2237SOL     OW 8993   3.431   4.200   4.331  0.2009 -0.7740  0.1130
 2237SOL    HW2 8994   3.465   4.168   4.414  0.1732  2.4084  1.4070
 2237SOL    HW3 8995   3.505   4.244   4.290 -0.7997  1.1220  0.3005
 2237SOL    MW4 8996   3.445   4.201   4.337  0.0653 -0.1040  0.3080
 2238SOL     OW 8997   1.611   4.439   3.766 -0.1545 -0.0022  0.3165
 2238SOL    HW2 8998   1.682   4.384   3.799 -0.4152 -0.6082 -0.1388
 2238SOL    HW3 8999   1.624   4.440   3.671 -1.0095 -0.4620  0.1913
 2238SOL    MW4 9000   1.622   4.432   3.758 -0.3018 -0.1431  0.2401
 2239SOL     OW 9001   0.005   1.552   4.517 -0.1674  0.3288 -0.4795
 2239SOL    HW2 9002  -0.058   1.492   4.556  1.3648  0.0594  1.6910
 2239SOL    HW3 9003   0.063   1.497   4.464 -0.4326  0.2661 -0.7004
 2239SOL    MW4 9004   0.005   1.537   4.515 -0.0003  0.2849 -0.2217
 2240SOL     OW 9005   1.622   0.538   3.743  0.6778 -0.3851  0.1970
 2240SOL    HW2 9006   1.711   0.512   3.766  0.3392 -0.6141  1.2977
 2240SOL    HW3 9007   1.614   0.626   3.778 -0.1229 -1.0533  1.7624
 2240SOL    MW4 9008   1.633   0.546   3.751  0.5274 -0.5035  0.5486
 2241SOL     OW 9009   1.389   0.918   3.806 -0.2150  0.4883 -0.2444
 2241SOL    HW2 9010   1.467   0.864   3.816 -0.1174  0.7125  0.2254
 2241SOL    HW3 9011   1.322   0.874   3.857 -0.2363  0.6053 -0.1701
 2241SOL    MW4 9012   1.391   0.905   3.814 -0.2050  0.5333 -0.1726
 2242SOL     OW 9013   1.462   3.033   5.102  0.2033 -0.3480  0.4898
 2242SOL    HW2 9014   1.436   2.960   5.046 -0.0665  0.6011 -0.6292
 2242SOL    HW3 9015   1.470   2.994   5.189  1.2846 -1.9634 -0.3154
 2242SOL    MW4 9016   1.459   3.018   5.106  0.3104 -0.4358  0.2351
 2243SOL     OW 9017   1.176   1.575   3.972  0.1489 -0.3234  0.2460
 2243SOL    HW2 9018   1.090   1.601   3.940  0.3547 -0.1855 -0.2038
 2243SOL    HW3 9019   1.169   1.581   4.067 -0.1541  0.2757  0.1908
 2243SOL    MW4 9020   1.164   1.579   3.980  0.1360 -0.2261  0.1793
 2244SOL     OW 9021   1.636   1.611   4.156 -0.0692  0.2543 -0.9440
 2244SOL    HW2 9022   1.690   1.532   4.159 -0.5157 -0.1169 -2.4199
 2244SOL    HW3 9023   1.549   1.582   4.181 -0.2220  0.2904 -1.4359
 2244SOL    MW4 9024   1.632   1.597   4.159 -0.1482  0.2100 -1.2035
 2245SOL     OW 9025   1.836   1.638   3.710 -0.1570  0.4074 -0.1866
 2245SOL    HW2 9026   1.754   1.616   3.753 -0.4577  0.1498 -0.8924
 2245SOL    HW3 9027   1.813   1.654   3.619  0.3843  1.5616 -0.1379
 2245SOL    MW4 9028   1.822   1.638   3.704 -0.1253  0.5257 -0.2735
 2246SOL     OW 9029   1.358   1.920   3.951  0.0544  0.0446  0.0424
 2246SOL    HW2 9030   1.338   1.914   4.044  1.5993 -0.7429  0.3394
 2246SOL    HW3 9031   1.360   1.830   3.920 -0.0361  0.2775 -0.6694
 2246SOL    MW4 9032   1.356   1.908   3.959  0.2464 -0.0286 -0.0122
 2247SOL     OW 9033   1.790   1.073   4.530 -0.1071  0.1023 -0.2034
 2247SOL    HW2 9034   1.702   1.045   4.554  0.2151 -1.6332 -1.0074
 2247SOL    HW3 9035   1.810   1.027   4.449  1.4949  0.5763 -0.1111
 2247SOL    MW4 9036   1.781   1.063   4.523  0.1467 -0.0643 -0.2971
 2248SOL     OW 9037   1.649   1.339   4.251 -0.4319  0.1775  0.4708
 2248SOL    HW2 9038   1.675   1.349   4.343  0.5407 -0.7160  0.3019
 2248SOL    HW3 9039   1.717   1.284   4.213 -0.6630  0.8174 -0.8732
 2248SOL    MW4 9040   1.661   1.333   4.258 -0.3340  0.1440  0.2708
 2249SOL     OW 9041   0.680   2.061   3.902  0.3025  0.2596 -0.1049
 2249SOL    HW2 9042   0.675   2.152   3.930 -1.2789  0.5572 -1.2768
 2249SOL    HW3 9043   0.659   2.063   3.808  0.3685 -1.2876 -0.1771
 2249SOL    MW4 9044   0.677   2.073   3.893  0.1025  0.0944 -0.2687
 2250SOL     OW 9045   1.676   0.619   4.665  0.0397  0.3911  0.2436
 2250SOL    HW2 9046   1.603   0.679   4.674  1.3320  2.4049 -2.1738
 2250SOL    HW3 9047   1.743   0.653   4.725  0.0341  0.1852  0.3680
 2250SOL    MW4 9048   1.675   0.631   4.674  0.2095  0.6296 -0.0591
 2251SOL     OW 9049   2.003   2.874   4.509 -0.0369 -0.0776 -0.0026
 2251SOL    HW2 9050   2.066   2.945   4.522 -0.1922 -0.1793  1.2884
 2251SOL    HW3 9051   1.927   2.898   4.561  0.0180 -1.3332  0.6753
 2251SOL    MW4 9052   2.001   2.886   4.517 -0.0503 -0.2565  0.2570
 2252SOL     OW 9053   0.950   3.268   4.793 -0.6964 -0.1468  0.2457
 2252SOL    HW2 9054   1.039   3.233   4.785 -0.1840  1.3764 -0.9708
 2252SOL    HW3 9055   0.933   3.273   4.887  1.4340  1.8668  0.5437
 2252SOL    MW4 9056   0.959   3.264   4.804 -0.3477  0.3197  0.1245
 2253SOL     OW 9057   1.422   2.856   4.859 -0.0567  0.3823  0.3332
 2253SOL    HW2 9058   1.503   2.807   4.845 -1.1034 -1.0670 -0.8251
 2253SOL    HW3 9059   1.434   2.937   4.809  0.1310 -0.4451 -0.9717
 2253SOL    MW4 9060   1.434   2.860   4.850 -0.1700  0.0820  0.0076
 2254SOL     OW 9061   2.315   3.987   4.508 -0.6361 -0.1644  0.8035
 2254SOL    HW2 9062   2.323   4.077   4.478  2.3403 -0.4790  0.5087
 2254SOL    HW3 9063   2.389   3.975   4.567 -1.0254 -2.4058  0.8769
 2254SOL    MW4 9064   2.326   3.997   4.512 -0.2944 -0.5016  0.7744
 2255SOL     OW 9065   3.683   0.679   4.653  0.5803 -0.1874  0.3428
 2255SOL    HW2 9066   3.778   0.675   4.660  0.7689  0.7891 -1.2037
 2255SOL    HW3 9067   3.652   0.596   4.688  2.0374 -0.7477  0.3293
 2255SOL    MW4 9068   3.692   0.668   4.658  0.7973 -0.1326  0.1369
 2256SOL     OW 9069   1.910   3.158   4.842 -0.5253 -0.3485 -0.5395
 2256SOL    HW2 9070   1.998   3.177   4.809 -0.3581  0.6113  0.4199
 2256SOL    HW3 9071   1.904   3.063   4.842  0.4079 -0.4112 -0.8977
 2256SOL    MW4 9072   1.921   3.148   4.838 -0.3802 -0.2301 -0.4606
 2257SOL     OW 9073   0.722   2.708   4.715 -0.4481  0.2535  0.0205
 2257SOL    HW2 9074   0.690   2.669   4.796  0.8923  2.3787  1.6224
 2257SOL    HW3 9075   0.645   2.712   4.658 -1.2085 -2.0833  0.8359
 2257SOL    MW4 9076   0.708   2.703   4.718 -0.3716  0.2255  0.3395
 2258SOL     OW 9077   1.115   3.887   3.463  0.1837  0.2406  0.1187
 2258SOL    HW2 9078   1.196   3.923   3.500  0.3181 -0.4873  0.5490
 2258SOL    HW3 9079   1.117   3.795   3.488  0.2481 -0.2498 -1.6774
 2258SOL    MW4 9080   1.126   3.880   3.471  0.2098  0.0796 -0.0615
 2259SOL     OW 9081   2.410   0.329   4.204 -0.2362  0.2273  0.0093
 2259SOL    HW2 9082   2.405   0.235   4.220 -1.2187  0.5717  1.8226
 2259SOL    HW3 9083   2.501   0.345   4.180  0.2228 -1.0034  0.9016
 2259SOL    MW4 9084   2.421   0.319   4.203 -0.3054  0.1103  0.3662
 2260SOL     OW 9085   1.240   3.832   4.178 -0.8527  0.2591  0.0169
 2260SOL    HW2 9086   1.227   3.830   4.083  0.7466 -0.6400 -0.1990
 2260SOL    HW3 9087   1.234   3.925   4.201  0.8070  0.7122 -1.2874
 2260SOL    MW4 9088   1.237   3.844   4.168 -0.4226  0.2003 -0.1836
 2261SOL     OW 9089   2.010   3.912   3.873  0.1722 -0.4135 -0.0617
 2261SOL    HW2 9090   1.985   3.832   3.828 -2.0580  0.5700 -0.6195
 2261SOL    HW3 9091   1.931   3.966   3.873  1.5738  1.7103  0.4743
 2261SOL    MW4 9092   1.996   3.909   3.867  0.0628 -0.0033 -0.0644
 2262SOL     OW 9093   1.823   0.121   3.781 -0.3991 -0.1510 -0.1794
 2262SOL    HW2 9094   1.829   0.215   3.797  1.0174 -0.4975  1.5421
 2262SOL    HW3 9095   1.746   0.093   3.830  0.1266 -0.1334  0.6712
 2262SOL    MW4 9096   1.814   0.130   3.790 -0.1428 -0.1944  0.1602
 2263SOL     OW 9097   1.884   0.419   3.778  0.4040 -0.2107 -0.3778
 2263SOL    HW2 9098   1.935   0.433   3.698  2.1965 -1.0502  0.5782
 2263SOL    HW3 9099   1.949   0.420   3.848 -0.9653 -0.8818  0.9313
 2263SOL    MW4 9100   1.900   0.421   3.777  0.4599 -0.4100 -0.0787
 2264SOL     OW 9101   1.786   0.695   4.418  0.0827  0.0564  0.1728
 2264SOL    HW2 9102   1.754   0.680   4.507 -1.3136  2.2190  0.0811
 2264SOL    HW3 9103   1.802   0.789   4.415  0.6728 -0.1001 -1.6920
 2264SOL    MW4 9104   1.784   0.705   4.430 -0.0238  0.3211 -0.0854
 2265SOL     OW 9105   1.764   1.477   4.754  0.0431  0.1671  0.1244
 2265SOL    HW2 9106   1.691   1.538   4.747  1.4772  1.8872 -0.5200
 2265SOL    HW3 9107   1.770   1.437   4.667  0.6468  0.9802 -0.2163
 2265SOL    MW4 9108   1.755   1.480   4.742  0.3121  0.5014 -0.0057
 2266SOL     OW 9109   1.874   1.197   4.140  0.1646  0.5992  0.1146
 2266SOL    HW2 9110   1.897   1.255   4.068 -2.2725  0.8365 -0.5344
 2266SOL    HW3 9111   1.958   1.170   4.177  1.4187  1.7717 -1.7627
 2266SOL    MW4 9112   1.888   1.201   4.135  0.0086  0.7852 -0.2193
 2267SOL     OW 9113   1.729   0.943   4.271  0.5337 -0.2172  0.2695
 2267SOL    HW2 9114   1.635   0.944   4.291  0.3286  0.5054 -0.6866
 2267SOL    HW3 9115   1.741   1.017   4.211  1.8255  0.0615  0.8629
 2267SOL    MW4 9116   1.718   0.953   4.266  0.6771 -0.0851  0.2213
 2268SOL     OW 9117   1.919   1.424   3.978 -0.3168  0.7482  0.2661
 2268SOL    HW2 9118   1.910   1.456   3.888  0.0867  1.3886  0.4570
 2268SOL    HW3 9119   1.971   1.490   4.023 -0.5750  0.4611  0.9961
 2268SOL    MW4 9120   1.925   1.437   3.972 -0.2977  0.7948  0.3877
 2269SOL     OW 9121   2.764   1.357   4.277 -0.1313 -0.5763 -0.4895
 2269SOL    HW2 9122   2.806   1.281   4.318  0.4239 -0.4324 -0.7951
 2269SOL    HW3 9123   2.674   1.354   4.310  0.2565 -0.5592  0.6127
 2269SOL    MW4 9124   2.758   1.347   4.287 -0.0069 -0.5550 -0.3848
 2270SOL     OW 9125   1.361   1.683   3.822  0.3451  0.0538  0.1256
 2270SOL    HW2 9126   1.301   1.650   3.889 -0.1082 -0.0669 -0.3421
 2270SOL    HW3 9127   1.442   1.633   3.836 -0.4525 -1.5240 -0.8130
 2270SOL    MW4 9128   1.364   1.672   3.833  0.1801 -0.1704 -0.0598
 2271SOL     OW 9129   1.610   1.566   3.863  0.0082  0.0635  1.0340
 2271SOL    HW2 9130   1.620   1.474   3.838  2.5477  0.6958 -0.4775
 2271SOL    HW3 9131   1.624   1.566   3.957 -2.3674 -1.3756  1.4484
 2271SOL    MW4 9132   1.613   1.554   3.872  0.0299 -0.0429  0.8893
 2272SOL     OW 9133   1.972   2.011   3.812  0.5119  0.1356  0.0207
 2272SOL    HW2 9134   1.883   1.984   3.832  0.9219 -1.5872 -0.4161
 2272SOL    HW3 9135   1.975   2.017   3.717  0.3698  1.9821  0.1103
 2272SOL    MW4 9136   1.961   2.008   3.802  0.5472  0.1519 -0.0250
 2273SOL     OW 9137   2.940   0.762   3.843 -0.0656  0.0270  0.0404
 2273SOL    HW2 9138   3.026   0.777   3.804  0.7864 -1.6099  1.1947
 2273SOL    HW3 9139   2.952   0.782   3.936 -0.3495 -2.1384  0.5861
 2273SOL    MW4 9140   2.953   0.766   3.850  0.0093 -0.4747  0.2644
 2274SOL     OW 9141   2.117   0.889   4.414  0.5018 -0.0498  0.2170
 2274SOL    HW2 9142   2.108   0.984   4.406 -1.5604 -0.1377  1.1044
 2274SOL    HW3 9143   2.149   0.861   4.329 -0.9769  1.2234 -0.8039
 2274SOL    MW4 9144   2.120   0.898   4.402  0.0346  0.1067  0.1988
 2275SOL     OW 9145   1.470   3.046   4.169 -0.5338 -0.0224 -0.3397
 2275SOL    HW2 9146   1.548   2.998   4.197  0.6012  0.6791 -2.1746
 2275SOL    HW3 9147   1.397   2.988   4.190  0.5641 -1.2332  0.2377
 2275SOL    MW4 9148   1.471   3.032   4.176 -0.2391 -0.0896 -0.5059
 2276SOL     OW 9149   1.572   3.081   3.918 -0.4195  0.1485  0.1423
 2276SOL    HW2 9150   1.582   2.998   3.872  0.2542 -0.8642  2.0222
 2276SOL    HW3 9151   1.525   3.058   3.998  1.5273  1.1966  1.6429
 2276SOL    MW4 9152   1.567   3.067   3.923 -0.0738  0.1531  0.5882
 2277SOL     OW 9153   2.448   3.735   3.780  0.5893 -0.3137  0.3674
 2277SOL    HW2 9154   2.366   3.692   3.803  1.5355 -2.4270 -0.0031
 2277SOL    HW3 9155   2.467   3.702   3.692  2.0463 -0.2123  0.6335
 2277SOL    MW4 9156   2.440   3.725   3.771  0.9065 -0.5791  0.3533
 2278SOL     OW 9157   2.796   1.894   4.210 -0.2528  0.2560  0.2336
 2278SOL    HW2 9158   2.741   1.969   4.232 -0.4344 -0.3208  1.7756
 2278SOL    HW3 9159   2.881   1.932   4.188 -0.7258  1.0106 -0.2936
 2278SOL    MW4 9160   2.800   1.909   4.210 -0.3390  0.2795  0.3672
 2279SOL     OW 9161   4.200   2.949   4.463  0.0332 -0.2895 -0.9370
 2279SOL    HW2 9162   4.288   2.975   4.492  0.1453 -2.1683  0.4773
 2279SOL    HW3 9163   4.192   2.988   4.376  1.1002  2.4604  0.1015
 2279SOL    MW4 9164   4.211   2.958   4.455  0.1888 -0.1748 -0.6137
 2280SOL     OW 9165   2.014   3.645   3.757  0.4463  0.4481  0.1545
 2280SOL    HW2 9166   1.988   3.668   3.668  1.2149  0.1795 -0.1462
 2280SOL    HW3 9167   1.939   3.598   3.793 -0.4750  1.9405  0.2010
 2280SOL    MW4 9168   2.001   3.642   3.750  0.4261  0.6096  0.1211
 2281SOL     OW 9169   1.792   4.553   4.559  0.4601 -0.3629 -0.0547
 2281SOL    HW2 9170   1.699   4.540   4.576  0.4516  0.6027  0.6705
 2281SOL    HW3 9171   1.808   4.644   4.584  1.6243 -0.5636 -0.0611
 2281SOL    MW4 9172   1.782   4.563   4.564  0.6127 -0.2618  0.0396
 2282SOL     OW 9173   1.759   4.046   3.790  0.3295  0.3287 -0.0352
 2282SOL    HW2 9174   1.777   4.132   3.828 -0.3752  0.0835  0.8732
 2282SOL    HW3 9175   1.729   3.993   3.863  0.3535 -0.5779 -0.6705
 2282SOL    MW4 9176   1.757   4.051   3.805  0.2397  0.1764  0.0007
 2283SOL     OW 9177   2.465   0.332   4.563  0.6100 -0.7652 -0.3650
 2283SOL    HW2 9178   2.460   0.314   4.469 -0.8400  1.7318 -0.8033
 2283SOL    HW3 9179   2.399   0.275   4.602  0.7286 -1.2991 -0.9330
 2283SOL    MW4 9180   2.456   0.322   4.556  0.4344 -0.5062 -0.4983
 2284SOL     OW 9181   2.242   4.313   3.905  0.1684 -0.2563  0.2094
 2284SOL    HW2 9182   2.230   4.235   3.851  0.7318  0.0202 -0.3242
 2284SOL    HW3 9183   2.176   4.375   3.873 -0.6011 -0.6765  0.9563
 2284SOL    MW4 9184   2.232   4.311   3.894  0.1414 -0.2747  0.2375
 2285SOL     OW 9185   2.481   4.664   3.956  0.2656  0.0086 -0.2458
 2285SOL    HW2 9186   2.415   4.707   3.902 -0.6476 -1.0199  0.0241
 2285SOL    HW3 9187   2.563   4.707   3.934 -0.6335  1.9201  0.0738
 2285SOL    MW4 9188   2.483   4.675   3.946  0.0265  0.1249 -0.1681
 2286SOL     OW 9189   2.287   0.127   3.809 -0.0501 -0.1661 -0.0153
 2286SOL    HW2 9190   2.267   0.218   3.834  1.1169  0.2824 -0.7076
 2286SOL    HW3 9191   2.294   0.130   3.714 -0.8308 -1.1600 -0.1118
 2286SOL    MW4 9192   2.285   0.139   3.800  0.0007 -0.2381 -0.1192
 2287SOL     OW 9193   1.870   0.911   3.783  0.2960  0.2933 -0.2908
 2287SOL    HW2 9194   1.922   0.831   3.790 -1.3472 -0.9027 -1.4067
 2287SOL    HW3 9195   1.839   0.912   3.693  0.6014  2.4158 -0.4017
 2287SOL    MW4 9196   1.873   0.900   3.772  0.1194  0.4156 -0.4528
 2288SOL     OW 9197   2.566   0.564   3.813 -0.1694 -0.2796  0.8422
 2288SOL    HW2 9198   2.602   0.653   3.815 -0.8448  0.0384 -0.7790
 2288SOL    HW3 9199   2.484   0.570   3.862 -0.8211  0.2817 -0.2933
 2288SOL    MW4 9200   2.560   0.577   3.820 -0.3445 -0.1636  0.4785
 2289SOL     OW 9201   2.005   0.677   3.830 -0.3861 -0.1581  0.2080
 2289SOL    HW2 9202   2.002   0.682   3.926 -0.0370 -0.0667  0.2139
 2289SOL    HW3 9203   1.968   0.592   3.809  0.5741 -0.6510  0.4818
 2289SOL    MW4 9204   2.000   0.667   3.840 -0.2134 -0.2111  0.2449
 2290SOL     OW 9205   2.241   0.772   3.783 -0.2445  0.1685  0.0692
 2290SOL    HW2 9206   2.151   0.744   3.801  0.0679  0.0473  1.4870
 2290SOL    HW3 9207   2.242   0.787   3.689 -1.1528 -1.9924 -0.3130
 2290SOL    MW4 9208   2.229   0.770   3.773 -0.3231 -0.1326  0.2060
 2291SOL     OW 9209   2.160   1.332   3.840 -0.7170  0.0124  0.0870
 2291SOL    HW2 9210   2.252   1.306   3.827 -0.2378  0.4404  2.3957
 2291SOL    HW3 9211   2.160   1.427   3.827 -0.5421  0.2158  1.5313
 2291SOL    MW4 9212   2.173   1.341   3.836 -0.6309  0.0956  0.5822
 2292SOL     OW 9213   1.003   0.949   4.280 -0.0965 -0.6122  0.1113
 2292SOL    HW2 9214   1.016   0.958   4.375 -0.2628  1.2539 -0.0241
 2292SOL    HW3 9215   1.082   0.903   4.250  0.7818  0.3454  0.9099
 2292SOL    MW4 9216   1.015   0.944   4.289 -0.0025 -0.2396  0.1988
 2293SOL     OW 9217   1.729   1.892   3.842  0.1638 -0.0990 -0.3156
 2293SOL    HW2 9218   1.767   1.815   3.799 -0.4198  0.3860 -1.7227
 2293SOL    HW3 9219   1.715   1.864   3.932 -1.9363 -2.3404 -1.2619
 2293SOL    MW4 9220   1.732   1.878   3.848 -0.1903 -0.3309 -0.6258
 2294SOL     OW 9221   1.907   1.019   4.768 -0.1600 -0.0456 -0.0402
 2294SOL    HW2 9222   1.876   1.032   4.678 -0.6008 -1.5612 -0.1111
 2294SOL    HW3 9223   2.002   1.028   4.762 -0.2460  0.6074 -0.5205
 2294SOL    MW4 9224   1.915   1.022   4.755 -0.2295 -0.1595 -0.1130
 2295SOL     OW 9225   2.192   1.863   3.921  0.2250  0.4379 -0.0505
 2295SOL    HW2 9226   2.115   1.904   3.882 -0.5241 -1.2616 -0.4108
 2295SOL    HW3 9227   2.202   1.907   4.005 -1.3003  0.5249  0.1041
 2295SOL    MW4 9228   2.183   1.874   3.927 -0.0751  0.2251 -0.0777
 2296SOL     OW 9229   2.876   2.051   3.818  0.1392 -0.1972 -0.0906
 2296SOL    HW2 9230   2.893   2.132   3.866 -1.2769 -1.6205  2.9639
 2296SOL    HW3 9231   2.950   1.995   3.840 -0.8393 -1.0844  1.0506
 2296SOL    MW4 9232   2.888   2.054   3.827 -0.1767 -0.5021  0.4628
 2297SOL     OW 9233   1.806   2.704   3.889 -0.2131 -0.3869 -0.3958
 2297SOL    HW2 9234   1.810   2.613   3.861  3.3317 -0.1326 -1.0363
 2297SOL    HW3 9235   1.776   2.700   3.980 -0.2757 -2.1757 -0.4731
 2297SOL    MW4 9236   1.803   2.691   3.897  0.2463 -0.5894 -0.4904
 2298SOL     OW 9237   1.643   2.309   4.213 -1.2054  0.0022 -0.6386
 2298SOL    HW2 9238   1.586   2.366   4.264  0.2485  1.4692 -0.6284
 2298SOL    HW3 9239   1.618   2.323   4.122 -0.8909  0.6146 -0.6309
 2298SOL    MW4 9240   1.632   2.318   4.208 -0.9722  0.2768 -0.6361
 2299SOL     OW 9241   1.765   2.442   3.527  0.1640 -0.2504 -0.0009
 2299SOL    HW2 9242   1.693   2.397   3.482  0.7699  0.0955 -1.3610
 2299SOL    HW3 9243   1.844   2.402   3.491  0.7044  1.5955 -0.9366
 2299SOL    MW4 9244   1.766   2.431   3.516  0.3153  0.0389 -0.3040
 2300SOL     OW 9245   3.378   0.925   4.393 -0.1680  0.2061  0.3777
 2300SOL    HW2 9246   3.382   0.853   4.330  1.4694 -0.4931  1.2447
 2300SOL    HW3 9247   3.343   0.999   4.343  2.4415  0.0723 -1.7793
 2300SOL    MW4 9248   3.374   0.925   4.378  0.3922  0.0962  0.2074
 2301SOL     OW 9249   2.753   3.221   4.280  0.1338 -0.2285  0.1687
 2301SOL    HW2 9250   2.758   3.138   4.328 -0.2843  0.4360  1.3653
 2301SOL    HW3 9251   2.731   3.195   4.191 -1.6764 -1.3159  0.8947
 2301SOL    MW4 9252   2.751   3.206   4.275 -0.1602 -0.2844  0.4230
 2302SOL     OW 9253   2.487   3.384   4.764  0.1549  0.0210 -0.3217
 2302SOL    HW2 9254   2.535   3.317   4.716 -0.5861 -1.8108  1.4871
 2302SOL    HW3 9255   2.395   3.365   4.745 -0.1339 -0.5987  1.6601
 2302SOL    MW4 9256   2.481   3.373   4.755  0.0193 -0.3023  0.1783
 2303SOL     OW 9257   2.455   3.074   4.108 -0.2466 -0.0076  0.2453
 2303SOL    HW2 9258   2.375   3.064   4.057 -0.0963 -0.6175  0.1221
 2303SOL    HW3 9259   2.514   3.123   4.051 -0.3957  0.1094  0.1913
 2303SOL    MW4 9260   2.453   3.079   4.094 -0.2465 -0.0727  0.2222
 2304SOL     OW 9261   2.613   3.617   3.955  0.3898  0.1075 -0.0907
 2304SOL    HW2 9262   2.562   3.662   3.888 -0.5813 -0.0579  0.5139
 2304SOL    HW3 9263   2.702   3.613   3.920 -0.3066 -0.8432 -1.7966
 2304SOL    MW4 9264   2.618   3.622   3.941  0.1695 -0.0398 -0.2363
 2305SOL     OW 9265   1.386   4.320   3.882  0.1599 -0.3211  0.1140
 2305SOL    HW2 9266   1.462   4.357   3.838 -0.7445  0.3392 -0.9286
 2305SOL    HW3 9267   1.391   4.226   3.865 -0.3170 -0.0448 -1.6545
 2305SOL    MW4 9268   1.397   4.312   3.874 -0.0223 -0.1974 -0.2568
 2306SOL     OW 9269   0.864   3.523   4.697  0.4081 -0.1031  0.6036
 2306SOL    HW2 9270   0.873   3.431   4.723  0.0870  0.1445  1.6419
 2306SOL    HW3 9271   0.785   3.526   4.644  1.7715 -0.8467 -1.5045
 2306SOL    MW4 9272   0.855   3.512   4.694  0.5457 -0.1683  0.4616
 2307SOL     OW 9273   2.647   4.516   4.374  0.0143 -0.2778 -0.3093
 2307SOL    HW2 9274   2.572   4.514   4.315  1.4735  1.4854 -2.3014
 2307SOL    HW3 9275   2.615   4.560   4.453 -0.2911  3.3684 -2.3588
 2307SOL    MW4 9276   2.633   4.521   4.377  0.1669  0.4363 -0.8426
 2308SOL     OW 9277   2.460   4.414   3.809  0.5192  0.0555 -0.0735
 2308SOL    HW2 9278   2.382   4.373   3.847  0.0578 -0.4312 -1.4922
 2308SOL    HW3 9279   2.457   4.505   3.839 -1.1804  0.3097 -0.9726
 2308SOL    MW4 9280   2.449   4.421   3.818  0.2339  0.0253 -0.3793
 2309SOL     OW 9281   2.979   4.663   3.964 -0.0643  0.0273 -0.5978
 2309SOL    HW2 9282   2.981   4.570   3.941 -0.0691 -0.1330  0.0421
 2309SOL    HW3 9283   3.050   4.701   3.912  1.2385 -0.6856  0.6042
 2309SOL    MW4 9284   2.989   4.656   3.954  0.1068 -0.0879 -0.3548
 2310SOL     OW 9285   2.731   0.097   3.820 -0.1971  0.2549  0.1048
 2310SOL    HW2 9286   2.815   0.058   3.845 -0.6610 -0.0478  1.2171
 2310SOL    HW3 9287   2.729   0.090   3.724  0.0218 -1.8619  0.2294
 2310SOL    MW4 9288   2.742   0.091   3.810 -0.2294 -0.0643  0.2677
 2311SOL     OW 9289   2.511   1.590   4.576  0.2500  0.1411  0.4040
 2311SOL    HW2 9290   2.558   1.588   4.659 -1.3161 -0.0427  1.3158
 2311SOL    HW3 9291   2.572   1.630   4.515  0.5940  2.4807  2.1968
 2311SOL    MW4 9292   2.525   1.595   4.579  0.0885  0.4256  0.7610
 2312SOL     OW 9293   0.480   1.743   4.648 -0.3018 -0.0577 -0.2068
 2312SOL    HW2 9294   0.392   1.761   4.614 -0.7519  0.0915  1.0024
 2312SOL    HW3 9295   0.488   1.648   4.645 -0.5210 -0.0745 -0.2775
 2312SOL    MW4 9296   0.470   1.733   4.643 -0.3901 -0.0403 -0.0567
 2313SOL     OW 9297   3.201   0.863   3.808 -0.3723  0.4116 -0.3354
 2313SOL    HW2 9298   3.257   0.827   3.877  0.8985  1.9107 -0.5444
 2313SOL    HW3 9299   3.192   0.955   3.831 -2.1898  0.3325 -0.7088
 2313SOL    MW4 9300   3.207   0.870   3.820 -0.4444  0.5990 -0.4125
 2314SOL     OW 9301   2.323   0.564   3.970 -0.1506  0.1895  0.2096
 2314SOL    HW2 9302   2.305   0.621   3.895 -0.9772 -1.0601 -0.5478
 2314SOL    HW3 9303   2.352   0.624   4.039  0.4343  1.3658 -1.0420
 2314SOL    MW4 9304   2.324   0.580   3.969 -0.1824  0.1798 -0.0556
 2315SOL     OW 9305   3.063   4.121   4.333 -0.5503  0.2274  0.4632
 2315SOL    HW2 9306   3.116   4.187   4.287 -0.7214 -0.9966 -1.5674
 2315SOL    HW3 9307   2.981   4.166   4.351 -0.3165  0.8821 -0.0408
 2315SOL    MW4 9308   3.059   4.136   4.329 -0.5424  0.1526  0.1287
 2316SOL     OW 9309   2.887   1.278   3.806 -0.1227 -0.0240  0.0137
 2316SOL    HW2 9310   2.921   1.358   3.845 -0.6854  0.1716  0.0943
 2316SOL    HW3 9311   2.821   1.246   3.867 -0.0070 -0.4718 -0.0877
 2316SOL    MW4 9312   2.883   1.284   3.819 -0.1814 -0.0573  0.0110
 2317SOL     OW 9313   2.528   2.222   3.972  0.3116 -0.1054 -0.2546
 2317SOL    HW2 9314   2.449   2.257   4.014  1.6115  0.3817  1.8773
 2317SOL    HW3 9315   2.501   2.139   3.934 -1.5218  0.6500 -0.6551
 2317SOL    MW4 9316   2.514   2.216   3.972  0.2410  0.0587 -0.0265
 2318SOL     OW 9317   2.699   0.660   4.233  0.0285 -0.0015  0.2029
 2318SOL    HW2 9318   2.776   0.685   4.182 -0.9519 -0.2289 -1.4185
 2318SOL    HW3 9319   2.694   0.565   4.224 -0.9489  0.1004 -0.4573
 2318SOL    MW4 9320   2.708   0.651   4.225 -0.2296 -0.0180 -0.0982
 2319SOL     OW 9321   2.960   1.527   3.895 -0.2975  0.0331  0.2730
 2319SOL    HW2 9322   2.954   1.520   3.990  0.3390  1.2201  0.4059
 2319SOL    HW3 9323   2.873   1.554   3.868  0.0204  1.5449  0.7063
 2319SOL    MW4 9324   2.948   1.530   3.904 -0.1717  0.3892  0.3479
 2320SOL     OW 9325   2.978   0.753   4.131  0.0602 -0.0376  0.2146
 2320SOL    HW2 9326   3.041   0.706   4.185  0.7792 -0.5767 -1.0884
 2320SOL    HW3 9327   2.996   0.846   4.148 -0.1343 -0.2040  1.3677
 2320SOL    MW4 9328   2.988   0.759   4.140  0.1292 -0.1307  0.1945
 2321SOL     OW 9329   2.236   2.420   3.833  0.2416 -0.3065 -0.2057
 2321SOL    HW2 9330   2.156   2.376   3.861 -0.0979 -0.4700 -1.4144
 2321SOL    HW3 9331   2.236   2.413   3.738  0.6258  1.5392 -0.3679
 2321SOL    MW4 9332   2.225   2.413   3.824  0.2477 -0.0849 -0.3867
 2322SOL     OW 9333   2.741   1.633   4.752  0.0770 -0.3985  0.0963
 2322SOL    HW2 9334   2.802   1.648   4.824 -0.0789 -0.6901  0.2873
 2322SOL    HW3 9335   2.787   1.570   4.695 -0.7263 -1.8959  1.0798
 2322SOL    MW4 9336   2.755   1.627   4.754 -0.0494 -0.6347  0.2508
 2323SOL     OW 9337   1.664   3.148   4.495 -0.4211 -0.5491  0.3160
 2323SOL    HW2 9338   1.721   3.207   4.543 -1.5169 -1.2161  2.5521
 2323SOL    HW3 9339   1.599   3.204   4.454  1.4508  0.1579 -1.7335
 2323SOL    MW4 9340   1.663   3.163   4.496 -0.3188 -0.5438  0.3409
 2324SOL     OW 9341   3.195   3.809   4.555  0.1109 -0.1948  0.0991
 2324SOL    HW2 9342   3.163   3.790   4.467 -0.6812  0.8001  0.1567
 2324SOL    HW3 9343   3.141   3.754   4.612 -1.8550  1.8074  0.2312
 2324SOL    MW4 9344   3.184   3.799   4.551 -0.2530  0.2005  0.1240
 2325SOL     OW 9345   4.281   3.775   4.220  0.3308 -0.4086 -0.2032
 2325SOL    HW2 9346   4.291   3.856   4.269 -1.1086 -0.2359 -0.1831
 2325SOL    HW3 9347   4.280   3.802   4.128  2.1210 -0.6431 -0.3118
 2325SOL    MW4 9348   4.282   3.789   4.214  0.3767 -0.4170 -0.2146
 2326SOL     OW 9349   3.261   2.762   4.641  0.1730 -0.0218  0.0021
 2326SOL    HW2 9350   3.201   2.835   4.623 -0.0579 -0.2583 -0.2009
 2326SOL    HW3 9351   3.238   2.696   4.575  1.1607  0.1813 -0.5577
 2326SOL    MW4 9352   3.250   2.763   4.630  0.2728 -0.0262 -0.0987
 2327SOL     OW 9353   2.598   3.347   3.809  0.1788 -0.0310 -0.2680
 2327SOL    HW2 9354   2.619   3.432   3.847  0.9313 -0.5654  0.5364
 2327SOL    HW3 9355   2.636   3.349   3.722 -0.7347  0.8487 -0.6670
 2327SOL    MW4 9356   2.606   3.358   3.803  0.1574  0.0148 -0.2146
 2328SOL     OW 9357   2.696   3.163   3.992  0.4905 -0.0698 -0.1633
 2328SOL    HW2 9358   2.670   3.235   3.934  0.4377 -0.7630 -1.0077
 2328SOL    HW3 9359   2.754   3.109   3.939  0.1614 -0.9083  0.3143
 2328SOL    MW4 9360   2.700   3.166   3.977  0.4404 -0.2720 -0.2117
 2329SOL     OW 9361   2.880   3.896   3.928 -0.1458  0.3339  0.4469
 2329SOL    HW2 9362   2.886   3.896   4.024 -0.1139 -0.0756  0.4427
 2329SOL    HW3 9363   2.870   3.804   3.904  0.5990  0.3634  0.0116
 2329SOL    MW4 9364   2.880   3.884   3.938 -0.0434  0.2837  0.3889
 2330SOL     OW 9365   2.739   4.094   3.799  0.4009  0.4757  0.0803
 2330SOL    HW2 9366   2.648   4.068   3.815  0.3867 -0.4330 -1.3694
 2330SOL    HW3 9367   2.789   4.047   3.865 -0.0387 -0.1542 -0.0263
 2330SOL    MW4 9368   2.733   4.085   3.809  0.3412  0.2728 -0.1252
 2331SOL     OW 9369   2.685   4.316   3.949  0.3110  0.2808  0.2905
 2331SOL    HW2 9370   2.710   4.238   3.898  0.7694  1.1207 -0.7800
 2331SOL    HW3 9371   2.609   4.351   3.903  1.5762  1.8416 -0.6424
 2331SOL    MW4 9372   2.678   4.310   3.936  0.5386  0.5975  0.0262
 2332SOL     OW 9373   2.498   4.195   4.189  0.0019  0.0691  0.2340
 2332SOL    HW2 9374   2.472   4.106   4.167 -0.1918 -0.2670  1.7558
 2332SOL    HW3 9375   2.581   4.208   4.144 -0.5527 -0.4653 -0.9390
 2332SOL    MW4 9376   2.506   4.185   4.180 -0.0968 -0.0458  0.2794
 2333SOL     OW 9377   3.389   0.471   3.864 -0.8455 -0.3753  0.2712
 2333SOL    HW2 9378   3.459   0.417   3.901 -0.1399  0.3905  0.0689
 2333SOL    HW3 9379   3.308   0.434   3.899 -0.2991 -0.9082  0.9647
 2333SOL    MW4 9380   3.387   0.459   3.873 -0.6800 -0.3445  0.3362
 2334SOL     OW 9381   3.195   0.131   3.848  0.3850  0.2674 -0.0474
 2334SOL    HW2 9382   3.275   0.082   3.867 -0.5260 -2.0595 -1.8772
 2334SOL    HW3 9383   3.181   0.119   3.755 -1.1351  2.1851 -0.1032
 2334SOL    MW4 9384   3.204   0.123   3.839  0.0641  0.2134 -0.2964
 2335SOL     OW 9385   2.727   1.238   4.026  0.0572  0.0397 -0.0743
 2335SOL    HW2 9386   2.754   1.272   4.111  0.0300 -0.2462  0.0470
 2335SOL    HW3 9387   2.660   1.173   4.046 -0.8934  0.9161 -0.3907
 2335SOL    MW4 9388   2.722   1.234   4.040 -0.0718  0.1175 -0.1006
 2336SOL     OW 9389   3.671   1.652   4.250  0.3563 -0.0850  0.1970
 2336SOL    HW2 9390   3.581   1.620   4.251  0.7322 -1.2526 -1.4348
 2336SOL    HW3 9391   3.667   1.734   4.202  0.1103  0.0643  0.4682
 2336SOL    MW4 9392   3.658   1.658   4.244  0.3736 -0.2192  0.0172
 2337SOL     OW 9393   3.056   1.016   4.145 -0.5514 -0.3947  0.3170
 2337SOL    HW2 9394   2.986   1.036   4.208  0.4093  2.0502  0.6387
 2337SOL    HW3 9395   3.135   1.050   4.185  0.2956 -0.0090 -1.6139
 2337SOL    MW4 9396   3.057   1.023   4.159 -0.3128 -0.0212  0.1044
 2338SOL     OW 9397   4.013   4.423   4.712  0.2029 -0.1366 -0.3813
 2338SOL    HW2 9398   3.923   4.440   4.683  0.3504  2.0877  0.3827
 2338SOL    HW3 9399   4.013   4.330   4.738 -1.8492 -0.1640 -0.4130
 2338SOL    MW4 9400   4.001   4.413   4.711 -0.0482  0.1535 -0.2851
 2339SOL     OW 9401   3.976   3.737   4.270  0.2378 -0.0782  0.1413
 2339SOL    HW2 9402   4.071   3.749   4.275  0.1489  0.6605  0.1176
 2339SOL    HW3 9403   3.946   3.740   4.361  0.3628 -1.4293  0.2385
 2339SOL    MW4 9404   3.985   3.739   4.283  0.2427 -0.1590  0.1516
 2340SOL     OW 9405   3.317   1.322   3.822 -0.4828  0.0251 -0.1745
 2340SOL    HW2 9406   3.319   1.304   3.729 -0.3103 -0.4002 -0.0885
 2340SOL    HW3 9407   3.249   1.264   3.856  0.9263 -1.3994  0.2982
 2340SOL    MW4 9408   3.308   1.312   3.815 -0.2739 -0.2190 -0.1009
 2341SOL     OW 9409   3.115   1.129   3.867  0.1478  0.1507 -0.1414
 2341SOL    HW2 9410   3.081   1.096   3.950  0.2556  1.8141  0.5972
 2341SOL    HW3 9411   3.043   1.182   3.832  0.5964  0.5781 -0.4243
 2341SOL    MW4 9412   3.101   1.132   3.874  0.2213  0.4265 -0.0811
 2342SOL     OW 9413   3.386   0.701   4.221 -0.0870  0.0959  0.2745
 2342SOL    HW2 9414   3.301   0.661   4.243  0.4338 -0.3081  1.6061
 2342SOL    HW3 9415   3.450   0.647   4.267  0.9804 -0.1156 -1.4374
 2342SOL    MW4 9416   3.383   0.689   4.230  0.1223  0.0147  0.2241
 2343SOL     OW 9417   3.173   1.685   3.799  0.0443 -0.9442  0.3266
 2343SOL    HW2 9418   3.174   1.673   3.704 -0.3837 -1.8165  0.4293
 2343SOL    HW3 9419   3.102   1.628   3.830 -1.0102  0.7094  0.9870
 2343SOL    MW4 9420   3.164   1.676   3.791 -0.1514 -0.8413  0.4272
 2344SOL     OW 9421   3.386   2.067   3.797  0.6094  0.4702  0.0904
 2344SOL    HW2 9422   3.465   2.013   3.808 -0.6916 -1.2222  1.4274
 2344SOL    HW3 9423   3.374   2.073   3.702  1.7471 -0.1772 -0.1073
 2344SOL    MW4 9424   3.395   2.060   3.786  0.5879  0.1614  0.2410
 2345SOL     OW 9425   1.273   2.657   4.560 -0.4029  0.1593  0.0620
 2345SOL    HW2 9426   1.233   2.735   4.597  0.2222  0.5810 -0.1518
 2345SOL    HW3 9427   1.227   2.584   4.602 -1.2838  0.6432 -0.0677
 2345SOL    MW4 9428   1.262   2.657   4.570 -0.4367  0.2789  0.0162
 2346SOL     OW 9429   3.134   2.432   3.796  0.5352 -0.4306  0.2531
 2346SOL    HW2 9430   3.056   2.390   3.833 -0.2611  1.9767  1.4940
 2346SOL    HW3 9431   3.205   2.406   3.854  0.6261 -2.4642 -0.7513
 2346SOL    MW4 9432   3.133   2.423   3.809  0.4423 -0.3815  0.2842
 2347SOL     OW 9433   2.928   2.305   3.919  0.1105 -0.4103 -0.5513
 2347SOL    HW2 9434   2.843   2.349   3.919  0.7577  0.8795 -0.6013
 2347SOL    HW3 9435   2.961   2.317   4.008  1.1049  0.8427 -1.0788
 2347SOL    MW4 9436   2.921   2.313   3.931  0.3271 -0.0749 -0.6273
 2348SOL     OW 9437   3.336   2.829   3.824 -0.0475  0.1241 -0.1583
 2348SOL    HW2 9438   3.332   2.826   3.729 -0.3441 -0.7701 -0.1230
 2348SOL    HW3 9439   3.257   2.784   3.854 -0.2996  0.9912  0.5152
 2348SOL    MW4 9440   3.325   2.823   3.816 -0.1202  0.1204 -0.0646
 2349SOL     OW 9441   3.556   3.477   3.933 -0.4170  0.6452  0.3514
 2349SOL    HW2 9442   3.472   3.509   3.900 -0.0742  1.5425  0.3304
 2349SOL    HW3 9443   3.622   3.531   3.888  0.1887 -0.3380  0.0445
 2349SOL    MW4 9444   3.554   3.488   3.923 -0.2916  0.6340  0.3080
 2350SOL     OW 9445   1.184   0.735   4.540  0.5572 -0.9250  0.3710
 2350SOL    HW2 9446   1.112   0.679   4.571 -0.2423 -0.1786 -0.1115
 2350SOL    HW3 9447   1.146   0.822   4.535  0.9783 -0.8284 -1.5870
 2350SOL    MW4 9448   1.169   0.739   4.543  0.5072 -0.8137  0.0486
 2351SOL     OW 9449   3.301   3.108   3.915  0.1638 -0.5178 -0.3740
 2351SOL    HW2 9450   3.368   3.160   3.869  2.1272 -0.6789  2.1566
 2351SOL    HW3 9451   3.322   3.017   3.892  1.6380 -0.6555  1.3379
 2351SOL    MW4 9452   3.313   3.103   3.906  0.6175 -0.5574  0.1855
 2352SOL     OW 9453   3.320   3.571   3.833 -0.0332 -0.0928 -0.0798
 2352SOL    HW2 9454   3.325   3.657   3.874 -0.0397 -0.4262  0.6285
 2352SOL    HW3 9455   3.318   3.589   3.739  0.0310  0.6743  0.0649
 2352SOL    MW4 9456   3.320   3.584   3.826 -0.0257 -0.0355  0.0327
 2353SOL     OW 9457   4.259   0.221   4.728 -0.4213  0.1745 -0.2245
 2353SOL    HW2 9458   4.241   0.128   4.716 -1.0007  0.4728 -1.9217
 2353SOL    HW3 9459   4.177   0.264   4.705  0.2421  1.1630 -0.7893
 2353SOL    MW4 9460   4.246   0.215   4.723 -0.4101  0.3443 -0.5226
 2354SOL     OW 9461   3.346   3.837   3.924 -0.3532  0.1781 -0.3894
 2354SOL    HW2 9462   3.353   3.856   4.018  0.4105 -1.0852 -0.1740
 2354SOL    HW3 9463   3.277   3.895   3.893  0.2374  1.5023  0.7071
 2354SOL    MW4 9464   3.338   3.847   3.932 -0.1743  0.1862 -0.2162
 2355SOL     OW 9465   2.918   4.418   3.824 -0.2893 -0.5496 -0.3636
 2355SOL    HW2 9466   2.832   4.401   3.862  0.5706 -1.0302  1.4143
 2355SOL    HW3 9467   2.971   4.342   3.850  1.2902  0.8300  0.5446
 2355SOL    MW4 9468   2.914   4.406   3.833  0.0327 -0.4311 -0.0091
 2356SOL     OW 9469   3.385   4.383   3.823  0.1179 -0.1882 -0.3617
 2356SOL    HW2 9470   3.465   4.350   3.864  1.4322 -0.0992 -2.7411
 2356SOL    HW3 9471   3.380   4.475   3.849  0.8405 -0.1811 -0.2359
 2356SOL    MW4 9472   3.395   4.391   3.832  0.3867 -0.1755 -0.6588
 2357SOL     OW 9473   0.712   1.235   4.530 -0.3477 -0.3095 -0.3245
 2357SOL    HW2 9474   0.708   1.251   4.436  2.9300 -0.6690 -0.5667
 2357SOL    HW3 9475   0.757   1.311   4.566 -2.3245  0.2303  1.0902
 2357SOL    MW4 9476   0.717   1.247   4.522 -0.1760 -0.2856 -0.1698
 2358SOL     OW 9477   3.640   0.125   3.805  0.4788 -0.1169  0.0595
 2358SOL    HW2 9478   3.719   0.077   3.831 -0.5204 -1.7650  0.1633
 2358SOL    HW3 9479   3.643   0.127   3.709 -0.0315 -1.4045  0.0040
 2358SOL    MW4 9480   3.651   0.119   3.796  0.2797 -0.5042  0.0660
 2359SOL     OW 9481   0.163   0.796   4.400 -0.2454  0.2285  0.3472
 2359SOL    HW2 9482   0.208   0.867   4.445 -1.0231  0.4362  0.7960
 2359SOL    HW3 9483   0.074   0.827   4.388 -0.6937 -0.8182  0.8883
 2359SOL    MW4 9484   0.157   0.809   4.404 -0.4071  0.1178  0.4783
 2360SOL     OW 9485   3.856   0.734   3.916 -0.5115  0.2060 -0.4772
 2360SOL    HW2 9486   3.854   0.750   4.010  0.7985  1.1162 -0.5942
 2360SOL    HW3 9487   3.781   0.783   3.882 -0.1262  1.0653 -0.0907
 2360SOL    MW4 9488   3.846   0.743   3.924 -0.2878  0.4395 -0.4416
 2361SOL     OW 9489   3.606   0.352   3.996  0.3800 -0.2856 -0.4592
 2361SOL    HW2 9490   3.606   0.276   3.938 -0.9425 -0.7362  0.1168
 2361SOL    HW3 9491   3.668   0.413   3.956  0.1772 -0.9672 -1.8275
 2361SOL    MW4 9492   3.614   0.350   3.983  0.1786 -0.4350 -0.5634
 2362SOL     OW 9493   3.613   0.882   3.823  0.1171  0.2766  0.2078
 2362SOL    HW2 9494   3.593   0.972   3.849 -0.4919  0.4281 -0.7503
 2362SOL    HW3 9495   3.535   0.832   3.850  0.0241  0.2164 -0.1662
 2362SOL    MW4 9496   3.600   0.887   3.830  0.0246  0.2887  0.0322
 2363SOL     OW 9497   3.546   1.152   3.904  0.1034  0.0970  0.2441
 2363SOL    HW2 9498   3.629   1.191   3.876  0.0626  0.0765  0.0957
 2363SOL    HW3 9499   3.479   1.213   3.872 -0.0454 -0.8107 -1.2324
 2363SOL    MW4 9500   3.548   1.165   3.896  0.0787 -0.0254  0.0298
 2364SOL     OW 9501   3.772   1.259   3.788  0.1950  0.4046 -0.1646
 2364SOL    HW2 9502   3.843   1.212   3.830 -0.3890  0.4027  0.8399
 2364SOL    HW3 9503   3.785   1.351   3.814  1.4248  0.8487 -2.2444
 2364SOL    MW4 9504   3.783   1.265   3.797  0.2801  0.4629 -0.3066
 2365SOL     OW 9505   2.314   2.351   4.094  0.1013  0.1470  0.2069
 2365SOL    HW2 9506   2.296   2.399   4.014 -1.1135 -1.5213 -0.5479
 2365SOL    HW3 9507   2.245   2.285   4.099  2.2255 -2.1211  0.7115
 2365SOL    MW4 9508   2.303   2.349   4.084  0.2213 -0.3722  0.1740
 2366SOL     OW 9509   3.583   1.659   3.810 -0.5004 -0.0517  0.3400
 2366SOL    HW2 9510   3.512   1.614   3.856 -2.7863  2.3522 -0.7465
 2366SOL    HW3 9511   3.574   1.630   3.719 -1.0266  1.3977 -0.0750
 2366SOL    MW4 9512   3.573   1.649   3.804 -0.8717  0.4568  0.1416
 2367SOL     OW 9513   3.610   1.938   3.850  0.0332 -0.9583  0.0535
 2367SOL    HW2 9514   3.601   1.846   3.826 -0.3782 -1.1208  0.8185
 2367SOL    HW3 9515   3.597   1.940   3.945 -2.7751  0.2479 -0.3015
 2367SOL    MW4 9516   3.607   1.926   3.860 -0.3915 -0.8204  0.1078
 2368SOL     OW 9517   0.186   1.961   4.362 -0.0739 -0.2246  0.2886
 2368SOL    HW2 9518   0.164   1.906   4.438 -1.0540 -0.6601 -0.3090
 2368SOL    HW3 9519   0.246   2.027   4.398 -0.1885 -0.6842  1.3589
 2368SOL    MW4 9520   0.191   1.963   4.377 -0.2183 -0.3428  0.3510
 2369SOL     OW 9521   3.847   2.068   3.823 -0.2182  0.0459  0.0477
 2369SOL    HW2 9522   3.816   2.157   3.806  0.4924  0.1242 -0.8593
 2369SOL    HW3 9523   3.772   2.024   3.863 -0.4818  1.1293  0.7686
 2369SOL    MW4 9524   3.833   2.074   3.826 -0.1595  0.1993  0.0234
 2370SOL     OW 9525   4.408   0.933   4.362 -0.5325  0.2064 -0.0421
 2370SOL    HW2 9526   4.424   0.999   4.294  0.7868 -0.7789 -0.7132
 2370SOL    HW3 9527   4.385   0.984   4.440 -1.1210  1.3877 -0.9691
 2370SOL    MW4 9528   4.407   0.948   4.363 -0.4363  0.2323 -0.2532
 2371SOL     OW 9529   3.548   2.491   3.739 -0.6083  0.4370  0.6995
 2371SOL    HW2 9530   3.488   2.430   3.782  0.9752 -0.8143  1.1213
 2371SOL    HW3 9531   3.533   2.477   3.646 -0.6973 -0.1284  0.7974
 2371SOL    MW4 9532   3.538   2.481   3.733 -0.4113  0.1974  0.7679
 2372SOL     OW 9533   3.792   2.063   4.243  0.3170 -0.5702 -0.2065
 2372SOL    HW2 9534   3.793   2.140   4.187  1.5869 -0.2707  0.2071
 2372SOL    HW3 9535   3.870   2.014   4.218 -0.6519 -1.8980 -0.6922
 2372SOL    MW4 9536   3.803   2.067   4.232  0.3569 -0.7062 -0.2160
 2373SOL     OW 9537   2.417   1.246   3.790  0.0789 -0.1101 -0.1058
 2373SOL    HW2 9538   2.429   1.156   3.821  0.8268 -0.0342 -0.1653
 2373SOL    HW3 9539   2.465   1.299   3.853  0.0199  0.2076 -0.3303
 2373SOL    MW4 9540   2.425   1.241   3.802  0.1698 -0.0581 -0.1433
 2374SOL     OW 9541   3.749   3.614   3.824 -0.1944  0.2802  0.1357
 2374SOL    HW2 9542   3.763   3.708   3.832  0.0324  0.3135 -0.6217
 2374SOL    HW3 9543   3.831   3.574   3.853  0.2249  0.3613 -0.9479
 2374SOL    MW4 9544   3.761   3.621   3.829 -0.1090  0.2949 -0.1070
 2375SOL     OW 9545   4.262   3.841   3.930  0.2203 -0.1890 -0.0160
 2375SOL    HW2 9546   4.238   3.766   3.876 -0.9893  0.0963  0.1191
 2375SOL    HW3 9547   4.342   3.875   3.889 -0.1403 -0.5556 -1.0504
 2375SOL    MW4 9548   4.269   3.835   3.917  0.0129 -0.1998 -0.1349
 2376SOL     OW 9549   3.983   2.602   4.741  0.5656 -0.0237  0.0410
 2376SOL    HW2 9550   4.056   2.617   4.802 -0.8075 -2.4910  2.4022
 2376SOL    HW3 9551   4.006   2.520   4.696 -1.5835 -1.9273  2.2439
 2376SOL    MW4 9552   3.996   2.593   4.743  0.1009 -0.6003  0.6433
 2377SOL     OW 9553   3.694   4.561   4.169  0.0694  0.2796 -0.1231
 2377SOL    HW2 9554   3.681   4.466   4.166  0.4651  0.2716 -1.9468
 2377SOL    HW3 9555   3.735   4.582   4.085  0.3116  2.0200  0.4217
 2377SOL    MW4 9556   3.698   4.551   4.158  0.1535  0.5083 -0.2923
 2378SOL     OW 9557   3.534   4.002   3.821 -0.5112  0.5745  0.0693
 2378SOL    HW2 9558   3.620   3.972   3.851 -0.2778  1.2364  0.0742
 2378SOL    HW3 9559   3.472   3.942   3.863 -0.0401 -0.0587 -0.1339
 2378SOL    MW4 9560   3.537   3.990   3.831 -0.4182  0.5786  0.0432
 2379SOL     OW 9561   2.998   3.334   4.339 -0.0647 -0.4076 -0.2165
 2379SOL    HW2 9562   2.912   3.314   4.301  0.0479 -0.7826 -0.2709
 2379SOL    HW3 9563   3.051   3.257   4.322  0.7987  0.4817 -1.6645
 2379SOL    MW4 9564   2.994   3.322   4.332  0.0641 -0.3397 -0.4148
 2380SOL     OW 9565   3.847   4.366   3.833 -0.1529  0.2570 -0.2965
 2380SOL    HW2 9566   3.854   4.352   3.738  0.8142 -0.4842 -0.1245
 2380SOL    HW3 9567   3.926   4.325   3.869 -0.5702  0.4399  0.8392
 2380SOL    MW4 9568   3.858   4.359   3.825 -0.0803  0.1836 -0.1237
 2381SOL     OW 9569   4.260   0.007   3.898 -0.2058  0.1602  0.1217
 2381SOL    HW2 9570   4.333   0.028   3.839 -0.1475 -0.7403 -0.1291
 2381SOL    HW3 9571   4.292   0.028   3.985  0.1026  0.4373 -0.0580
 2381SOL    MW4 9572   4.274   0.013   3.901 -0.1569  0.0782  0.0648
 2382SOL     OW 9573   4.013   0.107   3.797  0.8610 -0.0720 -0.0614
 2382SOL    HW2 9574   4.094   0.068   3.831  1.9077  1.9372 -0.2002
 2382SOL    HW3 9575   4.024   0.105   3.702  0.3508 -0.6219 -0.1092
 2382SOL    MW4 9576   4.025   0.101   3.789  0.9322  0.1205 -0.0858
 2383SOL     OW 9577   4.039   0.308   3.971 -0.3440  0.3012 -0.6569
 2383SOL    HW2 9578   4.028   0.235   3.910  0.8228 -1.5054  1.2160
 2383SOL    HW3 9579   4.119   0.351   3.942 -0.6514  0.4193 -1.3462
 2383SOL    MW4 9580   4.048   0.304   3.959 -0.2308  0.0784 -0.5007
 2384SOL     OW 9581   4.238   0.476   3.832 -0.1766 -0.3693 -0.1106
 2384SOL    HW2 9582   4.315   0.435   3.871  1.8113  3.6415  0.4562
 2384SOL    HW3 9583   4.255   0.474   3.737 -0.2425 -1.0694 -0.1114
 2384SOL    MW4 9584   4.250   0.470   3.824  0.0772  0.0675 -0.0358
 2385SOL     OW 9585   4.312   0.717   3.974 -0.2481 -0.4774 -0.3581
 2385SOL    HW2 9586   4.301   0.640   3.918  0.8044 -0.5791 -0.4268
 2385SOL    HW3 9587   4.235   0.771   3.955 -0.3248 -0.8991 -1.2822
 2385SOL    MW4 9588   4.300   0.714   3.964 -0.1192 -0.5464 -0.4892
 2386SOL     OW 9589   4.097   0.879   3.885  0.4025  0.1303 -0.3152
 2386SOL    HW2 9590   4.018   0.825   3.890 -0.8028  2.0374  2.5524
 2386SOL    HW3 9591   4.113   0.888   3.791 -2.3292 -0.9857 -0.9517
 2386SOL    MW4 9592   4.089   0.873   3.873 -0.1163  0.2347 -0.0207
 2387SOL     OW 9593   3.980   1.136   3.897  0.4167  0.2061 -0.1491
 2387SOL    HW2 9594   4.063   1.176   3.872  0.0751  1.2093  0.2942
 2387SOL    HW3 9595   3.996   1.042   3.893  0.8455  0.3594 -2.5268
 2387SOL    MW4 9596   3.993   1.129   3.893  0.4282  0.3587 -0.4044
 2388SOL     OW 9597   4.276   1.229   3.753  0.0025 -0.0907 -0.2882
 2388SOL    HW2 9598   4.293   1.322   3.769 -0.3271  0.0175 -0.5738
 2388SOL    HW3 9599   4.289   1.219   3.658 -3.2090  0.3411 -0.8128
 2388SOL    MW4 9600   4.280   1.240   3.742 -0.4640 -0.0194 -0.3953
 2389SOL     OW 9601   4.069   1.601   3.785  0.7099  0.3039 -0.3673
 2389SOL    HW2 9602   4.065   1.695   3.803 -0.2291  0.7090 -2.4610
 2389SOL    HW3 9603   3.979   1.571   3.794  0.8514 -0.2068 -0.6374
 2389SOL    MW4 9604   4.057   1.609   3.788  0.6051  0.2900 -0.6793
 2390SOL     OW 9605   3.825   1.516   3.843 -0.3049 -0.3270 -0.4175
 2390SOL    HW2 9606   3.844   1.506   3.937 -0.2047 -3.0252 -0.6829
 2390SOL    HW3 9607   3.743   1.564   3.840  0.2679  0.7772  1.0318
 2390SOL    MW4 9608   3.817   1.521   3.855 -0.2160 -0.5374 -0.2613
 2391SOL     OW 9609   4.021   1.860   3.875 -0.0918  0.3016  0.5575
 2391SOL    HW2 9610   3.952   1.923   3.852  0.3046  0.8246  0.8125
 2391SOL    HW3 9611   4.102   1.903   3.850  0.1134 -0.6115 -0.4281
 2391SOL    MW4 9612   4.022   1.874   3.868 -0.0124  0.2501  0.4609
 2392SOL     OW 9613   4.240   2.004   3.813  0.1371 -0.4627  0.3578
 2392SOL    HW2 9614   4.239   2.082   3.869 -1.8873 -0.0150 -0.2910
 2392SOL    HW3 9615   4.251   2.038   3.725  1.4741 -1.0638  0.2818
 2392SOL    MW4 9616   4.241   2.019   3.809  0.0467 -0.4826  0.2620
 2393SOL     OW 9617   4.240   2.250   3.945 -0.2341 -0.1146  0.3832
 2393SOL    HW2 9618   4.245   2.269   4.039 -0.7245  1.9294  0.0216
 2393SOL    HW3 9619   4.189   2.322   3.909 -0.7910 -1.3431 -1.3418
 2393SOL    MW4 9620   4.234   2.262   3.953 -0.3724 -0.0069  0.1078
 2394SOL     OW 9621   3.805   2.342   3.856 -0.1990  0.1893  0.0852
 2394SOL    HW2 9622   3.758   2.420   3.828 -1.6711 -0.7029 -0.0544
 2394SOL    HW3 9623   3.784   2.334   3.950 -2.0480 -1.3111 -0.4030
 2394SOL    MW4 9624   3.796   2.351   3.865 -0.6371 -0.1266  0.0021
 2395SOL     OW 9625   3.129   1.924   4.689  0.0620  0.1139 -0.3074
 2395SOL    HW2 9626   3.055   1.966   4.646 -0.4626 -1.5621 -1.0967
 2395SOL    HW3 9627   3.092   1.847   4.732  1.3310 -0.8176 -0.8111
 2395SOL    MW4 9628   3.115   1.919   4.689  0.1602 -0.2302 -0.4783
 2396SOL     OW 9629   4.183   3.617   3.800  0.4608  0.4354 -0.2265
 2396SOL    HW2 9630   4.106   3.604   3.856 -0.5945  0.3012 -1.6898
 2396SOL    HW3 9631   4.249   3.558   3.837  0.5749  2.0604  2.3110
 2396SOL    MW4 9632   4.182   3.608   3.812  0.3366  0.6320 -0.0849
 2397SOL     OW 9633   3.574   2.710   3.898  0.2621  0.1347 -0.1361
 2397SOL    HW2 9634   3.548   2.632   3.849  0.5035 -0.3642  0.5185
 2397SOL    HW3 9635   3.499   2.770   3.889  0.1463 -0.1051 -0.7798
 2397SOL    MW4 9636   3.561   2.708   3.891  0.2787  0.0374 -0.1347
 2398SOL     OW 9637   4.307   0.221   4.450 -0.5321 -0.0079 -0.1801
 2398SOL    HW2 9638   4.337   0.311   4.442  1.5012 -0.7035 -0.5624
 2398SOL    HW3 9639   4.294   0.208   4.544  2.5142 -0.3521  0.2232
 2398SOL    MW4 9640   4.309   0.231   4.462  0.1383 -0.1451 -0.1774
 2399SOL     OW 9641   3.602   3.786   4.276  0.1898 -0.1229 -0.7313
 2399SOL    HW2 9642   3.522   3.838   4.263 -1.7420 -2.7569  0.2496
 2399SOL    HW3 9643   3.670   3.837   4.233 -2.2307  1.6230 -2.6867
 2399SOL    MW4 9644   3.600   3.800   4.268 -0.3843 -0.2401 -0.8602
 2400SOL     OW 9645   3.901   3.476   4.205  0.9225  0.0897  0.3439
 2400SOL    HW2 9646   3.806   3.466   4.206  0.8833  0.3545 -0.4550
 2400SOL    HW3 9647   3.916   3.570   4.212  1.1561 -0.0118  1.3842
 2400SOL    MW4 9648   3.891   3.487   4.206  0.9480  0.1111  0.3762
 2401SOL     OW 9649   3.596   1.908   4.130  0.4708  0.0739  0.2156
 2401SOL    HW2 9650   3.533   1.906   4.201  0.6604 -0.7076  0.3688
 2401SOL    HW3 9651   3.671   1.956   4.165  0.9367 -1.1157  0.8606
 2401SOL    MW4 9652   3.597   1.914   4.144  0.5572 -0.1861  0.3209
 2402SOL     OW 9653   1.412   1.287   4.603  0.0757 -0.4777  0.1964
 2402SOL    HW2 9654   1.427   1.382   4.600  3.6427 -0.9920 -1.6634
 2402SOL    HW3 9655   1.473   1.256   4.669 -0.8296 -1.5278  0.5398
 2402SOL    MW4 9656   1.422   1.296   4.611  0.4269 -0.6843 -0.0033
 2403SOL     OW 9657   4.269   4.393   3.829  0.5092 -0.1236  0.0208
 2403SOL    HW2 9658   4.344   4.350   3.870  1.0242  0.7535  0.0065
 2403SOL    HW3 9659   4.260   4.476   3.876 -0.9085 -0.5353  0.5140
 2403SOL    MW4 9660   4.278   4.398   3.841  0.3896 -0.0620  0.0839
 2404SOL     OW 9661   0.014   4.208   3.954  0.1552 -0.3460  0.2250
 2404SOL    HW2 9662   0.085   4.230   3.894 -0.2103 -1.1641 -0.5200
 2404SOL    HW3 9663   0.057   4.194   4.038  0.8003 -0.2379 -0.0841
 2404SOL    MW4 9664   0.029   4.209   3.957  0.1922 -0.4396  0.0861
 2405SOL     OW 9665   0.682   1.273   4.238  0.8297  0.0649  0.2132
 2405SOL    HW2 9666   0.609   1.215   4.218  0.6439  0.8810 -1.5678
 2405SOL    HW3 9667   0.760   1.224   4.211  0.8590 -0.3107  0.9649
 2405SOL    MW4 9668   0.683   1.259   4.231  0.8091  0.1230  0.0777
 2406SOL     OW 9669   2.063   0.064   4.220  0.3874  0.0911  0.0708
 2406SOL    HW2 9670   2.008  -0.002   4.263  1.3024 -0.9193 -0.2824
 2406SOL    HW3 9671   2.054   0.045   4.127  1.2251  0.0090  0.0047
 2406SOL    MW4 9672   2.055   0.053   4.214  0.6187 -0.0530  0.0153
 2407SOL     OW 9673   2.890   2.842   4.674  0.5163  0.3991  0.4014
 2407SOL    HW2 9674   2.892   2.777   4.604  0.4403 -0.1134  0.8758
 2407SOL    HW3 9675   2.950   2.910   4.645  1.3839 -0.3752  0.3865
 2407SOL    MW4 9676   2.898   2.843   4.661  0.6206  0.2291  0.4616
 2408SOL     OW 9677   0.776   0.479   4.799  0.5895  0.0347  0.2530
 2408SOL    HW2 9678   0.859   0.480   4.751  0.2190  0.7431 -0.3817
 2408SOL    HW3 9679   0.719   0.424   4.744  0.6678 -0.5512  0.7502
 2408SOL    MW4 9680   0.780   0.472   4.785  0.5509  0.0509  0.2346
 2409SOL     OW 9681   2.367   4.257   4.427 -0.1626  0.4346  0.4799
 2409SOL    HW2 9682   2.423   4.249   4.350 -0.7709  1.3907 -0.0598
 2409SOL    HW3 9683   2.428   4.274   4.499  0.5909 -2.2872  0.5506
 2409SOL    MW4 9684   2.382   4.258   4.426 -0.1435  0.2012  0.4177
 2410SOL     OW 9685   2.667   0.812   3.813  0.0428  0.2609 -1.1293
 2410SOL    HW2 9686   2.754   0.783   3.842 -0.0139  1.1684 -0.0405
 2410SOL    HW3 9687   2.681   0.839   3.722  0.4870 -1.4122 -1.5800
 2410SOL    MW4 9688   2.681   0.812   3.805  0.0937  0.1599 -1.0452
 2411SOL     OW 9689   1.006   0.493   4.630  0.3607 -0.0320  0.3167
 2411SOL    HW2 9690   1.030   0.403   4.606  0.0587 -0.0844  0.2025
 2411SOL    HW3 9691   0.951   0.523   4.558  0.6401  0.3224  0.2552
 2411SOL    MW4 9692   1.002   0.485   4.618  0.3577  0.0078  0.2942
 2412SOL     OW 9693   3.239   1.410   4.779 -0.3728  0.4495 -0.0177
 2412SOL    HW2 9694   3.250   1.342   4.845 -0.8255  0.9696  0.6049
 2412SOL    HW3 9695   3.326   1.422   4.742  0.2295  1.2686  1.6098
 2412SOL    MW4 9696   3.252   1.403   4.783 -0.3531  0.6262  0.2794
 2413SOL     OW 9697   3.592   2.344   4.606  0.0408  0.2231 -0.5895
 2413SOL    HW2 9698   3.667   2.286   4.594  0.2052  0.7120 -2.0251
 2413SOL    HW3 9699   3.527   2.313   4.542 -1.5538 -1.0926  1.6025
 2413SOL    MW4 9700   3.593   2.332   4.596 -0.1478  0.1142 -0.4892
 2414SOL     OW 9701   4.463   3.015   4.566  0.1327 -0.3955  0.2154
 2414SOL    HW2 9702   4.461   2.982   4.655 -0.1202 -0.7989  0.0605
 2414SOL    HW3 9703   4.461   3.110   4.575  0.0861 -0.4382  0.6380
 2414SOL    MW4 9704   4.462   3.023   4.579  0.0930 -0.4539  0.2513
 2415SOL     OW 9705   4.384   4.548   4.451  0.1054 -0.6050 -0.0375
 2415SOL    HW2 9706   4.373   4.637   4.418 -0.3876 -0.7189 -0.1797
 2415SOL    HW3 9707   4.379   4.493   4.373 -1.8530 -0.9403  0.3120
 2415SOL    MW4 9708   4.382   4.553   4.436 -0.2189 -0.6642 -0.0105
 2416SOL     OW 9709   1.514   3.726   4.613  0.1815 -0.2314  0.4940
 2416SOL    HW2 9710   1.495   3.692   4.525  1.3744 -0.6837  0.3909
 2416SOL    HW3 9711   1.535   3.647   4.664  0.8535  0.1605  0.8224
 2416SOL    MW4 9712   1.514   3.711   4.608  0.4276 -0.2394  0.5231
 2417SOL     OW 9713   2.831   2.464   4.307 -0.6022 -0.4543 -0.0629
 2417SOL    HW2 9714   2.755   2.428   4.352 -1.8138  1.2255 -0.7221
 2417SOL    HW3 9715   2.795   2.529   4.247  1.3118  0.0452 -0.7004
 2417SOL    MW4 9716   2.816   2.468   4.305 -0.5095 -0.1669 -0.2341
 2418SOL     OW 9717   1.561   2.834   3.811 -0.0921  0.0545 -0.0811
 2418SOL    HW2 9718   1.639   2.780   3.823  0.2647  0.5868  0.0188
 2418SOL    HW3 9719   1.547   2.833   3.716 -0.4413 -0.7022 -0.0249
 2418SOL    MW4 9720   1.570   2.827   3.800 -0.0911  0.0248 -0.0603
 2419SOL     OW 9721   4.024   3.223   3.833 -0.5983 -0.0376  0.2700
 2419SOL    HW2 9722   3.944   3.172   3.838 -1.2514  1.1475  2.4870
 2419SOL    HW3 9723   4.093   3.162   3.861 -0.8282 -0.7741 -0.7239
 2419SOL    MW4 9724   4.023   3.208   3.837 -0.7148  0.0217  0.4315
 2420SOL     OW 9725   1.169   0.508   3.826 -0.1396 -0.2516  0.1612
 2420SOL    HW2 9726   1.089   0.480   3.870 -0.1095 -1.2114 -0.3911
 2420SOL    HW3 9727   1.235   0.445   3.852  0.5199  0.7173  0.8530
 2420SOL    MW4 9728   1.167   0.496   3.835 -0.0484 -0.2503  0.1798
 2421SOL     OW 9729   2.560   3.387   4.380 -0.6117 -0.0714 -0.0461
 2421SOL    HW2 9730   2.514   3.449   4.324 -0.9779  1.7373  2.1803
 2421SOL    HW3 9731   2.620   3.341   4.321 -1.2500  1.5035 -1.9600
 2421SOL    MW4 9732   2.562   3.389   4.365 -0.7443  0.3750 -0.0048
 2422SOL     OW 9733   4.220   3.028   3.941  0.0792 -0.2093  0.3523
 2422SOL    HW2 9734   4.288   3.082   3.899 -1.6784  0.1169 -2.1866
 2422SOL    HW3 9735   4.227   3.049   4.034  2.8686  0.4692  0.0307
 2422SOL    MW4 9736   4.230   3.038   3.948  0.2155 -0.0765 -0.0250
 2423SOL     OW 9737   3.975   2.250   4.593 -0.5154 -0.0144  0.5620
 2423SOL    HW2 9738   4.008   2.310   4.527  1.2208 -0.8002  0.6908
 2423SOL    HW3 9739   4.041   2.181   4.598 -0.6094  0.0311  3.1066
 2423SOL    MW4 9740   3.988   2.249   4.585 -0.2987 -0.1123  0.9146
 2424SOL     OW 9741   0.492   0.082   4.355 -0.4129 -0.9990 -0.2704
 2424SOL    HW2 9742   0.476   0.101   4.447  0.1286 -0.3160 -0.3133
 2424SOL    HW3 9743   0.470  -0.011   4.345 -0.7351 -1.0028  0.4797
 2424SOL    MW4 9744   0.487   0.072   4.366 -0.3839 -0.9094 -0.1779
 2425SOL     OW 9745   1.176   3.324   4.464 -0.3128  0.1536 -0.5637
 2425SOL    HW2 9746   1.261   3.307   4.423 -0.7283 -1.0299 -0.9562
 2425SOL    HW3 9747   1.178   3.417   4.484  0.7402  0.3183 -1.3548
 2425SOL    MW4 9748   1.188   3.334   4.461 -0.2286  0.0191 -0.7195
 2426SOL     OW 9749   4.465   0.873   4.779  0.2507  0.1400  0.2278
 2426SOL    HW2 9750   4.507   0.786   4.774  1.6054  0.8417 -1.0649
 2426SOL    HW3 9751   4.487   0.905   4.866  3.1224  0.8011 -0.6672
 2426SOL    MW4 9752   4.474   0.865   4.790  0.8082  0.3198 -0.0610
 2427SOL     OW 9753   3.613   4.246   3.918  0.4170 -0.1607 -0.0266
 2427SOL    HW2 9754   3.593   4.165   3.872  0.9426 -0.0201 -0.5005
 2427SOL    HW3 9755   3.698   4.273   3.884 -0.6801  1.6921 -1.4500
 2427SOL    MW4 9756   3.621   4.239   3.907  0.3417  0.1025 -0.2770
 2428SOL     OW 9757   3.539   3.214   3.805  0.3397 -0.4124 -0.6030
 2428SOL    HW2 9758   3.520   3.231   3.712 -1.3040 -0.5097 -0.2943
 2428SOL    HW3 9759   3.554   3.300   3.843 -1.7215 -0.1240 -0.3875
 2428SOL    MW4 9760   3.539   3.227   3.797 -0.1495 -0.3870 -0.5338
 2429SOL     OW 9761   2.274   0.571   4.305 -0.3721 -0.4794  0.1152
 2429SOL    HW2 9762   2.319   0.492   4.274  2.1687  1.2457 -0.7672
 2429SOL    HW3 9763   2.291   0.573   4.399  0.0712 -0.6818  0.0410
 2429SOL    MW4 9764   2.282   0.561   4.313  0.0215 -0.2785 -0.0114
 2430SOL     OW 9765   1.162   4.097   4.268  0.0776  0.5535  0.1267
 2430SOL    HW2 9766   1.240   4.152   4.263 -0.8424  1.8396 -0.5222
 2430SOL    HW3 9767   1.099   4.139   4.209 -0.7347 -1.0780 -0.1969
 2430SOL    MW4 9768   1.164   4.110   4.260 -0.1509  0.5088 -0.0014
 2431SOL     OW 9769   1.212   1.312   4.255  0.0821 -0.2204  0.4813
 2431SOL    HW2 9770   1.288   1.260   4.231 -1.5907 -2.0013 -1.1283
 2431SOL    HW3 9771   1.191   1.286   4.345 -0.8931 -2.5594 -0.3939
 2431SOL    MW4 9772   1.219   1.302   4.264 -0.2674 -0.7640  0.1535
 2432SOL     OW 9773   3.504   2.861   4.575  0.2312  0.1587 -0.4301
 2432SOL    HW2 9774   3.426   2.814   4.606 -0.1224  0.3332 -1.0602
 2432SOL    HW3 9775   3.485   2.883   4.484  1.4771 -0.8082 -0.9474
 2432SOL    MW4 9776   3.492   2.858   4.567  0.3490  0.0541 -0.5817
 2433SOL     OW 9777   3.356   0.329   4.597  0.4423  0.1722 -0.2080
 2433SOL    HW2 9778   3.442   0.361   4.626  1.4029 -0.9106 -1.7890
 2433SOL    HW3 9779   3.373   0.288   4.512 -1.4909 -0.8754 -0.1164
 2433SOL    MW4 9780   3.370   0.328   4.590  0.3140 -0.1089 -0.4048
 2434SOL     OW 9781   1.261   0.351   4.170  0.0036  0.1115  0.1871
 2434SOL    HW2 9782   1.296   0.422   4.224 -1.1157  0.6606  0.2056
 2434SOL    HW3 9783   1.306   0.360   4.086 -0.0087  0.7428  0.2468
 2434SOL    MW4 9784   1.272   0.362   4.166 -0.1456  0.2672  0.1969
 2435SOL     OW 9785   2.013   1.693   4.666  0.0639 -0.1832 -0.1723
 2435SOL    HW2 9786   1.971   1.760   4.612  0.6259  0.0969 -0.2598
 2435SOL    HW3 9787   1.942   1.631   4.686 -0.4731  0.4774 -0.0204
 2435SOL    MW4 9788   1.998   1.693   4.661  0.0672 -0.0591 -0.1636
 2436SOL     OW 9789   0.398   3.481   4.233 -0.5078  0.3594 -0.2838
 2436SOL    HW2 9790   0.351   3.554   4.274  0.2092  0.8004 -0.2281
 2436SOL    HW3 9791   0.342   3.405   4.248 -0.8107  0.7256  0.4855
 2436SOL    MW4 9792   0.384   3.481   4.240 -0.4532  0.4661 -0.1745
 2437SOL     OW 9793   0.456   1.177   4.637  0.0760 -0.5976 -0.2552
 2437SOL    HW2 9794   0.545   1.186   4.605  0.3605  0.4224  0.7970
 2437SOL    HW3 9795   0.466   1.144   4.727 -0.5685  0.1399  0.0948
 2437SOL    MW4 9796   0.469   1.173   4.645  0.0285 -0.3657 -0.0696
 2438SOL     OW 9797   0.215   2.075   3.800 -0.0404  0.3061 -0.2441
 2438SOL    HW2 9798   0.292   2.023   3.822  0.3291  0.3035 -1.5047
 2438SOL    HW3 9799   0.141   2.018   3.822  0.3642 -0.8577 -1.8139
 2438SOL    MW4 9800   0.215   2.061   3.806  0.0617  0.1526 -0.6175
 2439SOL     OW 9801   4.084   4.239   3.957  0.3907 -0.4006  0.2490
 2439SOL    HW2 9802   4.083   4.152   3.917 -0.8185 -0.7924  1.1233
 2439SOL    HW3 9803   4.150   4.288   3.906  0.8081 -1.6996 -0.4796
 2439SOL    MW4 9804   4.093   4.234   3.945  0.2861 -0.6237  0.2685
 2440SOL     OW 9805   1.437   4.434   4.566 -0.3761  0.2633  0.1179
 2440SOL    HW2 9806   1.495   4.422   4.492  1.7393  0.1782  1.7341
 2440SOL    HW3 9807   1.380   4.357   4.565  0.3385 -0.2595 -0.7861
 2440SOL    MW4 9808   1.437   4.422   4.556 -0.0027  0.1831  0.2117
 2441SOL     OW 9809   3.421   2.023   4.750  0.6055  0.3514  0.4353
 2441SOL    HW2 9810   3.417   2.096   4.812 -0.7481  0.4610  0.2466
 2441SOL    HW3 9811   3.329   2.005   4.730  1.0612  1.3587 -2.7833
 2441SOL    MW4 9812   3.408   2.030   4.756  0.4871  0.4988 -0.0138
 2442SOL     OW 9813   0.863   2.430   4.337  0.0308 -0.2783 -0.5582
 2442SOL    HW2 9814   0.868   2.404   4.429 -1.3221 -0.7571 -0.6055
 2442SOL    HW3 9815   0.951   2.414   4.302  1.1883  2.0671  1.2065
 2442SOL    MW4 9816   0.875   2.424   4.344  0.0050 -0.0319 -0.3319
 2443SOL     OW 9817   0.734   1.809   4.563 -0.2446 -0.2371  0.2557
 2443SOL    HW2 9818   0.718   1.813   4.468 -0.0153  0.3060  0.2422
 2443SOL    HW3 9819   0.647   1.806   4.601 -0.3373 -1.2882 -0.0085
 2443SOL    MW4 9820   0.720   1.809   4.555 -0.2266 -0.3041  0.2189
 2444SOL     OW 9821   0.102   2.903   4.325  0.1171  0.0307 -0.1132
 2444SOL    HW2 9822   0.060   2.820   4.301 -0.7440  0.3258  0.3642
 2444SOL    HW3 9823   0.057   2.931   4.405 -0.4642  1.5919 -0.9550
 2444SOL    MW4 9824   0.091   2.896   4.332 -0.0732  0.2756 -0.1616
 2445SOL     OW 9825   0.817   4.015   4.545  0.0924 -0.0241  0.6312
 2445SOL    HW2 9826   0.777   3.966   4.473  2.7552 -0.3444 -0.6929
 2445SOL    HW3 9827   0.842   3.947   4.608 -0.7877  0.1166  1.1428
 2445SOL    MW4 9828   0.815   3.999   4.544  0.3276 -0.0484  0.5245
 2446SOL     OW 9829   0.392   3.240   3.872 -0.6845  0.5459 -0.3342
 2446SOL    HW2 9830   0.419   3.330   3.890 -0.2697  0.5989 -1.1658
 2446SOL    HW3 9831   0.470   3.187   3.888 -0.6765  0.4457 -0.6801
 2446SOL    MW4 9832   0.405   3.245   3.876 -0.6287  0.5395 -0.4897
 2447SOL     OW 9833   4.109   0.944   4.523  0.1108 -0.5017 -0.2056
 2447SOL    HW2 9834   4.127   1.029   4.484 -1.1860  0.0382  0.3252
 2447SOL    HW3 9835   4.025   0.918   4.485 -0.7552 -0.3578  1.5630
 2447SOL    MW4 9836   4.100   0.952   4.513 -0.1745 -0.4116  0.0978
 2448SOL     OW 9837   0.209   2.023   4.729 -0.1243  0.3515  0.4782
 2448SOL    HW2 9838   0.271   2.073   4.675  1.2289 -1.2788  0.4835
 2448SOL    HW3 9839   0.262   1.989   4.801 -1.0031 -1.1932  0.4033
 2448SOL    MW4 9840   0.224   2.025   4.731 -0.0617 -0.0672  0.4692
 2449SOL     OW 9841   0.499   1.468   4.605 -0.0715  0.1024  0.2619
 2449SOL    HW2 9842   0.475   1.376   4.614 -0.7097 -0.0302 -2.3658
 2449SOL    HW3 9843   0.591   1.466   4.579 -0.1819  0.1789 -0.1425
 2449SOL    MW4 9844   0.508   1.455   4.602 -0.1703  0.0950 -0.1383
 2450SOL     OW 9845   0.868   2.451   3.791  0.1476  0.1415  0.1167
 2450SOL    HW2 9846   0.943   2.402   3.825 -1.2179 -1.3892  1.0040
 2450SOL    HW3 9847   0.860   2.526   3.850  2.2076  1.4326 -1.2085
 2450SOL    MW4 9848   0.876   2.455   3.804  0.2392  0.1097  0.0591
 2451SOL     OW 9849   3.836   1.389   4.535  0.2007  0.1181 -0.1329
 2451SOL    HW2 9850   3.921   1.426   4.510 -0.0535 -0.0362 -1.2484
 2451SOL    HW3 9851   3.778   1.465   4.544 -0.0242  0.0897 -1.2714
 2451SOL    MW4 9852   3.839   1.404   4.533  0.1376  0.0939 -0.4301
 2452SOL     OW 9853   3.618   0.387   4.650  0.1965 -0.5220  0.2591
 2452SOL    HW2 9854   3.658   0.347   4.572  0.6451  0.3644  0.0293
 2452SOL    HW3 9855   3.667   0.350   4.723  0.5274 -0.4931  0.0538
 2452SOL    MW4 9856   3.630   0.377   4.649  0.2992 -0.4013  0.2012
 2453SOL     OW 9857   1.981   4.367   4.626  0.1380  0.0942  0.3124
 2453SOL    HW2 9858   1.904   4.423   4.631 -0.3170 -0.2756 -2.1399
 2453SOL    HW3 9859   1.951   4.282   4.660 -0.5408 -0.0584 -0.6645
 2453SOL    MW4 9860   1.967   4.363   4.631 -0.0116  0.0257 -0.1402
 2454SOL     OW 9861   4.018   4.144   4.763 -0.2893 -0.0728 -0.2127
 2454SOL    HW2 9862   4.109   4.115   4.772 -0.0412  1.0447  1.2101
 2454SOL    HW3 9863   3.969   4.090   4.825 -0.5486 -0.4541 -0.7467
 2454SOL    MW4 9864   4.023   4.133   4.773 -0.2904  0.0243 -0.0958
 2455SOL     OW 9865   0.301   3.744   4.571  0.1439  0.1722 -0.6748
 2455SOL    HW2 9866   0.326   3.657   4.601  0.6808 -0.0367 -1.7120
 2455SOL    HW3 9867   0.384   3.791   4.560 -0.1370  0.7890 -0.1922
 2455SOL    MW4 9868   0.315   3.739   4.573  0.1777  0.2263 -0.7477
 2456SOL     OW 9869   1.917   0.738   4.802  0.3336 -0.0782 -0.4835
 2456SOL    HW2 9870   1.903   0.832   4.810  2.0895  0.1633  0.0770
 2456SOL    HW3 9871   2.005   0.730   4.763  0.2601 -1.4779 -0.4071
 2456SOL    MW4 9872   1.927   0.749   4.798  0.5556 -0.2310 -0.3991
 2457SOL     OW 9873   0.962   3.986   3.851  0.3232  0.1087 -0.3244
 2457SOL    HW2 9874   0.886   3.945   3.892 -0.6776  2.5715  0.3908
 2457SOL    HW3 9875   0.939   3.994   3.759  0.5691 -1.0148 -0.4857
 2457SOL    MW4 9876   0.949   3.982   3.844  0.2236  0.2854 -0.2515
 2458SOL     OW 9877   0.109   3.412   4.495 -0.4219 -0.0435  0.0086
 2458SOL    HW2 9878   0.176   3.448   4.552  0.2356  0.3669 -1.0195
 2458SOL    HW3 9879   0.083   3.485   4.439 -0.2647 -0.7301 -0.9707
 2458SOL    MW4 9880   0.114   3.426   4.495 -0.3144 -0.0801 -0.2561
 2459SOL     OW 9881   3.757   1.217   4.324  0.0459  0.0281 -0.1095
 2459SOL    HW2 9882   3.829   1.228   4.262  0.2605  0.0596  0.1495
 2459SOL    HW3 9883   3.777   1.276   4.396  0.5157 -1.0394  0.6505
 2459SOL    MW4 9884   3.769   1.226   4.325  0.1364 -0.1086  0.0253
 2460SOL     OW 9885   1.634   0.343   4.661  0.4040  0.0898  0.2792
 2460SOL    HW2 9886   1.639   0.439   4.666 -1.6168  0.1979  0.8066
 2460SOL    HW3 9887   1.544   0.326   4.634  0.7286 -1.6794  0.2841
 2460SOL    MW4 9888   1.623   0.353   4.658  0.1804 -0.1294  0.3490
 2461SOL     OW 9889   3.800   0.240   4.469  0.5926  0.0200  0.0559
 2461SOL    HW2 9890   3.818   0.147   4.454 -1.2129 -0.5123  1.0607
 2461SOL    HW3 9891   3.765   0.271   4.386  1.1718 -0.1999 -0.2729
 2461SOL    MW4 9892   3.798   0.232   4.456  0.4306 -0.0793  0.1450
 2462SOL     OW 9893   4.332   2.424   4.625  0.9618  0.4086 -0.1181
 2462SOL    HW2 9894   4.352   2.333   4.648 -0.5403 -0.3539 -1.7105
 2462SOL    HW3 9895   4.284   2.418   4.542  0.3431  2.6253  0.0437
 2462SOL    MW4 9896   4.329   2.411   4.617  0.6824  0.6003 -0.3071
 2463SOL     OW 9897   2.342   1.749   4.316  0.0295  0.3731  0.4049
 2463SOL    HW2 9898   2.279   1.720   4.382 -0.3098  0.7238  0.2418
 2463SOL    HW3 9899   2.364   1.669   4.267 -1.3256  0.4683 -0.3953
 2463SOL    MW4 9900   2.336   1.734   4.318 -0.1941  0.4319  0.2775
 2464SOL     OW 9901   0.190   3.598   3.852  0.1939  0.1147  0.2649
 2464SOL    HW2 9902   0.208   3.689   3.877  0.5581  0.1911 -0.2785
 2464SOL    HW3 9903   0.271   3.551   3.873  0.4659  0.1569 -0.6601
 2464SOL    MW4 9904   0.203   3.604   3.858  0.2778  0.1299  0.0710
 2465SOL     OW 9905   0.823   0.572   4.418 -0.0589 -0.3407 -0.4856
 2465SOL    HW2 9906   0.803   0.640   4.354  0.2459 -1.0185 -1.3205
 2465SOL    HW3 9907   0.824   0.491   4.367 -1.8688 -1.1689  0.7597
 2465SOL    MW4 9908   0.821   0.570   4.402 -0.2574 -0.5394 -0.4311
 2466SOL     OW 9909   1.144   2.112   4.315  0.0629 -0.0277  0.1880
 2466SOL    HW2 9910   1.156   2.129   4.408 -2.3582  0.3446  0.4776
 2466SOL    HW3 9911   1.135   2.199   4.276  0.6214 -0.1988 -0.3300
 2466SOL    MW4 9912   1.144   2.126   4.322 -0.1827 -0.0012  0.1588
 2467SOL     OW 9913   4.160   4.216   4.235  0.5231  0.5026 -0.0504
 2467SOL    HW2 9914   4.224   4.283   4.262  0.3336  0.4863  0.4500
 2467SOL    HW3 9915   4.144   4.235   4.143  1.2245  0.5294 -0.1757
 2467SOL    MW4 9916   4.167   4.227   4.226  0.5908  0.5035 -0.0014
 2468SOL     OW 9917   2.499   1.372   4.370 -0.3365 -0.0270 -0.3682
 2468SOL    HW2 9918   2.505   1.430   4.447  0.0406 -0.0400 -0.3850
 2468SOL    HW3 9919   2.465   1.290   4.405  1.4082 -0.5805  0.0945
 2468SOL    MW4 9920   2.495   1.369   4.385 -0.0563 -0.1018 -0.3095
 2469SOL     OW 9921   1.556   3.638   3.839  0.0545  0.1806  0.1159
 2469SOL    HW2 9922   1.626   3.579   3.869 -1.4746 -0.9774  1.4880
 2469SOL    HW3 9923   1.475   3.596   3.868 -1.1396  2.3208 -0.0211
 2469SOL    MW4 9924   1.555   3.625   3.847 -0.3047  0.3104  0.2789
 2470SOL     OW 9925   0.244   4.152   4.446  0.3503 -0.3551 -0.2066
 2470SOL    HW2 9926   0.198   4.093   4.505  0.8936  0.8793  1.4962
 2470SOL    HW3 9927   0.220   4.240   4.477  2.0916  0.2977 -0.6570
 2470SOL    MW4 9928   0.235   4.156   4.458  0.6517 -0.1059 -0.0410
 2471SOL     OW 9929   1.493   3.109   4.720  0.4571  0.1563 -0.2827
 2471SOL    HW2 9930   1.533   3.134   4.638 -0.7385  1.4131 -0.5066
 2471SOL    HW3 9931   1.536   3.163   4.786 -0.2375  0.8712 -0.4071
 2471SOL    MW4 9932   1.504   3.119   4.718  0.2077  0.4165 -0.3285
 2472SOL     OW 9933   2.257   3.578   3.877 -0.1356  0.1452 -0.1686
 2472SOL    HW2 9934   2.236   3.612   3.964 -0.7816 -2.1896  0.6219
 2472SOL    HW3 9935   2.176   3.588   3.827 -0.7087 -1.3335  0.4378
 2472SOL    MW4 9936   2.244   3.584   3.882 -0.2964 -0.3579  0.0155
 2473SOL     OW 9937   3.867   4.169   4.278  0.3652 -0.0509 -0.1444
 2473SOL    HW2 9938   3.959   4.195   4.283  0.1963  0.3647  0.9527
 2473SOL    HW3 9939   3.848   4.130   4.363 -0.3364 -0.5961 -0.5424
 2473SOL    MW4 9940   3.876   4.168   4.290  0.2501 -0.0682 -0.0515
 2474SOL     OW 9941   1.103   0.172   4.288  0.2356 -0.2524 -0.4316
 2474SOL    HW2 9942   1.111   0.090   4.239 -0.3601 -0.0700 -0.8347
 2474SOL    HW3 9943   1.158   0.234   4.240 -1.9240  0.4632 -2.0410
 2474SOL    MW4 9944   1.111   0.169   4.275 -0.1278 -0.1339 -0.6971
 2475SOL     OW 9945   1.597   0.508   4.335  0.1549 -0.1861  0.4988
 2475SOL    HW2 9946   1.670   0.558   4.373 -0.7110  0.0195  1.9173
 2475SOL    HW3 9947   1.627   0.417   4.337  0.7943  0.0109  0.0907
 2475SOL    MW4 9948   1.611   0.503   4.340  0.1251 -0.1330  0.6323
 2476SOL     OW 9949   4.470   3.593   4.311  0.2435  0.3559  0.3533
 2476SOL    HW2 9950   4.459   3.530   4.240 -0.1307  0.2468  0.5043
 2476SOL    HW3 9951   4.400   3.657   4.297  0.0431  0.2215  0.7434
 2476SOL    MW4 9952   4.459   3.593   4.299  0.1678  0.3238  0.4249
 2477SOL     OW 9953   2.716   1.610   3.820  0.3148  0.1186  0.0772
 2477SOL    HW2 9954   2.700   1.697   3.856 -0.9338  0.2587 -0.7999
 2477SOL    HW3 9955   2.701   1.620   3.726 -0.2589 -1.1563  0.0311
 2477SOL    MW4 9956   2.712   1.623   3.812  0.0741 -0.0311 -0.0443
 2478SOL     OW 9957   2.393   2.015   4.356  0.2126 -0.2351 -0.2626
 2478SOL    HW2 9958   2.415   2.028   4.449  0.3580  1.2603 -0.4945
 2478SOL    HW3 9959   2.374   1.921   4.349 -0.2760 -0.2736  1.3762
 2478SOL    MW4 9960   2.394   2.004   4.367  0.1671 -0.0429 -0.0768
 2479SOL     OW 9961   2.716   3.607   4.469 -0.1043 -0.2210 -0.4691
 2479SOL    HW2 9962   2.691   3.652   4.549  0.1963 -0.9234  0.0271
 2479SOL    HW3 9963   2.655   3.533   4.463  1.3509 -1.5082  0.3497
 2479SOL    MW4 9964   2.705   3.603   4.478  0.1273 -0.4833 -0.2956
 2480SOL     OW 9965   1.983   0.328   4.144  0.8284  0.3279  0.1313
 2480SOL    HW2 9966   2.016   0.252   4.192 -1.5399 -0.2522  0.9502
 2480SOL    HW3 9967   1.984   0.399   4.208  1.8664  0.6805 -0.2719
 2480SOL    MW4 9968   1.987   0.327   4.159  0.6529  0.2979  0.1860
 2481SOL     OW 9969   2.784   0.833   4.700  0.4011 -1.0011  0.0511
 2481SOL    HW2 9970   2.842   0.786   4.759  2.1229 -0.8744 -1.4952
 2481SOL    HW3 9971   2.836   0.908   4.670 -0.6345 -0.7663 -1.1994
 2481SOL    MW4 9972   2.798   0.837   4.704  0.4916 -0.9534 -0.3181
 2482SOL     OW 9973   2.356   0.586   4.564  0.1658  0.2793  0.1849
 2482SOL    HW2 9974   2.389   0.496   4.566  1.5182  0.7520 -0.5838
 2482SOL    HW3 9975   2.432   0.639   4.541 -1.0746  1.3941 -1.4788
 2482SOL    MW4 9976   2.370   0.581   4.561  0.1805  0.4888 -0.1369
 2483SOL     OW 9977   3.633   4.286   4.180  0.2167 -0.2347  0.0699
 2483SOL    HW2 9978   3.711   4.241   4.213 -0.1967 -1.0323 -0.0328
 2483SOL    HW3 9979   3.626   4.258   4.089 -0.7552 -0.9525  0.3586
 2483SOL    MW4 9980   3.642   4.276   4.173  0.0339 -0.4344  0.0939
 2484SOL     OW 9981   2.727   0.192   4.585  0.2068  0.3726 -0.1381
 2484SOL    HW2 9982   2.658   0.255   4.603  0.4641  0.8676 -0.8520
 2484SOL    HW3 9983   2.713   0.167   4.493 -0.2701 -1.0722  0.3193
 2484SOL    MW4 9984   2.716   0.197   4.575  0.1781  0.2473 -0.1717
 2485SOL     OW 9985   2.518   1.087   4.124  0.4242 -0.2764  0.1286
 2485SOL    HW2 9986   2.530   1.041   4.208 -2.0127  0.7042  1.0873
 2485SOL    HW3 9987   2.493   1.017   4.063 -0.2430 -0.6725  0.8356
 2485SOL    MW4 9988   2.516   1.071   4.127  0.0145 -0.1993  0.3486
 2486SOL     OW 9989   0.176   1.180   4.277 -0.4298  0.0501 -0.1449
 2486SOL    HW2 9990   0.261   1.146   4.251 -0.7358 -0.1098 -0.9359
 2486SOL    HW3 9991   0.195   1.264   4.318  0.0166  0.4232 -1.1313
 2486SOL    MW4 9992   0.190   1.186   4.279 -0.4113  0.0782 -0.3791
 2487SOL     OW 9993   0.987   1.897   4.240 -0.5069 -0.1008 -0.1817
 2487SOL    HW2 9994   1.045   1.969   4.262  1.1345 -0.9276 -1.6817
 2487SOL    HW3 9995   0.943   1.924   4.159 -0.3591 -0.5109 -0.4031
 2487SOL    MW4 9996   0.989   1.910   4.232 -0.2709 -0.2640 -0.4096
 2488SOL     OW 9997   3.358   1.562   3.956  0.1234  0.4151 -0.4142
 2488SOL    HW2 9998   3.351   1.477   3.912 -1.5803  0.5201 -0.3567
 2488SOL    HW3 9999   3.294   1.617   3.911 -0.0825  1.1456  0.7687
 2488SOL    MW410000   3.349   1.558   3.944 -0.1285  0.5252 -0.2508
 2489SOL     OW10001   2.965   0.486   3.868  0.3299 -0.8480  0.0136
 2489SOL    HW210002   2.888   0.439   3.900  0.6415 -1.6901 -0.4598
 2489SOL    HW310003   2.936   0.577   3.861 -0.1523 -0.8927  1.3429
 2489SOL    MW410004   2.951   0.492   3.871  0.3073 -0.9650  0.1266
 2490SOL     OW10005   1.103   3.984   4.502  0.5040  0.1850  0.2771
 2490SOL    HW210006   1.010   3.970   4.521  0.4039  0.8672  0.2987
 2490SOL    HW310007   1.105   4.010   4.410  0.7679 -0.7818  0.0014
 2490SOL    MW410008   1.091   3.985   4.492  0.5256  0.1476  0.2437
 2491SOL     OW10009   2.219   4.067   3.768 -0.2855  0.5318  0.1868
 2491SOL    HW210010   2.160   4.008   3.813 -1.2583 -0.1935 -1.9841
 2491SOL    HW310011   2.307   4.037   3.793 -0.7898  0.0495  1.4276
 2491SOL    MW410012   2.223   4.056   3.777 -0.4804  0.3719  0.0641
 2492SOL     OW10013   0.435   4.487   4.387 -0.1803 -0.0873  1.1369
 2492SOL    HW210014   0.447   4.421   4.318 -0.0943  0.1478  0.9236
 2492SOL    HW310015   0.343   4.478   4.413 -0.3287  0.1148  0.6863
 2492SOL    MW410016   0.424   4.477   4.381 -0.1885 -0.0300  1.0495
 2493SOL     OW10017   2.593   0.744   4.495 -0.3587 -0.2050 -0.0819
 2493SOL    HW210018   2.664   0.758   4.557 -1.5142 -1.0737  1.5060
 2493SOL    HW310019   2.635   0.715   4.415  1.2741  2.2500 -0.1542
 2493SOL    MW410020   2.608   0.742   4.493 -0.2959  0.0043  0.1178
 2494SOL     OW10021   1.870   2.497   4.793 -0.4414 -0.3114 -0.3049
 2494SOL    HW210022   1.895   2.491   4.701  0.0293 -0.3583 -0.1764
 2494SOL    HW310023   1.925   2.567   4.828 -0.1188 -0.7670  0.1047
 2494SOL    MW410024   1.881   2.506   4.785 -0.3368 -0.3777 -0.2341
 2495SOL     OW10025   0.827   3.177   4.548 -0.2926  0.1544  0.3004
 2495SOL    HW210026   0.817   3.082   4.547  0.0791  0.1064  0.8493
 2495SOL    HW310027   0.879   3.195   4.626 -0.2464  0.7987  0.1261
 2495SOL    MW410028   0.832   3.167   4.558 -0.2375  0.2332  0.3500
 2496SOL     OW10029   1.721   4.140   4.337  0.1410 -0.5857  0.3567
 2496SOL    HW210030   1.763   4.131   4.422 -0.4824  0.0073  0.7415
 2496SOL    HW310031   1.677   4.225   4.342  3.5208  1.3995 -2.0667
 2496SOL    MW410032   1.721   4.150   4.349  0.5046 -0.2451  0.0868
 2497SOL     OW10033   3.535   1.292   4.160 -0.2827  0.0738  0.1061
 2497SOL    HW210034   3.604   1.262   4.220  0.7092  0.9242 -0.5767
 2497SOL    HW310035   3.550   1.242   4.079 -1.5425 -0.9855  0.5222
 2497SOL    MW410036   3.546   1.282   4.157 -0.3181  0.0464  0.0706
 2498SOL     OW10037   1.694   1.696   4.424  0.3793 -0.0874  0.1388
 2498SOL    HW210038   1.764   1.761   4.434 -0.4854  0.6240  1.8194
 2498SOL    HW310039   1.683   1.687   4.330  0.9400  1.7517 -0.1335
 2498SOL    MW410040   1.702   1.704   4.413  0.3393  0.2491  0.3247
 2499SOL     OW10041   0.206   4.346   3.781 -0.0327 -0.0719  0.1748
 2499SOL    HW210042   0.289   4.321   3.820 -0.9906 -1.9328  1.0786
 2499SOL    HW310043   0.189   4.433   3.815  1.3520  0.1713  0.2900
 2499SOL    MW410044   0.215   4.354   3.790  0.0236 -0.2856  0.3092
 2500SOL     OW10045   2.885   4.401   4.641 -0.1982 -0.0464  0.2378
 2500SOL    HW210046   2.951   4.470   4.637 -0.2836 -0.0412 -1.7747
 2500SOL    HW310047   2.882   4.376   4.733 -0.0360  2.4994  0.9793
 2500SOL    MW410048   2.893   4.407   4.652 -0.1879  0.2899  0.0701
 2501SOL     OW10049   1.920   2.259   4.176  0.1023 -0.1227  0.0534
 2501SOL    HW210050   1.831   2.277   4.207 -0.0429 -0.3243 -0.2480
 2501SOL    HW310051   1.961   2.211   4.248 -0.1341 -0.3102  0.0623
 2501SOL    MW410052   1.913   2.255   4.190  0.0520 -0.1740  0.0153
 2502SOL     OW10053   0.364   1.885   4.168  0.0235 -0.2544 -0.3931
 2502SOL    HW210054   0.283   1.901   4.217 -0.0753 -0.4912 -0.4764
 2502SOL    HW310055   0.432   1.926   4.221 -0.2644  0.7687 -0.7863
 2502SOL    MW410056   0.362   1.893   4.182 -0.0275 -0.1507 -0.4559
 2503SOL     OW10057   3.739   2.132   4.528 -0.4437 -0.3089 -0.0838
 2503SOL    HW210058   3.832   2.147   4.546 -0.2637 -1.8086  0.3696
 2503SOL    HW310059   3.735   2.120   4.433 -0.4818  1.7409 -0.3460
 2503SOL    MW410060   3.751   2.132   4.518 -0.4251 -0.2365 -0.0591
 2504SOL     OW10061   3.626   3.518   4.201 -0.7327 -0.0842  0.3097
 2504SOL    HW210062   3.614   3.608   4.233 -2.5548 -1.0377  2.4459
 2504SOL    HW310063   3.599   3.522   4.109  1.1865  1.9768 -0.2008
 2504SOL    MW410064   3.621   3.531   4.193 -0.7198  0.0622  0.5245
 2505SOL     OW10065   1.376   0.123   3.810  0.0721  0.5221 -0.0209
 2505SOL    HW210066   1.301   0.071   3.840 -0.7503  0.9711 -1.2770
 2505SOL    HW310067   1.453   0.077   3.845 -0.6140 -1.7916 -1.4962
 2505SOL    MW410068   1.376   0.110   3.819 -0.1268  0.2761 -0.3812
 2506SOL     OW10069   4.176   3.382   4.271  0.4962  0.2611  0.5537
 2506SOL    HW210070   4.169   3.372   4.365  0.2370 -0.7014  0.4289
 2506SOL    HW310071   4.094   3.424   4.245  0.3933  0.1497  0.6990
 2506SOL    MW410072   4.164   3.387   4.280  0.4482  0.1192  0.5560
 2507SOL     OW10073   4.354   1.326   4.583  0.2272  0.0616  0.0571
 2507SOL    HW210074   4.419   1.256   4.597  0.6825  0.2160 -1.2281
 2507SOL    HW310075   4.286   1.285   4.529 -0.3479  0.1324  0.7255
 2507SOL    MW410076   4.354   1.311   4.578  0.2112  0.0913 -0.0234
 2508SOL     OW10077   2.128   2.715   4.163 -0.0108  0.2671 -0.4108
 2508SOL    HW210078   2.066   2.646   4.187 -0.7513  0.5533 -1.5098
 2508SOL    HW310079   2.181   2.727   4.242 -0.4022 -0.9919  0.0576
 2508SOL    MW410080   2.127   2.707   4.177 -0.1602  0.1388 -0.4940
 2509SOL     OW10081   3.150   2.163   4.333 -0.1400  0.2389 -0.2956
 2509SOL    HW210082   3.069   2.126   4.367  0.6411 -0.7626  0.5131
 2509SOL    HW310083   3.123   2.240   4.283 -1.5224  0.3002  0.5353
 2509SOL    MW410084   3.136   2.169   4.331 -0.2193  0.1147 -0.0792
 2510SOL     OW10085   3.691   1.624   4.544 -0.2357 -0.4269 -0.2029
 2510SOL    HW210086   3.694   1.703   4.597 -0.6347 -0.2434 -0.4541
 2510SOL    HW310087   3.687   1.655   4.453  0.7116 -0.7415 -0.3538
 2510SOL    MW410088   3.691   1.638   4.539 -0.1633 -0.4441 -0.2565
 2511SOL     OW10089   2.378   1.162   4.497 -0.4850 -0.0242 -0.9401
 2511SOL    HW210090   2.294   1.142   4.457 -1.1676  0.8361  0.0664
 2511SOL    HW310091   2.369   1.134   4.588  0.2471  0.2481 -0.7772
 2511SOL    MW410092   2.366   1.156   4.504 -0.4785  0.1252 -0.7863
 2512SOL     OW10093   1.984   2.838   3.740  0.1316  0.3394  0.1109
 2512SOL    HW210094   1.911   2.797   3.787 -0.0109  0.3316 -0.1148
 2512SOL    HW310095   2.062   2.797   3.775  0.0121  0.1840  0.1921
 2512SOL    MW410096   1.984   2.827   3.751  0.0970  0.3178  0.0918
 2513SOL     OW10097   3.776   3.098   3.873 -0.2225 -0.3965 -0.5267
 2513SOL    HW210098   3.685   3.115   3.852  0.2796  1.1951 -1.5595
 2513SOL    HW310099   3.793   3.009   3.842 -1.5317 -0.8711  0.1076
 2513SOL    MW410100   3.766   3.089   3.867 -0.3290 -0.2489 -0.5794
 2514SOL     OW10101   0.363   2.156   4.515  0.7075  0.5321  0.0296
 2514SOL    HW210102   0.433   2.108   4.471  0.8096  1.4643 -0.8560
 2514SOL    HW310103   0.387   2.248   4.504  0.6687  0.7954  1.9591
 2514SOL    MW410104   0.376   2.162   4.508  0.7158  0.6897  0.1674
 2515SOL     OW10105   2.354   3.208   4.330 -0.1826  0.3557  0.9708
 2515SOL    HW210106   2.378   3.161   4.250 -0.7435  0.6507  0.6278
 2515SOL    HW310107   2.433   3.256   4.354 -0.3484  1.1183 -0.0138
 2515SOL    MW410108   2.367   3.208   4.323 -0.2785  0.4954  0.7954
 2516SOL     OW10109   2.140   3.252   4.712 -0.1109  0.3480 -0.2317
 2516SOL    HW210110   2.108   3.317   4.649 -1.7162 -0.8170 -0.6394
 2516SOL    HW310111   2.177   3.182   4.658 -1.8370 -0.8314  0.0763
 2516SOL    MW410112   2.141   3.251   4.697 -0.5505  0.0386 -0.2446
 2517SOL     OW10113   4.184   3.083   4.216  0.1338 -0.3615  0.6477
 2517SOL    HW210114   4.188   3.170   4.255  0.3785  0.1889 -0.5703
 2517SOL    HW310115   4.091   3.072   4.193  0.2896  0.0395 -0.1983
 2517SOL    MW410116   4.172   3.093   4.218  0.1864 -0.2360  0.3753
 2518SOL     OW10117   1.036   0.973   4.547  0.1432 -0.2772 -0.0566
 2518SOL    HW210118   0.948   0.985   4.584  0.3641 -0.4087  0.5208
 2518SOL    HW310119   1.072   1.062   4.543  1.1398 -0.4942  2.6273
 2518SOL    MW410120   1.029   0.986   4.551  0.3039 -0.3231  0.3734
 2519SOL     OW10121   2.225   3.068   4.533 -0.3194  0.1336 -0.0981
 2519SOL    HW210122   2.270   2.987   4.556  0.3036  0.7210  0.8006
 2519SOL    HW310123   2.283   3.112   4.471 -0.5685 -0.0222 -0.4409
 2519SOL    MW410124   2.238   3.063   4.528 -0.2699  0.1905 -0.0243
 2520SOL     OW10125   3.915   3.731   4.532  0.6578 -0.4357 -0.0265
 2520SOL    HW210126   3.830   3.771   4.549  1.8372  2.2626 -0.0948
 2520SOL    HW310127   3.896   3.639   4.516 -2.2529  0.1415 -0.1820
 2520SOL    MW410128   3.901   3.724   4.532  0.4294 -0.0036 -0.0563
 2521SOL     OW10129   2.202   2.082   4.175 -0.1986 -0.2597 -0.0997
 2521SOL    HW210130   2.119   2.062   4.219 -0.4329 -0.3123 -0.5570
 2521SOL    HW310131   2.268   2.075   4.244 -0.7748  1.5313  0.6698
 2521SOL    MW410132   2.200   2.078   4.190 -0.3057 -0.0303 -0.0587
 2522SOL     OW10133   0.231   3.897   4.158 -0.8677  0.4572 -0.2136
 2522SOL    HW210134   0.312   3.938   4.188 -0.0554 -1.2890  0.0247
 2522SOL    HW310135   0.218   3.823   4.218 -2.3181  0.3577 -0.6320
 2522SOL    MW410136   0.240   3.893   4.170 -0.9519  0.2139 -0.2370
 2523SOL     OW10137   3.175   0.366   4.006  0.3065  0.3857 -0.1017
 2523SOL    HW210138   3.193   0.282   3.963  1.7768  0.8705 -0.4276
 2523SOL    HW310139   3.110   0.408   3.950 -0.4474 -0.5359  0.0682
 2523SOL    MW410140   3.169   0.360   3.993  0.4010  0.3280 -0.1223
 2524SOL     OW10141   2.854   3.011   3.825  0.0160  0.1764  0.0594
 2524SOL    HW210142   2.914   3.085   3.829  0.8354 -0.5015  0.2726
 2524SOL    HW310143   2.879   2.963   3.746  0.6951 -0.9048  0.9178
 2524SOL    MW410144   2.865   3.015   3.815  0.2134 -0.0556  0.2007
 2525SOL     OW10145   3.642   1.895   4.614 -0.4680  0.0094 -0.4822
 2525SOL    HW210146   3.683   1.980   4.601 -0.1003  0.0697  0.9504
 2525SOL    HW310147   3.558   1.916   4.657 -0.0431 -0.3759  0.5616
 2525SOL    MW410148   3.636   1.909   4.618 -0.3633 -0.0336 -0.1554
 2526SOL     OW10149   3.265   1.755   4.496 -0.0697 -0.0579  0.1172
 2526SOL    HW210150   3.232   1.807   4.569 -0.9622 -1.4122  0.6798
 2526SOL    HW310151   3.303   1.678   4.537 -1.6125 -1.3879 -0.9128
 2526SOL    MW410152   3.266   1.752   4.511 -0.3910 -0.4121  0.0548
 2527SOL     OW10153   2.158   0.759   4.655  0.6562  0.2544  0.1502
 2527SOL    HW210154   2.228   0.697   4.634  1.1686  0.3411  1.5728
 2527SOL    HW310155   2.134   0.797   4.570  1.9005 -0.2319 -0.4392
 2527SOL    MW410156   2.164   0.756   4.641  0.8879  0.2017  0.2604
 2528SOL     OW10157   4.433   1.441   4.108 -0.0031  0.5062 -0.1044
 2528SOL    HW210158   4.415   1.351   4.132  0.8327  0.9071  2.2241
 2528SOL    HW310159   4.406   1.449   4.017 -1.0776 -1.7922  0.0057
 2528SOL    MW410160   4.427   1.430   4.100 -0.0348  0.2559  0.2170
 2529SOL     OW10161   3.631   1.213   4.689  0.5376  0.0630 -0.6027
 2529SOL    HW210162   3.646   1.120   4.673 -0.3212  0.0940 -1.6684
 2529SOL    HW310163   3.718   1.253   4.684  0.8431 -0.6128 -0.6568
 2529SOL    MW410164   3.644   1.206   4.686  0.4644 -0.0221 -0.7501
 2530SOL     OW10165   1.759   1.678   3.439 -0.0617 -0.3062 -0.1123
 2530SOL    HW210166   1.774   1.766   3.404 -0.1863 -0.0377  0.5009
 2530SOL    HW310167   1.665   1.665   3.432 -0.0421 -0.3961 -0.2130
 2530SOL    MW410168   1.749   1.688   3.433 -0.0756 -0.2826 -0.0443
 2531SOL     OW10169   3.143   0.182   4.699  0.6763 -0.3279  0.0821
 2531SOL    HW210170   3.069   0.223   4.655  0.0797 -0.8528  0.5697
 2531SOL    HW310171   3.218   0.237   4.677  0.3310 -0.3896 -1.2882
 2531SOL    MW410172   3.143   0.195   4.690  0.5519 -0.4053 -0.0343
 2532SOL     OW10173   2.011   1.447   4.396 -0.4115  0.2897  0.0388
 2532SOL    HW210174   2.069   1.494   4.455 -0.8251 -0.0248  0.6983
 2532SOL    HW310175   2.025   1.488   4.310  2.2509 -1.0427 -0.2354
 2532SOL    MW410176   2.021   1.459   4.392 -0.1144  0.0725  0.0901
 2533SOL     OW10177   2.114   0.382   3.919  0.2796 -0.1274 -0.2784
 2533SOL    HW210178   2.193   0.432   3.941  1.2191 -1.0454 -1.5007
 2533SOL    HW310179   2.072   0.366   4.003  0.6122  1.6287  0.2517
 2533SOL    MW410180   2.119   0.387   3.933  0.4475 -0.0169 -0.3695
 2534SOL     OW10181   2.009   1.848   4.232 -0.2328 -0.0109  0.2236
 2534SOL    HW210182   1.979   1.857   4.322 -0.4656  0.0001  0.1447
 2534SOL    HW310183   1.933   1.870   4.178  0.6517  2.7117 -0.0037
 2534SOL    MW410184   1.995   1.852   4.237 -0.1467  0.3498  0.1836
 2535SOL     OW10185   3.684   2.582   4.467  0.2677 -0.2638  0.5320
 2535SOL    HW210186   3.639   2.656   4.508 -1.7128 -0.9991 -0.2358
 2535SOL    HW310187   3.654   2.505   4.516 -0.6033 -0.9347 -1.0013
 2535SOL    MW410188   3.674   2.581   4.479 -0.1085 -0.4492  0.2284
 2536SOL     OW10189   1.171   0.777   3.921  0.1969  0.2092 -0.3048
 2536SOL    HW210190   1.175   0.682   3.908 -0.0883  0.4058 -1.8948
 2536SOL    HW310191   1.084   0.802   3.890  0.5476  1.0925 -0.5962
 2536SOL    MW410192   1.160   0.768   3.916  0.2056  0.3516 -0.5531
 2537SOL     OW10193   3.871   2.487   4.286 -0.2468 -0.4657 -0.1084
 2537SOL    HW210194   3.809   2.520   4.351 -0.3924 -0.8379 -0.0561
 2537SOL    HW310195   3.946   2.457   4.337  0.0842  0.2244 -0.1917
 2537SOL    MW410196   3.873   2.487   4.301 -0.2224 -0.4237 -0.1125
 2538SOL     OW10197   1.429   0.067   4.241  0.0939 -0.7634 -0.1360
 2538SOL    HW210198   1.521   0.044   4.224  0.7419  1.2050  0.6139
 2538SOL    HW310199   1.401   0.113   4.162  0.2879  0.1519  0.3199
 2538SOL    MW410200   1.438   0.070   4.228  0.2050 -0.3829  0.0229
 2539SOL     OW10201   1.804   2.453   3.799 -0.1247  0.5863 -0.1685
 2539SOL    HW210202   1.873   2.393   3.827 -0.1192  0.5356 -0.2892
 2539SOL    HW310203   1.798   2.440   3.704 -1.4215 -0.6048  0.0644
 2539SOL    MW410204   1.813   2.443   3.790 -0.2950  0.4225 -0.1538
 2540SOL     OW10205   3.402   3.384   4.589  0.6240  0.2663 -0.5011
 2540SOL    HW210206   3.398   3.377   4.493  2.2045  0.1665 -0.5822
 2540SOL    HW310207   3.413   3.478   4.605  0.1815  0.3026 -0.4030
 2540SOL    MW410208   3.403   3.396   4.578  0.7741  0.2580 -0.4988
 2541SOL     OW10209   4.440   2.165   4.615  0.3101  0.2542 -0.7377
 2541SOL    HW210210   4.470   2.193   4.529  0.5431 -0.4435 -0.8890
 2541SOL    HW310211   4.519   2.169   4.670  0.5027 -0.7386 -0.9259
 2541SOL    MW410212   4.455   2.169   4.611  0.3667  0.0312 -0.7825
 2542SOL     OW10213   3.973   3.483   3.925  0.0131 -0.1569 -0.6441
 2542SOL    HW210214   3.939   3.474   4.014  1.3622  0.5957 -0.0388
 2542SOL    HW310215   3.973   3.394   3.890  2.1855 -0.9246  1.1545
 2542SOL    MW410216   3.969   3.470   3.932  0.4778 -0.1588 -0.3269
 2543SOL     OW10217   1.589   3.467   4.738  0.1548 -0.2925  0.0152
 2543SOL    HW210218   1.673   3.435   4.707 -0.0234  0.8273 -1.7105
 2543SOL    HW310219   1.560   3.401   4.802  1.3399 -1.8027 -0.9570
 2543SOL    MW410220   1.596   3.454   4.742  0.2875 -0.3440 -0.3405
 2544SOL     OW10221   0.487   1.040   4.897 -0.3704  0.9780 -0.2681
 2544SOL    HW210222   0.432   0.969   4.930 -2.0773  2.0435 -0.7668
 2544SOL    HW310223   0.574   1.020   4.931 -0.5634 -1.9720 -1.3239
 2544SOL    MW410224   0.491   1.028   4.906 -0.6211  0.7294 -0.4730
 2545SOL     OW10225   4.151   0.800   4.754  0.2207 -0.2607  0.0461
 2545SOL    HW210226   4.142   0.860   4.680  1.1815 -1.1253 -0.7947
 2545SOL    HW310227   4.241   0.814   4.785  1.0191 -2.3883 -1.1940
 2545SOL    MW410228   4.162   0.810   4.748  0.4525 -0.6555 -0.2284
 2546SOL     OW10229   3.076   3.201   3.813 -0.1184 -0.1455 -0.1023
 2546SOL    HW210230   3.082   3.214   3.718 -0.5781 -2.3962 -0.4742
 2546SOL    HW310231   3.162   3.166   3.837  0.1154  0.7524  0.3746
 2546SOL    MW410232   3.088   3.198   3.803 -0.1483 -0.3240 -0.0885
 2547SOL     OW10233   0.129   0.137   4.587  0.0870 -0.3661  0.2847
 2547SOL    HW210234   0.222   0.122   4.600  0.2042 -1.1437 -1.2209
 2547SOL    HW310235   0.086   0.073   4.644  0.5060 -1.1969 -0.3187
 2547SOL    MW410236   0.135   0.126   4.596  0.1577 -0.5783  0.0057
 2548SOL     OW10237   0.415   0.645   4.675 -0.0817 -0.0326  0.0881
 2548SOL    HW210238   0.461   0.713   4.626  1.3874 -1.6702 -0.8506
 2548SOL    HW310239   0.433   0.564   4.628  1.0422 -1.6054  3.0744
 2548SOL    MW410240   0.424   0.643   4.663  0.2604 -0.4563  0.3591
 2549SOL     OW10241   3.638   3.833   4.547 -0.7827  0.1577  0.2888
 2549SOL    HW210242   3.630   3.817   4.453  0.4372 -0.3140  0.2604
 2549SOL    HW310243   3.597   3.918   4.561 -0.6395  0.3908 -0.7271
 2549SOL    MW410244   3.631   3.842   4.537 -0.6030  0.1261  0.1512
 2550SOL     OW10245   2.429   0.741   4.149  0.0658 -0.0391 -0.0366
 2550SOL    HW210246   2.383   0.690   4.216  1.5268 -0.9025  0.3161
 2550SOL    HW310247   2.522   0.724   4.165  0.5570  2.3185 -0.2538
 2550SOL    MW410248   2.435   0.732   4.160  0.3233  0.1581 -0.0191
 2551SOL     OW10249   3.424   4.646   3.932 -0.0458  0.1953 -0.1169
 2551SOL    HW210250   3.428   4.657   4.027 -1.0119  1.4465 -0.2023
 2551SOL    HW310251   3.498   4.697   3.899 -0.6658  1.1274 -0.1119
 2551SOL    MW410252   3.434   4.654   3.940 -0.2549  0.4830 -0.1278
 2552SOL     OW10253   2.686   0.355   4.192  0.1246 -0.4103  0.3453
 2552SOL    HW210254   2.723   0.275   4.229  0.1092 -0.5461  0.0710
 2552SOL    HW310255   2.703   0.348   4.098  0.9997  0.3688  0.4346
 2552SOL    MW410256   2.693   0.344   4.184  0.2379 -0.3254  0.3214
 2553SOL     OW10257   0.562   0.477   4.474  0.2698 -0.2670  0.0531
 2553SOL    HW210258   0.498   0.507   4.410 -0.8257  2.5348  2.3668
 2553SOL    HW310259   0.639   0.532   4.459 -0.2851  0.9589  1.6614
 2553SOL    MW410260   0.564   0.488   4.464  0.0521  0.2644  0.5713
 2554SOL     OW10261   4.419   3.372   4.147  0.0924 -0.3222 -0.0594
 2554SOL    HW210262   4.338   3.371   4.197 -0.8588  0.1030 -1.5734
 2554SOL    HW310263   4.459   3.286   4.163  0.0102 -0.0426  1.7331
 2554SOL    MW410264   4.414   3.360   4.156 -0.0439 -0.2291 -0.0229
 2555SOL     OW10265   1.090   0.223   4.582  0.3439  0.4673  0.0862
 2555SOL    HW210266   1.172   0.227   4.631  0.9417 -2.0861 -0.6422
 2555SOL    HW310267   1.117   0.205   4.492 -0.9718  0.6839 -0.3606
 2555SOL    MW410268   1.105   0.221   4.576  0.2491  0.1590 -0.0691
 2556SOL     OW10269   0.349   3.466   4.651 -0.7231 -0.3135 -0.1947
 2556SOL    HW210270   0.344   3.397   4.716  0.2157  0.0766  0.2946
 2556SOL    HW310271   0.442   3.479   4.636 -0.8371  1.6665  0.6058
 2556SOL    MW410272   0.360   3.459   4.657 -0.6142 -0.0005 -0.0248
 2557SOL     OW10273   2.162   0.903   4.136 -0.1075  0.1602  0.6831
 2557SOL    HW210274   2.248   0.862   4.130  0.5609  1.5799  0.3057
 2557SOL    HW310275   2.177   0.994   4.110 -1.8302  0.2827  0.0376
 2557SOL    MW410276   2.175   0.910   4.132 -0.2468  0.3637  0.5484
 2558SOL     OW10277   1.812   3.342   4.648 -0.1599  0.2139  0.3509
 2558SOL    HW210278   1.886   3.368   4.594 -0.1652  0.1984  0.3368
 2558SOL    HW310279   1.850   3.296   4.723 -0.0602  1.3559  1.0169
 2558SOL    MW410280   1.827   3.339   4.651 -0.1473  0.3624  0.4368
 2559SOL     OW10281   1.696   0.707   4.124 -0.5445 -0.5999  0.0257
 2559SOL    HW210282   1.660   0.638   4.180 -0.3305 -0.0648  0.8367
 2559SOL    HW310283   1.684   0.788   4.174 -0.1463 -0.1376 -0.6072
 2559SOL    MW410284   1.690   0.709   4.138 -0.4637 -0.4683  0.0491
 2560SOL     OW10285   0.774   1.518   4.528  0.3380  0.1226 -0.2626
 2560SOL    HW210286   0.859   1.516   4.485  0.9264 -1.6225  0.9507
 2560SOL    HW310287   0.763   1.610   4.555  0.7409  0.8540 -2.5220
 2560SOL    MW410288   0.783   1.530   4.526  0.4688 -0.0111 -0.4005
 2561SOL     OW10289   3.478   2.346   4.151  0.3172  0.2136 -0.1679
 2561SOL    HW210290   3.461   2.295   4.230 -1.1433 -0.5187 -0.9170
 2561SOL    HW310291   3.466   2.437   4.178 -1.0665 -0.0800  0.2631
 2561SOL    MW410292   3.474   2.351   4.165 -0.0579  0.0782 -0.2098
 2562SOL     OW10293   3.287   4.290   4.703  0.0570 -0.1619  0.4502
 2562SOL    HW210294   3.265   4.203   4.668  0.4425  1.1655 -3.2986
 2562SOL    HW310295   3.202   4.333   4.716 -0.1744 -1.3137  3.0772
 2562SOL    MW410296   3.273   4.284   4.700  0.0772 -0.1388  0.3028
 2563SOL     OW10297   3.004   2.854   4.256 -0.0204 -0.1997 -0.1280
 2563SOL    HW210298   2.982   2.838   4.164  0.0200  0.3082 -0.2271
 2563SOL    HW310299   2.922   2.885   4.295 -0.0742 -0.5522  0.0397
 2563SOL    MW410300   2.990   2.856   4.249 -0.0222 -0.1791 -0.1183
 2564SOL     OW10301   4.117   2.432   4.421  0.2969 -0.3466  0.0959
 2564SOL    HW210302   4.138   2.519   4.386  0.9883 -0.1457  0.9737
 2564SOL    HW310303   4.139   2.372   4.350  0.3789  0.1521 -0.3077
 2564SOL    MW410304   4.123   2.436   4.407  0.3982 -0.2544  0.1588
 2565SOL     OW10305   2.438   1.991   3.840 -0.2466 -0.4604  0.3471
 2565SOL    HW210306   2.355   1.945   3.851  0.7935 -2.7208 -1.0519
 2565SOL    HW310307   2.505   1.924   3.851  1.3439  1.0270 -0.1018
 2565SOL    MW410308   2.436   1.976   3.843  0.1001 -0.5624  0.1032
 2566SOL     OW10309   3.183   2.587   4.166 -0.2744  0.3875  0.3784
 2566SOL    HW210310   3.157   2.634   4.246 -0.2822  0.9180  0.0694
 2566SOL    HW310311   3.279   2.591   4.166 -0.3299  3.3412 -1.3484
 2566SOL    MW410312   3.192   2.594   4.177 -0.2828  0.8471  0.1101
 2567SOL     OW10313   4.202   3.667   4.596 -0.5255 -0.5578 -0.3447
 2567SOL    HW210314   4.119   3.707   4.624 -0.1023  0.1426 -0.0767
 2567SOL    HW310315   4.265   3.739   4.598  0.0958 -1.0938 -0.5261
 2567SOL    MW410316   4.199   3.682   4.600 -0.3881 -0.5357 -0.3328
 2568SOL     OW10317   1.911   1.197   3.789 -0.0798 -0.1829 -0.1647
 2568SOL    HW210318   1.921   1.102   3.793 -0.7290 -0.2337  0.3743
 2568SOL    HW310319   1.992   1.232   3.826  0.2159 -0.5248 -0.4921
 2568SOL    MW410320   1.923   1.189   3.795 -0.1265 -0.2347 -0.1371
 2569SOL     OW10321   2.625   2.962   4.633  0.2240  0.0117  0.7118
 2569SOL    HW210322   2.630   3.056   4.649  0.2977  0.1041  0.1583
 2569SOL    HW310323   2.711   2.928   4.659  0.5771  0.2579 -0.1027
 2569SOL    MW410324   2.637   2.970   4.638  0.2801  0.0563  0.5312
 2570SOL     OW10325   3.821   4.138   4.560  0.1184 -0.3907  0.2370
 2570SOL    HW210326   3.901   4.136   4.613 -0.6341  0.0413  1.4119
 2570SOL    HW310327   3.808   4.230   4.539 -0.3574 -0.3985  0.4914
 2570SOL    MW410328   3.830   4.150   4.564 -0.0436 -0.3347  0.4258
 2571SOL     OW10329   0.479   4.287   4.189  0.3021  0.3122 -0.0000
 2571SOL    HW210330   0.569   4.315   4.203  0.6107 -0.6292 -0.1005
 2571SOL    HW310331   0.470   4.206   4.238 -0.4331  0.2998 -0.1434
 2571SOL    MW410332   0.490   4.280   4.197  0.2458  0.1864 -0.0324
 2572SOL     OW10333   0.080   2.508   4.510 -0.0640  0.1182  0.3270
 2572SOL    HW210334   0.063   2.575   4.445  0.6514  0.9242  0.9577
 2572SOL    HW310335  -0.004   2.494   4.553 -0.0618  1.0982  0.6560
 2572SOL    MW410336   0.067   2.515   4.507  0.0307  0.3538  0.4539
 2573SOL     OW10337   0.629   0.700   4.874  0.0800  0.5512 -0.4004
 2573SOL    HW210338   0.698   0.639   4.851 -0.0990  1.1383 -2.6244
 2573SOL    HW310339   0.556   0.677   4.817 -0.5441  1.7837 -0.1250
 2573SOL    MW410340   0.628   0.689   4.864 -0.0259  0.7913 -0.6576
 2574SOL     OW10341   2.322   0.061   4.307 -0.3425  0.5022 -0.5487
 2574SOL    HW210342   2.341  -0.031   4.287 -1.3262 -0.1211  1.3514
 2574SOL    HW310343   2.236   0.077   4.269 -0.4638  0.4508 -0.2962
 2574SOL    MW410344   2.313   0.051   4.299 -0.4883  0.4132 -0.2646
 2575SOL     OW10345   0.843   4.507   4.556  0.0491  0.4240 -0.1978
 2575SOL    HW210346   0.928   4.504   4.512  1.2925  1.8410  2.0339
 2575SOL    HW310347   0.837   4.596   4.590 -1.9148  0.0394  0.5192
 2575SOL    MW410348   0.853   4.518   4.555 -0.0459  0.5598  0.1907
 2576SOL     OW10349   0.526   0.862   4.555 -0.0403  0.2853 -0.2068
 2576SOL    HW210350   0.609   0.893   4.590 -0.0689  1.6193 -1.2686
 2576SOL    HW310351   0.462   0.929   4.581 -0.3010  0.5920 -1.5704
 2576SOL    MW410352   0.528   0.875   4.563 -0.0784  0.5018 -0.5274
 2577SOL     OW10353   4.479   1.083   4.614 -0.5971  0.0286 -0.1098
 2577SOL    HW210354   4.568   1.083   4.578 -0.2203 -0.2046  0.8016
 2577SOL    HW310355   4.478   1.008   4.675 -1.3951  0.0698 -0.0692
 2577SOL    MW410356   4.491   1.073   4.617 -0.6527  0.0033  0.0157
 2578SOL     OW10357   2.001   2.287   3.898 -0.0695  0.0721  0.1905
 2578SOL    HW210358   1.977   2.272   3.990  3.0287  0.2399  1.0741
 2578SOL    HW310359   2.009   2.199   3.861  0.3794 -0.0442  0.5562
 2578SOL    MW410360   1.999   2.273   3.905  0.3986  0.0789  0.3552
 2579SOL     OW10361   3.176   1.415   4.321 -0.4952  0.5929 -0.4280
 2579SOL    HW210362   3.249   1.468   4.289 -1.0584  0.8776 -1.2483
 2579SOL    HW310363   3.100   1.445   4.271 -0.7179 -1.3962 -1.3367
 2579SOL    MW410364   3.176   1.426   4.310 -0.5987  0.3681 -0.6566
 2580SOL     OW10365   1.381   0.296   4.549  0.4927  0.3511 -0.3406
 2580SOL    HW210366   1.340   0.349   4.480 -1.5768 -0.2657  0.3656
 2580SOL    HW310367   1.373   0.206   4.517  1.4464  0.2336 -0.2507
 2580SOL    MW410368   1.374   0.291   4.535  0.3455  0.2542 -0.2356
 2581SOL     OW10369   3.049   1.635   4.778 -0.1785  0.4557  0.5667
 2581SOL    HW210370   2.995   1.603   4.706 -0.7379  1.9795  0.2781
 2581SOL    HW310371   3.113   1.566   4.792 -0.1462  0.0562 -1.3078
 2581SOL    MW410372   3.050   1.622   4.770 -0.2482  0.6042  0.2813
 2582SOL     OW10373   3.977   0.615   4.634 -0.4237 -0.2142  0.0562
 2582SOL    HW210374   3.991   0.629   4.541  0.9189  0.9599  0.4149
 2582SOL    HW310375   4.034   0.679   4.677 -2.6472  0.7939  1.6608
 2582SOL    MW410376   3.986   0.626   4.628 -0.5400  0.0737  0.3157
 2583SOL     OW10377   0.266   1.418   4.408 -0.0343 -0.2345 -0.3935
 2583SOL    HW210378   0.311   1.452   4.486 -1.1204  0.4394 -0.0633
 2583SOL    HW310379   0.301   1.470   4.336  1.2017 -1.0632 -0.4100
 2583SOL    MW410380   0.277   1.429   4.409 -0.0145 -0.2551 -0.3514
 2584SOL     OW10381   0.859   3.243   3.851 -0.5659  0.2225  0.2038
 2584SOL    HW210382   0.855   3.262   3.758 -0.9429  2.0231  0.5793
 2584SOL    HW310383   0.771   3.214   3.874 -0.7041  0.6431  0.1938
 2584SOL    MW410384   0.847   3.242   3.842 -0.6339  0.5157  0.2520
 2585SOL     OW10385   4.194   1.196   4.407  0.5101 -0.4439 -0.0850
 2585SOL    HW210386   4.268   1.183   4.348 -0.0464 -0.8997 -0.7046
 2585SOL    HW310387   4.125   1.230   4.350  0.2109 -0.1477  0.4580
 2585SOL    MW410388   4.194   1.199   4.391  0.3977 -0.4652 -0.0944
 2586SOL     OW10389   0.946   3.817   4.701  0.2634 -0.0631  0.1673
 2586SOL    HW210390   1.038   3.811   4.725  0.2814 -2.0594 -0.3315
 2586SOL    HW310391   0.909   3.733   4.727 -1.6186  1.0404  1.1573
 2586SOL    MW410392   0.953   3.805   4.708  0.0175 -0.1810  0.2322
 2587SOL     OW10393   2.476   4.021   3.823 -0.5693  0.1197 -0.0329
 2587SOL    HW210394   2.445   4.011   3.912 -0.1761 -1.4742 -0.0714
 2587SOL    HW310395   2.485   3.932   3.789  2.1977  0.5545 -0.6273
 2587SOL    MW410396   2.473   4.008   3.830 -0.1526 -0.0334 -0.1163
 2588SOL     OW10397   2.906   2.595   4.535 -0.1553 -0.0609 -0.0132
 2588SOL    HW210398   2.882   2.529   4.600 -1.1447 -0.9853 -1.3039
 2588SOL    HW310399   2.877   2.559   4.452  0.4238  1.4547 -0.8952
 2588SOL    MW410400   2.899   2.582   4.533 -0.2093  0.0172 -0.3004
 2589SOL     OW10401   0.632   3.136   3.939 -0.4459 -0.4985  0.0961
 2589SOL    HW210402   0.653   3.044   3.924  0.2390 -0.4079  0.4846
 2589SOL    HW310403   0.614   3.142   4.033 -0.6174 -0.2569  0.0480
 2589SOL    MW410404   0.632   3.125   3.949 -0.3782 -0.4547  0.1407
 2590SOL     OW10405   1.960   2.943   4.139 -0.3371 -0.3832 -0.3379
 2590SOL    HW210406   2.016   2.868   4.157 -0.5423 -0.6173 -0.6522
 2590SOL    HW310407   1.955   2.991   4.222  0.9787  0.0866 -0.5285
 2590SOL    MW410408   1.967   2.940   4.152 -0.1906 -0.3521 -0.4044
 2591SOL     OW10409   3.534   4.090   4.584  0.2853  0.2465 -0.1273
 2591SOL    HW210410   3.622   4.126   4.586 -0.5066  2.3998 -1.5161
 2591SOL    HW310411   3.501   4.103   4.673  1.2180 -0.2218  0.2955
 2591SOL    MW410412   3.541   4.096   4.596  0.3037  0.4687 -0.2542
 2592SOL     OW10413   3.394   3.962   4.195  0.7644 -0.2732  0.0508
 2592SOL    HW210414   3.313   3.919   4.221  0.7400 -1.1124 -1.3408
 2592SOL    HW310415   3.388   4.050   4.233 -0.4056 -0.6100  0.6662
 2592SOL    MW410416   3.382   3.968   4.203  0.6073 -0.4287 -0.0515
 2593SOL     OW10417   0.430   1.107   4.177 -0.1098  0.0846 -0.0366
 2593SOL    HW210418   0.458   1.018   4.197 -1.0987 -0.5747 -1.4937
 2593SOL    HW310419   0.411   1.106   4.083 -3.1005  1.0231  0.5115
 2593SOL    MW410420   0.431   1.095   4.167 -0.6349  0.1215 -0.1559
 2594SOL     OW10421   1.813   4.313   3.878 -0.1146 -0.1851  0.2277
 2594SOL    HW210422   1.822   4.272   3.964 -0.0785 -0.1169  0.2567
 2594SOL    HW310423   1.889   4.372   3.871  0.2124 -0.6343 -0.0987
 2594SOL    MW410424   1.824   4.316   3.888 -0.0666 -0.2356  0.1884
 2595SOL     OW10425   1.045   3.667   4.337  0.3818 -0.1145 -0.2993
 2595SOL    HW210426   1.118   3.708   4.290  1.0461  0.0584  0.8720
 2595SOL    HW310427   1.077   3.657   4.427 -0.6019 -1.1371 -0.0552
 2595SOL    MW410428   1.059   3.671   4.343  0.3396 -0.2265 -0.1125
 2596SOL     OW10429   2.757   2.951   4.372 -0.5392  0.8431  0.1931
 2596SOL    HW210430   2.715   2.959   4.458 -1.5167  1.7472 -0.3503
 2596SOL    HW310431   2.695   2.899   4.320  0.6333 -0.7922  0.4006
 2596SOL    MW410432   2.743   2.945   4.376 -0.5136  0.7465  0.1493
 2597SOL     OW10433   1.761   3.445   4.167 -0.0186 -0.1109 -0.3713
 2597SOL    HW210434   1.801   3.516   4.218 -1.1525 -0.3437  0.8590
 2597SOL    HW310435   1.667   3.455   4.181 -0.2005 -1.7065 -0.3820
 2597SOL    MW410436   1.754   3.456   4.176 -0.1920 -0.3521 -0.2103
 2598SOL     OW10437   3.389   2.336   3.887 -0.0613 -0.3240  0.5091
 2598SOL    HW210438   3.389   2.243   3.865  0.2215 -0.3039  0.4252
 2598SOL    HW310439   3.409   2.339   3.980 -0.1853 -0.3525  0.5371
 2598SOL    MW410440   3.392   2.324   3.896 -0.0403 -0.3252  0.5016
 2599SOL     OW10441   0.430   2.675   3.899 -0.2828  0.0539 -0.5826
 2599SOL    HW210442   0.443   2.666   3.994  0.3236  0.9212 -0.5744
 2599SOL    HW310443   0.350   2.726   3.891  0.4389  1.2268 -0.5013
 2599SOL    MW410444   0.421   2.681   3.911 -0.1076  0.3233 -0.5710
 2600SOL     OW10445   1.406   1.534   4.267  0.2840  0.4127  0.3097
 2600SOL    HW210446   1.434   1.537   4.359  0.5078 -1.8088  0.3443
 2600SOL    HW310447   1.345   1.461   4.263  1.4533 -0.5108 -1.6111
 2600SOL    MW410448   1.402   1.525   4.279  0.4679 -0.0023  0.0615
 2601SOL     OW10449   1.039   1.492   4.447  0.2129 -0.3399 -0.1162
 2601SOL    HW210450   1.073   1.512   4.360 -1.8701 -2.2498 -1.4083
 2601SOL    HW310451   1.074   1.562   4.503 -0.0270  2.0387 -2.8465
 2601SOL    MW410452   1.048   1.504   4.443 -0.0937 -0.2780 -0.6471
 2602SOL     OW10453   2.748   2.188   4.645 -0.1052 -0.5014 -0.1734
 2602SOL    HW210454   2.823   2.244   4.666 -0.7689  0.0830  0.6407
 2602SOL    HW310455   2.687   2.246   4.599 -1.2720 -0.2708  1.6367
 2602SOL    MW410456   2.750   2.203   4.641 -0.3469 -0.3939  0.1721
 2603SOL     OW10457   0.376   2.488   4.536 -0.0992  0.4978 -0.3885
 2603SOL    HW210458   0.383   2.470   4.443 -0.4592  1.0147 -0.5180
 2603SOL    HW310459   0.282   2.490   4.553 -0.0847  2.4291 -0.4223
 2603SOL    MW410460   0.365   2.486   4.526 -0.1448  0.8206 -0.4091
 2604SOL     OW10461   1.899   4.507   4.304 -0.0407 -0.4236 -0.3092
 2604SOL    HW210462   1.963   4.439   4.324 -1.9568 -2.2721 -0.3062
 2604SOL    HW310463   1.853   4.522   4.387  1.4117  2.0831  0.1177
 2604SOL    MW410464   1.901   4.500   4.318 -0.1019 -0.3362 -0.2522
 2605SOL     OW10465   1.141   3.579   4.569 -0.2674  0.7878  0.1961
 2605SOL    HW210466   1.053   3.579   4.605 -0.9921 -0.9579 -1.5496
 2605SOL    HW310467   1.184   3.653   4.613 -2.5559  1.6445  1.0743
 2605SOL    MW410468   1.135   3.589   4.580 -0.6651  0.6707  0.0815
 2606SOL     OW10469   3.903   3.105   4.126  0.0984 -0.1900  0.4000
 2606SOL    HW210470   3.875   3.081   4.038  1.9937 -0.3951 -0.1836
 2606SOL    HW310471   3.823   3.129   4.172 -0.8220  0.6807 -1.6217
 2606SOL    MW410472   3.889   3.105   4.120  0.2267 -0.1020  0.0563
 2607SOL     OW10473   0.928   4.217   4.141  0.3144 -0.2048  0.2718
 2607SOL    HW210474   0.873   4.138   4.150 -0.4153  0.2757  0.0983
 2607SOL    HW310475   0.930   4.235   4.047  2.5559 -1.4531  0.0579
 2607SOL    MW410476   0.921   4.209   4.130  0.5139 -0.3061  0.2208
 2608SOL     OW10477   1.319   0.574   4.359  0.0890 -0.3463  0.1092
 2608SOL    HW210478   1.412   0.572   4.382  0.0198 -0.3188  0.3879
 2608SOL    HW310479   1.277   0.620   4.432 -0.1245 -0.2431 -0.0786
 2608SOL    MW410480   1.326   0.580   4.372  0.0517 -0.3290  0.1211
 2609SOL     OW10481   4.290   0.710   4.261 -0.1912 -0.1030  0.0943
 2609SOL    HW210482   4.292   0.718   4.166 -0.5175 -0.4925  0.0529
 2609SOL    HW310483   4.308   0.799   4.293 -0.9719  0.2091 -0.3341
 2609SOL    MW410484   4.293   0.723   4.253 -0.3371 -0.1132  0.0329
 2610SOL     OW10485   0.216   4.421   4.752  0.3646 -0.0497  0.0677
 2610SOL    HW210486   0.302   4.456   4.775 -0.2507 -0.0300  2.4186
 2610SOL    HW310487   0.153   4.486   4.786 -0.6296 -0.9558 -0.0030
 2610SOL    MW410488   0.219   4.434   4.759  0.1523 -0.1669  0.3691
 2611SOL     OW10489   3.479   1.914   4.398 -0.2156  0.4345  0.4003
 2611SOL    HW210490   3.411   1.850   4.420 -1.6431  1.8818  0.2812
 2611SOL    HW310491   3.543   1.906   4.468 -1.0155 -0.2172  1.0740
 2611SOL    MW410492   3.479   1.904   4.410 -0.5095  0.5395  0.4740
 2612SOL     OW10493   1.921   3.694   4.535  0.5443 -0.0230  0.1739
 2612SOL    HW210494   1.870   3.739   4.603  0.3665  0.2351 -0.1283
 2612SOL    HW310495   1.976   3.763   4.498  3.1365 -0.8205  2.3487
 2612SOL    MW410496   1.921   3.709   4.539  0.8630 -0.0942  0.4210
 2613SOL     OW10497   3.078   1.303   4.553 -0.1619  0.9819  0.1774
 2613SOL    HW210498   3.141   1.331   4.487  0.6933 -0.8157  0.1934
 2613SOL    HW310499   3.112   1.338   4.635  1.8045 -1.4136  0.4401
 2613SOL    MW410500   3.091   1.312   4.555  0.2105  0.4288  0.2141
 2614SOL     OW10501   2.719   0.362   3.921  0.3517  0.3967  0.0313
 2614SOL    HW210502   2.663   0.413   3.862  1.2060  0.2745 -0.8951
 2614SOL    HW310503   2.712   0.272   3.889  0.5319  0.2692  0.3474
 2614SOL    MW410504   2.711   0.357   3.909  0.4880  0.3637 -0.0494
 2615SOL     OW10505   3.468   4.425   4.531 -0.2707 -0.3723 -0.4513
 2615SOL    HW210506   3.469   4.361   4.459  0.1652 -1.8646  0.8490
 2615SOL    HW310507   3.421   4.380   4.601  1.5558  0.0768  1.0664
 2615SOL    MW410508   3.462   4.411   4.530  0.0279 -0.5102 -0.0796
 2616SOL     OW10509   3.347   4.661   4.475 -0.1072  0.7891 -0.1383
 2616SOL    HW210510   3.383   4.576   4.499  0.5742  0.8429 -0.9128
 2616SOL    HW310511   3.324   4.703   4.558  0.2044  0.1308  0.2788
 2616SOL    MW410512   3.349   4.655   4.489  0.0236  0.7095 -0.1850
 2617SOL     OW10513   0.906   2.355   4.611  0.0353  0.0661 -0.5806
 2617SOL    HW210514   0.992   2.391   4.633 -0.0895 -0.2274  0.4263
 2617SOL    HW310515   0.844   2.412   4.657 -0.2392 -0.4754 -0.2665
 2617SOL    MW410516   0.909   2.367   4.620 -0.0175 -0.0441 -0.4063
 2618SOL     OW10517   4.073   2.431   3.801 -0.4128 -0.0225  0.1399
 2618SOL    HW210518   3.995   2.378   3.816 -1.2180  0.2375 -2.7326
 2618SOL    HW310519   4.054   2.515   3.843 -0.8862 -0.5706  1.0343
 2618SOL    MW410520   4.060   2.435   3.808 -0.5817 -0.0603 -0.1211
 2619SOL     OW10521   2.953   2.034   4.493  0.0398  0.5682  0.2088
 2619SOL    HW210522   2.871   2.067   4.529  0.2906  1.4809 -0.0560
 2619SOL    HW310523   2.931   1.947   4.460 -0.4304  0.1057  1.6567
 2619SOL    MW410524   2.939   2.027   4.494  0.0110  0.6278  0.3648
 2620SOL     OW10525   0.622   3.497   4.575 -0.1317  0.5976 -0.0558
 2620SOL    HW210526   0.640   3.504   4.481 -0.0443  1.5750  0.0320
 2620SOL    HW310527   0.611   3.403   4.590 -0.7002  0.4793 -1.1491
 2620SOL    MW410528   0.623   3.485   4.565 -0.1951  0.7110 -0.1888
 2621SOL     OW10529   0.768   0.950   4.965  0.5996 -0.3831 -0.4131
 2621SOL    HW210530   0.744   0.861   4.940 -0.9415 -0.1049  0.0266
 2621SOL    HW310531   0.807   0.941   5.052 -0.2600 -0.5437 -0.0400
 2621SOL    MW410532   0.770   0.937   4.973  0.2829 -0.3676 -0.3061
 2622SOL     OW10533   2.120   3.345   4.262  0.0134 -0.1247 -0.4891
 2622SOL    HW210534   2.202   3.296   4.267  0.5648  0.7647 -0.5318
 2622SOL    HW310535   2.052   3.279   4.257  0.6110 -0.9015  1.3207
 2622SOL    MW410536   2.122   3.330   4.262  0.1652 -0.1099 -0.2561
 2623SOL     OW10537   3.825   0.468   3.871 -0.1102 -0.2855  0.4493
 2623SOL    HW210538   3.899   0.422   3.910 -0.3848 -1.4997 -0.3898
 2623SOL    HW310539   3.836   0.559   3.895  1.3734 -0.5484  0.7699
 2623SOL    MW410540   3.836   0.474   3.879  0.0494 -0.4804  0.3808
 2624SOL     OW10541   4.478   3.975   3.803 -0.6364  0.2762 -0.3761
 2624SOL    HW210542   4.478   4.060   3.847  0.1975  1.0213 -1.7667
 2624SOL    HW310543   4.555   3.931   3.835 -0.4237  0.5304 -0.5311
 2624SOL    MW410544   4.488   3.981   3.813 -0.4978  0.4079 -0.5803
 2625SOL     OW10545   0.966   1.199   4.179 -0.0766  0.1905  0.4276
 2625SOL    HW210546   0.991   1.115   4.217  1.1406  0.2069 -0.3187
 2625SOL    HW310547   1.039   1.257   4.198 -0.1803  0.6336 -0.4994
 2625SOL    MW410548   0.979   1.195   4.186  0.0703  0.2513  0.2069
 2626SOL     OW10549   2.349   2.435   4.382  0.5756  0.4129 -0.0907
 2626SOL    HW210550   2.281   2.392   4.433 -0.1074  1.4366 -0.1202
 2626SOL    HW310551   2.341   2.397   4.294  0.6033 -0.0778  0.1155
 2626SOL    MW410552   2.339   2.424   4.377  0.4892  0.4833 -0.0672
 2627SOL     OW10553   0.031   0.328   4.747 -0.2087 -0.6567 -0.4708
 2627SOL    HW210554   0.064   0.269   4.679 -0.8086 -2.4258  0.7510
 2627SOL    HW310555  -0.053   0.290   4.773 -1.2521  1.4923 -0.6148
 2627SOL    MW410556   0.024   0.315   4.741 -0.4255 -0.6066 -0.3285
 2628SOL     OW10557   0.620   0.070   4.861  0.3614 -0.1682  0.4291
 2628SOL    HW210558   0.698   0.038   4.907  0.4704 -0.7485 -0.1516
 2628SOL    HW310559   0.649   0.150   4.818  0.7711 -0.6307 -0.1683
 2628SOL    MW410560   0.634   0.076   4.862  0.4299 -0.3058  0.2742
 2629SOL     OW10561   2.059   3.860   4.152  0.9488  0.3896  0.1998
 2629SOL    HW210562   2.130   3.796   4.153 -0.9879 -1.8665  2.1138
 2629SOL    HW310563   2.026   3.859   4.062  0.4507 -1.9468  0.3762
 2629SOL    MW410564   2.064   3.851   4.141  0.6273 -0.2162  0.4759
 2630SOL     OW10565   3.751   4.402   4.538  0.2589  0.0359 -0.2810
 2630SOL    HW210566   3.798   4.469   4.488  0.5266  0.2175  0.2052
 2630SOL    HW310567   3.660   4.430   4.537  0.5118  0.9176  0.7215
 2630SOL    MW410568   3.745   4.415   4.531  0.3276  0.1764 -0.0849
 2631SOL     OW10569   3.647   3.246   4.537 -0.1350  0.1701  0.0401
 2631SOL    HW210570   3.575   3.283   4.587 -0.2667  0.0566 -0.0664
 2631SOL    HW310571   3.672   3.167   4.585  0.5458  0.7173  0.6061
 2631SOL    MW410572   3.641   3.241   4.550 -0.0627  0.2272  0.1006
 2632SOL     OW10573   0.166   0.030   4.315  0.1633 -0.0840  0.2795
 2632SOL    HW210574   0.244   0.077   4.286 -0.2213  1.0750  1.0780
 2632SOL    HW310575   0.141   0.074   4.396 -2.6494  1.0880 -1.1559
 2632SOL    MW410576   0.173   0.042   4.322 -0.2586  0.2235  0.1950
 2633SOL     OW10577   4.037   2.715   3.903  0.4824 -0.1272  0.9076
 2633SOL    HW210578   4.045   2.723   3.998  2.5897  1.6875  0.6162
 2633SOL    HW310579   4.127   2.720   3.871 -0.2349 -0.3787 -1.2080
 2633SOL    MW410580   4.050   2.717   3.911  0.6657  0.0792  0.5898
 2634SOL     OW10581   2.677   2.443   3.891 -0.1275 -0.1190  0.3534
 2634SOL    HW210582   2.678   2.516   3.954 -0.2668  0.7866 -0.6718
 2634SOL    HW310583   2.616   2.380   3.929  0.1243  0.2187  1.3415
 2634SOL    MW410584   2.669   2.445   3.904 -0.1128  0.0448  0.3483
 2635SOL     OW10585   3.798   2.832   3.812 -0.2739  0.4595  0.1720
 2635SOL    HW210586   3.875   2.795   3.853  0.0099 -0.5565 -1.2413
 2635SOL    HW310587   3.725   2.777   3.842 -0.4372  1.2867  1.3317
 2635SOL    MW410588   3.798   2.820   3.821 -0.2582  0.4346  0.1383
 2636SOL     OW10589   1.686   2.883   4.468 -0.1564 -0.0478 -0.1854
 2636SOL    HW210590   1.692   2.870   4.374  2.2557 -0.7152  0.0409
 2636SOL    HW310591   1.694   2.977   4.480  1.7511 -0.1532 -0.5157
 2636SOL    MW410592   1.688   2.894   4.457  0.4137 -0.1502 -0.1993
 2637SOL     OW10593   0.324   0.231   4.187  0.1703 -0.1040  0.2127
 2637SOL    HW210594   0.387   0.187   4.245 -0.8974 -2.0907 -0.0856
 2637SOL    HW310595   0.318   0.320   4.222  1.4430 -0.5352  1.6122
 2637SOL    MW410596   0.332   0.237   4.199  0.1974 -0.4230  0.3581
 2638SOL     OW10597   1.145   1.240   4.513 -0.3407 -0.0264  0.0347
 2638SOL    HW210598   1.225   1.262   4.560  0.8696 -0.5774 -1.7141
 2638SOL    HW310599   1.097   1.323   4.505  0.6344  0.5338  0.0012
 2638SOL    MW410600   1.149   1.254   4.518 -0.0523 -0.0253 -0.2007
 2639SOL     OW10601   3.810   0.722   4.184 -0.2488 -0.2625  0.3787
 2639SOL    HW210602   3.777   0.800   4.228  0.0501  0.1637 -0.1504
 2639SOL    HW310603   3.886   0.695   4.236  1.4006  1.4678 -1.0507
 2639SOL    MW410604   3.816   0.729   4.196  0.0083  0.0220  0.1206
 2640SOL     OW10605   3.470   2.883   4.288  0.1416  0.1189  0.3658
 2640SOL    HW210606   3.565   2.888   4.294  0.0162  1.8493  1.1371
 2640SOL    HW310607   3.444   2.965   4.245 -0.9842 -0.3959  0.0386
 2640SOL    MW410608   3.479   2.894   4.283 -0.0236  0.2794  0.4244
 2641SOL     OW10609   1.380   4.050   3.830  0.6461 -0.0728 -0.3456
 2641SOL    HW210610   1.367   4.026   3.738 -1.8722 -2.3911  0.5426
 2641SOL    HW310611   1.450   3.993   3.861  1.2017  0.4132 -0.6904
 2641SOL    MW410612   1.387   4.039   3.822  0.3872 -0.3152 -0.2739
 2642SOL     OW10613   1.232   0.827   4.200  0.1909 -0.0795 -0.2119
 2642SOL    HW210614   1.193   0.814   4.113  0.0511  0.3827 -0.2197
 2642SOL    HW310615   1.242   0.738   4.235 -0.2680 -0.2372 -0.4725
 2642SOL    MW410616   1.228   0.813   4.193  0.1118 -0.0393 -0.2475
 2643SOL     OW10617   1.338   0.032   4.500 -0.0804 -0.1249 -0.2035
 2643SOL    HW210618   1.387  -0.043   4.535 -1.2133 -0.9989 -0.4519
 2643SOL    HW310619   1.369   0.041   4.410  1.2156  0.7171  0.3192
 2643SOL    MW410620   1.349   0.023   4.493 -0.0589 -0.1292 -0.1678
 2644SOL     OW10621   3.793   3.909   3.864  0.0347 -0.2445 -0.6344
 2644SOL    HW210622   3.805   3.909   3.959  1.4514  0.1038 -0.7974
 2644SOL    HW310623   3.879   3.932   3.829 -0.2765 -1.1566 -2.0325
 2644SOL    MW410624   3.806   3.912   3.872  0.1805 -0.3190 -0.8402
 2645SOL     OW10625   0.637   2.864   3.837  0.2110  0.2775  0.0326
 2645SOL    HW210626   0.549   2.832   3.854  0.2963 -0.3890 -0.7551
 2645SOL    HW310627   0.651   2.849   3.743  1.4639 -0.3692  0.3070
 2645SOL    MW410628   0.627   2.858   3.827  0.3875  0.1042 -0.0353
 2646SOL     OW10629   4.485   2.684   3.970 -0.0055 -0.6760 -0.1310
 2646SOL    HW210630   4.568   2.714   3.934 -0.5035  0.9372  0.0283
 2646SOL    HW310631   4.419   2.712   3.907 -0.5910 -0.4550  0.5642
 2646SOL    MW410632   4.487   2.691   3.957 -0.1483 -0.4339 -0.0181
 2647SOL     OW10633   0.142   4.500   4.150 -0.1062  0.0682  0.2193
 2647SOL    HW210634   0.142   4.570   4.216  0.8931  0.9381 -0.6732
 2647SOL    HW310635   0.217   4.446   4.173 -0.4712 -0.3236  0.4981
 2647SOL    MW410636   0.152   4.502   4.162 -0.0225  0.1321  0.1378
 2648SOL     OW10637   0.564   3.242   4.643 -0.1344 -0.0488  0.3252
 2648SOL    HW210638   0.649   3.201   4.625 -0.3966 -1.0222  1.2327
 2648SOL    HW310639   0.500   3.184   4.600 -0.4839 -0.4304  1.3425
 2648SOL    MW410640   0.567   3.229   4.635 -0.2152 -0.2277  0.5794
 2649SOL     OW10641   0.212   3.875   3.893 -0.1241 -0.0996 -0.3110
 2649SOL    HW210642   0.210   3.878   3.988 -0.7924  0.8443 -0.3473
 2649SOL    HW310643   0.279   3.940   3.868 -1.1353  0.8773 -0.5271
 2649SOL    MW410644   0.221   3.884   3.902 -0.3457  0.1540 -0.3443
 2650SOL     OW10645   0.627   4.145   4.708  0.0943  0.3301  0.4737
 2650SOL    HW210646   0.624   4.239   4.689  0.2623  0.2784  0.1895
 2650SOL    HW310647   0.704   4.113   4.662 -1.5133 -0.4616 -1.7782
 2650SOL    MW410648   0.636   4.153   4.700 -0.0957  0.2184  0.1392
 2651SOL     OW10649   3.145   4.292   3.938 -0.6022  0.1574  0.2466
 2651SOL    HW210650   3.154   4.306   4.033 -2.0362  1.0632  0.2756
 2651SOL    HW310651   3.229   4.319   3.902 -0.2488  0.3923  1.2166
 2651SOL    MW410652   3.157   4.297   3.946 -0.7446  0.3080  0.3781
 2652SOL     OW10653   2.055   3.908   4.413  0.1187 -0.0384 -0.0317
 2652SOL    HW210654   2.144   3.930   4.441 -0.3184 -1.0806  2.3255
 2652SOL    HW310655   2.049   3.940   4.323  2.4415  1.2096  0.2264
 2652SOL    MW410656   2.066   3.915   4.405  0.3674 -0.0114  0.3133
 2653SOL     OW10657   3.736   3.014   4.658  0.1279  0.2341  0.4443
 2653SOL    HW210658   3.649   2.975   4.660  0.2098  0.0752  0.7556
 2653SOL    HW310659   3.797   2.940   4.662  0.2831  0.3933  1.1248
 2653SOL    MW410660   3.733   2.999   4.659  0.1590  0.2344  0.5751
 2654SOL     OW10661   2.131   1.206   4.359 -0.0719  0.3781  0.0475
 2654SOL    HW210662   2.167   1.218   4.271 -0.1382 -0.2841 -0.0668
 2654SOL    HW310663   2.102   1.294   4.384 -0.4907  0.4837 -0.7810
 2654SOL    MW410664   2.132   1.219   4.351 -0.1359  0.3047 -0.0763
 2655SOL     OW10665   3.854   3.463   4.474 -0.1901  0.4362 -0.0823
 2655SOL    HW210666   3.875   3.443   4.382  1.9744 -1.0262  0.6873
 2655SOL    HW310667   3.782   3.404   4.495 -1.2800  1.3892 -1.0833
 2655SOL    MW410668   3.847   3.452   4.464 -0.0482  0.3688 -0.1130
 2656SOL     OW10669   1.192   3.155   4.697 -0.1494 -0.2437 -0.1656
 2656SOL    HW210670   1.198   3.201   4.614 -1.4548  1.1751  0.5050
 2656SOL    HW310671   1.282   3.151   4.729  0.0179  1.5200 -0.4134
 2656SOL    MW410672   1.205   3.160   4.690 -0.2995  0.1764 -0.1101
 2657SOL     OW10673   4.020   0.328   4.618 -0.0782  0.0182  0.3980
 2657SOL    HW210674   4.019   0.424   4.618  1.4563  0.0897 -1.5983
 2657SOL    HW310675   3.948   0.303   4.560  1.6450  0.1250 -1.9047
 2657SOL    MW410676   4.010   0.337   4.610  0.3514  0.0418 -0.1698
 2658SOL     OW10677   2.955   1.026   4.601 -0.2710  0.1686  0.2407
 2658SOL    HW210678   2.999   1.111   4.590  0.5973 -0.4888 -1.5189
 2658SOL    HW310679   3.026   0.962   4.599 -1.0943 -0.7357 -0.2595
 2658SOL    MW410680   2.970   1.029   4.600 -0.2651 -0.0374 -0.0577
 2659SOL     OW10681   2.436   3.829   4.310 -0.6726 -0.5683  0.6058
 2659SOL    HW210682   2.380   3.881   4.367 -0.1380  0.1969  0.4492
 2659SOL    HW310683   2.525   3.857   4.333 -0.4659  0.0742 -0.8844
 2659SOL    MW410684   2.441   3.840   4.320 -0.5748 -0.3824  0.3886
 2660SOL     OW10685   1.399   1.216   3.838 -0.2266 -0.1593  0.3603
 2660SOL    HW210686   1.386   1.121   3.835 -0.8740 -0.1371  1.9987
 2660SOL    HW310687   1.310   1.253   3.832 -0.0053  0.3315  0.0753
 2660SOL    MW410688   1.385   1.208   3.837 -0.2829 -0.0916  0.5388
 2661SOL     OW10689   3.436   1.295   4.506 -0.8735 -0.0187 -0.6481
 2661SOL    HW210690   3.498   1.242   4.557 -1.4358 -0.1763 -0.1136
 2661SOL    HW310691   3.437   1.256   4.419  0.8593  0.8750 -1.0648
 2661SOL    MW410692   3.444   1.283   4.502 -0.7193  0.0786 -0.6323
 2662SOL     OW10693   3.615   0.594   4.381 -0.5497  0.0888  0.0890
 2662SOL    HW210694   3.689   0.635   4.337  0.2372 -1.7032 -0.2738
 2662SOL    HW310695   3.640   0.594   4.474 -1.5702  2.5097  0.4119
 2662SOL    MW410696   3.628   0.600   4.388 -0.5805  0.1718  0.0844
 2663SOL     OW10697   2.733   0.118   4.328 -0.1410  0.1152  0.1271
 2663SOL    HW210698   2.826   0.108   4.310  0.1831  0.9432  1.2843
 2663SOL    HW310699   2.698   0.029   4.325  0.5616 -0.1324 -0.9214
 2663SOL    MW410700   2.741   0.105   4.325 -0.0057  0.1918  0.1416
 2664SOL     OW10701   1.754   0.236   4.286  0.2672  0.3559 -0.6031
 2664SOL    HW210702   1.780   0.217   4.376 -1.0195  0.5762 -0.1687
 2664SOL    HW310703   1.828   0.283   4.248  0.7219  0.4647  0.4194
 2664SOL    MW410704   1.767   0.240   4.293  0.1575  0.3993 -0.4115
 2665SOL     OW10705   3.764   2.879   4.331 -0.5453 -0.0718 -0.0854
 2665SOL    HW210706   3.790   2.848   4.418  2.8355  0.6324 -0.7832
 2665SOL    HW310707   3.753   2.974   4.342 -1.3893 -0.1523 -0.1710
 2665SOL    MW410708   3.766   2.887   4.344 -0.2105  0.0105 -0.1893
 2666SOL     OW10709   0.490   4.013   4.266  0.1355 -0.0860  0.1145
 2666SOL    HW210710   0.496   3.997   4.361 -1.4866 -1.2169  0.0432
 2666SOL    HW310711   0.581   4.018   4.237  0.6669 -1.8090  1.4060
 2666SOL    MW410712   0.503   4.011   4.275 -0.0084 -0.4625  0.2751
 2667SOL     OW10713   0.364   2.870   4.330  0.1745  0.1012  0.0052
 2667SOL    HW210714   0.270   2.850   4.335  0.0858  0.0877 -1.3742
 2667SOL    HW310715   0.372   2.955   4.373 -0.5722  0.3780 -0.3791
 2667SOL    MW410716   0.352   2.878   4.336  0.0643  0.1359 -0.2284
 2668SOL     OW10717   1.238   2.589   4.297 -0.8299  0.1663  0.1669
 2668SOL    HW210718   1.223   2.606   4.390 -0.7560  0.5761  0.1070
 2668SOL    HW310719   1.249   2.676   4.259  0.0753 -0.0478 -0.0653
 2668SOL    MW410720   1.237   2.603   4.304 -0.7008  0.1919  0.1287
 2669SOL     OW10721   2.089   1.575   4.144  0.4823  0.2536  0.2509
 2669SOL    HW210722   2.081   1.662   4.182  0.9306  0.2911  0.2620
 2669SOL    HW310723   2.183   1.555   4.148  0.3501 -0.3302  0.4680
 2669SOL    MW410724   2.100   1.584   4.149  0.5238  0.1816  0.2809
 2670SOL     OW10725   1.859   3.170   4.282  0.1246  0.0150 -0.1631
 2670SOL    HW210726   1.802   3.149   4.355  1.0851  1.3091  0.9853
 2670SOL    HW310727   1.801   3.209   4.216 -0.9881 -2.5007 -0.7241
 2670SOL    MW410728   1.844   3.173   4.283  0.1044 -0.1462 -0.0858
 2671SOL     OW10729   2.090   4.287   4.380 -0.0088 -0.1984  0.3789
 2671SOL    HW210730   2.184   4.277   4.393 -0.2759 -2.6608  0.6169
 2671SOL    HW310731   2.053   4.289   4.468 -0.2312  0.3315  0.2776
 2671SOL    MW410732   2.098   4.286   4.393 -0.0734 -0.4535  0.3972
 2672SOL     OW10733   3.376   3.133   4.172 -0.2654  0.3267  0.0880
 2672SOL    HW210734   3.385   3.223   4.202 -2.9768  0.4425  0.6157
 2672SOL    HW310735   3.354   3.141   4.079  0.1024  0.1640 -0.0176
 2672SOL    MW410736   3.374   3.146   4.163 -0.5748  0.3207  0.1440
 2673SOL     OW10737   2.872   3.629   3.861 -0.3863 -0.6912  0.5679
 2673SOL    HW210738   2.937   3.569   3.897 -0.1021  0.1371  1.4534
 2673SOL    HW310739   2.884   3.624   3.766  0.0855 -1.5187  0.6681
 2673SOL    MW410740   2.882   3.621   3.853 -0.2866 -0.6909  0.6979
 2674SOL     OW10741   3.741   2.318   4.126 -0.5666  0.4491 -0.0816
 2674SOL    HW210742   3.773   2.386   4.186 -0.7440 -0.3125  0.8906
 2674SOL    HW310743   3.646   2.326   4.129 -0.5614  0.6853 -0.5856
 2674SOL    MW410744   3.733   2.328   4.135 -0.5896  0.3796 -0.0200
 2675SOL     OW10745   3.037   2.353   4.180  0.1098 -0.0558  0.3709
 2675SOL    HW210746   2.951   2.370   4.219 -0.0926  0.2770 -0.2105
 2675SOL    HW310747   3.081   2.438   4.180 -0.2054  0.1147 -0.8669
 2675SOL    MW410748   3.031   2.366   4.185  0.0415  0.0105  0.1307
 2676SOL     OW10749   1.977   2.570   4.536  0.4493  0.7050  0.2278
 2676SOL    HW210750   2.057   2.542   4.579  0.5922  1.4612  0.4562
 2676SOL    HW310751   1.987   2.665   4.524  0.0796  0.6302 -0.7561
 2676SOL    MW410752   1.989   2.579   4.540  0.4194  0.7949  0.1273
 2677SOL     OW10753   1.988   0.704   4.096 -0.3243 -0.3576 -0.3342
 2677SOL    HW210754   1.897   0.718   4.120 -0.9690 -0.7805 -2.4338
 2677SOL    HW310755   2.034   0.783   4.125 -1.0527 -0.8061  2.1373
 2677SOL    MW410756   1.982   0.716   4.103 -0.5056 -0.4726 -0.2851
 2678SOL     OW10757   3.779   0.935   4.355  0.4199  0.4934 -0.4421
 2678SOL    HW210758   3.794   1.028   4.341  2.7589  0.6434  2.4390
 2678SOL    HW310759   3.716   0.931   4.427  1.1333 -0.1035  0.1675
 2678SOL    MW410760   3.773   0.946   4.363  0.8225  0.4344  0.0181
 2679SOL     OW10761   3.206   4.334   4.205 -0.1127 -0.1802 -0.3478
 2679SOL    HW210762   3.173   4.407   4.258  0.0888  0.0890 -0.5925
 2679SOL    HW310763   3.295   4.320   4.236  0.0701  0.1003 -0.7418
 2679SOL    MW410764   3.213   4.342   4.216 -0.0620 -0.1078 -0.4325
 2680SOL     OW10765   1.709   4.662   4.175 -0.1582 -0.2558 -0.1069
 2680SOL    HW210766   1.732   4.749   4.210 -0.3217  0.1579 -1.0245
 2680SOL    HW310767   1.785   4.608   4.196  0.2674  0.2933 -0.2071
 2680SOL    MW410768   1.722   4.666   4.183 -0.1235 -0.1287 -0.2413
 2681SOL     OW10769   3.937   2.837   4.598 -0.1570  0.5192 -0.3988
 2681SOL    HW210770   3.953   2.754   4.643 -1.0217  1.0815  0.9961
 2681SOL    HW310771   4.021   2.861   4.560  0.5855 -0.0254  0.8675
 2681SOL    MW410772   3.950   2.829   4.599 -0.1731  0.5217 -0.0477
 2682SOL     OW10773   1.631   1.198   4.753 -0.0847 -0.0971  0.1276
 2682SOL    HW210774   1.683   1.120   4.774  0.8488  0.3437 -0.4991
 2682SOL    HW310775   1.695   1.270   4.753 -0.7537  0.5012 -0.3685
 2682SOL    MW410776   1.647   1.197   4.756 -0.0498  0.0399 -0.0210
 2683SOL     OW10777   1.259   3.831   4.667 -0.0314  0.3293  0.3054
 2683SOL    HW210778   1.213   3.886   4.604 -0.5310 -0.0001  0.3794
 2683SOL    HW310779   1.351   3.840   4.644 -0.3380 -1.2459 -1.6582
 2683SOL    MW410780   1.265   3.840   4.656 -0.1377  0.0780  0.0563
 2684SOL     OW10781   0.385   2.961   4.081 -0.2416 -0.0824  0.3717
 2684SOL    HW210782   0.300   2.984   4.043 -0.1816 -1.4595 -0.6025
 2684SOL    HW310783   0.363   2.921   4.165 -0.5937 -1.1709 -0.2398
 2684SOL    MW410784   0.371   2.959   4.087 -0.2801 -0.4077  0.1621
 2685SOL     OW10785   0.701   4.613   3.907  0.2660  0.0319  0.1670
 2685SOL    HW210786   0.705   4.523   3.876  1.7697 -0.1099  0.7283
 2685SOL    HW310787   0.621   4.649   3.868  1.0463 -0.7370 -2.2308
 2685SOL    MW410788   0.691   4.606   3.898  0.5673 -0.0877 -0.0753
 2686SOL     OW10789   1.539   2.100   3.807 -0.5608 -0.5011  0.4841
 2686SOL    HW210790   1.604   2.030   3.810  0.7410  0.6631  0.1862
 2686SOL    HW310791   1.466   2.067   3.859 -0.3429 -2.4321 -0.3961
 2686SOL    MW410792   1.538   2.086   3.814 -0.3604 -0.6022  0.3285
 2687SOL     OW10793   3.393   0.743   3.954  0.1833  0.0688  0.0737
 2687SOL    HW210794   3.395   0.740   4.050 -1.2039  0.3211  0.1246
 2687SOL    HW310795   3.399   0.651   3.927 -1.8773 -0.2291  0.4950
 2687SOL    MW410796   3.394   0.730   3.963 -0.2716  0.0628  0.1359
 2688SOL     OW10797   3.910   1.522   4.122 -0.1254  0.0654 -0.2141
 2688SOL    HW210798   3.987   1.575   4.142 -0.0187 -0.2601  0.2564
 2688SOL    HW310799   3.841   1.558   4.178 -0.3455  0.4299 -0.7174
 2688SOL    MW410800   3.911   1.534   4.132 -0.1402  0.0706 -0.2184
 2689SOL     OW10801   0.200   2.802   3.846 -0.2870 -0.0989 -0.1309
 2689SOL    HW210802   0.198   2.813   3.751  0.2643  1.3867  0.0095
 2689SOL    HW310803   0.213   2.891   3.880 -1.4256 -0.4950  1.3722
 2689SOL    MW410804   0.202   2.816   3.838 -0.3645  0.0448  0.0858
 2690SOL     OW10805   1.115   3.087   3.941 -0.2720 -0.1695 -0.9997
 2690SOL    HW210806   1.034   3.128   3.910 -0.8054 -0.1445  0.3822
 2690SOL    HW310807   1.117   3.002   3.897 -0.0776  0.5961 -2.5000
 2690SOL    MW410808   1.104   3.081   3.932 -0.3169 -0.0651 -1.0152
 2691SOL     OW10809   1.653   3.903   4.200  0.5175  0.1525 -0.1157
 2691SOL    HW210810   1.667   3.985   4.247 -0.1491  0.7076 -0.8758
 2691SOL    HW310811   1.731   3.851   4.218  2.2277  2.0316 -1.8610
 2691SOL    MW410812   1.665   3.907   4.208  0.6553  0.4735 -0.4458
 2692SOL     OW10813   0.836   0.123   4.574  0.0852 -0.2353  0.0158
 2692SOL    HW210814   0.819   0.114   4.480  1.4358  0.2137 -0.2938
 2692SOL    HW310815   0.925   0.158   4.578 -0.1232  0.1485  1.4607
 2692SOL    MW410816   0.846   0.127   4.562  0.2359 -0.1255  0.1655
 2693SOL     OW10817   3.410   0.263   4.330  0.0431 -0.1046  1.0191
 2693SOL    HW210818   3.490   0.308   4.303 -1.4078  1.3099 -1.0709
 2693SOL    HW310819   3.424   0.172   4.303 -0.4071  0.8084 -2.5210
 2693SOL    MW410820   3.423   0.257   4.323 -0.2079  0.2025  0.2766
 2694SOL     OW10821   1.852   3.708   4.255 -0.1933  0.0974  0.2207
 2694SOL    HW210822   1.940   3.734   4.231  0.2586 -0.4241  1.2778
 2694SOL    HW310823   1.856   3.694   4.350 -1.0730 -1.2269  0.0766
 2694SOL    MW410824   1.864   3.709   4.265 -0.2497 -0.1459  0.3414
 2695SOL     OW10825   3.121   1.951   3.902 -0.1292  0.1193  0.1586
 2695SOL    HW210826   3.137   1.863   3.868 -1.1409  0.3016 -0.8072
 2695SOL    HW310827   3.203   1.998   3.885  0.4954 -0.6885  0.8885
 2695SOL    MW410828   3.134   1.946   3.895 -0.1802  0.0368  0.1273
 2696SOL     OW10829   2.572   0.978   4.369 -0.1353 -0.8607  0.0566
 2696SOL    HW210830   2.579   0.900   4.423  0.5478  0.0987  1.3766
 2696SOL    HW310831   2.499   1.027   4.407  0.8233  0.1759  0.5941
 2696SOL    MW410832   2.563   0.975   4.381  0.0813 -0.5973  0.3014
 2697SOL     OW10833   0.252   3.274   4.312  0.1664 -0.0520  0.1436
 2697SOL    HW210834   0.207   3.329   4.376  0.6919  0.4158  0.1230
 2697SOL    HW310835   0.182   3.236   4.258 -0.1429  1.6661 -0.6966
 2697SOL    MW410836   0.237   3.276   4.313  0.1949  0.2363  0.0296
 2698SOL     OW10837   1.157   2.460   4.703  0.1394  0.4957 -0.6688
 2698SOL    HW210838   1.137   2.532   4.764  0.9085  0.2323 -0.0927
 2698SOL    HW310839   1.237   2.421   4.739 -0.7143 -1.1335 -0.5341
 2698SOL    MW410840   1.165   2.465   4.716  0.1283  0.2460 -0.5751
 2699SOL     OW10841   0.765   0.114   4.294 -0.3701  0.5016 -0.4244
 2699SOL    HW210842   0.791   0.036   4.247 -0.4001  0.2183  0.0221
 2699SOL    HW310843   0.670   0.105   4.305 -0.4552  0.8708 -0.8622
 2699SOL    MW410844   0.756   0.103   4.289 -0.3853  0.5129 -0.4230
 2700SOL     OW10845   4.010   1.892   4.149 -0.3834 -0.0383  0.9121
 2700SOL    HW210846   4.018   1.806   4.188  0.3988 -0.1803  0.4432
 2700SOL    HW310847   4.005   1.876   4.055 -1.9710  0.3174  0.9146
 2700SOL    MW410848   4.010   1.879   4.142 -0.4892 -0.0101  0.8512
 2701SOL     OW10849   3.980   1.253   4.170 -0.1877 -0.3542 -0.3440
 2701SOL    HW210850   3.984   1.348   4.161 -1.7354 -0.3709 -1.3913
 2701SOL    HW310851   4.000   1.220   4.082  0.3817 -1.0095  0.0240
 2701SOL    MW410852   3.984   1.261   4.157 -0.3166 -0.4430 -0.4330
 2702SOL     OW10853   0.215   2.210   4.171  0.0032 -0.2256 -0.1509
 2702SOL    HW210854   0.275   2.270   4.213  0.5450 -0.2074 -0.9307
 2702SOL    HW310855   0.199   2.249   4.084 -1.6112  0.0911  0.2710
 2702SOL    MW410856   0.221   2.223   4.165 -0.1383 -0.1814 -0.1988
 2703SOL     OW10857   0.700   1.525   3.926 -0.4093  0.3068  0.3296
 2703SOL    HW210858   0.788   1.561   3.911 -0.9059  0.7363 -1.7053
 2703SOL    HW310859   0.671   1.567   4.007  0.7950  1.0910  0.3746
 2703SOL    MW410860   0.708   1.535   3.935 -0.3159  0.4669  0.0668
 2704SOL     OW10861   3.442   0.003   4.215  0.1613  0.2280  0.1989
 2704SOL    HW210862   3.412  -0.020   4.303  2.1594 -0.6314  0.6871
 2704SOL    HW310863   3.535  -0.019   4.215  0.0955 -0.1773 -2.2672
 2704SOL    MW410864   3.450  -0.003   4.227  0.4163  0.0610 -0.0620
 2705SOL     OW10865   3.450   2.615   4.155  0.1288 -0.1245  0.1529
 2705SOL    HW210866   3.446   2.700   4.201  1.3165 -0.4378  0.8534
 2705SOL    HW310867   3.507   2.631   4.080 -0.8464  0.0698 -0.5636
 2705SOL    MW410868   3.457   2.628   4.151  0.1569 -0.1402  0.1507
 2706SOL     OW10869   4.462   1.958   4.165 -0.1501 -0.2116  0.1815
 2706SOL    HW210870   4.531   1.982   4.227 -0.0891 -0.7056  0.3087
 2706SOL    HW310871   4.432   1.872   4.194  1.4664 -1.4873 -1.8140
 2706SOL    MW410872   4.467   1.950   4.177  0.0715 -0.4451 -0.0653
 2707SOL     OW10873   3.418   3.676   4.620 -0.2383  0.5235  0.6463
 2707SOL    HW210874   3.337   3.723   4.600  0.9463  0.7512 -4.4783
 2707SOL    HW310875   3.487   3.740   4.602  1.2205 -1.5485 -1.3886
 2707SOL    MW410876   3.416   3.691   4.615  0.1106  0.2801 -0.2985
 2708SOL     OW10877   1.466   3.751   4.328  0.1839  0.1449  0.4370
 2708SOL    HW210878   1.387   3.794   4.295  0.0432 -1.2714 -1.1280
 2708SOL    HW310879   1.538   3.804   4.295 -0.0448  0.1089 -0.1274
 2708SOL    MW410880   1.465   3.764   4.320  0.1351 -0.0467  0.1554
 2709SOL     OW10881   0.117   0.546   4.493 -0.4234  0.1748 -0.8173
 2709SOL    HW210882   0.130   0.551   4.588 -1.5569  1.0880 -0.7046
 2709SOL    HW310883   0.136   0.635   4.462 -1.3831  0.2175 -1.2793
 2709SOL    MW410884   0.121   0.559   4.502 -0.6996  0.3009 -0.8636
 2710SOL     OW10885   1.626   2.038   4.298 -0.2423  0.2146  0.3778
 2710SOL    HW210886   1.601   2.128   4.277  1.8490  0.3767 -1.6850
 2710SOL    HW310887   1.676   2.044   4.379  1.6454  1.2426 -0.8148
 2710SOL    MW410888   1.630   2.051   4.306  0.2828  0.3717 -0.0515
 2711SOL     OW10889   1.452   0.774   4.644  0.2992  0.1359 -1.5238
 2711SOL    HW210890   1.469   0.856   4.597  1.6450  1.2428  0.7628
 2711SOL    HW310891   1.356   0.770   4.650  0.2249  2.7821  0.2717
 2711SOL    MW410892   1.441   0.785   4.639  0.4668  0.6310 -0.9851
 2712SOL     OW10893   4.255   2.276   4.207  0.0902  0.6079  0.2792
 2712SOL    HW210894   4.242   2.184   4.228  0.2917  0.3479 -0.7197
 2712SOL    HW310895   4.336   2.300   4.251  1.2265 -0.2926 -1.2960
 2712SOL    MW410896   4.264   2.267   4.216  0.2666  0.4549 -0.0606
 2713SOL     OW10897   0.458   4.549   4.752 -0.2948  0.5506  0.2399
 2713SOL    HW210898   0.517   4.609   4.796 -0.3088  1.0198 -0.3660
 2713SOL    HW310899   0.515   4.487   4.707 -0.2383  1.3600 -0.8358
 2713SOL    MW410900   0.473   4.549   4.752 -0.2893  0.7195  0.0176
 2714SOL     OW10901   2.890   1.493   4.578 -0.4051  0.1790  0.5880
 2714SOL    HW210902   2.953   1.423   4.558 -1.1852 -0.5738  0.7195
 2714SOL    HW310903   2.857   1.521   4.493 -1.6717 -1.1111  0.6191
 2714SOL    MW410904   2.894   1.487   4.565 -0.6752 -0.0907  0.6099
 2715SOL     OW10905   2.694   1.872   3.917 -0.0841 -0.6370 -0.2410
 2715SOL    HW210906   2.746   1.947   3.887  0.4694 -0.4585  1.1413
 2715SOL    HW310907   2.710   1.868   4.012 -2.3120 -0.7919  0.1431
 2715SOL    MW410908   2.703   1.882   3.926 -0.3052 -0.6337 -0.0083
 2716SOL     OW10909   4.409   1.682   4.260  0.4667  0.4321 -0.3415
 2716SOL    HW210910   4.424   1.655   4.351 -0.0806  1.2427 -0.0000
 2716SOL    HW310911   4.409   1.600   4.210 -0.7072 -0.1583  0.6017
 2716SOL    MW410912   4.411   1.667   4.266  0.2403  0.4612 -0.1721
 2717SOL     OW10913   4.237   3.972   4.840 -0.5348  0.2942 -0.1774
 2717SOL    HW210914   4.256   3.909   4.909  0.0158  0.7257  0.0682
 2717SOL    HW310915   4.296   3.948   4.769 -0.1641  0.6747  0.0022
 2717SOL    MW410916   4.247   3.961   4.840 -0.4129  0.4015 -0.1206
 2718SOL     OW10917   1.694   2.893   4.193  0.2658  0.4598  0.2021
 2718SOL    HW210918   1.781   2.914   4.158  0.1178  0.7878  0.0319
 2718SOL    HW310919   1.691   2.797   4.194  0.5600  0.4492  0.0345
 2718SOL    MW410920   1.705   2.883   4.189  0.2851  0.5016  0.1578
 2719SOL     OW10921   1.750   1.850   4.128  0.2314  0.3127 -0.4115
 2719SOL    HW210922   1.703   1.770   4.151  0.9299  0.4036  1.4550
 2719SOL    HW310923   1.711   1.917   4.183  1.1943  0.7820 -0.2957
 2719SOL    MW410924   1.739   1.848   4.139  0.4506  0.3866 -0.1497
 2720SOL     OW10925   0.644   2.281   4.222 -0.2345  0.1968 -0.7108
 2720SOL    HW210926   0.713   2.333   4.263  0.4795 -0.6759 -0.7878
 2720SOL    HW310927   0.657   2.293   4.128  0.2031 -0.4411 -0.7409
 2720SOL    MW410928   0.655   2.289   4.215 -0.0825 -0.0026 -0.7248
 2721SOL     OW10929   0.020   3.187   3.544 -0.4198 -0.0271 -0.1419
 2721SOL    HW210930   0.009   3.280   3.522 -1.5151 -0.0207  0.3657
 2721SOL    HW310931  -0.054   3.144   3.501 -1.5352 -0.2569  1.9169
 2721SOL    MW410932   0.009   3.194   3.536 -0.7114 -0.0567  0.1969
 2722SOL     OW10933   0.725   2.649   4.230 -0.5500  0.2762 -0.2834
 2722SOL    HW210934   0.776   2.579   4.271  0.2545  0.4239 -1.0078
 2722SOL    HW310935   0.759   2.654   4.140 -0.9976  1.2111 -0.4101
 2722SOL    MW410936   0.736   2.640   4.223 -0.5029  0.4191 -0.3953
 2723SOL     OW10937   1.317   2.720   3.916  0.4084 -0.6550 -0.5754
 2723SOL    HW210938   1.344   2.629   3.927  1.9380  0.2919  5.2391
 2723SOL    HW310939   1.397   2.766   3.891  0.5195 -0.3187  0.3951
 2723SOL    MW410940   1.331   2.714   3.914  0.6249 -0.4857  0.3197
 2724SOL     OW10941   1.477   1.566   4.560  0.3022 -0.1381  0.3107
 2724SOL    HW210942   1.424   1.639   4.593 -0.5982 -0.5815 -0.1202
 2724SOL    HW310943   1.559   1.606   4.533 -0.0691  0.6771  0.3641
 2724SOL    MW410944   1.481   1.581   4.560  0.1343 -0.0889  0.2608
 2725SOL     OW10945   2.632   2.117   4.240  0.0398 -0.5058 -0.1316
 2725SOL    HW210946   2.554   2.072   4.274 -0.6702  1.0243  0.2867
 2725SOL    HW310947   2.605   2.149   4.154  0.2848 -0.1455 -0.0733
 2725SOL    MW410948   2.618   2.115   4.233 -0.0215 -0.2568 -0.0687
 2726SOL     OW10949   2.330   3.313   3.810 -0.5127  0.4698  0.5282
 2726SOL    HW210950   2.425   3.313   3.812 -0.5145  0.7784  0.5340
 2726SOL    HW310951   2.304   3.400   3.840 -0.8222 -0.1279  2.0638
 2726SOL    MW410952   2.339   3.324   3.814 -0.5538  0.4315  0.7317
 2727SOL     OW10953   3.064   1.962   4.168  0.3687  0.0482  0.0099
 2727SOL    HW210954   3.120   2.027   4.209  0.2593 -0.4910  1.0506
 2727SOL    HW310955   3.102   1.948   4.082 -0.3936  2.4630 -0.7533
 2727SOL    MW410956   3.076   1.968   4.162  0.2537  0.2956  0.0467
 2728SOL     OW10957   2.055   3.436   4.512  1.0181 -0.1715  0.1736
 2728SOL    HW210958   2.073   3.417   4.419  0.2214 -1.5846  0.2905
 2728SOL    HW310959   2.031   3.528   4.513  1.7831  0.0578 -0.9255
 2728SOL    MW410960   2.055   3.446   4.500  1.0140 -0.3276  0.0439
 2729SOL     OW10961   2.355   1.491   4.164  0.2359  0.1998 -0.2192
 2729SOL    HW210962   2.388   1.442   4.239 -1.7987 -1.7961 -0.6011
 2729SOL    HW310963   2.420   1.476   4.095  0.8593  0.0637  0.3920
 2729SOL    MW410964   2.368   1.483   4.165  0.0498 -0.0815 -0.1888
 2730SOL     OW10965   1.587   3.242   4.966  0.3499  0.3608 -0.3192
 2730SOL    HW210966   1.656   3.176   4.969  1.4710  1.5370  0.1321
 2730SOL    HW310967   1.517   3.206   5.022  1.5470  0.2172  1.1102
 2730SOL    MW410968   1.587   3.229   4.974  0.6558  0.4971 -0.0710
 2731SOL     OW10969   4.411   0.462   4.334  0.0333 -0.2306  0.0856
 2731SOL    HW210970   4.479   0.490   4.397  0.4323 -0.8040 -0.0837
 2731SOL    HW310971   4.369   0.543   4.307 -0.3893 -0.0016  1.3784
 2731SOL    MW410972   4.415   0.476   4.339  0.0300 -0.2760  0.2341
 2732SOL     OW10973   4.235   4.612   4.680  0.2801  0.0752 -0.1404
 2732SOL    HW210974   4.277   4.575   4.603 -0.3356 -0.9747  0.0287
 2732SOL    HW310975   4.162   4.554   4.699 -0.1808  0.8903  0.6377
 2732SOL    MW410976   4.231   4.600   4.673  0.1383  0.0448 -0.0153
 2733SOL     OW10977   3.146   3.086   4.316 -0.3852  0.1196 -0.4887
 2733SOL    HW210978   3.223   3.087   4.258 -0.6209  0.7688 -0.7967
 2733SOL    HW310979   3.099   3.006   4.292  1.6198 -1.7491  1.6021
 2733SOL    MW410980   3.150   3.076   4.305 -0.1519 -0.0412 -0.2532
 2734SOL     OW10981   2.570   4.017   4.653 -0.0096 -0.6222  0.5069
 2734SOL    HW210982   2.553   4.095   4.705  0.8438  0.3781 -0.7104
 2734SOL    HW310983   2.658   3.990   4.679 -0.1587 -0.9798  0.6495
 2734SOL    MW410984   2.579   4.023   4.664  0.0834 -0.5379  0.3653
 2735SOL     OW10985   3.187   0.830   4.564  0.2705  0.6258  0.2411
 2735SOL    HW210986   3.257   0.868   4.511  1.4589 -0.7461  0.8179
 2735SOL    HW310987   3.203   0.736   4.563 -1.1042  0.3572  1.0485
 2735SOL    MW410988   3.198   0.823   4.557  0.2458  0.4092  0.4234
 2736SOL     OW10989   4.413   1.177   4.192 -0.2311 -0.2262 -0.4956
 2736SOL    HW210990   4.418   1.160   4.098 -0.8839 -1.7649 -0.2752
 2736SOL    HW310991   4.503   1.166   4.224 -0.3019 -1.4397 -0.6796
 2736SOL    MW410992   4.425   1.173   4.184 -0.3262 -0.5893 -0.4911
 2737SOL     OW10993   0.431   1.934   3.903  0.6104  0.2178 -0.0903
 2737SOL    HW210994   0.401   1.911   3.991  1.0143 -0.1915 -0.0617
 2737SOL    HW310995   0.507   1.990   3.917  0.5624  0.3080 -0.1818
 2737SOL    MW410996   0.437   1.938   3.917  0.6574  0.1757 -0.0987
 2738SOL     OW10997   0.862   2.895   4.558  0.5717  0.3636 -0.0049
 2738SOL    HW210998   0.822   2.882   4.472  1.9307  0.5261 -0.6649
 2738SOL    HW310999   0.803   2.849   4.618  0.8630 -1.8234 -1.3098
 2738SOL    MW411000   0.849   2.887   4.555  0.7894  0.0968 -0.2637
 2739SOL     OW11001   2.323   2.709   4.366 -0.2570 -0.1634 -0.0759
 2739SOL    HW211002   2.338   2.756   4.448  0.2839 -0.2760 -0.1084
 2739SOL    HW311003   2.343   2.618   4.387 -1.2732 -0.3780 -0.0226
 2739SOL    MW411004   2.328   2.703   4.380 -0.3195 -0.2065 -0.0730
 2740SOL     OW11005   2.910   3.916   4.213  0.0259  0.0857 -0.0884
 2740SOL    HW211006   2.831   3.895   4.263 -0.8302  2.8311 -0.2179
 2740SOL    HW311007   2.952   3.985   4.264  2.2039 -1.1313 -0.1870
 2740SOL    MW411008   2.905   3.922   4.227  0.2003  0.2873 -0.1178
 2741SOL     OW11009   2.852   4.322   4.371 -0.0409  0.3750 -0.3404
 2741SOL    HW211010   2.771   4.366   4.344  1.1895  3.1474  0.3258
 2741SOL    HW311011   2.852   4.329   4.466  0.9463  0.3330 -0.3310
 2741SOL    MW411012   2.841   4.329   4.380  0.2518  0.7358 -0.2508
 2742SOL     OW11013   0.394   0.119   4.622  0.2487  0.6244  0.5308
 2742SOL    HW211014   0.442   0.192   4.662 -0.5884  0.5119  1.7553
 2742SOL    HW311015   0.421   0.042   4.670 -0.1365  0.3667  0.3416
 2742SOL    MW411016   0.404   0.119   4.633  0.0875  0.5755  0.6676
 2743SOL     OW11017   2.971   3.666   4.667 -0.2729 -0.4706 -0.2115
 2743SOL    HW211018   2.952   3.641   4.757  0.7399 -0.1922  0.0919
 2743SOL    HW311019   2.939   3.593   4.614  2.1782 -2.2287  0.6185
 2743SOL    MW411020   2.964   3.653   4.672  0.1838 -0.6659 -0.0620
 2744SOL     OW11021   4.384   3.280   4.617  0.4116  0.2023 -0.4691
 2744SOL    HW211022   4.433   3.350   4.574  0.5260 -0.0517 -0.7542
 2744SOL    HW311023   4.293   3.307   4.612  0.4487  0.2964 -0.6444
 2744SOL    MW411024   4.379   3.293   4.611  0.4320  0.1812 -0.5298
 2745SOL     OW11025   1.150   3.586   3.809  0.3476  0.1272 -0.4314
 2745SOL    HW211026   1.159   3.663   3.864  0.3679  0.3424 -0.7351
 2745SOL    HW311027   1.077   3.538   3.847  0.0786  0.4967 -0.4763
 2745SOL    MW411028   1.142   3.590   3.821  0.3147  0.2041 -0.4773
 2746SOL     OW11029   2.696   3.876   4.369  0.0723 -0.1800 -0.0632
 2746SOL    HW211030   2.692   3.781   4.381 -2.4212 -0.1050 -0.1254
 2746SOL    HW311031   2.727   3.908   4.454 -0.0840 -0.9737  0.3086
 2746SOL    MW411032   2.700   3.867   4.382 -0.2773 -0.2747 -0.0224
 2747SOL     OW11033   3.129   4.560   4.661  0.8223  0.7007 -0.0874
 2747SOL    HW211034   3.128   4.649   4.698 -0.2592  0.2793  0.9166
 2747SOL    HW311035   3.127   4.573   4.566 -0.0298  1.7449  0.0635
 2747SOL    MW411036   3.129   4.574   4.654  0.5670  0.7834  0.0653
 2748SOL     OW11037   0.733   4.353   4.271 -0.2045  0.2076  0.4767
 2748SOL    HW211038   0.800   4.313   4.216 -0.6480  1.3322 -0.8971
 2748SOL    HW311039   0.749   4.316   4.358  1.4648 -0.4124 -0.0721
 2748SOL    MW411040   0.744   4.343   4.275 -0.0428  0.2737  0.2232
 2749SOL     OW11041   0.713   1.815   4.264  0.3606  0.3718  0.0269
 2749SOL    HW211042   0.804   1.839   4.244 -0.0436  0.6988 -1.5081
 2749SOL    HW311043   0.710   1.720   4.253  0.5441  0.3422  0.2257
 2749SOL    MW411044   0.725   1.806   4.260  0.3315  0.4110 -0.1493
 2750SOL     OW11045   0.706   3.870   3.901  0.0369 -0.1876 -0.0795
 2750SOL    HW211046   0.691   3.776   3.887 -0.8136  0.0716 -1.0426
 2750SOL    HW311047   0.630   3.912   3.860  0.5091  0.9311  0.1730
 2750SOL    MW411048   0.694   3.863   3.894 -0.0129 -0.0057 -0.1731
 2751SOL     OW11049   4.069   1.523   4.480 -0.3317 -0.6792 -0.3359
 2751SOL    HW211050   4.151   1.513   4.528  0.9621  0.2797 -2.3009
 2751SOL    HW311051   4.034   1.607   4.509 -0.7479 -1.1952  0.6763
 2751SOL    MW411052   4.075   1.533   4.490 -0.2155 -0.6206 -0.4616
 2752SOL     OW11053   3.664   0.353   4.261 -0.4001 -0.0871 -0.2059
 2752SOL    HW211054   3.640   0.349   4.168 -2.2242 -1.5938  0.2983
 2752SOL    HW311055   3.636   0.440   4.290 -0.0793  0.2820 -1.0122
 2752SOL    MW411056   3.657   0.364   4.253 -0.5980 -0.2371 -0.2460
 2753SOL     OW11057   4.226   2.001   4.293 -0.0795  0.0289  0.0435
 2753SOL    HW211058   4.167   1.954   4.234  0.1947 -0.0889 -0.1337
 2753SOL    HW311059   4.312   1.994   4.253 -0.0364  0.6912  0.0091
 2753SOL    MW411060   4.229   1.994   4.280 -0.0377  0.1006  0.0157
 2754SOL     OW11061   0.008   2.277   4.344  0.0220  0.2738 -0.1838
 2754SOL    HW211062   0.070   2.253   4.275  0.1646 -0.4542  0.1962
 2754SOL    HW311063   0.036   2.363   4.373  1.1174 -0.2388  0.2855
 2754SOL    MW411064   0.020   2.285   4.338  0.1855  0.1099 -0.0720
 2755SOL     OW11065   3.093   3.453   3.926 -0.5633 -0.0462  0.3456
 2755SOL    HW211066   3.080   3.365   3.889  1.3770 -0.3963  0.4331
 2755SOL    HW311067   3.167   3.489   3.876 -1.1688  1.4371  0.5010
 2755SOL    MW411068   3.101   3.446   3.914 -0.3872  0.1035  0.3777
 2756SOL     OW11069   0.641   3.568   4.311  0.1021  0.0693 -0.1587
 2756SOL    HW211070   0.560   3.536   4.271  0.2832 -1.9657  1.0396
 2756SOL    HW311071   0.710   3.524   4.261  0.4691  1.2572 -0.7153
 2756SOL    MW411072   0.639   3.558   4.299  0.1743 -0.0427 -0.0739
 2757SOL     OW11073   2.713   1.716   4.434 -0.6474 -0.0037  0.3452
 2757SOL    HW211074   2.695   1.790   4.492 -1.2573 -0.1169  0.2971
 2757SOL    HW311075   2.738   1.756   4.351  0.1298  0.1583  0.6481
 2757SOL    MW411076   2.714   1.731   4.431 -0.6254  0.0026  0.3791
 2758SOL     OW11077   3.046   1.727   4.308 -0.7528  0.0344 -0.0182
 2758SOL    HW211078   3.132   1.724   4.350  0.0683  1.8494 -1.5144
 2758SOL    HW311079   3.047   1.807   4.255 -2.8996 -0.5633 -1.0438
 2758SOL    MW411080   3.057   1.737   4.306 -0.9279  0.1949 -0.3510
 2759SOL     OW11081   1.102   2.368   4.201 -0.0127  0.6905  0.1384
 2759SOL    HW211082   1.111   2.362   4.106  0.4716  1.6427  0.1142
 2759SOL    HW311083   1.149   2.448   4.224 -0.6352  0.7827  1.1147
 2759SOL    MW411084   1.110   2.377   4.191 -0.0309  0.8280  0.2642
 2760SOL     OW11085   0.413   3.093   4.472 -0.3173 -0.1296  0.3997
 2760SOL    HW211086   0.471   3.120   4.400  0.4598 -1.3765  0.5483
 2760SOL    HW311087   0.342   3.156   4.469  0.4534  0.7249 -0.5389
 2760SOL    MW411088   0.412   3.105   4.462 -0.1131 -0.1812  0.2952
 2761SOL     OW11089   1.897   4.141   4.091 -0.3504 -0.1114  0.0195
 2761SOL    HW211090   1.846   4.136   4.172  0.0419 -1.7870  0.1743
 2761SOL    HW311091   1.986   4.120   4.118  0.0268  0.5981 -0.6464
 2761SOL    MW411092   1.902   4.138   4.106 -0.2489 -0.2394 -0.0477
 2762SOL     OW11093   0.775   0.781   4.213  0.0604 -0.1545  0.4705
 2762SOL    HW211094   0.781   0.752   4.122  0.6910  1.1072  0.0945
 2762SOL    HW311095   0.850   0.840   4.225 -0.1775 -0.0832  1.7163
 2762SOL    MW411096   0.786   0.785   4.203  0.1122  0.0214  0.5851
 2763SOL     OW11097   1.969   3.065   3.892  0.0324  0.1372  0.2865
 2763SOL    HW211098   1.959   3.037   3.983  0.7458  0.0453  0.3461
 2763SOL    HW311099   1.961   2.985   3.841  1.7292 -0.1510  0.4316
 2763SOL    MW411100   1.967   3.051   3.897  0.3504  0.0870  0.3135
 2764SOL     OW11101   2.950   1.536   4.162  0.3435 -0.3408  0.3659
 2764SOL    HW211102   2.977   1.609   4.217 -0.0835  0.1638 -0.0869
 2764SOL    HW311103   2.879   1.494   4.211  0.8399 -0.6714  0.7951
 2764SOL    MW411104   2.944   1.540   4.175  0.3529 -0.3178  0.3624
 2765SOL     OW11105   3.403   3.392   4.294  0.0394  0.0356 -0.2628
 2765SOL    HW211106   3.481   3.438   4.265  0.7775 -0.8550  0.2614
 2765SOL    HW311107   3.330   3.445   4.262  0.8435  0.2593 -1.7632
 2765SOL    MW411108   3.403   3.405   4.286  0.2429 -0.0525 -0.3920
 2766SOL     OW11109   2.916   2.824   4.005 -0.1421 -0.3367 -0.5631
 2766SOL    HW211110   2.987   2.776   3.962 -1.1374 -1.6141 -0.8315
 2766SOL    HW311111   2.885   2.885   3.939  0.0692 -0.4577 -0.7771
 2766SOL    MW411112   2.921   2.826   3.991 -0.2456 -0.5212 -0.6273
 2767SOL     OW11113   4.060   3.986   3.831  0.0519  0.1176 -0.0283
 2767SOL    HW211114   4.069   3.986   3.735 -1.1950 -1.1528 -0.1680
 2767SOL    HW311115   4.135   3.935   3.862 -0.5879 -1.1277 -0.4737
 2767SOL    MW411116   4.071   3.979   3.822 -0.1969 -0.2143 -0.1054
 2768SOL     OW11117   1.807   3.263   3.803 -0.4527 -0.6778 -0.2975
 2768SOL    HW211118   1.723   3.231   3.836  0.3536 -3.1035 -0.4846
 2768SOL    HW311119   1.870   3.197   3.831  0.9152 -0.5091 -2.8488
 2768SOL    MW411120   1.804   3.250   3.811 -0.1659 -0.9756 -0.6590
 2769SOL     OW11121   2.245   4.482   4.628 -0.2452  0.0117 -0.1371
 2769SOL    HW211122   2.233   4.577   4.632 -0.0284  0.1259 -1.7554
 2769SOL    HW311123   2.156   4.447   4.626 -0.3274  0.2153 -0.0626
 2769SOL    MW411124   2.231   4.490   4.628 -0.2275  0.0539 -0.3414
 2770SOL     OW11125   2.439   4.501   4.181  0.0491  0.3882 -0.3547
 2770SOL    HW211126   2.457   4.544   4.097  4.8024 -0.1696  0.2502
 2770SOL    HW311127   2.426   4.409   4.159 -0.3184  0.5012 -0.6185
 2770SOL    MW411128   2.439   4.495   4.167  0.6280  0.3295 -0.3095
 2771SOL     OW11129   0.208   1.783   4.563  0.2701 -0.4041  0.1171
 2771SOL    HW211130   0.189   1.849   4.629  0.8864 -0.3835  0.2849
 2771SOL    HW311131   0.150   1.710   4.585  2.1078 -1.3451  2.1736
 2771SOL    MW411132   0.198   1.782   4.575  0.5939 -0.5255  0.4110
 2772SOL     OW11133   1.768   1.347   4.502 -0.8652  0.3488  0.3855
 2772SOL    HW211134   1.777   1.252   4.506  1.9164  0.6394  2.4253
 2772SOL    HW311135   1.853   1.377   4.471 -1.3032  2.2336  0.9658
 2772SOL    MW411136   1.780   1.338   4.498 -0.5561  0.6360  0.7315
 2773SOL     OW11137   2.999   0.087   4.241  0.3222 -0.0810 -0.6105
 2773SOL    HW211138   2.995   0.067   4.148  1.2881 -0.0730 -0.6636
 2773SOL    HW311139   3.056   0.164   4.246 -1.2650  1.0768 -0.1814
 2773SOL    MW411140   3.006   0.095   4.229  0.2403  0.0728 -0.5612
 2774SOL     OW11141   2.950   3.328   4.616  0.1812  0.0805 -0.0304
 2774SOL    HW211142   2.984   3.320   4.527 -0.2782  1.2098 -0.3206
 2774SOL    HW311143   3.022   3.298   4.672  1.1056  0.9988 -0.7026
 2774SOL    MW411144   2.964   3.323   4.612  0.2425  0.3507 -0.1569
 2775SOL     OW11145   0.142   3.978   4.625  0.0863  0.1126  0.4603
 2775SOL    HW211146   0.191   3.896   4.638  0.4229  0.4101  1.0436
 2775SOL    HW311147   0.184   4.041   4.682 -0.2319  0.6800  0.0706
 2775SOL    MW411148   0.154   3.975   4.634  0.0887  0.2267  0.4859
 2776SOL     OW11149   2.551   2.821   4.219 -0.1327 -0.6082  0.0261
 2776SOL    HW211150   2.474   2.786   4.263 -0.1805  0.0371  0.4591
 2776SOL    HW311151   2.523   2.908   4.189  1.0193  0.4250  1.8720
 2776SOL    MW411152   2.537   2.828   4.221  0.0131 -0.3865  0.3266
 2777SOL     OW11153   3.127   0.599   4.309  0.0560 -0.1545 -0.7735
 2777SOL    HW211154   3.139   0.587   4.403 -1.0351 -0.2067 -0.6338
 2777SOL    HW311155   3.099   0.513   4.277  0.0693 -0.0450 -1.0827
 2777SOL    MW411156   3.125   0.586   4.317 -0.0863 -0.1469 -0.7958
 2778SOL     OW11157   2.081   0.310   4.554 -0.5174  0.3675  0.9212
 2778SOL    HW211158   2.056   0.368   4.482  0.1647  1.4751  1.5643
 2778SOL    HW311159   2.108   0.369   4.624 -1.6566 -0.6939  2.2721
 2778SOL    MW411160   2.081   0.326   4.553 -0.5777  0.3736  1.1845
 2779SOL     OW11161   2.303   0.991   4.734 -0.0984  0.1206  0.2636
 2779SOL    HW211162   2.360   0.975   4.809 -0.6547  1.9041  1.0921
 2779SOL    HW311163   2.261   0.907   4.717  1.3040 -0.7124  0.8753
 2779SOL    MW411164   2.305   0.978   4.742  0.0131  0.2460  0.4539
 2780SOL     OW11165   1.621   0.772   3.852  0.1021 -0.2628  0.1363
 2780SOL    HW211166   1.653   0.753   3.940  0.1622  0.5787  0.3005
 2780SOL    HW311167   1.692   0.823   3.812  0.0339 -0.5610 -0.3636
 2780SOL    MW411168   1.635   0.776   3.858  0.1010 -0.1912  0.0920
 2781SOL     OW11169   1.886   4.080   4.575 -0.6025  0.1327  0.1928
 2781SOL    HW211170   1.972   4.044   4.552 -0.5568  0.5841 -0.3730
 2781SOL    HW311171   1.831   4.003   4.589 -0.3334 -0.1615 -0.3403
 2781SOL    MW411172   1.890   4.065   4.574 -0.5610  0.1531  0.0482
 2782SOL     OW11173   1.166   4.660   3.909  0.4516  0.4642  0.1248
 2782SOL    HW211174   1.086   4.710   3.892 -0.1057 -0.9024 -1.4991
 2782SOL    HW311175   1.153   4.578   3.862  2.6923  0.0990  0.0801
 2782SOL    MW411176   1.154   4.656   3.900  0.6738  0.2360 -0.0951
 2783SOL     OW11177   0.170   4.425   4.479 -0.3322 -0.3594 -0.0574
 2783SOL    HW211178   0.169   4.410   4.573 -3.5471  0.2805  0.0811
 2783SOL    HW311179   0.097   4.486   4.464  2.2967  2.3047 -2.5309
 2783SOL    MW411180   0.160   4.431   4.489 -0.4095  0.0768 -0.3653
 2784SOL     OW11181   4.486   0.251   4.171  0.3339 -0.0601  0.0395
 2784SOL    HW211182   4.441   0.315   4.225 -0.9758  0.3255 -1.4821
 2784SOL    HW311183   4.558   0.219   4.226 -0.7702  0.5528  1.8619
 2784SOL    MW411184   4.490   0.255   4.185  0.0153  0.0716  0.0792
 2785SOL     OW11185   3.119   2.993   4.588  0.6933 -0.1777 -0.1122
 2785SOL    HW211186   3.132   3.022   4.497 -2.6879  0.5478 -0.4422
 2785SOL    HW311187   3.142   3.070   4.640  0.8052  0.0357 -0.4708
 2785SOL    MW411188   3.124   3.007   4.582  0.2620 -0.0536 -0.2027
 2786SOL     OW11189   3.059   4.511   4.373 -0.6909 -0.0667  0.3386
 2786SOL    HW211190   2.985   4.450   4.366 -0.2863 -0.2843 -2.7323
 2786SOL    HW311191   3.031   4.588   4.323 -0.0944  1.2081  1.8927
 2786SOL    MW411192   3.045   4.513   4.366 -0.5586  0.0725  0.1388
 2787SOL     OW11193   2.375   3.973   4.082  0.2083  0.6213  0.6572
 2787SOL    HW211194   2.302   4.032   4.102 -1.3736 -0.8327 -0.6800
 2787SOL    HW311195   2.387   3.922   4.162 -0.9332  0.1605  0.5406
 2787SOL    MW411196   2.367   3.974   4.096 -0.1512  0.3688  0.4649
 2788SOL     OW11197   1.661   2.689   4.816  0.4925 -0.3484 -0.7214
 2788SOL    HW211198   1.627   2.674   4.728  2.6746 -2.1591 -1.2976
 2788SOL    HW311199   1.716   2.613   4.834  0.6352  0.3363  1.9396
 2788SOL    MW411200   1.664   2.677   4.807  0.7993 -0.4971 -0.4463
 2789SOL     OW11201   1.711   2.612   4.150  0.0295  0.6158  0.3244
 2789SOL    HW211202   1.796   2.573   4.170  1.0177  1.0410 -2.7437
 2789SOL    HW311203   1.648   2.559   4.199  1.8188 -1.5074  0.4043
 2789SOL    MW411204   1.714   2.600   4.159  0.3959  0.3917 -0.0701
 2790SOL     OW11205   0.433   3.492   3.954 -0.1214 -0.3073 -0.1234
 2790SOL    HW211206   0.442   3.490   4.049 -1.7733 -0.1676  0.0544
 2790SOL    HW311207   0.516   3.527   3.923  0.3885 -0.2286  1.2707
 2790SOL    MW411208   0.445   3.496   3.963 -0.2721 -0.2785  0.0842
 2791SOL     OW11209   1.652   1.281   3.804  0.0538  0.0536 -0.2308
 2791SOL    HW211210   1.576   1.224   3.810 -0.2556  0.0649 -3.1891
 2791SOL    HW311211   1.727   1.221   3.811 -0.2604 -0.4097 -0.7522
 2791SOL    MW411212   1.652   1.266   3.806 -0.0285 -0.0061 -0.6897
 2792SOL     OW11213   2.114   1.617   3.818  0.5163 -0.2598 -0.3431
 2792SOL    HW211214   2.032   1.649   3.778  0.5412  1.6712  1.0752
 2792SOL    HW311215   2.133   1.681   3.886  1.9274 -2.0475  0.9638
 2792SOL    MW411216   2.105   1.630   3.822  0.7060 -0.2409  0.0165
 2793SOL     OW11217   0.214   0.734   3.883  0.1297 -0.2334 -0.3661
 2793SOL    HW211218   0.210   0.729   3.978  0.1991 -0.6281 -0.3816
 2793SOL    HW311219   0.136   0.782   3.857  1.1960  1.7449  0.0257
 2793SOL    MW411220   0.203   0.740   3.892  0.2795 -0.0244 -0.3166
 2794SOL     OW11221   2.224   3.118   3.964 -0.3575 -0.0406  0.2174
 2794SOL    HW211222   2.253   3.183   3.900 -1.0433 -0.5335 -0.6028
 2794SOL    HW311223   2.140   3.088   3.932 -0.2353 -1.0495  0.8089
 2794SOL    MW411224   2.217   3.123   3.952 -0.4318 -0.2387  0.1874
 2795SOL     OW11225   0.505   2.737   4.548 -0.0658  0.5181  0.0513
 2795SOL    HW211226   0.486   2.782   4.465  2.4161  0.5620 -0.5569
 2795SOL    HW311227   0.445   2.663   4.551  0.0241  0.3465 -1.9608
 2795SOL    MW411228   0.495   2.733   4.537  0.2736  0.5012 -0.2947
 2796SOL     OW11229   2.270   0.098   4.573 -0.3407  0.0717 -0.4309
 2796SOL    HW211230   2.292   0.079   4.482 -2.0104 -0.4259 -0.7490
 2796SOL    HW311231   2.194   0.155   4.568 -0.9475 -0.6244  0.6675
 2796SOL    MW411232   2.263   0.103   4.561 -0.6411 -0.0858 -0.3276
 2797SOL     OW11233   3.408   1.534   4.259  0.0148  0.1600 -0.3734
 2797SOL    HW211234   3.458   1.457   4.233 -0.4072 -0.1122 -0.3761
 2797SOL    HW311235   3.384   1.576   4.176  0.4189  0.4083 -0.3665
 2797SOL    MW411236   3.411   1.529   4.245  0.0126  0.1568 -0.3724
 2798SOL     OW11237   0.519   0.862   4.253 -0.1680  0.0428  0.0287
 2798SOL    HW211238   0.607   0.831   4.233 -0.1168  0.3572 -0.2303
 2798SOL    HW311239   0.517   0.865   4.349  0.6617  1.6088  0.0198
 2798SOL    MW411240   0.531   0.858   4.263 -0.0518  0.2909 -0.0072
 2799SOL     OW11241   2.720   2.636   4.090  0.6618  0.2800 -0.3396
 2799SOL    HW211242   2.793   2.693   4.068  0.4198  0.5477 -0.4578
 2799SOL    HW311243   2.649   2.697   4.112  0.1626  0.0303 -1.2514
 2799SOL    MW411244   2.720   2.652   4.090  0.5641  0.2825 -0.4754
 2800SOL     OW11245   4.345   4.029   4.346  0.0032  0.5582 -0.4666
 2800SOL    HW211246   4.283   4.094   4.312  0.3941  0.5501 -1.2032
 2800SOL    HW311247   4.431   4.061   4.318  0.2789  0.2406  0.0179
 2800SOL    MW411248   4.348   4.042   4.338  0.0906  0.5150 -0.4997
 2801SOL     OW11249   0.698   1.246   3.844  0.0290 -0.7447 -0.6406
 2801SOL    HW211250   0.706   1.327   3.895 -0.2821 -1.6674  0.9028
 2801SOL    HW311251   0.694   1.276   3.753 -0.7670  1.0236 -0.0568
 2801SOL    MW411252   0.698   1.261   3.838 -0.1171 -0.6332 -0.3600
 2802SOL     OW11253   3.184   0.546   4.578 -0.2406 -0.4558 -0.1361
 2802SOL    HW211254   3.102   0.508   4.609  0.3212 -0.2521  1.6894
 2802SOL    HW311255   3.249   0.476   4.589  0.0055 -0.3191 -0.7026
 2802SOL    MW411256   3.182   0.532   4.584 -0.1342 -0.4109  0.0300
 2803SOL     OW11257   2.877   2.645   4.867  0.1653  0.0988  0.2408
 2803SOL    HW211258   2.963   2.642   4.910  0.7034 -0.5316 -0.8567
 2803SOL    HW311259   2.888   2.706   4.794 -0.5440  0.6139  0.5615
 2803SOL    MW411260   2.890   2.652   4.863  0.1426  0.0834  0.1383
 2804SOL     OW11261   1.951   2.525   4.264 -0.0528  0.2249  0.1499
 2804SOL    HW211262   1.961   2.531   4.359  2.1732 -1.8573  0.0883
 2804SOL    HW311263   1.957   2.431   4.245 -1.1077  0.5549 -2.0132
 2804SOL    MW411264   1.953   2.513   4.274  0.1016 -0.0062 -0.1440
 2805SOL     OW11265   1.327   1.914   4.235  0.9837  0.4458 -0.2658
 2805SOL    HW211266   1.416   1.935   4.265  0.5532 -1.2751  2.3580
 2805SOL    HW311267   1.271   1.975   4.283  0.5411 -0.2934  0.1687
 2805SOL    MW411268   1.331   1.925   4.245  0.8684  0.1212  0.1373
 2806SOL     OW11269   1.173   2.711   4.861  0.1254 -0.4662 -0.5949
 2806SOL    HW211270   1.139   2.763   4.788 -1.1263 -0.0161  0.2958
 2806SOL    HW311271   1.248   2.762   4.893 -0.2506  0.0955 -0.6009
 2806SOL    MW411272   1.179   2.725   4.856 -0.0894 -0.3326 -0.4783
 2807SOL     OW11273   0.606   4.390   4.582  0.1432 -0.1096 -0.2153
 2807SOL    HW211274   0.554   4.424   4.509  0.7805 -1.4221 -1.3206
 2807SOL    HW311275   0.688   4.437   4.576  0.4806 -0.7540 -0.8448
 2807SOL    MW411276   0.610   4.401   4.571  0.2718 -0.3676 -0.4444
 2808SOL     OW11277   3.178   2.572   4.463 -0.7368  0.0451 -0.0063
 2808SOL    HW211278   3.085   2.571   4.485 -1.0792 -2.2033 -1.3837
 2808SOL    HW311279   3.215   2.496   4.510  0.0429 -0.1017 -0.8418
 2808SOL    MW411280   3.171   2.561   4.472 -0.6793 -0.2708 -0.2980
 2809SOL     OW11281   0.669   3.600   3.826 -0.0958  0.1804 -0.1004
 2809SOL    HW211282   0.753   3.559   3.847 -0.2848 -0.3013 -0.2889
 2809SOL    HW311283   0.677   3.623   3.733 -1.0796 -2.0350 -0.7439
 2809SOL    MW411284   0.681   3.598   3.816 -0.2506 -0.1755 -0.2098
 2810SOL     OW11285   0.319   4.151   4.775  0.1082 -0.3382 -0.0766
 2810SOL    HW211286   0.413   4.167   4.781  0.1574 -1.0088  1.1056
 2810SOL    HW311287   0.281   4.238   4.762  0.8841 -0.0679 -0.6122
 2810SOL    MW411288   0.327   4.164   4.774  0.2170 -0.3905  0.0086
 2811SOL     OW11289   2.392   2.891   3.791  0.3271 -0.5730 -0.0770
 2811SOL    HW211290   2.382   2.961   3.855  0.1222 -1.0941  0.4627
 2811SOL    HW311291   2.352   2.815   3.832 -0.0756 -0.8425 -0.9432
 2811SOL    MW411292   2.385   2.891   3.805  0.2468 -0.6771 -0.1202
 2812SOL     OW11293   1.746   3.859   4.681  0.2851 -0.3837 -0.2718
 2812SOL    HW211294   1.672   3.808   4.649  0.9034 -0.5467 -1.4892
 2812SOL    HW311295   1.722   3.884   4.770 -0.4930 -1.8658 -0.0582
 2812SOL    MW411296   1.733   3.855   4.688  0.2640 -0.6011 -0.4039
 2813SOL     OW11297   3.131   4.007   3.865  0.1051  0.4199  0.1835
 2813SOL    HW211298   3.137   4.098   3.894 -1.0004  1.0562 -1.5379
 2813SOL    HW311299   3.040   3.981   3.882  0.5120 -0.5116  1.0418
 2813SOL    MW411300   3.120   4.015   3.871  0.0131  0.3810  0.0696
 2814SOL     OW11301   3.133   2.678   3.909 -0.0344  0.3151  0.3777
 2814SOL    HW211302   3.146   2.650   3.999 -1.5755 -0.5948  0.3465
 2814SOL    HW311303   3.137   2.597   3.858 -0.6904  0.6217 -0.1775
 2814SOL    MW411304   3.135   2.663   3.914 -0.3245  0.2356  0.3004
 2815SOL     OW11305   2.618   2.336   4.422 -0.7673  0.0484 -0.3013
 2815SOL    HW211306   2.622   2.255   4.372  0.2695 -0.6659  0.8902
 2815SOL    HW311307   2.530   2.370   4.406 -0.9071 -0.8428 -1.5232
 2815SOL    MW411308   2.607   2.330   4.414 -0.6487 -0.1633 -0.3061
 2816SOL     OW11309   4.480   2.664   4.255 -0.3452  0.3934 -0.4548
 2816SOL    HW211310   4.502   2.652   4.163 -2.0569  0.1217 -0.8521
 2816SOL    HW311311   4.387   2.689   4.254 -0.5803 -0.3615  1.2372
 2816SOL    MW411312   4.471   2.666   4.242 -0.6022  0.2580 -0.2842
 2817SOL     OW11313   3.172   3.509   4.183 -0.2184 -0.1820  0.2977
 2817SOL    HW211314   3.149   3.490   4.092 -0.9619 -0.9879  0.6496
 2817SOL    HW311315   3.113   3.455   4.235  1.7018 -1.4692  1.2348
 2817SOL    MW411316   3.161   3.499   4.178 -0.0629 -0.4582  0.4678
 2818SOL     OW11317   1.266   4.234   4.529 -0.1180  0.1976 -0.4160
 2818SOL    HW211318   1.213   4.155   4.535  0.1216 -0.0647 -1.6561
 2818SOL    HW311319   1.206   4.301   4.497 -0.1666  0.3630  0.0197
 2818SOL    MW411320   1.251   4.233   4.526 -0.0930  0.1841 -0.5221
 2819SOL     OW11321   2.431   0.964   3.859 -0.3785  0.0487 -0.4341
 2819SOL    HW211322   2.510   0.914   3.838 -0.4297  0.0743 -0.6859
 2819SOL    HW311323   2.360   0.913   3.821 -0.3189  0.9344 -1.7478
 2819SOL    MW411324   2.432   0.951   3.851 -0.3774  0.1689 -0.6409
 2820SOL     OW11325   3.141   3.776   4.259 -0.3382 -0.4255 -0.4926
 2820SOL    HW211326   3.149   3.686   4.226 -1.8330 -0.1640 -1.6295
 2820SOL    HW311327   3.051   3.801   4.238 -0.3996  0.8242  1.1630
 2820SOL    MW411328   3.130   3.767   4.252 -0.5434 -0.2258 -0.4244
 2821SOL     OW11329   0.047   3.119   4.194  0.1223 -0.2922 -0.2248
 2821SOL    HW211330   0.068   3.097   4.103 -1.8359  0.0738 -0.8055
 2821SOL    HW311331   0.062   3.038   4.242 -0.0016 -0.8539 -1.1037
 2821SOL    MW411332   0.051   3.105   4.188 -0.1524 -0.3181 -0.4177
 2822SOL     OW11333   1.119   4.570   4.177 -1.3273 -0.1080  0.0858
 2822SOL    HW211334   1.024   4.565   4.190 -1.4310 -0.4352 -0.7680
 2822SOL    HW311335   1.129   4.598   4.086 -0.5974 -0.8642 -0.0722
 2822SOL    MW411336   1.108   4.573   4.167 -1.2447 -0.2508 -0.0482
 2823SOL     OW11337   1.601   0.011   3.914 -0.2086  0.2592 -0.1378
 2823SOL    HW211338   1.600  -0.078   3.878  0.3248 -0.0783  0.6767
 2823SOL    HW311339   1.637   0.001   4.002  1.2478  1.4727 -0.5719
 2823SOL    MW411340   1.606  -0.002   3.921  0.0539  0.3747 -0.0877
 2824SOL     OW11341   4.067   0.153   4.350 -0.1834  0.2809 -0.4442
 2824SOL    HW211342   4.022   0.229   4.313  0.3915  0.7936 -0.1005
 2824SOL    HW311343   4.143   0.190   4.394 -1.1666 -0.2535  1.7635
 2824SOL    MW411344   4.071   0.168   4.351 -0.2375  0.2781 -0.1078
 2825SOL     OW11345   1.127   2.879   4.656 -0.0808  0.0792 -0.3112
 2825SOL    HW211346   1.036   2.889   4.627 -0.3050  0.0234  0.3785
 2825SOL    HW311347   1.157   2.969   4.671  0.0553  0.1116 -0.7774
 2825SOL    MW411348   1.119   2.892   4.654 -0.0924  0.0761 -0.2818
 2826SOL     OW11349   0.353   0.487   4.289  0.4514 -0.3725 -0.4001
 2826SOL    HW211350   0.272   0.487   4.340  1.5140 -2.3841  1.3436
 2826SOL    HW311351   0.337   0.550   4.219 -2.3983 -0.2954  0.2711
 2826SOL    MW411352   0.340   0.495   4.286  0.2156 -0.6277 -0.0815
 2827SOL     OW11353   3.814   4.621   3.936 -0.2485 -0.0592  0.4330
 2827SOL    HW211354   3.887   4.665   3.894 -1.1024  1.6399  0.6930
 2827SOL    HW311355   3.820   4.530   3.905  1.2562  0.3275 -0.4699
 2827SOL    MW411356   3.824   4.615   3.926 -0.1626  0.2155  0.3481
 2828SOL     OW11357   1.992   0.505   4.357 -0.3279  0.1824 -0.0334
 2828SOL    HW211358   2.068   0.555   4.328  1.0498 -0.6472  1.9937
 2828SOL    HW311359   1.926   0.571   4.380  0.8139  1.0292  0.8743
 2828SOL    MW411360   1.993   0.520   4.356  0.0045  0.1847  0.3533
 2829SOL     OW11361   0.750   3.989   4.138  0.2363 -0.8612 -0.1421
 2829SOL    HW211362   0.788   3.935   4.207  1.7348  0.1514 -0.1488
 2829SOL    HW311363   0.729   3.927   4.068  2.1619 -1.4499 -0.2528
 2829SOL    MW411364   0.753   3.973   4.138  0.6881 -0.8054 -0.1578
 2830SOL     OW11365   2.196   3.615   4.156  0.2103 -0.2566  0.6363
 2830SOL    HW211366   2.285   3.597   4.187  0.8663 -0.4252 -1.2634
 2830SOL    HW311367   2.158   3.528   4.142 -0.3220 -0.1862  1.5764
 2830SOL    MW411368   2.203   3.601   4.158  0.2265 -0.2697  0.5102
 2831SOL     OW11369   3.163   2.606   4.854  0.1405  0.1109 -0.1101
 2831SOL    HW211370   3.189   2.676   4.795  0.7007 -0.7520 -0.9011
 2831SOL    HW311371   3.240   2.550   4.861 -0.5230 -0.8047 -0.0352
 2831SOL    MW411372   3.176   2.608   4.847  0.1268 -0.1237 -0.2046
 2832SOL     OW11373   3.960   0.387   4.227  0.0248 -0.3300  0.4707
 2832SOL    HW211374   3.983   0.365   4.137  0.8656  0.4388  0.4920
 2832SOL    HW311375   3.865   0.376   4.231 -0.0919  0.2079 -0.6624
 2832SOL    MW411376   3.951   0.383   4.216  0.1204 -0.1575  0.3242
 2833SOL     OW11377   3.682   3.142   4.281  0.2763 -0.0628  0.8146
 2833SOL    HW211378   3.590   3.134   4.253  0.8603  1.6693 -1.7980
 2833SOL    HW311379   3.678   3.188   4.364 -1.2658 -0.3540  0.9148
 2833SOL    MW411380   3.669   3.147   4.288  0.1497  0.1273  0.4835
 2834SOL     OW11381   1.457   0.962   4.283 -0.1335  0.4647  0.2725
 2834SOL    HW211382   1.383   0.910   4.253 -0.9888  2.2541 -0.8287
 2834SOL    HW311383   1.458   1.038   4.224  1.9854  0.9487  0.8853
 2834SOL    MW411384   1.447   0.965   4.271  0.0333  0.7647  0.2074
 2835SOL     OW11385   0.799   0.994   4.668 -0.0195 -0.7580  0.2815
 2835SOL    HW211386   0.829   0.994   4.759 -0.2557 -1.7020  0.3710
 2835SOL    HW311387   0.770   1.083   4.652  0.5106 -0.4570  0.9723
 2835SOL    MW411388   0.799   1.006   4.678  0.0193 -0.8428  0.3839
 2836SOL     OW11389   1.481   3.484   4.201  0.4795  0.3282  0.4154
 2836SOL    HW211390   1.467   3.574   4.232 -0.1939  0.2030  0.4798
 2836SOL    HW311391   1.420   3.474   4.128  1.6589  0.4346 -0.6140
 2836SOL    MW411392   1.471   3.495   4.195  0.5465  0.3254  0.2880
 2837SOL     OW11393   1.140   1.657   4.246 -0.1455 -0.2615  0.2631
 2837SOL    HW211394   1.107   1.744   4.226 -2.3657 -0.8878  0.9998
 2837SOL    HW311395   1.233   1.670   4.265 -0.1693  1.7385 -0.8428
 2837SOL    MW411396   1.148   1.670   4.246 -0.4417 -0.0802  0.2141
 2838SOL     OW11397   3.460   2.292   4.849  0.5189 -0.0810  0.0623
 2838SOL    HW211398   3.501   2.303   4.763  1.2400  1.6358  0.6296
 2838SOL    HW311399   3.532   2.290   4.911 -0.0926  0.3341  0.8031
 2838SOL    MW411400   3.475   2.293   4.846  0.5336  0.2003  0.2351
 2839SOL     OW11401   0.564   2.040   4.328  0.5875  0.4155  0.1657
 2839SOL    HW211402   0.604   2.116   4.286  3.2956 -1.1292 -0.1937
 2839SOL    HW311403   0.620   1.966   4.303 -1.1593 -1.4958  1.6388
 2839SOL    MW411404   0.577   2.040   4.319  0.7144 -0.0403  0.3123
 2840SOL     OW11405   4.025   0.645   4.337  0.0039 -0.2027  0.2256
 2840SOL    HW211406   4.114   0.680   4.331 -0.3972  0.6498 -1.0027
 2840SOL    HW311407   4.035   0.552   4.317  0.8782 -0.5282  2.0442
 2840SOL    MW411408   4.038   0.637   4.333  0.0663 -0.1332  0.3033
 2841SOL     OW11409   1.830   0.181   4.547  0.5814 -0.4003 -0.4107
 2841SOL    HW211410   1.918   0.213   4.571  0.5188 -0.9710  0.6140
 2841SOL    HW311411   1.771   0.233   4.601  0.3622 -0.8863 -0.1826
 2841SOL    MW411412   1.834   0.192   4.557  0.5443 -0.5397 -0.2456
 2842SOL     OW11413   4.293   2.785   3.795 -0.0501  0.2263 -0.4868
 2842SOL    HW211414   4.305   2.794   3.701  2.0465  1.5967 -0.1458
 2842SOL    HW311415   4.279   2.875   3.826 -0.3495 -0.1669  0.5374
 2842SOL    MW411416   4.293   2.798   3.787  0.1869  0.3552 -0.3071
 2843SOL     OW11417   4.351   4.447   4.199 -0.2372 -0.7006 -0.2691
 2843SOL    HW211418   4.442   4.435   4.172 -0.4510 -0.6834 -1.0159
 2843SOL    HW311419   4.332   4.540   4.182 -0.7363 -0.9653 -1.1958
 2843SOL    MW411420   4.360   4.458   4.193 -0.3309 -0.7339 -0.4902
 2844SOL     OW11421   1.547   2.651   4.561 -0.0606  0.4043 -0.1593
 2844SOL    HW211422   1.578   2.735   4.528  1.3268 -0.9104 -2.3079
 2844SOL    HW311423   1.453   2.663   4.571  0.2022  2.4203  0.2249
 2844SOL    MW411424   1.539   2.664   4.558  0.1571  0.4969 -0.3920
 2845SOL     OW11425   0.652   1.559   4.197  0.1300 -0.2840 -0.0211
 2845SOL    HW211426   0.559   1.582   4.203 -0.3471 -1.0251 -3.5595
 2845SOL    HW311427   0.661   1.482   4.254 -1.5583 -0.6026 -0.1642
 2845SOL    MW411428   0.641   1.551   4.206 -0.1556 -0.4238 -0.5064
 2846SOL     OW11429   2.665   4.579   4.707 -0.0000 -0.0192 -0.7744
 2846SOL    HW211430   2.691   4.671   4.697  0.9728 -0.2729 -0.6254
 2846SOL    HW311431   2.745   4.529   4.692  0.0817 -0.7135  1.6259
 2846SOL    MW411432   2.679   4.585   4.704  0.1392 -0.1445 -0.4377
 2847SOL     OW11433   1.807   3.528   3.910 -0.3567 -0.0672 -0.1539
 2847SOL    HW211434   1.816   3.437   3.884  4.3912  0.5033 -0.8345
 2847SOL    HW311435   1.789   3.525   4.004 -2.3240 -1.6902 -0.5521
 2847SOL    MW411436   1.805   3.516   3.919  0.0101 -0.2060 -0.2964
 2848SOL     OW11437   2.381   2.845   4.598 -0.0434 -0.0484  0.0755
 2848SOL    HW211438   2.368   2.763   4.647 -1.6333  1.0366  1.5397
 2848SOL    HW311439   2.464   2.879   4.631 -0.2542 -0.1934  0.7736
 2848SOL    MW411440   2.390   2.839   4.609 -0.2809  0.0758  0.3614
 2849SOL     OW11441   3.973   2.732   4.167 -0.3608  0.3921  0.2177
 2849SOL    HW211442   3.930   2.654   4.202 -0.5874 -0.2403 -1.4507
 2849SOL    HW311443   3.920   2.805   4.199 -2.1570 -0.3221 -1.0429
 2849SOL    MW411444   3.960   2.732   4.176 -0.6275  0.2146 -0.1683
 2850SOL     OW11445   4.130   3.385   4.547 -0.2245  0.4337  0.1583
 2850SOL    HW211446   4.140   3.476   4.574 -0.5423  0.6457 -0.4235
 2850SOL    HW311447   4.037   3.367   4.561 -0.0243 -0.0120  0.9222
 2850SOL    MW411448   4.119   3.395   4.552 -0.2394  0.4029  0.1826
 2851SOL     OW11449   2.619   3.670   4.711 -0.4735 -0.2177  0.2047
 2851SOL    HW211450   2.572   3.747   4.743  0.5391  0.8603 -0.8230
 2851SOL    HW311451   2.565   3.596   4.737 -2.3173  0.9323 -0.2235
 2851SOL    MW411452   2.606   3.670   4.719 -0.5832  0.0763  0.0129
 2852SOL     OW11453   2.932   2.394   4.723  0.1709 -0.0968  0.2271
 2852SOL    HW211454   3.027   2.386   4.711 -0.0329 -0.8615 -0.9018
 2852SOL    HW311455   2.923   2.463   4.789  1.5080  0.0239  0.3109
 2852SOL    MW411456   2.943   2.402   4.730  0.3204 -0.1817  0.0892
 2853SOL     OW11457   1.329   4.332   4.193 -0.1376  0.2623 -0.3223
 2853SOL    HW211458   1.335   4.316   4.099 -0.3466  1.8323 -0.6222
 2853SOL    HW311459   1.260   4.398   4.202 -1.3718 -1.1377  1.0954
 2853SOL    MW411460   1.321   4.338   4.182 -0.3279  0.2842 -0.1745
 2854SOL     OW11461   1.863   2.896   4.811 -0.2378 -0.3132 -0.3193
 2854SOL    HW211462   1.937   2.835   4.817 -0.6955 -0.7916  0.4660
 2854SOL    HW311463   1.786   2.840   4.804 -0.6409  0.1732  0.1889
 2854SOL    MW411464   1.863   2.881   4.811 -0.3514 -0.3123 -0.1488
 2855SOL     OW11465   1.446   1.188   4.127 -0.2117 -0.4215  0.4255
 2855SOL    HW211466   1.435   1.212   4.035  0.4234 -3.4706 -0.4838
 2855SOL    HW311467   1.508   1.253   4.160 -1.7145  1.7215 -0.8326
 2855SOL    MW411468   1.453   1.200   4.119 -0.3262 -0.5412  0.1392
 2856SOL     OW11469   3.140   0.332   4.271 -0.1786  0.6787  0.3682
 2856SOL    HW211470   3.225   0.349   4.312  0.4943 -2.0165  0.2338
 2856SOL    HW311471   3.154   0.350   4.178  0.0144  1.0321  0.4651
 2856SOL    MW411472   3.153   0.336   4.264 -0.0644  0.3697  0.3633
 2857SOL     OW11473   0.115   0.602   4.777  0.7139  0.1137 -0.5910
 2857SOL    HW211474   0.094   0.509   4.791 -0.1294  0.4910  0.7737
 2857SOL    HW311475   0.209   0.608   4.792  0.8587 -0.6116 -1.1818
 2857SOL    MW411476   0.124   0.591   4.781  0.6218  0.0678 -0.4888
 2858SOL     OW11477   4.354   1.498   3.855  0.2053  0.3308  0.0084
 2858SOL    HW211478   4.273   1.533   3.818  0.1285  0.6754  0.5002
 2858SOL    HW311479   4.418   1.569   3.843  0.6618 -0.2529 -1.1531
 2858SOL    MW411480   4.351   1.512   3.848  0.2551  0.2993 -0.0801
 2859SOL     OW11481   1.035   2.984   4.185  0.5358 -0.1689  0.1839
 2859SOL    HW211482   1.055   3.016   4.097 -1.2445  0.9585  0.1605
 2859SOL    HW311483   1.017   3.063   4.235  0.2563 -0.8862  1.2270
 2859SOL    MW411484   1.036   2.999   4.180  0.2639 -0.1149  0.3185
 2860SOL     OW11485   0.973   3.220   4.323  0.1191 -0.1082 -0.5691
 2860SOL    HW211486   1.057   3.242   4.364 -0.0024 -1.5700  0.4939
 2860SOL    HW311487   0.913   3.204   4.396 -0.8243 -0.0407 -1.3158
 2860SOL    MW411488   0.976   3.220   4.338 -0.0214 -0.2923 -0.5274
 2861SOL     OW11489   0.358   1.598   4.194 -0.5850  0.1473 -0.0744
 2861SOL    HW211490   0.317   1.580   4.109  0.7897  0.6987 -0.8882
 2861SOL    HW311491   0.351   1.693   4.203  0.6387  0.2635 -0.3014
 2861SOL    MW411492   0.352   1.608   4.184 -0.2422  0.2354 -0.2112
 2862SOL     OW11493   2.836   1.089   4.370  0.0461  0.4339 -0.7415
 2862SOL    HW211494   2.750   1.047   4.365 -0.6077  1.5562  0.7039
 2862SOL    HW311495   2.873   1.060   4.453 -0.3691  2.5761  0.2211
 2862SOL    MW411496   2.829   1.080   4.380 -0.0949  0.8645 -0.4239
 2863SOL     OW11497   0.260   1.052   4.504 -0.3148 -0.1630  0.3025
 2863SOL    HW211498   0.243   1.095   4.419  2.9677 -0.9032 -0.7831
 2863SOL    HW311499   0.315   1.114   4.551 -0.2579 -0.7521  1.0125
 2863SOL    MW411500   0.265   1.066   4.499  0.1258 -0.3383  0.2527
 2864SOL     OW11501   3.224   2.328   4.663  0.1249 -0.5035 -0.1322
 2864SOL    HW211502   3.246   2.263   4.596  1.5945  0.5882 -0.7175
 2864SOL    HW311503   3.295   2.320   4.728  1.0612  1.4317 -0.8797
 2864SOL    MW411504   3.236   2.318   4.663  0.4425 -0.1042 -0.3076
 2865SOL     OW11505   2.189   2.691   3.882  0.5443  0.1768 -0.5633
 2865SOL    HW211506   2.226   2.604   3.870 -1.2953 -0.5510 -0.9838
 2865SOL    HW311507   2.185   2.702   3.977 -0.1340 -0.5961 -0.4985
 2865SOL    MW411508   2.193   2.681   3.893  0.2122 -0.0215 -0.6101
 2866SOL     OW11509   2.955   0.332   4.543 -0.2463  0.7279 -0.5190
 2866SOL    HW211510   2.868   0.293   4.552 -1.4896  3.4087 -0.4680
 2866SOL    HW311511   2.985   0.304   4.457  0.1571 -2.6922  0.6602
 2866SOL    MW411512   2.947   0.323   4.533 -0.3572  0.6303 -0.3567
 2867SOL     OW11513   0.845   4.565   4.143 -0.2739  0.9804 -0.1049
 2867SOL    HW211514   0.797   4.564   4.059 -1.1133 -0.5854  0.3748
 2867SOL    HW311515   0.803   4.497   4.195  1.8006  0.3121  0.7389
 2867SOL    MW411516   0.833   4.556   4.139 -0.1109  0.6857  0.0701
 2868SOL     OW11517   2.041   4.455   3.817 -0.0383  0.1336  0.1542
 2868SOL    HW211518   2.011   4.470   3.727 -0.0862  2.0031  0.4664
 2868SOL    HW311519   2.025   4.538   3.862 -0.6507 -0.9852  2.0735
 2868SOL    MW411520   2.035   4.468   3.811 -0.1256  0.2322  0.4489
 2869SOL     OW11521   1.582   4.397   4.333 -0.4561 -0.2080  0.2183
 2869SOL    HW211522   1.503   4.372   4.285 -0.1529  0.5975 -0.7289
 2869SOL    HW311523   1.614   4.474   4.286 -0.2206  0.6662  1.7945
 2869SOL    MW411524   1.576   4.404   4.321 -0.3852  0.0129  0.3018
 2870SOL     OW11525   0.281   0.726   4.152  0.7211  0.0688 -0.4807
 2870SOL    HW211526   0.365   0.768   4.170  0.3640  0.4609  0.3490
 2870SOL    HW311527   0.230   0.742   4.232  0.0205 -0.5508 -0.8054
 2870SOL    MW411528   0.285   0.734   4.165  0.5815  0.0387 -0.4144
 2871SOL     OW11529   2.486   3.570   4.195  0.1462 -0.0361 -0.2920
 2871SOL    HW211530   2.537   3.596   4.118 -0.6216  0.6039 -0.5868
 2871SOL    HW311531   2.487   3.648   4.252  1.5223 -0.8162  0.7876
 2871SOL    MW411532   2.493   3.584   4.193  0.2267 -0.0548 -0.1884
 2872SOL     OW11533   2.193   4.159   4.129 -0.0127  0.2776 -0.2825
 2872SOL    HW211534   2.218   4.220   4.060  0.5876 -0.7399 -0.9759
 2872SOL    HW311535   2.172   4.215   4.204 -1.4573  1.4350 -1.5176
 2872SOL    MW411536   2.193   4.175   4.130 -0.1242  0.2966 -0.5369
 2873SOL     OW11537   0.826   2.697   3.952 -0.1733 -0.2585  0.7556
 2873SOL    HW211538   0.758   2.748   3.910 -0.7530 -1.3444  0.3654
 2873SOL    HW311539   0.908   2.740   3.927 -0.6701  0.5774  0.5833
 2873SOL    MW411540   0.828   2.709   3.943 -0.3154 -0.2916  0.6814
 2874SOL     OW11541   2.023   0.030   3.947  0.1438 -0.4586  0.0097
 2874SOL    HW211542   2.098   0.079   3.912  1.0000 -1.4370  0.4542
 2874SOL    HW311543   1.948   0.066   3.901  0.7975  1.0479  0.0899
 2874SOL    MW411544   2.023   0.042   3.936  0.3431 -0.3889  0.0787
 2875SOL     OW11545   3.135   4.065   4.596 -0.2473  0.0312 -0.1155
 2875SOL    HW211546   3.116   4.091   4.506 -2.3109  0.0505  0.3189
 2875SOL    HW311547   3.170   3.976   4.588  2.0149  0.9728 -1.1381
 2875SOL    MW411548   3.137   4.057   4.583 -0.2213  0.1578 -0.1931
 2876SOL     OW11549   4.112   1.652   4.239 -0.2894  0.6096 -0.7726
 2876SOL    HW211550   4.201   1.686   4.240 -0.1094  0.1909  1.5440
 2876SOL    HW311551   4.107   1.597   4.317 -3.0500  1.8773  0.0094
 2876SOL    MW411552   4.123   1.649   4.250 -0.6299  0.7216 -0.3638
 2877SOL     OW11553   2.232   1.572   4.520 -0.4829  0.3180 -0.5794
 2877SOL    HW211554   2.174   1.615   4.583 -0.1464  0.5505 -0.4267
 2877SOL    HW311555   2.320   1.588   4.554 -0.3757 -0.8111 -0.3253
 2877SOL    MW411556   2.236   1.580   4.533 -0.4246  0.1997 -0.5255
 2878SOL     OW11557   4.181   2.698   4.352 -0.5168  0.4041  0.0209
 2878SOL    HW211558   4.172   2.778   4.403 -1.5765  0.1773  0.1979
 2878SOL    HW311559   4.138   2.717   4.269 -2.2073 -0.5209  0.6743
 2878SOL    MW411560   4.174   2.711   4.348 -0.8793  0.2522  0.1307
 2879SOL     OW11561   1.499   1.032   4.537 -0.3819 -0.1564  0.1068
 2879SOL    HW211562   1.486   1.124   4.559 -1.3750 -0.3278  0.2647
 2879SOL    HW311563   1.471   1.025   4.446  1.3073  0.0345 -0.4424
 2879SOL    MW411564   1.494   1.043   4.528 -0.2900 -0.1539  0.0553
 2880SOL     OW11565   2.065   2.722   4.880  0.1406 -0.3843 -0.1218
 2880SOL    HW211566   2.117   2.693   4.805 -0.6246 -0.5118 -0.6165
 2880SOL    HW311567   2.126   2.773   4.934  0.8341 -0.7442 -0.5552
 2880SOL    MW411568   2.080   2.725   4.877  0.1311 -0.4482 -0.2441
 2881SOL     OW11569   0.616   0.281   4.662  0.4346  0.2580  0.1949
 2881SOL    HW211570   0.688   0.225   4.636  1.6605  1.5720  0.6947
 2881SOL    HW311571   0.593   0.330   4.583  0.1322 -0.1101  0.0539
 2881SOL    MW411572   0.622   0.280   4.648  0.5564  0.3828  0.2422
 2882SOL     OW11573   3.424   2.200   4.401  0.3701  0.3553  0.3474
 2882SOL    HW211574   3.459   2.114   4.422  1.1370  0.7744  0.8117
 2882SOL    HW311575   3.333   2.183   4.375  0.5830 -0.6097  0.2112
 2882SOL    MW411576   3.417   2.186   4.401  0.4995  0.2832  0.3910
 2883SOL     OW11577   3.854   4.642   4.434 -0.0271  0.7747  0.6117
 2883SOL    HW211578   3.943   4.676   4.432  0.6097 -0.9350 -0.4995
 2883SOL    HW311579   3.833   4.625   4.343 -0.2718 -1.9784  1.1485
 2883SOL    MW411580   3.863   4.644   4.422  0.0243  0.1860  0.5360
 2884SOL     OW11581   3.188   3.230   4.715  0.7632 -0.0093  0.2264
 2884SOL    HW211582   3.251   3.197   4.779  1.0958 -1.6905 -0.8952
 2884SOL    HW311583   3.232   3.304   4.674  0.3072  1.4513  2.3114
 2884SOL    MW411584   3.202   3.235   4.718  0.7470 -0.0389  0.3538
 2885NA      NA11585   0.609   0.323   0.751 -0.0438 -0.0448  0.0566
   4.49070   4.66690  10.00000
