GROningen MAchine for Chemical Simulation
  154
    1C     HO5'    1   0.038  -0.119  -0.013
    1C      O5'    2   0.040  -0.024  -0.024
    1C      C5'    3   0.170   0.021   0.015
    1C      H5'    4   0.184   0.124  -0.019
    1C     H5''    5   0.246  -0.042  -0.030
    1C      C4'    6   0.185   0.016   0.166
    1C      H4'    7   0.290  -0.003   0.187
    1C      O4'    8   0.137   0.142   0.222
    1C      C1'    9   0.051   0.115   0.331
    1C      H1'   10   0.078   0.185   0.411
    1C       N1   11  -0.087   0.143   0.290
    1C       C6   12  -0.115   0.190   0.165
    1C       H6   13  -0.034   0.207   0.094
    1C       C2   14  -0.191   0.122   0.382
    1C       O2   15  -0.164   0.079   0.495
    1C       N3   16  -0.319   0.148   0.345
    1C       C4   17  -0.344   0.194   0.222
    1C       N4   18  -0.471   0.219   0.191
    1C      H41   19  -0.495   0.254   0.099
    1C      H42   20  -0.544   0.203   0.259
    1C       C5   21  -0.241   0.217   0.127
    1C       H5   22  -0.263   0.254   0.027
    1C      C2'   23   0.076  -0.030   0.371
    1C      H2'   24  -0.013  -0.075   0.417
    1C      O2'   25   0.189  -0.036   0.456
    1C     HO2'   26   0.254  -0.092   0.413
    1C      C3'   27   0.105  -0.093   0.236
    1C      H3'   28   0.014  -0.117   0.181
    1C      O3'   29   0.179  -0.214   0.246
    2C        P   30   0.101  -0.355   0.251
    2C      OP1   31   0.201  -0.461   0.227
    2C      OP2   32  -0.019  -0.345   0.164
    2C      O5'   33   0.051  -0.366   0.402
    2C      C5'   34   0.145  -0.369   0.510
    2C      H5'   35   0.199  -0.274   0.515
    2C     H5''   36   0.216  -0.450   0.496
    2C      C4'   37   0.072  -0.390   0.641
    2C      H4'   38   0.146  -0.420   0.715
    2C      O4'   39   0.002  -0.268   0.676
    2C      C1'   40  -0.126  -0.299   0.730
    2C      H1'   41  -0.134  -0.246   0.825
    2C       N1   42  -0.229  -0.246   0.639
    2C       C6   43  -0.206  -0.237   0.505
    2C       H6   44  -0.110  -0.269   0.464
    2C       C2   45  -0.351  -0.205   0.693
    2C       O2   46  -0.370  -0.215   0.815
    2C       N3   47  -0.447  -0.156   0.610
    2C       C4   48  -0.423  -0.147   0.479
    2C       N4   49  -0.520  -0.099   0.402
    2C      H41   50  -0.506  -0.090   0.302
    2C      H42   51  -0.607  -0.070   0.444
    2C       C5   52  -0.299  -0.188   0.422
    2C       H5   53  -0.281  -0.181   0.315
    2C      C2'   54  -0.132  -0.451   0.748
    2C      H2'   55  -0.232  -0.489   0.730
    2C      O2'   56  -0.083  -0.482   0.877
    2C     HO2'   57   0.009  -0.454   0.880
    2C      C3'   58  -0.035  -0.498   0.640
    2C      H3'   59  -0.083  -0.506   0.542
    2C      O3'   60   0.019  -0.626   0.669
    3C        P   61  -0.048  -0.758   0.605
    3C      OP1   62  -0.169  -0.717   0.529
    3C      OP2   63  -0.060  -0.860   0.712
    3C      O5'   64   0.061  -0.809   0.500
    3C      C5'   65   0.117  -0.721   0.403
    3C      H5'   66   0.072  -0.622   0.413
    3C     H5''   67   0.096  -0.758   0.303
    3C      C4'   68   0.266  -0.710   0.421
    3C      H4'   69   0.304  -0.642   0.345
    3C      O4'   70   0.293  -0.664   0.557
    3C      C1'   71   0.387  -0.749   0.618
    3C      H1'   72   0.486  -0.706   0.599
    3C       N1   73   0.364  -0.750   0.763
    3C       C6   74   0.243  -0.715   0.815
    3C       H6   75   0.162  -0.686   0.747
    3C       C2   76   0.469  -0.787   0.848
    3C       O2   77   0.578  -0.818   0.799
    3C       N3   78   0.448  -0.788   0.982
    3C       C4   79   0.329  -0.754   1.031
    3C       N4   80   0.314  -0.756   1.163
    3C      H41   81   0.225  -0.730   1.204
    3C      H42   82   0.391  -0.783   1.222
    3C       C5   83   0.221  -0.715   0.947
    3C       H5   84   0.124  -0.687   0.988
    3C      C2'   85   0.370  -0.885   0.549
    3C      H2'   86   0.284  -0.939   0.589
    3C      O2'   87   0.491  -0.957   0.559
    3C     HO2'   88   0.543  -0.934   0.483
    3C      C3'   89   0.343  -0.841   0.405
    3C      H3'   90   0.286  -0.914   0.349
    3C      O3'   91   0.465  -0.821   0.333
    4C        P   92   0.460  -0.804   0.172
    4C      OP1   93   0.327  -0.849   0.125
    4C      OP2   94   0.583  -0.867   0.116
    4C      O5'   95   0.470  -0.646   0.150
    4C      C5'   96   0.579  -0.571   0.203
    4C      H5'   97   0.641  -0.533   0.121
    4C     H5''   98   0.640  -0.634   0.268
    4C      C4'   99   0.526  -0.454   0.283
    4C      H4'  100   0.446  -0.407   0.226
    4C      O4'  101   0.484  -0.502   0.414
    4C      C1'  102   0.514  -0.405   0.513
    4C      H1'  103   0.421  -0.383   0.564
    4C       N1  104   0.607  -0.466   0.610
    4C       C6  105   0.686  -0.572   0.575
    4C       H6  106   0.681  -0.612   0.474
    4C       C2  107   0.612  -0.414   0.739
    4C       O2  108   0.539  -0.318   0.769
    4C       N3  109   0.696  -0.469   0.830
    4C       C4  110   0.773  -0.572   0.795
    4C       N4  111   0.854  -0.624   0.887
    4C      H41  112   0.914  -0.702   0.864
    4C      H42  113   0.855  -0.584   0.980
    4C       C5  114   0.770  -0.628   0.663
    4C       H5  115   0.833  -0.712   0.636
    4C      C2'  116   0.571  -0.283   0.442
    4C      H2'  117   0.651  -0.236   0.500
    4C      O2'  118   0.465  -0.194   0.412
    4C     HO2'  119   0.410  -0.236   0.347
    4C      C3'  120   0.628  -0.345   0.314
    4C      H3'  121   0.728  -0.386   0.328
    4C      O3'  122   0.638  -0.251   0.208
    5C        P  123   0.774  -0.168   0.187
    5C      OP1  124   0.844  -0.226   0.069
    5C      OP2  125   0.845  -0.159   0.317
    5C      O5'  126   0.725  -0.022   0.148
    5C      C5'  127   0.617  -0.002   0.056
    5C      H5'  128   0.545  -0.083   0.066
    5C     H5''  129   0.656  -0.002  -0.046
    5C      C4'  130   0.549   0.130   0.082
    5C      H4'  131   0.505   0.164  -0.011
    5C      O4'  132   0.452   0.112   0.189
    5C      C1'  133   0.453   0.224   0.275
    5C      H1'  134   0.350   0.259   0.283
    5C       N1  135   0.496   0.179   0.408
    5C       C6  136   0.587   0.078   0.423
    5C       H6  137   0.628   0.030   0.334
    5C       C2  138   0.443   0.243   0.521
    5C       O2  139   0.361   0.334   0.506
    5C       N3  140   0.483   0.202   0.644
    5C       C4  141   0.571   0.103   0.657
    5C       N4  142   0.607   0.067   0.780
    5C      H41  143   0.674  -0.007   0.793
    5C      H42  144   0.566   0.114   0.859
    5C       C5  145   0.627   0.038   0.544
    5C       H5  146   0.700  -0.043   0.555
    5C      C2'  147   0.545   0.329   0.213
    5C      H2'  148   0.599   0.385   0.289
    5C      O2'  149   0.468   0.412   0.128
    5C     HO2'  150   0.519   0.427   0.048
    5C      H3'  151   0.722   0.202   0.193
    5C      C3'  152   0.640   0.242   0.132
    5C      O3'  153   0.702   0.312   0.024
    5C     HO3'  154   0.763   0.251  -0.019
   0.00000   0.00000   0.00000
