GROningen MAchine for Chemical Simulation
  154
    1C      O5'    1   0.040  -0.024  -0.024
    1C      H5T    2   0.032  -0.020  -0.124
    1C      C5'    3   0.170   0.021   0.015
    1C     H5'1    4   0.181   0.115  -0.018
    1C     H5'2    5   0.238  -0.038  -0.029
    1C      C4'    6   0.185   0.016   0.166
    1C      H4'    7   0.282   0.001   0.183
    1C      O4'    8   0.137   0.142   0.222
    1C      C1'    9   0.051   0.115   0.331
    1C      H1'   10   0.070   0.177   0.407
    1C       N1   11  -0.087   0.143   0.290
    1C       C6   12  -0.115   0.190   0.165
    1C       H6   13  -0.040   0.205   0.100
    1C       C5   14  -0.241   0.217   0.127
    1C       H5   15  -0.261   0.252   0.036
    1C       C4   16  -0.344   0.194   0.222
    1C       N4   17  -0.471   0.219   0.191
    1C      H41   18  -0.494   0.254   0.100
    1C      H42   19  -0.543   0.203   0.258
    1C       N3   20  -0.319   0.148   0.345
    1C       C2   21  -0.191   0.122   0.382
    1C       O2   22  -0.164   0.079   0.495
    1C      C3'   23   0.105  -0.093   0.236
    1C      H3'   24   0.024  -0.126   0.187
    1C      C2'   25   0.076  -0.030   0.371
    1C     H2'1   26   0.006  -0.076   0.425
    1C      O2'   27   0.189  -0.036   0.456
    1C     HO'2   28   0.206  -0.131   0.482
    1C      O3'   29   0.179  -0.214   0.246
    2C        P   30   0.101  -0.355   0.251
    2C      O1P   31   0.201  -0.461   0.227
    2C      O2P   32  -0.019  -0.345   0.164
    2C      O5'   33   0.051  -0.366   0.402
    2C      C5'   34   0.145  -0.369   0.510
    2C     H5'1   35   0.194  -0.282   0.511
    2C     H5'2   36   0.209  -0.444   0.493
    2C      C4'   37   0.072  -0.390   0.641
    2C      H4'   38   0.143  -0.414   0.707
    2C      O4'   39   0.002  -0.268   0.676
    2C      C1'   40  -0.126  -0.299   0.730
    2C      H1'   41  -0.139  -0.252   0.817
    2C       N1   42  -0.229  -0.246   0.639
    2C       C6   43  -0.206  -0.237   0.505
    2C       H6   44  -0.118  -0.267   0.468
    2C       C5   45  -0.299  -0.188   0.422
    2C       H5   46  -0.282  -0.180   0.324
    2C       C4   47  -0.423  -0.147   0.479
    2C       N4   48  -0.520  -0.099   0.402
    2C      H41   49  -0.506  -0.091   0.303
    2C      H42   50  -0.607  -0.070   0.443
    2C       N3   51  -0.447  -0.156   0.610
    2C       C2   52  -0.351  -0.205   0.693
    2C       O2   53  -0.370  -0.215   0.815
    2C      C3'   54  -0.035  -0.498   0.640
    2C      H3'   55  -0.076  -0.515   0.551
    2C      C2'   56  -0.132  -0.451   0.748
    2C     H2'1   57  -0.222  -0.495   0.746
    2C      O2'   58  -0.083  -0.482   0.877
    2C     HO'2   59  -0.086  -0.581   0.891
    2C      O3'   60   0.019  -0.626   0.669
    3C        P   61  -0.048  -0.758   0.605
    3C      O1P   62  -0.169  -0.717   0.529
    3C      O2P   63  -0.060  -0.860   0.712
    3C      O5'   64   0.061  -0.809   0.500
    3C      C5'   65   0.117  -0.721   0.403
    3C     H5'1   66   0.074  -0.631   0.414
    3C     H5'2   67   0.096  -0.757   0.312
    3C      C4'   68   0.266  -0.710   0.421
    3C      H4'   69   0.297  -0.645   0.352
    3C      O4'   70   0.293  -0.664   0.557
    3C      C1'   71   0.387  -0.749   0.618
    3C      H1'   72   0.480  -0.713   0.608
    3C       N1   73   0.364  -0.750   0.763
    3C       C6   74   0.243  -0.715   0.815
    3C       H6   75   0.169  -0.689   0.753
    3C       C5   76   0.221  -0.715   0.947
    3C       H5   77   0.132  -0.689   0.985
    3C       C4   78   0.329  -0.754   1.031
    3C       N4   79   0.314  -0.756   1.163
    3C      H41   80   0.226  -0.730   1.204
    3C      H42   81   0.390  -0.783   1.222
    3C       N3   82   0.448  -0.788   0.982
    3C       C2   83   0.469  -0.787   0.848
    3C       O2   84   0.578  -0.818   0.799
    3C      C3'   85   0.343  -0.841   0.405
    3C      H3'   86   0.297  -0.910   0.349
    3C      C2'   87   0.370  -0.885   0.549
    3C     H2'1   88   0.304  -0.949   0.588
    3C      O2'   89   0.491  -0.957   0.559
    3C     HO'2   90   0.481  -1.046   0.514
    3C      O3'   91   0.465  -0.821   0.333
    4C        P   92   0.460  -0.804   0.172
    4C      O1P   93   0.327  -0.849   0.125
    4C      O2P   94   0.583  -0.867   0.116
    4C      O5'   95   0.470  -0.646   0.150
    4C      C5'   96   0.579  -0.571   0.203
    4C     H5'1   97   0.635  -0.539   0.127
    4C     H5'2   98   0.633  -0.632   0.261
    4C      C4'   99   0.526  -0.454   0.283
    4C      H4'  100   0.451  -0.417   0.228
    4C      O4'  101   0.484  -0.502   0.414
    4C      C1'  102   0.514  -0.405   0.513
    4C      H1'  103   0.431  -0.380   0.563
    4C       N1  104   0.607  -0.466   0.610
    4C       C6  105   0.686  -0.572   0.575
    4C       H6  106   0.681  -0.608   0.482
    4C       C5  107   0.770  -0.628   0.663
    4C       H5  108   0.828  -0.705   0.638
    4C       C4  109   0.773  -0.572   0.795
    4C       N4  110   0.854  -0.624   0.887
    4C      H41  111   0.912  -0.702   0.864
    4C      H42  112   0.856  -0.585   0.979
    4C       N3  113   0.696  -0.469   0.830
    4C       C2  114   0.612  -0.414   0.739
    4C       O2  115   0.539  -0.318   0.769
    4C      C3'  116   0.628  -0.345   0.314
    4C      H3'  117   0.723  -0.375   0.320
    4C      C2'  118   0.571  -0.283   0.442
    4C     H2'1  119   0.635  -0.226   0.494
    4C      O2'  120   0.465  -0.194   0.412
    4C     HO'2  121   0.501  -0.113   0.365
    4C      O3'  122   0.638  -0.251   0.208
    5C        P  123   0.774  -0.168   0.187
    5C      O1P  124   0.844  -0.226   0.069
    5C      O2P  125   0.845  -0.159   0.317
    5C      O5'  126   0.725  -0.022   0.148
    5C      C5'  127   0.617  -0.002   0.056
    5C     H5'1  128   0.552  -0.077   0.067
    5C     H5'2  129   0.654  -0.004  -0.037
    5C      C4'  130   0.549   0.130   0.082
    5C      H4'  131   0.508   0.155  -0.005
    5C      O4'  132   0.452   0.112   0.189
    5C      C1'  133   0.453   0.224   0.275
    5C      H1'  134   0.360   0.260   0.285
    5C       N1  135   0.496   0.179   0.408
    5C       C6  136   0.587   0.078   0.423
    5C       H6  137   0.624   0.033   0.342
    5C       C5  138   0.627   0.038   0.544
    5C       H5  139   0.694  -0.035   0.555
    5C       C4  140   0.571   0.103   0.657
    5C       N4  141   0.607   0.067   0.780
    5C      H41  142   0.674  -0.006   0.793
    5C      H42  143   0.567   0.113   0.859
    5C       N3  144   0.483   0.202   0.644
    5C       C2  145   0.443   0.243   0.521
    5C       O2  146   0.361   0.334   0.506
    5C      C3'  147   0.640   0.242   0.132
    5C      H3'  148   0.721   0.213   0.182
    5C      C2'  149   0.545   0.329   0.213
    5C     H2'1  150   0.589   0.394   0.275
    5C      O2'  151   0.468   0.412   0.128
    5C     HO'2  152   0.527   0.481   0.087
    5C      O3'  153   0.702   0.312   0.024
    5C      H3T  154   0.761   0.384   0.060
   1.51916   1.52714   1.34516
