GROningen MAchine for Chemical Simulation
  154
    1C      O5'    1   1.926   2.411   4.992
    1C      H5T    2   1.918   2.415   4.892
    1C      C5'    3   2.056   2.456   5.031
    1C     H5'1    4   2.067   2.550   4.998
    1C     H5'2    5   2.124   2.397   4.987
    1C      C4'    6   2.071   2.451   5.182
    1C      H4'    7   2.168   2.436   5.199
    1C      O4'    8   2.023   2.577   5.238
    1C      C1'    9   1.937   2.550   5.347
    1C      H1'   10   1.956   2.612   5.423
    1C       N1   11   1.799   2.578   5.306
    1C       C6   12   1.771   2.625   5.181
    1C       H6   13   1.846   2.640   5.116
    1C       C5   14   1.645   2.652   5.143
    1C       H5   15   1.625   2.687   5.052
    1C       C4   16   1.542   2.629   5.238
    1C       N4   17   1.415   2.654   5.207
    1C      H41   18   1.392   2.689   5.116
    1C      H42   19   1.343   2.638   5.274
    1C       N3   20   1.567   2.583   5.361
    1C       C2   21   1.695   2.557   5.398
    1C       O2   22   1.722   2.514   5.511
    1C      C3'   23   1.991   2.342   5.252
    1C      H3'   24   1.910   2.309   5.203
    1C      C2'   25   1.962   2.405   5.387
    1C     H2'1   26   1.892   2.359   5.441
    1C      O2'   27   2.075   2.399   5.472
    1C     HO'2   28   2.092   2.304   5.498
    1C      O3'   29   2.065   2.221   5.262
    2C        P   30   1.987   2.080   5.267
    2C      O1P   31   2.087   1.974   5.243
    2C      O2P   32   1.867   2.090   5.180
    2C      O5'   33   1.937   2.069   5.418
    2C      C5'   34   2.031   2.066   5.526
    2C     H5'1   35   2.080   2.153   5.527
    2C     H5'2   36   2.095   1.991   5.509
    2C      C4'   37   1.958   2.045   5.657
    2C      H4'   38   2.029   2.021   5.723
    2C      O4'   39   1.888   2.167   5.692
    2C      C1'   40   1.760   2.136   5.746
    2C      H1'   41   1.747   2.183   5.833
    2C       N1   42   1.657   2.189   5.655
    2C       C6   43   1.680   2.198   5.521
    2C       H6   44   1.768   2.168   5.484
    2C       C5   45   1.587   2.247   5.438
    2C       H5   46   1.604   2.255   5.340
    2C       C4   47   1.463   2.288   5.495
    2C       N4   48   1.366   2.336   5.418
    2C      H41   49   1.380   2.344   5.319
    2C      H42   50   1.279   2.365   5.459
    2C       N3   51   1.439   2.279   5.626
    2C       C2   52   1.535   2.230   5.709
    2C       O2   53   1.516   2.220   5.831
    2C      C3'   54   1.851   1.937   5.656
    2C      H3'   55   1.810   1.920   5.567
    2C      C2'   56   1.754   1.984   5.764
    2C     H2'1   57   1.664   1.940   5.762
    2C      O2'   58   1.803   1.953   5.893
    2C     HO'2   59   1.800   1.854   5.907
    2C      O3'   60   1.905   1.809   5.685
    3C        P   61   1.838   1.677   5.621
    3C      O1P   62   1.717   1.718   5.545
    3C      O2P   63   1.826   1.575   5.728
    3C      O5'   64   1.947   1.626   5.516
    3C      C5'   65   2.003   1.714   5.419
    3C     H5'1   66   1.960   1.804   5.430
    3C     H5'2   67   1.982   1.678   5.328
    3C      C4'   68   2.152   1.725   5.437
    3C      H4'   69   2.183   1.790   5.368
    3C      O4'   70   2.179   1.771   5.573
    3C      C1'   71   2.273   1.686   5.634
    3C      H1'   72   2.366   1.722   5.624
    3C       N1   73   2.250   1.685   5.779
    3C       C6   74   2.129   1.720   5.831
    3C       H6   75   2.055   1.746   5.769
    3C       C5   76   2.107   1.720   5.963
    3C       H5   77   2.018   1.746   6.001
    3C       C4   78   2.215   1.681   6.047
    3C       N4   79   2.200   1.679   6.179
    3C      H41   80   2.112   1.705   6.220
    3C      H42   81   2.276   1.652   6.238
    3C       N3   82   2.334   1.647   5.998
    3C       C2   83   2.355   1.648   5.864
    3C       O2   84   2.464   1.617   5.815
    3C      C3'   85   2.229   1.594   5.421
    3C      H3'   86   2.183   1.525   5.365
    3C      C2'   87   2.256   1.550   5.565
    3C     H2'1   88   2.190   1.486   5.604
    3C      O2'   89   2.377   1.478   5.575
    3C     HO'2   90   2.367   1.389   5.530
    3C      O3'   91   2.351   1.614   5.349
    4C        P   92   2.346   1.631   5.188
    4C      O1P   93   2.213   1.586   5.141
    4C      O2P   94   2.469   1.568   5.132
    4C      O5'   95   2.356   1.789   5.166
    4C      C5'   96   2.465   1.864   5.219
    4C     H5'1   97   2.521   1.896   5.143
    4C     H5'2   98   2.519   1.803   5.277
    4C      C4'   99   2.412   1.981   5.299
    4C      H4'  100   2.337   2.018   5.244
    4C      O4'  101   2.370   1.933   5.430
    4C      C1'  102   2.400   2.030   5.529
    4C      H1'  103   2.317   2.055   5.579
    4C       N1  104   2.493   1.969   5.626
    4C       C6  105   2.572   1.863   5.591
    4C       H6  106   2.567   1.827   5.498
    4C       C5  107   2.656   1.807   5.679
    4C       H5  108   2.714   1.730   5.654
    4C       C4  109   2.659   1.863   5.811
    4C       N4  110   2.740   1.811   5.903
    4C      H41  111   2.798   1.733   5.880
    4C      H42  112   2.742   1.850   5.995
    4C       N3  113   2.582   1.966   5.846
    4C       C2  114   2.498   2.021   5.755
    4C       O2  115   2.425   2.117   5.785
    4C      C3'  116   2.514   2.090   5.330
    4C      H3'  117   2.609   2.060   5.336
    4C      C2'  118   2.457   2.152   5.458
    4C     H2'1  119   2.521   2.209   5.510
    4C      O2'  120   2.351   2.241   5.428
    4C     HO'2  121   2.387   2.322   5.381
    4C      O3'  122   2.524   2.184   5.224
    5C        P  123   2.660   2.267   5.203
    5C      O1P  124   2.730   2.209   5.085
    5C      O2P  125   2.731   2.276   5.333
    5C      O5'  126   2.611   2.413   5.164
    5C      C5'  127   2.503   2.433   5.072
    5C     H5'1  128   2.438   2.358   5.083
    5C     H5'2  129   2.540   2.431   4.979
    5C      C4'  130   2.435   2.565   5.098
    5C      H4'  131   2.394   2.590   5.011
    5C      O4'  132   2.338   2.547   5.205
    5C      C1'  133   2.339   2.659   5.291
    5C      H1'  134   2.246   2.695   5.301
    5C       N1  135   2.382   2.614   5.424
    5C       C6  136   2.473   2.513   5.439
    5C       H6  137   2.510   2.468   5.358
    5C       C5  138   2.513   2.473   5.560
    5C       H5  139   2.580   2.400   5.571
    5C       C4  140   2.457   2.538   5.673
    5C       N4  141   2.493   2.502   5.796
    5C      H41  142   2.560   2.429   5.809
    5C      H42  143   2.453   2.548   5.875
    5C       N3  144   2.369   2.637   5.660
    5C       C2  145   2.329   2.678   5.537
    5C       O2  146   2.247   2.769   5.522
    5C      C3'  147   2.526   2.677   5.148
    5C      H3'  148   2.607   2.648   5.198
    5C      C2'  149   2.431   2.764   5.229
    5C     H2'1  150   2.475   2.829   5.291
    5C      O2'  151   2.354   2.847   5.144
    5C     HO'2  152   2.413   2.916   5.103
    5C      O3'  153   2.588   2.747   5.040
    5C      H3T  154   2.647   2.819   5.076
   4.49070   4.66690  10.00000
