;
;	File 'topol.top' was generated
;	By user: root (1000)
;	On host: Cas2
;	At date: Wed Jul  9 11:10:52 2025
;
;	This is a standalone topology file
;
;	Created by:
;	                    :-) GROMACS - gmx pdb2gmx, 2020.3 (-:
;	
;	Executable:   /usr/local/gromacs/bin/gmx
;	Data prefix:  /usr/local/gromacs
;	Working dir:  /home/chemistry/MD/CCCCC_RNA
;	Command line:
;	  gmx pdb2gmx -f CCCCC.gro -ignh -o conf.gro
;	Force field was read from the standard GROMACS share directory.
;

; Include forcefield parameters
#include "amber_na_desres.ff/forcefield.itp"

[ moleculetype ]
; Name            nrexcl
RNA                 3

[ atoms ]
;   nr       type  resnr residue  atom   cgnr     charge       mass  typeB    chargeB      massB
; residue   1 C   rtp RC5  q -0.3
     1         OH      1      C    O5'      1    -0.6223         16
     2         HO      1      C    H5T      2     0.4295      1.008
     3         CI      1      C    C5'      3     0.0558      12.01
     4         H1      1      C   H5'1      4     0.0679      1.008
     5         H1      1      C   H5'2      5     0.0679      1.008
     6         CT      1      C    C4'      6     0.1065      12.01
     7         H1      1      C    H4'      7     0.1174      1.008
     8         OS      1      C    O4'      8    -0.3548         16
     9         CT      1      C    C1'      9     0.0066      12.01
    10         H2      1      C    H1'     10     0.2029      1.008
    11    N*_desN      1      C     N1     11    -0.0484      14.01
    12    CM_desN      1      C     C6     12     0.0053      12.01
    13         H4      1      C     H6     13     0.1958      1.008
    14    CM_desN      1      C     C5     14    -0.5215      12.01
    15         HA      1      C     H5     15     0.1928      1.008
    16    CA_desN      1      C     C4     16     0.8185      12.01
    17    N2_desN      1      C     N4     17    -0.8716      14.01
    18      H_des      1      C    H41     18     0.3827      1.008
    19      H_des      1      C    H42     19     0.3827      1.008
    20    NC_desN      1      C     N3     20    -0.7584      14.01
    21     C_desN      1      C     C2     21     0.7538      12.01
    22          O      1      C     O2     22    -0.6252         16
    23         CT      1      C    C3'     23     0.2022      12.01
    24         H1      1      C    H3'     24     0.0615      1.008
    25         CT      1      C    C2'     25      0.067      12.01
    26         H1      1      C   H2'1     26     0.0972      1.008
    27         OH      1      C    O2'     27    -0.6139         16
    28         HO      1      C   HO'2     28     0.4186      1.008
    29    OS_case      1      C    O3'     29    -0.5246         16   ; qtot -0.3081
; residue   2 C   rtp RC   q -1.0
    30          P      2      C      P     30     1.1662      30.97
    31    O2_case      2      C    O1P     31     -0.776         16
    32    O2_case      2      C    O2P     32     -0.776         16
    33    OS_case      2      C    O5'     33    -0.4989         16
    34         CI      2      C    C5'     34     0.0558      12.01
    35         H1      2      C   H5'1     35     0.0679      1.008
    36         H1      2      C   H5'2     36     0.0679      1.008
    37         CT      2      C    C4'     37     0.1065      12.01
    38         H1      2      C    H4'     38     0.1174      1.008
    39         OS      2      C    O4'     39    -0.3548         16
    40         CT      2      C    C1'     40     0.0066      12.01
    41         H2      2      C    H1'     41     0.2029      1.008
    42    N*_desN      2      C     N1     42    -0.0484      14.01
    43    CM_desN      2      C     C6     43     0.0053      12.01
    44         H4      2      C     H6     44     0.1958      1.008
    45    CM_desN      2      C     C5     45    -0.5215      12.01
    46         HA      2      C     H5     46     0.1928      1.008
    47    CA_desN      2      C     C4     47     0.8185      12.01
    48    N2_desN      2      C     N4     48    -0.8716      14.01
    49      H_des      2      C    H41     49     0.3827      1.008
    50      H_des      2      C    H42     50     0.3827      1.008
    51    NC_desN      2      C     N3     51    -0.7584      14.01
    52     C_desN      2      C     C2     52     0.7538      12.01
    53          O      2      C     O2     53    -0.6252         16
    54         CT      2      C    C3'     54     0.2022      12.01
    55         H1      2      C    H3'     55     0.0615      1.008
    56         CT      2      C    C2'     56      0.067      12.01
    57         H1      2      C   H2'1     57     0.0972      1.008
    58         OH      2      C    O2'     58    -0.6139         16
    59         HO      2      C   HO'2     59     0.4186      1.008
    60    OS_case      2      C    O3'     60    -0.5246         16   ; qtot -1.308
; residue   3 C   rtp RC   q -1.0
    61          P      3      C      P     61     1.1662      30.97
    62    O2_case      3      C    O1P     62     -0.776         16
    63    O2_case      3      C    O2P     63     -0.776         16
    64    OS_case      3      C    O5'     64    -0.4989         16
    65         CI      3      C    C5'     65     0.0558      12.01
    66         H1      3      C   H5'1     66     0.0679      1.008
    67         H1      3      C   H5'2     67     0.0679      1.008
    68         CT      3      C    C4'     68     0.1065      12.01
    69         H1      3      C    H4'     69     0.1174      1.008
    70         OS      3      C    O4'     70    -0.3548         16
    71         CT      3      C    C1'     71     0.0066      12.01
    72         H2      3      C    H1'     72     0.2029      1.008
    73    N*_desN      3      C     N1     73    -0.0484      14.01
    74    CM_desN      3      C     C6     74     0.0053      12.01
    75         H4      3      C     H6     75     0.1958      1.008
    76    CM_desN      3      C     C5     76    -0.5215      12.01
    77         HA      3      C     H5     77     0.1928      1.008
    78    CA_desN      3      C     C4     78     0.8185      12.01
    79    N2_desN      3      C     N4     79    -0.8716      14.01
    80      H_des      3      C    H41     80     0.3827      1.008
    81      H_des      3      C    H42     81     0.3827      1.008
    82    NC_desN      3      C     N3     82    -0.7584      14.01
    83     C_desN      3      C     C2     83     0.7538      12.01
    84          O      3      C     O2     84    -0.6252         16
    85         CT      3      C    C3'     85     0.2022      12.01
    86         H1      3      C    H3'     86     0.0615      1.008
    87         CT      3      C    C2'     87      0.067      12.01
    88         H1      3      C   H2'1     88     0.0972      1.008
    89         OH      3      C    O2'     89    -0.6139         16
    90         HO      3      C   HO'2     90     0.4186      1.008
    91    OS_case      3      C    O3'     91    -0.5246         16   ; qtot -2.308
; residue   4 C   rtp RC   q -1.0
    92          P      4      C      P     92     1.1662      30.97
    93    O2_case      4      C    O1P     93     -0.776         16
    94    O2_case      4      C    O2P     94     -0.776         16
    95    OS_case      4      C    O5'     95    -0.4989         16
    96         CI      4      C    C5'     96     0.0558      12.01
    97         H1      4      C   H5'1     97     0.0679      1.008
    98         H1      4      C   H5'2     98     0.0679      1.008
    99         CT      4      C    C4'     99     0.1065      12.01
   100         H1      4      C    H4'    100     0.1174      1.008
   101         OS      4      C    O4'    101    -0.3548         16
   102         CT      4      C    C1'    102     0.0066      12.01
   103         H2      4      C    H1'    103     0.2029      1.008
   104    N*_desN      4      C     N1    104    -0.0484      14.01
   105    CM_desN      4      C     C6    105     0.0053      12.01
   106         H4      4      C     H6    106     0.1958      1.008
   107    CM_desN      4      C     C5    107    -0.5215      12.01
   108         HA      4      C     H5    108     0.1928      1.008
   109    CA_desN      4      C     C4    109     0.8185      12.01
   110    N2_desN      4      C     N4    110    -0.8716      14.01
   111      H_des      4      C    H41    111     0.3827      1.008
   112      H_des      4      C    H42    112     0.3827      1.008
   113    NC_desN      4      C     N3    113    -0.7584      14.01
   114     C_desN      4      C     C2    114     0.7538      12.01
   115          O      4      C     O2    115    -0.6252         16
   116         CT      4      C    C3'    116     0.2022      12.01
   117         H1      4      C    H3'    117     0.0615      1.008
   118         CT      4      C    C2'    118      0.067      12.01
   119         H1      4      C   H2'1    119     0.0972      1.008
   120         OH      4      C    O2'    120    -0.6139         16
   121         HO      4      C   HO'2    121     0.4186      1.008
   122    OS_case      4      C    O3'    122    -0.5246         16   ; qtot -3.308
; residue   5 C   rtp RC3  q -0.7
   123          P      5      C      P    123     1.1662      30.97
   124    O2_case      5      C    O1P    124     -0.776         16
   125    O2_case      5      C    O2P    125     -0.776         16
   126    OS_case      5      C    O5'    126    -0.4989         16
   127         CI      5      C    C5'    127     0.0558      12.01
   128         H1      5      C   H5'1    128     0.0679      1.008
   129         H1      5      C   H5'2    129     0.0679      1.008
   130         CT      5      C    C4'    130     0.1065      12.01
   131         H1      5      C    H4'    131     0.1174      1.008
   132         OS      5      C    O4'    132    -0.3548         16
   133         CT      5      C    C1'    133     0.0066      12.01
   134         H2      5      C    H1'    134     0.2029      1.008
   135    N*_desN      5      C     N1    135    -0.0484      14.01
   136    CM_desN      5      C     C6    136     0.0053      12.01
   137         H4      5      C     H6    137     0.1958      1.008
   138    CM_desN      5      C     C5    138    -0.5215      12.01
   139         HA      5      C     H5    139     0.1928      1.008
   140    CA_desN      5      C     C4    140     0.8185      12.01
   141    N2_desN      5      C     N4    141    -0.8716      14.01
   142      H_des      5      C    H41    142     0.3827      1.008
   143      H_des      5      C    H42    143     0.3827      1.008
   144    NC_desN      5      C     N3    144    -0.7584      14.01
   145     C_desN      5      C     C2    145     0.7538      12.01
   146          O      5      C     O2    146    -0.6252         16
   147         CT      5      C    C3'    147     0.2022      12.01
   148         H1      5      C    H3'    148     0.0615      1.008
   149         CT      5      C    C2'    149      0.067      12.01
   150         H1      5      C   H2'1    150     0.0972      1.008
   151         OH      5      C    O2'    151    -0.6139         16
   152         HO      5      C   HO'2    152     0.4186      1.008
   153         OH      5      C    O3'    153    -0.6541         16
   154         HO      5      C    H3T    154     0.4376      1.008   ; qtot -4

[ bonds ]
;  ai    aj funct            c0            c1            c2            c3
    1     2     1 
    1     3     1 
    3     4     1 
    3     5     1 
    3     6     1 
    6     7     1 
    6     8     1 
    6    23     1 
    8     9     1 
    9    10     1 
    9    11     1 
    9    25     1 
   11    12     1 
   11    21     1 
   12    13     1 
   12    14     1 
   14    15     1 
   14    16     1 
   16    17     1 
   16    20     1 
   17    18     1 
   17    19     1 
   20    21     1 
   21    22     1 
   23    24     1 
   23    25     1 
   23    29     1 
   25    26     1 
   25    27     1 
   27    28     1 
   29    30     1 
   30    31     1 
   30    32     1 
   30    33     1 
   33    34     1 
   34    35     1 
   34    36     1 
   34    37     1 
   37    38     1 
   37    39     1 
   37    54     1 
   39    40     1 
   40    41     1 
   40    42     1 
   40    56     1 
   42    43     1 
   42    52     1 
   43    44     1 
   43    45     1 
   45    46     1 
   45    47     1 
   47    48     1 
   47    51     1 
   48    49     1 
   48    50     1 
   51    52     1 
   52    53     1 
   54    55     1 
   54    56     1 
   54    60     1 
   56    57     1 
   56    58     1 
   58    59     1 
   60    61     1 
   61    62     1 
   61    63     1 
   61    64     1 
   64    65     1 
   65    66     1 
   65    67     1 
   65    68     1 
   68    69     1 
   68    70     1 
   68    85     1 
   70    71     1 
   71    72     1 
   71    73     1 
   71    87     1 
   73    74     1 
   73    83     1 
   74    75     1 
   74    76     1 
   76    77     1 
   76    78     1 
   78    79     1 
   78    82     1 
   79    80     1 
   79    81     1 
   82    83     1 
   83    84     1 
   85    86     1 
   85    87     1 
   85    91     1 
   87    88     1 
   87    89     1 
   89    90     1 
   91    92     1 
   92    93     1 
   92    94     1 
   92    95     1 
   95    96     1 
   96    97     1 
   96    98     1 
   96    99     1 
   99   100     1 
   99   101     1 
   99   116     1 
  101   102     1 
  102   103     1 
  102   104     1 
  102   118     1 
  104   105     1 
  104   114     1 
  105   106     1 
  105   107     1 
  107   108     1 
  107   109     1 
  109   110     1 
  109   113     1 
  110   111     1 
  110   112     1 
  113   114     1 
  114   115     1 
  116   117     1 
  116   118     1 
  116   122     1 
  118   119     1 
  118   120     1 
  120   121     1 
  122   123     1 
  123   124     1 
  123   125     1 
  123   126     1 
  126   127     1 
  127   128     1 
  127   129     1 
  127   130     1 
  130   131     1 
  130   132     1 
  130   147     1 
  132   133     1 
  133   134     1 
  133   135     1 
  133   149     1 
  135   136     1 
  135   145     1 
  136   137     1 
  136   138     1 
  138   139     1 
  138   140     1 
  140   141     1 
  140   144     1 
  141   142     1 
  141   143     1 
  144   145     1 
  145   146     1 
  147   148     1 
  147   149     1 
  147   153     1 
  149   150     1 
  149   151     1 
  151   152     1 
  153   154     1 

[ pairs ]
;  ai    aj funct            c0            c1            c2            c3
    1     7     1 
    1     8     1 
    1    23     1 
    2     4     1 
    2     5     1 
    2     6     1 
    3     9     1 
    3    24     1 
    3    25     1 
    3    29     1 
    4     7     1 
    4     8     1 
    4    23     1 
    5     7     1 
    5     8     1 
    5    23     1 
    6    10     1 
    6    11     1 
    6    26     1 
    6    27     1 
    6    30     1 
    7     9     1 
    7    24     1 
    7    25     1 
    7    29     1 
    8    12     1 
    8    21     1 
    8    24     1 
    8    26     1 
    8    27     1 
    8    29     1 
    9    13     1 
    9    14     1 
    9    20     1 
    9    22     1 
    9    24     1 
    9    28     1 
    9    29     1 
   10    12     1 
   10    21     1 
   10    23     1 
   10    26     1 
   10    27     1 
   11    15     1 
   11    16     1 
   11    23     1 
   11    26     1 
   11    27     1 
   12    17     1 
   12    20     1 
   12    22     1 
   12    25     1 
   13    15     1 
   13    16     1 
   13    21     1 
   14    18     1 
   14    19     1 
   14    21     1 
   15    17     1 
   15    20     1 
   16    22     1 
   17    21     1 
   18    20     1 
   19    20     1 
   21    25     1 
   23    28     1 
   23    31     1 
   23    32     1 
   23    33     1 
   24    26     1 
   24    27     1 
   24    30     1 
   25    30     1 
   26    28     1 
   26    29     1 
   27    29     1 
   29    34     1 
   30    35     1 
   30    36     1 
   30    37     1 
   31    34     1 
   32    34     1 
   33    38     1 
   33    39     1 
   33    54     1 
   34    40     1 
   34    55     1 
   34    56     1 
   34    60     1 
   35    38     1 
   35    39     1 
   35    54     1 
   36    38     1 
   36    39     1 
   36    54     1 
   37    41     1 
   37    42     1 
   37    57     1 
   37    58     1 
   37    61     1 
   38    40     1 
   38    55     1 
   38    56     1 
   38    60     1 
   39    43     1 
   39    52     1 
   39    55     1 
   39    57     1 
   39    58     1 
   39    60     1 
   40    44     1 
   40    45     1 
   40    51     1 
   40    53     1 
   40    55     1 
   40    59     1 
   40    60     1 
   41    43     1 
   41    52     1 
   41    54     1 
   41    57     1 
   41    58     1 
   42    46     1 
   42    47     1 
   42    54     1 
   42    57     1 
   42    58     1 
   43    48     1 
   43    51     1 
   43    53     1 
   43    56     1 
   44    46     1 
   44    47     1 
   44    52     1 
   45    49     1 
   45    50     1 
   45    52     1 
   46    48     1 
   46    51     1 
   47    53     1 
   48    52     1 
   49    51     1 
   50    51     1 
   52    56     1 
   54    59     1 
   54    62     1 
   54    63     1 
   54    64     1 
   55    57     1 
   55    58     1 
   55    61     1 
   56    61     1 
   57    59     1 
   57    60     1 
   58    60     1 
   60    65     1 
   61    66     1 
   61    67     1 
   61    68     1 
   62    65     1 
   63    65     1 
   64    69     1 
   64    70     1 
   64    85     1 
   65    71     1 
   65    86     1 
   65    87     1 
   65    91     1 
   66    69     1 
   66    70     1 
   66    85     1 
   67    69     1 
   67    70     1 
   67    85     1 
   68    72     1 
   68    73     1 
   68    88     1 
   68    89     1 
   68    92     1 
   69    71     1 
   69    86     1 
   69    87     1 
   69    91     1 
   70    74     1 
   70    83     1 
   70    86     1 
   70    88     1 
   70    89     1 
   70    91     1 
   71    75     1 
   71    76     1 
   71    82     1 
   71    84     1 
   71    86     1 
   71    90     1 
   71    91     1 
   72    74     1 
   72    83     1 
   72    85     1 
   72    88     1 
   72    89     1 
   73    77     1 
   73    78     1 
   73    85     1 
   73    88     1 
   73    89     1 
   74    79     1 
   74    82     1 
   74    84     1 
   74    87     1 
   75    77     1 
   75    78     1 
   75    83     1 
   76    80     1 
   76    81     1 
   76    83     1 
   77    79     1 
   77    82     1 
   78    84     1 
   79    83     1 
   80    82     1 
   81    82     1 
   83    87     1 
   85    90     1 
   85    93     1 
   85    94     1 
   85    95     1 
   86    88     1 
   86    89     1 
   86    92     1 
   87    92     1 
   88    90     1 
   88    91     1 
   89    91     1 
   91    96     1 
   92    97     1 
   92    98     1 
   92    99     1 
   93    96     1 
   94    96     1 
   95   100     1 
   95   101     1 
   95   116     1 
   96   102     1 
   96   117     1 
   96   118     1 
   96   122     1 
   97   100     1 
   97   101     1 
   97   116     1 
   98   100     1 
   98   101     1 
   98   116     1 
   99   103     1 
   99   104     1 
   99   119     1 
   99   120     1 
   99   123     1 
  100   102     1 
  100   117     1 
  100   118     1 
  100   122     1 
  101   105     1 
  101   114     1 
  101   117     1 
  101   119     1 
  101   120     1 
  101   122     1 
  102   106     1 
  102   107     1 
  102   113     1 
  102   115     1 
  102   117     1 
  102   121     1 
  102   122     1 
  103   105     1 
  103   114     1 
  103   116     1 
  103   119     1 
  103   120     1 
  104   108     1 
  104   109     1 
  104   116     1 
  104   119     1 
  104   120     1 
  105   110     1 
  105   113     1 
  105   115     1 
  105   118     1 
  106   108     1 
  106   109     1 
  106   114     1 
  107   111     1 
  107   112     1 
  107   114     1 
  108   110     1 
  108   113     1 
  109   115     1 
  110   114     1 
  111   113     1 
  112   113     1 
  114   118     1 
  116   121     1 
  116   124     1 
  116   125     1 
  116   126     1 
  117   119     1 
  117   120     1 
  117   123     1 
  118   123     1 
  119   121     1 
  119   122     1 
  120   122     1 
  122   127     1 
  123   128     1 
  123   129     1 
  123   130     1 
  124   127     1 
  125   127     1 
  126   131     1 
  126   132     1 
  126   147     1 
  127   133     1 
  127   148     1 
  127   149     1 
  127   153     1 
  128   131     1 
  128   132     1 
  128   147     1 
  129   131     1 
  129   132     1 
  129   147     1 
  130   134     1 
  130   135     1 
  130   150     1 
  130   151     1 
  130   154     1 
  131   133     1 
  131   148     1 
  131   149     1 
  131   153     1 
  132   136     1 
  132   145     1 
  132   148     1 
  132   150     1 
  132   151     1 
  132   153     1 
  133   137     1 
  133   138     1 
  133   144     1 
  133   146     1 
  133   148     1 
  133   152     1 
  133   153     1 
  134   136     1 
  134   145     1 
  134   147     1 
  134   150     1 
  134   151     1 
  135   139     1 
  135   140     1 
  135   147     1 
  135   150     1 
  135   151     1 
  136   141     1 
  136   144     1 
  136   146     1 
  136   149     1 
  137   139     1 
  137   140     1 
  137   145     1 
  138   142     1 
  138   143     1 
  138   145     1 
  139   141     1 
  139   144     1 
  140   146     1 
  141   145     1 
  142   144     1 
  143   144     1 
  145   149     1 
  147   152     1 
  148   150     1 
  148   151     1 
  148   154     1 
  149   154     1 
  150   152     1 
  150   153     1 
  151   153     1 

[ angles ]
;  ai    aj    ak funct            c0            c1            c2            c3
    2     1     3     1 
    1     3     4     1 
    1     3     5     1 
    1     3     6     1 
    4     3     5     1 
    4     3     6     1 
    5     3     6     1 
    3     6     7     1 
    3     6     8     1 
    3     6    23     1 
    7     6     8     1 
    7     6    23     1 
    8     6    23     1 
    6     8     9     1 
    8     9    10     1 
    8     9    11     1 
    8     9    25     1 
   10     9    11     1 
   10     9    25     1 
   11     9    25     1 
    9    11    12     1 
    9    11    21     1 
   12    11    21     1 
   11    12    13     1 
   11    12    14     1 
   13    12    14     1 
   12    14    15     1 
   12    14    16     1 
   15    14    16     1 
   14    16    17     1 
   14    16    20     1 
   17    16    20     1 
   16    17    18     1 
   16    17    19     1 
   18    17    19     1 
   16    20    21     1 
   11    21    20     1 
   11    21    22     1 
   20    21    22     1 
    6    23    24     1 
    6    23    25     1 
    6    23    29     1 
   24    23    25     1 
   24    23    29     1 
   25    23    29     1 
    9    25    23     1 
    9    25    26     1 
    9    25    27     1 
   23    25    26     1 
   23    25    27     1 
   26    25    27     1 
   25    27    28     1 
   23    29    30     1 
   29    30    31     1 
   29    30    32     1 
   29    30    33     1 
   31    30    32     1 
   31    30    33     1 
   32    30    33     1 
   30    33    34     1 
   33    34    35     1 
   33    34    36     1 
   33    34    37     1 
   35    34    36     1 
   35    34    37     1 
   36    34    37     1 
   34    37    38     1 
   34    37    39     1 
   34    37    54     1 
   38    37    39     1 
   38    37    54     1 
   39    37    54     1 
   37    39    40     1 
   39    40    41     1 
   39    40    42     1 
   39    40    56     1 
   41    40    42     1 
   41    40    56     1 
   42    40    56     1 
   40    42    43     1 
   40    42    52     1 
   43    42    52     1 
   42    43    44     1 
   42    43    45     1 
   44    43    45     1 
   43    45    46     1 
   43    45    47     1 
   46    45    47     1 
   45    47    48     1 
   45    47    51     1 
   48    47    51     1 
   47    48    49     1 
   47    48    50     1 
   49    48    50     1 
   47    51    52     1 
   42    52    51     1 
   42    52    53     1 
   51    52    53     1 
   37    54    55     1 
   37    54    56     1 
   37    54    60     1 
   55    54    56     1 
   55    54    60     1 
   56    54    60     1 
   40    56    54     1 
   40    56    57     1 
   40    56    58     1 
   54    56    57     1 
   54    56    58     1 
   57    56    58     1 
   56    58    59     1 
   54    60    61     1 
   60    61    62     1 
   60    61    63     1 
   60    61    64     1 
   62    61    63     1 
   62    61    64     1 
   63    61    64     1 
   61    64    65     1 
   64    65    66     1 
   64    65    67     1 
   64    65    68     1 
   66    65    67     1 
   66    65    68     1 
   67    65    68     1 
   65    68    69     1 
   65    68    70     1 
   65    68    85     1 
   69    68    70     1 
   69    68    85     1 
   70    68    85     1 
   68    70    71     1 
   70    71    72     1 
   70    71    73     1 
   70    71    87     1 
   72    71    73     1 
   72    71    87     1 
   73    71    87     1 
   71    73    74     1 
   71    73    83     1 
   74    73    83     1 
   73    74    75     1 
   73    74    76     1 
   75    74    76     1 
   74    76    77     1 
   74    76    78     1 
   77    76    78     1 
   76    78    79     1 
   76    78    82     1 
   79    78    82     1 
   78    79    80     1 
   78    79    81     1 
   80    79    81     1 
   78    82    83     1 
   73    83    82     1 
   73    83    84     1 
   82    83    84     1 
   68    85    86     1 
   68    85    87     1 
   68    85    91     1 
   86    85    87     1 
   86    85    91     1 
   87    85    91     1 
   71    87    85     1 
   71    87    88     1 
   71    87    89     1 
   85    87    88     1 
   85    87    89     1 
   88    87    89     1 
   87    89    90     1 
   85    91    92     1 
   91    92    93     1 
   91    92    94     1 
   91    92    95     1 
   93    92    94     1 
   93    92    95     1 
   94    92    95     1 
   92    95    96     1 
   95    96    97     1 
   95    96    98     1 
   95    96    99     1 
   97    96    98     1 
   97    96    99     1 
   98    96    99     1 
   96    99   100     1 
   96    99   101     1 
   96    99   116     1 
  100    99   101     1 
  100    99   116     1 
  101    99   116     1 
   99   101   102     1 
  101   102   103     1 
  101   102   104     1 
  101   102   118     1 
  103   102   104     1 
  103   102   118     1 
  104   102   118     1 
  102   104   105     1 
  102   104   114     1 
  105   104   114     1 
  104   105   106     1 
  104   105   107     1 
  106   105   107     1 
  105   107   108     1 
  105   107   109     1 
  108   107   109     1 
  107   109   110     1 
  107   109   113     1 
  110   109   113     1 
  109   110   111     1 
  109   110   112     1 
  111   110   112     1 
  109   113   114     1 
  104   114   113     1 
  104   114   115     1 
  113   114   115     1 
   99   116   117     1 
   99   116   118     1 
   99   116   122     1 
  117   116   118     1 
  117   116   122     1 
  118   116   122     1 
  102   118   116     1 
  102   118   119     1 
  102   118   120     1 
  116   118   119     1 
  116   118   120     1 
  119   118   120     1 
  118   120   121     1 
  116   122   123     1 
  122   123   124     1 
  122   123   125     1 
  122   123   126     1 
  124   123   125     1 
  124   123   126     1 
  125   123   126     1 
  123   126   127     1 
  126   127   128     1 
  126   127   129     1 
  126   127   130     1 
  128   127   129     1 
  128   127   130     1 
  129   127   130     1 
  127   130   131     1 
  127   130   132     1 
  127   130   147     1 
  131   130   132     1 
  131   130   147     1 
  132   130   147     1 
  130   132   133     1 
  132   133   134     1 
  132   133   135     1 
  132   133   149     1 
  134   133   135     1 
  134   133   149     1 
  135   133   149     1 
  133   135   136     1 
  133   135   145     1 
  136   135   145     1 
  135   136   137     1 
  135   136   138     1 
  137   136   138     1 
  136   138   139     1 
  136   138   140     1 
  139   138   140     1 
  138   140   141     1 
  138   140   144     1 
  141   140   144     1 
  140   141   142     1 
  140   141   143     1 
  142   141   143     1 
  140   144   145     1 
  135   145   144     1 
  135   145   146     1 
  144   145   146     1 
  130   147   148     1 
  130   147   149     1 
  130   147   153     1 
  148   147   149     1 
  148   147   153     1 
  149   147   153     1 
  133   149   147     1 
  133   149   150     1 
  133   149   151     1 
  147   149   150     1 
  147   149   151     1 
  150   149   151     1 
  149   151   152     1 
  147   153   154     1 

[ dihedrals ]
;  ai    aj    ak    al funct            c0            c1            c2            c3            c4            c5
    2     1     3     4     9 
    2     1     3     5     9 
    2     1     3     6     9 
    1     3     6     7     9 
    1     3     6     8     9 
    1     3     6    23     9 
    4     3     6     7     9 
    4     3     6     8     9 
    4     3     6    23     9 
    5     3     6     7     9 
    5     3     6     8     9 
    5     3     6    23     9 
    3     6     8     9     9 
    7     6     8     9     9 
   23     6     8     9     9 
    3     6    23    24     9 
    3     6    23    25     9 
    3     6    23    29     9 
    7     6    23    24     9 
    7     6    23    25     9 
    7     6    23    29     9 
    8     6    23    24     9 
    8     6    23    25     9 
    8     6    23    29     9 
    6     8     9    10     9 
    6     8     9    11     9 
    6     8     9    25     9 
    8     9    11    12     9    torsion_RC_O4S_C1S_N1_C6_mult1
    8     9    11    12     9    torsion_RC_O4S_C1S_N1_C6_mult2
    8     9    11    12     9    torsion_RC_O4S_C1S_N1_C6_mult3
    8     9    11    12     9    torsion_RC_O4S_C1S_N1_C6_mult4
    8     9    11    21     9 
   10     9    11    12     9 
   10     9    11    21     9 
   25     9    11    12     9 
   25     9    11    21     9 
    8     9    25    23     9 
    8     9    25    26     9 
    8     9    25    27     9 
   10     9    25    23     9 
   10     9    25    26     9 
   10     9    25    27     9 
   11     9    25    23     9 
   11     9    25    26     9 
   11     9    25    27     9 
    9    11    12    13     9 
    9    11    12    14     9 
   21    11    12    13     9 
   21    11    12    14     9 
    9    11    21    20     9 
    9    11    21    22     9 
   12    11    21    20     9 
   12    11    21    22     9 
   11    12    14    15     9 
   11    12    14    16     9 
   13    12    14    15     9 
   13    12    14    16     9 
   12    14    16    17     9 
   12    14    16    20     9 
   15    14    16    17     9 
   15    14    16    20     9 
   14    16    17    18     9 
   14    16    17    19     9 
   20    16    17    18     9 
   20    16    17    19     9 
   14    16    20    21     9 
   17    16    20    21     9 
   16    20    21    11     9 
   16    20    21    22     9 
    6    23    25     9     9 
    6    23    25    26     9 
    6    23    25    27     9 
   24    23    25     9     9 
   24    23    25    26     9 
   24    23    25    27     9 
   29    23    25     9     9 
   29    23    25    26     9 
   29    23    25    27     9 
    6    23    29    30     9 
   24    23    29    30     9 
   25    23    29    30     9 
    9    25    27    28     9 
   23    25    27    28     9 
   26    25    27    28     9 
   23    29    30    31     9 
   23    29    30    32     9 
   23    29    30    33     9 
   29    30    33    34     9 
   31    30    33    34     9 
   32    30    33    34     9 
   30    33    34    35     9 
   30    33    34    36     9 
   30    33    34    37     9 
   33    34    37    38     9 
   33    34    37    39     9 
   33    34    37    54     9 
   35    34    37    38     9 
   35    34    37    39     9 
   35    34    37    54     9 
   36    34    37    38     9 
   36    34    37    39     9 
   36    34    37    54     9 
   34    37    39    40     9 
   38    37    39    40     9 
   54    37    39    40     9 
   34    37    54    55     9 
   34    37    54    56     9 
   34    37    54    60     9 
   38    37    54    55     9 
   38    37    54    56     9 
   38    37    54    60     9 
   39    37    54    55     9 
   39    37    54    56     9 
   39    37    54    60     9 
   37    39    40    41     9 
   37    39    40    42     9 
   37    39    40    56     9 
   39    40    42    43     9    torsion_RC_O4S_C1S_N1_C6_mult1
   39    40    42    43     9    torsion_RC_O4S_C1S_N1_C6_mult2
   39    40    42    43     9    torsion_RC_O4S_C1S_N1_C6_mult3
   39    40    42    43     9    torsion_RC_O4S_C1S_N1_C6_mult4
   39    40    42    52     9 
   41    40    42    43     9 
   41    40    42    52     9 
   56    40    42    43     9 
   56    40    42    52     9 
   39    40    56    54     9 
   39    40    56    57     9 
   39    40    56    58     9 
   41    40    56    54     9 
   41    40    56    57     9 
   41    40    56    58     9 
   42    40    56    54     9 
   42    40    56    57     9 
   42    40    56    58     9 
   40    42    43    44     9 
   40    42    43    45     9 
   52    42    43    44     9 
   52    42    43    45     9 
   40    42    52    51     9 
   40    42    52    53     9 
   43    42    52    51     9 
   43    42    52    53     9 
   42    43    45    46     9 
   42    43    45    47     9 
   44    43    45    46     9 
   44    43    45    47     9 
   43    45    47    48     9 
   43    45    47    51     9 
   46    45    47    48     9 
   46    45    47    51     9 
   45    47    48    49     9 
   45    47    48    50     9 
   51    47    48    49     9 
   51    47    48    50     9 
   45    47    51    52     9 
   48    47    51    52     9 
   47    51    52    42     9 
   47    51    52    53     9 
   37    54    56    40     9 
   37    54    56    57     9 
   37    54    56    58     9 
   55    54    56    40     9 
   55    54    56    57     9 
   55    54    56    58     9 
   60    54    56    40     9 
   60    54    56    57     9 
   60    54    56    58     9 
   37    54    60    61     9 
   55    54    60    61     9 
   56    54    60    61     9 
   40    56    58    59     9 
   54    56    58    59     9 
   57    56    58    59     9 
   54    60    61    62     9 
   54    60    61    63     9 
   54    60    61    64     9 
   60    61    64    65     9 
   62    61    64    65     9 
   63    61    64    65     9 
   61    64    65    66     9 
   61    64    65    67     9 
   61    64    65    68     9 
   64    65    68    69     9 
   64    65    68    70     9 
   64    65    68    85     9 
   66    65    68    69     9 
   66    65    68    70     9 
   66    65    68    85     9 
   67    65    68    69     9 
   67    65    68    70     9 
   67    65    68    85     9 
   65    68    70    71     9 
   69    68    70    71     9 
   85    68    70    71     9 
   65    68    85    86     9 
   65    68    85    87     9 
   65    68    85    91     9 
   69    68    85    86     9 
   69    68    85    87     9 
   69    68    85    91     9 
   70    68    85    86     9 
   70    68    85    87     9 
   70    68    85    91     9 
   68    70    71    72     9 
   68    70    71    73     9 
   68    70    71    87     9 
   70    71    73    74     9    torsion_RC_O4S_C1S_N1_C6_mult1
   70    71    73    74     9    torsion_RC_O4S_C1S_N1_C6_mult2
   70    71    73    74     9    torsion_RC_O4S_C1S_N1_C6_mult3
   70    71    73    74     9    torsion_RC_O4S_C1S_N1_C6_mult4
   70    71    73    83     9 
   72    71    73    74     9 
   72    71    73    83     9 
   87    71    73    74     9 
   87    71    73    83     9 
   70    71    87    85     9 
   70    71    87    88     9 
   70    71    87    89     9 
   72    71    87    85     9 
   72    71    87    88     9 
   72    71    87    89     9 
   73    71    87    85     9 
   73    71    87    88     9 
   73    71    87    89     9 
   71    73    74    75     9 
   71    73    74    76     9 
   83    73    74    75     9 
   83    73    74    76     9 
   71    73    83    82     9 
   71    73    83    84     9 
   74    73    83    82     9 
   74    73    83    84     9 
   73    74    76    77     9 
   73    74    76    78     9 
   75    74    76    77     9 
   75    74    76    78     9 
   74    76    78    79     9 
   74    76    78    82     9 
   77    76    78    79     9 
   77    76    78    82     9 
   76    78    79    80     9 
   76    78    79    81     9 
   82    78    79    80     9 
   82    78    79    81     9 
   76    78    82    83     9 
   79    78    82    83     9 
   78    82    83    73     9 
   78    82    83    84     9 
   68    85    87    71     9 
   68    85    87    88     9 
   68    85    87    89     9 
   86    85    87    71     9 
   86    85    87    88     9 
   86    85    87    89     9 
   91    85    87    71     9 
   91    85    87    88     9 
   91    85    87    89     9 
   68    85    91    92     9 
   86    85    91    92     9 
   87    85    91    92     9 
   71    87    89    90     9 
   85    87    89    90     9 
   88    87    89    90     9 
   85    91    92    93     9 
   85    91    92    94     9 
   85    91    92    95     9 
   91    92    95    96     9 
   93    92    95    96     9 
   94    92    95    96     9 
   92    95    96    97     9 
   92    95    96    98     9 
   92    95    96    99     9 
   95    96    99   100     9 
   95    96    99   101     9 
   95    96    99   116     9 
   97    96    99   100     9 
   97    96    99   101     9 
   97    96    99   116     9 
   98    96    99   100     9 
   98    96    99   101     9 
   98    96    99   116     9 
   96    99   101   102     9 
  100    99   101   102     9 
  116    99   101   102     9 
   96    99   116   117     9 
   96    99   116   118     9 
   96    99   116   122     9 
  100    99   116   117     9 
  100    99   116   118     9 
  100    99   116   122     9 
  101    99   116   117     9 
  101    99   116   118     9 
  101    99   116   122     9 
   99   101   102   103     9 
   99   101   102   104     9 
   99   101   102   118     9 
  101   102   104   105     9    torsion_RC_O4S_C1S_N1_C6_mult1
  101   102   104   105     9    torsion_RC_O4S_C1S_N1_C6_mult2
  101   102   104   105     9    torsion_RC_O4S_C1S_N1_C6_mult3
  101   102   104   105     9    torsion_RC_O4S_C1S_N1_C6_mult4
  101   102   104   114     9 
  103   102   104   105     9 
  103   102   104   114     9 
  118   102   104   105     9 
  118   102   104   114     9 
  101   102   118   116     9 
  101   102   118   119     9 
  101   102   118   120     9 
  103   102   118   116     9 
  103   102   118   119     9 
  103   102   118   120     9 
  104   102   118   116     9 
  104   102   118   119     9 
  104   102   118   120     9 
  102   104   105   106     9 
  102   104   105   107     9 
  114   104   105   106     9 
  114   104   105   107     9 
  102   104   114   113     9 
  102   104   114   115     9 
  105   104   114   113     9 
  105   104   114   115     9 
  104   105   107   108     9 
  104   105   107   109     9 
  106   105   107   108     9 
  106   105   107   109     9 
  105   107   109   110     9 
  105   107   109   113     9 
  108   107   109   110     9 
  108   107   109   113     9 
  107   109   110   111     9 
  107   109   110   112     9 
  113   109   110   111     9 
  113   109   110   112     9 
  107   109   113   114     9 
  110   109   113   114     9 
  109   113   114   104     9 
  109   113   114   115     9 
   99   116   118   102     9 
   99   116   118   119     9 
   99   116   118   120     9 
  117   116   118   102     9 
  117   116   118   119     9 
  117   116   118   120     9 
  122   116   118   102     9 
  122   116   118   119     9 
  122   116   118   120     9 
   99   116   122   123     9 
  117   116   122   123     9 
  118   116   122   123     9 
  102   118   120   121     9 
  116   118   120   121     9 
  119   118   120   121     9 
  116   122   123   124     9 
  116   122   123   125     9 
  116   122   123   126     9 
  122   123   126   127     9 
  124   123   126   127     9 
  125   123   126   127     9 
  123   126   127   128     9 
  123   126   127   129     9 
  123   126   127   130     9 
  126   127   130   131     9 
  126   127   130   132     9 
  126   127   130   147     9 
  128   127   130   131     9 
  128   127   130   132     9 
  128   127   130   147     9 
  129   127   130   131     9 
  129   127   130   132     9 
  129   127   130   147     9 
  127   130   132   133     9 
  131   130   132   133     9 
  147   130   132   133     9 
  127   130   147   148     9 
  127   130   147   149     9 
  127   130   147   153     9 
  131   130   147   148     9 
  131   130   147   149     9 
  131   130   147   153     9 
  132   130   147   148     9 
  132   130   147   149     9 
  132   130   147   153     9 
  130   132   133   134     9 
  130   132   133   135     9 
  130   132   133   149     9 
  132   133   135   136     9    torsion_RC_O4S_C1S_N1_C6_mult1
  132   133   135   136     9    torsion_RC_O4S_C1S_N1_C6_mult2
  132   133   135   136     9    torsion_RC_O4S_C1S_N1_C6_mult3
  132   133   135   136     9    torsion_RC_O4S_C1S_N1_C6_mult4
  132   133   135   145     9 
  134   133   135   136     9 
  134   133   135   145     9 
  149   133   135   136     9 
  149   133   135   145     9 
  132   133   149   147     9 
  132   133   149   150     9 
  132   133   149   151     9 
  134   133   149   147     9 
  134   133   149   150     9 
  134   133   149   151     9 
  135   133   149   147     9 
  135   133   149   150     9 
  135   133   149   151     9 
  133   135   136   137     9 
  133   135   136   138     9 
  145   135   136   137     9 
  145   135   136   138     9 
  133   135   145   144     9 
  133   135   145   146     9 
  136   135   145   144     9 
  136   135   145   146     9 
  135   136   138   139     9 
  135   136   138   140     9 
  137   136   138   139     9 
  137   136   138   140     9 
  136   138   140   141     9 
  136   138   140   144     9 
  139   138   140   141     9 
  139   138   140   144     9 
  138   140   141   142     9 
  138   140   141   143     9 
  144   140   141   142     9 
  144   140   141   143     9 
  138   140   144   145     9 
  141   140   144   145     9 
  140   144   145   135     9 
  140   144   145   146     9 
  130   147   149   133     9 
  130   147   149   150     9 
  130   147   149   151     9 
  148   147   149   133     9 
  148   147   149   150     9 
  148   147   149   151     9 
  153   147   149   133     9 
  153   147   149   150     9 
  153   147   149   151     9 
  130   147   153   154     9 
  148   147   153   154     9 
  149   147   153   154     9 
  133   149   151   152     9 
  147   149   151   152     9 
  150   149   151   152     9 

[ dihedrals ]
;  ai    aj    ak    al funct            c0            c1            c2            c3
    9    11    12    21     4 
   11    14    12    13     4 
   11    20    21    22     4 
   12    16    14    15     4 
   14    17    16    20     4 
   16    18    17    19     4 
   40    42    43    52     4 
   42    45    43    44     4 
   42    51    52    53     4 
   43    47    45    46     4 
   45    48    47    51     4 
   47    49    48    50     4 
   71    73    74    83     4 
   73    76    74    75     4 
   73    82    83    84     4 
   74    78    76    77     4 
   76    79    78    82     4 
   78    80    79    81     4 
  102   104   105   114     4 
  104   107   105   106     4 
  104   113   114   115     4 
  105   109   107   108     4 
  107   110   109   113     4 
  109   111   110   112     4 
  133   135   136   145     4 
  135   138   136   137     4 
  135   144   145   146     4 
  136   140   138   139     4 
  138   141   140   144     4 
  140   142   141   143     4 

; Include Position restraint file
#ifdef POSRES
#include "posre.itp"
#endif

; Include water topology
#include "amber_na_desres.ff/tip4pd.itp"

#ifdef POSRES_WATER
; Position restraint for each water oxygen
[ position_restraints ]
;  i funct       fcx        fcy        fcz
   1    1       1000       1000       1000
#endif

; Include topology for ions
#include "amber_na_desres.ff/ions.itp"

[ system ]
; Name
GROningen MAchine for Chemical Simulation in water

[ molecules ]
; Compound        #mols
RNA                 1
SOL              2880
NA                  4
