Gromacs Runs On Most of All Computer Systems in water
11558
    1RG35     P    1   2.267   2.414   4.397  0.1157  0.1698 -0.3857
    1RG35   O1P    2   2.372   2.486   4.464  0.0039  0.3834 -0.3623
    1RG35   O2P    3   2.266   2.269   4.425  0.0870  0.0270 -0.4443
    1RG35   O5'    4   2.141   2.467   4.466  0.1188 -0.1171 -0.3050
    1RG35   C5'    5   2.102   2.602   4.462 -0.1324  0.4223 -0.3682
    1RG35  H5'1    6   2.081   2.628   4.358 -1.4173  0.5325 -0.0872
    1RG35  H5'2    7   2.187   2.665   4.490 -0.4691 -0.1617  2.0912
    1RG35   C4'    8   1.982   2.635   4.550 -0.0028 -0.9056 -0.1786
    1RG35   H4'    9   1.979   2.743   4.556  0.4703 -0.9510  1.1216
    1RG35   O4'   10   1.852   2.588   4.501  0.1890 -0.3273  0.1265
    1RG35   C1'   11   1.756   2.598   4.607  0.3345 -0.9096  0.8968
    1RG35   H1'   12   1.693   2.686   4.597  0.2744 -1.1319 -0.9137
    1RG35    N9   13   1.668   2.478   4.603  0.0874 -0.0401 -0.0873
    1RG35    C8   14   1.548   2.468   4.544  0.1135  0.0694 -0.0403
    1RG35    H8   15   1.511   2.558   4.496 -1.1633 -0.8274 -0.7747
    1RG35    N7   16   1.488   2.351   4.555  0.1602  0.0923  0.0006
    1RG35    C5   17   1.585   2.277   4.623  0.0899  0.5038 -0.0206
    1RG35    C6   18   1.593   2.135   4.662 -0.0725 -0.2779  0.1299
    1RG35    O6   19   1.511   2.044   4.643 -0.2604  0.4460 -0.2944
    1RG35    N1   20   1.703   2.105   4.734 -0.2697  0.1112  0.2087
    1RG35    H1   21   1.727   2.007   4.735  0.1360  0.2095  0.5553
    1RG35    C2   22   1.808   2.189   4.753  0.4659 -0.1436 -0.6740
    1RG35    N2   23   1.923   2.134   4.778 -0.3707  0.1129 -0.6031
    1RG35   H21   24   1.935   2.034   4.781 -1.0930  0.0421  0.2867
    1RG35   H22   25   2.003   2.196   4.775 -0.1743 -0.0138  1.3009
    1RG35    N3   26   1.811   2.313   4.710 -0.7086 -0.0137 -0.2177
    1RG35    C4   27   1.697   2.352   4.648 -0.3855  0.5505 -0.3235
    1RG35   C3'   28   1.987   2.594   4.698  0.3357 -0.2671 -0.3115
    1RG35   H3'   29   2.014   2.488   4.703  0.4093 -0.2981 -1.3906
    1RG35   C2'   30   1.841   2.614   4.732  0.5906  0.1750 -0.1353
    1RG35  H2'1   31   1.809   2.545   4.810 -0.5490  0.9260  0.0741
    1RG35   O2'   32   1.836   2.752   4.770 -0.6621  0.0445  0.5639
    1RG35  HO'2   33   1.925   2.774   4.798  0.6730 -0.8006 -2.7470
    1RG35   O3'   34   2.081   2.682   4.774  0.1348 -0.0375 -0.2095
    1RG35   H3T   35   2.162   2.631   4.781  1.2006  1.5282 -0.7998
    1RG35   O3P   36   2.247   2.443   4.255 -0.3688 -0.0233  0.3035
    1SOL     OW   37   2.315   1.601   0.430 -0.0474  0.0169 -0.2892
    1SOL    HW2   38   2.270   1.669   0.381  1.9864  1.1932 -0.5627
    1SOL    HW3   39   2.321   1.635   0.520  0.5612  0.0186 -0.3253
    1SOL    MW4   40   2.310   1.614   0.436  0.3011  0.1724 -0.3301
    1SOL     OW   41   4.249   3.611   0.698 -0.0890  0.1982 -0.2864
    1SOL    HW2   42   4.256   3.684   0.760 -0.3462  0.5395 -0.6529
    1SOL    HW3   43   4.199   3.544   0.745 -0.0285  0.3399 -0.0200
    1SOL    MW4   44   4.243   3.612   0.713 -0.1149  0.2618 -0.2996
    1SOL     OW   45   2.784   0.509   0.503  0.2947 -0.3163  0.1650
    1SOL    HW2   46   2.824   0.576   0.448  0.4422  0.6972  1.4825
    1SOL    HW3   47   2.815   0.529   0.591 -1.1179 -1.0288  0.8324
    1SOL    MW4   48   2.794   0.520   0.507  0.1278 -0.2766  0.4269
    1SOL     OW   49   2.030   2.619   0.325  0.1903  0.1505  0.2501
    1SOL    HW2   50   2.052   2.686   0.390  0.4205 -1.0888  1.4630
    1SOL    HW3   51   1.966   2.563   0.369 -0.1075 -0.3535 -0.8083
    1SOL    MW4   52   2.024   2.621   0.340  0.1814 -0.0796  0.2705
    1SOL     OW   53   4.458   3.661   0.498 -0.2425  0.2466  0.4431
    1SOL    HW2   54   4.497   3.748   0.506 -0.1120  0.1238  1.2023
    1SOL    HW3   55   4.396   3.656   0.570 -0.5735 -0.1236  0.1350
    1SOL    MW4   56   4.455   3.672   0.509 -0.2694  0.1817  0.5026
    1SOL     OW   57   0.050   2.434   0.776  0.1376  0.0350 -0.3745
    1SOL    HW2   58   0.042   2.419   0.682 -0.9186  0.1670 -0.3061
    1SOL    HW3   59   0.026   2.526   0.788 -0.9600 -0.3202  0.1751
    1SOL    MW4   60   0.046   2.444   0.765 -0.1466  0.0055 -0.2930
    1SOL     OW   61   1.431   0.072   0.450  0.2726 -0.3383 -0.1889
    1SOL    HW2   62   1.452   0.065   0.543  0.9058  0.3661 -0.2713
    1SOL    HW3   63   1.505   0.118   0.412  0.4018 -1.3660 -1.2006
    1SOL    MW4   64   1.443   0.077   0.457  0.3732 -0.3809 -0.3332
    1SOL     OW   65   4.295   0.227   0.460 -0.5064 -0.0993  0.1067
    1SOL    HW2   66   4.263   0.178   0.535 -1.4770  0.7728  0.2625
    1SOL    HW3   67   4.243   0.195   0.386 -0.0653 -0.4247 -0.0621
    1SOL    MW4   68   4.284   0.216   0.460 -0.5760 -0.0271  0.1050
    1SOL     OW   69   2.679   1.818   0.318 -0.1862 -0.0278 -0.5660
    1SOL    HW2   70   2.683   1.725   0.343 -1.3816  0.4183  1.3974
    1SOL    HW3   71   2.590   1.829   0.283  0.1523  0.2612 -1.3420
    1SOL    MW4   72   2.667   1.807   0.317 -0.2995  0.0693 -0.4094
    1SOL     OW   73   2.208   0.143   0.756  0.3750  0.2046  0.0430
    1SOL    HW2   74   2.283   0.097   0.792  0.6648  1.0460  0.5080
    1SOL    HW3   75   2.216   0.131   0.661  0.8002 -0.1471  0.1217
    1SOL    MW4   76   2.219   0.135   0.748  0.4692  0.2692  0.1147
    1SOL     OW   77   4.022   1.189   0.798 -0.5102 -0.0527 -0.0911
    1SOL    HW2   78   4.037   1.160   0.888  1.2421  1.6309  0.1795
    1SOL    HW3   79   3.971   1.118   0.758 -0.2186 -1.3857  1.8569
    1SOL    MW4   80   4.017   1.175   0.804 -0.2403 -0.0063  0.2016
    1SOL     OW   81   0.495   2.434   0.773  0.3146  0.2278  0.1354
    1SOL    HW2   82   0.480   2.438   0.679 -0.3539  0.2558  0.2376
    1SOL    HW3   83   0.420   2.384   0.807  0.6279  0.0874  0.6310
    1SOL    MW4   84   0.483   2.428   0.765  0.2677  0.2131  0.2143
    1SOL     OW   85   3.995   0.640   0.514 -0.1336 -0.2960 -0.3705
    1SOL    HW2   86   4.078   0.597   0.494 -0.2850 -0.7665 -0.0004
    1SOL    HW3   87   4.004   0.728   0.477  0.0405 -0.7525 -1.4437
    1SOL    MW4   88   4.007   0.646   0.507 -0.1307 -0.4182 -0.4633
    1SOL     OW   89   4.075   1.944   0.805 -0.0864  0.2586 -0.2441
    1SOL    HW2   90   4.065   1.851   0.788  3.3976 -0.3063  0.3240
    1SOL    HW3   91   4.077   1.951   0.900 -0.0040  0.8575 -0.2865
    1SOL    MW4   92   4.074   1.933   0.815  0.3843  0.2631 -0.1747
    1SOL     OW   93   3.997   3.088   0.495 -0.1754  0.0059  0.0443
    1SOL    HW2   94   4.077   3.038   0.481 -0.3275  0.3375 -2.1267
    1SOL    HW3   95   4.003   3.161   0.434 -2.2504 -0.1028 -0.3379
    1SOL    MW4   96   4.008   3.091   0.485 -0.4692  0.0350 -0.2926
    1SOL     OW   97   0.760   1.025   0.400  0.4247 -0.4058 -0.6090
    1SOL    HW2   98   0.681   0.975   0.422 -1.2682  1.3244 -2.5469
    1SOL    HW3   99   0.829   0.959   0.396 -0.7406 -1.8583  1.8908
    1SOL    MW4  100   0.759   1.009   0.402  0.0476 -0.3691 -0.5349
    1SOL     OW  101   3.344   0.151   0.410  0.1892 -0.0849  0.1076
    1SOL    HW2  102   3.265   0.139   0.464  0.9800 -1.3701  1.0030
    1SOL    HW3  103   3.338   0.083   0.343  0.0145  0.5021 -0.4859
    1SOL    MW4  104   3.332   0.141   0.408  0.2708 -0.1770  0.1474
    1SOL     OW  105   1.930   0.460   0.462 -0.1008 -0.4525 -0.1721
    1SOL    HW2  106   1.958   0.538   0.414 -0.9636 -0.8962 -1.4284
    1SOL    HW3  107   1.955   0.477   0.552  0.9446  0.7009 -0.6603
    1SOL    MW4  108   1.937   0.472   0.467 -0.0768 -0.3588 -0.4023
    1SOL     OW  109   2.630   2.509   0.494  0.1297  0.0658  0.1797
    1SOL    HW2  110   2.655   2.485   0.583 -1.2705  0.6156  0.7349
    1SOL    HW3  111   2.682   2.587   0.474  1.8652 -1.1604 -0.2183
    1SOL    MW4  112   2.640   2.516   0.503  0.1740 -0.0234  0.2005
    1SOL     OW  113   0.258   0.572   0.724 -0.0348  0.1746  0.4518
    1SOL    HW2  114   0.257   0.654   0.774  1.7038  0.0657  0.7290
    1SOL    HW3  115   0.307   0.593   0.645 -0.0298 -0.4583  0.2824
    1SOL    MW4  116   0.265   0.586   0.720  0.1952  0.0768  0.4660
    1SOL     OW  117   2.987   2.005   0.536  0.3039 -0.2676 -0.0599
    1SOL    HW2  118   3.071   2.047   0.515  0.2277  0.2659  0.7012
    1SOL    HW3  119   2.968   2.032   0.626  0.7697 -2.7566  0.8445
    1SOL    MW4  120   2.996   2.014   0.545  0.3552 -0.5255  0.1599
    1SOL     OW  121   0.527   0.371   0.477  0.1539  0.2911  0.2030
    1SOL    HW2  122   0.500   0.298   0.533 -1.6249  0.8420  0.1074
    1SOL    HW3  123   0.621   0.380   0.493 -0.0560 -0.4742  2.0243
    1SOL    MW4  124   0.536   0.363   0.487 -0.1085  0.2628  0.4307
    1SOL     OW  125   3.765   1.290   0.593 -0.3110 -0.2286 -0.5080
    1SOL    HW2  126   3.816   1.240   0.529 -0.2001 -1.3485  0.4455
    1SOL    HW3  127   3.721   1.223   0.645 -1.0847  0.7020  0.0349
    1SOL    MW4  128   3.766   1.274   0.591 -0.3984 -0.2537 -0.3105
    1SOL     OW  129   0.467   3.990   0.789 -0.0317 -0.0453  0.1597
    1SOL    HW2  130   0.476   4.000   0.694  2.2132  1.0546  0.4451
    1SOL    HW3  131   0.449   4.079   0.820 -1.5366 -0.5316  0.7005
    1SOL    MW4  132   0.466   4.003   0.780  0.0659  0.0353  0.2687
    1SOL     OW  133   0.168   4.646   0.858 -0.3110 -0.0343 -0.1849
    1SOL    HW2  134   0.072   4.637   0.852 -0.2658 -0.3965 -0.4557
    1SOL    HW3  135   0.190   4.713   0.794 -0.4245  0.3241  0.1554
    1SOL    MW4  136   0.158   4.653   0.849 -0.3200 -0.0353 -0.1757
    1SOL     OW  137   4.347   1.874   0.476  0.5130  0.0954 -0.0068
    1SOL    HW2  138   4.341   1.924   0.556  2.0334 -0.2465  0.3369
    1SOL    HW3  139   4.256   1.856   0.451  0.0378  0.2826  1.5767
    1SOL    MW4  140   4.334   1.878   0.483  0.6509  0.0751  0.2474
    1SOL     OW  141   1.997   2.303   0.801  0.4681 -0.3693  0.0464
    1SOL    HW2  142   2.024   2.319   0.891 -0.4864 -1.0143  0.4446
    1SOL    HW3  143   1.924   2.363   0.787  1.2009  0.3818 -0.5919
    1SOL    MW4  144   1.991   2.313   0.811  0.4388 -0.3555  0.0147
    1SOL     OW  145   4.342   4.390   0.502  0.6270 -0.3352 -0.0349
    1SOL    HW2  146   4.326   4.399   0.596  0.3546  0.4051 -0.1429
    1SOL    HW3  147   4.321   4.299   0.482 -1.0141 -0.0494  0.3041
    1SOL    MW4  148   4.337   4.379   0.512  0.3748 -0.1998 -0.0045
    1SOL     OW  149   0.906   4.029   0.481 -0.1859 -0.0400 -0.2864
    1SOL    HW2  150   0.836   4.094   0.489 -0.0165  0.1737 -0.5382
    1SOL    HW3  151   0.934   4.012   0.571  0.8117  1.3730 -0.3161
    1SOL    MW4  152   0.901   4.035   0.494 -0.0319  0.1750 -0.3235
    1SOL     OW  153   1.557   2.316   0.847  0.0324 -0.0096  0.0286
    1SOL    HW2  154   1.481   2.364   0.814 -0.8490 -0.7822  0.9020
    1SOL    HW3  155   1.566   2.241   0.788 -0.6895 -0.6296  0.6981
    1SOL    MW4  156   1.548   2.313   0.835 -0.1792 -0.1934  0.2322
    1SOL     OW  157   2.033   3.016   0.875 -0.1326 -0.2807  0.4498
    1SOL    HW2  158   2.034   2.933   0.828  0.2966  0.4469 -0.8706
    1SOL    HW3  159   1.959   3.064   0.838  0.5089  0.4957  0.1451
    1SOL    MW4  160   2.024   3.012   0.864  0.0086 -0.0827  0.2354
    1SOL     OW  161   2.495   2.883   0.456 -0.4230 -0.1705 -0.8641
    1SOL    HW2  162   2.490   2.853   0.546  1.2375  0.5867 -0.4958
    1SOL    HW3  163   2.451   2.814   0.405  0.7410 -1.7838  0.2559
    1SOL    MW4  164   2.489   2.870   0.461 -0.0503 -0.2832 -0.6678
    1SOL     OW  165   0.238   0.146   0.637 -0.0287 -0.0465  0.2000
    1SOL    HW2  166   0.253   0.063   0.591  0.8341  1.0813 -1.6163
    1SOL    HW3  167   0.177   0.194   0.582  0.0040  0.8093  0.8956
    1SOL    MW4  168   0.232   0.142   0.624  0.0895  0.2152  0.0521
    1SOL     OW  169   1.871   3.192   0.482 -0.3308 -0.0468  0.1359
    1SOL    HW2  170   1.896   3.114   0.431  1.2165  0.5889 -0.1016
    1SOL    HW3  171   1.932   3.260   0.454 -0.6254  0.8184  1.5288
    1SOL    MW4  172   1.882   3.190   0.472 -0.1656  0.1512  0.2884
    1SOL     OW  173   3.152   4.468   0.415 -0.1314 -0.0550 -0.6454
    1SOL    HW2  174   3.101   4.541   0.452  0.6065  0.0648  0.1757
    1SOL    HW3  175   3.203   4.508   0.344 -0.3187  0.0674 -0.7111
    1SOL    MW4  176   3.152   4.483   0.411 -0.0591 -0.0229 -0.5457
    1SOL     OW  177   0.686   1.285   0.475 -0.0431 -0.2080  0.4064
    1SOL    HW2  178   0.717   1.221   0.411 -1.4551 -0.3938 -0.1134
    1SOL    HW3  179   0.590   1.275   0.475 -0.2676  1.6997  0.5310
    1SOL    MW4  180   0.677   1.275   0.467 -0.2590  0.0191  0.3543
    1SOL     OW  181   3.383   0.758   0.869  0.1884 -0.0409  0.3650
    1SOL    HW2  182   3.396   0.664   0.861 -1.0925 -0.3872  2.0460
    1SOL    HW3  183   3.447   0.797   0.809  1.2576 -1.9398  0.2488
    1SOL    MW4  184   3.393   0.751   0.860  0.1607 -0.3371  0.5715
    1SOL     OW  185   1.833   3.155   0.751 -0.1951 -0.3301 -0.3723
    1SOL    HW2  186   1.845   3.165   0.656  0.4203 -2.4411 -0.5335
    1SOL    HW3  187   1.739   3.141   0.762 -0.3233  0.3066 -0.6234
    1SOL    MW4  188   1.822   3.155   0.740 -0.1308 -0.5245 -0.4267
    1SOL     OW  189   2.012   2.775   0.749 -0.0362  0.2429 -0.2451
    1SOL    HW2  190   2.020   2.809   0.660  1.4286  0.1084 -0.1639
    1SOL    HW3  191   2.096   2.733   0.767  0.0660  1.1913  1.6041
    1SOL    MW4  192   2.024   2.774   0.740  0.1707  0.3505  0.0095
    1SOL     OW  193   2.057   2.039   0.450 -0.3965  0.1118 -0.3016
    1SOL    HW2  194   2.127   2.103   0.466  0.5129 -1.2819  1.4403
    1SOL    HW3  195   2.029   2.013   0.538 -1.4379 -1.1602 -1.0031
    1SOL    MW4  196   2.062   2.044   0.464 -0.4139 -0.2396 -0.1643
    1SOL     OW  197   3.600   1.908   0.882 -0.1206  0.0875 -0.5307
    1SOL    HW2  198   3.676   1.952   0.844  1.2445 -1.1710  0.7278
    1SOL    HW3  199   3.583   1.835   0.823  1.4927 -1.3796  0.7764
    1SOL    MW4  200   3.608   1.905   0.869  0.2720 -0.2720 -0.1923
    1SOL     OW  201   0.219   2.813   0.747 -0.5490 -0.5132 -0.2244
    1SOL    HW2  202   0.294   2.778   0.796  0.6483  1.3639 -0.6487
    1SOL    HW3  203   0.203   2.899   0.787 -1.3237 -0.1395 -1.3271
    1SOL    MW4  204   0.227   2.820   0.759 -0.4932 -0.2162 -0.4258
    1SOL     OW  205   1.613   4.423   0.479  0.1584 -0.0461  0.7008
    1SOL    HW2  206   1.535   4.448   0.430  0.1987 -0.9299  0.1697
    1SOL    HW3  207   1.680   4.486   0.452  0.1105 -0.3700 -0.1996
    1SOL    MW4  208   1.612   4.434   0.469  0.1575 -0.2050  0.5120
    1SOL     OW  209   3.877   2.757   0.508  0.1675 -0.0919 -0.4294
    1SOL    HW2  210   3.823   2.827   0.471 -0.6477  0.0358  0.9606
    1SOL    HW3  211   3.847   2.678   0.464 -1.7670 -0.1466  0.9215
    1SOL    MW4  212   3.866   2.756   0.497 -0.1953 -0.0823 -0.0678
    1SOL     OW  213   2.442   2.014   0.734  0.1632 -0.0992 -0.0930
    1SOL    HW2  214   2.470   2.022   0.643  0.8179 -0.8031  0.0401
    1SOL    HW3  215   2.439   2.104   0.766 -0.5544  0.1930 -0.9469
    1SOL    MW4  216   2.446   2.027   0.726  0.1550 -0.1535 -0.1881
    1SOL     OW  217   2.896   3.058   0.893  0.2191 -0.0457 -0.2127
    1SOL    HW2  218   2.814   3.088   0.854  0.3978  1.0673  0.2432
    1SOL    HW3  219   2.915   2.976   0.848 -1.4494 -0.6337  0.1094
    1SOL    MW4  220   2.888   3.051   0.882  0.0224  0.0234 -0.1100
    1SOL     OW  221   0.923   4.258   0.871  0.9546  0.0217  0.1589
    1SOL    HW2  222   0.914   4.182   0.814  2.2728 -0.5879  0.7568
    1SOL    HW3  223   0.998   4.306   0.837  0.9494  0.3495  0.5985
    1SOL    MW4  224   0.932   4.254   0.859  1.1278 -0.0153  0.2959
    1SOL     OW  225   3.105   1.079   0.334 -0.0688  0.2257  0.0269
    1SOL    HW2  226   3.080   1.059   0.244  0.8969 -2.0786  0.2463
    1SOL    HW3  227   3.025   1.114   0.374 -0.6397  0.7857 -1.5652
    1SOL    MW4  228   3.091   1.081   0.327 -0.0167 -0.0044 -0.1542
    1SOL     OW  229   1.284   3.506   0.418  0.4210  0.2800  0.0371
    1SOL    HW2  230   1.371   3.547   0.415  0.8602 -0.6566 -0.2760
    1SOL    HW3  231   1.229   3.571   0.462  1.1099  1.1849 -0.4004
    1SOL    MW4  232   1.288   3.520   0.424  0.5698  0.2759 -0.0619
    1SOL     OW  233   2.188   0.113   0.478 -0.2446 -0.0879 -0.3334
    1SOL    HW2  234   2.252   0.173   0.441  0.5809 -0.7779 -0.0470
    1SOL    HW3  235   2.105   0.138   0.437  0.7586 -1.3092 -3.2558
    1SOL    MW4  236   2.186   0.124   0.468 -0.0033 -0.3401 -0.6812
    1SOL     OW  237   0.241   4.172   0.509 -0.7120  0.2824  0.0023
    1SOL    HW2  238   0.215   4.229   0.437  0.1278  1.8195  0.8875
    1SOL    HW3  239   0.271   4.232   0.577  0.5034 -1.2347  0.8302
    1SOL    MW4  240   0.241   4.187   0.509 -0.4408  0.2847  0.2284
    1SOL     OW  241   0.480   2.434   0.488 -0.0930  0.1861  0.1850
    1SOL    HW2  242   0.403   2.482   0.458  0.2853  0.7322  0.0902
    1SOL    HW3  243   0.459   2.342   0.472 -0.6658  0.3466  0.0239
    1SOL    MW4  244   0.467   2.428   0.482 -0.1187  0.2792  0.1513
    1SOL     OW  245   1.250   0.804   0.448 -0.5519  0.0346  0.3129
    1SOL    HW2  246   1.229   0.710   0.444 -1.2589  0.2434 -1.4051
    1SOL    HW3  247   1.272   0.820   0.540  0.1694 -1.9392  0.5106
    1SOL    MW4  248   1.250   0.793   0.459 -0.5502 -0.1983  0.1123
    1SOL     OW  249   0.244   3.833   0.880  0.1708 -0.2007 -0.6116
    1SOL    HW2  250   0.252   3.832   0.976 -2.6457  0.7256 -0.3233
    1SOL    HW3  251   0.320   3.883   0.850  0.4754  0.4620  1.2095
    1SOL    MW4  252   0.255   3.840   0.889 -0.1606  0.0091 -0.3333
    1SOL     OW  253   2.551   0.901   0.311 -0.0742  0.0172  0.1037
    1SOL    HW2  254   2.500   0.820   0.314  0.1037 -0.0591  1.5475
    1SOL    HW3  255   2.638   0.875   0.341  0.0082  0.7198  0.4775
    1SOL    MW4  256   2.556   0.887   0.316 -0.0398  0.0998  0.3435
    1SOL     OW  257   0.468   0.939   0.764 -0.2166  0.3021 -0.1656
    1SOL    HW2  258   0.541   0.893   0.804 -0.0898  1.6926  1.2187
    1SOL    HW3  259   0.390   0.899   0.803 -0.1858 -0.3280 -0.7249
    1SOL    MW4  260   0.467   0.928   0.774 -0.1958  0.4024 -0.0567
    1SOL     OW  261   2.990   4.243   0.515  0.5120 -0.0126 -0.0809
    1SOL    HW2  262   2.957   4.292   0.590 -0.4012 -1.3586  0.3940
    1SOL    HW3  263   3.041   4.308   0.465 -0.2073  1.2780  0.8396
    1SOL    MW4  264   2.992   4.258   0.518  0.2964 -0.0196  0.1032
    1SOL     OW  265   1.331   1.356   0.424 -0.4547 -0.4395 -0.7335
    1SOL    HW2  266   1.242   1.324   0.436 -0.9107  0.7793 -0.8771
    1SOL    HW3  267   1.366   1.302   0.352 -0.6071 -1.8365  0.2083
    1SOL    MW4  268   1.324   1.344   0.416 -0.5351 -0.4630 -0.6282
    1SOL     OW  269   1.356   3.238   0.754 -0.0423 -0.3049 -0.0858
    1SOL    HW2  270   1.353   3.244   0.659  0.7702  0.3534 -0.0758
    1SOL    HW3  271   1.271   3.201   0.779 -1.2149  1.7042 -0.9189
    1SOL    MW4  272   1.344   3.234   0.745 -0.0898  0.0472 -0.1944
    1SOL     OW  273   4.471   0.854   0.538  0.2178  0.5243 -0.7967
    1SOL    HW2  274   4.564   0.877   0.535  0.5624 -0.7402 -0.1153
    1SOL    HW3  275   4.467   0.766   0.502 -0.9980  1.3411 -2.7290
    1SOL    MW4  276   4.482   0.845   0.533  0.1030  0.4653 -0.9617
    1SOL     OW  277   3.087   0.418   0.334  0.0037  0.1083 -0.1150
    1SOL    HW2  278   3.142   0.372   0.270 -0.2107  1.2128 -1.0991
    1SOL    HW3  279   3.032   0.349   0.371  1.1239 -0.7875 -0.0820
    1SOL    MW4  280   3.087   0.403   0.330  0.1233  0.1358 -0.2405
    1SOL     OW  281   1.117   3.095   0.856 -0.0455 -0.3482 -0.1737
    1SOL    HW2  282   1.053   3.150   0.810  0.8276  1.2759  0.4953
    1SOL    HW3  283   1.095   3.006   0.830 -2.3773  0.1999 -0.2165
    1SOL    MW4  284   1.106   3.091   0.847 -0.2381 -0.0613 -0.0911
    1SOL     OW  285   1.516   2.417   0.165 -0.3263 -0.3578  0.2489
    1SOL    HW2  286   1.599   2.382   0.196 -0.4280 -0.7831  0.0420
    1SOL    HW3  287   1.503   2.377   0.079 -0.6300 -0.1108  0.1769
    1SOL    MW4  288   1.525   2.407   0.158 -0.3797 -0.3812  0.2121
    1SOL     OW  289   2.172   1.803   0.300 -0.0906 -0.5640 -0.6351
    1SOL    HW2  290   2.107   1.775   0.236 -0.4904 -3.0646  0.7868
    1SOL    HW3  291   2.133   1.878   0.344 -1.8888 -1.8521 -0.0097
    1SOL    MW4  292   2.158   1.809   0.297 -0.3805 -1.0638 -0.3649
    1SOL     OW  293   0.650   3.096   0.815  0.2020  0.4298  0.0012
    1SOL    HW2  294   0.568   3.136   0.785 -0.5943 -1.7481 -0.8606
    1SOL    HW3  295   0.652   3.113   0.909 -1.5542  0.0168  0.1421
    1SOL    MW4  296   0.639   3.103   0.823 -0.1348  0.0877 -0.0939
    1SOL     OW  297   0.863   3.760   0.427 -0.0797  0.1766  0.6851
    1SOL    HW2  298   0.865   3.854   0.411  0.3699  0.2623  1.2241
    1SOL    HW3  299   0.951   3.739   0.457  0.9397 -1.0641 -2.9486
    1SOL    MW4  300   0.875   3.770   0.429  0.1142  0.0243  0.2768
    1SOL     OW  301   1.028   3.364   0.269 -0.4182  0.2147  0.0618
    1SOL    HW2  302   1.108   3.415   0.284  0.7585 -1.1075 -1.6299
    1SOL    HW3  303   0.966   3.427   0.232  0.7347  0.6472 -1.1792
    1SOL    MW4  304   1.030   3.379   0.266 -0.1109  0.0973 -0.3252
    1SOL     OW  305   1.778   0.887   0.693 -0.1631 -0.0835 -0.4353
    1SOL    HW2  306   1.788   0.974   0.730 -1.5428 -0.1869  0.2205
    1SOL    HW3  307   1.853   0.838   0.726  0.4883  0.7824 -0.6157
    1SOL    MW4  308   1.789   0.892   0.702 -0.2593  0.0170 -0.3726
    1SOL     OW  309   0.001   3.973   0.818  0.4625  0.7286  0.1915
    1SOL    HW2  310  -0.075   3.915   0.826  0.8180  0.4435  1.6917
    1SOL    HW3  311   0.076   3.916   0.834  0.8354  1.5150  1.3473
    1SOL    MW4  312   0.001   3.958   0.821  0.5589  0.7949  0.5419
    1SOL     OW  313   3.339   4.601   0.917 -0.1290  0.5653 -0.5226
    1SOL    HW2  314   3.336   4.607   1.012 -2.0716  0.6372 -0.5653
    1SOL    HW3  315   3.427   4.632   0.893  0.8058 -0.6215  1.3106
    1SOL    MW4  316   3.350   4.606   0.926 -0.2620  0.4177 -0.2864
    1SOL     OW  317   4.485   2.384   0.493  0.1727  0.3261 -0.5482
    1SOL    HW2  318   4.391   2.398   0.502  0.5063  0.8431  2.5402
    1SOL    HW3  319   4.493   2.292   0.467 -1.1506 -0.1615  0.6884
    1SOL    MW4  320   4.473   2.374   0.491  0.0424  0.3297  0.0224
    1SOL     OW  321   0.464   2.129   0.453 -0.1863  0.1681  0.4368
    1SOL    HW2  322   0.395   2.063   0.467  0.3015 -0.1105  1.6046
    1SOL    HW3  323   0.545   2.078   0.452  0.2652  0.8138  2.1108
    1SOL    MW4  324   0.465   2.114   0.455 -0.0623  0.2162  0.8118
    1SOL     OW  325   2.455   4.433   0.735 -0.0441 -0.1029 -0.1037
    1SOL    HW2  326   2.374   4.389   0.760  0.1902 -0.8114 -0.5707
    1SOL    HW3  327   2.446   4.447   0.641 -1.3370  3.3885  0.4707
    1SOL    MW4  328   2.443   4.429   0.726 -0.1838  0.2642 -0.0896
    1SOL     OW  329   3.360   2.928   0.498  0.1805 -0.3321 -0.0011
    1SOL    HW2  330   3.347   2.882   0.580 -0.9814 -0.0540 -0.0259
    1SOL    HW3  331   3.373   2.858   0.433  0.6947 -0.5574  0.3384
    1SOL    MW4  332   3.360   2.913   0.500  0.0951 -0.3254  0.0404
    1SOL     OW  333   3.373   4.581   0.250 -0.3581 -0.0924 -0.3145
    1SOL    HW2  334   3.449   4.557   0.303 -0.7026  0.8398  0.6152
    1SOL    HW3  335   3.406   4.583   0.160  0.5751 -0.2850  0.0221
    1SOL    MW4  336   3.387   4.578   0.245 -0.2804  0.0052 -0.1474
    1SOL     OW  337   3.959   0.907   0.740  0.0283 -0.1617  0.1960
    1SOL    HW2  338   4.037   0.868   0.780  0.3304 -0.4220 -0.6382
    1SOL    HW3  339   3.979   0.910   0.647 -0.2098  1.5318  0.1965
    1SOL    MW4  340   3.972   0.902   0.733  0.0367  0.0274  0.0859
    1SOL     OW  341   2.121   1.427   0.518  0.0538 -0.0227  0.0953
    1SOL    HW2  342   2.195   1.483   0.499 -1.1365  1.7480  0.5225
    1SOL    HW3  343   2.056   1.449   0.452 -0.1491 -1.4965 -0.2296
    1SOL    MW4  344   2.122   1.437   0.507 -0.1297  0.0166  0.1088
    1SOL     OW  345   2.645   2.311   0.271 -0.0987  0.4733  0.0324
    1SOL    HW2  346   2.698   2.236   0.295 -1.2970 -0.7229 -0.9827
    1SOL    HW3  347   2.638   2.363   0.351  0.5877 -0.5943  0.7793
    1SOL    MW4  348   2.651   2.308   0.285 -0.1664  0.1748 -0.0030
    1SOL     OW  349   0.368   3.245   0.498  0.3899 -0.1665  0.4961
    1SOL    HW2  350   0.306   3.317   0.511 -1.1044 -1.5769  1.3518
    1SOL    HW3  351   0.315   3.174   0.462  1.7871 -0.9580 -0.0381
    1SOL    MW4  352   0.353   3.245   0.495  0.3771 -0.4568  0.5385
    1SOL     OW  353   1.038   3.091   0.184  0.3459 -0.8919 -0.1595
    1SOL    HW2  354   1.029   3.186   0.194 -0.0820 -0.9399 -0.0437
    1SOL    HW3  355   1.092   3.080   0.106 -0.6637 -0.5593 -0.9222
    1SOL    MW4  356   1.044   3.102   0.175  0.1559 -0.8545 -0.2448
    1SOL     OW  357   2.467   2.825   0.741 -0.4442  0.6008  0.4479
    1SOL    HW2  358   2.462   2.904   0.794  1.3166  0.6850  0.5126
    1SOL    HW3  359   2.545   2.779   0.773 -0.6948 -0.5116 -0.4735
    1SOL    MW4  360   2.477   2.829   0.752 -0.2451  0.4649  0.3349
    1SOL     OW  361   3.793   4.074   0.404  0.0960 -0.1438  0.4480
    1SOL    HW2  362   3.794   4.169   0.414  0.5050 -0.1944  0.9061
    1SOL    HW3  363   3.879   4.046   0.433  0.1660 -0.6087 -0.1916
    1SOL    MW4  364   3.804   4.083   0.409  0.1593 -0.2117  0.4241
    1SOL     OW  365   3.372   3.080   0.830  0.4640 -0.0615 -0.2046
    1SOL    HW2  366   3.284   3.114   0.814  0.5818  0.5063  0.3341
    1SOL    HW3  367   3.386   3.093   0.924  1.0593 -0.2964 -0.2598
    1SOL    MW4  368   3.362   3.086   0.840  0.5581 -0.0176 -0.1409
    1SOL     OW  369   2.870   1.176   0.449  0.2880  0.5628 -0.4641
    1SOL    HW2  370   2.842   1.084   0.447  0.4748  0.5096 -0.5767
    1SOL    HW3  371   2.886   1.193   0.542  0.6339  0.3692 -0.4881
    1SOL    MW4  372   2.868   1.166   0.461  0.3583  0.5302 -0.4821
    1SOL     OW  373   4.347   2.015   0.715  0.3710 -0.0839  0.0308
    1SOL    HW2  374   4.407   1.977   0.780 -1.0399 -0.3272  1.2157
    1SOL    HW3  375   4.260   1.986   0.744 -0.3919  1.0290 -1.1494
    1SOL    MW4  376   4.344   2.006   0.728  0.0839  0.0308  0.0315
    1SOL     OW  377   0.044   0.596   0.392  0.2462 -0.0485 -0.4573
    1SOL    HW2  378   0.076   0.511   0.422  0.8423 -0.1039 -1.2267
    1SOL    HW3  379   0.123   0.641   0.360 -0.0621  0.7982 -0.0463
    1SOL    MW4  380   0.059   0.591   0.392  0.2842  0.0559 -0.5046
    1SOL     OW  381   4.267   3.079   0.832  0.2260 -0.3396 -0.4412
    1SOL    HW2  382   4.197   3.142   0.813 -0.0423 -0.5935 -0.3046
    1SOL    HW3  383   4.346   3.119   0.796 -0.1595 -0.5079 -1.4952
    1SOL    MW4  384   4.268   3.092   0.825  0.1397 -0.3951 -0.5623
    1SOL     OW  385   0.269   2.047   0.791  0.0696  0.4098  0.5085
    1SOL    HW2  386   0.351   2.003   0.814 -0.1128  0.4652  1.2907
    1SOL    HW3  387   0.272   2.129   0.841  0.7612  1.6628 -1.5227
    1SOL    MW4  388   0.280   2.052   0.800  0.1368  0.5822  0.3437
    1SOL     OW  389   0.007   4.230   0.881  0.0163 -0.2720 -0.6146
    1SOL    HW2  390  -0.000   4.235   0.976 -0.5840  0.4561 -0.6955
    1SOL    HW3  391   0.011   4.136   0.862 -0.9537 -0.4480  0.0476
    1SOL    MW4  392   0.007   4.218   0.891 -0.1909 -0.1998 -0.5380
    1SOL     OW  393   1.969   2.768   0.077  0.3374 -0.2125 -0.2568
    1SOL    HW2  394   1.985   2.857   0.110  0.4044 -0.1475 -0.4659
    1SOL    HW3  395   1.980   2.712   0.154  0.1076 -0.0213 -0.0826
    1SOL    MW4  396   1.972   2.772   0.092  0.3159 -0.1788 -0.2614
    1SOL     OW  397   2.925   2.056   0.808  0.1572  0.2521 -0.0989
    1SOL    HW2  398   2.997   1.996   0.825  0.8082  1.1373  0.2869
    1SOL    HW3  399   2.847   2.001   0.811  0.9070 -0.9744 -1.8552
    1SOL    MW4  400   2.924   2.041   0.810  0.3421  0.2069 -0.2797
    1SOL     OW  401   1.769   0.082   0.702 -0.2104  0.2608 -0.0303
    1SOL    HW2  402   1.707   0.023   0.745 -0.4077 -0.5639 -1.3975
    1SOL    HW3  403   1.855   0.055   0.735 -0.3982 -0.0508  0.2072
    1SOL    MW4  404   1.772   0.071   0.712 -0.2612  0.1108 -0.1794
    1SOL     OW  405   2.580   0.075   0.470  0.0379 -0.6469 -0.2362
    1SOL    HW2  406   2.600   0.085   0.563  0.5332 -2.8240 -0.0680
    1SOL    HW3  407   2.505   0.015   0.468 -0.1178 -0.4327 -1.2355
    1SOL    MW4  408   2.573   0.068   0.482  0.0827 -0.9059 -0.3459
    1SOL     OW  409   1.552   2.074   0.686  0.1353  0.4477  0.1199
    1SOL    HW2  410   1.516   2.078   0.598 -0.0998 -1.0970  0.1351
    1SOL    HW3  411   1.489   2.023   0.736  0.3419  1.1716  1.1583
    1SOL    MW4  412   1.539   2.068   0.681  0.1315  0.3390  0.2589
    1SOL     OW  413   2.161   0.303   0.141  0.1750 -0.1038 -0.1495
    1SOL    HW2  414   2.186   0.257   0.062 -1.3313 -1.7779  0.3320
    1SOL    HW3  415   2.240   0.302   0.195  0.8292 -0.0666 -1.1029
    1SOL    MW4  416   2.175   0.297   0.138  0.0625 -0.3198 -0.2118
    1SOL     OW  417   2.005   3.679   0.449  0.3661 -0.2128 -0.0699
    1SOL    HW2  418   2.005   3.652   0.541  0.2344  1.0617  0.3086
    1SOL    HW3  419   1.927   3.733   0.439  0.5674 -0.0553 -0.8422
    1SOL    MW4  420   1.995   3.683   0.460  0.3754 -0.0241 -0.1219
    1SOL     OW  421   1.556   3.910   0.363  0.1208  0.2590  0.4621
    1SOL    HW2  422   1.557   3.957   0.280 -1.0404 -2.2297 -1.0274
    1SOL    HW3  423   1.648   3.904   0.388  0.4073  1.8020 -0.1892
    1SOL    MW4  424   1.568   3.915   0.355  0.0055  0.1342  0.1796
    1SOL     OW  425   1.130   1.546   0.866 -0.0072  0.0491  0.2860
    1SOL    HW2  426   1.129   1.455   0.838  1.0624 -0.3159  1.3900
    1SOL    HW3  427   1.212   1.581   0.831 -1.1341  1.0166 -1.4343
    1SOL    MW4  428   1.141   1.539   0.858 -0.0147  0.1285  0.2046
    1SOL     OW  429   1.376   0.089   0.746  0.0068  0.0422 -0.0389
    1SOL    HW2  430   1.444   0.039   0.791 -0.2090 -0.6535 -0.4856
    1SOL    HW3  431   1.379   0.176   0.787  0.6951 -0.1943  0.4144
    1SOL    MW4  432   1.385   0.094   0.758  0.0691 -0.0808 -0.0380
    1SOL     OW  433   3.656   1.552   0.446  0.1111  0.0327 -0.0356
    1SOL    HW2  434   3.595   1.531   0.377  1.3665 -0.0874 -1.1356
    1SOL    HW3  435   3.677   1.468   0.487 -0.6035  0.1000  0.4788
    1SOL    MW4  436   3.651   1.538   0.443  0.1826  0.0257 -0.1128
    1SOL     OW  437   1.960   0.716   0.352 -0.6731 -0.1649 -0.1068
    1SOL    HW2  438   1.874   0.755   0.367 -0.1131  1.3047 -0.5676
    1SOL    HW3  439   2.022   0.784   0.380  0.3342 -1.2755  0.3752
    1SOL    MW4  440   1.957   0.730   0.357 -0.4663 -0.1175 -0.1040
    1SOL     OW  441   0.921   4.019   0.760  0.1573  0.1254 -0.3910
    1SOL    HW2  442   0.847   3.989   0.812  0.5384  0.2500  0.2342
    1SOL    HW3  443   0.998   3.991   0.811  0.5269  0.7087 -0.6310
    1SOL    MW4  444   0.922   4.011   0.774  0.2564  0.2184 -0.3402
    1SOL     OW  445   4.080   2.639   0.875 -0.0697  0.0865 -0.0998
    1SOL    HW2  446   4.068   2.549   0.842  0.8911 -0.3602  0.7520
    1SOL    HW3  447   4.145   2.677   0.817  2.2547 -0.9746  1.7222
    1SOL    MW4  448   4.087   2.632   0.863  0.3638 -0.1125  0.2530
    1SOL     OW  449   3.780   3.648   0.549 -0.1576  0.2016 -0.5921
    1SOL    HW2  450   3.865   3.682   0.521  0.0273  0.4027  0.2175
    1SOL    HW3  451   3.718   3.716   0.524  0.1190  0.8028  0.3104
    1SOL    MW4  452   3.783   3.661   0.542 -0.0968  0.3076 -0.3662
    1SOL     OW  453   0.921   0.562   0.306  0.2906 -0.6537 -0.5150
    1SOL    HW2  454   0.902   0.583   0.214 -0.3930 -1.3409 -0.5357
    1SOL    HW3  455   1.011   0.528   0.304  1.0056  1.2193 -0.6312
    1SOL    MW4  456   0.931   0.560   0.294  0.2947 -0.4972 -0.5331
    1SOL     OW  457   2.693   0.862   0.706  0.3378 -0.3861 -0.0942
    1SOL    HW2  458   2.685   0.951   0.742  0.8488  0.3243 -1.6715
    1SOL    HW3  459   2.753   0.818   0.766 -0.8014 -0.0317  1.3434
    1SOL    MW4  460   2.700   0.868   0.718  0.2549 -0.2456 -0.1126
    1SOL     OW  461   1.730   1.944   0.854 -0.5833 -0.1351 -0.0276
    1SOL    HW2  462   1.666   1.984   0.796 -1.3072  1.5952  1.8917
    1SOL    HW3  463   1.739   1.854   0.822 -1.6208  0.5124 -2.2199
    1SOL    MW4  464   1.723   1.938   0.842 -0.8156  0.1786 -0.0636
    1SOL     OW  465   1.962   0.192   0.333  0.3395  0.3924  0.5791
    1SOL    HW2  466   2.014   0.222   0.258  1.2695  0.4104  1.2314
    1SOL    HW3  467   1.956   0.268   0.391  0.5610  0.0512  1.0495
    1SOL    MW4  468   1.968   0.206   0.330  0.4914  0.3498  0.7272
    1SOL     OW  469   0.898   3.472   0.860  0.0867  0.1152 -0.2309
    1SOL    HW2  470   0.891   3.391   0.809  2.8095 -0.5774  0.4341
    1SOL    HW3  471   0.823   3.524   0.831 -1.3433 -2.3392 -1.1601
    1SOL    MW4  472   0.887   3.468   0.849  0.2573 -0.2999 -0.2657
    1SOL     OW  473   1.999   1.295   0.724 -0.0794  0.3341  0.4914
    1SOL    HW2  474   2.023   1.325   0.637  0.4260 -0.6930  0.2784
    1SOL    HW3  475   2.074   1.246   0.755 -1.4077 -1.8601  0.3192
    1SOL    MW4  476   2.012   1.293   0.717 -0.1881 -0.0910  0.4406
    1SOL     OW  477   4.057   3.318   0.344  0.5520 -0.5544 -0.2165
    1SOL    HW2  478   4.136   3.361   0.376 -0.0789  0.5352 -0.1188
    1SOL    HW3  479   3.990   3.385   0.347 -1.0337 -2.1736  2.2755
    1SOL    MW4  480   4.059   3.332   0.349  0.2594 -0.6242  0.1252
    1SOL     OW  481   0.501   1.648   0.741 -0.2545  0.1619 -0.6344
    1SOL    HW2  482   0.571   1.618   0.799 -0.8360  0.6898  0.3613
    1SOL    HW3  483   0.487   1.739   0.767 -0.3527  0.4720 -1.7832
    1SOL    MW4  484   0.508   1.656   0.752 -0.3442  0.2724 -0.6546
    1SOL     OW  485   0.941   0.179   0.519  0.7317 -0.2407 -0.3278
    1SOL    HW2  486   0.915   0.271   0.518  1.7794  0.0705  0.0919
    1SOL    HW3  487   1.036   0.181   0.530  0.6767 -1.3913  0.4844
    1SOL    MW4  488   0.950   0.191   0.520  0.8627 -0.3514 -0.1653
    1SOL     OW  489   1.329   2.466   0.761  0.3479 -0.4938  0.1094
    1SOL    HW2  490   1.336   2.473   0.666 -0.4177  0.9687  0.1517
    1SOL    HW3  491   1.328   2.557   0.792 -3.5207 -0.8357  1.2147
    1SOL    MW4  492   1.330   2.479   0.752 -0.2637 -0.3459  0.2608
    1SOL     OW  493   1.661   2.792   0.457 -0.3479  0.0044 -0.2076
    1SOL    HW2  494   1.593   2.760   0.397 -1.7089  3.0299 -0.3971
    1SOL    HW3  495   1.614   2.807   0.539  0.2590  1.2425 -0.0763
    1SOL    MW4  496   1.646   2.790   0.460 -0.4474  0.5667 -0.2153
    1SOL     OW  497   3.074   0.074   0.527 -0.4457  0.3959 -0.0774
    1SOL    HW2  498   2.996   0.123   0.502 -1.4846 -1.5037 -0.6580
    1SOL    HW3  499   3.076   0.078   0.622 -0.7144  1.2504 -0.1004
    1SOL    MW4  500   3.064   0.081   0.536 -0.6180  0.2580 -0.1571
    1SOL     OW  501   2.913   4.361   0.760  0.4750 -0.1842  0.4759
    1SOL    HW2  502   2.913   4.456   0.773  1.5041  0.3122 -2.7631
    1SOL    HW3  503   2.823   4.334   0.777 -0.1012  1.5579  0.2370
    1SOL    MW4  504   2.901   4.370   0.764  0.5345  0.1106  0.0170
    1SOL     OW  505   0.407   1.274   0.473 -0.0576 -0.6016 -0.0200
    1SOL    HW2  506   0.386   1.367   0.459  0.6880 -0.1270  1.8238
    1SOL    HW3  507   0.367   1.253   0.557  1.2316 -1.4829  0.3891
    1SOL    MW4  508   0.399   1.284   0.482  0.2108 -0.6554  0.2772
    1SOL     OW  509   1.568   1.257   0.807 -0.3595  0.5715 -0.2899
    1SOL    HW2  510   1.577   1.273   0.713  0.2368 -1.8029 -0.6898
    1SOL    HW3  511   1.487   1.207   0.814 -0.3236  0.6215  0.4471
    1SOL    MW4  512   1.559   1.252   0.795 -0.2760  0.2650 -0.2455
    1SOL     OW  513   1.342   3.504   0.834  0.2892  0.4208  0.3031
    1SOL    HW2  514   1.418   3.540   0.788 -1.0017  0.9116 -1.4628
    1SOL    HW3  515   1.343   3.411   0.812  1.0107  0.1969  1.2144
    1SOL    MW4  516   1.352   3.497   0.825  0.2141  0.4563  0.1903
    1SOL     OW  517   3.810   2.292   0.860 -0.4017 -0.2478  0.3175
    1SOL    HW2  518   3.754   2.347   0.805 -0.3337  0.0454  0.5352
    1SOL    HW3  519   3.801   2.204   0.824 -0.0358  0.0082 -0.4235
    1SOL    MW4  520   3.802   2.288   0.848 -0.3443 -0.1750  0.2486
    1SOL     OW  521   1.990   0.018   0.846  0.3286 -0.6880 -0.1105
    1SOL    HW2  522   2.069   0.055   0.806  0.8318 -0.5888  0.9589
    1SOL    HW3  523   1.997  -0.076   0.828  1.0503 -0.7719  0.5713
    1SOL    MW4  524   2.002   0.010   0.839  0.4902 -0.6860  0.1206
    1SOL     OW  525   3.463   0.792   0.289 -0.2494 -0.4220 -0.1562
    1SOL    HW2  526   3.524   0.861   0.316  1.4863 -1.4693 -1.2533
    1SOL    HW3  527   3.385   0.807   0.341  0.4802  1.7411  0.3810
    1SOL    MW4  528   3.461   0.803   0.299  0.0758 -0.2748 -0.2301
    1SOL     OW  529   1.217   0.243   0.529 -0.6318  0.2490  0.0683
    1SOL    HW2  530   1.270   0.257   0.607 -1.0893 -0.0034  0.4264
    1SOL    HW3  531   1.267   0.178   0.478 -0.6005  0.0009  0.4110
    1SOL    MW4  532   1.230   0.236   0.532 -0.6881  0.1829  0.1608
    1SOL     OW  533   0.688   2.053   0.770 -0.2115 -0.5789  0.2501
    1SOL    HW2  534   0.702   2.027   0.678  0.9370 -1.8299  0.7618
    1SOL    HW3  535   0.700   2.148   0.769 -0.8258 -0.5005 -1.0081
    1SOL    MW4  536   0.692   2.062   0.757 -0.1410 -0.7334  0.1516
    1SOL     OW  537   2.266   2.254   0.477  0.1963  0.2766 -0.6096
    1SOL    HW2  538   2.348   2.207   0.495 -0.2718 -0.1734  0.3886
    1SOL    HW3  539   2.257   2.315   0.550 -0.2633  0.4532 -0.8139
    1SOL    MW4  540   2.276   2.256   0.489  0.0741  0.2403 -0.5049
    1SOL     OW  541   2.420   1.915   0.230 -0.0346  0.1096  0.0773
    1SOL    HW2  542   2.331   1.879   0.237  0.4386 -1.1710 -0.2851
    1SOL    HW3  543   2.411   1.990   0.172 -1.1869  1.0468  1.4498
    1SOL    MW4  544   2.407   1.920   0.223 -0.1240  0.0644  0.2106
    1SOL     OW  545   3.844   4.355   0.463 -0.0333  0.2870 -0.1300
    1SOL    HW2  546   3.924   4.408   0.462 -0.4696  0.9429 -0.5018
    1SOL    HW3  547   3.775   4.416   0.440 -0.7066 -0.1797  0.6330
    1SOL    MW4  548   3.846   4.370   0.460 -0.1798  0.3119 -0.0784
    1SOL     OW  549   2.226   2.435   0.251 -0.1670 -0.1098 -0.1518
    1SOL    HW2  550   2.151   2.494   0.258 -1.2592 -1.4177 -0.6118
    1SOL    HW3  551   2.234   2.396   0.338 -0.1707 -0.1356 -0.1630
    1SOL    MW4  552   2.217   2.438   0.263 -0.3114 -0.2856 -0.2140
    1SOL     OW  553   3.331   0.431   0.516  0.2912  0.0777 -0.0166
    1SOL    HW2  554   3.349   0.354   0.462 -0.1265 -0.6242  0.8329
    1SOL    HW3  555   3.243   0.460   0.489  0.8926  0.9127 -1.1029
    1SOL    MW4  556   3.322   0.425   0.505  0.3154  0.0952 -0.0479
    1SOL     OW  557   4.294   4.390   0.773  0.6473  0.2223  0.6178
    1SOL    HW2  558   4.353   4.323   0.806 -0.4424  0.0360  2.2312
    1SOL    HW3  559   4.320   4.470   0.818  2.3551  1.0689 -1.7668
    1SOL    MW4  560   4.305   4.392   0.783  0.7291  0.3090  0.5161
    1SOL     OW  561   1.556   0.770   0.829  0.0194  0.5459  0.4087
    1SOL    HW2  562   1.627   0.810   0.779  0.6107  0.2831  1.0227
    1SOL    HW3  563   1.477   0.785   0.776  0.6789 -0.0198 -0.7447
    1SOL    MW4  564   1.555   0.777   0.816  0.1844  0.4367  0.3375
    1SOL     OW  565   0.707   3.887   0.884 -0.5017  0.1089 -0.4445
    1SOL    HW2  566   0.623   3.915   0.848 -0.9508  0.6781  1.0240
    1SOL    HW3  567   0.714   3.795   0.858 -1.6843 -0.0027 -0.4110
    1SOL    MW4  568   0.697   3.878   0.876 -0.7170  0.1693 -0.2464
    1SOL     OW  569   1.115   3.701   0.501  0.2058  0.3028 -0.4423
    1SOL    HW2  570   1.102   3.693   0.595  1.1522 -0.7926 -0.3998
    1SOL    HW3  571   1.182   3.768   0.492  1.1918 -0.6543 -0.2683
    1SOL    MW4  572   1.122   3.709   0.512  0.4606  0.0317 -0.4137
    1SOL     OW  573   0.934   1.703   0.751 -0.4138 -0.2790  0.1415
    1SOL    HW2  574   0.945   1.793   0.780  0.0607 -0.5098  0.6963
    1SOL    HW3  575   1.011   1.657   0.785 -0.6730 -0.9009 -0.0980
    1SOL    MW4  576   0.945   1.709   0.759 -0.3854 -0.3916  0.1831
    1SOL     OW  577   0.220   0.986   0.582 -0.1172  0.4573  0.0983
    1SOL    HW2  578   0.234   1.011   0.491 -0.6699  0.1218 -0.0829
    1SOL    HW3  579   0.226   1.067   0.631  1.2640  0.4967 -0.1073
    1SOL    MW4  580   0.223   1.000   0.577 -0.0079  0.4183  0.0472
    1SOL     OW  581   0.660   4.664   0.891 -0.6917 -0.2072 -0.0203
    1SOL    HW2  582   0.650   4.667   0.986 -1.7892  0.6884 -0.1600
    1SOL    HW3  583   0.709   4.583   0.875  0.1272 -0.0030  1.3544
    1SOL    MW4  584   0.665   4.654   0.901 -0.7284 -0.0620  0.1426
    1SOL     OW  585   0.220   3.588   0.792  0.2628  0.1190 -0.1642
    1SOL    HW2  586   0.230   3.682   0.806 -0.9010  0.6442 -2.5444
    1SOL    HW3  587   0.300   3.550   0.828  1.7108  2.2414 -1.0315
    1SOL    MW4  588   0.232   3.595   0.798  0.3003  0.4687 -0.5926
    1SOL     OW  589   4.487   3.269   0.470  0.1091  0.2147 -0.3531
    1SOL    HW2  590   4.566   3.321   0.484 -0.3537  0.7969  0.1179
    1SOL    HW3  591   4.511   3.207   0.401  0.6281  1.1309 -0.9968
    1SOL    MW4  592   4.500   3.267   0.463  0.1163  0.4125 -0.3759
    1SOL     OW  593   2.793   0.893   0.454  0.1022  0.0153  0.1841
    1SOL    HW2  594   2.759   0.885   0.543  0.2572  0.9415  0.3392
    1SOL    HW3  595   2.855   0.821   0.445  1.4013  0.9571  1.4418
    1SOL    MW4  596   2.797   0.883   0.465  0.2940  0.2617  0.3705
    1SOL     OW  597   3.856   3.512   0.297 -0.6289 -0.8314  0.0781
    1SOL    HW2  598   3.804   3.438   0.265 -0.4339 -1.9014  2.1580
    1SOL    HW3  599   3.809   3.542   0.374 -0.0241  0.4335 -0.0362
    1SOL    MW4  600   3.843   3.506   0.303 -0.5231 -0.8056  0.3374
    1SOL     OW  601   2.691   1.909   0.798  0.0057  0.0412 -0.0847
    1SOL    HW2  602   2.605   1.945   0.777  0.7226  3.2203  2.1324
    1SOL    HW3  603   2.692   1.904   0.893  2.0048 -0.7282 -0.1311
    1SOL    MW4  604   2.679   1.913   0.807  0.3641  0.3589  0.2017
    1SOL     OW  605   1.315   4.229   0.793  0.6237  0.3344 -0.2416
    1SOL    HW2  606   1.258   4.304   0.775  0.0844  0.1070  0.4915
    1SOL    HW3  607   1.402   4.259   0.767  0.2989  0.9556 -0.6482
    1SOL    MW4  608   1.319   4.243   0.787  0.5096  0.3862 -0.1985
    1SOL     OW  609   2.436   3.562   0.480 -0.7959  0.2083 -0.4878
    1SOL    HW2  610   2.381   3.484   0.468 -0.3177 -0.2409  0.2584
    1SOL    HW3  611   2.513   3.546   0.426 -1.1104  0.5759 -1.0586
    1SOL    MW4  612   2.439   3.550   0.471 -0.7741  0.1979 -0.4647
    1SOL     OW  613   2.865   4.652   0.862 -0.0763  0.1515  0.1636
    1SOL    HW2  614   2.950   4.691   0.842 -0.1031  0.5444  0.8137
    1SOL    HW3  615   2.804   4.694   0.802  0.2148 -0.2689 -0.4358
    1SOL    MW4  616   2.868   4.663   0.851 -0.0415  0.1478  0.1703
    1SOL     OW  617   2.842   3.701   0.498  0.2109 -0.3094  0.3032
    1SOL    HW2  618   2.837   3.794   0.516  2.0185 -0.3216  0.9403
    1SOL    HW3  619   2.862   3.660   0.582 -0.1687 -1.2335 -0.0408
    1SOL    MW4  620   2.844   3.708   0.511  0.3994 -0.4330  0.3420
    1SOL     OW  621   2.440   3.858   0.840  0.0535  0.5250 -0.2033
    1SOL    HW2  622   2.362   3.897   0.802 -1.5984 -1.0219  1.5021
    1SOL    HW3  623   2.440   3.768   0.809  1.3123  0.5826 -0.3917
    1SOL    MW4  624   2.430   3.851   0.831  0.0017  0.3285 -0.0032
    1SOL     OW  625   2.724   2.748   0.397 -0.0624 -0.1739  0.5817
    1SOL    HW2  626   2.648   2.805   0.406 -0.9361 -1.4591  1.4492
    1SOL    HW3  627   2.722   2.720   0.305 -0.7591 -0.3684  0.6552
    1SOL    MW4  628   2.714   2.752   0.386 -0.2699 -0.3691  0.7058
    1SOL     OW  629   0.760   1.536   0.364 -0.2851  0.0797  0.6143
    1SOL    HW2  630   0.696   1.553   0.295 -0.5425  0.0944  0.8534
    1SOL    HW3  631   0.735   1.450   0.399  0.0974 -0.1106  0.4091
    1SOL    MW4  632   0.748   1.527   0.360 -0.2686  0.0565  0.6188
    1SOL     OW  633   4.269   1.046   0.485 -0.0815 -0.3049 -0.0940
    1SOL    HW2  634   4.279   1.102   0.562 -1.1067  0.0575 -0.2186
    1SOL    HW3  635   4.341   0.984   0.491  0.8560  0.7998  0.2484
    1SOL    MW4  636   4.280   1.046   0.496 -0.0930 -0.1113 -0.0653
    1SOL     OW  637   4.227   2.924   0.453  0.2335 -0.5447  0.2096
    1SOL    HW2  638   4.186   2.849   0.408 -0.1522 -0.8022  0.9855
    1SOL    HW3  639   4.243   2.893   0.542  1.5440 -0.2334  0.1008
    1SOL    MW4  640   4.224   2.910   0.459  0.3552 -0.5376  0.2976
    1SOL     OW  641   4.056   1.815   0.454 -0.0307  0.6710 -0.3471
    1SOL    HW2  642   3.982   1.778   0.406 -0.6373  1.3690  0.0168
    1SOL    HW3  643   4.052   1.772   0.540 -0.3202  1.0606 -0.1603
    1SOL    MW4  644   4.046   1.804   0.459 -0.1493  0.8143 -0.2744
    1SOL     OW  645   2.633   0.121   0.736  0.3045 -0.1738  0.0837
    1SOL    HW2  646   2.648   0.202   0.784  0.8623  0.1062 -0.5634
    1SOL    HW3  647   2.559   0.080   0.782  0.7417  0.1503  1.0920
    1SOL    MW4  648   2.625   0.126   0.749  0.4358 -0.0941  0.1314
    1SOL     OW  649   3.407   1.477   0.307  0.3161  0.0850 -0.3220
    1SOL    HW2  650   3.333   1.536   0.322 -0.6952 -0.8248 -1.6384
    1SOL    HW3  651   3.374   1.390   0.333  1.0862 -0.2487 -0.4532
    1SOL    MW4  652   3.393   1.473   0.313  0.2842 -0.0790 -0.5130
    1SOL     OW  653   1.379   1.944   0.838  0.0890  0.1523  0.0455
    1SOL    HW2  654   1.361   1.853   0.812  0.5825  0.4694 -1.4554
    1SOL    HW3  655   1.369   1.944   0.933 -0.7645 -1.2859 -0.0255
    1SOL    MW4  656   1.375   1.932   0.847  0.0415  0.0045 -0.1619
    1SOL     OW  657   0.474   1.886   0.872  0.2334 -0.3738 -0.1326
    1SOL    HW2  658   0.543   1.948   0.849 -0.9120  1.3557  0.9880
    1SOL    HW3  659   0.472   1.886   0.968  0.6663 -2.6697 -0.0917
    1SOL    MW4  660   0.483   1.894   0.882  0.1394 -0.4486  0.0207
    1SOL     OW  661   4.351   4.112   0.431  0.0097 -0.3868  0.1197
    1SOL    HW2  662   4.418   4.066   0.481  0.3404 -0.8523 -0.7516
    1SOL    HW3  663   4.313   4.046   0.374 -0.3356  0.1510 -0.2844
    1SOL    MW4  664   4.355   4.098   0.430  0.0081 -0.3772 -0.0486
    1SOL     OW  665   0.903   3.222   0.721  0.0732 -0.0985 -0.2148
    1SOL    HW2  666   0.890   3.250   0.631 -0.3701  0.5231  0.0369
    1SOL    HW3  667   0.830   3.162   0.738  0.5193 -0.7135 -0.4727
    1SOL    MW4  668   0.891   3.218   0.712  0.0736 -0.0978 -0.2156
    1SOL     OW  669   1.721   3.478   0.284  0.0848  0.2083  0.4017
    1SOL    HW2  670   1.679   3.395   0.307  0.6566 -0.1759  0.0649
    1SOL    HW3  671   1.814   3.462   0.295  0.2324  0.6452 -0.1951
    1SOL    MW4  672   1.728   3.465   0.289  0.1798  0.2151  0.2785
    1SOL     OW  673   2.928   3.845   0.849 -0.2847  0.2645 -0.0077
    1SOL    HW2  674   2.839   3.874   0.825  0.1393  0.8608 -0.8758
    1SOL    HW3  675   2.929   3.850   0.945 -0.5951  2.0542 -0.0815
    1SOL    MW4  676   2.916   3.850   0.859 -0.2699  0.5791 -0.1319
    1SOL     OW  677   0.958   0.817   0.443  0.1312 -0.4312  0.1839
    1SOL    HW2  678   0.939   0.730   0.406  0.2755 -0.2977 -0.2108
    1SOL    HW3  679   1.051   0.831   0.424 -0.1983  0.3680 -0.9287
    1SOL    MW4  680   0.968   0.807   0.435  0.1068 -0.3082 -0.0150
    1SOL     OW  681   1.574   3.585   0.711  0.2893  0.1199  0.5034
    1SOL    HW2  682   1.647   3.528   0.733  0.3679  0.1644  0.3599
    1SOL    HW3  683   1.567   3.579   0.615 -1.4435 -1.8137  0.7091
    1SOL    MW4  684   1.583   3.577   0.701  0.0709 -0.1292  0.5116
    1SOL     OW  685   2.367   4.542   0.492  0.5512  0.4348  0.0871
    1SOL    HW2  686   2.333   4.460   0.455  0.1162 -0.1462  1.7194
    1SOL    HW3  687   2.296   4.604   0.484 -0.1789 -0.1885  1.5517
    1SOL    MW4  688   2.353   4.539   0.486  0.3974  0.2761  0.4957
    1SOL     OW  689   0.508   0.124   0.327 -0.2365  0.0687  0.3275
    1SOL    HW2  690   0.500   0.214   0.359  1.0359 -0.1236  1.2296
    1SOL    HW3  691   0.426   0.082   0.351  0.3264  0.1840  2.5830
    1SOL    MW4  692   0.496   0.130   0.334  0.0057  0.0585  0.7441
    1SOL     OW  693   4.089   4.502   0.464  0.0051 -0.2328  0.1308
    1SOL    HW2  694   4.091   4.580   0.407  0.7662  0.2648  0.8217
    1SOL    HW3  695   4.180   4.490   0.490 -0.1165 -1.3667  0.0283
    1SOL    MW4  696   4.101   4.511   0.460  0.0892 -0.3166  0.2084
    1SOL     OW  697   2.459   2.296   0.828 -0.0889 -0.2157 -0.2309
    1SOL    HW2  698   2.537   2.330   0.785 -0.8448  1.0798 -0.6077
    1SOL    HW3  699   2.387   2.350   0.795 -0.9483 -0.4276  1.2068
    1SOL    MW4  700   2.460   2.308   0.818 -0.3021 -0.0727 -0.0909
    1SOL     OW  701   4.042   3.714   0.504 -0.2753 -0.4144  0.0219
    1SOL    HW2  702   4.097   3.674   0.572 -0.2965 -1.5857 -0.6501
    1SOL    HW3  703   4.078   3.682   0.422 -1.1013 -0.0729 -0.4756
    1SOL    MW4  704   4.054   3.705   0.502 -0.3872 -0.5238 -0.1324
    1SOL     OW  705   3.150   1.902   0.870 -0.0806  0.2072 -0.0407
    1SOL    HW2  706   3.153   1.899   0.965  0.0632  0.7342 -0.0228
    1SOL    HW3  707   3.213   1.971   0.847  1.3467 -1.2508 -0.6028
    1SOL    MW4  708   3.159   1.911   0.879  0.1268  0.0843 -0.1125
    1SOL     OW  709   2.691   3.491   0.375 -0.0966  0.1656  0.1696
    1SOL    HW2  710   2.740   3.417   0.410  0.4779  0.6330  0.3643
    1SOL    HW3  711   2.726   3.567   0.422 -0.5839  0.5748 -0.1280
    1SOL    MW4  712   2.702   3.491   0.386 -0.0851  0.2813  0.1560
    1SOL     OW  713   1.361   4.236   0.212 -0.2107 -0.2220 -0.2250
    1SOL    HW2  714   1.356   4.328   0.237  0.6702 -0.2786  0.1825
    1SOL    HW3  715   1.278   4.199   0.240  0.7781 -0.3063  2.7324
    1SOL    MW4  716   1.349   4.243   0.219  0.0360 -0.2408  0.2190
    1SOL     OW  717   3.176   2.688   0.867 -0.0840 -0.4682  0.5285
    1SOL    HW2  718   3.201   2.600   0.839  1.0046 -0.6638  2.0546
    1SOL    HW3  719   3.241   2.746   0.827  0.5619 -0.5974  1.3712
    1SOL    MW4  720   3.188   2.684   0.858  0.1447 -0.5112  0.8410
    1SOL     OW  721   2.669   0.372   0.846  0.9034  0.1384 -0.3580
    1SOL    HW2  722   2.675   0.365   0.942  0.5970 -0.3011 -0.3682
    1SOL    HW3  723   2.749   0.417   0.820  2.1827 -1.9482 -0.1320
    1SOL    MW4  724   2.680   0.377   0.856  1.0319 -0.1948 -0.3296
    1SOL     OW  725   3.201   2.433   0.745 -0.2036  0.0772  0.0718
    1SOL    HW2  726   3.283   2.400   0.782 -0.3996 -1.8309 -1.1271
    1SOL    HW3  727   3.133   2.380   0.786 -0.7049  0.4218 -0.3059
    1SOL    MW4  728   3.203   2.422   0.755 -0.2954 -0.1292 -0.1363
    1SOL     OW  729   1.772   2.343   0.257  0.0084  0.3166 -0.1827
    1SOL    HW2  730   1.822   2.386   0.188  1.4140 -0.2439  0.4485
    1SOL    HW3  731   1.785   2.399   0.334  0.6709 -0.4515  0.2802
    1SOL    MW4  732   1.780   2.356   0.258  0.2813  0.1409 -0.0384
    1SOL     OW  733   0.621   3.647   0.517  0.5245  0.2357 -0.6034
    1SOL    HW2  734   0.568   3.725   0.530  0.2470 -0.3167  1.8683
    1SOL    HW3  735   0.706   3.679   0.489  0.5607  1.4741  0.8680
    1SOL    MW4  736   0.625   3.661   0.515  0.4928  0.3262 -0.0832
    1SOL     OW  737   1.758   2.722   0.870 -0.0181 -0.2331 -0.0916
    1SOL    HW2  738   1.689   2.772   0.825  0.7820  1.3135  0.3745
    1SOL    HW3  739   1.839   2.751   0.830  0.6532  0.6236  1.8037
    1SOL    MW4  740   1.759   2.733   0.859  0.1760  0.0839  0.2200
    1SOL     OW  741   2.449   3.587   0.759 -0.3266 -0.0734 -0.5400
    1SOL    HW2  742   2.455   3.565   0.666 -0.8627  0.2331 -0.6461
    1SOL    HW3  743   2.525   3.543   0.799  1.1954  1.6404 -1.4696
    1SOL    MW4  744   2.460   3.579   0.752 -0.1965  0.1931 -0.6767
    1SOL     OW  745   2.692   3.204   0.777 -0.2704 -0.4553  0.1947
    1SOL    HW2  746   2.694   3.205   0.681  0.0644  0.4119  0.2028
    1SOL    HW3  747   2.688   3.296   0.802  0.6677 -0.6237  1.0284
    1SOL    MW4  748   2.692   3.216   0.768 -0.1025 -0.3633  0.3058
    1SOL     OW  749   2.655   4.254   0.812  0.4252  0.1618 -0.1794
    1SOL    HW2  750   2.641   4.248   0.906  1.4029  0.8377  0.0108
    1SOL    HW3  751   2.585   4.311   0.781 -0.7397 -1.1810 -0.0724
    1SOL    MW4  752   2.644   4.261   0.820  0.4003  0.0734 -0.1402
    1SOL     OW  753   0.065   3.930   0.546 -0.0716  0.1296  0.1821
    1SOL    HW2  754   0.054   3.954   0.638  0.6408 -1.8651  0.8195
    1SOL    HW3  755   0.133   3.988   0.514  0.0410  0.4934  1.0581
    1SOL    MW4  756   0.072   3.941   0.554  0.0373 -0.0858  0.3817
    1SOL     OW  757   1.570   4.350   0.738 -0.1037  0.0461 -0.5425
    1SOL    HW2  758   1.570   4.382   0.648 -0.5669 -1.1608 -0.9901
    1SOL    HW3  759   1.657   4.313   0.751 -0.5284 -1.1827 -1.0371
    1SOL    MW4  760   1.581   4.349   0.728 -0.2209 -0.2751 -0.6668
    1SOL     OW  761   0.986   1.910   0.399  0.4795  0.0789  0.0573
    1SOL    HW2  762   1.043   1.977   0.436 -0.0393  0.8406 -0.4952
    1SOL    HW3  763   1.021   1.827   0.431  0.3505  0.6921  1.8207
    1SOL    MW4  764   0.998   1.908   0.408  0.3940  0.2601  0.2170
    1SOL     OW  765   2.058   2.859   0.486  0.4989 -0.4014  0.0429
    1SOL    HW2  766   1.993   2.911   0.438  1.1040  1.1061  0.8336
    1SOL    HW3  767   2.139   2.909   0.478  0.5024  0.1273  3.0665
    1SOL    MW4  768   2.060   2.872   0.478  0.5794 -0.1326  0.5462
    1SOL     OW  769   0.836   3.283   0.462  0.3691  0.4659  0.1221
    1SOL    HW2  770   0.888   3.317   0.390 -0.4780 -0.3458 -0.8895
    1SOL    HW3  771   0.746   3.309   0.441  0.1258  0.3083  0.9386
    1SOL    MW4  772   0.831   3.291   0.450  0.2252  0.3381  0.0963
    1SOL     OW  773   1.863   2.963   0.316 -0.0857  0.1406  0.4091
    1SOL    HW2  774   1.804   2.901   0.359  0.2437  0.1160  0.8314
    1SOL    HW3  775   1.810   3.002   0.247 -0.3023 -0.6011  0.1471
    1SOL    MW4  776   1.848   2.960   0.312 -0.0707  0.0396  0.4302
    1SOL     OW  777   3.554   3.121   0.464  0.4398  0.2681 -0.5284
    1SOL    HW2  778   3.629   3.065   0.444  1.1017  1.2234 -0.7066
    1SOL    HW3  779   3.485   3.059   0.489  1.0859 -0.6481 -0.9774
    1SOL    MW4  780   3.555   3.105   0.465  0.6123  0.2732 -0.6111
    1SOL     OW  781   1.353   4.472   0.381 -0.1525  0.2042 -0.1907
    1SOL    HW2  782   1.260   4.458   0.403 -0.3496  0.6031 -0.7469
    1SOL    HW3  783   1.369   4.564   0.405  0.0623  0.1701 -0.2119
    1SOL    MW4  784   1.343   4.483   0.387 -0.1502  0.2527 -0.2669
    1SOL     OW  785   0.810   3.540   0.199  0.0778 -0.3560 -0.1749
    1SOL    HW2  786   0.831   3.630   0.225  0.3931 -0.4961  0.0554
    1SOL    HW3  787   0.723   3.524   0.235  0.2012 -0.2921  0.1463
    1SOL    MW4  788   0.801   3.550   0.207  0.1357 -0.3660 -0.1021
    1SOL     OW  789   4.219   0.162   0.719  0.0776  0.0754  0.1155
    1SOL    HW2  790   4.145   0.102   0.710  1.0774 -1.4733  1.9641
    1SOL    HW3  791   4.184   0.236   0.770 -0.1571 -0.7706  1.2016
    1SOL    MW4  792   4.205   0.164   0.725  0.1788 -0.2406  0.5026
    1SOL     OW  793   4.473   2.991   0.284  0.2735 -0.1619  0.2122
    1SOL    HW2  794   4.401   2.964   0.341 -0.4800  0.3719 -0.4725
    1SOL    HW3  795   4.448   2.959   0.198 -0.1927  1.8979 -0.4452
    1SOL    MW4  796   4.460   2.983   0.280  0.1125  0.1805  0.0352
    1SOL     OW  797   2.155   0.600   0.166  0.3105 -0.3024 -0.3129
    1SOL    HW2  798   2.064   0.628   0.174  0.6752  0.7126  0.4558
    1SOL    HW3  799   2.150   0.506   0.146 -0.9078 -0.0284 -1.3537
    1SOL    MW4  800   2.143   0.591   0.165  0.1979 -0.1323 -0.3488
    1SOL     OW  801   0.780   0.412   0.521 -0.0441 -0.3760  0.0301
    1SOL    HW2  802   0.756   0.472   0.592 -1.9922  0.1198 -1.0031
    1SOL    HW3  803   0.827   0.468   0.459 -1.2432 -0.0228 -0.5973
    1SOL    MW4  804   0.783   0.428   0.522 -0.4593 -0.2640 -0.1890
    1SOL     OW  805   2.206   0.401   0.858  0.5440  0.2537 -0.0425
    1SOL    HW2  806   2.205   0.309   0.833  0.6844  0.1795  0.2218
    1SOL    HW3  807   2.127   0.438   0.819  0.6904  0.1089 -0.4753
    1SOL    MW4  808   2.195   0.394   0.850  0.5820  0.2248 -0.0648
    1SOL     OW  809   3.346   4.354   0.803  0.6169 -0.2738  0.4691
    1SOL    HW2  810   3.337   4.441   0.843  0.0331  0.0181 -0.2880
    1SOL    HW3  811   3.259   4.315   0.814  0.7358 -0.5642  0.3538
    1SOL    MW4  812   3.333   4.361   0.810  0.5553 -0.2732  0.3541
    1SOL     OW  813   3.596   4.237   0.832  0.0620 -0.1476 -0.3306
    1SOL    HW2  814   3.508   4.272   0.818 -0.8343 -1.3523  1.9439
    1SOL    HW3  815   3.595   4.152   0.787  0.1709 -0.0196 -0.5749
    1SOL    MW4  816   3.584   4.230   0.824 -0.0420 -0.2899 -0.0627
    1SOL     OW  817   0.685   4.246   0.523  0.4008  0.1586 -0.6374
    1SOL    HW2  818   0.684   4.294   0.606  0.0050 -0.8046 -0.0847
    1SOL    HW3  819   0.727   4.306   0.462  2.2417  0.2437  0.6565
    1SOL    MW4  820   0.691   4.260   0.526  0.5915  0.0424 -0.3937
    1SOL     OW  821   2.422   2.640   0.325 -0.1278  0.2806 -0.3122
    1SOL    HW2  822   2.471   2.579   0.380  0.5237  0.7235 -0.4004
    1SOL    HW3  823   2.347   2.589   0.293  0.0429 -0.2709  0.1646
    1SOL    MW4  824   2.419   2.625   0.328 -0.0193  0.2666 -0.2609
    1SOL     OW  825   3.391   0.480   0.797 -0.3529 -0.2168  0.1310
    1SOL    HW2  826   3.380   0.466   0.703 -0.1710 -0.6606  0.1755
    1SOL    HW3  827   3.474   0.436   0.818  0.1310  0.7615  0.3014
    1SOL    MW4  828   3.401   0.472   0.787 -0.2651 -0.1463  0.1594
    1SOL     OW  829   0.732   2.549   0.537 -0.0969  0.1000  0.0991
    1SOL    HW2  830   0.701   2.638   0.524 -0.3352  0.2406  1.5939
    1SOL    HW3  831   0.656   2.494   0.518 -0.3848  0.2929  0.6907
    1SOL    MW4  832   0.718   2.553   0.533 -0.1664  0.1440  0.3744
    1SOL     OW  833   0.146   4.387   0.380  0.3172 -0.2986  0.2574
    1SOL    HW2  834   0.068   4.401   0.433  0.9029 -0.7876  1.2755
    1SOL    HW3  835   0.114   4.381   0.291 -0.7990 -0.3808  0.6565
    1SOL    MW4  836   0.131   4.388   0.376  0.2472 -0.3743  0.4444
    1SOL     OW  837   0.501   0.858   0.472  0.2592 -0.0694  0.0156
    1SOL    HW2  838   0.444   0.907   0.413  0.4879 -0.5117 -0.5793
    1SOL    HW3  839   0.473   0.884   0.559  0.3330  1.0790 -0.2903
    1SOL    MW4  840   0.490   0.868   0.476  0.2991  0.0238 -0.1033
    1SOL     OW  841   1.984   3.574   0.722  0.4062  0.1113 -0.5016
    1SOL    HW2  842   2.063   3.533   0.758 -0.2440 -0.1720  0.6041
    1SOL    HW3  843   1.912   3.517   0.750 -0.3674  1.2738 -0.1082
    1SOL    MW4  844   1.985   3.561   0.730  0.2184  0.2272 -0.3037
    1SOL     OW  845   4.081   0.357   0.873  0.1079  0.1679 -0.4637
    1SOL    HW2  846   4.144   0.427   0.855  0.4536 -0.4072 -1.5471
    1SOL    HW3  847   4.001   0.386   0.829 -0.1925  0.5788  0.3434
    1SOL    MW4  848   4.079   0.370   0.865  0.1135  0.1462 -0.5002
    1SOL     OW  849   2.972   1.716   0.510 -0.2619  0.0772  0.1530
    1SOL    HW2  850   2.955   1.810   0.497  1.6028  0.2861 -0.8444
    1SOL    HW3  851   2.893   1.673   0.478 -0.4166  1.2206 -1.0171
    1SOL    MW4  852   2.959   1.723   0.504 -0.0362  0.2557 -0.1329
    1SOL     OW  853   1.195   3.007   0.391  0.0631  0.2252  0.0006
    1SOL    HW2  854   1.140   3.039   0.320 -1.6221  1.6536  1.9063
    1SOL    HW3  855   1.223   3.086   0.438 -0.1095 -0.7610  1.8165
    1SOL    MW4  856   1.192   3.022   0.388 -0.1820  0.2835  0.4916
    1SOL     OW  857   1.027   2.590   0.506  0.2393  0.1401 -0.6228
    1SOL    HW2  858   0.948   2.558   0.462  0.5039  1.6236 -2.2214
    1SOL    HW3  859   1.001   2.674   0.543  0.9528  0.4599 -0.8394
    1SOL    MW4  860   1.013   2.597   0.505  0.3684  0.3777 -0.8623
    1SOL     OW  861   1.764   4.235   0.332  0.5003  0.1846  0.8420
    1SOL    HW2  862   1.689   4.254   0.387 -0.3227 -1.1739  0.2192
    1SOL    HW3  863   1.727   4.208   0.248  1.6478 -0.9126  0.6534
    1SOL    MW4  864   1.749   4.234   0.328  0.5431 -0.1392  0.7350
    1SOL     OW  865   3.358   1.175   0.416  0.2756  1.0335  0.4244
    1SOL    HW2  866   3.267   1.164   0.389  0.8256 -0.5827 -0.8524
    1SOL    HW3  867   3.353   1.215   0.503 -1.6823 -0.5747  1.0796
    1SOL    MW4  868   3.345   1.179   0.424  0.0899  0.6080  0.3424
    1SOL     OW  869   0.746   2.317   0.815 -0.6625  0.3086 -0.4941
    1SOL    HW2  870   0.739   2.314   0.910  1.3379  0.7877 -0.3007
    1SOL    HW3  871   0.667   2.362   0.786 -0.8210  1.0414  1.0203
    1SOL    MW4  872   0.735   2.323   0.823 -0.4195  0.4685 -0.2688
    1SOL     OW  873   0.186   3.463   0.546 -0.1103 -0.1712  0.5820
    1SOL    HW2  874   0.129   3.533   0.515  0.6008 -0.1319 -0.6637
    1SOL    HW3  875   0.207   3.487   0.636 -0.8542  0.5827  0.5543
    1SOL    MW4  876   0.182   3.475   0.554 -0.1146 -0.0665  0.4140
    1SOL     OW  877   3.375   2.833   0.744 -0.0501 -0.0160 -0.2198
    1SOL    HW2  878   3.382   2.921   0.780 -1.1689 -0.2414  0.5868
    1SOL    HW3  879   3.452   2.787   0.778  0.0050  0.3770  0.1909
    1SOL    MW4  880   3.386   2.838   0.753 -0.1905  0.0064 -0.0592
    1SOL     OW  881   0.452   2.693   0.887 -0.3071 -0.2645 -0.2156
    1SOL    HW2  882   0.519   2.739   0.837 -1.4658  1.1111 -0.5179
    1SOL    HW3  883   0.462   2.601   0.860  0.9908  0.0183 -0.7664
    1SOL    MW4  884   0.462   2.687   0.876 -0.2887 -0.0455 -0.3282
    1SOL     OW  885   2.965   0.679   0.364 -0.4229  0.2598  0.2666
    1SOL    HW2  886   3.048   0.724   0.379 -0.0665  0.0077 -0.8749
    1SOL    HW3  887   2.990   0.590   0.339 -1.0145  0.2577 -0.3485
    1SOL    MW4  888   2.980   0.673   0.362 -0.4542  0.2263  0.0349
    1SOL     OW  889   2.189   4.040   0.761  0.0732  0.0461  0.1686
    1SOL    HW2  890   2.174   4.055   0.668  0.0165 -1.7897 -0.1426
    1SOL    HW3  891   2.115   3.986   0.789  0.2191  0.3785  1.2189
    1SOL    MW4  892   2.177   4.035   0.752  0.0851 -0.1521  0.2661
    1SOL     OW  893   1.329   3.949   0.740 -0.4321 -0.7955  0.4214
    1SOL    HW2  894   1.253   3.924   0.792  0.5620  0.6951  2.6486
    1SOL    HW3  895   1.335   4.044   0.750  1.8539 -0.9206  0.4732
    1SOL    MW4  896   1.320   3.958   0.748  0.0007 -0.6154  0.7221
    1SOL     OW  897   4.031   0.907   0.450 -0.4108 -0.7028 -0.1826
    1SOL    HW2  898   4.117   0.947   0.439 -0.4114 -1.2755 -2.4014
    1SOL    HW3  899   3.969   0.978   0.431 -0.4707 -0.1528  1.9054
    1SOL    MW4  900   4.034   0.922   0.446 -0.4187 -0.7057 -0.1999
    1SOL     OW  901   0.051   1.916   0.890  0.1038  0.1883 -0.3592
    1SOL    HW2  902   0.134   1.949   0.857 -0.1435  0.5085 -0.6484
    1SOL    HW3  903   0.050   1.824   0.864  1.3604 -0.4018  1.5235
    1SOL    MW4  904   0.062   1.908   0.882  0.2370  0.1528 -0.1489
    1SOL     OW  905   0.024   1.168   0.844  0.2812  0.1793  0.0515
    1SOL    HW2  906   0.034   1.175   0.939  1.4139  0.0584 -0.0510
    1SOL    HW3  907   0.015   1.074   0.827 -1.2818  0.2980  0.1575
    1SOL    MW4  908   0.024   1.157   0.854  0.2244  0.1791  0.0520
    1SOL     OW  909   2.772   3.242   0.494  0.0145 -0.4590 -0.4652
    1SOL    HW2  910   2.867   3.234   0.481 -0.1142 -0.1774 -1.6161
    1SOL    HW3  911   2.734   3.190   0.423 -0.7211  1.7353 -1.7438
    1SOL    MW4  912   2.780   3.234   0.483 -0.0997 -0.1323 -0.7857
    1SOL     OW  913   1.906   2.464   0.054  0.1516 -0.3513  0.4192
    1SOL    HW2  914   1.914   2.559   0.049  0.8066 -0.3227  1.8877
    1SOL    HW3  915   1.978   2.431   0.000  0.6680 -0.0243  0.9121
    1SOL    MW4  916   1.917   2.472   0.046  0.3061 -0.3042  0.6780
    1SOL     OW  917   3.142   1.103   0.815 -0.3793  0.1111  0.6950
    1SOL    HW2  918   3.227   1.134   0.784 -0.4064 -0.3423  0.1663
    1SOL    HW3  919   3.149   1.106   0.910  0.0730  0.4954  0.6532
    1SOL    MW4  920   3.154   1.108   0.823 -0.3231  0.1019  0.6197
    1SOL     OW  921   2.284   3.055   0.491  0.3356 -0.4219  0.1870
    1SOL    HW2  922   2.359   2.998   0.475  0.7833 -0.5016  2.3917
    1SOL    HW3  923   2.296   3.086   0.581 -0.8119  1.7902 -0.3843
    1SOL    MW4  924   2.296   3.051   0.501  0.2434 -0.1409  0.4025
    1SOL     OW  925   1.313   0.838   0.714  0.6772 -0.3789  0.3891
    1SOL    HW2  926   1.328   0.927   0.748  0.3004 -0.0484 -0.2889
    1SOL    HW3  927   1.240   0.805   0.766  0.0161  0.1747 -0.1685
    1SOL    MW4  928   1.305   0.846   0.725  0.5403 -0.2623  0.2261
    1SOL     OW  929   3.774   0.461   0.500  0.4649 -0.1888  0.1484
    1SOL    HW2  930   3.699   0.516   0.476 -0.1018 -1.2291 -0.5284
    1SOL    HW3  931   3.850   0.519   0.491 -0.2674  0.9359  1.0410
    1SOL    MW4  932   3.774   0.476   0.495  0.2935 -0.1777  0.1769
    1SOL     OW  933   4.032   2.388   0.715  0.0608 -0.2039 -0.1164
    1SOL    HW2  934   4.103   2.328   0.737 -0.1440 -1.0228 -1.6640
    1SOL    HW3  935   3.963   2.367   0.778  0.7917 -0.0983  0.7362
    1SOL    MW4  936   4.032   2.377   0.726  0.1302 -0.2983 -0.2081
    1SOL     OW  937   1.705   1.616   0.488  0.4416 -0.8418  0.2577
    1SOL    HW2  938   1.783   1.588   0.440  0.8562  0.2713  0.2778
    1SOL    HW3  939   1.739   1.650   0.571 -0.1158 -0.8674  0.4997
    1SOL    MW4  940   1.719   1.617   0.493  0.4228 -0.6983  0.2923
    1SOL     OW  941   1.470   0.886   0.293  0.0685  0.5284  0.1622
    1SOL    HW2  942   1.445   0.870   0.202 -0.4922  0.1806  0.3765
    1SOL    HW3  943   1.392   0.864   0.344  0.8620 -0.7307  0.8474
    1SOL    MW4  944   1.456   0.881   0.288  0.0993  0.3164  0.2808
    1SOL     OW  945   1.681   0.764   0.414  0.5020  0.5250 -0.0375
    1SOL    HW2  946   1.603   0.807   0.378  0.5574  0.2957 -0.4294
    1SOL    HW3  947   1.690   0.802   0.501 -0.4642  0.0431  0.2871
    1SOL    MW4  948   1.672   0.775   0.421  0.3818  0.4312 -0.0464
    1SOL     OW  949   4.268   1.253   0.707 -0.2990 -0.0400  0.3661
    1SOL    HW2  950   4.181   1.227   0.736 -0.6274  1.0369  0.3534
    1SOL    HW3  951   4.326   1.222   0.777 -0.7646 -0.1615  0.7031
    1SOL    MW4  952   4.264   1.246   0.720 -0.4039  0.0861  0.4089
    1SOL     OW  953   0.986   1.595   0.503  0.5930 -0.2475  0.3550
    1SOL    HW2  954   0.910   1.589   0.444  1.5179  0.3743 -0.9149
    1SOL    HW3  955   0.951   1.635   0.583 -0.2152  0.9545 -0.5784
    1SOL    MW4  956   0.971   1.599   0.506  0.6084 -0.0069  0.0643
    1SOL     OW  957   0.606   3.387   0.360  0.0192  0.3380 -0.5515
    1SOL    HW2  958   0.543   3.334   0.408  0.1846  0.0757 -0.6235
    1SOL    HW3  959   0.609   3.470   0.408  0.4677 -0.0587  0.1136
    1SOL    MW4  960   0.598   3.391   0.372  0.1001  0.2513 -0.4732
    1SOL     OW  961   1.645   3.061   0.149  0.5364 -0.0271 -0.1239
    1SOL    HW2  962   1.561   3.016   0.157 -0.6079  2.0001 -0.4680
    1SOL    HW3  963   1.649   3.087   0.057  0.8323  1.2231  0.2367
    1SOL    MW4  964   1.635   3.058   0.138  0.4245  0.4053 -0.1217
    1SOL     OW  965   1.335   2.295   0.353 -0.4120  0.1998  0.1544
    1SOL    HW2  966   1.381   2.340   0.282 -0.9065  0.6699  0.1396
    1SOL    HW3  967   1.400   2.232   0.386  0.2187  0.7934  0.0662
    1SOL    MW4  968   1.350   2.292   0.348 -0.3941  0.3400  0.1408
    1SOL     OW  969   3.588   1.000   0.443 -0.4393 -0.2380 -0.3325
    1SOL    HW2  970   3.575   0.946   0.521  0.6987  0.6014  0.4553
    1SOL    HW3  971   3.514   1.061   0.443  0.4122  0.8253  1.0009
    1SOL    MW4  972   3.577   1.001   0.453 -0.1764  0.0130 -0.0526
    1SOL     OW  973   1.707   1.813   0.183 -0.2688  0.2421 -0.3287
    1SOL    HW2  974   1.617   1.793   0.208 -0.1548 -0.9216 -0.8187
    1SOL    HW3  975   1.726   1.897   0.225 -1.0487 -0.2811  1.0913
    1SOL    MW4  976   1.698   1.821   0.192 -0.3567  0.0197 -0.2060
    1SOL     OW  977   4.215   2.431   0.483  0.3940  0.0529  0.0574
    1SOL    HW2  978   4.181   2.380   0.410 -1.1467 -1.3755  1.7099
    1SOL    HW3  979   4.152   2.417   0.553 -0.2371  4.4344  0.5442
    1SOL    MW4  980   4.202   2.423   0.483  0.1073  0.4427  0.3397
    1SOL     OW  981   3.762   2.965   0.385 -0.2124 -0.0226  0.3168
    1SOL    HW2  982   3.782   2.979   0.292  0.3794  0.1384  0.4672
    1SOL    HW3  983   3.838   2.999   0.431 -1.1919  1.3521  0.9427
    1SOL    MW4  984   3.775   2.971   0.379 -0.2635  0.1800  0.4192
    1SOL     OW  985   1.343   2.723   0.838  0.2011 -0.4291  0.3781
    1SOL    HW2  986   1.363   2.718   0.932  0.6686  0.1642  0.3072
    1SOL    HW3  987   1.253   2.757   0.835  0.5110  0.4273  0.5887
    1SOL    MW4  988   1.333   2.727   0.850  0.3039 -0.2379  0.3965
    1SOL     OW  989   3.604   0.080   0.535  0.2910  0.0374 -0.1203
    1SOL    HW2  990   3.521   0.112   0.499  0.5522  2.2764  1.2029
    1SOL    HW3  991   3.592   0.082   0.630  1.9655  0.7295  0.1034
    1SOL    MW4  992   3.592   0.084   0.543  0.5462  0.4241  0.0837
    1SOL     OW  993   4.037   3.478   0.836  0.0709 -0.0262 -0.2436
    1SOL    HW2  994   4.031   3.386   0.808  0.6161  0.3783 -1.7813
    1SOL    HW3  995   4.060   3.474   0.929 -1.0449 -1.4426 -0.0193
    1SOL    MW4  996   4.039   3.465   0.844 -0.0043 -0.1597 -0.4169
    1SOL     OW  997   0.476   0.436   0.830 -0.3479 -0.0854 -0.0141
    1SOL    HW2  998   0.398   0.477   0.793 -1.0205 -0.5642  0.8501
    1SOL    HW3  999   0.478   0.349   0.791 -0.1488 -0.0121 -0.1678
    1SOL    MW4 1000   0.466   0.430   0.820 -0.4103 -0.1389  0.0796
    1SOL     OW 1001   1.963   4.414   0.431  0.1700  0.0445  0.2977
    1SOL    HW2 1002   1.947   4.501   0.393  1.7032  0.1505 -0.1461
    1SOL    HW3 1003   1.895   4.359   0.395 -1.9298  1.4585  1.9777
    1SOL    MW4 1004   1.952   4.418   0.421  0.0954  0.2451  0.4608
    1SOL     OW 1005   0.018   0.450   0.791  0.6778  0.1386  0.3369
    1SOL    HW2 1006   0.102   0.492   0.769  0.6031  0.8309  1.3393
    1SOL    HW3 1007   0.027   0.426   0.883 -0.0769 -0.1700  0.3295
    1SOL    MW4 1008   0.030   0.453   0.800  0.5683  0.1892  0.4683
    1SOL     OW 1009   1.962   1.719   0.144 -0.3126  0.3276 -0.2100
    1SOL    HW2 1010   1.979   1.693   0.054  0.6347  0.3846 -0.0577
    1SOL    HW3 1011   1.877   1.762   0.141 -1.2919 -1.6152 -0.6802
    1SOL    MW4 1012   1.953   1.721   0.132 -0.3169  0.0788 -0.2519
    1SOL     OW 1013   0.227   0.813   0.881 -0.0421 -0.0866 -0.3379
    1SOL    HW2 1014   0.210   0.791   0.973 -0.4242  0.3744 -0.2949
    1SOL    HW3 1015   0.140   0.829   0.844  0.1682  0.5642 -0.5647
    1SOL    MW4 1016   0.213   0.812   0.889 -0.0648  0.0601 -0.3621
    1SOL     OW 1017   0.355   0.612   0.457 -0.5335  0.3373 -0.1314
    1SOL    HW2 1018   0.427   0.548   0.452 -0.9446 -0.0930 -0.7741
    1SOL    HW3 1019   0.398   0.697   0.451 -0.2792  0.0450 -4.1371
    1SOL    MW4 1020   0.370   0.614   0.455 -0.5541  0.2420 -0.7447
    1SOL     OW 1021   0.579   1.759   0.478  0.4912  0.3775  0.6516
    1SOL    HW2 1022   0.555   1.714   0.559 -2.2957 -0.1046 -0.3771
    1SOL    HW3 1023   0.641   1.700   0.435  0.6388 -0.1789  1.6171
    1SOL    MW4 1024   0.584   1.745   0.483  0.1430  0.2404  0.6433
    1SOL     OW 1025   0.286   1.243   0.733  0.0685 -0.2792  0.1332
    1SOL    HW2 1026   0.357   1.220   0.794  0.0233 -0.1359  0.2414
    1SOL    HW3 1027   0.206   1.221   0.781  0.0329 -0.1707  0.1242
    1SOL    MW4 1028   0.285   1.237   0.748  0.0578 -0.2459  0.1463
    1SOL     OW 1029   0.290   1.492   0.856 -0.1070  0.2803 -0.4311
    1SOL    HW2 1030   0.286   1.417   0.797  0.1538  0.5933 -0.8471
    1SOL    HW3 1031   0.354   1.551   0.816 -0.2193  0.6718 -0.0417
    1SOL    MW4 1032   0.298   1.490   0.843 -0.0874  0.3734 -0.4346
    1SOL     OW 1033   1.079   2.817   0.785 -0.0614 -0.3619 -0.0720
    1SOL    HW2 1034   1.024   2.742   0.807  1.2763 -1.0108  1.2105
    1SOL    HW3 1035   1.053   2.842   0.697 -0.9975 -1.9151 -0.2496
    1SOL    MW4 1036   1.068   2.810   0.777 -0.0085 -0.6523  0.0737
    1SOL     OW 1037   3.922   2.264   0.495  0.1475 -0.1328  0.3920
    1SOL    HW2 1038   3.948   2.298   0.580  1.0465  1.6518 -0.5708
    1SOL    HW3 1039   3.870   2.334   0.456 -0.5052 -1.0513 -0.4163
    1SOL    MW4 1040   3.918   2.278   0.501  0.1800 -0.0184  0.1583
    1SOL     OW 1041   1.084   2.349   0.802  0.5009  0.3468  0.6651
    1SOL    HW2 1042   1.109   2.263   0.768 -0.2999  0.3731 -0.0065
    1SOL    HW3 1043   1.164   2.401   0.798  0.1067  0.7786 -2.5121
    1SOL    MW4 1044   1.098   2.345   0.797  0.3433  0.4072  0.1573
    1SOL     OW 1045   0.602   2.791   0.513 -0.1784  0.0815 -0.4734
    1SOL    HW2 1046   0.509   2.775   0.494 -0.9065  3.0967  0.2329
    1SOL    HW3 1047   0.629   2.856   0.448  1.3333 -0.4421 -0.3910
    1SOL    MW4 1048   0.593   2.797   0.502 -0.0750  0.4098 -0.3693
    1SOL     OW 1049   4.301   2.304   0.832  0.7142  0.3749  0.1515
    1SOL    HW2 1050   4.327   2.215   0.810  1.2246  0.7880 -0.9410
    1SOL    HW3 1051   4.381   2.356   0.823  0.4305  0.9479  0.7994
    1SOL    MW4 1052   4.315   2.299   0.828  0.7439  0.5050  0.0928
    1SOL     OW 1053   4.447   0.907   0.815 -0.0917 -0.1968 -0.5606
    1SOL    HW2 1054   4.449   0.894   0.720 -1.4080 -0.5335 -0.5516
    1SOL    HW3 1055   4.365   0.865   0.843 -0.4215  1.1598  0.5391
    1SOL    MW4 1056   4.437   0.899   0.806 -0.3085 -0.0622 -0.4143
    1SOL     OW 1057   4.083   1.680   0.718 -0.0290  0.3074  0.1043
    1SOL    HW2 1058   4.022   1.614   0.750 -0.4519  0.7514  0.2285
    1SOL    HW3 1059   4.170   1.641   0.730 -0.1172  0.7441  2.4936
    1SOL    MW4 1060   4.087   1.666   0.724 -0.0963  0.4236  0.4359
    1SOL     OW 1061   0.205   3.070   0.851 -0.2720  0.4261 -0.1407
    1SOL    HW2 1062   0.223   3.065   0.945 -0.9826 -0.1425 -0.0331
    1SOL    HW3 1063   0.127   3.124   0.844 -0.4236  0.1745 -0.3856
    1SOL    MW4 1064   0.197   3.077   0.862 -0.3858  0.3176 -0.1588
    1SOL     OW 1065   1.738   1.307   0.275  0.2727 -0.2823 -0.5521
    1SOL    HW2 1066   1.691   1.352   0.345  2.6396  1.4879 -0.0193
    1SOL    HW3 1067   1.780   1.233   0.317  0.4871 -0.0654 -0.3813
    1SOL    MW4 1068   1.737   1.303   0.289  0.6133 -0.0201 -0.4593
    1SOL     OW 1069   0.214   2.523   0.387 -0.0308  0.1554  0.3897
    1SOL    HW2 1070   0.138   2.489   0.435  0.6157 -0.1368  1.2261
    1SOL    HW3 1071   0.217   2.471   0.307 -0.9664  0.4636  0.1414
    1SOL    MW4 1072   0.204   2.512   0.383 -0.0689  0.1576  0.4673
    1SOL     OW 1073   4.484   3.218   0.738  0.7882  0.0331  0.2885
    1SOL    HW2 1074   4.482   3.216   0.642  1.4319  0.0757  0.2709
    1SOL    HW3 1075   4.472   3.311   0.759  1.0160  0.0756  0.2365
    1SOL    MW4 1076   4.483   3.230   0.728  0.9036  0.0446  0.2793
    1SOL     OW 1077   0.472   3.474   0.882 -0.1110 -0.3228 -0.2547
    1SOL    HW2 1078   0.464   3.468   0.978  1.6265 -0.4306 -0.1016
    1SOL    HW3 1079   0.464   3.383   0.852  0.8262 -0.4813 -0.0650
    1SOL    MW4 1080   0.470   3.461   0.891  0.2419 -0.3579 -0.2095
    1SOL     OW 1081   0.333   2.775   0.454 -0.8709 -0.5547 -0.0346
    1SOL    HW2 1082   0.281   2.714   0.403 -2.6033  0.6063  0.3102
    1SOL    HW3 1083   0.285   2.784   0.537  0.0289  0.2916  0.4066
    1SOL    MW4 1084   0.320   2.768   0.458 -0.9807 -0.2897  0.0691
    1SOL     OW 1085   0.503   1.187   0.899 -0.0372  0.2164 -0.2670
    1SOL    HW2 1086   0.494   1.105   0.850 -0.3513  1.1361 -1.7904
    1SOL    HW3 1087   0.583   1.227   0.863 -0.0094  0.6766  0.3057
    1SOL    MW4 1088   0.513   1.182   0.887 -0.0750  0.3985 -0.3924
    1SOL     OW 1089   0.515   0.186   0.726 -0.0259  0.0289  0.5480
    1SOL    HW2 1090   0.422   0.167   0.713 -0.0554  0.6168 -0.1469
    1SOL    HW3 1091   0.548   0.111   0.775 -0.4560 -1.1560 -0.9139
    1SOL    MW4 1092   0.507   0.173   0.731 -0.0865 -0.0498  0.2635
    1SOL     OW 1093   0.428   0.362   1.109  0.2419 -0.0451  0.9174
    1SOL    HW2 1094   0.422   0.387   1.017  0.4184  0.4856  1.0472
    1SOL    HW3 1095   0.349   0.400   1.149  1.9855  2.9324  1.7060
    1SOL    MW4 1096   0.417   0.371   1.102  0.4952  0.4178  1.0384
    1SOL     OW 1097   1.983   2.028   0.738  0.3524 -0.0666  0.0749
    1SOL    HW2 1098   1.989   2.121   0.762  2.2762  0.0954 -0.9495
    1SOL    HW3 1099   1.907   1.996   0.786 -0.2781  2.0188  0.5268
    1SOL    MW4 1100   1.974   2.036   0.747  0.5230  0.2298 -0.0006
    1SOL     OW 1101   3.356   1.229   0.686 -0.0897  0.3478 -0.0266
    1SOL    HW2 1102   3.438   1.215   0.733 -0.9061 -2.4735  0.6696
    1SOL    HW3 1103   3.334   1.321   0.701  2.3263  0.8130  0.7641
    1SOL    MW4 1104   3.364   1.239   0.694  0.1211  0.0370  0.1696
    1SOL     OW 1105   3.505   1.680   0.662 -0.3875  0.1711 -0.8234
    1SOL    HW2 1106   3.450   1.612   0.699  0.0615  0.2456 -0.0266
    1SOL    HW3 1107   3.546   1.639   0.586 -1.0643 -0.0702 -1.0623
    1SOL    MW4 1108   3.503   1.666   0.657 -0.4177  0.1490 -0.7498
    1SOL     OW 1109   0.905   0.110   0.781  0.1802 -0.6091 -0.7251
    1SOL    HW2 1110   0.910   0.109   0.686 -0.7237 -2.3722 -0.7616
    1SOL    HW3 1111   0.814   0.088   0.801 -0.0777  1.4293  0.5353
    1SOL    MW4 1112   0.894   0.107   0.771  0.0269 -0.5728 -0.5636
    1SOL     OW 1113   0.701   2.818   0.764  0.4834  0.0668 -0.7534
    1SOL    HW2 1114   0.695   2.912   0.783  0.9038  0.0833 -0.7076
    1SOL    HW3 1115   0.660   2.808   0.678  0.3943  0.2834 -0.7359
    1SOL    MW4 1116   0.695   2.829   0.755  0.5271  0.0978 -0.7451
    1SOL     OW 1117   1.656   0.490   0.474  0.2021  0.0358  0.4802
    1SOL    HW2 1118   1.649   0.582   0.449 -0.2670  0.0722  0.7614
    1SOL    HW3 1119   1.750   0.477   0.489  0.2167  0.5734  0.8570
    1SOL    MW4 1120   1.668   0.500   0.472  0.1421  0.1115  0.5670
    1SOL     OW 1121   0.411   3.224   0.761 -0.3550 -0.3969 -0.2324
    1SOL    HW2 1122   0.392   3.230   0.668 -0.0267  1.0666 -0.2217
    1SOL    HW3 1123   0.343   3.167   0.797 -0.7216 -0.6234 -1.2900
    1SOL    MW4 1124   0.400   3.217   0.754 -0.3601 -0.2339 -0.3705
    1SOL     OW 1125   0.727   1.292   0.759  0.0162 -0.1463  0.3821
    1SOL    HW2 1126   0.730   1.300   0.663 -0.1144 -2.5149  0.1406
    1SOL    HW3 1127   0.726   1.382   0.791  0.5699  0.6784 -1.8355
    1SOL    MW4 1128   0.727   1.305   0.750  0.0719 -0.3499  0.0577
    1SOL     OW 1129   2.906   1.496   0.839  0.5661 -0.3690 -0.3356
    1SOL    HW2 1130   2.825   1.536   0.807  0.1325 -1.3111 -0.4139
    1SOL    HW3 1131   2.975   1.554   0.805 -0.0758  0.5843 -0.0431
    1SOL    MW4 1132   2.905   1.509   0.830  0.4244 -0.3674 -0.3073
    1SOL     OW 1133   0.055   1.672   0.779  0.1921 -0.0802  0.5727
    1SOL    HW2 1134  -0.027   1.623   0.781 -0.5136  1.1115  0.7887
    1SOL    HW3 1135   0.120   1.611   0.815 -0.3757 -1.4058 -0.6108
    1SOL    MW4 1136   0.053   1.657   0.784  0.0240 -0.0978  0.4451
    1SOL     OW 1137   1.290   3.911   0.476 -0.4811 -0.2987 -0.4534
    1SOL    HW2 1138   1.306   3.933   0.568  0.6633  0.1627 -0.7514
    1SOL    HW3 1139   1.378   3.899   0.439 -0.9722 -2.6792 -0.9713
    1SOL    MW4 1140   1.304   3.912   0.483 -0.3949 -0.5519 -0.5611
    1SOL     OW 1141   0.849   2.267   0.524  0.0653 -0.2098 -0.1044
    1SOL    HW2 1142   0.932   2.227   0.500  0.3765 -0.5246  1.4568
    1SOL    HW3 1143   0.784   2.199   0.506  0.1880 -0.1357 -0.8590
    1SOL    MW4 1144   0.851   2.253   0.519  0.1225 -0.2418  0.0020
    1SOL     OW 1145   2.863   0.225   0.450 -0.2222 -0.2439  0.1703
    1SOL    HW2 1146   2.786   0.171   0.434 -1.1118  1.3815 -1.3406
    1SOL    HW3 1147   2.828   0.305   0.489  0.8762 -0.1114  0.8965
    1SOL    MW4 1148   2.849   0.229   0.453 -0.1948 -0.0119  0.0668
    1SOL     OW 1149   0.793   3.014   0.366  0.1890  0.4902 -0.3427
    1SOL    HW2 1150   0.845   3.028   0.287 -1.1441  2.6512 -0.8718
    1SOL    HW3 1151   0.794   3.099   0.410 -0.8232 -0.1329  0.9083
    1SOL    MW4 1152   0.800   3.027   0.361 -0.1204  0.6931 -0.2474
    1SOL     OW 1153   0.028   2.105   0.389 -0.0285  0.0488  0.0986
    1SOL    HW2 1154  -0.031   2.030   0.398  0.3608 -0.5044 -1.7358
    1SOL    HW3 1155   0.113   2.072   0.417 -0.0717  0.1373  0.3413
    1SOL    MW4 1156   0.031   2.091   0.394  0.0171 -0.0126 -0.1114
    1SOL     OW 1157   3.351   3.837   0.818 -0.7544 -0.1804  0.1438
    1SOL    HW2 1158   3.363   3.745   0.793  1.1501  0.3460 -0.9595
    1SOL    HW3 1159   3.364   3.838   0.912  0.3567 -0.8617 -0.0024
    1SOL    MW4 1160   3.354   3.825   0.827 -0.3564 -0.2007 -0.0210
    1SOL     OW 1161   3.624   2.467   0.717 -0.3227  0.3837 -0.3222
    1SOL    HW2 1162   3.625   2.554   0.757  1.7489  0.5001 -0.5283
    1SOL    HW3 1163   3.565   2.416   0.771 -0.2192  1.4649  0.8515
    1SOL    MW4 1164   3.617   2.472   0.729 -0.0358  0.5414 -0.1945
    1SOL     OW 1165   4.461   3.487   0.866 -0.6577 -0.3719 -0.3621
    1SOL    HW2 1166   4.547   3.522   0.844 -0.7002 -1.1274 -1.8257
    1SOL    HW3 1167   4.400   3.540   0.813 -1.0303 -0.3557  0.0755
    1SOL    MW4 1168   4.464   3.499   0.856 -0.7129 -0.4692 -0.4975
    1SOL     OW 1169   0.682   3.623   0.789 -0.4338 -0.1913  0.4372
    1SOL    HW2 1170   0.601   3.576   0.810  0.1050 -1.1103  0.4768
    1SOL    HW3 1171   0.671   3.649   0.698 -0.5732 -0.7293  0.2983
    1SOL    MW4 1172   0.670   3.620   0.780 -0.3811 -0.3834  0.4241
    1SOL     OW 1173   1.818   3.975   0.449 -0.0206 -0.2533  0.2705
    1SOL    HW2 1174   1.823   3.993   0.543 -0.2442  1.0244  0.0466
    1SOL    HW3 1175   1.799   4.060   0.409 -1.8174 -1.1170 -0.7647
    1SOL    MW4 1176   1.816   3.989   0.456 -0.2871 -0.1986  0.1044
    1SOL     OW 1177   0.301   4.603   0.451 -0.1837 -0.2078  0.3654
    1SOL    HW2 1178   0.371   4.562   0.500  0.1891  0.0971  0.0864
    1SOL    HW3 1179   0.246   4.530   0.422 -1.1841 -0.3018  2.3987
    1SOL    MW4 1180   0.303   4.588   0.453 -0.2666 -0.1802  0.5969
    1SOL     OW 1181   0.468   4.251   0.852 -0.1928  0.5735 -0.0724
    1SOL    HW2 1182   0.471   4.235   0.946 -0.2441  1.9075  0.1648
    1SOL    HW3 1183   0.384   4.296   0.838 -0.4443 -0.1114 -0.8412
    1SOL    MW4 1184   0.457   4.255   0.862 -0.2327  0.6590 -0.1425
    1SOL     OW 1185   0.691   4.373   0.771 -0.0573  0.0693 -0.1569
    1SOL    HW2 1186   0.760   4.338   0.827  0.8458  0.4711 -1.0123
    1SOL    HW3 1187   0.613   4.322   0.794 -0.1328  1.3463  2.7017
    1SOL    MW4 1188   0.690   4.362   0.781  0.0518  0.2909  0.1074
    1SOL     OW 1189   2.201   1.195   0.390 -0.0216 -0.0166 -0.3435
    1SOL    HW2 1190   2.291   1.201   0.358 -0.3766 -1.4330 -1.6317
    1SOL    HW3 1191   2.191   1.273   0.445  2.4255 -0.5718  0.9510
    1SOL    MW4 1192   2.212   1.206   0.393  0.2546 -0.2767 -0.3427
    1SOL     OW 1193   1.797   1.133   0.820  0.6046  0.1136  0.2843
    1SOL    HW2 1194   1.720   1.189   0.804 -0.7343 -1.8547 -0.3248
    1SOL    HW3 1195   1.872   1.189   0.800 -0.7231  1.5414 -0.8325
    1SOL    MW4 1196   1.796   1.148   0.815  0.2527  0.0424  0.0566
    1SOL     OW 1197   1.599   0.264   0.320 -0.0941 -0.6796 -0.2898
    1SOL    HW2 1198   1.617   0.335   0.381 -0.5289 -0.2044 -0.7118
    1SOL    HW3 1199   1.685   0.236   0.290  0.0377  0.3137 -0.8581
    1SOL    MW4 1200   1.613   0.270   0.324 -0.1341 -0.4858 -0.4205
    1SOL     OW 1201   1.097   0.723   0.842 -0.4336 -0.0127  0.4044
    1SOL    HW2 1202   1.123   0.723   0.934  0.5130 -1.2447  0.1552
    1SOL    HW3 1203   1.064   0.634   0.828  0.6287 -0.2181 -0.7836
    1SOL    MW4 1204   1.096   0.711   0.853 -0.1684 -0.2023  0.2148
    1SOL     OW 1205   3.839   0.445   0.766  0.3004 -0.1672  0.3196
    1SOL    HW2 1206   3.822   0.436   0.672  0.0778 -1.2341  0.4630
    1SOL    HW3 1207   3.836   0.540   0.781  1.4576  0.1054 -0.9596
    1SOL    MW4 1208   3.837   0.457   0.756  0.4237 -0.2721  0.1698
    1SOL     OW 1209   2.165   0.886   0.443  0.5505 -0.2664 -0.0204
    1SOL    HW2 1210   2.234   0.831   0.406  1.6232  1.3422 -0.4962
    1SOL    HW3 1211   2.189   0.975   0.416 -0.7628  0.5079  1.2903
    1SOL    MW4 1212   2.177   0.891   0.435  0.5186  0.0480  0.0897
    1SOL     OW 1213   1.058   1.324   0.499  0.1352 -0.0523 -0.4284
    1SOL    HW2 1214   1.023   1.412   0.507  1.9288  0.5391  1.5324
    1SOL    HW3 1215   0.984   1.266   0.519 -0.4946  1.0710  0.5490
    1SOL    MW4 1216   1.044   1.328   0.503  0.2887  0.1740 -0.0407
    1SOL     OW 1217   0.689   0.804   0.853  0.0632 -0.2346 -0.3672
    1SOL    HW2 1218   0.760   0.851   0.809  0.1896  1.3450  1.4213
    1SOL    HW3 1219   0.691   0.716   0.816  2.3524  0.0624 -1.0291
    1SOL    MW4 1220   0.698   0.799   0.843  0.3819  0.0129 -0.2186
    1SOL     OW 1221   0.722   1.556   0.875  0.3941 -0.2756 -0.5872
    1SOL    HW2 1222   0.803   1.597   0.847 -0.4326  1.2700 -0.7448
    1SOL    HW3 1223   0.735   1.537   0.968 -0.4051  3.3967  0.3610
    1SOL    MW4 1224   0.734   1.559   0.884  0.1796  0.4128 -0.4829
    1SOL     OW 1225   3.812   2.037   0.773  0.2443 -0.1994 -0.2457
    1SOL    HW2 1226   3.800   2.023   0.679 -1.1330  1.4770 -0.3495
    1SOL    HW3 1227   3.905   2.021   0.789  0.2019 -1.8898 -1.6316
    1SOL    MW4 1228   3.823   2.033   0.763  0.0567 -0.2012 -0.4422
    1SOL     OW 1229   1.314   2.526   0.489 -0.3201 -0.1231  0.0943
    1SOL    HW2 1230   1.323   2.441   0.447  0.9043  0.9574 -1.8948
    1SOL    HW3 1231   1.220   2.545   0.483 -0.3288 -0.4927 -1.1982
    1SOL    MW4 1232   1.303   2.517   0.483 -0.1597 -0.0291 -0.3387
    1SOL     OW 1233   2.899   0.497   0.756  0.1691 -0.1223 -0.3687
    1SOL    HW2 1234   2.904   0.586   0.791  0.6335  0.1918 -1.2232
    1SOL    HW3 1235   2.981   0.456   0.784 -1.2986 -1.1876  2.4583
    1SOL    MW4 1236   2.911   0.503   0.764  0.0367 -0.2214 -0.1084
    1SOL     OW 1237   3.116   3.801   0.406  0.4618  0.1276  0.1417
    1SOL    HW2 1238   3.194   3.746   0.413  0.4861  0.3776  2.1340
    1SOL    HW3 1239   3.043   3.742   0.422  0.1732 -0.2312 -2.3405
    1SOL    MW4 1240   3.116   3.786   0.409  0.4268  0.1132  0.0771
    1SOL     OW 1241   0.228   4.361   0.776 -0.0497 -0.4896  0.4501
    1SOL    HW2 1242   0.201   4.453   0.777 -1.4919 -0.9016  1.0649
    1SOL    HW3 1243   0.157   4.315   0.820  1.3649 -1.7249  1.4768
    1SOL    MW4 1244   0.215   4.367   0.782 -0.0533 -0.7071  0.6667
    1SOL     OW 1245   1.262   1.633   0.477  0.4317 -0.4217  0.4512
    1SOL    HW2 1246   1.304   1.552   0.448  0.1803 -0.3058 -0.2416
    1SOL    HW3 1247   1.168   1.615   0.473  0.3896 -0.3269  0.9687
    1SOL    MW4 1248   1.255   1.620   0.473  0.3932 -0.3939  0.4281
    1SOL     OW 1249   0.726   0.014   0.431 -0.3227  0.0632  0.0826
    1SOL    HW2 1250   0.779   0.089   0.458 -0.9499  0.4684  0.2248
    1SOL    HW3 1251   0.647   0.054   0.392 -0.6884 -0.5199  0.2200
    1SOL    MW4 1252   0.722   0.029   0.430 -0.4538  0.0397  0.1195
    1SOL     OW 1253   0.241   1.970   0.515  0.6176  0.5483  0.4646
    1SOL    HW2 1254   0.205   1.882   0.511 -1.2868  1.3630 -1.1076
    1SOL    HW3 1255   0.247   1.989   0.609 -0.3739 -0.6950  0.7880
    1SOL    MW4 1256   0.237   1.961   0.527  0.2355  0.4917  0.2998
    1SOL     OW 1257   1.395   2.922   0.206 -0.4874 -0.0888 -0.1718
    1SOL    HW2 1258   1.341   2.957   0.276 -1.1068 -0.7277 -0.3286
    1SOL    HW3 1259   1.409   2.830   0.229  0.6540  0.0993 -0.0603
    1SOL    MW4 1260   1.390   2.915   0.218 -0.4185 -0.1483 -0.1778
    1SOL     OW 1261   2.588   1.258   0.478  0.0481 -1.0415 -0.0034
    1SOL    HW2 1262   2.546   1.230   0.397 -0.8693 -0.3176  0.2110
    1SOL    HW3 1263   2.681   1.242   0.464  0.0208  0.1176 -1.6146
    1SOL    MW4 1264   2.595   1.252   0.466 -0.0768 -0.7931 -0.1877
    1SOL     OW 1265   2.217   4.312   0.402 -0.0055  0.5395 -0.4465
    1SOL    HW2 1266   2.198   4.221   0.427 -0.4653  0.2366 -1.8720
    1SOL    HW3 1267   2.132   4.355   0.406  0.2395  0.9503  0.3827
    1SOL    MW4 1268   2.203   4.306   0.406 -0.0339  0.5536 -0.5252
    1SOL     OW 1269   3.383   3.589   0.717 -0.0498 -0.5066 -0.1256
    1SOL    HW2 1270   3.454   3.538   0.756  0.1705 -0.2793 -0.2289
    1SOL    HW3 1271   3.303   3.545   0.746  0.1699 -1.6846 -1.2598
    1SOL    MW4 1272   3.382   3.577   0.726  0.0081 -0.6320 -0.2888
    1SOL     OW 1273   0.121   1.713   0.494 -0.2369  0.1220 -0.0923
    1SOL    HW2 1274   0.036   1.741   0.461 -0.1463  0.5445  0.0234
    1SOL    HW3 1275   0.105   1.690   0.586 -0.4112 -0.6834 -0.3230
    1SOL    MW4 1276   0.108   1.714   0.502 -0.2479  0.0715 -0.1075
    1SOL     OW 1277   1.130   4.417   0.741 -0.1315  0.3282 -0.4418
    1SOL    HW2 1278   1.126   4.411   0.646 -1.6171  0.7303 -0.4159
    1SOL    HW3 1279   1.144   4.510   0.759 -2.7832  0.7285 -0.2210
    1SOL    MW4 1280   1.131   4.428   0.731 -0.6775  0.4334 -0.4092
    1SOL     OW 1281   1.774   2.465   0.753  0.1495 -0.0293 -0.0216
    1SOL    HW2 1282   1.765   2.549   0.798  0.3261 -0.3315  0.5825
    1SOL    HW3 1283   1.695   2.416   0.777 -0.3891  0.2970 -1.0946
    1SOL    MW4 1284   1.763   2.469   0.762  0.1018 -0.0260 -0.0834
    1SOL     OW 1285   1.595   4.596   0.838  0.1180  0.2210  0.0333
    1SOL    HW2 1286   1.570   4.587   0.930 -0.1667  1.1866  0.0550
    1SOL    HW3 1287   1.598   4.506   0.805 -2.1083 -0.0213  0.3843
    1SOL    MW4 1288   1.592   4.583   0.846 -0.2133  0.3161  0.0825
    1SOL     OW 1289   1.143   4.664   0.871 -0.0920  0.5842  0.1241
    1SOL    HW2 1290   1.225   4.698   0.836  0.5634 -0.7055  0.3676
    1SOL    HW3 1291   1.075   4.718   0.831  0.7786  0.6510 -1.2840
    1SOL    MW4 1292   1.145   4.676   0.861  0.1093  0.4225 -0.0295
    1SOL     OW 1293   1.320   0.367   0.783  0.0687 -0.1163 -0.5034
    1SOL    HW2 1294   1.318   0.375   0.878  1.1868 -0.0201 -0.4738
    1SOL    HW3 1295   1.391   0.426   0.756 -0.4354  0.0766 -1.4185
    1SOL    MW4 1296   1.329   0.376   0.792  0.1497 -0.0782 -0.6202
    1SOL     OW 1297   1.560   0.499   0.727 -0.1119  0.1159  0.3146
    1SOL    HW2 1298   1.592   0.499   0.637 -1.7061  1.2562 -0.2752
    1SOL    HW3 1299   1.564   0.590   0.755 -0.7908 -0.0395  0.9634
    1SOL    MW4 1300   1.565   0.511   0.719 -0.4119  0.2459  0.3224
    1SOL     OW 1301   3.232   1.677   0.384 -0.2097  0.0931 -0.5688
    1SOL    HW2 1302   3.140   1.699   0.394 -0.5502 -1.2318 -0.7714
    1SOL    HW3 1303   3.278   1.751   0.424 -1.3884 -0.2311  1.4640
    1SOL    MW4 1304   3.226   1.690   0.391 -0.4101 -0.1246 -0.3273
    1SOL     OW 1305   0.913   0.878   0.703 -0.7224 -0.4611  0.3739
    1SOL    HW2 1306   0.924   0.854   0.611 -0.0907  0.9094  0.0730
    1SOL    HW3 1307   0.977   0.824   0.750 -0.6853 -0.7847 -0.0443
    1SOL    MW4 1308   0.923   0.868   0.697 -0.6341 -0.3229  0.2791
    1SOL     OW 1309   1.350   1.082   0.852  0.4248 -0.1054 -0.1323
    1SOL    HW2 1310   1.364   1.095   0.946  0.5408  1.0995 -0.3088
    1SOL    HW3 1311   1.286   1.149   0.828  0.0103 -0.7478 -0.8044
    1SOL    MW4 1312   1.344   1.093   0.861  0.3855 -0.0312 -0.2443
    1SOL     OW 1313   3.385   2.061   0.758 -0.0728 -0.2618  0.1524
    1SOL    HW2 1314   3.393   2.023   0.670  1.7342 -0.6344  0.4434
    1SOL    HW3 1315   3.469   2.040   0.800  0.4430  2.8261  0.7910
    1SOL    MW4 1316   3.397   2.053   0.752  0.2337  0.0966  0.2751
    1SOL     OW 1317   0.479   4.039   0.521  0.0322  0.3427  0.2715
    1SOL    HW2 1318   0.537   4.114   0.513 -0.7409  0.9737  0.5713
    1SOL    HW3 1319   0.392   4.073   0.499 -0.5731 -0.1158  1.9195
    1SOL    MW4 1320   0.475   4.053   0.517 -0.1497  0.3653  0.5285
    1SOL     OW 1321   3.644   1.925   0.357  0.1499  0.1954  0.2441
    1SOL    HW2 1322   3.687   1.845   0.327  0.2485  0.7083 -0.9918
    1SOL    HW3 1323   3.714   1.974   0.401  0.3905  0.1874 -0.1289
    1SOL    MW4 1324   3.659   1.921   0.359  0.1948  0.2619  0.0318
    1SOL     OW 1325   1.574   1.353   0.542 -0.4188 -0.1289 -0.2557
    1SOL    HW2 1326   1.606   1.442   0.531  0.6184 -0.5161 -0.4607
    1SOL    HW3 1327   1.492   1.350   0.493  0.0473  0.4394 -1.0756
    1SOL    MW4 1328   1.567   1.364   0.534 -0.2203 -0.1049 -0.3909
    1SOL     OW 1329   3.257   2.120   0.447  0.0415  0.2963 -0.2739
    1SOL    HW2 1330   3.240   2.097   0.356  0.4940 -0.1403 -0.2471
    1SOL    HW3 1331   3.306   2.046   0.482 -0.2929  0.3819  0.3775
    1SOL    MW4 1332   3.261   2.107   0.440  0.0575  0.2501 -0.1844
    1SOL     OW 1333   3.622   3.867   0.488 -0.4719 -0.1700  0.1629
    1SOL    HW2 1334   3.607   3.912   0.571 -2.9626  0.1069 -0.3789
    1SOL    HW3 1335   3.658   3.934   0.430 -1.9485  0.5402  0.0462
    1SOL    MW4 1336   3.624   3.881   0.491 -0.9956 -0.0396  0.0760
    1SOL     OW 1337   1.097   3.663   0.777  0.0837  0.1427  0.0204
    1SOL    HW2 1338   1.178   3.618   0.797  0.1553  0.2185 -0.0932
    1SOL    HW3 1339   1.028   3.606   0.810  0.1706 -0.0922 -0.2059
    1SOL    MW4 1340   1.098   3.650   0.784  0.1045  0.1218 -0.0245
    1SOL     OW 1341   0.881   2.626   0.835  0.2246  0.5379 -0.2120
    1SOL    HW2 1342   0.899   2.633   0.929  0.7176  1.4492 -0.3758
    1SOL    HW3 1343   0.815   2.694   0.818  0.9449  1.1102 -0.7355
    1SOL    MW4 1344   0.875   2.636   0.845  0.3846  0.7336 -0.3027
    1SOL     OW 1345   1.554   2.836   0.703 -0.0454 -0.2369  0.2948
    1SOL    HW2 1346   1.556   2.925   0.737  1.1061  0.2376 -0.9585
    1SOL    HW3 1347   1.470   2.801   0.731  0.1489  0.7130  2.1288
    1SOL    MW4 1348   1.543   2.843   0.711  0.1322 -0.0491  0.3713
    1SOL     OW 1349   3.387   4.346   0.532  0.2348  0.0689 -0.2088
    1SOL    HW2 1350   3.319   4.410   0.510  0.6721 -0.1515 -2.3078
    1SOL    HW3 1351   3.377   4.331   0.626 -2.2891  0.4176 -0.4027
    1SOL    MW4 1352   3.377   4.352   0.541 -0.0405  0.0863 -0.5113
    1SOL     OW 1353   4.102   3.644   0.249  0.0919 -0.0252  0.0650
    1SOL    HW2 1354   4.019   3.597   0.238 -0.1302  0.4104 -0.1574
    1SOL    HW3 1355   4.168   3.575   0.257  0.0229 -0.3916 -2.1342
    1SOL    MW4 1356   4.100   3.629   0.249  0.0539 -0.0160 -0.2545
    1SOL     OW 1357   1.112   3.919   0.913  0.0027  0.8144 -0.2272
    1SOL    HW2 1358   1.094   3.827   0.894  0.5625  0.7952 -0.6769
    1SOL    HW3 1359   1.113   3.925   1.008  0.6594  0.2178 -0.1998
    1SOL    MW4 1360   1.109   3.908   0.923  0.1632  0.7329 -0.2829
    1SOL     OW 1361   4.083   4.225   0.875 -0.0861 -0.0931  0.1770
    1SOL    HW2 1362   4.006   4.257   0.827  0.1740 -1.3433 -1.0680
    1SOL    HW3 1363   4.157   4.268   0.833  0.1408 -1.1873 -0.5429
    1SOL    MW4 1364   4.082   4.235   0.863 -0.0219 -0.4025 -0.0823
    1SOL     OW 1365   2.257   3.152   0.746 -0.8140  0.4662 -0.3244
    1SOL    HW2 1366   2.180   3.121   0.792 -0.7940  1.4513  0.3710
    1SOL    HW3 1367   2.329   3.138   0.807 -0.4441 -0.3774 -0.9416
    1SOL    MW4 1368   2.256   3.146   0.760 -0.7627  0.4849 -0.3142
    1SOL     OW 1369   2.240   1.666   0.712  0.2093 -0.2804 -0.0235
    1SOL    HW2 1370   2.311   1.621   0.760 -0.2397 -0.4266  0.5129
    1SOL    HW3 1371   2.238   1.754   0.750 -0.5653 -0.5935  0.6718
    1SOL    MW4 1372   2.249   1.671   0.723  0.0477 -0.3409  0.1390
    1SOL     OW 1373   1.991   4.414   0.723  0.0440 -0.1286  0.0818
    1SOL    HW2 1374   1.972   4.426   0.630  1.0219 -0.0868 -0.1092
    1SOL    HW3 1375   1.918   4.361   0.756 -1.4436  1.6373 -0.2473
    1SOL    MW4 1376   1.979   4.409   0.715 -0.0232  0.1097  0.0132
    1SOL     OW 1377   2.129   4.060   0.485  0.0557 -0.0630  0.1719
    1SOL    HW2 1378   2.047   4.032   0.444  1.0793 -0.6909 -1.5128
    1SOL    HW3 1379   2.188   3.986   0.470  1.2578  0.8618  0.3595
    1SOL    MW4 1380   2.126   4.046   0.478  0.3498 -0.0234 -0.0256
    1SOL     OW 1381   2.427   0.003   0.881 -0.3954  0.6238  0.2340
    1SOL    HW2 1382   2.459  -0.011   0.971  0.1670  0.0435 -0.0567
    1SOL    HW3 1383   2.432  -0.083   0.840 -0.3600  0.9500 -0.4461
    1SOL    MW4 1384   2.432  -0.010   0.888 -0.3166  0.5903  0.1060
    1SOL     OW 1385   2.315   3.321   0.390 -0.0872 -0.2941  0.2961
    1SOL    HW2 1386   2.290   3.235   0.424  0.3583 -0.3158  0.5711
    1SOL    HW3 1387   2.371   3.301   0.315  0.3339 -0.2442  0.5956
    1SOL    MW4 1388   2.319   3.307   0.384  0.0274 -0.2904  0.3719
    1SOL     OW 1389   1.764   0.365   0.844 -0.2656 -0.3165  0.6248
    1SOL    HW2 1390   1.693   0.417   0.807 -0.6449  0.1190  1.9306
    1SOL    HW3 1391   1.764   0.284   0.793 -1.8819 -0.4383  0.7923
    1SOL    MW4 1392   1.755   0.361   0.832 -0.5289 -0.2751  0.8191
    1SOL     OW 1393   3.595   4.496   0.425 -0.4923  0.2297  0.3256
    1SOL    HW2 1394   3.548   4.432   0.480  0.1409  0.8752  1.6425
    1SOL    HW3 1395   3.609   4.571   0.482  0.3314  0.8562 -0.6785
    1SOL    MW4 1396   3.591   4.497   0.440 -0.2997  0.3977  0.3669
    1SOL     OW 1397   3.291   4.100   0.438  0.3507  0.6277 -0.1632
    1SOL    HW2 1398   3.337   4.183   0.453  1.7923 -0.2459  0.3418
    1SOL    HW3 1399   3.361   4.036   0.424 -0.7669 -0.3538 -1.3961
    1SOL    MW4 1400   3.307   4.103   0.438  0.3934  0.3834 -0.2592
    1SOL     OW 1401   1.570   3.085   0.814 -0.1700  0.0427  0.2449
    1SOL    HW2 1402   1.561   3.060   0.906 -1.1425 -0.6789 -0.0417
    1SOL    HW3 1403   1.494   3.140   0.796  0.3466  0.6944  0.0332
    1SOL    MW4 1404   1.559   3.089   0.824 -0.2302  0.0336  0.1792
    1SOL     OW 1405   3.698   3.287   0.238 -0.2301  0.2788  0.5127
    1SOL    HW2 1406   3.655   3.317   0.318 -1.6568  1.0862 -0.5381
    1SOL    HW3 1407   3.642   3.218   0.204  0.8407 -0.6903  0.6656
    1SOL    MW4 1408   3.685   3.282   0.244 -0.2770  0.2575  0.3942
    1SOL     OW 1409   1.601   3.230   0.353 -0.1427 -0.2972 -0.2014
    1SOL    HW2 1410   1.609   3.173   0.277  2.4136  0.0949 -0.2576
    1SOL    HW3 1411   1.662   3.193   0.417 -1.5376 -0.0393  1.3172
    1SOL    MW4 1412   1.610   3.217   0.351  0.0105 -0.2115 -0.0084
    1SOL     OW 1413   2.471   1.530   0.824 -0.2436  0.0740  0.2865
    1SOL    HW2 1414   2.484   1.443   0.787 -0.4668 -0.0012  0.3801
    1SOL    HW3 1415   2.548   1.579   0.798 -0.1802 -0.1135  0.1168
    1SOL    MW4 1416   2.483   1.525   0.815 -0.2646  0.0392  0.2764
    1SOL     OW 1417   4.086   3.978   0.774 -0.0361  0.5150 -0.0487
    1SOL    HW2 1418   4.081   3.987   0.679 -1.0242  1.4936  0.0927
    1SOL    HW3 1419   4.085   4.067   0.807 -0.7914  0.1603  0.9304
    1SOL    MW4 1420   4.085   3.991   0.766 -0.2661  0.5972  0.0992
    1SOL     OW 1421   1.461   2.665   0.297 -0.0426 -0.2460 -0.1036
    1SOL    HW2 1422   1.417   2.635   0.377 -0.3167 -0.3477 -0.2906
    1SOL    HW3 1423   1.483   2.584   0.250  1.9209 -0.2632  0.8201
    1SOL    MW4 1424   1.458   2.651   0.301  0.1804 -0.2618 -0.0064
    1SOL     OW 1425   3.835   1.716   0.286  0.4381  0.0744  0.4485
    1SOL    HW2 1426   3.869   1.676   0.206  0.1448 -0.3464  0.5294
    1SOL    HW3 1427   3.798   1.642   0.335  1.1648  0.2298  1.2475
    1SOL    MW4 1428   3.835   1.701   0.282  0.4952  0.0393  0.5645
    1SOL     OW 1429   1.510   2.073   0.414  0.1276 -0.3513 -0.0694
    1SOL    HW2 1430   1.602   2.088   0.390  0.3445 -0.5636  0.6435
    1SOL    HW3 1431   1.498   1.979   0.404  0.2073 -0.4364  0.6187
    1SOL    MW4 1432   1.521   2.063   0.409  0.1667 -0.3905  0.1154
    1SOL     OW 1433   3.573   1.094   0.784 -0.4494 -0.7803  0.1731
    1SOL    HW2 1434   3.589   1.003   0.760  3.4684 -0.1752  0.1279
    1SOL    HW3 1435   3.574   1.094   0.880  0.0732 -0.6850  0.1652
    1SOL    MW4 1436   3.575   1.082   0.794  0.1364 -0.6878  0.1660
    1SOL     OW 1437   1.150   4.128   0.391 -0.1218  0.0747 -0.3195
    1SOL    HW2 1438   1.070   4.090   0.426  0.7408 -0.4344  1.1604
    1SOL    HW3 1439   1.218   4.063   0.411  1.1490  1.7692  1.0950
    1SOL    MW4 1440   1.149   4.114   0.399  0.1596  0.2313  0.0624
    1SOL     OW 1441   1.166   2.084   0.722 -0.2170  0.3488  0.2856
    1SOL    HW2 1442   1.091   2.036   0.755 -1.3305  1.7107 -0.2449
    1SOL    HW3 1443   1.241   2.043   0.765 -1.0389 -2.5631 -0.9378
    1SOL    MW4 1444   1.166   2.072   0.732 -0.4724  0.1442  0.0542
    1SOL     OW 1445   3.524   0.618   0.495  0.2775  0.0112 -0.6658
    1SOL    HW2 1446   3.461   0.547   0.502  1.0369 -0.7830 -1.6467
    1SOL    HW3 1447   3.500   0.664   0.414 -0.1379  0.7995 -0.0976
    1SOL    MW4 1448   3.513   0.614   0.485  0.3228  0.0104 -0.7202
    1SOL     OW 1449   2.984   2.829   0.455  0.4531 -0.0199  0.4078
    1SOL    HW2 1450   2.894   2.812   0.426  0.4094  0.1621  0.4403
    1SOL    HW3 1451   3.033   2.751   0.426  0.4900  0.3363 -0.5090
    1SOL    MW4 1452   2.979   2.816   0.447  0.4520  0.0515  0.2911
    1SOL     OW 1453   1.778   3.425   0.804 -0.6275 -0.4119 -0.0867
    1SOL    HW2 1454   1.789   3.436   0.899 -0.7736  0.1273 -0.1285
    1SOL    HW3 1455   1.798   3.333   0.788  2.1179  0.1365  0.0759
    1SOL    MW4 1456   1.782   3.414   0.814 -0.2844 -0.2687 -0.0708
    1SOL     OW 1457   0.234   3.033   0.390 -0.3489  0.4230  0.6503
    1SOL    HW2 1458   0.148   3.004   0.358 -0.0190  0.0958  0.0627
    1SOL    HW3 1459   0.277   2.953   0.419 -0.0241  0.5178  0.4300
    1SOL    MW4 1460   0.228   3.019   0.390 -0.2625  0.3922  0.5437
    1SOL     OW 1461   1.918   1.525   0.341  0.0033  0.2603  0.2651
    1SOL    HW2 1462   1.889   1.451   0.288 -1.3219  0.8025  0.1892
    1SOL    HW3 1463   1.941   1.593   0.277 -0.5216  0.5256  0.3494
    1SOL    MW4 1464   1.917   1.525   0.325 -0.2408  0.3669  0.2663
    1SOL     OW 1465   0.880   0.388   0.868 -0.4285 -0.4567 -0.0046
    1SOL    HW2 1466   0.879   0.298   0.836  1.0757 -0.0877 -1.1732
    1SOL    HW3 1467   0.858   0.381   0.961 -1.2290 -1.9273 -0.2972
    1SOL    MW4 1468   0.877   0.375   0.876 -0.3356 -0.6020 -0.1974
    1SOL     OW 1469   4.038   3.989   0.515  0.0524  0.3194  0.1189
    1SOL    HW2 1470   4.043   3.894   0.524  1.0770  0.4718  1.3200
    1SOL    HW3 1471   4.106   4.011   0.451 -0.0016  0.2683  0.0440
    1SOL    MW4 1472   4.047   3.979   0.508  0.1812  0.3328  0.2676
    1SOL     OW 1473   1.786   4.649   0.454  0.4203  0.2620  0.0842
    1SOL    HW2 1474   1.779   4.682   0.544  0.4458  1.4898 -0.3493
    1SOL    HW3 1475   1.834   4.717   0.408  1.1774 -0.7683 -0.6659
    1SOL    MW4 1476   1.791   4.662   0.460  0.5236  0.2880 -0.0719
    1SOL     OW 1477   0.358   1.551   0.432 -0.1223  0.0229  0.1589
    1SOL    HW2 1478   0.274   1.594   0.449  0.2528  0.5134  0.8268
    1SOL    HW3 1479   0.421   1.623   0.422  0.4591 -0.3586  0.9865
    1SOL    MW4 1480   0.355   1.566   0.433  0.0039  0.0373  0.3563
    1SOL     OW 1481   2.199   0.341   1.133 -0.0358  0.2663 -0.0850
    1SOL    HW2 1482   2.198   0.355   1.038  1.0855  1.0751  0.0123
    1SOL    HW3 1483   2.134   0.403   1.167  0.6222  1.0302 -0.2002
    1SOL    MW4 1484   2.190   0.351   1.125  0.1991  0.4738 -0.0873
    1SOL     OW 1485   4.257   0.566   0.767  0.1986  0.0199 -0.5604
    1SOL    HW2 1486   4.239   0.565   0.673 -0.8312 -2.0926 -0.3588
    1SOL    HW3 1487   4.350   0.542   0.773 -0.1908 -1.6900 -0.9733
    1SOL    MW4 1488   4.267   0.563   0.755  0.0119 -0.4845 -0.5882
    1SOL     OW 1489   2.473   0.505   0.455 -0.4887  0.2895  0.1838
    1SOL    HW2 1490   2.457   0.492   0.548 -0.8302  1.5009  0.3006
    1SOL    HW3 1491   2.568   0.507   0.447 -0.4393 -1.1228  0.3141
    1SOL    MW4 1492   2.483   0.504   0.466 -0.5274  0.2629  0.2164
    1SOL     OW 1493   2.617   1.566   0.457 -0.4581 -0.6769  0.3117
    1SOL    HW2 1494   2.524   1.576   0.434 -1.0547 -0.7181  2.5137
    1SOL    HW3 1495   2.636   1.474   0.442 -0.6621 -0.5812 -0.5500
    1SOL    MW4 1496   2.607   1.555   0.452 -0.5639 -0.6697  0.4885
    1SOL     OW 1497   2.469   1.258   0.744 -0.2023 -0.1428 -0.0425
    1SOL    HW2 1498   2.472   1.266   0.648  1.7731  0.6145  0.0618
    1SOL    HW3 1499   2.380   1.228   0.763  0.1558 -2.8475 -2.3120
    1SOL    MW4 1500   2.458   1.255   0.734  0.1056 -0.3998 -0.3282
    1SOL     OW 1501   2.226   1.170   0.832 -0.0250 -0.1340 -0.9124
    1SOL    HW2 1502   2.211   1.078   0.812 -0.4417 -0.4153  0.6248
    1SOL    HW3 1503   2.234   1.173   0.927  0.9206  1.2854 -1.0101
    1SOL    MW4 1504   2.225   1.158   0.842  0.0446  0.0161 -0.7225
    1SOL     OW 1505   1.536   1.524   0.907 -0.5079 -0.1158  0.0666
    1SOL    HW2 1506   1.535   1.524   1.003  1.1923 -0.9398  0.0964
    1SOL    HW3 1507   1.538   1.432   0.882  1.0195  0.1251 -0.7260
    1SOL    MW4 1508   1.536   1.512   0.917 -0.0819 -0.1929 -0.0339
    1SOL     OW 1509   3.143   0.836   0.746  0.1089 -0.6705 -0.3555
    1SOL    HW2 1510   3.218   0.805   0.795  1.8100  0.4344 -2.1690
    1SOL    HW3 1511   3.130   0.926   0.776  0.1387 -0.5283 -0.7658
    1SOL    MW4 1512   3.151   0.844   0.756  0.3371 -0.5059 -0.6489
    1SOL     OW 1513   1.177   0.525   0.431  0.2569  0.2007 -0.3962
    1SOL    HW2 1514   1.138   0.525   0.518 -0.3958  1.2599 -0.6778
    1SOL    HW3 1515   1.226   0.442   0.426  0.3828  0.1837  0.9988
    1SOL    MW4 1516   1.178   0.514   0.442  0.1874  0.3381 -0.2494
    1SOL     OW 1517   2.218   1.910   0.833  0.1061  0.4354 -0.7812
    1SOL    HW2 1518   2.139   1.959   0.813  0.5681  1.4436 -0.2084
    1SOL    HW3 1519   2.289   1.960   0.793  0.5316 -0.0814 -0.6918
    1SOL    MW4 1520   2.217   1.923   0.825  0.2234  0.5003 -0.6939
    1SOL     OW 1521   2.264   3.778   0.482  0.0693  0.2851 -0.4756
    1SOL    HW2 1522   2.324   3.704   0.487  0.0595  0.2558 -0.7662
    1SOL    HW3 1523   2.179   3.738   0.467  0.4046  0.4499 -3.0572
    1SOL    MW4 1524   2.261   3.763   0.481  0.1123  0.3028 -0.8546
    1SOL     OW 1525   3.358   2.704   0.315 -0.3205 -0.1445 -0.1780
    1SOL    HW2 1526   3.402   2.645   0.375 -0.9409  0.7121  1.1550
    1SOL    HW3 1527   3.272   2.664   0.300  0.1774 -0.8252 -1.2295
    1SOL    MW4 1528   3.352   2.691   0.321 -0.3364 -0.1214 -0.1409
    1SOL     OW 1529   2.229   2.406   0.713 -0.0153  0.0024 -0.0007
    1SOL    HW2 1530   2.139   2.382   0.737  0.4104  0.1106  1.8123
    1SOL    HW3 1531   2.237   2.498   0.738  0.7616 -0.1565  0.3511
    1SOL    MW4 1532   2.218   2.415   0.720  0.1433 -0.0043  0.2849
    1SOL     OW 1533   2.267   2.668   0.820 -0.0519  0.1649 -0.1891
    1SOL    HW2 1534   2.264   2.675   0.915 -2.0248  0.9614 -0.2851
    1SOL    HW3 1535   2.337   2.728   0.794 -0.4151  0.9874  0.6942
    1SOL    MW4 1536   2.276   2.677   0.829 -0.3603  0.3784 -0.0852
    1SOL     OW 1537   1.599   4.103   0.153  0.7668  0.8164  0.1356
    1SOL    HW2 1538   1.523   4.157   0.174  0.0229 -0.3816  0.5921
    1SOL    HW3 1539   1.582   4.069   0.065  0.6199  0.2931  0.3628
    1SOL    MW4 1540   1.587   4.106   0.144  0.6492  0.5889  0.2258
    1SOL     OW 1541   1.805   4.234   0.814  0.0380 -0.0170  0.3684
    1SOL    HW2 1542   1.799   4.231   0.909  0.2775  0.9183  0.4146
    1SOL    HW3 1543   1.794   4.142   0.786 -0.4640 -0.2319  1.2612
    1SOL    MW4 1544   1.803   4.221   0.823  0.0033  0.0777  0.4923
    1SOL     OW 1545   2.523   3.320   0.207 -0.1848 -0.2313  0.1495
    1SOL    HW2 1546   2.564   3.329   0.121  1.4654  0.8815  1.0267
    1SOL    HW3 1547   2.571   3.381   0.263 -0.8511 -1.3556  1.9963
    1SOL    MW4 1548   2.535   3.329   0.203 -0.0548 -0.2327  0.5089
    1SOL     OW 1549   3.090   2.595   0.333 -0.6233 -0.1853  0.0130
    1SOL    HW2 1550   3.009   2.575   0.286 -0.8920 -1.2506  0.9083
    1SOL    HW3 1551   3.122   2.510   0.363 -0.0347  0.3927  1.0590
    1SOL    MW4 1552   3.083   2.581   0.331 -0.5808 -0.2496  0.2691
    1SOL     OW 1553   1.527   3.622   0.430  0.0109 -0.1969  0.1503
    1SOL    HW2 1554   1.584   3.574   0.370 -0.8184 -1.5852  0.4472
    1SOL    HW3 1555   1.536   3.714   0.403  0.4194 -0.6875 -1.4408
    1SOL    MW4 1556   1.536   3.628   0.418 -0.0446 -0.4449 -0.0204
    1SOL     OW 1557   1.785   3.983   0.727 -0.4380 -0.1360 -0.1053
    1SOL    HW2 1558   1.859   3.929   0.754 -0.0932  0.5143  0.2431
    1SOL    HW3 1559   1.708   3.933   0.755 -0.1068 -0.1389  0.7920
    1SOL    MW4 1560   1.784   3.969   0.734 -0.3487 -0.0505  0.0590
    1SOL     OW 1561   3.131   3.970   0.720  0.5616 -0.1696 -0.2614
    1SOL    HW2 1562   3.057   3.930   0.766  0.1635  1.8369  0.9201
    1SOL    HW3 1563   3.207   3.918   0.746 -0.2256 -1.4202 -0.4163
    1SOL    MW4 1564   3.131   3.958   0.729  0.4053 -0.0699 -0.1259
    1SOL     OW 1565   2.830   2.530   0.193  0.5957  0.7872 -0.0693
    1SOL    HW2 1566   2.849   2.487   0.109  2.6385 -1.6963  1.6127
    1SOL    HW3 1567   2.774   2.468   0.239  0.8221  1.4258  1.0598
    1SOL    MW4 1568   2.825   2.516   0.188  0.8953  0.5438  0.3016
    1SOL     OW 1569   2.441   1.146   0.263 -0.3195 -0.0778  0.3062
    1SOL    HW2 1570   2.448   1.166   0.169 -1.2770 -0.3888  0.1555
    1SOL    HW3 1571   2.445   1.050   0.267  2.4134  0.0386  0.8510
    1SOL    MW4 1572   2.442   1.136   0.251 -0.0854 -0.1036  0.3582
    1SOL     OW 1573   2.890   0.742   0.867  0.2444 -0.5465 -0.1775
    1SOL    HW2 1574   2.905   0.751   0.961 -0.5560  0.2194 -0.1156
    1SOL    HW3 1575   2.974   0.763   0.827  0.1395  0.8200  0.2944
    1SOL    MW4 1576   2.903   0.746   0.874  0.1249 -0.2651 -0.1070
    1SOL     OW 1577   2.843   3.968   0.558 -0.0049 -0.1195 -0.2697
    1SOL    HW2 1578   2.795   4.020   0.492 -0.0528 -0.7108 -0.7065
    1SOL    HW3 1579   2.786   3.970   0.635  0.1852  0.8226 -0.1428
    1SOL    MW4 1580   2.829   3.975   0.559  0.0138 -0.0734 -0.3106
    1SOL     OW 1581   2.452   0.766   0.791 -0.0300 -0.2393  0.6791
    1SOL    HW2 1582   2.536   0.805   0.766 -1.4838  1.1964 -2.2633
    1SOL    HW3 1583   2.451   0.681   0.746  1.2565 -1.8354  3.5299
    1SOL    MW4 1584   2.463   0.760   0.782 -0.0522 -0.2605  0.6670
    1SOL     OW 1585   1.912   1.119   0.365 -0.3285 -0.1285  0.0242
    1SOL    HW2 1586   2.007   1.135   0.367 -0.5672  1.3562  0.1855
    1SOL    HW3 1587   1.902   1.031   0.401  0.8830  0.2855  1.4450
    1SOL    MW4 1588   1.924   1.109   0.370 -0.2003  0.1220  0.2329
    1SOL     OW 1589   3.586   0.825   0.678  0.4521  0.1884  0.0887
    1SOL    HW2 1590   3.561   0.749   0.626 -0.1132  0.6200 -0.2681
    1SOL    HW3 1591   3.646   0.790   0.743 -1.5889 -1.0048  1.3986
    1SOL    MW4 1592   3.590   0.811   0.680  0.1082  0.0880  0.2144
    1SOL     OW 1593   0.999   2.888   0.535  0.3131 -0.0569  0.1275
    1SOL    HW2 1594   0.920   2.901   0.483 -0.6181 -1.3955  1.1375
    1SOL    HW3 1595   1.071   2.914   0.478 -0.7887  0.0843 -1.2225
    1SOL    MW4 1596   0.998   2.893   0.521  0.0449 -0.2151  0.0826
    1SOL     OW 1597   3.105   3.072   0.503 -0.2030 -0.1621  0.6650
    1SOL    HW2 1598   3.050   3.004   0.462 -0.9618  0.1933  1.0737
    1SOL    HW3 1599   3.194   3.049   0.479 -0.7094  0.8781 -2.4919
    1SOL    MW4 1600   3.109   3.060   0.495 -0.3698  0.0222  0.3024
    1SOL     OW 1601   2.703   1.643   0.696 -0.0836 -0.0356  0.3267
    1SOL    HW2 1602   2.667   1.620   0.611  0.0708  1.5824 -0.1913
    1SOL    HW3 1603   2.692   1.738   0.702  0.2453 -0.0855  1.9519
    1SOL    MW4 1604   2.697   1.653   0.686 -0.0196  0.1713  0.4728
    1SOL     OW 1605   3.123   1.660   0.743  0.1522 -0.0518  0.6470
    1SOL    HW2 1606   3.075   1.701   0.671  0.4609  1.5791  1.3326
    1SOL    HW3 1607   3.141   1.732   0.804  1.4195 -1.0714  1.5171
    1SOL    MW4 1608   3.119   1.675   0.742  0.3603  0.0287  0.8522
    1SOL     OW 1609   0.061   0.308   0.525 -0.1385  0.2826 -0.1818
    1SOL    HW2 1610  -0.029   0.276   0.523 -0.1099  0.0683  1.1400
    1SOL    HW3 1611   0.064   0.363   0.604  0.5815  1.1937 -0.8394
    1SOL    MW4 1612   0.050   0.311   0.535 -0.0398  0.3746 -0.0942
    1SOL     OW 1613   1.802   2.528   0.465 -0.2686 -0.2224 -0.1302
    1SOL    HW2 1614   1.795   2.510   0.559  0.1109 -0.3882 -0.1333
    1SOL    HW3 1615   1.778   2.620   0.457 -0.1631 -0.1684  0.1483
    1SOL    MW4 1616   1.798   2.538   0.477 -0.2047 -0.2372 -0.0938
    1SOL     OW 1617   2.677   1.105   0.809  0.1769 -0.4079 -0.4126
    1SOL    HW2 1618   2.755   1.152   0.779  0.2531  0.4999  1.1436
    1SOL    HW3 1619   2.604   1.164   0.790  0.1356 -0.2049  0.3475
    1SOL    MW4 1620   2.678   1.119   0.803  0.1817 -0.2613 -0.1069
    1SOL     OW 1621   2.950   2.326   0.831  0.1540  0.0337 -0.3801
    1SOL    HW2 1622   2.942   2.363   0.918 -0.7584  0.1577 -0.5029
    1SOL    HW3 1623   2.939   2.232   0.843  1.3423 -0.0911 -0.2070
    1SOL    MW4 1624   2.947   2.319   0.844  0.1905  0.0336 -0.3735
    1SOL     OW 1625   2.685   2.428   0.747  0.2096 -0.3135 -0.8136
    1SOL    HW2 1626   2.772   2.390   0.760  0.0008 -0.5578 -0.0971
    1SOL    HW3 1627   2.692   2.517   0.782 -0.3390 -0.9543  0.9829
    1SOL    MW4 1628   2.697   2.435   0.754  0.1097 -0.4303 -0.4821
    1SOL     OW 1629   2.697   2.688   0.847  0.0243  0.1208  0.2342
    1SOL    HW2 1630   2.779   2.726   0.812 -0.3093  0.2836 -0.3846
    1SOL    HW3 1631   2.710   2.687   0.942  0.6798  0.3087  0.1525
    1SOL    MW4 1632   2.710   2.693   0.855  0.0668  0.1669  0.1419
    1SOL     OW 1633   1.157   1.280   0.764 -0.2640 -0.0756  0.1670
    1SOL    HW2 1634   1.088   1.219   0.792 -0.6371 -0.7811 -2.1712
    1SOL    HW3 1635   1.134   1.301   0.674  2.1984  0.2466 -0.4005
    1SOL    MW4 1636   1.145   1.275   0.756  0.0114 -0.1261 -0.2163
    1SOL     OW 1637   1.485   1.164   0.303  0.0875 -0.7729  0.0870
    1SOL    HW2 1638   1.567   1.193   0.263 -1.0159 -1.5571 -2.9365
    1SOL    HW3 1639   1.495   1.069   0.313  0.0735 -0.6797  1.0127
    1SOL    MW4 1640   1.497   1.155   0.299 -0.0598 -0.8640 -0.1898
    1SOL     OW 1641   2.467   3.071   0.891 -0.3178 -0.4312 -0.4258
    1SOL    HW2 1642   2.537   3.123   0.851 -0.4321 -0.0090 -0.0755
    1SOL    HW3 1643   2.489   3.066   0.983 -1.1976  0.4398 -0.1530
    1SOL    MW4 1644   2.479   3.077   0.898 -0.4489 -0.2606 -0.3435
    1SOL     OW 1645   2.670   3.453   0.858 -0.0459 -0.1571  0.3457
    1SOL    HW2 1646   2.744   3.500   0.819 -0.1554 -1.0201 -0.9294
    1SOL    HW3 1647   2.688   3.454   0.952  1.1554  0.3875  0.1177
    1SOL    MW4 1648   2.682   3.459   0.865  0.0982 -0.1991  0.1473
    1SOL     OW 1649   2.916   3.592   0.751  0.0538 -0.2174  0.0201
    1SOL    HW2 1650   2.991   3.537   0.773  0.6972  0.0589 -1.4304
    1SOL    HW3 1651   2.935   3.676   0.792  0.4135 -0.2260 -0.1299
    1SOL    MW4 1652   2.928   3.595   0.760  0.1860 -0.1822 -0.1910
    1SOL     OW 1653   2.650   3.082   0.304  0.3660  0.0540 -0.1351
    1SOL    HW2 1654   2.585   3.015   0.324 -0.1483  1.1186  1.8801
    1SOL    HW3 1655   2.600   3.154   0.267  0.4391  0.6454  0.8787
    1SOL    MW4 1656   2.635   3.082   0.302  0.3078  0.2723  0.2645
    1SOL     OW 1657   0.535   4.544   0.603 -0.5982  0.2630 -0.0237
    1SOL    HW2 1658   0.585   4.512   0.679  0.1639 -0.2848 -0.7439
    1SOL    HW3 1659   0.600   4.586   0.547 -0.8656 -0.8305 -1.1723
    1SOL    MW4 1660   0.550   4.545   0.606 -0.5329  0.0467 -0.2702
    1SOL     OW 1661   2.686   3.974   0.772 -0.0959 -0.2679  0.0408
    1SOL    HW2 1662   2.672   4.067   0.789 -0.6107 -0.4170  0.4100
    1SOL    HW3 1663   2.600   3.933   0.784 -0.3958 -0.4386 -2.4524
    1SOL    MW4 1664   2.673   3.981   0.776 -0.2036 -0.3102 -0.2396
    1SOL     OW 1665   2.902   1.231   0.711  0.4503 -0.2503 -0.0244
    1SOL    HW2 1666   2.896   1.319   0.747  0.6542  0.2423 -1.1781
    1SOL    HW3 1667   2.988   1.199   0.739  0.1197 -0.3173  0.9116
    1SOL    MW4 1668   2.913   1.238   0.719  0.4332 -0.1940 -0.0532
    1SOL     OW 1669   1.993   0.506   0.733 -0.0700 -0.2279 -0.0490
    1SOL    HW2 1670   1.913   0.466   0.767 -0.2914 -0.4827 -0.8508
    1SOL    HW3 1671   1.996   0.592   0.775 -0.5733 -0.3625  0.2706
    1SOL    MW4 1672   1.983   0.512   0.743 -0.1657 -0.2793 -0.1126
    1SOL     OW 1673   2.379   0.272   0.334 -0.6176 -0.6389  0.0567
    1SOL    HW2 1674   2.398   0.357   0.373 -0.2714 -0.3172 -0.7892
    1SOL    HW3 1675   2.453   0.217   0.360  0.1044 -0.1600 -0.9109
    1SOL    MW4 1676   2.391   0.276   0.343 -0.4768 -0.5333 -0.1826
    1SOL     OW 1677   1.093   2.164   0.444 -0.4878  0.0135 -0.2847
    1SOL    HW2 1678   1.147   2.222   0.391  0.0298 -0.1401  0.0653
    1SOL    HW3 1679   1.148   2.141   0.519 -0.6891 -0.8943 -0.3978
    1SOL    MW4 1680   1.107   2.168   0.447 -0.4461 -0.1266 -0.2534
    1SOL     OW 1681   3.154   0.368   0.860  0.4636  0.1116 -0.4005
    1SOL    HW2 1682   3.125   0.386   0.949  0.7248 -2.2390  0.1933
    1SOL    HW3 1683   3.241   0.407   0.854 -0.3334  1.9559 -0.2699
    1SOL    MW4 1684   3.162   0.376   0.871  0.3929  0.0448 -0.3049
    1SOL     OW 1685   2.485   2.077   0.468 -0.5386 -0.0297 -0.2928
    1SOL    HW2 1686   2.573   2.099   0.437  0.1828 -0.2432  1.5196
    1SOL    HW3 1687   2.448   2.024   0.398  1.2101 -0.8753 -0.6149
    1SOL    MW4 1688   2.492   2.073   0.455 -0.2127 -0.1695 -0.0962
    1SOL     OW 1689   2.433   0.492   0.724  0.1086 -0.4280  0.0312
    1SOL    HW2 1690   2.357   0.461   0.773  0.0464  0.6430  0.6278
    1SOL    HW3 1691   2.507   0.446   0.762  0.0031  0.0518  0.8271
    1SOL    MW4 1692   2.433   0.482   0.735  0.0868 -0.2234  0.2149
    1SOL     OW 1693   3.845   4.292   0.743  0.2894 -0.2772  0.1919
    1SOL    HW2 1694   3.756   4.265   0.766  0.0157  0.9048  0.5119
    1SOL    HW3 1695   3.841   4.309   0.649  0.2095 -0.3186  0.1876
    1SOL    MW4 1696   3.833   4.290   0.733  0.2425 -0.1268  0.2336
    1SOL     OW 1697   3.343   1.492   0.757 -0.2846  0.5853  0.2592
    1SOL    HW2 1698   3.258   1.535   0.747 -0.1673  0.9668  0.8632
    1SOL    HW3 1699   3.363   1.500   0.851  1.0456  1.6588 -0.1091
    1SOL    MW4 1700   3.334   1.499   0.768 -0.0935  0.7772  0.2902
    1SOL     OW 1701   2.218   0.904   0.717 -0.2589  0.1654 -0.0361
    1SOL    HW2 1702   2.205   0.889   0.624 -0.0790  0.1147 -0.0542
    1SOL    HW3 1703   2.295   0.852   0.739 -0.2988  0.1800  0.1400
    1SOL    MW4 1704   2.227   0.896   0.708 -0.2406  0.1606 -0.0153
    1SOL     OW 1705   3.848   1.095   0.390 -0.6557 -0.0593  0.2636
    1SOL    HW2 1706   3.766   1.046   0.398 -0.5056 -0.4305 -0.4548
    1SOL    HW3 1707   3.839   1.146   0.310 -0.3346  0.1810  0.3782
    1SOL    MW4 1708   3.836   1.095   0.381 -0.5937 -0.0765  0.1839
    1SOL     OW 1709   3.247   2.399   0.480  0.8668 -0.1254  0.0008
    1SOL    HW2 1710   3.240   2.305   0.465 -2.0213  0.0616 -0.1751
    1SOL    HW3 1711   3.214   2.411   0.569 -0.7950  0.9255 -0.7387
    1SOL    MW4 1712   3.242   2.388   0.489  0.2661  0.0381 -0.1200
    1SOL     OW 1713   1.564   3.842   0.810  0.5578 -0.2113  0.0091
    1SOL    HW2 1714   1.473   3.868   0.799  0.1015 -0.7597  2.1569
    1SOL    HW3 1715   1.569   3.755   0.771  0.6931  0.6679 -1.9911
    1SOL    MW4 1716   1.553   3.834   0.804  0.5155 -0.1676  0.0286
    1SOL     OW 1717   3.858   0.190   0.489 -0.1839  1.0323  0.4087
    1SOL    HW2 1718   3.842   0.284   0.487 -1.3472  0.8340 -2.8757
    1SOL    HW3 1719   3.771   0.150   0.484  0.4048 -0.1701 -0.7398
    1SOL    MW4 1720   3.844   0.197   0.488 -0.2596  0.8475 -0.1761
    1SOL     OW 1721   3.794   2.512   0.383 -0.3686  0.3609 -0.7391
    1SOL    HW2 1722   3.794   2.527   0.289 -0.3091  1.7408 -0.5330
    1SOL    HW3 1723   3.701   2.506   0.407 -0.3582 -1.8713 -1.1490
    1SOL    MW4 1724   3.782   2.514   0.374 -0.3593  0.2484 -0.7660
    1SOL     OW 1725   2.925   2.824   0.750  0.0542 -0.6876  0.3597
    1SOL    HW2 1726   3.006   2.781   0.777  0.4535 -0.6691 -0.8035
    1SOL    HW3 1727   2.938   2.845   0.658 -0.7537  0.5355  0.5140
    1SOL    MW4 1728   2.937   2.821   0.741  0.0002 -0.5238  0.2266
    1SOL     OW 1729   1.770   1.691   0.766 -0.0250 -0.1109 -0.0211
    1SOL    HW2 1730   1.699   1.656   0.820  0.4679 -0.9267  0.1053
    1SOL    HW3 1731   1.849   1.649   0.800  0.5253  0.8224 -0.1355
    1SOL    MW4 1732   1.771   1.681   0.778  0.1125 -0.0954 -0.0194
    1SOL     OW 1733   1.349   3.243   0.481  0.1197 -0.0134 -0.2794
    1SOL    HW2 1734   1.424   3.233   0.422  0.4332 -0.5221  0.1987
    1SOL    HW3 1735   1.318   3.332   0.466  1.7871  0.7595  0.6637
    1SOL    MW4 1736   1.355   3.253   0.471  0.3811  0.0212 -0.0919
    1SOL     OW 1737   3.122   3.173   0.774 -0.1793 -0.2867  0.6138
    1SOL    HW2 1738   3.041   3.147   0.817 -1.0413  1.0857 -0.1499
    1SOL    HW3 1739   3.129   3.115   0.698  0.0972 -1.1011  1.2602
    1SOL    MW4 1740   3.112   3.162   0.770 -0.2568 -0.2129  0.5984
    1SOL     OW 1741   3.163   3.466   0.796  0.0764 -0.1652  0.4900
    1SOL    HW2 1742   3.150   3.371   0.791 -0.4316 -0.0532 -0.5306
    1SOL    HW3 1743   3.154   3.487   0.889 -0.2254 -1.0547  0.6670
    1SOL    MW4 1744   3.160   3.456   0.808 -0.0305 -0.2677  0.3787
    1SOL     OW 1745   3.390   3.730   0.464  0.1536  0.3233  0.2717
    1SOL    HW2 1746   3.470   3.783   0.471 -0.5850  1.4534  0.1997
    1SOL    HW3 1747   3.384   3.685   0.548  0.2351  1.1243  0.7052
    1SOL    MW4 1748   3.400   3.731   0.476  0.0668  0.5779  0.3194
    1SOL     OW 1749   3.591   3.956   0.733 -0.5947 -0.3372 -0.0925
    1SOL    HW2 1750   3.522   3.901   0.770 -0.7003  0.8771  1.5853
    1SOL    HW3 1751   3.670   3.930   0.780 -0.6449  0.9004  0.7186
    1SOL    MW4 1752   3.592   3.945   0.744 -0.6154 -0.0136  0.2359
    1SOL     OW 1753   4.256   0.525   0.475 -0.4408  0.2568  0.2053
    1SOL    HW2 1754   4.267   0.430   0.467  0.9087  0.4624 -0.6501
    1SOL    HW3 1755   4.337   0.561   0.438 -1.0025  1.7447  0.3991
    1SOL    MW4 1756   4.268   0.517   0.469 -0.3366  0.4802  0.1180
    1SOL     OW 1757   3.121   4.226   0.849 -0.0179 -0.6901  0.6252
    1SOL    HW2 1758   3.045   4.266   0.808 -0.4717 -0.6173  1.5139
    1SOL    HW3 1759   3.129   4.140   0.807 -0.5693 -0.6822  0.5029
    1SOL    MW4 1760   3.112   4.220   0.838 -0.1504 -0.6795  0.7263
    1SOL     OW 1761   3.198   0.826   0.442  0.3330  0.1584 -0.0855
    1SOL    HW2 1762   3.163   0.806   0.529  0.0469 -1.0922 -0.4926
    1SOL    HW3 1763   3.160   0.911   0.420  0.1420  0.3253  0.8655
    1SOL    MW4 1764   3.189   0.835   0.451  0.2701  0.0154 -0.0138
    1SOL     OW 1765   2.006   1.556   0.827 -0.1642 -0.0817  0.6239
    1SOL    HW2 1766   2.013   1.464   0.800 -2.0276 -0.0623  0.0062
    1SOL    HW3 1767   2.069   1.602   0.772  0.3023 -0.9012  0.4672
    1SOL    MW4 1768   2.015   1.550   0.816 -0.3486 -0.1873  0.5217
    1SOL     OW 1769   3.127   0.092   0.802  0.6702  0.3188  0.4352
    1SOL    HW2 1770   3.146   0.183   0.827  0.0937  0.3235  0.8799
    1SOL    HW3 1771   3.199   0.041   0.839  1.2930  0.6554 -0.2940
    1SOL    MW4 1772   3.139   0.097   0.810  0.6764  0.3639  0.3976
    1SOL     OW 1773   3.609   0.330   0.890  0.4487  0.1738 -0.1235
    1SOL    HW2 1774   3.698   0.358   0.868  0.1431  0.6266 -0.8265
    1SOL    HW3 1775   3.604   0.336   0.985  1.2151  0.0048 -0.0682
    1SOL    MW4 1776   3.621   0.335   0.899  0.5097  0.2112 -0.2089
    1SOL     OW 1777   0.697   0.562   0.754 -0.0809  0.3176 -0.1439
    1SOL    HW2 1778   0.615   0.522   0.782 -0.5547  1.3369 -0.0173
    1SOL    HW3 1779   0.765   0.517   0.804 -0.4114 -1.5630 -1.3530
    1SOL    MW4 1780   0.695   0.551   0.765 -0.1869  0.2040 -0.2868
    1SOL     OW 1781   3.790   0.718   0.834  0.5498  0.0866 -0.1589
    1SOL    HW2 1782   3.792   0.727   0.929  0.3349 -0.5806 -0.0880
    1SOL    HW3 1783   3.850   0.785   0.803 -0.5464  1.3359  0.3639
    1SOL    MW4 1784   3.798   0.728   0.843  0.3769  0.1633 -0.0805
    1SOL     OW 1785   1.505   1.802   0.371 -0.1756 -0.1595  0.2823
    1SOL    HW2 1786   1.424   1.774   0.415 -0.3948  1.3085  0.8519
    1SOL    HW3 1787   1.571   1.739   0.401 -1.2691 -1.9050 -0.8721
    1SOL    MW4 1788   1.503   1.790   0.381 -0.3488 -0.1960  0.2052
    1SOL     OW 1789   3.910   1.446   0.787  0.1380 -0.2194 -0.1803
    1SOL    HW2 1790   3.974   1.376   0.797 -0.9192 -1.1730  0.0652
    1SOL    HW3 1791   3.850   1.414   0.720 -0.1046  0.6479 -0.3888
    1SOL    MW4 1792   3.910   1.433   0.779 -0.0334 -0.2309 -0.1754
    1SOL     OW 1793   2.760   2.083   0.378  0.2111  0.5402 -0.2653
    1SOL    HW2 1794   2.748   1.990   0.363 -0.8123  0.7277 -0.6284
    1SOL    HW3 1795   2.838   2.088   0.434  0.4506 -0.5029 -0.4914
    1SOL    MW4 1796   2.769   2.071   0.384  0.1075  0.4272 -0.3430
    1SOL     OW 1797   4.267   2.806   0.742  0.0827 -0.2852 -0.2829
    1SOL    HW2 1798   4.351   2.772   0.771  1.1622  2.1383 -0.4478
    1SOL    HW3 1799   4.254   2.886   0.793 -1.9587 -0.4328 -0.5076
    1SOL    MW4 1800   4.276   2.812   0.752 -0.0439  0.0153 -0.3343
    1SOL     OW 1801   1.073   0.492   0.698  0.0931  0.3290 -0.6172
    1SOL    HW2 1802   1.157   0.460   0.732 -0.6072 -1.0546 -0.1579
    1SOL    HW3 1803   1.007   0.442   0.746 -1.1071  3.8330  1.5470
    1SOL    MW4 1804   1.076   0.481   0.709 -0.1576  0.6087 -0.2711
    1SOL     OW 1805   3.514   2.528   0.466 -0.0193 -0.5716  0.1342
    1SOL    HW2 1806   3.440   2.469   0.450 -0.0019 -0.6017  0.1642
    1SOL    HW3 1807   3.545   2.504   0.553 -0.6856  0.2012  0.5943
    1SOL    MW4 1808   3.508   2.517   0.475 -0.1051 -0.4735  0.1988
    1SOL     OW 1809   3.411   2.320   0.866 -0.7488 -0.1848 -0.1277
    1SOL    HW2 1810   3.390   2.298   0.957 -0.6832  0.4020  0.0295
    1SOL    HW3 1811   3.386   2.242   0.817 -0.5614 -0.5987  0.4232
    1SOL    MW4 1812   3.405   2.307   0.872 -0.7153 -0.1621 -0.0343
    1SOL     OW 1813   3.824   2.341   1.140 -0.2188 -0.3124  0.3878
    1SOL    HW2 1814   3.913   2.372   1.159  0.5281 -1.9138 -0.4172
    1SOL    HW3 1815   3.821   2.334   1.045 -1.1410 -0.5082  0.4289
    1SOL    MW4 1816   3.836   2.344   1.130 -0.2420 -0.5498  0.2869
    1SOL     OW 1817   1.780   2.051   0.339 -0.1243  0.1415  0.3468
    1SOL    HW2 1818   1.813   2.120   0.281  0.4965  1.2083  1.9501
    1SOL    HW3 1819   1.852   2.033   0.399  0.6270 -3.7215 -1.6025
    1SOL    MW4 1820   1.794   2.058   0.339  0.0566 -0.2277  0.3011
    1SOL     OW 1821   3.605   2.705   0.836 -0.1616  0.3184 -0.0861
    1SOL    HW2 1822   3.598   2.697   0.931 -0.9874 -0.8055 -0.2279
    1SOL    HW3 1823   3.689   2.748   0.822  0.5905 -0.7310  1.0994
    1SOL    MW4 1824   3.615   2.709   0.847 -0.1714  0.0317  0.0516
    1SOL     OW 1825   2.035   3.412   0.380  0.1468  0.1645  0.2394
    1SOL    HW2 1826   2.119   3.375   0.353 -0.0260  1.5097 -2.3120
    1SOL    HW3 1827   2.055   3.503   0.400 -0.4181  0.0790  1.1861
    1SOL    MW4 1828   2.049   3.419   0.379  0.0491  0.3307  0.0277
    1SOL     OW 1829   3.791   3.084   0.863 -0.0563  0.3225 -0.2974
    1SOL    HW2 1830   3.716   3.131   0.826  0.5598 -0.4849 -2.6574
    1SOL    HW3 1831   3.788   2.997   0.823  2.4294  0.4551 -0.8654
    1SOL    MW4 1832   3.781   3.079   0.853  0.3531  0.2337 -0.6837
    1SOL     OW 1833   4.101   2.669   0.371  0.1891 -0.3561 -0.2066
    1SOL    HW2 1834   4.047   2.716   0.435  0.7612  0.4771 -0.3273
    1SOL    HW3 1835   4.137   2.595   0.419 -0.3388 -0.4105  0.1144
    1SOL    MW4 1836   4.099   2.665   0.386  0.1950 -0.2534 -0.1802
    1SOL     OW 1837   3.584   3.213   0.713 -0.1890 -0.0277  0.2354
    1SOL    HW2 1838   3.574   3.195   0.620 -0.1869 -0.0894  0.2472
    1SOL    HW3 1839   3.506   3.177   0.754 -1.1354  1.7130  0.0257
    1SOL    MW4 1840   3.573   3.206   0.706 -0.3135  0.1936  0.2092
    1SOL     OW 1841   4.170   3.952   0.250 -0.1262  0.2507 -0.1424
    1SOL    HW2 1842   4.203   3.865   0.226  0.0889  0.1781  0.4165
    1SOL    HW3 1843   4.077   3.950   0.224 -0.0434 -0.0337 -0.4225
    1SOL    MW4 1844   4.162   3.940   0.243 -0.0868  0.2036 -0.1056
    1SOL     OW 1845   3.804   3.610   0.814  0.3309  0.4450 -0.2029
    1SOL    HW2 1846   3.883   3.557   0.824 -0.4701 -0.7711 -0.2379
    1SOL    HW3 1847   3.796   3.623   0.719 -1.3738 -2.3635 -0.5177
    1SOL    MW4 1848   3.813   3.605   0.802  0.0005 -0.0858 -0.2490
    1SOL     OW 1849   0.718   1.999   0.498 -0.2931 -0.1489 -0.3253
    1SOL    HW2 1850   0.652   1.930   0.489 -1.8782  1.4551 -1.2443
    1SOL    HW3 1851   0.795   1.964   0.453 -1.3421 -0.9940 -1.5258
    1SOL    MW4 1852   0.719   1.985   0.491 -0.6406 -0.0488 -0.6050
    1SOL     OW 1853   2.228   3.442   0.836  0.1167 -0.2393  0.3440
    1SOL    HW2 1854   2.247   3.358   0.795  0.2687 -0.5222  0.9830
    1SOL    HW3 1855   2.292   3.502   0.798 -0.1055 -0.3741 -0.2449
    1SOL    MW4 1856   2.239   3.439   0.826  0.1073 -0.2942  0.3507
    1SOL     OW 1857   0.831   4.426   0.365  0.3768 -0.1454 -0.2442
    1SOL    HW2 1858   0.826   4.430   0.269 -0.5475 -1.1992 -0.2522
    1SOL    HW3 1859   0.808   4.514   0.394 -1.0131 -0.2614 -0.9458
    1SOL    MW4 1860   0.827   4.438   0.356  0.0714 -0.2995 -0.3378
    1SOL     OW 1861   4.367   4.642   0.871 -0.9730  0.0239 -0.2255
    1SOL    HW2 1862   4.332   4.655   0.960  0.2194  0.9961  0.1260
    1SOL    HW3 1863   4.330   4.714   0.820  0.1882  0.8423  0.0610
    1SOL    MW4 1864   4.358   4.653   0.876 -0.6628  0.2599 -0.1413
    1SOL     OW 1865   3.584   0.051   0.826 -0.2155 -0.0533 -0.0353
    1SOL    HW2 1866   3.589   0.143   0.851 -0.6019 -0.5149  1.8653
    1SOL    HW3 1867   3.664   0.012   0.861 -0.0001 -0.4184 -0.9257
    1SOL    MW4 1868   3.595   0.058   0.834 -0.2382 -0.1624  0.0980
    1SOL     OW 1869   4.073   0.119   0.325  0.1212 -0.3230  0.1774
    1SOL    HW2 1870   3.992   0.154   0.363  0.4907  0.9081 -0.1226
    1SOL    HW3 1871   4.056   0.117   0.231  1.0043  1.4977 -0.0380
    1SOL    MW4 1872   4.060   0.124   0.318  0.2861  0.0796  0.1094
    1SOL     OW 1873   0.007   2.708   0.857  0.2428 -0.3141  0.0712
    1SOL    HW2 1874   0.021   2.715   0.951 -0.0518  1.1143  0.0150
    1SOL    HW3 1875   0.089   2.741   0.818  0.4325 -1.0602 -0.1819
    1SOL    MW4 1876   0.020   2.713   0.864  0.2290 -0.2239  0.0304
    1SOL     OW 1877   4.187   0.803   0.866 -0.2850  0.5789  0.0491
    1SOL    HW2 1878   4.212   0.785   0.957 -0.0662  1.7816  0.2360
    1SOL    HW3 1879   4.205   0.721   0.820  1.1400  0.4617  0.7845
    1SOL    MW4 1880   4.193   0.790   0.872 -0.0682  0.7221  0.1708
    1SOL     OW 1881   4.294   3.463   0.389 -0.2567  0.2456 -0.2082
    1SOL    HW2 1882   4.358   3.534   0.400  1.0748 -0.8689 -0.5430
    1SOL    HW3 1883   4.338   3.386   0.425 -0.7427 -0.8856 -1.9930
    1SOL    MW4 1884   4.309   3.462   0.395 -0.1454 -0.0508 -0.4878
    1SOL     OW 1885   1.360   1.661   0.742  0.4395 -0.4162  0.1757
    1SOL    HW2 1886   1.427   1.613   0.789 -0.7708 -2.6501 -0.3233
    1SOL    HW3 1887   1.360   1.623   0.654 -1.5868 -0.5689  0.2208
    1SOL    MW4 1888   1.369   1.650   0.737  0.0125 -0.7311  0.1158
    1SOL     OW 1889   2.227   4.318   0.813 -0.2870  0.2238 -0.6358
    1SOL    HW2 1890   2.140   4.347   0.786  0.2527  1.2786 -1.2494
    1SOL    HW3 1891   2.231   4.226   0.785 -1.1500  0.2044 -0.7156
    1SOL    MW4 1892   2.216   4.310   0.806 -0.3297  0.3610 -0.7273
    1SOL     OW 1893   4.302   1.526   0.821 -0.4631 -0.0392 -0.4447
    1SOL    HW2 1894   4.280   1.437   0.793  1.2205 -0.7806  0.4820
    1SOL    HW3 1895   4.279   1.528   0.914  2.0016 -0.4259  0.2252
    1SOL    MW4 1896   4.296   1.514   0.830  0.0839 -0.1881 -0.2341
    1SOL     OW 1897   0.943   1.124   0.843  0.0642 -0.6688 -0.9033
    1SOL    HW2 1898   0.883   1.188   0.803  0.1611  0.2039  0.3153
    1SOL    HW3 1899   0.943   1.050   0.782 -1.2692 -0.1543 -1.5534
    1SOL    MW4 1900   0.935   1.123   0.830 -0.0989 -0.4858 -0.8283
    1SOL     OW 1901   1.110   4.385   0.470 -0.5237 -0.2128  0.2677
    1SOL    HW2 1902   1.136   4.300   0.435 -0.6062  0.0842 -0.5485
    1SOL    HW3 1903   1.020   4.396   0.439 -1.2978 -0.8078  2.2450
    1SOL    MW4 1904   1.101   4.375   0.461 -0.6367 -0.2527  0.4209
    1SOL     OW 1905   4.021   3.199   0.753 -0.0503 -0.1977  0.3794
    1SOL    HW2 1906   3.932   3.177   0.783 -0.9553  1.0197 -1.3253
    1SOL    HW3 1907   4.020   3.180   0.660  1.4410 -0.0001  0.3228
    1SOL    MW4 1908   4.009   3.193   0.745  0.0272 -0.0112  0.1470
    1SOL     OW 1909   0.241   2.310   1.178 -0.2014  0.1892  0.0668
    1SOL    HW2 1910   0.170   2.366   1.209 -0.6667 -0.6822  0.5907
    1SOL    HW3 1911   0.320   2.348   1.218 -0.5681  0.2124  0.7802
    1SOL    MW4 1912   0.242   2.322   1.188 -0.3112  0.0772  0.2300
    1SOL     OW 1913   1.993   3.845   0.848 -0.6998  0.6916 -0.1154
    1SOL    HW2 1914   2.015   3.833   0.941  0.9734  0.8363 -0.4920
    1SOL    HW3 1915   2.005   3.759   0.809 -2.4769  0.3639 -0.0114
    1SOL    MW4 1916   1.997   3.832   0.855 -0.7135  0.6676 -0.1513
    1SOL     OW 1917   3.865   2.813   0.785  0.3073  0.1113 -0.2180
    1SOL    HW2 1918   3.938   2.766   0.826  0.3242 -0.6077 -1.0650
    1SOL    HW3 1919   3.869   2.789   0.693 -1.8167 -1.0089 -0.0410
    1SOL    MW4 1920   3.876   2.804   0.778  0.0291 -0.1314 -0.3064
    1SOL     OW 1921   0.943   1.970   0.849  0.4730  0.4510 -0.3930
    1SOL    HW2 1922   0.855   1.998   0.823  0.4108  0.3918 -0.2432
    1SOL    HW3 1923   0.941   1.969   0.944  0.0726 -1.3071 -0.3984
    1SOL    MW4 1924   0.931   1.973   0.858  0.4120  0.2114 -0.3740
    1SOL     OW 1925   2.341   0.718   0.330  0.1474  0.1570 -0.0304
    1SOL    HW2 1926   2.282   0.686   0.261  0.2202  0.4436 -0.2258
    1SOL    HW3 1927   2.371   0.638   0.374 -1.1284  0.0634  0.6926
    1SOL    MW4 1928   2.337   0.703   0.327 -0.0114  0.1824  0.0392
    1SOL     OW 1929   3.853   2.004   0.512  0.5365 -0.4993  0.3040
    1SOL    HW2 1930   3.899   2.084   0.489  1.1003 -0.5961  1.0916
    1SOL    HW3 1931   3.920   1.935   0.507  0.7859 -0.4752  2.5835
    1SOL    MW4 1932   3.868   2.005   0.508  0.6437 -0.5088  0.7086
    1SOL     OW 1933   3.592   3.456   0.862 -0.1188  0.1748 -0.1198
    1SOL    HW2 1934   3.666   3.504   0.826 -2.0701  1.1573 -3.0368
    1SOL    HW3 1935   3.596   3.370   0.820 -0.1510 -0.0582  0.3525
    1SOL    MW4 1936   3.602   3.451   0.852 -0.3805  0.2735 -0.4423
    1SOL     OW 1937   4.278   3.811   0.873  0.3793 -0.2211  0.2293
    1SOL    HW2 1938   4.219   3.882   0.851  0.4049 -0.1441  0.4079
    1SOL    HW3 1939   4.287   3.816   0.968  0.3752 -0.4666  0.2432
    1SOL    MW4 1940   4.272   3.821   0.883  0.3819 -0.2429  0.2548
    1SOL     OW 1941   0.344   1.047   0.335 -0.0019 -0.6599 -0.7161
    1SOL    HW2 1942   0.331   1.064   0.242  0.1319 -0.3762 -0.6814
    1SOL    HW3 1943   0.389   1.124   0.368 -0.7466 -0.4161 -0.2503
    1SOL    MW4 1944   0.348   1.059   0.327 -0.0825 -0.5903 -0.6501
    1SOL     OW 1945   3.831   3.880   0.860 -0.0440 -0.4933  0.2615
    1SOL    HW2 1946   3.922   3.907   0.847  0.0687 -1.0162 -0.0367
    1SOL    HW3 1947   3.832   3.785   0.845 -0.7131 -0.4343 -0.1354
    1SOL    MW4 1948   3.843   3.871   0.856 -0.1173 -0.5543  0.1698
    1SOL     OW 1949   4.000   0.011   0.659  0.3395 -0.4128 -0.4470
    1SOL    HW2 1950   4.010  -0.069   0.607 -0.3322 -0.2877 -0.7677
    1SOL    HW3 1951   3.955   0.072   0.602  1.0003  0.2557 -0.2518
    1SOL    MW4 1952   3.995   0.008   0.645  0.3383 -0.3081 -0.4636
    1SOL     OW 1953   3.839   4.564   0.851  0.1498 -0.4669  0.1840
    1SOL    HW2 1954   3.837   4.470   0.832  0.6305 -0.3136 -0.6520
    1SOL    HW3 1955   3.889   4.602   0.779 -1.6789  0.6754 -0.5362
    1SOL    MW4 1956   3.845   4.556   0.839 -0.0281 -0.2956 -0.0213
    1SOL     OW 1957   0.193   4.608   1.155  0.4286 -0.4970 -0.0029
    1SOL    HW2 1958   0.269   4.657   1.187 -0.0781 -0.2041  0.7879
    1SOL    HW3 1959   0.194   4.621   1.060  0.9387  0.1275  0.0785
    1SOL    MW4 1960   0.203   4.616   1.147  0.4291 -0.3762  0.1122
    1SOL     OW 1961   0.006   0.142   1.187  0.2754 -0.1199 -0.0725
    1SOL    HW2 1962  -0.073   0.095   1.160 -0.2811 -0.3066  1.8357
    1SOL    HW3 1963   0.076   0.076   1.179  0.3848  0.2539 -2.4624
    1SOL    MW4 1964   0.005   0.127   1.182  0.2164 -0.0952 -0.1360
    1SOL     OW 1965   0.028   0.400   1.076 -0.1720 -0.2386 -0.1294
    1SOL    HW2 1966  -0.059   0.437   1.095 -0.1135 -0.0378 -0.2509
    1SOL    HW3 1967   0.017   0.306   1.090 -0.1402 -0.0994  0.8653
    1SOL    MW4 1968   0.015   0.392   1.081 -0.1601 -0.1937 -0.0143
    1SOL     OW 1969   0.220   0.487   1.245 -0.2476 -0.3238 -0.2669
    1SOL    HW2 1970   0.241   0.579   1.226 -0.4933 -0.2940 -0.3982
    1SOL    HW3 1971   0.142   0.469   1.193 -0.7607 -0.3311  0.4946
    1SOL    MW4 1972   0.213   0.497   1.236 -0.3477 -0.3209 -0.1837
    1SOL     OW 1973   0.233   0.741   1.161 -0.2313  0.2913  0.1199
    1SOL    HW2 1974   0.309   0.788   1.194 -0.1183  0.5951 -0.5653
    1SOL    HW3 1975   0.159   0.782   1.205  0.0400 -0.3817  1.2166
    1SOL    MW4 1976   0.233   0.752   1.171 -0.1806  0.2425  0.1740
    1SOL     OW 1977   4.469   0.901   1.202 -0.4441  0.0045 -0.4389
    1SOL    HW2 1978   4.447   0.916   1.294  1.8350  0.5641  0.0384
    1SOL    HW3 1979   4.486   0.988   1.166 -0.4934 -0.2803 -1.1565
    1SOL    MW4 1980   4.469   0.914   1.210 -0.1499  0.0408 -0.4705
    1SOL     OW 1981   0.029   1.156   1.116 -0.0087 -0.4514  0.3454
    1SOL    HW2 1982  -0.052   1.202   1.136 -0.2301  0.0452 -1.5805
    1SOL    HW3 1983   0.095   1.201   1.169 -0.9079 -0.6447  1.6648
    1SOL    MW4 1984   0.027   1.168   1.126 -0.1565 -0.4114  0.2655
    1SOL     OW 1985   0.244   1.278   1.242 -0.3793 -0.0396  0.1436
    1SOL    HW2 1986   0.229   1.272   1.337  0.3223  0.6231  0.2998
    1SOL    HW3 1987   0.325   1.229   1.228  1.2179  2.4674  0.3422
    1SOL    MW4 1988   0.253   1.270   1.253 -0.0760  0.3785  0.1904
    1SOL     OW 1989   0.239   1.527   1.149  0.0652 -0.0495  0.3909
    1SOL    HW2 1990   0.228   1.434   1.168 -0.0655  0.0137  0.6316
    1SOL    HW3 1991   0.247   1.532   1.054  1.3261 -0.4236  0.4757
    1SOL    MW4 1992   0.238   1.516   1.139  0.2143 -0.0905  0.4339
    1SOL     OW 1993   4.460   1.637   1.192 -0.1897  0.2494 -0.0907
    1SOL    HW2 1994   4.484   1.730   1.185 -0.6466  0.3453 -0.4439
    1SOL    HW3 1995   4.540   1.590   1.169 -0.0222  0.5600 -0.1506
    1SOL    MW4 1996   4.474   1.643   1.188 -0.2279  0.3030 -0.1452
    1SOL     OW 1997   0.017   1.921   1.173 -0.2400  0.0695 -0.1966
    1SOL    HW2 1998  -0.073   1.953   1.184 -1.1104 -2.2913 -0.2777
    1SOL    HW3 1999   0.033   1.928   1.079 -0.5078  0.0060 -0.2467
    1SOL    MW4 2000   0.007   1.926   1.162 -0.3901 -0.2502 -0.2139
    1SOL     OW 2001   0.259   2.036   1.238 -0.1311 -0.4758 -0.0493
    1SOL    HW2 2002   0.254   2.129   1.214 -1.1683 -0.3311  0.6650
    1SOL    HW3 2003   0.178   1.998   1.204 -0.3442 -0.8281  0.8262
    1SOL    MW4 2004   0.248   2.043   1.231 -0.2961 -0.5035  0.1605
    1SOL     OW 2005   0.286   2.301   0.896 -0.2367 -0.0526 -0.2040
    1SOL    HW2 2006   0.220   2.361   0.862  0.1420 -0.6024 -2.0041
    1SOL    HW3 2007   0.277   2.306   0.991 -1.0921  1.8491 -0.3544
    1SOL    MW4 2008   0.276   2.310   0.904 -0.2996  0.1259 -0.4613
    1SOL     OW 2009   4.488   2.463   1.202  0.5575 -0.3251 -0.2108
    1SOL    HW2 2010   4.483   2.459   1.297 -0.1227  0.6459 -0.1924
    1SOL    HW3 2011   4.429   2.394   1.171  1.8882 -1.6058  0.0629
    1SOL    MW4 2012   4.479   2.454   1.210  0.6437 -0.3657 -0.1724
    1SOL     OW 2013   0.020   2.746   1.158 -0.4136 -0.3495  0.0070
    1SOL    HW2 2014  -0.062   2.790   1.181 -1.0173 -1.2770 -0.3534
    1SOL    HW3 2015   0.004   2.653   1.177  0.1887 -0.6828 -1.0903
    1SOL    MW4 2016   0.007   2.739   1.164 -0.4138 -0.5159 -0.1854
    1SOL     OW 2017   0.276   2.812   1.258  0.2223 -0.3510  0.0743
    1SOL    HW2 2018   0.258   2.819   1.352  1.7756 -0.2576  0.3684
    1SOL    HW3 2019   0.194   2.778   1.221 -0.6948  0.4632  1.3292
    1SOL    MW4 2020   0.263   2.808   1.266  0.3063 -0.2310  0.2787
    1SOL     OW 2021   0.233   3.071   1.140  0.0346 -0.1006 -0.0646
    1SOL    HW2 2022   0.298   3.121   1.191  0.0543  0.3743 -0.5529
    1SOL    HW3 2023   0.243   2.981   1.172  0.9750 -0.0450 -0.1676
    1SOL    MW4 2024   0.243   3.066   1.151  0.1613 -0.0305 -0.1426
    1SOL     OW 2025   0.014   3.203   1.257 -0.4070  0.4840 -0.1767
    1SOL    HW2 2026  -0.066   3.164   1.222 -0.7633  1.9402 -1.0169
    1SOL    HW3 2027   0.085   3.158   1.211 -0.7398 -0.2542  0.0075
    1SOL    MW4 2028   0.013   3.192   1.247 -0.4979  0.5786 -0.2632
    1SOL     OW 2029   0.010   3.467   1.175 -0.0397 -0.0270  0.5269
    1SOL    HW2 2030   0.004   3.372   1.190 -0.0574 -0.0747  0.2349
    1SOL    HW3 2031  -0.012   3.477   1.082  0.8694  0.1602  0.3237
    1SOL    MW4 2032   0.007   3.456   1.165  0.0782 -0.0091  0.4617
    1SOL     OW 2033   0.222   3.593   1.277  0.3015 -0.0397  0.1773
    1SOL    HW2 2034   0.204   3.604   1.371  0.9847  2.4114  0.0365
    1SOL    HW3 2035   0.140   3.558   1.242  0.0051 -0.8962  1.6559
    1SOL    MW4 2036   0.209   3.590   1.285  0.3525  0.1707  0.3539
    1SOL     OW 2037   0.242   3.838   1.156  0.3267  0.1394 -0.0691
    1SOL    HW2 2038   0.162   3.877   1.192 -0.0072 -0.0916 -0.5540
    1SOL    HW3 2039   0.251   3.755   1.203  0.9163  0.6918  0.8069
    1SOL    MW4 2040   0.232   3.833   1.167  0.3604  0.1817 -0.0174
    1SOL     OW 2041   0.025   3.964   1.279 -0.2010  0.1651 -0.7611
    1SOL    HW2 2042   0.012   3.991   1.371  0.7223  0.0176 -0.5854
    1SOL    HW3 2043  -0.060   3.929   1.253 -0.2658 -0.4641  0.2652
    1SOL    MW4 2044   0.012   3.963   1.288 -0.0882  0.0627 -0.6025
    1SOL     OW 2045   0.037   4.230   1.154  0.0998 -0.0212 -0.0272
    1SOL    HW2 2046   0.116   4.262   1.198  0.1746  0.2542 -0.3593
    1SOL    HW3 2047   0.035   4.136   1.174  0.6878 -0.0950 -0.2947
    1SOL    MW4 2048   0.047   4.222   1.162  0.1873  0.0057 -0.1063
    1SOL     OW 2049   0.285   4.369   1.265 -0.0433  0.5477 -0.1472
    1SOL    HW2 2050   0.280   4.400   1.355  0.6926  1.0128 -0.2580
    1SOL    HW3 2051   0.259   4.445   1.213  1.5986  0.9508 -0.4167
    1SOL    MW4 2052   0.281   4.383   1.270  0.2704  0.6618 -0.1973
    1SOL     OW 2053   0.632   4.638   1.167  0.5809 -0.2141 -0.8181
    1SOL    HW2 2054   0.709   4.691   1.189  1.1412 -1.1175 -0.5823
    1SOL    HW3 2055   0.648   4.554   1.209 -1.0054 -0.0863  0.0733
    1SOL    MW4 2056   0.644   4.634   1.175  0.4455 -0.3166 -0.6694
    1SOL     OW 2057   0.393   0.107   1.230  0.0497 -0.1735  0.3662
    1SOL    HW2 2058   0.404   0.188   1.180 -1.4519  0.1657  0.5659
    1SOL    HW3 2059   0.469   0.053   1.206  0.7855  1.0756 -0.1610
    1SOL    MW4 2060   0.405   0.110   1.221 -0.0514  0.0360  0.3232
    1SOL     OW 2061   2.404   2.193   0.162 -0.0298  0.3099  0.1685
    1SOL    HW2 2062   2.350   2.271   0.168  1.0047  1.2006 -1.6509
    1SOL    HW3 2063   2.489   2.220   0.198 -0.3742 -0.7072  1.8163
    1SOL    MW4 2064   2.408   2.207   0.168  0.0610  0.2933  0.1459
    1SOL     OW 2065   0.621   0.505   1.259 -0.0143 -0.0331  0.3121
    1SOL    HW2 2066   0.624   0.593   1.220  0.0997  0.6187  1.7440
    1SOL    HW3 2067   0.555   0.458   1.207  0.3036  0.7279 -0.8032
    1SOL    MW4 2068   0.613   0.511   1.247  0.0427  0.1533  0.3538
    1SOL     OW 2069   0.658   0.748   1.144  0.1424 -0.2448  0.4892
    1SOL    HW2 2070   0.591   0.807   1.177  0.3641 -0.0299  0.5530
    1SOL    HW3 2071   0.657   0.761   1.049  0.2188 -0.1082  0.5068
    1SOL    MW4 2072   0.649   0.757   1.136  0.1817 -0.1984  0.5000
    1SOL     OW 2073   0.455   0.887   1.257  0.4178  0.1029  0.3650
    1SOL    HW2 2074   0.435   0.883   1.351 -0.0049 -1.6601  0.2228
    1SOL    HW3 2075   0.466   0.980   1.239 -4.0451  0.9218  1.2487
    1SOL    MW4 2076   0.454   0.899   1.267 -0.2268 -0.0216  0.4629
    1SOL     OW 2077   0.493   1.141   1.159  0.2159 -0.2496  0.2611
    1SOL    HW2 2078   0.571   1.179   1.199 -0.0720  0.6502 -0.0137
    1SOL    HW3 2079   0.505   1.153   1.065  0.4384 -1.4787  0.1258
    1SOL    MW4 2080   0.505   1.148   1.152  0.2072 -0.2930  0.2069
    1SOL     OW 2081   0.699   1.247   1.281  0.0808  0.0910 -0.2783
    1SOL    HW2 2082   0.773   1.206   1.238 -0.2159 -0.9859  0.2199
    1SOL    HW3 2083   0.703   1.339   1.254  2.0128  0.2015  0.3346
    1SOL    MW4 2084   0.709   1.254   1.272  0.2965 -0.0366 -0.1317
    1SOL     OW 2085   0.709   1.494   1.137 -0.1143  0.0766  0.2474
    1SOL    HW2 2086   0.784   1.534   1.182 -1.2589  0.3552  1.9803
    1SOL    HW3 2087   0.633   1.532   1.181 -1.2576 -0.5339 -1.2062
    1SOL    MW4 2088   0.709   1.504   1.149 -0.4162  0.0328  0.2842
    1SOL     OW 2089   0.487   1.636   1.231 -0.4257  0.2141 -0.0229
    1SOL    HW2 2090   0.464   1.637   1.324 -1.3643  1.8539 -0.2405
    1SOL    HW3 2091   0.408   1.602   1.188 -0.1783 -0.0621 -0.2529
    1SOL    MW4 2092   0.473   1.632   1.238 -0.5169  0.3940 -0.0819
    1SOL     OW 2093   0.513   1.906   1.151 -0.2422 -0.2006  0.6792
    1SOL    HW2 2094   0.509   1.815   1.178  0.7110 -0.4322  0.0723
    1SOL    HW3 2095   0.429   1.943   1.178 -0.8418 -1.3813  0.4651
    1SOL    MW4 2096   0.501   1.899   1.158 -0.1955 -0.3868  0.5709
    1SOL     OW 2097   0.731   2.061   1.237  0.0013  0.1540  0.1575
    1SOL    HW2 2098   0.704   2.087   1.325  0.0335 -0.4752  0.3575
    1SOL    HW3 2099   0.659   2.007   1.205  0.0416  0.2872 -0.1583
    1SOL    MW4 2100   0.718   2.057   1.245  0.0108  0.0889  0.1422
    1SOL     OW 2101   0.713   2.294   1.101  0.0940  0.1302 -0.1000
    1SOL    HW2 2102   0.637   2.334   1.145  0.8138  0.6023  0.7219
    1SOL    HW3 2103   0.718   2.206   1.138  0.1337  0.2076  0.0816
    1SOL    MW4 2104   0.703   2.288   1.112  0.1943  0.2029  0.0325
    1SOL     OW 2105   0.497   2.400   1.250  0.3738  0.0751  0.1255
    1SOL    HW2 2106   0.495   2.409   1.345  1.0326 -0.0667  0.1563
    1SOL    HW3 2107   0.497   2.490   1.217  0.4287  0.1283  0.2693
    1SOL    MW4 2108   0.497   2.413   1.258  0.4680  0.0632  0.1485
    1SOL     OW 2109   0.491   2.658   1.160  0.1385  0.1524  0.5315
    1SOL    HW2 2110   0.414   2.708   1.185  0.7932  1.0434  0.8054
    1SOL    HW3 2111   0.492   2.661   1.064  0.7711  1.6270  0.5599
    1SOL    MW4 2112   0.481   2.665   1.151  0.3083  0.4644  0.5714
    1SOL     OW 2113   0.706   2.838   1.223 -0.3094  0.3498 -0.1400
    1SOL    HW2 2114   0.712   2.846   1.319  2.2990 -0.8060 -0.1804
    1SOL    HW3 2115   0.640   2.770   1.209 -0.2765  0.1062  0.8379
    1SOL    MW4 2116   0.698   2.830   1.234  0.0392  0.1652 -0.0162
    1SOL     OW 2117   0.649   3.096   1.108 -0.0670 -0.5420 -0.3529
    1SOL    HW2 2118   0.734   3.131   1.134 -0.7007  0.6627  0.1125
    1SOL    HW3 2119   0.645   3.010   1.150 -0.0055  0.3125  1.4333
    1SOL    MW4 2120   0.660   3.089   1.117 -0.1425 -0.2704 -0.0558
    1SOL     OW 2121   0.449   3.229   1.258  0.6305 -0.4403  0.2779
    1SOL    HW2 2122   0.458   3.316   1.218 -1.0251 -0.4910 -0.2547
    1SOL    HW3 2123   0.519   3.177   1.219  1.0364  0.3952 -0.1258
    1SOL    MW4 2124   0.460   3.234   1.247  0.4656 -0.3369  0.1544
    1SOL     OW 2125   0.460   3.479   1.172  0.2075 -0.4508 -0.3821
    1SOL    HW2 2126   0.542   3.526   1.188 -1.0596  1.8581 -0.4333
    1SOL    HW3 2127   0.393   3.535   1.211 -1.4952 -1.6002 -1.6009
    1SOL    MW4 2128   0.462   3.492   1.180 -0.1843 -0.2978 -0.5497
    1SOL     OW 2129   0.708   3.612   1.228 -0.1454  0.4201  0.3977
    1SOL    HW2 2130   0.709   3.604   1.323 -1.5264  1.2439  0.5001
    1SOL    HW3 2131   0.697   3.706   1.212 -1.1676  0.1562 -0.5549
    1SOL    MW4 2132   0.707   3.624   1.238 -0.4625  0.4940  0.2856
    1SOL     OW 2133   0.669   3.872   1.156  0.4179 -0.0712 -0.9132
    1SOL    HW2 2134   0.593   3.926   1.176  1.5154  0.5420  1.8302
    1SOL    HW3 2135   0.679   3.878   1.061 -2.6222  0.2579 -1.2457
    1SOL    MW4 2136   0.660   3.880   1.146  0.1616  0.0529 -0.5952
    1SOL     OW 2137   0.433   3.981   1.268  0.6510  0.1732 -0.1221
    1SOL    HW2 2138   0.436   4.066   1.223  0.4755  0.5387  0.5633
    1SOL    HW3 2139   0.361   3.934   1.225  0.6333  0.4337 -0.3811
    1SOL    MW4 2140   0.424   3.986   1.256  0.6255  0.2558 -0.0657
    1SOL     OW 2141   0.472   4.217   1.123  0.4020 -0.1830  0.1329
    1SOL    HW2 2142   0.552   4.254   1.162  0.6908  0.0540 -0.6795
    1SOL    HW3 2143   0.401   4.267   1.163  0.6648 -0.2822  0.7360
    1SOL    MW4 2144   0.473   4.228   1.133  0.4748 -0.1645  0.1053
    1SOL     OW 2145   0.681   4.354   1.251 -0.3209 -0.3235 -0.2351
    1SOL    HW2 2146   0.701   4.357   1.344  0.9127  4.3060 -0.5035
    1SOL    HW3 2147   0.763   4.329   1.209  0.1940  1.4052 -0.2831
    1SOL    MW4 2148   0.694   4.351   1.258 -0.0902  0.5150 -0.2768
    1SOL     OW 2149   1.098   0.011   1.141 -0.2967 -0.0472  0.0216
    1SOL    HW2 2150   1.100  -0.083   1.160  1.3502 -0.1698 -0.6420
    1SOL    HW3 2151   1.108   0.016   1.045  0.6349  0.8299  0.1572
    1SOL    MW4 2152   1.100  -0.001   1.131  0.0436  0.0520 -0.0482
    1SOL     OW 2153   0.862   0.126   1.225 -0.0903  0.2990 -0.1349
    1SOL    HW2 2154   0.860   0.109   1.319 -0.9325 -0.3431 -0.2648
    1SOL    HW3 2155   0.941   0.082   1.195  0.0785  0.3420  0.2361
    1SOL    MW4 2156   0.872   0.118   1.234 -0.1792  0.2200 -0.1031
    1SOL     OW 2157   0.847   0.388   1.141  0.0935  0.2035 -0.6640
    1SOL    HW2 2158   0.836   0.296   1.162 -0.2505  0.5458  0.6510
    1SOL    HW3 2159   0.779   0.433   1.191  1.1520  1.3037 -0.1970
    1SOL    MW4 2160   0.837   0.382   1.150  0.1878  0.3938 -0.4289
    1SOL     OW 2161   1.120   0.443   1.180 -0.3239  0.5386  0.2873
    1SOL    HW2 2162   1.121   0.447   1.276 -1.1395 -0.2413  0.3388
    1SOL    HW3 2163   1.027   0.431   1.158 -0.1157  0.5046 -0.5947
    1SOL    MW4 2164   1.108   0.442   1.190 -0.4041  0.4312  0.1776
    1SOL     OW 2165   1.105   0.724   1.129  0.2107  0.3049 -0.3479
    1SOL    HW2 2166   1.024   0.759   1.166 -0.5050  1.0006 -2.5232
    1SOL    HW3 2167   1.109   0.634   1.162 -1.4660  0.2556 -0.2376
    1SOL    MW4 2168   1.095   0.717   1.138 -0.1050  0.3901 -0.6202
    1SOL     OW 2169   0.902   0.886   1.249  0.1553  0.2643 -0.6772
    1SOL    HW2 2170   0.906   0.969   1.201 -0.6579  1.3989  1.1457
    1SOL    HW3 2171   0.820   0.846   1.220 -1.2154  1.7669  1.0085
    1SOL    MW4 2172   0.892   0.892   1.238 -0.1329  0.6123 -0.2142
    1SOL     OW 2173   0.909   1.127   1.127  0.2109  0.3480 -0.1625
    1SOL    HW2 2174   0.968   1.195   1.159 -0.4835  1.0911 -0.4554
    1SOL    HW3 2175   0.910   1.136   1.032  0.6822 -0.5315 -0.2489
    1SOL    MW4 2176   0.917   1.137   1.119  0.1815  0.3299 -0.2124
    1SOL     OW 2177   1.135   1.281   1.195 -0.4152  0.2199 -0.1730
    1SOL    HW2 2178   1.140   1.272   1.290 -0.7516 -0.1433 -0.1860
    1SOL    HW3 2179   1.203   1.221   1.162 -1.0162 -0.4537 -0.1907
    1SOL    MW4 2180   1.145   1.272   1.203 -0.5389  0.0830 -0.1770
    1SOL     OW 2181   1.155   1.544   1.141  0.2177 -0.1885  0.1878
    1SOL    HW2 2182   1.166   1.451   1.165  1.9290 -0.4345 -1.4148
    1SOL    HW3 2183   1.139   1.542   1.047 -3.0659  0.9720  0.6772
    1SOL    MW4 2184   1.154   1.531   1.132  0.0103 -0.0677  0.0409
    1SOL     OW 2185   0.924   1.641   1.246  0.1577  0.2733 -0.1153
    1SOL    HW2 2186   0.926   1.727   1.203  1.4072  0.0504 -0.5138
    1SOL    HW3 2187   1.009   1.602   1.226 -1.1746 -1.9293 -1.6341
    1SOL    MW4 2188   0.936   1.647   1.238  0.1468 -0.0468 -0.3682
    1SOL     OW 2189   0.922   1.895   1.115 -0.0042 -0.0631  0.1252
    1SOL    HW2 2190   1.010   1.924   1.140  0.7010 -0.6532 -1.5788
    1SOL    HW3 2191   0.863   1.954   1.162  1.3462  1.4847 -0.0828
    1SOL    MW4 2192   0.926   1.907   1.124  0.2670  0.0633 -0.1272
    1SOL     OW 2193   1.139   2.037   1.215 -0.4531 -0.4883 -0.2789
    1SOL    HW2 2194   1.124   2.042   1.310 -1.4007 -1.1007 -0.3882
    1SOL    HW3 2195   1.121   2.126   1.184 -0.7592 -0.4399  0.0301
    1SOL    MW4 2196   1.135   2.050   1.224 -0.6185 -0.5631 -0.2525
    1SOL     OW 2197   1.092   2.283   1.101 -0.2143  0.3053 -0.5485
    1SOL    HW2 2198   1.172   2.334   1.116  0.4610 -0.3993 -1.7046
    1SOL    HW3 2199   1.072   2.296   1.009 -0.2562 -1.1898 -0.7640
    1SOL    MW4 2200   1.100   2.291   1.091 -0.1308  0.0153 -0.7294
    1SOL     OW 2201   0.908   2.414   1.235 -0.2714  0.2851  0.0860
    1SOL    HW2 2202   0.975   2.366   1.186 -0.9518  2.5473 -3.2129
    1SOL    HW3 2203   0.825   2.378   1.204 -0.7170  1.4866 -0.1196
    1SOL    MW4 2204   0.906   2.403   1.225 -0.4200  0.7422 -0.3763
    1SOL     OW 2205   0.910   2.677   1.112  0.1167  0.0952  0.2035
    1SOL    HW2 2206   0.898   2.591   1.153  0.0111 -0.9238 -1.9019
    1SOL    HW3 2207   0.843   2.732   1.151  0.8521 -0.4876  2.3429
    1SOL    MW4 2208   0.900   2.673   1.122  0.1997 -0.1163  0.2080
    1SOL     OW 2209   1.144   2.790   1.203 -0.0543 -0.2133 -0.1257
    1SOL    HW2 2210   1.117   2.809   1.293  0.5043 -0.6658  0.1383
    1SOL    HW3 2211   1.067   2.749   1.164 -0.0492 -0.7043  0.3712
    1SOL    MW4 2212   1.130   2.787   1.210  0.0201 -0.3381 -0.0253
    1SOL     OW 2213   1.112   3.071   1.135 -0.3608  0.3799 -0.0853
    1SOL    HW2 2214   1.128   2.977   1.150 -0.7179  0.4701  0.9276
    1SOL    HW3 2215   1.115   3.081   1.040  1.0134 -0.4203 -0.1493
    1SOL    MW4 2216   1.115   3.060   1.125 -0.2266  0.2863  0.0399
    1SOL     OW 2217   0.873   3.201   1.221  0.1017 -0.2803  0.1213
    1SOL    HW2 2218   0.876   3.290   1.187 -1.1590  0.0199  0.7379
    1SOL    HW3 2219   0.962   3.167   1.211  0.5737  1.0320 -0.1561
    1SOL    MW4 2220   0.885   3.208   1.216 -0.0023 -0.0675  0.1661
    1SOL     OW 2221   0.909   3.468   1.140 -0.5330 -0.1235 -0.3551
    1SOL    HW2 2222   0.833   3.522   1.159 -0.1494 -0.0874  1.1323
    1SOL    HW3 2223   0.919   3.473   1.045 -2.0462  0.3151 -0.5016
    1SOL    MW4 2224   0.900   3.476   1.130 -0.6821 -0.0610 -0.1783
    1SOL     OW 2225   1.130   3.602   1.251  0.2183 -0.0081  0.2866
    1SOL    HW2 2226   1.212   3.576   1.208  0.0985  1.0578 -0.6048
    1SOL    HW3 2227   1.062   3.553   1.204  0.2687 -0.3415  0.5560
    1SOL    MW4 2228   1.132   3.592   1.239  0.2093  0.0885  0.2046
    1SOL     OW 2229   1.117   3.866   1.189  0.4122  0.2298 -0.3722
    1SOL    HW2 2230   1.031   3.893   1.221  0.6708  0.7702 -0.1165
    1SOL    HW3 2231   1.123   3.773   1.212 -0.1296  0.1708 -0.4593
    1SOL    MW4 2232   1.107   3.857   1.196  0.3749  0.2933 -0.3499
    1SOL     OW 2233   0.878   3.992   1.271 -0.3304 -0.1395  0.1985
    1SOL    HW2 2234   0.868   3.978   1.366 -2.1611  3.0290  0.5452
    1SOL    HW3 2235   0.803   3.946   1.233 -1.0226  0.6831  0.5348
    1SOL    MW4 2236   0.867   3.984   1.279 -0.6633  0.3870  0.2885
    1SOL     OW 2237   0.909   4.233   1.156  0.1272 -0.4148  0.5516
    1SOL    HW2 2238   0.899   4.142   1.183 -1.7578 -0.7531 -1.2431
    1SOL    HW3 2239   0.909   4.231   1.061 -0.6372  1.5228  0.4809
    1SOL    MW4 2240   0.908   4.221   1.147 -0.2223 -0.2041  0.3057
    1SOL     OW 2241   1.124   4.423   1.212  0.0547  0.4444  0.4350
    1SOL    HW2 2242   1.171   4.412   1.295  1.1326  0.5124 -0.1485
    1SOL    HW3 2243   1.063   4.349   1.208  1.2584 -0.5616  0.4563
    1SOL    MW4 2244   1.122   4.412   1.222  0.3557  0.3209  0.3607
    1SOL     OW 2245   1.563   4.582   1.117 -0.0401  0.2322 -0.1024
    1SOL    HW2 2246   1.638   4.639   1.133  0.4606  0.0649 -1.7538
    1SOL    HW3 2247   1.589   4.498   1.155 -0.0348  0.5835  0.6985
    1SOL    MW4 2248   1.576   4.578   1.124  0.0266  0.2561 -0.2147
    1SOL     OW 2249   1.364   0.081   1.216  0.4752 -0.7292 -0.2536
    1SOL    HW2 2250   1.430   0.019   1.184  0.0650 -1.3978  0.1934
    1SOL    HW3 2251   1.280   0.039   1.197  0.1983 -0.3076  0.0338
    1SOL    MW4 2252   1.362   0.067   1.209  0.3846 -0.7618 -0.1566
    1SOL     OW 2253   1.330   0.321   1.072  0.5180 -0.3266  0.1825
    1SOL    HW2 2254   1.344   0.237   1.116  0.3310  0.0854  1.0367
    1SOL    HW3 2255   1.245   0.351   1.105  0.4839  0.1034 -0.2904
    1SOL    MW4 2256   1.320   0.314   1.082  0.4889 -0.2155  0.2329
    1SOL     OW 2257   1.552   0.452   1.193  0.7425 -0.0834  0.1715
    1SOL    HW2 2258   1.542   0.536   1.149  0.7710  0.2754  0.8367
    1SOL    HW3 2259   1.482   0.397   1.158 -0.2867  0.7298  0.9219
    1SOL    MW4 2260   1.542   0.456   1.183  0.6104  0.0712  0.3581
    1SOL     OW 2261   1.541   0.715   1.117  0.3142 -0.2091 -0.0332
    1SOL    HW2 2262   1.621   0.760   1.143 -0.2052  1.0313 -0.5254
    1SOL    HW3 2263   1.545   0.714   1.021 -0.6153  0.5588 -0.0900
    1SOL    MW4 2264   1.552   0.721   1.107  0.1230  0.0558 -0.1056
    1SOL     OW 2265   1.343   0.859   1.223  0.1102  0.0789  0.1469
    1SOL    HW2 2266   1.408   0.812   1.170 -0.9727 -0.4773 -0.7137
    1SOL    HW3 2267   1.259   0.827   1.191 -0.6038  1.2045  0.8726
    1SOL    MW4 2268   1.341   0.849   1.212 -0.1270  0.1540  0.1291
    1SOL     OW 2269   1.371   1.106   1.118 -0.3347 -0.1689 -0.0574
    1SOL    HW2 2270   1.367   1.023   1.165  0.8811 -1.3449 -1.9413
    1SOL    HW3 2271   1.432   1.160   1.168  1.0370 -1.4420 -0.3151
    1SOL    MW4 2272   1.378   1.102   1.131  0.0067 -0.4921 -0.3401
    1SOL     OW 2273   1.586   1.261   1.233  0.1102 -0.1072  0.1351
    1SOL    HW2 2274   1.664   1.227   1.190  0.6946 -0.1675  1.2222
    1SOL    HW3 2275   1.601   1.244   1.326 -0.5284  1.2349  0.4939
    1SOL    MW4 2276   1.598   1.254   1.240  0.1030  0.0620  0.3259
    1SOL     OW 2277   1.595   1.535   1.168 -0.0574 -1.3522 -0.0624
    1SOL    HW2 2278   1.682   1.574   1.168 -0.2859 -0.8289  1.6105
    1SOL    HW3 2279   1.606   1.452   1.213 -0.7113 -0.6095  1.4947
    1SOL    MW4 2280   1.608   1.529   1.174 -0.1739 -1.1851  0.3638
    1SOL     OW 2281   1.387   1.680   1.247 -0.1946 -0.3247  0.4964
    1SOL    HW2 2282   1.464   1.627   1.227 -0.3835 -0.6598  0.6678
    1SOL    HW3 2283   1.318   1.645   1.191 -0.5276 -0.7733  1.1828
    1SOL    MW4 2284   1.388   1.668   1.237 -0.2635 -0.4281  0.6095
    1SOL     OW 2285   1.385   1.930   1.115 -0.4665 -0.3054 -0.6473
    1SOL    HW2 2286   1.390   1.846   1.161  0.4533 -0.7879 -1.6182
    1SOL    HW3 2287   1.310   1.974   1.155 -1.3843 -1.8721 -0.5994
    1SOL    MW4 2288   1.375   1.925   1.127 -0.4661 -0.5758 -0.7691
    1SOL     OW 2289   1.603   2.057   1.218  0.5157  0.0695  0.0418
    1SOL    HW2 2290   1.592   2.152   1.208 -0.4040  0.1671  1.7575
    1SOL    HW3 2291   1.535   2.019   1.164 -0.3717  0.4371  0.8912
    1SOL    MW4 2292   1.593   2.064   1.210  0.2772  0.1307  0.3802
    1SOL     OW 2293   1.558   2.347   1.121  0.0981  0.3382 -0.3604
    1SOL    HW2 2294   1.468   2.377   1.135  0.3216  0.5544  0.6419
    1SOL    HW3 2295   1.565   2.336   1.026 -0.2749  2.5723 -0.6727
    1SOL    MW4 2296   1.547   2.349   1.111  0.0784  0.6616 -0.2693
    1SOL     OW 2297   1.304   2.426   1.166 -0.2980 -0.4456  0.5332
    1SOL    HW2 2298   1.314   2.429   1.261 -1.4828 -1.0091  0.6799
    1SOL    HW3 2299   1.320   2.517   1.138  0.7204 -0.4104  1.1823
    1SOL    MW4 2300   1.308   2.439   1.175 -0.3201 -0.5155  0.6382
    1SOL     OW 2301   1.369   2.673   1.115  0.1708 -0.0055 -0.5439
    1SOL    HW2 2302   1.436   2.730   1.153 -0.5308  0.0088  0.6891
    1SOL    HW3 2303   1.287   2.708   1.148 -0.2013 -2.5445  1.3744
    1SOL    MW4 2304   1.367   2.685   1.124  0.0291 -0.3386 -0.1281
    1SOL     OW 2305   1.574   2.819   1.213  0.3222 -0.4514 -0.3797
    1SOL    HW2 2306   1.662   2.787   1.195  0.1353 -0.7320 -0.7963
    1SOL    HW3 2307   1.571   2.905   1.171  0.3457 -0.5080 -0.4975
    1SOL    MW4 2308   1.585   2.826   1.205  0.3006 -0.4959 -0.4501
    1SOL     OW 2309   1.561   3.064   1.105  0.3728  0.2298 -0.1968
    1SOL    HW2 2310   1.642   3.113   1.124  0.2893 -0.7014  2.9659
    1SOL    HW3 2311   1.493   3.113   1.150 -0.2736 -0.8376  0.0045
    1SOL    MW4 2312   1.563   3.077   1.114  0.2763 -0.0339  0.2471
    1SOL     OW 2313   1.357   3.216   1.228 -0.2111  0.1925 -0.0760
    1SOL    HW2 2314   1.349   3.234   1.322  0.7250 -0.0548  0.0615
    1SOL    HW3 2315   1.274   3.176   1.203 -0.0509 -0.7227  0.8753
    1SOL    MW4 2316   1.345   3.213   1.237 -0.0664  0.0393  0.0677
    1SOL     OW 2317   1.354   3.485   1.127  0.2553  0.3322 -0.1432
    1SOL    HW2 2318   1.364   3.391   1.141 -0.0198  0.2889 -0.2266
    1SOL    HW3 2319   1.333   3.493   1.034 -0.2784  0.4329 -0.0133
    1SOL    MW4 2320   1.353   3.473   1.116  0.1487  0.3395 -0.1371
    1SOL     OW 2321   1.608   3.578   1.200  0.1465 -0.3879  0.2884
    1SOL    HW2 2322   1.610   3.664   1.158  0.4061 -1.3866 -1.8535
    1SOL    HW3 2323   1.520   3.545   1.180  1.3985 -2.2421 -2.4326
    1SOL    MW4 2324   1.596   3.585   1.192  0.3461 -0.7646 -0.3532
    1SOL     OW 2325   1.570   3.851   1.098 -0.7805  0.2883 -0.5303
    1SOL    HW2 2326   1.501   3.910   1.130  0.0565  1.5983 -1.1426
    1SOL    HW3 2327   1.555   3.846   1.004  0.1683  0.8415 -0.7112
    1SOL    MW4 2328   1.559   3.858   1.090 -0.5449  0.5341 -0.6350
    1SOL     OW 2329   1.356   4.002   1.204  0.0251 -0.2583  0.1662
    1SOL    HW2 2330   1.335   4.090   1.173 -0.6561  0.0153  1.3649
    1SOL    HW3 2331   1.274   3.953   1.195  0.2804 -0.6448 -0.0684
    1SOL    MW4 2332   1.342   4.007   1.198 -0.0310 -0.2732  0.2935
    1SOL     OW 2333   1.349   4.286   1.088  0.0741  0.3172 -0.0363
    1SOL    HW2 2334   1.280   4.352   1.096 -0.5084 -0.1766 -0.8752
    1SOL    HW3 2335   1.344   4.257   0.996  2.0197  0.9570 -0.3756
    1SOL    MW4 2336   1.339   4.291   1.077  0.2540  0.3357 -0.1917
    1SOL     OW 2337   1.585   4.338   1.241  0.2309 -0.1098  0.2939
    1SOL    HW2 2338   1.574   4.350   1.336  0.6440 -0.8936  0.4446
    1SOL    HW3 2339   1.498   4.313   1.210 -0.2846  1.7019  0.2075
    1SOL    MW4 2340   1.572   4.336   1.250  0.2174  0.0257  0.3024
    1SOL     OW 2341   2.029   4.649   1.118 -0.0330  0.1400  0.1668
    1SOL    HW2 2342   2.019   4.554   1.115  1.5712 -0.0643  0.5234
    1SOL    HW3 2343   2.007   4.679   1.030 -1.1574 -0.4894  0.2250
    1SOL    MW4 2344   2.025   4.640   1.106  0.0303  0.0300  0.2216
    1SOL     OW 2345   1.770   0.088   1.171  0.0931  0.0609  0.4305
    1SOL    HW2 2346   1.800   0.175   1.143  0.7006 -0.3449 -0.2102
    1SOL    HW3 2347   1.847   0.032   1.161 -0.6159 -0.8040 -0.3047
    1SOL    MW4 2348   1.784   0.092   1.166  0.0796 -0.1067  0.2489
    1SOL     OW 2349   1.806   0.372   1.122  0.5097 -0.3401 -0.4742
    1SOL    HW2 2350   1.721   0.395   1.159  1.1366 -0.2078  0.9049
    1SOL    HW3 2351   1.796   0.387   1.028 -0.7825  0.3076 -0.2426
    1SOL    MW4 2352   1.794   0.377   1.115  0.4218 -0.2372 -0.2615
    1SOL     OW 2353   2.010   0.778   1.126 -0.0647  0.2918  0.0002
    1SOL    HW2 2354   2.092   0.825   1.139  0.6704 -1.2431  1.0561
    1SOL    HW3 2355   2.030   0.688   1.150 -2.2384  0.0278  0.9227
    1SOL    MW4 2356   2.023   0.772   1.131 -0.2544  0.0545  0.2613
    1SOL     OW 2357   2.002   0.758   0.840  0.2821  0.5596 -0.2215
    1SOL    HW2 2358   2.077   0.807   0.807  0.3431  0.2578 -0.5387
    1SOL    HW3 2359   2.001   0.775   0.934  1.2385 -0.0881 -0.0845
    1SOL    MW4 2360   2.011   0.766   0.848  0.4163  0.4343 -0.2453
    1SOL     OW 2361   1.764   0.859   1.196 -0.3889 -0.3316 -0.1258
    1SOL    HW2 2362   1.767   0.866   1.291  0.4171 -3.0829  0.0998
    1SOL    HW3 2363   1.851   0.826   1.172  0.1725  2.3964 -2.0373
    1SOL    MW4 2364   1.776   0.855   1.205 -0.2085 -0.3347 -0.3483
    1SOL     OW 2365   1.789   1.133   1.102 -0.1289 -0.3622 -0.2796
    1SOL    HW2 2366   1.791   1.042   1.131 -0.2491 -0.6983 -1.3040
    1SOL    HW3 2367   1.790   1.128   1.007  1.2574  0.7324 -0.3553
    1SOL    MW4 2368   1.790   1.121   1.093  0.0383 -0.2620 -0.4247
    1SOL     OW 2369   2.012   1.286   1.219 -0.5276  0.6496  0.0470
    1SOL    HW2 2370   2.088   1.237   1.191 -0.1825  0.6964  0.8980
    1SOL    HW3 2371   1.939   1.249   1.168  0.1996  1.2525 -1.4756
    1SOL    MW4 2372   2.012   1.275   1.208 -0.3860  0.7353 -0.0417
    1SOL     OW 2373   2.037   1.531   1.098  0.1805 -0.0071 -0.3634
    1SOL    HW2 2374   2.036   1.438   1.122 -1.9109 -0.1667 -1.0129
    1SOL    HW3 2375   2.031   1.531   1.003  1.3983  0.7958 -0.4554
    1SOL    MW4 2376   2.036   1.519   1.089  0.0651  0.0778 -0.4611
    1SOL     OW 2377   1.833   1.665   1.216 -0.2091  0.2913  0.1804
    1SOL    HW2 2378   1.825   1.750   1.174  0.9467 -0.4695 -1.6456
    1SOL    HW3 2379   1.896   1.618   1.162 -1.2977 -1.9474  0.8110
    1SOL    MW4 2380   1.840   1.670   1.204 -0.2004 -0.1044  0.0226
    1SOL     OW 2381   1.825   1.931   1.127 -0.5776  0.1237 -0.3278
    1SOL    HW2 2382   1.754   1.980   1.169  0.2656  1.5792 -0.5831
    1SOL    HW3 2383   1.804   1.934   1.034 -1.2371 -1.1715 -0.2370
    1SOL    MW4 2384   1.813   1.938   1.120 -0.5534  0.1450 -0.3496
    1SOL     OW 2385   2.060   2.053   1.205  0.0494  0.4031 -0.0147
    1SOL    HW2 2386   2.071   2.048   1.300  1.9836 -2.7398 -0.3354
    1SOL    HW3 2387   1.976   2.010   1.188  1.2695 -2.0963  0.0482
    1SOL    MW4 2388   2.051   2.047   1.215  0.4659 -0.3417 -0.0486
    1SOL     OW 2389   2.018   2.324   1.089 -0.2747  0.4466 -0.4518
    1SOL    HW2 2390   2.086   2.376   1.131  1.1107 -0.4309 -1.5960
    1SOL    HW3 2391   2.025   2.238   1.129 -0.7922  0.3771 -0.4990
    1SOL    MW4 2392   2.028   2.320   1.100 -0.1600  0.3216 -0.6090
    1SOL     OW 2393   1.799   2.453   1.245 -0.2956 -0.3421  0.0717
    1SOL    HW2 2394   1.868   2.407   1.196  0.5003  2.5231 -1.6247
    1SOL    HW3 2395   1.719   2.434   1.196  0.2913  1.3856 -1.6371
    1SOL    MW4 2396   1.798   2.445   1.232 -0.1131  0.2639 -0.3775
    1SOL     OW 2397   1.828   2.733   1.148 -0.3020 -0.0071  0.0488
    1SOL    HW2 2398   1.801   2.647   1.179  0.2190  0.0951  0.8212
    1SOL    HW3 2399   1.804   2.735   1.056  0.2675 -1.2283 -0.1281
    1SOL    MW4 2400   1.822   2.722   1.140 -0.1581 -0.1547  0.1274
    1SOL     OW 2401   2.078   2.821   1.264 -0.0769  0.1635  0.0074
    1SOL    HW2 2402   2.082   2.912   1.234 -0.9611  0.1821 -0.0667
    1SOL    HW3 2403   2.001   2.785   1.221 -0.5839 -0.1984  1.1840
    1SOL    MW4 2404   2.068   2.828   1.255 -0.2606  0.1183  0.1528
    1SOL     OW 2405   2.035   3.098   1.164 -0.2972  0.1578 -0.3102
    1SOL    HW2 2406   1.953   3.136   1.195  0.0662  0.5090  0.2181
    1SOL    HW3 2407   2.017   3.074   1.073 -0.5418  1.5895 -0.6537
    1SOL    MW4 2408   2.022   3.100   1.156 -0.2818  0.3932 -0.2857
    1SOL     OW 2409   1.778   3.201   1.170 -0.1727 -0.1075  0.0004
    1SOL    HW2 2410   1.757   3.184   1.262 -2.6299  0.9252 -0.3500
    1SOL    HW3 2411   1.789   3.296   1.165 -1.9403  0.0331 -1.1524
    1SOL    MW4 2412   1.777   3.211   1.182 -0.7300  0.0474 -0.1980
    1SOL     OW 2413   1.811   3.452   1.081  0.0569 -0.3277  0.4863
    1SOL    HW2 2414   1.881   3.493   1.131 -0.5695  1.5508 -0.1369
    1SOL    HW3 2415   1.730   3.487   1.119 -0.5179 -1.6244  0.4785
    1SOL    MW4 2416   1.810   3.462   1.093 -0.1016 -0.2508  0.4030
    1SOL     OW 2417   2.033   3.578   1.223  0.2794  0.1136 -0.1653
    1SOL    HW2 2418   2.036   3.572   1.319  1.0903 -0.9835 -0.2580
    1SOL    HW3 2419   2.107   3.526   1.193  1.0718  1.8825 -1.3477
    1SOL    MW4 2420   2.043   3.571   1.232  0.4909  0.2022 -0.3335
    1SOL     OW 2421   2.046   3.829   1.111  0.0046  0.3349 -0.2760
    1SOL    HW2 2422   1.972   3.871   1.155  0.2622  0.7489 -0.2392
    1SOL    HW3 2423   2.056   3.745   1.157  0.9178  1.1949  1.1305
    1SOL    MW4 2424   2.037   3.823   1.123  0.1590  0.5031 -0.0855
    1SOL     OW 2425   1.814   3.960   1.220 -0.4602  0.0622 -0.1375
    1SOL    HW2 2426   1.815   3.946   1.315 -0.9394  0.7997 -0.0267
    1SOL    HW3 2427   1.738   3.911   1.190  1.5368 -2.9361 -0.5778
    1SOL    MW4 2428   1.804   3.952   1.229 -0.2599 -0.2358 -0.1810
    1SOL     OW 2429   1.808   4.211   1.108  0.0801  0.4058 -0.2289
    1SOL    HW2 2430   1.820   4.121   1.138 -0.1576  0.0138 -1.2903
    1SOL    HW3 2431   1.743   4.248   1.168  0.3178 -0.0605  0.3265
    1SOL    MW4 2432   1.801   4.204   1.120  0.0800  0.2923 -0.2955
    1SOL     OW 2433   2.030   4.383   1.151  0.6663 -0.4573 -0.3925
    1SOL    HW2 2434   2.030   4.379   1.247  0.3301 -0.9406 -0.4076
    1SOL    HW3 2435   1.953   4.332   1.126  0.5019  0.0407 -0.9052
    1SOL    MW4 2436   2.020   4.376   1.161  0.6001 -0.4559 -0.4622
    1SOL     OW 2437   2.464   4.627   1.149  0.1285 -0.0498 -0.0691
    1SOL    HW2 2438   2.533   4.693   1.163 -0.7867  0.5672  1.6363
    1SOL    HW3 2439   2.383   4.671   1.176 -0.9053 -0.9010 -1.6892
    1SOL    MW4 2440   2.462   4.642   1.155 -0.1287 -0.0806 -0.0579
    1SOL     OW 2441   2.245   0.088   1.243 -0.3104  0.2323  0.0480
    1SOL    HW2 2442   2.241   0.180   1.218 -0.1016  0.0480 -0.6984
    1SOL    HW3 2443   2.168   0.049   1.202 -0.3443  0.0558  0.2782
    1SOL    MW4 2444   2.234   0.095   1.234 -0.2873  0.1847 -0.0201
    1SOL     OW 2445   2.011   0.519   1.247 -0.4339  0.0685  0.2564
    1SOL    HW2 2446   2.022   0.496   1.339 -0.7315  2.2207  0.8467
    1SOL    HW3 2447   1.937   0.465   1.217  0.1211 -1.1597  1.0655
    1SOL    MW4 2448   2.003   0.509   1.255 -0.4001  0.1905  0.4411
    1SOL     OW 2449   2.465   0.495   1.194  0.3855  0.0408  0.1043
    1SOL    HW2 2450   2.467   0.510   1.289  2.0767 -0.9980  0.2543
    1SOL    HW3 2451   2.381   0.451   1.179 -0.6337  1.6919  0.8717
    1SOL    MW4 2452   2.454   0.491   1.205  0.4742  0.1216  0.2253
    1SOL     OW 2453   2.449   0.747   1.089 -0.0651  0.4160 -0.1873
    1SOL    HW2 2454   2.455   0.657   1.120 -0.0979  0.7866  0.9482
    1SOL    HW3 2455   2.464   0.742   0.995 -0.9504 -0.8799 -0.2668
    1SOL    MW4 2456   2.452   0.735   1.081 -0.1862  0.2939 -0.0480
    1SOL     OW 2457   2.246   0.899   1.193  0.1864  0.2348  0.0166
    1SOL    HW2 2458   2.253   0.897   1.288 -0.6333 -1.5577  0.0608
    1SOL    HW3 2459   2.321   0.848   1.162 -0.2877 -0.2969 -0.2536
    1SOL    MW4 2460   2.257   0.892   1.201  0.0155 -0.0719 -0.0134
    1SOL     OW 2461   2.253   1.158   1.117  0.3204  0.3171  0.0151
    1SOL    HW2 2462   2.332   1.202   1.149  0.7339  0.6114 -1.3474
    1SOL    HW3 2463   2.266   1.066   1.138  1.0371  0.3665 -0.1875
    1SOL    MW4 2464   2.265   1.152   1.124  0.4692  0.3625 -0.1915
    1SOL     OW 2465   2.465   1.292   1.213 -0.0215  0.1037  0.2308
    1SOL    HW2 2466   2.545   1.243   1.194  0.0927 -0.5116  2.1692
    1SOL    HW3 2467   2.480   1.378   1.176 -0.0385 -1.1562 -2.8668
    1SOL    MW4 2468   2.477   1.297   1.206 -0.0086 -0.1436  0.0777
    1SOL     OW 2469   2.476   1.567   1.108 -0.3055  0.1985  0.3523
    1SOL    HW2 2470   2.393   1.605   1.137  0.1126  1.4229 -0.0648
    1SOL    HW3 2471   2.466   1.554   1.014 -0.3373 -0.4621  0.4420
    1SOL    MW4 2472   2.464   1.570   1.100 -0.2544  0.2730  0.3091
    1SOL     OW 2473   2.249   1.683   1.209  0.3750  0.1234 -0.3639
    1SOL    HW2 2474   2.258   1.766   1.163  0.5743 -0.2530 -1.0045
    1SOL    HW3 2475   2.181   1.636   1.161  0.3228 -0.1163 -0.0556
    1SOL    MW4 2476   2.242   1.688   1.197  0.3948  0.0422 -0.4077
    1SOL     OW 2477   2.288   1.940   1.100  0.5201 -0.1004  0.2967
    1SOL    HW2 2478   2.201   1.969   1.128  0.5023  0.4038 -0.2622
    1SOL    HW3 2479   2.278   1.925   1.005  0.8911 -0.6040  0.3369
    1SOL    MW4 2480   2.275   1.942   1.091  0.5670 -0.1001  0.2284
    1SOL     OW 2481   2.492   2.089   1.187 -0.1174  0.1957 -0.3110
    1SOL    HW2 2482   2.569   2.042   1.152 -0.2661 -0.5180  0.2994
    1SOL    HW3 2483   2.417   2.038   1.155 -0.3359  0.8541 -0.8482
    1SOL    MW4 2484   2.492   2.076   1.178 -0.1657  0.1884 -0.3014
    1SOL     OW 2485   2.488   2.354   1.099  0.1948  0.0689 -0.0088
    1SOL    HW2 2486   2.504   2.263   1.125 -0.0605  0.3273  1.0580
    1SOL    HW3 2487   2.471   2.349   1.005  0.0490 -1.0022  0.0706
    1SOL    MW4 2488   2.488   2.341   1.090  0.1419 -0.0381  0.1422
    1SOL     OW 2489   2.246   2.423   1.219 -0.0558  0.2258  0.2972
    1SOL    HW2 2490   2.235   2.413   1.314 -0.8790 -2.4225 -0.0178
    1SOL    HW3 2491   2.329   2.379   1.201 -0.8127 -0.9493 -0.4184
    1SOL    MW4 2492   2.256   2.416   1.229 -0.2646 -0.2787  0.1613
    1SOL     OW 2493   2.269   2.682   1.105 -0.6113 -0.1661 -0.2394
    1SOL    HW2 2494   2.286   2.596   1.142  1.1320  0.1151 -0.3649
    1SOL    HW3 2495   2.214   2.726   1.170 -0.0707 -0.7554  0.6250
    1SOL    MW4 2496   2.264   2.677   1.118 -0.3099 -0.2067 -0.1417
    1SOL     OW 2497   2.500   2.774   1.221  0.0230  0.4524 -0.0501
    1SOL    HW2 2498   2.485   2.796   1.313  0.9215 -1.7973  0.6534
    1SOL    HW3 2499   2.413   2.755   1.186 -0.0572 -1.3551  1.0703
    1SOL    MW4 2500   2.487   2.774   1.229  0.1309 -0.0830  0.1905
    1SOL     OW 2501   2.502   3.048   1.154  0.2687  0.3013  0.1305
    1SOL    HW2 2502   2.416   3.082   1.176  0.8371  1.9655 -0.1966
    1SOL    HW3 2503   2.499   2.956   1.181 -1.3995  0.4993  0.6507
    1SOL    MW4 2504   2.491   3.040   1.160  0.1235  0.5472  0.1560
    1SOL     OW 2505   2.270   3.200   1.211  0.2817  0.1637 -0.4511
    1SOL    HW2 2506   2.277   3.289   1.175 -1.4366  0.2994 -0.4690
    1SOL    HW3 2507   2.182   3.172   1.188  0.4217 -1.1222  0.5629
    1SOL    MW4 2508   2.260   3.208   1.203  0.0734  0.0119 -0.3196
    1SOL     OW 2509   2.245   3.467   1.098  0.2407 -0.1705  0.3314
    1SOL    HW2 2510   2.328   3.515   1.108 -1.0713  1.9352  1.4729
    1SOL    HW3 2511   2.234   3.460   1.003  1.4019  0.0859  0.1597
    1SOL    MW4 2512   2.255   3.472   1.086  0.2210  0.1414  0.4594
    1SOL     OW 2513   2.469   3.591   1.184 -0.5153  0.4699  0.2437
    1SOL    HW2 2514   2.464   3.568   1.277 -1.4474  2.4131  0.7064
    1SOL    HW3 2515   2.482   3.686   1.184  2.2338  0.1566 -1.5807
    1SOL    MW4 2516   2.470   3.601   1.196 -0.2756  0.6850  0.0640
    1SOL     OW 2517   2.482   3.876   1.122 -0.3604 -0.1273 -0.2788
    1SOL    HW2 2518   2.401   3.917   1.153 -0.2415  0.0185 -0.1597
    1SOL    HW3 2519   2.470   3.867   1.028 -0.1459  0.7331 -0.3915
    1SOL    MW4 2520   2.470   3.880   1.114 -0.3164  0.0055 -0.2780
    1SOL     OW 2521   2.259   3.983   1.216 -0.2157 -0.1893 -0.4524
    1SOL    HW2 2522   2.260   4.078   1.203 -0.2391 -0.1445 -0.1285
    1SOL    HW3 2523   2.180   3.954   1.171 -1.7745  0.2956  1.8666
    1SOL    MW4 2524   2.249   3.992   1.208 -0.4249 -0.1192 -0.1036
    1SOL     OW 2525   2.266   4.251   1.100  0.0537 -0.1034 -0.1835
    1SOL    HW2 2526   2.190   4.296   1.136 -0.4365 -0.1125 -1.2078
    1SOL    HW3 2527   2.261   4.267   1.006  0.1107 -1.9433 -0.5110
    1SOL    MW4 2528   2.256   4.259   1.092 -0.0033 -0.3476 -0.3619
    1SOL     OW 2529   2.480   4.369   1.245  0.8605  0.2014 -0.3915
    1SOL    HW2 2530   2.409   4.324   1.200  1.0040 -0.6075  0.1926
    1SOL    HW3 2531   2.473   4.460   1.215 -1.5473  0.5376  1.0650
    1SOL    MW4 2532   2.470   4.375   1.235  0.5620  0.1392 -0.1222
    1SOL     OW 2533   2.916   4.662   1.127  0.1463 -0.6021 -0.3466
    1SOL    HW2 2534   2.917   4.569   1.150  0.7072 -0.5464 -0.1463
    1SOL    HW3 2535   2.882   4.663   1.037 -1.6088 -0.8474  0.2996
    1SOL    MW4 2536   2.911   4.650   1.118 -0.0114 -0.6270 -0.2350
    1SOL     OW 2537   2.673   0.129   1.198 -0.6243  0.0497 -0.4114
    1SOL    HW2 2538   2.670   0.128   1.293 -0.4960 -0.6436 -0.4156
    1SOL    HW3 2539   2.751   0.078   1.176 -1.0540 -0.4021 -0.9065
    1SOL    MW4 2540   2.683   0.122   1.208 -0.6640 -0.1014 -0.4773
    1SOL     OW 2541   2.704   0.395   1.114 -0.5467 -0.2252 -0.1825
    1SOL    HW2 2542   2.707   0.306   1.148 -0.2087  0.1700  0.8241
    1SOL    HW3 2543   2.618   0.428   1.139  0.2636  0.5773  1.6019
    1SOL    MW4 2544   2.693   0.388   1.122 -0.3953 -0.0671  0.1857
    1SOL     OW 2545   2.918   0.509   1.252 -0.3667 -0.1744  0.3718
    1SOL    HW2 2546   2.927   0.596   1.212  2.0746 -1.2921 -1.5989
    1SOL    HW3 2547   2.851   0.465   1.200  0.7181 -0.6008 -0.6713
    1SOL    MW4 2548   2.910   0.515   1.240  0.0985 -0.3781 -0.0260
    1SOL     OW 2549   2.914   0.771   1.131 -0.1909 -0.1281 -0.0840
    1SOL    HW2 2550   2.992   0.808   1.171  0.6512 -1.6655 -0.2623
    1SOL    HW3 2551   2.841   0.807   1.181  0.7623 -0.7066  1.7512
    1SOL    MW4 2552   2.914   0.780   1.143  0.0463 -0.4072  0.1346
    1SOL     OW 2553   2.685   0.881   1.240 -0.3395  0.2769 -0.2725
    1SOL    HW2 2554   2.665   0.964   1.196 -1.5455  0.2674  0.2246
    1SOL    HW3 2555   2.612   0.824   1.217  1.1698 -1.1301 -1.7551
    1SOL    MW4 2556   2.673   0.885   1.231 -0.2997  0.0900 -0.4025
    1SOL     OW 2557   2.649   1.117   1.098 -0.0313 -0.0988 -0.2382
    1SOL    HW2 2558   2.647   1.115   1.003  1.5063 -1.1279 -0.2670
    1SOL    HW3 2559   2.741   1.134   1.120 -0.1692 -0.9104  1.0556
    1SOL    MW4 2560   2.661   1.119   1.088  0.1533 -0.3417 -0.0713
    1SOL     OW 2561   2.901   1.224   1.235  0.3416 -0.0674  0.2389
    1SOL    HW2 2562   2.900   1.243   1.329 -0.6283  0.2222  0.1859
    1SOL    HW3 2563   2.908   1.310   1.194 -0.5364 -0.0781  0.0419
    1SOL    MW4 2564   2.902   1.238   1.242  0.0975 -0.0306  0.2059
    1SOL     OW 2565   2.920   1.484   1.114  0.0340  0.4912 -0.1929
    1SOL    HW2 2566   2.991   1.541   1.145  0.6487  0.3145 -1.2663
    1SOL    HW3 2567   2.930   1.482   1.019 -0.5987 -0.6009 -0.2490
    1SOL    MW4 2568   2.930   1.491   1.106  0.0317  0.3239 -0.3420
    1SOL     OW 2569   2.726   1.660   1.215  0.0535  0.3005  0.0918
    1SOL    HW2 2570   2.795   1.601   1.183  0.4345  0.6778  0.2237
    1SOL    HW3 2571   2.647   1.631   1.168  0.5036  0.5206 -0.8278
    1SOL    MW4 2572   2.725   1.648   1.204  0.1633  0.3793 -0.0122
    1SOL     OW 2573   2.712   1.914   1.079 -0.0372  0.2335 -0.8768
    1SOL    HW2 2574   2.789   1.961   1.113 -1.5827  2.0911  0.1205
    1SOL    HW3 2575   2.707   1.835   1.132 -0.2072  1.2715  0.6950
    1SOL    MW4 2576   2.722   1.910   1.090 -0.2635  0.6155 -0.5376
    1SOL     OW 2577   2.910   2.066   1.190 -0.4463  0.7659 -0.3411
    1SOL    HW2 2578   2.887   2.072   1.282 -0.5908  1.2280 -0.4051
    1SOL    HW3 2579   2.931   2.156   1.164 -1.8018  0.8952 -1.1050
    1SOL    MW4 2580   2.909   2.079   1.198 -0.6442  0.8438 -0.4504
    1SOL     OW 2581   2.943   2.342   1.112  0.3027 -0.4014  0.2010
    1SOL    HW2 2582   3.005   2.394   1.164 -0.5330  0.9756 -0.1522
    1SOL    HW3 2583   2.859   2.356   1.155  0.0992 -1.6390  0.2155
    1SOL    MW4 2584   2.940   2.351   1.125  0.1659 -0.3829  0.1563
    1SOL     OW 2585   2.717   2.420   1.246  0.1734  0.0887 -0.0552
    1SOL    HW2 2586   2.688   2.448   1.333  0.4152  1.6990 -0.4634
    1SOL    HW3 2587   2.637   2.396   1.200 -0.0729  0.2921  0.2670
    1SOL    MW4 2588   2.703   2.421   1.251  0.1726  0.3283 -0.0666
    1SOL     OW 2589   2.744   2.677   1.115 -0.1639  0.0997  0.1128
    1SOL    HW2 2590   2.756   2.595   1.163  0.8446  0.4441  0.4619
    1SOL    HW3 2591   2.663   2.713   1.151 -0.7335 -0.8410 -0.1950
    1SOL    MW4 2592   2.735   2.671   1.126 -0.1059  0.0212  0.1183
    1SOL     OW 2593   2.919   2.840   1.231  0.0345 -0.0491 -0.3070
    1SOL    HW2 2594   2.897   2.831   1.324 -0.0806 -0.0264 -0.3311
    1SOL    HW3 2595   2.855   2.784   1.187  1.4769 -1.7820 -0.2239
    1SOL    MW4 2596   2.908   2.831   1.238  0.2093 -0.2747 -0.2992
    1SOL     OW 2597   2.946   3.100   1.153  0.0400 -0.2770 -0.0569
    1SOL    HW2 2598   2.946   3.007   1.176  0.9373 -0.4959 -0.9545
    1SOL    HW3 2599   2.932   3.102   1.059  0.9487  0.4564 -0.1874
    1SOL    MW4 2600   2.944   3.088   1.144  0.2785 -0.2093 -0.1926
    1SOL     OW 2601   2.712   3.189   1.251 -0.3862 -0.2064 -0.0875
    1SOL    HW2 2602   2.791   3.145   1.220 -0.1788  0.4529 -0.4936
    1SOL    HW3 2603   2.640   3.135   1.218 -0.1391 -0.1158 -0.7851
    1SOL    MW4 2604   2.713   3.176   1.243 -0.3262 -0.1073 -0.2331
    1SOL     OW 2605   2.705   3.440   1.126 -0.4865  0.3565  0.0273
    1SOL    HW2 2606   2.708   3.356   1.171  0.5824  0.9287  1.0719
    1SOL    HW3 2607   2.624   3.481   1.156 -0.8689 -0.1692 -0.2700
    1SOL    MW4 2608   2.695   3.434   1.136 -0.3960  0.3629  0.1258
    1SOL     OW 2609   2.909   3.605   1.197  0.0190  0.1026 -0.0588
    1SOL    HW2 2610   2.988   3.577   1.150  0.6314  0.5333  0.6924
    1SOL    HW3 2611   2.840   3.548   1.164  0.2850  0.8822 -1.9847
    1SOL    MW4 2612   2.910   3.594   1.187  0.1352  0.2625 -0.2139
    1SOL     OW 2613   2.917   3.863   1.118  0.1788  0.0841 -0.4330
    1SOL    HW2 2614   3.006   3.887   1.145  0.0198 -0.9428  1.0763
    1SOL    HW3 2615   2.911   3.770   1.138 -1.5399  0.3431  0.3059
    1SOL    MW4 2616   2.928   3.854   1.124 -0.0689 -0.0172 -0.1363
    1SOL     OW 2617   2.703   4.028   1.203 -0.4880 -0.6513 -0.1657
    1SOL    HW2 2618   2.778   3.979   1.169 -0.5606 -0.6547 -0.3189
    1SOL    HW3 2619   2.627   3.979   1.172 -0.5250 -2.3385  2.4302
    1SOL    MW4 2620   2.703   4.015   1.195 -0.5023 -0.8740  0.1564
    1SOL     OW 2621   2.688   4.270   1.086  0.4617  0.4820 -0.0651
    1SOL    HW2 2622   2.691   4.183   1.126  0.3936 -0.2635 -1.6012
    1SOL    HW3 2623   2.612   4.312   1.124  0.5347 -0.1115  0.7452
    1SOL    MW4 2624   2.679   4.264   1.096  0.4625  0.3047 -0.1609
    1SOL     OW 2625   2.910   4.390   1.189  0.4279  0.1431 -0.0413
    1SOL    HW2 2626   2.983   4.332   1.167  0.7328  0.7150 -0.5536
    1SOL    HW3 2627   2.832   4.342   1.164  0.6772 -0.0452 -0.4549
    1SOL    MW4 2628   2.909   4.376   1.183  0.5009  0.1936 -0.1634
    1SOL     OW 2629   3.357   4.604   1.198  0.0835 -0.0764  0.3895
    1SOL    HW2 2630   3.439   4.653   1.205 -0.3540  0.8901 -0.9735
    1SOL    HW3 2631   3.289   4.667   1.219 -0.4153 -0.4197 -0.1751
    1SOL    MW4 2632   3.359   4.618   1.202 -0.0401  0.0057  0.1351
    1SOL     OW 2633   3.148   0.119   1.224  0.0811  0.1662 -0.0893
    1SOL    HW2 2634   3.125   0.124   1.317 -0.9235 -0.3452 -0.3097
    1SOL    HW3 2635   3.075   0.072   1.183  1.0853 -0.6851 -0.9418
    1SOL    MW4 2636   3.135   0.113   1.231  0.0813 -0.0136 -0.2308
    1SOL     OW 2637   3.154   0.380   1.153  0.5097  0.2034 -0.6217
    1SOL    HW2 2638   3.143   0.286   1.167  0.0613  0.5658  1.7391
    1SOL    HW3 2639   3.083   0.421   1.204  0.1901  1.7882 -2.2906
    1SOL    MW4 2640   3.143   0.373   1.162  0.4084  0.4603 -0.5304
    1SOL     OW 2641   3.391   0.489   1.258 -0.0112  0.1180 -0.1837
    1SOL    HW2 2642   3.393   0.583   1.237 -0.6184  0.5795  1.6918
    1SOL    HW3 2643   3.316   0.456   1.208 -0.7383  0.9462  0.3383
    1SOL    MW4 2644   3.381   0.497   1.248 -0.1869  0.2882  0.1327
    1SOL     OW 2645   3.376   0.756   1.159 -0.3993 -0.0072  0.7139
    1SOL    HW2 2646   3.370   0.756   1.064 -0.6727  0.8678  0.7200
    1SOL    HW3 2647   3.291   0.790   1.188  0.5119  1.9222  1.1851
    1SOL    MW4 2648   3.364   0.761   1.151 -0.3150  0.3628  0.7769
    1SOL     OW 2649   3.143   0.862   1.266 -0.0024  0.2805  0.0263
    1SOL    HW2 2650   3.136   0.859   1.361 -3.3250  0.0109 -0.1693
    1SOL    HW3 2651   3.167   0.952   1.246 -0.4833  0.6560  1.0915
    1SOL    MW4 2652   3.145   0.873   1.276 -0.5045  0.2944  0.1409
    1SOL     OW 2653   3.129   1.094   1.110 -1.0110  0.2623 -0.4422
    1SOL    HW2 2654   3.204   1.146   1.138 -1.5416  1.3805 -1.0754
    1SOL    HW3 2655   3.056   1.128   1.161 -1.2024 -0.4488 -0.2347
    1SOL    MW4 2656   3.129   1.105   1.121 -1.1063  0.3159 -0.4985
    1SOL     OW 2657   3.365   1.242   1.216 -0.1345 -0.3419 -0.7114
    1SOL    HW2 2658   3.379   1.244   1.310 -0.3142  0.2994 -0.6952
    1SOL    HW3 2659   3.350   1.334   1.191 -0.1999 -0.5160 -1.3424
    1SOL    MW4 2660   3.365   1.255   1.225 -0.1667 -0.2801 -0.7925
    1SOL     OW 2661   3.351   1.504   1.109  0.3054  0.3641  0.3413
    1SOL    HW2 2662   3.424   1.566   1.117 -0.9653  2.1328 -1.2117
    1SOL    HW3 2663   3.276   1.550   1.145 -0.5237 -0.5490 -0.1856
    1SOL    MW4 2664   3.351   1.518   1.115  0.0281  0.4771  0.0669
    1SOL     OW 2665   3.133   1.628   1.204  0.2273  0.1503  0.1907
    1SOL    HW2 2666   3.137   1.644   1.299 -0.8298 -1.6163  0.5595
    1SOL    HW3 2667   3.129   1.716   1.166  0.3846  0.8869  1.8029
    1SOL    MW4 2668   3.133   1.642   1.212  0.1087  0.0144  0.4520
    1SOL     OW 2669   3.135   1.896   1.148 -0.0533  0.2588 -0.2205
    1SOL    HW2 2670   3.210   1.944   1.184  1.1757  1.1738 -3.7311
    1SOL    HW3 2671   3.058   1.946   1.176  0.8896  1.3080  0.5259
    1SOL    MW4 2672   3.135   1.909   1.156  0.2332  0.5180 -0.5852
    1SOL     OW 2673   3.359   2.029   1.248 -0.1544 -0.2841 -0.1107
    1SOL    HW2 2674   3.441   1.996   1.211 -0.9879 -1.3789 -0.9959
    1SOL    HW3 2675   3.356   2.121   1.220  0.6584 -0.2979 -0.2675
    1SOL    MW4 2676   3.369   2.037   1.239 -0.1574 -0.4303 -0.2482
    1SOL     OW 2677   3.343   2.294   1.182 -0.2693  0.1618 -0.2464
    1SOL    HW2 2678   3.421   2.343   1.207 -1.2732  2.2998 -1.1500
    1SOL    HW3 2679   3.270   2.351   1.205 -1.5111 -1.0965 -0.9331
    1SOL    MW4 2680   3.343   2.308   1.189 -0.5658  0.2780 -0.4562
    1SOL     OW 2681   3.134   2.467   1.241  0.1381 -0.4399  0.1713
    1SOL    HW2 2682   3.131   2.468   1.337  1.2475  0.4460  0.2021
    1SOL    HW3 2683   3.161   2.556   1.217  0.1998 -0.7574 -0.9536
    1SOL    MW4 2684   3.137   2.479   1.251  0.2925 -0.3648  0.0271
    1SOL     OW 2685   3.166   2.726   1.156 -0.0461  0.1431 -0.1314
    1SOL    HW2 2686   3.083   2.770   1.174 -1.1209 -1.6201 -0.6569
    1SOL    HW3 2687   3.164   2.710   1.061  0.3165 -1.0229  0.0510
    1SOL    MW4 2688   3.155   2.730   1.146 -0.1402 -0.2437 -0.1768
    1SOL     OW 2689   3.391   2.849   1.207 -0.4387 -0.1491  0.4076
    1SOL    HW2 2690   3.381   2.940   1.178  1.2523 -0.2993 -0.6950
    1SOL    HW3 2691   3.305   2.810   1.194 -0.6069  0.7223 -1.1818
    1SOL    MW4 2692   3.379   2.856   1.201 -0.2377 -0.0541  0.0525
    1SOL     OW 2693   3.391   3.105   1.109 -0.5817 -0.5089  0.5955
    1SOL    HW2 2694   3.471   3.139   1.149 -0.9621  0.2366  0.7536
    1SOL    HW3 2695   3.321   3.158   1.149 -0.9554  0.4288 -1.2434
    1SOL    MW4 2696   3.392   3.117   1.120 -0.6812 -0.2868  0.3738
    1SOL     OW 2697   3.178   3.254   1.219 -0.2157  0.2271  0.0017
    1SOL    HW2 2698   3.186   3.258   1.314 -1.0652  1.2536  0.0486
    1SOL    HW3 2699   3.100   3.200   1.203 -0.1680  0.1890 -0.1058
    1SOL    MW4 2700   3.168   3.248   1.229 -0.3214  0.3574 -0.0062
    1SOL     OW 2701   3.135   3.482   1.066 -0.4814  0.1987  0.3196
    1SOL    HW2 2702   3.206   3.538   1.099  0.2591 -0.9872  0.7621
    1SOL    HW3 2703   3.140   3.403   1.119 -1.0780 -0.5904 -0.7754
    1SOL    MW4 2704   3.145   3.479   1.077 -0.4625 -0.0622  0.2335
    1SOL     OW 2705   3.353   3.585   1.209 -0.1551 -0.5597 -0.3555
    1SOL    HW2 2706   3.350   3.590   1.305  0.6732 -1.9147 -0.2505
    1SOL    HW3 2707   3.437   3.543   1.190 -0.9971 -1.7000 -1.6192
    1SOL    MW4 2708   3.363   3.580   1.219 -0.1569 -0.8888 -0.5083
    1SOL     OW 2709   3.407   3.828   1.095  0.0705  0.2538 -0.3351
    1SOL    HW2 2710   3.390   3.737   1.119 -0.6560  0.0491 -1.5898
    1SOL    HW3 2711   3.331   3.876   1.126 -0.4523  0.1255 -1.3905
    1SOL    MW4 2712   3.395   3.822   1.102 -0.0942  0.2098 -0.6399
    1SOL     OW 2713   3.167   3.956   1.184  0.5264 -0.5559 -0.0309
    1SOL    HW2 2714   3.182   3.972   1.278  1.8181 -2.1572  0.0581
    1SOL    HW3 2715   3.137   4.041   1.150  0.8129  0.2553  1.6656
    1SOL    MW4 2716   3.165   3.970   1.192  0.7348 -0.6604  0.2047
    1SOL     OW 2717   3.126   4.223   1.134  0.5906 -0.6158 -0.1085
    1SOL    HW2 2718   3.213   4.259   1.152  0.6582 -1.2609  0.8668
    1SOL    HW3 2719   3.119   4.224   1.039  0.6747  1.7960 -0.1248
    1SOL    MW4 2720   3.137   4.228   1.124  0.6108 -0.3824  0.0180
    1SOL     OW 2721   3.379   4.323   1.203 -0.0878 -0.2286 -0.3299
    1SOL    HW2 2722   3.466   4.301   1.167 -0.1996  0.9238 -1.3408
    1SOL    HW3 2723   3.377   4.418   1.204 -1.0929 -0.2558  0.3383
    1SOL    MW4 2724   3.390   4.333   1.198 -0.2351 -0.0806 -0.3752
    1SOL     OW 2725   3.838   4.607   1.136 -0.2457 -0.2162 -0.6413
    1SOL    HW2 2726   3.854   4.524   1.181  1.1908 -0.0657 -0.8487
    1SOL    HW3 2727   3.836   4.584   1.043  1.6298  0.1804 -0.8000
    1SOL    MW4 2728   3.840   4.593   1.129  0.1912 -0.1440 -0.6895
    1SOL     OW 2729   3.601   0.060   1.216 -0.0260  0.1832  0.1500
    1SOL    HW2 2730   3.617   0.153   1.201 -0.7974  0.4905  1.1853
    1SOL    HW3 2731   3.682   0.017   1.190  0.6752  1.2436  0.5665
    1SOL    MW4 2732   3.614   0.067   1.211 -0.0353  0.3636  0.3417
    1SOL     OW 2733   3.586   0.327   1.187  0.0654 -0.0282  0.4164
    1SOL    HW2 2734   3.659   0.387   1.202 -0.8726  0.7160  2.1410
    1SOL    HW3 2735   3.508   0.382   1.196 -0.7804 -1.3312  1.0820
    1SOL    MW4 2736   3.585   0.343   1.190 -0.1698 -0.1020  0.7317
    1SOL     OW 2737   3.822   0.486   1.227 -0.1276  0.1586 -0.1866
    1SOL    HW2 2738   3.908   0.449   1.207 -0.5581 -0.8233 -0.2897
    1SOL    HW3 2739   3.827   0.577   1.199  0.2946 -0.3786 -1.9025
    1SOL    MW4 2740   3.834   0.493   1.221 -0.1285 -0.0418 -0.4267
    1SOL     OW 2741   3.804   0.740   1.128 -0.3544 -0.0169  0.0396
    1SOL    HW2 2742   3.883   0.790   1.149 -0.6291  0.4365  0.0003
    1SOL    HW3 2743   3.733   0.793   1.164 -0.5368 -1.0888  1.2960
    1SOL    MW4 2744   3.805   0.754   1.136 -0.4148 -0.0985  0.2000
    1SOL     OW 2745   3.614   0.914   1.243  0.0255  0.0724  0.1201
    1SOL    HW2 2746   3.618   0.981   1.175  3.3593  1.0353  1.1512
    1SOL    HW3 2747   3.534   0.866   1.225 -0.7836  2.3034 -2.5803
    1SOL    MW4 2748   3.604   0.917   1.232  0.3588  0.4938 -0.1001
    1SOL     OW 2749   3.585   1.153   1.068  0.1555  0.3596  0.3354
    1SOL    HW2 2750   3.664   1.198   1.098  0.1065  0.5914  0.1201
    1SOL    HW3 2751   3.513   1.196   1.114  0.1598  0.0868  0.6024
    1SOL    MW4 2752   3.586   1.164   1.078  0.1497  0.3542  0.3424
    1SOL     OW 2753   3.828   1.282   1.154  0.4836 -0.2099 -0.1176
    1SOL    HW2 2754   3.844   1.288   1.248  0.8495 -0.1086 -0.1844
    1SOL    HW3 2755   3.809   1.373   1.128 -0.4836 -0.3680  0.0079
    1SOL    MW4 2756   3.827   1.295   1.163  0.4044 -0.2176 -0.1099
    1SOL     OW 2757   3.783   1.542   1.053  0.1055 -1.2214 -0.4280
    1SOL    HW2 2758   3.839   1.617   1.077 -0.3301 -1.1344  0.3206
    1SOL    HW3 2759   3.825   1.505   0.976  1.6799 -1.6573  0.6131
    1SOL    MW4 2760   3.796   1.547   1.046  0.2556 -1.2674 -0.1918
    1SOL     OW 2761   3.574   1.638   1.210 -0.5206  0.1158  0.0251
    1SOL    HW2 2762   3.588   1.730   1.187  1.2308 -0.0877  0.1886
    1SOL    HW3 2763   3.643   1.591   1.165 -0.4141 -0.9309  1.2364
    1SOL    MW4 2764   3.585   1.644   1.201 -0.2756 -0.0492  0.2066
    1SOL     OW 2765   3.602   1.908   1.165  0.0071  0.5779 -0.1558
    1SOL    HW2 2766   3.672   1.968   1.190  0.0695  0.4767 -0.0868
    1SOL    HW3 2767   3.602   1.908   1.070  1.1640 -0.6717 -0.1602
    1SOL    MW4 2768   3.611   1.916   1.156  0.1681  0.3997 -0.1472
    1SOL     OW 2769   4.032   1.950   1.084 -0.2735 -0.3468  0.4032
    1SOL    HW2 2770   3.971   2.009   1.128 -0.6806 -0.9018  0.5899
    1SOL    HW3 2771   4.022   1.866   1.130  0.5702 -0.4633  0.3818
    1SOL    MW4 2772   4.023   1.947   1.096 -0.2155 -0.4354  0.4249
    1SOL     OW 2773   3.815   2.081   1.242 -0.1870  0.4355 -0.2358
    1SOL    HW2 2774   3.813   2.167   1.201 -1.7993  0.9984  0.9478
    1SOL    HW3 2775   3.824   2.099   1.336  2.5538 -0.7993 -0.2066
    1SOL    MW4 2776   3.816   2.095   1.249 -0.0381  0.3469 -0.0758
    1SOL     OW 2777   3.570   2.465   1.233  0.2099 -0.1441  0.1339
    1SOL    HW2 2778   3.575   2.473   1.328  0.2986  1.0182  0.0323
    1SOL    HW3 2779   3.649   2.417   1.209 -0.0525 -0.8657  0.6883
    1SOL    MW4 2780   3.581   2.459   1.242  0.1869 -0.0861  0.1936
    1SOL     OW 2781   3.616   2.717   1.124  0.2750  0.3914 -0.2460
    1SOL    HW2 2782   3.603   2.637   1.176  1.5204  0.6314  0.4606
    1SOL    HW3 2783   3.549   2.777   1.154  0.3744  0.1814  0.4002
    1SOL    MW4 2784   3.606   2.714   1.135  0.4523  0.3953 -0.0675
    1SOL     OW 2785   3.847   2.844   1.223 -0.0104 -0.3966 -0.1196
    1SOL    HW2 2786   3.843   2.835   1.319  0.0761 -0.8447 -0.1591
    1SOL    HW3 2787   3.771   2.795   1.192 -2.4848  3.1153 -0.0561
    1SOL    MW4 2788   3.836   2.837   1.232 -0.3257  0.0076 -0.1162
    1SOL     OW 2789   3.871   3.114   1.127  0.1890  0.4950 -0.6963
    1SOL    HW2 2790   3.863   3.023   1.157  1.1094  0.3307 -0.9431
    1SOL    HW3 2791   3.848   3.111   1.034  0.7362  0.4260 -0.8298
    1SOL    MW4 2792   3.867   3.101   1.119  0.3824  0.4642 -0.7465
    1SOL     OW 2793   3.632   3.226   1.250  0.2754  0.2836 -0.3224
    1SOL    HW2 2794   3.619   3.315   1.217  0.3946  0.8719  1.1777
    1SOL    HW3 2795   3.715   3.199   1.211  0.9616  1.3839  0.3418
    1SOL    MW4 2796   3.642   3.234   1.240  0.3817  0.5064 -0.0368
    1SOL     OW 2797   3.580   3.464   1.126 -0.0391 -0.0911 -0.2170
    1SOL    HW2 2798   3.658   3.512   1.152 -0.8397  1.3849 -0.5067
    1SOL    HW3 2799   3.582   3.464   1.031  1.4891 -3.1987 -0.2478
    1SOL    MW4 2800   3.590   3.470   1.117  0.0570 -0.3061 -0.2592
    1SOL     OW 2801   3.793   3.623   1.194 -0.7751  0.3967 -0.2676
    1SOL    HW2 2802   3.797   3.615   1.290  2.5547 -0.7813 -0.4571
    1SOL    HW3 2803   3.802   3.717   1.178 -0.8398  0.5530  0.5570
    1SOL    MW4 2804   3.795   3.635   1.205 -0.3443  0.2618 -0.1839
    1SOL     OW 2805   3.841   3.884   1.136  0.0933  0.1221  0.0309
    1SOL    HW2 2806   3.759   3.925   1.165 -0.1062 -0.4358  0.2718
    1SOL    HW3 2807   3.841   3.895   1.041 -0.2329  0.1849  0.0367
    1SOL    MW4 2808   3.830   3.891   1.127  0.0243  0.0565  0.0634
    1SOL     OW 2809   3.613   4.015   1.212  0.3373  0.7753  0.0089
    1SOL    HW2 2810   3.615   3.987   1.304 -0.3634 -1.6682 -0.6891
    1SOL    HW3 2811   3.550   3.957   1.171  1.8519  0.7696 -2.3677
    1SOL    MW4 2812   3.605   4.004   1.219  0.4447  0.4525 -0.3967
    1SOL     OW 2813   3.645   4.264   1.102 -0.0184 -0.1610 -0.0965
    1SOL    HW2 2814   3.636   4.178   1.142 -0.2392  0.7906  1.9464
    1SOL    HW3 2815   3.636   4.248   1.008 -1.9388 -2.1190  0.3904
    1SOL    MW4 2816   3.642   4.251   1.094 -0.3006 -0.2942  0.2372
    1SOL     OW 2817   3.862   4.354   1.241  0.7042 -0.2365 -0.2567
    1SOL    HW2 2818   3.849   4.360   1.335 -2.0807  1.1585 -0.6792
    1SOL    HW3 2819   3.781   4.318   1.207  1.2674  0.2557 -2.2187
    1SOL    MW4 2820   3.850   4.350   1.249  0.4113  0.0129 -0.5713
    1SOL     OW 2821   4.279   4.656   1.150 -0.5688  0.3312 -0.1831
    1SOL    HW2 2822   4.296   4.572   1.194  1.1142 -0.3387 -2.0552
    1SOL    HW3 2823   4.193   4.682   1.183  0.2073 -0.5879  2.8093
    1SOL    MW4 2824   4.270   4.648   1.160 -0.2446  0.1216 -0.0353
    1SOL     OW 2825   4.042   0.094   1.254 -0.3347  0.3509 -0.0443
    1SOL    HW2 2826   4.025   0.075   1.347 -0.1488 -1.6220 -0.4034
    1SOL    HW3 2827   3.972   0.049   1.207  0.9292 -0.6790 -0.9946
    1SOL    MW4 2828   4.031   0.085   1.260 -0.1435 -0.0453 -0.2171
    1SOL     OW 2829   4.055   0.358   1.146 -0.2258  0.0058 -0.1548
    1SOL    HW2 2830   4.069   0.274   1.189  2.5779  1.0191  1.0323
    1SOL    HW3 2831   4.058   0.338   1.052  2.9126 -0.9039  0.0870
    1SOL    MW4 2832   4.058   0.345   1.139  0.5584  0.0195  0.0335
    1SOL     OW 2833   4.287   0.502   1.212 -0.0591  0.2430  0.1485
    1SOL    HW2 2834   4.281   0.501   1.307 -0.3207  0.2299  0.1328
    1SOL    HW3 2835   4.207   0.457   1.183 -0.5788  1.3181 -0.1036
    1SOL    MW4 2836   4.276   0.496   1.221 -0.1621  0.3832  0.1132
    1SOL     OW 2837   4.248   0.758   1.139 -0.0389 -0.1435 -0.0473
    1SOL    HW2 2838   4.263   0.672   1.178  0.9278 -0.6893 -1.5443
    1SOL    HW3 2839   4.334   0.800   1.140 -0.1944  0.2035 -0.6740
    1SOL    MW4 2840   4.261   0.752   1.144  0.0687 -0.1698 -0.3275
    1SOL     OW 2841   4.029   0.893   1.215  0.0313 -0.3149 -0.7020
    1SOL    HW2 2842   4.023   0.908   1.309 -1.5402 -1.2526 -0.6255
    1SOL    HW3 2843   4.114   0.851   1.203 -0.1749 -1.0756  0.4253
    1SOL    MW4 2844   4.039   0.889   1.226 -0.2031 -0.5390 -0.5432
    1SOL     OW 2845   4.041   1.129   1.067 -0.2966 -0.2183  0.5412
    1SOL    HW2 2846   4.051   1.049   1.118  1.7807 -0.2238  0.1722
    1SOL    HW3 2847   3.954   1.162   1.091 -0.8464 -2.1474  1.2923
    1SOL    MW4 2848   4.031   1.123   1.077 -0.0949 -0.4736  0.5915
    1SOL     OW 2849   4.270   1.262   1.158  0.4172 -0.2384 -0.0779
    1SOL    HW2 2850   4.262   1.273   1.253 -0.3231  1.8845 -0.3453
    1SOL    HW3 2851   4.188   1.219   1.132 -0.6053  1.6299 -0.0637
    1SOL    MW4 2852   4.258   1.258   1.168  0.1841  0.2882 -0.1113
    1SOL     OW 2853   4.222   1.540   1.089 -0.4400 -0.3376  0.0306
    1SOL    HW2 2854   4.223   1.451   1.123 -0.0391 -0.7577 -1.0774
    1SOL    HW3 2855   4.298   1.582   1.129  0.9307 -1.2856 -1.5556
    1SOL    MW4 2856   4.232   1.534   1.099 -0.2065 -0.5180 -0.3248
    1SOL     OW 2857   3.990   1.700   1.180  0.5425  0.1660  0.3806
    1SOL    HW2 2858   3.989   1.684   1.274 -1.1990 -2.0589  0.0532
    1SOL    HW3 2859   4.065   1.650   1.148  0.9282  0.6385  0.5520
    1SOL    MW4 2860   4.000   1.691   1.188  0.3636 -0.0653  0.3600
    1SOL     OW 2861   3.397   1.893   0.503  0.3155  0.0512 -0.5576
    1SOL    HW2 2862   3.414   1.823   0.565  0.4253  0.5416 -0.0243
    1SOL    HW3 2863   3.476   1.897   0.449  0.8741  0.6307  0.2678
    1SOL    MW4 2864   3.410   1.884   0.504  0.4036  0.1925 -0.3784
    1SOL     OW 2865   4.259   2.010   1.222 -0.2843  0.1387 -0.6352
    1SOL    HW2 2866   4.254   2.104   1.206 -0.2172  0.2342 -0.0987
    1SOL    HW3 2867   4.179   1.975   1.182 -0.1203  0.3692 -1.1770
    1SOL    MW4 2868   4.248   2.018   1.215 -0.2532  0.1817 -0.6360
    1SOL     OW 2869   4.270   2.278   1.131  0.1416  0.3151 -0.3271
    1SOL    HW2 2870   4.205   2.339   1.165  0.4615  0.8819 -0.7241
    1SOL    HW3 2871   4.277   2.299   1.038  0.7918  0.1688 -0.3176
    1SOL    MW4 2872   4.263   2.289   1.123  0.2694  0.3705 -0.3781
    1SOL     OW 2873   4.067   2.445   1.202 -0.3581  0.3389 -0.0743
    1SOL    HW2 2874   4.058   2.449   1.297  1.5756  0.4829  0.1173
    1SOL    HW3 2875   4.074   2.536   1.174  0.7134  0.2212 -0.1886
    1SOL    MW4 2876   4.067   2.457   1.211  0.0381  0.3424 -0.0641
    1SOL     OW 2877   4.088   2.725   1.155  0.5271  0.5837 -0.4669
    1SOL    HW2 2878   4.003   2.765   1.173  0.0437 -0.5316 -0.1790
    1SOL    HW3 2879   4.088   2.710   1.061  1.6530  3.3150 -0.9382
    1SOL    MW4 2880   4.077   2.728   1.145  0.6123  0.7973 -0.4911
    1SOL     OW 2881   4.272   2.891   1.270 -0.0123  0.2862 -0.1215
    1SOL    HW2 2882   4.286   2.958   1.203  1.1015 -1.3709 -1.5889
    1SOL    HW3 2883   4.201   2.837   1.236 -0.1025  0.0155  0.4847
    1SOL    MW4 2884   4.265   2.893   1.257  0.1230  0.0319 -0.2352
    1SOL     OW 2885   4.267   3.132   1.131 -0.0153  0.0024  0.1335
    1SOL    HW2 2886   4.193   3.178   1.170 -1.2977 -2.3399  0.5633
    1SOL    HW3 2887   4.250   3.131   1.037  0.6637  1.4853 -0.0153
    1SOL    MW4 2888   4.255   3.138   1.124 -0.0949 -0.1109  0.1707
    1SOL     OW 2889   4.060   3.257   1.252  0.3531 -0.2867 -0.1654
    1SOL    HW2 2890   4.060   3.244   1.347  0.9982  0.1945 -0.0968
    1SOL    HW3 2891   3.984   3.208   1.221 -0.3902  0.3031  0.6968
    1SOL    MW4 2892   4.050   3.249   1.260  0.3395 -0.1457 -0.0426
    1SOL     OW 2893   4.061   3.511   1.119  0.0131  0.5253 -0.1624
    1SOL    HW2 2894   4.046   3.428   1.163 -0.3351  1.1266  0.8722
    1SOL    HW3 2895   3.983   3.563   1.138  0.1265  1.0195 -0.9904
    1SOL    MW4 2896   4.049   3.507   1.127 -0.0186  0.6697 -0.1352
    1SOL     OW 2897   4.267   3.585   1.294  0.1245  0.0632  0.2444
    1SOL    HW2 2898   4.201   3.563   1.227  0.1052 -0.2789  0.3788
    1SOL    HW3 2899   4.348   3.548   1.261 -0.1803 -1.4478  1.1527
    1SOL    MW4 2900   4.269   3.578   1.281  0.0815 -0.1812  0.3819
    1SOL     OW 2901   4.281   3.847   1.190  0.2063  0.0251 -0.1940
    1SOL    HW2 2902   4.201   3.886   1.226  0.3494  0.9597 -0.8869
    1SOL    HW3 2903   4.286   3.761   1.232 -0.9028  0.1558  0.2261
    1SOL    MW4 2904   4.271   3.840   1.200  0.0787  0.1659 -0.2298
    1SOL     OW 2905   4.051   4.003   1.276  0.5959 -0.2768 -0.0875
    1SOL    HW2 2906   4.074   4.090   1.244  0.9069 -0.1614  0.4268
    1SOL    HW3 2907   3.977   3.976   1.222 -0.5163  0.9578  0.7629
    1SOL    MW4 2908   4.044   4.011   1.265  0.4897 -0.0987  0.0926
    1SOL     OW 2909   4.099   4.250   1.157 -0.5811  0.0654 -0.2297
    1SOL    HW2 2910   4.017   4.294   1.180 -0.4108  0.1289  0.2513
    1SOL    HW3 2911   4.105   4.260   1.061 -1.4119 -0.4218 -0.3351
    1SOL    MW4 2912   4.089   4.257   1.147 -0.6680  0.0086 -0.1802
    1SOL     OW 2913   4.306   4.395   1.257  0.0678 -0.0880  0.1981
    1SOL    HW2 2914   4.251   4.321   1.234 -1.0470  1.2219 -1.5115
    1SOL    HW3 2915   4.395   4.367   1.236 -0.3881 -0.8357 -0.7558
    1SOL    MW4 2916   4.310   4.382   1.251 -0.1392 -0.0143 -0.1532
    1SOL     OW 2917   0.201   0.007   1.636  0.4504 -0.1217  0.1764
    1SOL    HW2 2918   0.278   0.037   1.587  0.2435 -0.1836 -0.1903
    1SOL    HW3 2919   0.127   0.034   1.581  0.2183 -0.2116  0.4476
    1SOL    MW4 2920   0.201   0.015   1.622  0.3925 -0.1417  0.1639
    1SOL     OW 2921   0.008   0.130   1.474  0.1008  0.5516  0.5567
    1SOL    HW2 2922  -0.071   0.080   1.497 -0.2700  0.4831 -0.8369
    1SOL    HW3 2923   0.011   0.127   1.379  0.7626  2.1529  0.5178
    1SOL    MW4 2924  -0.002   0.123   1.465  0.1392  0.7538  0.3675
    1SOL     OW 2925   4.452   0.369   1.606  0.7263  0.0884 -0.4479
    1SOL    HW2 2926   4.483   0.376   1.696 -1.0115  0.9210  0.0997
    1SOL    HW3 2927   4.482   0.282   1.578 -0.1554 -0.8823  1.4944
    1SOL    MW4 2928   4.460   0.358   1.614  0.3810  0.0702 -0.1194
    1SOL     OW 2929   0.199   0.517   1.539  0.0205  0.3878  0.3710
    1SOL    HW2 2930   0.120   0.466   1.554 -1.0814  2.0181  0.3163
    1SOL    HW3 2931   0.221   0.500   1.447  0.5942 -1.2249  0.7996
    1SOL    MW4 2932   0.191   0.508   1.528 -0.0492  0.3902  0.4202
    1SOL     OW 2933   0.164   0.795   1.630  0.0221 -0.0301  0.1361
    1SOL    HW2 2934   0.171   0.701   1.615 -0.8483 -0.0410 -0.2333
    1SOL    HW3 2935   0.251   0.830   1.611  0.2125 -0.6956 -0.1944
    1SOL    MW4 2936   0.176   0.788   1.626 -0.0677 -0.1193  0.0437
    1SOL     OW 2937   4.428   0.906   1.478  0.1554 -0.7083  0.2648
    1SOL    HW2 2938   4.449   0.997   1.501  0.2998 -0.8996  0.9259
    1SOL    HW3 2939   4.504   0.856   1.509  0.5769 -0.9306 -1.0929
    1SOL    MW4 2940   4.441   0.912   1.485  0.2298 -0.7629  0.1729
    1SOL     OW 2941   4.475   1.168   1.569 -0.0166 -0.1122 -0.3209
    1SOL    HW2 2942   4.466   1.163   1.664 -1.4562  1.5720 -0.3489
    1SOL    HW3 2943   4.561   1.207   1.555  0.4096 -0.8097  0.2594
    1SOL    MW4 2944   4.485   1.172   1.580 -0.1497  0.0180 -0.2481
    1SOL     OW 2945   0.229   1.270   1.506 -0.5313  0.3507 -0.0380
    1SOL    HW2 2946   0.294   1.226   1.561 -0.8219 -0.9966 -0.7467
    1SOL    HW3 2947   0.235   1.362   1.531  0.7787  0.0602  0.7848
    1SOL    MW4 2948   0.239   1.276   1.517 -0.3968  0.1346 -0.0231
    1SOL     OW 2949   0.222   1.529   1.585  0.1588  0.3479  0.1913
    1SOL    HW2 2950   0.213   1.546   1.679 -0.6095  0.8417  0.0303
    1SOL    HW3 2951   0.147   1.573   1.545 -1.4675 -2.7468 -0.3442
    1SOL    MW4 2952   0.211   1.537   1.592 -0.1571  0.0048  0.0993
    1SOL     OW 2953   4.474   1.640   1.476 -0.4942 -0.2884 -0.5651
    1SOL    HW2 2954   4.490   1.727   1.512  2.2894 -0.6691 -0.8214
    1SOL    HW3 2955   4.474   1.653   1.381  1.0866 -0.7356 -0.6381
    1SOL    MW4 2956   4.476   1.653   1.468  0.0811 -0.3976 -0.6084
    1SOL     OW 2957   0.018   1.887   1.606 -0.7070  0.0194  0.0768
    1SOL    HW2 2958   0.045   1.898   1.697  0.2829 -0.6957 -0.1279
    1SOL    HW3 2959  -0.063   1.937   1.599 -0.7974  0.0620  1.3592
    1SOL    MW4 2960   0.011   1.895   1.617 -0.5884 -0.0694  0.2190
    1SOL     OW 2961   0.238   2.051   1.503 -0.5283 -0.0540  0.1041
    1SOL    HW2 2962   0.158   1.999   1.515 -0.2651 -0.2971  0.8074
    1SOL    HW3 2963   0.251   2.053   1.408  0.5761 -2.9953  0.1302
    1SOL    MW4 2964   0.229   2.044   1.492 -0.3478 -0.4742  0.2004
    1SOL     OW 2965   0.197   2.320   1.596  0.0779  0.3578 -0.1286
    1SOL    HW2 2966   0.211   2.342   1.688  1.1227  0.4796 -0.3023
    1SOL    HW3 2967   0.215   2.226   1.591  0.3050  0.4070 -0.2574
    1SOL    MW4 2968   0.201   2.310   1.607  0.2457  0.3805 -0.1686
    1SOL     OW 2969   4.472   2.456   1.472 -0.1449  0.2051 -0.0011
    1SOL    HW2 2970   4.394   2.413   1.507 -0.6846  0.3991 -0.9564
    1SOL    HW3 2971   4.545   2.405   1.506 -0.7276 -0.5446  0.1287
    1SOL    MW4 2972   4.471   2.444   1.481 -0.2933  0.1316 -0.1099
    1SOL     OW 2973   0.042   2.694   1.594  0.0831 -0.0286  0.0061
    1SOL    HW2 2974  -0.034   2.746   1.566 -0.9059 -1.9773 -1.0470
    1SOL    HW3 2975   0.031   2.610   1.549  1.9274 -0.9641  1.2552
    1SOL    MW4 2976   0.031   2.690   1.584  0.1955 -0.4091  0.0321
    1SOL     OW 2977   0.260   2.853   1.570 -0.0778 -0.0657 -0.2096
    1SOL    HW2 2978   0.336   2.798   1.590  0.0154  0.0628 -0.2140
    1SOL    HW3 2979   0.185   2.794   1.582 -0.0460  0.0739  0.7806
    1SOL    MW4 2980   0.260   2.838   1.575 -0.0613 -0.0303 -0.0795
    1SOL     OW 2981   0.215   3.105   1.666 -0.3150  0.3912 -0.1157
    1SOL    HW2 2982   0.144   3.136   1.610  0.2777 -0.0137 -1.1147
    1SOL    HW3 2983   0.230   3.014   1.638  2.8794  1.5080 -2.3375
    1SOL    MW4 2984   0.208   3.097   1.655  0.1847  0.4849 -0.5405
    1SOL     OW 2985   4.465   3.219   1.556  0.4175  0.0672  0.3628
    1SOL    HW2 2986   4.466   3.307   1.594  0.3889  0.3134 -0.2037
    1SOL    HW3 2987   4.482   3.233   1.462 -0.1209 -0.4886  0.1813
    1SOL    MW4 2988   4.468   3.232   1.548  0.3433  0.0265  0.2640
    1SOL     OW 2989   0.006   3.498   1.668 -0.2744 -0.1835 -0.2944
    1SOL    HW2 2990   0.004   3.487   1.763 -0.7533 -0.7851 -0.3755
    1SOL    HW3 2991  -0.081   3.528   1.645  0.5653  2.4410 -0.2594
    1SOL    MW4 2992  -0.006   3.500   1.677 -0.2268  0.0834 -0.3006
    1SOL     OW 2993   0.221   3.645   1.558 -0.2927  0.4395  0.0871
    1SOL    HW2 2994   0.217   3.737   1.585  0.5526  0.1931  1.1137
    1SOL    HW3 2995   0.148   3.603   1.604 -0.7035  0.6043 -0.4136
    1SOL    MW4 2996   0.211   3.651   1.568 -0.2354  0.4287  0.1565
    1SOL     OW 2997   0.204   3.914   1.635  0.1771  0.0227 -0.2501
    1SOL    HW2 2998   0.207   3.907   1.731 -1.7849  0.3535 -0.1602
    1SOL    HW3 2999   0.294   3.938   1.611  0.1305  2.3558  1.7141
    1SOL    MW4 3000   0.217   3.916   1.645 -0.0879  0.3741  0.0210
    1SOL     OW 3001   4.467   4.027   1.558  0.7203 -0.4773 -0.6601
    1SOL    HW2 3002   4.468   4.114   1.599 -0.4015  0.0030 -1.6183
    1SOL    HW3 3003   4.554   3.991   1.576  1.3701  1.0326 -0.6541
    1SOL    MW4 3004   4.479   4.034   1.566  0.6580 -0.2141 -0.7858
    1SOL     OW 3005   0.018   4.286   1.635  0.0356 -0.1102 -0.4847
    1SOL    HW2 3006   0.003   4.271   1.728 -0.1471 -2.1099 -0.8199
    1SOL    HW3 3007  -0.054   4.343   1.607 -0.9914 -1.0939  0.1722
    1SOL    MW4 3008   0.007   4.292   1.643 -0.1240 -0.5035 -0.4423
    1SOL     OW 3009   0.254   4.404   1.546 -0.0263 -0.4014  0.1692
    1SOL    HW2 3010   0.181   4.347   1.571 -1.2285  0.8909 -0.3791
    1SOL    HW3 3011   0.237   4.487   1.591  1.3316 -0.2216  0.3802
    1SOL    MW4 3012   0.242   4.407   1.555 -0.0058 -0.2069  0.1248
    1SOL     OW 3013   0.647   4.647   1.607  0.7455 -0.2579 -0.4881
    1SOL    HW2 3014   0.718   4.701   1.572  0.8715  0.0629  0.2760
    1SOL    HW3 3015   0.567   4.690   1.578  0.8507  0.0021 -0.3885
    1SOL    MW4 3016   0.646   4.660   1.598  0.7760 -0.1817 -0.3741
    1SOL     OW 3017   0.428   0.114   1.510  0.1507  0.1062  0.2527
    1SOL    HW2 3018   0.435   0.205   1.541  0.5316 -0.0509  0.6374
    1SOL    HW3 3019   0.415   0.122   1.416 -0.7414  0.5856  0.4161
    1SOL    MW4 3020   0.427   0.127   1.502  0.0833  0.1487  0.3251
    1SOL     OW 3021   0.440   0.381   1.622 -0.3390 -0.3865  0.1916
    1SOL    HW2 3022   0.522   0.413   1.584 -1.3292  1.8789 -0.0589
    1SOL    HW3 3023   0.373   0.440   1.588 -1.7992 -0.8979  2.1360
    1SOL    MW4 3024   0.442   0.393   1.612 -0.6623 -0.1551  0.4151
    1SOL     OW 3025   0.689   0.493   1.527  0.2987  0.3418 -0.0923
    1SOL    HW2 3026   0.667   0.579   1.561 -0.9377  0.2344 -0.5922
    1SOL    HW3 3027   0.664   0.496   1.434  0.3434 -0.5248 -0.1387
    1SOL    MW4 3028   0.683   0.505   1.519  0.1414  0.2134 -0.1645
    1SOL     OW 3029   0.648   0.768   1.623 -0.3210  0.3316 -0.0323
    1SOL    HW2 3030   0.662   0.760   1.717 -0.3331 -2.5376 -0.2373
    1SOL    HW3 3031   0.727   0.810   1.591 -0.8328  2.4545  1.3875
    1SOL    MW4 3032   0.660   0.772   1.631 -0.3901  0.2331  0.1279
    1SOL     OW 3033   0.421   0.885   1.522 -0.1060  0.2894 -0.3780
    1SOL    HW2 3034   0.429   0.971   1.563  0.7690 -0.1298  0.3570
    1SOL    HW3 3035   0.493   0.834   1.560 -1.4680 -1.1914  0.2998
    1SOL    MW4 3036   0.431   0.889   1.533 -0.1703  0.0387 -0.1917
    1SOL     OW 3037   0.457   1.137   1.630 -0.3063 -0.2650  0.1691
    1SOL    HW2 3038   0.546   1.160   1.604 -0.7059  1.4557  0.2945
    1SOL    HW3 3039   0.456   1.149   1.725 -1.0837  1.1726 -0.0072
    1SOL    MW4 3040   0.469   1.141   1.639 -0.4616  0.1515  0.1624
    1SOL     OW 3041   0.696   1.256   1.543  0.2970 -0.3141 -0.4139
    1SOL    HW2 3042   0.688   1.350   1.556 -1.4933 -0.3234 -1.2887
    1SOL    HW3 3043   0.719   1.247   1.450  0.9851 -0.7238 -0.2065
    1SOL    MW4 3044   0.698   1.267   1.532  0.1516 -0.3694 -0.5020
    1SOL     OW 3045   0.670   1.527   1.606 -0.5998  0.0711  0.2242
    1SOL    HW2 3046   0.735   1.594   1.583 -0.6815  0.2865  0.6223
    1SOL    HW3 3047   0.588   1.559   1.571 -0.7356  0.4279  0.8541
    1SOL    MW4 3048   0.668   1.540   1.599 -0.6284  0.1465  0.3598
    1SOL     OW 3049   0.452   1.636   1.499 -0.4497  0.2035 -0.2192
    1SOL    HW2 3050   0.460   1.722   1.540  0.6835  0.3237 -0.6640
    1SOL    HW3 3051   0.370   1.601   1.532 -0.0445  0.7166  1.3785
    1SOL    MW4 3052   0.442   1.643   1.509 -0.2468  0.2869 -0.0670
    1SOL     OW 3053   0.460   1.897   1.593  0.3593 -0.0161  0.3048
    1SOL    HW2 3054   0.467   1.920   1.685 -0.0700 -1.8833  0.8062
    1SOL    HW3 3055   0.387   1.950   1.560  0.7149  0.8874  0.9325
    1SOL    MW4 3056   0.452   1.907   1.601  0.3496 -0.1432  0.4538
    1SOL     OW 3057   0.675   2.082   1.503 -0.0216  0.2049 -0.0854
    1SOL    HW2 3058   0.739   2.026   1.546  0.4609  0.0380 -1.0020
    1SOL    HW3 3059   0.593   2.033   1.511  0.0030  0.3085  0.8748
    1SOL    MW4 3060   0.672   2.068   1.510  0.0453  0.1965 -0.0798
    1SOL     OW 3061   0.678   2.338   1.611 -0.5034 -0.2133  0.2099
    1SOL    HW2 3062   0.593   2.372   1.584 -0.9275 -0.3180  1.3553
    1SOL    HW3 3063   0.685   2.252   1.570 -0.4577  0.2586 -0.7866
    1SOL    MW4 3064   0.668   2.331   1.602 -0.5534 -0.1647  0.2294
    1SOL     OW 3065   0.439   2.454   1.514 -0.0682  0.0457  0.1350
    1SOL    HW2 3066   0.439   2.539   1.560  0.2431  0.5310 -0.7541
    1SOL    HW3 3067   0.352   2.418   1.532 -0.1062  0.4272  0.7433
    1SOL    MW4 3068   0.427   2.461   1.523 -0.0322  0.1602  0.0979
    1SOL     OW 3069   0.493   2.716   1.615  0.4919 -0.0814 -0.3497
    1SOL    HW2 3070   0.501   2.714   1.710 -1.2352  0.1599 -0.1856
    1SOL    HW3 3071   0.573   2.758   1.585  0.8055  0.3315  1.0328
    1SOL    MW4 3072   0.505   2.721   1.623  0.3054  0.0050 -0.1457
    1SOL     OW 3073   0.698   2.867   1.499 -0.0195 -0.3725 -0.1845
    1SOL    HW2 3074   0.687   2.951   1.544  0.9853  0.4826 -1.4965
    1SOL    HW3 3075   0.774   2.826   1.542  0.2115 -0.0841 -0.3175
    1SOL    MW4 3076   0.707   2.873   1.511  0.1436 -0.2215 -0.3752
    1SOL     OW 3077   0.644   3.114   1.616  0.0556  0.0291 -0.1930
    1SOL    HW2 3078   0.716   3.157   1.571  0.1947 -0.5408 -0.5221
    1SOL    HW3 3079   0.565   3.156   1.580  0.1817 -0.1341 -0.6563
    1SOL    MW4 3080   0.643   3.125   1.605  0.0906 -0.0675 -0.2975
    1SOL     OW 3081   0.424   3.255   1.524 -0.4270 -0.0898 -0.2213
    1SOL    HW2 3082   0.349   3.197   1.536  0.1704 -1.1377 -1.5019
    1SOL    HW3 3083   0.431   3.266   1.429  1.3024 -0.3490 -0.1340
    1SOL    MW4 3084   0.415   3.249   1.513 -0.1200 -0.2623 -0.3788
    1SOL     OW 3085   0.452   3.513   1.642  0.0752 -0.0142 -0.1513
    1SOL    HW2 3086   0.426   3.425   1.614 -1.0738 -0.0734  1.0401
    1SOL    HW3 3087   0.384   3.571   1.607  0.9464  0.4429 -1.1196
    1SOL    MW4 3088   0.439   3.509   1.634  0.0386  0.0384 -0.1220
    1SOL     OW 3089   0.681   3.591   1.510 -0.2096  0.0475 -0.1815
    1SOL    HW2 3090   0.753   3.554   1.561 -0.0308 -0.3953 -0.7445
    1SOL    HW3 3091   0.602   3.557   1.552 -0.0526 -0.7488 -0.5088
    1SOL    MW4 3092   0.680   3.581   1.522 -0.1652 -0.1159 -0.2990
    1SOL     OW 3093   0.670   3.843   1.611 -0.0264 -0.1557 -0.1285
    1SOL    HW2 3094   0.758   3.880   1.603 -0.4402  0.3939 -2.2606
    1SOL    HW3 3095   0.679   3.753   1.580 -0.3651  0.1146 -1.0043
    1SOL    MW4 3096   0.683   3.836   1.606 -0.1256 -0.0474 -0.5254
    1SOL     OW 3097   0.441   4.001   1.548  0.2605  0.4272  0.1759
    1SOL    HW2 3098   0.521   3.954   1.570  0.0276 -0.5799 -1.0774
    1SOL    HW3 3099   0.433   3.992   1.453 -1.8434 -0.2906  0.3960
    1SOL    MW4 3100   0.451   3.994   1.538 -0.0478  0.1996  0.0396
    1SOL     OW 3101   0.475   4.264   1.644 -0.7230  0.2082  0.1382
    1SOL    HW2 3102   0.459   4.184   1.595 -1.0738  0.0382  0.5277
    1SOL    HW3 3103   0.410   4.326   1.610 -0.5188  0.2927 -0.0919
    1SOL    MW4 3104   0.464   4.262   1.633 -0.7423  0.1969  0.1591
    1SOL     OW 3105   0.715   4.389   1.532 -0.0202  0.2646  0.2392
    1SOL    HW2 3106   0.643   4.356   1.586 -0.2270  1.2272  0.5457
    1SOL    HW3 3107   0.718   4.483   1.550  0.5202  0.4307 -0.7030
    1SOL    MW4 3108   0.706   4.397   1.541  0.0237  0.4134  0.1554
    1SOL     OW 3109   1.106   4.639   1.572  0.1061  0.2367 -0.0776
    1SOL    HW2 3110   1.111   4.642   1.667  0.0281  0.2724 -0.0749
    1SOL    HW3 3111   1.185   4.684   1.542  0.0784  0.3167 -0.0304
    1SOL    MW4 3112   1.117   4.645   1.581  0.0921  0.2518 -0.0709
    1SOL     OW 3113   0.868   0.092   1.497  0.3239  0.1469  0.1448
    1SOL    HW2 3114   0.883   0.176   1.540 -1.4723 -0.1987  1.4976
    1SOL    HW3 3115   0.947   0.042   1.516  1.2649  1.3933 -0.3864
    1SOL    MW4 3116   0.881   0.097   1.505  0.2110  0.2657  0.2532
    1SOL     OW 3117   0.899   0.338   1.628  0.1381 -0.6200 -0.1032
    1SOL    HW2 3118   0.917   0.362   1.719  1.8435 -1.0380 -0.3169
    1SOL    HW3 3119   0.828   0.396   1.602  0.1501  0.0307  1.2576
    1SOL    MW4 3120   0.892   0.349   1.637  0.3647 -0.5893  0.0480
    1SOL     OW 3121   1.096   0.485   1.453  0.0543 -0.2721 -0.3395
    1SOL    HW2 3122   1.086   0.564   1.506  2.0254  0.2713 -0.7325
    1SOL    HW3 3123   1.030   0.424   1.487  0.4841  0.4945  1.9335
    1SOL    MW4 3124   1.086   0.487   1.464  0.3711 -0.0992 -0.0916
    1SOL     OW 3125   1.084   0.717   1.617  0.1631  0.7229  0.0246
    1SOL    HW2 3126   1.100   0.725   1.711 -0.9502 -1.9624  0.4765
    1SOL    HW3 3127   1.155   0.769   1.577  2.3431 -0.3882  2.2758
    1SOL    MW4 3128   1.096   0.725   1.624  0.3037  0.2219  0.3811
    1SOL     OW 3129   0.861   0.897   1.518  0.3135  0.3821 -0.4818
    1SOL    HW2 3130   0.926   0.830   1.541 -0.4825 -0.5669 -0.9395
    1SOL    HW3 3131   0.878   0.916   1.426  1.0951  1.4583 -0.1291
    1SOL    MW4 3132   0.872   0.891   1.509  0.3116  0.3989 -0.4957
    1SOL     OW 3133   0.933   1.157   1.619 -0.2537  0.1486  0.2788
    1SOL    HW2 3134   0.913   1.066   1.600  0.0262  0.0414  0.5002
    1SOL    HW3 3135   0.849   1.203   1.609 -0.1094  0.0958 -1.1837
    1SOL    MW4 3136   0.919   1.151   1.615 -0.1977  0.1273  0.1152
    1SOL     OW 3137   1.153   1.269   1.482 -0.4689  0.0940  0.4052
    1SOL    HW2 3138   1.228   1.217   1.511 -0.7016 -0.4225  0.0931
    1SOL    HW3 3139   1.081   1.240   1.538  0.0502  2.1399  2.1730
    1SOL    MW4 3140   1.153   1.258   1.493 -0.4311  0.2959  0.5970
    1SOL     OW 3141   1.102   1.525   1.596  0.3822  0.1644  0.1788
    1SOL    HW2 3142   1.185   1.564   1.569  0.8673 -0.5228  0.6844
    1SOL    HW3 3143   1.104   1.437   1.559  0.1102 -0.0403  0.6568
    1SOL    MW4 3144   1.113   1.519   1.588  0.4103  0.0468  0.3086
    1SOL     OW 3145   0.897   1.688   1.524 -0.5233  0.2963 -0.1753
    1SOL    HW2 3146   0.968   1.633   1.558 -1.4332 -0.9100 -0.1910
    1SOL    HW3 3147   0.903   1.678   1.429 -0.3367  0.6751 -0.2033
    1SOL    MW4 3148   0.907   1.679   1.516 -0.6187  0.1872 -0.1811
    1SOL     OW 3149   0.879   1.934   1.631  0.3597 -0.0738  0.3965
    1SOL    HW2 3150   0.960   1.978   1.606  1.7263 -1.8514  1.5331
    1SOL    HW3 3151   0.880   1.852   1.581 -0.9126  0.0512  0.1561
    1SOL    MW4 3152   0.890   1.929   1.621  0.3722 -0.2916  0.5146
    1SOL     OW 3153   1.109   2.054   1.481 -0.4965  0.2817  0.1687
    1SOL    HW2 3154   1.178   2.009   1.529 -0.3632  0.5635  0.2452
    1SOL    HW3 3155   1.105   2.141   1.521 -0.2155  0.6019 -0.4801
    1SOL    MW4 3156   1.118   2.060   1.492 -0.4418  0.3610  0.0932
    1SOL     OW 3157   1.115   2.299   1.604  0.2909 -0.4372  0.0610
    1SOL    HW2 3158   1.188   2.331   1.550  0.2405  0.3488  0.4520
    1SOL    HW3 3159   1.038   2.344   1.569  0.3234  0.4330  1.0737
    1SOL    MW4 3160   1.114   2.309   1.592  0.2886 -0.2186  0.2462
    1SOL     OW 3161   0.895   2.470   1.505  0.0801 -0.1555  0.2396
    1SOL    HW2 3162   0.917   2.453   1.413  1.1819 -0.1011  0.4855
    1SOL    HW3 3163   0.808   2.433   1.516 -0.1818  0.1059 -0.9084
    1SOL    MW4 3164   0.886   2.463   1.494  0.1909 -0.1137  0.1205
    1SOL     OW 3165   0.882   2.712   1.619 -0.0525  0.0428 -0.0157
    1SOL    HW2 3166   0.899   2.711   1.713 -1.5010 -1.6665  0.2753
    1SOL    HW3 3167   0.887   2.620   1.593 -1.1600  0.3256 -1.3089
    1SOL    MW4 3168   0.885   2.699   1.628 -0.3898 -0.1454 -0.1479
    1SOL     OW 3169   1.110   2.832   1.492 -0.1616 -0.4760  0.0589
    1SOL    HW2 3170   1.115   2.919   1.531  1.2089 -0.5937  0.1811
    1SOL    HW3 3171   1.030   2.794   1.528 -0.4626  0.5186  0.4517
    1SOL    MW4 3172   1.100   2.838   1.502 -0.0206 -0.3603  0.1268
    1SOL     OW 3173   1.099   3.088   1.587 -0.5541 -0.5516 -0.0651
    1SOL    HW2 3174   1.096   3.102   1.682 -0.5220  1.8875 -0.4017
    1SOL    HW3 3175   1.178   3.134   1.559 -0.5940 -1.2223 -1.2987
    1SOL    MW4 3176   1.109   3.096   1.596 -0.5550 -0.3183 -0.2723
    1SOL     OW 3177   0.872   3.222   1.505  0.0269 -0.0611 -0.5259
    1SOL    HW2 3178   0.952   3.177   1.534 -0.1058 -0.1871 -0.3554
    1SOL    HW3 3179   0.875   3.216   1.409  0.6585  0.6937 -0.5611
    1SOL    MW4 3180   0.883   3.215   1.496  0.0927  0.0215 -0.5081
    1SOL     OW 3181   0.892   3.457   1.644 -0.5562 -0.3809 -0.1021
    1SOL    HW2 3182   0.978   3.489   1.617 -0.6936  0.1411  0.0643
    1SOL    HW3 3183   0.882   3.373   1.599  0.8288 -1.3535  1.4011
    1SOL    MW4 3184   0.902   3.450   1.634 -0.3915 -0.4404  0.1183
    1SOL     OW 3185   1.129   3.555   1.531  0.3016 -0.1624  0.1590
    1SOL    HW2 3186   1.214   3.515   1.550  0.4251  0.5438  1.1548
    1SOL    HW3 3187   1.128   3.565   1.436  1.4669  0.1096  0.1633
    1SOL    MW4 3188   1.140   3.551   1.521  0.4716 -0.0334  0.2909
    1SOL     OW 3189   1.177   3.816   1.621 -0.6078  0.2526 -0.5503
    1SOL    HW2 3190   1.231   3.867   1.561  1.2332 -0.6222  0.3502
    1SOL    HW3 3191   1.172   3.729   1.581 -1.1537  0.2519 -0.4935
    1SOL    MW4 3192   1.183   3.811   1.608 -0.4368  0.1371 -0.4240
    1SOL     OW 3193   0.920   3.981   1.568 -0.0325 -0.1937  0.3865
    1SOL    HW2 3194   0.943   4.074   1.571 -0.5379 -0.0437 -0.3504
    1SOL    HW3 3195   1.004   3.936   1.578  0.4277  0.3496 -0.8605
    1SOL    MW4 3196   0.934   3.987   1.570 -0.0384 -0.1020  0.1248
    1SOL     OW 3197   0.945   4.256   1.559 -0.2981  0.2119 -0.7419
    1SOL    HW2 3198   0.940   4.254   1.655 -0.0314 -0.1997 -0.7361
    1SOL    HW3 3199   0.866   4.302   1.532 -0.5344  0.0447 -0.3378
    1SOL    MW4 3200   0.934   4.262   1.568 -0.2941  0.1359 -0.6880
    1SOL     OW 3201   1.170   4.385   1.489  0.0373  0.4303 -0.6986
    1SOL    HW2 3202   1.087   4.342   1.510  1.3021 -1.3364  0.8330
    1SOL    HW3 3203   1.155   4.477   1.512 -1.7335  0.2682 -1.1540
    1SOL    MW4 3204   1.157   4.392   1.495 -0.0296  0.1764 -0.5566
    1SOL     OW 3205   1.584   4.616   1.601  0.5259 -0.0387 -0.2118
    1SOL    HW2 3206   1.579   4.623   1.697  0.9286  0.4929 -0.2217
    1SOL    HW3 3207   1.506   4.663   1.570  0.1704 -0.5789 -0.1332
    1SOL    MW4 3208   1.573   4.623   1.610  0.5322 -0.0396 -0.2028
    1SOL     OW 3209   1.357   0.082   1.495 -0.3598 -0.1445  0.2520
    1SOL    HW2 3210   1.347   0.176   1.506 -1.5525 -0.2191 -0.1131
    1SOL    HW3 3211   1.367   0.070   1.400  1.9007 -0.2059  0.4787
    1SOL    MW4 3212   1.357   0.093   1.484 -0.2190 -0.1625  0.2338
    1SOL     OW 3213   1.306   0.369   1.582 -0.4655  0.1891  0.0023
    1SOL    HW2 3214   1.388   0.410   1.554 -0.0627 -0.6387 -0.0550
    1SOL    HW3 3215   1.238   0.414   1.532  0.0469  0.2226 -0.6643
    1SOL    MW4 3216   1.308   0.380   1.572 -0.3448  0.0843 -0.0932
    1SOL     OW 3217   1.531   0.495   1.470  0.2962 -0.3077 -0.6302
    1SOL    HW2 3218   1.604   0.441   1.500 -0.5594 -2.1678 -1.8135
    1SOL    HW3 3219   1.538   0.495   1.375  0.3812  1.8511 -0.6489
    1SOL    MW4 3220   1.542   0.488   1.462  0.1945 -0.2683 -0.7889
    1SOL     OW 3221   1.551   0.753   1.591  0.3037 -0.3735  0.6942
    1SOL    HW2 3222   1.577   0.755   1.683 -1.5823 -0.4159  1.2292
    1SOL    HW3 3223   1.539   0.660   1.572  0.4382 -0.3455  0.4660
    1SOL    MW4 3224   1.553   0.741   1.600  0.0726 -0.3754  0.7347
    1SOL     OW 3225   1.301   0.861   1.507  0.2658  0.3874  0.2063
    1SOL    HW2 3226   1.384   0.828   1.541 -0.6786 -1.6820  0.5676
    1SOL    HW3 3227   1.317   0.873   1.414  1.0580  0.2886  0.3234
    1SOL    MW4 3228   1.314   0.859   1.499  0.2457  0.1013  0.2694
    1SOL     OW 3229   1.343   1.109   1.604 -0.3876  0.2121  0.5717
    1SOL    HW2 3230   1.322   1.102   1.697  3.5704  0.3760  1.5603
    1SOL    HW3 3231   1.339   1.019   1.572  0.5992 -0.1691  1.4844
    1SOL    MW4 3232   1.340   1.096   1.612  0.2648  0.1835  0.8225
    1SOL     OW 3233   1.617   1.219   1.520  0.2551 -0.1323 -0.0435
    1SOL    HW2 3234   1.547   1.161   1.550  0.3857 -0.6874 -0.7994
    1SOL    HW3 3235   1.697   1.181   1.556  0.2282  0.1697  0.3326
    1SOL    MW4 3236   1.618   1.206   1.529  0.2688 -0.1656 -0.0935
    1SOL     OW 3237   1.574   1.484   1.569  0.1305  0.1880 -0.3328
    1SOL    HW2 3238   1.590   1.501   1.662  0.7345  0.4415 -0.4816
    1SOL    HW3 3239   1.589   1.390   1.559 -2.9417 -0.4165  0.4353
    1SOL    MW4 3240   1.578   1.474   1.580 -0.1951  0.1419 -0.2513
    1SOL     OW 3241   1.340   1.644   1.511  0.6494  0.1919 -0.2355
    1SOL    HW2 3242   1.414   1.587   1.532  0.9188  0.4411 -0.4998
    1SOL    HW3 3243   1.348   1.660   1.417  0.2570  0.2175 -0.2658
    1SOL    MW4 3244   1.351   1.639   1.502  0.6331  0.2282 -0.2745
    1SOL     OW 3245   1.342   1.910   1.588  1.0286  0.1983 -0.2409
    1SOL    HW2 3246   1.367   1.905   1.680 -1.6243  0.2912  0.5290
    1SOL    HW3 3247   1.348   1.820   1.557  0.2267 -0.1302  0.5232
    1SOL    MW4 3248   1.346   1.897   1.596  0.5728  0.1673 -0.0385
    1SOL     OW 3249   1.555   2.057   1.489  0.0284 -0.4227 -0.1798
    1SOL    HW2 3250   1.479   2.005   1.514 -1.0380  1.0622 -0.2944
    1SOL    HW3 3251   1.569   2.036   1.397  0.0346 -1.0420 -0.0380
    1SOL    MW4 3252   1.547   2.047   1.480 -0.1116 -0.3088 -0.1763
    1SOL     OW 3253   1.540   2.346   1.583  0.0444  0.4833 -0.0561
    1SOL    HW2 3254   1.624   2.390   1.568  0.8290 -0.5901  1.1433
    1SOL    HW3 3255   1.557   2.254   1.564 -1.1955  0.4416 -1.0355
    1SOL    MW4 3256   1.553   2.340   1.578 -0.0155  0.3362 -0.0271
    1SOL     OW 3257   1.318   2.404   1.447 -0.0430 -0.0972 -0.1126
    1SOL    HW2 3258   1.293   2.484   1.493  0.0691 -0.1564  0.0489
    1SOL    HW3 3259   1.402   2.379   1.486  0.3944  0.2380 -0.8316
    1SOL    MW4 3260   1.326   2.411   1.458  0.0296 -0.0608 -0.1861
    1SOL     OW 3261   1.290   2.658   1.574  0.1841 -0.2536  0.0273
    1SOL    HW2 3262   1.369   2.694   1.534  0.7106 -3.2110 -1.6713
    1SOL    HW3 3263   1.220   2.716   1.543  1.2496  0.5062 -1.0407
    1SOL    MW4 3264   1.291   2.671   1.565  0.3941 -0.5436 -0.3377
    1SOL     OW 3265   1.520   2.809   1.496 -0.0775  0.1533 -0.1299
    1SOL    HW2 3266   1.592   2.768   1.543 -0.8374 -0.4878  0.4936
    1SOL    HW3 3267   1.546   2.806   1.404  0.1685 -1.1568 -0.0301
    1SOL    MW4 3268   1.533   2.803   1.490 -0.1452 -0.1042 -0.0345
    1SOL     OW 3269   1.557   3.061   1.602  0.3307 -0.0968  0.2633
    1SOL    HW2 3270   1.629   3.106   1.557 -0.1756 -0.6703 -1.1625
    1SOL    HW3 3271   1.549   2.977   1.556 -1.7925  0.3062 -0.1648
    1SOL    MW4 3272   1.565   3.056   1.590 -0.0163 -0.1192  0.0187
    1SOL     OW 3273   1.335   3.204   1.522 -0.6264 -0.2905 -0.3571
    1SOL    HW2 3274   1.358   3.286   1.565 -0.7294 -1.3045  1.6804
    1SOL    HW3 3275   1.407   3.145   1.543 -0.4130 -0.6577 -2.0484
    1SOL    MW4 3276   1.348   3.207   1.530 -0.6118 -0.4728 -0.3114
    1SOL     OW 3277   1.374   3.459   1.607 -0.7578 -0.0378  0.1271
    1SOL    HW2 3278   1.386   3.466   1.701 -2.1206 -1.9342  0.4801
    1SOL    HW3 3279   1.437   3.520   1.569  1.1892 -0.7286  2.2029
    1SOL    MW4 3280   1.384   3.468   1.614 -0.6807 -0.3793  0.4475
    1SOL     OW 3281   1.559   3.603   1.473  0.1266  0.1879  0.1888
    1SOL    HW2 3282   1.562   3.692   1.507 -1.6595  0.1927  0.3794
    1SOL    HW3 3283   1.581   3.613   1.380 -0.3457  0.8673  0.1442
    1SOL    MW4 3284   1.563   3.616   1.465 -0.1714  0.2780  0.2079
    1SOL     OW 3285   1.588   3.856   1.571  0.4037  0.0266  0.1082
    1SOL    HW2 3286   1.589   3.863   1.666  0.1135  0.9948  0.0422
    1SOL    HW3 3287   1.508   3.901   1.544  0.4113 -0.3674 -0.5824
    1SOL    MW4 3288   1.578   3.863   1.580  0.3664  0.1023  0.0085
    1SOL     OW 3289   1.362   3.977   1.486 -0.4686  0.1611 -0.2677
    1SOL    HW2 3290   1.342   4.064   1.520 -1.1796 -0.4003  0.7896
    1SOL    HW3 3291   1.366   3.988   1.392 -0.3432  1.3805 -0.1242
    1SOL    MW4 3292   1.360   3.990   1.478 -0.5459  0.2482 -0.1093
    1SOL     OW 3293   1.346   4.218   1.629  0.6310 -0.2478 -0.1510
    1SOL    HW2 3294   1.427   4.266   1.610 -0.1017  1.0139 -0.1958
    1SOL    HW3 3295   1.277   4.273   1.592 -0.2586 -1.2165  0.0590
    1SOL    MW4 3296   1.348   4.232   1.622  0.4170 -0.2089 -0.1293
    1SOL     OW 3297   1.578   4.340   1.532 -0.0986 -0.2367 -0.2962
    1SOL    HW2 3298   1.672   4.321   1.541 -0.2483 -0.8402  0.1019
    1SOL    HW3 3299   1.571   4.434   1.543  0.4879 -0.1637 -0.5323
    1SOL    MW4 3300   1.589   4.350   1.535 -0.0410 -0.3066 -0.2748
    1SOL     OW 3301   1.991   4.641   1.557 -0.0370  0.3771  0.0445
    1SOL    HW2 3302   1.972   4.643   1.651 -0.0530  0.1182  0.0462
    1SOL    HW3 3303   1.913   4.680   1.516  0.3064  1.2360  0.1907
    1SOL    MW4 3304   1.978   4.646   1.564  0.0062  0.4563  0.0641
    1SOL     OW 3305   1.757   0.128   1.475  0.5556 -0.0821 -0.2423
    1SOL    HW2 3306   1.690   0.076   1.518  1.7855 -1.6555 -0.1824
    1SOL    HW3 3307   1.744   0.111   1.381  0.2632  0.3825 -0.2887
    1SOL    MW4 3308   1.746   0.119   1.468  0.6793 -0.2284 -0.2403
    1SOL     OW 3309   1.763   0.372   1.579  0.4366 -0.2909 -0.3531
    1SOL    HW2 3310   1.846   0.414   1.556  0.5791  0.1829  0.9654
    1SOL    HW3 3311   1.773   0.282   1.548  0.3736  0.4519 -2.6233
    1SOL    MW4 3312   1.775   0.366   1.572  0.4470 -0.1304 -0.4786
    1SOL     OW 3313   2.013   0.491   1.530  0.2543  0.0572 -0.5020
    1SOL    HW2 3314   2.103   0.463   1.543  0.6881  0.8616 -1.6654
    1SOL    HW3 3315   2.014   0.585   1.545 -0.6513 -0.1091  0.7093
    1SOL    MW4 3316   2.025   0.499   1.534  0.1922  0.1414 -0.4956
    1SOL     OW 3317   2.027   0.762   1.575  0.2418 -0.2480  0.2859
    1SOL    HW2 3318   2.021   0.771   1.671  1.1490 -3.4374  0.7037
    1SOL    HW3 3319   1.938   0.778   1.544  0.2290  2.2382  1.5046
    1SOL    MW4 3320   2.014   0.765   1.584  0.3600 -0.3408  0.5018
    1SOL     OW 3321   1.787   0.855   1.478 -0.0935 -0.1284 -0.1701
    1SOL    HW2 3322   1.799   0.928   1.539  0.7811 -1.4759  1.2981
    1SOL    HW3 3323   1.708   0.811   1.508 -0.5596  0.1270 -0.9948
    1SOL    MW4 3324   1.778   0.859   1.490 -0.0397 -0.2725 -0.0852
    1SOL     OW 3325   1.831   1.077   1.642 -0.0422 -0.2566 -0.4235
    1SOL    HW2 3326   1.892   1.148   1.621  0.1536 -0.3192 -0.0692
    1SOL    HW3 3327   1.813   1.088   1.735 -0.9584  0.0591 -0.6336
    1SOL    MW4 3328   1.837   1.088   1.651 -0.1373 -0.2232 -0.4044
    1SOL     OW 3329   1.977   1.274   1.498 -0.0164 -0.5958 -0.6523
    1SOL    HW2 3330   1.988   1.363   1.533  1.6530 -1.3089  0.7329
    1SOL    HW3 3331   1.968   1.286   1.404 -2.2022  1.2111 -0.2558
    1SOL    MW4 3332   1.977   1.287   1.490 -0.0844 -0.4514 -0.4172
    1SOL     OW 3333   1.994   1.538   1.587  0.3176 -0.0609  0.2153
    1SOL    HW2 3334   2.060   1.595   1.548 -0.5054  0.9016  0.2295
    1SOL    HW3 3335   1.912   1.565   1.547  0.2114 -2.8520 -1.6516
    1SOL    MW4 3336   1.992   1.549   1.577  0.1949 -0.3022 -0.0292
    1SOL     OW 3337   1.768   1.652   1.482  0.9225  0.1033  0.4128
    1SOL    HW2 3338   1.704   1.582   1.493  1.3063 -0.1045  1.4008
    1SOL    HW3 3339   1.786   1.654   1.388 -2.2578  1.7062 -0.2351
    1SOL    MW4 3340   1.762   1.643   1.471  0.5536  0.2874  0.4578
    1SOL     OW 3341   1.770   1.910   1.617  0.3295 -0.7553  0.1518
    1SOL    HW2 3342   1.759   1.827   1.571 -2.4199 -0.3308 -0.0717
    1SOL    HW3 3343   1.708   1.969   1.575  0.9219  0.8842  1.5213
    1SOL    MW4 3344   1.760   1.906   1.606  0.0448 -0.4830  0.3030
    1SOL     OW 3345   1.988   2.023   1.500  0.1622  0.2946 -0.3270
    1SOL    HW2 3346   2.074   1.997   1.533  0.6856  0.1117 -1.7628
    1SOL    HW3 3347   1.926   1.973   1.552  0.8568  1.3456  1.5612
    1SOL    MW4 3348   1.991   2.013   1.511  0.3228  0.4091 -0.2673
    1SOL     OW 3349   2.016   2.290   1.579 -0.5057 -0.3242 -0.1297
    1SOL    HW2 3350   2.028   2.294   1.674  1.8574  0.0411 -0.4199
    1SOL    HW3 3351   1.995   2.198   1.562  0.5400 -0.7144  0.5964
    1SOL    MW4 3352   2.015   2.278   1.590 -0.0558 -0.3276 -0.0720
    1SOL     OW 3353   1.782   2.471   1.538 -0.2978 -0.2891  0.4041
    1SOL    HW2 3354   1.845   2.407   1.571  2.1030  1.2304 -1.0798
    1SOL    HW3 3355   1.784   2.460   1.443 -1.2160  0.7459  0.2528
    1SOL    MW4 3356   1.791   2.462   1.530 -0.1022  0.0479  0.1884
    1SOL     OW 3357   1.753   2.721   1.635  0.3229  0.0316  0.0217
    1SOL    HW2 3358   1.833   2.764   1.606  0.2247 -0.6449 -1.2465
    1SOL    HW3 3359   1.762   2.630   1.608 -0.4237 -0.2855  0.7873
    1SOL    MW4 3360   1.764   2.715   1.628  0.2115 -0.0997 -0.0446
    1SOL     OW 3361   1.991   2.815   1.522 -0.2313 -0.0642  0.2631
    1SOL    HW2 3362   1.989   2.909   1.541 -1.1450 -0.1362  0.5483
    1SOL    HW3 3363   2.024   2.809   1.433 -0.0150  0.5193  0.3019
    1SOL    MW4 3364   1.995   2.827   1.513 -0.3233  0.0031  0.3058
    1SOL     OW 3365   1.996   3.077   1.587  0.1685 -0.1090 -0.2819
    1SOL    HW2 3366   2.014   3.064   1.680 -0.1313 -0.5182 -0.2770
    1SOL    HW3 3367   2.078   3.107   1.549  0.5337 -0.8204 -0.0530
    1SOL    MW4 3368   2.009   3.079   1.594  0.1771 -0.2570 -0.2511
    1SOL     OW 3369   1.754   3.185   1.448 -0.1616  0.1869  0.5306
    1SOL    HW2 3370   1.753   3.272   1.487  1.6948  0.4575  0.0006
    1SOL    HW3 3371   1.836   3.146   1.478 -0.4099 -0.9277 -0.2152
    1SOL    MW4 3372   1.765   3.191   1.457  0.0505  0.0758  0.3624
    1SOL     OW 3373   1.758   3.431   1.587  0.6569 -0.1678 -0.1551
    1SOL    HW2 3374   1.770   3.427   1.682  2.2777  0.1934 -0.3184
    1SOL    HW3 3375   1.681   3.486   1.574  0.2083 -0.5229  0.9539
    1SOL    MW4 3376   1.750   3.438   1.598  0.8116 -0.1671 -0.0303
    1SOL     OW 3377   2.008   3.569   1.490 -0.5087 -0.0775  0.1110
    1SOL    HW2 3378   2.086   3.518   1.514 -0.3113 -0.4821 -1.3878
    1SOL    HW3 3379   1.935   3.514   1.517 -0.2857 -0.1110  0.6578
    1SOL    MW4 3380   2.009   3.555   1.497 -0.4535 -0.1354 -0.0147
    1SOL     OW 3381   2.048   3.815   1.640 -0.0321 -0.0822  0.3073
    1SOL    HW2 3382   2.116   3.859   1.589 -0.4960  0.3320  0.0454
    1SOL    HW3 3383   2.036   3.731   1.596 -1.0199  0.6109 -0.7736
    1SOL    MW4 3384   2.055   3.809   1.628 -0.2234  0.0637  0.1302
    1SOL     OW 3385   1.836   3.958   1.509  0.2771  0.1336 -0.4690
    1SOL    HW2 3386   1.910   3.908   1.542 -0.3931 -1.9860 -2.0927
    1SOL    HW3 3387   1.759   3.914   1.543 -0.3324 -0.2105 -2.2498
    1SOL    MW4 3388   1.836   3.946   1.518  0.1082 -0.1915 -0.9181
    1SOL     OW 3389   1.846   4.239   1.582 -0.0656 -0.2171  0.4531
    1SOL    HW2 3390   1.923   4.278   1.541  0.9640 -0.0245  2.4979
    1SOL    HW3 3391   1.847   4.148   1.554  1.1799 -0.3269  0.8293
    1SOL    MW4 3392   1.856   4.232   1.573  0.2345 -0.2060  0.7725
    1SOL     OW 3393   2.043   4.394   1.429 -0.3400  0.0925  0.1820
    1SOL    HW2 3394   2.116   4.349   1.471  1.4278  0.6753 -2.1300
    1SOL    HW3 3395   2.038   4.478   1.474  0.0901 -0.1670  0.7186
    1SOL    MW4 3396   2.052   4.399   1.440 -0.0501  0.1349 -0.0522
    1SOL     OW 3397   2.476   4.641   1.612  0.2195  0.3314  0.0663
    1SOL    HW2 3398   2.453   4.636   1.705  1.4281  1.4176  0.4335
    1SOL    HW3 3399   2.403   4.689   1.572 -0.8797 -1.1444  0.2217
    1SOL    MW4 3400   2.463   4.647   1.619  0.2339  0.2804  0.1352
    1SOL     OW 3401   2.224   0.123   1.527 -0.3401 -0.2845  0.2711
    1SOL    HW2 3402   2.148   0.082   1.568 -0.1625 -1.0842 -0.1976
    1SOL    HW3 3403   2.220   0.095   1.436 -0.3570  0.9459 -0.1133
    1SOL    MW4 3404   2.213   0.114   1.521 -0.3190 -0.2276  0.1585
    1SOL     OW 3405   2.270   0.395   1.587 -0.4388  0.7103 -0.4336
    1SOL    HW2 3406   2.248   0.390   1.680  2.0156  0.5593  0.1764
    1SOL    HW3 3407   2.249   0.308   1.553 -1.3985  0.7820 -0.0353
    1SOL    MW4 3408   2.264   0.383   1.595 -0.2418  0.6999 -0.3005
    1SOL     OW 3409   2.497   0.529   1.471  0.6091 -0.4537 -0.2553
    1SOL    HW2 3410   2.565   0.476   1.513  1.3797 -0.6480 -1.7190
    1SOL    HW3 3411   2.416   0.500   1.511  1.3402 -0.5670  1.1634
    1SOL    MW4 3412   2.496   0.518   1.482  0.8068 -0.4943 -0.2613
    1SOL     OW 3413   2.478   0.778   1.602 -0.1966  0.3070  0.3259
    1SOL    HW2 3414   2.399   0.816   1.563 -0.2927  0.9143  1.0965
    1SOL    HW3 3415   2.498   0.703   1.547  0.1790  1.6527 -1.4032
    1SOL    MW4 3416   2.470   0.773   1.590 -0.1597  0.5647  0.1994
    1SOL     OW 3417   2.238   0.887   1.471 -0.0892  0.5426  0.3420
    1SOL    HW2 3418   2.233   0.976   1.506 -0.7474 -0.1074  1.9121
    1SOL    HW3 3419   2.169   0.839   1.516  0.9172 -1.0231  0.2582
    1SOL    MW4 3420   2.229   0.892   1.482 -0.0432  0.2503  0.5381
    1SOL     OW 3421   2.222   1.152   1.552 -0.1926 -0.4688  0.0795
    1SOL    HW2 3422   2.209   1.122   1.642 -0.2671 -0.1311  0.1815
    1SOL    HW3 3423   2.142   1.201   1.532  0.6266  1.0310  0.4694
    1SOL    MW4 3424   2.210   1.154   1.561 -0.0944 -0.2265  0.1445
    1SOL     OW 3425   2.485   1.270   1.482 -0.0605  0.0432 -0.1060
    1SOL    HW2 3426   2.408   1.220   1.510  0.7649 -1.2062 -0.0835
    1SOL    HW3 3427   2.478   1.272   1.387  0.5306 -1.1234 -0.1801
    1SOL    MW4 3428   2.474   1.264   1.473  0.1264 -0.2755 -0.1129
    1SOL     OW 3429   2.457   1.552   1.576  0.2072 -0.2198  0.1065
    1SOL    HW2 3430   2.539   1.596   1.551 -0.5669  0.9931 -0.3280
    1SOL    HW3 3431   2.464   1.465   1.536  0.7921  0.2776 -0.9018
    1SOL    MW4 3432   2.469   1.547   1.567  0.1819  0.0060 -0.0838
    1SOL     OW 3433   2.221   1.684   1.487 -0.2509 -0.0912  0.0695
    1SOL    HW2 3434   2.298   1.633   1.515 -1.3186 -1.9491 -0.3308
    1SOL    HW3 3435   2.228   1.687   1.392  0.5165  1.6733  0.1693
    1SOL    MW4 3436   2.232   1.677   1.478 -0.2906 -0.1036  0.0298
    1SOL     OW 3437   2.232   1.936   1.577  0.1136 -0.4590 -0.0383
    1SOL    HW2 3438   2.238   1.934   1.672 -3.9789  0.4173  0.3209
    1SOL    HW3 3439   2.224   1.844   1.551 -0.6351 -0.5787  0.6188
    1SOL    MW4 3440   2.232   1.924   1.586 -0.5252 -0.3593  0.0957
    1SOL     OW 3441   2.464   2.055   1.476  0.4884 -0.3300 -0.3891
    1SOL    HW2 3442   2.379   2.013   1.494  0.2934  0.8832  1.6005
    1SOL    HW3 3443   2.466   2.062   1.381 -1.3428 -1.0210 -0.5166
    1SOL    MW4 3444   2.453   2.050   1.466  0.2215 -0.2613 -0.1435
    1SOL     OW 3445   2.455   2.298   1.606  0.0812  0.3163  0.1828
    1SOL    HW2 3446   2.461   2.287   1.701  2.1232 -0.5664 -0.0183
    1SOL    HW3 3447   2.447   2.209   1.572 -0.9752  0.6472 -0.4712
    1SOL    MW4 3448   2.455   2.285   1.614  0.2112  0.2434  0.0701
    1SOL     OW 3449   2.251   2.418   1.495  0.1928 -0.1483  0.5630
    1SOL    HW2 3450   2.322   2.378   1.545 -0.4874 -0.7353  1.0705
    1SOL    HW3 3451   2.173   2.368   1.519 -0.0780 -0.7396 -1.4590
    1SOL    MW4 3452   2.250   2.406   1.505  0.0672 -0.3037  0.3633
    1SOL     OW 3453   2.237   2.677   1.599 -0.3980 -0.3342  0.2201
    1SOL    HW2 3454   2.223   2.590   1.562 -0.1553 -0.6458  0.8517
    1SOL    HW3 3455   2.158   2.726   1.577 -0.9840 -1.0287  0.7657
    1SOL    MW4 3456   2.225   2.672   1.591 -0.4432 -0.4668  0.3754
    1SOL     OW 3457   2.453   2.852   1.496 -0.1541 -0.2212 -0.1436
    1SOL    HW2 3458   2.454   2.936   1.542 -0.1302 -0.8638  1.0512
    1SOL    HW3 3459   2.380   2.804   1.534 -0.2881 -0.6702 -0.9506
    1SOL    MW4 3460   2.444   2.857   1.507 -0.1683 -0.3650 -0.0924
    1SOL     OW 3461   2.470   3.103   1.614  0.1288 -0.6791  0.6752
    1SOL    HW2 3462   2.532   3.166   1.579  0.3615 -1.7533 -0.8608
    1SOL    HW3 3463   2.385   3.130   1.578  0.5613 -2.5896 -1.9237
    1SOL    MW4 3464   2.467   3.115   1.605  0.2167 -1.0729  0.1296
    1SOL     OW 3465   2.235   3.193   1.493 -0.2577  0.1704  0.2761
    1SOL    HW2 3466   2.237   3.281   1.531 -2.3184  0.0948  0.6028
    1SOL    HW3 3467   2.260   3.206   1.401  1.5488  0.7856  0.8302
    1SOL    MW4 3468   2.239   3.207   1.486 -0.2909  0.2415  0.3921
    1SOL     OW 3469   2.251   3.455   1.566  0.1790  0.0384  0.1360
    1SOL    HW2 3470   2.258   3.465   1.661 -0.6900 -2.6243  0.5464
    1SOL    HW3 3471   2.331   3.495   1.531  0.7835  0.5338  2.0286
    1SOL    MW4 3472   2.262   3.461   1.574  0.1440 -0.2477  0.4398
    1SOL     OW 3473   2.466   3.575   1.449 -0.2150  0.3853 -0.3020
    1SOL    HW2 3474   2.550   3.559   1.492 -0.3748  0.1699 -0.0710
    1SOL    HW3 3475   2.444   3.666   1.471  0.7764  0.9994 -1.7566
    1SOL    MW4 3476   2.474   3.585   1.458 -0.1051  0.4380 -0.4634
    1SOL     OW 3477   2.449   3.858   1.599  0.1490  0.1222 -0.0650
    1SOL    HW2 3478   2.455   3.858   1.694 -0.0520 -0.1023 -0.0532
    1SOL    HW3 3479   2.534   3.891   1.570  0.8951 -1.5527  0.1415
    1SOL    MW4 3480   2.461   3.862   1.608  0.2210 -0.1285 -0.0361
    1SOL     OW 3481   2.225   3.959   1.493  0.1705  0.0837  0.1210
    1SOL    HW2 3482   2.309   3.922   1.521  0.6601  0.6241 -0.6110
    1SOL    HW3 3483   2.238   3.982   1.401 -1.0157 -0.4810 -0.1886
    1SOL    MW4 3484   2.238   3.957   1.485  0.0787  0.0806 -0.0165
    1SOL     OW 3485   2.232   4.236   1.561 -0.0455 -0.2080  0.2061
    1SOL    HW2 3486   2.319   4.266   1.534  0.2165 -0.4980  0.7268
    1SOL    HW3 3487   2.228   4.144   1.535 -0.0463 -0.3036  0.5415
    1SOL    MW4 3488   2.243   4.228   1.554 -0.0110 -0.2589  0.3191
    1SOL     OW 3489   2.468   4.375   1.535  0.2688 -0.6408 -0.0361
    1SOL    HW2 3490   2.461   4.466   1.562 -1.2525 -0.9475  0.6681
    1SOL    HW3 3491   2.457   4.377   1.439  1.5214  0.0327 -0.1671
    1SOL    MW4 3492   2.465   4.387   1.526  0.2337 -0.5927  0.0395
    1SOL     OW 3493   2.917   0.004   1.557 -0.1778 -0.7737  0.3044
    1SOL    HW2 3494   2.907   0.013   1.652 -1.1094  1.2528  0.0308
    1SOL    HW3 3495   2.839   0.046   1.521  0.3281 -1.2577 -1.3768
    1SOL    MW4 3496   2.905   0.011   1.565 -0.2339 -0.5702  0.0466
    1SOL     OW 3497   2.684   0.127   1.468  0.0371  0.1368  0.5290
    1SOL    HW2 3498   2.692   0.211   1.515 -0.2431  0.1118  0.6244
    1SOL    HW3 3499   2.620   0.077   1.520  0.0856 -0.0744  0.3829
    1SOL    MW4 3500   2.677   0.132   1.481  0.0067  0.1056  0.5224
    1SOL     OW 3501   2.698   0.369   1.582  0.4164  0.1834 -0.2607
    1SOL    HW2 3502   2.691   0.369   1.677 -1.4808  1.2536 -0.3821
    1SOL    HW3 3503   2.790   0.392   1.565  0.0501  3.0082  1.3062
    1SOL    MW4 3504   2.709   0.372   1.592  0.1180  0.6973 -0.0699
    1SOL     OW 3505   2.959   0.480   1.520  0.2622 -0.3165 -0.3667
    1SOL    HW2 3506   2.959   0.573   1.543 -0.3723 -0.5184  0.4677
    1SOL    HW3 3507   2.954   0.478   1.425  1.9545  0.5333 -0.4909
    1SOL    MW4 3508   2.959   0.492   1.511  0.4015 -0.2310 -0.2729
    1SOL     OW 3509   2.937   0.723   1.651 -0.0123  0.3532  0.1347
    1SOL    HW2 3510   2.952   0.725   1.746 -0.0697  0.5725  0.1392
    1SOL    HW3 3511   2.863   0.782   1.637  0.2469  0.6319 -0.0898
    1SOL    MW4 3512   2.929   0.731   1.662  0.0143  0.4190  0.1057
    1SOL     OW 3513   2.725   0.898   1.559  0.0851 -0.1570 -0.0823
    1SOL    HW2 3514   2.641   0.865   1.593 -0.3674  0.5996 -0.4458
    1SOL    HW3 3515   2.724   0.873   1.466 -0.4893  1.2868 -0.4866
    1SOL    MW4 3516   2.714   0.890   1.551 -0.0503  0.1333 -0.1837
    1SOL     OW 3517   2.709   1.179   1.638 -0.0605 -0.1393 -0.5853
    1SOL    HW2 3518   2.737   1.090   1.615 -1.2917 -0.5861 -0.4224
    1SOL    HW3 3519   2.641   1.200   1.575  0.2800  0.7342 -0.6727
    1SOL    MW4 3520   2.704   1.170   1.627 -0.1781 -0.0830 -0.5754
    1SOL     OW 3521   2.931   1.280   1.504  0.3981 -0.1679  0.1342
    1SOL    HW2 3522   2.999   1.226   1.545 -0.0173 -0.6000  0.2638
    1SOL    HW3 3523   2.851   1.256   1.550  0.3881  1.3458  0.9065
    1SOL    MW4 3524   2.929   1.270   1.515  0.3421 -0.0253  0.2533
    1SOL     OW 3525   2.954   1.537   1.594  0.4154  0.1907 -0.3666
    1SOL    HW2 3526   2.873   1.576   1.560 -0.6809 -0.7113  1.1323
    1SOL    HW3 3527   2.948   1.445   1.567  0.8019  0.0568  0.0149
    1SOL    MW4 3528   2.942   1.530   1.586  0.3216  0.0541 -0.1185
    1SOL     OW 3529   2.710   1.656   1.489 -0.1365 -0.2314  0.4898
    1SOL    HW2 3530   2.725   1.749   1.508 -0.8918 -0.0834  0.3926
    1SOL    HW3 3531   2.706   1.652   1.393 -0.3130 -0.3306  0.5010
    1SOL    MW4 3532   2.712   1.668   1.479 -0.2594 -0.2249  0.4785
    1SOL     OW 3533   2.683   1.916   1.583  0.0927  0.1989  0.6950
    1SOL    HW2 3534   2.687   1.932   1.677 -0.5577  1.7532  0.4739
    1SOL    HW3 3535   2.604   1.962   1.554 -0.0441 -0.7743 -0.5117
    1SOL    MW4 3536   2.673   1.924   1.591 -0.0112  0.2756  0.5066
    1SOL     OW 3537   2.850   2.089   1.452  0.0196 -0.4372  0.1202
    1SOL    HW2 3538   2.852   2.168   1.506 -0.4029 -0.3410 -0.0082
    1SOL    HW3 3539   2.787   2.032   1.495 -0.4005 -0.3165 -0.3388
    1SOL    MW4 3540   2.842   2.092   1.465 -0.0916 -0.4086  0.0427
    1SOL     OW 3541   2.884   2.306   1.607 -0.2994 -0.0138 -0.3195
    1SOL    HW2 3542   2.904   2.323   1.699  0.5125  0.1157 -0.5124
    1SOL    HW3 3543   2.805   2.357   1.590  0.3991  1.1778 -0.0866
    1SOL    MW4 3544   2.876   2.315   1.617 -0.1001  0.1607 -0.3142
    1SOL     OW 3545   2.667   2.479   1.535 -0.0720  0.0108 -0.2101
    1SOL    HW2 3546   2.668   2.568   1.571  0.8130  0.5602 -1.5590
    1SOL    HW3 3547   2.580   2.445   1.556  0.0524  0.7111  1.4730
    1SOL    MW4 3548   2.655   2.486   1.543  0.0613  0.1757 -0.1661
    1SOL     OW 3549   2.658   2.727   1.638  0.1253  0.0245 -0.2781
    1SOL    HW2 3550   2.740   2.766   1.607 -0.4016  1.2418 -0.1412
    1SOL    HW3 3551   2.589   2.775   1.594 -0.5665  0.0810  0.8406
    1SOL    MW4 3552   2.660   2.738   1.628 -0.0350  0.1926 -0.1123
    1SOL     OW 3553   2.892   2.831   1.508 -0.3811 -0.4579  0.2459
    1SOL    HW2 3554   2.971   2.789   1.541 -0.6220 -2.1665 -1.2915
    1SOL    HW3 3555   2.901   2.923   1.534  2.9614 -0.2160 -1.5060
    1SOL    MW4 3556   2.903   2.838   1.516  0.0279 -0.6511 -0.1880
    1SOL     OW 3557   2.927   3.112   1.611  0.4669  0.0776 -0.1453
    1SOL    HW2 3558   2.936   3.095   1.705 -0.1213  0.5137 -0.0094
    1SOL    HW3 3559   3.013   3.144   1.584  0.3809  0.8203  0.4352
    1SOL    MW4 3560   2.939   3.114   1.620  0.3779  0.2332 -0.0509
    1SOL     OW 3561   2.691   3.222   1.508 -0.2096 -0.1070 -0.2129
    1SOL    HW2 3562   2.772   3.188   1.547 -0.0063  0.8244  0.1954
    1SOL    HW3 3563   2.698   3.202   1.415  1.0989  1.1396 -0.3973
    1SOL    MW4 3564   2.703   3.215   1.501 -0.0100  0.1800 -0.1835
    1SOL     OW 3565   2.716   3.486   1.580 -0.2777 -0.3494 -0.2745
    1SOL    HW2 3566   2.722   3.468   1.674 -1.4674 -1.5240 -0.3984
    1SOL    HW3 3567   2.713   3.399   1.539  1.7689  0.1424 -1.5204
    1SOL    MW4 3568   2.716   3.472   1.587 -0.1645 -0.4396 -0.4551
    1SOL     OW 3569   2.940   3.622   1.474 -0.0746 -0.2925  0.2684
    1SOL    HW2 3570   2.865   3.581   1.517 -0.1398  1.7699  2.2597
    1SOL    HW3 3571   2.933   3.596   1.382 -1.2777 -2.9125  1.0758
    1SOL    MW4 3572   2.929   3.613   1.467 -0.2420 -0.3660  0.6375
    1SOL     OW 3573   2.922   3.881   1.570 -0.1200  0.1215  0.4226
    1SOL    HW2 3574   2.842   3.929   1.547  0.5521  0.4206 -1.3513
    1SOL    HW3 3575   2.913   3.797   1.525  0.5908  0.1817  0.1669
    1SOL    MW4 3576   2.910   3.876   1.561  0.0625  0.1688  0.1549
    1SOL     OW 3577   2.682   3.986   1.475 -0.0600  0.5892 -0.2754
    1SOL    HW2 3578   2.688   4.078   1.502  2.2644  0.5582 -0.6344
    1SOL    HW3 3579   2.693   3.988   1.380 -1.8975  0.0803 -0.5325
    1SOL    MW4 3580   2.684   3.998   1.466  0.0043  0.5178 -0.3567
    1SOL     OW 3581   2.719   4.256   1.575  0.1106 -0.3013  0.3634
    1SOL    HW2 3582   2.799   4.308   1.563  0.1629 -0.5257 -0.2981
    1SOL    HW3 3583   2.648   4.317   1.554  0.1186 -0.1700  0.7175
    1SOL    MW4 3584   2.720   4.271   1.570  0.1183 -0.3138  0.3227
    1SOL     OW 3585   2.934   4.400   1.485 -0.0043 -0.6668  0.8096
    1SOL    HW2 3586   2.945   4.487   1.523  2.4553 -1.0549  1.1104
    1SOL    HW3 3587   2.931   4.415   1.390  1.3240 -0.2976  0.8100
    1SOL    MW4 3588   2.935   4.413   1.477  0.4954 -0.6690  0.8492
    1SOL     OW 3589   3.350   4.601   1.615  0.1351  0.1121  0.2857
    1SOL    HW2 3590   3.416   4.652   1.568 -1.2343  0.8044 -0.9350
    1SOL    HW3 3591   3.339   4.521   1.563 -0.2524  0.1719  0.2684
    1SOL    MW4 3592   3.357   4.597   1.602 -0.0968  0.2112  0.1224
    1SOL     OW 3593   3.153   0.120   1.516  0.1413 -0.0554 -0.4504
    1SOL    HW2 3594   3.215   0.050   1.534 -1.0074 -0.6733  1.1908
    1SOL    HW3 3595   3.067   0.082   1.535 -0.3759  2.3869  2.4263
    1SOL    MW4 3596   3.150   0.106   1.521 -0.0784  0.1853  0.1456
    1SOL     OW 3597   3.166   0.358   1.640  0.1913 -0.3433 -0.1910
    1SOL    HW2 3598   3.168   0.274   1.594  1.1161 -0.0106 -0.7774
    1SOL    HW3 3599   3.093   0.406   1.601 -0.3461 -0.8707  0.1525
    1SOL    MW4 3600   3.157   0.353   1.629  0.2425 -0.3690 -0.2229
    1SOL     OW 3601   3.356   0.527   1.532 -0.0600 -0.9569  0.3631
    1SOL    HW2 3602   3.301   0.456   1.565 -1.5705 -0.2610 -0.6466
    1SOL    HW3 3603   3.370   0.506   1.440  1.4770 -1.1823  0.6270
    1SOL    MW4 3604   3.351   0.515   1.524 -0.0565 -0.8948  0.2646
    1SOL     OW 3605   3.395   0.776   1.627 -0.2574  0.0810  0.0669
    1SOL    HW2 3606   3.415   0.784   1.720  0.5744 -1.2027  0.0017
    1SOL    HW3 3607   3.377   0.684   1.614 -3.2350  0.7106 -0.5010
    1SOL    MW4 3608   3.396   0.765   1.638 -0.5405 -0.0054 -0.0167
    1SOL     OW 3609   3.154   0.871   1.544 -0.1516  0.1584 -0.5027
    1SOL    HW2 3610   3.238   0.832   1.570 -0.3937 -1.1665 -1.6357
    1SOL    HW3 3611   3.088   0.817   1.589 -0.4187  1.0459  0.1933
    1SOL    MW4 3612   3.156   0.859   1.554 -0.2189  0.1007 -0.5604
    1SOL     OW 3613   3.160   1.145   1.590  0.5926 -0.7484  0.2693
    1SOL    HW2 3614   3.153   1.152   1.685 -0.9551 -0.9419  0.1815
    1SOL    HW3 3615   3.151   1.051   1.572  0.0154 -0.6220 -0.1244
    1SOL    MW4 3616   3.158   1.133   1.600  0.3123 -0.7572  0.2058
    1SOL     OW 3617   3.357   1.311   1.491  0.2876  0.3892  0.0922
    1SOL    HW2 3618   3.435   1.268   1.528  0.0516 -0.5859 -0.5188
    1SOL    HW3 3619   3.286   1.250   1.510  0.0017  0.3537 -1.0789
    1SOL    MW4 3620   3.358   1.297   1.499  0.2191  0.2559 -0.1429
    1SOL     OW 3621   3.379   1.584   1.580  0.8710  0.2252  0.0385
    1SOL    HW2 3622   3.377   1.600   1.675 -0.6934  0.0906  0.0324
    1SOL    HW3 3623   3.350   1.494   1.570  2.0025 -0.0912 -0.5159
    1SOL    MW4 3624   3.375   1.574   1.591  0.8140  0.1658 -0.0355
    1SOL     OW 3625   3.151   1.684   1.475 -0.0905 -0.1339 -0.9538
    1SOL    HW2 3626   3.232   1.660   1.520  0.3390  1.9994 -0.5712
    1SOL    HW3 3627   3.082   1.638   1.524  0.6861 -0.3909 -0.0926
    1SOL    MW4 3628   3.152   1.674   1.487  0.0684  0.1136 -0.7896
    1SOL     OW 3629   3.113   1.942   1.585  0.3373 -0.3779  0.1760
    1SOL    HW2 3630   3.120   1.854   1.548 -0.4380 -0.2596 -0.2768
    1SOL    HW3 3631   3.033   1.978   1.545  1.4069  1.0409 -0.7145
    1SOL    MW4 3632   3.103   1.935   1.575  0.3760 -0.1749 -0.0011
    1SOL     OW 3633   3.364   2.040   1.519  0.2053  0.1875 -0.4182
    1SOL    HW2 3634   3.286   1.996   1.554  0.8201 -0.4938  0.1219
    1SOL    HW3 3635   3.354   2.034   1.424 -1.9199  2.8299 -0.4239
    1SOL    MW4 3636   3.352   2.033   1.511  0.0062  0.4466 -0.3479
    1SOL     OW 3637   3.334   2.309   1.615  0.7559 -0.0363 -0.4219
    1SOL    HW2 3638   3.411   2.358   1.587  0.8725 -0.2549 -0.4836
    1SOL    HW3 3639   3.344   2.223   1.575  0.8837 -0.3271  0.2342
    1SOL    MW4 3640   3.345   2.305   1.606  0.7882 -0.1035 -0.3434
    1SOL     OW 3641   3.100   2.445   1.522 -0.2406  0.3143  0.6512
    1SOL    HW2 3642   3.167   2.391   1.564  0.1244 -0.0823 -0.4299
    1SOL    HW3 3643   3.018   2.401   1.542 -0.1248  0.4606  1.4588
    1SOL    MW4 3644   3.098   2.432   1.530 -0.1774  0.2811  0.6151
    1SOL     OW 3645   3.130   2.727   1.603  0.5409 -0.2924 -0.3503
    1SOL    HW2 3646   3.211   2.764   1.566  1.6362 -2.6591 -0.3613
    1SOL    HW3 3647   3.129   2.636   1.573 -1.8796 -0.4375  0.0918
    1SOL    MW4 3648   3.140   2.720   1.594  0.3660 -0.6235 -0.2934
    1SOL     OW 3649   3.360   2.852   1.480  0.3404 -0.0663  0.1564
    1SOL    HW2 3650   3.389   2.937   1.513  1.5860 -0.3666 -0.1632
    1SOL    HW3 3651   3.352   2.864   1.386 -1.2363  0.1963  0.2974
    1SOL    MW4 3652   3.362   2.864   1.472  0.2968 -0.0713  0.1327
    1SOL     OW 3653   3.412   3.101   1.592  0.4121  0.1602 -0.4864
    1SOL    HW2 3654   3.393   3.120   1.684  0.3205  1.1450 -0.7003
    1SOL    HW3 3655   3.489   3.154   1.572  0.3820  0.0122 -0.9971
    1SOL    MW4 3656   3.420   3.110   1.602  0.3963  0.2704 -0.5821
    1SOL     OW 3657   3.168   3.221   1.521 -0.1966  0.4264 -0.2656
    1SOL    HW2 3658   3.158   3.312   1.549 -0.4190  0.3376 -0.0443
    1SOL    HW3 3659   3.251   3.193   1.559 -0.3869  0.3772  0.1183
    1SOL    MW4 3660   3.178   3.229   1.530 -0.2511  0.4084 -0.1858
    1SOL     OW 3661   3.147   3.488   1.598 -0.2604  0.2252 -0.0837
    1SOL    HW2 3662   3.136   3.510   1.690 -0.0100 -2.1441  0.5323
    1SOL    HW3 3663   3.070   3.526   1.555  0.2024  2.3448  0.8780
    1SOL    MW4 3664   3.135   3.496   1.604 -0.1662  0.1924  0.1243
    1SOL     OW 3665   3.376   3.590   1.495 -0.0172 -0.1273 -0.0270
    1SOL    HW2 3666   3.446   3.548   1.544  0.1389  0.8018  0.5728
    1SOL    HW3 3667   3.296   3.553   1.532  0.1340 -0.7396 -0.2987
    1SOL    MW4 3668   3.374   3.580   1.506  0.0234 -0.0854  0.0163
    1SOL     OW 3669   3.390   3.857   1.548 -0.0339  0.1918 -0.0535
    1SOL    HW2 3670   3.312   3.891   1.504 -0.9266 -0.4254  1.0161
    1SOL    HW3 3671   3.393   3.764   1.526  0.2217  0.1455  0.1619
    1SOL    MW4 3672   3.380   3.850   1.539 -0.1180  0.1042  0.1160
    1SOL     OW 3673   3.162   3.973   1.467  0.4611 -0.1770 -0.1750
    1SOL    HW2 3674   3.145   4.057   1.508 -0.0730 -0.1438 -0.4577
    1SOL    HW3 3675   3.087   3.919   1.492  1.5095 -1.0305  1.2263
    1SOL    MW4 3676   3.150   3.977   1.476  0.5293 -0.2854 -0.0274
    1SOL     OW 3677   3.157   4.232   1.590  0.6292 -0.3686 -0.0277
    1SOL    HW2 3678   3.142   4.243   1.684  2.2756  1.0819  0.0865
    1SOL    HW3 3679   3.081   4.272   1.548  0.3627 -0.1499  0.6613
    1SOL    MW4 3680   3.145   4.238   1.597  0.8116 -0.1483  0.0783
    1SOL     OW 3681   3.373   4.351   1.467  0.1576 -0.0002  0.5342
    1SOL    HW2 3682   3.295   4.306   1.500  0.6736 -0.3368  1.3029
    1SOL    HW3 3683   3.371   4.335   1.372 -1.1593  0.7137  0.4381
    1SOL    MW4 3684   3.362   4.343   1.459  0.0517  0.0496  0.6230
    1SOL     OW 3685   3.776   4.632   1.604 -0.1453 -0.1828  0.8593
    1SOL    HW2 3686   3.788   4.650   1.697  1.2732  0.5130  0.5535
    1SOL    HW3 3687   3.849   4.677   1.561  0.2236 -1.9733 -0.4356
    1SOL    MW4 3688   3.787   4.641   1.611  0.0904 -0.3271  0.6481
    1SOL     OW 3689   3.568   0.096   1.491 -0.0453 -0.4337 -0.3797
    1SOL    HW2 3690   3.643   0.056   1.534 -0.5730 -1.0348 -0.0056
    1SOL    HW3 3691   3.582   0.081   1.398 -0.2448 -1.5182 -0.2428
    1SOL    MW4 3692   3.580   0.089   1.484 -0.1411 -0.6561 -0.3122
    1SOL     OW 3693   3.573   0.369   1.589  0.1813 -0.1803 -0.5283
    1SOL    HW2 3694   3.555   0.289   1.540 -3.3842 -0.0720  0.4864
    1SOL    HW3 3695   3.495   0.424   1.577  1.0769  1.6837  1.6182
    1SOL    MW4 3696   3.560   0.366   1.581 -0.1712  0.0799 -0.1113
    1SOL     OW 3697   3.801   0.534   1.511  0.1325 -0.0735  0.3957
    1SOL    HW2 3698   3.730   0.476   1.540 -0.6951  0.4268 -0.5859
    1SOL    HW3 3699   3.802   0.523   1.416  0.8153  0.5652  0.3309
    1SOL    MW4 3700   3.791   0.525   1.502  0.1135  0.0767  0.2576
    1SOL     OW 3701   3.816   0.787   1.614  0.3984  0.4035  0.4113
    1SOL    HW2 3702   3.744   0.839   1.580  2.1957  2.2941 -0.6019
    1SOL    HW3 3703   3.805   0.701   1.573 -1.6378  0.4550  0.8073
    1SOL    MW4 3704   3.805   0.782   1.604  0.3669  0.6598  0.3300
    1SOL     OW 3705   3.605   0.936   1.528 -0.4354 -0.1977 -0.6801
    1SOL    HW2 3706   3.533   0.879   1.554 -0.0219 -0.8461 -0.9592
    1SOL    HW3 3707   3.604   0.934   1.432  0.6231 -1.0475 -0.6747
    1SOL    MW4 3708   3.596   0.928   1.518 -0.2413 -0.3954 -0.7162
    1SOL     OW 3709   3.613   1.210   1.584 -0.3396  0.0102  0.0391
    1SOL    HW2 3710   3.682   1.237   1.524 -0.6961 -1.2222 -0.9430
    1SOL    HW3 3711   3.607   1.115   1.575 -1.2464 -0.0618  1.1075
    1SOL    MW4 3712   3.621   1.201   1.575 -0.5062 -0.1619  0.0504
    1SOL     OW 3713   3.856   1.288   1.436  0.0124 -0.1963  0.0694
    1SOL    HW2 3714   3.921   1.254   1.498  1.1673  0.6993 -0.6322
    1SOL    HW3 3715   3.837   1.376   1.468  0.8063  0.3665 -0.9774
    1SOL    MW4 3716   3.862   1.295   1.448  0.2694 -0.0038 -0.1614
    1SOL     OW 3717   3.808   1.527   1.578 -0.0714  0.0229  0.3387
    1SOL    HW2 3718   3.799   1.526   1.673  0.3950  0.7829  0.3985
    1SOL    HW3 3719   3.743   1.590   1.548  0.5357  0.6150  0.2489
    1SOL    MW4 3720   3.799   1.535   1.586  0.0701  0.2013  0.3349
    1SOL     OW 3721   3.608   1.683   1.481  0.2123  0.1477 -0.3495
    1SOL    HW2 3722   3.534   1.635   1.518  1.0418 -0.6042  0.3750
    1SOL    HW3 3723   3.599   1.673   1.387 -1.8825  2.0157 -0.3798
    1SOL    MW4 3724   3.597   1.675   1.474  0.0451  0.2948 -0.2578
    1SOL     OW 3725   3.618   1.937   1.581 -0.2020  0.3025  0.5595
    1SOL    HW2 3726   3.613   1.854   1.533 -1.2065  0.5593  0.2060
    1SOL    HW3 3727   3.534   1.980   1.563  0.3977  1.4972  0.5606
    1SOL    MW4 3728   3.606   1.932   1.572 -0.2558  0.4940  0.5131
    1SOL     OW 3729   3.837   2.090   1.515 -0.0575 -0.5847  0.1761
    1SOL    HW2 3730   3.828   2.177   1.553 -2.0109 -0.4592 -0.5203
    1SOL    HW3 3731   3.762   2.041   1.548 -0.2121 -1.3276 -1.2231
    1SOL    MW4 3732   3.826   2.095   1.524 -0.3355 -0.6661 -0.1004
    1SOL     OW 3733   3.824   2.359   1.559  0.2255 -0.2099 -0.3437
    1SOL    HW2 3734   3.836   2.372   1.653 -0.9509  0.1416 -0.2233
    1SOL    HW3 3735   3.906   2.390   1.520  0.7203 -0.3505  0.5634
    1SOL    MW4 3736   3.836   2.365   1.566  0.1357 -0.1819 -0.2080
    1SOL     OW 3737   3.559   2.442   1.512  0.5044  0.2349  0.0976
    1SOL    HW2 3738   3.563   2.531   1.547 -1.4428  0.3162  0.1249
    1SOL    HW3 3739   3.648   2.408   1.524  1.0586  1.8998  0.7980
    1SOL    MW4 3740   3.572   2.449   1.518  0.3204  0.4652  0.1936
    1SOL     OW 3741   3.586   2.696   1.568 -0.2825 -0.1082  0.0750
    1SOL    HW2 3742   3.582   2.706   1.663 -0.7650  1.6242 -0.1154
    1SOL    HW3 3743   3.514   2.749   1.534  0.3181 -0.1336 -1.2952
    1SOL    MW4 3744   3.576   2.704   1.576 -0.2670  0.1171 -0.1310
    1SOL     OW 3745   3.831   2.810   1.509 -0.1089 -0.1564 -0.1321
    1SOL    HW2 3746   3.902   2.768   1.557  0.8417 -0.6439 -1.9033
    1SOL    HW3 3747   3.753   2.757   1.529  0.2002 -0.1409  1.1225
    1SOL    MW4 3748   3.830   2.797   1.518  0.0572 -0.2189 -0.2002
    1SOL     OW 3749   3.839   3.077   1.626  0.2097 -0.3020  0.4849
    1SOL    HW2 3750   3.918   3.128   1.604 -0.0787  0.4054  1.0719
    1SOL    HW3 3751   3.845   3.000   1.570 -0.0515  1.0365 -1.4353
    1SOL    MW4 3752   3.851   3.074   1.615  0.1373 -0.0319  0.3090
    1SOL     OW 3753   3.639   3.233   1.526 -0.2448  0.2013 -0.5107
    1SOL    HW2 3754   3.703   3.180   1.573 -1.2077 -0.2037  0.3554
    1SOL    HW3 3755   3.652   3.210   1.434 -0.0214 -0.8549 -0.2211
    1SOL    MW4 3756   3.649   3.223   1.520 -0.3421  0.0086 -0.3583
    1SOL     OW 3757   3.627   3.510   1.606  0.5729  0.0497  0.4085
    1SOL    HW2 3758   3.704   3.555   1.572  0.0653  0.2765 -0.4401
    1SOL    HW3 3759   3.638   3.419   1.578 -0.0436  0.3151 -0.7320
    1SOL    MW4 3760   3.639   3.504   1.598  0.4246  0.1147  0.1463
    1SOL     OW 3761   3.836   3.632   1.471  0.0119  0.4226  0.0646
    1SOL    HW2 3762   3.889   3.575   1.526 -0.5887  0.4828  0.7104
    1SOL    HW3 3763   3.854   3.720   1.504  0.0830  0.5091 -0.2048
    1SOL    MW4 3764   3.846   3.636   1.483 -0.0579  0.4420  0.1143
    1SOL     OW 3765   3.832   3.870   1.637 -0.3468  0.2107  0.2660
    1SOL    HW2 3766   3.909   3.922   1.614 -0.0141 -0.8250 -1.0249
    1SOL    HW3 3767   3.763   3.903   1.580 -0.4523  0.0606  0.3072
    1SOL    MW4 3768   3.833   3.881   1.627 -0.3169  0.0541  0.1012
    1SOL     OW 3769   3.631   3.969   1.478 -0.0114  0.1575  0.0705
    1SOL    HW2 3770   3.622   4.059   1.509  0.1939  0.6506 -1.2834
    1SOL    HW3 3771   3.546   3.929   1.496 -0.5609  1.0188 -0.5873
    1SOL    MW4 3772   3.619   3.976   1.485 -0.0567  0.3362 -0.1948
    1SOL     OW 3773   3.596   4.231   1.573  0.1370  0.6315 -0.0742
    1SOL    HW2 3774   3.589   4.254   1.666  1.5806  2.7415 -0.4585
    1SOL    HW3 3775   3.523   4.277   1.532 -0.7787 -0.6737  0.0543
    1SOL    MW4 3776   3.585   4.240   1.580  0.2067  0.7377 -0.1079
    1SOL     OW 3777   3.817   4.369   1.515 -0.4244 -0.0134 -0.3323
    1SOL    HW2 3778   3.739   4.314   1.526 -1.6392  1.6831 -0.1877
    1SOL    HW3 3779   3.798   4.448   1.566  1.2335  0.6007 -0.6188
    1SOL    MW4 3780   3.804   4.372   1.524 -0.3657  0.2913 -0.3510
    1SOL     OW 3781   4.271   0.007   1.585 -0.1441  0.2265  0.5125
    1SOL    HW2 3782   4.260   0.013   1.680 -2.4551 -1.1270  0.3552
    1SOL    HW3 3783   4.279  -0.087   1.568 -1.9239  0.2888 -0.8260
    1SOL    MW4 3784   4.271  -0.004   1.595 -0.6828  0.0558  0.3152
    1SOL     OW 3785   4.002   0.086   1.522  0.3232  0.2073 -0.0326
    1SOL    HW2 3786   4.000   0.177   1.552  0.8653  0.0138  0.5925
    1SOL    HW3 3787   4.090   0.055   1.543  0.3596 -0.2669 -0.8386
    1SOL    MW4 3788   4.013   0.094   1.529  0.3996  0.1192 -0.0565
    1SOL     OW 3789   4.029   0.387   1.585  0.0887  0.1460 -0.5946
    1SOL    HW2 3790   4.031   0.378   1.680 -0.7689  1.5427 -0.4390
    1SOL    HW3 3791   3.958   0.449   1.568  1.3919  1.2804 -2.0471
    1SOL    MW4 3792   4.020   0.394   1.595  0.1473  0.4800 -0.7657
    1SOL     OW 3793   4.256   0.505   1.489 -0.4161  0.1636  0.0220
    1SOL    HW2 3794   4.176   0.461   1.519 -1.0042  0.7340 -0.6930
    1SOL    HW3 3795   4.327   0.458   1.533 -1.1759  0.0177  1.1020
    1SOL    MW4 3796   4.255   0.493   1.499 -0.5937  0.2196  0.0702
    1SOL     OW 3797   4.218   0.758   1.597 -0.4482 -0.0309 -0.2830
    1SOL    HW2 3798   4.228   0.666   1.570 -3.1311 -0.4812  0.0933
    1SOL    HW3 3799   4.287   0.804   1.551  0.9122 -2.2429 -0.5424
    1SOL    MW4 3800   4.228   0.752   1.587 -0.6227 -0.3821 -0.2676
    1SOL     OW 3801   4.021   0.930   1.487  0.3088 -0.6023 -0.3083
    1SOL    HW2 3802   4.099   0.885   1.521  1.0366  0.8491 -0.0435
    1SOL    HW3 3803   3.948   0.876   1.517  1.1820 -1.7064 -0.1273
    1SOL    MW4 3804   4.021   0.917   1.496  0.5202 -0.5565 -0.2495
    1SOL     OW 3805   4.062   1.174   1.601  1.1208  0.2945 -0.1557
    1SOL    HW2 3806   4.046   1.157   1.694  1.3871  0.6488 -0.0444
    1SOL    HW3 3807   4.045   1.090   1.558  0.7465  0.1977  0.1816
    1SOL    MW4 3808   4.058   1.160   1.607  1.1067  0.3287 -0.0966
    1SOL     OW 3809   4.254   1.306   1.438 -0.0061 -0.0597 -0.0322
    1SOL    HW2 3810   4.178   1.266   1.480 -0.7912  1.0974 -0.3129
    1SOL    HW3 3811   4.329   1.274   1.488 -0.6499 -1.4465  0.0670
    1SOL    MW4 3812   4.253   1.297   1.450 -0.1945 -0.0902 -0.0561
    1SOL     OW 3813   4.220   1.548   1.579 -0.2456  0.1963 -1.0431
    1SOL    HW2 3814   4.229   1.464   1.534 -0.7060 -0.2207 -0.3601
    1SOL    HW3 3815   4.300   1.596   1.557  0.7947 -1.0698 -0.0929
    1SOL    MW4 3816   4.232   1.543   1.570 -0.1693 -0.0257 -0.8277
    1SOL     OW 3817   4.014   1.661   1.445  0.1126 -0.0298  0.1679
    1SOL    HW2 3818   4.095   1.619   1.476  0.0387 -0.3750 -0.1040
    1SOL    HW3 3819   3.945   1.618   1.495 -0.0130 -0.6377 -0.5125
    1SOL    MW4 3820   4.016   1.649   1.456  0.0858 -0.1554  0.0422
    1SOL     OW 3821   4.033   1.914   1.587 -0.2329 -0.3627 -0.2732
    1SOL    HW2 3822   4.012   1.839   1.532 -1.0898 -1.1172  1.0686
    1SOL    HW3 3823   3.967   1.979   1.564 -0.5038 -0.6208 -0.2322
    1SOL    MW4 3824   4.022   1.913   1.576 -0.3815 -0.4961 -0.0908
    1SOL     OW 3825   4.278   2.024   1.522 -0.6970 -0.5747  0.1529
    1SOL    HW2 3826   4.194   1.984   1.547 -1.4447 -0.0311 -1.4110
    1SOL    HW3 3827   4.283   2.010   1.427  0.6829 -0.0267  0.1418
    1SOL    MW4 3828   4.268   2.017   1.513 -0.6137 -0.4303 -0.0550
    1SOL     OW 3829   4.263   2.308   1.597  0.4388  0.0756  0.3924
    1SOL    HW2 3830   4.241   2.305   1.691  0.5193 -0.4740  0.3923
    1SOL    HW3 3831   4.283   2.218   1.574  0.4290  0.2127 -0.1577
    1SOL    MW4 3832   4.262   2.296   1.607  0.4482  0.0212  0.3197
    1SOL     OW 3833   4.064   2.455   1.471  0.2204 -0.0019  1.0742
    1SOL    HW2 3834   4.069   2.530   1.530  1.0231  0.4073  0.4864
    1SOL    HW3 3835   4.124   2.390   1.508 -0.8680 -0.5762  1.8779
    1SOL    MW4 3836   4.073   2.456   1.483  0.1826 -0.0234  1.1027
    1SOL     OW 3837   4.047   2.701   1.621  0.1462  0.0094 -0.5347
    1SOL    HW2 3838   4.061   2.715   1.715  1.3815 -0.7913 -0.5808
    1SOL    HW3 3839   4.127   2.735   1.580  0.6360 -1.7561 -1.0958
    1SOL    MW4 3840   4.059   2.708   1.628  0.3734 -0.3293 -0.6149
    1SOL     OW 3841   4.284   2.819   1.535  0.3539 -0.2525  0.4606
    1SOL    HW2 3842   4.246   2.896   1.577  1.2590 -0.2087  1.2187
    1SOL    HW3 3843   4.302   2.846   1.445  0.3541  0.3078  0.6311
    1SOL    MW4 3844   4.281   2.832   1.529  0.4740 -0.1726  0.5832
    1SOL     OW 3845   4.229   3.080   1.658  0.2361 -0.0233 -0.1824
    1SOL    HW2 3846   4.243   3.082   1.753  0.2316  0.3604 -0.1878
    1SOL    HW3 3847   4.314   3.101   1.621  0.3150 -0.5022 -0.2689
    1SOL    MW4 3848   4.242   3.083   1.666  0.2456 -0.0355 -0.1945
    1SOL     OW 3849   4.044   3.239   1.540 -0.2884 -0.3024 -0.0481
    1SOL    HW2 3850   4.031   3.326   1.577 -0.6602 -0.3269 -0.1180
    1SOL    HW3 3851   4.116   3.202   1.591 -0.0999  0.0614 -0.0487
    1SOL    MW4 3852   4.052   3.245   1.552 -0.3128 -0.2575 -0.0573
    1SOL     OW 3853   4.003   3.491   1.632 -0.3833 -0.7378 -0.7827
    1SOL    HW2 3854   4.006   3.481   1.727  0.2557  0.2989 -0.6803
    1SOL    HW3 3855   4.092   3.517   1.608 -1.4317  2.6256 -1.2195
    1SOL    MW4 3856   4.015   3.493   1.642 -0.4373 -0.1574 -0.8268
    1SOL     OW 3857   4.260   3.576   1.566  0.1495 -0.0907 -0.1811
    1SOL    HW2 3858   4.272   3.669   1.587 -1.5536  0.1682 -0.2811
    1SOL    HW3 3859   4.262   3.573   1.470  0.1959 -0.1621 -0.1776
    1SOL    MW4 3860   4.262   3.588   1.556 -0.0691 -0.0658 -0.1936
    1SOL     OW 3861   4.272   3.860   1.664  0.0783 -0.0649 -0.3949
    1SOL    HW2 3862   4.194   3.905   1.633  0.6258  0.7457 -0.6174
    1SOL    HW3 3863   4.343   3.923   1.649  0.2771  0.6683  3.0761
    1SOL    MW4 3864   4.271   3.874   1.658  0.1764  0.1390  0.0337
    1SOL     OW 3865   4.043   4.023   1.550 -0.1323 -0.1650 -0.4959
    1SOL    HW2 3866   4.065   4.115   1.565  0.5929 -0.3104 -0.6446
    1SOL    HW3 3867   4.062   4.009   1.457 -0.8155 -0.3053 -0.6142
    1SOL    MW4 3868   4.049   4.033   1.540 -0.1273 -0.2027 -0.5312
    1SOL     OW 3869   4.056   4.279   1.609  0.4993  0.0270  0.5749
    1SOL    HW2 3870   4.033   4.258   1.700 -1.0268  2.4102  0.7658
    1SOL    HW3 3871   3.976   4.316   1.572  1.0392 -1.1479 -1.8402
    1SOL    MW4 3872   4.042   4.281   1.616  0.3691  0.1860  0.2813
    1SOL     OW 3873   4.282   4.399   1.528 -0.0193  0.2044  0.0325
    1SOL    HW2 3874   4.207   4.344   1.549 -1.2052  2.2796  1.4220
    1SOL    HW3 3875   4.289   4.395   1.433 -0.3960 -1.8891  0.0643
    1SOL    MW4 3876   4.273   4.391   1.519 -0.2251  0.2022  0.2202
    1SOL     OW 3877   0.194   0.005   1.926  0.0811  0.4123 -0.3233
    1SOL    HW2 3878   0.284   0.038   1.933  0.0144  0.6707 -0.7075
    1SOL    HW3 3879   0.171   0.018   1.835 -0.5394  0.8231 -0.1075
    1SOL    MW4 3880   0.203   0.011   1.915 -0.0095  0.5002 -0.3456
    1SOL     OW 3881   4.461   0.129   2.013 -0.1376 -0.1062 -0.3311
    1SOL    HW2 3882   4.468   0.218   1.980  0.1471 -0.1337 -0.3500
    1SOL    HW3 3883   4.548   0.091   1.998 -0.0876 -0.2088  0.1874
    1SOL    MW4 3884   4.473   0.136   2.007 -0.0939 -0.1234 -0.2651
    1SOL     OW 3885   4.479   0.392   1.887  0.1129  0.1830  0.3408
    1SOL    HW2 3886   4.401   0.439   1.919  0.4205  0.7288  0.2889
    1SOL    HW3 3887   4.552   0.431   1.935  0.4190  0.0582 -0.0230
    1SOL    MW4 3888   4.478   0.404   1.897  0.1941  0.2385  0.2859
    1SOL     OW 3889   0.205   0.515   2.032 -0.1556  0.3087  0.0059
    1SOL    HW2 3890   0.271   0.471   1.978 -0.6261  0.5340 -0.7544
    1SOL    HW3 3891   0.194   0.601   1.991  0.0807  0.7932  0.9406
    1SOL    MW4 3892   0.212   0.520   2.019 -0.1865  0.4023  0.0288
    1SOL     OW 3893   0.177   0.764   1.922 -0.0648 -0.3986  0.3889
    1SOL    HW2 3894   0.258   0.811   1.939 -0.5858  0.4199  0.6516
    1SOL    HW3 3895   0.162   0.775   1.828  0.1173 -0.5307  0.3447
    1SOL    MW4 3896   0.186   0.772   1.912 -0.1095 -0.3080  0.4177
    1SOL     OW 3897   4.461   0.929   1.991 -0.2396 -0.7039  0.2566
    1SOL    HW2 3898   4.391   0.888   1.941 -0.8587  1.0299 -0.3355
    1SOL    HW3 3899   4.536   0.870   1.980  0.0057  0.2033 -3.7234
    1SOL    MW4 3900   4.461   0.916   1.983 -0.2890 -0.3554 -0.3467
    1SOL     OW 3901   4.477   1.178   1.853 -0.2964 -0.1032  0.0702
    1SOL    HW2 3902   4.401   1.233   1.874 -0.5150 -0.0304 -0.8966
    1SOL    HW3 3903   4.468   1.102   1.911 -0.6082  0.3343  0.6057
    1SOL    MW4 3904   4.466   1.175   1.863 -0.3667 -0.0359  0.0132
    1SOL     OW 3905   0.201   1.276   1.970  0.3356 -0.3359 -0.5004
    1SOL    HW2 3906   0.201   1.364   1.933 -0.7869  0.2559  0.8720
    1SOL    HW3 3907   0.127   1.233   1.928  0.9043 -0.6517 -1.1962
    1SOL    MW4 3908   0.191   1.282   1.959  0.2625 -0.2997 -0.4113
    1SOL     OW 3909   0.232   1.536   1.852  0.3663  0.2196  0.1837
    1SOL    HW2 3910   0.308   1.579   1.892  0.8681  0.2498 -0.7678
    1SOL    HW3 3911   0.157   1.589   1.878  1.0143  1.9134 -1.2669
    1SOL    MW4 3912   0.232   1.549   1.861  0.5179  0.4470 -0.1333
    1SOL     OW 3913   0.015   1.668   1.954  0.3151  0.0674  0.0821
    1SOL    HW2 3914   0.006   1.666   2.050  1.9967 -1.6037  0.2437
    1SOL    HW3 3915  -0.073   1.649   1.922  0.2193 -1.8443  1.3517
    1SOL    MW4 3916   0.002   1.665   1.963  0.5245 -0.4054  0.2708
    1SOL     OW 3917   0.031   1.939   1.895  0.7211  0.1828 -0.0034
    1SOL    HW2 3918  -0.053   1.976   1.920  1.3082  0.5542  1.4744
    1SOL    HW3 3919   0.026   1.846   1.919  0.8704  0.2897  0.4427
    1SOL    MW4 3920   0.019   1.931   1.901  0.8183  0.2459  0.2506
    1SOL     OW 3921   0.245   2.066   1.996  0.0580  0.3559  0.0425
    1SOL    HW2 3922   0.227   2.154   1.965 -0.2506 -0.3617 -1.9162
    1SOL    HW3 3923   0.185   2.010   1.946 -0.4213 -0.8819  1.9270
    1SOL    MW4 3924   0.235   2.070   1.985 -0.0460  0.0980  0.0328
    1SOL     OW 3925   0.206   2.338   1.876 -0.0112  0.6414  0.2958
    1SOL    HW2 3926   0.285   2.382   1.906 -0.6641  1.1523  1.2729
    1SOL    HW3 3927   0.134   2.382   1.922 -0.7244 -1.0262  0.8155
    1SOL    MW4 3928   0.207   2.350   1.886 -0.1915  0.4888  0.4933
    1SOL     OW 3929   4.465   2.491   1.965 -0.1702  0.1137  0.0778
    1SOL    HW2 3930   4.468   2.492   2.060  2.1236 -0.3066  0.0422
    1SOL    HW3 3931   4.488   2.580   1.939  0.9129 -0.2107 -0.0962
    1SOL    MW4 3932   4.468   2.503   1.974  0.2753  0.0155  0.0503
    1SOL     OW 3933   0.055   2.757   1.869  0.4104 -0.3663  0.4136
    1SOL    HW2 3934  -0.032   2.787   1.896 -0.2300 -3.2069  1.6873
    1SOL    HW3 3935   0.046   2.739   1.775 -0.2945 -0.3371  0.4738
    1SOL    MW4 3936   0.042   2.758   1.860  0.2329 -0.7372  0.5895
    1SOL     OW 3937   0.285   2.846   2.004  0.1335 -0.0077  0.1041
    1SOL    HW2 3938   0.300   2.935   1.971 -0.3599 -0.3645 -1.1027
    1SOL    HW3 3939   0.202   2.819   1.965  1.2567 -1.7400 -1.1518
    1SOL    MW4 3940   0.276   2.854   1.994  0.2166 -0.2832 -0.2208
    1SOL     OW 3941   0.283   3.121   1.947  0.0754  0.1361  0.2065
    1SOL    HW2 3942   0.369   3.161   1.959  0.9791 -1.3825 -0.9998
    1SOL    HW3 3943   0.263   3.134   1.854  0.2516 -1.9337 -0.1375
    1SOL    MW4 3944   0.291   3.128   1.936  0.2179 -0.3374  0.0018
    1SOL     OW 3945   0.034   3.206   2.032  0.5756 -0.3577 -0.3733
    1SOL    HW2 3946  -0.038   3.159   1.990  0.7462 -1.6163  0.7106
    1SOL    HW3 3947   0.113   3.165   1.997  0.7420 -0.1728 -0.2146
    1SOL    MW4 3948   0.034   3.194   2.022  0.6200 -0.4992 -0.2096
    1SOL     OW 3949   0.002   3.488   1.945  0.5062 -0.2237 -0.6744
    1SOL    HW2 3950   0.080   3.535   1.973  1.9351 -1.2047 -2.8497
    1SOL    HW3 3951   0.019   3.396   1.968  0.6384 -0.6586 -2.3914
    1SOL    MW4 3952   0.015   3.482   1.952  0.7114 -0.4106 -1.1879
    1SOL     OW 3953   0.217   3.634   2.038 -0.3442  0.3048  0.0713
    1SOL    HW2 3954   0.224   3.607   2.129  1.7808  1.8048  0.4014
    1SOL    HW3 3955   0.300   3.606   1.998 -0.1030  2.0180 -0.7133
    1SOL    MW4 3956   0.229   3.627   2.045 -0.0320  0.7286  0.0114
    1SOL     OW 3957   0.220   3.889   1.903  0.2339 -0.2426  0.7215
    1SOL    HW2 3958   0.291   3.935   1.947 -0.4982  1.7407 -0.1289
    1SOL    HW3 3959   0.215   3.805   1.949  1.3320  0.6536  2.5674
    1SOL    MW4 3960   0.229   3.884   1.915  0.2822  0.1376  0.8529
    1SOL     OW 3961   0.008   4.011   2.007 -0.3862 -0.0775 -0.2649
    1SOL    HW2 3962   0.003   4.099   1.971 -1.9863 -0.4094 -0.9014
    1SOL    HW3 3963   0.089   3.975   1.970 -0.4898  0.6163 -1.1877
    1SOL    MW4 3964   0.018   4.018   1.997 -0.6110 -0.0300 -0.4705
    1SOL     OW 3965   4.456   4.262   1.899  0.0181 -0.1046  0.1724
    1SOL    HW2 3966   4.377   4.306   1.930 -0.4297 -0.7816  0.0053
    1SOL    HW3 3967   4.527   4.302   1.950 -0.4739  0.2476  0.5887
    1SOL    MW4 3968   4.455   4.273   1.910 -0.1063 -0.1478  0.2053
    1SOL     OW 3969   0.195   4.380   2.007 -0.0547 -0.0073 -0.1031
    1SOL    HW2 3970   0.188   4.401   2.100  1.6206 -1.4929  0.4064
    1SOL    HW3 3971   0.198   4.464   1.963  0.0640  0.7271  1.2776
    1SOL    MW4 3972   0.195   4.394   2.014  0.1820 -0.1059  0.1462
    1SOL     OW 3973   0.697   0.029   1.933  0.1225 -0.0244 -0.2481
    1SOL    HW2 3974   0.734  -0.054   1.962  0.2255  0.3362  0.6444
    1SOL    HW3 3975   0.665   0.011   1.844  1.1762 -0.7074 -0.4925
    1SOL    MW4 3976   0.697   0.016   1.925  0.2752 -0.0672 -0.1625
    1SOL     OW 3977   0.433   0.115   1.984 -0.0272  0.0748 -0.0225
    1SOL    HW2 3978   0.435   0.203   1.947  0.3776  0.2299  0.3691
    1SOL    HW3 3979   0.521   0.081   1.973 -0.2465 -0.3806 -0.4013
    1SOL    MW4 3980   0.445   0.122   1.978 -0.0027  0.0352 -0.0209
    1SOL     OW 3981   0.421   0.406   1.903 -0.2605 -0.1286  0.7011
    1SOL    HW2 3982   0.503   0.434   1.945  0.2355 -1.2967  0.5368
    1SOL    HW3 3983   0.442   0.405   1.809  0.0831 -2.1454  0.7866
    1SOL    MW4 3984   0.435   0.410   1.896 -0.1498 -0.5488  0.6906
    1SOL     OW 3985   0.691   0.472   1.973 -0.4520 -0.4512 -0.2326
    1SOL    HW2 3986   0.690   0.476   2.068 -0.0665  1.3933 -0.2923
    1SOL    HW3 3987   0.780   0.441   1.951 -0.9574 -2.1308  0.0257
    1SOL    MW4 3988   0.703   0.469   1.982 -0.4678 -0.4294 -0.2064
    1SOL     OW 3989   0.666   0.740   1.884 -0.7887  0.3181 -0.0716
    1SOL    HW2 3990   0.742   0.775   1.930  0.2241 -0.6495 -0.9749
    1SOL    HW3 3991   0.664   0.647   1.905 -1.0700  0.1167 -0.9345
    1SOL    MW4 3992   0.675   0.732   1.893 -0.6922  0.1638 -0.3047
    1SOL     OW 3993   0.431   0.859   1.986  0.3657 -0.1919  0.4982
    1SOL    HW2 3994   0.439   0.851   2.081  0.9127  0.1535  0.4789
    1SOL    HW3 3995   0.513   0.823   1.952  0.6180  0.6770  0.1980
    1SOL    MW4 3996   0.443   0.853   1.994  0.4712 -0.0318  0.4561
    1SOL     OW 3997   0.445   1.150   1.911 -0.0144  0.8014  0.7065
    1SOL    HW2 3998   0.357   1.181   1.933 -1.0023 -1.5212  0.2079
    1SOL    HW3 3999   0.452   1.065   1.955  1.1691 -0.0095 -0.9963
    1SOL    MW4 4000   0.434   1.143   1.920  0.0114  0.3880  0.4160
    1SOL     OW 4001   0.674   1.294   1.971 -0.2233 -0.5996 -0.2679
    1SOL    HW2 4002   0.678   1.288   2.066  1.0228 -1.1392 -0.3392
    1SOL    HW3 4003   0.597   1.243   1.947 -0.7919 -0.0981  0.4824
    1SOL    MW4 4004   0.665   1.287   1.980 -0.1339 -0.6045 -0.1783
    1SOL     OW 4005   0.667   1.556   1.894 -0.5441 -0.2901 -0.3783
    1SOL    HW2 4006   0.672   1.467   1.928  0.0783 -0.3463 -0.6063
    1SOL    HW3 4007   0.662   1.545   1.799 -1.8027 -0.1208 -0.3341
    1SOL    MW4 4008   0.667   1.543   1.886 -0.6280 -0.2750 -0.4025
    1SOL     OW 4009   0.452   1.689   1.989  0.0774 -0.0355  0.1925
    1SOL    HW2 4010   0.447   1.679   2.084 -0.9027 -0.4716  0.1050
    1SOL    HW3 4011   0.535   1.648   1.964  1.0655  1.4128  1.0133
    1SOL    MW4 4012   0.462   1.682   1.998  0.0784  0.0980  0.2892
    1SOL     OW 4013   0.448   1.934   1.873 -0.1313  0.4103 -0.2519
    1SOL    HW2 4014   0.439   1.846   1.910  1.3886  0.4465  0.2270
    1SOL    HW3 4015   0.389   1.988   1.926  0.1887 -0.0062  0.5370
    1SOL    MW4 4016   0.439   1.929   1.885  0.1115  0.3601 -0.0846
    1SOL     OW 4017   0.680   2.035   1.957 -0.0319  0.0714  0.2828
    1SOL    HW2 4018   0.659   2.027   2.049 -0.3859 -1.6585  0.0639
    1SOL    HW3 4019   0.607   1.993   1.911  0.3544  0.5123 -0.7732
    1SOL    MW4 4020   0.668   2.029   1.963 -0.0277 -0.0985  0.1146
    1SOL     OW 4021   0.696   2.317   1.879  0.1201  0.1600 -0.0839
    1SOL    HW2 4022   0.682   2.225   1.900  1.5527  0.1464  0.9175
    1SOL    HW3 4023   0.695   2.321   1.783 -2.6088 -0.4392 -0.1140
    1SOL    MW4 4024   0.694   2.305   1.869 -0.0510  0.0792  0.0443
    1SOL     OW 4025   0.453   2.418   1.951 -0.0324  0.2333 -0.5154
    1SOL    HW2 4026   0.453   2.414   2.046  0.9886  1.1908 -0.4597
    1SOL    HW3 4027   0.538   2.383   1.925  0.1052  0.9315 -1.0259
    1SOL    MW4 4028   0.464   2.413   1.960  0.1205  0.4518 -0.5755
    1SOL     OW 4029   0.484   2.692   1.884 -0.0519  0.1564  0.2255
    1SOL    HW2 4030   0.495   2.602   1.914 -2.1742 -0.4349 -0.6568
    1SOL    HW3 4031   0.409   2.724   1.933 -1.0490  0.4997 -1.4606
    1SOL    MW4 4032   0.476   2.684   1.894 -0.4635  0.1237 -0.1134
    1SOL     OW 4033   0.696   2.855   2.003  0.6712  0.0216 -0.4868
    1SOL    HW2 4034   0.699   2.870   2.097  0.9444 -0.3619 -0.4322
    1SOL    HW3 4035   0.622   2.797   1.990  1.4701 -1.0407 -0.3481
    1SOL    MW4 4036   0.687   2.849   2.013  0.8126 -0.1693 -0.4613
    1SOL     OW 4037   0.693   3.134   1.898 -0.2387 -0.1096  0.2721
    1SOL    HW2 4038   0.695   3.041   1.922 -0.0497 -0.3704 -0.7471
    1SOL    HW3 4039   0.667   3.134   1.806 -0.8036  0.8820  0.4258
    1SOL    MW4 4040   0.690   3.122   1.889 -0.2883 -0.0136  0.1580
    1SOL     OW 4041   0.500   3.272   2.036 -0.5090 -0.2202  0.2970
    1SOL    HW2 4042   0.474   3.354   1.994  0.1072 -0.2366 -0.1115
    1SOL    HW3 4043   0.572   3.239   1.983  0.5057 -0.0660  1.5522
    1SOL    MW4 4044   0.506   3.279   2.023 -0.2938 -0.2019  0.4086
    1SOL     OW 4045   0.428   3.527   1.910  0.0735 -0.5543  0.1138
    1SOL    HW2 4046   0.514   3.559   1.939  0.1130 -0.5067 -0.0594
    1SOL    HW3 4047   0.433   3.525   1.815 -0.5064  0.5312  0.0558
    1SOL    MW4 4048   0.440   3.531   1.902  0.0022 -0.4048  0.0832
    1SOL     OW 4049   0.684   3.607   2.005 -0.0365 -0.6944 -0.2871
    1SOL    HW2 4050   0.761   3.569   1.962 -0.5351 -1.5832 -0.4104
    1SOL    HW3 4051   0.674   3.694   1.965 -0.2060 -1.3148 -1.6197
    1SOL    MW4 4052   0.693   3.613   1.994 -0.1246 -0.8934 -0.4790
    1SOL     OW 4053   0.666   3.865   1.886 -0.0526  0.6146  0.1116
    1SOL    HW2 4054   0.750   3.911   1.892 -0.7644  2.0986 -0.9702
    1SOL    HW3 4055   0.649   3.857   1.793  0.3914 -2.5521  0.2645
    1SOL    MW4 4056   0.675   3.870   1.875 -0.0879  0.3927 -0.0108
    1SOL     OW 4057   0.469   4.030   2.010  0.0537  0.1854  0.2282
    1SOL    HW2 4058   0.497   4.115   1.978  1.1591  0.2491  1.3281
    1SOL    HW3 4059   0.537   3.969   1.983 -0.1759 -0.1632  0.4222
    1SOL    MW4 4060   0.481   4.033   2.003  0.1692  0.1483  0.3994
    1SOL     OW 4061   0.468   4.285   1.921  0.2661 -0.0918 -0.1027
    1SOL    HW2 4062   0.381   4.308   1.954  0.2467  1.1516 -0.9877
    1SOL    HW3 4063   0.455   4.268   1.828  0.5890 -2.0905  0.1935
    1SOL    MW4 4064   0.455   4.286   1.913  0.3062 -0.1912 -0.1804
    1SOL     OW 4065   0.706   4.412   1.973  0.1529 -0.0028 -0.6344
    1SOL    HW2 4066   0.775   4.372   1.920  0.3508 -0.9362  0.3252
    1SOL    HW3 4067   0.625   4.375   1.938  0.2464 -0.1947 -0.6487
    1SOL    MW4 4068   0.705   4.402   1.961  0.1913 -0.1512 -0.5096
    1SOL     OW 4069   1.122   4.615   1.854 -0.0250 -0.3112 -0.0805
    1SOL    HW2 4070   1.193   4.663   1.895 -0.4596 -0.1898  0.5409
    1SOL    HW3 4071   1.127   4.527   1.892  0.5763 -0.6728 -0.9833
    1SOL    MW4 4072   1.132   4.610   1.864 -0.0029 -0.3428 -0.1177
    1SOL     OW 4073   0.943   0.146   1.974 -0.0636 -0.0163  0.0987
    1SOL    HW2 4074   1.006   0.085   1.935  0.1956 -0.3725  1.0440
    1SOL    HW3 4075   0.857   0.110   1.952  0.0254  0.9893 -2.0204
    1SOL    MW4 4076   0.940   0.133   1.966 -0.0176  0.0694 -0.0561
    1SOL     OW 4077   0.949   0.406   1.879  0.4695  0.3691 -0.7728
    1SOL    HW2 4078   1.022   0.451   1.923 -0.1661  1.5144 -0.8674
    1SOL    HW3 4079   0.941   0.323   1.926  1.9591  0.1365 -0.8774
    1SOL    MW4 4080   0.958   0.401   1.891  0.5822  0.4895 -0.7989
    1SOL     OW 4081   1.158   0.504   2.030  0.3012 -0.0957 -0.3652
    1SOL    HW2 4082   1.231   0.457   1.989  1.1793 -0.0679  1.1327
    1SOL    HW3 4083   1.146   0.582   1.976  0.4839 -0.7730 -1.4047
    1SOL    MW4 4084   1.166   0.508   2.017  0.4412 -0.1814 -0.3045
    1SOL     OW 4085   1.099   0.738   1.883  0.5693 -0.1306 -0.0481
    1SOL    HW2 4086   1.179   0.770   1.926  1.1519 -0.1876 -1.0796
    1SOL    HW3 4087   1.030   0.796   1.916  1.5020  1.7754 -1.3280
    1SOL    MW4 4088   1.101   0.750   1.893  0.7693  0.1134 -0.3530
    1SOL     OW 4089   0.878   0.875   1.990  0.2971 -0.1278 -0.7887
    1SOL    HW2 4090   0.885   0.890   2.084 -1.4218  0.3126 -0.7061
    1SOL    HW3 4091   0.868   0.963   1.953 -3.5893 -0.5512 -0.9179
    1SOL    MW4 4092   0.878   0.889   1.998 -0.4424 -0.1256 -0.7948
    1SOL     OW 4093   0.875   1.137   1.896  0.3681  0.1811  0.0898
    1SOL    HW2 4094   0.807   1.196   1.928  0.9552  0.7168  0.3469
    1SOL    HW3 4095   0.869   1.143   1.801 -0.3930 -0.2872  0.1053
    1SOL    MW4 4096   0.865   1.145   1.888  0.3451  0.1900  0.1258
    1SOL     OW 4097   1.106   1.267   2.003  0.2928 -0.3077 -0.4898
    1SOL    HW2 4098   1.094   1.349   1.955  0.6988 -0.8329 -1.4898
    1SOL    HW3 4099   1.029   1.215   1.980  0.4271 -0.5131 -0.4733
    1SOL    MW4 4100   1.094   1.271   1.994  0.3639 -0.4040 -0.6195
    1SOL     OW 4101   1.151   1.505   1.860 -0.1647 -0.0878  0.4753
    1SOL    HW2 4102   1.084   1.568   1.887 -0.6977 -0.4892  0.1022
    1SOL    HW3 4103   1.148   1.507   1.764  1.4280  1.0265  0.4301
    1SOL    MW4 4104   1.142   1.513   1.851 -0.0249  0.0062  0.4201
    1SOL     OW 4105   0.924   1.633   1.947 -0.1570 -0.4099  0.0903
    1SOL    HW2 4106   0.927   1.728   1.961 -0.2192 -0.2249 -1.1534
    1SOL    HW3 4107   0.834   1.615   1.922 -0.3803 -0.9392  1.2190
    1SOL    MW4 4108   0.913   1.643   1.946 -0.1947 -0.4553  0.0751
    1SOL     OW 4109   0.930   1.913   1.912  0.1629  0.4317  0.2335
    1SOL    HW2 4110   0.849   1.947   1.950 -0.7589 -0.1803 -1.1613
    1SOL    HW3 4111   0.912   1.907   1.818  1.5474 -0.4583  0.0116
    1SOL    MW4 4112   0.917   1.916   1.905  0.2239  0.2334  0.0203
    1SOL     OW 4113   1.158   2.050   2.004 -0.1887 -0.0313 -0.1531
    1SOL    HW2 4114   1.155   2.137   1.965  0.4629 -0.0067 -0.1456
    1SOL    HW3 4115   1.080   2.006   1.969 -0.8316  0.7337  0.2931
    1SOL    MW4 4116   1.147   2.056   1.994 -0.1874  0.0727 -0.0935
    1SOL     OW 4117   1.135   2.305   1.860  0.2359 -0.0002 -0.5183
    1SOL    HW2 4118   1.207   2.359   1.892  1.3201 -0.5027 -2.0986
    1SOL    HW3 4119   1.141   2.309   1.765  0.2739 -2.8069 -0.6781
    1SOL    MW4 4120   1.145   2.312   1.852  0.3839 -0.4370 -0.7479
    1SOL     OW 4121   0.920   2.444   1.984 -0.0610  0.4303 -0.5636
    1SOL    HW2 4122   0.980   2.372   1.964 -0.5628  0.0681 -0.7841
    1SOL    HW3 4123   0.837   2.417   1.945 -0.8661  0.0350  1.3778
    1SOL    MW4 4124   0.917   2.431   1.976 -0.2334  0.3302 -0.3365
    1SOL     OW 4125   0.914   2.725   1.902  0.0865 -0.5192  0.0072
    1SOL    HW2 4126   0.900   2.633   1.926 -1.0070 -0.5911 -0.8557
    1SOL    HW3 4127   0.842   2.772   1.944 -0.2705 -0.2771 -0.8571
    1SOL    MW4 4128   0.903   2.719   1.911 -0.1049 -0.4966 -0.2207
    1SOL     OW 4129   1.152   2.838   1.959 -0.4264 -0.0125 -0.5602
    1SOL    HW2 4130   1.139   2.833   2.053 -0.8016 -1.2869 -0.6775
    1SOL    HW3 4131   1.072   2.800   1.921  0.4035 -0.9863 -1.3636
    1SOL    MW4 4132   1.139   2.833   1.966 -0.3663 -0.3090 -0.6816
    1SOL     OW 4133   1.144   3.111   1.873  0.0162  0.1485  0.0130
    1SOL    HW2 4134   1.088   3.152   1.939 -0.8105 -0.7723 -0.1126
    1SOL    HW3 4135   1.160   3.023   1.906 -0.3443 -0.2964 -0.9870
    1SOL    MW4 4136   1.139   3.105   1.886 -0.1404 -0.0319 -0.1357
    1SOL     OW 4137   0.958   3.226   2.025  0.2306 -0.0863  0.8141
    1SOL    HW2 4138   0.929   3.240   2.115  0.1946  0.7054  0.6881
    1SOL    HW3 4139   0.896   3.162   1.990 -0.9978  1.0899  0.7576
    1SOL    MW4 4140   0.946   3.220   2.032  0.0638  0.1733  0.7901
    1SOL     OW 4141   0.893   3.471   1.914  0.3701  0.4000 -0.0722
    1SOL    HW2 4142   0.928   3.392   1.955 -1.6211  0.6512  2.2487
    1SOL    HW3 4143   0.878   3.446   1.823 -1.1390 -2.2598  0.8279
    1SOL    MW4 4144   0.895   3.457   1.908 -0.0918  0.0823  0.3527
    1SOL     OW 4145   1.151   3.593   1.963 -0.3681  0.0473  0.0004
    1SOL    HW2 4146   1.141   3.594   2.058 -1.0672 -0.5372 -0.0617
    1SOL    HW3 4147   1.064   3.572   1.929 -0.1172  0.2057 -0.7669
    1SOL    MW4 4148   1.138   3.590   1.971 -0.4271 -0.0088 -0.1091
    1SOL     OW 4149   1.182   3.860   1.900 -0.5965 -0.1195  0.3091
    1SOL    HW2 4150   1.189   3.773   1.938 -1.9031 -0.3155  0.1397
    1SOL    HW3 4151   1.182   3.846   1.805 -1.2425  0.0070  0.2814
    1SOL    MW4 4152   1.183   3.847   1.892 -0.8541 -0.1285  0.2831
    1SOL     OW 4153   0.939   4.010   1.945  0.2796  0.4961 -0.0639
    1SOL    HW2 4154   0.918   4.024   2.037  0.9842  0.2237  0.1442
    1SOL    HW3 4155   1.009   3.944   1.945 -0.3115 -0.1443 -0.8404
    1SOL    MW4 4156   0.946   4.004   1.957  0.2945  0.3753 -0.1389
    1SOL     OW 4157   0.895   4.255   1.828 -0.2650 -0.0928  0.1996
    1SOL    HW2 4158   0.956   4.283   1.896 -0.2530 -0.9839  0.5578
    1SOL    HW3 4159   0.892   4.160   1.835 -2.9410  0.0160  1.2571
    1SOL    MW4 4160   0.902   4.246   1.838 -0.6166 -0.1960  0.3864
    1SOL     OW 4161   1.091   4.368   1.994 -0.3264  0.2685  0.6162
    1SOL    HW2 4162   1.107   4.376   2.088  0.2768 -1.6182  0.6992
    1SOL    HW3 4163   1.167   4.318   1.962  0.2179  2.1713 -1.1194
    1SOL    MW4 4164   1.103   4.362   2.002 -0.1749  0.2704  0.3979
    1SOL     OW 4165   1.550   4.630   1.880  0.3381 -0.4830 -0.5851
    1SOL    HW2 4166   1.620   4.691   1.904 -1.1048  1.7238 -1.8012
    1SOL    HW3 4167   1.579   4.546   1.914  3.0989  0.5845 -0.1526
    1SOL    MW4 4168   1.563   4.627   1.888  0.5120 -0.0505 -0.6886
    1SOL     OW 4169   1.325   0.090   1.965 -0.2638  0.1499  0.2878
    1SOL    HW2 4170   1.338   0.120   2.055  0.1488  2.8273 -0.6208
    1SOL    HW3 4171   1.407   0.048   1.942  0.1840  0.8016  0.6671
    1SOL    MW4 4172   1.337   0.089   1.974 -0.1502  0.5892  0.2180
    1SOL     OW 4173   1.334   0.349   1.870  0.0609  0.1273  0.3225
    1SOL    HW2 4174   1.317   0.265   1.911 -0.8323 -0.2737 -0.8440
    1SOL    HW3 4175   1.300   0.340   1.781  2.1463  0.9014 -0.5861
    1SOL    MW4 4176   1.327   0.337   1.863  0.2183  0.1765  0.0485
    1SOL     OW 4177   1.576   0.456   1.976  0.0443 -0.2403  0.1208
    1SOL    HW2 4178   1.656   0.419   1.938 -0.2405 -0.7219 -0.0130
    1SOL    HW3 4179   1.507   0.430   1.915 -0.1045  0.8706 -0.1982
    1SOL    MW4 4180   1.578   0.447   1.963 -0.0130 -0.1573  0.0612
    1SOL     OW 4181   1.577   0.729   1.877 -0.1010 -0.1204  0.1897
    1SOL    HW2 4182   1.660   0.757   1.915  1.1893 -0.2122 -2.4176
    1SOL    HW3 4183   1.576   0.634   1.889 -1.4512  0.2301  3.2364
    1SOL    MW4 4184   1.588   0.720   1.884 -0.1088 -0.0863  0.2476
    1SOL     OW 4185   1.360   0.842   1.975  0.2536  0.1217  0.3531
    1SOL    HW2 4186   1.385   0.866   2.065  0.6501 -0.1658  0.3197
    1SOL    HW3 4187   1.433   0.790   1.943 -0.2587 -0.4819  0.1497
    1SOL    MW4 4188   1.373   0.838   1.983  0.2384  0.0042  0.3219
    1SOL     OW 4189   1.318   1.126   1.876 -0.2453  0.2225  0.0036
    1SOL    HW2 4190   1.297   1.033   1.881 -2.0469  0.7248  2.6191
    1SOL    HW3 4191   1.241   1.170   1.911  0.7586  2.6920 -0.8197
    1SOL    MW4 4192   1.305   1.119   1.881 -0.3506  0.6146  0.2401
    1SOL     OW 4193   1.536   1.252   1.988 -0.0788  0.3204 -0.2860
    1SOL    HW2 4194   1.543   1.326   1.928 -0.7296  1.2874  0.8082
    1SOL    HW3 4195   1.459   1.204   1.957 -0.8341  1.2095  0.1752
    1SOL    MW4 4196   1.527   1.255   1.976 -0.2643  0.5653 -0.0807
    1SOL     OW 4197   1.576   1.497   1.838 -0.7168 -0.0470  0.0976
    1SOL    HW2 4198   1.660   1.534   1.866  0.3656 -1.5965 -1.0018
    1SOL    HW3 4199   1.510   1.555   1.877  0.8887  2.6864 -1.1171
    1SOL    MW4 4200   1.578   1.509   1.847 -0.3622  0.1092 -0.2078
    1SOL     OW 4201   1.370   1.632   1.946  0.3297 -0.1320 -0.1059
    1SOL    HW2 4202   1.350   1.640   2.040  1.3454 -0.9274  0.1920
    1SOL    HW3 4203   1.294   1.586   1.910 -0.9950  1.9355 -0.0626
    1SOL    MW4 4204   1.357   1.627   1.954  0.2888  0.0360 -0.0610
    1SOL     OW 4205   1.360   1.908   1.866 -0.3606  0.1942 -0.3372
    1SOL    HW2 4206   1.353   1.820   1.904  0.7364  0.1857 -0.1382
    1SOL    HW3 4207   1.288   1.957   1.906 -0.0741 -0.2129  0.6899
    1SOL    MW4 4208   1.350   1.903   1.877 -0.1781  0.1394 -0.1754
    1SOL     OW 4209   1.585   2.030   2.018  0.3563  0.3448  0.2835
    1SOL    HW2 4210   1.594   2.121   1.989  0.9514 -0.7903 -3.2516
    1SOL    HW3 4211   1.516   1.994   1.963 -1.0690 -0.9263  2.8334
    1SOL    MW4 4212   1.577   2.038   2.007  0.2468  0.0274  0.1535
    1SOL     OW 4213   1.577   2.294   1.871  0.0921  0.4182  0.1125
    1SOL    HW2 4214   1.655   2.343   1.899  0.1746  1.0333 -1.1238
    1SOL    HW3 4215   1.558   2.329   1.783 -1.3786  0.0409  0.2689
    1SOL    MW4 4216   1.585   2.305   1.863 -0.0910  0.4497 -0.0300
    1SOL     OW 4217   1.355   2.429   1.975 -0.1928 -0.2353 -0.3544
    1SOL    HW2 4218   1.352   2.519   1.941 -1.0727 -0.0462  0.2027
    1SOL    HW3 4219   1.440   2.395   1.947  0.5965  1.1316  0.3304
    1SOL    MW4 4220   1.366   2.436   1.967 -0.2048 -0.0300 -0.1907
    1SOL     OW 4221   1.339   2.671   1.860  0.0431 -0.0491  0.2192
    1SOL    HW2 4222   1.259   2.718   1.883 -0.5290 -0.9992  0.1702
    1SOL    HW3 4223   1.333   2.657   1.765 -0.1458 -0.8889  0.3522
    1SOL    MW4 4224   1.328   2.675   1.850 -0.0575 -0.2854  0.2303
    1SOL     OW 4225   1.542   2.811   1.980 -0.0138  0.2016  0.2846
    1SOL    HW2 4226   1.623   2.760   1.969  0.0058  0.4238 -0.6746
    1SOL    HW3 4227   1.474   2.756   1.942 -0.3832 -0.1416  1.4158
    1SOL    MW4 4228   1.544   2.797   1.973 -0.0601  0.1857  0.3073
    1SOL     OW 4229   1.573   3.072   1.890 -0.1309 -0.2347 -0.2333
    1SOL    HW2 4230   1.568   2.978   1.908 -0.3452 -0.1255  0.2764
    1SOL    HW3 4231   1.548   3.080   1.798 -1.6766 -0.5114  0.1418
    1SOL    MW4 4232   1.569   3.061   1.881 -0.3631 -0.2568 -0.1165
    1SOL     OW 4233   1.372   3.200   2.003 -0.4002  0.4155  0.2667
    1SOL    HW2 4234   1.448   3.155   1.965 -0.5236 -0.6550  1.2456
    1SOL    HW3 4235   1.297   3.164   1.957 -0.4841 -0.2479  0.9139
    1SOL    MW4 4236   1.372   3.189   1.992 -0.4276  0.1869  0.4812
    1SOL     OW 4237   1.398   3.455   1.884 -0.4692 -0.0875  0.3882
    1SOL    HW2 4238   1.404   3.369   1.924 -0.6587 -0.6408 -0.7506
    1SOL    HW3 4239   1.311   3.487   1.906 -0.6609 -0.4918  0.2126
    1SOL    MW4 4240   1.387   3.448   1.892 -0.5194 -0.2139  0.2148
    1SOL     OW 4241   1.622   3.594   1.966 -0.4742  0.3598 -0.4112
    1SOL    HW2 4242   1.595   3.592   2.058 -1.3086 -0.2781 -0.6700
    1SOL    HW3 4243   1.559   3.539   1.921 -0.8046  1.6544 -1.5674
    1SOL    MW4 4244   1.610   3.587   1.972 -0.6279  0.4463 -0.5980
    1SOL     OW 4245   1.623   3.865   1.852 -0.0472  0.3600  0.0143
    1SOL    HW2 4246   1.688   3.907   1.910 -0.4295  0.5609  0.2986
    1SOL    HW3 4247   1.610   3.779   1.891 -0.4541  0.5694  0.3413
    1SOL    MW4 4248   1.630   3.859   1.865 -0.1513  0.4141  0.0950
    1SOL     OW 4249   1.404   3.986   2.011 -0.0678  0.4399  0.6027
    1SOL    HW2 4250   1.478   3.936   1.977  0.8411  1.9940  0.2501
    1SOL    HW3 4251   1.327   3.939   1.980  0.7611  0.1390 -1.0417
    1SOL    MW4 4252   1.403   3.973   2.002  0.1615  0.6051  0.3390
    1SOL     OW 4253   1.346   4.238   1.908 -0.4241 -0.3899  0.4924
    1SOL    HW2 4254   1.365   4.147   1.933  0.5261 -0.0611  0.9581
    1SOL    HW3 4255   1.340   4.235   1.812 -0.7145 -1.0002  0.5219
    1SOL    MW4 4256   1.347   4.226   1.898 -0.3371 -0.4268  0.5578
    1SOL     OW 4257   1.607   4.357   1.957  0.0300  0.1506 -0.2411
    1SOL    HW2 4258   1.587   4.375   2.049  0.1106  1.1614 -0.4145
    1SOL    HW3 4259   1.532   4.306   1.926  0.1118 -0.3984  0.4453
    1SOL    MW4 4260   1.594   4.352   1.965  0.0514  0.2117 -0.1733
    1SOL     OW 4261   1.981   4.657   1.837  0.2177 -0.2898  0.3089
    1SOL    HW2 4262   2.055   4.709   1.868  1.2807 -0.6990 -1.4835
    1SOL    HW3 4263   1.996   4.570   1.874  1.3892 -0.7277 -1.1046
    1SOL    MW4 4264   1.993   4.653   1.846  0.5125 -0.4020 -0.1141
    1SOL     OW 4265   1.783   0.118   1.970 -0.4142 -0.6062 -0.3484
    1SOL    HW2 4266   1.800   0.125   2.064  0.1361  1.1423 -0.5568
    1SOL    HW3 4267   1.849   0.057   1.938 -1.1888 -1.9519  0.5229
    1SOL    MW4 4268   1.794   0.111   1.978 -0.4438 -0.5531 -0.2608
    1SOL     OW 4269   1.803   0.379   1.871 -0.0525 -0.5565 -0.3805
    1SOL    HW2 4270   1.802   0.286   1.895  0.4268 -0.7902 -1.2464
    1SOL    HW3 4271   1.795   0.379   1.776  0.0571  0.2856 -0.3918
    1SOL    MW4 4272   1.802   0.367   1.862  0.0252 -0.4762 -0.4963
    1SOL     OW 4273   2.026   0.492   1.947 -0.1684 -0.5235  0.5075
    1SOL    HW2 4274   2.036   0.579   1.909  2.3144 -0.6386  0.7907
    1SOL    HW3 4275   1.948   0.456   1.906 -0.2930  1.2327 -0.8184
    1SOL    MW4 4276   2.017   0.499   1.936  0.1426 -0.3070  0.3700
    1SOL     OW 4277   2.011   0.757   1.857  0.1761 -0.3903  0.1785
    1SOL    HW2 4278   2.081   0.816   1.888 -0.3054  1.3049 -1.8597
    1SOL    HW3 4279   1.933   0.787   1.904  0.4406 -1.1063  1.0901
    1SOL    MW4 4280   2.010   0.769   1.867  0.1473 -0.2612  0.0299
    1SOL     OW 4281   1.796   0.854   1.987 -0.5776 -0.0780 -0.7564
    1SOL    HW2 4282   1.771   0.944   1.967 -1.9089 -0.1468  0.5424
    1SOL    HW3 4283   1.804   0.851   2.082  2.5965 -0.5581 -0.9707
    1SOL    MW4 4284   1.794   0.866   1.997 -0.3346 -0.1504 -0.6132
    1SOL     OW 4285   1.739   1.114   1.902 -0.3825  0.1494 -0.0678
    1SOL    HW2 4286   1.667   1.165   1.938  0.2284 -0.2607  1.7707
    1SOL    HW3 4287   1.818   1.164   1.924  0.0697 -0.5672 -0.0281
    1SOL    MW4 4288   1.740   1.127   1.910 -0.2422  0.0006  0.1800
    1SOL     OW 4289   1.970   1.268   1.938  0.0977 -0.0882 -0.5053
    1SOL    HW2 4290   2.042   1.229   1.889  0.2171  0.6656 -0.9363
    1SOL    HW3 4291   1.992   1.251   2.030  1.0146  0.4595 -0.6142
    1SOL    MW4 4292   1.982   1.261   1.944  0.2344  0.0834 -0.5766
    1SOL     OW 4293   2.004   1.535   1.865 -0.4423  0.2948 -0.0865
    1SOL    HW2 4294   1.988   1.444   1.892  0.2502  0.1552 -0.1368
    1SOL    HW3 4295   1.992   1.534   1.770  1.3591 -0.1556 -0.3405
    1SOL    MW4 4296   2.000   1.523   1.856 -0.1130  0.2171 -0.1268
    1SOL     OW 4297   1.772   1.637   1.948  0.2556  0.1602  0.0034
    1SOL    HW2 4298   1.783   1.729   1.925 -1.4910  0.0560 -1.3750
    1SOL    HW3 4299   1.852   1.595   1.917  0.4437  0.9838 -0.6376
    1SOL    MW4 4300   1.784   1.643   1.941  0.0501  0.2551 -0.2631
    1SOL     OW 4301   1.809   1.905   1.886 -0.0827 -0.5089 -0.1837
    1SOL    HW2 4302   1.738   1.950   1.931  0.3548  0.5061 -0.5080
    1SOL    HW3 4303   1.781   1.900   1.795  0.5852  0.5649 -0.4563
    1SOL    MW4 4304   1.796   1.910   1.880  0.0632 -0.2334 -0.2624
    1SOL     OW 4305   2.035   2.062   1.972  0.3374  0.0730  0.1533
    1SOL    HW2 4306   2.114   2.010   1.955 -0.6396 -1.1398 -0.7839
    1SOL    HW3 4307   1.964   2.012   1.931 -0.9667  1.0005  1.2335
    1SOL    MW4 4308   2.036   2.048   1.964  0.0365  0.0355  0.1720
    1SOL     OW 4309   2.044   2.303   1.850  0.0819 -0.2464  0.2298
    1SOL    HW2 4310   2.120   2.352   1.883  1.3413 -1.1485 -1.2734
    1SOL    HW3 4311   2.050   2.218   1.893  0.8875 -0.9071 -1.1725
    1SOL    MW4 4312   2.055   2.298   1.860  0.3543 -0.4528 -0.1535
    1SOL     OW 4313   1.809   2.410   1.988 -0.0041  0.1919 -0.6035
    1SOL    HW2 4314   1.796   2.410   2.083  0.0551 -0.1561 -0.5972
    1SOL    HW3 4315   1.895   2.370   1.976  0.6841  1.6553 -0.7076
    1SOL    MW4 4316   1.818   2.405   1.999  0.0945  0.3393 -0.6164
    1SOL     OW 4317   1.790   2.692   1.913 -0.5368 -0.0316  0.4420
    1SOL    HW2 4318   1.805   2.599   1.928  0.4277 -0.0011 -0.3450
    1SOL    HW3 4319   1.791   2.703   1.818 -0.8806  0.7459  0.5171
    1SOL    MW4 4320   1.792   2.681   1.903 -0.4550  0.0749  0.3481
    1SOL     OW 4321   2.039   2.794   1.966  0.0595 -0.8580  0.3908
    1SOL    HW2 4322   2.049   2.803   2.061  0.7739  1.6279  0.1004
    1SOL    HW3 4323   1.957   2.745   1.955 -1.0380  0.5051  2.2615
    1SOL    MW4 4324   2.029   2.789   1.977  0.0091 -0.3500  0.5994
    1SOL     OW 4325   2.039   3.059   1.845  0.0592 -0.1618 -0.3063
    1SOL    HW2 4326   1.961   3.098   1.886  0.9205  0.7454  0.5135
    1SOL    HW3 4327   2.043   2.971   1.881 -0.4919 -0.1465 -0.2058
    1SOL    MW4 4328   2.029   3.053   1.856  0.1004 -0.0401 -0.1848
    1SOL     OW 4329   1.814   3.186   1.992 -0.1962 -0.2872  0.1976
    1SOL    HW2 4330   1.794   3.185   2.086 -1.9737  1.7924 -0.1257
    1SOL    HW3 4331   1.747   3.129   1.953 -1.2135  1.1038 -0.1083
    1SOL    MW4 4332   1.802   3.178   1.999 -0.5649  0.1707  0.1147
    1SOL     OW 4333   1.822   3.423   1.857 -0.3464  0.1889  0.0523
    1SOL    HW2 4334   1.844   3.353   1.918  0.2269  1.5930  1.4809
    1SOL    HW3 4335   1.764   3.481   1.906  0.8456  1.8168 -0.4116
    1SOL    MW4 4336   1.817   3.421   1.871 -0.1134  0.5889  0.1796
    1SOL     OW 4337   2.025   3.591   1.964  0.3550  0.3162 -0.1624
    1SOL    HW2 4338   2.028   3.686   1.952  1.2843  0.2836 -0.1621
    1SOL    HW3 4339   1.969   3.560   1.892  0.0105  0.8598 -0.1336
    1SOL    MW4 4340   2.018   3.599   1.953  0.4323  0.3839 -0.1587
    1SOL     OW 4341   2.037   3.855   1.905 -0.0224 -0.2616 -0.9126
    1SOL    HW2 4342   2.113   3.908   1.930  0.4963 -1.0530 -0.7726
    1SOL    HW3 4343   2.045   3.846   1.810  0.6104 -1.1486 -0.7877
    1SOL    MW4 4344   2.048   3.861   1.896  0.1295 -0.4828 -0.8776
    1SOL     OW 4345   1.820   3.987   1.995  0.0701 -0.1616 -0.1098
    1SOL    HW2 4346   1.818   4.059   1.932  1.5473 -0.5359 -0.6309
    1SOL    HW3 4347   1.903   3.943   1.977 -1.0149 -2.2741 -0.1294
    1SOL    MW4 4348   1.831   3.990   1.984  0.1220 -0.4895 -0.1811
    1SOL     OW 4349   1.821   4.225   1.855 -0.3014  0.2293  0.5502
    1SOL    HW2 4350   1.747   4.278   1.884  0.5614  1.2924  0.8021
    1SOL    HW3 4351   1.822   4.235   1.760  0.8275  1.9630  0.7244
    1SOL    MW4 4352   1.811   4.233   1.846 -0.0385  0.5984  0.6063
    1SOL     OW 4353   2.005   4.410   1.943 -0.2288 -0.3901 -0.3273
    1SOL    HW2 4354   2.082   4.368   1.906 -1.4129 -0.3893 -2.8833
    1SOL    HW3 4355   1.932   4.355   1.916 -1.1397 -0.5411  2.2951
    1SOL    MW4 4356   2.005   4.398   1.934 -0.5052 -0.4096 -0.3185
    1SOL     OW 4357   2.425   4.653   1.881 -0.0395  0.0608  0.3185
    1SOL    HW2 4358   2.509   4.686   1.912 -0.1885 -1.2939  2.3161
    1SOL    HW3 4359   2.429   4.559   1.898 -2.5026  0.1833  1.8208
    1SOL    MW4 4360   2.436   4.645   1.887 -0.3841 -0.1020  0.7802
    1SOL     OW 4361   2.195   0.113   1.943 -0.0763 -0.2676  0.3189
    1SOL    HW2 4362   2.206   0.113   2.038  1.0953  1.5459  0.2007
    1SOL    HW3 4363   2.265   0.056   1.910  0.0900 -0.1542  0.4777
    1SOL    MW4 4364   2.206   0.105   1.951  0.1001 -0.0134  0.3242
    1SOL     OW 4365   2.265   0.370   1.859  0.3170 -0.1058  0.3046
    1SOL    HW2 4366   2.261   0.275   1.869  0.1038 -0.2801 -1.3837
    1SOL    HW3 4367   2.179   0.401   1.890 -0.4460 -0.6638 -1.2144
    1SOL    MW4 4368   2.253   0.362   1.864  0.1884 -0.2024 -0.1186
    1SOL     OW 4369   2.476   0.517   1.941  0.3750  0.5394  0.1578
    1SOL    HW2 4370   2.555   0.463   1.937  0.3081  0.4902 -0.5191
    1SOL    HW3 4371   2.406   0.461   1.906  0.1439  0.7634  0.2600
    1SOL    MW4 4372   2.477   0.502   1.936  0.3357  0.5625  0.0820
    1SOL     OW 4373   2.486   0.788   1.882  0.4225  0.4849 -0.0894
    1SOL    HW2 4374   2.480   0.699   1.916  0.6177  0.8448  0.9015
    1SOL    HW3 4375   2.474   0.778   1.788 -0.2291 -0.5140  0.0854
    1SOL    MW4 4376   2.483   0.775   1.874  0.3624  0.4006  0.0643
    1SOL     OW 4377   2.232   0.906   1.939 -0.1267  0.3701 -0.0946
    1SOL    HW2 4378   2.220   0.888   2.033  0.4392  1.8042  0.2578
    1SOL    HW3 4379   2.317   0.868   1.918  0.3534  1.2351  0.2826
    1SOL    MW4 4380   2.241   0.899   1.949  0.0114  0.6734  0.0015
    1SOL     OW 4381   2.204   1.150   1.830  0.4215 -0.3131 -0.4116
    1SOL    HW2 4382   2.272   1.198   1.877  0.4609 -0.3804 -0.4004
    1SOL    HW3 4383   2.215   1.059   1.858  0.9368 -0.4749 -1.1337
    1SOL    MW4 4384   2.214   1.145   1.840  0.4945 -0.3433 -0.5056
    1SOL     OW 4385   2.407   1.270   1.989 -0.2657 -0.2422 -0.3506
    1SOL    HW2 4386   2.432   1.281   2.080  0.7015  1.5237 -0.7902
    1SOL    HW3 4387   2.425   1.356   1.949 -0.7445 -0.9593 -2.1627
    1SOL    MW4 4388   2.413   1.283   1.995 -0.2012 -0.1038 -0.6478
    1SOL     OW 4389   2.467   1.540   1.868 -0.3236  0.2662  0.0667
    1SOL    HW2 4390   2.383   1.574   1.898 -0.5278 -0.3105  0.1623
    1SOL    HW3 4391   2.474   1.570   1.777 -0.2698  0.9739  0.3070
    1SOL    MW4 4392   2.457   1.548   1.860 -0.3433  0.2835  0.1110
    1SOL     OW 4393   2.233   1.664   1.951 -0.2220 -0.4916  0.1628
    1SOL    HW2 4394   2.222   1.667   2.046 -0.4703 -0.5877  0.1369
    1SOL    HW3 4395   2.162   1.609   1.920  0.6558 -1.5864  0.0458
    1SOL    MW4 4396   2.222   1.657   1.959 -0.1390 -0.6489  0.1440
    1SOL     OW 4397   2.243   1.935   1.850 -0.2343 -0.0813  0.2134
    1SOL    HW2 4398   2.321   1.960   1.899  0.2002 -1.1095  0.0657
    1SOL    HW3 4399   2.229   1.843   1.871 -1.1556 -0.0233 -0.1033
    1SOL    MW4 4400   2.251   1.926   1.859 -0.2983 -0.2092  0.1522
    1SOL     OW 4401   2.459   2.065   2.013 -0.5421  0.3988 -0.1614
    1SOL    HW2 4402   2.536   2.021   1.977 -1.1214 -0.6383 -0.1478
    1SOL    HW3 4403   2.464   2.154   1.978  1.5849  0.8610  1.1968
    1SOL    MW4 4404   2.470   2.071   2.003 -0.3376  0.3231  0.0196
    1SOL     OW 4405   2.486   2.306   1.887  0.8204 -0.3169 -0.0144
    1SOL    HW2 4406   2.561   2.354   1.922  0.3580  1.2595 -1.1419
    1SOL    HW3 4407   2.410   2.358   1.912  0.1985 -1.1625 -0.1076
    1SOL    MW4 4408   2.486   2.319   1.895  0.6773 -0.2205 -0.1755
    1SOL     OW 4409   2.257   2.447   1.984  0.3766 -0.2002 -0.1048
    1SOL    HW2 4410   2.260   2.448   2.079  0.6007 -0.8705 -0.1035
    1SOL    HW3 4411   2.267   2.539   1.958  1.2277 -0.1241  0.4838
    1SOL    MW4 4412   2.258   2.460   1.993  0.5186 -0.2785 -0.0271
    1SOL     OW 4413   2.295   2.703   1.875 -0.2086 -0.0870 -0.1705
    1SOL    HW2 4414   2.213   2.732   1.915  0.5987  1.7858  0.1806
    1SOL    HW3 4415   2.270   2.681   1.785 -0.8236  2.1424 -0.5972
    1SOL    MW4 4416   2.281   2.704   1.868 -0.1836  0.4542 -0.1806
    1SOL     OW 4417   2.477   2.863   2.025  0.1261 -0.0299 -0.0185
    1SOL    HW2 4418   2.501   2.930   1.961 -1.2128  0.3276 -0.1590
    1SOL    HW3 4419   2.418   2.804   1.977  0.8504 -0.9984  0.2607
    1SOL    MW4 4420   2.473   2.864   2.010  0.0448 -0.1106 -0.0002
    1SOL     OW 4421   2.457   3.101   1.887 -0.1457 -0.0428 -0.0532
    1SOL    HW2 4422   2.366   3.121   1.911  0.1791  2.4100 -0.7450
    1SOL    HW3 4423   2.455   3.090   1.792  0.2559 -0.1893 -0.0451
    1SOL    MW4 4424   2.444   3.102   1.878 -0.0498  0.2615 -0.1434
    1SOL     OW 4425   2.230   3.202   1.974 -0.3606  0.3914  0.2628
    1SOL    HW2 4426   2.225   3.187   2.069 -0.1211  0.0941  0.2282
    1SOL    HW3 4427   2.153   3.157   1.939 -0.7970  1.0399  0.3819
    1SOL    MW4 4428   2.219   3.194   1.982 -0.3867  0.4375  0.2741
    1SOL     OW 4429   2.235   3.456   1.844  0.2908 -0.2079  0.2363
    1SOL    HW2 4430   2.235   3.369   1.884  0.5760 -0.3866 -0.1422
    1SOL    HW3 4431   2.170   3.505   1.893  0.0786 -0.6583  0.4114
    1SOL    MW4 4432   2.226   3.451   1.856  0.3006 -0.2911  0.2095
    1SOL     OW 4433   2.468   3.572   1.954  0.2107 -0.2222  0.5706
    1SOL    HW2 4434   2.453   3.594   2.046  0.2996  0.7938  0.3525
    1SOL    HW3 4435   2.388   3.526   1.927 -0.3148  0.5194  0.8361
    1SOL    MW4 4436   2.455   3.569   1.963  0.1531  0.0095  0.5769
    1SOL     OW 4437   2.463   3.852   1.878  0.4169 -0.4065  0.6148
    1SOL    HW2 4438   2.385   3.895   1.913 -0.5155 -1.3483 -0.2474
    1SOL    HW3 4439   2.448   3.759   1.893  1.0965 -0.6383 -0.0953
    1SOL    MW4 4440   2.451   3.846   1.885  0.3836 -0.5612  0.4075
    1SOL     OW 4441   2.257   4.002   2.000  0.5134  0.5110  0.0022
    1SOL    HW2 4442   2.255   4.021   2.094 -1.3012 -1.5678  0.4183
    1SOL    HW3 4443   2.242   4.087   1.958  0.6660  1.3427  1.6037
    1SOL    MW4 4444   2.255   4.016   2.007  0.2944  0.3462  0.2685
    1SOL     OW 4445   2.207   4.248   1.857  0.1383  0.0319  0.1221
    1SOL    HW2 4446   2.290   4.293   1.876  1.4127 -2.6097  1.0884
    1SOL    HW3 4447   2.208   4.236   1.762  0.5402  0.6392  0.0473
    1SOL    MW4 4448   2.218   4.252   1.847  0.3593 -0.2365  0.2396
    1SOL     OW 4449   2.436   4.378   1.934  0.5222  0.6913  0.0781
    1SOL    HW2 4450   2.436   4.356   2.027 -1.3079  0.4145  0.0403
    1SOL    HW3 4451   2.523   4.353   1.903  0.5499 -0.8919  1.3362
    1SOL    MW4 4452   2.447   4.372   1.942  0.2844  0.4463  0.2390
    1SOL     OW 4453   2.900   0.001   1.831  0.3110  0.2806 -0.3583
    1SOL    HW2 4454   2.986   0.024   1.868  0.4916 -1.4354  0.3290
    1SOL    HW3 4455   2.885  -0.089   1.859 -2.2928  0.9492  0.5466
    1SOL    MW4 4456   2.910  -0.008   1.839 -0.0086  0.1426 -0.1482
    1SOL     OW 4457   2.687   0.110   1.955 -0.2615 -0.2747 -0.1090
    1SOL    HW2 4458   2.704   0.100   2.048 -0.4523 -0.1695 -0.0616
    1SOL    HW3 4459   2.763   0.073   1.912 -0.0360 -0.0461  0.0928
    1SOL    MW4 4460   2.699   0.104   1.962 -0.2568 -0.2306 -0.0761
    1SOL     OW 4461   2.706   0.372   1.877  1.0622  0.0612 -0.4657
    1SOL    HW2 4462   2.788   0.410   1.910  0.3738  0.6053  0.6498
    1SOL    HW3 4463   2.711   0.279   1.902  0.4952  0.4866  1.3309
    1SOL    MW4 4464   2.718   0.365   1.885  0.8967  0.1891 -0.0815
    1SOL     OW 4465   2.945   0.476   1.965 -0.3131  0.1900  0.1791
    1SOL    HW2 4466   3.033   0.445   1.944 -0.1411  0.1089  1.0118
    1SOL    HW3 4467   2.941   0.565   1.929 -0.7665 -0.7038 -2.1192
    1SOL    MW4 4468   2.956   0.483   1.957 -0.3502  0.0613 -0.0143
    1SOL     OW 4469   2.931   0.752   1.927 -0.0237  0.1436  0.0581
    1SOL    HW2 4470   3.010   0.801   1.952 -0.1015 -0.3003  1.2075
    1SOL    HW3 4471   2.859   0.809   1.951 -0.0714  0.1463 -0.0950
    1SOL    MW4 4472   2.932   0.766   1.933 -0.0405  0.0855  0.1897
    1SOL     OW 4473   2.721   0.903   1.991  0.7585  0.1454  0.4064
    1SOL    HW2 4474   2.695   0.988   1.956 -0.5246  0.5377  2.2694
    1SOL    HW3 4475   2.651   0.843   1.965  1.1240 -0.1168  0.0216
    1SOL    MW4 4476   2.709   0.906   1.983  0.6373  0.1626  0.6014
    1SOL     OW 4477   2.661   1.166   1.919 -0.1726  0.0185 -0.0234
    1SOL    HW2 4478   2.573   1.186   1.951  0.2521  1.0794  0.5225
    1SOL    HW3 4479   2.654   1.178   1.824 -0.5684  0.2862  0.0357
    1SOL    MW4 4480   2.648   1.171   1.911 -0.1690  0.1938  0.0563
    1SOL     OW 4481   2.909   1.301   1.964  0.0350  0.0953 -0.3086
    1SOL    HW2 4482   2.902   1.391   1.934  0.7813 -0.1524 -1.2568
    1SOL    HW3 4483   2.819   1.274   1.982 -0.1629  1.0984  0.1760
    1SOL    MW4 4484   2.896   1.309   1.962  0.1073  0.1949 -0.3698
    1SOL     OW 4485   2.918   1.572   1.867 -0.2020  0.0711  0.0047
    1SOL    HW2 4486   2.997   1.599   1.914 -0.3074 -1.0948  0.8643
    1SOL    HW3 4487   2.943   1.569   1.775  0.4897  0.6401  0.1747
    1SOL    MW4 4488   2.931   1.575   1.861 -0.1247 -0.0076  0.1405
    1SOL     OW 4489   2.679   1.681   1.953 -0.2328  0.0896 -0.1513
    1SOL    HW2 4490   2.759   1.634   1.930 -0.4078  0.8001 -2.2455
    1SOL    HW3 4491   2.608   1.627   1.918 -0.6317 -0.0008  0.7763
    1SOL    MW4 4492   2.681   1.667   1.946 -0.3085  0.1714 -0.3052
    1SOL     OW 4493   2.661   1.943   1.865 -0.0781 -0.0232 -0.1014
    1SOL    HW2 4494   2.747   1.974   1.894 -0.5791  0.2756  1.0864
    1SOL    HW3 4495   2.661   1.849   1.885  0.8984 -0.5597 -2.3968
    1SOL    MW4 4496   2.672   1.935   1.871 -0.0155 -0.0546 -0.2476
    1SOL     OW 4497   2.905   2.061   1.938 -0.2907 -0.2260  0.6729
    1SOL    HW2 4498   2.926   2.082   2.029  0.6651  1.6789  0.0531
    1SOL    HW3 4499   2.985   2.019   1.904 -0.3415 -0.1817  0.4968
    1SOL    MW4 4500   2.918   2.058   1.945 -0.1714  0.0310  0.5679
    1SOL     OW 4501   2.896   2.332   1.878  0.3415  0.6319  0.5697
    1SOL    HW2 4502   2.988   2.356   1.893  0.0397  2.3582 -0.2179
    1SOL    HW3 4503   2.892   2.239   1.901  2.6857  0.0670 -1.1179
    1SOL    MW4 4504   2.908   2.323   1.883  0.6108  0.7854  0.2432
    1SOL     OW 4505   2.690   2.462   2.002  0.4378 -0.0320  0.4698
    1SOL    HW2 4506   2.691   2.555   1.982 -0.7537  0.0401  0.6679
    1SOL    HW3 4507   2.771   2.428   1.964  1.2631  1.2107  1.0704
    1SOL    MW4 4508   2.701   2.470   1.994  0.3896  0.1416  0.5749
    1SOL     OW 4509   2.696   2.727   1.922  0.3731  0.0191 -0.4841
    1SOL    HW2 4510   2.628   2.783   1.959  1.1612 -0.0625  1.1228
    1SOL    HW3 4511   2.673   2.719   1.830 -2.7797 -1.4299  0.3648
    1SOL    MW4 4512   2.684   2.734   1.915  0.0610 -0.1829 -0.1600
    1SOL     OW 4513   2.938   2.832   1.981 -0.2053 -0.2843  0.1167
    1SOL    HW2 4514   2.937   2.910   1.927  0.2254  0.1352  0.7110
    1SOL    HW3 4515   2.857   2.785   1.958  1.1215 -1.3142 -2.6091
    1SOL    MW4 4516   2.927   2.836   1.971  0.0265 -0.3650 -0.1645
    1SOL     OW 4517   2.915   3.110   1.882  0.1888  0.1660 -0.0011
    1SOL    HW2 4518   2.986   3.160   1.923  0.0275 -0.4911  1.1078
    1SOL    HW3 4519   2.837   3.135   1.930 -0.0160 -0.5778  0.0511
    1SOL    MW4 4520   2.914   3.120   1.894  0.1407 -0.0191  0.1521
    1SOL     OW 4521   2.671   3.216   2.007  0.3025 -0.4686 -0.0791
    1SOL    HW2 4522   2.675   3.302   1.966  2.4414 -0.1651  0.7069
    1SOL    HW3 4523   2.603   3.169   1.959 -0.2604  1.3580 -1.0817
    1SOL    MW4 4524   2.662   3.221   1.995  0.5102 -0.1874 -0.1076
    1SOL     OW 4525   2.700   3.458   1.859 -0.2268 -0.0005 -0.6087
    1SOL    HW2 4526   2.766   3.519   1.891  0.2617 -1.0407  0.3952
    1SOL    HW3 4527   2.618   3.488   1.899 -0.0308  0.1414 -0.3164
    1SOL    MW4 4528   2.698   3.470   1.869 -0.1366 -0.1190 -0.4377
    1SOL     OW 4529   2.897   3.629   1.955  0.2251  0.1667 -1.1880
    1SOL    HW2 4530   2.901   3.628   2.051  0.2227  0.0492 -1.1895
    1SOL    HW3 4531   2.985   3.606   1.927 -0.0415 -0.8424 -1.2154
    1SOL    MW4 4532   2.909   3.626   1.964  0.1895  0.0181 -1.1920
    1SOL     OW 4533   2.915   3.910   1.855  0.2534 -0.4865 -0.1795
    1SOL    HW2 4534   2.912   3.825   1.900 -2.5316 -0.3780 -0.0671
    1SOL    HW3 4535   2.916   3.887   1.762  0.3690 -0.6530 -0.1387
    1SOL    MW4 4536   2.915   3.896   1.849 -0.0987 -0.4940 -0.1594
    1SOL     OW 4537   2.667   4.030   1.953 -0.0306  0.0486  0.2375
    1SOL    HW2 4538   2.748   4.010   1.906  0.7232  0.4865  1.3331
    1SOL    HW3 4539   2.610   3.956   1.934 -0.1145  0.6641 -2.1675
    1SOL    MW4 4540   2.670   4.018   1.944  0.0577  0.1874  0.0647
    1SOL     OW 4541   2.674   4.280   1.849 -0.2440  0.3515 -0.2444
    1SOL    HW2 4542   2.672   4.191   1.885 -0.1498  0.3948 -0.1325
    1SOL    HW3 4543   2.670   4.268   1.755 -1.3843  0.2659 -0.2021
    1SOL    MW4 4544   2.673   4.267   1.842 -0.3819  0.3457 -0.2240
    1SOL     OW 4545   2.901   4.413   1.946  0.3090  0.0257  0.2138
    1SOL    HW2 4546   2.915   4.413   2.041  2.6179  0.3398 -0.0789
    1SOL    HW3 4547   2.821   4.363   1.933 -0.1088  0.0844  2.3355
    1SOL    MW4 4548   2.893   4.406   1.957  0.5584  0.0744  0.4550
    1SOL     OW 4549   3.383   4.667   1.877  0.0410  0.2140 -0.0863
    1SOL    HW2 4550   3.380   4.578   1.914 -2.2915  0.3489  0.1389
    1SOL    HW3 4551   3.373   4.654   1.783 -0.5918  0.2578 -0.0246
    1SOL    MW4 4552   3.381   4.653   1.869 -0.3502  0.2375 -0.0484
    1SOL     OW 4553   3.115   0.090   1.945 -0.0822 -0.1172 -0.0183
    1SOL    HW2 4554   3.112   0.093   2.041  0.3537 -0.2116  0.0005
    1SOL    HW3 4555   3.208   0.075   1.925 -0.0835  0.4603 -0.4680
    1SOL    MW4 4556   3.127   0.089   1.955 -0.0248 -0.0535 -0.0751
    1SOL     OW 4557   3.208   0.371   1.922 -0.0762 -0.2189  0.0967
    1SOL    HW2 4558   3.195   0.280   1.950 -0.4780 -0.5684 -1.2123
    1SOL    HW3 4559   3.218   0.366   1.827  0.7671  1.0177  0.1090
    1SOL    MW4 4560   3.208   0.358   1.913 -0.0181 -0.1019 -0.0744
    1SOL     OW 4561   3.401   0.530   2.004 -0.2284  0.4218  0.2944
    1SOL    HW2 4562   3.480   0.482   1.980  0.3743  0.8083  1.4652
    1SOL    HW3 4563   3.330   0.483   1.960  0.7311  0.6003 -1.4944
    1SOL    MW4 4564   3.402   0.517   1.995 -0.0224  0.4964  0.2129
    1SOL     OW 4565   3.421   0.794   1.907 -0.1179  0.5670 -0.6442
    1SOL    HW2 4566   3.332   0.829   1.912  0.1914  1.4011 -0.9138
    1SOL    HW3 4567   3.416   0.712   1.956 -1.2082  0.2319 -1.2865
    1SOL    MW4 4568   3.408   0.788   1.914 -0.2208  0.6329 -0.7646
    1SOL     OW 4569   3.161   0.895   1.980 -0.4066  0.3031 -0.3378
    1SOL    HW2 4570   3.157   0.906   2.075  1.2064 -0.1001 -0.2093
    1SOL    HW3 4571   3.130   0.978   1.944  0.2121  0.9204  0.5544
    1SOL    MW4 4572   3.157   0.907   1.988 -0.1123  0.3313 -0.2033
    1SOL     OW 4573   3.116   1.149   1.869 -0.0139  0.3101  0.0786
    1SOL    HW2 4574   3.192   1.199   1.899 -0.6380 -0.4492  3.1207
    1SOL    HW3 4575   3.041   1.199   1.900 -0.7611  0.3854 -1.7837
    1SOL    MW4 4576   3.116   1.162   1.877 -0.1948  0.2198  0.2342
    1SOL     OW 4577   3.322   1.300   1.963  0.8402 -0.0661  0.0023
    1SOL    HW2 4578   3.324   1.310   2.058  0.5688  2.0247 -0.1753
    1SOL    HW3 4579   3.326   1.390   1.930 -1.4807 -0.6172 -1.9066
    1SOL    MW4 4580   3.322   1.313   1.971  0.4981  0.1371 -0.2730
    1SOL     OW 4581   3.329   1.587   1.866  0.2006  0.1380  0.0562
    1SOL    HW2 4582   3.403   1.630   1.910  0.0539  0.5891 -0.1256
    1SOL    HW3 4583   3.253   1.609   1.920 -0.0504  1.0691 -0.6457
    1SOL    MW4 4584   3.328   1.596   1.879  0.1485  0.3204 -0.0603
    1SOL     OW 4585   3.110   1.692   2.000  0.1960  0.0655  0.2033
    1SOL    HW2 4586   3.117   1.715   2.092 -1.2055  1.4353 -0.0115
    1SOL    HW3 4587   3.131   1.773   1.953  0.2993 -0.4600 -0.6712
    1SOL    MW4 4588   3.114   1.706   2.006  0.0248  0.1769  0.0594
    1SOL     OW 4589   3.139   1.929   1.867  0.2101 -0.1499  0.2226
    1SOL    HW2 4590   3.220   1.967   1.901  0.8833 -0.8406 -0.6053
    1SOL    HW3 4591   3.151   1.927   1.772 -0.7026 -0.4295  0.1047
    1SOL    MW4 4592   3.151   1.934   1.859  0.1783 -0.2780  0.0979
    1SOL     OW 4593   3.363   2.031   1.979  0.0954  0.0861 -0.4304
    1SOL    HW2 4594   3.443   1.991   1.944  1.3630  0.3145  2.0617
    1SOL    HW3 4595   3.370   2.123   1.957  0.3301  0.0326 -0.5732
    1SOL    MW4 4596   3.374   2.038   1.972  0.2935  0.1090 -0.1205
    1SOL     OW 4597   3.380   2.313   1.892  0.2593 -0.0578  0.0640
    1SOL    HW2 4598   3.305   2.352   1.935  0.0456 -1.1555  0.7238
    1SOL    HW3 4599   3.352   2.299   1.802  0.1359  0.7393 -0.0240
    1SOL    MW4 4600   3.367   2.316   1.886  0.2148 -0.0975  0.1394
    1SOL     OW 4601   3.144   2.411   1.960  0.6088 -0.0101 -0.2978
    1SOL    HW2 4602   3.130   2.425   2.054 -1.2834 -0.7600 -0.4512
    1SOL    HW3 4603   3.144   2.499   1.923  0.6329  0.2533  0.3129
    1SOL    MW4 4604   3.142   2.425   1.968  0.3622 -0.0741 -0.2375
    1SOL     OW 4605   3.135   2.672   1.880 -0.6171  0.1764  0.3068
    1SOL    HW2 4606   3.063   2.721   1.921  0.1640  1.3847  0.2702
    1SOL    HW3 4607   3.130   2.696   1.788 -0.8613 -0.6363  0.1026
    1SOL    MW4 4608   3.125   2.682   1.874 -0.5465  0.2286  0.2750
    1SOL     OW 4609   3.322   2.873   1.955 -0.0008  0.2631  0.1641
    1SOL    HW2 4610   3.351   2.863   2.045  0.6626  0.3717 -0.0314
    1SOL    HW3 4611   3.260   2.801   1.941  1.0453 -0.6608  0.2408
    1SOL    MW4 4612   3.318   2.862   1.965  0.2251  0.1554  0.1484
    1SOL     OW 4613   3.328   3.132   1.856  0.1226  0.2777  0.2656
    1SOL    HW2 4614   3.390   3.185   1.905 -0.1861 -0.2874  1.2750
    1SOL    HW3 4615   3.338   3.043   1.891  0.3405 -0.2524 -1.1200
    1SOL    MW4 4616   3.337   3.127   1.867  0.1104  0.1330  0.2160
    1SOL     OW 4617   3.116   3.280   1.989 -0.3392 -0.7000  0.0665
    1SOL    HW2 4618   3.133   3.264   2.082 -0.2225 -0.5620  0.0690
    1SOL    HW3 4619   3.175   3.220   1.943 -0.7221 -1.0948  0.0834
    1SOL    MW4 4620   3.126   3.270   1.995 -0.3743 -0.7339  0.0691
    1SOL     OW 4621   3.137   3.529   1.872  0.2133  0.2558  0.3149
    1SOL    HW2 4622   3.115   3.451   1.923 -0.1345  0.5342  0.5885
    1SOL    HW3 4623   3.223   3.555   1.903  0.0481  0.3617  0.6786
    1SOL    MW4 4624   3.145   3.522   1.883  0.1457  0.3066  0.3991
    1SOL     OW 4625   3.377   3.626   1.978  0.3440 -0.0598  0.0977
    1SOL    HW2 4626   3.456   3.582   1.946  0.2748  0.1733 -0.3979
    1SOL    HW3 4627   3.373   3.708   1.928 -0.0271  0.0864  0.3637
    1SOL    MW4 4628   3.387   3.631   1.967  0.2859 -0.0098  0.0674
    1SOL     OW 4629   3.392   3.853   1.818 -0.0187 -0.0416 -0.1065
    1SOL    HW2 4630   3.320   3.917   1.823 -0.0038 -0.0971  0.7684
    1SOL    HW3 4631   3.411   3.847   1.724 -1.1244  0.0132 -0.3400
    1SOL    MW4 4632   3.385   3.861   1.806 -0.1621 -0.0417 -0.0218
    1SOL     OW 4633   3.148   4.018   1.915  0.7491 -0.0306  0.1390
    1SOL    HW2 4634   3.140   4.008   2.010 -0.6293  1.4812  0.1968
    1SOL    HW3 4635   3.066   3.984   1.880  2.3316 -3.1109 -0.7511
    1SOL    MW4 4636   3.136   4.012   1.923  0.7758 -0.2375  0.0291
    1SOL     OW 4637   3.145   4.301   1.858 -0.6110 -0.4765  0.4683
    1SOL    HW2 4638   3.146   4.208   1.879 -1.1511 -0.6799 -0.3838
    1SOL    HW3 4639   3.057   4.331   1.881 -0.2509 -0.0362  1.3045
    1SOL    MW4 4640   3.134   4.293   1.863 -0.6347 -0.4449  0.4663
    1SOL     OW 4641   3.377   4.398   1.994 -0.0399 -0.0890 -0.2470
    1SOL    HW2 4642   3.445   4.349   1.948  0.2294  0.3915 -0.3620
    1SOL    HW3 4643   3.296   4.376   1.947  0.3054  0.7914 -1.2644
    1SOL    MW4 4644   3.375   4.388   1.981  0.0412  0.0901 -0.3964
    1SOL     OW 4645   3.824   0.032   1.883 -0.5133  0.5247  0.6629
    1SOL    HW2 4646   3.810  -0.063   1.887  0.0065  0.3482 -1.2668
    1SOL    HW3 4647   3.749   0.069   1.930 -0.8685 -0.8235  1.1876
    1SOL    MW4 4648   3.813   0.024   1.890 -0.4919  0.3233  0.4777
    1SOL     OW 4649   3.577   0.127   1.993 -0.7752  0.2342  0.0871
    1SOL    HW2 4650   3.557   0.109   2.085 -1.0908  0.6250  0.0977
    1SOL    HW3 4651   3.505   0.086   1.944 -0.3245 -0.4390 -0.0211
    1SOL    MW4 4652   3.565   0.119   1.998 -0.7572  0.1970  0.0741
    1SOL     OW 4653   3.606   0.397   1.886  0.1448 -0.2564 -0.1863
    1SOL    HW2 4654   3.614   0.313   1.929  0.0590 -0.8211 -1.2580
    1SOL    HW3 4655   3.596   0.376   1.793 -0.2515  0.9139 -0.4193
    1SOL    MW4 4656   3.606   0.383   1.880  0.0811 -0.1765 -0.3586
    1SOL     OW 4657   3.825   0.542   1.978 -0.1491  0.0798 -0.2411
    1SOL    HW2 4658   3.814   0.631   1.945 -0.1905  0.7200  1.4391
    1SOL    HW3 4659   3.756   0.491   1.935  0.8931  0.4833 -2.4542
    1SOL    MW4 4660   3.815   0.547   1.968 -0.0169  0.2176 -0.3114
    1SOL     OW 4661   3.821   0.799   1.889 -0.1000 -0.2494  0.1671
    1SOL    HW2 4662   3.756   0.861   1.921  0.7766  0.3581  0.8231
    1SOL    HW3 4663   3.816   0.807   1.794 -1.7488 -1.0409  0.1794
    1SOL    MW4 4664   3.812   0.808   1.881 -0.2017 -0.2736  0.2552
    1SOL     OW 4665   3.624   0.955   2.013  0.4411 -0.3860 -0.1885
    1SOL    HW2 4666   3.595   1.030   1.961 -1.0937 -0.2944  0.7744
    1SOL    HW3 4667   3.569   0.883   1.983 -0.5585 -0.2995  1.3755
    1SOL    MW4 4668   3.613   0.956   2.002  0.1068 -0.3626  0.1452
    1SOL     OW 4669   3.564   1.190   1.869  0.0047 -0.4943  0.0378
    1SOL    HW2 4670   3.477   1.222   1.893 -0.8344 -3.5287  1.2321
    1SOL    HW3 4671   3.570   1.206   1.775 -1.8512 -0.2615 -0.0618
    1SOL    MW4 4672   3.553   1.196   1.860 -0.3510 -0.8641  0.1823
    1SOL     OW 4673   3.809   1.281   1.967  0.1864  0.6006 -0.1326
    1SOL    HW2 4674   3.809   1.292   2.062 -0.5196  1.6247 -0.2408
    1SOL    HW3 4675   3.722   1.245   1.948  0.9660 -1.3218 -0.2205
    1SOL    MW4 4676   3.797   1.278   1.977  0.1960  0.4821 -0.1585
    1SOL     OW 4677   3.818   1.536   1.857 -0.1437 -0.3701  0.3671
    1SOL    HW2 4678   3.896   1.579   1.893  1.0070 -1.2628 -0.9899
    1SOL    HW3 4679   3.821   1.447   1.893  0.6602 -1.0659 -1.3884
    1SOL    MW4 4680   3.829   1.530   1.867  0.1140 -0.5797 -0.0435
    1SOL     OW 4681   3.592   1.700   1.970  0.0876 -0.3704 -0.3203
    1SOL    HW2 4682   3.602   1.781   1.920  0.2383 -0.7864 -0.9770
    1SOL    HW3 4683   3.674   1.653   1.955 -0.2001 -0.8670 -0.3539
    1SOL    MW4 4684   3.604   1.705   1.962  0.0696 -0.4909 -0.4114
    1SOL     OW 4685   3.606   1.952   1.854 -0.0307 -0.4581 -0.2361
    1SOL    HW2 4686   3.675   2.012   1.882  0.3731 -0.9556 -0.1547
    1SOL    HW3 4687   3.613   1.949   1.759 -0.8217  0.5403 -0.3332
    1SOL    MW4 4688   3.616   1.960   1.845 -0.0813 -0.3920 -0.2382
    1SOL     OW 4689   3.821   2.087   1.934  0.0632 -0.4024  0.2395
    1SOL    HW2 4690   3.898   2.033   1.917  0.1951 -0.2599  0.3733
    1SOL    HW3 4691   3.850   2.176   1.913 -0.3439 -0.4591 -0.5946
    1SOL    MW4 4692   3.835   2.092   1.929  0.0269 -0.3912  0.1472
    1SOL     OW 4693   3.856   2.349   1.844 -0.1624  0.2499 -0.5226
    1SOL    HW2 4694   3.927   2.398   1.886 -0.6850  0.8356 -0.3108
    1SOL    HW3 4695   3.776   2.389   1.878 -0.6049 -0.9609 -0.1048
    1SOL    MW4 4696   3.855   2.361   1.854 -0.2899  0.1674 -0.4395
    1SOL     OW 4697   3.615   2.450   1.927  0.2835  0.7934 -0.5111
    1SOL    HW2 4698   3.595   2.537   1.891 -0.8415  0.7029 -0.1280
    1SOL    HW3 4699   3.537   2.397   1.907  1.2221 -0.3048 -1.2838
    1SOL    MW4 4700   3.602   2.455   1.920  0.2589  0.6366 -0.5625
    1SOL     OW 4701   3.578   2.745   1.867  0.2051 -0.3224  0.2301
    1SOL    HW2 4702   3.661   2.770   1.909  0.4976  0.0708 -0.5701
    1SOL    HW3 4703   3.512   2.795   1.915  0.4948 -0.1963  0.5029
    1SOL    MW4 4704   3.580   2.755   1.879  0.2818 -0.2539  0.1605
    1SOL     OW 4705   3.803   2.860   1.998 -0.0847 -0.0059 -0.4106
    1SOL    HW2 4706   3.802   2.870   2.093 -0.1616 -0.4358 -0.3654
    1SOL    HW3 4707   3.804   2.949   1.964 -1.9222  0.1698 -0.0265
    1SOL    MW4 4708   3.803   2.873   2.006 -0.3371 -0.0393 -0.3541
    1SOL     OW 4709   3.807   3.113   1.884  0.0419 -0.0225 -0.0839
    1SOL    HW2 4710   3.731   3.170   1.894  0.8620  1.2165 -0.7041
    1SOL    HW3 4711   3.810   3.093   1.790  1.1945  0.9571 -0.2613
    1SOL    MW4 4712   3.797   3.118   1.873  0.3023  0.2704 -0.1892
    1SOL     OW 4713   3.555   3.262   1.958 -0.4261 -0.2696  0.0904
    1SOL    HW2 4714   3.566   3.275   2.052  0.6152  0.5452 -0.1355
    1SOL    HW3 4715   3.570   3.348   1.919 -0.9152 -0.5843 -0.8248
    1SOL    MW4 4716   3.559   3.275   1.965 -0.3533 -0.2036 -0.0602
    1SOL     OW 4717   3.597   3.518   1.876  0.5874 -0.5107  0.1086
    1SOL    HW2 4718   3.676   3.558   1.913  0.6314  0.5342 -1.0798
    1SOL    HW3 4719   3.606   3.530   1.782  0.3276 -2.8546 -0.2399
    1SOL    MW4 4720   3.609   3.525   1.869  0.5593 -0.6821 -0.0942
    1SOL     OW 4721   3.826   3.608   1.996  0.0635  0.3777  0.4371
    1SOL    HW2 4722   3.897   3.552   1.965  0.7651  0.5666  1.6829
    1SOL    HW3 4723   3.848   3.695   1.964 -0.3415  0.1952 -0.3632
    1SOL    MW4 4724   3.838   3.612   1.988  0.1028  0.3784  0.4959
    1SOL     OW 4725   3.856   3.865   1.916  0.0720  0.0319 -0.2505
    1SOL    HW2 4726   3.784   3.926   1.932 -1.6978 -2.1060  0.1050
    1SOL    HW3 4727   3.861   3.857   1.821  1.8784  2.4914 -0.4265
    1SOL    MW4 4728   3.847   3.872   1.906  0.0770  0.0744 -0.2269
    1SOL     OW 4729   3.616   4.022   1.933 -0.0241  0.3157  0.1215
    1SOL    HW2 4730   3.597   4.009   2.026  0.2452 -1.1989 -0.0218
    1SOL    HW3 4731   3.540   3.986   1.888 -0.0234  0.7859 -0.2613
    1SOL    MW4 4732   3.604   4.016   1.939  0.0117  0.1779  0.0522
    1SOL     OW 4733   3.575   4.270   1.842 -0.2987 -0.0271  0.4799
    1SOL    HW2 4734   3.649   4.315   1.883 -1.0503  0.1893  1.6266
    1SOL    HW3 4735   3.589   4.177   1.862 -0.1552 -0.0200  0.4080
    1SOL    MW4 4736   3.586   4.263   1.850 -0.3786  0.0024  0.6217
    1SOL     OW 4737   3.783   4.420   1.934 -0.2232 -0.0862 -0.0018
    1SOL    HW2 4738   3.772   4.418   2.029  0.4819  0.9683  0.1213
    1SOL    HW3 4739   3.863   4.371   1.918 -0.0261  0.2251  0.0136
    1SOL    MW4 4740   3.792   4.414   1.944 -0.1042  0.0939  0.0165
    1SOL     OW 4741   4.258   4.651   1.862 -0.2418  0.2454  0.4002
    1SOL    HW2 4742   4.178   4.686   1.901 -0.8303 -1.8113  1.1074
    1SOL    HW3 4743   4.329   4.701   1.903 -1.0172  0.1018  1.9464
    1SOL    MW4 4744   4.257   4.662   1.873 -0.4215 -0.0449  0.6975
    1SOL     OW 4745   4.058   0.118   1.980  0.5814 -0.0645  0.2147
    1SOL    HW2 4746   4.043   0.125   2.075  0.7444 -1.1253  0.3246
    1SOL    HW3 4747   3.974   0.088   1.945  0.5063  0.3758  0.0124
    1SOL    MW4 4748   4.045   0.115   1.988  0.5927 -0.1464  0.2025
    1SOL     OW 4749   4.047   0.381   1.874 -0.0180 -0.2690 -0.2562
    1SOL    HW2 4750   4.042   0.296   1.918  0.5520  0.3819  1.1045
    1SOL    HW3 4751   3.975   0.432   1.912  0.3560  0.2306 -0.2148
    1SOL    MW4 4752   4.037   0.376   1.885  0.1063 -0.1172 -0.0713
    1SOL     OW 4753   4.261   0.538   1.977  0.5890  0.3383 -0.2303
    1SOL    HW2 4754   4.246   0.560   2.068 -1.5620  2.2015 -0.9885
    1SOL    HW3 4755   4.185   0.486   1.951  0.6584  0.7069 -1.2205
    1SOL    MW4 4756   4.249   0.534   1.985  0.3147  0.6328 -0.4610
    1SOL     OW 4757   4.257   0.776   1.856  0.5261 -0.0864  0.6629
    1SOL    HW2 4758   4.281   0.688   1.883  1.8533  0.0155 -0.1166
    1SOL    HW3 4759   4.239   0.767   1.762  2.6620  0.8442  0.1425
    1SOL    MW4 4760   4.258   0.763   1.847  0.9832  0.0498  0.4914
    1SOL     OW 4761   4.049   0.914   2.006  0.6129 -0.4412  0.3308
    1SOL    HW2 4762   4.112   0.852   1.969  0.8943  0.3835 -0.5977
    1SOL    HW3 4763   3.964   0.884   1.974  0.7415 -0.3795 -0.0675
    1SOL    MW4 4764   4.046   0.902   1.997  0.6666 -0.3243  0.1556
    1SOL     OW 4765   4.053   1.164   1.890 -0.0080  0.0541 -0.0598
    1SOL    HW2 4766   4.054   1.075   1.926 -0.6053  0.4802  1.0135
    1SOL    HW3 4767   3.965   1.197   1.910 -0.2390  0.4212 -1.6024
    1SOL    MW4 4768   4.042   1.156   1.897 -0.1178  0.1588 -0.1216
    1SOL     OW 4769   4.251   1.332   1.976  0.2376  0.6162  0.1030
    1SOL    HW2 4770   4.265   1.322   2.070  1.2675  0.4562 -0.0550
    1SOL    HW3 4771   4.182   1.269   1.955 -0.3662  1.0221  0.8325
    1SOL    MW4 4772   4.244   1.322   1.985  0.2937  0.6486  0.1785
    1SOL     OW 4773   4.230   1.579   1.860  0.2712  0.2977 -0.4051
    1SOL    HW2 4774   4.233   1.490   1.897 -0.3459  0.3463 -0.2299
    1SOL    HW3 4775   4.230   1.565   1.765  1.6545  0.1628 -0.3852
    1SOL    MW4 4776   4.230   1.565   1.853  0.3715  0.2862 -0.3793
    1SOL     OW 4777   4.001   1.687   1.971 -0.1729  0.5247 -0.0079
    1SOL    HW2 4778   4.010   1.674   2.066  0.8830 -0.5564 -0.2509
    1SOL    HW3 4779   4.088   1.670   1.936 -0.8417 -0.2317 -1.3053
    1SOL    MW4 4780   4.013   1.683   1.979 -0.1221  0.2823 -0.2112
    1SOL     OW 4781   4.066   1.938   1.869 -0.1538  0.0768  0.1074
    1SOL    HW2 4782   4.058   1.858   1.921 -0.2762  0.2725  0.3858
    1SOL    HW3 4783   4.045   1.910   1.779  0.0233 -0.2503  0.1686
    1SOL    MW4 4784   4.062   1.924   1.864 -0.1469  0.0595  0.1522
    1SOL     OW 4785   4.283   2.061   1.980 -0.6401 -0.0373  0.1513
    1SOL    HW2 4786   4.265   2.059   2.073 -3.0253  2.8221 -0.2063
    1SOL    HW3 4787   4.210   2.015   1.940  0.0231 -0.6452 -0.3901
    1SOL    MW4 4788   4.271   2.054   1.987 -0.8669  0.2599  0.0328
    1SOL     OW 4789   4.257   2.327   1.866  0.3878 -0.1155  0.2930
    1SOL    HW2 4790   4.260   2.241   1.907 -0.5184  0.3735  1.4159
    1SOL    HW3 4791   4.328   2.376   1.908  1.4410 -0.5618 -0.9409
    1SOL    MW4 4792   4.267   2.322   1.877  0.4072 -0.1099  0.2785
    1SOL     OW 4793   4.041   2.490   1.978  0.1936 -0.0520 -0.1410
    1SOL    HW2 4794   4.035   2.480   2.073 -0.1581  0.8881 -0.0681
    1SOL    HW3 4795   4.125   2.450   1.955  0.3243 -0.1862  0.5712
    1SOL    MW4 4796   4.051   2.483   1.987  0.1645  0.0546 -0.0374
    1SOL     OW 4797   4.051   2.748   1.890 -0.0570 -0.0452  0.3968
    1SOL    HW2 4798   4.038   2.656   1.912  0.0869  0.3282  2.0936
    1SOL    HW3 4799   3.975   2.793   1.926  0.7965  0.7474  1.2489
    1SOL    MW4 4800   4.040   2.742   1.897  0.0749  0.1085  0.7330
    1SOL     OW 4801   4.303   2.817   1.999  0.0579 -0.1614  0.3924
    1SOL    HW2 4802   4.302   2.821   2.094  1.8404 -0.1842  0.4293
    1SOL    HW3 4803   4.213   2.792   1.975 -0.6567  0.7905  1.9985
    1SOL    MW4 4804   4.291   2.814   2.008  0.1988 -0.0391  0.6092
    1SOL     OW 4805   4.302   3.073   1.918  0.5639 -0.0462  0.0369
    1SOL    HW2 4806   4.215   3.097   1.949  1.1665  1.1265  0.8233
    1SOL    HW3 4807   4.307   2.978   1.931 -0.6787 -0.1557 -0.2455
    1SOL    MW4 4808   4.291   3.064   1.924  0.4802  0.0939  0.1034
    1SOL     OW 4809   4.048   3.193   1.998 -0.3878 -0.1904  0.2945
    1SOL    HW2 4810   4.036   3.183   2.092 -0.1862 -0.8332  0.2544
    1SOL    HW3 4811   3.967   3.162   1.959  0.2161 -1.6471  0.1729
    1SOL    MW4 4812   4.036   3.188   2.006 -0.2813 -0.4678  0.2732
    1SOL     OW 4813   4.045   3.456   1.904  0.7354 -0.0460 -0.0641
    1SOL    HW2 4814   4.115   3.507   1.946  0.2862  0.9507 -0.5037
    1SOL    HW3 4815   4.051   3.370   1.944  0.3872  0.8551  2.0002
    1SOL    MW4 4816   4.055   3.451   1.915  0.6299  0.2043  0.1503
    1SOL     OW 4817   4.243   3.593   2.036 -0.4914 -0.1464 -0.1108
    1SOL    HW2 4818   4.248   3.685   2.012 -0.7441 -0.4971 -1.5188
    1SOL    HW3 4819   4.328   3.557   2.009 -1.0992 -0.7225 -1.2567
    1SOL    MW4 4820   4.255   3.600   2.030 -0.6046 -0.2687 -0.4478
    1SOL     OW 4821   4.296   3.834   1.924  0.2301 -0.0104  0.1200
    1SOL    HW2 4822   4.370   3.892   1.942  0.1575  0.1386 -0.0609
    1SOL    HW3 4823   4.286   3.837   1.829 -1.4169  1.6839  0.3365
    1SOL    MW4 4824   4.304   3.842   1.914  0.0029  0.2329  0.1246
    1SOL     OW 4825   4.086   4.021   1.980 -0.0167 -0.0743  0.2108
    1SOL    HW2 4826   4.155   3.956   1.968 -0.3520 -0.4642  0.4121
    1SOL    HW3 4827   4.005   3.976   1.955 -0.0045  0.9093 -1.7549
    1SOL    MW4 4828   4.084   4.007   1.975 -0.0596  0.0043 -0.0219
    1SOL     OW 4829   4.022   4.276   1.880  0.3138  0.3092  0.1713
    1SOL    HW2 4830   4.093   4.327   1.920  1.5773 -0.5323 -0.9302
    1SOL    HW3 4831   4.039   4.186   1.909 -1.4819  0.3787  1.5140
    1SOL    MW4 4832   4.034   4.271   1.889  0.2441  0.2074  0.2031
    1SOL     OW 4833   4.251   4.404   1.994 -0.1019  0.0067  0.4425
    1SOL    HW2 4834   4.241   4.426   2.087 -1.0895  0.0398  0.3411
    1SOL    HW3 4835   4.252   4.489   1.950 -0.6901 -0.0420  0.3323
    1SOL    MW4 4836   4.250   4.418   2.000 -0.3095  0.0048  0.4144
    1SOL     OW 4837   0.194   4.653   2.388 -0.2517  0.1939 -0.1378
    1SOL    HW2 4838   0.209   4.659   2.483 -1.0850  2.9329 -0.1195
    1SOL    HW3 4839   0.275   4.686   2.349  0.1654 -1.1206 -0.3867
    1SOL    MW4 4840   0.207   4.658   2.396 -0.3066  0.3819 -0.1683
    1SOL     OW 4841   4.461   0.115   2.293 -0.4690  0.1047 -0.3542
    1SOL    HW2 4842   4.537   0.066   2.324 -1.2739 -0.6020  0.5134
    1SOL    HW3 4843   4.472   0.118   2.198 -0.2023 -1.4095 -0.3767
    1SOL    MW4 4844   4.473   0.109   2.284 -0.5398 -0.1883 -0.2427
    1SOL     OW 4845   4.452   0.401   2.394  0.1635  0.2524  0.0279
    1SOL    HW2 4846   4.537   0.428   2.358 -0.5342  0.4294 -1.5159
    1SOL    HW3 4847   4.450   0.306   2.383  0.4240  0.1621  0.6864
    1SOL    MW4 4848   4.463   0.392   2.388  0.1054  0.2638 -0.0892
    1SOL     OW 4849   0.208   0.513   2.302  0.3990  0.0126 -0.1642
    1SOL    HW2 4850   0.300   0.490   2.318  0.1820 -0.1228  0.9031
    1SOL    HW3 4851   0.197   0.500   2.207  1.9618  1.7772 -0.6134
    1SOL    MW4 4852   0.219   0.508   2.291  0.5766  0.2275 -0.0827
    1SOL     OW 4853   0.241   0.773   2.340 -0.1856 -0.4751 -0.7459
    1SOL    HW2 4854   0.221   0.782   2.433 -0.8181 -0.3402 -0.8975
    1SOL    HW3 4855   0.229   0.680   2.322 -0.4163 -0.4389 -0.7772
    1SOL    MW4 4856   0.237   0.762   2.350 -0.2995 -0.4525 -0.7699
    1SOL     OW 4857   0.023   0.911   2.263  0.2467  0.6478  0.0610
    1SOL    HW2 4858   0.105   0.863   2.265 -1.8975 -3.1212  1.4036
    1SOL    HW3 4859   0.009   0.930   2.170  1.5413 -0.6190 -0.4134
    1SOL    MW4 4860   0.032   0.907   2.251  0.1346 -0.0166  0.1755
    1SOL     OW 4861   4.466   1.162   2.363 -0.1528 -0.3011  0.3071
    1SOL    HW2 4862   4.451   1.159   2.457 -1.6929 -0.6596  0.0555
    1SOL    HW3 4863   4.473   1.070   2.337 -0.3688 -0.2220 -0.0353
    1SOL    MW4 4864   4.465   1.149   2.372 -0.3839 -0.3381  0.2289
    1SOL     OW 4865   0.188   1.291   2.252  0.2743 -0.3099 -0.3408
    1SOL    HW2 4866   0.117   1.235   2.282 -0.7388  0.6809 -0.8728
    1SOL    HW3 4867   0.181   1.290   2.157  0.4939  0.4237 -0.3668
    1SOL    MW4 4868   0.178   1.284   2.244  0.1696 -0.0824 -0.4144
    1SOL     OW 4869   0.194   1.550   2.339  0.5106  0.0167  0.1832
    1SOL    HW2 4870   0.211   1.536   2.432 -0.4321 -0.2193  0.3259
    1SOL    HW3 4871   0.167   1.464   2.307  0.2136  0.2407 -0.1701
    1SOL    MW4 4872   0.193   1.536   2.347  0.3470  0.0151  0.1557
    1SOL     OW 4873   4.469   1.691   2.240  0.3111 -0.1064 -0.2363
    1SOL    HW2 4874   4.477   1.779   2.278 -0.0483 -0.1946  0.0444
    1SOL    HW3 4875   4.541   1.642   2.280  1.5276  0.4996 -1.6397
    1SOL    MW4 4876   4.480   1.696   2.250  0.4234 -0.0379 -0.3846
    1SOL     OW 4877   4.487   1.927   2.366 -0.6565 -0.8929 -0.0806
    1SOL    HW2 4878   4.409   1.973   2.335 -0.8471 -1.1767 -0.0288
    1SOL    HW3 4879   4.560   1.976   2.330 -0.8087  0.6483  1.6366
    1SOL    MW4 4880   4.486   1.939   2.357 -0.7014 -0.7269  0.1528
    1SOL     OW 4881   0.238   2.062   2.272  0.6077 -0.0477 -0.4224
    1SOL    HW2 4882   0.316   2.015   2.301  0.9674  0.0060 -1.2770
    1SOL    HW3 4883   0.233   2.045   2.178 -0.2326  0.2103 -0.4332
    1SOL    MW4 4884   0.248   2.054   2.263  0.5443 -0.0067 -0.5367
    1SOL     OW 4885   0.206   2.323   2.366  0.1535 -0.4331  0.4534
    1SOL    HW2 4886   0.218   2.329   2.461 -2.4248  0.7365  0.7595
    1SOL    HW3 4887   0.228   2.233   2.345  4.1561  0.1967  1.5936
    1SOL    MW4 4888   0.210   2.312   2.376  0.3414 -0.1957  0.6442
    1SOL     OW 4889   4.490   2.464   2.250 -0.2214 -0.3989  0.4298
    1SOL    HW2 4890   4.500   2.550   2.289  1.5400 -0.1007 -0.6328
    1SOL    HW3 4891   4.557   2.410   2.292  1.0014 -0.3384 -1.4055
    1SOL    MW4 4892   4.500   2.468   2.261  0.1726 -0.3517  0.0474
    1SOL     OW 4893   0.016   2.713   2.389 -0.3268 -0.0735 -0.0138
    1SOL    HW2 4894   0.048   2.707   2.479  0.2415 -0.9366 -0.2672
    1SOL    HW3 4895   0.085   2.761   2.342 -1.1265  1.3495  0.2416
    1SOL    MW4 4896   0.029   2.719   2.395 -0.3572  0.0007 -0.0134
    1SOL     OW 4897   0.233   2.876   2.275  0.0278 -0.3007 -0.4408
    1SOL    HW2 4898   0.308   2.823   2.303  1.2927  1.2520 -0.8218
    1SOL    HW3 4899   0.242   2.880   2.180 -1.9587 -2.1708 -0.7380
    1SOL    MW4 4900   0.244   2.869   2.266 -0.0674 -0.3426 -0.5302
    1SOL     OW 4901   0.243   3.114   2.432  0.1517  0.0490 -0.3115
    1SOL    HW2 4902   0.179   3.164   2.382  0.0454  1.0052  0.7614
    1SOL    HW3 4903   0.252   3.032   2.384 -2.0645 -0.2063 -0.3407
    1SOL    MW4 4904   0.236   3.110   2.419 -0.1547  0.1414 -0.1736
    1SOL     OW 4905   4.485   3.193   2.293 -0.2086  0.7390 -0.3403
    1SOL    HW2 4906   4.486   3.286   2.317  1.5803  0.8816 -0.8917
    1SOL    HW3 4907   4.502   3.193   2.199 -1.5990 -0.0969 -0.6053
    1SOL    MW4 4908   4.487   3.205   2.284 -0.1559  0.6473 -0.4482
    1SOL     OW 4909   0.008   3.440   2.394 -0.2012 -0.5474 -0.1929
    1SOL    HW2 4910  -0.001   3.438   2.489  0.7277 -0.3009 -0.0942
    1SOL    HW3 4911  -0.061   3.500   2.364  0.8821  1.0741  0.5078
    1SOL    MW4 4912  -0.002   3.447   2.402  0.0639 -0.3009 -0.0873
    1SOL     OW 4913   0.215   3.597   2.308  0.0786  0.4840 -0.1360
    1SOL    HW2 4914   0.296   3.548   2.322  0.0006  0.0607 -1.1456
    1SOL    HW3 4915   0.149   3.547   2.357  0.2882  0.4380  0.1024
    1SOL    MW4 4916   0.217   3.584   2.317  0.0959  0.4222 -0.2379
    1SOL     OW 4917   0.223   3.863   2.368 -0.3944 -0.0101  0.2148
    1SOL    HW2 4918   0.136   3.902   2.354 -0.1135  0.7019  0.4234
    1SOL    HW3 4919   0.211   3.770   2.350 -0.8102  0.3590 -1.4651
    1SOL    MW4 4920   0.210   3.856   2.364 -0.4122  0.1326  0.0205
    1SOL     OW 4921   4.476   4.006   2.282  0.0069  0.0116 -0.3169
    1SOL    HW2 4922   4.467   4.095   2.316  0.9096  0.0704 -0.2251
    1SOL    HW3 4923   4.473   4.016   2.187 -0.9163  0.0264 -0.2855
    1SOL    MW4 4924   4.475   4.019   2.274  0.0042  0.0215 -0.3006
    1SOL     OW 4925   4.431   4.254   2.385  0.4146  0.2894 -0.3443
    1SOL    HW2 4926   4.437   4.264   2.480 -0.6071 -0.0775 -0.2380
    1SOL    HW3 4927   4.502   4.309   2.350  0.1345  1.2428  0.5779
    1SOL    MW4 4928   4.441   4.262   2.393  0.2427  0.3662 -0.2086
    1SOL     OW 4929   0.155   4.396   2.276 -0.4385 -0.6027 -0.4087
    1SOL    HW2 4930   0.240   4.359   2.301 -0.6994 -0.4355  0.7466
    1SOL    HW3 4931   0.156   4.485   2.311 -0.5076 -0.0879 -1.6907
    1SOL    MW4 4932   0.166   4.403   2.284 -0.4820 -0.5131 -0.4253
    1SOL     OW 4933   0.697   4.647   2.341  0.5650 -0.1531  0.3704
    1SOL    HW2 4934   0.690   4.638   2.436 -0.5295  2.2040  0.5494
    1SOL    HW3 4935   0.771   4.706   2.327  0.3978 -0.0723 -0.2140
    1SOL    MW4 4936   0.706   4.653   2.351  0.3986  0.1686  0.3169
    1SOL     OW 4937   0.423   0.094   2.271  0.2125 -0.0573 -0.5229
    1SOL    HW2 4938   0.505   0.057   2.305  0.1657 -0.5155 -0.9006
    1SOL    HW3 4939   0.434   0.092   2.176 -0.4326 -0.5837 -0.5918
    1SOL    MW4 4940   0.436   0.089   2.263  0.1212 -0.1872 -0.5817
    1SOL     OW 4941   0.443   0.371   2.348 -0.7510  0.6049 -0.1215
    1SOL    HW2 4942   0.447   0.361   2.443 -1.5000  0.5329 -0.0980
    1SOL    HW3 4943   0.425   0.283   2.315 -2.2645  0.9482 -0.2208
    1SOL    MW4 4944   0.441   0.358   2.356 -1.0495  0.6407 -0.1314
    1SOL     OW 4945   0.677   0.480   2.240 -0.1747 -0.2856 -0.0366
    1SOL    HW2 4946   0.681   0.570   2.274  1.3375 -0.7577  1.0540
    1SOL    HW3 4947   0.591   0.448   2.269 -0.1347  0.3299  0.7908
    1SOL    MW4 4948   0.666   0.488   2.249  0.0301 -0.2666  0.2165
    1SOL     OW 4949   0.706   0.760   2.333 -0.4168 -0.3227  0.6775
    1SOL    HW2 4950   0.712   0.744   2.427  0.9378  1.0158  0.8405
    1SOL    HW3 4951   0.642   0.831   2.325 -0.3359 -0.2559  0.6188
    1SOL    MW4 4952   0.698   0.767   2.344 -0.2273 -0.1373  0.6914
    1SOL     OW 4953   0.478   0.901   2.277 -0.3732 -0.0594  0.1429
    1SOL    HW2 4954   0.468   0.994   2.296 -0.8368 -0.1797  0.4890
    1SOL    HW3 4955   0.400   0.860   2.314 -0.5872 -0.4796 -0.7705
    1SOL    MW4 4956   0.466   0.908   2.285 -0.4626 -0.1307  0.0682
    1SOL     OW 4957   0.431   1.173   2.365 -0.0333 -0.6483 -0.5733
    1SOL    HW2 4958   0.428   1.165   2.460  2.5515  0.2650 -0.3803
    1SOL    HW3 4959   0.348   1.216   2.342 -0.7760 -1.0846  1.2183
    1SOL    MW4 4960   0.419   1.178   2.375  0.2097 -0.5854 -0.3111
    1SOL     OW 4961   0.672   1.259   2.256  0.3135 -0.1350  0.4860
    1SOL    HW2 4962   0.672   1.352   2.278  0.1047 -0.0778  0.2445
    1SOL    HW3 4963   0.589   1.226   2.292 -0.8814  0.3269 -1.7639
    1SOL    MW4 4964   0.661   1.267   2.264  0.1284 -0.0665  0.1574
    1SOL     OW 4965   0.642   1.514   2.363 -0.2834 -0.0245  0.2279
    1SOL    HW2 4966   0.661   1.503   2.456 -0.3417 -0.3228  0.2041
    1SOL    HW3 4967   0.722   1.553   2.327 -0.4786  0.6558  0.5116
    1SOL    MW4 4968   0.655   1.518   2.371 -0.3168  0.0260  0.2623
    1SOL     OW 4969   0.439   1.667   2.276 -0.2203  0.0992 -0.5383
    1SOL    HW2 4970   0.509   1.607   2.303  0.3443  0.1779 -1.7913
    1SOL    HW3 4971   0.358   1.618   2.291  0.1570 -0.3987 -0.0971
    1SOL    MW4 4972   0.438   1.653   2.282 -0.0960  0.0437 -0.6454
    1SOL     OW 4973   0.448   1.921   2.384 -0.1031  0.4044 -0.0653
    1SOL    HW2 4974   0.528   1.950   2.340 -1.1972  0.3578 -2.1920
    1SOL    HW3 4975   0.429   1.836   2.345 -0.1833 -0.4374  1.7814
    1SOL    MW4 4976   0.456   1.914   2.373 -0.2581  0.2872 -0.1025
    1SOL     OW 4977   0.658   2.015   2.231  0.5200  0.0058 -0.5967
    1SOL    HW2 4978   0.734   1.966   2.262 -0.7105 -0.7272  1.3227
    1SOL    HW3 4979   0.670   2.104   2.264  0.2621 -0.2546  0.2032
    1SOL    MW4 4980   0.669   2.020   2.239  0.3237 -0.1252 -0.2382
    1SOL     OW 4981   0.666   2.275   2.323  0.2600 -0.2615 -0.6808
    1SOL    HW2 4982   0.672   2.269   2.418  0.5483 -0.6721 -0.7225
    1SOL    HW3 4983   0.742   2.327   2.297  0.4179 -0.5114 -0.7213
    1SOL    MW4 4984   0.677   2.281   2.332  0.3189 -0.3486 -0.6917
    1SOL     OW 4985   0.443   2.430   2.246  0.0780 -0.6411  0.3223
    1SOL    HW2 4986   0.520   2.389   2.286 -0.8019 -1.6462  1.0177
    1SOL    HW3 4987   0.369   2.398   2.298 -0.8715 -0.1579 -0.7102
    1SOL    MW4 4988   0.443   2.421   2.258 -0.1634 -0.7100  0.2780
    1SOL     OW 4989   0.468   2.713   2.327 -0.0736  0.0425  0.0116
    1SOL    HW2 4990   0.461   2.699   2.421  1.8169 -1.4747 -0.0574
    1SOL    HW3 4991   0.452   2.627   2.288  0.7146  0.3247 -0.9731
    1SOL    MW4 4992   0.465   2.700   2.334  0.2798 -0.1206 -0.1273
    1SOL     OW 4993   0.695   2.876   2.290  0.0286 -0.0774 -0.0839
    1SOL    HW2 4994   0.756   2.807   2.319 -0.2492  0.1105  0.9831
    1SOL    HW3 4995   0.609   2.835   2.295 -0.1351  0.3363  0.5247
    1SOL    MW4 4996   0.692   2.861   2.295 -0.0296  0.0019  0.1371
    1SOL     OW 4997   0.715   3.123   2.411  0.0100  0.5733  0.5214
    1SOL    HW2 4998   0.635   3.170   2.385 -0.1549  1.5300  2.6401
    1SOL    HW3 4999   0.711   3.041   2.362 -1.4733  1.2638 -0.5883
    1SOL    MW4 5000   0.704   3.119   2.401 -0.2074  0.7906  0.6545
    1SOL     OW 5001   0.465   3.231   2.323 -0.6178  0.1641  0.2442
    1SOL    HW2 5002   0.393   3.177   2.353 -1.2551  1.4898  1.1833
    1SOL    HW3 5003   0.456   3.233   2.228 -0.6676 -1.2294  0.2094
    1SOL    MW4 5004   0.454   3.225   2.315 -0.7085  0.1554  0.3636
    1SOL     OW 5005   0.444   3.490   2.411 -0.0959  0.3331  0.8101
    1SOL    HW2 5006   0.516   3.544   2.378  1.7267 -1.5200  1.6516
    1SOL    HW3 5007   0.458   3.404   2.372 -1.3126 -0.3204  1.7515
    1SOL    MW4 5008   0.455   3.486   2.401 -0.0160  0.0024  1.0455
    1SOL     OW 5009   0.668   3.618   2.288 -0.1222  0.0659 -0.3671
    1SOL    HW2 5010   0.680   3.709   2.315  0.0957 -0.2701  0.7013
    1SOL    HW3 5011   0.668   3.621   2.193  0.3417  1.1304 -0.3397
    1SOL    MW4 5012   0.670   3.630   2.279 -0.0323  0.1621 -0.2224
    1SOL     OW 5013   0.677   3.887   2.340  0.0462  0.2013 -0.0928
    1SOL    HW2 5014   0.686   3.895   2.435  1.5518  0.1223 -0.2041
    1SOL    HW3 5015   0.594   3.930   2.320  0.7649  2.1937  1.0212
    1SOL    MW4 5016   0.668   3.894   2.350  0.3397  0.4539  0.0396
    1SOL     OW 5017   0.446   4.027   2.282  0.0117  0.1938 -0.1922
    1SOL    HW2 5018   0.357   3.993   2.291  0.2609 -0.2156  0.7328
    1SOL    HW3 5019   0.457   4.040   2.188 -0.5897 -0.9345 -0.4220
    1SOL    MW4 5020   0.436   4.024   2.271 -0.0347 -0.0095 -0.1004
    1SOL     OW 5021   0.417   4.288   2.381 -0.2339  0.0504  0.5315
    1SOL    HW2 5022   0.492   4.324   2.334 -1.5986  0.2122 -1.5643
    1SOL    HW3 5023   0.418   4.194   2.362 -1.0119  0.1759 -0.1684
    1SOL    MW4 5024   0.427   4.280   2.372 -0.5167  0.0887  0.1626
    1SOL     OW 5025   0.640   4.385   2.253  0.0386  0.3227 -0.0682
    1SOL    HW2 5026   0.673   4.469   2.286  1.5922 -0.6863  1.0130
    1SOL    HW3 5027   0.657   4.389   2.158  2.0694  0.4046  0.2617
    1SOL    MW4 5028   0.647   4.397   2.245  0.5115  0.1998  0.1183
    1SOL     OW 5029   1.175   0.009   2.361  0.1633  0.2072  0.2022
    1SOL    HW2 5030   1.182   0.005   2.456  0.8115  1.3766  0.2093
    1SOL    HW3 5031   1.089   0.049   2.344 -1.1976 -2.5864  0.2461
    1SOL    MW4 5032   1.164   0.014   2.371  0.0694 -0.0071  0.2089
    1SOL     OW 5033   0.919   0.140   2.256 -0.2563 -0.0468  0.4460
    1SOL    HW2 5034   0.931   0.233   2.275 -1.7841  0.1260  0.6155
    1SOL    HW3 5035   0.934   0.133   2.162 -3.1892  0.9208 -0.1327
    1SOL    MW4 5036   0.923   0.151   2.246 -0.8448  0.1037  0.3922
    1SOL     OW 5037   0.888   0.379   2.403  0.1322  0.5019  0.0213
    1SOL    HW2 5038   0.967   0.419   2.367  0.2268 -1.1364 -1.6696
    1SOL    HW3 5039   0.819   0.404   2.341 -0.2052 -0.1338  0.1429
    1SOL    MW4 5040   0.889   0.388   2.390  0.1002  0.2019 -0.1857
    1SOL     OW 5041   1.115   0.499   2.304 -0.3666  0.4961 -0.0219
    1SOL    HW2 5042   1.187   0.446   2.339 -1.5737 -0.1902  1.4522
    1SOL    HW3 5043   1.126   0.493   2.209  1.3077  0.1073  0.1633
    1SOL    MW4 5044   1.126   0.491   2.296 -0.3049  0.3543  0.1972
    1SOL     OW 5045   1.150   0.756   2.371  0.3011  0.3334  0.2324
    1SOL    HW2 5046   1.081   0.800   2.321  0.3745  0.0578 -0.1117
    1SOL    HW3 5047   1.141   0.663   2.349  0.9317  0.3216 -0.0030
    1SOL    MW4 5048   1.140   0.749   2.362  0.3940  0.2955  0.1562
    1SOL     OW 5049   0.934   0.902   2.262  0.1353 -0.3188  0.1069
    1SOL    HW2 5050   0.907   0.983   2.306  0.6978 -0.3396  0.5072
    1SOL    HW3 5051   0.864   0.840   2.280  0.0231 -0.1164  0.3725
    1SOL    MW4 5052   0.921   0.905   2.270  0.1947 -0.2948  0.1950
    1SOL     OW 5053   0.897   1.147   2.388 -0.7760 -0.5737 -0.0846
    1SOL    HW2 5054   0.974   1.203   2.379 -0.3143 -1.0633  0.7887
    1SOL    HW3 5055   0.829   1.191   2.337 -0.4542  0.8473  0.7008
    1SOL    MW4 5056   0.898   1.160   2.380 -0.6725 -0.4508  0.1340
    1SOL     OW 5057   1.142   1.291   2.306 -0.2626  0.3591  0.5886
    1SOL    HW2 5058   1.218   1.239   2.331 -1.2804 -0.8926  1.1725
    1SOL    HW3 5059   1.127   1.269   2.214 -0.4452 -0.0751  0.7205
    1SOL    MW4 5060   1.150   1.281   2.297 -0.4212  0.1369  0.6831
    1SOL     OW 5061   1.126   1.556   2.364  0.2224 -0.4579  0.3324
    1SOL    HW2 5062   1.041   1.578   2.326  0.9920  0.4941 -0.8710
    1SOL    HW3 5063   1.136   1.462   2.350 -0.2887 -0.4310 -0.2097
    1SOL    MW4 5064   1.116   1.547   2.357  0.2564 -0.3288  0.1020
    1SOL     OW 5065   0.874   1.607   2.270 -0.5814 -0.0504 -0.0195
    1SOL    HW2 5066   0.857   1.700   2.285  1.4812  0.4141 -0.3323
    1SOL    HW3 5067   0.886   1.600   2.175 -1.0590 -0.7065 -0.0386
    1SOL    MW4 5068   0.873   1.618   2.259 -0.3724 -0.0756 -0.0634
    1SOL     OW 5069   0.893   1.880   2.314 -0.0719  0.3115  0.0163
    1SOL    HW2 5070   0.895   1.871   2.410  0.0225  0.9106  0.0757
    1SOL    HW3 5071   0.974   1.925   2.293 -0.5914  1.1477 -0.2350
    1SOL    MW4 5072   0.904   1.885   2.324 -0.1280  0.5009 -0.0091
    1SOL     OW 5073   1.092   2.074   2.289  0.0732 -0.3760  0.1850
    1SOL    HW2 5074   1.159   2.012   2.316 -0.8808 -1.9767 -1.0152
    1SOL    HW3 5075   1.110   2.090   2.196 -1.0819 -0.7121 -0.1138
    1SOL    MW4 5076   1.103   2.068   2.280 -0.2050 -0.6313 -0.0129
    1SOL     OW 5077   1.104   2.337   2.404  0.3538 -0.2942  0.3572
    1SOL    HW2 5078   1.181   2.373   2.362  0.0086  0.4194  0.3365
    1SOL    HW3 5079   1.086   2.256   2.355 -0.0654  0.5459 -0.8870
    1SOL    MW4 5080   1.112   2.331   2.392  0.2530 -0.0889  0.1903
    1SOL     OW 5081   0.892   2.420   2.272 -0.3908  0.1401 -0.1439
    1SOL    HW2 5082   0.968   2.390   2.322 -0.4483  1.4762  0.7840
    1SOL    HW3 5083   0.923   2.427   2.182  0.2160 -0.5799  0.0070
    1SOL    MW4 5084   0.906   2.417   2.267 -0.3184  0.2213 -0.0014
    1SOL     OW 5085   0.898   2.700   2.338  0.0807  0.1872 -0.1330
    1SOL    HW2 5086   0.896   2.704   2.434  2.7525  0.1748 -0.0340
    1SOL    HW3 5087   0.907   2.607   2.318 -0.4358  0.1938 -0.4011
    1SOL    MW4 5088   0.899   2.688   2.348  0.3651  0.1864 -0.1552
    1SOL     OW 5089   1.115   2.843   2.246  0.0029 -0.0233 -0.3487
    1SOL    HW2 5090   1.164   2.790   2.308  1.7126  0.3555 -1.3452
    1SOL    HW3 5091   1.026   2.809   2.251  0.8512 -2.3398 -0.2574
    1SOL    MW4 5092   1.110   2.831   2.255  0.3403 -0.2789 -0.4685
    1SOL     OW 5093   1.129   3.089   2.404 -0.0747  0.2536 -0.3183
    1SOL    HW2 5094   1.059   3.140   2.364  0.5207 -1.1282 -3.2562
    1SOL    HW3 5095   1.120   3.002   2.365  0.5282 -1.2049  2.6346
    1SOL    MW4 5096   1.118   3.084   2.394  0.0833 -0.1211 -0.3166
    1SOL     OW 5097   0.929   3.244   2.293  0.0335  0.2369 -0.0148
    1SOL    HW2 5098   0.939   3.337   2.315 -0.4426  0.9953 -2.8529
    1SOL    HW3 5099   0.860   3.213   2.351  0.9857  1.3553  1.7694
    1SOL    MW4 5100   0.922   3.252   2.304  0.0964  0.4847 -0.1538
    1SOL     OW 5101   0.916   3.510   2.370 -0.6918  0.3893  0.0471
    1SOL    HW2 5102   0.895   3.500   2.463 -2.1471 -2.1563 -0.5308
    1SOL    HW3 5103   0.833   3.538   2.330 -0.5738 -0.4563 -0.7883
    1SOL    MW4 5104   0.902   3.513   2.377 -0.8683 -0.0579 -0.1395
    1SOL     OW 5105   1.125   3.633   2.233  0.5368 -0.5628 -0.3625
    1SOL    HW2 5106   1.205   3.600   2.274 -0.5231 -1.0262  1.3872
    1SOL    HW3 5107   1.055   3.596   2.286 -0.7693  2.8775  0.4590
    1SOL    MW4 5108   1.127   3.624   2.246  0.2247 -0.1702 -0.0231
    1SOL     OW 5109   1.106   3.885   2.350  0.5165 -0.2609 -0.0377
    1SOL    HW2 5110   1.187   3.927   2.324 -0.1486 -0.1928 -2.1278
    1SOL    HW3 5111   1.113   3.795   2.316  0.3835 -0.7240  1.1437
    1SOL    MW4 5112   1.117   3.879   2.342  0.4110 -0.3130 -0.1576
    1SOL     OW 5113   0.901   4.013   2.224 -0.0965 -0.0370  0.4110
    1SOL    HW2 5114   0.976   3.968   2.262 -0.3927  0.8907  2.1307
    1SOL    HW3 5115   0.825   3.965   2.258 -0.3443  0.4613  0.5709
    1SOL    MW4 5116   0.901   4.000   2.234 -0.1683  0.1512  0.6588
    1SOL     OW 5117   0.889   4.281   2.373  0.3379 -0.4822  0.3338
    1SOL    HW2 5118   0.904   4.196   2.330  0.5755 -0.2051 -0.1361
    1SOL    HW3 5119   0.808   4.313   2.334  0.3258 -0.4300  0.4028
    1SOL    MW4 5120   0.880   4.274   2.362  0.3676 -0.4382  0.2809
    1SOL     OW 5121   1.133   4.418   2.264 -0.0957 -0.4764 -0.3694
    1SOL    HW2 5122   1.048   4.394   2.300 -0.2231  0.2644 -0.1712
    1SOL    HW3 5123   1.155   4.501   2.306  0.3245 -0.2219 -1.0732
    1SOL    MW4 5124   1.125   4.426   2.275 -0.0571 -0.3448 -0.4361
    1SOL     OW 5125   1.595   4.656   2.328  0.0752 -0.0717  0.0667
    1SOL    HW2 5126   1.676   4.702   2.308  0.2370 -0.3298  0.1245
    1SOL    HW3 5127   1.526   4.717   2.303  0.2765  1.1255  2.3428
    1SOL    MW4 5128   1.596   4.670   2.322  0.1231  0.0525  0.3748
    1SOL     OW 5129   1.362   0.161   2.228 -0.2870 -0.1708  0.2447
    1SOL    HW2 5130   1.360   0.239   2.283 -0.6577  0.8320 -1.1536
    1SOL    HW3 5131   1.303   0.100   2.271 -3.3753  1.8771 -0.8327
    1SOL    MW4 5132   1.354   0.164   2.241 -0.7433  0.2317 -0.0820
    1SOL     OW 5133   1.358   0.385   2.382 -0.1056 -0.6027  1.0153
    1SOL    HW2 5134   1.360   0.396   2.477  0.9327 -0.8169  1.0226
    1SOL    HW3 5135   1.431   0.437   2.350 -1.0457  0.2807  0.2337
    1SOL    MW4 5136   1.368   0.393   2.391 -0.0926 -0.5144  0.9131
    1SOL     OW 5137   1.558   0.521   2.247  0.1604  0.1353 -0.3069
    1SOL    HW2 5138   1.628   0.464   2.278 -1.1039 -1.0042  0.5834
    1SOL    HW3 5139   1.549   0.501   2.154 -0.0443 -0.8935 -0.0733
    1SOL    MW4 5140   1.566   0.511   2.239 -0.0334 -0.1509 -0.1585
    1SOL     OW 5141   1.569   0.767   2.362  0.3513 -0.0339  0.3480
    1SOL    HW2 5142   1.657   0.800   2.344  0.0949  0.1900 -0.5154
    1SOL    HW3 5143   1.566   0.682   2.317  0.4018 -0.4101  1.0575
    1SOL    MW4 5144   1.581   0.760   2.353  0.3242 -0.0539  0.3276
    1SOL     OW 5145   1.349   0.897   2.262 -0.0855 -0.0876  0.7700
    1SOL    HW2 5146   1.432   0.861   2.293 -0.3649 -1.5149 -0.0925
    1SOL    HW3 5147   1.282   0.841   2.302 -0.5825  0.2481  0.4157
    1SOL    MW4 5148   1.351   0.885   2.272 -0.1880 -0.2316  0.6096
    1SOL     OW 5149   1.361   1.129   2.392 -0.5046  0.0325 -0.0403
    1SOL    HW2 5150   1.364   1.125   2.488 -0.6827 -0.2936 -0.0453
    1SOL    HW3 5151   1.360   1.037   2.365  1.8011  0.0842 -0.4189
    1SOL    MW4 5152   1.361   1.116   2.401 -0.2239 -0.0037 -0.0908
    1SOL     OW 5153   1.564   1.296   2.282  0.0990  0.8232  0.7653
    1SOL    HW2 5154   1.500   1.239   2.326 -0.6552  0.8699 -0.2615
    1SOL    HW3 5155   1.542   1.289   2.189  1.8518  0.5115  0.3597
    1SOL    MW4 5156   1.552   1.287   2.276  0.2307  0.7882  0.5763
    1SOL     OW 5157   1.560   1.569   2.323 -0.2435 -0.1755 -0.0506
    1SOL    HW2 5158   1.642   1.603   2.287  0.0635 -0.2300  0.5812
    1SOL    HW3 5159   1.564   1.475   2.307  0.2131 -0.2972  0.7330
    1SOL    MW4 5160   1.571   1.561   2.316 -0.1427 -0.1987  0.1359
    1SOL     OW 5161   1.326   1.674   2.211 -0.1707 -0.3997  0.1848
    1SOL    HW2 5162   1.413   1.655   2.246  0.3017  0.4976 -0.4948
    1SOL    HW3 5163   1.267   1.626   2.269  0.6202  0.6774  1.9569
    1SOL    MW4 5164   1.330   1.665   2.223 -0.0041 -0.1392  0.3290
    1SOL     OW 5165   1.293   1.911   2.360 -0.6367 -0.1071  0.0868
    1SOL    HW2 5166   1.383   1.941   2.349  0.1761 -1.4706  2.5391
    1SOL    HW3 5167   1.285   1.836   2.301 -0.1085 -0.0820 -0.0185
    1SOL    MW4 5168   1.303   1.905   2.351 -0.4598 -0.2837  0.3965
    1SOL     OW 5169   1.547   2.023   2.309  0.5402 -0.2682  0.0624
    1SOL    HW2 5170   1.624   1.978   2.342 -0.0405 -0.7716  0.7522
    1SOL    HW3 5171   1.557   2.022   2.213  1.5911  0.0594  0.1622
    1SOL    MW4 5172   1.558   2.017   2.300  0.6024 -0.2913  0.1664
    1SOL     OW 5173   1.522   2.287   2.371 -0.3271 -0.2070 -0.0334
    1SOL    HW2 5174   1.521   2.290   2.467 -0.6911  0.3805 -0.0537
    1SOL    HW3 5175   1.518   2.193   2.350  0.9623 -0.3950  0.5321
    1SOL    MW4 5176   1.521   2.275   2.381 -0.2049 -0.1545  0.0386
    1SOL     OW 5177   1.307   2.433   2.260 -0.1446 -0.0499 -0.2282
    1SOL    HW2 5178   1.382   2.386   2.297 -0.4265 -0.5550 -0.3054
    1SOL    HW3 5179   1.331   2.448   2.168 -0.4983 -0.9539 -0.4703
    1SOL    MW4 5180   1.320   2.429   2.252 -0.2285 -0.2358 -0.2706
    1SOL     OW 5181   1.320   2.683   2.375 -0.4807  0.0519  0.3265
    1SOL    HW2 5182   1.399   2.707   2.327 -0.3774  1.3845  1.1394
    1SOL    HW3 5183   1.292   2.600   2.336  2.1486 -1.2060  1.0413
    1SOL    MW4 5184   1.327   2.675   2.363 -0.1202  0.0620  0.5281
    1SOL     OW 5185   1.569   2.797   2.254  0.3418 -0.3520  0.5107
    1SOL    HW2 5186   1.554   2.877   2.303  1.0171  0.7357 -1.0068
    1SOL    HW3 5187   1.546   2.820   2.164 -0.0205 -2.0373  0.1666
    1SOL    MW4 5188   1.564   2.811   2.248  0.3831 -0.4308  0.2651
    1SOL     OW 5189   1.552   3.045   2.378  0.8575  0.3195  0.0217
    1SOL    HW2 5190   1.561   3.056   2.473 -0.4043 -1.9112  0.4338
    1SOL    HW3 5191   1.481   3.104   2.354 -0.4229 -0.8490  0.8655
    1SOL    MW4 5192   1.544   3.055   2.388  0.5220 -0.1292  0.1872
    1SOL     OW 5193   1.343   3.221   2.278 -0.3530 -0.3795 -0.1110
    1SOL    HW2 5194   1.268   3.167   2.303  0.3105 -1.4141 -0.3540
    1SOL    HW3 5195   1.360   3.198   2.187  0.6080 -0.5411  0.1052
    1SOL    MW4 5196   1.335   3.211   2.269 -0.1385 -0.5372 -0.1144
    1SOL     OW 5197   1.341   3.496   2.359 -0.0634 -0.4408 -0.2190
    1SOL    HW2 5198   1.337   3.475   2.453 -1.9711 -0.2374 -0.2378
    1SOL    HW3 5199   1.349   3.411   2.316  0.6690 -0.5455  0.1178
    1SOL    MW4 5200   1.341   3.482   2.366 -0.2185 -0.4277 -0.1769
    1SOL     OW 5201   1.561   3.629   2.242 -0.3321 -0.1753 -0.0414
    1SOL    HW2 5202   1.561   3.718   2.278 -0.0693 -0.2049  0.0294
    1SOL    HW3 5203   1.492   3.584   2.290 -0.2914 -0.0833  0.1031
    1SOL    MW4 5204   1.552   3.635   2.253 -0.2922 -0.1671 -0.0129
    1SOL     OW 5205   1.580   3.877   2.369 -0.0210 -0.4785  0.0925
    1SOL    HW2 5206   1.591   3.867   2.464 -0.6115 -0.6875  0.1445
    1SOL    HW3 5207   1.656   3.927   2.341  0.6771 -1.2724  0.5320
    1SOL    MW4 5208   1.591   3.882   2.378 -0.0067 -0.6108  0.1574
    1SOL     OW 5209   1.351   4.007   2.270  0.0798 -0.4455 -0.3756
    1SOL    HW2 5210   1.411   3.946   2.312  1.2754  0.0301 -1.3487
    1SOL    HW3 5211   1.370   3.998   2.176 -1.2993 -0.2140 -0.6902
    1SOL    MW4 5212   1.362   3.998   2.263  0.0554 -0.3524 -0.5455
    1SOL     OW 5213   1.374   4.282   2.355 -0.0047 -0.2403  0.7862
    1SOL    HW2 5214   1.361   4.193   2.323  0.3948 -0.1438  0.3421
    1SOL    HW3 5215   1.303   4.333   2.315  1.5068  0.2258 -1.3917
    1SOL    MW4 5216   1.363   4.277   2.345  0.2475 -0.1664  0.4401
    1SOL     OW 5217   1.610   4.393   2.229 -0.3435  0.0130  0.2308
    1SOL    HW2 5218   1.532   4.349   2.262  0.1670 -0.4720  0.8072
    1SOL    HW3 5219   1.601   4.484   2.256 -1.0778  0.1210 -0.3735
    1SOL    MW4 5220   1.599   4.399   2.237 -0.3730 -0.0367  0.2270
    1SOL     OW 5221   2.021   4.660   2.363 -0.3464  0.0255  0.0521
    1SOL    HW2 5222   2.094   4.699   2.314 -0.9344  1.1277  0.0351
    1SOL    HW3 5223   2.010   4.573   2.325  0.5768  0.0666 -0.3400
    1SOL    MW4 5224   2.029   4.654   2.352 -0.3018  0.1764 -0.0019
    1SOL     OW 5225   1.807   0.138   2.263  0.3684 -0.1848 -0.4802
    1SOL    HW2 5226   1.804   0.227   2.298 -0.4980  0.3564 -1.9067
    1SOL    HW3 5227   1.890   0.102   2.296  0.3472  0.8680  0.7436
    1SOL    MW4 5228   1.818   0.145   2.272  0.2513  0.0256 -0.5071
    1SOL     OW 5229   1.779   0.383   2.354 -0.4341 -0.1993  0.0853
    1SOL    HW2 5230   1.781   0.401   2.448  0.1463  0.9881 -0.1495
    1SOL    HW3 5231   1.851   0.434   2.318 -1.7445  0.7636 -1.2400
    1SOL    MW4 5232   1.788   0.392   2.362 -0.5304  0.0844 -0.1204
    1SOL     OW 5233   2.038   0.500   2.250  0.2365  0.2144  0.2366
    1SOL    HW2 5234   2.040   0.586   2.292 -0.6825  0.4271 -0.1572
    1SOL    HW3 5235   2.024   0.519   2.157 -0.4212 -0.3810  0.2140
    1SOL    MW4 5236   2.037   0.514   2.243  0.0284  0.1639  0.1819
    1SOL     OW 5237   2.033   0.742   2.372 -0.6991  0.3913  0.2002
    1SOL    HW2 5238   2.112   0.787   2.342  0.7586 -2.4585 -0.4357
    1SOL    HW3 5239   2.037   0.748   2.468 -0.5445  1.5933  0.1247
    1SOL    MW4 5240   2.044   0.749   2.381 -0.4866  0.1740  0.1063
    1SOL     OW 5241   1.809   0.867   2.267  0.0292 -0.2089  0.2132
    1SOL    HW2 5242   1.796   0.952   2.309  0.0685 -1.1489  2.1852
    1SOL    HW3 5243   1.894   0.837   2.298  0.5415 -0.4572 -1.3895
    1SOL    MW4 5244   1.818   0.874   2.276  0.1019 -0.3657  0.2620
    1SOL     OW 5245   1.812   1.154   2.374 -0.1819  0.0798 -0.0684
    1SOL    HW2 5246   1.888   1.180   2.321  0.7178  0.8749  1.5780
    1SOL    HW3 5247   1.741   1.211   2.343 -0.0948 -0.5994 -1.5486
    1SOL    MW4 5248   1.813   1.165   2.363 -0.0515  0.0951 -0.0465
    1SOL     OW 5249   2.004   1.265   2.209 -0.6382 -0.2598  0.2526
    1SOL    HW2 5250   2.013   1.360   2.220 -0.2576 -0.0648 -1.5275
    1SOL    HW3 5251   2.091   1.231   2.232  0.1145  0.1299 -1.8362
    1SOL    MW4 5252   2.017   1.273   2.214 -0.4888 -0.1826 -0.2577
    1SOL     OW 5253   2.039   1.528   2.297 -0.1006 -0.2485 -0.0480
    1SOL    HW2 5254   2.058   1.509   2.389 -0.4363 -0.7684 -0.0852
    1SOL    HW3 5255   1.946   1.552   2.296 -0.1349 -0.3930 -0.2762
    1SOL    MW4 5256   2.029   1.529   2.309 -0.1495 -0.3362 -0.0832
    1SOL     OW 5257   1.795   1.651   2.230 -0.0623 -0.0129 -0.4632
    1SOL    HW2 5258   1.791   1.740   2.265 -1.9730 -0.2497 -0.0194
    1SOL    HW3 5259   1.771   1.660   2.138 -0.0573 -0.0376 -0.4666
    1SOL    MW4 5260   1.792   1.664   2.223 -0.3138 -0.0474 -0.4051
    1SOL     OW 5261   1.785   1.899   2.381  0.0423  0.0656  0.3194
    1SOL    HW2 5262   1.785   1.900   2.477 -0.0225 -0.2820  0.3223
    1SOL    HW3 5263   1.863   1.948   2.356 -0.3872  0.8842  0.5459
    1SOL    MW4 5264   1.795   1.906   2.390 -0.0230  0.1278  0.3495
    1SOL     OW 5265   2.025   2.046   2.249  0.3444  0.3468 -0.0587
    1SOL    HW2 5266   2.111   2.017   2.281 -0.4196 -1.4171  0.4308
    1SOL    HW3 5267   2.034   2.047   2.154  0.6853 -0.5494 -0.0395
    1SOL    MW4 5268   2.038   2.042   2.241  0.2885 -0.0043  0.0081
    1SOL     OW 5269   1.988   2.312   2.383  0.0420 -0.2967  0.0098
    1SOL    HW2 5270   2.055   2.359   2.333 -0.5485 -0.0448 -0.5495
    1SOL    HW3 5271   1.989   2.223   2.347  0.8641 -0.6051  0.7794
    1SOL    MW4 5272   1.997   2.306   2.372  0.0725 -0.3042  0.0372
    1SOL     OW 5273   1.757   2.415   2.272 -0.5446  0.1297  0.2124
    1SOL    HW2 5274   1.830   2.374   2.319 -0.2080  1.7672  1.1586
    1SOL    HW3 5275   1.679   2.372   2.304 -0.2416  0.6465  1.6641
    1SOL    MW4 5276   1.757   2.404   2.282 -0.4603  0.4139  0.5288
    1SOL     OW 5277   1.797   2.696   2.344  0.1573  0.3566 -0.2137
    1SOL    HW2 5278   1.792   2.602   2.325  1.4740  0.4470 -1.0839
    1SOL    HW3 5279   1.722   2.734   2.298 -0.2746 -0.2553 -0.0101
    1SOL    MW4 5280   1.787   2.689   2.335  0.2741  0.2878 -0.3016
    1SOL     OW 5281   2.042   2.794   2.253  0.2702 -0.2769 -0.2579
    1SOL    HW2 5282   2.110   2.759   2.310 -0.7483 -0.6385  0.7497
    1SOL    HW3 5283   1.961   2.754   2.284 -0.9323  2.8256  0.8893
    1SOL    MW4 5284   2.040   2.784   2.264 -0.0231  0.0846  0.0265
    1SOL     OW 5285   1.998   3.074   2.307  0.4702  0.0241 -0.1587
    1SOL    HW2 5286   2.079   3.114   2.277  0.5103 -0.8626 -1.2633
    1SOL    HW3 5287   2.008   2.981   2.285 -0.5164 -0.2259  0.4205
    1SOL    MW4 5288   2.010   3.067   2.300  0.3455 -0.1261 -0.2279
    1SOL     OW 5289   1.749   3.195   2.254 -0.0583 -0.1990  0.0626
    1SOL    HW2 5290   1.837   3.164   2.278  0.2826  2.0065  1.7739
    1SOL    HW3 5291   1.690   3.145   2.309  0.0989 -1.5977 -0.9970
    1SOL    MW4 5292   1.753   3.185   2.264  0.0074 -0.0925  0.1485
    1SOL     OW 5293   1.772   3.474   2.354 -0.1416  0.0517  0.0683
    1SOL    HW2 5294   1.763   3.391   2.307 -0.2988  0.5596 -0.7963
    1SOL    HW3 5295   1.695   3.524   2.329 -0.1493  0.3895  0.7508
    1SOL    MW4 5296   1.760   3.469   2.345 -0.1634  0.1631  0.0443
    1SOL     OW 5297   2.007   3.605   2.242  0.5630  0.0496 -0.0472
    1SOL    HW2 5298   1.928   3.564   2.278  0.1670  0.5041 -0.3891
    1SOL    HW3 5299   2.004   3.585   2.148  1.4401 -0.8828  0.1180
    1SOL    MW4 5300   1.996   3.597   2.234  0.6267 -0.0136 -0.0706
    1SOL     OW 5301   2.039   3.879   2.340  0.0056 -0.0539 -0.0863
    1SOL    HW2 5302   2.029   3.861   2.434 -2.5027 -1.8425 -0.6446
    1SOL    HW3 5303   2.048   3.793   2.300  1.0849  0.7035 -1.5076
    1SOL    MW4 5304   2.039   3.865   2.347 -0.1829 -0.1900 -0.3476
    1SOL     OW 5305   1.813   4.003   2.286  0.0271 -0.2520 -0.2399
    1SOL    HW2 5306   1.890   3.954   2.315  0.9895  1.3968  0.0347
    1SOL    HW3 5307   1.819   4.002   2.190  0.0729 -0.6132 -0.2347
    1SOL    MW4 5308   1.824   3.996   2.277  0.1602 -0.0820 -0.2034
    1SOL     OW 5309   1.817   4.270   2.378  0.0142 -0.4513 -0.0667
    1SOL    HW2 5310   1.797   4.183   2.341 -1.2221 -1.0140  1.8763
    1SOL    HW3 5311   1.753   4.328   2.337  0.5436 -0.5177 -1.0173
    1SOL    MW4 5312   1.806   4.266   2.367 -0.0792 -0.5345  0.0644
    1SOL     OW 5313   2.010   4.416   2.228 -0.4228 -0.3323  0.3103
    1SOL    HW2 5314   1.943   4.363   2.272 -0.5792  0.5332  1.1286
    1SOL    HW3 5315   1.995   4.400   2.135 -0.8692 -1.2376  0.5271
    1SOL    MW4 5316   1.999   4.407   2.221 -0.5023 -0.3371  0.4468
    1SOL     OW 5317   2.429   4.646   2.331  0.2589 -0.3986  0.0551
    1SOL    HW2 5318   2.506   4.686   2.293 -0.4713 -0.8985 -2.0216
    1SOL    HW3 5319   2.436   4.553   2.308  0.0768 -0.8261  1.6357
    1SOL    MW4 5320   2.440   4.639   2.323  0.1388 -0.5210 -0.0103
    1SOL     OW 5321   2.223   0.108   2.208 -0.0801 -0.4172 -0.0778
    1SOL    HW2 5322   2.240   0.188   2.257 -0.1193 -0.4889  0.0550
    1SOL    HW3 5323   2.301   0.054   2.224  0.0840 -0.2838 -0.4190
    1SOL    MW4 5324   2.236   0.111   2.217 -0.0637 -0.4091 -0.1051
    1SOL     OW 5325   2.258   0.347   2.334 -0.3336  0.4918  0.5508
    1SOL    HW2 5326   2.191   0.402   2.293 -0.2490  0.4905  0.4130
    1SOL    HW3 5327   2.339   0.398   2.327 -0.0494 -0.0860 -0.4818
    1SOL    MW4 5328   2.260   0.361   2.328 -0.2849  0.4154  0.3963
    1SOL     OW 5329   2.455   0.521   2.241 -0.2837 -0.3520 -0.2141
    1SOL    HW2 5330   2.538   0.484   2.273  0.7061  2.2301  0.3292
    1SOL    HW3 5331   2.452   0.496   2.149  1.1456 -0.4625 -0.2526
    1SOL    MW4 5332   2.466   0.513   2.233  0.0353 -0.0260 -0.1473
    1SOL     OW 5333   2.479   0.761   2.353  0.4716 -0.2323 -0.2559
    1SOL    HW2 5334   2.547   0.797   2.295  0.8193 -1.3795 -0.5686
    1SOL    HW3 5335   2.459   0.675   2.317  1.5022 -1.4561  1.9353
    1SOL    MW4 5336   2.486   0.755   2.341  0.6533 -0.5451 -0.0081
    1SOL     OW 5337   2.248   0.886   2.235  0.2708  0.4209  0.7011
    1SOL    HW2 5338   2.253   0.981   2.249  0.2456  0.4767  0.3303
    1SOL    HW3 5339   2.326   0.851   2.277  0.1067  0.5745  1.1317
    1SOL    MW4 5340   2.259   0.894   2.242  0.2458  0.4486  0.7088
    1SOL     OW 5341   2.241   1.177   2.318 -0.1664 -0.0955  0.4542
    1SOL    HW2 5342   2.322   1.227   2.306  0.2360 -0.9331 -0.4545
    1SOL    HW3 5343   2.240   1.156   2.411 -0.0604  1.1340  0.7313
    1SOL    MW4 5344   2.252   1.181   2.328 -0.0994 -0.0437  0.3707
    1SOL     OW 5345   2.465   1.316   2.260 -0.3609  0.3757  0.0227
    1SOL    HW2 5346   2.541   1.272   2.299 -0.6645 -0.3708 -0.2326
    1SOL    HW3 5347   2.471   1.406   2.292  0.5250  0.2719  0.1648
    1SOL    MW4 5348   2.476   1.322   2.269 -0.2842  0.2636  0.0076
    1SOL     OW 5349   2.468   1.583   2.361 -0.2139 -0.5018 -0.0359
    1SOL    HW2 5350   2.486   1.564   2.454  0.8821 -0.2452 -0.1897
    1SOL    HW3 5351   2.552   1.613   2.327 -0.2898 -1.8111 -1.4197
    1SOL    MW4 5352   2.481   1.584   2.369 -0.0794 -0.6406 -0.2387
    1SOL     OW 5353   2.227   1.707   2.221 -0.6337  0.3057  0.3068
    1SOL    HW2 5354   2.303   1.666   2.262  0.2107  0.6443 -0.8951
    1SOL    HW3 5355   2.153   1.651   2.244  0.1982 -0.7537  0.3812
    1SOL    MW4 5356   2.227   1.694   2.229 -0.4127  0.2106  0.1581
    1SOL     OW 5357   2.266   1.929   2.380  0.1027 -0.1060 -0.0214
    1SOL    HW2 5358   2.345   1.975   2.351 -0.5286  0.4573 -0.8464
    1SOL    HW3 5359   2.259   1.854   2.321  0.1530 -0.2980  0.2141
    1SOL    MW4 5360   2.276   1.925   2.368  0.0262 -0.0570 -0.0994
    1SOL     OW 5361   2.476   2.087   2.292  0.4406 -0.2150  0.2754
    1SOL    HW2 5362   2.563   2.050   2.311 -0.3962 -2.8421 -0.7627
    1SOL    HW3 5363   2.473   2.095   2.197 -0.4125 -0.0024  0.3124
    1SOL    MW4 5364   2.487   2.083   2.282  0.2174 -0.5336  0.1433
    1SOL     OW 5365   2.458   2.351   2.380 -0.0978  0.3075 -0.2688
    1SOL    HW2 5366   2.533   2.403   2.353  0.2776 -0.5855 -0.9976
    1SOL    HW3 5367   2.480   2.262   2.353 -2.1315  0.2860 -1.9954
    1SOL    MW4 5368   2.471   2.346   2.373 -0.3164  0.1867 -0.5927
    1SOL     OW 5369   2.211   2.444   2.269 -0.2011  0.0648  0.0859
    1SOL    HW2 5370   2.198   2.517   2.330  1.9004 -0.6637  1.4754
    1SOL    HW3 5371   2.293   2.404   2.298  0.1307 -1.1351 -2.4142
    1SOL    MW4 5372   2.220   2.449   2.281  0.1199 -0.1895 -0.0608
    1SOL     OW 5373   2.197   2.655   2.443 -0.1822  0.0821 -0.0864
    1SOL    HW2 5374   2.186   2.668   2.537  0.4969  1.0637 -0.1396
    1SOL    HW3 5375   2.280   2.699   2.422 -0.4951  0.1512 -1.1981
    1SOL    MW4 5376   2.207   2.663   2.453 -0.1340  0.2208 -0.2401
    1SOL     OW 5377   2.434   2.792   2.291 -0.3212  0.1093  0.0081
    1SOL    HW2 5378   2.523   2.759   2.311  0.2011  1.6538  0.2617
    1SOL    HW3 5379   2.444   2.839   2.209 -0.7279  1.0662  0.5094
    1SOL    MW4 5380   2.447   2.794   2.283 -0.3059  0.4392  0.1078
    1SOL     OW 5381   2.464   3.082   2.400 -0.4630  0.4016  0.2962
    1SOL    HW2 5382   2.544   3.118   2.361 -0.6233  1.0765  0.5760
    1SOL    HW3 5383   2.464   2.989   2.376 -0.0723  0.6066 -0.4951
    1SOL    MW4 5384   2.474   3.075   2.392 -0.4325  0.5178  0.2286
    1SOL     OW 5385   2.236   3.193   2.249  0.1704 -0.2622 -0.5872
    1SOL    HW2 5386   2.243   3.282   2.283  0.6597 -0.6742  0.4293
    1SOL    HW3 5387   2.314   3.149   2.283  0.0604 -1.0046 -1.2907
    1SOL    MW4 5388   2.247   3.199   2.258  0.2205 -0.4146 -0.5457
    1SOL     OW 5389   2.230   3.451   2.334  0.0873  0.2000  0.2101
    1SOL    HW2 5390   2.220   3.441   2.429 -1.7015 -0.3455 -0.0140
    1SOL    HW3 5391   2.149   3.493   2.306 -0.0540 -1.0449 -1.2867
    1SOL    MW4 5392   2.218   3.456   2.343 -0.1674 -0.0362 -0.0169
    1SOL     OW 5393   2.439   3.597   2.220 -0.4148 -0.6137 -0.1818
    1SOL    HW2 5394   2.435   3.681   2.264  0.0538 -0.8601  0.3472
    1SOL    HW3 5395   2.362   3.550   2.250 -1.4179  0.1286 -1.5447
    1SOL    MW4 5396   2.429   3.602   2.230 -0.4854 -0.5486 -0.2916
    1SOL     OW 5397   2.468   3.873   2.317 -0.2269 -0.5671 -0.3262
    1SOL    HW2 5398   2.458   3.857   2.411  0.4439 -0.9568 -0.3218
    1SOL    HW3 5399   2.415   3.951   2.300  0.0107 -0.2322  0.4564
    1SOL    MW4 5400   2.459   3.881   2.327 -0.1070 -0.5744 -0.2224
    1SOL     OW 5401   2.252   4.043   2.274 -0.1626 -0.2093  0.0583
    1SOL    HW2 5402   2.232   4.125   2.319 -0.3788  0.5176 -1.3482
    1SOL    HW3 5403   2.186   3.982   2.306 -1.2559  0.7116 -0.4260
    1SOL    MW4 5404   2.241   4.046   2.284 -0.3355  0.0086 -0.1910
    1SOL     OW 5405   2.211   4.299   2.371 -0.4103 -0.2344  0.1375
    1SOL    HW2 5406   2.198   4.301   2.465 -0.1276 -0.9072  0.1984
    1SOL    HW3 5407   2.142   4.355   2.335 -0.7250 -0.2492  0.7224
    1SOL    MW4 5408   2.200   4.306   2.378 -0.4144 -0.3252  0.2227
    1SOL     OW 5409   2.436   4.377   2.222 -0.4501 -0.3943 -0.5626
    1SOL    HW2 5410   2.514   4.324   2.237 -1.3279 -2.0788 -1.7034
    1SOL    HW3 5411   2.368   4.335   2.274 -0.8553  0.4348 -0.4139
    1SOL    MW4 5412   2.437   4.365   2.231 -0.6192 -0.5069 -0.6938
    1SOL     OW 5413   2.932   4.666   2.320  0.2025 -0.1059 -0.0208
    1SOL    HW2 5414   3.021   4.696   2.303 -0.4370  0.8318 -1.7961
    1SOL    HW3 5415   2.928   4.578   2.283  0.1866  0.1199 -0.5536
    1SOL    MW4 5416   2.943   4.659   2.313  0.1161  0.0482 -0.3254
    1SOL     OW 5417   2.683   0.106   2.221  0.2298 -0.3094 -0.0055
    1SOL    HW2 5418   2.676   0.190   2.267  1.0566 -0.0470 -0.3431
    1SOL    HW3 5419   2.763   0.067   2.254 -0.8398 -1.5917  1.1281
    1SOL    MW4 5420   2.692   0.112   2.231  0.1976 -0.4440  0.0997
    1SOL     OW 5421   2.679   0.363   2.323 -0.0700 -0.3237 -0.0030
    1SOL    HW2 5422   2.702   0.367   2.416 -1.9219  0.4756  0.4483
    1SOL    HW3 5423   2.752   0.405   2.278  1.0481 -1.1194  1.0439
    1SOL    MW4 5424   2.692   0.369   2.329 -0.1667 -0.3233  0.1945
    1SOL     OW 5425   2.892   0.515   2.234 -0.0983  0.2037  0.6642
    1SOL    HW2 5426   2.896   0.605   2.264 -0.3366  1.0833 -1.8231
    1SOL    HW3 5427   2.916   0.519   2.142 -0.8346 -2.1701  0.3273
    1SOL    MW4 5428   2.895   0.527   2.226 -0.2270  0.0066  0.2916
    1SOL     OW 5429   2.919   0.764   2.348  0.1262  0.1541 -0.0288
    1SOL    HW2 5430   2.918   0.763   2.444  2.4426  1.4809  0.0226
    1SOL    HW3 5431   2.835   0.804   2.324 -0.2462  0.2816  1.4219
    1SOL    MW4 5432   2.908   0.769   2.357  0.3829  0.3460  0.1693
    1SOL     OW 5433   2.700   0.901   2.255  0.2355 -0.2822 -0.2378
    1SOL    HW2 5434   2.700   0.992   2.284 -0.9932 -0.7170  1.1465
    1SOL    HW3 5435   2.713   0.906   2.160 -0.2255  1.3359 -0.2225
    1SOL    MW4 5436   2.702   0.913   2.246  0.0124 -0.1261 -0.0529
    1SOL     OW 5437   2.702   1.170   2.335 -0.1051  0.4562  0.5496
    1SOL    HW2 5438   2.703   1.173   2.430  2.0751 -0.9420  0.6215
    1SOL    HW3 5439   2.770   1.232   2.308 -0.0183  0.1098 -0.0454
    1SOL    MW4 5440   2.711   1.178   2.344  0.1941  0.2261  0.4807
    1SOL     OW 5441   2.918   1.301   2.245 -0.5167  0.2009  0.6599
    1SOL    HW2 5442   2.999   1.260   2.273 -0.1352  1.6910  1.7840
    1SOL    HW3 5443   2.923   1.302   2.149  0.6831  0.1008  0.7219
    1SOL    MW4 5444   2.929   1.296   2.236 -0.3080  0.3843  0.8166
    1SOL     OW 5445   2.919   1.566   2.364 -0.1274  0.2701 -0.0249
    1SOL    HW2 5446   2.936   1.551   2.457 -0.9593 -0.2250  0.0614
    1SOL    HW3 5447   2.920   1.478   2.326 -0.6448  0.3921 -0.3243
    1SOL    MW4 5448   2.921   1.552   2.371 -0.3054  0.2209 -0.0529
    1SOL     OW 5449   2.691   1.699   2.233 -0.2065 -0.0541 -0.0014
    1SOL    HW2 5450   2.766   1.649   2.265  0.0669 -0.3347 -1.0351
    1SOL    HW3 5451   2.698   1.693   2.137 -1.1053  0.5774 -0.1139
    1SOL    MW4 5452   2.702   1.692   2.224 -0.2892 -0.0077 -0.1526
    1SOL     OW 5453   2.724   1.956   2.356 -0.0521 -0.4259 -0.7554
    1SOL    HW2 5454   2.706   1.948   2.449 -1.4570  0.4473 -0.9250
    1SOL    HW3 5455   2.693   1.874   2.318 -1.4453  0.0468 -0.7010
    1SOL    MW4 5456   2.717   1.944   2.363 -0.4213 -0.2483 -0.7708
    1SOL     OW 5457   2.926   2.083   2.211 -0.5582  0.0356 -0.2771
    1SOL    HW2 5458   2.986   2.040   2.273 -0.4411  0.6639  0.0547
    1SOL    HW3 5459   2.839   2.055   2.239 -0.4100 -1.1160 -0.9406
    1SOL    MW4 5460   2.923   2.073   2.223 -0.5233 -0.0331 -0.3209
    1SOL     OW 5461   2.942   2.310   2.360 -0.5437  0.4280  0.1023
    1SOL    HW2 5462   2.928   2.282   2.451  0.7062  2.2244  0.8780
    1SOL    HW3 5463   2.952   2.228   2.311  0.0104 -0.5496  1.8066
    1SOL    MW4 5464   2.942   2.295   2.366 -0.3059  0.5362  0.4294
    1SOL     OW 5465   2.710   2.449   2.291 -0.2966  0.1683  0.0537
    1SOL    HW2 5466   2.789   2.400   2.315  0.1390  0.8380 -0.0091
    1SOL    HW3 5467   2.700   2.434   2.197  0.8423  1.6276 -0.3190
    1SOL    MW4 5468   2.719   2.440   2.281 -0.0889  0.4489 -0.0041
    1SOL     OW 5469   2.678   2.709   2.378 -0.3042  0.5296  0.1453
    1SOL    HW2 5470   2.732   2.761   2.319 -0.4177  0.6496  0.1476
    1SOL    HW3 5471   2.676   2.622   2.338 -1.3048  0.8986 -0.6297
    1SOL    MW4 5472   2.685   2.704   2.365 -0.4511  0.5939  0.0434
    1SOL     OW 5473   2.910   2.837   2.267  0.6057  0.3046  0.5484
    1SOL    HW2 5474   2.918   2.927   2.298  0.3807  0.3486  0.4827
    1SOL    HW3 5475   2.925   2.842   2.173  0.2089  0.3327  0.4842
    1SOL    MW4 5476   2.913   2.849   2.259  0.5240  0.3140  0.5314
    1SOL     OW 5477   2.930   3.107   2.352 -0.0111 -0.3284 -0.1577
    1SOL    HW2 5478   2.926   3.114   2.447 -0.7626 -0.9231 -0.1354
    1SOL    HW3 5479   2.851   3.152   2.322  0.1783 -0.2221 -0.4934
    1SOL    MW4 5480   2.919   3.114   2.361 -0.0854 -0.3929 -0.1991
    1SOL     OW 5481   2.690   3.214   2.274 -0.1500  0.4907  0.1699
    1SOL    HW2 5482   2.696   3.307   2.294 -1.8618  0.5349  0.6161
    1SOL    HW3 5483   2.677   3.210   2.180 -0.2260  0.7204  0.1700
    1SOL    MW4 5484   2.689   3.226   2.265 -0.3858  0.5267  0.2286
    1SOL     OW 5485   2.685   3.490   2.332 -0.3386 -0.1212 -0.0999
    1SOL    HW2 5486   2.750   3.555   2.305 -0.1999 -0.6314 -1.0037
    1SOL    HW3 5487   2.602   3.523   2.298  0.0097 -1.3677 -2.2390
    1SOL    MW4 5488   2.682   3.503   2.324 -0.2744 -0.3529 -0.5012
    1SOL     OW 5489   2.907   3.644   2.240 -0.1486  0.0273  0.0389
    1SOL    HW2 5490   2.975   3.603   2.294  2.5039  1.9328 -1.6967
    1SOL    HW3 5491   2.912   3.737   2.261 -1.3167  0.3653 -1.0815
    1SOL    MW4 5492   2.917   3.651   2.250  0.0472  0.3233 -0.3381
    1SOL     OW 5493   2.929   3.901   2.327  0.0677 -0.0689 -0.2504
    1SOL    HW2 5494   2.936   3.915   2.421  0.5212 -2.4332  0.1017
    1SOL    HW3 5495   2.841   3.932   2.305 -0.0254  0.5322  0.9350
    1SOL    MW4 5496   2.918   3.907   2.336  0.1152 -0.3016 -0.0477
    1SOL     OW 5497   2.680   4.002   2.221  0.1106 -0.5558 -0.0515
    1SOL    HW2 5498   2.604   3.954   2.253 -0.9620 -0.2359 -2.0374
    1SOL    HW3 5499   2.662   4.017   2.128  1.9989  0.6726 -0.2557
    1SOL    MW4 5500   2.667   3.998   2.213  0.2182 -0.3514 -0.3405
    1SOL     OW 5501   2.668   4.262   2.326 -0.0330 -0.1798 -0.1842
    1SOL    HW2 5502   2.683   4.254   2.421 -1.0032  0.9808  0.0828
    1SOL    HW3 5503   2.666   4.171   2.295  2.1722 -0.5178  0.5865
    1SOL    MW4 5504   2.670   4.249   2.335  0.1302 -0.0710 -0.0474
    1SOL     OW 5505   2.905   4.401   2.239  0.3641  0.2629  0.2633
    1SOL    HW2 5506   2.972   4.346   2.279  0.4340  0.0598 -0.1279
    1SOL    HW3 5507   2.822   4.357   2.257  0.3414  0.4764  0.6834
    1SOL    MW4 5508   2.903   4.388   2.247  0.3705  0.2646  0.2670
    1SOL     OW 5509   3.348   4.653   2.403  0.4665 -0.1550  0.2319
    1SOL    HW2 5510   3.347   4.657   2.499 -0.0269  0.4907  0.2044
    1SOL    HW3 5511   3.437   4.680   2.379 -0.1550  2.2202  0.4255
    1SOL    MW4 5512   3.360   4.657   2.412  0.3195  0.2437  0.2537
    1SOL     OW 5513   3.185   0.121   2.214 -0.2682 -0.1516 -0.3945
    1SOL    HW2 5514   3.160   0.206   2.249 -1.6779 -0.5957 -0.2750
    1SOL    HW3 5515   3.251   0.088   2.276  0.8765  1.1740 -0.8842
    1SOL    MW4 5516   3.191   0.128   2.227 -0.3028 -0.0353 -0.4430
    1SOL     OW 5517   3.128   0.372   2.334 -0.0475  0.5087 -0.2175
    1SOL    HW2 5518   3.208   0.417   2.307  0.6783  0.5407  1.8485
    1SOL    HW3 5519   3.057   0.420   2.290  1.1376 -0.7103 -3.6176
    1SOL    MW4 5520   3.129   0.385   2.325  0.2046  0.3521 -0.3934
    1SOL     OW 5521   3.365   0.496   2.268 -0.6434 -0.4203 -0.0348
    1SOL    HW2 5522   3.444   0.456   2.304 -0.2166 -0.4332 -0.9942
    1SOL    HW3 5523   3.378   0.495   2.173 -0.5945  2.0551 -0.0752
    1SOL    MW4 5524   3.377   0.490   2.260 -0.5805 -0.0954 -0.1671
    1SOL     OW 5525   3.373   0.781   2.371 -0.3259  0.0639  0.3846
    1SOL    HW2 5526   3.451   0.832   2.347 -0.9012 -0.0846 -1.9451
    1SOL    HW3 5527   3.391   0.693   2.336 -0.3027 -0.7515  2.4016
    1SOL    MW4 5528   3.386   0.776   2.363 -0.3986 -0.0633  0.3433
    1SOL     OW 5529   3.142   0.910   2.276 -0.2066  0.3596  0.2904
    1SOL    HW2 5530   3.215   0.857   2.308 -0.0642  0.4617  0.1354
    1SOL    HW3 5531   3.063   0.863   2.305 -0.1079 -1.1753 -1.8401
    1SOL    MW4 5532   3.141   0.897   2.284 -0.1748  0.1705 -0.0110
    1SOL     OW 5533   3.133   1.175   2.348 -0.7090 -0.1834 -0.1470
    1SOL    HW2 5534   3.219   1.205   2.320 -0.5560 -1.0817 -0.6651
    1SOL    HW3 5535   3.130   1.082   2.323 -1.5731 -0.3267  0.4522
    1SOL    MW4 5536   3.144   1.167   2.341 -0.8030 -0.3208 -0.1361
    1SOL     OW 5537   3.360   1.293   2.244 -0.0070  0.7794 -0.3855
    1SOL    HW2 5538   3.442   1.253   2.271  0.2182  1.2020 -0.4367
    1SOL    HW3 5539   3.373   1.387   2.257 -0.6288  0.8195  0.0105
    1SOL    MW4 5540   3.372   1.300   2.249 -0.0594  0.8404 -0.3400
    1SOL     OW 5541   3.355   1.563   2.330  0.2913 -0.3692  0.3274
    1SOL    HW2 5542   3.352   1.555   2.426  1.1817  2.5031  0.6410
    1SOL    HW3 5543   3.293   1.633   2.310 -0.8422 -1.8225 -1.3333
    1SOL    MW4 5544   3.346   1.571   2.340  0.2594 -0.1819  0.1500
    1SOL     OW 5545   3.135   1.734   2.290  0.1196 -0.4491 -0.0210
    1SOL    HW2 5546   3.115   1.816   2.336  0.5051 -0.2030 -0.2842
    1SOL    HW3 5547   3.069   1.672   2.321 -0.9181  0.2921 -0.7509
    1SOL    MW4 5548   3.124   1.737   2.300  0.0331 -0.3189 -0.1521
    1SOL     OW 5549   3.111   2.002   2.390  0.0721  0.2233  0.4251
    1SOL    HW2 5550   3.133   1.981   2.481 -0.4075 -2.1435  0.0433
    1SOL    HW3 5551   3.195   2.025   2.350  0.5712 -0.4562  1.0591
    1SOL    MW4 5552   3.125   2.002   2.397  0.0746 -0.1788  0.4585
    1SOL     OW 5553   3.344   2.107   2.252  0.1118  0.6034 -0.1833
    1SOL    HW2 5554   3.421   2.063   2.288 -1.3372 -1.9008  0.0512
    1SOL    HW3 5555   3.344   2.082   2.160 -0.9117 -0.1735  0.0234
    1SOL    MW4 5556   3.354   2.098   2.245 -0.2146  0.1707 -0.1254
    1SOL     OW 5557   3.370   2.360   2.346  0.2399 -0.0990  1.0131
    1SOL    HW2 5558   3.292   2.403   2.312  0.6051  1.8741  2.6047
    1SOL    HW3 5559   3.369   2.273   2.305 -0.8758  1.1489 -1.7247
    1SOL    MW4 5560   3.360   2.354   2.336  0.1409  0.3262  0.8616
    1SOL     OW 5561   3.122   2.467   2.229  0.5304 -0.2322  0.1536
    1SOL    HW2 5562   3.135   2.555   2.265 -0.4937  0.8683 -2.0688
    1SOL    HW3 5563   3.056   2.428   2.287 -0.3156  1.1173  0.1288
    1SOL    MW4 5564   3.115   2.474   2.241  0.2837  0.0911 -0.1431
    1SOL     OW 5565   3.163   2.720   2.345 -0.1714  0.2159 -0.1830
    1SOL    HW2 5566   3.155   2.702   2.438  2.4479  1.4761  0.3297
    1SOL    HW3 5567   3.089   2.779   2.325  1.0756  2.5424  1.8215
    1SOL    MW4 5568   3.152   2.726   2.355  0.3388  0.6890  0.1488
    1SOL     OW 5569   3.400   2.830   2.210  0.3132  0.3159  0.3016
    1SOL    HW2 5570   3.410   2.903   2.271 -1.0316  1.2023 -0.5329
    1SOL    HW3 5571   3.323   2.783   2.241 -0.0401  0.4389 -0.3912
    1SOL    MW4 5572   3.391   2.833   2.222  0.0889  0.4489  0.1001
    1SOL     OW 5573   3.369   3.113   2.319 -0.1429  0.3878  0.1398
    1SOL    HW2 5574   3.436   3.176   2.292  0.3478  0.4783  1.5196
    1SOL    HW3 5575   3.287   3.162   2.317 -0.2144  0.2264 -1.7368
    1SOL    MW4 5576   3.367   3.128   2.315 -0.0875  0.3786  0.0739
    1SOL     OW 5577   3.139   3.264   2.268  0.3283 -0.1119  0.3023
    1SOL    HW2 5578   3.124   3.356   2.286  0.2117 -0.0043 -0.3193
    1SOL    HW3 5579   3.063   3.219   2.305  0.6761 -0.0225  1.1353
    1SOL    MW4 5580   3.127   3.270   2.275  0.3586 -0.0858  0.3302
    1SOL     OW 5581   3.134   3.518   2.338  0.1563  0.0356 -0.1626
    1SOL    HW2 5582   3.137   3.523   2.434  0.4793  0.0755 -0.1760
    1SOL    HW3 5583   3.214   3.560   2.309  0.4376 -0.6812 -0.4288
    1SOL    MW4 5584   3.145   3.524   2.347  0.2360 -0.0539 -0.1996
    1SOL     OW 5585   3.346   3.650   2.248 -0.1315  0.0005 -0.4529
    1SOL    HW2 5586   3.430   3.623   2.286  0.1043  2.1360  0.5723
    1SOL    HW3 5587   3.359   3.639   2.153  0.5863 -1.6407 -0.1885
    1SOL    MW4 5588   3.359   3.645   2.240 -0.0057  0.0656 -0.2828
    1SOL     OW 5589   3.341   3.916   2.331  0.1805 -0.8891  0.1046
    1SOL    HW2 5590   3.420   3.957   2.297  0.6007 -1.5111  0.3393
    1SOL    HW3 5591   3.346   3.825   2.302  0.3309 -1.3209  1.4430
    1SOL    MW4 5592   3.352   3.910   2.323  0.2556 -1.0283  0.3121
    1SOL     OW 5593   3.143   4.031   2.189  0.2049  0.0077 -0.1753
    1SOL    HW2 5594   3.225   3.989   2.214  0.3710  1.3002  1.5604
    1SOL    HW3 5595   3.076   3.979   2.232  0.1773 -0.4648 -0.7865
    1SOL    MW4 5596   3.145   4.019   2.198  0.2234  0.1163 -0.0269
    1SOL     OW 5597   3.108   4.263   2.353 -0.3357 -0.3973  0.3275
    1SOL    HW2 5598   3.171   4.315   2.303 -2.3516  1.1585 -0.6688
    1SOL    HW3 5599   3.102   4.180   2.305 -0.7721  0.3449 -0.9420
    1SOL    MW4 5600   3.115   4.259   2.340 -0.6592 -0.0939  0.0281
    1SOL     OW 5601   3.333   4.406   2.264 -0.3986  0.2745  0.0982
    1SOL    HW2 5602   3.316   4.495   2.295 -1.1770  0.4671 -0.8420
    1SOL    HW3 5603   3.359   4.417   2.173 -1.4705 -0.5243 -0.3210
    1SOL    MW4 5604   3.334   4.419   2.256 -0.6428  0.1941 -0.0811
    1SOL     OW 5605   3.806   0.014   2.362 -0.2076  0.3201  0.2860
    1SOL    HW2 5606   3.796   0.024   2.456 -1.3182  1.4714  0.0596
    1SOL    HW3 5607   3.894   0.046   2.343 -0.0340  0.2171  0.9065
    1SOL    MW4 5608   3.816   0.019   2.372 -0.3314  0.4587  0.3383
    1SOL     OW 5609   3.560   0.097   2.270 -0.4040 -0.1764 -0.2097
    1SOL    HW2 5610   3.557   0.187   2.303 -0.5133  0.7689 -2.6847
    1SOL    HW3 5611   3.647   0.066   2.292 -0.0095  0.8998 -0.2291
    1SOL    MW4 5612   3.571   0.105   2.277 -0.3664  0.0903 -0.5386
    1SOL     OW 5613   3.605   0.369   2.352  0.1337 -0.2347  0.0791
    1SOL    HW2 5614   3.601   0.377   2.447  0.7086  1.0574  0.0044
    1SOL    HW3 5615   3.678   0.425   2.326 -1.7500  1.6058 -1.3699
    1SOL    MW4 5616   3.614   0.377   2.361 -0.0389  0.1786 -0.1216
    1SOL     OW 5617   3.827   0.536   2.272 -0.0218 -0.1716 -0.4301
    1SOL    HW2 5618   3.833   0.628   2.299  1.1270 -0.2562 -0.3668
    1SOL    HW3 5619   3.822   0.539   2.177 -0.4338 -0.0242 -0.4041
    1SOL    MW4 5620   3.827   0.549   2.263  0.0753 -0.1633 -0.4184
    1SOL     OW 5621   3.835   0.800   2.369 -0.2352 -0.0129  0.2078
    1SOL    HW2 5622   3.836   0.786   2.464  0.8746  0.0014  0.2071
    1SOL    HW3 5623   3.921   0.839   2.350 -0.5912  0.3133 -0.7518
    1SOL    MW4 5624   3.847   0.803   2.379 -0.1357  0.0319  0.0811
    1SOL     OW 5625   3.591   0.911   2.292  0.1245 -0.1151  0.1529
    1SOL    HW2 5626   3.679   0.878   2.308  0.0417 -0.8202 -0.7921
    1SOL    HW3 5627   3.588   0.927   2.198 -1.3313 -1.7984 -0.1157
    1SOL    MW4 5628   3.602   0.909   2.282 -0.0784 -0.4302 -0.0072
    1SOL     OW 5629   3.598   1.189   2.364  0.4934  0.1524  0.2857
    1SOL    HW2 5630   3.601   1.196   2.460  1.1192  0.5146  0.2380
    1SOL    HW3 5631   3.608   1.095   2.347 -1.1381 -0.1037  0.6316
    1SOL    MW4 5632   3.600   1.178   2.375  0.3607  0.1664  0.3250
    1SOL     OW 5633   3.776   1.332   2.239  0.9139  0.2967 -0.3533
    1SOL    HW2 5634   3.772   1.417   2.282  1.0020  0.3748 -0.4990
    1SOL    HW3 5635   3.713   1.277   2.287  0.9366  0.4117 -0.1923
    1SOL    MW4 5636   3.767   1.336   2.251  0.9282  0.3222 -0.3514
    1SOL     OW 5637   3.793   1.571   2.386 -0.1167  0.0673  0.1735
    1SOL    HW2 5638   3.779   1.578   2.480  1.4187  0.6385  0.3737
    1SOL    HW3 5639   3.717   1.615   2.347 -0.1599  0.8812  1.1652
    1SOL    MW4 5640   3.781   1.578   2.393  0.0803  0.2500  0.3309
    1SOL     OW 5641   3.586   1.691   2.243 -0.0356 -0.5232  0.2594
    1SOL    HW2 5642   3.503   1.647   2.260  0.0361 -0.5436  0.5553
    1SOL    HW3 5643   3.588   1.701   2.148 -0.4379 -0.4066  0.2602
    1SOL    MW4 5644   3.575   1.687   2.233 -0.0794 -0.5106  0.2987
    1SOL     OW 5645   3.573   1.976   2.328 -0.4716 -0.2868  0.1205
    1SOL    HW2 5646   3.635   2.020   2.271 -1.0049 -0.2566 -0.4470
    1SOL    HW3 5647   3.576   1.884   2.300  0.9031 -0.6956  1.5378
    1SOL    MW4 5648   3.582   1.969   2.317 -0.3607 -0.3369  0.2325
    1SOL     OW 5649   3.800   2.086   2.208  0.7878 -0.2028  0.2967
    1SOL    HW2 5650   3.877   2.040   2.243  2.3456  0.8293 -1.6764
    1SOL    HW3 5651   3.821   2.100   2.116 -0.6200  2.4971  0.3690
    1SOL    MW4 5652   3.813   2.081   2.201  0.8075  0.2894  0.0460
    1SOL     OW 5653   3.811   2.310   2.358 -0.3234 -0.0499 -0.2242
    1SOL    HW2 5654   3.749   2.370   2.316  0.0221 -1.0906 -2.2931
    1SOL    HW3 5655   3.811   2.233   2.301  0.5585 -1.3046  1.4479
    1SOL    MW4 5656   3.803   2.308   2.345 -0.1614 -0.3529 -0.2768
    1SOL     OW 5657   3.624   2.468   2.244 -0.3433  0.1793 -0.2435
    1SOL    HW2 5658   3.543   2.425   2.272 -0.1789  0.3764  0.5418
    1SOL    HW3 5659   3.621   2.465   2.148 -1.1149 -0.1210 -0.2115
    1SOL    MW4 5660   3.613   2.462   2.235 -0.4234  0.1657 -0.1357
    1SOL     OW 5661   3.614   2.703   2.369 -0.1738  0.1034  0.1000
    1SOL    HW2 5662   3.626   2.612   2.343  1.7644  1.0198 -2.3271
    1SOL    HW3 5663   3.549   2.737   2.309 -0.0269  0.6377  0.2416
    1SOL    MW4 5664   3.607   2.695   2.358  0.1013  0.2949 -0.2012
    1SOL     OW 5665   3.819   2.877   2.305  0.5390  0.0491 -0.4568
    1SOL    HW2 5666   3.793   2.966   2.329  0.3243 -0.4252  1.1241
    1SOL    HW3 5667   3.741   2.824   2.319  1.1442 -0.6742  0.2358
    1SOL    MW4 5668   3.806   2.881   2.310  0.5906 -0.1090 -0.1566
    1SOL     OW 5669   3.768   3.127   2.407  0.2215 -0.0462 -0.3961
    1SOL    HW2 5670   3.770   3.146   2.501 -0.9725 -1.6018 -0.0224
    1SOL    HW3 5671   3.844   3.172   2.371  0.8547  0.3209  1.3649
    1SOL    MW4 5672   3.778   3.136   2.415  0.1476 -0.2031 -0.1147
    1SOL     OW 5673   3.583   3.301   2.235  0.0661  0.5823 -0.0667
    1SOL    HW2 5674   3.599   3.392   2.259  1.8159  0.0684  0.7556
    1SOL    HW3 5675   3.641   3.250   2.292 -2.1989 -1.1676  0.7238
    1SOL    MW4 5676   3.593   3.307   2.245 -0.0019  0.2837  0.1462
    1SOL     OW 5677   3.582   3.551   2.340  0.1111 -0.1135  0.1650
    1SOL    HW2 5678   3.585   3.528   2.433 -0.5727  0.1130  0.2446
    1SOL    HW3 5679   3.668   3.589   2.322  0.5952 -1.0366  0.4765
    1SOL    MW4 5680   3.593   3.553   2.350  0.0849 -0.2053  0.2165
    1SOL     OW 5681   3.844   3.638   2.270 -0.1712 -0.2586  0.1129
    1SOL    HW2 5682   3.826   3.727   2.303 -0.5908 -0.2278 -0.2083
    1SOL    HW3 5683   3.825   3.643   2.177  0.0947 -0.6120  0.0417
    1SOL    MW4 5684   3.839   3.651   2.262 -0.1915 -0.3014  0.0613
    1SOL     OW 5685   3.783   3.891   2.344 -0.4557  0.1625  0.0646
    1SOL    HW2 5686   3.772   3.899   2.439  0.1981  1.6285  0.0176
    1SOL    HW3 5687   3.863   3.939   2.325 -1.6456  1.5836 -1.4924
    1SOL    MW4 5688   3.792   3.898   2.354 -0.5267  0.5434 -0.1471
    1SOL     OW 5689   3.590   4.034   2.205 -0.2683 -0.2150 -0.1088
    1SOL    HW2 5690   3.585   4.117   2.253  0.5307  0.9023 -1.8891
    1SOL    HW3 5691   3.647   3.979   2.258  1.1403  1.2297 -0.0645
    1SOL    MW4 5692   3.597   4.038   2.218  0.0231  0.1230 -0.3376
    1SOL     OW 5693   3.566   4.280   2.335 -0.0305 -0.1894 -0.0200
    1SOL    HW2 5694   3.622   4.343   2.289  0.8300 -0.7805  0.1912
    1SOL    HW3 5695   3.478   4.315   2.326  0.2007  0.0266 -1.5755
    1SOL    MW4 5696   3.562   4.293   2.328  0.1135 -0.2384 -0.1974
    1SOL     OW 5697   3.765   4.429   2.214  0.0057  0.0451  0.3403
    1SOL    HW2 5698   3.833   4.378   2.259  1.2177  0.5747 -0.8640
    1SOL    HW3 5699   3.762   4.512   2.261 -0.2680 -0.2122  0.7864
    1SOL    MW4 5700   3.773   4.433   2.227  0.1295  0.0815  0.2401
    1SOL     OW 5701   4.231   4.658   2.396 -0.2653 -0.0215  0.0045
    1SOL    HW2 5702   4.258   4.667   2.487 -0.2462  1.0905 -0.1112
    1SOL    HW3 5703   4.306   4.689   2.345  0.1328 -1.6309 -0.4219
    1SOL    MW4 5704   4.245   4.663   2.401 -0.2098 -0.0868 -0.0672
    1SOL     OW 5705   4.043   0.139   2.252  0.2032  0.1843 -0.7970
    1SOL    HW2 5706   4.037   0.220   2.302  0.3094 -0.8590  0.9337
    1SOL    HW3 5707   4.111   0.088   2.295 -0.3334 -1.1109 -1.4357
    1SOL    MW4 5708   4.051   0.143   2.264  0.1459 -0.1242 -0.6528
    1SOL     OW 5709   4.043   0.389   2.381 -0.3376 -0.0362  0.2430
    1SOL    HW2 5710   4.110   0.448   2.349  0.4145 -0.2640  1.3980
    1SOL    HW3 5711   3.960   0.428   2.351  0.2717  0.4018 -0.9038
    1SOL    MW4 5712   4.041   0.402   2.373 -0.1578 -0.0085  0.2441
    1SOL     OW 5713   4.238   0.544   2.287  0.0614 -0.2862  0.2378
    1SOL    HW2 5714   4.255   0.634   2.315  1.3950 -0.0168 -1.3809
    1SOL    HW3 5715   4.311   0.494   2.323 -0.2509 -0.5744  0.4629
    1SOL    MW4 5716   4.250   0.550   2.295  0.1960 -0.2887  0.0541
    1SOL     OW 5717   4.300   0.791   2.396  0.0604 -0.3058 -0.0087
    1SOL    HW2 5718   4.227   0.845   2.365 -0.5345 -1.2454 -0.2641
    1SOL    HW3 5719   4.378   0.829   2.355 -0.3536  0.3526 -0.1860
    1SOL    MW4 5720   4.301   0.803   2.387 -0.0730 -0.3429 -0.0660
    1SOL     OW 5721   4.070   0.911   2.292 -0.3813 -0.5002  0.2230
    1SOL    HW2 5722   4.050   0.998   2.325  0.1930 -0.0365 -0.6294
    1SOL    HW3 5723   4.064   0.919   2.197 -1.7856 -1.7607  0.1754
    1SOL    MW4 5724   4.067   0.923   2.284 -0.4911 -0.6053  0.1042
    1SOL     OW 5725   3.995   1.192   2.362  0.3427  0.6703  0.1985
    1SOL    HW2 5726   3.974   1.200   2.455 -0.1137  1.4042  0.0424
    1SOL    HW3 5727   3.922   1.237   2.318  1.8159  2.5365 -0.3979
    1SOL    MW4 5728   3.982   1.199   2.368  0.4768  1.0135  0.0994
    1SOL     OW 5729   4.249   1.297   2.252  0.5153  0.3200 -0.2418
    1SOL    HW2 5730   4.164   1.262   2.281  0.2492 -0.3371 -1.7420
    1SOL    HW3 5731   4.314   1.246   2.300  0.0620  1.1312  1.2564
    1SOL    MW4 5732   4.246   1.286   2.262  0.4210  0.3405 -0.2422
    1SOL     OW 5733   4.239   1.568   2.322  0.0753  0.0071  0.7121
    1SOL    HW2 5734   4.248   1.478   2.288 -0.8564 -0.5192  1.8056
    1SOL    HW3 5735   4.321   1.611   2.298  1.3525 -1.7129  1.8753
    1SOL    MW4 5736   4.251   1.561   2.314  0.1206 -0.2892  1.0099
    1SOL     OW 5737   4.006   1.703   2.266 -0.3060  0.3644 -0.1641
    1SOL    HW2 5738   4.080   1.646   2.285 -0.7676 -0.3799 -0.5777
    1SOL    HW3 5739   3.932   1.660   2.310 -0.6058  0.7713 -0.2753
    1SOL    MW4 5740   4.006   1.690   2.275 -0.4067  0.3198 -0.2332
    1SOL     OW 5741   4.000   1.974   2.358  0.2664 -0.0480 -0.0182
    1SOL    HW2 5742   4.014   1.992   2.451 -0.2557  1.2279 -0.1701
    1SOL    HW3 5743   4.009   1.879   2.350 -1.3129 -0.3650  1.6292
    1SOL    MW4 5744   4.003   1.964   2.369 -0.0110  0.0786  0.1791
    1SOL     OW 5745   4.252   2.047   2.257  0.2423 -0.3949  0.2487
    1SOL    HW2 5746   4.249   2.136   2.294 -1.2052 -0.8789  1.2983
    1SOL    HW3 5747   4.179   2.001   2.297  0.2842 -1.7444 -1.1781
    1SOL    MW4 5748   4.242   2.053   2.267  0.0572 -0.6366  0.1988
    1SOL     OW 5749   4.266   2.313   2.332  0.6440 -0.1382  0.1470
    1SOL    HW2 5750   4.186   2.352   2.297  0.8383 -0.5362 -0.7610
    1SOL    HW3 5751   4.336   2.370   2.301  0.7253  0.1960  0.9216
    1SOL    MW4 5752   4.265   2.326   2.323  0.6804 -0.1464  0.1295
    1SOL     OW 5753   4.028   2.432   2.255  0.2425 -0.1906 -0.5656
    1SOL    HW2 5754   4.026   2.515   2.303  2.3747 -0.8193  0.7166
    1SOL    HW3 5755   3.955   2.382   2.291  1.7532 -0.6180  2.0294
    1SOL    MW4 5756   4.018   2.437   2.266  0.7234 -0.3297 -0.0539
    1SOL     OW 5757   4.010   2.667   2.388  0.1884  0.3535  0.2208
    1SOL    HW2 5758   4.008   2.673   2.484 -0.7186 -1.0903  0.3122
    1SOL    HW3 5759   3.943   2.728   2.359 -1.2703 -1.0065  0.6379
    1SOL    MW4 5760   4.001   2.676   2.397 -0.1240 -0.0165  0.2880
    1SOL     OW 5761   4.264   2.825   2.274  0.3722  0.0106  0.0946
    1SOL    HW2 5762   4.201   2.770   2.320  0.0110 -1.2154 -1.8181
    1SOL    HW3 5763   4.349   2.801   2.312 -0.0168 -0.1748  0.8702
    1SOL    MW4 5764   4.267   2.815   2.285  0.2728 -0.1760 -0.0553
    1SOL     OW 5765   4.254   3.075   2.373  0.4911  0.1481  0.1887
    1SOL    HW2 5766   4.249   2.988   2.333  0.8932  0.2362 -0.0602
    1SOL    HW3 5767   4.334   3.114   2.336 -2.0104  2.3431 -3.1288
    1SOL    MW4 5768   4.264   3.069   2.363  0.2136  0.4497 -0.2820
    1SOL     OW 5769   4.012   3.214   2.276  0.0356  0.2194 -0.5407
    1SOL    HW2 5770   4.008   3.301   2.314 -1.2128 -0.0277 -0.0805
    1SOL    HW3 5771   4.082   3.169   2.324 -0.5054  0.4023  0.4074
    1SOL    MW4 5772   4.021   3.219   2.287 -0.1998  0.2108 -0.3550
    1SOL     OW 5773   4.050   3.503   2.390 -0.0730  0.1797  0.3660
    1SOL    HW2 5774   4.135   3.522   2.350  0.5261 -1.3477  0.8826
    1SOL    HW3 5775   3.988   3.559   2.343  1.1119  0.8011 -0.4751
    1SOL    MW4 5776   4.053   3.513   2.379  0.1626  0.0603  0.3231
    1SOL     OW 5777   4.298   3.596   2.314  0.0512 -0.3947  0.4635
    1SOL    HW2 5778   4.297   3.690   2.330 -0.0578 -0.3795  0.3705
    1SOL    HW3 5779   4.295   3.588   2.218  0.4634 -0.4859  0.4565
    1SOL    MW4 5780   4.298   3.607   2.303  0.0916 -0.4048  0.4504
    1SOL     OW 5781   4.243   3.875   2.363 -0.4806  0.0082  0.1320
    1SOL    HW2 5782   4.242   3.878   2.459  0.5085 -0.4865  0.1669
    1SOL    HW3 5783   4.328   3.910   2.339 -0.1746 -1.1513 -0.5040
    1SOL    MW4 5784   4.254   3.880   2.373 -0.3099 -0.2098  0.0527
    1SOL     OW 5785   4.038   4.010   2.260  0.3328  0.7820  0.2045
    1SOL    HW2 5786   4.115   3.961   2.287  0.8497  1.8285  0.6381
    1SOL    HW3 5787   4.053   4.030   2.168  0.0562  0.0224 -0.0118
    1SOL    MW4 5788   4.050   4.006   2.252  0.3648  0.8202  0.2332
    1SOL     OW 5789   3.979   4.277   2.319 -0.0475  0.0802 -0.0150
    1SOL    HW2 5790   4.060   4.324   2.297  0.2170 -0.0684  0.6312
    1SOL    HW3 5791   4.000   4.185   2.300 -0.8736  0.3086 -2.1885
    1SOL    MW4 5792   3.993   4.271   2.313 -0.1216  0.0906 -0.2165
    1SOL     OW 5793   4.222   4.392   2.273  0.1609 -0.1813  0.3610
    1SOL    HW2 5794   4.227   4.470   2.328  1.5181  1.0185 -1.3747
    1SOL    HW3 5795   4.281   4.329   2.315  0.2104  0.2655  0.9592
    1SOL    MW4 5796   4.231   4.394   2.286  0.3467  0.0358  0.2110
    1SOL     OW 5797   0.227   0.000   2.666 -0.0221  0.4097 -0.4338
    1SOL    HW2 5798   0.206  -0.088   2.697  1.5461  0.2314  0.1775
    1SOL    HW3 5799   0.151   0.053   2.688 -1.6338 -1.1148 -2.2050
    1SOL    MW4 5800   0.214  -0.004   2.673 -0.0278  0.1850 -0.5865
    1SOL     OW 5801   0.009   0.170   2.776 -0.1999  0.2175 -0.3782
    1SOL    HW2 5802   0.026   0.174   2.870 -0.9337 -0.8537 -0.2005
    1SOL    HW3 5803   0.000   0.262   2.750  0.9583  0.5625  0.4136
    1SOL    MW4 5804   0.010   0.183   2.785 -0.1439  0.1217 -0.2503
    1SOL     OW 5805   4.476   0.424   2.677  0.3629  0.0679  0.3886
    1SOL    HW2 5806   4.558   0.467   2.701 -1.0904  2.5416  1.1580
    1SOL    HW3 5807   4.485   0.407   2.583  1.4684  1.0311  0.2986
    1SOL    MW4 5808   4.488   0.428   2.668  0.3171  0.5213  0.4783
    1SOL     OW 5809   0.240   0.514   2.746 -0.1594  0.5156  0.1978
    1SOL    HW2 5810   0.253   0.539   2.838 -0.3726 -1.0283  0.6740
    1SOL    HW3 5811   0.324   0.476   2.720  0.1518  1.6834 -0.4894
    1SOL    MW4 5812   0.253   0.512   2.755 -0.1464  0.4659  0.1698
    1SOL     OW 5813   0.216   0.760   2.627  0.3551 -0.4070 -0.2476
    1SOL    HW2 5814   0.293   0.809   2.658 -0.9376  0.3453  1.8721
    1SOL    HW3 5815   0.227   0.672   2.665  0.1953 -0.3116  0.0206
    1SOL    MW4 5816   0.228   0.755   2.636  0.1635 -0.2950  0.0675
    1SOL     OW 5817   0.025   0.895   2.756 -0.7531 -0.5520 -0.1334
    1SOL    HW2 5818  -0.052   0.858   2.712  0.4572  0.2625 -3.1049
    1SOL    HW3 5819   0.100   0.855   2.711  0.5667  0.1433  1.3994
    1SOL    MW4 5820   0.025   0.885   2.744 -0.4194 -0.3528 -0.3231
    1SOL     OW 5821   4.418   1.143   2.662  0.2850 -0.3780 -0.6309
    1SOL    HW2 5822   4.489   1.202   2.687 -0.3490 -0.0878  0.5462
    1SOL    HW3 5823   4.448   1.056   2.691  0.0884 -0.2301  0.0223
    1SOL    MW4 5824   4.432   1.139   2.669  0.1755 -0.3203 -0.3896
    1SOL     OW 5825   0.167   1.289   2.752 -0.5508 -0.2193 -0.0023
    1SOL    HW2 5826   0.240   1.234   2.724  0.1502 -0.3920  2.0796
    1SOL    HW3 5827   0.179   1.371   2.705  0.9867 -0.2655  0.2863
    1SOL    MW4 5828   0.178   1.293   2.742 -0.2554 -0.2483  0.3104
    1SOL     OW 5829   0.218   1.519   2.615 -0.2038  0.4677 -0.6427
    1SOL    HW2 5830   0.278   1.570   2.670 -0.6340 -1.5682  1.7650
    1SOL    HW3 5831   0.132   1.559   2.630 -0.6065 -1.1850  1.5574
    1SOL    MW4 5832   0.214   1.531   2.624 -0.3137 -0.0190 -0.0348
    1SOL     OW 5833   4.479   1.662   2.689 -0.6450 -0.3436  0.4241
    1SOL    HW2 5834   4.458   1.655   2.782  0.2867  0.6501  0.7080
    1SOL    HW3 5835   4.476   1.755   2.670 -0.0379 -0.4777 -0.3616
    1SOL    MW4 5836   4.476   1.673   2.699 -0.4420 -0.2301  0.3579
    1SOL     OW 5837   4.450   1.939   2.657  0.6519 -0.3715  0.0571
    1SOL    HW2 5838   4.537   1.965   2.689  1.5432 -2.2265 -0.7525
    1SOL    HW3 5839   4.461   1.931   2.563 -0.8836  1.1121 -0.2554
    1SOL    MW4 5840   4.463   1.941   2.649  0.5670 -0.4207 -0.0908
    1SOL     OW 5841   0.176   2.057   2.755 -0.5447  0.4877  0.2634
    1SOL    HW2 5842   0.258   2.018   2.726 -1.1348  0.3741 -1.3304
    1SOL    HW3 5843   0.174   2.143   2.712 -1.6109  0.1636 -0.3716
    1SOL    MW4 5844   0.186   2.064   2.745 -0.7632  0.4299 -0.0305
    1SOL     OW 5845   0.208   2.311   2.651 -0.3458  0.3752 -0.4526
    1SOL    HW2 5846   0.290   2.349   2.683  0.2271 -0.2573 -1.1472
    1SOL    HW3 5847   0.141   2.372   2.680  0.3771  0.9355  0.0750
    1SOL    MW4 5848   0.210   2.324   2.659 -0.1749  0.3657 -0.4745
    1SOL     OW 5849   0.009   2.466   2.760  0.1644  0.1252  0.0950
    1SOL    HW2 5850  -0.008   2.464   2.854 -3.0686  2.7120 -0.3359
    1SOL    HW3 5851  -0.066   2.420   2.721  1.0690 -0.2235 -1.2631
    1SOL    MW4 5852  -0.003   2.460   2.767 -0.1428  0.4203 -0.1411
    1SOL     OW 5853   0.033   2.727   2.671 -0.3155 -0.1034 -0.5887
    1SOL    HW2 5854  -0.054   2.762   2.687 -0.2119  0.0620 -0.3788
    1SOL    HW3 5855   0.030   2.638   2.707 -1.0709 -0.9019 -2.5791
    1SOL    MW4 5856   0.021   2.720   2.678 -0.4015 -0.1869 -0.8237
    1SOL     OW 5857   0.251   2.849   2.770  0.1333  0.2132 -0.0205
    1SOL    HW2 5858   0.242   2.942   2.752 -0.1668  0.2612  0.3761
    1SOL    HW3 5859   0.173   2.809   2.731  0.6511  0.0282 -0.8845
    1SOL    MW4 5860   0.240   2.856   2.763  0.1620  0.1953 -0.0820
    1SOL     OW 5861   0.228   3.122   2.703  0.0866 -0.0823  0.2660
    1SOL    HW2 5862   0.317   3.151   2.719  0.3701 -1.0932  0.5628
    1SOL    HW3 5863   0.222   3.112   2.608  0.5331 -0.7921  0.3153
    1SOL    MW4 5864   0.239   3.125   2.692  0.1829 -0.3092  0.3119
    1SOL     OW 5865   4.467   3.212   2.772  0.2897  0.2990 -0.0781
    1SOL    HW2 5866   4.402   3.157   2.729 -0.6139 -0.0323  1.6826
    1SOL    HW3 5867   4.551   3.178   2.741 -0.2831 -1.4390  0.2461
    1SOL    MW4 5868   4.470   3.200   2.762  0.0954  0.0255  0.1969
    1SOL     OW 5869   4.477   3.474   2.670  0.8246  0.0594 -0.1258
    1SOL    HW2 5870   4.556   3.505   2.713  0.9696 -0.0691 -0.3000
    1SOL    HW3 5871   4.468   3.383   2.698  0.0528  0.4403  0.8892
    1SOL    MW4 5872   4.486   3.466   2.679  0.7420  0.0927 -0.0145
    1SOL     OW 5873   0.212   3.595   2.773 -0.1286 -0.2187 -0.0433
    1SOL    HW2 5874   0.202   3.608   2.868  1.3667  0.0230  0.0979
    1SOL    HW3 5875   0.292   3.544   2.764 -0.6262 -0.8226 -1.1562
    1SOL    MW4 5876   0.221   3.590   2.785  0.0031 -0.2663 -0.1717
    1SOL     OW 5877   0.221   3.849   2.644  0.1025 -0.2096 -0.2120
    1SOL    HW2 5878   0.225   3.761   2.681 -2.4160 -0.8008 -1.2323
    1SOL    HW3 5879   0.244   3.837   2.552 -0.5688  0.1569 -0.4254
    1SOL    MW4 5880   0.225   3.836   2.637 -0.3183 -0.2394 -0.3746
    1SOL     OW 5881   4.476   4.019   2.745 -0.4111  0.1040 -0.7872
    1SOL    HW2 5882   4.476   4.108   2.710 -0.0212  0.3401 -0.1957
    1SOL    HW3 5883   4.546   3.974   2.697 -0.4658  0.1764 -0.9345
    1SOL    MW4 5884   4.485   4.025   2.734 -0.3672  0.1445 -0.7286
    1SOL     OW 5885   4.460   4.272   2.663 -0.0593  0.4664  0.1856
    1SOL    HW2 5886   4.394   4.329   2.704 -0.8319  0.4678 -1.0256
    1SOL    HW3 5887   4.543   4.300   2.702 -0.7172  0.7648  1.4128
    1SOL    MW4 5888   4.462   4.283   2.674 -0.2484  0.5054  0.1879
    1SOL     OW 5889   0.208   4.403   2.753 -0.2827  0.2372 -0.0219
    1SOL    HW2 5890   0.208   4.395   2.848 -2.0896 -3.2226 -0.2389
    1SOL    HW3 5891   0.292   4.366   2.726  0.1146  0.9696  0.2049
    1SOL    MW4 5892   0.219   4.397   2.762 -0.4687 -0.1230 -0.0207
    1SOL     OW 5893   0.685   4.654   2.629  0.1436  0.5711  0.3426
    1SOL    HW2 5894   0.762   4.693   2.670  0.5320  0.1631  0.0128
    1SOL    HW3 5895   0.612   4.712   2.653  0.8167  1.8603 -0.6864
    1SOL    MW4 5896   0.685   4.667   2.638  0.2837  0.6876  0.1633
    1SOL     OW 5897   0.472   0.115   2.731 -0.2449 -0.0205 -0.0872
    1SOL    HW2 5898   0.467   0.126   2.826 -0.1787  1.5878 -0.2489
    1SOL    HW3 5899   0.388   0.078   2.706 -0.7811  0.8362  0.4389
    1SOL    MW4 5900   0.460   0.112   2.740 -0.3069  0.3047 -0.0389
    1SOL     OW 5901   0.462   0.402   2.642 -0.0034  0.2848  0.1118
    1SOL    HW2 5902   0.539   0.454   2.666 -0.0612 -0.0169  0.9854
    1SOL    HW3 5903   0.473   0.319   2.689  1.1093 -1.3110 -2.9059
    1SOL    MW4 5904   0.473   0.398   2.652  0.1358  0.0345 -0.1712
    1SOL     OW 5905   0.683   0.526   2.744 -0.0712  0.3161 -0.0062
    1SOL    HW2 5906   0.675   0.511   2.838  0.1789 -1.5923 -0.2799
    1SOL    HW3 5907   0.758   0.472   2.717 -0.5915  0.2840 -1.4305
    1SOL    MW4 5908   0.692   0.517   2.752 -0.1069  0.0601 -0.2303
    1SOL     OW 5909   0.695   0.764   2.608  0.1692 -0.0151 -0.0167
    1SOL    HW2 5910   0.774   0.801   2.649 -0.8716  0.8885  1.1884
    1SOL    HW3 5911   0.679   0.683   2.655 -0.3780  0.4648  0.6361
    1SOL    MW4 5912   0.704   0.758   2.619 -0.0403  0.1674  0.2284
    1SOL     OW 5913   0.462   0.890   2.700  0.1064  0.0790  0.3835
    1SOL    HW2 5914   0.481   0.891   2.794  0.7464 -0.0530  0.2530
    1SOL    HW3 5915   0.539   0.850   2.659 -0.3986 -0.3631 -0.1496
    1SOL    MW4 5916   0.475   0.885   2.707  0.1242  0.0032  0.2961
    1SOL     OW 5917   0.415   1.162   2.649  0.0009  0.1268 -0.3815
    1SOL    HW2 5918   0.501   1.198   2.672 -1.6511  2.3925  2.6839
    1SOL    HW3 5919   0.414   1.075   2.688  0.2432  0.8466  1.2977
    1SOL    MW4 5920   0.426   1.155   2.657 -0.1851  0.5207  0.2446
    1SOL     OW 5921   0.655   1.261   2.746  0.0281  0.5345 -0.0044
    1SOL    HW2 5922   0.654   1.261   2.841 -1.3509 -1.1107  0.0118
    1SOL    HW3 5923   0.734   1.212   2.722 -0.3903 -0.3017  0.3142
    1SOL    MW4 5924   0.665   1.254   2.755 -0.2090  0.2071  0.0398
    1SOL     OW 5925   0.649   1.521   2.650 -0.0325 -0.4425  0.1027
    1SOL    HW2 5926   0.576   1.566   2.692  1.1420  0.7098  0.9345
    1SOL    HW3 5927   0.650   1.434   2.689 -0.6846 -0.3176  0.3987
    1SOL    MW4 5928   0.640   1.516   2.661  0.0364 -0.2741  0.2515
    1SOL     OW 5929   0.404   1.655   2.761  0.6351  0.3045  0.2683
    1SOL    HW2 5930   0.408   1.660   2.857  1.2654  0.6555  0.2243
    1SOL    HW3 5931   0.401   1.746   2.733  0.4519  0.1990 -0.0495
    1SOL    MW4 5932   0.404   1.668   2.770  0.6941  0.3369  0.2205
    1SOL     OW 5933   0.413   1.919   2.655  0.4442  0.0081 -0.2381
    1SOL    HW2 5934   0.495   1.968   2.654  0.2941  0.2626  0.0631
    1SOL    HW3 5935   0.397   1.897   2.563 -0.4319  2.1033 -0.6219
    1SOL    MW4 5936   0.421   1.922   2.643  0.3088  0.3182 -0.2489
    1SOL     OW 5937   0.655   2.030   2.676 -0.4534  0.1418  0.3372
    1SOL    HW2 5938   0.654   2.022   2.772  1.2353  0.7309  0.4305
    1SOL    HW3 5939   0.709   1.957   2.647 -0.1097  0.5690 -0.0918
    1SOL    MW4 5940   0.662   2.019   2.685 -0.1852  0.2756  0.2930
    1SOL     OW 5941   0.660   2.296   2.597 -0.9562  0.2095 -0.0274
    1SOL    HW2 5942   0.737   2.322   2.648 -0.8143  2.8291 -1.5242
    1SOL    HW3 5943   0.649   2.203   2.617  1.0167  0.4203  2.2458
    1SOL    MW4 5944   0.669   2.287   2.607 -0.6771  0.5829  0.0751
    1SOL     OW 5945   0.441   2.446   2.710  0.4076 -0.1727 -0.1927
    1SOL    HW2 5946   0.440   2.534   2.672 -1.2280 -0.9549 -2.0353
    1SOL    HW3 5947   0.512   2.401   2.664 -0.2448 -0.4995 -0.8884
    1SOL    MW4 5948   0.450   2.452   2.699  0.1057 -0.3190 -0.5276
    1SOL     OW 5949   0.453   2.702   2.610 -0.0983 -0.2504 -0.1312
    1SOL    HW2 5950   0.531   2.712   2.665 -0.1501  2.4668 -0.4849
    1SOL    HW3 5951   0.385   2.748   2.658 -0.6198  0.4411 -1.5201
    1SOL    MW4 5952   0.455   2.710   2.624 -0.1739  0.1996 -0.3612
    1SOL     OW 5953   0.680   2.777   2.744  0.0244  0.0782 -0.0484
    1SOL    HW2 5954   0.657   2.788   2.836  0.9018 -1.5286  0.3844
    1SOL    HW3 5955   0.695   2.866   2.712 -0.9943  0.6915  1.1687
    1SOL    MW4 5956   0.679   2.790   2.752  0.0058 -0.0532  0.1693
    1SOL     OW 5957   0.694   3.054   2.670 -0.4873  0.0879 -0.3378
    1SOL    HW2 5958   0.767   3.090   2.720 -1.2957 -0.2326  1.1130
    1SOL    HW3 5959   0.715   3.073   2.579  1.5138 -0.2379  0.0442
    1SOL    MW4 5960   0.706   3.062   2.665 -0.3299  0.0026 -0.0958
    1SOL     OW 5961   0.480   3.192   2.748  0.0294 -0.4271  0.2021
    1SOL    HW2 5962   0.477   3.194   2.843  1.6611  1.8615  0.2670
    1SOL    HW3 5963   0.558   3.141   2.727  0.9235  0.9050  0.1817
    1SOL    MW4 5964   0.490   3.186   2.758  0.3627  0.0508  0.2077
    1SOL     OW 5965   0.450   3.460   2.684 -0.1000  0.8532 -0.2217
    1SOL    HW2 5966   0.460   3.367   2.705 -0.0991  1.1082  0.9711
    1SOL    HW3 5967   0.437   3.462   2.589  1.1369 -0.2676 -0.4323
    1SOL    MW4 5968   0.450   3.448   2.674  0.0633  0.7391 -0.0920
    1SOL     OW 5969   0.673   3.619   2.717 -0.1788  0.3564  0.0362
    1SOL    HW2 5970   0.686   3.623   2.812 -0.8115  0.3988  0.1272
    1SOL    HW3 5971   0.592   3.569   2.707 -0.5880  1.1125 -0.4432
    1SOL    MW4 5972   0.664   3.613   2.728 -0.3163  0.4621 -0.0150
    1SOL     OW 5973   0.691   3.881   2.615  0.4970 -0.1323 -0.0466
    1SOL    HW2 5974   0.607   3.923   2.636  1.1032  1.0658  0.0550
    1SOL    HW3 5975   0.686   3.795   2.656  0.2263  0.8096  1.9926
    1SOL    MW4 5976   0.679   3.875   2.624  0.5412  0.1500  0.2358
    1SOL     OW 5977   0.451   3.972   2.705  0.5919 -0.4050  0.0173
    1SOL    HW2 5978   0.435   4.066   2.696  1.2850 -0.2357  0.5470
    1SOL    HW3 5979   0.365   3.932   2.691  0.6327  0.1748 -2.0929
    1SOL    MW4 5980   0.437   3.979   2.702  0.6887 -0.3061 -0.1915
    1SOL     OW 5981   0.414   4.242   2.664 -0.2238  0.4025  0.5319
    1SOL    HW2 5982   0.485   4.297   2.696 -0.6765  0.9439  0.6268
    1SOL    HW3 5983   0.417   4.252   2.569  1.1043 -1.1845  0.3896
    1SOL    MW4 5984   0.424   4.251   2.656 -0.1083  0.2642  0.5257
    1SOL     OW 5985   0.647   4.382   2.755  0.6270 -0.4858  0.3135
    1SOL    HW2 5986   0.723   4.333   2.724  1.2758  0.2100  0.7944
    1SOL    HW3 5987   0.656   4.468   2.716 -0.4135 -0.6786 -0.3732
    1SOL    MW4 5988   0.658   4.387   2.746  0.5754 -0.4191  0.2863
    1SOL     OW 5989   1.187   4.626   2.642  0.3035 -0.2265 -0.1156
    1SOL    HW2 5990   1.265   4.661   2.686 -0.5251  0.4251  0.8445
    1SOL    HW3 5991   1.182   4.535   2.672  0.3105 -0.0741  0.3443
    1SOL    MW4 5992   1.197   4.619   2.652  0.1950 -0.1202  0.0718
    1SOL     OW 5993   0.942   0.072   2.730  0.1733  0.4281 -0.7703
    1SOL    HW2 5994   0.952   0.067   2.825 -0.7885 -1.8724 -0.7730
    1SOL    HW3 5995   1.020   0.030   2.695 -0.4995 -0.6671 -0.9687
    1SOL    MW4 5996   0.954   0.066   2.738 -0.0424 -0.0199 -0.7966
    1SOL     OW 5997   0.862   0.337   2.669  0.2299 -0.3400  0.2172
    1SOL    HW2 5998   0.882   0.248   2.698  2.1527 -0.3098 -0.9128
    1SOL    HW3 5999   0.866   0.332   2.573  3.4548  1.6017  0.1810
    1SOL    MW4 6000   0.865   0.325   2.660  0.9091 -0.0798  0.0634
    1SOL     OW 6001   1.100   0.458   2.750  0.4779  0.3709 -0.1696
    1SOL    HW2 6002   1.091   0.549   2.721 -0.1955  0.1281 -0.7202
    1SOL    HW3 6003   1.019   0.416   2.724  0.6278 -0.3038  0.4328
    1SOL    MW4 6004   1.088   0.465   2.743  0.4089  0.2498 -0.1626
    1SOL     OW 6005   1.130   0.714   2.646 -0.3957  0.2404 -0.5833
    1SOL    HW2 6006   1.207   0.755   2.685 -1.3867  1.9910 -0.4434
    1SOL    HW3 6007   1.136   0.735   2.553 -1.5452  1.7556 -0.3222
    1SOL    MW4 6008   1.141   0.722   2.639 -0.6781  0.6713 -0.5305
    1SOL     OW 6009   0.921   0.862   2.740  0.0617 -0.2587  0.3763
    1SOL    HW2 6010   0.924   0.866   2.835 -0.3236 -2.7439  0.5263
    1SOL    HW3 6011   1.002   0.817   2.715 -0.5782 -1.0095 -0.3585
    1SOL    MW4 6012   0.932   0.857   2.749 -0.0736 -0.6856  0.2992
    1SOL     OW 6013   0.900   1.145   2.693  0.6276  0.0028  0.6600
    1SOL    HW2 6014   0.926   1.055   2.712 -0.1705 -0.0844  1.3889
    1SOL    HW3 6015   0.889   1.148   2.598  2.0420 -0.2855  0.4908
    1SOL    MW4 6016   0.902   1.134   2.683  0.7090 -0.0467  0.7339
    1SOL     OW 6017   1.133   1.286   2.774 -0.3546 -0.0322  0.7739
    1SOL    HW2 6018   1.132   1.366   2.722  1.1654 -0.5585 -0.1208
    1SOL    HW3 6019   1.051   1.241   2.752  0.9533 -1.0060 -2.4593
    1SOL    MW4 6020   1.122   1.290   2.764  0.0185 -0.2303  0.2294
    1SOL     OW 6021   1.126   1.521   2.631  0.5247  0.0603  0.5666
    1SOL    HW2 6022   1.040   1.549   2.662  0.9464  0.6739  1.2079
    1SOL    HW3 6023   1.125   1.540   2.537  0.2190  0.7157  0.7020
    1SOL    MW4 6024   1.114   1.527   2.622  0.5401  0.2276  0.6690
    1SOL     OW 6025   0.880   1.622   2.723  0.4026 -0.3567 -0.4203
    1SOL    HW2 6026   0.872   1.623   2.819  1.4474  0.2496 -0.3364
    1SOL    HW3 6027   0.792   1.599   2.692 -0.1683  0.3354  0.6564
    1SOL    MW4 6028   0.867   1.619   2.732  0.4652 -0.1855 -0.2675
    1SOL     OW 6029   0.878   1.856   2.573 -0.1971 -0.2575 -0.4032
    1SOL    HW2 6030   0.948   1.911   2.610 -0.7478  0.2129 -0.0544
    1SOL    HW3 6031   0.892   1.770   2.613 -0.6524  0.1903  0.7297
    1SOL    MW4 6032   0.889   1.852   2.583 -0.3299 -0.1363 -0.2077
    1SOL     OW 6033   1.087   1.984   2.706 -0.5271 -0.3425 -0.3377
    1SOL    HW2 6034   1.173   1.945   2.694 -0.7455 -0.4631 -1.5355
    1SOL    HW3 6035   1.099   2.076   2.681 -1.1825 -0.7859 -2.3303
    1SOL    MW4 6036   1.100   1.991   2.701 -0.6424 -0.4170 -0.7586
    1SOL     OW 6037   1.117   2.261   2.662  0.5276  0.0949  0.5632
    1SOL    HW2 6038   1.178   2.315   2.711 -0.8722  1.6260  0.6614
    1SOL    HW3 6039   1.120   2.296   2.573  0.4825 -0.4218  0.3579
    1SOL    MW4 6040   1.125   2.273   2.657  0.3368  0.2286  0.5493
    1SOL     OW 6041   0.892   2.408   2.738 -0.1117 -0.4357  0.2833
    1SOL    HW2 6042   0.910   2.493   2.696  0.1527  1.1611  3.4442
    1SOL    HW3 6043   0.960   2.350   2.704  0.3055  0.8635 -1.2073
    1SOL    MW4 6044   0.903   2.412   2.728 -0.0218 -0.0536  0.5035
    1SOL     OW 6045   0.904   2.669   2.619  0.2785 -0.1580  0.4769
    1SOL    HW2 6046   0.961   2.730   2.666  0.4107  0.5940 -0.6327
    1SOL    HW3 6047   0.819   2.677   2.662  0.5968 -0.0602  1.0867
    1SOL    MW4 6048   0.900   2.679   2.631  0.3379 -0.0460  0.4110
    1SOL     OW 6049   1.083   2.832   2.755  0.0000  0.0000 -0.2775
    1SOL    HW2 6050   1.106   2.825   2.848  0.0000  0.0000 -0.2777
    1SOL    HW3 6051   1.159   2.795   2.709  0.0000  0.0000 -0.2789
    1SOL    MW4 6052   1.096   2.826   2.761  0.0000  0.0000 -0.2775
    1SOL     OW 6053   1.148   3.096   2.695  0.0000  0.0000 -0.4028
    1SOL    HW2 6054   1.122   3.007   2.718  0.0000  0.0000 -0.4021
    1SOL    HW3 6055   1.136   3.101   2.600  0.0000  0.0000 -0.4028
    1SOL    MW4 6056   1.143   3.085   2.685  0.0000  0.0000 -0.4027
    1SOL     OW 6057   0.919   3.208   2.782  0.0000  0.0000 -0.0162
    1SOL    HW2 6058   0.903   3.287   2.730  0.0000  0.0000 -0.0131
    1SOL    HW3 6059   1.006   3.179   2.754  0.0000  0.0000 -0.0410
    1SOL    MW4 6060   0.928   3.215   2.772  0.0000  0.0000 -0.0188
    1SOL     OW 6061   0.887   3.462   2.636  0.0000  0.0000  0.1333
    1SOL    HW2 6062   0.961   3.508   2.676  0.0000  0.0000  0.0571
    1SOL    HW3 6063   0.810   3.511   2.666  0.0000  0.0000  0.1922
    1SOL    MW4 6064   0.887   3.475   2.645  0.0000  0.0000  0.1309
    1SOL     OW 6065   1.102   3.599   2.727  0.0000  0.0000 -0.3898
    1SOL    HW2 6066   1.101   3.626   2.818  0.0000  0.0000 -0.3913
    1SOL    HW3 6067   1.100   3.681   2.678  0.0000  0.0000 -0.3941
    1SOL    MW4 6068   1.102   3.613   2.732  0.0000  0.0000 -0.3905
    1SOL     OW 6069   1.098   3.851   2.628  0.0000  0.0000 -0.0093
    1SOL    HW2 6070   1.178   3.889   2.665  0.0000  0.0000 -0.0160
    1SOL    HW3 6071   1.110   3.859   2.533  0.0000  0.0000 -0.0103
    1SOL    MW4 6072   1.110   3.857   2.620  0.0000  0.0000 -0.0098
    1SOL     OW 6073   0.893   4.008   2.748  0.0000  0.0000  0.1408
    1SOL    HW2 6074   0.957   3.963   2.693  0.0000  0.0000  0.1341
    1SOL    HW3 6075   0.809   3.969   2.720  0.0000  0.0000  0.1379
    1SOL    MW4 6076   0.890   3.997   2.737  0.0000  0.0000  0.1395
    1SOL     OW 6077   0.888   4.266   2.653  0.0000  0.0000  0.0133
    1SOL    HW2 6078   0.892   4.173   2.678  0.0000  0.0000  0.0056
    1SOL    HW3 6079   0.884   4.265   2.558  0.0000  0.0000  0.0131
    1SOL    MW4 6080   0.888   4.254   2.644  0.0000  0.0000  0.0124
    1SOL     OW 6081   1.144   4.351   2.709  0.0000  0.0000 -0.0999
    1SOL    HW2 6082   1.137   4.378   2.801  0.0000  0.0000 -0.1010
    1SOL    HW3 6083   1.055   4.327   2.684  0.0000  0.0000 -0.1107
    1SOL    MW4 6084   1.131   4.351   2.718  0.0000  0.0000 -0.1013
    1SOL     OW 6085   1.561   0.005   2.614 -0.1014 -0.0401  0.1373
    1SOL    HW2 6086   1.549  -0.081   2.654  0.7605 -0.6505 -0.8903
    1SOL    HW3 6087   1.565  -0.013   2.520  1.3060  0.9734 -0.0071
    1SOL    MW4 6088   1.560  -0.009   2.607  0.1980  0.0129 -0.0174
    1SOL     OW 6089   1.386   0.128   2.773  0.2076  0.0227  0.0324
    1SOL    HW2 6090   1.374   0.215   2.735 -1.0316 -0.1695 -0.0670
    1SOL    HW3 6091   1.462   0.092   2.728 -0.2427  0.4474 -1.0937
    1SOL    MW4 6092   1.394   0.135   2.762 -0.0153  0.0533 -0.1292
    1SOL     OW 6093   1.349   0.395   2.649  0.1661  0.4400  0.5149
    1SOL    HW2 6094   1.405   0.445   2.708  0.4005 -0.0596  0.7178
    1SOL    HW3 6095   1.260   0.417   2.676  0.2720 -0.0044  1.2415
    1SOL    MW4 6096   1.344   0.404   2.660  0.2110  0.3154  0.6378
    1SOL     OW 6097   1.574   0.513   2.790  0.0002 -0.0902 -0.0373
    1SOL    HW2 6098   1.648   0.466   2.751 -0.2744 -0.1452 -0.4954
    1SOL    HW3 6099   1.574   0.598   2.747 -0.2217 -0.1013 -0.0585
    1SOL    MW4 6100   1.584   0.518   2.779 -0.0653 -0.0989 -0.1006
    1SOL     OW 6101   1.581   0.745   2.629 -0.3347 -0.0825 -0.1308
    1SOL    HW2 6102   1.518   0.802   2.672 -0.6891 -0.7631  0.2420
    1SOL    HW3 6103   1.561   0.753   2.536 -1.0604 -0.4162 -0.0017
    1SOL    MW4 6104   1.570   0.754   2.622 -0.4772 -0.2163 -0.0646
    1SOL     OW 6105   1.353   0.865   2.744  0.1377  0.0472 -0.3744
    1SOL    HW2 6106   1.365   0.861   2.838 -1.0983 -1.3460 -0.2654
    1SOL    HW3 6107   1.353   0.959   2.724 -0.3677  0.3677  1.1085
    1SOL    MW4 6108   1.354   0.877   2.753 -0.0921 -0.0944 -0.1643
    1SOL     OW 6109   1.370   1.130   2.678 -0.4670  0.0687  0.7012
    1SOL    HW2 6110   1.443   1.189   2.699  0.8317 -1.3662  0.3329
    1SOL    HW3 6111   1.294   1.171   2.720  0.3320  2.1519  0.2209
    1SOL    MW4 6112   1.370   1.143   2.687 -0.1903  0.1540  0.5891
    1SOL     OW 6113   1.593   1.284   2.738  0.0409  0.4478  0.6734
    1SOL    HW2 6114   1.584   1.288   2.833 -0.5145 -1.0188  0.6941
    1SOL    HW3 6115   1.668   1.226   2.724 -1.7388 -1.7831  0.1721
    1SOL    MW4 6116   1.602   1.277   2.749 -0.2673 -0.0401  0.6099
    1SOL     OW 6117   1.568   1.530   2.592 -0.4263 -0.3399 -0.0238
    1SOL    HW2 6118   1.594   1.439   2.605 -1.8988 -0.8194 -0.3223
    1SOL    HW3 6119   1.560   1.540   2.497  0.9978  0.4831 -0.0777
    1SOL    MW4 6120   1.570   1.519   2.581 -0.4326 -0.2944 -0.0701
    1SOL     OW 6121   1.360   1.614   2.751  0.2360 -0.0971  0.1533
    1SOL    HW2 6122   1.433   1.582   2.698  0.6964  0.5026  0.4154
    1SOL    HW3 6123   1.282   1.580   2.708  0.5932  0.5200 -0.9978
    1SOL    MW4 6124   1.360   1.605   2.738  0.3438  0.0633  0.0360
    1SOL     OW 6125   1.361   1.857   2.636  0.5340  0.3934  0.3934
    1SOL    HW2 6126   1.365   1.765   2.662  0.8197  0.2215 -0.2635
    1SOL    HW3 6127   1.324   1.856   2.548  0.3662  0.9179  0.4605
    1SOL    MW4 6128   1.357   1.845   2.628  0.5497  0.4399  0.3154
    1SOL     OW 6129   1.538   2.056   2.698 -0.2057 -0.4725 -0.0908
    1SOL    HW2 6130   1.625   2.019   2.680  0.0161  0.6883 -1.5619
    1SOL    HW3 6131   1.478   1.983   2.684  0.5100 -1.1987  0.5922
    1SOL    MW4 6132   1.542   2.042   2.694 -0.0818 -0.4153 -0.1945
    1SOL     OW 6133   1.530   2.325   2.649 -0.1768  0.1150 -0.2825
    1SOL    HW2 6134   1.605   2.369   2.688 -1.3394  0.4763  1.6090
    1SOL    HW3 6135   1.549   2.232   2.660 -0.6707  0.2123  1.5503
    1SOL    MW4 6136   1.542   2.318   2.656 -0.3955  0.1757  0.2093
    1SOL     OW 6137   1.287   2.435   2.774  0.4419 -0.6118 -0.0976
    1SOL    HW2 6138   1.273   2.528   2.753  1.1072 -0.4093  0.3406
    1SOL    HW3 6139   1.368   2.412   2.728 -0.3364 -1.2967 -1.1598
    1SOL    MW4 6140   1.296   2.444   2.765  0.4269 -0.6757 -0.1800
    1SOL     OW 6141   1.312   2.704   2.653 -0.3656  0.1051  0.1733
    1SOL    HW2 6142   1.402   2.736   2.662  0.1390 -1.4720  0.9765
    1SOL    HW3 6143   1.299   2.693   2.559  0.7739 -0.9981  0.1398
    1SOL    MW4 6144   1.322   2.707   2.642 -0.1488 -0.2484  0.2749
    1SOL     OW 6145   1.559   2.816   2.730 -0.3547 -0.1439  0.1028
    1SOL    HW2 6146   1.569   2.800   2.824 -1.0035 -0.4981  0.1201
    1SOL    HW3 6147   1.641   2.786   2.691 -0.1240 -0.0908  0.5465
    1SOL    MW4 6148   1.571   2.810   2.737 -0.4100 -0.1836  0.1638
    1SOL     OW 6149   1.561   3.092   2.657 -0.2256 -0.2118  0.0047
    1SOL    HW2 6150   1.637   3.122   2.707 -0.1083 -0.4442 -0.0343
    1SOL    HW3 6151   1.545   3.003   2.689 -1.0294  0.1633  0.6524
    1SOL    MW4 6152   1.569   3.084   2.668 -0.3161 -0.1931  0.0849
    1SOL     OW 6153   1.360   3.245   2.791  0.0420  0.6095  0.2831
    1SOL    HW2 6154   1.440   3.204   2.757  0.5194  1.7560 -0.0357
    1SOL    HW3 6155   1.289   3.190   2.759  0.7204 -0.5569  0.7601
    1SOL    MW4 6156   1.361   3.232   2.782  0.1945  0.6068  0.3040
    1SOL     OW 6157   1.359   3.497   2.651 -0.1321 -0.2352 -0.0024
    1SOL    HW2 6158   1.355   3.417   2.702 -1.2226 -0.6667 -0.7427
    1SOL    HW3 6159   1.275   3.539   2.666  0.0485  0.2802 -0.4120
    1SOL    MW4 6160   1.348   3.492   2.660 -0.2521 -0.2241 -0.1543
    1SOL     OW 6161   1.594   3.611   2.762  0.2074 -0.2772  0.7090
    1SOL    HW2 6162   1.663   3.558   2.723  0.3937 -0.6431  1.5265
    1SOL    HW3 6163   1.513   3.575   2.726  0.3773 -0.6339  0.6813
    1SOL    MW4 6164   1.592   3.600   2.752  0.2543 -0.3726  0.8132
    1SOL     OW 6165   1.603   3.857   2.642  0.2761  0.4165  0.2283
    1SOL    HW2 6166   1.520   3.894   2.670  0.4662  0.2169  1.0865
    1SOL    HW3 6167   1.603   3.768   2.678  0.3981  0.0497 -0.6709
    1SOL    MW4 6168   1.592   3.850   2.651  0.3172  0.3417  0.2227
    1SOL     OW 6169   1.365   3.957   2.727 -0.0250 -0.1334  0.1566
    1SOL    HW2 6170   1.352   3.970   2.821 -0.4194  0.6284  0.0062
    1SOL    HW3 6171   1.374   4.046   2.692  0.9860 -0.4576 -0.4055
    1SOL    MW4 6172   1.364   3.971   2.735  0.0564 -0.0756  0.0627
    1SOL     OW 6173   1.369   4.219   2.628 -0.0054  0.0024  0.0574
    1SOL    HW2 6174   1.283   4.248   2.658 -0.0830 -1.1366  0.9544
    1SOL    HW3 6175   1.370   4.243   2.535 -1.9124 -1.3779 -0.3513
    1SOL    MW4 6176   1.357   4.226   2.620 -0.2673 -0.3300  0.1218
    1SOL     OW 6177   1.537   4.419   2.726 -0.0471  0.1157 -0.3793
    1SOL    HW2 6178   1.537   4.393   2.819 -0.6000 -0.8723 -0.6428
    1SOL    HW3 6179   1.480   4.355   2.684  0.1490  0.6046 -1.3981
    1SOL    MW4 6180   1.529   4.407   2.733 -0.0941  0.0505 -0.5484
    1SOL     OW 6181   1.996   0.010   2.664 -0.3294 -0.1473 -0.3822
    1SOL    HW2 6182   2.069   0.069   2.684  0.1271 -1.3692  1.6982
    1SOL    HW3 6183   2.002  -0.004   2.570  1.2929  0.8654 -0.4570
    1SOL    MW4 6184   2.007   0.016   2.654 -0.0551 -0.1750 -0.1175
    1SOL     OW 6185   1.764   0.136   2.739 -0.8104 -0.2958  0.1838
    1SOL    HW2 6186   1.845   0.095   2.708 -1.5160 -1.2366 -0.4072
    1SOL    HW3 6187   1.694   0.094   2.690 -1.6612  0.6476  0.5560
    1SOL    MW4 6188   1.766   0.125   2.729 -1.0158 -0.2954  0.1550
    1SOL     OW 6189   1.784   0.392   2.631  0.1903 -0.4390 -0.1976
    1SOL    HW2 6190   1.866   0.418   2.673  0.1003  0.8095 -0.7669
    1SOL    HW3 6191   1.772   0.301   2.657  1.2907 -0.3645  0.6346
    1SOL    MW4 6192   1.793   0.383   2.640  0.3237 -0.2644 -0.1628
    1SOL     OW 6193   2.027   0.520   2.714  0.3064 -0.0377 -0.4566
    1SOL    HW2 6194   2.099   0.469   2.679 -0.1560 -0.8990 -0.1728
    1SOL    HW3 6195   2.034   0.509   2.809 -1.0059 -1.2669 -0.4827
    1SOL    MW4 6196   2.037   0.512   2.722  0.0722 -0.3136 -0.4227
    1SOL     OW 6197   2.043   0.783   2.655  0.0766  0.0745  0.4287
    1SOL    HW2 6198   2.043   0.690   2.676  1.4758  0.0209  0.2095
    1SOL    HW3 6199   1.972   0.820   2.708 -1.1943 -1.2814 -0.2736
    1SOL    MW4 6200   2.033   0.775   2.665  0.0935 -0.1115  0.3071
    1SOL     OW 6201   1.798   0.891   2.768  0.0791  0.1046  0.2639
    1SOL    HW2 6202   1.800   0.976   2.724  1.6412 -0.6392 -1.1382
    1SOL    HW3 6203   1.738   0.838   2.716 -0.2330  0.0592  0.6596
    1SOL    MW4 6204   1.790   0.896   2.755  0.2440  0.0005  0.1311
    1SOL     OW 6205   1.815   1.138   2.658  0.0831  0.4684 -0.0195
    1SOL    HW2 6206   1.895   1.178   2.690  0.1467  0.7559 -0.5403
    1SOL    HW3 6207   1.821   1.144   2.562 -1.4732  2.2891 -0.0330
    1SOL    MW4 6208   1.826   1.144   2.649 -0.1138  0.7466 -0.0899
    1SOL     OW 6209   2.031   1.298   2.723 -0.2725 -0.0079  0.5213
    1SOL    HW2 6210   2.032   1.290   2.819  0.6393 -0.8035  0.4524
    1SOL    HW3 6211   2.111   1.254   2.695  0.0184  1.1874 -0.5407
    1SOL    MW4 6212   2.042   1.291   2.732 -0.1135  0.0448  0.3719
    1SOL     OW 6213   2.056   1.539   2.608  0.1404  0.1175 -0.5721
    1SOL    HW2 6214   1.970   1.580   2.616  0.0554 -0.2687  0.6713
    1SOL    HW3 6215   2.046   1.454   2.651  1.3668  0.4237  0.3435
    1SOL    MW4 6216   2.043   1.533   2.615  0.2909  0.1070 -0.2871
    1SOL     OW 6217   1.800   1.663   2.670 -0.3194 -0.2757  0.2220
    1SOL    HW2 6218   1.798   1.647   2.765 -2.3591  1.0719  0.4374
    1SOL    HW3 6219   1.718   1.625   2.637  0.1671 -0.3471 -0.9254
    1SOL    MW4 6220   1.789   1.656   2.678 -0.5244 -0.1073  0.0989
    1SOL     OW 6221   1.789   1.941   2.647 -0.2279 -0.0492  0.3777
    1SOL    HW2 6222   1.874   1.977   2.675 -0.0537  0.1919 -0.4409
    1SOL    HW3 6223   1.797   1.847   2.663 -0.1119  0.0720  1.0721
    1SOL    MW4 6224   1.802   1.933   2.653 -0.1895 -0.0014  0.3612
    1SOL     OW 6225   2.022   2.067   2.735  0.2624  0.0617 -0.3119
    1SOL    HW2 6226   1.997   2.066   2.827  0.7343 -1.2313 -0.1787
    1SOL    HW3 6227   2.005   2.156   2.706 -1.1479  0.1428  0.6837
    1SOL    MW4 6228   2.016   2.079   2.743  0.1388 -0.0980 -0.1631
    1SOL     OW 6229   2.004   2.320   2.665  0.1743 -0.2967 -0.3066
    1SOL    HW2 6230   2.090   2.353   2.690  0.0497  0.7272 -1.2060
    1SOL    HW3 6231   2.002   2.326   2.570 -0.1455 -2.1988 -0.4294
    1SOL    MW4 6232   2.015   2.326   2.656  0.1156 -0.4127 -0.4416
    1SOL     OW 6233   1.758   2.444   2.738 -0.1819 -0.1055  0.1483
    1SOL    HW2 6234   1.765   2.426   2.831 -0.0404 -1.1954 -0.0602
    1SOL    HW3 6235   1.838   2.407   2.700 -0.3761  0.0639 -0.4423
    1SOL    MW4 6236   1.769   2.437   2.745 -0.1889 -0.2270  0.0427
    1SOL     OW 6237   1.800   2.706   2.634  0.5302 -0.0298 -0.7050
    1SOL    HW2 6238   1.770   2.617   2.656 -1.0559  0.7929  0.6377
    1SOL    HW3 6239   1.797   2.709   2.538  0.5220 -1.3912 -0.7641
    1SOL    MW4 6240   1.795   2.694   2.624  0.3198 -0.1006 -0.5357
    1SOL     OW 6241   1.983   2.854   2.763  0.1809  0.2007  0.1786
    1SOL    HW2 6242   2.058   2.795   2.755  0.6250  0.9729 -1.5888
    1SOL    HW3 6243   1.912   2.808   2.718 -0.8291 -1.1567  3.0474
    1SOL    MW4 6244   1.984   2.840   2.756  0.1061  0.1235  0.3238
    1SOL     OW 6245   1.984   3.074   2.604 -0.0511 -0.1570 -0.2290
    1SOL    HW2 6246   1.987   2.991   2.651  1.8855 -0.1622 -0.3282
    1SOL    HW3 6247   1.987   3.050   2.511 -1.2011 -0.0411 -0.3002
    1SOL    MW4 6248   1.985   3.060   2.598  0.0526 -0.1426 -0.2515
    1SOL     OW 6249   1.806   3.203   2.763  0.3905  0.3537  0.2360
    1SOL    HW2 6250   1.803   3.292   2.729  1.5029  0.3444  0.1052
    1SOL    HW3 6251   1.870   3.158   2.708  0.6258 -0.2348  0.9769
    1SOL    MW4 6252   1.814   3.209   2.751  0.5685  0.2747  0.3166
    1SOL     OW 6253   1.797   3.459   2.633 -0.0508 -0.0843 -0.0279
    1SOL    HW2 6254   1.881   3.500   2.653 -0.3399  0.2602  0.4723
    1SOL    HW3 6255   1.794   3.456   2.537  1.1025 -1.2794 -0.0478
    1SOL    MW4 6256   1.808   3.464   2.623  0.0632 -0.1965  0.0355
    1SOL     OW 6257   2.020   3.606   2.708 -0.5025 -0.1959  0.1449
    1SOL    HW2 6258   2.036   3.608   2.802  1.1023  0.3977 -0.1194
    1SOL    HW3 6259   2.093   3.555   2.672 -1.7221 -1.4136 -0.6766
    1SOL    MW4 6260   2.031   3.600   2.716 -0.4518 -0.2782  0.0014
    1SOL     OW 6261   2.022   3.875   2.605 -0.2315  0.2659 -0.0938
    1SOL    HW2 6262   1.949   3.924   2.644  0.2091  1.1394 -0.3643
    1SOL    HW3 6263   2.015   3.787   2.644 -0.6848  0.6995  0.8175
    1SOL    MW4 6264   2.011   3.870   2.615 -0.2332  0.4382 -0.0091
    1SOL     OW 6265   1.828   4.014   2.730 -0.0629  0.0857  0.1436
    1SOL    HW2 6266   1.803   4.101   2.699  1.0619 -0.0836 -1.2953
    1SOL    HW3 6267   1.756   3.957   2.705 -0.6826  0.5537  0.8525
    1SOL    MW4 6268   1.816   4.018   2.723  0.0037  0.1254  0.0474
    1SOL     OW 6269   1.767   4.270   2.652  0.1384  0.0781 -0.1831
    1SOL    HW2 6270   1.692   4.329   2.667  1.1557  1.5259 -0.7243
    1SOL    HW3 6271   1.792   4.286   2.561  0.3188 -1.3324 -0.3791
    1SOL    MW4 6272   1.760   4.280   2.642  0.2965  0.0830 -0.2806
    1SOL     OW 6273   1.972   4.409   2.777 -0.4905  0.5528  0.2233
    1SOL    HW2 6274   1.893   4.361   2.752  0.7011  0.0586 -2.7746
    1SOL    HW3 6275   1.958   4.498   2.745  0.1746  0.4454 -0.3798
    1SOL    MW4 6276   1.960   4.414   2.770 -0.2456  0.4730 -0.2520
    1SOL     OW 6277   2.423   4.660   2.613  0.1713 -0.5190  0.3279
    1SOL    HW2 6278   2.509   4.699   2.630 -0.3087  0.5915  0.1999
    1SOL    HW3 6279   2.412   4.668   2.518 -0.8145  0.8863  0.5512
    1SOL    MW4 6280   2.433   4.666   2.603 -0.0217 -0.1869  0.3405
    1SOL     OW 6281   2.238   0.151   2.745  0.3084  0.5629  0.1269
    1SOL    HW2 6282   2.302   0.087   2.714 -0.2508  0.3592 -0.6165
    1SOL    HW3 6283   2.228   0.132   2.839 -1.8930 -2.2439 -0.6105
    1SOL    MW4 6284   2.245   0.140   2.753 -0.0556  0.1657 -0.0682
    1SOL     OW 6285   2.247   0.390   2.625 -0.4429  0.2198  0.3701
    1SOL    HW2 6286   2.238   0.377   2.530 -0.3914  0.5694  0.3154
    1SOL    HW3 6287   2.248   0.301   2.661  0.0181  0.0647 -0.0027
    1SOL    MW4 6288   2.246   0.376   2.617 -0.3753  0.2455  0.3140
    1SOL     OW 6289   2.481   0.508   2.714 -0.0476 -0.4387 -0.2133
    1SOL    HW2 6290   2.482   0.589   2.662  0.1500 -1.3467 -1.6771
    1SOL    HW3 6291   2.404   0.460   2.682 -1.2173 -0.0331  1.9263
    1SOL    MW4 6292   2.471   0.512   2.703 -0.1760 -0.5050 -0.1242
    1SOL     OW 6293   2.485   0.787   2.614  0.7493 -0.2857  0.4604
    1SOL    HW2 6294   2.404   0.816   2.655  0.7955  1.5559 -0.7025
    1SOL    HW3 6295   2.463   0.775   2.522  2.2806  2.3124 -0.2915
    1SOL    MW4 6296   2.472   0.789   2.607  0.9573  0.3000  0.2077
    1SOL     OW 6297   2.275   0.889   2.754 -0.0515  0.3544 -0.2185
    1SOL    HW2 6298   2.285   0.895   2.849  0.4006 -0.8702 -0.1817
    1SOL    HW3 6299   2.184   0.861   2.741  0.6186 -2.0339 -0.0296
    1SOL    MW4 6300   2.264   0.886   2.765  0.0966 -0.1222 -0.1888
    1SOL     OW 6301   2.252   1.162   2.625 -0.2259 -0.2479  0.3306
    1SOL    HW2 6302   2.264   1.082   2.677  0.1445 -0.6414 -0.3567
    1SOL    HW3 6303   2.326   1.218   2.649  1.2297 -1.3553 -1.4714
    1SOL    MW4 6304   2.263   1.159   2.635  0.0148 -0.4460  0.0021
    1SOL     OW 6305   2.472   1.301   2.732 -0.3245  0.0540  0.3849
    1SOL    HW2 6306   2.470   1.392   2.702 -0.0132  0.3586  1.2667
    1SOL    HW3 6307   2.556   1.267   2.701 -0.2716  0.1842  0.3853
    1SOL    MW4 6308   2.483   1.308   2.724 -0.2763  0.1113  0.5012
    1SOL     OW 6309   2.517   1.555   2.629  0.1955 -0.0517  0.6264
    1SOL    HW2 6310   2.452   1.617   2.664 -0.1381  0.2047 -0.4301
    1SOL    HW3 6311   2.600   1.583   2.668  0.1694  1.5340 -0.4006
    1SOL    MW4 6312   2.519   1.567   2.639  0.1478  0.1913  0.3514
    1SOL     OW 6313   2.279   1.656   2.737  0.5222 -0.1036 -0.3727
    1SOL    HW2 6314   2.257   1.746   2.712  1.6621  0.4191  0.4448
    1SOL    HW3 6315   2.227   1.601   2.679 -1.3214  1.0800  0.1181
    1SOL    MW4 6316   2.269   1.661   2.726  0.4294  0.1215 -0.2000
    1SOL     OW 6317   2.244   1.926   2.678  0.0855 -0.1832  0.2481
    1SOL    HW2 6318   2.163   1.973   2.696  0.9740  1.7690 -0.7184
    1SOL    HW3 6319   2.261   1.940   2.585  0.7573 -1.8289  0.0969
    1SOL    MW4 6320   2.236   1.934   2.668  0.2913 -0.1426  0.1004
    1SOL     OW 6321   2.476   2.059   2.737  0.5036  0.3692  0.1949
    1SOL    HW2 6322   2.453   2.151   2.731  1.9166  0.6895 -0.5427
    1SOL    HW3 6323   2.392   2.013   2.740 -0.2217  1.5856 -0.9224
    1SOL    MW4 6324   2.462   2.065   2.736  0.5944  0.5717 -0.0501
    1SOL     OW 6325   2.466   2.325   2.654 -0.5309 -0.1512 -0.2410
    1SOL    HW2 6326   2.543   2.366   2.693 -1.5763  0.3518  1.3595
    1SOL    HW3 6327   2.475   2.342   2.560  1.8797 -1.1051 -0.2092
    1SOL    MW4 6328   2.477   2.333   2.646 -0.3507 -0.2108 -0.0253
    1SOL     OW 6329   2.247   2.423   2.756  0.7010  0.2113  0.3297
    1SOL    HW2 6330   2.257   2.421   2.852  1.1276 -2.1537  0.2636
    1SOL    HW3 6331   2.330   2.390   2.723 -0.2649 -1.1460 -0.7877
    1SOL    MW4 6332   2.259   2.418   2.764  0.6297 -0.2797  0.1733
    1SOL     OW 6333   2.219   2.703   2.717  0.0294 -0.1245 -0.0014
    1SOL    HW2 6334   2.307   2.737   2.733 -0.2370 -0.2715  1.9001
    1SOL    HW3 6335   2.226   2.610   2.738 -0.1875 -0.4594 -1.4126
    1SOL    MW4 6336   2.232   2.695   2.722 -0.0343 -0.1881  0.0632
    1SOL     OW 6337   2.447   2.836   2.775  0.0306  0.0583  0.1338
    1SOL    HW2 6338   2.515   2.792   2.725  0.5527  0.4087  0.5329
    1SOL    HW3 6339   2.458   2.929   2.755  0.7597  0.2863  1.4994
    1SOL    MW4 6340   2.457   2.842   2.766  0.1960  0.1347  0.3667
    1SOL     OW 6341   2.478   3.104   2.706 -0.1973 -0.0808 -0.2352
    1SOL    HW2 6342   2.394   3.144   2.728  0.6265  1.6992 -0.2648
    1SOL    HW3 6343   2.483   3.110   2.611  0.6786  1.3130 -0.1127
    1SOL    MW4 6344   2.467   3.110   2.696  0.0269  0.3378 -0.2229
    1SOL     OW 6345   2.232   3.220   2.728  0.1966  0.1297  0.2990
    1SOL    HW2 6346   2.228   3.201   2.822  0.2546  1.1432  0.5169
    1SOL    HW3 6347   2.157   3.175   2.691  1.3193 -2.0171  0.5092
    1SOL    MW4 6348   2.222   3.212   2.736  0.3521 -0.0198  0.3552
    1SOL     OW 6349   2.239   3.477   2.608 -0.5039  0.5819 -0.1658
    1SOL    HW2 6350   2.322   3.516   2.635  0.0020  0.5604 -1.6798
    1SOL    HW3 6351   2.242   3.388   2.642  0.5982  0.2148 -1.2262
    1SOL    MW4 6352   2.250   3.470   2.616 -0.2916  0.5307 -0.5054
    1SOL     OW 6353   2.479   3.595   2.728 -0.1217 -0.0561 -0.4412
    1SOL    HW2 6354   2.478   3.597   2.824 -3.1154  0.3326 -0.4159
    1SOL    HW3 6355   2.472   3.688   2.703 -3.1857 -0.3841 -0.9554
    1SOL    MW4 6356   2.478   3.608   2.737 -0.9210 -0.0482 -0.5057
    1SOL     OW 6357   2.452   3.836   2.587  0.1923 -0.4481  0.2293
    1SOL    HW2 6358   2.524   3.883   2.630 -0.3589 -0.6552  1.3949
    1SOL    HW3 6359   2.373   3.878   2.620 -0.2296  0.8887 -2.3139
    1SOL    MW4 6360   2.451   3.848   2.597  0.0639 -0.2992  0.0474
    1SOL     OW 6361   2.249   4.007   2.692  0.2257 -0.2026 -0.6417
    1SOL    HW2 6362   2.240   4.014   2.787 -0.3114  0.0648 -0.7099
    1SOL    HW3 6363   2.167   3.966   2.663  0.0121  0.5235 -1.0824
    1SOL    MW4 6364   2.237   4.002   2.701  0.1266 -0.0715 -0.7088
    1SOL     OW 6365   2.193   4.278   2.666  0.0849 -0.1801 -0.0984
    1SOL    HW2 6366   2.202   4.186   2.693 -0.3424 -0.4018 -0.6723
    1SOL    HW3 6367   2.124   4.313   2.723  0.4723 -0.1274  0.3354
    1SOL    MW4 6368   2.185   4.270   2.677  0.0794 -0.2022 -0.1171
    1SOL     OW 6369   2.426   4.401   2.707  0.1666 -0.2040 -0.0595
    1SOL    HW2 6370   2.344   4.356   2.686  0.0620 -0.6698  1.2759
    1SOL    HW3 6371   2.418   4.487   2.666 -1.3120  0.0300  0.6955
    1SOL    MW4 6372   2.414   4.406   2.699 -0.0422 -0.2346  0.2162
    1SOL     OW 6373   2.878   4.638   2.600 -0.1478 -0.3585 -0.2642
    1SOL    HW2 6374   2.948   4.691   2.637  0.2010 -1.2302  0.3555
    1SOL    HW3 6375   2.889   4.645   2.506  0.3717  0.0366 -0.1744
    1SOL    MW4 6376   2.889   4.646   2.593 -0.0334 -0.4215 -0.1707
    1SOL     OW 6377   2.647   0.111   2.679  0.2252 -0.2349 -0.0111
    1SOL    HW2 6378   2.643   0.118   2.775  1.4026 -1.3554  0.1401
    1SOL    HW3 6379   2.715   0.045   2.663  0.1808  0.0918 -1.6254
    1SOL    MW4 6380   2.656   0.104   2.690  0.3748 -0.3396 -0.2043
    1SOL     OW 6381   2.687   0.363   2.595  0.3698  0.2908  0.1071
    1SOL    HW2 6382   2.676   0.272   2.623  1.2360  0.3643  0.7353
    1SOL    HW3 6383   2.615   0.410   2.636 -1.7593 -0.5728 -2.5320
    1SOL    MW4 6384   2.676   0.357   2.604  0.2031  0.1865 -0.1583
    1SOL     OW 6385   2.900   0.482   2.710 -0.3427  0.6540  0.3938
    1SOL    HW2 6386   2.901   0.574   2.682 -1.1319  0.1247 -1.4335
    1SOL    HW3 6387   2.817   0.448   2.678  0.8927 -1.2594 -0.8917
    1SOL    MW4 6388   2.889   0.490   2.702 -0.2837  0.3317 -0.0169
    1SOL     OW 6389   2.919   0.742   2.625  0.2908 -0.9085 -0.3270
    1SOL    HW2 6390   2.998   0.764   2.674  0.0813 -2.3950  0.7206
    1SOL    HW3 6391   2.851   0.798   2.662  0.4365 -1.0332  0.1276
    1SOL    MW4 6392   2.920   0.752   2.636  0.2825 -1.1212 -0.1290
    1SOL     OW 6393   2.717   0.922   2.696 -0.0368 -0.3061  0.6129
    1SOL    HW2 6394   2.706   0.917   2.791 -0.3463 -1.5695  0.5166
    1SOL    HW3 6395   2.635   0.888   2.661  1.3565 -2.9943 -0.1063
    1SOL    MW4 6396   2.705   0.917   2.704  0.1061 -0.8274  0.5054
    1SOL     OW 6397   2.714   1.183   2.605  0.3566  0.1043 -0.3143
    1SOL    HW2 6398   2.786   1.227   2.650  1.3806 -0.6489 -1.1632
    1SOL    HW3 6399   2.724   1.091   2.628  0.2296 -0.1312 -1.1828
    1SOL    MW4 6400   2.725   1.177   2.614  0.4749 -0.0263 -0.5410
    1SOL     OW 6401   2.944   1.287   2.712 -0.1140 -0.0772  0.1342
    1SOL    HW2 6402   2.934   1.278   2.807  0.5680 -0.4193  0.1805
    1SOL    HW3 6403   3.028   1.245   2.693 -0.0317  0.3930 -0.5609
    1SOL    MW4 6404   2.954   1.280   2.722 -0.0136 -0.0603  0.0486
    1SOL     OW 6405   2.979   1.550   2.646 -0.1127 -0.3502  0.0633
    1SOL    HW2 6406   2.897   1.586   2.681  0.5307 -0.6220  1.8917
    1SOL    HW3 6407   2.975   1.457   2.668  0.8553 -0.2947  0.4817
    1SOL    MW4 6408   2.967   1.543   2.653  0.0999 -0.3787  0.3598
    1SOL     OW 6409   2.741   1.654   2.743  0.2991 -0.4205  0.0978
    1SOL    HW2 6410   2.716   1.659   2.836 -1.9757 -0.3896 -0.4760
    1SOL    HW3 6411   2.728   1.742   2.710  2.0286 -0.2090 -0.0483
    1SOL    MW4 6412   2.736   1.666   2.751  0.2272 -0.3886  0.0029
    1SOL     OW 6413   2.710   1.915   2.633  0.2185  0.0029  0.1620
    1SOL    HW2 6414   2.783   1.958   2.678  0.2024  1.2901 -0.9962
    1SOL    HW3 6415   2.632   1.956   2.668  0.1832  0.6239 -0.6272
    1SOL    MW4 6416   2.709   1.926   2.643  0.2115  0.2548 -0.0949
    1SOL     OW 6417   2.912   2.042   2.769  0.1792 -0.0859 -0.3437
    1SOL    HW2 6418   2.989   2.003   2.729  0.5412  0.4169 -0.1406
    1SOL    HW3 6419   2.914   2.133   2.741 -0.9369 -0.3270 -1.2233
    1SOL    MW4 6420   2.922   2.049   2.760  0.0796 -0.0513 -0.4330
    1SOL     OW 6421   2.934   2.288   2.653  0.7073 -0.1160  0.4801
    1SOL    HW2 6422   3.005   2.338   2.693 -1.1282  2.0945  1.0747
    1SOL    HW3 6423   2.854   2.335   2.678 -0.8000 -1.0517 -2.3033
    1SOL    MW4 6424   2.933   2.301   2.661  0.2666  0.0522  0.1912
    1SOL     OW 6425   2.706   2.431   2.748  0.4427  0.2642 -0.0919
    1SOL    HW2 6426   2.673   2.428   2.837  0.7353  0.2564  0.0161
    1SOL    HW3 6427   2.709   2.525   2.727  0.9188  0.2982  0.1116
    1SOL    MW4 6428   2.702   2.443   2.757  0.5441  0.2680 -0.0510
    1SOL     OW 6429   2.663   2.712   2.665  0.0565 -0.2392 -0.0703
    1SOL    HW2 6430   2.731   2.777   2.683 -0.7257  0.2290  1.2013
    1SOL    HW3 6431   2.663   2.704   2.569  1.0390  0.6708 -0.1566
    1SOL    MW4 6432   2.672   2.719   2.655  0.0830 -0.0575  0.0858
    1SOL     OW 6433   2.887   2.866   2.711  0.2835 -0.1823  0.1293
    1SOL    HW2 6434   2.968   2.828   2.675  0.8017  0.4047  0.6498
    1SOL    HW3 6435   2.896   2.853   2.806 -0.3848 -0.3942  0.1651
    1SOL    MW4 6436   2.899   2.859   2.719  0.2637 -0.1330  0.2027
    1SOL     OW 6437   2.939   3.148   2.624  0.0224 -0.2120 -0.4847
    1SOL    HW2 6438   2.860   3.189   2.658 -1.3484 -1.3549 -2.1732
    1SOL    HW3 6439   2.934   3.058   2.655  0.9101 -0.1710 -0.2125
    1SOL    MW4 6440   2.928   3.141   2.632 -0.0410 -0.3574 -0.6716
    1SOL     OW 6441   2.712   3.204   2.765 -0.4847  0.2993  0.4212
    1SOL    HW2 6442   2.700   3.292   2.730  0.7691  0.5324  0.5639
    1SOL    HW3 6443   2.631   3.158   2.742 -1.3382  1.6116  0.7265
    1SOL    MW4 6444   2.700   3.210   2.758 -0.4318  0.5033  0.4802
    1SOL     OW 6445   2.692   3.451   2.625  0.1029 -0.3589 -0.0208
    1SOL    HW2 6446   2.622   3.506   2.660  0.0490 -0.5428  0.1649
    1SOL    HW3 6447   2.689   3.465   2.531  0.2136  0.1043  0.0415
    1SOL    MW4 6448   2.683   3.460   2.617  0.1101 -0.3221  0.0122
    1SOL     OW 6449   2.909   3.634   2.714  0.4932  0.0920 -0.0548
    1SOL    HW2 6450   2.930   3.620   2.806 -0.2689 -0.5793  0.0277
    1SOL    HW3 6451   2.841   3.569   2.694  0.2733  0.5698 -0.9478
    1SOL    MW4 6452   2.903   3.624   2.723  0.3638  0.0663 -0.1616
    1SOL     OW 6453   2.906   3.921   2.595  0.5118  0.4077 -0.3334
    1SOL    HW2 6454   2.981   3.964   2.636  0.1707 -0.5166  1.3252
    1SOL    HW3 6455   2.914   3.829   2.620 -1.1638  0.2973 -0.1306
    1SOL    MW4 6456   2.917   3.915   2.604  0.2458  0.2713 -0.0877
    1SOL     OW 6457   2.654   3.978   2.724  0.0211 -0.2434  0.0350
    1SOL    HW2 6458   2.639   4.065   2.686 -1.4217 -0.6407 -0.3145
    1SOL    HW3 6459   2.731   3.944   2.676 -0.6851 -0.0109 -1.2928
    1SOL    MW4 6460   2.662   3.985   2.712 -0.2623 -0.2651 -0.1864
    1SOL     OW 6461   2.655   4.239   2.617  0.1055  0.0888 -0.4113
    1SOL    HW2 6462   2.729   4.281   2.661 -0.2687 -0.6713  0.9717
    1SOL    HW3 6463   2.578   4.289   2.644 -0.2211 -0.8640  0.4517
    1SOL    MW4 6464   2.655   4.251   2.627  0.0131 -0.1369 -0.1147
    1SOL     OW 6465   2.874   4.392   2.715 -0.3264  0.4448 -0.1027
    1SOL    HW2 6466   2.892   4.405   2.808  1.5357 -1.3764 -0.1746
    1SOL    HW3 6467   2.870   4.480   2.678 -2.0830  1.2258  1.8696
    1SOL    MW4 6468   2.876   4.405   2.722 -0.3126  0.3076  0.1483
    1SOL     OW 6469   3.367   0.002   2.688 -0.4234  0.2438 -0.2778
    1SOL    HW2 6470   3.348  -0.089   2.711  0.4070  0.6042  2.0074
    1SOL    HW3 6471   3.282   0.045   2.689 -0.8314 -0.5114 -1.4334
    1SOL    MW4 6472   3.354  -0.005   2.691 -0.3679  0.1917 -0.1290
    1SOL     OW 6473   3.109   0.095   2.700  0.0528 -0.0671  0.4108
    1SOL    HW2 6474   3.099   0.112   2.794 -1.6798  0.4690  0.1596
    1SOL    HW3 6475   3.102   0.182   2.660  0.8933 -0.2847 -0.2070
    1SOL    MW4 6476   3.106   0.109   2.707 -0.0648 -0.0251  0.2961
    1SOL     OW 6477   3.131   0.369   2.604 -0.2472  0.1847 -0.3461
    1SOL    HW2 6478   3.054   0.413   2.640 -0.1500 -0.3940  0.5712
    1SOL    HW3 6479   3.126   0.386   2.510 -1.5024  0.1546 -0.2967
    1SOL    MW4 6480   3.120   0.377   2.596 -0.3998  0.1044 -0.2189
    1SOL     OW 6481   3.361   0.491   2.727  0.3575  0.3649  0.1278
    1SOL    HW2 6482   3.363   0.584   2.704 -0.6001  0.6175  1.0455
    1SOL    HW3 6483   3.279   0.459   2.692  0.7053 -0.1447 -0.2195
    1SOL    MW4 6484   3.351   0.499   2.720  0.2768  0.3310  0.2029
    1SOL     OW 6485   3.369   0.769   2.647  0.0830  0.4704  0.0489
    1SOL    HW2 6486   3.450   0.805   2.682  1.0599 -0.0091 -1.6563
    1SOL    HW3 6487   3.376   0.782   2.552 -1.3993 -0.4428 -0.2031
    1SOL    MW4 6488   3.381   0.775   2.639  0.0165  0.2866 -0.2096
    1SOL     OW 6489   3.125   0.907   2.722 -0.2280 -0.0117  0.6694
    1SOL    HW2 6490   3.126   0.912   2.818  0.0167  0.4258  0.6417
    1SOL    HW3 6491   3.202   0.854   2.700  0.1166  0.4885  0.6746
    1SOL    MW4 6492   3.135   0.901   2.732 -0.1502  0.1120  0.6664
    1SOL     OW 6493   3.163   1.153   2.625 -0.0520 -0.1541 -0.5824
    1SOL    HW2 6494   3.134   1.067   2.657 -1.6750  0.3454 -0.6657
    1SOL    HW3 6495   3.154   1.147   2.530 -0.5011  0.2159 -0.5653
    1SOL    MW4 6496   3.158   1.141   2.617 -0.3254 -0.0396 -0.5908
    1SOL     OW 6497   3.381   1.302   2.709  0.2346 -0.1020  0.4179
    1SOL    HW2 6498   3.360   1.328   2.799 -1.3508  0.4805 -0.0836
    1SOL    HW3 6499   3.307   1.247   2.682  0.0731  0.7457 -0.9353
    1SOL    MW4 6500   3.368   1.298   2.717  0.0041  0.0868  0.1731
    1SOL     OW 6501   3.412   1.555   2.598 -0.3552 -0.2376 -0.4310
    1SOL    HW2 6502   3.338   1.586   2.649  0.0304  0.8435 -0.5171
    1SOL    HW3 6503   3.410   1.459   2.608 -0.5358 -0.0683  1.2357
    1SOL    MW4 6504   3.402   1.546   2.606 -0.3283 -0.0726 -0.2224
    1SOL     OW 6505   3.207   1.693   2.746  0.4591 -0.0676  0.2662
    1SOL    HW2 6506   3.132   1.638   2.725 -0.0707  1.2048 -1.2561
    1SOL    HW3 6507   3.197   1.713   2.839 -0.4866 -0.8015  0.3268
    1SOL    MW4 6508   3.196   1.689   2.756  0.2644  0.0035  0.0732
    1SOL     OW 6509   3.141   1.947   2.662 -0.3430  0.7335  0.3050
    1SOL    HW2 6510   3.223   1.996   2.670 -0.6027  1.4816 -1.3863
    1SOL    HW3 6511   3.165   1.856   2.682  0.5163  1.2416  1.6348
    1SOL    MW4 6512   3.155   1.941   2.666 -0.2639  0.8992  0.2570
    1SOL     OW 6513   3.386   2.086   2.696  0.2706 -0.1032  0.2622
    1SOL    HW2 6514   3.405   2.094   2.790  1.5001  0.4982 -0.0252
    1SOL    HW3 6515   3.371   2.176   2.667  0.7795 -0.1917 -0.2925
    1SOL    MW4 6516   3.386   2.099   2.705  0.5000 -0.0358  0.1512
    1SOL     OW 6517   3.357   2.360   2.619 -0.0260  0.5258  0.0230
    1SOL    HW2 6518   3.447   2.380   2.645  0.2704  0.4564 -0.9362
    1SOL    HW3 6519   3.362   2.346   2.525 -0.9024 -0.3012  0.0997
    1SOL    MW4 6520   3.370   2.361   2.610 -0.1025  0.4075 -0.0935
    1SOL     OW 6521   3.120   2.459   2.722  0.0691  0.1105  0.5322
    1SOL    HW2 6522   3.203   2.421   2.694  0.0141 -0.2117  0.7971
    1SOL    HW3 6523   3.121   2.450   2.818 -0.9065 -1.2132  0.4292
    1SOL    MW4 6524   3.131   2.453   2.731 -0.0668 -0.1066  0.5534
    1SOL     OW 6525   3.116   2.708   2.611  0.5469  0.4500 -0.2731
    1SOL    HW2 6526   3.196   2.749   2.645 -0.1810  0.8341  1.0320
    1SOL    HW3 6527   3.116   2.621   2.650 -0.1249  0.7708  0.4428
    1SOL    MW4 6528   3.127   2.702   2.621  0.3622  0.5429 -0.0062
    1SOL     OW 6529   3.350   2.845   2.705  0.2747 -0.0321  0.1398
    1SOL    HW2 6530   3.340   2.840   2.800  0.5987 -0.0456  0.1728
    1SOL    HW3 6531   3.428   2.793   2.686 -0.0099 -0.3456 -0.1730
    1SOL    MW4 6532   3.359   2.837   2.715  0.2799 -0.0753  0.1030
    1SOL     OW 6533   3.357   3.104   2.600  0.2194 -0.3873 -0.0526
    1SOL    HW2 6534   3.369   3.013   2.628  0.4421 -0.4756 -0.4282
    1SOL    HW3 6535   3.368   3.101   2.505  1.1694  0.1790  0.0263
    1SOL    MW4 6536   3.360   3.091   2.591  0.3741 -0.3242 -0.0920
    1SOL     OW 6537   3.175   3.252   2.733  0.2690 -0.0602  0.1081
    1SOL    HW2 6538   3.240   3.200   2.686  0.8358 -0.2549  1.0896
    1SOL    HW3 6539   3.091   3.214   2.708  0.5411  0.0441 -0.9858
    1SOL    MW4 6540   3.172   3.240   2.723  0.3800 -0.0722  0.0930
    1SOL     OW 6541   3.168   3.514   2.626 -0.3642  0.6891  0.0613
    1SOL    HW2 6542   3.195   3.438   2.677  1.3876  0.9688 -0.4198
    1SOL    HW3 6543   3.086   3.543   2.666  0.1230 -0.1030  1.6487
    1SOL    MW4 6544   3.161   3.508   2.638 -0.0687  0.6213  0.2072
    1SOL     OW 6545   3.389   3.656   2.689  0.6526 -0.1830 -0.1765
    1SOL    HW2 6546   3.384   3.639   2.783 -1.6151 -1.4936 -0.5027
    1SOL    HW3 6547   3.310   3.617   2.653  1.1497  0.9041 -2.5607
    1SOL    MW4 6548   3.378   3.648   2.697  0.4189 -0.2127 -0.5341
    1SOL     OW 6549   3.374   3.921   2.594 -0.5377  0.1923 -0.1749
    1SOL    HW2 6550   3.386   3.830   2.621 -0.1155  0.1940 -0.3410
    1SOL    HW3 6551   3.348   3.915   2.502  0.6035  0.2701 -0.5179
    1SOL    MW4 6552   3.372   3.908   2.585 -0.3312  0.2029 -0.2418
    1SOL     OW 6553   3.154   3.991   2.727  0.1629  0.2843 -0.5165
    1SOL    HW2 6554   3.143   4.079   2.689 -0.2935  1.0497  1.3288
    1SOL    HW3 6555   3.232   3.956   2.684  0.3317  1.5733 -1.2958
    1SOL    MW4 6556   3.163   3.998   2.716  0.1249  0.5553 -0.3755
    1SOL     OW 6557   3.106   4.240   2.621  0.2890  0.3805 -0.0999
    1SOL    HW2 6558   3.030   4.294   2.642  0.6578  0.8274  0.0935
    1SOL    HW3 6559   3.110   4.242   2.525 -0.4356 -0.3327 -0.1474
    1SOL    MW4 6560   3.096   4.248   2.611  0.2420  0.3457 -0.0803
    1SOL     OW 6561   3.335   4.378   2.705  0.3211 -0.5511 -0.1696
    1SOL    HW2 6562   3.317   4.385   2.799  1.4942  0.8268 -0.0207
    1SOL    HW3 6563   3.258   4.334   2.669 -0.4930 -0.3897  1.3218
    1SOL    MW4 6564   3.323   4.373   2.713  0.3686 -0.3476  0.0472
    1SOL     OW 6565   3.800   0.002   2.647 -0.2013  0.4386  0.0293
    1SOL    HW2 6566   3.803  -0.088   2.681  1.5984 -0.0214 -1.2515
    1SOL    HW3 6567   3.738   0.047   2.704 -0.4668 -1.3906  1.2433
    1SOL    MW4 6568   3.792  -0.004   2.659  0.0010  0.1366  0.0205
    1SOL     OW 6569   3.601   0.157   2.758 -0.0145 -0.2172 -0.2720
    1SOL    HW2 6570   3.591   0.247   2.725  0.3187  0.2736  0.9358
    1SOL    HW3 6571   3.519   0.114   2.736 -0.1168  0.3411 -0.9973
    1SOL    MW4 6572   3.589   0.163   2.751  0.0160 -0.0788 -0.2081
    1SOL     OW 6573   3.577   0.412   2.610 -0.1317 -0.1014  0.7379
    1SOL    HW2 6574   3.639   0.459   2.666  0.5398  0.2383 -0.2698
    1SOL    HW3 6575   3.492   0.433   2.647  0.1903  1.5762  0.5707
    1SOL    MW4 6576   3.574   0.421   2.622 -0.0005  0.1648  0.5827
    1SOL     OW 6577   3.788   0.515   2.750 -0.7695  0.0107  0.3893
    1SOL    HW2 6578   3.788   0.511   2.846 -0.7066  0.3579  0.4041
    1SOL    HW3 6579   3.875   0.482   2.725 -0.2320  1.3240  0.5123
    1SOL    MW4 6580   3.800   0.510   2.759 -0.6905  0.2298  0.4075
    1SOL     OW 6581   3.836   0.782   2.637  0.3374  0.3600  0.3557
    1SOL    HW2 6582   3.751   0.819   2.662  0.0731 -0.0538  0.0730
    1SOL    HW3 6583   3.836   0.693   2.672  0.7109  0.4053  0.4753
    1SOL    MW4 6584   3.825   0.775   2.645  0.3514  0.3114  0.3345
    1SOL     OW 6585   3.596   0.911   2.729  0.0316 -0.0562  0.2762
    1SOL    HW2 6586   3.584   0.910   2.824 -0.2061 -2.5330  0.2400
    1SOL    HW3 6587   3.618   1.002   2.709 -1.7449  0.9121  2.4769
    1SOL    MW4 6588   3.597   0.923   2.739 -0.2341 -0.2552  0.5620
    1SOL     OW 6589   3.602   1.166   2.629 -0.4942 -0.0252  0.2366
    1SOL    HW2 6590   3.665   1.234   2.654  0.2825 -0.1559 -1.2911
    1SOL    HW3 6591   3.517   1.201   2.653  0.1006  0.4329  1.7338
    1SOL    MW4 6592   3.599   1.179   2.636 -0.3135  0.0180  0.2325
    1SOL     OW 6593   3.789   1.312   2.779  0.2674  0.2574  0.0259
    1SOL    HW2 6594   3.863   1.255   2.758  1.0365  0.8752  1.0075
    1SOL    HW3 6595   3.815   1.398   2.747 -1.0284  0.0183 -1.7375
    1SOL    MW4 6596   3.802   1.316   2.772  0.1979  0.3074 -0.0772
    1SOL     OW 6597   3.817   1.567   2.688  0.3082  0.1963 -0.0455
    1SOL    HW2 6598   3.891   1.624   2.709 -0.4455  1.4468 -0.6420
    1SOL    HW3 6599   3.740   1.618   2.715 -0.2975 -1.5951  1.7297
    1SOL    MW4 6600   3.816   1.582   2.694  0.1290  0.1251  0.1101
    1SOL     OW 6601   3.593   1.715   2.757  0.0683  0.3349  0.0245
    1SOL    HW2 6602   3.589   1.807   2.732 -2.9703 -0.3898 -2.3801
    1SOL    HW3 6603   3.535   1.670   2.696  0.0461 -2.9505  2.3002
    1SOL    MW4 6604   3.585   1.721   2.746 -0.3355 -0.1943  0.0074
    1SOL     OW 6605   3.591   1.943   2.598  0.0968  0.1035 -0.0064
    1SOL    HW2 6606   3.519   1.996   2.633 -0.4615  0.0857 -1.1291
    1SOL    HW3 6607   3.578   1.944   2.503  0.1895 -1.8635 -0.0657
    1SOL    MW4 6608   3.579   1.950   2.590  0.0353 -0.1584 -0.1624
    1SOL     OW 6609   3.792   2.069   2.742  0.3576 -0.7846 -0.0918
    1SOL    HW2 6610   3.865   2.013   2.715 -0.0075 -0.9063 -0.8172
    1SOL    HW3 6611   3.718   2.039   2.690 -0.2701 -0.8123  0.8079
    1SOL    MW4 6612   3.792   2.057   2.732  0.2267 -0.8042 -0.0689
    1SOL     OW 6613   3.842   2.307   2.636  0.3326 -0.0588 -0.5850
    1SOL    HW2 6614   3.840   2.220   2.676  0.9730 -0.1582 -0.7519
    1SOL    HW3 6615   3.821   2.291   2.544  0.8387 -0.0984 -0.7004
    1SOL    MW4 6616   3.839   2.294   2.629  0.4838 -0.0772 -0.6223
    1SOL     OW 6617   3.609   2.432   2.715  0.1463  0.4315  0.3825
    1SOL    HW2 6618   3.596   2.423   2.809 -0.5454 -0.6874  0.1884
    1SOL    HW3 6619   3.690   2.384   2.697 -0.4108 -0.4785  0.2299
    1SOL    MW4 6620   3.618   2.424   2.725 -0.0184  0.1638  0.3366
    1SOL     OW 6621   3.590   2.712   2.651  0.0725  0.4943 -0.0760
    1SOL    HW2 6622   3.594   2.618   2.664 -0.3053  0.3686 -0.8652
    1SOL    HW3 6623   3.592   2.724   2.556 -0.0063  1.2750  0.0124
    1SOL    MW4 6624   3.591   2.701   2.640  0.0122  0.5805 -0.1686
    1SOL     OW 6625   3.785   2.886   2.754  0.1809 -0.2643  0.1471
    1SOL    HW2 6626   3.862   2.835   2.729 -0.4367 -0.3589 -1.6496
    1SOL    HW3 6627   3.711   2.835   2.720 -0.4837  1.4206 -0.9650
    1SOL    MW4 6628   3.786   2.872   2.746  0.0117 -0.0544 -0.2365
    1SOL     OW 6629   3.792   3.159   2.685  0.0194  0.3498 -0.7285
    1SOL    HW2 6630   3.715   3.211   2.707  0.5425  0.1103  1.9287
    1SOL    HW3 6631   3.772   3.072   2.720  1.7692  0.4819  0.7293
    1SOL    MW4 6632   3.779   3.154   2.693  0.3192  0.3357 -0.1855
    1SOL     OW 6633   3.555   3.277   2.748  0.3681  0.0726  0.2337
    1SOL    HW2 6634   3.562   3.368   2.718 -0.0051  0.1238  0.3011
    1SOL    HW3 6635   3.483   3.240   2.697  0.5376 -0.1944  0.1867
    1SOL    MW4 6636   3.547   3.284   2.737  0.3412  0.0443  0.2365
    1SOL     OW 6637   3.620   3.505   2.602  0.2125  0.5469  0.4708
    1SOL    HW2 6638   3.702   3.530   2.646 -0.4335  1.2158  1.2973
    1SOL    HW3 6639   3.556   3.568   2.633 -0.4884  0.3824 -0.6467
    1SOL    MW4 6640   3.623   3.516   2.612  0.0346  0.6135  0.4323
    1SOL     OW 6641   3.854   3.593   2.730  0.5118 -0.4159  0.3653
    1SOL    HW2 6642   3.934   3.542   2.716  0.4424 -0.7002  0.9631
    1SOL    HW3 6643   3.870   3.675   2.684  1.1968 -0.4235  0.5744
    1SOL    MW4 6644   3.867   3.597   2.722  0.5929 -0.4542  0.4716
    1SOL     OW 6645   3.815   3.912   2.607  0.2558 -0.2096  0.2826
    1SOL    HW2 6646   3.883   3.956   2.657  0.8443  0.2044 -0.8517
    1SOL    HW3 6647   3.733   3.943   2.645  0.6750  1.6625 -0.3255
    1SOL    MW4 6648   3.813   3.922   2.618  0.3889  0.0920  0.0529
    1SOL     OW 6649   3.590   4.062   2.767  0.1002  0.5264  0.8430
    1SOL    HW2 6650   3.593   4.151   2.731  1.4309  0.3592  0.4934
    1SOL    HW3 6651   3.514   4.022   2.726  1.7121  0.2601 -2.0440
    1SOL    MW4 6652   3.581   4.068   2.756  0.4883  0.4697  0.4158
    1SOL     OW 6653   3.600   4.306   2.613  0.1488 -0.0065  0.0300
    1SOL    HW2 6654   3.519   4.348   2.643 -0.5863  0.1500 -2.0341
    1SOL    HW3 6655   3.581   4.280   2.522  1.9130 -1.3272  0.0051
    1SOL    MW4 6656   3.586   4.308   2.605  0.2844 -0.1607 -0.2456
    1SOL     OW 6657   3.828   4.405   2.718  0.1854 -0.2179 -0.1804
    1SOL    HW2 6658   3.907   4.366   2.680  1.3033  0.1613  1.7013
    1SOL    HW3 6659   3.756   4.364   2.670  1.4187 -2.8284  0.1096
    1SOL    MW4 6660   3.828   4.394   2.706  0.4957 -0.5116  0.1059
    1SOL     OW 6661   4.302   0.012   2.667 -0.1210 -0.4697  0.1741
    1SOL    HW2 6662   4.218   0.034   2.706 -0.1869 -0.3596 -0.0331
    1SOL    HW3 6663   4.362   0.080   2.698 -0.1503 -0.4414  0.1687
    1SOL    MW4 6664   4.299   0.024   2.676 -0.1330 -0.4515  0.1459
    1SOL     OW 6665   4.062   0.116   2.754  0.2069 -0.6247 -0.3364
    1SOL    HW2 6666   4.024   0.154   2.833  1.9889 -0.4087  0.4528
    1SOL    HW3 6667   3.990   0.069   2.712 -1.5110  1.8049 -0.1993
    1SOL    MW4 6668   4.048   0.114   2.759  0.2151 -0.2756 -0.2139
    1SOL     OW 6669   4.021   0.395   2.647 -0.0784  0.3180 -0.1072
    1SOL    HW2 6670   4.042   0.308   2.683 -0.0345  0.7034  0.7963
    1SOL    HW3 6671   4.034   0.385   2.552  0.2774 -0.5635  0.0300
    1SOL    MW4 6672   4.025   0.382   2.639 -0.0257  0.2525  0.0300
    1SOL     OW 6673   4.232   0.534   2.749 -0.2188  0.1448  0.5891
    1SOL    HW2 6674   4.163   0.483   2.707 -0.2821 -0.1679  1.0794
    1SOL    HW3 6675   4.313   0.502   2.710 -0.4233  1.3728 -0.9124
    1SOL    MW4 6676   4.234   0.523   2.738 -0.2542  0.2656  0.4559
    1SOL     OW 6677   4.270   0.796   2.677  0.3187  0.2887  0.2283
    1SOL    HW2 6678   4.244   0.708   2.704  0.7361  0.2739  0.5800
    1SOL    HW3 6679   4.300   0.785   2.587  1.1520 -0.0812  0.5405
    1SOL    MW4 6680   4.271   0.783   2.669  0.4845  0.2379  0.3157
    1SOL     OW 6681   4.038   0.902   2.760  0.1708  0.0009 -0.0893
    1SOL    HW2 6682   4.121   0.872   2.723 -0.3424 -0.9724 -0.4529
    1SOL    HW3 6683   3.971   0.858   2.708 -0.5679 -0.1683  0.9914
    1SOL    MW4 6684   4.040   0.892   2.748  0.0057 -0.1498  0.0055
    1SOL     OW 6685   3.986   1.168   2.656 -0.1613 -0.3363 -0.4872
    1SOL    HW2 6686   4.058   1.225   2.682 -1.1353  0.8443 -0.3455
    1SOL    HW3 6687   4.013   1.081   2.684  1.2284  0.0904 -0.4748
    1SOL    MW4 6688   3.999   1.164   2.663 -0.1063 -0.1243 -0.4666
    1SOL     OW 6689   4.214   1.300   2.761 -0.0812  0.0076  0.3887
    1SOL    HW2 6690   4.226   1.386   2.720 -1.7890  0.4856  0.8755
    1SOL    HW3 6691   4.293   1.251   2.737  0.5896  1.4787 -0.4641
    1SOL    MW4 6692   4.226   1.305   2.753 -0.2174  0.2648  0.3402
    1SOL     OW 6693   4.227   1.561   2.620  0.3951 -0.2847 -0.0255
    1SOL    HW2 6694   4.307   1.603   2.651  0.8675 -0.8476 -0.4506
    1SOL    HW3 6695   4.238   1.557   2.525 -0.5163  0.3826 -0.1681
    1SOL    MW4 6696   4.239   1.566   2.611  0.3371 -0.2710 -0.1004
    1SOL     OW 6697   4.024   1.728   2.739 -0.2372 -0.1326  0.0342
    1SOL    HW2 6698   4.036   1.717   2.834 -0.8491  1.1709  0.2768
    1SOL    HW3 6699   4.085   1.666   2.700  1.4529  0.7193  1.2726
    1SOL    MW4 6700   4.033   1.718   2.747 -0.0949  0.1518  0.2296
    1SOL     OW 6701   4.033   1.977   2.628  0.1070 -0.1738  0.0514
    1SOL    HW2 6702   4.108   2.031   2.652  0.9409 -0.4916 -1.7758
    1SOL    HW3 6703   4.050   1.893   2.670 -0.5396  0.5290  1.7954
    1SOL    MW4 6704   4.045   1.973   2.637  0.1311 -0.1229  0.0403
    1SOL     OW 6705   4.251   2.121   2.724 -0.2774 -0.3961  0.0098
    1SOL    HW2 6706   4.275   2.203   2.681 -0.8342  0.0880  0.6115
    1SOL    HW3 6707   4.326   2.064   2.709  0.2987  0.3624 -0.0615
    1SOL    MW4 6708   4.264   2.124   2.716 -0.2742 -0.2320  0.0796
    1SOL     OW 6709   4.301   2.362   2.612 -0.2999  0.0027  0.0789
    1SOL    HW2 6710   4.224   2.411   2.641  1.1904  2.5936 -0.2064
    1SOL    HW3 6711   4.280   2.337   2.521 -1.3048 -0.4047  0.4143
    1SOL    MW4 6712   4.288   2.365   2.604 -0.2356  0.2909  0.0851
    1SOL     OW 6713   4.063   2.445   2.731  0.3347  0.3334  0.1802
    1SOL    HW2 6714   4.051   2.451   2.826  0.3832  3.0039  0.0325
    1SOL    HW3 6715   3.992   2.386   2.702 -2.0642  2.5143  1.4224
    1SOL    MW4 6716   4.052   2.438   2.740  0.0248  0.9732  0.3245
    1SOL     OW 6717   3.997   2.721   2.673  0.6602 -0.1452  0.0267
    1SOL    HW2 6718   4.088   2.753   2.676  0.8278 -0.6106  0.0023
    1SOL    HW3 6719   4.005   2.627   2.686  0.2544 -0.3023 -0.8193
    1SOL    MW4 6720   4.010   2.713   2.675  0.6285 -0.2275 -0.0882
    1SOL     OW 6721   4.269   2.811   2.722  0.0433  0.4314  0.0855
    1SOL    HW2 6722   4.272   2.809   2.818 -0.8440  1.7269  0.1461
    1SOL    HW3 6723   4.250   2.902   2.700  0.4703  0.1908 -1.3397
    1SOL    MW4 6724   4.267   2.823   2.732 -0.0172  0.5708 -0.0947
    1SOL     OW 6725   4.264   3.065   2.655 -0.0642  0.2551  0.2425
    1SOL    HW2 6726   4.184   3.113   2.679 -0.5694 -0.6855  0.4728
    1SOL    HW3 6727   4.275   3.083   2.562 -0.1381  0.9810  0.3712
    1SOL    MW4 6728   4.255   3.074   2.646 -0.1407  0.2265  0.2899
    1SOL     OW 6729   4.052   3.199   2.745 -0.0968  0.0349 -0.3342
    1SOL    HW2 6730   4.077   3.284   2.709 -0.6440 -0.4185 -1.8437
    1SOL    HW3 6731   3.959   3.191   2.725 -0.2149 -0.6201  0.4313
    1SOL    MW4 6732   4.043   3.209   2.738 -0.1841 -0.1111 -0.4320
    1SOL     OW 6733   4.088   3.472   2.668  0.1095 -0.1325  0.2645
    1SOL    HW2 6734   4.153   3.531   2.706  0.7946 -0.6780 -0.0370
    1SOL    HW3 6735   4.087   3.493   2.575 -0.1688 -0.1049  0.2726
    1SOL    MW4 6736   4.097   3.482   2.661  0.1631 -0.2007  0.2260
    1SOL     OW 6737   4.269   3.640   2.759  0.2426  0.3999 -0.1688
    1SOL    HW2 6738   4.287   3.645   2.853  0.6747 -0.2982 -0.2077
    1SOL    HW3 6739   4.335   3.580   2.725 -0.4982 -0.1020 -0.7579
    1SOL    MW4 6740   4.280   3.632   2.767  0.2022  0.2415 -0.2518
    1SOL     OW 6741   4.251   3.904   2.652  0.1057 -0.2437  0.5508
    1SOL    HW2 6742   4.259   3.815   2.687  1.4123 -0.8124 -1.1197
    1SOL    HW3 6743   4.332   3.948   2.679 -0.1261  0.1520  0.6046
    1SOL    MW4 6744   4.263   3.898   2.660  0.2475 -0.2668  0.3376
    1SOL     OW 6745   4.035   4.064   2.728  0.2745  0.0490  0.4627
    1SOL    HW2 6746   4.039   4.063   2.823  1.3833  1.1446  0.4277
    1SOL    HW3 6747   4.110   4.011   2.700 -0.4523 -0.8655  0.1963
    1SOL    MW4 6748   4.045   4.057   2.737  0.3252  0.0730  0.4230
    1SOL     OW 6749   4.052   4.312   2.586  0.0872  0.1265  0.1347
    1SOL    HW2 6750   4.059   4.224   2.623 -0.2589  0.0252 -0.0466
    1SOL    HW3 6751   4.006   4.300   2.503 -0.9200  0.6137  0.6130
    1SOL    MW4 6752   4.047   4.299   2.580 -0.0911  0.1774  0.1738
    1SOL     OW 6753   4.253   4.425   2.752  0.8054 -0.1758 -0.4180
    1SOL    HW2 6754   4.183   4.399   2.692 -0.8851 -0.1316  1.4888
    1SOL    HW3 6755   4.286   4.508   2.717 -0.2419 -0.0862 -1.2027
    1SOL    MW4 6756   4.248   4.432   2.740  0.4444 -0.1578 -0.2701
    1SOL     OW 6757   0.212   4.648   3.154 -0.3377  0.0947  0.1274
    1SOL    HW2 6758   0.224   4.665   3.247  0.4842  0.4530 -0.0399
    1SOL    HW3 6759   0.151   4.715   3.125 -2.6689 -1.6136  0.9460
    1SOL    MW4 6760   0.206   4.659   3.162 -0.5368 -0.0834  0.2136
    1SOL     OW 6761   0.036   0.162   3.051 -0.4188  0.2887 -0.0642
    1SOL    HW2 6762  -0.054   0.129   3.057 -0.6591  0.9977  0.2535
    1SOL    HW3 6763   0.029   0.256   3.067  0.5531  0.1448  1.4057
    1SOL    MW4 6764   0.023   0.170   3.054 -0.3222  0.3633  0.1717
    1SOL     OW 6765   0.021   0.441   3.115  0.5793 -0.4918  0.1542
    1SOL    HW2 6766   0.010   0.452   3.209  0.5207 -0.7952  0.1825
    1SOL    HW3 6767  -0.062   0.472   3.077 -0.3141 -2.5293  0.3512
    1SOL    MW4 6768   0.009   0.446   3.122  0.4535 -0.8007  0.1838
    1SOL     OW 6769   0.264   0.547   3.022 -0.1436  0.3327 -0.2964
    1SOL    HW2 6770   0.323   0.489   3.071  0.3178  1.4363  0.4796
    1SOL    HW3 6771   0.177   0.521   3.051 -0.0796 -1.5318 -1.6994
    1SOL    MW4 6772   0.261   0.536   3.032 -0.0743  0.2323 -0.3791
    1SOL     OW 6773   0.265   0.816   3.108 -0.2959  0.2705  0.3413
    1SOL    HW2 6774   0.245   0.799   3.201  0.2728 -0.0337  0.4098
    1SOL    HW3 6775   0.262   0.730   3.067 -1.3849  0.5094 -0.0918
    1SOL    MW4 6776   0.262   0.803   3.115 -0.3646  0.2619  0.2930
    1SOL     OW 6777   4.484   0.913   3.038 -0.4763 -0.4578  0.3485
    1SOL    HW2 6778   4.555   0.856   3.068  0.4450  0.4439 -0.0993
    1SOL    HW3 6779   4.492   0.911   2.942 -1.3398 -0.7114  0.2804
    1SOL    MW4 6780   4.495   0.905   3.029 -0.4687 -0.3722  0.2804
    1SOL     OW 6781   4.488   1.142   3.157 -0.4960 -0.1043  0.1917
    1SOL    HW2 6782   4.418   1.192   3.114 -2.5731 -1.0215  2.4431
    1SOL    HW3 6783   4.479   1.053   3.123  1.3786  0.3307 -1.5991
    1SOL    MW4 6784   4.478   1.137   3.146 -0.5228 -0.1680  0.2525
    1SOL     OW 6785   0.224   1.290   3.039  0.2320  0.4594  0.9257
    1SOL    HW2 6786   0.156   1.235   3.080 -1.0952  1.1998 -0.2582
    1SOL    HW3 6787   0.198   1.295   2.947  1.2080  1.8117  0.7231
    1SOL    MW4 6788   0.212   1.283   3.032  0.1857  0.7356  0.7427
    1SOL     OW 6789   0.176   1.544   3.098  0.2156  0.4006 -0.5406
    1SOL    HW2 6790   0.113   1.571   3.031 -0.1368  0.0917 -0.3369
    1SOL    HW3 6791   0.189   1.451   3.082 -0.3306  0.1978  0.2030
    1SOL    MW4 6792   0.170   1.535   3.087  0.0970  0.3332 -0.4153
    1SOL     OW 6793   4.440   1.631   2.957  0.1623  0.1655  0.1441
    1SOL    HW2 6794   4.372   1.580   3.001  0.8934  0.4732  1.6599
    1SOL    HW3 6795   4.456   1.705   3.015  1.4610  0.3593 -0.4395
    1SOL    MW4 6796   4.433   1.634   2.970  0.4301  0.2316  0.2670
    1SOL     OW 6797   4.419   1.899   3.122 -0.0546 -0.0818 -0.1078
    1SOL    HW2 6798   4.350   1.962   3.105 -0.4378 -0.4651  0.0295
    1SOL    HW3 6799   4.500   1.947   3.105 -0.3849 -0.0567 -1.7141
    1SOL    MW4 6800   4.421   1.913   3.117 -0.1483 -0.1291 -0.3016
    1SOL     OW 6801   0.148   2.042   3.043 -0.4428  0.1982 -0.0765
    1SOL    HW2 6802   0.155   2.132   3.076 -1.0175  0.3802 -0.4271
    1SOL    HW3 6803   0.152   2.051   2.948 -1.6679 -0.0188 -0.1598
    1SOL    MW4 6804   0.149   2.055   3.035 -0.6803  0.1938 -0.1338
    1SOL     OW 6805   0.192   2.314   3.083  0.0559 -0.1564 -0.0042
    1SOL    HW2 6806   0.203   2.328   3.177 -0.9652 -0.3507  0.1458
    1SOL    HW3 6807   0.271   2.352   3.044 -0.6173  2.0560  0.7430
    1SOL    MW4 6808   0.204   2.321   3.090 -0.1677  0.1097  0.1142
    1SOL     OW 6809   4.455   2.448   3.040 -0.0706  0.9553  0.4239
    1SOL    HW2 6810   4.461   2.531   3.086  1.4915  0.9203  0.3046
    1SOL    HW3 6811   4.532   2.398   3.069 -0.2036  0.1296 -0.6097
    1SOL    MW4 6812   4.466   2.452   3.050  0.1178  0.8419  0.2718
    1SOL     OW 6813   4.488   2.697   3.150  0.3474 -0.0239  0.3082
    1SOL    HW2 6814   4.468   2.717   3.241  0.8092 -0.7036  0.5677
    1SOL    HW3 6815   4.567   2.748   3.131 -0.2795  0.8286  0.0091
    1SOL    MW4 6816   4.496   2.706   3.160  0.3257 -0.0010  0.3033
    1SOL     OW 6817   0.221   2.838   3.048  0.3422  0.3316 -0.1631
    1SOL    HW2 6818   0.299   2.794   3.082  0.8496  1.9425  0.8305
    1SOL    HW3 6819   0.231   2.835   2.953  1.3301  0.0235 -0.0588
    1SOL    MW4 6820   0.233   2.831   3.040  0.5394  0.5035 -0.0184
    1SOL     OW 6821   0.219   3.123   3.134  0.1828  0.1868  0.3266
    1SOL    HW2 6822   0.129   3.140   3.105 -0.4411 -0.1833  1.9824
    1SOL    HW3 6823   0.234   3.031   3.111 -0.4463 -0.2169  1.5177
    1SOL    MW4 6824   0.209   3.113   3.127  0.0175  0.0849  0.7019
    1SOL     OW 6825   4.453   3.206   3.048  0.1963 -0.3997  0.1479
    1SOL    HW2 6826   4.379   3.154   3.078  1.2950 -1.4217  1.1450
    1SOL    HW3 6827   4.448   3.202   2.952 -1.3927  0.0748  0.2045
    1SOL    MW4 6828   4.443   3.198   3.039  0.1321 -0.4718  0.2868
    1SOL     OW 6829   4.476   3.475   3.118 -0.3279  0.1480  0.1942
    1SOL    HW2 6830   4.415   3.528   3.067 -1.7050 -0.9424  0.6769
    1SOL    HW3 6831   4.453   3.384   3.098  0.6624 -0.2827  0.9340
    1SOL    MW4 6832   4.465   3.470   3.109 -0.3791 -0.0527  0.3555
    1SOL     OW 6833   0.224   3.599   3.051  0.6503 -0.5166 -0.1058
    1SOL    HW2 6834   0.209   3.682   3.097  0.3579  0.0379 -1.1821
    1SOL    HW3 6835   0.159   3.539   3.088 -0.0324  0.1153 -0.2702
    1SOL    MW4 6836   0.214   3.602   3.062  0.5217 -0.3600 -0.2694
    1SOL     OW 6837   0.163   3.861   3.105 -0.3774 -0.3251  0.1557
    1SOL    HW2 6838   0.185   3.861   3.198  0.5482 -2.1103 -0.0373
    1SOL    HW3 6839   0.235   3.906   3.062  0.1679 -1.2517  0.0992
    1SOL    MW4 6840   0.175   3.867   3.112 -0.1834 -0.6828  0.1228
    1SOL     OW 6841   4.476   4.052   3.027 -0.1984  0.0430 -0.3420
    1SOL    HW2 6842   4.534   3.985   3.062 -0.3951  0.4050  0.7056
    1SOL    HW3 6843   4.493   4.053   2.933  0.3442 -0.9467 -0.2559
    1SOL    MW4 6844   4.486   4.043   3.019 -0.1531 -0.0401 -0.1922
    1SOL     OW 6845   4.424   4.323   3.128 -0.2312 -0.3790  0.1115
    1SOL    HW2 6846   4.437   4.326   3.222 -1.3978  0.6843  0.2505
    1SOL    HW3 6847   4.438   4.231   3.104  0.0724 -0.6462  1.3108
    1SOL    MW4 6848   4.428   4.311   3.137 -0.3452 -0.2742  0.2882
    1SOL     OW 6849   0.203   4.386   3.047 -0.8004  0.2121 -0.0202
    1SOL    HW2 6850   0.119   4.351   3.076 -1.0123  0.5539 -0.2175
    1SOL    HW3 6851   0.211   4.470   3.093 -0.4845  0.0953  0.1367
    1SOL    MW4 6852   0.193   4.392   3.057 -0.7867  0.2418 -0.0255
    1SOL     OW 6853   0.678   4.644   3.115  0.1264  0.1706  0.0353
    1SOL    HW2 6854   0.689   4.556   3.080  0.6217  0.1501  0.2422
    1SOL    HW3 6855   0.589   4.668   3.091 -0.3161 -0.7286  0.7263
    1SOL    MW4 6856   0.668   4.636   3.108  0.1333  0.0496  0.1533
    1SOL     OW 6857   0.426   0.102   3.039  0.0700  0.2435  0.1298
    1SOL    HW2 6858   0.427   0.192   3.074  0.2554 -0.0449  0.8891
    1SOL    HW3 6859   0.356   0.059   3.087  0.0754 -0.0576 -0.1341
    1SOL    MW4 6860   0.417   0.108   3.050  0.0952  0.1658  0.1953
    1SOL     OW 6861   0.424   0.353   3.134 -0.4046 -0.5827 -0.1984
    1SOL    HW2 6862   0.426   0.353   3.230  0.5859  0.2409 -0.2172
    1SOL    HW3 6863   0.501   0.403   3.108 -1.1943  0.0238 -1.4159
    1SOL    MW4 6864   0.434   0.359   3.144 -0.3781 -0.3940 -0.3617
    1SOL     OW 6865   0.629   0.507   3.029  0.0600 -0.2011 -0.0676
    1SOL    HW2 6866   0.706   0.461   3.064 -0.3568 -1.1375 -0.3468
    1SOL    HW3 6867   0.638   0.596   3.061  0.2745 -0.7643  1.4856
    1SOL    MW4 6868   0.641   0.512   3.038  0.0333 -0.3989  0.1001
    1SOL     OW 6869   0.692   0.777   3.114 -0.2649 -0.1065 -0.0508
    1SOL    HW2 6870   0.692   0.767   3.209  1.2558  0.9287  0.0789
    1SOL    HW3 6871   0.779   0.810   3.093 -0.6723 -0.0564 -1.7860
    1SOL    MW4 6872   0.704   0.780   3.124 -0.1180  0.0367 -0.2630
    1SOL     OW 6873   0.488   0.907   2.967  0.1576 -0.0026 -0.0032
    1SOL    HW2 6874   0.415   0.861   3.009 -0.6159  0.0537 -1.2768
    1SOL    HW3 6875   0.566   0.864   3.002 -0.5383 -1.6402 -0.4355
    1SOL    MW4 6876   0.488   0.895   2.977 -0.0363 -0.2112 -0.2284
    1SOL     OW 6877   0.440   1.141   3.119  0.4200 -0.1946 -0.5268
    1SOL    HW2 6878   0.451   1.061   3.068  0.3500 -0.3197 -0.3494
    1SOL    HW3 6879   0.371   1.189   3.073  0.1498 -0.4431 -0.3868
    1SOL    MW4 6880   0.432   1.137   3.106  0.3751 -0.2438 -0.4852
    1SOL     OW 6881   0.669   1.258   3.019  0.3978  0.6416  0.0270
    1SOL    HW2 6882   0.742   1.198   3.032  0.2564  0.3573 -0.4489
    1SOL    HW3 6883   0.594   1.214   3.060  0.1999  0.2832 -0.7088
    1SOL    MW4 6884   0.669   1.244   3.026  0.3529  0.5568 -0.1326
    1SOL     OW 6885   0.611   1.514   3.126  0.0642  0.7275  0.6511
    1SOL    HW2 6886   0.607   1.501   3.221  0.4108 -0.8392  0.4593
    1SOL    HW3 6887   0.632   1.428   3.090 -1.6644  0.9504 -0.9878
    1SOL    MW4 6888   0.613   1.501   3.134 -0.1182  0.5503  0.4096
    1SOL     OW 6889   0.413   1.687   3.055  0.0700 -0.6566  0.4414
    1SOL    HW2 6890   0.477   1.621   3.080 -0.3480 -1.1939  0.1152
    1SOL    HW3 6891   0.329   1.641   3.058 -0.2087 -0.1773  0.0721
    1SOL    MW4 6892   0.410   1.673   3.059 -0.0219 -0.6644  0.3493
    1SOL     OW 6893   0.418   1.961   3.124 -0.1405 -0.1339 -0.1872
    1SOL    HW2 6894   0.426   1.870   3.097  0.6311 -0.4382  1.0160
    1SOL    HW3 6895   0.331   1.988   3.092 -0.6052 -1.4486 -0.0713
    1SOL    MW4 6896   0.407   1.953   3.116 -0.1000 -0.3475 -0.0131
    1SOL     OW 6897   0.641   2.061   2.950 -0.3258 -0.7763 -0.6163
    1SOL    HW2 6898   0.714   2.012   2.988 -0.1164  0.1391  0.1649
    1SOL    HW3 6899   0.567   2.044   3.008  0.0573  0.8266  0.3617
    1SOL    MW4 6900   0.641   2.052   2.963 -0.2477 -0.4439 -0.3846
    1SOL     OW 6901   0.669   2.324   3.117  0.5287 -0.4538 -0.3405
    1SOL    HW2 6902   0.675   2.304   3.210  3.2686 -1.6735 -0.7438
    1SOL    HW3 6903   0.657   2.239   3.075  1.5685 -0.1695 -1.2511
    1SOL    MW4 6904   0.668   2.310   3.124  1.0273 -0.5772 -0.5138
    1SOL     OW 6905   0.441   2.447   2.997  0.2624 -0.3146 -0.4518
    1SOL    HW2 6906   0.522   2.406   3.028  1.0776  0.8124 -1.0666
    1SOL    HW3 6907   0.453   2.458   2.903  0.1369  1.4731 -0.2891
    1SOL    MW4 6908   0.453   2.443   2.989  0.3534  0.0701 -0.5112
    1SOL     OW 6909   0.447   2.694   3.123 -0.0437 -0.2459 -0.0957
    1SOL    HW2 6910   0.515   2.745   3.078 -0.2339 -0.6591 -0.8424
    1SOL    HW3 6911   0.457   2.605   3.089 -1.8925 -0.0187 -1.2897
    1SOL    MW4 6912   0.457   2.689   3.113 -0.3127 -0.2704 -0.3517
    1SOL     OW 6913   0.654   2.830   3.005 -0.2235  0.1668  0.1219
    1SOL    HW2 6914   0.722   2.785   3.054  1.3484  2.3375 -0.0093
    1SOL    HW3 6915   0.655   2.920   3.039 -0.7841  1.0638 -2.1382
    1SOL    MW4 6916   0.663   2.836   3.016 -0.0901  0.5715 -0.1938
    1SOL     OW 6917   0.638   3.091   3.115 -0.4837 -0.4900 -0.7207
    1SOL    HW2 6918   0.641   3.099   3.211 -0.4165 -1.6330 -0.6249
    1SOL    HW3 6919   0.564   3.147   3.089  0.2876  0.8500 -0.1279
    1SOL    MW4 6920   0.629   3.100   3.124 -0.3730 -0.4640 -0.6299
    1SOL     OW 6921   0.436   3.253   3.027 -0.6903 -0.0824 -0.2676
    1SOL    HW2 6922   0.436   3.344   3.058 -1.4515  0.0011 -0.5027
    1SOL    HW3 6923   0.354   3.217   3.061 -0.3258 -0.7235 -0.0619
    1SOL    MW4 6924   0.425   3.260   3.036 -0.7427 -0.1559 -0.2713
    1SOL     OW 6925   0.472   3.514   3.135  0.4148 -0.3240  0.3757
    1SOL    HW2 6926   0.476   3.540   3.227  5.0679  3.4334 -0.7125
    1SOL    HW3 6927   0.392   3.555   3.102 -0.5140 -0.4788  2.3314
    1SOL    MW4 6928   0.462   3.523   3.143  0.9061  0.1514  0.4902
    1SOL     OW 6929   0.715   3.577   2.991 -0.4656 -0.3555 -0.0183
    1SOL    HW2 6930   0.787   3.536   3.038 -0.3358  0.2422  0.3114
    1SOL    HW3 6931   0.637   3.558   3.043 -0.4066 -0.2008  0.1291
    1SOL    MW4 6932   0.714   3.569   3.004 -0.4407 -0.2563  0.0448
    1SOL     OW 6933   0.641   3.848   3.078  0.3322 -0.2763  0.3735
    1SOL    HW2 6934   0.654   3.850   3.173  0.7627  2.0138  0.3032
    1SOL    HW3 6935   0.664   3.759   3.052  2.0711 -0.3766  2.1724
    1SOL    MW4 6936   0.646   3.837   3.087  0.6183  0.0126  0.6015
    1SOL     OW 6937   0.413   3.992   2.988  0.1339 -0.3998  0.2627
    1SOL    HW2 6938   0.489   3.953   3.031  0.8931  1.1041  0.3095
    1SOL    HW3 6939   0.428   3.976   2.894  0.3853 -0.3174  0.2896
    1SOL    MW4 6940   0.425   3.985   2.981  0.2673 -0.1905  0.2725
    1SOL     OW 6941   0.439   4.242   3.126 -0.3469 -0.1098  0.7632
    1SOL    HW2 6942   0.434   4.154   3.088  0.8581 -0.0019  0.3348
    1SOL    HW3 6943   0.361   4.286   3.093 -0.4532 -0.7143  0.1873
    1SOL    MW4 6944   0.428   4.236   3.116 -0.2020 -0.1755  0.6309
    1SOL     OW 6945   0.644   4.397   3.026 -0.1994  0.3811 -0.3244
    1SOL    HW2 6946   0.577   4.335   3.056 -1.9151  1.3951 -1.9659
    1SOL    HW3 6947   0.645   4.387   2.931  0.1296  2.2569 -0.5213
    1SOL    MW4 6948   0.635   4.387   3.018 -0.3824  0.7625 -0.5670
    1SOL     OW 6949   1.130   4.656   3.123  0.1693 -0.0721  0.2479
    1SOL    HW2 6950   1.211   4.701   3.100  0.6453 -1.4961 -0.8913
    1SOL    HW3 6951   1.061   4.713   3.088  0.7883 -0.4827 -1.7064
    1SOL    MW4 6952   1.132   4.670   3.115  0.3138 -0.3142 -0.1605
    1SOL     OW 6953   0.903   0.112   3.011 -0.4303 -0.0329  0.5586
    1SOL    HW2 6954   0.893   0.199   3.048 -0.4096 -0.0384  0.5767
    1SOL    HW3 6955   0.834   0.060   3.053 -0.2813 -0.0884  0.7367
    1SOL    MW4 6956   0.892   0.117   3.021 -0.4079 -0.0410  0.5846
    1SOL     OW 6957   0.857   0.372   3.131 -0.0520  0.2933  0.1496
    1SOL    HW2 6958   0.865   0.357   3.225  1.1218 -0.6122 -0.0860
    1SOL    HW3 6959   0.940   0.412   3.105 -0.4747  0.8000 -0.4569
    1SOL    MW4 6960   0.869   0.376   3.140  0.0470  0.2407  0.0384
    1SOL     OW 6961   1.104   0.477   3.040  0.4956  0.2949 -0.5474
    1SOL    HW2 6962   1.184   0.440   3.077  1.0392  1.0805 -0.9065
    1SOL    HW3 6963   1.116   0.470   2.945 -0.2219 -0.3299 -0.5918
    1SOL    MW4 6964   1.116   0.471   3.032  0.4727  0.3161 -0.6008
    1SOL     OW 6965   1.135   0.724   3.138 -0.5416 -0.3944 -0.2280
    1SOL    HW2 6966   1.119   0.729   3.232 -0.6062 -0.1842 -0.2497
    1SOL    HW3 6967   1.133   0.631   3.118 -0.7656 -0.4266 -0.0613
    1SOL    MW4 6968   1.133   0.713   3.147 -0.5796 -0.3709 -0.2091
    1SOL     OW 6969   0.945   0.880   3.017 -0.1560 -0.3374  0.2601
    1SOL    HW2 6970   0.942   0.963   3.064  0.9791 -0.0005 -0.2398
    1SOL    HW3 6971   1.009   0.828   3.067 -1.4171 -1.2025  1.0185
    1SOL    MW4 6972   0.953   0.884   3.030 -0.1726 -0.4070  0.2942
    1SOL     OW 6973   0.920   1.116   3.136  0.1753  0.3671  0.2012
    1SOL    HW2 6974   0.922   1.133   3.231  0.1624 -0.3871  0.3342
    1SOL    HW3 6975   0.989   1.173   3.101  1.3817 -0.6372  0.8785
    1SOL    MW4 6976   0.930   1.126   3.144  0.3328  0.1349  0.3078
    1SOL     OW 6977   1.132   1.275   3.051 -0.0438 -0.2173 -0.0940
    1SOL    HW2 6978   1.215   1.232   3.070 -0.6845 -1.7099 -0.5963
    1SOL    HW3 6979   1.134   1.291   2.957  0.5525  1.6398  0.2266
    1SOL    MW4 6980   1.143   1.271   3.041 -0.0497 -0.1693 -0.1178
    1SOL     OW 6981   1.077   1.553   3.108 -0.4937  0.1304  0.3259
    1SOL    HW2 6982   1.155   1.604   3.089 -0.4397  0.3210  1.0363
    1SOL    HW3 6983   1.102   1.462   3.090 -0.2773  0.2450  0.0488
    1SOL    MW4 6984   1.091   1.548   3.103 -0.4581  0.1706  0.3831
    1SOL     OW 6985   0.833   1.622   3.003  0.1161  0.2523  0.1282
    1SOL    HW2 6986   0.912   1.586   3.043  0.6836  1.5870  0.2298
    1SOL    HW3 6987   0.761   1.588   3.056  0.6593 -0.5136  0.3771
    1SOL    MW4 6988   0.833   1.613   3.015  0.2626  0.3273  0.1743
    1SOL     OW 6989   0.830   1.902   3.084 -0.4442 -0.4753 -0.0075
    1SOL    HW2 6990   0.846   1.911   3.178 -1.0378 -0.6565  0.1102
    1SOL    HW3 6991   0.817   1.808   3.071 -0.9818 -0.3789 -0.1725
    1SOL    MW4 6992   0.830   1.890   3.095 -0.5934 -0.4866 -0.0136
    1SOL     OW 6993   1.063   2.042   2.987  0.1025 -0.3479  0.1792
    1SOL    HW2 6994   1.002   1.976   3.021  2.3033 -1.7738  1.4673
    1SOL    HW3 6995   1.045   2.044   2.893 -1.7553 -0.9182  0.5012
    1SOL    MW4 6996   1.053   2.034   2.979  0.1477 -0.6115  0.3912
    1SOL     OW 6997   1.064   2.278   3.149 -0.1542 -0.3119 -0.0558
    1SOL    HW2 6998   1.005   2.349   3.124  0.5193 -0.2132 -1.3876
    1SOL    HW3 6999   1.043   2.207   3.089  0.9725 -0.3330 -0.4298
    1SOL    MW4 7000   1.054   2.278   3.138  0.0833 -0.3014 -0.2809
    1SOL     OW 7001   0.893   2.464   3.013 -0.8579 -0.3516  0.2160
    1SOL    HW2 7002   0.808   2.435   3.047 -0.6667 -0.5080  0.5646
    1SOL    HW3 7003   0.886   2.453   2.918 -0.4764 -2.3663  0.4102
    1SOL    MW4 7004   0.881   2.459   3.005 -0.7824 -0.6380  0.2875
    1SOL     OW 7005   0.879   2.713   3.127  0.0931  0.3859 -0.1034
    1SOL    HW2 7006   0.865   2.710   3.222 -1.3408  1.3618 -0.2648
    1SOL    HW3 7007   0.905   2.624   3.104 -1.6620 -0.4136  0.9094
    1SOL    MW4 7008   0.880   2.701   3.137 -0.3276  0.4089  0.0091
    1SOL     OW 7009   1.131   2.815   3.022  0.2831  0.1429 -0.1361
    1SOL    HW2 7010   1.133   2.905   3.055  0.0649 -0.1746  0.7704
    1SOL    HW3 7011   1.052   2.777   3.061 -0.6432  0.1205 -2.0241
    1SOL    MW4 7012   1.121   2.822   3.032  0.1321  0.0982 -0.2656
    1SOL     OW 7013   1.130   3.071   3.135 -0.5408 -0.4597  0.1456
    1SOL    HW2 7014   1.207   3.122   3.109 -0.7426  0.2302  0.8662
    1SOL    HW3 7015   1.056   3.119   3.098 -0.5881 -1.4398 -1.0368
    1SOL    MW4 7016   1.131   3.084   3.127 -0.5738 -0.4981  0.0844
    1SOL     OW 7017   0.899   3.198   3.049 -0.6531 -0.5016  0.0084
    1SOL    HW2 7018   0.810   3.171   3.070 -1.2129  0.6428 -0.8931
    1SOL    HW3 7019   0.903   3.195   2.953 -0.0278  0.3933  0.0006
    1SOL    MW4 7020   0.888   3.194   3.039 -0.6445 -0.2325 -0.1113
    1SOL     OW 7021   0.918   3.464   3.122 -0.3193  0.3179 -0.1552
    1SOL    HW2 7022   1.001   3.506   3.096 -1.1133  0.1846 -3.0751
    1SOL    HW3 7023   0.924   3.375   3.088 -1.3932  0.0803  0.2462
    1SOL    MW4 7024   0.930   3.458   3.114 -0.5658  0.2689 -0.4876
    1SOL     OW 7025   1.124   3.626   3.005 -0.7221  0.0793  0.1027
    1SOL    HW2 7026   1.199   3.567   3.015 -0.3151  0.6860  0.6431
    1SOL    HW3 7027   1.148   3.704   3.055  0.3460  2.2406 -3.5698
    1SOL    MW4 7028   1.137   3.629   3.013 -0.5276  0.4444 -0.3104
    1SOL     OW 7029   1.120   3.884   3.134  0.0852 -0.3879  0.6293
    1SOL    HW2 7030   1.111   3.877   3.229 -0.5504  0.2936  0.6259
    1SOL    HW3 7031   1.040   3.929   3.106  0.0849 -0.9455 -0.2695
    1SOL    MW4 7032   1.108   3.889   3.143  0.0013 -0.3717  0.5105
    1SOL     OW 7033   0.877   4.009   3.028 -0.0478 -0.0674  0.7731
    1SOL    HW2 7034   0.803   3.951   3.046 -0.8079  0.3154 -1.0048
    1SOL    HW3 7035   0.882   4.013   2.932  1.0599  1.4299  0.8706
    1SOL    MW4 7036   0.868   4.002   3.018 -0.0020  0.1807  0.5515
    1SOL     OW 7037   0.882   4.272   3.098 -0.2455  0.2103 -0.2887
    1SOL    HW2 7038   0.868   4.177   3.091  1.0436  0.1667 -2.4511
    1SOL    HW3 7039   0.805   4.311   3.058  0.2899  0.0531 -1.4785
    1SOL    MW4 7040   0.870   4.265   3.092 -0.0048  0.1836 -0.7310
    1SOL     OW 7041   1.124   4.403   3.004  0.3223 -0.2906  0.0309
    1SOL    HW2 7042   1.043   4.362   3.034 -0.7718  0.4556 -1.7636
    1SOL    HW3 7043   1.123   4.490   3.045 -0.0031 -0.1320 -0.3052
    1SOL    MW4 7044   1.113   4.409   3.013  0.1351 -0.1712 -0.2501
    1SOL     OW 7045   1.562   4.621   3.116  0.0588 -0.2150  0.3704
    1SOL    HW2 7046   1.563   4.625   3.211  0.0267  0.1204  0.3571
    1SOL    HW3 7047   1.491   4.679   3.090 -1.0739 -1.6476  0.2002
    1SOL    MW4 7048   1.553   4.629   3.125 -0.0948 -0.3595  0.3462
    1SOL     OW 7049   1.363   0.133   3.064 -0.5887 -0.2348 -0.5244
    1SOL    HW2 7050   1.377   0.225   3.085  1.3392 -0.5997 -0.0731
    1SOL    HW3 7051   1.375   0.128   2.969 -1.0489  0.0287 -0.5985
    1SOL    MW4 7052   1.367   0.145   3.054 -0.3951 -0.2482 -0.4745
    1SOL     OW 7053   1.361   0.418   3.150 -0.0992 -0.2598  0.0877
    1SOL    HW2 7054   1.347   0.412   3.245  2.2647  0.8242  0.5481
    1SOL    HW3 7055   1.454   0.438   3.141 -0.5340  0.8142 -2.4392
    1SOL    MW4 7056   1.372   0.420   3.162  0.1552  0.0249 -0.1845
    1SOL     OW 7057   1.619   0.502   3.056  0.1951  0.4252  0.0868
    1SOL    HW2 7058   1.609   0.590   3.094  0.7306  0.2901  0.5518
    1SOL    HW3 7059   1.592   0.512   2.965  2.1146  1.5190 -0.3972
    1SOL    MW4 7060   1.614   0.515   3.049  0.5188  0.5517  0.0844
    1SOL     OW 7061   1.601   0.758   3.159 -0.3049  0.0714 -0.2115
    1SOL    HW2 7062   1.589   0.748   3.254  0.5232 -1.3579 -0.2433
    1SOL    HW3 7063   1.521   0.802   3.129 -1.2666 -0.8824  0.9147
    1SOL    MW4 7064   1.589   0.763   3.168 -0.3226 -0.2430 -0.0672
    1SOL     OW 7065   1.368   0.857   3.027 -0.0064 -0.2125  0.5161
    1SOL    HW2 7066   1.365   0.940   3.074  0.4767  0.2360 -0.2333
    1SOL    HW3 7067   1.299   0.804   3.067 -0.5911  0.6906  0.7195
    1SOL    MW4 7068   1.359   0.861   3.039 -0.0198 -0.0342  0.4442
    1SOL     OW 7069   1.365   1.113   3.151  0.2841  0.2020 -0.0887
    1SOL    HW2 7070   1.374   1.119   3.246  0.7627 -0.3186 -0.0972
    1SOL    HW3 7071   1.436   1.167   3.117  0.5259 -0.1512 -0.1489
    1SOL    MW4 7072   1.376   1.121   3.159  0.3791  0.0867 -0.0980
    1SOL     OW 7073   1.571   1.258   3.021  0.1583  0.4938 -0.2308
    1SOL    HW2 7074   1.645   1.217   3.065 -0.9102 -0.2882  0.8841
    1SOL    HW3 7075   1.568   1.347   3.055 -1.3317 -0.4323  2.1937
    1SOL    MW4 7076   1.580   1.264   3.031 -0.1793  0.2685  0.2360
    1SOL     OW 7077   1.532   1.524   3.122  0.0683  0.0914  0.4223
    1SOL    HW2 7078   1.610   1.560   3.080  0.0870 -1.1691 -0.6577
    1SOL    HW3 7079   1.459   1.568   3.079  0.0818 -1.3013 -1.0982
    1SOL    MW4 7080   1.533   1.534   3.111  0.0726 -0.2587  0.0792
    1SOL     OW 7081   1.315   1.680   3.049 -0.3460 -0.0494  0.2075
    1SOL    HW2 7082   1.321   1.775   3.063  0.8421 -0.2410  1.0253
    1SOL    HW3 7083   1.325   1.669   2.954  2.0664  0.4600  0.3816
    1SOL    MW4 7084   1.317   1.691   3.038  0.1290 -0.0075  0.3381
    1SOL     OW 7085   1.311   1.954   3.079 -0.7032  0.6564 -0.0638
    1SOL    HW2 7086   1.302   1.955   3.174  0.5742 -0.2546  0.0848
    1SOL    HW3 7087   1.224   1.975   3.046 -1.0684  1.3262  1.3115
    1SOL    MW4 7088   1.298   1.957   3.087 -0.5828  0.6247  0.1371
    1SOL     OW 7089   1.564   2.061   2.982 -0.0347 -0.1401  0.0295
    1SOL    HW2 7090   1.478   2.034   3.016  1.4033 -3.3320  1.2956
    1SOL    HW3 7091   1.554   2.054   2.887 -0.8566 -1.5531  0.2048
    1SOL    MW4 7092   1.551   2.057   2.974  0.0467 -0.7477  0.2198
    1SOL     OW 7093   1.570   2.291   3.132 -0.2623  0.6153  0.2060
    1SOL    HW2 7094   1.477   2.313   3.122 -0.5062 -0.0072  1.0386
    1SOL    HW3 7095   1.580   2.207   3.086 -0.0297  0.8607 -0.1958
    1SOL    MW4 7096   1.559   2.283   3.124 -0.2638  0.5655  0.2627
    1SOL     OW 7097   1.308   2.396   3.072  0.4095 -0.2255  0.8415
    1SOL    HW2 7098   1.225   2.352   3.088 -0.2184  1.3535  2.0108
    1SOL    HW3 7099   1.307   2.416   2.979 -0.4132 -0.4137  0.8080
    1SOL    MW4 7100   1.297   2.393   3.062  0.2183 -0.0420  0.9913
    1SOL     OW 7101   1.332   2.667   3.164  0.0270 -0.0663 -0.1273
    1SOL    HW2 7102   1.344   2.580   3.125 -0.0262  0.0900 -0.4888
    1SOL    HW3 7103   1.263   2.708   3.112 -0.1626  0.0780  0.2366
    1SOL    MW4 7104   1.325   2.661   3.152 -0.0051 -0.0267 -0.1268
    1SOL     OW 7105   1.542   2.784   3.011 -0.0016  0.2026  0.2453
    1SOL    HW2 7106   1.612   2.741   3.059 -0.9584 -0.0810  1.4073
    1SOL    HW3 7107   1.461   2.747   3.047 -0.7742  1.2676 -0.3454
    1SOL    MW4 7108   1.540   2.774   3.022 -0.2297  0.3057  0.3207
    1SOL     OW 7109   1.582   3.035   3.123  0.3625 -0.2353  0.0519
    1SOL    HW2 7110   1.606   3.039   3.215  0.9487  0.9211 -0.1540
    1SOL    HW3 7111   1.579   2.941   3.104  0.0896 -0.4856  1.2800
    1SOL    MW4 7112   1.585   3.023   3.133  0.4039 -0.1156  0.1869
    1SOL     OW 7113   1.359   3.195   3.063 -0.4497 -0.6691  0.2727
    1SOL    HW2 7114   1.429   3.134   3.085  1.0713  1.5312  1.7696
    1SOL    HW3 7115   1.365   3.203   2.967  0.3701 -1.6439  0.2247
    1SOL    MW4 7116   1.369   3.188   3.053 -0.1408 -0.5074  0.4640
    1SOL     OW 7117   1.353   3.474   3.122  0.1942  0.3043  0.4145
    1SOL    HW2 7118   1.347   3.476   3.217  0.5348 -0.2072  0.4515
    1SOL    HW3 7119   1.370   3.382   3.101 -1.0391  0.2172 -0.2167
    1SOL    MW4 7120   1.355   3.462   3.131  0.0765  0.2251  0.3362
    1SOL     OW 7121   1.601   3.586   3.034  0.1592  0.3738  0.1778
    1SOL    HW2 7122   1.529   3.532   3.066  0.0001  0.7611  0.4821
    1SOL    HW3 7123   1.589   3.589   2.940 -0.3750  0.6578  0.2555
    1SOL    MW4 7124   1.590   3.579   3.026  0.0678  0.4623  0.2282
    1SOL     OW 7125   1.570   3.857   3.103  0.0535 -0.0944 -0.3870
    1SOL    HW2 7126   1.652   3.899   3.078 -0.0594 -0.5732 -1.5825
    1SOL    HW3 7127   1.583   3.764   3.084 -0.0942 -0.4693  1.2210
    1SOL    MW4 7128   1.582   3.850   3.097  0.0191 -0.2069 -0.3326
    1SOL     OW 7129   1.354   3.991   3.024  0.2222 -0.5080  0.3555
    1SOL    HW2 7130   1.424   3.934   3.056 -0.4572 -1.2862  0.4575
    1SOL    HW3 7131   1.274   3.952   3.058 -0.5094 -1.2059 -2.0836
    1SOL    MW4 7132   1.353   3.979   3.033  0.0360 -0.7026  0.0470
    1SOL     OW 7133   1.322   4.245   3.152  0.1045  0.4126 -0.3000
    1SOL    HW2 7134   1.322   4.159   3.110 -0.5318  0.4153 -0.3008
    1SOL    HW3 7135   1.243   4.289   3.119  0.4365  1.0099 -0.3210
    1SOL    MW4 7136   1.312   4.240   3.142  0.0644  0.4916 -0.3028
    1SOL     OW 7137   1.539   4.358   3.006 -0.2417 -0.3556 -0.0669
    1SOL    HW2 7138   1.463   4.325   3.054 -0.6762  0.2874 -0.2992
    1SOL    HW3 7139   1.544   4.451   3.029  0.0767 -0.2413 -0.5724
    1SOL    MW4 7140   1.530   4.366   3.015 -0.2570 -0.2556 -0.1645
    1SOL     OW 7141   1.988   4.654   3.129 -0.5117 -0.0251  0.4489
    1SOL    HW2 7142   1.997   4.676   3.221  0.7186 -2.1416  0.8674
    1SOL    HW3 7143   1.919   4.713   3.096 -1.3267  0.3722  2.8171
    1SOL    MW4 7144   1.980   4.665   3.137 -0.4569 -0.2518  0.8166
    1SOL     OW 7145   1.793   0.134   3.018 -0.3543  0.3371  0.3205
    1SOL    HW2 7146   1.717   0.091   3.058 -1.5253  1.8126 -0.2856
    1SOL    HW3 7147   1.774   0.133   2.924 -0.4745  2.2943  0.3093
    1SOL    MW4 7148   1.780   0.128   3.011 -0.5246  0.7900  0.2394
    1SOL     OW 7149   1.833   0.385   3.154  0.0421  0.0513 -0.3295
    1SOL    HW2 7150   1.830   0.299   3.113 -1.1066  0.0484 -0.2590
    1SOL    HW3 7151   1.752   0.428   3.126  0.9371  1.3842 -0.9444
    1SOL    MW4 7152   1.822   0.380   3.145  0.0086  0.2268 -0.4013
    1SOL     OW 7153   2.053   0.502   2.989 -0.0842 -0.1540 -0.4752
    1SOL    HW2 7154   1.972   0.490   3.039  0.4140  0.3550  0.4747
    1SOL    HW3 7155   2.114   0.437   3.025  0.3510  0.3744 -0.2411
    1SOL    MW4 7156   2.050   0.492   3.000  0.0389 -0.0171 -0.3188
    1SOL     OW 7157   2.069   0.762   3.095 -0.2072 -0.1834 -0.0329
    1SOL    HW2 7158   1.985   0.800   3.068 -0.4909 -0.7113  0.0916
    1SOL    HW3 7159   2.069   0.674   3.055  0.7461  0.1984 -0.9026
    1SOL    MW4 7160   2.058   0.755   3.086 -0.1187 -0.2026 -0.1314
    1SOL     OW 7161   1.809   0.877   3.043  0.8668 -0.0531 -0.3668
    1SOL    HW2 7162   1.741   0.832   3.093  2.3618 -2.1791 -0.1676
    1SOL    HW3 7163   1.786   0.864   2.951 -0.4913  1.6710 -0.3057
    1SOL    MW4 7164   1.797   0.870   3.038  0.8850 -0.1061 -0.3324
    1SOL     OW 7165   1.801   1.135   3.129 -0.7260 -0.0328 -0.4684
    1SOL    HW2 7166   1.795   1.128   3.224  1.6933  0.2173 -0.2473
    1SOL    HW3 7167   1.817   1.045   3.099  2.0756  0.3338 -0.2575
    1SOL    MW4 7168   1.802   1.122   3.137 -0.0372  0.0486 -0.4110
    1SOL     OW 7169   2.018   1.269   2.993  0.0586 -0.1830 -0.9287
    1SOL    HW2 7170   2.093   1.234   3.041  0.0274  1.0452  0.0366
    1SOL    HW3 7171   1.942   1.227   3.034  0.1839 -1.0874 -1.6115
    1SOL    MW4 7172   2.018   1.258   3.005  0.0710 -0.1404 -0.8914
    1SOL     OW 7173   1.968   1.524   3.114 -0.1589  0.2473  0.1739
    1SOL    HW2 7174   1.974   1.513   3.209  1.2818 -0.1085  0.0547
    1SOL    HW3 7175   1.994   1.440   3.078 -0.2041  0.5360 -0.5450
    1SOL    MW4 7176   1.972   1.512   3.122  0.0252  0.2385  0.0634
    1SOL     OW 7177   1.771   1.661   2.954  0.1567  0.4107  0.6058
    1SOL    HW2 7178   1.769   1.746   2.998  0.3013 -0.0144  1.4488
    1SOL    HW3 7179   1.833   1.609   3.006  1.1034  0.2238 -0.7018
    1SOL    MW4 7180   1.779   1.666   2.967  0.3008  0.3300  0.5443
    1SOL     OW 7181   1.764   1.905   3.126  0.6606 -0.1603  0.1614
    1SOL    HW2 7182   1.850   1.932   3.091  1.4021 -2.7152 -0.0384
    1SOL    HW3 7183   1.701   1.952   3.071  1.8755 -1.2425 -2.2571
    1SOL    MW4 7184   1.767   1.915   3.114  0.9187 -0.6402 -0.1843
    1SOL     OW 7185   1.984   2.026   3.005 -0.3890 -0.0146  0.0670
    1SOL    HW2 7186   2.056   1.970   3.032  1.3294  1.5078 -1.2615
    1SOL    HW3 7187   2.001   2.110   3.048 -0.8045  0.6470 -1.0174
    1SOL    MW4 7188   1.996   2.030   3.014 -0.2171  0.2735 -0.2513
    1SOL     OW 7189   1.996   2.278   3.120  0.7608 -0.0092  0.2578
    1SOL    HW2 7190   2.075   2.322   3.088  0.3099 -0.5108 -1.6229
    1SOL    HW3 7191   1.924   2.321   3.074  0.0847 -0.7189  0.6408
    1SOL    MW4 7192   1.997   2.289   3.110  0.6123 -0.1688  0.0601
    1SOL     OW 7193   1.762   2.427   3.002  0.3885 -0.3350  0.0511
    1SOL    HW2 7194   1.769   2.505   3.056  0.5196 -0.5742  0.3839
    1SOL    HW3 7195   1.686   2.380   3.038 -0.5604  0.3275 -1.0406
    1SOL    MW4 7196   1.753   2.431   3.014  0.2807 -0.2789 -0.0489
    1SOL     OW 7197   1.772   2.667   3.129 -0.2629 -0.3479 -0.2345
    1SOL    HW2 7198   1.790   2.660   3.223 -0.1157 -0.5652 -0.2786
    1SOL    HW3 7199   1.849   2.712   3.093 -0.7238  0.5546 -0.1158
    1SOL    MW4 7200   1.785   2.672   3.137 -0.3042 -0.2575 -0.2248
    1SOL     OW 7201   1.994   2.817   3.036  0.1869 -0.3605 -0.2912
    1SOL    HW2 7202   1.993   2.909   3.062  1.1186 -0.3496 -0.2792
    1SOL    HW3 7203   1.973   2.819   2.942  1.6185 -0.0119 -0.6154
    1SOL    MW4 7204   1.991   2.829   3.027  0.4987 -0.3130 -0.3326
    1SOL     OW 7205   2.033   3.096   3.122 -0.0854 -0.3457 -0.4078
    1SOL    HW2 7206   2.021   3.097   3.217 -1.3428 -0.8941 -0.5407
    1SOL    HW3 7207   1.951   3.131   3.087  0.4263  0.0040 -1.2844
    1SOL    MW4 7208   2.020   3.100   3.130 -0.1836 -0.3719 -0.5412
    1SOL     OW 7209   1.778   3.200   3.034  0.0529  0.2430 -0.0300
    1SOL    HW2 7210   1.710   3.137   3.059  0.1726 -0.1829 -0.7654
    1SOL    HW3 7211   1.780   3.196   2.938  0.4624  0.9475 -0.0542
    1SOL    MW4 7212   1.769   3.192   3.024  0.1227  0.2797 -0.1304
    1SOL     OW 7213   1.844   3.472   3.098 -0.0875  0.0466 -0.1782
    1SOL    HW2 7214   1.832   3.384   3.062 -0.8298 -0.6522  1.6840
    1SOL    HW3 7215   1.758   3.513   3.088 -0.3076 -0.1629  0.7735
    1SOL    MW4 7216   1.831   3.465   3.092 -0.2143 -0.0732  0.1929
    1SOL     OW 7217   2.055   3.592   2.981 -0.1816 -0.1895 -0.1159
    1SOL    HW2 7218   2.051   3.679   3.019 -1.3330  0.3329 -1.4002
    1SOL    HW3 7219   1.979   3.546   3.017 -0.4132 -0.1782 -0.5784
    1SOL    MW4 7220   2.045   3.597   2.991 -0.3641 -0.1192 -0.3462
    1SOL     OW 7221   2.036   3.885   3.114 -0.3162  0.7393  0.4356
    1SOL    HW2 7222   2.029   3.894   3.209  0.8918  1.2567  0.4900
    1SOL    HW3 7223   1.955   3.922   3.080 -0.0283  2.1346  1.1975
    1SOL    MW4 7224   2.025   3.891   3.122 -0.1187  0.9918  0.5431
    1SOL     OW 7225   1.811   3.996   3.013  0.0764  0.2115 -0.1080
    1SOL    HW2 7226   1.791   4.084   3.043 -0.5963  0.4312 -1.1590
    1SOL    HW3 7227   1.795   3.999   2.918 -0.3865 -1.1411 -0.0897
    1SOL    MW4 7228   1.806   4.008   3.004 -0.0734  0.0625 -0.2444
    1SOL     OW 7229   1.757   4.236   3.125  0.1645 -0.1076  0.0936
    1SOL    HW2 7230   1.831   4.294   3.110  0.1127  0.3008  1.3495
    1SOL    HW3 7231   1.686   4.274   3.073  0.5187  0.1313 -0.2216
    1SOL    MW4 7232   1.757   4.249   3.116  0.2044 -0.0219  0.2179
    1SOL     OW 7233   1.966   4.389   3.052  0.1384  0.5733 -0.0575
    1SOL    HW2 7234   1.972   4.479   3.082  0.4561  0.2288  0.9401
    1SOL    HW3 7235   1.961   4.395   2.957 -0.1942  1.6549  0.0286
    1SOL    MW4 7236   1.966   4.401   3.043  0.1364  0.6704  0.0851
    1SOL     OW 7237   2.453   4.633   3.106 -0.3134 -0.4131 -0.0767
    1SOL    HW2 7238   2.457   4.545   3.067  0.6920 -0.2868 -0.2747
    1SOL    HW3 7239   2.368   4.667   3.080 -0.3549 -0.9972 -0.7211
    1SOL    MW4 7240   2.442   4.626   3.097 -0.1862 -0.4735 -0.1876
    1SOL     OW 7241   2.224   0.086   3.020 -0.1609 -0.0671  0.4084
    1SOL    HW2 7242   2.243   0.175   3.048 -0.8492  0.6401 -1.3134
    1SOL    HW3 7243   2.136   0.069   3.052 -0.1670  0.0109  0.4331
    1SOL    MW4 7244   2.215   0.095   3.028 -0.2522  0.0365  0.1843
    1SOL     OW 7245   2.259   0.338   3.093 -0.1885  0.1446  0.8126
    1SOL    HW2 7246   2.262   0.350   3.188 -0.3309  1.7132  0.6353
    1SOL    HW3 7247   2.327   0.396   3.059  0.0534 -0.6260 -0.0287
    1SOL    MW4 7248   2.268   0.347   3.101 -0.1755  0.2499  0.6783
    1SOL     OW 7249   2.448   0.510   2.992 -0.1557 -0.1414 -0.5220
    1SOL    HW2 7250   2.526   0.458   3.010  1.1832  1.8212 -0.4447
    1SOL    HW3 7251   2.447   0.518   2.896 -0.1720 -0.0428 -0.5135
    1SOL    MW4 7252   2.458   0.504   2.982  0.0188  0.1306 -0.5107
    1SOL     OW 7253   2.515   0.774   3.096 -0.1975  0.1086  0.6074
    1SOL    HW2 7254   2.571   0.833   3.046 -0.8236  1.0604  1.0073
    1SOL    HW3 7255   2.518   0.691   3.049  1.1387  0.3011  0.3520
    1SOL    MW4 7256   2.523   0.770   3.083 -0.1040  0.2596  0.6266
    1SOL     OW 7257   2.292   0.913   3.039 -0.2658  0.0701  0.2418
    1SOL    HW2 7258   2.366   0.857   3.063 -1.0143 -0.4998  1.3187
    1SOL    HW3 7259   2.215   0.862   3.066 -1.0246  0.8640 -0.4043
    1SOL    MW4 7260   2.292   0.899   3.046 -0.4647  0.0997  0.2985
    1SOL     OW 7261   2.251   1.175   3.104 -0.4776  0.0494  0.0548
    1SOL    HW2 7262   2.248   1.161   3.199  0.8056 -1.1001 -0.0658
    1SOL    HW3 7263   2.258   1.087   3.067 -1.5031  0.4567 -1.1399
    1SOL    MW4 7264   2.251   1.162   3.112 -0.4437 -0.0485 -0.1187
    1SOL     OW 7265   2.479   1.278   3.008 -0.4238  0.4870 -0.2559
    1SOL    HW2 7266   2.395   1.246   3.042  0.0538  0.0286  0.4972
    1SOL    HW3 7267   2.465   1.284   2.914 -0.4771 -2.1032 -0.4523
    1SOL    MW4 7268   2.466   1.274   3.000 -0.3679  0.0848 -0.1824
    1SOL     OW 7269   2.492   1.545   3.130  0.1975 -0.4731  0.3717
    1SOL    HW2 7270   2.409   1.586   3.105  0.3540 -0.1699  0.3541
    1SOL    HW3 7271   2.486   1.457   3.093 -0.1419 -0.4719  0.4192
    1SOL    MW4 7272   2.480   1.539   3.122  0.1733 -0.4328  0.3755
    1SOL     OW 7273   2.232   1.631   3.026 -0.5209  0.4598  0.3725
    1SOL    HW2 7274   2.147   1.593   3.052 -0.7110  0.7056  0.1111
    1SOL    HW3 7275   2.226   1.638   2.930  0.2099 -0.5235  0.2527
    1SOL    MW4 7276   2.220   1.627   3.017 -0.4499  0.3625  0.3221
    1SOL     OW 7277   2.225   1.912   3.096 -0.5858 -0.2736  0.7879
    1SOL    HW2 7278   2.296   1.972   3.078 -0.3062 -0.5734  0.8822
    1SOL    HW3 7279   2.250   1.831   3.052  0.3038 -1.1518  2.8413
    1SOL    MW4 7280   2.238   1.909   3.088 -0.4315 -0.4290  1.0715
    1SOL     OW 7281   2.467   2.029   3.021  0.2592 -0.1317 -0.1439
    1SOL    HW2 7282   2.546   1.985   3.051  0.9365  0.4212 -1.1191
    1SOL    HW3 7283   2.478   2.038   2.926 -0.3188  1.2642 -0.0930
    1SOL    MW4 7284   2.479   2.024   3.012  0.2725  0.1256 -0.2656
    1SOL     OW 7285   2.430   2.278   3.130 -0.0210 -0.0448  0.0906
    1SOL    HW2 7286   2.447   2.256   3.221 -1.8745 -1.1892  0.1854
    1SOL    HW3 7287   2.434   2.194   3.084 -1.5709  0.1511 -0.4544
    1SOL    MW4 7288   2.433   2.264   3.136 -0.4699 -0.1698  0.0312
    1SOL     OW 7289   2.212   2.417   3.033 -0.8818 -0.7868 -0.0501
    1SOL    HW2 7290   2.213   2.504   3.073 -1.2396 -0.8650  0.1414
    1SOL    HW3 7291   2.292   2.375   3.064 -2.0974 -1.5558  2.2249
    1SOL    MW4 7292   2.222   2.423   3.042 -1.0893 -0.8986  0.2754
    1SOL     OW 7293   2.251   2.697   3.136  0.2954 -0.1083 -0.1392
    1SOL    HW2 7294   2.331   2.747   3.117  0.7924 -0.0055  2.1603
    1SOL    HW3 7295   2.181   2.749   3.097  1.1177  0.9303 -0.2670
    1SOL    MW4 7296   2.253   2.711   3.128  0.4694  0.0422  0.1469
    1SOL     OW 7297   2.475   2.837   3.061 -0.0307  0.3981  0.3417
    1SOL    HW2 7298   2.474   2.927   3.092  0.8528  0.5379  0.0014
    1SOL    HW3 7299   2.478   2.844   2.965 -1.7521 -0.0177  0.2471
    1SOL    MW4 7300   2.476   2.850   3.052 -0.1411  0.3619  0.2842
    1SOL     OW 7301   2.435   3.107   3.160 -0.0958  0.0846 -0.3719
    1SOL    HW2 7302   2.516   3.144   3.124  0.1842 -1.3591 -1.2673
    1SOL    HW3 7303   2.365   3.152   3.113  0.2453 -0.5307 -1.4952
    1SOL    MW4 7304   2.437   3.118   3.149 -0.0136 -0.1872 -0.6382
    1SOL     OW 7305   2.248   3.204   3.006 -0.0318  0.0257 -0.0405
    1SOL    HW2 7306   2.240   3.299   3.019 -0.7513  0.0431 -0.5673
    1SOL    HW3 7307   2.178   3.167   3.060  0.5906 -0.2490  0.5942
    1SOL    MW4 7308   2.237   3.212   3.015 -0.0443 -0.0083 -0.0265
    1SOL     OW 7309   2.272   3.472   3.093 -0.2797  0.1327  0.0783
    1SOL    HW2 7310   2.350   3.520   3.064 -0.2550 -0.2004 -0.4135
    1SOL    HW3 7311   2.198   3.521   3.057 -0.2683  0.0063 -0.1173
    1SOL    MW4 7312   2.273   3.485   3.085 -0.2749  0.0720 -0.0124
    1SOL     OW 7313   2.489   3.614   3.004 -0.1559 -0.0459  0.2052
    1SOL    HW2 7314   2.577   3.583   3.024 -0.1177  0.3075  0.5907
    1SOL    HW3 7315   2.484   3.701   3.044 -0.0918  0.6609 -1.2711
    1SOL    MW4 7316   2.500   3.621   3.012 -0.1421  0.0937  0.0613
    1SOL     OW 7317   2.447   3.872   3.096  0.0204  0.3485  0.2065
    1SOL    HW2 7318   2.433   3.869   3.190 -0.7925  2.2402  0.1719
    1SOL    HW3 7319   2.539   3.897   3.086  0.5677 -1.4519  0.4618
    1SOL    MW4 7320   2.457   3.875   3.107 -0.0148  0.3605  0.2353
    1SOL     OW 7321   2.234   4.015   2.973 -0.0629 -0.0742  0.7227
    1SOL    HW2 7322   2.311   3.965   3.000 -0.7782 -1.7064 -0.1835
    1SOL    HW3 7323   2.161   3.973   3.017 -0.8074 -0.5365 -0.9178
    1SOL    MW4 7324   2.235   4.003   2.982 -0.2556 -0.3505  0.3865
    1SOL     OW 7325   2.214   4.268   3.082 -0.6946  0.2668  0.2072
    1SOL    HW2 7326   2.230   4.186   3.035  2.0650  1.7866 -1.5950
    1SOL    HW3 7327   2.131   4.300   3.047 -0.9829 -0.9496 -0.2445
    1SOL    MW4 7328   2.205   4.261   3.071 -0.3684  0.3066 -0.0901
    1SOL     OW 7329   2.472   4.365   2.975  0.3335  0.0327 -0.3326
    1SOL    HW2 7330   2.384   4.334   2.998  0.8198 -1.1930 -0.0499
    1SOL    HW3 7331   2.469   4.376   2.880 -0.1713  0.1232 -0.3084
    1SOL    MW4 7332   2.460   4.362   2.965  0.3309 -0.1168 -0.2918
    1SOL     OW 7333   2.883   0.026   3.070 -0.2393  0.2505 -0.0911
    1SOL    HW2 7334   2.968   0.062   3.046  0.1650 -0.3616  0.4293
    1SOL    HW3 7335   2.885  -0.064   3.040 -1.1029  0.5295 -1.0284
    1SOL    MW4 7336   2.894   0.019   3.063 -0.2999  0.2069 -0.1459
    1SOL     OW 7337   2.647   0.099   2.955 -0.1620  0.0483  0.1824
    1SOL    HW2 7338   2.730   0.075   2.997  0.7999  0.8265 -1.2416
    1SOL    HW3 7339   2.579   0.065   3.014  1.1670 -0.3660  1.4921
    1SOL    MW4 7340   2.649   0.092   2.968  0.1402  0.0963  0.1674
    1SOL     OW 7341   2.662   0.351   3.075  0.4209 -0.4179 -0.0460
    1SOL    HW2 7342   2.648   0.262   3.042 -2.7636  0.4407 -1.1733
    1SOL    HW3 7343   2.663   0.341   3.170 -1.1006 -1.5236 -0.1302
    1SOL    MW4 7344   2.661   0.338   3.083 -0.2000 -0.4506 -0.2060
    1SOL     OW 7345   2.874   0.510   3.005 -0.0033  0.1825 -0.3200
    1SOL    HW2 7346   2.807   0.446   3.029  0.7547 -0.3017  0.5614
    1SOL    HW3 7347   2.894   0.490   2.914 -0.6901 -0.0083 -0.4295
    1SOL    MW4 7348   2.868   0.499   2.996  0.0062  0.0934 -0.2179
    1SOL     OW 7349   2.927   0.772   3.106  0.0509  0.3195  0.6515
    1SOL    HW2 7350   2.935   0.775   3.202  2.3573 -0.7537  0.5322
    1SOL    HW3 7351   2.916   0.679   3.085 -1.3944  0.6370 -0.0949
    1SOL    MW4 7352   2.927   0.760   3.116  0.1645  0.2198  0.5372
    1SOL     OW 7353   2.718   0.923   2.993  0.1405  0.0697 -0.2119
    1SOL    HW2 7354   2.718   1.016   3.013  2.1390  0.5442 -2.2591
    1SOL    HW3 7355   2.794   0.888   3.039  1.5330  0.1677 -2.3511
    1SOL    MW4 7356   2.728   0.931   3.001  0.5877  0.1453 -0.7644
    1SOL     OW 7357   2.715   1.167   3.106  0.2956 -0.4073  0.1290
    1SOL    HW2 7358   2.776   1.223   3.057  0.8640 -0.3259  0.9326
    1SOL    HW3 7359   2.630   1.185   3.066  0.3308  1.6519  0.9169
    1SOL    MW4 7360   2.712   1.177   3.094  0.3753 -0.1248  0.3388
    1SOL     OW 7361   2.907   1.304   2.982 -0.7145  0.1476 -0.3915
    1SOL    HW2 7362   2.976   1.248   3.019 -0.9298 -0.1896 -0.5028
    1SOL    HW3 7363   2.925   1.390   3.018  0.6590  0.3757 -1.5932
    1SOL    MW4 7364   2.919   1.308   2.992 -0.5617  0.1333 -0.5648
    1SOL     OW 7365   2.949   1.568   3.103 -0.1744 -0.1695 -0.2679
    1SOL    HW2 7366   2.972   1.565   3.196 -0.0773 -0.8587 -0.3119
    1SOL    HW3 7367   3.006   1.635   3.066 -0.2404  0.1307  0.1792
    1SOL    MW4 7368   2.959   1.576   3.110 -0.1702 -0.2208 -0.2146
    1SOL     OW 7369   2.694   1.694   3.025 -0.4206  0.0353  0.1296
    1SOL    HW2 7370   2.777   1.647   3.034  0.1316  1.0033  0.1626
    1SOL    HW3 7371   2.627   1.630   3.048  0.3396 -0.6656  0.3901
    1SOL    MW4 7372   2.696   1.679   3.029 -0.2475  0.0705  0.1683
    1SOL     OW 7373   2.700   1.944   3.139 -0.2053  0.0965 -0.2578
    1SOL    HW2 7374   2.786   1.971   3.107  0.0809 -1.2824 -0.6808
    1SOL    HW3 7375   2.687   1.857   3.103 -1.0422 -0.4089  1.2147
    1SOL    MW4 7376   2.710   1.936   3.130 -0.2778 -0.1521 -0.1194
    1SOL     OW 7377   2.939   2.056   3.053 -0.4987 -0.1803  0.3995
    1SOL    HW2 7378   2.914   2.145   3.078  1.2193  0.6687 -0.8289
    1SOL    HW3 7379   2.957   2.062   2.959 -0.0527 -1.7538  0.3801
    1SOL    MW4 7380   2.938   2.069   3.044 -0.2134 -0.2759  0.2348
    1SOL     OW 7381   2.883   2.321   3.123 -0.0265  0.3102 -0.2394
    1SOL    HW2 7382   2.955   2.370   3.083 -0.4054 -0.5520 -2.0720
    1SOL    HW3 7383   2.805   2.351   3.076 -0.6328  0.0730  0.6254
    1SOL    MW4 7384   2.883   2.331   3.111 -0.1564  0.1655 -0.3669
    1SOL     OW 7385   2.625   2.429   3.017  0.2997 -0.0192  0.3980
    1SOL    HW2 7386   2.630   2.517   3.053 -1.7373  0.2412  0.0641
    1SOL    HW3 7387   2.558   2.385   3.069 -0.2223 -0.6943 -0.8182
    1SOL    MW4 7388   2.617   2.435   3.029 -0.0381 -0.0739  0.1936
    1SOL     OW 7389   2.703   2.705   3.112 -0.1204  0.1997  0.1986
    1SOL    HW2 7390   2.707   2.702   3.207  1.2778  2.0193  0.2290
    1SOL    HW3 7391   2.625   2.757   3.092  0.8318  1.7276  0.4033
    1SOL    MW4 7392   2.693   2.711   3.122  0.1898  0.6416  0.2296
    1SOL     OW 7393   2.910   2.842   2.994  0.2938 -0.2614 -0.5422
    1SOL    HW2 7394   2.982   2.786   3.023  0.3988 -0.8473 -1.8630
    1SOL    HW3 7395   2.834   2.808   3.040  0.7120 -0.2054  0.1947
    1SOL    MW4 7396   2.910   2.830   3.004  0.3629 -0.3312 -0.6194
    1SOL     OW 7397   2.919   3.090   3.092 -0.1686  0.2358 -0.0663
    1SOL    HW2 7398   2.832   3.122   3.067 -0.4321  0.8731  1.5799
    1SOL    HW3 7399   2.928   3.007   3.046  0.0239  2.0651 -3.4312
    1SOL    MW4 7400   2.908   3.083   3.083 -0.1781  0.5617 -0.2930
    1SOL     OW 7401   2.683   3.209   3.048  0.5126  0.3777  0.1641
    1SOL    HW2 7402   2.682   3.301   3.074  0.1741  0.3242  0.3353
    1SOL    HW3 7403   2.681   3.212   2.952 -1.3494  0.5221  0.1932
    1SOL    MW4 7404   2.683   3.222   3.039  0.2222  0.3896  0.1903
    1SOL     OW 7405   2.722   3.482   3.125  0.5029  0.2542 -0.2474
    1SOL    HW2 7406   2.740   3.486   3.219 -1.6727 -0.0856  0.2036
    1SOL    HW3 7407   2.801   3.517   3.084  1.6028  0.1002  1.6929
    1SOL    MW4 7408   2.735   3.487   3.132  0.3610  0.1891  0.0682
    1SOL     OW 7409   2.939   3.585   2.977 -0.1043 -0.5358 -0.1633
    1SOL    HW2 7410   3.022   3.558   3.017 -0.6093 -1.0171  0.5632
    1SOL    HW3 7411   2.930   3.677   3.002 -0.7283 -0.9996  1.3998
    1SOL    MW4 7412   2.949   3.594   2.986 -0.2534 -0.6604  0.1388
    1SOL     OW 7413   2.940   3.849   3.067 -0.3734  0.3342  0.0225
    1SOL    HW2 7414   2.940   3.842   3.162  0.9162  0.8220  0.0682
    1SOL    HW3 7415   2.853   3.882   3.046 -0.9307 -0.4953  0.9671
    1SOL    MW4 7416   2.928   3.853   3.077 -0.2768  0.2892  0.1528
    1SOL     OW 7417   2.698   3.959   3.003 -0.3129  0.0731  0.1057
    1SOL    HW2 7418   2.704   4.052   3.027 -0.2934 -0.0016  0.3975
    1SOL    HW3 7419   2.676   3.960   2.910  2.0627  0.3598 -0.4863
    1SOL    MW4 7420   2.695   3.972   2.994  0.0031  0.1011  0.0660
    1SOL     OW 7421   2.692   4.222   3.081  0.0413 -0.0032  0.7161
    1SOL    HW2 7422   2.692   4.228   3.177  1.0354 -2.2731  0.8809
    1SOL    HW3 7423   2.611   4.265   3.055  1.2080  3.4225  2.3503
    1SOL    MW4 7424   2.681   4.229   3.090  0.3266  0.1493  0.9534
    1SOL     OW 7425   2.904   4.423   2.991 -0.1087 -0.0578  0.1591
    1SOL    HW2 7426   2.989   4.384   3.012 -0.0544  0.0086  0.0661
    1SOL    HW3 7427   2.840   4.365   3.032  0.0212  0.4404  1.0728
    1SOL    MW4 7428   2.907   4.410   2.999 -0.0842  0.0167  0.2673
    1SOL     OW 7429   3.313   0.001   3.105  0.1816  0.3529  0.0239
    1SOL    HW2 7430   3.391   0.046   3.072 -0.6270  1.6769 -0.1299
    1SOL    HW3 7431   3.317  -0.086   3.066  1.5201  0.4412 -0.0669
    1SOL    MW4 7432   3.324  -0.005   3.096  0.2518  0.5393 -0.0086
    1SOL     OW 7433   3.110   0.134   2.981  0.0264 -0.0941 -0.3582
    1SOL    HW2 7434   3.109   0.219   3.025  0.5180  0.3918 -1.2581
    1SOL    HW3 7435   3.181   0.086   3.024 -0.2764 -0.0625  0.1771
    1SOL    MW4 7436   3.119   0.139   2.992  0.0515 -0.0258 -0.4065
    1SOL     OW 7437   3.100   0.372   3.116  0.0739 -0.0560 -0.0888
    1SOL    HW2 7438   3.173   0.425   3.083  0.5145  0.2797  1.3523
    1SOL    HW3 7439   3.022   0.408   3.073  0.4442  1.4263  0.4499
    1SOL    MW4 7440   3.099   0.384   3.106  0.1810  0.1839  0.1724
    1SOL     OW 7441   3.355   0.500   2.991  0.3035  0.3203  0.2963
    1SOL    HW2 7442   3.435   0.459   3.025  0.4946  0.0278 -0.4772
    1SOL    HW3 7443   3.369   0.501   2.896 -0.5658  0.3704  0.1726
    1SOL    MW4 7444   3.368   0.494   2.983  0.2141  0.2883  0.1776
    1SOL     OW 7445   3.373   0.766   3.074  0.1340  0.1939  0.6221
    1SOL    HW2 7446   3.368   0.751   3.169 -1.2608 -0.4232  0.4650
    1SOL    HW3 7447   3.373   0.678   3.036 -0.1304  0.4565  0.0136
    1SOL    MW4 7448   3.372   0.752   3.082 -0.0849  0.1471  0.5209
    1SOL     OW 7449   3.158   0.889   2.986  0.0350  0.3486 -0.1686
    1SOL    HW2 7450   3.233   0.847   3.028  0.8947  2.7317  0.8004
    1SOL    HW3 7451   3.083   0.866   3.042  0.3968 -0.3064  0.0487
    1SOL    MW4 7452   3.158   0.881   2.999  0.1960  0.5766 -0.0122
    1SOL     OW 7453   3.128   1.133   3.105 -0.0528 -0.2759 -0.0628
    1SOL    HW2 7454   3.200   1.191   3.079  0.6947  0.3651  3.1618
    1SOL    HW3 7455   3.149   1.049   3.064  0.4736  0.8983 -2.2935
    1SOL    MW4 7456   3.140   1.130   3.096  0.1152 -0.0362  0.0684
    1SOL     OW 7457   3.335   1.281   3.014 -0.1225 -0.0166  0.2565
    1SOL    HW2 7458   3.427   1.256   3.028  0.0809  0.1667 -0.7542
    1SOL    HW3 7459   3.325   1.362   3.063 -0.1811 -0.8648  1.6942
    1SOL    MW4 7460   3.346   1.288   3.022 -0.1035 -0.1042  0.3130
    1SOL     OW 7461   3.322   1.545   3.126  0.5155 -0.0081  0.0415
    1SOL    HW2 7462   3.328   1.532   3.221  1.2020  0.5806  0.0735
    1SOL    HW3 7463   3.411   1.567   3.098  0.8861 -2.7535 -1.1214
    1SOL    MW4 7464   3.334   1.546   3.135  0.6549 -0.2925 -0.1078
    1SOL     OW 7465   3.151   1.744   3.022  0.0689 -0.2189  0.1170
    1SOL    HW2 7466   3.205   1.675   3.061 -0.4146 -1.0692 -0.6938
    1SOL    HW3 7467   3.173   1.822   3.071  1.6790 -0.6614  0.1204
    1SOL    MW4 7468   3.161   1.745   3.033  0.2177 -0.3893  0.0107
    1SOL     OW 7469   3.184   1.975   3.146  0.5128  0.2761  0.4107
    1SOL    HW2 7470   3.172   1.962   3.240  1.0265 -1.3804  0.2534
    1SOL    HW3 7471   3.096   1.998   3.114 -0.0285 -0.8962  1.0242
    1SOL    MW4 7472   3.171   1.976   3.154  0.5095 -0.0970  0.4709
    1SOL     OW 7473   3.398   2.077   2.999  0.0662  0.2081 -0.0187
    1SOL    HW2 7474   3.473   2.034   3.040  0.6349  1.5387  0.3418
    1SOL    HW3 7475   3.321   2.034   3.038  0.6011  1.0700  2.0054
    1SOL    MW4 7476   3.397   2.066   3.010  0.2120  0.4973  0.2959
    1SOL     OW 7477   3.342   2.311   3.125 -0.0099 -0.1245 -0.6364
    1SOL    HW2 7478   3.347   2.291   3.218  1.0055  0.1026 -0.6279
    1SOL    HW3 7479   3.347   2.226   3.081  0.3359 -0.1781 -0.4976
    1SOL    MW4 7480   3.343   2.297   3.131  0.1695 -0.1016 -0.6170
    1SOL     OW 7481   3.108   2.429   2.998 -0.8429 -0.4562 -0.0116
    1SOL    HW2 7482   3.187   2.402   3.045  0.0266 -0.7854 -1.6127
    1SOL    HW3 7483   3.096   2.521   3.022  0.7494 -0.0463 -0.6950
    1SOL    MW4 7484   3.117   2.438   3.007 -0.5183 -0.4454 -0.3130
    1SOL     OW 7485   3.144   2.696   3.097 -0.4310 -0.5732  0.4095
    1SOL    HW2 7486   3.219   2.753   3.081  0.0155 -1.0166  0.8981
    1SOL    HW3 7487   3.129   2.701   3.191 -2.4405  1.2594  0.0030
    1SOL    MW4 7488   3.152   2.704   3.107 -0.6373 -0.3898  0.4203
    1SOL     OW 7489   3.365   2.816   3.001  0.0134  0.5060 -0.1110
    1SOL    HW2 7490   3.444   2.772   3.034 -0.0336 -0.1031 -0.7947
    1SOL    HW3 7491   3.370   2.905   3.038  0.8191  0.3535  0.1622
    1SOL    MW4 7492   3.376   2.822   3.010  0.1135  0.4053 -0.1650
    1SOL     OW 7493   3.397   3.082   3.111  0.4451  0.2137  0.0053
    1SOL    HW2 7494   3.316   3.122   3.078 -0.7447 -1.4836  0.7789
    1SOL    HW3 7495   3.391   3.092   3.206  0.5189 -1.0786  0.1467
    1SOL    MW4 7496   3.385   3.089   3.119  0.2978 -0.1810  0.1259
    1SOL     OW 7497   3.173   3.205   3.016  0.6118  0.2578  0.3880
    1SOL    HW2 7498   3.081   3.186   3.034  0.5384  0.2803  0.0377
    1SOL    HW3 7499   3.176   3.224   2.923  0.7000  1.8978  0.7148
    1SOL    MW4 7500   3.161   3.205   3.006  0.6137  0.4768  0.3848
    1SOL     OW 7501   3.184   3.479   3.083  0.9163 -0.0656 -0.1423
    1SOL    HW2 7502   3.259   3.510   3.033  1.3387 -1.4733 -0.4051
    1SOL    HW3 7503   3.185   3.384   3.072 -0.3981 -0.1794  0.5598
    1SOL    MW4 7504   3.194   3.471   3.075  0.7985 -0.2666 -0.0846
    1SOL     OW 7505   3.393   3.614   2.967  0.0837  0.2757 -0.0568
    1SOL    HW2 7506   3.480   3.594   3.003  0.4267  0.8795 -0.5467
    1SOL    HW3 7507   3.367   3.695   3.012 -0.2887  0.0286  0.1837
    1SOL    MW4 7508   3.401   3.622   2.978  0.0799  0.3228 -0.0896
    1SOL     OW 7509   3.344   3.850   3.086  0.4794  0.0818 -0.1999
    1SOL    HW2 7510   3.339   3.852   3.181  1.0776  1.2033 -0.1910
    1SOL    HW3 7511   3.281   3.916   3.057  1.3976  0.8228 -0.5369
    1SOL    MW4 7512   3.335   3.859   3.094  0.6795  0.3276 -0.2432
    1SOL     OW 7513   3.161   4.033   3.004  0.2102 -0.3721  0.0599
    1SOL    HW2 7514   3.080   3.989   3.028 -0.0130 -0.2098 -0.3762
    1SOL    HW3 7515   3.166   4.022   2.909  1.4415 -1.6389  0.2557
    1SOL    MW4 7516   3.151   4.026   2.994  0.3436 -0.5178  0.0281
    1SOL     OW 7517   3.126   4.277   3.091  0.1257 -0.0056 -0.0915
    1SOL    HW2 7518   3.118   4.278   3.186  0.7442  0.2381 -0.0345
    1SOL    HW3 7519   3.127   4.184   3.067 -0.5043 -0.0597  0.0920
    1SOL    MW4 7520   3.125   4.265   3.100  0.1242  0.0196 -0.0601
    1SOL     OW 7521   3.318   4.427   2.975 -0.3388 -0.1315  0.1631
    1SOL    HW2 7522   3.405   4.404   3.008 -0.1485  0.1375 -0.1445
    1SOL    HW3 7523   3.258   4.372   3.026  0.0451 -0.6790  0.0322
    1SOL    MW4 7524   3.322   4.416   2.986 -0.2630 -0.1678  0.1051
    1SOL     OW 7525   3.812   4.663   3.141  0.3916 -0.2288 -0.0718
    1SOL    HW2 7526   3.798   4.584   3.088 -0.3927 -0.2831  0.2028
    1SOL    HW3 7527   3.735   4.717   3.124  0.8317  0.3902 -0.1022
    1SOL    MW4 7528   3.800   4.659   3.132  0.3462 -0.1544 -0.0393
    1SOL     OW 7529   3.545   0.139   3.036 -0.0285 -0.6388  0.0841
    1SOL    HW2 7530   3.550   0.227   3.075 -0.7300 -0.8246  0.6046
    1SOL    HW3 7531   3.573   0.151   2.945  0.3841  0.0299  0.2955
    1SOL    MW4 7532   3.549   0.152   3.029 -0.0663 -0.5751  0.1807
    1SOL     OW 7533   3.580   0.394   3.116  0.1097 -0.3015  0.1069
    1SOL    HW2 7534   3.568   0.383   3.210  1.9797  0.4902  0.4506
    1SOL    HW3 7535   3.673   0.415   3.105 -0.4686  1.4605 -1.7475
    1SOL    MW4 7536   3.591   0.395   3.127  0.2801  0.0355 -0.0923
    1SOL     OW 7537   3.819   0.514   3.025  0.3400  0.0863  0.6206
    1SOL    HW2 7538   3.895   0.477   3.069  0.3386  0.2318  0.7463
    1SOL    HW3 7539   3.805   0.598   3.068 -0.4412 -0.3424  1.2083
    1SOL    MW4 7540   3.827   0.521   3.037  0.2367  0.0489  0.7148
    1SOL     OW 7541   3.783   0.767   3.110 -0.5148 -0.4428 -0.4270
    1SOL    HW2 7542   3.790   0.772   3.205 -1.8869  0.5259 -0.3605
    1SOL    HW3 7543   3.871   0.786   3.078 -0.5614  1.5651  0.5829
    1SOL    MW4 7544   3.796   0.770   3.118 -0.7021 -0.0501 -0.2851
    1SOL     OW 7545   3.597   0.929   3.013 -0.0937 -0.0376 -0.0040
    1SOL    HW2 7546   3.664   0.868   3.044 -1.3978 -1.3412  0.3241
    1SOL    HW3 7547   3.514   0.881   3.024 -0.7591  0.0897 -3.9191
    1SOL    MW4 7548   3.595   0.914   3.019 -0.3538 -0.1928 -0.4776
    1SOL     OW 7549   3.575   1.177   3.112  0.1286  0.0356 -0.3004
    1SOL    HW2 7550   3.660   1.214   3.088 -0.2925  0.0371 -1.8369
    1SOL    HW3 7551   3.579   1.086   3.083 -0.7998  0.3397 -1.4492
    1SOL    MW4 7552   3.586   1.170   3.105 -0.0494  0.0761 -0.6549
    1SOL     OW 7553   3.821   1.258   3.041 -0.2582  0.5977  0.2043
    1SOL    HW2 7554   3.839   1.342   3.082 -1.2004  0.4139  1.0072
    1SOL    HW3 7555   3.817   1.277   2.947  0.0722  1.3507  0.3454
    1SOL    MW4 7556   3.823   1.272   3.034 -0.3390  0.6728  0.3288
    1SOL     OW 7557   3.829   1.519   3.130 -0.0060 -0.0794 -0.3865
    1SOL    HW2 7558   3.834   1.529   3.225 -0.6856 -1.2586 -0.2201
    1SOL    HW3 7559   3.740   1.547   3.107  0.3174  0.6741 -0.7407
    1SOL    MW4 7560   3.818   1.524   3.139 -0.0532 -0.1355 -0.4115
    1SOL     OW 7561   3.580   1.619   3.019 -0.0048 -0.2623  0.2529
    1SOL    HW2 7562   3.582   1.710   3.049 -0.2193 -0.3972  0.6787
    1SOL    HW3 7563   3.600   1.624   2.925  0.6163  0.1665  0.4055
    1SOL    MW4 7564   3.583   1.632   3.010  0.0486 -0.2234  0.3295
    1SOL     OW 7565   3.603   1.893   3.117  0.2947  0.4367  0.2161
    1SOL    HW2 7566   3.591   1.892   3.212  1.0628 -0.7229  0.3136
    1SOL    HW3 7567   3.682   1.946   3.103  1.0062 -0.5654  0.3445
    1SOL    MW4 7568   3.612   1.900   3.128  0.4897  0.1514  0.2460
    1SOL     OW 7569   3.806   2.068   3.035 -0.7488  0.4033 -0.1300
    1SOL    HW2 7570   3.811   2.162   3.052  1.4230  0.4602 -0.9130
    1SOL    HW3 7571   3.784   2.061   2.942  0.4402  0.1638 -0.4043
    1SOL    MW4 7572   3.804   2.079   3.025 -0.3052  0.3793 -0.2694
    1SOL     OW 7573   3.808   2.336   3.090  0.2489  0.2245  0.8379
    1SOL    HW2 7574   3.813   2.335   3.185 -0.4127 -1.4069  0.8824
    1SOL    HW3 7575   3.721   2.371   3.071  0.0325 -0.2952  0.8625
    1SOL    MW4 7576   3.797   2.341   3.100  0.1330 -0.0596  0.8471
    1SOL     OW 7577   3.562   2.418   2.998  0.2272 -0.0605  0.3299
    1SOL    HW2 7578   3.562   2.507   3.035  0.0759  0.5481 -1.0932
    1SOL    HW3 7579   3.491   2.373   3.045 -0.9642  1.1555 -0.2662
    1SOL    MW4 7580   3.552   2.424   3.009  0.0501  0.1805  0.0634
    1SOL     OW 7581   3.594   2.662   3.111  0.5487  0.0084 -0.1693
    1SOL    HW2 7582   3.604   2.678   3.205  0.0721  0.1491 -0.1413
    1SOL    HW3 7583   3.669   2.706   3.071  0.3290  0.6222  0.0813
    1SOL    MW4 7584   3.605   2.670   3.118  0.4568  0.1082 -0.1323
    1SOL     OW 7585   3.825   2.816   3.030  0.3522 -0.0514 -0.2465
    1SOL    HW2 7586   3.828   2.903   3.071 -1.2156 -0.2720  0.3482
    1SOL    HW3 7587   3.814   2.834   2.937  2.5527  0.4242 -0.4429
    1SOL    MW4 7588   3.824   2.830   3.023  0.4358 -0.0176 -0.1941
    1SOL     OW 7589   3.831   3.082   3.115  0.4022 -0.4694 -0.0178
    1SOL    HW2 7590   3.907   3.139   3.101 -0.9763  1.9360  1.8858
    1SOL    HW3 7591   3.763   3.120   3.059 -0.2264 -0.8985  0.4517
    1SOL    MW4 7592   3.832   3.094   3.106  0.1376 -0.2086  0.2952
    1SOL     OW 7593   3.608   3.226   3.019  0.6436 -0.1222  0.0127
    1SOL    HW2 7594   3.537   3.171   3.052  1.1183  0.4443  2.0371
    1SOL    HW3 7595   3.578   3.255   2.933 -1.7210  0.3331  0.9444
    1SOL    MW4 7596   3.594   3.223   3.012  0.3943  0.0124  0.4025
    1SOL     OW 7597   3.626   3.505   3.085  0.3301  0.4369  0.2484
    1SOL    HW2 7598   3.715   3.524   3.057 -0.5694  0.4546 -2.7962
    1SOL    HW3 7599   3.619   3.410   3.082 -0.1974  0.5124 -0.9945
    1SOL    MW4 7600   3.637   3.495   3.081  0.1416  0.4494 -0.3171
    1SOL     OW 7601   3.879   3.621   3.015  0.1159 -0.3559  0.0506
    1SOL    HW2 7602   3.860   3.711   3.043  0.3665 -0.6283  1.0812
    1SOL    HW3 7603   3.870   3.624   2.919  0.2563  0.7999  0.0654
    1SOL    MW4 7604   3.875   3.634   3.006  0.1671 -0.2394  0.1884
    1SOL     OW 7605   3.817   3.875   3.105 -0.1587 -0.8657  0.2133
    1SOL    HW2 7606   3.819   3.898   3.198 -1.3790 -1.1395  0.3144
    1SOL    HW3 7607   3.743   3.924   3.069  0.8891 -0.0196 -0.8210
    1SOL    MW4 7608   3.807   3.884   3.113 -0.1812 -0.7904  0.0904
    1SOL     OW 7609   3.582   4.009   3.036  0.2165 -0.2696  0.0199
    1SOL    HW2 7610   3.514   3.943   3.046  0.5739 -0.4676  1.2316
    1SOL    HW3 7611   3.578   4.034   2.944 -2.6272  0.9379  0.4082
    1SOL    MW4 7612   3.572   4.004   3.025 -0.1116 -0.1364  0.2310
    1SOL     OW 7613   3.549   4.332   3.101 -0.0489  0.2460 -0.1261
    1SOL    HW2 7614   3.627   4.369   3.061  0.0726  1.2477  1.0269
    1SOL    HW3 7615   3.564   4.237   3.099  0.6025  0.3632 -1.1062
    1SOL    MW4 7616   3.561   4.324   3.095  0.0529  0.3929 -0.1032
    1SOL     OW 7617   3.785   4.432   2.996 -0.0714 -0.0249  0.0133
    1SOL    HW2 7618   3.845   4.366   3.030  0.8813  0.8112 -0.0276
    1SOL    HW3 7619   3.804   4.435   2.902  1.1441  1.5392  0.2732
    1SOL    MW4 7620   3.796   4.424   2.988  0.2148  0.2923  0.0424
    1SOL     OW 7621   4.263   0.073   3.096  0.1677  0.1017  0.4549
    1SOL    HW2 7622   4.281   0.062   3.190 -0.5300 -0.1729  0.5580
    1SOL    HW3 7623   4.250  -0.016   3.063 -0.5308  0.2578  0.2947
    1SOL    MW4 7624   4.263   0.060   3.104 -0.0162  0.0861  0.4473
    1SOL     OW 7625   3.988   0.154   3.015  0.1290 -0.4397  0.4237
    1SOL    HW2 7626   4.077   0.131   3.040  0.3487 -1.2368 -1.0205
    1SOL    HW3 7627   3.932   0.095   3.067  0.4406 -0.0628  1.1937
    1SOL    MW4 7628   3.992   0.143   3.025  0.1993 -0.4952  0.3347
    1SOL     OW 7629   4.048   0.392   3.168  0.2504 -0.0602 -0.0288
    1SOL    HW2 7630   4.130   0.429   3.134  1.6847 -1.6330  1.6315
    1SOL    HW3 7631   4.036   0.310   3.120  0.8706 -0.9557  1.3084
    1SOL    MW4 7632   4.057   0.386   3.157  0.5212 -0.3859  0.3667
    1SOL     OW 7633   4.266   0.519   3.033  0.1735 -0.4294  0.3664
    1SOL    HW2 7634   4.281   0.612   3.051 -0.8790 -0.4514  1.5065
    1SOL    HW3 7635   4.246   0.515   2.940 -1.9328  0.8030  0.7389
    1SOL    MW4 7636   4.265   0.531   3.023 -0.2432 -0.2697  0.5660
    1SOL     OW 7637   4.263   0.774   3.125  0.1636  0.1489 -0.1749
    1SOL    HW2 7638   4.183   0.802   3.080 -0.2671 -0.4798  0.1928
    1SOL    HW3 7639   4.331   0.834   3.093 -0.5728  1.0672 -0.0409
    1SOL    MW4 7640   4.261   0.786   3.114  0.0095  0.1871 -0.1087
    1SOL     OW 7641   4.019   0.856   3.024 -0.5257 -0.1354  0.0027
    1SOL    HW2 7642   4.032   0.941   3.065 -2.4513 -0.4213  1.2296
    1SOL    HW3 7643   4.023   0.874   2.930  0.1713  1.1085  0.2647
    1SOL    MW4 7644   4.021   0.869   3.017 -0.6881 -0.0090  0.1991
    1SOL     OW 7645   4.064   1.118   3.126  0.0583 -0.0695  0.1001
    1SOL    HW2 7646   4.056   1.141   3.219  1.0998  0.1283  0.1491
    1SOL    HW3 7647   3.988   1.159   3.084  0.7414  1.6654  0.5281
    1SOL    MW4 7648   4.053   1.126   3.133  0.2856  0.1854  0.1628
    1SOL     OW 7649   4.273   1.264   3.026 -0.0456 -0.0003 -0.4655
    1SOL    HW2 7650   4.194   1.226   3.064  0.4141  0.3818  0.8962
    1SOL    HW3 7651   4.258   1.260   2.932 -2.8868  2.5377 -0.2021
    1SOL    MW4 7652   4.261   1.258   3.019 -0.3600  0.3849 -0.2511
    1SOL     OW 7653   4.242   1.529   3.121  0.3390  0.5678  0.2577
    1SOL    HW2 7654   4.166   1.576   3.086 -0.7736 -0.5726  1.1095
    1SOL    HW3 7655   4.229   1.438   3.094  1.5939  0.4250  0.0997
    1SOL    MW4 7656   4.230   1.523   3.113  0.3581  0.3986  0.3490
    1SOL     OW 7657   4.024   1.672   3.009 -0.2026  0.2326  0.1469
    1SOL    HW2 7658   4.020   1.755   3.056 -0.7788  0.9809 -1.2197
    1SOL    HW3 7659   3.954   1.619   3.048  0.0050  0.4686  0.8421
    1SOL    MW4 7660   4.014   1.676   3.021 -0.2508  0.3624  0.0587
    1SOL     OW 7661   4.020   1.914   3.140 -0.0946  0.5583 -0.3337
    1SOL    HW2 7662   4.091   1.968   3.106  0.3234 -0.3481 -0.9190
    1SOL    HW3 7663   3.941   1.955   3.106  0.0701  2.1148  1.0705
    1SOL    MW4 7664   4.019   1.926   3.131 -0.0176  0.6442 -0.2255
    1SOL     OW 7665   4.217   2.071   3.023 -0.1134 -0.1983 -0.3939
    1SOL    HW2 7666   4.219   2.159   3.061  1.8687 -0.8721  1.1367
    1SOL    HW3 7667   4.225   2.085   2.929  1.2126  1.2294 -0.0848
    1SOL    MW4 7668   4.218   2.084   3.016  0.3228 -0.0989 -0.1514
    1SOL     OW 7669   4.222   2.318   3.124 -0.0174  0.4635 -0.0823
    1SOL    HW2 7670   4.151   2.378   3.100  0.2574  1.2953  1.1200
    1SOL    HW3 7671   4.300   2.353   3.081 -0.1143  0.1670 -0.5102
    1SOL    MW4 7672   4.223   2.330   3.115  0.0062  0.5338  0.0200
    1SOL     OW 7673   4.020   2.472   3.012 -0.4590  0.2406  0.4425
    1SOL    HW2 7674   4.008   2.554   3.060  1.2020 -0.7711  2.6500
    1SOL    HW3 7675   3.952   2.414   3.047 -0.3805  0.0491  0.2738
    1SOL    MW4 7676   4.009   2.475   3.023 -0.2294  0.0818  0.7114
    1SOL     OW 7677   4.054   2.713   3.164 -0.5735  0.2672  0.1524
    1SOL    HW2 7678   4.051   2.719   3.259  1.4800  2.9200  0.1155
    1SOL    HW3 7679   3.971   2.750   3.134 -0.2405  1.6553  0.8875
    1SOL    MW4 7680   4.043   2.719   3.172 -0.2589  0.8004  0.2446
    1SOL     OW 7681   4.271   2.805   2.997  0.0117 -0.4393 -0.7955
    1SOL    HW2 7682   4.202   2.744   3.025  0.2345 -0.1617  0.3888
    1SOL    HW3 7683   4.352   2.757   3.014  0.1141 -0.8605 -2.4152
    1SOL    MW4 7684   4.272   2.790   3.003  0.0544 -0.4582 -0.8528
    1SOL     OW 7685   4.253   3.060   3.148  0.0325 -0.1443 -0.1539
    1SOL    HW2 7686   4.195   3.123   3.106  0.1308  0.7329  0.9848
    1SOL    HW3 7687   4.233   2.976   3.106 -0.2523  0.6022 -1.5315
    1SOL    MW4 7688   4.243   3.057   3.137  0.0076  0.0699 -0.1855
    1SOL     OW 7689   4.070   3.226   3.035 -0.1835 -0.3021  0.0584
    1SOL    HW2 7690   4.084   3.318   3.056  0.1809 -0.0666 -1.1952
    1SOL    HW3 7691   4.056   3.224   2.940 -1.6313 -1.3739  0.2670
    1SOL    MW4 7692   4.070   3.238   3.025 -0.3266 -0.4122 -0.0796
    1SOL     OW 7693   4.095   3.490   3.118  0.2459  0.2009  0.2831
    1SOL    HW2 7694   4.077   3.501   3.211  1.3074  0.3258  0.4824
    1SOL    HW3 7695   4.021   3.531   3.074  0.1329  0.8561  1.0746
    1SOL    MW4 7696   4.083   3.497   3.125  0.3710  0.3040  0.4137
    1SOL     OW 7697   4.311   3.650   3.025  0.1471  0.4857  0.3455
    1SOL    HW2 7698   4.300   3.737   3.065  0.4382  0.0662  1.3535
    1SOL    HW3 7699   4.234   3.601   3.055  0.1361  0.3080  0.0223
    1SOL    MW4 7700   4.299   3.655   3.034  0.1841  0.4072  0.4361
    1SOL     OW 7701   4.247   3.910   3.116  0.0363  0.8632 -0.1314
    1SOL    HW2 7702   4.168   3.960   3.097  0.2815  1.3555  0.1475
    1SOL    HW3 7703   4.317   3.959   3.073  0.3086  0.8882  0.3395
    1SOL    MW4 7704   4.246   3.923   3.108  0.1044  0.9313 -0.0324
    1SOL     OW 7705   4.025   4.027   2.999 -0.2550  0.1730  0.4398
    1SOL    HW2 7706   4.006   4.116   3.030 -1.9538  0.7342 -2.0635
    1SOL    HW3 7707   3.946   3.977   3.018 -0.3274 -0.1211 -0.5893
    1SOL    MW4 7708   4.012   4.032   3.006 -0.4883  0.2084 -0.0262
    1SOL     OW 7709   4.000   4.293   3.079  0.4463 -0.0595  0.4429
    1SOL    HW2 7710   4.002   4.298   3.175 -0.7616 -0.9539  0.5301
    1SOL    HW3 7711   4.077   4.342   3.051  1.6615 -1.0398  1.9347
    1SOL    MW4 7712   4.011   4.300   3.088  0.4473 -0.3071  0.6509
    1SOL     OW 7713   4.234   4.476   3.007 -0.6642 -0.2349 -0.1020
    1SOL    HW2 7714   4.310   4.433   3.046  0.4592  1.4921 -0.3591
    1SOL    HW3 7715   4.243   4.462   2.913 -0.6776 -0.0303 -0.1336
    1SOL    MW4 7716   4.245   4.468   3.000 -0.5178  0.0196 -0.1402
    1SOL     OW 7717   0.243   4.666   3.433  0.1926  0.0315 -0.1257
    1SOL    HW2 7718   0.335   4.684   3.451 -0.2210  0.3075  1.9057
    1SOL    HW3 7719   0.225   4.585   3.480 -0.4396 -0.3848 -1.0711
    1SOL    MW4 7720   0.252   4.658   3.442  0.0546  0.0129  0.0176
    1SOL     OW 7721   0.017   0.173   3.517 -0.5643  0.3475  0.0579
    1SOL    HW2 7722   0.003   0.260   3.479  0.5213  0.4509 -0.1386
    1SOL    HW3 7723   0.092   0.138   3.469 -0.2431 -0.2114  0.9505
    1SOL    MW4 7724   0.025   0.180   3.506 -0.3787  0.2874  0.1495
    1SOL     OW 7725   4.484   0.403   3.389 -0.2749  0.2136 -0.2710
    1SOL    HW2 7726   4.407   0.442   3.431 -0.6768 -0.5763 -0.2622
    1SOL    HW3 7727   4.559   0.440   3.436 -0.6570  0.7033 -0.0385
    1SOL    MW4 7728   4.484   0.413   3.401 -0.3783  0.1740 -0.2391
    1SOL     OW 7729   0.212   0.527   3.502 -0.6595  0.5928 -0.1275
    1SOL    HW2 7730   0.281   0.474   3.462 -1.9515 -1.0666 -0.2038
    1SOL    HW3 7731   0.217   0.611   3.456  0.5903  0.1323 -0.8733
    1SOL    MW4 7732   0.222   0.531   3.490 -0.6651  0.3132 -0.2360
    1SOL     OW 7733   0.224   0.781   3.375 -0.0540 -0.0536  0.3490
    1SOL    HW2 7734   0.298   0.822   3.421 -0.4140  1.3661 -0.2884
    1SOL    HW3 7735   0.148   0.834   3.402 -0.7664 -1.1946  0.6175
    1SOL    MW4 7736   0.224   0.794   3.385 -0.1955 -0.0169  0.3004
    1SOL     OW 7737   4.477   0.899   3.494  0.1597  0.0297 -0.0945
    1SOL    HW2 7738   4.491   0.888   3.588  0.8035 -0.0648 -0.1949
    1SOL    HW3 7739   4.477   0.993   3.480 -1.0734  0.0703  0.1608
    1SOL    MW4 7740   4.479   0.910   3.504  0.0820  0.0226 -0.0741
    1SOL     OW 7741   4.486   1.179   3.441 -0.2014 -0.0373  0.2149
    1SOL    HW2 7742   4.567   1.225   3.462  1.0568 -1.8067 -0.6315
    1SOL    HW3 7743   4.498   1.150   3.350 -1.7685 -0.3089  0.0864
    1SOL    MW4 7744   4.498   1.181   3.431 -0.2427 -0.3066  0.0863
    1SOL     OW 7745   0.224   1.286   3.527  0.0682  0.2045 -0.0376
    1SOL    HW2 7746   0.226   1.303   3.621  1.9333  0.7245 -0.1477
    1SOL    HW3 7747   0.207   1.372   3.488  1.4136  0.3812 -0.2529
    1SOL    MW4 7748   0.222   1.300   3.534  0.4918  0.2965 -0.0806
    1SOL     OW 7749   0.197   1.554   3.375 -0.0967  0.0655 -0.1798
    1SOL    HW2 7750   0.266   1.613   3.406 -1.7900  1.4592  1.0492
    1SOL    HW3 7751   0.211   1.548   3.281  1.5957  0.4560  0.0266
    1SOL    MW4 7752   0.208   1.561   3.367 -0.0968  0.3009  0.0095
    1SOL     OW 7753   4.476   1.688   3.540  0.3107  0.1413 -0.2113
    1SOL    HW2 7754   4.405   1.632   3.512  0.9690  0.0022 -1.6305
    1SOL    HW3 7755   4.555   1.649   3.502  1.0325  0.8269  0.5476
    1SOL    MW4 7756   4.477   1.676   3.531  0.4930  0.2135 -0.2983
    1SOL     OW 7757   4.464   1.922   3.390  0.1598  0.0132 -0.6386
    1SOL    HW2 7758   4.461   1.838   3.436  0.0162  0.4989  0.2591
    1SOL    HW3 7759   4.454   1.900   3.297  1.1111 -1.0304 -0.4884
    1SOL    MW4 7760   4.462   1.908   3.384  0.2661 -0.0603 -0.5004
    1SOL     OW 7761   0.192   2.079   3.461 -0.6687 -0.0283  0.0387
    1SOL    HW2 7762   0.114   2.026   3.445 -0.4738 -0.4963  0.6156
    1SOL    HW3 7763   0.201   2.080   3.556 -1.4198  2.1423  0.0968
    1SOL    MW4 7764   0.183   2.072   3.471 -0.7421  0.1965  0.1225
    1SOL     OW 7765   0.214   2.339   3.367 -0.4132 -0.1188 -0.3889
    1SOL    HW2 7766   0.147   2.386   3.415 -0.5803 -1.3317  0.5660
    1SOL    HW3 7767   0.209   2.249   3.399  0.5372 -0.5881 -1.5165
    1SOL    MW4 7768   0.205   2.334   3.377 -0.3099 -0.3407 -0.4117
    1SOL     OW 7769   4.489   2.452   3.509 -0.1827  0.2253 -0.2406
    1SOL    HW2 7770   4.490   2.450   3.604 -1.3452 -0.9098 -0.2300
    1SOL    HW3 7771   4.402   2.418   3.485  0.8616 -1.4909 -1.7163
    1SOL    MW4 7772   4.477   2.447   3.518 -0.1984 -0.1509 -0.4339
    1SOL     OW 7773   4.459   2.729   3.444  0.4733  0.5071  0.0983
    1SOL    HW2 7774   4.546   2.769   3.448  0.7439 -0.1157  0.4762
    1SOL    HW3 7775   4.473   2.638   3.470 -0.0814  0.0849 -1.0415
    1SOL    MW4 7776   4.473   2.722   3.448  0.4358  0.3693 -0.0021
    1SOL     OW 7777   0.212   2.828   3.506  0.3474  0.9587  0.2767
    1SOL    HW2 7778   0.288   2.788   3.465  0.5653  1.4245  0.2155
    1SOL    HW3 7779   0.224   2.922   3.493  0.2938  1.1019  1.1720
    1SOL    MW4 7780   0.224   2.835   3.499  0.3691  1.0388  0.3867
    1SOL     OW 7781   0.238   3.087   3.427  0.2952  0.5787 -0.0320
    1SOL    HW2 7782   0.171   3.138   3.472  0.6365  1.7448 -0.8092
    1SOL    HW3 7783   0.227   3.110   3.335  2.2331  1.3857 -0.0885
    1SOL    MW4 7784   0.228   3.097   3.421  0.5959  0.8390 -0.1419
    1SOL     OW 7785   0.036   3.261   3.524 -0.6056  0.2253  0.1254
    1SOL    HW2 7786  -0.035   3.202   3.499 -3.4280  2.8151  1.7320
    1SOL    HW3 7787   0.016   3.344   3.480  1.1326  1.1639  1.0288
    1SOL    MW4 7788   0.024   3.264   3.515 -0.7487  0.6909  0.4566
    1SOL     OW 7789   4.485   3.531   3.397  0.3983 -0.0787 -0.4229
    1SOL    HW2 7790   4.410   3.543   3.455 -0.1339 -1.3600 -0.8394
    1SOL    HW3 7791   4.447   3.522   3.309  1.0612 -0.2425 -0.6999
    1SOL    MW4 7792   4.470   3.531   3.393  0.4155 -0.2697 -0.5147
    1SOL     OW 7793   0.212   3.669   3.495 -0.3047  0.2197 -0.3328
    1SOL    HW2 7794   0.205   3.648   3.588 -0.2064 -0.9830 -0.5925
    1SOL    HW3 7795   0.143   3.618   3.453  0.2397  0.0543 -1.0375
    1SOL    MW4 7796   0.202   3.660   3.502 -0.2199  0.0391 -0.4601
    1SOL     OW 7797   0.214   3.907   3.382 -0.0553  0.4948  0.1575
    1SOL    HW2 7798   0.132   3.943   3.414  0.7876  0.2597  2.6463
    1SOL    HW3 7799   0.224   3.824   3.428  0.9181 -0.1235 -1.1338
    1SOL    MW4 7800   0.205   3.901   3.392  0.1843  0.3822  0.3154
    1SOL     OW 7801   4.486   4.032   3.517 -0.1262 -0.3279 -0.1843
    1SOL    HW2 7802   4.469   4.036   3.611  2.0669  1.5691  0.1730
    1SOL    HW3 7803   4.478   4.122   3.487  0.4672 -0.7292 -1.6026
    1SOL    MW4 7804   4.482   4.044   3.525  0.2418 -0.1302 -0.3240
    1SOL     OW 7805   4.447   4.286   3.413  0.6161  0.0482 -0.2811
    1SOL    HW2 7806   4.375   4.344   3.436  0.6548 -0.6873  1.7928
    1SOL    HW3 7807   4.525   4.327   3.451  0.7893 -0.8440  0.3564
    1SOL    MW4 7808   4.448   4.299   3.421  0.6442 -0.1669  0.0768
    1SOL     OW 7809   0.193   4.398   3.512  0.0401  0.2524  0.1488
    1SOL    HW2 7810   0.206   4.382   3.605  1.0131 -0.3629 -0.0913
    1SOL    HW3 7811   0.267   4.356   3.469 -0.6062  0.1962 -0.9394
    1SOL    MW4 7812   0.205   4.391   3.519  0.0832  0.1640 -0.0267
    1SOL     OW 7813   0.680   4.606   3.383  0.0662  0.1799  0.1883
    1SOL    HW2 7814   0.743   4.671   3.412  0.5287  0.4354 -1.3379
    1SOL    HW3 7815   0.673   4.620   3.288 -1.5448 -0.4784  0.1909
    1SOL    MW4 7816   0.687   4.617   3.374 -0.0854  0.1268 -0.0126
    1SOL     OW 7817   0.495   0.131   3.480 -0.1390 -0.2772  0.1141
    1SOL    HW2 7818   0.491   0.119   3.575  0.7075 -2.0514 -0.0564
    1SOL    HW3 7819   0.552   0.060   3.449  0.0775  0.6345 -1.6544
    1SOL    MW4 7820   0.502   0.120   3.489  0.0013 -0.3910 -0.1416
    1SOL     OW 7821   0.415   0.378   3.404  0.1911  0.4714 -0.0582
    1SOL    HW2 7822   0.491   0.428   3.433  1.7376 -1.3159 -0.9713
    1SOL    HW3 7823   0.431   0.289   3.435 -1.1070 -0.1173 -1.0189
    1SOL    MW4 7824   0.427   0.373   3.412  0.2239  0.1579 -0.3052
    1SOL     OW 7825   0.640   0.517   3.495 -0.6750 -0.3683 -0.1513
    1SOL    HW2 7826   0.636   0.496   3.589 -0.2660  1.2680  0.2423
    1SOL    HW3 7827   0.702   0.453   3.459 -0.6448 -0.8508  0.7382
    1SOL    MW4 7828   0.648   0.506   3.503 -0.6170 -0.2161  0.0179
    1SOL     OW 7829   0.688   0.775   3.398  0.3328 -0.1250  0.2456
    1SOL    HW2 7830   0.604   0.806   3.432  0.9179  0.6165  1.0442
    1SOL    HW3 7831   0.703   0.692   3.443 -0.8634 -1.2044 -1.3116
    1SOL    MW4 7832   0.679   0.768   3.409  0.2522 -0.1696  0.1454
    1SOL     OW 7833   0.464   0.877   3.517  0.3507 -0.4106  0.3917
    1SOL    HW2 7834   0.473   0.882   3.612  1.0985 -1.3163  0.3850
    1SOL    HW3 7835   0.465   0.968   3.488  2.2842 -0.1906  1.0729
    1SOL    MW4 7836   0.465   0.889   3.526  0.7045 -0.5011  0.4807
    1SOL     OW 7837   0.448   1.139   3.426  0.1289 -0.1636 -0.0959
    1SOL    HW2 7838   0.373   1.189   3.461 -0.9349 -1.7623 -0.0246
    1SOL    HW3 7839   0.430   1.132   3.333  0.2476 -0.4440 -0.0983
    1SOL    MW4 7840   0.435   1.145   3.419  0.0042 -0.4114 -0.0865
    1SOL     OW 7841   0.688   1.282   3.525 -0.2100  0.0042 -0.5260
    1SOL    HW2 7842   0.623   1.224   3.486 -0.7929  0.9322 -0.9644
    1SOL    HW3 7843   0.669   1.368   3.487  1.4460  0.2322 -0.8547
    1SOL    MW4 7844   0.677   1.286   3.515 -0.0685  0.1566 -0.6273
    1SOL     OW 7845   0.606   1.530   3.407 -0.6213  0.3279 -0.5184
    1SOL    HW2 7846   0.687   1.580   3.404 -0.1708 -0.4408 -1.6594
    1SOL    HW3 7847   0.537   1.595   3.422  0.0972  1.1084 -0.6094
    1SOL    MW4 7848   0.607   1.545   3.409 -0.4671  0.3295 -0.6807
    1SOL     OW 7849   0.402   1.691   3.491 -0.5296 -0.2186 -0.0801
    1SOL    HW2 7850   0.400   1.693   3.586  0.0349  0.7053 -0.0855
    1SOL    HW3 7851   0.404   1.783   3.465 -2.2382 -0.4118 -1.0199
    1SOL    MW4 7852   0.402   1.704   3.500 -0.6805 -0.1222 -0.2048
    1SOL     OW 7853   0.432   1.933   3.397  0.4624  0.5603  0.3918
    1SOL    HW2 7854   0.359   1.989   3.424  0.0807  0.2027  0.1138
    1SOL    HW3 7855   0.434   1.940   3.302  1.4256  1.3442  0.4612
    1SOL    MW4 7856   0.423   1.941   3.388  0.5391  0.6166  0.3643
    1SOL     OW 7857   0.683   2.045   3.490 -0.0174  0.0427  0.0899
    1SOL    HW2 7858   0.660   2.053   3.583 -0.3236  0.6113 -0.0308
    1SOL    HW3 7859   0.605   2.010   3.449  0.1756 -0.3657  0.0740
    1SOL    MW4 7860   0.670   2.042   3.497 -0.0323  0.0639  0.0720
    1SOL     OW 7861   0.640   2.306   3.407  0.0707 -0.1107  0.0328
    1SOL    HW2 7862   0.713   2.353   3.448 -0.1581  0.2709  0.0103
    1SOL    HW3 7863   0.645   2.217   3.443  0.7491 -0.1829 -0.2302
    1SOL    MW4 7864   0.650   2.301   3.417  0.1301 -0.0699 -0.0050
    1SOL     OW 7865   0.443   2.436   3.550 -0.3939  0.0716  0.3909
    1SOL    HW2 7866   0.517   2.395   3.503 -0.0005 -1.4187  2.2555
    1SOL    HW3 7867   0.365   2.399   3.509 -0.0721 -0.2269  0.0424
    1SOL    MW4 7868   0.443   2.426   3.538 -0.2995 -0.1640  0.5910
    1SOL     OW 7869   0.421   2.679   3.409  0.2137 -0.0593 -0.2806
    1SOL    HW2 7870   0.407   2.587   3.432  0.8217 -0.0881 -0.0014
    1SOL    HW3 7871   0.430   2.678   3.313  0.0177 -0.2645 -0.2978
    1SOL    MW4 7872   0.421   2.666   3.399  0.2680 -0.0904 -0.2460
    1SOL     OW 7873   0.626   2.834   3.487 -0.6430  0.0279  0.2323
    1SOL    HW2 7874   0.703   2.785   3.457 -0.3959 -0.7177  2.0416
    1SOL    HW3 7875   0.553   2.774   3.475 -0.8937  0.5762 -1.0634
    1SOL    MW4 7876   0.626   2.820   3.482 -0.6435  0.0019  0.2997
    1SOL     OW 7877   0.645   3.097   3.398  0.2088  0.2937  0.3181
    1SOL    HW2 7878   0.586   3.152   3.448 -0.4834 -0.2929  0.1620
    1SOL    HW3 7879   0.632   3.009   3.433  1.5468  0.2614  0.7974
    1SOL    MW4 7880   0.636   3.093   3.409  0.2940  0.2120  0.3607
    1SOL     OW 7881   0.440   3.278   3.466 -0.3178 -0.2782  0.1538
    1SOL    HW2 7882   0.431   3.269   3.561  0.3767 -1.1315  0.1431
    1SOL    HW3 7883   0.381   3.211   3.430 -0.6503  0.1065 -0.0167
    1SOL    MW4 7884   0.431   3.268   3.474 -0.2701 -0.3402  0.1297
    1SOL     OW 7885   0.441   3.544   3.417  0.3321 -0.3195  0.2452
    1SOL    HW2 7886   0.430   3.450   3.432  0.2463 -0.5993 -1.4691
    1SOL    HW3 7887   0.359   3.583   3.447 -1.0327 -1.1821 -2.1961
    1SOL    MW4 7888   0.429   3.537   3.422  0.1407 -0.4702 -0.3028
    1SOL     OW 7889   0.691   3.627   3.499  0.6596 -0.3714  0.0095
    1SOL    HW2 7890   0.752   3.557   3.478  1.2654  0.3211 -0.5563
    1SOL    HW3 7891   0.604   3.589   3.484  1.0055 -0.6965 -1.2264
    1SOL    MW4 7892   0.687   3.613   3.494  0.7851 -0.3228 -0.2282
    1SOL     OW 7893   0.668   3.871   3.362 -0.1296 -0.1923  0.7260
    1SOL    HW2 7894   0.589   3.905   3.402  0.0882 -0.3984  1.3430
    1SOL    HW3 7895   0.682   3.786   3.404 -0.6903 -1.0707 -0.8127
    1SOL    MW4 7896   0.660   3.864   3.372 -0.1749 -0.3352  0.6042
    1SOL     OW 7897   0.450   4.004   3.482 -0.1813 -0.2578 -0.3405
    1SOL    HW2 7898   0.435   4.093   3.450 -0.0668 -0.2282 -0.3097
    1SOL    HW3 7899   0.373   3.955   3.453 -0.3352 -0.1043 -0.1884
    1SOL    MW4 7900   0.438   4.009   3.474 -0.1865 -0.2337 -0.3164
    1SOL     OW 7901   0.399   4.252   3.398 -0.1237 -0.3146 -0.2883
    1SOL    HW2 7902   0.482   4.289   3.430  0.3621 -1.7921  0.1788
    1SOL    HW3 7903   0.404   4.262   3.303 -0.2666  1.3532 -0.1461
    1SOL    MW4 7904   0.411   4.258   3.390 -0.0785 -0.2899 -0.2077
    1SOL     OW 7905   0.622   4.358   3.492  0.0484 -0.4261 -0.3576
    1SOL    HW2 7906   0.708   4.315   3.483  0.3162  0.2242 -0.9434
    1SOL    HW3 7907   0.634   4.444   3.453 -0.9343 -0.4014 -0.6181
    1SOL    MW4 7908   0.635   4.364   3.486 -0.0459 -0.3366 -0.4692
    1SOL     OW 7909   1.106   4.627   3.415  0.9186  0.4440  0.1569
    1SOL    HW2 7910   1.188   4.676   3.424  1.6393 -0.4127 -1.6093
    1SOL    HW3 7911   1.095   4.617   3.321 -1.9044  1.6515  0.3280
    1SOL    MW4 7912   1.116   4.632   3.404  0.6412  0.4897 -0.0534
    1SOL     OW 7913   0.873   0.104   3.517 -0.0404 -1.1347  0.6285
    1SOL    HW2 7914   0.877   0.095   3.613  1.0176 -0.9673  0.6027
    1SOL    HW3 7915   0.953   0.063   3.486  0.1075 -0.2852 -0.1241
    1SOL    MW4 7916   0.884   0.097   3.526  0.1187 -1.0005  0.5257
    1SOL     OW 7917   0.856   0.366   3.405  0.0017  0.0031 -0.5387
    1SOL    HW2 7918   0.934   0.408   3.440 -1.9969  2.8369  0.7142
    1SOL    HW3 7919   0.858   0.277   3.442  1.6684  0.6291  0.9516
    1SOL    MW4 7920   0.867   0.359   3.414 -0.0421  0.4596 -0.1767
    1SOL     OW 7921   1.081   0.493   3.500 -0.2840  0.6829  0.1809
    1SOL    HW2 7922   1.098   0.495   3.594  1.6194  1.4910 -0.1609
    1SOL    HW3 7923   1.087   0.585   3.473 -1.3532  0.5207 -0.6606
    1SOL    MW4 7924   1.084   0.506   3.509 -0.1739  0.7681  0.0248
    1SOL     OW 7925   1.090   0.735   3.411 -0.3362  0.0744 -0.3234
    1SOL    HW2 7926   1.165   0.786   3.442 -0.5222  0.3533 -0.3274
    1SOL    HW3 7927   1.015   0.792   3.427 -0.9622 -1.5323  2.8084
    1SOL    MW4 7928   1.090   0.749   3.417 -0.4433 -0.1007  0.0892
    1SOL     OW 7929   0.896   0.897   3.512  0.1265  0.2883  0.5656
    1SOL    HW2 7930   0.890   0.985   3.474 -0.6058  0.4577  1.0439
    1SOL    HW3 7931   0.822   0.850   3.474  0.0688  0.1115  0.8935
    1SOL    MW4 7932   0.885   0.902   3.502  0.0223  0.2874  0.6716
    1SOL     OW 7933   0.914   1.161   3.437 -0.5809  0.1864  0.2137
    1SOL    HW2 7934   0.998   1.206   3.450 -0.5595 -0.0818  0.9947
    1SOL    HW3 7935   0.850   1.216   3.482 -0.7294  0.0517  0.1660
    1SOL    MW4 7936   0.917   1.174   3.444 -0.5977  0.1333  0.3104
    1SOL     OW 7937   1.173   1.267   3.511 -0.4045 -0.0834 -0.0761
    1SOL    HW2 7938   1.165   1.281   3.605  1.1657  0.7962 -0.0473
    1SOL    HW3 7939   1.161   1.354   3.473  0.0019 -0.2597 -0.6067
    1SOL    MW4 7940   1.171   1.281   3.518 -0.1438  0.0095 -0.1423
    1SOL     OW 7941   1.090   1.509   3.393 -0.1987 -0.6960 -0.2148
    1SOL    HW2 7942   1.153   1.569   3.434 -1.6151 -0.0644  1.0679
    1SOL    HW3 7943   1.104   1.521   3.299  0.9094  0.1630  0.0427
    1SOL    MW4 7944   1.100   1.519   3.386 -0.2395 -0.4994 -0.0114
    1SOL     OW 7945   0.846   1.660   3.448  0.2586  0.0541 -0.1572
    1SOL    HW2 7946   0.874   1.747   3.419 -0.2716  0.1111 -0.4880
    1SOL    HW3 7947   0.921   1.604   3.427  1.7194  0.8928  2.5338
    1SOL    MW4 7948   0.860   1.664   3.442  0.3815  0.1721  0.1540
    1SOL     OW 7949   0.890   1.919   3.350  0.2195 -0.0883 -0.1719
    1SOL    HW2 7950   0.969   1.954   3.391  0.1439 -0.7360  0.5326
    1SOL    HW3 7951   0.818   1.960   3.399  0.1204  0.4763 -0.7913
    1SOL    MW4 7952   0.891   1.929   3.362  0.1964 -0.0992 -0.1605
    1SOL     OW 7953   1.094   2.035   3.503 -0.1743  0.3968 -0.1700
    1SOL    HW2 7954   1.176   2.014   3.458  1.0269 -0.5989  2.4249
    1SOL    HW3 7955   1.084   2.129   3.492  1.2334  0.5023 -0.6489
    1SOL    MW4 7956   1.103   2.045   3.495  0.1699  0.2794  0.1094
    1SOL     OW 7957   1.096   2.302   3.419  0.2152 -0.1551  0.6500
    1SOL    HW2 7958   1.180   2.342   3.441  0.3714 -0.6454  0.9492
    1SOL    HW3 7959   1.098   2.294   3.323  0.3508  0.1812  0.6236
    1SOL    MW4 7960   1.108   2.306   3.409  0.2537 -0.1755  0.6859
    1SOL     OW 7961   0.871   2.448   3.488 -0.2620  0.4516 -0.0591
    1SOL    HW2 7962   0.871   2.429   3.582 -0.4032  1.1915  0.0954
    1SOL    HW3 7963   0.949   2.403   3.455  0.4351  1.1272  0.6184
    1SOL    MW4 7964   0.882   2.440   3.496 -0.1886  0.6385  0.0505
    1SOL     OW 7965   0.859   2.717   3.404 -0.2651  0.0256 -0.2939
    1SOL    HW2 7966   0.933   2.760   3.446 -0.5590 -0.4881  0.7564
    1SOL    HW3 7967   0.867   2.625   3.429 -0.4746 -0.2841 -1.3234
    1SOL    MW4 7968   0.870   2.711   3.413 -0.3316 -0.0830 -0.2909
    1SOL     OW 7969   1.111   2.828   3.508  0.3283 -0.4538  0.0136
    1SOL    HW2 7970   1.122   2.823   3.603  0.4856 -2.5760 -0.0933
    1SOL    HW3 7971   1.188   2.784   3.472 -0.3755 -0.8404 -1.0745
    1SOL    MW4 7972   1.123   2.821   3.515  0.2562 -0.7846 -0.1438
    1SOL     OW 7973   1.125   3.081   3.403  0.4864  0.3410  0.0084
    1SOL    HW2 7974   1.120   2.993   3.439 -2.1618  0.4527  0.0184
    1SOL    HW3 7975   1.102   3.071   3.310 -0.1262  1.0472  0.0784
    1SOL    MW4 7976   1.122   3.068   3.395  0.0561  0.4487  0.0191
    1SOL     OW 7977   0.891   3.180   3.502  0.1978  0.3763  0.5250
    1SOL    HW2 7978   0.963   3.142   3.452  0.2397  0.6313  0.3899
    1SOL    HW3 7979   0.812   3.142   3.462  0.1598  1.8056 -0.7816
    1SOL    MW4 7980   0.890   3.170   3.490  0.1984  0.5984  0.3350
    1SOL     OW 7981   0.903   3.452   3.409 -0.0881  0.1937 -0.5597
    1SOL    HW2 7982   0.896   3.365   3.448  0.6109  0.1508 -0.5083
    1SOL    HW3 7983   0.923   3.436   3.317  0.2161  0.2961 -0.5134
    1SOL    MW4 7984   0.905   3.438   3.402  0.0443  0.2015 -0.5467
    1SOL     OW 7985   1.126   3.581   3.515 -0.5511 -0.1682 -0.1233
    1SOL    HW2 7986   1.129   3.562   3.609  1.4101 -1.8593 -0.4859
    1SOL    HW3 7987   1.049   3.533   3.484 -0.6505 -0.3986  0.4605
    1SOL    MW4 7988   1.116   3.572   3.523 -0.3055 -0.4220 -0.0939
    1SOL     OW 7989   1.106   3.843   3.416  0.0022  0.2001 -0.0324
    1SOL    HW2 7990   1.188   3.874   3.455 -0.4675  0.3838  0.8137
    1SOL    HW3 7991   1.094   3.755   3.452 -0.3742  0.3258  0.1471
    1SOL    MW4 7992   1.115   3.836   3.425 -0.1096  0.2408  0.1030
    1SOL     OW 7993   0.886   3.989   3.502  0.2827  0.1261  0.1197
    1SOL    HW2 7994   0.962   3.942   3.469  0.6207  1.2526 -0.7515
    1SOL    HW3 7995   0.811   3.944   3.463  0.5983  0.2638 -0.6626
    1SOL    MW4 7996   0.886   3.977   3.493  0.3690  0.2928 -0.0982
    1SOL     OW 7997   0.867   4.262   3.401 -0.2666  0.6622  0.0187
    1SOL    HW2 7998   0.869   4.167   3.408  0.1067  0.5205 -1.9431
    1SOL    HW3 7999   0.857   4.280   3.308 -1.5424  2.5424  0.4854
    1SOL    MW4 8000   0.866   4.252   3.390 -0.3857  0.8917 -0.1783
    1SOL     OW 8001   1.115   4.349   3.521 -0.8038  0.1526 -0.2950
    1SOL    HW2 8002   1.024   4.327   3.501 -0.5223 -0.0622 -1.3764
    1SOL    HW3 8003   1.124   4.441   3.496 -1.1639  0.6665  1.3871
    1SOL    MW4 8004   1.104   4.359   3.515 -0.8142  0.1922 -0.2158
    1SOL     OW 8005   1.574   0.004   3.395 -0.1479  0.1336  0.4034
    1SOL    HW2 8006   1.571  -0.084   3.432 -0.5421 -0.5915 -1.3134
    1SOL    HW3 8007   1.496   0.047   3.430 -0.5657 -0.5679  0.3464
    1SOL    MW4 8008   1.564  -0.002   3.404 -0.2551 -0.0548  0.1693
    1SOL     OW 8009   1.322   0.098   3.494  0.1138  0.1418  0.3050
    1SOL    HW2 8010   1.310   0.110   3.588 -1.3212 -0.0806  0.1622
    1SOL    HW3 8011   1.306   0.184   3.457  0.8676  0.2732  0.2692
    1SOL    MW4 8012   1.318   0.111   3.502  0.0238  0.1298  0.2816
    1SOL     OW 8013   1.300   0.371   3.412  0.3823  0.1289  0.2318
    1SOL    HW2 8014   1.371   0.424   3.451 -0.3007  0.4401  1.0798
    1SOL    HW3 8015   1.220   0.412   3.444 -0.1691 -1.0238  0.3484
    1SOL    MW4 8016   1.299   0.384   3.422  0.2195  0.0179  0.3591
    1SOL     OW 8017   1.528   0.494   3.506 -0.3390 -0.1551  0.0032
    1SOL    HW2 8018   1.519   0.483   3.600 -1.2637  0.0421 -0.0600
    1SOL    HW3 8019   1.614   0.458   3.485 -1.0190 -2.1345  0.6045
    1SOL    MW4 8020   1.538   0.488   3.515 -0.5506 -0.3902  0.0741
    1SOL     OW 8021   1.550   0.759   3.426 -0.0740  0.0255 -0.4603
    1SOL    HW2 8022   1.465   0.795   3.450  0.4231  0.5427  0.5613
    1SOL    HW3 8023   1.552   0.673   3.466 -0.4448 -0.3218 -1.1826
    1SOL    MW4 8024   1.539   0.753   3.434 -0.0573  0.0479 -0.4208
    1SOL     OW 8025   1.309   0.858   3.515  0.2540 -0.0398 -0.0354
    1SOL    HW2 8026   1.315   0.856   3.611 -0.9512  0.3308  0.0609
    1SOL    HW3 8027   1.332   0.948   3.492  0.0667  0.0012 -0.0592
    1SOL    MW4 8028   1.313   0.870   3.525  0.0702  0.0145 -0.0260
    1SOL     OW 8029   1.402   1.118   3.444 -0.4682  0.3075  0.2842
    1SOL    HW2 8030   1.481   1.169   3.460  0.0017 -0.0958 -0.7566
    1SOL    HW3 8031   1.332   1.171   3.482  0.2593  0.7895  0.9752
    1SOL    MW4 8032   1.403   1.132   3.451 -0.3102  0.3179  0.2379
    1SOL     OW 8033   1.622   1.278   3.478 -0.1383 -0.1323  0.5873
    1SOL    HW2 8034   1.626   1.247   3.568  1.1675 -1.0050  0.2324
    1SOL    HW3 8035   1.698   1.240   3.435 -1.2414 -0.4767 -1.1278
    1SOL    MW4 8036   1.632   1.269   3.484 -0.1116 -0.2930  0.3142
    1SOL     OW 8037   1.516   1.532   3.401  0.0946  0.0955 -0.1953
    1SOL    HW2 8038   1.552   1.451   3.437 -0.4446 -1.3788 -2.8110
    1SOL    HW3 8039   1.519   1.519   3.306 -2.0915  2.2533 -0.6087
    1SOL    MW4 8040   1.521   1.519   3.393 -0.2650  0.1857 -0.5951
    1SOL     OW 8041   1.279   1.662   3.484 -0.2581  0.4539 -0.2158
    1SOL    HW2 8042   1.304   1.660   3.577 -0.5974  0.2583 -0.1287
    1SOL    HW3 8043   1.351   1.617   3.439 -0.7976 -0.7863  0.1190
    1SOL    MW4 8044   1.292   1.656   3.490 -0.3741  0.2644 -0.1602
    1SOL     OW 8045   1.307   1.920   3.366 -0.6869  0.4063 -0.3204
    1SOL    HW2 8046   1.389   1.948   3.406 -0.7774 -0.8572  0.7859
    1SOL    HW3 8047   1.294   1.830   3.397 -2.8272  0.8094  0.0939
    1SOL    MW4 8048   1.316   1.912   3.376 -0.9812  0.2928 -0.1197
    1SOL     OW 8049   1.541   2.051   3.470 -0.3310 -0.8376 -0.3835
    1SOL    HW2 8050   1.621   2.005   3.442 -0.4872  0.0852 -2.4539
    1SOL    HW3 8051   1.564   2.144   3.465 -0.1800 -0.6216  3.2993
    1SOL    MW4 8052   1.555   2.057   3.466 -0.3319 -0.6876 -0.1707
    1SOL     OW 8053   1.576   2.325   3.429 -0.5509  0.0910 -0.1877
    1SOL    HW2 8054   1.490   2.361   3.451 -0.0524  0.6659  0.8287
    1SOL    HW3 8055   1.574   2.316   3.333 -1.0051  2.0217 -0.3800
    1SOL    MW4 8056   1.564   2.329   3.419 -0.5450  0.4220 -0.0787
    1SOL     OW 8057   1.327   2.427   3.489  0.6878 -0.2021 -0.6168
    1SOL    HW2 8058   1.339   2.424   3.584  1.3097 -0.2755 -0.7014
    1SOL    HW3 8059   1.321   2.520   3.468 -2.4662 -0.2157 -0.1206
    1SOL    MW4 8060   1.328   2.439   3.499  0.3537 -0.2136 -0.5627
    1SOL     OW 8061   1.333   2.692   3.434  0.2321  0.3120 -0.3620
    1SOL    HW2 8062   1.422   2.723   3.448  0.8698 -1.0256 -1.3373
    1SOL    HW3 8063   1.329   2.674   3.340 -0.9629  0.0430 -0.2608
    1SOL    MW4 8064   1.344   2.694   3.423  0.1585  0.0999 -0.4773
    1SOL     OW 8065   1.583   2.783   3.513 -0.0046  0.0596  0.0992
    1SOL    HW2 8066   1.667   2.739   3.504 -0.2263 -0.4038  0.2658
    1SOL    HW3 8067   1.598   2.871   3.480  0.5740  0.0123  0.2296
    1SOL    MW4 8068   1.596   2.788   3.508  0.0426 -0.0079  0.1383
    1SOL     OW 8069   1.598   3.037   3.410  0.4167  0.1680  0.0305
    1SOL    HW2 8070   1.667   3.096   3.441  0.4560 -0.7415  1.7093
    1SOL    HW3 8071   1.517   3.079   3.437  0.2964  1.0252 -1.5761
    1SOL    MW4 8072   1.596   3.051   3.418  0.4061  0.1612  0.0398
    1SOL     OW 8073   1.364   3.203   3.498 -0.5805 -0.1746 -0.4170
    1SOL    HW2 8074   1.355   3.200   3.593 -0.2320 -0.2850 -0.3879
    1SOL    HW3 8075   1.288   3.154   3.465 -1.1674  0.5983 -0.2182
    1SOL    MW4 8076   1.353   3.196   3.506 -0.6119 -0.0870 -0.3870
    1SOL     OW 8077   1.349   3.468   3.391  0.3371 -0.2236  0.3247
    1SOL    HW2 8078   1.362   3.378   3.421 -0.4251 -0.3448  0.2943
    1SOL    HW3 8079   1.270   3.497   3.437 -1.4367 -0.7362 -2.2868
    1SOL    MW4 8080   1.340   3.460   3.401  0.0025 -0.3071 -0.0238
    1SOL     OW 8081   1.603   3.557   3.476  0.4291  0.1716 -0.2443
    1SOL    HW2 8082   1.592   3.555   3.571 -1.3995 -0.5955 -0.4569
    1SOL    HW3 8083   1.517   3.536   3.441  0.7955  1.6229 -2.0993
    1SOL    MW4 8084   1.591   3.554   3.484  0.2363  0.2620 -0.5174
    1SOL     OW 8085   1.573   3.847   3.412  0.3184  0.2347  0.1890
    1SOL    HW2 8086   1.571   3.752   3.424  1.4923  0.2553  0.6413
    1SOL    HW3 8087   1.584   3.859   3.318 -1.1140 -0.0536 -0.0244
    1SOL    MW4 8088   1.574   3.836   3.401  0.2842  0.1996  0.2203
    1SOL     OW 8089   1.322   3.980   3.490 -0.2554  0.4066 -0.1742
    1SOL    HW2 8090   1.333   4.074   3.473 -0.3303  0.4053 -0.2272
    1SOL    HW3 8091   1.399   3.940   3.449  0.1787  0.5186  0.5122
    1SOL    MW4 8092   1.334   3.987   3.483 -0.2081  0.4210 -0.0908
    1SOL     OW 8093   1.346   4.237   3.434  0.2741 -0.2676  0.0246
    1SOL    HW2 8094   1.267   4.275   3.473 -0.1833 -0.2250 -0.9407
    1SOL    HW3 8095   1.331   4.241   3.340  1.9764  0.9248 -0.2190
    1SOL    MW4 8096   1.334   4.242   3.427  0.4383 -0.1044 -0.1352
    1SOL     OW 8097   1.564   4.414   3.503  0.5526 -0.2546 -0.2680
    1SOL    HW2 8098   1.630   4.363   3.455  1.0326 -1.7100  1.8807
    1SOL    HW3 8099   1.482   4.366   3.491  0.1857  0.6419 -1.5200
    1SOL    MW4 8100   1.562   4.401   3.495  0.5676 -0.3285 -0.1495
    1SOL     OW 8101   2.039   4.666   3.399 -0.4359 -0.8556  0.0543
    1SOL    HW2 8102   2.116   4.704   3.439  0.8774 -1.1323 -2.1266
    1SOL    HW3 8103   1.966   4.691   3.456  0.8591  1.9400  0.5074
    1SOL    MW4 8104   2.039   4.674   3.412 -0.0916 -0.5233 -0.1736
    1SOL     OW 8105   1.796   0.120   3.519  0.0709  0.1722  0.0068
    1SOL    HW2 8106   1.774   0.102   3.611 -1.4959  1.5533 -0.0727
    1SOL    HW3 8107   1.719   0.090   3.471 -0.2747  1.9572 -0.5966
    1SOL    MW4 8108   1.783   0.114   3.525 -0.1813  0.5899 -0.0834
    1SOL     OW 8109   1.775   0.381   3.426  0.0452 -0.0422 -0.5996
    1SOL    HW2 8110   1.780   0.289   3.450 -0.0611 -0.1322 -0.9265
    1SOL    HW3 8111   1.802   0.384   3.334  1.0306  0.3807 -0.3009
    1SOL    MW4 8112   1.779   0.369   3.417  0.1612  0.0017 -0.6034
    1SOL     OW 8113   2.025   0.505   3.499 -0.0404  0.0156 -0.3864
    1SOL    HW2 8114   2.013   0.578   3.439  0.4761 -0.3186 -0.8959
    1SOL    HW3 8115   1.938   0.467   3.507 -0.5537  1.4095  0.8177
    1SOL    MW4 8116   2.012   0.510   3.492 -0.0401  0.1554 -0.2949
    1SOL     OW 8117   2.004   0.774   3.369  0.6343 -0.0777  0.1869
    1SOL    HW2 8118   2.074   0.825   3.411  1.7999 -2.5771  1.3483
    1SOL    HW3 8119   2.031   0.766   3.278  0.3552  1.4927 -0.0532
    1SOL    MW4 8120   2.017   0.780   3.363  0.7515 -0.2003  0.3085
    1SOL     OW 8121   1.802   0.870   3.515  0.0033  0.4653 -0.1242
    1SOL    HW2 8122   1.866   0.834   3.454 -0.0891 -2.1881  1.2715
    1SOL    HW3 8123   1.718   0.848   3.477 -0.0569 -0.0112  0.2808
    1SOL    MW4 8124   1.800   0.863   3.502 -0.0169  0.0523  0.1135
    1SOL     OW 8125   1.817   1.116   3.396  0.4374 -0.0095 -0.2472
    1SOL    HW2 8126   1.889   1.166   3.434  0.0168  0.3644  0.0720
    1SOL    HW3 8127   1.812   1.036   3.449 -0.1720  0.5292  0.5078
    1SOL    MW4 8128   1.826   1.112   3.408  0.3017  0.1110 -0.1054
    1SOL     OW 8129   2.032   1.246   3.513  0.0113  0.6934 -0.6548
    1SOL    HW2 8130   2.035   1.257   3.608 -4.3621  0.5809 -0.4041
    1SOL    HW3 8131   2.020   1.335   3.479 -0.4365  0.5245 -0.9458
    1SOL    MW4 8132   2.031   1.259   3.521 -0.6249  0.6562 -0.6599
    1SOL     OW 8133   2.016   1.520   3.420  0.1652 -0.7310 -0.6521
    1SOL    HW2 8134   2.089   1.581   3.423  0.0444 -0.6232  0.1857
    1SOL    HW3 8135   1.938   1.575   3.433  0.0143 -0.9787 -0.4933
    1SOL    MW4 8136   2.015   1.535   3.422  0.1295 -0.7496 -0.5205
    1SOL     OW 8137   1.767   1.637   3.469  0.1491  0.2383  0.2183
    1SOL    HW2 8138   1.759   1.728   3.441  0.1091 -0.0665 -0.7480
    1SOL    HW3 8139   1.690   1.593   3.435  1.4141 -0.7143 -1.4909
    1SOL    MW4 8140   1.756   1.643   3.461  0.3108  0.0722 -0.1347
    1SOL     OW 8141   1.756   1.919   3.404 -0.5618 -0.2911 -0.3202
    1SOL    HW2 8142   1.834   1.965   3.436  0.1451 -2.2873  0.8754
    1SOL    HW3 8143   1.762   1.927   3.308  0.2467  0.9411 -0.1822
    1SOL    MW4 8144   1.767   1.926   3.395 -0.3619 -0.3918 -0.1442
    1SOL     OW 8145   1.966   2.068   3.495  0.3171 -0.4286  0.5855
    1SOL    HW2 8146   2.033   2.020   3.446 -1.6252 -1.1189 -1.4892
    1SOL    HW3 8147   1.968   2.156   3.458  0.0949 -0.4467  0.5285
    1SOL    MW4 8148   1.975   2.073   3.483  0.0315 -0.5221  0.3042
    1SOL     OW 8149   1.999   2.310   3.394  0.1770 -0.2549  0.1764
    1SOL    HW2 8150   1.936   2.369   3.435  0.3919  1.6859 -2.1403
    1SOL    HW3 8151   1.974   2.310   3.301  2.1044 -1.3669 -0.3654
    1SOL    MW4 8152   1.987   2.318   3.387  0.4597 -0.1457 -0.2007
    1SOL     OW 8153   1.808   2.448   3.514  0.6472 -0.4347  0.2002
    1SOL    HW2 8154   1.811   2.456   3.609  0.5585 -1.5001  0.3061
    1SOL    HW3 8155   1.730   2.394   3.497  0.7255 -0.3448 -0.4661
    1SOL    MW4 8156   1.798   2.442   3.525  0.6458 -0.5631  0.1264
    1SOL     OW 8157   1.838   2.696   3.416  0.4295 -0.3445 -0.0413
    1SOL    HW2 8158   1.912   2.737   3.461  0.6142  0.0141 -0.6621
    1SOL    HW3 8159   1.830   2.609   3.455  0.0330  0.2814  1.2968
    1SOL    MW4 8160   1.847   2.690   3.427  0.4015 -0.2148  0.0532
    1SOL     OW 8161   2.061   2.837   3.501  1.1497 -0.0596  0.3675
    1SOL    HW2 8162   2.069   2.851   3.596  0.0275 -0.5080  0.5335
    1SOL    HW3 8163   2.036   2.922   3.466  2.0680  0.2344  0.4011
    1SOL    MW4 8164   2.059   2.850   3.509  1.1227 -0.0801  0.3939
    1SOL     OW 8165   2.004   3.112   3.388  0.5937  0.0201  0.0595
    1SOL    HW2 8166   2.089   3.139   3.422  0.9543 -0.8193 -0.1487
    1SOL    HW3 8167   1.940   3.154   3.446  1.1299  1.2538 -0.2375
    1SOL    MW4 8168   2.006   3.121   3.400  0.7119  0.0722 -0.0072
    1SOL     OW 8169   1.787   3.215   3.535  0.0626 -0.0339  0.4655
    1SOL    HW2 8170   1.786   3.240   3.628 -0.5059  0.2222  0.3860
    1SOL    HW3 8171   1.793   3.298   3.488  2.5889 -0.2383  0.3169
    1SOL    MW4 8172   1.788   3.229   3.541  0.3209 -0.0269  0.4354
    1SOL     OW 8173   1.835   3.451   3.380  0.2256 -0.1415 -0.2943
    1SOL    HW2 8174   1.756   3.499   3.404  1.1835  1.6051 -0.4961
    1SOL    HW3 8175   1.843   3.463   3.285 -0.5121 -2.2691 -0.6351
    1SOL    MW4 8176   1.826   3.459   3.371  0.2546 -0.1917 -0.3657
    1SOL     OW 8177   2.031   3.614   3.494  0.1440 -0.0621  0.1038
    1SOL    HW2 8178   2.114   3.584   3.456 -0.2038 -0.3065 -0.4751
    1SOL    HW3 8179   1.964   3.570   3.442 -0.3359 -0.6813  1.2514
    1SOL    MW4 8180   2.033   3.604   3.482  0.0350 -0.1760  0.1786
    1SOL     OW 8181   1.992   3.879   3.390  0.5098 -0.0914 -0.1818
    1SOL    HW2 8182   1.927   3.924   3.445  1.2278  0.8643 -0.0967
    1SOL    HW3 8183   2.005   3.794   3.432 -0.5951 -0.2478 -0.1306
    1SOL    MW4 8184   1.985   3.874   3.403  0.4586  0.0138 -0.1638
    1SOL     OW 8185   1.779   4.017   3.523 -0.2673  0.0912  0.2593
    1SOL    HW2 8186   1.783   3.997   3.616 -0.8433 -1.4480 -0.0290
    1SOL    HW3 8187   1.712   3.957   3.488 -2.6575  3.0611 -0.5296
    1SOL    MW4 8188   1.770   4.006   3.531 -0.6588  0.2799  0.1173
    1SOL     OW 8189   1.786   4.277   3.400  0.2612  0.0920  0.2521
    1SOL    HW2 8190   1.794   4.192   3.443  1.7870  0.1659  0.1529
    1SOL    HW3 8191   1.773   4.255   3.307 -1.4714 -0.0466  0.5158
    1SOL    MW4 8192   1.786   4.263   3.393  0.2340  0.0839  0.2739
    1SOL     OW 8193   2.021   4.386   3.482  0.0712 -0.2379  0.0507
    1SOL    HW2 8194   1.939   4.355   3.444  0.4505 -0.3483 -0.6963
    1SOL    HW3 8195   2.024   4.479   3.459 -0.0025 -0.1573  0.3630
    1SOL    MW4 8196   2.010   4.394   3.474  0.1116 -0.2413 -0.0067
    1SOL     OW 8197   2.455   4.651   3.378  0.5921  0.6771  0.0602
    1SOL    HW2 8198   2.466   4.559   3.402  0.0656  0.6109  0.0521
    1SOL    HW3 8199   2.452   4.651   3.282 -0.5304  0.5683  0.0863
    1SOL    MW4 8200   2.456   4.639   3.368  0.3746  0.6547  0.0622
    1SOL     OW 8201   2.245   0.121   3.507 -0.0451  0.0465 -0.1122
    1SOL    HW2 8202   2.224   0.189   3.444  2.8804 -0.1404 -1.3204
    1SOL    HW3 8203   2.313   0.069   3.465 -1.2606 -2.8408  1.3340
    1SOL    MW4 8204   2.251   0.123   3.493  0.1805 -0.3591 -0.0806
    1SOL     OW 8205   2.238   0.363   3.367 -0.2316  0.0412  0.2540
    1SOL    HW2 8206   2.317   0.398   3.409 -0.0789 -0.1681  0.1398
    1SOL    HW3 8207   2.166   0.397   3.421 -0.0289 -0.3192  0.7605
    1SOL    MW4 8208   2.239   0.372   3.380 -0.1848 -0.0339  0.3057
    1SOL     OW 8209   2.447   0.485   3.482  0.4246  0.2178  0.1266
    1SOL    HW2 8210   2.523   0.438   3.448 -0.0553 -0.1736 -0.3965
    1SOL    HW3 8211   2.453   0.573   3.444  1.0108  0.4160  0.6622
    1SOL    MW4 8212   2.458   0.490   3.473  0.4385  0.1923  0.1283
    1SOL     OW 8213   2.465   0.754   3.375  0.0051  0.0982 -0.1868
    1SOL    HW2 8214   2.546   0.795   3.407 -0.2431 -0.4121  1.1208
    1SOL    HW3 8215   2.472   0.760   3.279  1.4854  0.2579 -0.0914
    1SOL    MW4 8216   2.477   0.760   3.366  0.1674  0.0519 -0.0017
    1SOL     OW 8217   2.237   0.872   3.467  0.1823  0.3459  0.4478
    1SOL    HW2 8218   2.257   0.965   3.455 -2.0107  0.6328 -1.2936
    1SOL    HW3 8219   2.314   0.826   3.434  0.7960  1.5308  0.2060
    1SOL    MW4 8220   2.250   0.878   3.461 -0.0260  0.5400  0.1860
    1SOL     OW 8221   2.256   1.142   3.384  0.6004 -0.0464  0.1183
    1SOL    HW2 8222   2.325   1.192   3.428 -0.0184  1.3062 -0.4451
    1SOL    HW3 8223   2.174   1.178   3.419  0.1140  0.4352 -1.4677
    1SOL    MW4 8224   2.254   1.153   3.395  0.4544  0.1956 -0.1652
    1SOL     OW 8225   2.474   1.282   3.493  0.1687  0.0550 -0.1516
    1SOL    HW2 8226   2.471   1.271   3.588  0.1819  1.5817  0.0424
    1SOL    HW3 8227   2.551   1.234   3.465  0.9253  0.7091  0.7887
    1SOL    MW4 8228   2.484   1.274   3.502  0.2701  0.3428 -0.0019
    1SOL     OW 8229   2.485   1.553   3.409 -0.2373 -0.0241 -0.9585
    1SOL    HW2 8230   2.494   1.461   3.437 -1.9152 -0.4759 -1.8554
    1SOL    HW3 8231   2.490   1.549   3.313  0.8794  0.9763 -0.9480
    1SOL    MW4 8232   2.487   1.540   3.400 -0.3114  0.0483 -1.0753
    1SOL     OW 8233   2.235   1.670   3.499  0.0028  0.0074  0.1387
    1SOL    HW2 8234   2.245   1.665   3.594  0.9670 -0.2222  0.0316
    1SOL    HW3 8235   2.312   1.624   3.465  0.7453  1.8659 -0.7614
    1SOL    MW4 8236   2.246   1.663   3.507  0.2279  0.2222  0.0060
    1SOL     OW 8237   2.188   1.925   3.373 -0.2083  0.0177 -0.4842
    1SOL    HW2 8238   2.207   1.844   3.420  1.3755 -0.0162 -1.1469
    1SOL    HW3 8239   2.200   1.903   3.280 -1.6952  0.5073 -0.8057
    1SOL    MW4 8240   2.192   1.912   3.367 -0.1955  0.0780 -0.6139
    1SOL     OW 8241   2.446   2.004   3.499 -0.0324  0.4970  0.4439
    1SOL    HW2 8242   2.366   1.986   3.449 -0.2255  1.0690  0.5485
    1SOL    HW3 8243   2.468   2.095   3.477  0.7941  0.2280  0.1313
    1SOL    MW4 8244   2.438   2.013   3.489  0.0513  0.5367  0.4163
    1SOL     OW 8245   2.501   2.265   3.415 -0.0372  0.1235  0.0197
    1SOL    HW2 8246   2.424   2.299   3.461 -0.0371  0.4304 -0.2011
    1SOL    HW3 8247   2.574   2.319   3.446 -0.1060  0.6145 -0.6510
    1SOL    MW4 8248   2.500   2.277   3.425 -0.0460  0.2289 -0.0978
    1SOL     OW 8249   2.250   2.398   3.471  0.2535 -0.1642  0.1779
    1SOL    HW2 8250   2.163   2.366   3.444  0.0741  1.1709 -0.8518
    1SOL    HW3 8251   2.252   2.489   3.442  1.7301  0.0291  0.8672
    1SOL    MW4 8252   2.239   2.406   3.464  0.4246  0.0374  0.1330
    1SOL     OW 8253   2.241   2.667   3.404  0.5927  0.1003  0.3343
    1SOL    HW2 8254   2.183   2.737   3.433  0.8328 -0.7261  2.9558
    1SOL    HW3 8255   2.245   2.676   3.309 -1.2668  2.1454  0.4276
    1SOL    MW4 8256   2.234   2.677   3.395  0.3791  0.2613  0.6924
    1SOL     OW 8257   2.470   2.792   3.493 -0.5381  0.4975  0.2297
    1SOL    HW2 8258   2.488   2.879   3.457  0.7904 -0.3747 -1.2970
    1SOL    HW3 8259   2.382   2.771   3.462 -0.1814  0.5884 -0.8735
    1SOL    MW4 8260   2.461   2.800   3.484 -0.3159  0.3946 -0.1173
    1SOL     OW 8261   2.481   3.051   3.427  0.1589 -0.0612 -0.1692
    1SOL    HW2 8262   2.567   3.093   3.437 -0.0694  0.5547 -0.7499
    1SOL    HW3 8263   2.461   3.062   3.334 -0.1406 -1.0056 -0.2199
    1SOL    MW4 8264   2.490   3.058   3.416  0.0892 -0.1047 -0.2525
    1SOL     OW 8265   2.268   3.234   3.480  0.1269 -0.1222  0.2078
    1SOL    HW2 8266   2.255   3.225   3.574  1.6882 -0.4212  0.4208
    1SOL    HW3 8267   2.349   3.186   3.463 -0.7298 -1.0143 -1.4676
    1SOL    MW4 8268   2.277   3.226   3.490  0.2198 -0.2794  0.0148
    1SOL     OW 8269   2.255   3.489   3.363 -0.1876  0.0696 -0.3811
    1SOL    HW2 8270   2.260   3.398   3.390 -2.6805 -0.2869 -0.9605
    1SOL    HW3 8271   2.250   3.486   3.267  0.0862  0.8239 -0.4244
    1SOL    MW4 8272   2.255   3.477   3.353 -0.4804  0.1223 -0.4632
    1SOL     OW 8273   2.470   3.598   3.494 -0.2704  0.4145 -0.2580
    1SOL    HW2 8274   2.475   3.685   3.454 -0.5437 -0.0672 -1.3753
    1SOL    HW3 8275   2.399   3.555   3.446  0.3715 -0.6758 -0.2293
    1SOL    MW4 8276   2.462   3.604   3.482 -0.2220  0.2072 -0.4015
    1SOL     OW 8277   2.456   3.849   3.372  0.1070  0.8433 -0.4926
    1SOL    HW2 8278   2.535   3.899   3.392  0.3290 -0.1300  1.1500
    1SOL    HW3 8279   2.385   3.901   3.408  0.1654  0.8806 -0.4294
    1SOL    MW4 8280   2.457   3.862   3.379  0.1438  0.7198 -0.2675
    1SOL     OW 8281   2.245   4.009   3.464 -0.2952  0.0971 -0.3376
    1SOL    HW2 8282   2.227   4.099   3.436 -1.0151  0.5446  1.5103
    1SOL    HW3 8283   2.170   3.959   3.432  0.8782 -0.1931 -2.7996
    1SOL    MW4 8284   2.232   4.014   3.456 -0.2353  0.1178 -0.4189
    1SOL     OW 8285   2.235   4.259   3.345  0.1400  0.6322  0.0217
    1SOL    HW2 8286   2.165   4.319   3.369  1.1472  2.0986 -0.5671
    1SOL    HW3 8287   2.229   4.252   3.250  1.8688  2.2220 -0.2522
    1SOL    MW4 8288   2.225   4.266   3.336  0.5012  1.0352 -0.0920
    1SOL     OW 8289   2.464   4.367   3.430 -0.1839 -0.6187 -0.1310
    1SOL    HW2 8290   2.459   4.368   3.525  0.1140 -1.1452 -0.1098
    1SOL    HW3 8291   2.377   4.339   3.401 -0.3711 -0.1548 -0.0248
    1SOL    MW4 8292   2.452   4.364   3.438 -0.1693 -0.6270 -0.1142
    1SOL     OW 8293   2.918   4.654   3.360 -0.4571 -0.2586  0.3491
    1SOL    HW2 8294   2.836   4.696   3.385 -0.0961  0.9225 -0.4151
    1SOL    HW3 8295   2.922   4.663   3.265  0.0754 -1.2216  0.2681
    1SOL    MW4 8296   2.908   4.660   3.351 -0.3393 -0.2303  0.2375
    1SOL     OW 8297   2.697   0.101   3.436  0.4296  0.3294  0.2334
    1SOL    HW2 8298   2.689   0.121   3.530 -0.7231 -0.7958  0.3841
    1SOL    HW3 8299   2.613   0.062   3.413  1.3344 -0.9948 -0.8701
    1SOL    MW4 8300   2.685   0.099   3.446  0.3970  0.0062  0.1075
    1SOL     OW 8301   2.679   0.354   3.363 -0.3867 -0.3803 -0.1713
    1SOL    HW2 8302   2.755   0.398   3.400 -0.0076 -0.7349 -0.5197
    1SOL    HW3 8303   2.689   0.263   3.388 -0.4311 -0.5179 -0.6406
    1SOL    MW4 8304   2.690   0.348   3.371 -0.3424 -0.4452 -0.2792
    1SOL     OW 8305   2.881   0.491   3.502  0.2971 -0.1658 -0.0450
    1SOL    HW2 8306   2.883   0.498   3.597 -1.3884 -0.5900  0.0378
    1SOL    HW3 8307   2.891   0.581   3.471  3.4719 -0.2991  0.4458
    1SOL    MW4 8308   2.883   0.504   3.511  0.4935 -0.2394  0.0308
    1SOL     OW 8309   2.918   0.756   3.384  0.0384  0.6891 -0.6860
    1SOL    HW2 8310   2.991   0.792   3.434  0.4629  0.7628 -1.3556
    1SOL    HW3 8311   2.840   0.794   3.426  0.3493  0.1573  0.3850
    1SOL    MW4 8312   2.917   0.766   3.396  0.1357  0.6286 -0.6328
    1SOL     OW 8313   2.686   0.898   3.466 -0.4071  0.4737  0.1633
    1SOL    HW2 8314   2.681   0.904   3.561  0.4079  0.2361  0.2255
    1SOL    HW3 8315   2.686   0.989   3.436  1.6283  0.6305  0.5318
    1SOL    MW4 8316   2.686   0.911   3.474 -0.0312  0.4631  0.2201
    1SOL     OW 8317   2.709   1.154   3.385  0.0354 -0.3056 -0.2565
    1SOL    HW2 8318   2.783   1.206   3.417  0.3059 -0.3596 -0.7944
    1SOL    HW3 8319   2.717   1.158   3.289 -0.5181 -0.5106 -0.3089
    1SOL    MW4 8320   2.720   1.162   3.376 -0.0019 -0.3397 -0.3343
    1SOL     OW 8321   2.971   1.286   3.482  0.2573  0.4361 -0.1111
    1SOL    HW2 8322   2.983   1.277   3.577 -0.7218  1.0560  0.0741
    1SOL    HW3 8323   3.027   1.218   3.445 -0.0474 -0.4161  0.9458
    1SOL    MW4 8324   2.980   1.276   3.490  0.0880  0.4054  0.0527
    1SOL     OW 8325   3.004   1.545   3.394 -0.1401  0.4268  0.7531
    1SOL    HW2 8326   2.920   1.587   3.410  0.0996  0.2329  2.5345
    1SOL    HW3 8327   2.993   1.455   3.424 -0.2834 -0.5278 -1.9658
    1SOL    MW4 8328   2.992   1.538   3.400 -0.1276  0.2754  0.6294
    1SOL     OW 8329   2.758   1.666   3.466  0.4328  0.1448  0.4419
    1SOL    HW2 8330   2.746   1.760   3.455  2.7847  0.2724 -1.4652
    1SOL    HW3 8331   2.675   1.628   3.439 -0.2492  1.6195  0.4099
    1SOL    MW4 8332   2.746   1.674   3.461  0.6530  0.3562  0.1862
    1SOL     OW 8333   2.708   1.938   3.408  0.0803 -0.0442  0.1567
    1SOL    HW2 8334   2.618   1.946   3.438  0.4846 -2.8085  2.3497
    1SOL    HW3 8335   2.702   1.941   3.312 -1.8930  3.2608  0.3091
    1SOL    MW4 8336   2.695   1.939   3.399 -0.1266  0.0271  0.4661
    1SOL     OW 8337   2.950   2.051   3.506  0.2550  0.4441  0.3285
    1SOL    HW2 8338   2.953   2.045   3.601  1.8143  0.0754  0.2680
    1SOL    HW3 8339   2.866   2.011   3.481 -0.8731  1.9407  1.6308
    1SOL    MW4 8340   2.939   2.045   3.515  0.3119  0.5932  0.4923
    1SOL     OW 8341   2.952   2.312   3.406 -0.2135 -0.1431 -0.2416
    1SOL    HW2 8342   2.958   2.226   3.447 -0.3127 -0.2648 -0.4845
    1SOL    HW3 8343   2.935   2.294   3.314 -0.6658  0.1477 -0.2129
    1SOL    MW4 8344   2.951   2.298   3.399 -0.2863 -0.1209 -0.2699
    1SOL     OW 8345   2.721   2.410   3.511 -0.2791 -0.5000 -0.2255
    1SOL    HW2 8346   2.745   2.402   3.603  0.6507  2.8938 -0.1212
    1SOL    HW3 8347   2.803   2.394   3.464 -0.3425 -0.3954 -0.3728
    1SOL    MW4 8348   2.735   2.407   3.517 -0.1645 -0.0384 -0.2310
    1SOL     OW 8349   2.695   2.672   3.376  0.5425 -0.2004 -0.3532
    1SOL    HW2 8350   2.714   2.588   3.419  0.8943  0.3076  0.5066
    1SOL    HW3 8351   2.620   2.706   3.425  1.0253  0.4408 -0.0571
    1SOL    MW4 8352   2.688   2.665   3.388  0.6528 -0.0489 -0.2007
    1SOL     OW 8353   2.894   2.875   3.457  0.1420 -0.2498  0.8595
    1SOL    HW2 8354   2.906   2.840   3.545  0.2698 -1.0836  0.5083
    1SOL    HW3 8355   2.830   2.818   3.416  1.8026 -1.2733 -0.3731
    1SOL    MW4 8356   2.887   2.863   3.463  0.3781 -0.4950  0.6506
    1SOL     OW 8357   2.969   3.121   3.355  0.2318  0.3678 -0.0237
    1SOL    HW2 8358   2.958   3.035   3.396 -0.0464  0.6228  0.4348
    1SOL    HW3 8359   2.954   3.105   3.262 -0.5386  0.0533  0.1526
    1SOL    MW4 8360   2.966   3.107   3.348  0.0937  0.3603  0.0598
    1SOL     OW 8361   2.718   3.194   3.465 -0.4741  0.3784  0.1055
    1SOL    HW2 8362   2.728   3.175   3.558 -0.3254 -0.0738 -0.0042
    1SOL    HW3 8363   2.804   3.175   3.426 -0.7879 -0.2806 -0.2708
    1SOL    MW4 8364   2.731   3.189   3.472 -0.4959  0.2317  0.0415
    1SOL     OW 8365   2.717   3.472   3.405 -0.2196 -0.3751 -0.0937
    1SOL    HW2 8366   2.705   3.378   3.418 -0.6636 -0.5945 -2.0217
    1SOL    HW3 8367   2.641   3.512   3.448 -1.3987 -1.0579 -1.5083
    1SOL    MW4 8368   2.705   3.465   3.413 -0.4342 -0.4942 -0.5348
    1SOL     OW 8369   2.983   3.577   3.460  0.5322 -0.3279 -0.1116
    1SOL    HW2 8370   2.969   3.666   3.430 -0.6337 -0.4232  0.1292
    1SOL    HW3 8371   2.900   3.533   3.445  1.0579 -1.3433 -0.1042
    1SOL    MW4 8372   2.971   3.583   3.454  0.4478 -0.4742 -0.0789
    1SOL     OW 8373   2.942   3.836   3.345 -0.3387  0.2321  0.0710
    1SOL    HW2 8374   3.011   3.895   3.376 -0.7882 -0.4080  2.4094
    1SOL    HW3 8375   2.861   3.880   3.368 -0.6829 -0.7081  0.6709
    1SOL    MW4 8376   2.941   3.850   3.352 -0.4435  0.0238  0.4585
    1SOL     OW 8377   2.716   3.966   3.423 -0.3456 -0.1217 -0.0468
    1SOL    HW2 8378   2.714   3.967   3.519  2.3495 -0.0085  0.0454
    1SOL    HW3 8379   2.711   4.058   3.398  2.2360  0.1016  0.1317
    1SOL    MW4 8380   2.715   3.978   3.432  0.3507 -0.0770 -0.0110
    1SOL     OW 8381   2.681   4.225   3.349  0.2414  0.2194  0.1090
    1SOL    HW2 8382   2.758   4.267   3.388  1.3506 -1.0094 -0.7206
    1SOL    HW3 8383   2.608   4.282   3.374  1.3540  1.1911  1.2458
    1SOL    MW4 8384   2.682   4.238   3.358  0.5345  0.1855  0.1495
    1SOL     OW 8385   2.876   4.394   3.453 -0.0999  0.1070  0.1033
    1SOL    HW2 8386   2.864   4.396   3.548  1.1224  0.1615  0.2555
    1SOL    HW3 8387   2.860   4.485   3.425 -0.4181  0.0995  0.2514
    1SOL    MW4 8388   2.872   4.407   3.462  0.0196  0.1130  0.1428
    1SOL     OW 8389   3.367   4.632   3.394  0.2702  0.0378  0.2216
    1SOL    HW2 8390   3.288   4.672   3.428 -0.2240 -0.8603  0.1662
    1SOL    HW3 8391   3.352   4.625   3.299  0.1640 -0.6560  0.2831
    1SOL    MW4 8392   3.355   4.636   3.386  0.1910 -0.1726  0.2224
    1SOL     OW 8393   3.133   0.091   3.503  0.1372  0.1707  0.4235
    1SOL    HW2 8394   3.128   0.178   3.465  0.2367 -0.1652 -0.3616
    1SOL    HW3 8395   3.050   0.049   3.478  0.3045 -0.1302  0.3691
    1SOL    MW4 8396   3.121   0.097   3.495  0.1724  0.0867  0.3126
    1SOL     OW 8397   3.104   0.354   3.393  0.1359 -0.2742 -0.2684
    1SOL    HW2 8398   3.023   0.401   3.416 -0.9401 -2.9287  1.5849
    1SOL    HW3 8399   3.107   0.358   3.297 -0.3175  2.8572 -0.2190
    1SOL    MW4 8400   3.093   0.361   3.383 -0.0660 -0.2112 -0.0174
    1SOL     OW 8401   3.317   0.498   3.481 -0.4817  0.3034 -0.0940
    1SOL    HW2 8402   3.319   0.500   3.576 -0.8391 -0.0786 -0.0747
    1SOL    HW3 8403   3.238   0.448   3.460 -0.2395  0.1222 -0.5851
    1SOL    MW4 8404   3.307   0.491   3.490 -0.4969  0.2291 -0.1564
    1SOL     OW 8405   3.363   0.740   3.345  0.1772 -0.6549  0.1260
    1SOL    HW2 8406   3.434   0.780   3.395 -0.2430 -1.3833  1.3212
    1SOL    HW3 8407   3.351   0.654   3.386  0.8181 -1.8752 -2.1369
    1SOL    MW4 8408   3.371   0.734   3.357  0.2065 -0.9120 -0.0148
    1SOL     OW 8409   3.172   0.876   3.481  0.1796  0.3469  0.0323
    1SOL    HW2 8410   3.159   0.961   3.440  0.6738  0.5818  0.3627
    1SOL    HW3 8411   3.249   0.840   3.438  0.0472  0.1219 -0.0173
    1SOL    MW4 8412   3.180   0.882   3.470  0.2275  0.3482  0.0691
    1SOL     OW 8413   3.163   1.122   3.375 -0.1033  0.2068 -0.1937
    1SOL    HW2 8414   3.241   1.174   3.395  0.9539 -1.1736 -0.5781
    1SOL    HW3 8415   3.163   1.114   3.280  0.3039 -1.2580 -0.0945
    1SOL    MW4 8416   3.173   1.128   3.365  0.0896 -0.1686 -0.2313
    1SOL     OW 8417   3.390   1.259   3.494 -0.2771  0.3100  0.3905
    1SOL    HW2 8418   3.466   1.215   3.456 -1.1074 -1.0180  0.2139
    1SOL    HW3 8419   3.391   1.347   3.458 -0.1912 -0.4605 -1.5201
    1SOL    MW4 8420   3.400   1.265   3.484 -0.3753  0.0331  0.1154
    1SOL     OW 8421   3.398   1.516   3.397  0.0530 -0.1843  0.2152
    1SOL    HW2 8422   3.482   1.554   3.422  0.3981  0.5162 -1.9537
    1SOL    HW3 8423   3.333   1.565   3.448  0.9715 -1.2437  2.4846
    1SOL    MW4 8424   3.400   1.527   3.407  0.2196 -0.2316  0.2284
    1SOL     OW 8425   3.201   1.659   3.531 -0.2268  0.0494  0.2411
    1SOL    HW2 8426   3.213   1.741   3.484  1.3826  0.3216  1.1014
    1SOL    HW3 8427   3.127   1.617   3.487 -0.1925  1.3213 -1.0704
    1SOL    MW4 8428   3.193   1.664   3.519 -0.0100  0.2532  0.1817
    1SOL     OW 8429   3.189   1.910   3.417  0.1233  0.0628  0.3046
    1SOL    HW2 8430   3.105   1.938   3.453  0.2173  0.4744  0.2026
    1SOL    HW3 8431   3.252   1.973   3.453  0.3226  0.0299  0.0088
    1SOL    MW4 8432   3.187   1.922   3.427  0.1621  0.1128  0.2520
    1SOL     OW 8433   3.408   2.059   3.507  0.6974  0.4056 -0.0726
    1SOL    HW2 8434   3.399   2.142   3.460 -2.8247  0.3510  0.3999
    1SOL    HW3 8435   3.397   2.083   3.599  0.5911 -0.4781  0.1455
    1SOL    MW4 8436   3.405   2.073   3.513  0.2186  0.2816  0.0184
    1SOL     OW 8437   3.391   2.304   3.400 -0.0223 -0.4851  0.3231
    1SOL    HW2 8438   3.471   2.343   3.434  0.2663 -0.2392 -0.6553
    1SOL    HW3 8439   3.321   2.358   3.438  0.2230 -1.1449  1.7725
    1SOL    MW4 8440   3.392   2.316   3.410  0.0482 -0.5398  0.3855
    1SOL     OW 8441   3.173   2.444   3.513 -0.4949 -0.4251  0.6059
    1SOL    HW2 8442   3.154   2.533   3.485  1.2271 -0.6242 -1.2884
    1SOL    HW3 8443   3.095   2.394   3.489 -0.2563  0.0025 -1.1336
    1SOL    MW4 8444   3.160   2.449   3.506 -0.2363 -0.3948  0.1268
    1SOL     OW 8445   3.097   2.720   3.378 -0.2535 -0.1913 -0.1536
    1SOL    HW2 8446   3.179   2.764   3.402  0.1322 -0.5416 -0.8091
    1SOL    HW3 8447   3.029   2.771   3.422  0.2913  0.2989  0.1303
    1SOL    MW4 8448   3.099   2.733   3.387 -0.1309 -0.1729 -0.2029
    1SOL     OW 8449   3.352   2.818   3.474 -0.1264 -0.1868  0.4823
    1SOL    HW2 8450   3.363   2.818   3.569  1.5198 -0.2632  0.3136
    1SOL    HW3 8451   3.366   2.909   3.448 -0.3570 -0.2049  0.2969
    1SOL    MW4 8452   3.355   2.830   3.483  0.0603 -0.1993  0.4356
    1SOL     OW 8453   3.399   3.077   3.387 -0.7449 -0.1772  0.3601
    1SOL    HW2 8454   3.474   3.134   3.402 -0.1660 -0.6329 -0.7865
    1SOL    HW3 8455   3.324   3.126   3.421 -0.0060  0.4957  1.0221
    1SOL    MW4 8456   3.399   3.091   3.394 -0.5710 -0.1485  0.2961
    1SOL     OW 8457   3.196   3.242   3.446 -0.2542 -0.5582  0.2214
    1SOL    HW2 8458   3.208   3.331   3.413 -0.3698 -0.2284  1.0454
    1SOL    HW3 8459   3.119   3.210   3.400 -0.5508 -0.0218  0.3348
    1SOL    MW4 8460   3.188   3.250   3.436 -0.3085 -0.4437  0.3450
    1SOL     OW 8461   3.218   3.499   3.352 -0.1803  0.0475 -0.2093
    1SOL    HW2 8462   3.132   3.528   3.383 -0.0637 -1.2764  1.4493
    1SOL    HW3 8463   3.209   3.495   3.257 -1.7019  0.7231 -0.1089
    1SOL    MW4 8464   3.205   3.502   3.344 -0.3655 -0.0377  0.0229
    1SOL     OW 8465   3.424   3.642   3.471 -0.1016 -0.6719  0.5883
    1SOL    HW2 8466   3.401   3.731   3.447  0.6548 -0.5071  0.4436
    1SOL    HW3 8467   3.358   3.587   3.429 -0.0601 -0.2359 -0.0511
    1SOL    MW4 8468   3.412   3.646   3.462  0.0036 -0.5927  0.4849
    1SOL     OW 8469   3.357   3.887   3.361 -0.4222  0.5435  0.2049
    1SOL    HW2 8470   3.432   3.943   3.378 -0.8566  0.2550  3.6174
    1SOL    HW3 8471   3.281   3.939   3.389 -1.4047  0.3740 -2.0282
    1SOL    MW4 8472   3.357   3.901   3.367 -0.6089  0.4830  0.3605
    1SOL     OW 8473   3.128   4.007   3.453 -0.0553 -0.1061 -0.1533
    1SOL    HW2 8474   3.126   4.019   3.548 -0.3251 -1.4126  0.0124
    1SOL    HW3 8475   3.129   4.096   3.418 -0.4307  0.3862  1.0583
    1SOL    MW4 8476   3.128   4.021   3.461 -0.1407 -0.2136  0.0286
    1SOL     OW 8477   3.103   4.265   3.366 -0.0809 -0.2962  0.4324
    1SOL    HW2 8478   3.167   4.307   3.424  0.9548 -1.0693 -0.1264
    1SOL    HW3 8479   3.020   4.306   3.388  0.7929  1.5248  0.3864
    1SOL    MW4 8480   3.100   4.276   3.377  0.1709 -0.1578  0.3524
    1SOL     OW 8481   3.320   4.381   3.510  0.4511  0.2654 -0.0593
    1SOL    HW2 8482   3.326   4.381   3.605  0.7401 -0.2965 -0.0735
    1SOL    HW3 8483   3.338   4.471   3.484  0.2461  0.4463  0.4261
    1SOL    MW4 8484   3.323   4.393   3.519  0.4621  0.2155  0.0026
    1SOL     OW 8485   3.832   4.660   3.426 -0.4853  0.3968 -0.2410
    1SOL    HW2 8486   3.748   4.687   3.463 -0.3110 -0.1905  0.5709
    1SOL    HW3 8487   3.816   4.657   3.331 -1.4711 -0.0187 -0.0668
    1SOL    MW4 8488   3.819   4.663   3.418 -0.5925  0.2642 -0.1109
    1SOL     OW 8489   3.578   0.090   3.507 -0.6253 -0.1015 -0.1200
    1SOL    HW2 8490   3.568   0.184   3.489 -1.2067 -0.0571  0.4024
    1SOL    HW3 8491   3.505   0.049   3.461  1.0715 -0.5778 -2.4474
    1SOL    MW4 8492   3.567   0.097   3.499 -0.4783 -0.1585 -0.3581
    1SOL     OW 8493   3.545   0.357   3.399  0.1532 -0.0405  0.3481
    1SOL    HW2 8494   3.626   0.393   3.436 -0.2905 -0.6717  1.9856
    1SOL    HW3 8495   3.475   0.402   3.447 -0.4540 -0.0129 -0.5690
    1SOL    MW4 8496   3.547   0.368   3.410  0.0145 -0.1201  0.4432
    1SOL     OW 8497   3.800   0.499   3.495  0.3558  0.2745 -0.3430
    1SOL    HW2 8498   3.790   0.505   3.589  0.9003  0.8328 -0.3137
    1SOL    HW3 8499   3.886   0.459   3.483 -0.1425 -0.7351 -0.5975
    1SOL    MW4 8500   3.810   0.495   3.505  0.3617  0.2150 -0.3726
    1SOL     OW 8501   3.800   0.766   3.394 -0.1627  0.0656  0.3024
    1SOL    HW2 8502   3.879   0.809   3.428 -0.0809  0.9603 -0.9664
    1SOL    HW3 8503   3.807   0.676   3.424  1.6349 -0.0070 -0.2680
    1SOL    MW4 8504   3.811   0.760   3.403  0.0854  0.1740  0.0596
    1SOL     OW 8505   3.565   0.872   3.460  0.2034  0.0902 -0.3699
    1SOL    HW2 8506   3.564   0.873   3.556 -0.5318 -1.5171 -0.3467
    1SOL    HW3 8507   3.642   0.820   3.438 -0.0812 -0.2167 -0.6375
    1SOL    MW4 8508   3.575   0.865   3.470  0.0689 -0.1623 -0.4022
    1SOL     OW 8509   3.620   1.144   3.408  0.3784 -0.5155  0.0255
    1SOL    HW2 8510   3.622   1.050   3.423 -0.4804 -0.5850 -0.2933
    1SOL    HW3 8511   3.612   1.153   3.313 -1.3841 -0.1486  0.1946
    1SOL    MW4 8512   3.619   1.133   3.397  0.0322 -0.4764  0.0057
    1SOL     OW 8513   3.826   1.271   3.542  0.1197  0.1248  0.2212
    1SOL    HW2 8514   3.800   1.279   3.634  2.2116  0.9853  0.7648
    1SOL    HW3 8515   3.745   1.247   3.496 -1.8285  3.4917  1.7066
    1SOL    MW4 8516   3.812   1.269   3.548  0.1388  0.6826  0.4890
    1SOL     OW 8517   3.841   1.521   3.426  0.1283  0.1739  0.1545
    1SOL    HW2 8518   3.896   1.583   3.475  1.0235  0.0024 -0.6219
    1SOL    HW3 8519   3.848   1.439   3.476  0.7749  0.0903 -0.0666
    1SOL    MW4 8520   3.849   1.518   3.439  0.3319  0.1402  0.0226
    1SOL     OW 8521   3.629   1.644   3.523 -0.2757 -0.4124 -0.0394
    1SOL    HW2 8522   3.638   1.730   3.483 -1.6128 -0.2420 -0.0164
    1SOL    HW3 8523   3.702   1.593   3.489  0.4381  0.6843 -0.1621
    1SOL    MW4 8524   3.640   1.648   3.513 -0.3581 -0.2452 -0.0525
    1SOL     OW 8525   3.612   1.891   3.394 -0.1476  0.2353  0.0516
    1SOL    HW2 8526   3.690   1.939   3.422  1.4921 -1.6683 -1.2278
    1SOL    HW3 8527   3.539   1.941   3.432  1.6494  2.1903  1.0176
    1SOL    MW4 8528   3.612   1.904   3.403  0.3057  0.2421  0.0103
    1SOL     OW 8529   3.802   2.071   3.497  0.4936  0.2688 -0.2985
    1SOL    HW2 8530   3.799   2.063   3.593  1.1766 -1.5075 -0.4066
    1SOL    HW3 8531   3.888   2.035   3.473  0.6078  1.3341 -1.5299
    1SOL    MW4 8532   3.813   2.065   3.507  0.5989  0.1752 -0.4752
    1SOL     OW 8533   3.824   2.313   3.369  0.0261 -0.1139 -0.4610
    1SOL    HW2 8534   3.879   2.362   3.430 -0.1750 -0.8557  0.3397
    1SOL    HW3 8535   3.813   2.227   3.411 -2.0221  0.1285 -0.4205
    1SOL    MW4 8536   3.830   2.308   3.383 -0.2706 -0.1800 -0.3500
    1SOL     OW 8537   3.610   2.433   3.509  0.0032  0.1244 -0.1374
    1SOL    HW2 8538   3.597   2.518   3.466 -2.5574 -1.5321 -2.8310
    1SOL    HW3 8539   3.673   2.387   3.454  0.2690 -0.2749  0.4899
    1SOL    MW4 8540   3.616   2.438   3.496 -0.2995 -0.1469 -0.4101
    1SOL     OW 8541   3.585   2.701   3.381 -0.1428 -0.3996  0.2983
    1SOL    HW2 8542   3.653   2.753   3.425  0.0684  0.4086 -0.9648
    1SOL    HW3 8543   3.503   2.743   3.407 -0.1904 -1.4528  1.9271
    1SOL    MW4 8544   3.583   2.714   3.391 -0.1216 -0.4320  0.3464
    1SOL     OW 8545   3.789   2.853   3.485  0.2110  0.3567 -0.4026
    1SOL    HW2 8546   3.772   2.857   3.580 -0.0573 -0.7655 -0.3887
    1SOL    HW3 8547   3.802   2.944   3.459 -1.4374  0.8531  0.4107
    1SOL    MW4 8548   3.788   2.866   3.494 -0.0420  0.2742 -0.2933
    1SOL     OW 8549   3.863   3.100   3.390 -0.0562  0.3460  0.3759
    1SOL    HW2 8550   3.944   3.143   3.417 -0.1428  0.9843 -0.3558
    1SOL    HW3 8551   3.870   3.095   3.294 -0.5769 -0.2171  0.3602
    1SOL    MW4 8552   3.875   3.105   3.381 -0.1364  0.3560  0.2775
    1SOL     OW 8553   3.627   3.232   3.434  0.1055  0.0371  0.0871
    1SOL    HW2 8554   3.653   3.321   3.413  0.0780  0.1856  0.6987
    1SOL    HW3 8555   3.709   3.182   3.431 -0.0314 -0.1266 -1.3260
    1SOL    MW4 8556   3.641   3.237   3.431  0.0839  0.0350 -0.0186
    1SOL     OW 8557   3.647   3.500   3.358  0.0286  0.3227 -0.0289
    1SOL    HW2 8558   3.574   3.543   3.404 -0.9448 -1.9724  0.6559
    1SOL    HW3 8559   3.624   3.507   3.266 -1.1748 -0.5700  0.1971
    1SOL    MW4 8560   3.634   3.507   3.352 -0.2584 -0.0980  0.0913
    1SOL     OW 8561   3.842   3.656   3.486  0.3338 -0.0394  0.2130
    1SOL    HW2 8562   3.830   3.647   3.581  0.2284  2.1630  0.4407
    1SOL    HW3 8563   3.779   3.595   3.448  0.1345 -0.6932  1.5485
    1SOL    MW4 8564   3.832   3.647   3.494  0.2937  0.1650  0.4191
    1SOL     OW 8565   3.830   3.925   3.379  0.3221 -0.3030 -0.0190
    1SOL    HW2 8566   3.750   3.974   3.402 -1.2362 -1.3446 -2.9734
    1SOL    HW3 8567   3.818   3.840   3.420  0.1984 -0.2662  0.0230
    1SOL    MW4 8568   3.817   3.920   3.388  0.1001 -0.4356 -0.4034
    1SOL     OW 8569   3.589   4.039   3.435 -0.2658  0.0401  0.2799
    1SOL    HW2 8570   3.573   4.042   3.530 -3.5732 -1.2134 -0.1607
    1SOL    HW3 8571   3.596   4.130   3.408 -0.7971  0.4578  1.5201
    1SOL    MW4 8572   3.588   4.051   3.444 -0.7722 -0.0706  0.3850
    1SOL     OW 8573   3.562   4.299   3.388  0.3271 -0.0687 -0.3682
    1SOL    HW2 8574   3.474   4.320   3.419  1.0068  1.4148  0.5940
    1SOL    HW3 8575   3.561   4.324   3.296 -0.4424 -0.6420 -0.5231
    1SOL    MW4 8576   3.550   4.305   3.380  0.3152  0.0515 -0.2620
    1SOL     OW 8577   3.803   4.384   3.493 -0.0889 -0.0693  0.1536
    1SOL    HW2 8578   3.718   4.362   3.455  0.3814 -1.0527 -0.3496
    1SOL    HW3 8579   3.813   4.478   3.476 -0.8793 -0.0364 -0.1648
    1SOL    MW4 8580   3.793   4.394   3.486 -0.1311 -0.1945  0.0451
    1SOL     OW 8581   4.301   0.010   3.367 -0.2118 -0.2433 -0.3482
    1SOL    HW2 8582   4.288  -0.072   3.415  0.5086 -0.5662 -0.6911
    1SOL    HW3 8583   4.368   0.057   3.416 -0.9043  0.3293  0.0677
    1SOL    MW4 8584   4.308   0.005   3.380 -0.2079 -0.2104 -0.3388
    1SOL     OW 8585   4.071   0.131   3.474  0.5841  0.7367  0.0561
    1SOL    HW2 8586   4.143   0.100   3.419  0.7685  0.7813  0.2766
    1SOL    HW3 8587   3.998   0.072   3.453  1.1066 -0.2137  0.9181
    1SOL    MW4 8588   4.071   0.119   3.464  0.6766  0.6172  0.1988
    1SOL     OW 8589   4.044   0.398   3.442  0.3444  0.3768 -0.1810
    1SOL    HW2 8590   4.049   0.303   3.449 -3.4114  0.2051  1.0354
    1SOL    HW3 8591   4.037   0.415   3.348 -0.9559 -0.6730 -0.2782
    1SOL    MW4 8592   4.044   0.388   3.430 -0.3228  0.2156 -0.0336
    1SOL     OW 8593   4.275   0.513   3.529 -0.6008  0.5198 -0.1596
    1SOL    HW2 8594   4.272   0.602   3.494 -0.4062 -0.3987 -2.6285
    1SOL    HW3 8595   4.191   0.475   3.504 -0.7763  0.0765  1.0930
    1SOL    MW4 8596   4.264   0.520   3.521 -0.5980  0.3401 -0.3202
    1SOL     OW 8597   4.232   0.769   3.395  0.0689  0.4814  0.2313
    1SOL    HW2 8598   4.301   0.820   3.438  1.3328 -0.9070 -0.1118
    1SOL    HW3 8599   4.258   0.766   3.303  0.2820 -1.2020  0.3316
    1SOL    MW4 8600   4.245   0.776   3.388  0.2637  0.0762  0.1996
    1SOL     OW 8601   4.018   0.905   3.489 -0.2515  0.4114  0.2434
    1SOL    HW2 8602   4.022   0.995   3.456 -0.7242  0.5418  0.5447
    1SOL    HW3 8603   4.091   0.861   3.445 -0.5505  0.7209 -0.5675
    1SOL    MW4 8604   4.028   0.911   3.479 -0.3533  0.4694  0.1764
    1SOL     OW 8605   4.052   1.170   3.404  0.2995 -0.2052  0.5254
    1SOL    HW2 8606   4.127   1.219   3.436  1.0267 -1.7821  1.2298
    1SOL    HW3 8607   3.977   1.207   3.452  0.5288  1.5870 -0.4156
    1SOL    MW4 8608   4.052   1.182   3.414  0.4258 -0.1767  0.4940
    1SOL     OW 8609   4.258   1.311   3.542  0.1256  0.2395 -0.0773
    1SOL    HW2 8610   4.259   1.391   3.489 -0.1185  1.3913  1.6081
    1SOL    HW3 8611   4.328   1.257   3.505 -0.3253  0.8275 -1.8328
    1SOL    MW4 8612   4.267   1.314   3.530  0.0334  0.4690 -0.0863
    1SOL     OW 8613   4.261   1.551   3.411 -0.3170 -0.0513 -0.1132
    1SOL    HW2 8614   4.177   1.591   3.433 -0.7184 -0.2916 -1.1807
    1SOL    HW3 8615   4.266   1.557   3.316 -0.2391 -2.2506 -0.2587
    1SOL    MW4 8616   4.251   1.557   3.402 -0.3600 -0.3732 -0.2735
    1SOL     OW 8617   4.020   1.685   3.545 -0.1925 -0.0597  0.1965
    1SOL    HW2 8618   4.044   1.689   3.637 -1.4543  0.1002  0.5315
    1SOL    HW3 8619   4.025   1.776   3.515  0.4894 -0.1523  0.0443
    1SOL    MW4 8620   4.024   1.697   3.553 -0.2689 -0.0509  0.2205
    1SOL     OW 8621   4.024   1.924   3.421  0.0252 -0.3471 -0.2124
    1SOL    HW2 8622   4.107   1.970   3.431 -0.4400  0.1770  1.4240
    1SOL    HW3 8623   4.011   1.916   3.326 -0.3343  3.6780 -0.5635
    1SOL    MW4 8624   4.033   1.929   3.410 -0.0830  0.2532 -0.0427
    1SOL     OW 8625   4.259   2.066   3.488 -0.1696  0.3120 -0.2673
    1SOL    HW2 8626   4.260   2.159   3.463 -1.2164  0.4420  0.1293
    1SOL    HW3 8627   4.346   2.034   3.467 -0.0129  1.2289 -1.0274
    1SOL    MW4 8628   4.270   2.074   3.482 -0.2871  0.4499 -0.3152
    1SOL     OW 8629   4.253   2.353   3.409 -0.2203  0.3951 -0.1316
    1SOL    HW2 8630   4.177   2.403   3.439  0.6757  2.1554 -0.7298
    1SOL    HW3 8631   4.246   2.355   3.314  0.0404 -0.3193 -0.1702
    1SOL    MW4 8632   4.242   2.360   3.400 -0.0682  0.5333 -0.2155
    1SOL     OW 8633   3.996   2.466   3.532 -0.5462  0.3718  0.2156
    1SOL    HW2 8634   4.018   2.475   3.625  1.3676  0.2729 -0.2139
    1SOL    HW3 8635   4.008   2.554   3.496 -0.2649  0.1812 -0.1585
    1SOL    MW4 8636   4.000   2.479   3.539 -0.2565  0.3338  0.1097
    1SOL     OW 8637   4.036   2.729   3.444  0.1953  0.4386  0.1321
    1SOL    HW2 8638   4.104   2.767   3.499 -0.2551  0.7677  0.4631
    1SOL    HW3 8639   3.960   2.785   3.457 -0.0637  0.2256 -0.4390
    1SOL    MW4 8640   4.035   2.741   3.453  0.1016  0.4539  0.1004
    1SOL     OW 8641   4.248   2.868   3.565  0.5672 -0.2860  0.1521
    1SOL    HW2 8642   4.254   2.890   3.658  1.0996  1.0299 -0.1732
    1SOL    HW3 8643   4.328   2.819   3.546  0.6648 -0.1803  0.2925
    1SOL    MW4 8644   4.259   2.865   3.574  0.6509 -0.0987  0.1276
    1SOL     OW 8645   4.314   3.116   3.443  0.0509 -0.4219 -0.0648
    1SOL    HW2 8646   4.280   3.038   3.488 -0.4439  0.5775  1.3120
    1SOL    HW3 8647   4.319   3.090   3.351 -1.4802 -1.6172  0.1710
    1SOL    MW4 8648   4.310   3.102   3.436 -0.2165 -0.4478  0.1481
    1SOL     OW 8649   4.077   3.246   3.467 -0.2005  0.3913  0.2459
    1SOL    HW2 8650   4.072   3.337   3.436  0.4127  0.4675  0.3566
    1SOL    HW3 8651   4.163   3.216   3.439  0.1372  0.2769  1.3802
    1SOL    MW4 8652   4.088   3.254   3.460 -0.0749  0.3862  0.4098
    1SOL     OW 8653   4.072   3.516   3.394 -0.1739 -0.5274  0.0459
    1SOL    HW2 8654   4.149   3.559   3.433  0.3147 -1.6848  0.3791
    1SOL    HW3 8655   3.998   3.564   3.429  0.4042  0.7358 -0.4312
    1SOL    MW4 8656   4.073   3.528   3.404 -0.0329 -0.5136  0.0269
    1SOL     OW 8657   4.272   3.635   3.530 -0.0810  0.5114  0.2181
    1SOL    HW2 8658   4.254   3.650   3.622  0.1375 -1.9481  0.6830
    1SOL    HW3 8659   4.272   3.723   3.491 -3.1017  1.3692  1.9749
    1SOL    MW4 8660   4.270   3.649   3.537 -0.4511  0.2999  0.5114
    1SOL     OW 8661   4.254   3.889   3.422  0.4126 -0.2698  0.2907
    1SOL    HW2 8662   4.332   3.930   3.459  0.3357 -0.3839  0.5818
    1SOL    HW3 8663   4.258   3.910   3.328  0.6661 -0.0749  0.3437
    1SOL    MW4 8664   4.265   3.897   3.414  0.4358 -0.2592  0.3359
    1SOL     OW 8665   4.037   4.043   3.537 -0.1820 -0.1289  0.4197
    1SOL    HW2 8666   4.107   3.986   3.505  0.0040  0.2126  0.2183
    1SOL    HW3 8667   3.956   4.004   3.503 -0.0865 -0.4656  0.5694
    1SOL    MW4 8668   4.036   4.030   3.528 -0.1445 -0.1283  0.4129
    1SOL     OW 8669   4.013   4.282   3.373  0.4914  0.1111 -0.5729
    1SOL    HW2 8670   4.029   4.208   3.431  1.1357  0.6608 -0.0434
    1SOL    HW3 8671   3.935   4.324   3.411 -0.7890 -1.1465 -1.7402
    1SOL    MW4 8672   4.005   4.278   3.386  0.4072  0.0181 -0.6571
    1SOL     OW 8673   4.217   4.446   3.488 -0.0644 -0.0190  0.0747
    1SOL    HW2 8674   4.225   4.418   3.579 -1.4139  0.3648  0.3257
    1SOL    HW3 8675   4.152   4.388   3.450 -0.0084  0.2603 -0.4547
    1SOL    MW4 8676   4.210   4.435   3.495 -0.2351  0.0691  0.0379
    1SOL     OW 8677   0.243   4.648   3.855  0.4646 -0.2912  0.3826
    1SOL    HW2 8678   0.229   4.643   3.950 -0.6523 -1.7893  0.1670
    1SOL    HW3 8679   0.157   4.671   3.820  0.9101  0.4013 -0.2599
    1SOL    MW4 8680   0.230   4.651   3.863  0.3760 -0.3977  0.2692
    1SOL     OW 8681   4.464   0.080   3.776  0.1067  0.0350 -0.3235
    1SOL    HW2 8682   4.446   0.168   3.810  1.9758 -0.1854  1.3536
    1SOL    HW3 8683   4.486   0.094   3.684  0.7136  1.3589  0.0075
    1SOL    MW4 8684   4.465   0.093   3.769  0.4334  0.1806 -0.0584
    1SOL     OW 8685   4.459   0.344   3.852  0.0843 -0.2274 -0.3562
    1SOL    HW2 8686   4.381   0.395   3.827 -0.4943 -1.2796 -0.7225
    1SOL    HW3 8687   4.533   0.400   3.828 -0.5719  1.0053  0.4759
    1SOL    MW4 8688   4.458   0.358   3.845 -0.0787 -0.2036 -0.2947
    1SOL     OW 8689   0.190   0.498   3.786 -0.2447 -0.3092  0.3917
    1SOL    HW2 8690   0.168   0.585   3.819 -0.4990 -0.0480 -0.4366
    1SOL    HW3 8691   0.205   0.512   3.692 -1.2133 -1.3255  0.0768
    1SOL    MW4 8692   0.189   0.512   3.778 -0.4061 -0.4088  0.2410
    1SOL     OW 8693   0.218   0.770   3.881  0.5607  0.0042 -0.3704
    1SOL    HW2 8694   0.198   0.746   3.972  0.6642 -0.7148 -0.5332
    1SOL    HW3 8695   0.151   0.834   3.859  1.2346  1.0499  0.5859
    1SOL    MW4 8696   0.206   0.775   3.890  0.6633  0.0473 -0.2658
    1SOL     OW 8697   0.025   0.933   3.771  0.3247 -0.2632  0.0583
    1SOL    HW2 8698  -0.056   0.893   3.802 -0.1100 -0.0775 -0.8506
    1SOL    HW3 8699   0.042   1.004   3.834 -2.5216  2.5123 -2.1459
    1SOL    MW4 8700   0.017   0.937   3.784 -0.1087  0.1275 -0.3526
    1SOL     OW 8701   0.008   1.162   3.924 -0.0084  0.1215  0.0257
    1SOL    HW2 8702  -0.062   1.210   3.878  0.7438  0.0555 -1.2069
    1SOL    HW3 8703  -0.005   1.183   4.016 -2.2796 -0.6940 -0.0776
    1SOL    MW4 8704  -0.003   1.171   3.930 -0.2088  0.0052 -0.1504
    1SOL     OW 8705   0.238   1.293   3.816  0.0444  0.1012 -0.5333
    1SOL    HW2 8706   0.234   1.388   3.827  0.6300  0.1712 -0.9198
    1SOL    HW3 8707   0.155   1.261   3.853  0.4937  0.6299  0.9725
    1SOL    MW4 8708   0.226   1.301   3.822  0.1809  0.1804 -0.3858
    1SOL     OW 8709   0.207   1.554   3.883 -0.2635 -0.6907 -0.0993
    1SOL    HW2 8710   0.212   1.566   3.978  0.1138 -0.8884 -0.0945
    1SOL    HW3 8711   0.123   1.593   3.859 -0.8787 -1.6335  0.4739
    1SOL    MW4 8712   0.196   1.560   3.893 -0.2949 -0.8413 -0.0231
    1SOL     OW 8713   4.481   1.707   3.810  0.0442 -1.1232 -0.5790
    1SOL    HW2 8714   4.482   1.800   3.832  1.9792 -1.5262  1.1580
    1SOL    HW3 8715   4.479   1.706   3.714  2.4218  0.7492 -0.6963
    1SOL    MW4 8716   4.481   1.719   3.800  0.6132 -0.9294 -0.3653
    1SOL     OW 8717   0.010   1.975   3.875  0.0388  0.4956  0.3135
    1SOL    HW2 8718   0.009   2.014   3.962 -0.4639  0.0711  0.5033
    1SOL    HW3 8719  -0.076   1.998   3.838 -0.5699 -1.0465  0.7085
    1SOL    MW4 8720  -0.002   1.983   3.882 -0.1082  0.2360  0.3908
    1SOL     OW 8721   0.197   2.124   3.739  0.0961  0.0005  0.1837
    1SOL    HW2 8722   0.212   2.204   3.791  0.9518 -0.2791  0.3859
    1SOL    HW3 8723   0.131   2.076   3.788  0.8957 -0.2567  1.0315
    1SOL    MW4 8724   0.190   2.129   3.753  0.3145 -0.0703  0.3223
    1SOL     OW 8725   0.235   2.324   3.901 -0.0832 -0.0809  0.3223
    1SOL    HW2 8726   0.224   2.336   3.995  0.0885 -1.1789  0.4878
    1SOL    HW3 8727   0.157   2.364   3.862  0.1110  0.8636  0.8898
    1SOL    MW4 8728   0.223   2.331   3.908 -0.0349 -0.1006  0.4189
    1SOL     OW 8729   0.012   2.451   3.799 -0.3365  0.1550 -0.5362
    1SOL    HW2 8730  -0.069   2.411   3.831 -1.2984  1.7456 -0.9139
    1SOL    HW3 8731   0.009   2.540   3.834  2.8259 -0.6852  2.1550
    1SOL    MW4 8732   0.001   2.457   3.808 -0.0467  0.2539 -0.2308
    1SOL     OW 8733   4.442   2.716   3.912  0.0566 -0.2615 -0.3015
    1SOL    HW2 8734   4.452   2.729   4.007 -1.2572  0.7909 -0.2917
    1SOL    HW3 8735   4.518   2.761   3.874 -0.7453  1.5224  0.1297
    1SOL    MW4 8736   4.454   2.724   3.920 -0.2227  0.1128 -0.2434
    1SOL     OW 8737   0.201   2.802   3.791 -0.0797 -0.2025 -0.0959
    1SOL    HW2 8738   0.286   2.768   3.821  1.2133  1.8556 -1.3430
    1SOL    HW3 8739   0.208   2.801   3.695 -1.4288  0.0735 -0.2006
    1SOL    MW4 8740   0.213   2.797   3.782 -0.0871  0.1051 -0.2742
    1SOL     OW 8741   0.238   3.065   3.879 -0.5802  0.2304 -0.2962
    1SOL    HW2 8742   0.248   3.054   3.974  0.9436  0.0512 -0.4647
    1SOL    HW3 8743   0.235   2.975   3.846 -1.9515  0.2882 -0.3441
    1SOL    MW4 8744   0.239   3.051   3.887 -0.5601  0.2146 -0.3247
    1SOL     OW 8745   0.033   3.270   3.800  0.0854  0.3974 -0.0186
    1SOL    HW2 8746   0.097   3.208   3.834 -0.9257 -1.3133 -1.1896
    1SOL    HW3 8747   0.051   3.275   3.706 -1.3548  0.0280 -0.3332
    1SOL    MW4 8748   0.044   3.263   3.792 -0.2380  0.1228 -0.2146
    1SOL     OW 8749   4.456   3.535   3.894 -0.2859 -0.0123 -0.2761
    1SOL    HW2 8750   4.540   3.570   3.864 -0.0341  0.0892  0.5160
    1SOL    HW3 8751   4.457   3.443   3.869 -1.2054  0.6668 -2.9155
    1SOL    MW4 8752   4.467   3.528   3.887 -0.3743  0.0908 -0.5198
    1SOL     OW 8753   0.206   3.627   3.773  0.1173  0.2897 -0.0124
    1SOL    HW2 8754   0.289   3.588   3.798  1.0726  1.9205 -0.5429
    1SOL    HW3 8755   0.210   3.717   3.807 -0.6166  0.9781 -1.6805
    1SOL    MW4 8756   0.217   3.634   3.781  0.1465  0.5958 -0.3023
    1SOL     OW 8757   0.194   3.894   3.861  0.1016  0.2410  0.1036
    1SOL    HW2 8758   0.278   3.928   3.828  0.0680  0.8180  0.6126
    1SOL    HW3 8759   0.198   3.909   3.956 -0.6426  0.4141  0.1079
    1SOL    MW4 8760   0.206   3.901   3.869 -0.0010  0.3402  0.1712
    1SOL     OW 8761   4.450   4.019   3.802  0.1066 -0.0123  0.0791
    1SOL    HW2 8762   4.391   3.977   3.865 -0.3923  0.7181  0.1056
    1SOL    HW3 8763   4.537   3.986   3.824  0.1496  1.4044  2.1419
    1SOL    MW4 8764   4.454   4.009   3.813  0.0463  0.2708  0.3545
    1SOL     OW 8765   4.456   4.289   3.889 -0.2269  0.2856 -0.3208
    1SOL    HW2 8766   4.535   4.332   3.858 -0.2892  0.5031 -0.1790
    1SOL    HW3 8767   4.464   4.199   3.857 -0.6643  0.7057 -1.6085
    1SOL    MW4 8768   4.468   4.283   3.881 -0.2928  0.3700 -0.4723
    1SOL     OW 8769   0.197   4.376   3.799 -0.1719 -0.1574  0.1379
    1SOL    HW2 8770   0.269   4.318   3.825 -0.3635 -0.5810 -0.2562
    1SOL    HW3 8771   0.231   4.464   3.814  0.3297 -0.3590  0.2214
    1SOL    MW4 8772   0.211   4.380   3.804 -0.1310 -0.2398  0.0968
    1SOL     OW 8773   0.640   4.626   3.939 -0.5601  0.3713  0.1292
    1SOL    HW2 8774   0.638   4.538   3.902 -0.2691  0.6632 -0.6064
    1SOL    HW3 8775   0.585   4.677   3.880 -0.4867  0.7436  0.3822
    1SOL    MW4 8776   0.632   4.621   3.926 -0.5120  0.4592  0.0656
    1SOL     OW 8777   0.470   0.117   3.768 -0.4995  0.2410 -0.4251
    1SOL    HW2 8778   0.458   0.204   3.805 -1.0719  0.2814 -0.7078
    1SOL    HW3 8779   0.391   0.069   3.794  0.3516 -0.5598  0.7631
    1SOL    MW4 8780   0.458   0.122   3.777 -0.4627  0.1407 -0.3057
    1SOL     OW 8781   0.413   0.378   3.896  0.0276  0.1735 -0.0003
    1SOL    HW2 8782   0.492   0.414   3.856 -0.9920  0.0237 -2.2389
    1SOL    HW3 8783   0.341   0.427   3.856 -1.1086 -0.8380  0.7484
    1SOL    MW4 8784   0.414   0.389   3.886 -0.2569  0.0203 -0.1967
    1SOL     OW 8785   0.658   0.483   3.787 -0.1697  0.1985  0.2313
    1SOL    HW2 8786   0.744   0.451   3.815 -1.6610 -1.4243  3.1167
    1SOL    HW3 8787   0.654   0.572   3.822  0.2463  0.2090  0.2585
    1SOL    MW4 8788   0.669   0.491   3.795 -0.3116 -0.0142  0.6154
    1SOL     OW 8789   0.673   0.739   3.900 -0.4975 -0.0846  0.1863
    1SOL    HW2 8790   0.753   0.777   3.863  0.4912 -1.4855  0.8408
    1SOL    HW3 8791   0.602   0.782   3.853  0.6373  1.2285 -0.3627
    1SOL    MW4 8792   0.674   0.750   3.889 -0.2173 -0.0962  0.2000
    1SOL     OW 8793   0.454   0.872   3.789  0.1157 -0.1350 -0.5065
    1SOL    HW2 8794   0.436   0.958   3.825 -0.8935 -0.2470 -0.7278
    1SOL    HW3 8795   0.376   0.820   3.810 -0.1773 -0.4117 -2.1714
    1SOL    MW4 8796   0.441   0.876   3.796 -0.0561 -0.1863 -0.7553
    1SOL     OW 8797   0.442   1.120   3.893 -0.4860 -0.6029  0.0280
    1SOL    HW2 8798   0.523   1.139   3.846  0.1896  0.1512  1.4898
    1SOL    HW3 8799   0.382   1.189   3.864 -0.0594 -0.1170  0.2904
    1SOL    MW4 8800   0.444   1.132   3.883 -0.3406 -0.4390  0.2553
    1SOL     OW 8801   0.671   1.241   3.801  0.0948 -0.0069  0.2185
    1SOL    HW2 8802   0.751   1.197   3.829  0.4899  0.0809 -0.7656
    1SOL    HW3 8803   0.682   1.255   3.707 -1.6297 -1.1929 -0.1933
    1SOL    MW4 8804   0.683   1.237   3.792 -0.0806 -0.1519  0.0346
    1SOL     OW 8805   0.609   1.515   3.862 -0.1626  0.0654 -0.2517
    1SOL    HW2 8806   0.689   1.561   3.834  0.2304 -0.4689 -0.0218
    1SOL    HW3 8807   0.630   1.422   3.849 -1.7738  0.0110 -2.9820
    1SOL    MW4 8808   0.622   1.508   3.856 -0.3234 -0.0124 -0.5815
    1SOL     OW 8809   0.416   1.692   3.766 -0.0184 -0.4824  0.0930
    1SOL    HW2 8810   0.493   1.642   3.793  0.2492  0.0804  0.3976
    1SOL    HW3 8811   0.342   1.641   3.798  0.1780 -1.5798 -1.1433
    1SOL    MW4 8812   0.417   1.679   3.774  0.0429 -0.5528 -0.0300
    1SOL     OW 8813   0.409   1.962   3.842 -0.2071 -0.1541 -0.7072
    1SOL    HW2 8814   0.402   1.869   3.822 -1.9898  0.1171 -1.4688
    1SOL    HW3 8815   0.326   1.999   3.811  0.6040  1.7291 -0.6918
    1SOL    MW4 8816   0.397   1.955   3.835 -0.3352  0.1301 -0.8056
    1SOL     OW 8817   0.669   2.068   3.768 -0.2812 -0.0908  0.1476
    1SOL    HW2 8818   0.681   2.143   3.826 -0.6321  0.6311 -0.7174
    1SOL    HW3 8819   0.578   2.041   3.781  0.2680 -1.3320  1.6000
    1SOL    MW4 8820   0.659   2.074   3.777 -0.2550 -0.1593  0.2248
    1SOL     OW 8821   0.677   2.306   3.926  0.0910 -0.4231  0.1945
    1SOL    HW2 8822   0.744   2.345   3.869  0.5422 -1.0897  0.2616
    1SOL    HW3 8823   0.597   2.354   3.905  0.5095  0.1376 -0.1511
    1SOL    MW4 8824   0.675   2.317   3.916  0.2057 -0.4370  0.1578
    1SOL     OW 8825   0.464   2.452   3.828  0.1484  0.0115  0.3628
    1SOL    HW2 8826   0.390   2.399   3.857 -1.1575  1.6899  0.1889
    1SOL    HW3 8827   0.455   2.454   3.732  0.1308  0.6038  0.3740
    1SOL    MW4 8828   0.453   2.446   3.819 -0.0262  0.3107  0.3414
    1SOL     OW 8829   0.444   2.718   3.889  0.3440  0.4585  0.1838
    1SOL    HW2 8830   0.522   2.763   3.856  0.6659  0.6472  1.1917
    1SOL    HW3 8831   0.460   2.626   3.869  0.7810  0.5075  0.2888
    1SOL    MW4 8832   0.457   2.712   3.882  0.4441  0.4900  0.3307
    1SOL     OW 8833   0.667   2.860   3.769 -0.2622  0.1551  0.0179
    1SOL    HW2 8834   0.741   2.801   3.786 -0.5997 -0.0953  0.6547
    1SOL    HW3 8835   0.647   2.848   3.677  0.8956  0.6883 -0.3158
    1SOL    MW4 8836   0.674   2.851   3.759 -0.1540  0.1924  0.0577
    1SOL     OW 8837   0.645   3.128   3.823  0.0418 -0.0551 -0.3652
    1SOL    HW2 8838   0.632   3.135   3.917 -2.6548  0.9631 -0.7636
    1SOL    HW3 8839   0.674   3.038   3.810 -0.1372 -0.3821  1.3729
    1SOL    MW4 8840   0.647   3.117   3.833 -0.3377  0.0362 -0.1888
    1SOL     OW 8841   0.415   3.266   3.756 -0.0531 -0.1012 -0.0554
    1SOL    HW2 8842   0.495   3.220   3.779 -0.3802 -0.7245 -0.1527
    1SOL    HW3 8843   0.345   3.212   3.793 -0.4040  0.7517  0.5663
    1SOL    MW4 8844   0.416   3.253   3.764 -0.1426 -0.0708  0.0138
    1SOL     OW 8845   0.439   3.518   3.869 -0.0343 -0.3785 -0.2485
    1SOL    HW2 8846   0.518   3.550   3.825 -0.1152 -0.8890 -0.7707
    1SOL    HW3 8847   0.433   3.426   3.843 -0.5740 -0.4491  0.1217
    1SOL    MW4 8848   0.449   3.510   3.860 -0.1162 -0.4551 -0.2685
    1SOL     OW 8849   0.690   3.603   3.768  0.0371  0.4215  0.2284
    1SOL    HW2 8850   0.682   3.695   3.794  1.0864  0.7505 -0.6134
    1SOL    HW3 8851   0.710   3.606   3.675  1.2233 -0.6142  0.4365
    1SOL    MW4 8852   0.692   3.616   3.759  0.3321  0.3283  0.1450
    1SOL     OW 8853   0.653   3.844   3.872  0.2587  0.3571  0.2834
    1SOL    HW2 8854   0.666   3.833   3.966  0.2844 -1.0910  0.1179
    1SOL    HW3 8855   0.737   3.873   3.839  0.4889  0.0284  0.5792
    1SOL    MW4 8856   0.666   3.847   3.880  0.2924  0.1225  0.3006
    1SOL     OW 8857   0.431   3.992   3.757 -0.3392 -0.1468  0.1427
    1SOL    HW2 8858   0.512   3.947   3.783 -1.3692 -2.5298 -0.6159
    1SOL    HW3 8859   0.435   3.993   3.661 -0.1868  1.6899  0.1601
    1SOL    MW4 8860   0.442   3.986   3.748 -0.4550 -0.2191  0.0451
    1SOL     OW 8861   0.426   4.239   3.861  0.1538  0.3282  0.0014
    1SOL    HW2 8862   0.503   4.287   3.831  0.8766 -0.2530  0.8913
    1SOL    HW3 8863   0.427   4.158   3.811 -0.6533  0.9071 -0.9685
    1SOL    MW4 8864   0.437   4.235   3.850  0.1426  0.3281 -0.0091
    1SOL     OW 8865   0.636   4.389   3.755  0.0837  0.2784  0.2056
    1SOL    HW2 8866   0.717   4.342   3.775  0.4543  1.0489  0.5460
    1SOL    HW3 8867   0.636   4.399   3.660  0.1778 -0.0964  0.1658
    1SOL    MW4 8868   0.646   4.384   3.745  0.1451  0.3309  0.2449
    1SOL     OW 8869   1.078   4.616   3.892  0.3877 -0.1276 -0.0723
    1SOL    HW2 8870   1.144   4.677   3.858 -2.1286  1.7308 -1.7764
    1SOL    HW3 8871   1.103   4.531   3.854  2.0747  0.4333 -0.2729
    1SOL    MW4 8872   1.090   4.612   3.882  0.2782  0.1917 -0.3238
    1SOL     OW 8873   0.853   0.087   3.787  0.0771  0.1654  0.5328
    1SOL    HW2 8874   0.925   0.036   3.824  0.2819  0.3122  0.3298
    1SOL    HW3 8875   0.775   0.051   3.830  0.1192 -1.0007 -0.3343
    1SOL    MW4 8876   0.852   0.075   3.797  0.1097  0.0309  0.3915
    1SOL     OW 8877   0.880   0.347   3.861 -0.2343  0.6152 -0.0986
    1SOL    HW2 8878   0.876   0.350   3.956 -1.1152  0.7364 -0.1295
    1SOL    HW3 8879   0.863   0.255   3.839 -0.7801  0.7251 -0.1579
    1SOL    MW4 8880   0.877   0.335   3.871 -0.4225  0.6457 -0.1106
    1SOL     OW 8881   1.126   0.470   3.784  0.0001  0.2667  0.2257
    1SOL    HW2 8882   1.196   0.435   3.839  0.3612 -0.9454 -0.9665
    1SOL    HW3 8883   1.054   0.407   3.792 -0.8122  1.2868  1.1153
    1SOL    MW4 8884   1.126   0.457   3.792 -0.0595  0.2414  0.1857
    1SOL     OW 8885   1.129   0.739   3.886  0.3560  0.1284  0.1246
    1SOL    HW2 8886   1.113   0.739   3.980  0.0839 -0.4026  0.0804
    1SOL    HW3 8887   1.136   0.646   3.863  0.1749  0.2456 -0.4172
    1SOL    MW4 8888   1.128   0.726   3.895  0.2964  0.0738  0.0472
    1SOL     OW 8889   0.889   0.867   3.786 -0.2453 -0.3929 -0.2146
    1SOL    HW2 8890   0.967   0.813   3.802 -0.0070  0.1283  0.4284
    1SOL    HW3 8891   0.894   0.889   3.693 -0.1144 -1.1181 -0.3826
    1SOL    MW4 8892   0.900   0.863   3.776 -0.1966 -0.4198 -0.1519
    1SOL     OW 8893   0.926   1.140   3.867 -0.7943  0.2778 -0.2329
    1SOL    HW2 8894   0.931   1.153   3.961 -2.0477  1.8457 -0.3533
    1SOL    HW3 8895   0.916   1.046   3.856  1.6258 -0.1548  1.0717
    1SOL    MW4 8896   0.925   1.130   3.878 -0.6405  0.4277 -0.0765
    1SOL     OW 8897   1.152   1.289   3.780  0.2479  0.0802  0.8106
    1SOL    HW2 8898   1.122   1.380   3.790 -0.6066  0.0472 -1.3405
    1SOL    HW3 8899   1.077   1.236   3.804  0.3732 -0.0425  0.9274
    1SOL    MW4 8900   1.138   1.294   3.785  0.1518  0.0596  0.5424
    1SOL     OW 8901   1.067   1.542   3.837 -0.4134 -0.3643  0.0151
    1SOL    HW2 8902   1.070   1.530   3.931  0.0788 -0.0729  0.0410
    1SOL    HW3 8903   1.148   1.589   3.816 -1.8447  2.0849 -0.1928
    1SOL    MW4 8904   1.078   1.546   3.846 -0.5373 -0.0026 -0.0088
    1SOL     OW 8905   0.826   1.634   3.735  0.2910 -0.0249  0.3714
    1SOL    HW2 8906   0.910   1.596   3.759 -0.6690 -2.5687 -0.0707
    1SOL    HW3 8907   0.829   1.640   3.639  0.8075  1.9645  0.5036
    1SOL    MW4 8908   0.837   1.630   3.725  0.2324 -0.0981  0.3307
    1SOL     OW 8909   0.862   1.893   3.853  0.0257 -0.2738  0.2800
    1SOL    HW2 8910   0.851   1.814   3.800  0.8977 -0.4640  0.3731
    1SOL    HW3 8911   0.803   1.957   3.813  1.0203 -0.2567 -1.2537
    1SOL    MW4 8912   0.853   1.891   3.840  0.2719 -0.2966  0.0899
    1SOL     OW 8913   1.105   2.030   3.788 -0.4375 -0.4176  0.2929
    1SOL    HW2 8914   1.037   1.970   3.819  0.1570 -1.8715 -1.1609
    1SOL    HW3 8915   1.099   2.027   3.693 -0.2673  1.7070  0.1889
    1SOL    MW4 8916   1.096   2.022   3.780 -0.3366 -0.3290  0.0870
    1SOL     OW 8917   1.107   2.307   3.902 -0.0298  0.1470  0.3449
    1SOL    HW2 8918   1.089   2.292   3.996  1.2850  1.8325  0.8806
    1SOL    HW3 8919   1.096   2.221   3.862 -0.9010 -0.5461  2.0067
    1SOL    MW4 8920   1.103   2.294   3.909  0.0287  0.2775  0.6347
    1SOL     OW 8921   0.894   2.429   3.781 -0.2813 -0.2912  0.3920
    1SOL    HW2 8922   0.893   2.520   3.810  0.8943  0.5105 -2.0080
    1SOL    HW3 8923   0.973   2.392   3.821 -0.7658 -0.2899  1.3779
    1SOL    MW4 8924   0.904   2.436   3.790 -0.1901 -0.1853  0.2055
    1SOL     OW 8925   0.885   2.704   3.834  0.2232  0.2591  0.2281
    1SOL    HW2 8926   0.878   2.690   3.928 -0.1048 -2.6289 -0.1792
    1SOL    HW3 8927   0.965   2.757   3.824 -0.1937  1.2922  2.1608
    1SOL    MW4 8928   0.895   2.709   3.845  0.1249  0.0143  0.4294
    1SOL     OW 8929   1.140   2.829   3.786  0.1495 -0.2467 -0.5900
    1SOL    HW2 8930   1.214   2.778   3.819 -0.8338 -1.0113  0.4539
    1SOL    HW3 8931   1.150   2.915   3.826  1.1991  0.0637 -1.4935
    1SOL    MW4 8932   1.151   2.834   3.795  0.1583 -0.3066 -0.5715
    1SOL     OW 8933   1.126   3.071   3.917  0.2111  0.5363  0.0977
    1SOL    HW2 8934   1.199   3.117   3.876  0.6003  0.1260  0.3253
    1SOL    HW3 8935   1.048   3.122   3.893  0.4606  0.4162 -0.9458
    1SOL    MW4 8936   1.125   3.084   3.909  0.2955  0.4666 -0.0100
    1SOL     OW 8937   0.913   3.187   3.786  0.0522  0.1498  0.2563
    1SOL    HW2 8938   0.825   3.151   3.802 -0.5137  1.0730 -0.6962
    1SOL    HW3 8939   0.924   3.182   3.691 -0.2279  2.8716  0.0443
    1SOL    MW4 8940   0.903   3.181   3.776 -0.0594  0.6306  0.1028
    1SOL     OW 8941   0.893   3.434   3.905 -0.4344  0.1636  0.0400
    1SOL    HW2 8942   0.899   3.349   3.862 -2.6431 -0.2229  0.4737
    1SOL    HW3 8943   0.825   3.481   3.857 -0.4803  1.0341  0.9323
    1SOL    MW4 8944   0.885   3.429   3.893 -0.7319  0.2277  0.2151
    1SOL     OW 8945   1.109   3.555   3.776  0.2598  0.9314  0.5456
    1SOL    HW2 8946   1.109   3.648   3.797 -3.3548  1.0283  0.4720
    1SOL    HW3 8947   1.037   3.519   3.827 -0.4492 -1.2156 -1.8405
    1SOL    MW4 8948   1.099   3.563   3.785 -0.3107  0.6609  0.2210
    1SOL     OW 8949   1.107   3.816   3.869 -0.0624  0.3359 -0.3234
    1SOL    HW2 8950   1.115   3.828   3.963 -1.8466  0.9441 -0.2260
    1SOL    HW3 8951   1.191   3.844   3.833  0.3638  0.7773  1.0269
    1SOL    MW4 8952   1.119   3.821   3.876 -0.2415  0.4747 -0.1323
    1SOL     OW 8953   0.884   3.982   3.786  0.4597  0.3413 -0.4055
    1SOL    HW2 8954   0.962   3.944   3.826 -0.2763  0.9509  1.6396
    1SOL    HW3 8955   0.906   3.990   3.693  2.2866 -0.8363 -0.0897
    1SOL    MW4 8956   0.897   3.978   3.779  0.6036  0.2663 -0.0939
    1SOL     OW 8957   0.862   4.251   3.852  0.0320 -0.4015  0.1316
    1SOL    HW2 8958   0.882   4.249   3.945  1.2382  0.3841 -0.0974
    1SOL    HW3 8959   0.865   4.159   3.824  0.8202 -0.5293  0.6332
    1SOL    MW4 8960   0.865   4.239   3.860  0.2952 -0.3147  0.1678
    1SOL     OW 8961   1.123   4.358   3.795  0.0884 -0.1322 -0.7195
    1SOL    HW2 8962   1.036   4.323   3.817  0.8126 -1.6610 -0.2585
    1SOL    HW3 8963   1.119   4.371   3.700 -1.1572  1.2686 -0.4987
    1SOL    MW4 8964   1.111   4.355   3.785  0.0196 -0.1493 -0.6297
    1SOL     OW 8965   1.533   4.611   3.868 -0.0358  0.0668  0.6338
    1SOL    HW2 8966   1.546   4.599   3.962  0.6239 -2.1392  0.2807
    1SOL    HW3 8967   1.534   4.522   3.832 -2.1224  0.7551 -1.2267
    1SOL    MW4 8968   1.535   4.598   3.876 -0.2240 -0.1340  0.3421
    1SOL     OW 8969   1.296   0.105   3.783 -0.1787 -0.3519 -0.6642
    1SOL    HW2 8970   1.317   0.193   3.814 -0.1852  0.1593 -2.0775
    1SOL    HW3 8971   1.372   0.052   3.809 -0.4016 -0.0482  0.6415
    1SOL    MW4 8972   1.309   0.109   3.791 -0.2090 -0.2444 -0.6783
    1SOL     OW 8973   1.344   0.347   3.926 -0.4421  0.0858  0.2563
    1SOL    HW2 8974   1.369   0.320   4.015 -1.2914  1.3159  0.8748
    1SOL    HW3 8975   1.420   0.395   3.894  0.5894 -1.8829 -0.3899
    1SOL    MW4 8976   1.357   0.350   3.934 -0.4181 -0.0117  0.2527
    1SOL     OW 8977   1.542   0.488   3.800  0.6942 -0.3474 -0.0914
    1SOL    HW2 8978   1.630   0.450   3.808  0.1744 -1.1099  2.2500
    1SOL    HW3 8979   1.556   0.582   3.813  1.1598 -0.4666  0.2848
    1SOL    MW4 8980   1.556   0.495   3.803  0.6871 -0.4637  0.2668
    1SOL     OW 8981   1.565   0.760   3.868 -0.2638  0.2208  0.1686
    1SOL    HW2 8982   1.637   0.822   3.858  0.0388  0.1495  1.7223
    1SOL    HW3 8983   1.487   0.809   3.842  0.2638  0.4706 -0.9862
    1SOL    MW4 8984   1.564   0.774   3.863 -0.1543  0.2443  0.2213
    1SOL     OW 8985   1.346   0.893   3.804 -0.2997  0.3214 -0.2447
    1SOL    HW2 8986   1.351   0.984   3.833  0.7368  0.2315 -0.1263
    1SOL    HW3 8987   1.260   0.863   3.834 -0.1494  0.8869  0.7814
    1SOL    MW4 8988   1.335   0.901   3.811 -0.1432  0.3842 -0.0937
    1SOL     OW 8989   1.371   1.161   3.887  0.6983 -0.3041  0.2876
    1SOL    HW2 8990   1.453   1.195   3.850  0.1768  1.8428  1.0595
    1SOL    HW3 8991   1.305   1.225   3.860 -0.2559 -0.5463  2.0124
    1SOL    MW4 8992   1.373   1.174   3.878  0.5037 -0.0528  0.6173
    1SOL     OW 8993   1.606   1.264   3.764  0.7586  0.6990 -0.1835
    1SOL    HW2 8994   1.695   1.239   3.788  1.5441  1.9197 -1.8116
    1SOL    HW3 8995   1.596   1.353   3.797  0.0020  0.4260  0.3342
    1SOL    MW4 8996   1.616   1.272   3.771  0.7623  0.8240 -0.3300
    1SOL     OW 8997   1.558   1.525   3.830  0.1967  0.1851 -0.3170
    1SOL    HW2 8998   1.564   1.538   3.924  1.0034 -0.7334 -0.2332
    1SOL    HW3 8999   1.637   1.566   3.795  0.4888 -0.5053 -0.4752
    1SOL    MW4 9000   1.569   1.532   3.838  0.3415 -0.0272 -0.3266
    1SOL     OW 9001   1.315   1.665   3.761  0.1338  0.4586  0.0735
    1SOL    HW2 9002   1.334   1.754   3.791 -0.2910  0.2670  0.9354
    1SOL    HW3 9003   1.397   1.617   3.777  0.4029  0.7231 -0.5063
    1SOL    MW4 9004   1.328   1.670   3.767  0.1134  0.4681  0.1109
    1SOL     OW 9005   1.358   1.941   3.863 -0.4921  0.4033 -0.3552
    1SOL    HW2 9006   1.365   1.959   3.957  0.8458 -1.6854 -0.0031
    1SOL    HW3 9007   1.270   1.969   3.840 -2.2344 -2.4684  2.3544
    1SOL    MW4 9008   1.347   1.947   3.873 -0.5455 -0.2511  0.0484
    1SOL     OW 9009   1.569   2.092   3.742  0.1509  0.7112 -0.2464
    1SOL    HW2 9010   1.489   2.051   3.775  0.9274 -0.1607  0.5920
    1SOL    HW3 9011   1.557   2.094   3.647 -0.3682 -0.5022 -0.2266
    1SOL    MW4 9012   1.557   2.087   3.734  0.1848  0.4358 -0.1330
    1SOL     OW 9013   1.583   2.327   3.871  0.0587 -0.2803  0.3055
    1SOL    HW2 9014   1.572   2.299   3.962  0.3971 -2.5115 -0.3235
    1SOL    HW3 9015   1.593   2.246   3.821 -0.8646  0.8738 -1.8402
    1SOL    MW4 9016   1.582   2.313   3.876 -0.0185 -0.4225 -0.0606
    1SOL     OW 9017   1.351   2.435   3.766 -0.4452  0.3953 -0.4179
    1SOL    HW2 9018   1.436   2.425   3.808 -0.5009  0.7366 -0.2193
    1SOL    HW3 9019   1.292   2.379   3.816 -0.3297  0.1314 -0.5770
    1SOL    MW4 9020   1.354   2.427   3.778 -0.4374  0.4055 -0.4127
    1SOL     OW 9021   1.366   2.685   3.878  0.0130  0.1578  0.2022
    1SOL    HW2 9022   1.352   2.673   3.972 -2.1301 -0.6534 -0.2041
    1SOL    HW3 9023   1.351   2.598   3.840  1.5130  0.3213 -0.8428
    1SOL    MW4 9024   1.362   2.672   3.885 -0.0719  0.0720  0.0107
    1SOL     OW 9025   1.586   2.823   3.795 -0.0598  0.3536 -0.2839
    1SOL    HW2 9026   1.514   2.773   3.831 -0.1131  0.0416 -0.8300
    1SOL    HW3 9027   1.581   2.810   3.700  1.5187 -0.7788 -0.2423
    1SOL    MW4 9028   1.576   2.815   3.787  0.1415  0.1631 -0.3502
    1SOL     OW 9029   1.571   3.058   3.929  0.4471 -0.4411  0.0947
    1SOL    HW2 9030   1.580   3.045   4.023 -0.2251 -0.2097  0.1919
    1SOL    HW3 9031   1.572   2.969   3.893  1.0101 -0.5154  0.2902
    1SOL    MW4 9032   1.572   3.045   3.936  0.4327 -0.4206  0.1333
    1SOL     OW 9033   1.331   3.184   3.775 -0.1697  0.3045 -0.4744
    1SOL    HW2 9034   1.327   3.275   3.801 -1.1984 -0.0878  0.7944
    1SOL    HW3 9035   1.402   3.146   3.826  0.0762  0.3272 -0.7957
    1SOL    MW4 9036   1.339   3.191   3.785 -0.2730  0.2558 -0.3493
    1SOL     OW 9037   1.328   3.429   3.886 -0.0384 -0.2822 -0.1014
    1SOL    HW2 9038   1.392   3.471   3.829 -0.3140  0.5859  0.2177
    1SOL    HW3 9039   1.246   3.474   3.867  0.0155  0.5334  1.5059
    1SOL    MW4 9040   1.326   3.440   3.876 -0.0676 -0.0598  0.1528
    1SOL     OW 9041   1.563   3.566   3.752 -0.0158  0.2461 -0.2304
    1SOL    HW2 9042   1.634   3.515   3.791 -0.1193  0.7306  0.5863
    1SOL    HW3 9043   1.578   3.655   3.781 -1.4870  0.2068  0.7203
    1SOL    MW4 9044   1.574   3.571   3.761 -0.2236  0.3047  0.0026
    1SOL     OW 9045   1.573   3.843   3.889  0.2757 -0.0489  0.4008
    1SOL    HW2 9046   1.558   3.840   3.983  0.6382  1.2699  0.5076
    1SOL    HW3 9047   1.505   3.901   3.856  0.9851  0.5678  0.0189
    1SOL    MW4 9048   1.562   3.850   3.897  0.4170  0.2065  0.3648
    1SOL     OW 9049   1.331   3.969   3.790  0.0658  0.2248 -0.2247
    1SOL    HW2 9050   1.329   4.058   3.824  2.4001  0.9016 -1.7295
    1SOL    HW3 9051   1.335   3.980   3.695  0.0057 -1.4795 -0.4423
    1SOL    MW4 9052   1.331   3.982   3.782  0.3657  0.0892 -0.4518
    1SOL     OW 9053   1.354   4.228   3.891  0.2067  0.2362 -0.1044
    1SOL    HW2 9054   1.429   4.268   3.847 -0.3951  0.3474 -1.0503
    1SOL    HW3 9055   1.278   4.272   3.854 -0.3713 -0.5164  0.1746
    1SOL    MW4 9056   1.354   4.239   3.880  0.0511  0.1521 -0.1922
    1SOL     OW 9057   1.566   4.360   3.772  0.1503  0.1335 -0.0978
    1SOL    HW2 9058   1.649   4.323   3.802  0.2996  0.6391  0.1197
    1SOL    HW3 9059   1.582   4.381   3.680  0.0470 -0.3878 -0.2375
    1SOL    MW4 9060   1.579   4.358   3.764  0.1565  0.1316 -0.0875
    1SOL     OW 9061   1.988   4.643   3.814  0.3882 -0.1404 -0.1734
    1SOL    HW2 9062   2.076   4.680   3.807  0.6160 -0.5509  0.4862
    1SOL    HW3 9063   2.000   4.550   3.792  0.2305 -0.3374  0.5793
    1SOL    MW4 9064   2.002   4.636   3.810  0.3972 -0.2203  0.0131
    1SOL     OW 9065   1.734   0.099   3.791  0.2225 -0.5333 -0.2660
    1SOL    HW2 9066   1.805   0.046   3.828  1.1113  0.7042 -0.1508
    1SOL    HW3 9067   1.654   0.055   3.819  0.9408 -1.4958  0.2955
    1SOL    MW4 9068   1.733   0.086   3.800  0.4346 -0.4971 -0.1767
    1SOL     OW 9069   1.786   0.365   3.822  0.2960  0.2640  0.0825
    1SOL    HW2 9070   1.771   0.359   3.916  2.1931  1.7060  0.5124
    1SOL    HW3 9071   1.779   0.275   3.790 -1.6139 -0.0673  1.3889
    1SOL    MW4 9072   1.783   0.353   3.830  0.2943  0.4105  0.3116
    1SOL     OW 9073   2.027   0.497   3.785  0.3778  0.1192 -0.1332
    1SOL    HW2 9074   1.947   0.447   3.800  1.3537 -1.3760  0.1806
    1SOL    HW3 9075   2.034   0.505   3.690 -0.1564  0.2860 -0.1590
    1SOL    MW4 9076   2.018   0.491   3.775  0.4358 -0.0561 -0.0954
    1SOL     OW 9077   2.057   0.765   3.858  0.0623  0.2100  0.3120
    1SOL    HW2 9078   2.061   0.743   3.952  1.2333  0.3673  0.3049
    1SOL    HW3 9079   2.039   0.681   3.815 -1.6032  0.3322  0.7646
    1SOL    MW4 9080   2.055   0.751   3.865 -0.0031  0.2469  0.3710
    1SOL     OW 9081   1.805   0.901   3.801 -0.3172  0.5241 -0.0932
    1SOL    HW2 9082   1.877   0.848   3.836  0.2300  1.9815  1.0433
    1SOL    HW3 9083   1.808   0.885   3.706 -0.6068 -1.9870  0.2734
    1SOL    MW4 9084   1.815   0.892   3.793 -0.2832  0.3851  0.1049
    1SOL     OW 9085   1.849   1.166   3.873  0.3702 -0.2351 -0.1046
    1SOL    HW2 9086   1.841   1.186   3.966  1.1320  1.1927 -0.3309
    1SOL    HW3 9087   1.830   1.073   3.866  0.0520 -0.2878  1.4451
    1SOL    MW4 9088   1.845   1.157   3.884  0.4288 -0.0536  0.0699
    1SOL     OW 9089   2.061   1.291   3.779  0.2203  0.2949  0.0430
    1SOL    HW2 9090   2.133   1.229   3.793  0.7037  0.5887 -1.0568
    1SOL    HW3 9091   1.983   1.243   3.808  0.8198 -0.1392  0.9498
    1SOL    MW4 9092   2.060   1.276   3.784  0.3631  0.2763  0.0174
    1SOL     OW 9093   2.021   1.554   3.869  0.3331  0.4421  0.4781
    1SOL    HW2 9094   1.934   1.586   3.844  0.0241  0.7650  1.9134
    1SOL    HW3 9095   2.028   1.468   3.828 -0.9613  0.0952  0.9555
    1SOL    MW4 9096   2.010   1.547   3.860  0.1216  0.4389  0.7305
    1SOL     OW 9097   1.789   1.666   3.740 -0.1605  0.6227  0.5051
    1SOL    HW2 9098   1.792   1.759   3.763 -0.2240  1.0166 -1.0027
    1SOL    HW3 9099   1.765   1.666   3.647 -0.0128 -0.8974  0.4662
    1SOL    MW4 9100   1.786   1.678   3.731 -0.1493  0.4741  0.3006
    1SOL     OW 9101   1.789   1.925   3.778 -0.1988 -0.0838  0.1795
    1SOL    HW2 9102   1.713   1.982   3.770  0.0640  0.4780  1.4746
    1SOL    HW3 9103   1.864   1.983   3.761 -0.0132 -0.3997 -0.0803
    1SOL    MW4 9104   1.789   1.940   3.775 -0.1396 -0.0511  0.3161
    1SOL     OW 9105   2.042   2.339   3.909 -0.8163  0.3098 -0.2843
    1SOL    HW2 9106   2.113   2.381   3.861 -0.1915 -0.7246 -0.2736
    1SOL    HW3 9107   2.036   2.388   3.991  0.3603 -0.0376  0.0122
    1SOL    MW4 9108   2.050   2.351   3.914 -0.5786  0.1276 -0.2439
    1SOL     OW 9109   2.256   2.431   3.751 -0.0725 -0.1851 -0.1508
    1SOL    HW2 9110   2.249   2.418   3.656  0.8898  0.0764 -0.2628
    1SOL    HW3 9111   2.329   2.377   3.778  1.1096  1.4828  0.0767
    1SOL    MW4 9112   2.265   2.422   3.742  0.2105  0.0694 -0.1357
    1SOL     OW 9113   1.817   2.445   3.790  0.1861  0.0032  0.2860
    1SOL    HW2 9114   1.892   2.404   3.834 -0.2521 -0.6399  0.4233
    1SOL    HW3 9115   1.741   2.399   3.824 -0.4420  1.9642  1.6647
    1SOL    MW4 9116   1.817   2.434   3.801  0.0454  0.1771  0.4861
    1SOL     OW 9117   3.193   2.264   4.546  0.1465  0.1061 -0.0030
    1SOL    HW2 9118   3.100   2.277   4.567  0.0661  0.2062 -0.4174
    1SOL    HW3 9119   3.223   2.349   4.517  0.4447  0.1424  0.4072
    1SOL    MW4 9120   3.185   2.277   4.545  0.1755  0.1242 -0.0038
    1SOL     OW 9121   2.032   3.059   3.892  0.1147 -0.1224  0.3105
    1SOL    HW2 9122   2.103   3.096   3.841 -0.2009 -0.3062 -0.2674
    1SOL    HW3 9123   2.047   3.090   3.981  1.1206 -0.4600  0.2661
    1SOL    MW4 9124   2.043   3.068   3.897  0.2055 -0.1912  0.2286
    1SOL     OW 9125   2.039   2.824   3.771 -0.2175 -0.4662  0.2590
    1SOL    HW2 9126   2.041   2.905   3.822 -0.2932 -0.1962 -0.1611
    1SOL    HW3 9127   1.958   2.780   3.798 -0.3925 -0.1966  0.1805
    1SOL    MW4 9128   2.029   2.829   3.781 -0.2506 -0.3951  0.1934
    1SOL     OW 9129   1.792   3.192   3.833  0.0253 -0.1135  0.4112
    1SOL    HW2 9130   1.860   3.134   3.866  0.2247 -0.1864 -0.1222
    1SOL    HW3 9131   1.710   3.149   3.859  0.1604 -1.0567 -0.6915
    1SOL    MW4 9132   1.790   3.179   3.841  0.0694 -0.2475  0.1953
    1SOL     OW 9133   1.778   3.473   3.887 -0.0222 -0.2898 -0.2133
    1SOL    HW2 9134   1.854   3.511   3.843 -0.5168  0.1910 -0.6515
    1SOL    HW3 9135   1.795   3.379   3.886  0.5364 -0.1913 -0.3653
    1SOL    MW4 9136   1.790   3.466   3.881 -0.0137 -0.2134 -0.2913
    1SOL     OW 9137   2.008   3.575   3.778 -0.4305  0.4851  0.3577
    1SOL    HW2 9138   2.094   3.540   3.803 -0.4151 -0.5452 -1.0857
    1SOL    HW3 9139   2.016   3.591   3.684 -1.9711 -0.0430  0.1271
    1SOL    MW4 9140   2.021   3.573   3.769 -0.6316  0.2797  0.1371
    1SOL     OW 9141   2.024   3.833   3.890 -0.1976 -0.5506 -0.6949
    1SOL    HW2 9142   2.086   3.881   3.836  0.7061 -1.8140 -0.8230
    1SOL    HW3 9143   2.022   3.745   3.851 -0.8284 -0.9798  0.2863
    1SOL    MW4 9144   2.032   3.828   3.878 -0.1614 -0.7739 -0.5827
    1SOL     OW 9145   1.801   3.965   3.790 -0.0977 -0.1732 -0.6330
    1SOL    HW2 9146   1.874   3.915   3.826 -0.2455  0.2634  0.2786
    1SOL    HW3 9147   1.723   3.919   3.820 -0.2182  0.1459 -0.4553
    1SOL    MW4 9148   1.800   3.953   3.799 -0.1330 -0.0737 -0.4895
    1SOL     OW 9149   1.786   4.235   3.874 -0.3959  0.3337  0.0675
    1SOL    HW2 9150   1.869   4.276   3.852 -0.3484 -0.6580 -1.6410
    1SOL    HW3 9151   1.802   4.141   3.861 -1.3864  0.0251  1.0282
    1SOL    MW4 9152   1.799   4.228   3.870 -0.5203  0.1626 -0.0310
    1SOL     OW 9153   2.006   4.366   3.750  0.1457  0.0428 -0.4096
    1SOL    HW2 9154   2.085   4.316   3.771  0.3671  0.3321 -0.5675
    1SOL    HW3 9155   2.004   4.370   3.655  1.5296  2.5805 -0.3791
    1SOL    MW4 9156   2.016   4.360   3.740  0.3576  0.4158 -0.4263
    1SOL     OW 9157   2.480   4.630   3.833 -0.0807 -0.2334  0.0012
    1SOL    HW2 9158   2.475   4.628   3.929  1.6179 -0.5232  0.0921
    1SOL    HW3 9159   2.482   4.538   3.808 -0.1308 -0.1541 -0.2929
    1SOL    MW4 9160   2.479   4.618   3.842  0.1366 -0.2613 -0.0255
    1SOL     OW 9161   2.239   0.095   3.791  0.2196 -0.1615  0.6389
    1SOL    HW2 9162   2.312   0.033   3.799  0.7416  0.1354 -1.6299
    1SOL    HW3 9163   2.229   0.109   3.697 -2.7977 -0.1922  0.9100
    1SOL    MW4 9164   2.248   0.088   3.780 -0.1094 -0.1264  0.3753
    1SOL     OW 9165   2.241   0.337   3.887 -0.1232 -0.2357  0.3964
    1SOL    HW2 9166   2.254   0.247   3.856 -1.4585 -0.3155  0.0332
    1SOL    HW3 9167   2.157   0.363   3.850  0.7227  1.5257 -0.3201
    1SOL    MW4 9168   2.232   0.329   3.878 -0.1879 -0.0138  0.2539
    1SOL     OW 9169   2.476   0.457   3.772 -0.6920  0.1623  0.0956
    1SOL    HW2 9170   2.404   0.418   3.821 -1.5338  1.9350  0.2886
    1SOL    HW3 9171   2.446   0.458   3.681 -1.2578  1.6541  0.2911
    1SOL    MW4 9172   2.463   0.452   3.767 -0.8779  0.5930  0.1471
    1SOL     OW 9173   2.493   0.747   3.842 -0.5842  0.0419 -0.0502
    1SOL    HW2 9174   2.410   0.785   3.813 -1.1773 -0.8794  0.4262
    1SOL    HW3 9175   2.481   0.653   3.831  0.4788 -0.0874 -0.1724
    1SOL    MW4 9176   2.480   0.740   3.836 -0.5221 -0.0968 -0.0036
    1SOL     OW 9177   2.274   0.870   3.751  0.6183  0.1155 -0.2684
    1SOL    HW2 9178   2.192   0.841   3.791 -0.7378  1.9353 -1.6370
    1SOL    HW3 9179   2.261   0.857   3.657  0.7007  3.2308 -0.7617
    1SOL    MW4 9180   2.262   0.865   3.744  0.4504  0.7666 -0.5143
    1SOL     OW 9181   2.258   1.126   3.858  0.0309 -0.1904 -0.2192
    1SOL    HW2 9182   2.260   1.121   3.953  0.9436 -1.4003 -0.2907
    1SOL    HW3 9183   2.250   1.035   3.829 -1.4914  0.2524 -1.2782
    1SOL    MW4 9184   2.257   1.114   3.867 -0.0496 -0.2916 -0.3684
    1SOL     OW 9185   2.509   1.254   3.759  0.4085  0.7870 -0.2097
    1SOL    HW2 9186   2.505   1.344   3.792 -1.4096  1.4841 -2.1755
    1SOL    HW3 9187   2.431   1.212   3.795  0.3700  0.4995 -0.6232
    1SOL    MW4 9188   2.498   1.261   3.768  0.1638  0.8411 -0.5236
    1SOL     OW 9189   2.488   1.535   3.879  0.5788 -0.0350 -0.0721
    1SOL    HW2 9190   2.567   1.554   3.828  0.6400  2.0812  0.7814
    1SOL    HW3 9191   2.418   1.581   3.833  0.4364  0.9532  1.1170
    1SOL    MW4 9192   2.489   1.543   3.866  0.5682  0.3747  0.1976
    1SOL     OW 9193   2.263   1.665   3.782 -0.3060 -0.3032 -0.2428
    1SOL    HW2 9194   2.261   1.750   3.826  1.2579 -0.1278 -0.4977
    1SOL    HW3 9195   2.180   1.624   3.807 -0.8001  1.0303  0.3906
    1SOL    MW4 9196   2.251   1.671   3.791 -0.1647 -0.1041 -0.1931
    1SOL     OW 9197   2.234   1.927   3.897  0.1195  0.2924  0.2995
    1SOL    HW2 9198   2.148   1.960   3.872 -0.2610 -0.4481  0.6231
    1SOL    HW3 9199   2.293   1.959   3.828 -0.7108 -0.6800 -0.8913
    1SOL    MW4 9200   2.231   1.935   3.885 -0.0401  0.0663  0.1850
    1SOL     OW 9201   2.475   2.016   3.770 -0.3064 -0.3547  0.1601
    1SOL    HW2 9202   2.457   2.003   3.677  0.3522 -0.1985  0.0084
    1SOL    HW3 9203   2.559   1.973   3.784  0.2723  0.8376  0.3872
    1SOL    MW4 9204   2.484   2.008   3.759 -0.1433 -0.1769  0.1698
    1SOL     OW 9205   2.235   2.686   3.882  0.3447  0.5105 -0.1173
    1SOL    HW2 9206   2.158   2.723   3.837 -1.3826 -1.4941  1.1087
    1SOL    HW3 9207   2.264   2.615   3.824  1.1946  1.1610 -0.4979
    1SOL    MW4 9208   2.228   2.682   3.868  0.2289  0.3316 -0.0055
    1SOL     OW 9209   0.654   1.943   4.530  0.7062  0.3993 -0.0624
    1SOL    HW2 9210   0.738   1.898   4.542  0.4822 -0.1973 -0.7137
    1SOL    HW3 9211   0.646   1.954   4.436  0.4332  1.2099  0.0456
    1SOL    MW4 9212   0.664   1.939   4.520  0.6407  0.4276 -0.1340
    1SOL     OW 9213   2.018   2.087   3.763 -0.2670  0.5626  0.0058
    1SOL    HW2 9214   2.016   2.164   3.820 -3.2965  0.4604  0.1034
    1SOL    HW3 9215   1.996   2.121   3.676 -1.6786 -0.1748  0.0624
    1SOL    MW4 9216   2.015   2.102   3.759 -0.8533  0.4518  0.0262
    1SOL     OW 9217   2.457   2.827   3.773  0.1851 -0.4242 -0.0308
    1SOL    HW2 9218   2.385   2.777   3.810 -1.8330  2.2218 -0.2361
    1SOL    HW3 9219   2.446   2.818   3.678 -0.0632  0.1761 -0.0661
    1SOL    MW4 9220   2.446   2.819   3.765 -0.1140  0.0041 -0.0625
    1SOL     OW 9221   2.463   3.099   3.839 -0.4865 -0.0603 -0.1412
    1SOL    HW2 9222   2.466   3.088   3.934 -0.5964 -1.7099 -0.3204
    1SOL    HW3 9223   2.489   3.014   3.804  0.9314  0.9355 -1.5938
    1SOL    MW4 9224   2.467   3.087   3.847 -0.3140 -0.1464 -0.3564
    1SOL     OW 9225   2.223   3.197   3.753  0.1691  0.2320 -0.6164
    1SOL    HW2 9226   2.218   3.278   3.805 -1.4942 -1.4150  1.9030
    1SOL    HW3 9227   2.308   3.160   3.777  0.9475  1.2268 -1.7954
    1SOL    MW4 9228   2.233   3.203   3.763  0.0525  0.1457 -0.4396
    1SOL     OW 9229   2.235   3.454   3.869  0.6587 -0.1619 -0.1645
    1SOL    HW2 9230   2.238   3.468   3.964  1.3167  1.6377 -0.4163
    1SOL    HW3 9231   2.325   3.468   3.839  0.7939 -2.3799 -0.8627
    1SOL    MW4 9232   2.247   3.458   3.877  0.7634 -0.2170 -0.2897
    1SOL     OW 9233   2.482   3.573   3.764 -0.0328 -0.0699  0.3701
    1SOL    HW2 9234   2.565   3.527   3.781 -0.7387 -1.3396  0.4606
    1SOL    HW3 9235   2.469   3.564   3.669  0.0352  0.2971  0.3272
    1SOL    MW4 9236   2.491   3.566   3.753 -0.1171 -0.1891  0.3767
    1SOL     OW 9237   2.471   3.834   3.836  0.2153  0.1961 -0.0039
    1SOL    HW2 9238   2.534   3.881   3.781  0.1405  1.1158  0.6908
    1SOL    HW3 9239   2.470   3.745   3.801  0.4506  0.6790 -1.2536
    1SOL    MW4 9240   2.479   3.828   3.824  0.2365  0.3810 -0.0772
    1SOL     OW 9241   2.237   3.946   3.747  0.3032  0.1660  0.0369
    1SOL    HW2 9242   2.318   3.906   3.778  0.3048 -0.3956 -0.6600
    1SOL    HW3 9243   2.251   3.958   3.653 -1.0496 -1.5006 -0.4043
    1SOL    MW4 9244   2.250   3.942   3.738  0.1247 -0.1280 -0.1132
    1SOL     OW 9245   2.265   4.252   3.808  0.2887 -0.1232 -0.5387
    1SOL    HW2 9246   2.266   4.248   3.903 -0.8555  0.0247 -0.5133
    1SOL    HW3 9247   2.273   4.161   3.780  2.6212  0.0012 -0.3388
    1SOL    MW4 9248   2.266   4.239   3.817  0.4454 -0.0873 -0.5090
    1SOL     OW 9249   2.476   4.378   3.712 -0.4293 -0.1651  0.1268
    1SOL    HW2 9250   2.550   4.325   3.741 -0.4027 -0.0882  0.1951
    1SOL    HW3 9251   2.400   4.336   3.753 -0.4852 -0.5832 -0.3925
    1SOL    MW4 9252   2.475   4.365   3.721 -0.4332 -0.2103  0.0672
    1SOL     OW 9253   2.877   4.619   3.880  0.3198  0.0340 -0.1661
    1SOL    HW2 9254   2.893   4.597   3.972 -0.6868  0.9920  0.2525
    1SOL    HW3 9255   2.947   4.680   3.858 -0.7324  1.5959  0.6697
    1SOL    MW4 9256   2.888   4.624   3.889  0.0482  0.3667 -0.0010
    1SOL     OW 9257   2.692   0.099   3.737 -0.1976  0.3860 -0.2615
    1SOL    HW2 9258   2.759   0.042   3.775  0.0902  1.5208  0.9465
    1SOL    HW3 9259   2.609   0.053   3.753  0.1199 -0.1246 -0.0918
    1SOL    MW4 9260   2.690   0.085   3.744 -0.1178  0.4683 -0.0796
    1SOL     OW 9261   2.715   0.328   3.905 -0.0905  0.2362  0.0995
    1SOL    HW2 9262   2.720   0.245   3.857 -1.0135 -0.1174  0.5970
    1SOL    HW3 9263   2.636   0.370   3.872 -0.8685 -0.1219  1.4599
    1SOL    MW4 9264   2.705   0.323   3.894 -0.3147  0.1423  0.3445
    1SOL     OW 9265   2.896   0.498   3.772  0.0483 -0.1028  0.8431
    1SOL    HW2 9266   2.979   0.454   3.789 -0.3581 -0.7903  1.0742
    1SOL    HW3 9267   2.830   0.438   3.805 -0.5988 -0.0239 -0.2952
    1SOL    MW4 9268   2.898   0.484   3.778 -0.0908 -0.1831  0.7234
    1SOL     OW 9269   2.926   0.773   3.892  0.1273 -0.9191 -0.3044
    1SOL    HW2 9270   3.010   0.805   3.860 -0.7755  0.9736 -0.8222
    1SOL    HW3 9271   2.911   0.693   3.842  1.2387 -0.8389 -0.7864
    1SOL    MW4 9272   2.935   0.766   3.881  0.1550 -0.6588 -0.4361
    1SOL     OW 9273   2.713   0.882   3.762 -0.1772  0.0899 -0.0926
    1SOL    HW2 9274   2.788   0.845   3.810  0.0468 -0.6679 -1.0144
    1SOL    HW3 9275   2.637   0.837   3.798  0.0396 -0.8419 -0.8076
    1SOL    MW4 9276   2.713   0.872   3.773 -0.1192 -0.1330 -0.3085
    1SOL     OW 9277   2.760   1.160   3.876 -0.2419  0.5015  0.6170
    1SOL    HW2 9278   2.743   1.069   3.850 -0.2979  0.5257  0.5691
    1SOL    HW3 9279   2.692   1.211   3.832  1.6020  0.9276 -1.7844
    1SOL    MW4 9280   2.748   1.155   3.867 -0.0060  0.5608  0.2940
    1SOL     OW 9281   2.976   1.276   3.742 -0.3686 -0.1341 -0.4387
    1SOL    HW2 9282   2.979   1.365   3.778 -1.1126 -0.3688  0.2129
    1SOL    HW3 9283   2.891   1.242   3.770 -0.4594 -0.7372 -1.4426
    1SOL    MW4 9284   2.966   1.283   3.750 -0.4787 -0.2446 -0.4854
    1SOL     OW 9285   2.932   1.526   3.887  0.2485  0.8378  0.1423
    1SOL    HW2 9286   2.922   1.529   3.982  0.5283 -2.1872  0.2906
    1SOL    HW3 9287   3.019   1.564   3.871  1.2068 -0.8272  1.3033
    1SOL    MW4 9288   2.943   1.532   3.897  0.4117  0.2190  0.3150
    1SOL     OW 9289   2.705   1.568   3.729  0.3886 -0.0378  0.3067
    1SOL    HW2 9290   2.781   1.550   3.784  0.2514 -1.3413  0.0865
    1SOL    HW3 9291   2.741   1.586   3.643  0.5475  1.1186  0.6049
    1SOL    MW4 9292   2.720   1.568   3.725  0.3915 -0.0571  0.3169
    1SOL     OW 9293   2.727   1.883   3.802 -0.4007  0.1876 -0.2438
    1SOL    HW2 9294   2.717   1.862   3.895 -0.0009  0.4045 -0.1483
    1SOL    HW3 9295   2.739   1.799   3.759  0.7582  0.1812  0.0813
    1SOL    MW4 9296   2.727   1.869   3.808 -0.1950  0.2154 -0.1884
    1SOL     OW 9297   2.951   2.297   3.908 -0.3468  0.0309 -0.3575
    1SOL    HW2 9298   2.877   2.349   3.878  0.2215  1.9141  1.4008
    1SOL    HW3 9299   3.028   2.340   3.870  0.0745 -0.0105  0.4404
    1SOL    MW4 9300   2.951   2.309   3.899 -0.2162  0.2739 -0.0203
    1SOL     OW 9301   2.789   2.050   4.668 -0.1295  0.1532 -0.0929
    1SOL    HW2 9302   2.816   2.135   4.634  1.0114  0.7782  2.2372
    1SOL    HW3 9303   2.699   2.062   4.697  0.1571  0.6892  0.5845
    1SOL    MW4 9304   2.781   2.062   4.668  0.0591  0.3066  0.3042
    1SOL     OW 9305   2.724   2.412   3.793  0.4409 -1.0340 -0.1999
    1SOL    HW2 9306   2.700   2.503   3.809  2.2554 -0.5276 -0.1937
    1SOL    HW3 9307   2.648   2.361   3.821 -0.3280  0.4399  0.4200
    1SOL    MW4 9308   2.711   2.417   3.799  0.5789 -0.7730 -0.1173
    1SOL     OW 9309   2.686   2.674   3.839  0.3705 -0.0885  0.1211
    1SOL    HW2 9310   2.611   2.722   3.805 -0.1100 -0.7887  0.1605
    1SOL    HW3 9311   2.677   2.679   3.934 -0.1078 -0.8821  0.1284
    1SOL    MW4 9312   2.675   2.681   3.847  0.2441 -0.2856  0.1271
    1SOL     OW 9313   2.895   2.818   3.727 -0.0431 -0.1152  0.4988
    1SOL    HW2 9314   2.896   2.903   3.772 -0.1042  0.9654 -1.4421
    1SOL    HW3 9315   2.820   2.772   3.764 -0.2934  0.8771  1.2492
    1SOL    MW4 9316   2.885   2.823   3.737 -0.0842  0.1583  0.3419
    1SOL     OW 9317   2.912   3.050   3.847 -0.2177 -0.3821  0.1713
    1SOL    HW2 9318   2.985   3.096   3.807  0.0357  0.5568  1.6517
    1SOL    HW3 9319   2.834   3.086   3.805 -0.0007  1.1727  1.0745
    1SOL    MW4 9320   2.911   3.060   3.836 -0.1557 -0.0532  0.4857
    1SOL     OW 9321   2.709   3.175   3.742 -0.0059 -0.0023  0.4930
    1SOL    HW2 9322   2.727   3.266   3.764 -0.5964 -0.4369  2.8773
    1SOL    HW3 9323   2.623   3.157   3.781  0.1879 -1.6293  0.2076
    1SOL    MW4 9324   2.700   3.185   3.750 -0.0584 -0.2747  0.7699
    1SOL     OW 9325   2.730   3.446   3.830 -0.0154 -0.0961  0.3080
    1SOL    HW2 9326   2.731   3.451   3.925 -0.1639  0.1377  0.2983
    1SOL    HW3 9327   2.796   3.508   3.801  0.8098 -0.9774  0.2870
    1SOL    MW4 9328   2.739   3.455   3.838  0.0737 -0.1819  0.3037
    1SOL     OW 9329   2.925   3.605   3.734 -0.4013  0.2036 -0.2799
    1SOL    HW2 9330   2.994   3.558   3.781 -1.4989 -0.2246  0.9418
    1SOL    HW3 9331   2.951   3.600   3.642 -0.1773 -2.3134 -0.1254
    1SOL    MW4 9332   2.937   3.598   3.728 -0.5164 -0.1848 -0.0982
    1SOL     OW 9333   2.904   3.872   3.833 -0.4236 -0.2236  0.1661
    1SOL    HW2 9334   2.921   3.866   3.927  2.4319 -0.0258 -0.2984
    1SOL    HW3 9335   2.914   3.782   3.801 -0.1672 -0.0858 -0.1414
    1SOL    MW4 9336   2.908   3.859   3.841 -0.0131 -0.1793  0.0641
    1SOL     OW 9337   2.670   3.974   3.693  0.2735 -0.0588  0.4338
    1SOL    HW2 9338   2.663   4.064   3.724  1.3265  0.6404 -1.2810
    1SOL    HW3 9339   2.746   3.939   3.740 -0.3821 -0.1826  1.4040
    1SOL    MW4 9340   2.679   3.981   3.704  0.3262  0.0169  0.3355
    1SOL     OW 9341   2.686   4.229   3.798  0.3250 -0.0495 -0.0724
    1SOL    HW2 9342   2.763   4.280   3.772 -0.0614  1.2083  1.1908
    1SOL    HW3 9343   2.697   4.217   3.893 -1.1990  0.4260  0.1705
    1SOL    MW4 9344   2.698   4.234   3.807  0.0727  0.1788  0.1261
    1SOL     OW 9345   2.907   4.374   3.742  0.5352 -0.2158 -0.2585
    1SOL    HW2 9346   2.980   4.329   3.784 -0.5788 -1.8998 -0.0605
    1SOL    HW3 9347   2.902   4.459   3.785  1.3944 -0.6985  0.8048
    1SOL    MW4 9348   2.916   4.379   3.753  0.5016 -0.5016 -0.0920
    1SOL     OW 9349   3.365   4.654   3.839  0.0305 -0.2346  0.2328
    1SOL    HW2 9350   3.363   4.650   3.935 -0.9004 -0.1879  0.2211
    1SOL    HW3 9351   3.443   4.706   3.819 -0.3165  0.6143  1.0091
    1SOL    MW4 9352   3.375   4.661   3.849 -0.1383 -0.1164  0.3335
    1SOL     OW 9353   3.114   0.117   3.790  0.3337 -0.4951 -0.0462
    1SOL    HW2 9354   3.196   0.077   3.818  1.3248  0.9089 -0.8223
    1SOL    HW3 9355   3.112   0.105   3.695  1.7796  3.1544 -0.6403
    1SOL    MW4 9356   3.124   0.110   3.781  0.6552  0.1717 -0.2267
    1SOL     OW 9357   3.126   0.390   3.861 -0.6042 -0.0756 -0.0591
    1SOL    HW2 9358   3.110   0.380   3.954 -1.2185  0.0821 -0.1452
    1SOL    HW3 9359   3.118   0.301   3.825  1.4787 -0.4515  0.3009
    1SOL    MW4 9360   3.123   0.377   3.868 -0.4103 -0.1044 -0.0231
    1SOL     OW 9361   3.359   0.485   3.751 -0.1295 -0.1363  0.4776
    1SOL    HW2 9362   3.438   0.462   3.800 -0.2096  0.5570  0.9305
    1SOL    HW3 9363   3.286   0.454   3.804 -0.1882 -0.1648  0.3822
    1SOL    MW4 9364   3.360   0.478   3.764 -0.1481 -0.0486  0.5248
    1SOL     OW 9365   3.390   0.731   3.854  0.4700 -0.2441 -0.3500
    1SOL    HW2 9366   3.366   0.730   3.947 -2.1678  0.0223 -0.9945
    1SOL    HW3 9367   3.361   0.646   3.821  0.8931 -0.1098 -1.0756
    1SOL    MW4 9368   3.383   0.720   3.862  0.1776 -0.1913 -0.5310
    1SOL     OW 9369   3.159   0.898   3.783 -0.6293 -0.1633  0.1835
    1SOL    HW2 9370   3.230   0.845   3.818 -0.6323  0.4888  1.1917
    1SOL    HW3 9371   3.167   0.889   3.688 -0.4597 -1.7283  0.3429
    1SOL    MW4 9372   3.170   0.890   3.775 -0.6075 -0.2837  0.3376
    1SOL     OW 9373   3.188   1.169   3.877  0.2562  0.3329 -0.3911
    1SOL    HW2 9374   3.187   1.080   3.842  0.7452 -0.2757  1.1259
    1SOL    HW3 9375   3.118   1.214   3.830 -1.1747 -1.3373  0.0859
    1SOL    MW4 9376   3.179   1.163   3.866  0.1321  0.0323 -0.1278
    1SOL     OW 9377   3.416   1.273   3.771 -0.4056 -0.4087 -0.0578
    1SOL    HW2 9378   3.336   1.228   3.799  0.5746 -2.3727 -0.3169
    1SOL    HW3 9379   3.412   1.270   3.675 -0.1997 -0.1645 -0.0730
    1SOL    MW4 9380   3.405   1.267   3.762 -0.2489 -0.6354 -0.0939
    1SOL     OW 9381   3.418   1.522   3.901  0.2973 -0.6629  0.0532
    1SOL    HW2 9382   3.335   1.562   3.876  1.9441  1.6469 -1.8944
    1SOL    HW3 9383   3.424   1.443   3.849 -0.5667 -0.7283  0.0477
    1SOL    MW4 9384   3.408   1.517   3.891  0.4005 -0.3667 -0.2046
    1SOL     OW 9385   3.182   1.642   3.816 -0.7973  0.0391  0.2613
    1SOL    HW2 9386   3.163   1.734   3.838 -0.1837 -0.0353  1.1563
    1SOL    HW3 9387   3.208   1.644   3.724  1.6780  1.1577  0.9341
    1SOL    MW4 9388   3.183   1.655   3.807 -0.3898  0.1769  0.4683
    1SOL     OW 9389   3.169   1.911   3.904  0.1799 -0.0615 -0.2534
    1SOL    HW2 9390   3.151   1.913   3.998 -1.2353 -0.5318 -0.4938
    1SOL    HW3 9391   3.092   1.952   3.864  1.9536  2.5711 -1.0704
    1SOL    MW4 9392   3.156   1.917   3.911  0.2275  0.2238 -0.3932
    1SOL     OW 9393   3.381   2.051   3.766  0.2690  0.1769 -0.3743
    1SOL    HW2 9394   3.313   1.994   3.802  0.2249  1.0449  0.9398
    1SOL    HW3 9395   3.463   2.017   3.803  0.4580 -0.3414 -1.2729
    1SOL    MW4 9396   3.383   2.039   3.776  0.2882  0.2234 -0.3195
    1SOL     OW 9397   3.377   2.289   3.927 -0.1531 -0.2935 -0.0647
    1SOL    HW2 9398   3.308   2.343   3.889 -0.1314  0.3990  0.8703
    1SOL    HW3 9399   3.384   2.214   3.868 -0.9784  0.1536 -0.7367
    1SOL    MW4 9400   3.369   2.286   3.915 -0.2589 -0.1433 -0.0300
    1SOL     OW 9401   3.155   2.425   3.789 -0.3408 -0.0531  0.0435
    1SOL    HW2 9402   3.125   2.515   3.803  1.2070  0.5592 -0.4871
    1SOL    HW3 9403   3.178   2.421   3.696  0.7850 -0.6333  0.3432
    1SOL    MW4 9404   3.154   2.436   3.779  0.0122 -0.0486  0.0131
    1SOL     OW 9405   3.107   2.704   3.840 -0.1404 -0.0828  0.1615
    1SOL    HW2 9406   3.138   2.753   3.916 -0.2889  0.3195 -0.0371
    1SOL    HW3 9407   3.023   2.744   3.818 -0.4070 -0.6173  0.1783
    1SOL    MW4 9408   3.100   2.715   3.847 -0.1950 -0.1001  0.1376
    1SOL     OW 9409   3.376   2.791   3.746 -0.2254  0.2463 -0.1693
    1SOL    HW2 9410   3.300   2.743   3.779 -0.3223  0.2371 -0.4105
    1SOL    HW3 9411   3.350   2.883   3.753 -0.5547  0.2153 -0.9855
    1SOL    MW4 9412   3.363   2.797   3.751 -0.2813  0.2410 -0.3090
    1SOL     OW 9413   3.350   3.062   3.811 -0.0441  0.1490 -0.4937
    1SOL    HW2 9414   3.344   3.051   3.906  0.7544 -0.4281 -0.4986
    1SOL    HW3 9415   3.433   3.109   3.798 -0.1949  0.3052 -0.8997
    1SOL    MW4 9416   3.360   3.067   3.822  0.0412  0.0937 -0.5481
    1SOL     OW 9417   3.134   3.184   3.711  0.3027 -0.1429  0.1926
    1SOL    HW2 9418   3.213   3.140   3.742  1.7000  2.0810 -0.1081
    1SOL    HW3 9419   3.157   3.216   3.623 -1.2161 -0.1717 -0.2337
    1SOL    MW4 9420   3.147   3.182   3.703  0.2866  0.1466  0.0968
    1SOL     OW 9421   3.149   3.442   3.845  0.2728  0.2508 -0.0592
    1SOL    HW2 9422   3.224   3.490   3.809  0.9131 -0.6739  0.0372
    1SOL    HW3 9423   3.151   3.357   3.800 -0.6172  0.1627  0.0627
    1SOL    MW4 9424   3.159   3.437   3.834  0.2398  0.1173 -0.0300
    1SOL     OW 9425   3.347   3.603   3.744  0.3607  0.1553 -0.3623
    1SOL    HW2 9426   3.356   3.694   3.771 -2.6146  0.4482 -0.2550
    1SOL    HW3 9427   3.360   3.604   3.649  0.1562  0.7078 -0.3827
    1SOL    MW4 9428   3.350   3.615   3.735 -0.0589  0.2668 -0.3507
    1SOL     OW 9429   3.356   3.875   3.832  0.7370 -0.6088 -0.3938
    1SOL    HW2 9430   3.429   3.935   3.816 -0.3168  1.2197  1.3545
    1SOL    HW3 9431   3.282   3.914   3.784  0.5092 -1.6147 -0.8873
    1SOL    MW4 9432   3.356   3.888   3.823  0.5679 -0.5002 -0.2282
    1SOL     OW 9433   3.124   3.987   3.734 -0.7793 -0.0377 -0.9722
    1SOL    HW2 9434   3.126   4.053   3.803  1.4428 -1.2264  0.1521
    1SOL    HW3 9435   3.045   3.936   3.751 -0.2825 -0.2744  0.6742
    1SOL    MW4 9436   3.114   3.989   3.745 -0.4206 -0.2258 -0.6068
    1SOL     OW 9437   3.107   4.236   3.900 -0.6196 -0.7108 -0.1852
    1SOL    HW2 9438   3.121   4.219   3.993 -2.2493  0.5674  0.3045
    1SOL    HW3 9439   3.186   4.282   3.872 -0.8280  0.3801  0.9695
    1SOL    MW4 9440   3.119   4.240   3.909 -0.8621 -0.3982  0.0317
    1SOL     OW 9441   3.317   4.370   3.784  0.6162  0.2397  0.1009
    1SOL    HW2 9442   3.400   4.328   3.807  1.2913  0.7659 -1.3245
    1SOL    HW3 9443   3.327   4.460   3.814  0.9314  0.5445 -0.8997
    1SOL    MW4 9444   3.330   4.376   3.791  0.7465  0.3500 -0.2193
    1SOL     OW 9445   3.801   0.014   3.877 -0.0168 -0.1505 -0.1086
    1SOL    HW2 9446   3.873   0.050   3.825 -0.4874  1.1869  0.1497
    1SOL    HW3 9447   3.800  -0.079   3.854 -0.1550  0.3802 -2.4366
    1SOL    MW4 9448   3.810   0.006   3.867 -0.0968  0.0960 -0.3815
    1SOL     OW 9449   3.596   0.152   3.775  0.5060  0.1253  0.0562
    1SOL    HW2 9450   3.675   0.107   3.803  0.2067 -0.2647  0.2803
    1SOL    HW3 9451   3.584   0.126   3.684 -0.2126 -1.0407  0.4744
    1SOL    MW4 9452   3.605   0.143   3.767  0.3717 -0.0800  0.1409
    1SOL     OW 9453   3.566   0.410   3.905 -0.6179 -0.6338  0.3470
    1SOL    HW2 9454   3.641   0.452   3.863 -0.2186 -1.6497  0.0330
    1SOL    HW3 9455   3.576   0.317   3.885 -0.9298 -1.0227  1.8959
    1SOL    MW4 9456   3.577   0.403   3.897 -0.6063 -0.8192  0.5097
    1SOL     OW 9457   3.780   0.518   3.773  0.3251 -0.1331  0.2630
    1SOL    HW2 9458   3.851   0.460   3.800  0.9973  0.7095  0.2896
    1SOL    HW3 9459   3.804   0.604   3.806  0.6419  0.7024 -2.0747
    1SOL    MW4 9460   3.792   0.521   3.781  0.4559  0.0882 -0.0417
    1SOL     OW 9461   3.819   0.782   3.872 -0.3159 -0.3112  0.2586
    1SOL    HW2 9462   3.903   0.824   3.854  0.6491 -2.5575 -0.7833
    1SOL    HW3 9463   3.757   0.826   3.814  0.5893 -0.0904 -0.5626
    1SOL    MW4 9464   3.822   0.793   3.862 -0.0691 -0.5784  0.0129
    1SOL     OW 9465   3.594   0.883   3.746 -0.1240 -0.2384  0.5391
    1SOL    HW2 9466   3.598   0.967   3.792 -0.8035  1.0930 -1.7602
    1SOL    HW3 9467   3.526   0.834   3.792 -0.5771  0.9289  1.1336
    1SOL    MW4 9468   3.586   0.888   3.759 -0.2735  0.0913  0.3142
    1SOL     OW 9469   3.623   1.135   3.893 -0.2629  0.0237 -0.3446
    1SOL    HW2 9470   3.701   1.191   3.890 -0.7720  0.8571  1.4965
    1SOL    HW3 9471   3.556   1.184   3.846  0.2054 -0.5423 -1.6324
    1SOL    MW4 9472   3.625   1.149   3.886 -0.2682  0.0589 -0.2716
    1SOL     OW 9473   3.813   1.305   3.825  0.6947  0.4278  0.0003
    1SOL    HW2 9474   3.906   1.285   3.818  0.5855  0.3324 -1.3859
    1SOL    HW3 9475   3.810   1.387   3.876  1.5015  0.2048  0.4196
    1SOL    MW4 9476   3.825   1.313   3.831  0.7868  0.3858 -0.1276
    1SOL     OW 9477   3.805   1.593   3.926  0.1248 -0.3395  0.0599
    1SOL    HW2 9478   3.789   1.588   4.020 -0.5488 -2.0336 -0.1251
    1SOL    HW3 9479   3.717   1.603   3.888  0.2704 -1.0617 -0.4687
    1SOL    MW4 9480   3.791   1.594   3.933  0.0551 -0.6582 -0.0341
    1SOL     OW 9481   3.585   1.706   3.788 -0.3357  0.0048  0.1785
    1SOL    HW2 9482   3.512   1.652   3.819 -0.7255  0.3256 -0.1801
    1SOL    HW3 9483   3.600   1.676   3.699 -1.7806  1.7505 -0.6962
    1SOL    MW4 9484   3.577   1.695   3.780 -0.5774  0.2775  0.0155
    1SOL     OW 9485   3.596   1.949   3.898 -0.0777 -0.1833 -0.2720
    1SOL    HW2 9486   3.580   1.870   3.846 -2.0476  0.2065 -0.3202
    1SOL    HW3 9487   3.588   1.920   3.989 -1.2560  0.0339 -0.2985
    1SOL    MW4 9488   3.593   1.935   3.903 -0.4930 -0.1031 -0.2818
    1SOL     OW 9489   3.814   2.065   3.771  0.0465 -0.0334 -0.5262
    1SOL    HW2 9490   3.896   2.031   3.806  0.8424  1.7433 -0.6293
    1SOL    HW3 9491   3.746   2.024   3.824  1.0407 -0.8449  0.1218
    1SOL    MW4 9492   3.816   2.055   3.782  0.2825  0.0937 -0.4542
    1SOL     OW 9493   3.833   2.320   3.911 -0.0806  0.1027  0.6004
    1SOL    HW2 9494   3.832   2.241   3.858 -0.2554 -0.5494  1.5629
    1SOL    HW3 9495   3.761   2.372   3.877 -0.1093 -0.2481  0.1142
    1SOL    MW4 9496   3.824   2.316   3.899 -0.1075 -0.0296  0.6630
    1SOL     OW 9497   3.600   2.426   3.801  0.5000 -0.3683 -0.0876
    1SOL    HW2 9498   3.536   2.375   3.852 -0.3136  0.5344 -0.1832
    1SOL    HW3 9499   3.569   2.421   3.711 -0.0606  0.9694  0.0160
    1SOL    MW4 9500   3.588   2.419   3.796  0.3188 -0.0727 -0.0863
    1SOL     OW 9501   3.581   2.671   3.898  0.5602  0.3137  0.1759
    1SOL    HW2 9502   3.602   2.585   3.862  0.6878  0.6330 -0.5241
    1SOL    HW3 9503   3.502   2.697   3.851 -0.6788 -0.3057  1.8442
    1SOL    MW4 9504   3.573   2.663   3.887  0.4139  0.2742  0.3037
    1SOL     OW 9505   3.763   2.825   3.757  0.4203  0.1511 -0.4126
    1SOL    HW2 9506   3.835   2.764   3.776  0.4615  0.4427  0.3808
    1SOL    HW3 9507   3.690   2.792   3.809 -0.1804 -0.4404 -1.6072
    1SOL    MW4 9508   3.763   2.812   3.766  0.3464  0.1113 -0.4656
    1SOL     OW 9509   3.833   3.090   3.791  0.0418 -0.1678  0.0265
    1SOL    HW2 9510   3.751   3.125   3.756  0.2607  0.5220  0.2117
    1SOL    HW3 9511   3.826   2.995   3.776 -0.4787 -0.0345 -0.6005
    1SOL    MW4 9512   3.821   3.082   3.784  0.0021 -0.0596 -0.0317
    1SOL     OW 9513   3.585   3.203   3.699  0.0260  0.3137  0.1646
    1SOL    HW2 9514   3.574   3.282   3.752  2.4637  0.2767  0.8340
    1SOL    HW3 9515   3.572   3.232   3.609 -0.9972  1.0612  0.5456
    1SOL    MW4 9516   3.582   3.217   3.694  0.2127  0.4077  0.3030
    1SOL     OW 9517   3.558   3.451   3.838  0.3974 -0.3113  0.0843
    1SOL    HW2 9518   3.546   3.444   3.932  1.2980  0.8448  0.3023
    1SOL    HW3 9519   3.478   3.493   3.806 -0.1086 -1.1366  0.2648
    1SOL    MW4 9520   3.546   3.456   3.846  0.4497 -0.2675  0.1366
    1SOL     OW 9521   3.777   3.618   3.751 -0.3676 -0.2817 -0.2496
    1SOL    HW2 9522   3.760   3.701   3.796 -0.2684 -0.8927  0.9244
    1SOL    HW3 9523   3.712   3.558   3.787  1.0796 -1.3343  0.6409
    1SOL    MW4 9524   3.766   3.621   3.761 -0.1638 -0.5014  0.0224
    1SOL     OW 9525   3.774   3.887   3.861 -0.4413  0.4481 -0.3706
    1SOL    HW2 9526   3.775   3.896   3.956 -0.5945 -0.2597 -0.3008
    1SOL    HW3 9527   3.853   3.932   3.831  0.5916 -0.9486  0.2287
    1SOL    MW4 9528   3.784   3.894   3.869 -0.3252  0.1705 -0.2823
    1SOL     OW 9529   3.577   4.043   3.722 -0.0822  0.6990  0.1114
    1SOL    HW2 9530   3.587   4.127   3.765 -0.9370  0.6169  0.4837
    1SOL    HW3 9531   3.632   3.983   3.772 -0.7826  0.6827  0.8849
    1SOL    MW4 9532   3.585   4.046   3.734 -0.2875  0.6857  0.2627
    1SOL     OW 9533   3.574   4.289   3.857  0.2239 -0.1697 -0.4882
    1SOL    HW2 9534   3.604   4.281   3.948  0.5743  1.4428 -0.4444
    1SOL    HW3 9535   3.639   4.345   3.815 -0.6479  0.1825 -1.3960
    1SOL    MW4 9536   3.587   4.296   3.864  0.1552  0.0896 -0.6025
    1SOL     OW 9537   3.824   4.410   3.789  0.2248 -0.4151 -0.0052
    1SOL    HW2 9538   3.886   4.350   3.830 -0.2912 -1.2312 -0.4132
    1SOL    HW3 9539   3.829   4.390   3.696 -0.8679 -0.6827 -0.0100
    1SOL    MW4 9540   3.833   4.400   3.782  0.0126 -0.5579 -0.0598
    1SOL     OW 9541   4.234   4.648   3.896  0.0738  0.0065  0.2252
    1SOL    HW2 9542   4.256   4.630   3.987 -0.7025  2.4244  0.9551
    1SOL    HW3 9543   4.316   4.675   3.856 -0.2005  2.5615  1.2312
    1SOL    MW4 9544   4.248   4.649   3.903 -0.0653  0.6628  0.4544
    1SOL     OW 9545   4.016   0.114   3.747 -0.4595 -0.0465 -0.1688
    1SOL    HW2 9546   4.093   0.089   3.798 -0.9894 -1.4894 -0.0723
    1SOL    HW3 9547   4.043   0.099   3.656 -1.1945 -2.1930 -0.0529
    1SOL    MW4 9548   4.030   0.109   3.742 -0.6266 -0.5201 -0.1407
    1SOL     OW 9549   4.023   0.380   3.852  0.2216 -0.1588  0.2266
    1SOL    HW2 9550   4.035   0.365   3.945 -0.0066 -0.4659  0.2098
    1SOL    HW3 9551   4.029   0.293   3.813  0.3381 -0.0289 -0.0467
    1SOL    MW4 9552   4.025   0.367   3.859  0.2069 -0.1822  0.1886
    1SOL     OW 9553   4.243   0.532   3.808  0.1557 -0.0501 -0.3604
    1SOL    HW2 9554   4.168   0.480   3.835  0.0755  0.4956  0.4770
    1SOL    HW3 9555   4.243   0.527   3.712  0.4883 -2.0612 -0.2727
    1SOL    MW4 9556   4.233   0.524   3.799  0.1888 -0.2434 -0.2379
    1SOL     OW 9557   4.281   0.792   3.861  0.2410  0.0504  0.4834
    1SOL    HW2 9558   4.207   0.832   3.816  0.5355 -0.2584 -0.2898
    1SOL    HW3 9559   4.275   0.699   3.840 -0.0343 -0.2072  1.6887
    1SOL    MW4 9560   4.271   0.785   3.853  0.2437 -0.0243  0.5405
    1SOL     OW 9561   4.042   0.915   3.773 -0.2050 -0.1376  0.2158
    1SOL    HW2 9562   4.034   1.007   3.796 -0.7118 -0.1623  0.1536
    1SOL    HW3 9563   4.024   0.912   3.679 -1.6827 -0.4804  0.4905
    1SOL    MW4 9564   4.038   0.927   3.764 -0.4668 -0.1861  0.2441
    1SOL     OW 9565   4.058   1.169   3.891 -0.0644 -0.1731  0.4010
    1SOL    HW2 9566   4.062   1.154   3.985 -0.2986 -1.5056  0.2007
    1SOL    HW3 9567   4.148   1.191   3.867 -0.0387  0.3491  0.9546
    1SOL    MW4 9568   4.070   1.170   3.900 -0.0920 -0.2800  0.4478
    1SOL     OW 9569   4.298   1.305   3.810 -0.1907  0.4232  0.2576
    1SOL    HW2 9570   4.299   1.389   3.856 -2.0957  0.1016  0.9376
    1SOL    HW3 9571   4.294   1.327   3.718 -0.9682  1.0718  0.4490
    1SOL    MW4 9572   4.298   1.319   3.804 -0.5445  0.4663  0.3724
    1SOL     OW 9573   4.281   1.547   3.947  0.3073 -0.1232  0.5358
    1SOL    HW2 9574   4.210   1.600   3.912  0.6926  0.9302  1.3000
    1SOL    HW3 9575   4.361   1.590   3.916  0.6200 -0.4046  0.9344
    1SOL    MW4 9576   4.282   1.560   3.939  0.3991 -0.0215  0.6890
    1SOL     OW 9577   4.060   1.677   3.837 -0.2355  0.2517  0.2240
    1SOL    HW2 9578   4.053   1.770   3.856  0.4806  0.1710  0.9021
    1SOL    HW3 9579   3.975   1.641   3.860 -0.9070  0.9128 -1.1143
    1SOL    MW4 9580   4.048   1.684   3.842 -0.2298  0.3283  0.1369
    1SOL     OW 9581   4.041   1.950   3.881 -0.0351 -0.3676 -0.1959
    1SOL    HW2 9582   4.045   1.962   3.976 -0.4078  0.4957 -0.2792
    1SOL    HW3 9583   4.126   1.980   3.849  0.2887 -1.1568 -0.0922
    1SOL    MW4 9584   4.052   1.955   3.890 -0.0415 -0.3579 -0.1934
    1SOL     OW 9585   4.266   2.065   3.777  0.2258  0.0714  0.6000
    1SOL    HW2 9586   4.278   2.152   3.815 -0.1189 -0.6527  2.3876
    1SOL    HW3 9587   4.270   2.080   3.682  2.0517  1.7588  0.9068
    1SOL    MW4 9588   4.268   2.079   3.769  0.4210  0.1986  0.8764
    1SOL     OW 9589   4.282   2.341   3.891 -0.0144 -0.4527 -0.1931
    1SOL    HW2 9590   4.254   2.303   3.975 -1.9057 -2.3548 -1.6233
    1SOL    HW3 9591   4.205   2.388   3.859  0.9066  0.8035 -0.5675
    1SOL    MW4 9592   4.268   2.342   3.898 -0.1421 -0.5379 -0.4313
    1SOL     OW 9593   4.062   2.473   3.803  0.2595 -0.0761 -0.1718
    1SOL    HW2 9594   4.062   2.565   3.827 -0.3312 -0.1107 -0.0209
    1SOL    HW3 9595   3.989   2.435   3.852 -0.1049 -0.4281 -0.9611
    1SOL    MW4 9596   4.052   2.480   3.812  0.1335 -0.1271 -0.2561
    1SOL     OW 9597   4.031   2.730   3.881  0.2976  0.2165 -0.0085
    1SOL    HW2 9598   3.994   2.759   3.964  0.6990 -0.0285  0.2620
    1SOL    HW3 9599   4.104   2.791   3.865  1.5537 -1.0284  0.8906
    1SOL    MW4 9600   4.036   2.742   3.890  0.5159  0.0198  0.1462
    1SOL     OW 9601   4.246   2.892   3.841  0.4036 -0.2099 -0.4416
    1SOL    HW2 9602   4.281   2.979   3.864  1.9643 -0.8909 -0.1429
    1SOL    HW3 9603   4.314   2.831   3.870 -1.0672 -1.5960  0.1233
    1SOL    MW4 9604   4.260   2.896   3.847  0.4158 -0.4828 -0.3276
    1SOL     OW 9605   4.292   3.163   3.895 -0.2858 -0.4325 -0.1300
    1SOL    HW2 9606   4.215   3.187   3.844 -1.6078  0.8649  2.3607
    1SOL    HW3 9607   4.366   3.202   3.849 -1.5204  1.2371 -0.7175
    1SOL    MW4 9608   4.292   3.171   3.882 -0.6227 -0.0412  0.1214
    1SOL     OW 9609   4.076   3.209   3.740 -0.1233 -0.9212  0.0214
    1SOL    HW2 9610   3.990   3.169   3.747 -0.2409 -0.7557 -0.4702
    1SOL    HW3 9611   4.097   3.204   3.646  0.0016 -0.1232  0.0071
    1SOL    MW4 9612   4.068   3.203   3.728 -0.1225 -0.7944 -0.0453
    1SOL     OW 9613   4.005   3.496   3.823  0.2636 -0.2138 -0.4308
    1SOL    HW2 9614   3.993   3.408   3.787 -0.9768 -0.5302  0.7036
    1SOL    HW3 9615   3.925   3.543   3.798  0.2543  0.1328  0.2422
    1SOL    MW4 9616   3.992   3.491   3.815  0.0985 -0.2098 -0.1922
    1SOL     OW 9617   4.233   3.654   3.792  0.0218  0.4878 -0.3442
    1SOL    HW2 9618   4.159   3.593   3.794 -0.5434  1.1483 -0.7050
    1SOL    HW3 9619   4.310   3.599   3.800 -0.5044 -0.2340 -0.2026
    1SOL    MW4 9620   4.233   3.639   3.794 -0.1221  0.4795 -0.3734
    1SOL     OW 9621   4.245   3.901   3.936  0.0791 -0.5649 -0.3504
    1SOL    HW2 9622   4.170   3.947   3.899 -2.1420 -1.7489  2.4953
    1SOL    HW3 9623   4.237   3.812   3.902  2.6737  0.2880 -3.4381
    1SOL    MW4 9624   4.234   3.895   3.926  0.1287 -0.6084 -0.3819
    1SOL     OW 9625   4.014   4.013   3.815  0.3706  0.4663  0.0950
    1SOL    HW2 9626   4.018   4.105   3.841 -1.2694  0.5280  0.1482
    1SOL    HW3 9627   4.015   4.015   3.719  0.3413  0.5345  0.0965
    1SOL    MW4 9628   4.015   4.025   3.806  0.1502  0.4835  0.1018
    1SOL     OW 9629   4.031   4.267   3.889 -0.3030  0.3277  0.2977
    1SOL    HW2 9630   4.060   4.286   3.978 -0.5690  1.8137  0.0720
    1SOL    HW3 9631   4.102   4.300   3.834 -0.5235  0.1717 -0.0773
    1SOL    MW4 9632   4.044   4.274   3.894 -0.3672  0.5031  0.2189
    1SOL     OW 9633   4.246   4.410   3.762 -0.3848  0.0435  0.1672
    1SOL    HW2 9634   4.238   4.497   3.802  0.6917 -0.1046  0.7374
    1SOL    HW3 9635   4.322   4.371   3.805 -0.6088 -1.0274 -0.3812
    1SOL    MW4 9636   4.255   4.416   3.773 -0.2718 -0.1178  0.1702
    1SOL     OW 9637   3.117   1.554   4.514 -0.1789 -0.0616 -0.0914
    1SOL    HW2 9638   3.181   1.507   4.567  0.2882 -0.5736 -1.1044
    1SOL    HW3 9639   3.146   1.646   4.518  1.0618 -0.3880 -1.1392
    1SOL    MW4 9640   3.129   1.560   4.521  0.0465 -0.1723 -0.3633
    1SOL     OW 9641   4.078   4.296   4.165 -0.3020 -0.0481 -0.1645
    1SOL    HW2 9642   4.070   4.211   4.207  2.0565  0.0901  0.6616
    1SOL    HW3 9643   4.000   4.344   4.190 -1.2380 -1.6699  0.0582
    1SOL    MW4 9644   4.067   4.291   4.174 -0.1144 -0.2437 -0.0267
    1SOL     OW 9645   2.008   0.174   4.520 -0.1196 -0.2525  0.1920
    1SOL    HW2 9646   1.913   0.164   4.527 -0.1607  0.5793  1.0064
    1SOL    HW3 9647   2.021   0.269   4.514  0.5193 -0.4666 -2.1684
    1SOL    MW4 9648   1.997   0.186   4.520 -0.0408 -0.1710 -0.0114
    1SOL     OW 9649   0.639   0.769   4.167  0.3139 -0.1128 -0.4774
    1SOL    HW2 9650   0.726   0.802   4.191  0.7238 -1.6322  0.1539
    1SOL    HW3 9651   0.641   0.765   4.071  1.3433 -1.1643 -0.4280
    1SOL    MW4 9652   0.651   0.773   4.157  0.5038 -0.4520 -0.3872
    1SOL     OW 9653   4.271   0.798   4.145  0.1923  0.0123 -0.2842
    1SOL    HW2 9654   4.266   0.808   4.050 -0.3534  0.1774 -0.2385
    1SOL    HW3 9655   4.352   0.844   4.170  0.2048  0.1816 -0.6359
    1SOL    MW4 9656   4.281   0.805   4.136  0.1221  0.0564 -0.3247
    1SOL     OW 9657   1.968   2.217   4.476 -0.4923 -0.0361 -0.1182
    1SOL    HW2 9658   1.958   2.257   4.563  0.3458 -2.6333  1.2241
    1SOL    HW3 9659   2.058   2.236   4.451 -0.5395  0.1453 -0.1568
    1SOL    MW4 9660   1.978   2.225   4.484 -0.3879 -0.3548  0.0539
    1SOL     OW 9661   0.017   1.224   4.203 -0.0348 -0.0359  0.0981
    1SOL    HW2 9662  -0.060   1.245   4.255  0.8030  1.8517  0.6181
    1SOL    HW3 9663   0.090   1.260   4.253  1.0408 -0.5418 -1.0919
    1SOL    MW4 9664   0.017   1.231   4.216  0.2177  0.1465  0.0095
    1SOL     OW 9665   1.108   2.809   4.278  0.4192 -0.6191  0.5104
    1SOL    HW2 9666   1.104   2.904   4.263 -2.5071 -1.2240 -3.1882
    1SOL    HW3 9667   1.063   2.796   4.361  0.5855  1.1814  0.9061
    1SOL    MW4 9668   1.102   2.820   4.287  0.0552 -0.4613  0.0749
    1SOL     OW 9669   0.673   4.633   4.611 -0.0009  0.0153 -0.1599
    1SOL    HW2 9670   0.611   4.688   4.563  0.2709 -1.2697 -2.0319
    1SOL    HW3 9671   0.757   4.680   4.603 -0.1622  0.3171 -0.0891
    1SOL    MW4 9672   0.676   4.646   4.603  0.0136 -0.1144 -0.3977
    1SOL     OW 9673   3.455   3.671   4.489  0.0117 -0.1997  0.5855
    1SOL    HW2 9674   3.423   3.759   4.512  1.3212  0.2249  0.8303
    1SOL    HW3 9675   3.549   3.682   4.479 -0.0783 -1.1021 -1.5959
    1SOL    MW4 9676   3.463   3.684   4.491  0.1726 -0.2630  0.3300
    1SOL     OW 9677   4.330   3.870   4.680  0.2001  0.5018  0.2092
    1SOL    HW2 9678   4.382   3.827   4.748  0.7924 -1.9080 -1.6853
    1SOL    HW3 9679   4.393   3.927   4.635  0.6620 -0.6483 -0.6080
    1SOL    MW4 9680   4.345   3.872   4.683  0.3390  0.0317 -0.1488
    1SOL     OW 9681   1.345   3.967   4.241  0.0281 -0.1057  0.1173
    1SOL    HW2 9682   1.425   3.918   4.219  0.0668 -0.8844  1.8887
    1SOL    HW3 9683   1.275   3.919   4.198  0.2995 -0.5762  0.1894
    1SOL    MW4 9684   1.347   3.954   4.232  0.0690 -0.2704  0.3605
    1SOL     OW 9685   0.169   2.325   4.157 -0.3502  0.0846  0.1044
    1SOL    HW2 9686   0.171   2.232   4.179 -0.6973  0.1222  0.3072
    1SOL    HW3 9687   0.239   2.364   4.209 -0.6796  0.0520  0.5755
    1SOL    MW4 9688   0.178   2.318   4.167 -0.4395  0.0851  0.1936
    1SOL     OW 9689   1.111   4.347   4.238 -0.1275 -0.2964  0.2068
    1SOL    HW2 9690   1.120   4.343   4.333  0.6053 -0.6850  0.1239
    1SOL    HW3 9691   1.192   4.309   4.204  0.8698  2.4397 -0.6020
    1SOL    MW4 9692   1.123   4.341   4.246  0.1007  0.0138  0.0892
    1SOL     OW 9693   4.299   4.379   4.294 -0.0154  0.0987  0.4661
    1SOL    HW2 9694   4.307   4.466   4.254 -2.5880  0.5144  0.7664
    1SOL    HW3 9695   4.224   4.339   4.249  1.1765 -1.9988  0.2896
    1SOL    MW4 9696   4.290   4.385   4.282 -0.1974 -0.1230  0.4826
    1SOL     OW 9697   4.184   1.573   4.902  0.3630 -0.1307  0.1794
    1SOL    HW2 9698   4.199   1.603   4.992 -0.5902 -1.4538  0.7961
    1SOL    HW3 9699   4.096   1.605   4.881  0.7456  0.5209 -0.4261
    1SOL    MW4 9700   4.174   1.581   4.911  0.2875 -0.2192  0.1807
    1SOL     OW 9701   0.271   2.838   4.268 -0.1150 -0.5094 -0.5748
    1SOL    HW2 9702   0.266   2.933   4.255  0.5049 -0.4816 -0.6582
    1SOL    HW3 9703   0.183   2.806   4.251 -0.8617  0.3125  1.5875
    1SOL    MW4 9704   0.259   2.846   4.264 -0.1317 -0.3972 -0.3004
    1SOL     OW 9705   1.942   1.476   4.508  0.3121 -0.3478  0.1160
    1SOL    HW2 9706   1.881   1.549   4.514 -0.4413 -0.9640  0.0398
    1SOL    HW3 9707   2.026   1.512   4.536  0.0022  0.6132 -0.1888
    1SOL    MW4 9708   1.945   1.490   4.513  0.1719 -0.3023  0.0658
    1SOL     OW 9709   4.232   3.128   4.198  0.0089  0.0785  0.2548
    1SOL    HW2 9710   4.309   3.169   4.237  0.4090 -0.3192 -0.1147
    1SOL    HW3 9711   4.253   3.122   4.105 -0.1639 -0.7002  0.2620
    1SOL    MW4 9712   4.245   3.133   4.191  0.0391 -0.0768  0.2069
    1SOL     OW 9713   3.563   2.587   4.407  0.2861 -0.3576  0.0813
    1SOL    HW2 9714   3.481   2.556   4.445  0.0377  0.4554  0.2257
    1SOL    HW3 9715   3.567   2.680   4.430  0.5643 -0.0591 -1.1090
    1SOL    MW4 9716   3.553   2.595   4.415  0.2902 -0.2110 -0.0567
    1SOL     OW 9717   1.983   0.952   4.628  0.0402 -0.0985 -0.1756
    1SOL    HW2 9718   2.071   0.917   4.613  0.4633  0.1682  1.6216
    1SOL    HW3 9719   1.993   1.047   4.621  0.1596  0.0081  1.2562
    1SOL    MW4 9720   1.996   0.960   4.625  0.1119 -0.0492  0.2508
    1SOL     OW 9721   0.666   2.213   4.594 -0.3756  0.0715 -0.2048
    1SOL    HW2 9722   0.744   2.216   4.649 -0.6756  1.3206  0.1868
    1SOL    HW3 9723   0.663   2.124   4.560  0.0101 -0.6250  1.5301
    1SOL    MW4 9724   0.676   2.202   4.597 -0.3642  0.1445  0.0753
    1SOL     OW 9725   0.223   4.379   4.262 -0.3779  0.3704  0.6236
    1SOL    HW2 9726   0.204   4.380   4.356  0.0805 -1.2552  0.7494
    1SOL    HW3 9727   0.150   4.332   4.223 -0.1789  0.3552  0.2656
    1SOL    MW4 9728   0.211   4.373   4.269 -0.2912  0.1540  0.5927
    1SOL     OW 9729   3.169   1.157   4.170  0.3204 -0.1473 -0.2389
    1SOL    HW2 9730   3.159   1.149   4.075 -0.2148  0.9431 -0.2790
    1SOL    HW3 9731   3.089   1.200   4.199 -0.2324 -1.8904  0.9137
    1SOL    MW4 9732   3.157   1.161   4.162  0.1771 -0.2334 -0.0925
    1SOL     OW 9733   0.822   0.993   4.442 -0.3932 -0.5442 -0.1294
    1SOL    HW2 9734   0.760   0.930   4.480 -0.1348 -0.6388  0.1396
    1SOL    HW3 9735   0.854   0.951   4.363 -0.4019 -0.6490 -0.0772
    1SOL    MW4 9736   0.818   0.979   4.437 -0.3603 -0.5705 -0.0877
    1SOL     OW 9737   0.677   0.019   4.203 -0.4870  0.5766  0.2486
    1SOL    HW2 9738   0.664  -0.068   4.240 -0.6644  0.1937 -0.6912
    1SOL    HW3 9739   0.683   0.005   4.109  0.2110  1.5048  0.1428
    1SOL    MW4 9740   0.676   0.006   4.196 -0.4183  0.6490  0.1106
    1SOL     OW 9741   0.433   0.412   4.179 -0.0238  0.0397 -0.0741
    1SOL    HW2 9742   0.524   0.439   4.188 -0.2615  0.4752  1.1223
    1SOL    HW3 9743   0.418   0.407   4.085  0.6569  2.0000 -0.3018
    1SOL    MW4 9744   0.443   0.415   4.168  0.0347  0.3558  0.0534
    1SOL     OW 9745   0.885   0.891   4.204 -0.0631 -0.2458  0.2632
    1SOL    HW2 9746   0.913   0.977   4.174  0.2908 -0.1324  0.9048
    1SOL    HW3 9747   0.953   0.832   4.174 -0.6198 -0.3941 -0.7172
    1SOL    MW4 9748   0.898   0.895   4.196 -0.0898 -0.2504  0.2184
    1SOL     OW 9749   0.469   4.639   4.806 -0.0839 -0.4401  0.2639
    1SOL    HW2 9750   0.400   4.630   4.741  0.3597  0.1044 -0.2969
    1SOL    HW3 9751   0.550   4.642   4.755  0.3976 -1.5803  0.9488
    1SOL    MW4 9752   0.471   4.638   4.791  0.0381 -0.5187  0.2804
    1SOL     OW 9753   2.852   1.863   4.439  0.0876  0.0504  0.5999
    1SOL    HW2 9754   2.948   1.867   4.446  0.2208 -0.1559 -0.8941
    1SOL    HW3 9755   2.821   1.907   4.518  1.4336  1.7727  0.2177
    1SOL    MW4 9756   2.861   1.869   4.451  0.2828  0.2503  0.3529
    1SOL     OW 9757   0.633   1.515   4.147 -0.2262  0.1050  0.1033
    1SOL    HW2 9758   0.641   1.420   4.159 -2.8138  0.1262  2.3379
    1SOL    HW3 9759   0.616   1.525   4.053  0.7984 -1.5560 -0.2926
    1SOL    MW4 9760   0.632   1.504   4.136 -0.4324 -0.1113  0.3462
    1SOL     OW 9761   0.171   0.763   4.156  0.2620  0.2183  0.1860
    1SOL    HW2 9762   0.171   0.685   4.212  1.9188 -0.2490 -0.4010
    1SOL    HW3 9763   0.107   0.822   4.195 -1.3209 -1.6075  0.4085
    1SOL    MW4 9764   0.163   0.760   4.168  0.2717 -0.0842  0.1373
    1SOL     OW 9765   0.952   2.764   4.504 -0.3283  0.0185  0.1937
    1SOL    HW2 9766   0.981   2.816   4.579  0.7187 -0.9098  0.4390
    1SOL    HW3 9767   0.938   2.676   4.539  1.8958 -0.8681 -1.0266
    1SOL    MW4 9768   0.954   2.760   4.518  0.1033 -0.2213  0.0648
    1SOL     OW 9769   4.234   1.251   4.574 -0.0656  0.1830 -0.1086
    1SOL    HW2 9770   4.252   1.336   4.614  0.5287 -0.4887  1.1040
    1SOL    HW3 9771   4.139   1.250   4.562 -0.1843  0.6703  0.7201
    1SOL    MW4 9772   4.224   1.262   4.578 -0.0024  0.1585  0.1612
    1SOL     OW 9773   0.404   1.916   4.114 -0.0145  0.0590 -0.6902
    1SOL    HW2 9774   0.478   1.954   4.161  0.2383 -0.3237 -0.7738
    1SOL    HW3 9775   0.419   1.940   4.022 -0.0671  0.1056 -0.6853
    1SOL    MW4 9776   0.416   1.924   4.108  0.0119  0.0147 -0.7010
    1SOL     OW 9777   1.781   3.293   4.529 -0.1734  0.0098  0.2339
    1SOL    HW2 9778   1.798   3.258   4.441  0.0392  1.0790 -0.1566
    1SOL    HW3 9779   1.757   3.216   4.581 -1.1983 -0.5158 -0.9816
    1SOL    MW4 9780   1.780   3.278   4.524 -0.2805  0.0818  0.0219
    1SOL     OW 9781   0.663   2.288   4.198  0.2152 -0.1775 -0.5888
    1SOL    HW2 9782   0.573   2.318   4.213  0.5928  0.3075  0.6994
    1SOL    HW3 9783   0.673   2.291   4.102 -0.9673  0.2353 -0.7120
    1SOL    MW4 9784   0.652   2.292   4.187  0.1090 -0.0589 -0.4354
    1SOL     OW 9785   2.017   4.080   4.609 -0.1373  0.3394 -0.0500
    1SOL    HW2 9786   2.097   4.031   4.592 -1.1343 -0.8478 -1.4915
    1SOL    HW3 9787   2.019   4.154   4.548 -0.0242  0.4488  0.0869
    1SOL    MW4 9788   2.028   4.083   4.599 -0.2539  0.1965 -0.2227
    1SOL     OW 9789   0.657   2.852   4.215  0.6369  0.2373 -0.1899
    1SOL    HW2 9790   0.740   2.830   4.173  0.5830  0.5245 -0.4517
    1SOL    HW3 9791   0.601   2.777   4.198  1.2239 -0.5142  1.0547
    1SOL    MW4 9792   0.661   2.839   4.207  0.7072  0.1760 -0.0601
    1SOL     OW 9793   1.564   2.698   4.271  0.0324 -0.0444  0.2431
    1SOL    HW2 9794   1.581   2.774   4.327  1.0049  0.7150 -1.0521
    1SOL    HW3 9795   1.647   2.680   4.228 -0.3492 -1.4739  0.0673
    1SOL    MW4 9796   1.577   2.706   4.273  0.1104 -0.1328  0.0496
    1SOL     OW 9797   0.643   3.115   4.093 -0.8615  0.1501  0.1354
    1SOL    HW2 9798   0.631   3.024   4.122  0.8777  0.0070  0.4659
    1SOL    HW3 9799   0.592   3.167   4.155  0.8798 -0.3539  2.0430
    1SOL    MW4 9800   0.635   3.110   4.105 -0.4023  0.0648  0.4306
    1SOL     OW 9801   4.481   3.228   4.260  0.0910  0.3935 -0.3185
    1SOL    HW2 9802   4.477   3.313   4.217 -0.9228  0.5043 -0.0218
    1SOL    HW3 9803   4.525   3.245   4.343  1.2536  0.3420 -0.9172
    1SOL    MW4 9804   4.486   3.241   4.266  0.1107  0.4017 -0.3586
    1SOL     OW 9805   0.704   1.243   4.517 -0.0773 -0.2179  0.2366
    1SOL    HW2 9806   0.620   1.215   4.555 -0.1631 -1.8035 -1.0489
    1SOL    HW3 9807   0.753   1.162   4.505  1.7442  0.7201  1.1534
    1SOL    MW4 9808   0.699   1.229   4.520  0.1517 -0.3035  0.1879
    1SOL     OW 9809   3.879   3.978   4.478  0.1953 -0.5664 -0.0989
    1SOL    HW2 9810   3.821   3.902   4.480  0.1779 -0.5290  1.3661
    1SOL    HW3 9811   3.948   3.956   4.540 -1.1614  1.6898  2.2675
    1SOL    MW4 9812   3.881   3.965   4.486  0.0138 -0.2639  0.4063
    1SOL     OW 9813   0.683   3.614   4.313 -0.2648  0.1310  0.0417
    1SOL    HW2 9814   0.755   3.560   4.282  0.4929  0.7254  0.7255
    1SOL    HW3 9815   0.683   3.690   4.255 -1.0889 -0.4113 -0.6837
    1SOL    MW4 9816   0.693   3.617   4.302 -0.2735  0.1380  0.0358
    1SOL     OW 9817   2.507   0.489   4.473  0.2032 -0.2235 -0.0262
    1SOL    HW2 9818   2.492   0.406   4.517  0.9601 -0.5526 -0.3747
    1SOL    HW3 9819   2.484   0.473   4.381 -0.1481  0.0968  0.0058
    1SOL    MW4 9820   2.502   0.476   4.467  0.2568 -0.2247 -0.0677
    1SOL     OW 9821   0.000   0.786   4.544  0.2306 -0.2796  0.0617
    1SOL    HW2 9822  -0.059   0.716   4.518 -0.1288 -0.3351  1.0150
    1SOL    HW3 9823   0.079   0.741   4.575  1.0491 -0.1921 -1.8295
    1SOL    MW4 9824   0.003   0.771   4.545  0.2909 -0.2754 -0.0620
    1SOL     OW 9825   4.388   4.328   4.562 -0.2185 -1.0606  0.5633
    1SOL    HW2 9826   4.360   4.399   4.620  1.2984  0.0732 -0.0439
    1SOL    HW3 9827   4.355   4.353   4.476 -0.5483 -1.6078  0.5304
    1SOL    MW4 9828   4.380   4.341   4.558 -0.0615 -0.9828  0.4787
    1SOL     OW 9829   1.094   4.617   4.177  0.1482  0.4155  0.0969
    1SOL    HW2 9830   1.096   4.527   4.211 -0.0837  0.7488  1.0148
    1SOL    HW3 9831   1.098   4.607   4.082  0.9454 -0.5364  0.2188
    1SOL    MW4 9832   1.095   4.603   4.169  0.2227  0.3338  0.2341
    1SOL     OW 9833   0.910   0.112   4.300  0.0925  0.7124 -0.5091
    1SOL    HW2 9834   0.827   0.076   4.271 -0.2927  2.2661 -1.3942
    1SOL    HW3 9835   0.976   0.060   4.255 -0.3337 -1.2803  1.0710
    1SOL    MW4 9836   0.908   0.101   4.290 -0.0145  0.6545 -0.4172
    1SOL     OW 9837   0.881   4.008   4.227 -0.4077  0.4360 -0.2804
    1SOL    HW2 9838   0.841   4.013   4.314 -0.1949 -0.3391 -0.1319
    1SOL    HW3 9839   0.877   4.097   4.193  1.9454  1.3208  1.6413
    1SOL    MW4 9840   0.875   4.020   4.234 -0.0691  0.4501 -0.0076
    1SOL     OW 9841   0.461   1.684   4.276  0.5002 -0.1936  0.4543
    1SOL    HW2 9842   0.535   1.633   4.244  1.6007  1.1859  0.7578
    1SOL    HW3 9843   0.443   1.747   4.206 -1.6905 -1.7986 -0.4866
    1SOL    MW4 9844   0.469   1.686   4.262  0.3563 -0.2234  0.3705
    1SOL     OW 9845   0.895   1.164   4.146 -0.4122  0.4532 -0.3188
    1SOL    HW2 9846   0.817   1.198   4.190 -0.3386 -1.3217  1.2457
    1SOL    HW3 9847   0.968   1.190   4.202 -0.1135 -0.0112 -0.4862
    1SOL    MW4 9848   0.895   1.172   4.159 -0.3632  0.1577 -0.1349
    1SOL     OW 9849   1.365   0.329   4.657  0.1900  0.2306  0.5101
    1SOL    HW2 9850   1.334   0.350   4.745  0.2793 -0.6678  0.7647
    1SOL    HW3 9851   1.307   0.379   4.599  0.2199  0.9370  1.0754
    1SOL    MW4 9852   1.353   0.338   4.661  0.2058  0.2052  0.6185
    1SOL     OW 9853   1.126   1.272   4.245 -0.2096 -0.1942 -0.0424
    1SOL    HW2 9854   1.137   1.276   4.340  0.1562  0.7173 -0.1201
    1SOL    HW3 9855   1.195   1.213   4.216  0.0683  0.0179  0.1874
    1SOL    MW4 9856   1.136   1.265   4.254 -0.1247 -0.0459 -0.0224
    1SOL     OW 9857   0.127   1.724   4.488 -0.1756  0.5466  0.6409
    1SOL    HW2 9858   0.061   1.782   4.528 -0.0391 -0.2876  2.1129
    1SOL    HW3 9859   0.211   1.761   4.515 -0.0583  0.7822 -0.0424
    1SOL    MW4 9860   0.129   1.736   4.497 -0.1421  0.4674  0.7448
    1SOL     OW 9861   3.740   3.721   4.479 -0.0064  0.1711 -0.5579
    1SOL    HW2 9862   3.795   3.668   4.538 -1.7251  0.3061  1.2238
    1SOL    HW3 9863   3.765   3.693   4.391  2.5216 -0.1518  0.2320
    1SOL    MW4 9864   3.750   3.710   4.475  0.1004  0.1464 -0.2193
    1SOL     OW 9865   1.123   3.558   4.523 -0.0475 -0.1076 -0.8249
    1SOL    HW2 9866   1.088   3.600   4.444 -1.7203 -0.6059 -0.3720
    1SOL    HW3 9867   1.138   3.630   4.584  0.0196  0.1534 -1.1512
    1SOL    MW4 9868   1.120   3.573   4.521 -0.2594 -0.1388 -0.8082
    1SOL     OW 9869   0.402   1.847   4.499  0.2488  0.2435  0.6079
    1SOL    HW2 9870   0.416   1.780   4.432  0.4248  0.3291  0.5579
    1SOL    HW3 9871   0.489   1.880   4.518  0.1172  0.8045  0.2669
    1SOL    MW4 9872   0.415   1.843   4.492  0.2546  0.3288  0.5565
    1SOL     OW 9873   0.856   1.915   4.165  0.2487 -0.2203  0.6101
    1SOL    HW2 9874   0.927   1.950   4.219 -0.1321  0.8318  0.4493
    1SOL    HW3 9875   0.893   1.915   4.076 -0.3437  1.5124  0.3290
    1SOL    MW4 9876   0.870   1.920   4.160  0.1203  0.1472  0.5517
    1SOL     OW 9877   2.556   2.306   4.574 -0.5838 -0.0275 -0.0143
    1SOL    HW2 9878   2.575   2.267   4.488 -2.1048 -1.6808  0.3865
    1SOL    HW3 9879   2.474   2.353   4.562 -2.2422 -2.5135  1.1856
    1SOL    MW4 9880   2.548   2.307   4.561 -1.0033 -0.5739  0.1969
    1SOL     OW 9881   0.011   4.064   4.566  0.2140 -0.6889  0.3725
    1SOL    HW2 9882  -0.025   4.152   4.567  2.7147  0.3826  0.1198
    1SOL    HW3 9883   0.002   4.035   4.475  0.8555 -0.0358  0.0916
    1SOL    MW4 9884   0.005   4.072   4.554  0.6280 -0.4606  0.3023
    1SOL     OW 9885   0.907   2.691   4.131 -0.5886  0.0015 -0.8109
    1SOL    HW2 9886   0.892   2.604   4.169 -0.2525  0.1215 -0.4109
    1SOL    HW3 9887   0.980   2.727   4.180  0.7262 -0.3746 -2.4458
    1SOL    MW4 9888   0.915   2.684   4.142 -0.3707 -0.0324 -0.9732
    1SOL     OW 9889   0.461   3.963   4.546 -0.0899  0.3520  0.4054
    1SOL    HW2 9890   0.549   3.941   4.576  0.1209  0.7479  0.0899
    1SOL    HW3 9891   0.444   4.050   4.583 -0.1693  0.4672  0.1028
    1SOL    MW4 9892   0.470   3.971   4.555 -0.0725  0.4194  0.3233
    1SOL     OW 9893   1.130   3.076   4.213 -0.4527  0.3319  0.2231
    1SOL    HW2 9894   1.140   3.077   4.118 -0.3974  0.8151  0.2322
    1SOL    HW3 9895   1.048   3.124   4.229 -0.7567 -0.2324  0.3852
    1SOL    MW4 9896   1.120   3.083   4.203 -0.4855  0.3214  0.2456
    1SOL     OW 9897   3.572   0.142   4.276  0.6551 -0.6494 -0.0244
    1SOL    HW2 9898   3.652   0.096   4.254  1.1648  0.5996 -0.8302
    1SOL    HW3 9899   3.581   0.228   4.235 -0.8408 -0.2893  0.3497
    1SOL    MW4 9900   3.583   0.147   4.267  0.5252 -0.4371 -0.0815
    1SOL     OW 9901   0.216   3.637   4.255  0.7485 -0.2234 -0.0848
    1SOL    HW2 9902   0.212   3.715   4.199  1.4274 -0.6255 -0.6936
    1SOL    HW3 9903   0.276   3.578   4.210  0.6841 -0.8706  0.6716
    1SOL    MW4 9904   0.223   3.639   4.242  0.8296 -0.3617 -0.0653
    1SOL     OW 9905   3.891   2.833   4.114  0.3517 -0.0138 -0.0514
    1SOL    HW2 9906   3.810   2.781   4.119  0.0926  0.3362 -0.5481
    1SOL    HW3 9907   3.860   2.922   4.101  0.8683 -0.1688 -2.4911
    1SOL    MW4 9908   3.876   2.838   4.113  0.3855  0.0117 -0.4387
    1SOL     OW 9909   2.010   2.866   4.279  0.7474  0.1942 -0.0879
    1SOL    HW2 9910   1.932   2.831   4.236  0.9810 -2.0470  1.1871
    1SOL    HW3 9911   2.082   2.814   4.244  1.1374 -0.5347  1.7244
    1SOL    MW4 9912   2.009   2.854   4.269  0.8295 -0.1974  0.3195
    1SOL     OW 9913   0.454   3.245   4.251 -0.2938 -0.5243 -0.0507
    1SOL    HW2 9914   0.480   3.331   4.220 -0.1978 -0.1097  1.1464
    1SOL    HW3 9915   0.463   3.250   4.346 -2.6513 -1.0507  0.2339
    1SOL    MW4 9916   0.458   3.257   4.259 -0.5922 -0.5391  0.1450
    1SOL     OW 9917   0.878   4.263   4.123  0.0804  0.2648  0.2393
    1SOL    HW2 9918   0.803   4.307   4.163 -0.1419  0.2036 -0.1135
    1SOL    HW3 9919   0.952   4.287   4.179 -0.2540  0.0638  0.7715
    1SOL    MW4 9920   0.878   4.272   4.136  0.0069  0.2303  0.2632
    1SOL     OW 9921   0.485   3.775   4.801 -0.3972  0.2819  0.4201
    1SOL    HW2 9922   0.422   3.847   4.803 -0.9925 -0.2550  0.9868
    1SOL    HW3 9923   0.439   3.704   4.757 -0.7768 -0.6589  2.2942
    1SOL    MW4 9924   0.471   3.775   4.795 -0.5259  0.0870  0.7424
    1SOL     OW 9925   2.726   3.978   4.227 -0.1788 -0.0062 -0.4171
    1SOL    HW2 9926   2.711   3.970   4.321 -0.0383  1.9194 -0.2090
    1SOL    HW3 9927   2.647   3.943   4.187  0.1837 -1.7975  0.3716
    1SOL    MW4 9928   2.714   3.973   4.234 -0.1125  0.0117 -0.2861
    1SOL     OW 9929   1.343   0.047   4.265  0.0705  0.2899 -0.3736
    1SOL    HW2 9930   1.359   0.038   4.359  0.7446 -1.6325 -0.6325
    1SOL    HW3 9931   1.251   0.024   4.254  0.0919  0.1288 -0.2217
    1SOL    MW4 9932   1.333   0.042   4.275  0.1621  0.0150 -0.3872
    1SOL     OW 9933   1.384   0.322   4.198  0.0004 -0.2026 -0.2935
    1SOL    HW2 9934   1.467   0.355   4.233 -0.2204  1.4160 -1.2292
    1SOL    HW3 9935   1.385   0.228   4.217  0.8466  0.2510  2.0838
    1SOL    MW4 9936   1.395   0.314   4.205  0.0827  0.0708 -0.1030
    1SOL     OW 9937   1.566   3.495   4.546 -0.3170  0.1629  0.2012
    1SOL    HW2 9938   1.653   3.454   4.550 -0.1493  0.5809  1.0152
    1SOL    HW3 9939   1.583   3.588   4.562 -0.7936  0.4270 -0.7817
    1SOL    MW4 9940   1.580   3.502   4.549 -0.3576  0.2530  0.1788
    1SOL     OW 9941   2.306   1.986   4.689  0.4567 -0.1044  0.0307
    1SOL    HW2 9942   2.319   1.974   4.595  0.1716 -1.1410  0.1146
    1SOL    HW3 9943   2.274   2.076   4.698  0.1410 -0.1216 -0.8947
    1SOL    MW4 9944   2.303   1.996   4.678  0.3774 -0.2435 -0.0806
    1SOL     OW 9945   1.676   4.284   4.663  0.7451  0.3425 -0.2138
    1SOL    HW2 9946   1.582   4.298   4.648  1.1338  1.0508 -2.0357
    1SOL    HW3 9947   1.681   4.254   4.754 -1.1637  1.2121  0.2057
    1SOL    MW4 9948   1.664   4.282   4.673  0.5444  0.5503 -0.3991
    1SOL     OW 9949   0.881   3.201   4.262 -0.1668  0.1232 -0.0518
    1SOL    HW2 9950   0.834   3.212   4.344 -0.2664 -0.9383  0.0438
    1SOL    HW3 9951   0.813   3.173   4.199  0.2827 -1.1442  0.0211
    1SOL    MW4 9952   0.866   3.199   4.264 -0.1206 -0.1843 -0.0291
    1SOL     OW 9953   1.345   1.127   4.168 -0.4325  0.0368  0.1003
    1SOL    HW2 9954   1.413   1.170   4.219  0.0937 -0.9520  0.2391
    1SOL    HW3 9955   1.364   1.150   4.078 -0.8679  1.0906  0.2685
    1SOL    MW4 9956   1.356   1.136   4.163 -0.4205  0.0454  0.1407
    1SOL     OW 9957   3.163   2.760   4.539 -0.1538  0.0614  0.1009
    1SOL    HW2 9958   3.117   2.791   4.617 -0.1249  0.4583 -0.0358
    1SOL    HW3 9959   3.097   2.715   4.488 -0.1043 -0.4617  0.4976
    1SOL    MW4 9960   3.149   2.758   4.542 -0.1435  0.0451  0.1354
    1SOL     OW 9961   3.513   4.539   4.507  0.0573 -0.1626 -0.2835
    1SOL    HW2 9962   3.601   4.505   4.525  0.3260  0.3311 -0.6480
    1SOL    HW3 9963   3.520   4.633   4.525 -0.9581 -0.4677  1.7584
    1SOL    MW4 9964   3.526   4.547   4.512 -0.0412 -0.1378 -0.0625
    1SOL     OW 9965   2.838   2.435   4.325 -0.0518  0.0273  0.0875
    1SOL    HW2 9966   2.743   2.444   4.327 -0.1444 -1.2221  2.7880
    1SOL    HW3 9967   2.870   2.519   4.359 -0.1844  0.3758 -0.6395
    1SOL    MW4 9968   2.830   2.447   4.330 -0.0815 -0.0916  0.3476
    1SOL     OW 9969   0.921   0.108   4.580 -0.8512  0.4200  0.0985
    1SOL    HW2 9970   0.903   0.193   4.620 -1.3812 -0.0435  0.8718
    1SOL    HW3 9971   0.907   0.121   4.487  1.2822  1.7656 -0.0596
    1SOL    MW4 9972   0.917   0.121   4.573 -0.6397  0.5364  0.1793
    1SOL     OW 9973   2.025   0.458   4.506  0.0510  0.3922  0.0937
    1SOL    HW2 9974   2.113   0.488   4.531  0.3106  0.2916 -0.6783
    1SOL    HW3 9975   2.017   0.481   4.414 -0.8735  0.7030  0.2516
    1SOL    MW4 9976   2.036   0.465   4.497 -0.0367  0.4199  0.0129
    1SOL     OW 9977   1.815   2.708   3.858 -0.2440  0.1729  0.1063
    1SOL    HW2 9978   1.728   2.739   3.834 -0.3680 -0.2153  0.0395
    1SOL    HW3 9979   1.817   2.618   3.826 -0.1160 -0.0880  0.8314
    1SOL    MW4 9980   1.804   2.700   3.851 -0.2434  0.0873  0.1931
    1SOL     OW 9981   3.100   4.125   4.647  0.6700 -0.0024  0.3358
    1SOL    HW2 9982   3.015   4.149   4.612  1.1500 -0.6098 -1.3108
    1SOL    HW3 9983   3.155   4.202   4.633  0.1168  0.7891  2.4128
    1SOL    MW4 9984   3.096   4.138   4.640  0.6604  0.0219  0.3924
    1SOL     OW 9985   1.072   2.026   4.293  0.2501  0.0784  0.2592
    1SOL    HW2 9986   1.156   1.998   4.258 -0.1628 -1.2026  0.2715
    1SOL    HW3 9987   1.076   2.005   4.386  0.6158  1.7372  0.6462
    1SOL    MW4 9988   1.084   2.020   4.300  0.2439  0.1280  0.3119
    1SOL     OW 9989   3.589   4.046   4.260 -0.1624 -0.8130  0.0095
    1SOL    HW2 9990   3.676   4.007   4.260 -0.4059 -1.3597 -0.3778
    1SOL    HW3 9991   3.532   3.977   4.228 -0.9034 -0.7861  1.2498
    1SOL    MW4 9992   3.593   4.032   4.256 -0.2923 -0.8817  0.1216
    1SOL     OW 9993   3.051   0.622   4.557  0.2086 -0.1082 -0.4535
    1SOL    HW2 9994   2.960   0.639   4.580  0.7864  1.4927  0.7259
    1SOL    HW3 9995   3.091   0.709   4.553  1.8656 -0.8435 -0.1390
    1SOL    MW4 9996   3.044   0.636   4.560  0.5033  0.0060 -0.2561
    1SOL     OW 9997   3.482   0.147   4.531  0.1042 -0.2629  0.3561
    1SOL    HW2 9998   3.390   0.122   4.530  0.2555 -0.9477  2.0949
    1SOL    HW3 9999   3.512   0.134   4.441 -1.6357  0.5580 -0.3611
    1SOL    MW410000   3.474   0.142   4.519 -0.1051 -0.2450  0.4907
    1SOL     OW10001   1.748   0.074   4.230  0.7126  0.4623 -0.0077
    1SOL    HW210002   1.827   0.033   4.196 -0.0513 -0.0229 -1.2493
    1SOL    HW310003   1.676   0.019   4.196 -0.1540  0.8844  1.1011
    1SOL    MW410004   1.749   0.061   4.221  0.4976  0.4540 -0.0248
    1SOL     OW10005   0.686   3.840   4.149  0.0041  0.0786 -0.2619
    1SOL    HW210006   0.760   3.896   4.173 -0.6447  0.3725  1.0893
    1SOL    HW310007   0.609   3.884   4.186 -0.6820 -0.9820 -0.4032
    1SOL    MW410008   0.685   3.853   4.157 -0.1720 -0.0226 -0.1025
    1SOL     OW10009   0.772   4.004   4.487  0.0296  0.0450 -0.3569
    1SOL    HW210010   0.811   4.073   4.540 -0.7362  0.7351 -0.6720
    1SOL    HW310011   0.769   3.927   4.544 -1.4096  0.9516  0.8321
    1SOL    MW410012   0.776   4.003   4.501 -0.2613  0.2556 -0.2418
    1SOL     OW10013   1.627   0.458   4.256  0.0428  0.0541 -0.2036
    1SOL    HW210014   1.620   0.447   4.351 -0.0101  1.0072 -0.0915
    1SOL    HW310015   1.592   0.545   4.239  0.3611  0.0245 -1.0663
    1SOL    MW410016   1.621   0.468   4.266  0.0776  0.1760 -0.3023
    1SOL     OW10017   1.619   0.356   4.560  0.6960  0.2653 -0.2833
    1SOL    HW210018   1.530   0.372   4.593  0.4396 -1.0875 -0.2777
    1SOL    HW310019   1.668   0.435   4.583 -0.3775  0.8076  0.1786
    1SOL    MW410020   1.614   0.369   4.568  0.5206  0.1584 -0.2217
    1SOL     OW10021   1.985   4.651   4.116 -0.3771 -0.2284 -0.5337
    1SOL    HW210022   2.052   4.688   4.174 -0.5862  0.4786 -0.7475
    1SOL    HW310023   2.017   4.670   4.028 -0.6246 -0.3118 -0.6414
    1SOL    MW410024   1.998   4.658   4.112 -0.4373 -0.1459 -0.5760
    1SOL     OW10025   1.997   0.507   4.235 -0.6495  0.1162  0.7177
    1SOL    HW210026   1.920   0.467   4.195 -0.1053  0.8581 -1.1183
    1SOL    HW310027   2.069   0.450   4.209 -0.3472  0.3226  1.0884
    1SOL    MW410028   1.996   0.494   4.226 -0.5379  0.2414  0.5245
    1SOL     OW10029   1.550   4.579   4.147 -0.2569 -0.5672 -0.4721
    1SOL    HW210030   1.463   4.614   4.168  0.3348  0.1002  0.9018
    1SOL    HW310031   1.559   4.502   4.203  0.1095 -0.5300 -0.4773
    1SOL    MW410032   1.540   4.573   4.157 -0.1305 -0.4740 -0.2918
    1SOL     OW10033   1.151   0.449   4.535 -0.1468  0.5326  0.6271
    1SOL    HW210034   1.135   0.447   4.440 -0.4995  1.9467  0.6502
    1SOL    HW310035   1.067   0.422   4.573 -0.7825  2.3534  0.5847
    1SOL    MW410036   1.138   0.445   4.527 -0.2772  0.9594  0.6247
    1SOL     OW10037   3.829   0.764   4.144  0.0077  0.0081  0.1433
    1SOL    HW210038   3.741   0.781   4.176  0.0079 -0.4313  0.3937
    1SOL    HW310039   3.819   0.756   4.049 -0.6919 -2.7238  0.4016
    1SOL    MW410040   3.816   0.765   4.136 -0.0846 -0.4103  0.2103
    1SOL     OW10041   4.179   0.079   4.822 -0.2944 -0.0624 -0.0591
    1SOL    HW210042   4.205   0.103   4.911 -0.8738 -0.9100  0.3457
    1SOL    HW310043   4.161   0.162   4.778  1.7951  0.4725  0.0519
    1SOL    MW410044   4.180   0.093   4.828 -0.0949 -0.1037  0.0091
    1SOL     OW10045   0.981   0.958   4.665 -0.1111 -0.1588  0.4211
    1SOL    HW210046   0.938   0.986   4.585 -1.1829 -0.0731  1.0262
    1SOL    HW310047   1.052   0.900   4.635 -0.5040 -0.1231 -0.5823
    1SOL    MW410048   0.985   0.954   4.650 -0.3043 -0.1428  0.3686
    1SOL     OW10049   1.660   1.917   4.458 -0.0757  0.2400 -0.2380
    1SOL    HW210050   1.591   1.945   4.517 -0.7478 -0.2790 -0.7710
    1SOL    HW310051   1.670   1.823   4.475  0.4972  0.3149 -0.1598
    1SOL    MW410052   1.652   1.908   4.468 -0.0888  0.1814 -0.2980
    1SOL     OW10053   1.573   1.317   4.240 -0.2440 -0.4032 -0.1069
    1SOL    HW210054   1.554   1.396   4.189  0.9142  0.3709  0.6409
    1SOL    HW310055   1.657   1.286   4.205  0.3510 -0.1002  1.0237
    1SOL    MW410056   1.582   1.323   4.229 -0.0126 -0.2611  0.1407
    1SOL     OW10057   1.553   1.550   4.104  0.0179 -0.0351  0.2770
    1SOL    HW210058   1.470   1.591   4.130  0.5282 -0.0557  1.9965
    1SOL    HW310059   1.620   1.602   4.147  0.7859 -1.2893  0.5992
    1SOL    MW410060   1.551   1.562   4.113  0.1866 -0.2033  0.5465
    1SOL     OW10061   1.087   1.514   4.106  0.1560  0.1625 -0.4971
    1SOL    HW210062   1.104   1.425   4.136  0.4990 -0.0518 -1.3054
    1SOL    HW310063   1.019   1.547   4.165  0.8742 -0.2049  0.5566
    1SOL    MW410064   1.080   1.507   4.118  0.2960  0.0858 -0.4649
    1SOL     OW10065   0.396   2.356   4.517  0.5526 -0.6757 -0.7418
    1SOL    HW210066   0.332   2.285   4.516  0.5673 -0.6826 -1.1665
    1SOL    HW310067   0.479   2.312   4.537  0.2810 -0.5417  0.7619
    1SOL    MW410068   0.399   2.341   4.520  0.5187 -0.6590 -0.5994
    1SOL     OW10069   3.686   2.660   4.159 -0.3301  0.3539 -0.3358
    1SOL    HW210070   3.629   2.675   4.083 -0.9708 -0.4706 -0.0312
    1SOL    HW310071   3.626   2.638   4.230  0.3417 -0.0699  0.1109
    1SOL    MW410072   3.671   2.659   4.158 -0.3259  0.1888 -0.2360
    1SOL     OW10073   3.523   1.684   4.757  0.4236 -0.3337 -0.3428
    1SOL    HW210074   3.557   1.729   4.680  0.7880 -0.6660 -0.3779
    1SOL    HW310075   3.515   1.593   4.730 -0.1258 -0.3299 -0.2109
    1SOL    MW410076   3.526   1.678   4.744  0.3989 -0.3772 -0.3304
    1SOL     OW10077   2.215   2.699   4.153 -0.1422  0.3104 -0.1161
    1SOL    HW210078   2.205   2.680   4.060  0.0407  0.5259 -0.1799
    1SOL    HW310079   2.235   2.614   4.193 -0.2487  0.2144 -0.2688
    1SOL    MW410080   2.217   2.685   4.146 -0.1321  0.3262 -0.1445
    1SOL     OW10081   2.249   1.695   4.247  0.0910  0.2632  0.6398
    1SOL    HW210082   2.248   1.696   4.343 -1.7173 -0.9198  0.6441
    1SOL    HW310083   2.180   1.755   4.221 -0.0652 -0.1529  0.0828
    1SOL    MW410084   2.240   1.703   4.257 -0.1686  0.0521  0.5670
    1SOL     OW10085   2.913   1.538   4.170  0.3061 -0.4682 -0.0938
    1SOL    HW210086   2.866   1.544   4.253 -0.0760 -3.5202 -0.0088
    1SOL    HW310087   2.997   1.582   4.186 -0.3518  0.2490  1.4426
    1SOL    MW410088   2.918   1.544   4.183  0.1686 -0.7763  0.1202
    1SOL     OW10089   1.329   2.667   4.145  0.1870  0.0678 -0.1789
    1SOL    HW210090   1.269   2.733   4.180  0.5291  0.8282 -0.9878
    1SOL    HW310091   1.410   2.680   4.194 -0.1622 -0.6548  0.5961
    1SOL    MW410092   1.332   2.678   4.156  0.1860  0.0730 -0.1836
    1SOL     OW10093   1.995   3.622   4.280 -0.4312  0.1922  0.0196
    1SOL    HW210094   1.931   3.568   4.234 -1.6619  1.6825 -0.0595
    1SOL    HW310095   1.991   3.707   4.236  0.7630  0.6427  0.7594
    1SOL    MW410096   1.986   3.626   4.268 -0.4361  0.4478  0.1068
    1SOL     OW10097   0.882   1.799   4.625  0.4184  0.0825 -0.0967
    1SOL    HW210098   0.886   1.722   4.569  3.0412 -0.3973  0.6913
    1SOL    HW310099   0.841   1.768   4.706  1.0042 -0.3719  0.0276
    1SOL    MW410100   0.877   1.785   4.628  0.8417 -0.0408  0.0234
    1SOL     OW10101   2.028   3.863   4.190  0.2939  0.3468  0.0436
    1SOL    HW210102   2.029   3.850   4.095 -0.8843 -0.2479  0.1173
    1SOL    HW310103   1.940   3.895   4.209  0.5201  0.4307  0.9468
    1SOL    MW410104   2.017   3.866   4.180  0.1686  0.2794  0.1721
    1SOL     OW10105   1.354   4.213   4.164 -0.2366 -0.3109 -0.0168
    1SOL    HW210106   1.342   4.215   4.069  0.2646 -1.0501 -0.1012
    1SOL    HW310107   1.350   4.121   4.187 -0.0639 -0.1576  0.6447
    1SOL    MW410108   1.352   4.201   4.155 -0.1477 -0.3891  0.0591
    1SOL     OW10109   1.553   3.822   4.159 -0.1925  0.1309 -0.1487
    1SOL    HW210110   1.559   3.736   4.201  0.1640  0.8901  1.3916
    1SOL    HW310111   1.633   3.868   4.186 -0.6609  1.1533 -0.4653
    1SOL    MW410112   1.564   3.817   4.168 -0.2073  0.3660  0.0129
    1SOL     OW10113   2.454   2.810   4.207 -0.3384  0.0762  0.5162
    1SOL    HW210114   2.460   2.895   4.163 -0.8987 -0.6161 -0.9213
    1SOL    HW310115   2.378   2.768   4.168  0.0104 -1.1494  1.1322
    1SOL    MW410116   2.445   2.816   4.196 -0.3664 -0.1769  0.4072
    1SOL     OW10117   2.543   4.665   4.131 -0.1578 -0.0726 -0.2748
    1SOL    HW210118   2.496   4.667   4.214 -1.4602  0.2968 -1.0012
    1SOL    HW310119   2.593   4.747   4.130 -0.9384  0.4104 -0.2965
    1SOL    MW410120   2.544   4.676   4.142 -0.4327  0.0399 -0.3734
    1SOL     OW10121   4.098   1.840   4.590  0.3915  0.6013 -0.4364
    1SOL    HW210122   4.031   1.894   4.549 -0.0123  0.2854 -0.1863
    1SOL    HW310123   4.118   1.773   4.525  1.6221  1.6389 -1.1599
    1SOL    MW410124   4.092   1.839   4.576  0.5007  0.6965 -0.4988
    1SOL     OW10125   1.421   0.089   4.544  0.8305  0.3585 -0.0616
    1SOL    HW210126   1.513   0.081   4.517  1.5051 -0.3176  2.2947
    1SOL    HW310127   1.414   0.176   4.582  0.4451  0.4711 -0.3859
    1SOL    MW410128   1.432   0.099   4.545  0.8688  0.2842  0.2065
    1SOL     OW10129   2.511   0.715   4.129  0.0992  0.2409  0.2406
    1SOL    HW210130   2.501   0.729   4.035  2.2229 -1.2414 -0.2469
    1SOL    HW310131   2.587   0.768   4.154  0.2158 -0.2203  0.8891
    1SOL    MW410132   2.520   0.724   4.120  0.3948 -0.0155  0.2618
    1SOL     OW10133   3.623   2.870   4.477 -0.5269  0.1868  0.3496
    1SOL    HW210134   3.643   2.913   4.394  0.5531 -0.2796  0.3494
    1SOL    HW310135   3.708   2.865   4.522 -1.1238  0.5288  1.5187
    1SOL    MW410136   3.637   2.875   4.472 -0.4630  0.1705  0.5040
    1SOL     OW10137   2.044   0.765   4.125 -0.5009 -0.2703  0.3198
    1SOL    HW210138   2.130   0.790   4.159  0.0743  0.3361 -1.5388
    1SOL    HW310139   2.031   0.675   4.156  0.9007 -0.4452  0.4145
    1SOL    MW410140   2.054   0.756   4.134 -0.2401 -0.2134  0.0873
    1SOL     OW10141   0.429   2.393   4.260  0.0348  0.0994  0.2805
    1SOL    HW210142   0.431   2.405   4.355  1.9178  0.3583  0.2247
    1SOL    HW310143   0.438   2.481   4.225 -2.6980  0.2397 -0.1678
    1SOL    MW410144   0.430   2.406   4.268 -0.0773  0.1521  0.2141
    1SOL     OW10145   0.251   1.333   4.303 -0.2667  0.4139  0.4772
    1SOL    HW210146   0.249   1.408   4.243 -2.5364 -0.5261 -0.6897
    1SOL    HW310147   0.303   1.267   4.257 -0.4273  0.3697  0.3557
    1SOL    MW410148   0.258   1.334   4.289 -0.5873  0.2841  0.3066
    1SOL     OW10149   2.719   1.197   4.153  0.0936 -0.1937  0.1315
    1SOL    HW210150   2.702   1.112   4.194 -0.0924 -0.5782 -0.7236
    1SOL    HW310151   2.729   1.177   4.060  0.1960  0.7047 -0.0580
    1SOL    MW410152   2.718   1.183   4.146  0.0827 -0.1258 -0.0072
    1SOL     OW10153   3.202   2.799   4.089 -0.3625 -0.2019  0.0067
    1SOL    HW210154   3.114   2.772   4.117  0.7048 -1.8623  1.8481
    1SOL    HW310155   3.258   2.724   4.108  1.2019  0.1874 -2.7483
    1SOL    MW410156   3.198   2.786   4.095 -0.0150 -0.3698 -0.1135
    1SOL     OW10157   0.456   4.223   4.147  0.0795  0.3244 -0.0568
    1SOL    HW210158   0.447   4.219   4.052  1.3431  2.4784 -0.2798
    1SOL    HW310159   0.368   4.243   4.179 -0.8390 -2.6445 -0.5860
    1SOL    MW410160   0.443   4.225   4.139  0.1251  0.2170 -0.1559
    1SOL     OW10161   0.927   2.244   4.697 -0.1710 -0.2029 -0.0480
    1SOL    HW210162   0.939   2.292   4.778  0.4123 -0.8661  0.2702
    1SOL    HW310163   0.892   2.308   4.635 -0.5622  0.3137  0.7076
    1SOL    MW410164   0.924   2.259   4.699 -0.1456 -0.2222  0.0935
    1SOL     OW10165   2.831   1.567   4.434 -0.4886  0.7082  0.3783
    1SOL    HW210166   2.834   1.662   4.434  0.2244  0.6926  0.4667
    1SOL    HW310167   2.905   1.541   4.489  0.0352  0.1004 -0.5998
    1SOL    MW410168   2.842   1.576   4.441 -0.3254  0.6257  0.2608
    1SOL     OW10169   3.229   1.319   4.625 -0.8607  0.1439 -0.1207
    1SOL    HW210170   3.301   1.277   4.580 -0.5728 -1.2681  1.5801
    1SOL    HW310171   3.168   1.247   4.646 -2.3312  1.1756 -0.7584
    1SOL    MW410172   3.230   1.304   4.622 -1.0169  0.0936  0.0196
    1SOL     OW10173   2.516   2.437   4.870 -0.0667  0.0310  0.1015
    1SOL    HW210174   2.533   2.343   4.874  0.2032  0.1444  2.1811
    1SOL    HW310175   2.596   2.475   4.832 -0.1522 -0.5528 -0.6766
    1SOL    MW410176   2.529   2.430   4.865 -0.0422 -0.0310  0.2737
    1SOL     OW10177   0.017   2.502   4.326 -0.3183 -0.0362 -0.0468
    1SOL    HW210178   0.068   2.502   4.407  1.1627 -0.3830 -0.9618
    1SOL    HW310179   0.066   2.446   4.266  0.1064  2.4094 -2.0847
    1SOL    MW410180   0.030   2.495   4.329 -0.0669  0.2406 -0.4363
    1SOL     OW10181   3.970   3.247   4.220  0.3274  0.0586  0.4399
    1SOL    HW210182   4.051   3.197   4.230  0.4873 -0.0359 -1.1984
    1SOL    HW310183   3.998   3.331   4.186 -0.2614  0.0763 -0.0089
    1SOL    MW410184   3.984   3.251   4.217  0.2706  0.0486  0.1650
    1SOL     OW10185   1.818   2.700   4.145 -0.2204 -0.4792  0.0094
    1SOL    HW210186   1.871   2.624   4.170 -0.5792 -0.5494  0.5801
    1SOL    HW310187   1.828   2.706   4.050  0.7360 -0.5430  0.1041
    1SOL    MW410188   1.826   2.691   4.136 -0.1415 -0.4971  0.0968
    1SOL     OW10189   0.429   2.985   4.608 -0.3309  0.2329 -0.4428
    1SOL    HW210190   0.502   2.944   4.562 -1.9569 -0.0656 -2.8456
    1SOL    HW310191   0.354   2.930   4.588 -1.2937  0.6837  1.7720
    1SOL    MW410192   0.429   2.973   4.600 -0.6724  0.2532 -0.4678
    1SOL     OW10193   3.899   3.510   4.594  0.3707 -0.1562 -0.1463
    1SOL    HW210194   3.933   3.458   4.666  0.7677  0.2991 -0.0083
    1SOL    HW310195   3.971   3.513   4.531  0.1542 -0.2364 -0.4003
    1SOL    MW410196   3.913   3.503   4.595  0.3946 -0.1068 -0.1616
    1SOL     OW10197   2.431   3.329   4.611 -0.0112  0.1309 -0.0051
    1SOL    HW210198   2.339   3.312   4.592  0.1373  1.1880 -1.7197
    1SOL    HW310199   2.453   3.265   4.679 -1.6421 -1.0354 -0.5400
    1SOL    MW410200   2.422   3.318   4.618 -0.2067  0.1163 -0.3014
    1SOL     OW10201   2.261   4.029   4.223  0.0350  0.3943 -0.5467
    1SOL    HW210202   2.334   3.969   4.210 -1.7806 -2.1881  0.7558
    1SOL    HW310203   2.184   3.978   4.198 -1.3826  2.8921 -1.3762
    1SOL    MW410204   2.261   4.014   4.218 -0.3920  0.3829 -0.4845
    1SOL     OW10205   2.502   4.373   4.159 -0.0718 -0.1945 -0.8187
    1SOL    HW210206   2.519   4.364   4.253 -3.0902  0.7141 -0.1415
    1SOL    HW310207   2.531   4.461   4.138  1.7558 -0.8206 -1.0451
    1SOL    MW410208   2.508   4.383   4.169 -0.2291 -0.1574 -0.7586
    1SOL     OW10209   2.758   0.674   4.500 -0.0845  0.3499 -0.3486
    1SOL    HW210210   2.673   0.630   4.504 -0.7694  1.5614 -1.3081
    1SOL    HW310211   2.737   0.767   4.512  1.2087  0.5470  0.3864
    1SOL    MW410212   2.744   0.680   4.502 -0.0041  0.5357 -0.3781
    1SOL     OW10213   2.790   0.203   4.493 -0.1449  0.1686 -0.3366
    1SOL    HW210214   2.750   0.242   4.416  1.0399  0.7951 -0.6525
    1SOL    HW310215   2.809   0.113   4.468 -0.2883  0.2059 -0.5781
    1SOL    MW410216   2.788   0.196   4.480 -0.0076  0.2562 -0.4106
    1SOL     OW10217   2.496   3.572   4.493  0.7288  0.1176 -0.0187
    1SOL    HW210218   2.489   3.479   4.517  0.0874  0.2758  0.4277
    1SOL    HW310219   2.407   3.606   4.504  0.6659  0.4580 -1.5503
    1SOL    MW410220   2.483   3.564   4.498  0.6356  0.1833 -0.1626
    1SOL     OW10221   2.673   0.275   4.187 -0.8069 -0.2673  0.2176
    1SOL    HW210222   2.589   0.320   4.196 -0.1837  0.8191  0.6880
    1SOL    HW310223   2.694   0.284   4.094 -0.6112  0.5664  0.3369
    1SOL    MW410224   2.665   0.282   4.176 -0.6990 -0.0139  0.2956
    1SOL     OW10225   0.653   4.380   4.264  0.4021 -0.6205  0.5021
    1SOL    HW210226   0.589   4.319   4.228 -0.3453  0.5621 -0.2295
    1SOL    HW310227   0.655   4.361   4.358  0.6047 -2.1342  0.2085
    1SOL    MW410228   0.645   4.370   4.271  0.3302 -0.6638  0.3672
    1SOL     OW10229   2.900   0.812   4.161 -0.5657  0.0222 -0.1742
    1SOL    HW210230   2.885   0.719   4.178 -0.6573  0.2329  0.9166
    1SOL    HW310231   2.913   0.817   4.066  2.7442 -1.5745  0.1132
    1SOL    MW410232   2.900   0.800   4.151 -0.1411 -0.1607  0.0072
    1SOL     OW10233   2.420   2.752   4.486 -0.4788 -0.2354 -0.6159
    1SOL    HW210234   2.422   2.779   4.395 -1.1995 -0.9472 -0.8505
    1SOL    HW310235   2.397   2.659   4.483  1.0095 -0.6407  0.2197
    1SOL    MW410236   2.417   2.743   4.474 -0.3774 -0.3829 -0.5364
    1SOL     OW10237   2.432   4.186   4.555  0.1480  0.1497  0.0591
    1SOL    HW210238   2.377   4.261   4.579 -0.3134 -0.2193  0.1482
    1SOL    HW310239   2.370   4.115   4.540  0.6293 -0.3830  0.5846
    1SOL    MW410240   2.417   4.187   4.556  0.1504  0.0305  0.1397
    1SOL     OW10241   2.216   3.662   4.503 -0.0139 -0.6032  0.0100
    1SOL    HW210242   2.169   3.698   4.427  0.3189 -1.9450 -0.8443
    1SOL    HW310243   2.152   3.607   4.547 -0.5011  0.9533  1.2791
    1SOL    MW410244   2.201   3.660   4.499 -0.0343 -0.5748  0.0653
    1SOL     OW10245   2.444   1.479   4.638  0.0169  0.3354  0.0267
    1SOL    HW210246   2.495   1.503   4.561 -0.1737 -1.7900 -0.8006
    1SOL    HW310247   2.503   1.422   4.688 -0.8536 -0.6016  0.0030
    1SOL    MW410248   2.458   1.475   4.634 -0.1233 -0.0688 -0.0858
    1SOL     OW10249   4.381   3.647   4.524  0.2640  0.2151  0.4112
    1SOL    HW210250   4.476   3.643   4.532  0.1446 -1.1246  1.2307
    1SOL    HW310251   4.358   3.734   4.556  1.3124  0.9651 -0.8374
    1SOL    MW410252   4.391   3.658   4.529  0.3867  0.1373  0.3548
    1SOL     OW10253   4.025   3.345   4.783  0.1867  0.4290 -0.3219
    1SOL    HW210254   4.024   3.264   4.733 -0.3204  0.4146 -0.2904
    1SOL    HW310255   3.972   3.326   4.861  1.3113  0.3166  0.4312
    1SOL    MW410256   4.018   3.332   4.787  0.2680  0.4122 -0.2189
    1SOL     OW10257   2.957   2.044   3.781 -0.7727  0.5997  0.2647
    1SOL    HW210258   2.879   1.992   3.800  0.0303  0.1445  2.2946
    1SOL    HW310259   2.956   2.114   3.846  0.7088  0.4027  0.5102
    1SOL    MW410260   2.946   2.047   3.792 -0.4714  0.5138  0.5648
    1SOL     OW10261   0.404   4.218   4.643  0.5569  0.2030 -0.3529
    1SOL    HW210262   0.333   4.273   4.611  0.2896 -0.7001 -1.3485
    1SOL    HW310263   0.412   4.240   4.736 -1.1346  0.2099 -0.1960
    1SOL    MW410264   0.396   4.228   4.651  0.2985  0.0849 -0.4630
    1SOL     OW10265   2.849   1.171   4.539  0.1509  0.6453 -0.1026
    1SOL    HW210266   2.923   1.131   4.583 -0.3768 -2.2336 -1.6723
    1SOL    HW310267   2.888   1.226   4.470  0.8387  0.6275  0.2704
    1SOL    MW410268   2.864   1.173   4.536  0.1721  0.2632 -0.2604
    1SOL     OW10269   0.045   2.968   4.520 -0.3505 -0.2557  0.6764
    1SOL    HW210270   0.010   3.018   4.594 -1.8342  1.0802 -0.9128
    1SOL    HW310271  -0.032   2.935   4.474  0.5764 -1.3436 -0.1191
    1SOL    MW410272   0.031   2.970   4.524 -0.4239 -0.2232  0.3614
    1SOL     OW10273   2.643   1.315   4.692  0.1189 -0.5919 -0.1930
    1SOL    HW210274   2.688   1.262   4.625  0.4951 -0.3391 -0.1419
    1SOL    HW310275   2.714   1.347   4.748 -0.0559  0.3878 -0.5222
    1SOL    MW410276   2.659   1.312   4.690  0.1457 -0.4293 -0.2298
    1SOL     OW10277   0.484   3.253   4.527  0.2935 -0.2280  0.0757
    1SOL    HW210278   0.579   3.251   4.531  0.3747  1.8959 -0.0981
    1SOL    HW310279   0.457   3.163   4.546  2.3309 -0.9645 -0.3992
    1SOL    MW410280   0.493   3.241   4.530  0.5731 -0.0446 -0.0105
    1SOL     OW10281   2.470   3.094   4.747  0.1099 -0.1851 -0.7717
    1SOL    HW210282   2.554   3.052   4.728 -0.3354 -0.6479 -1.7313
    1SOL    HW310283   2.406   3.024   4.738 -0.3401  0.0737  0.3603
    1SOL    MW410284   2.473   3.079   4.743 -0.0081 -0.2117 -0.7486
    1SOL     OW10285   2.927   3.598   4.200  0.1760  0.3410  0.0969
    1SOL    HW210286   2.940   3.569   4.291  2.0606  0.0577 -0.2546
    1SOL    HW310287   2.928   3.693   4.205 -0.0502  0.3291  0.4194
    1SOL    MW410288   2.929   3.607   4.213  0.3948  0.3023  0.0930
    1SOL     OW10289   2.694   3.202   4.228  0.3097  0.0974 -0.6601
    1SOL    HW210290   2.696   3.286   4.182  0.5576  0.0288 -0.7760
    1SOL    HW310291   2.760   3.149   4.184  1.8965  0.6625  0.9583
    1SOL    MW410292   2.703   3.206   4.216  0.5515  0.1631 -0.4625
    1SOL     OW10293   2.962   3.868   4.133  0.2230 -0.4073 -0.0700
    1SOL    HW210294   2.888   3.919   4.166  0.9988  0.5547  0.2106
    1SOL    HW310295   3.038   3.908   4.174  0.9031 -1.3945 -0.3591
    1SOL    MW410296   2.962   3.880   4.143  0.4151 -0.4106 -0.0710
    1SOL     OW10297   2.729   4.224   4.078  0.1790  0.3328  0.0343
    1SOL    HW210298   2.650   4.265   4.113  0.5107  0.5783  0.4864
    1SOL    HW310299   2.724   4.133   4.107  0.3767  0.4989  0.5804
    1SOL    MW410300   2.718   4.218   4.086  0.2487  0.3867  0.1655
    1SOL     OW10301   2.486   3.870   4.114 -0.1904 -0.1057 -0.1240
    1SOL    HW210302   2.483   3.859   4.019 -1.0217 -2.1831  0.1016
    1SOL    HW310303   2.499   3.781   4.148  1.0497  0.7322  1.6724
    1SOL    MW410304   2.487   3.857   4.106 -0.1366 -0.2692  0.1431
    1SOL     OW10305   2.965   4.319   4.261 -1.0416  0.0692 -0.0662
    1SOL    HW210306   2.909   4.274   4.197 -0.5502 -0.8995  0.1638
    1SOL    HW310307   3.054   4.289   4.241 -0.8646 -0.1331  0.9641
    1SOL    MW410308   2.969   4.309   4.250 -0.9534 -0.0854  0.0997
    1SOL     OW10309   3.351   0.015   4.136  0.0645  0.6271 -0.1560
    1SOL    HW210310   3.416   0.069   4.182  0.7605  0.5849 -1.0507
    1SOL    HW310311   3.267   0.044   4.170  0.5344  0.9777  0.7304
    1SOL    MW410312   3.349   0.026   4.146  0.2179  0.6680 -0.1574
    1SOL     OW10313   1.318   1.657   4.176  0.0056  0.2234 -0.1704
    1SOL    HW210314   1.234   1.616   4.154 -1.3320  2.4956  0.4296
    1SOL    HW310315   1.321   1.654   4.272  0.1417  1.0074 -0.1445
    1SOL    MW410316   1.307   1.651   4.186 -0.1531  0.6267 -0.0877
    1SOL     OW10317   2.859   0.544   4.256  0.0393  0.4176  0.2266
    1SOL    HW210318   2.797   0.471   4.258 -1.4023  1.6133  1.1045
    1SOL    HW310319   2.843   0.591   4.338  3.8660 -0.6226  1.6342
    1SOL    MW410320   2.848   0.541   4.267  0.3538  0.4381  0.5279
    1SOL     OW10321   3.318   0.505   4.254 -0.5388 -0.6716 -0.1678
    1SOL    HW210322   3.317   0.517   4.349  1.4065 -0.1311 -0.1845
    1SOL    HW310323   3.389   0.444   4.239 -0.9367 -0.8609 -1.2692
    1SOL    MW410324   3.327   0.499   4.265 -0.3347 -0.6252 -0.3152
    1SOL     OW10325   2.055   4.615   4.680 -0.0997 -0.0888 -0.5712
    1SOL    HW210326   2.056   4.697   4.630  0.3892 -0.5978 -1.4045
    1SOL    HW310327   1.977   4.569   4.650  0.0156 -0.2504 -0.6221
    1SOL    MW410328   2.045   4.620   4.670 -0.0198 -0.1774 -0.6876
    1SOL     OW10329   3.886   4.666   4.644 -0.0723  0.1896 -0.0689
    1SOL    HW210330   3.827   4.742   4.646 -0.0997  0.1934 -0.7251
    1SOL    HW310331   3.941   4.676   4.721 -0.4889  0.5480  0.1833
    1SOL    MW410332   3.885   4.678   4.654 -0.1309  0.2375 -0.1221
    1SOL     OW10333   3.128   0.897   4.273 -0.2141 -0.4390 -0.0514
    1SOL    HW210334   3.045   0.871   4.233  0.8277 -2.1259 -1.1910
    1SOL    HW310335   3.149   0.982   4.234 -0.7401 -0.6385 -0.7643
    1SOL    MW410336   3.120   0.905   4.263 -0.1459 -0.6880 -0.2966
    1SOL     OW10337   1.735   0.102   4.503  0.5922 -0.3302  0.0932
    1SOL    HW210338   1.704   0.191   4.521 -1.0202 -0.9043  0.1760
    1SOL    HW310339   1.730   0.094   4.408  0.6806 -0.3558  0.0907
    1SOL    MW410340   1.730   0.113   4.493  0.3910 -0.4093  0.1035
    1SOL     OW10341   2.740   3.015   4.643  0.5418 -0.3033 -0.1254
    1SOL    HW210342   2.723   3.090   4.586 -1.7279 -0.7214 -0.0204
    1SOL    HW310343   2.790   3.052   4.716  0.3598  0.9074 -0.5975
    1SOL    MW410344   2.745   3.030   4.645  0.2184 -0.1988 -0.1736
    1SOL     OW10345   2.502   1.599   4.155 -0.0336 -0.2895 -0.1506
    1SOL    HW210346   2.419   1.636   4.186  1.4306  0.9681  2.4183
    1SOL    HW310347   2.492   1.594   4.060 -2.7761  0.5056  0.0599
    1SOL    MW410348   2.489   1.603   4.147 -0.2024 -0.0187  0.2160
    1SOL     OW10349   2.520   0.192   4.566 -0.2399  0.0510 -0.1147
    1SOL    HW210350   2.499   0.155   4.652 -0.3056  0.4719  0.0485
    1SOL    HW310351   2.615   0.182   4.559 -0.3394 -0.7872 -0.3666
    1SOL    MW410352   2.530   0.186   4.576 -0.2615 -0.0041 -0.1268
    1SOL     OW10353   2.441   2.273   4.141  0.2578 -0.4262 -0.3128
    1SOL    HW210354   2.490   2.252   4.221  1.8567  1.3376 -0.7749
    1SOL    HW310355   2.366   2.324   4.172  0.5056 -0.3218  0.1313
    1SOL    MW410356   2.438   2.277   4.156  0.5016 -0.1795 -0.3147
    1SOL     OW10357   3.468   1.219   4.517 -0.1572 -0.6775  0.6969
    1SOL    HW210358   3.450   1.256   4.431  1.8306 -0.6418  0.2548
    1SOL    HW310359   3.506   1.291   4.567  2.0774 -1.5829  0.3998
    1SOL    MW410360   3.471   1.233   4.512  0.3996 -0.7923  0.5994
    1SOL     OW10361   3.560   1.415   4.673  0.3490  0.0825 -0.3183
    1SOL    HW210362   3.555   1.358   4.749 -1.0811 -0.0701 -0.5090
    1SOL    HW310363   3.644   1.459   4.681  0.4270 -0.3069  1.0806
    1SOL    MW410364   3.570   1.413   4.684  0.1705  0.0110 -0.1588
    1SOL     OW10365   3.467   2.256   4.191  0.2264  0.1796  0.4509
    1SOL    HW210366   3.389   2.212   4.227 -0.2080  0.5068 -0.0776
    1SOL    HW310367   3.444   2.274   4.100  2.2666 -2.9058 -0.7337
    1SOL    MW410368   3.454   2.253   4.184  0.4385 -0.1845  0.2251
    1SOL     OW10369   2.257   4.266   4.097 -0.4601  0.1918 -0.3350
    1SOL    HW210370   2.250   4.188   4.152 -0.7555 -0.4020 -1.2122
    1SOL    HW310371   2.347   4.296   4.109 -1.0153  1.0788  1.8342
    1SOL    MW410372   2.268   4.260   4.106 -0.5722  0.2303 -0.1645
    1SOL     OW10373   3.324   3.040   4.087  0.5725  0.6524 -0.1625
    1SOL    HW210374   3.259   3.103   4.117 -0.0954 -0.1292  0.0281
    1SOL    HW310375   3.279   2.956   4.088  1.7066  0.0381  0.3996
    1SOL    MW410376   3.310   3.037   4.091  0.6337  0.4683 -0.0639
    1SOL     OW10377   2.444   3.081   4.128 -0.0640 -0.1373  0.1061
    1SOL    HW210378   2.531   3.112   4.155  0.1396 -1.4975  1.0432
    1SOL    HW310379   2.383   3.134   4.179  0.2775 -0.9228  1.3511
    1SOL    MW410380   2.447   3.092   4.138  0.0079 -0.4203  0.3939
    1SOL     OW10381   3.380   3.612   4.222  0.0061  0.1383  0.1306
    1SOL    HW210382   3.299   3.564   4.201  0.5456 -0.3942 -0.7537
    1SOL    HW310383   3.380   3.617   4.317 -0.0560 -1.6750  0.2567
    1SOL    MW410384   3.369   3.606   4.232  0.0689 -0.1709  0.0305
    1SOL     OW10385   3.581   3.452   4.111  0.3007  0.3140 -0.2793
    1SOL    HW210386   3.587   3.371   4.162 -0.5387 -0.1454 -0.8783
    1SOL    HW310387   3.508   3.500   4.150  0.3672  0.4750 -0.3520
    1SOL    MW410388   3.572   3.447   4.123  0.1988  0.2747 -0.3676
    1SOL     OW10389   3.425   3.862   4.115  0.4838  0.2249 -0.1408
    1SOL    HW210390   3.410   3.771   4.139 -0.2017  0.8434  1.8509
    1SOL    HW310391   3.404   3.866   4.021 -1.3212 -1.2755  0.1710
    1SOL    MW410392   3.420   3.851   4.106  0.1552  0.1087  0.1631
    1SOL     OW10393   0.016   2.758   4.222  0.1146  0.1775  0.2901
    1SOL    HW210394  -0.050   2.799   4.278 -0.0304 -0.5117  0.6274
    1SOL    HW310395   0.024   2.669   4.255 -0.4092 -0.4240 -1.1563
    1SOL    MW410396   0.008   2.752   4.234  0.0264  0.0069  0.1440
    1SOL     OW10397   0.002   0.957   4.248 -0.0058 -0.2687 -0.1831
    1SOL    HW210398   0.005   0.952   4.344  2.4032 -2.3123 -0.3139
    1SOL    HW310399   0.020   1.049   4.229  0.1927  0.0208  1.2989
    1SOL    MW410400   0.005   0.969   4.258  0.3381 -0.5001 -0.0048
    1SOL     OW10401   3.619   4.302   4.141  0.5042  0.2103 -0.5553
    1SOL    HW210402   3.555   4.364   4.175  1.0490  0.5269 -0.0987
    1SOL    HW310403   3.602   4.221   4.189  1.0166  0.5436  0.1935
    1SOL    MW410404   3.608   4.300   4.152  0.6437  0.2966 -0.3963
    1SOL     OW10405   3.789   0.024   4.155 -0.1585  0.3812  0.3175
    1SOL    HW210406   3.819  -0.066   4.167  0.7366  0.8914  2.1263
    1SOL    HW310407   3.785   0.035   4.060  1.1629 -1.1043  0.0598
    1SOL    MW410408   3.793   0.014   4.144  0.1338  0.2522  0.5221
    1SOL     OW10409   2.595   2.153   4.355 -0.3790  0.0730 -0.0767
    1SOL    HW210410   2.527   2.092   4.384 -0.8032  0.9640  0.8275
    1SOL    HW310411   2.662   2.097   4.315 -1.4219 -0.8525 -0.5498
    1SOL    MW410412   2.595   2.138   4.354 -0.5727  0.0682 -0.0200
    1SOL     OW10413   3.561   0.397   4.170 -0.1415  0.2245 -0.1459
    1SOL    HW210414   3.648   0.430   4.191 -0.0634  0.1183 -0.3036
    1SOL    HW310415   3.548   0.419   4.078 -0.2120  0.0907 -0.1678
    1SOL    MW410416   3.571   0.404   4.161 -0.1404  0.1929 -0.1693
    1SOL     OW10417   4.088   0.382   4.119  0.0838  0.2680 -0.1296
    1SOL    HW210418   4.084   0.287   4.131  0.6048  0.4215  1.4356
    1SOL    HW310419   4.002   0.414   4.145 -0.0224  0.2395 -0.4492
    1SOL    MW410420   4.076   0.374   4.124  0.1383  0.2845  0.0343
    1SOL     OW10421   1.391   4.202   4.502 -0.0849  0.1567  0.3799
    1SOL    HW210422   1.389   4.108   4.523  0.6458  0.1136  0.2661
    1SOL    HW310423   1.456   4.209   4.432  1.0158  0.9641  1.4727
    1SOL    MW410424   1.399   4.190   4.496  0.1569  0.2570  0.5093
    1SOL     OW10425   2.400   0.003   4.367  0.2853  0.0173 -0.6310
    1SOL    HW210426   2.441   0.073   4.418  0.5569  0.0025 -0.8250
    1SOL    HW310427   2.377  -0.064   4.432 -1.1305  0.8338 -0.2920
    1SOL    MW410428   2.403   0.003   4.382  0.1345  0.1230 -0.6123
    1SOL     OW10429   2.129   2.162   4.203 -0.5258 -0.4922 -0.7461
    1SOL    HW210430   2.182   2.204   4.271 -0.6941 -1.3776 -0.0580
    1SOL    HW310431   2.101   2.235   4.147 -0.4696  0.2747  0.1940
    1SOL    MW410432   2.132   2.177   4.205 -0.5405 -0.5076 -0.5317
    1SOL     OW10433   4.400   2.416   4.651 -0.1161  0.5425  0.0814
    1SOL    HW210434   4.358   2.470   4.584  0.3761 -0.8020 -1.3445
    1SOL    HW310435   4.493   2.437   4.643  0.1120 -0.7374 -0.6941
    1SOL    MW410436   4.407   2.426   4.641 -0.0210  0.1962 -0.2089
    1SOL     OW10437   4.232   2.210   4.125 -0.1406  0.0991 -0.1327
    1SOL    HW210438   4.234   2.253   4.211 -0.0292 -1.2815  0.5726
    1SOL    HW310439   4.171   2.137   4.137 -0.2498 -0.0043 -1.2920
    1SOL    MW410440   4.224   2.206   4.138 -0.1397 -0.0966 -0.1926
    1SOL     OW10441   3.449   1.560   4.179  0.1888 -0.0265 -0.2919
    1SOL    HW210442   3.357   1.582   4.194  0.4016  1.0606 -0.5328
    1SOL    HW310443   3.451   1.523   4.091 -0.2777 -1.7184  0.3759
    1SOL    MW410444   3.437   1.558   4.170  0.1550 -0.1063 -0.2356
    1SOL     OW10445   3.556   1.830   4.171  0.3277 -0.0622  0.1894
    1SOL    HW210446   3.559   1.735   4.187  1.2901  0.0058  0.4117
    1SOL    HW310447   3.502   1.864   4.243 -0.9558 -0.5680 -0.5205
    1SOL    MW410448   3.549   1.822   4.183  0.2854 -0.1199  0.1249
    1SOL     OW10449   1.725   1.659   4.461 -0.0603  0.1241 -0.3365
    1SOL    HW210450   1.760   1.644   4.374 -0.1564  0.4682 -0.4367
    1SOL    HW310451   1.656   1.594   4.471  0.3379 -0.2883 -0.2959
    1SOL    MW410452   1.720   1.649   4.451 -0.0205  0.1152 -0.3448
    1SOL     OW10453   0.867   4.211   4.657 -0.4526  0.4314  0.2451
    1SOL    HW210454   0.944   4.254   4.619  0.7813 -1.5438  0.4528
    1SOL    HW310455   0.794   4.266   4.629  0.8672  1.5108 -1.2392
    1SOL    MW410456   0.868   4.224   4.648 -0.1156  0.3128  0.0768
    1SOL     OW10457   3.823   2.512   4.572  0.0196 -0.0226  0.5937
    1SOL    HW210458   3.761   2.531   4.501  0.0425 -1.5113  0.1581
    1SOL    HW310459   3.902   2.482   4.527  0.3562 -0.0728  1.2208
    1SOL    MW410460   3.825   2.511   4.556  0.0670 -0.2258  0.6194
    1SOL     OW10461   3.794   1.973   4.212  0.2001  0.6139  0.1740
    1SOL    HW210462   3.714   1.922   4.201 -0.3380  1.4918 -0.0726
    1SOL    HW310463   3.764   2.061   4.235  1.0820  1.0236 -0.1813
    1SOL    MW410464   3.780   1.978   4.213  0.2456  0.7838  0.0939
    1SOL     OW10465   1.766   4.009   4.550  0.3350 -0.0913  0.3316
    1SOL    HW210466   1.713   4.085   4.575  0.6680 -0.2039  1.3798
    1SOL    HW310467   1.855   4.031   4.579  0.6326 -0.4234 -0.3271
    1SOL    MW410468   1.771   4.022   4.557  0.4182 -0.1502  0.3824
    1SOL     OW10469   3.792   3.090   4.061  0.1476  0.4947 -0.0198
    1SOL    HW210470   3.853   3.152   4.099  1.5925 -0.3924 -0.8738
    1SOL    HW310471   3.804   3.098   3.967 -1.5245  0.7760 -0.2226
    1SOL    MW410472   3.801   3.099   4.054  0.1175  0.4148 -0.1593
    1SOL     OW10473   3.847   4.429   4.248 -0.0461  0.3511  0.1668
    1SOL    HW210474   3.782   4.371   4.208 -0.6535  0.3760  1.1167
    1SOL    HW310475   3.825   4.430   4.341  1.0368  0.7234  0.4267
    1SOL    MW410476   3.836   4.421   4.255  0.0167  0.4034  0.3266
    1SOL     OW10477   3.574   2.987   4.228  0.1612  0.0685  0.0584
    1SOL    HW210478   3.488   2.986   4.186  0.0330  1.5295  0.2637
    1SOL    HW310479   3.630   3.033   4.166  1.1400 -2.0485 -0.6883
    1SOL    MW410480   3.570   2.993   4.214  0.2732 -0.0181 -0.0134
    1SOL     OW10481   1.255   2.518   4.505 -0.2047 -0.4793  0.1499
    1SOL    HW210482   1.321   2.461   4.544  0.4749  0.0465 -0.2209
    1SOL    HW310483   1.259   2.498   4.412 -0.5604 -0.4279  0.1222
    1SOL    MW410484   1.264   2.508   4.498 -0.1619 -0.4032  0.0968
    1SOL     OW10485   3.905   2.827   4.565 -0.1228 -0.0816  0.3952
    1SOL    HW210486   3.893   2.747   4.617  0.7662 -0.3777  0.1496
    1SOL    HW310487   3.966   2.802   4.495  0.3615  0.8756  0.4621
    1SOL    MW410488   3.912   2.813   4.562  0.0584  0.0057  0.3715
    1SOL     OW10489   1.302   3.485   4.167 -0.1504 -0.2224 -0.5225
    1SOL    HW210490   1.311   3.466   4.073 -1.6581  0.4644 -0.8059
    1SOL    HW310491   1.315   3.400   4.209  0.6971 -0.5107 -1.3394
    1SOL    MW410492   1.305   3.471   4.160 -0.2376 -0.1700 -0.6680
    1SOL     OW10493   3.206   4.238   4.185  0.0803  0.5197  0.2264
    1SOL    HW210494   3.212   4.152   4.227 -0.9345  0.6988  0.7410
    1SOL    HW310495   3.264   4.294   4.237  1.0359  0.0717 -0.3327
    1SOL    MW410496   3.215   4.234   4.198  0.0727  0.4845  0.2213
    1SOL     OW10497   4.485   1.091   4.556 -0.1510 -0.4067 -0.0724
    1SOL    HW210498   4.466   1.006   4.595  0.9451 -0.0876  1.1984
    1SOL    HW310499   4.407   1.144   4.572 -0.9038 -1.2123 -1.0201
    1SOL    MW410500   4.473   1.087   4.563 -0.1054 -0.4709 -0.0296
    1SOL     OW10501   4.300   4.598   4.619 -0.2092  0.1735  0.3838
    1SOL    HW210502   4.264   4.641   4.696 -1.5782  2.0799 -1.2640
    1SOL    HW310503   4.232   4.607   4.552  1.2005 -0.8741 -1.2414
    1SOL    MW410504   4.286   4.605   4.620 -0.2041  0.2861 -0.0477
    1SOL     OW10505   4.272   2.344   4.367  0.2782 -0.5172 -0.7474
    1SOL    HW210506   4.316   2.278   4.422 -1.1404  0.9963  2.3326
    1SOL    HW310507   4.341   2.407   4.346  0.5124 -0.2371  0.7581
    1SOL    MW410508   4.287   2.344   4.372  0.1216 -0.2806 -0.1431
    1SOL     OW10509   3.228   0.085   4.486 -0.1251  0.1003 -0.0120
    1SOL    HW210510   3.176   0.159   4.519  2.1455  1.9675 -0.4908
    1SOL    HW310511   3.189   0.008   4.527 -2.7423  1.5198  0.2787
    1SOL    MW410512   3.216   0.085   4.495 -0.1709  0.5340 -0.0372
    1SOL     OW10513   0.475   1.129   4.641  0.0686  0.1603  0.2184
    1SOL    HW210514   0.399   1.154   4.589 -0.2470 -0.9504  0.1310
    1SOL    HW310515   0.462   1.172   4.726 -1.1394 -0.7874  0.5280
    1SOL    MW410516   0.463   1.138   4.646 -0.1324 -0.1112  0.2480
    1SOL     OW10517   0.145   0.476   4.789  0.3214 -0.4589  0.3063
    1SOL    HW210518   0.189   0.529   4.723  0.5256 -1.5398 -0.4361
    1SOL    HW310519   0.213   0.420   4.825 -0.5624 -2.8228 -1.5302
    1SOL    MW410520   0.160   0.476   4.785  0.2317 -0.9134 -0.0334
    1SOL     OW10521   4.412   0.384   4.655 -0.3899 -0.1749 -0.5439
    1SOL    HW210522   4.465   0.318   4.611 -0.1820  0.0837 -0.6801
    1SOL    HW310523   4.463   0.410   4.732 -0.5895 -0.3650 -0.3486
    1SOL    MW410524   4.425   0.379   4.659 -0.3886 -0.1658 -0.5360
    1SOL     OW10525   4.063   1.177   4.174 -0.3460  0.6200  0.3006
    1SOL    HW210526   3.978   1.205   4.209 -1.6006 -2.0689 -0.4283
    1SOL    HW310527   4.075   1.089   4.209  1.8252  0.7079 -0.1886
    1SOL    MW410528   4.053   1.169   4.183 -0.2246  0.2768  0.1402
    1SOL     OW10529   2.693   0.932   4.492 -0.1916  0.8569  0.1349
    1SOL    HW210530   2.753   1.002   4.517 -0.5183  0.5024  1.9754
    1SOL    HW310531   2.618   0.943   4.550 -0.4402 -0.7401  0.1421
    1SOL    MW410532   2.691   0.943   4.503 -0.2675  0.5994  0.3786
    1SOL     OW10533   0.954   0.607   4.818  0.2220  0.5247 -0.1578
    1SOL    HW210534   1.017   0.665   4.775  0.2618  0.5226 -0.1012
    1SOL    HW310535   0.994   0.585   4.902 -1.1609  2.9040  1.1801
    1SOL    MW410536   0.968   0.611   4.823  0.0448  0.8383  0.0262
    1SOL     OW10537   1.795   0.609   4.583  0.0036  0.3243 -0.5860
    1SOL    HW210538   1.792   0.653   4.668 -0.7075 -0.2137 -0.3322
    1SOL    HW310539   1.884   0.573   4.579 -0.3316 -0.6401  0.4353
    1SOL    MW410540   1.807   0.610   4.594 -0.1345  0.1261 -0.4177
    1SOL     OW10541   1.138   4.354   4.521 -0.3677 -0.3434 -0.4158
    1SOL    HW210542   1.221   4.308   4.532 -0.0264  0.1269 -0.9796
    1SOL    HW310543   1.142   4.427   4.584 -0.9817 -1.1703  0.6000
    1SOL    MW410544   1.149   4.358   4.531 -0.4036 -0.3905 -0.3562
    1SOL     OW10545   3.842   0.504   4.205 -0.0627  0.1115  0.4339
    1SOL    HW210546   3.839   0.600   4.209 -0.2734  0.1582 -0.6270
    1SOL    HW310547   3.846   0.476   4.297  1.6672  1.1890  0.7234
    1SOL    MW410548   3.842   0.513   4.218  0.1380  0.2598  0.3324
    1SOL     OW10549   3.715   2.208   4.310  0.1921 -0.4749  0.5519
    1SOL    HW210550   3.765   2.282   4.276  0.4796  0.4187  2.8010
    1SOL    HW310551   3.631   2.214   4.265  0.1606  1.3289  0.7989
    1SOL    MW410552   3.710   2.219   4.300  0.2260 -0.1190  0.8812
    1SOL     OW10553   4.008   3.494   4.106 -0.3313  0.3472  0.3575
    1SOL    HW210554   4.015   3.479   4.012  0.2516  1.5844  0.1928
    1SOL    HW310555   4.091   3.534   4.130 -0.6588  0.4613  1.3179
    1SOL    MW410556   4.020   3.497   4.097 -0.2975  0.5255  0.4625
    1SOL     OW10557   3.865   2.432   4.184  0.4763  0.5307 -0.7392
    1SOL    HW210558   3.807   2.507   4.177 -0.2129  0.0920  0.1450
    1SOL    HW310559   3.853   2.384   4.102 -1.1396 -0.0661 -0.1819
    1SOL    MW410560   3.856   2.435   4.172  0.1721  0.3941 -0.5488
    1SOL     OW10561   1.313   3.347   4.543 -0.1371  0.2142  0.1189
    1SOL    HW210562   1.243   3.412   4.547 -0.4899 -0.0025 -2.0093
    1SOL    HW310563   1.393   3.398   4.549 -0.4495  0.5573  1.5302
    1SOL    MW410564   1.314   3.362   4.545 -0.2248  0.2310  0.0238
    1SOL     OW10565   3.732   0.227   4.634  0.2527 -0.5507 -0.7057
    1SOL    HW210566   3.646   0.198   4.603 -1.3745  1.4899  1.6298
    1SOL    HW310567   3.756   0.299   4.575 -0.5624  0.1229 -0.2370
    1SOL    MW410568   3.724   0.233   4.622 -0.0694 -0.1926 -0.3357
    1SOL     OW10569   3.792   3.638   4.198 -0.2049 -0.0669 -0.1813
    1SOL    HW210570   3.717   3.586   4.168 -0.5243  0.4626 -0.3024
    1SOL    HW310571   3.868   3.583   4.179 -0.6724 -1.2891  1.4061
    1SOL    MW410572   3.792   3.624   4.192 -0.3085 -0.1581  0.0119
    1SOL     OW10573   2.066   1.490   4.170 -0.0696 -0.1983 -0.2973
    1SOL    HW210574   2.064   1.500   4.075 -0.2898 -1.1729 -0.4008
    1SOL    HW310575   2.123   1.560   4.200  0.1287  0.0181 -1.1610
    1SOL    MW410576   2.073   1.501   4.161 -0.0725 -0.2983 -0.4249
    1SOL     OW10577   4.241   3.604   4.218 -0.1848  0.0141 -0.3622
    1SOL    HW210578   4.328   3.565   4.222 -0.8432 -1.5259 -0.5184
    1SOL    HW310579   4.195   3.571   4.295 -0.9407  0.0220 -0.7956
    1SOL    MW410580   4.246   3.594   4.228 -0.3719 -0.1881 -0.4406
    1SOL     OW10581   0.459   3.959   4.258  0.1352 -0.0786 -0.6119
    1SOL    HW210582   0.481   4.046   4.224 -0.3981 -0.2514 -1.4267
    1SOL    HW310583   0.451   3.971   4.353 -0.5549  0.9048 -0.7804
    1SOL    MW410584   0.461   3.972   4.266 -0.0262  0.0286 -0.7415
    1SOL     OW10585   1.760   0.809   4.789 -0.6653  0.0962  0.0679
    1SOL    HW210586   1.830   0.860   4.750 -0.9643  1.8093  1.7050
    1SOL    HW310587   1.682   0.864   4.782 -1.9209 -1.8773 -1.9278
    1SOL    MW410588   1.759   0.823   4.783 -0.8705  0.0618  0.0205
    1SOL     OW10589   3.811   3.910   4.151  0.1495  0.2896  0.1118
    1SOL    HW210590   3.899   3.945   4.159  0.9899 -1.4855 -1.1047
    1SOL    HW310591   3.820   3.816   4.166 -1.7410  0.2446  1.2236
    1SOL    MW410592   3.824   3.902   4.154  0.0110  0.0496  0.0978
    1SOL     OW10593   3.043   4.505   4.545 -0.0389  0.4141 -0.3394
    1SOL    HW210594   2.986   4.533   4.474 -0.2005  1.8760  0.3408
    1SOL    HW310595   2.985   4.466   4.610 -0.3893  2.5040  0.6495
    1SOL    MW410596   3.028   4.503   4.544 -0.1066  0.8826 -0.1192
    1SOL     OW10597   3.994   3.120   4.611 -0.8175  0.0635  0.3695
    1SOL    HW210598   3.926   3.168   4.563  0.0799 -0.1980 -1.2078
    1SOL    HW310599   3.970   3.028   4.600  0.6984 -0.1210 -1.6487
    1SOL    MW410600   3.982   3.114   4.603 -0.4992  0.0048 -0.1054
    1SOL     OW10601   2.098   1.808   4.679 -0.1548 -0.3033  0.0120
    1SOL    HW210602   2.163   1.874   4.702 -1.1697  0.5080  0.6015
    1SOL    HW310603   2.045   1.850   4.611  0.9273 -1.5624 -1.6680
    1SOL    MW410604   2.100   1.822   4.673 -0.1459 -0.3625 -0.1321
    1SOL     OW10605   4.265   1.842   4.304 -0.3675  0.0059  0.4043
    1SOL    HW210606   4.279   1.748   4.298 -0.3202  0.0403 -0.0077
    1SOL    HW310607   4.300   1.866   4.390 -0.3995 -0.3557  0.5182
    1SOL    MW410608   4.271   1.833   4.315 -0.3653 -0.0373  0.3648
    1SOL     OW10609   4.066   0.112   4.202  0.2344 -0.1877 -0.7494
    1SOL    HW210610   4.077   0.131   4.295  0.5158  1.1982 -1.0550
    1SOL    HW310611   3.983   0.064   4.198  0.9780 -1.6079  0.3736
    1SOL    MW410612   4.056   0.108   4.214  0.3695 -0.1922 -0.6423
    1SOL     OW10613   1.081   2.896   4.717  0.0790  0.3837  0.2219
    1SOL    HW210614   1.025   2.880   4.793 -0.0667  0.7032  0.1867
    1SOL    HW310615   1.091   2.992   4.715  1.9182  0.2329  1.1493
    1SOL    MW410616   1.075   2.907   4.726  0.3023  0.4060  0.3395
    1SOL     OW10617   1.777   0.860   4.471 -0.1356 -0.1092  0.2456
    1SOL    HW210618   1.775   0.776   4.516 -0.7770 -0.6452 -0.7752
    1SOL    HW310619   1.853   0.905   4.509 -0.2059 -0.8521  1.3004
    1SOL    MW410620   1.787   0.855   4.482 -0.2297 -0.2779  0.2503
    1SOL     OW10621   1.783   3.020   4.601 -0.0799 -0.0471  0.3347
    1SOL    HW210622   1.777   2.965   4.679 -0.2132 -0.7962 -0.1959
    1SOL    HW310623   1.877   3.025   4.582  0.0986  1.7794  1.6947
    1SOL    MW410624   1.795   3.013   4.608 -0.0738  0.0951  0.4444
    1SOL     OW10625   0.244   1.568   4.159  0.1176  0.5556 -0.0786
    1SOL    HW210626   0.173   1.619   4.199 -0.0535 -0.6929  1.2927
    1SOL    HW310627   0.324   1.610   4.191 -0.0212  0.3467  0.5656
    1SOL    MW410628   0.245   1.580   4.169  0.0768  0.3635  0.1869
    1SOL     OW10629   4.148   3.508   4.455  0.0237  0.7181  0.0474
    1SOL    HW210630   4.174   3.417   4.444 -0.1362  0.5045  1.3538
    1SOL    HW310631   4.229   3.553   4.482 -0.2684  0.6551  1.0150
    1SOL    MW410632   4.162   3.502   4.457 -0.0358  0.6816  0.3476
    1SOL     OW10633   4.383   1.883   4.558 -0.7113  0.1907  0.1757
    1SOL    HW210634   4.398   1.976   4.573 -1.0472  0.0972  1.1399
    1SOL    HW310635   4.296   1.867   4.594 -0.6098 -0.5156  0.1131
    1SOL    MW410636   4.374   1.893   4.565 -0.7424  0.0852  0.2947
    1SOL     OW10637   0.688   0.794   4.563  0.0646  0.6076  0.1974
    1SOL    HW210638   0.593   0.804   4.555  0.0911  0.8398  0.1690
    1SOL    HW310639   0.706   0.815   4.655  0.0768  0.4633  0.2289
    1SOL    MW410640   0.678   0.798   4.574  0.0697  0.6192  0.1974
    1SOL     OW10641   4.438   2.038   4.155  0.0447 -0.0741 -0.2606
    1SOL    HW210642   4.400   1.961   4.198  1.2133 -0.0149  0.9328
    1SOL    HW310643   4.366   2.099   4.146 -0.7403 -1.0387 -0.5711
    1SOL    MW410644   4.424   2.035   4.160  0.0954 -0.1936 -0.1431
    1SOL     OW10645   2.266   3.969   4.517  0.0937 -1.0716  0.3822
    1SOL    HW210646   2.243   3.987   4.426  0.7254  0.3157  0.4973
    1SOL    HW310647   2.265   3.873   4.523  0.7107 -1.1935 -1.2510
    1SOL    MW410648   2.263   3.959   4.506  0.2584 -0.9048  0.1822
    1SOL     OW10649   3.665   0.677   4.450  0.0573  0.1900 -0.0035
    1SOL    HW210650   3.626   0.733   4.383  0.2125 -0.9717 -1.0733
    1SOL    HW310651   3.740   0.728   4.482 -0.5917  1.1692  0.0023
    1SOL    MW410652   3.670   0.691   4.445 -0.0081  0.1659 -0.1440
    1SOL     OW10653   0.443   3.503   4.170 -0.0267  0.0004 -0.1288
    1SOL    HW210654   0.512   3.560   4.203  0.3502  0.1834 -1.2007
    1SOL    HW310655   0.455   3.503   4.075 -0.1230 -1.7392 -0.1645
    1SOL    MW410656   0.454   3.510   4.162  0.0103 -0.2050 -0.2751
    1SOL     OW10657   3.354   2.074   4.639 -0.1058 -0.4138 -0.1515
    1SOL    HW210658   3.276   2.023   4.660  0.2543 -0.6704  0.5647
    1SOL    HW310659   3.321   2.158   4.606 -0.6744 -0.0404  1.3501
    1SOL    MW410660   3.340   2.079   4.637 -0.1330 -0.3984  0.1416
    1SOL     OW10661   4.041   0.562   4.590  0.6423  0.1403 -0.2873
    1SOL    HW210662   4.123   0.584   4.545  0.0109  1.0135 -1.0283
    1SOL    HW310663   3.994   0.645   4.597 -0.2539 -0.3847 -0.0112
    1SOL    MW410664   4.046   0.575   4.585  0.4406  0.1862 -0.3486
    1SOL     OW10665   3.315   0.499   4.540 -0.3722  0.1388  0.1305
    1SOL    HW210666   3.232   0.534   4.572 -0.6297 -0.8922  0.6265
    1SOL    HW310667   3.309   0.405   4.558 -0.3147 -0.3949 -2.5583
    1SOL    MW410668   3.303   0.491   4.547 -0.3986 -0.0676 -0.1588
    1SOL     OW10669   0.075   1.501   4.649 -0.0134  0.0169 -0.0965
    1SOL    HW210670   0.117   1.562   4.590  0.7728 -0.0563  0.3863
    1SOL    HW310671   0.116   1.417   4.631  0.7401  0.1318  1.0521
    1SOL    MW410672   0.086   1.498   4.639  0.1897  0.0224  0.1187
    1SOL     OW10673   0.223   3.898   4.139  0.1780 -0.1448  0.5199
    1SOL    HW210674   0.307   3.919   4.180 -0.6575  1.2350  1.5463
    1SOL    HW310675   0.158   3.926   4.203 -1.1077  0.1642 -0.9193
    1SOL    MW410676   0.226   3.904   4.153 -0.1019  0.0782  0.4659
    1SOL     OW10677   2.293   0.867   4.254 -0.4313  0.0013  0.4262
    1SOL    HW210678   2.366   0.816   4.219 -0.2179  0.6144 -0.0358
    1SOL    HW310679   2.301   0.953   4.211 -1.4107  0.0759  0.3878
    1SOL    MW410680   2.304   0.872   4.243 -0.5324  0.0920  0.3610
    1SOL     OW10681   0.957   3.962   4.777 -0.4045  0.2421  0.2467
    1SOL    HW210682   0.874   3.924   4.805 -0.5101  0.1132 -0.2323
    1SOL    HW310683   0.933   4.049   4.745 -0.3001  0.3481  0.4544
    1SOL    MW410684   0.943   3.969   4.776 -0.4047  0.2389  0.2112
    1SOL     OW10685   4.243   3.249   4.514 -0.1779  0.2823  0.3630
    1SOL    HW210686   4.169   3.194   4.543  0.0328 -0.2914 -0.1695
    1SOL    HW310687   4.316   3.222   4.570  0.3528 -1.1654 -0.9763
    1SOL    MW410688   4.243   3.238   4.525 -0.0806  0.0157  0.1159
    1SOL     OW10689   0.891   0.385   4.644  0.0233  0.8683  0.4616
    1SOL    HW210690   0.830   0.428   4.586 -0.9246  0.9465  1.4977
    1SOL    HW310691   0.907   0.448   4.714 -1.2848 -0.3727  1.9263
    1SOL    MW410692   0.885   0.399   4.646 -0.2744  0.7149  0.7911
    1SOL     OW10693   0.211   1.267   4.570  0.1237 -0.4588 -0.3496
    1SOL    HW210694   0.221   1.303   4.482 -1.1782  0.7171 -0.0199
    1SOL    HW310695   0.136   1.209   4.563 -1.0515  0.9582  0.3950
    1SOL    MW410696   0.203   1.264   4.557 -0.2031 -0.1167 -0.2079
    1SOL     OW10697   4.324   1.565   4.226 -0.1900 -0.2800 -0.7090
    1SOL    HW210698   4.323   1.472   4.249  0.4379 -0.3919 -1.1110
    1SOL    HW310699   4.308   1.566   4.132  1.1360 -0.0682 -0.9422
    1SOL    MW410700   4.322   1.553   4.217  0.0672 -0.2667 -0.7930
    1SOL     OW10701   2.944   1.281   4.281  0.3742 -0.9731  0.4704
    1SOL    HW210702   2.865   1.251   4.236  1.8539 -1.4668 -1.8757
    1SOL    HW310703   2.950   1.374   4.259  0.2191 -0.8369  1.0004
    1SOL    MW410704   2.935   1.289   4.272  0.5491 -1.0204  0.2308
    1SOL     OW10705   4.073   2.754   4.324 -0.5255 -0.2295  0.6813
    1SOL    HW210706   3.994   2.769   4.272  0.2374  2.6781  0.3315
    1SOL    HW310707   4.067   2.661   4.348 -2.8276 -0.6662 -1.3279
    1SOL    MW410708   4.062   2.744   4.321 -0.7286  0.0966  0.3705
    1SOL     OW10709   3.908   2.017   4.481  0.5660 -0.2087 -0.1934
    1SOL    HW210710   3.888   2.100   4.525  0.8296  0.1771 -0.8007
    1SOL    HW310711   3.857   2.019   4.401  2.2337  0.3564 -1.2854
    1SOL    MW410712   3.899   2.028   4.476  0.8209 -0.0834 -0.4177
    1SOL     OW10713   3.954   1.702   4.820 -0.1207 -0.3598 -0.3399
    1SOL    HW210714   3.874   1.750   4.844  0.1883 -0.3412  0.6878
    1SOL    HW310715   3.995   1.757   4.752 -0.2636  0.3532  0.1371
    1SOL    MW410716   3.949   1.716   4.814 -0.0989 -0.2633 -0.1411
    1SOL     OW10717   2.013   4.389   4.187 -0.1549 -0.5258 -0.2516
    1SOL    HW210718   1.991   4.476   4.155 -0.3007  0.2390  1.8665
    1SOL    HW310719   2.098   4.369   4.148  0.2357  0.8782 -0.1262
    1SOL    MW410720   2.021   4.398   4.177 -0.1225 -0.2398  0.0443
    1SOL     OW10721   2.816   4.611   4.394 -0.3491  0.1008  0.4085
    1SOL    HW210722   2.750   4.542   4.406 -1.6000  1.2701  0.3224
    1SOL    HW310723   2.835   4.611   4.300 -0.9040  0.3758  0.2958
    1SOL    MW410724   2.810   4.602   4.384 -0.5875  0.2909  0.3824
    1SOL     OW10725   2.547   2.144   4.792 -0.0047  0.1346 -0.0858
    1SOL    HW210726   2.477   2.081   4.775 -1.2936  1.3565  0.5535
    1SOL    HW310727   2.548   2.200   4.713 -0.6204  0.9015  0.4422
    1SOL    MW410728   2.538   2.143   4.779 -0.2561  0.3970  0.0682
    1SOL     OW10729   0.917   0.344   4.136  0.1213  0.6224 -0.1384
    1SOL    HW210730   0.922   0.268   4.194  1.5178  0.7595 -0.0631
    1SOL    HW310731   0.844   0.396   4.171 -1.0097 -0.7972 -0.3471
    1SOL    MW410732   0.908   0.341   4.149  0.1563  0.4532 -0.1559
    1SOL     OW10733   0.419   0.857   4.553 -0.4750 -0.5130  0.5881
    1SOL    HW210734   0.415   0.873   4.459 -0.7980 -1.0925  0.4997
    1SOL    HW310735   0.420   0.944   4.593  1.8819 -0.2436 -0.0376
    1SOL    MW410736   0.418   0.871   4.546 -0.2066 -0.5540  0.4940
    1SOL     OW10737   0.693   0.493   4.213  0.1787  0.3855 -0.3779
    1SOL    HW210738   0.692   0.497   4.309  0.6238 -0.2416 -0.3379
    1SOL    HW310739   0.697   0.584   4.185 -1.8142  0.6563  0.1616
    1SOL    MW410740   0.694   0.505   4.222 -0.0256  0.3385 -0.3018
    1SOL     OW10741   0.933   2.482   4.536 -0.1360 -0.2617 -0.0465
    1SOL    HW210742   0.900   2.469   4.447 -0.6890 -0.8149  0.2337
    1SOL    HW310743   1.028   2.479   4.527 -0.1175  2.1018 -0.9699
    1SOL    MW410744   0.941   2.480   4.523 -0.2065 -0.0229 -0.1311
    1SOL     OW10745   1.073   3.619   4.258 -0.5045 -0.5122  0.2575
    1SOL    HW210746   1.150   3.567   4.232 -1.6185 -1.7453 -0.6492
    1SOL    HW310747   0.999   3.572   4.220 -1.7341  0.5448  1.3178
    1SOL    MW410748   1.073   3.606   4.249 -0.8137 -0.5355  0.2775
    1SOL     OW10749   3.160   3.214   4.216  0.1805  0.0941  0.1362
    1SOL    HW210750   3.161   3.308   4.197  0.8098  0.2444  0.9154
    1SOL    HW310751   3.200   3.206   4.302  0.5531 -0.9448 -0.1280
    1SOL    MW410752   3.165   3.225   4.225  0.3126 -0.0234  0.2036
    1SOL     OW10753   3.640   2.006   4.686 -0.0967 -0.5137  0.0317
    1SOL    HW210754   3.690   2.087   4.681  0.1028 -0.7021 -0.9890
    1SOL    HW310755   3.549   2.034   4.692  0.0537 -0.1944  0.9233
    1SOL    MW410756   3.634   2.020   4.686 -0.0505 -0.4966  0.0148
    1SOL     OW10757   0.645   1.259   4.230 -0.2251  0.0577  0.0792
    1SOL    HW210758   0.626   1.268   4.324 -1.5348 -0.3847 -0.1420
    1SOL    HW310759   0.576   1.202   4.197 -0.3194  0.9788 -1.3468
    1SOL    MW410760   0.633   1.253   4.238 -0.4103  0.1208 -0.1378
    1SOL     OW10761   1.568   1.992   4.179  0.0696  0.1738  0.3274
    1SOL    HW210762   1.640   1.965   4.122 -0.8698 -2.2576  0.2029
    1SOL    HW310763   1.592   1.960   4.266 -0.4720  0.0622  0.4408
    1SOL    MW410764   1.581   1.984   4.183 -0.1259 -0.1616  0.3252
    1SOL     OW10765   1.335   2.783   4.556  0.6360 -0.1795  0.8679
    1SOL    HW210766   1.297   2.701   4.527  0.2326  0.4066 -0.3061
    1SOL    HW310767   1.271   2.820   4.617 -1.1273  1.1992 -1.7198
    1SOL    MW410768   1.322   2.777   4.560  0.3500  0.0796  0.3715
    1SOL     OW10769   1.147   3.780   4.687  0.0743  0.4130 -0.0690
    1SOL    HW210770   1.079   3.846   4.702  1.1580  1.6196 -0.3617
    1SOL    HW310771   1.208   3.791   4.760 -0.1354 -0.8050  0.3070
    1SOL    MW410772   1.146   3.790   4.698  0.1895  0.4115 -0.0577
    1SOL     OW10773   4.476   3.490   4.161 -0.2279 -0.7670 -0.0998
    1SOL    HW210774   4.541   3.551   4.197 -1.3298  0.4079 -0.0294
    1SOL    HW310775   4.477   3.508   4.067 -1.8792  0.7229  0.1372
    1SOL    MW410776   4.485   3.501   4.154 -0.5913 -0.4158 -0.0596
    1SOL     OW10777   3.152   1.826   4.476 -0.0315  0.3318 -0.0188
    1SOL    HW210778   3.234   1.858   4.439  0.3381  0.4129  0.8762
    1SOL    HW310779   3.151   1.859   4.566 -0.1280 -1.2860  0.5976
    1SOL    MW410780   3.163   1.834   4.483  0.0048  0.1290  0.1807
    1SOL     OW10781   4.058   3.916   4.670  0.3606  1.1167 -0.0313
    1SOL    HW210782   4.153   3.911   4.675  0.3032 -1.1951 -0.5642
    1SOL    HW310783   4.028   3.893   4.758  0.2526 -0.1914 -0.4070
    1SOL    MW410784   4.067   3.912   4.682  0.3390  0.6392 -0.1512
    1SOL     OW10785   2.671   3.250   4.498 -0.1775 -0.2835 -0.1771
    1SOL    HW210786   2.678   3.235   4.404 -1.0688  0.3875 -0.3507
    1SOL    HW310787   2.581   3.277   4.512  0.5643  1.9488  0.5469
    1SOL    MW410788   2.660   3.251   4.487 -0.1974  0.0994 -0.1044
    1SOL     OW10789   0.239   0.646   4.576  0.4817  0.0586  0.0127
    1SOL    HW210790   0.215   0.622   4.487 -3.3483  2.2716  0.3131
    1SOL    HW310791   0.308   0.711   4.567  2.3689 -2.0590 -1.1787
    1SOL    MW410792   0.245   0.651   4.563  0.2254  0.0712 -0.1044
    1SOL     OW10793   2.356   1.246   4.478 -0.6091 -0.0761 -0.1424
    1SOL    HW210794   2.385   1.264   4.389  0.2290 -0.3105  0.0826
    1SOL    HW310795   2.394   1.316   4.530  0.1376 -0.7733  0.2611
    1SOL    MW410796   2.365   1.258   4.473 -0.4001 -0.1990 -0.0596
    1SOL     OW10797   1.547   3.563   4.267  0.1027 -0.0185  0.3414
    1SOL    HW210798   1.466   3.529   4.231  0.5203  0.5020 -1.1269
    1SOL    HW310799   1.539   3.552   4.362 -1.9933  0.7413  0.2671
    1SOL    MW410800   1.536   3.557   4.275 -0.1187  0.1502  0.1378
    1SOL     OW10801   3.212   3.970   4.256 -0.5273  0.1582  0.0873
    1SOL    HW210802   3.295   3.942   4.217 -0.8196  0.0342 -0.4492
    1SOL    HW310803   3.220   3.946   4.348 -0.1062 -0.1757 -0.0349
    1SOL    MW410804   3.224   3.963   4.263 -0.5102  0.0978  0.0000
    1SOL     OW10805   0.191   2.058   4.247 -0.2352  0.3896 -0.3974
    1SOL    HW210806   0.108   2.034   4.205  0.5491 -0.4970 -1.4585
    1SOL    HW310807   0.253   1.992   4.217  0.1907 -0.7622  2.7996
    1SOL    MW410808   0.188   2.046   4.238 -0.0755  0.1206 -0.1159
    1SOL     OW10809   1.950   1.939   4.474 -0.0446  0.0345  1.0373
    1SOL    HW210810   1.965   2.033   4.467 -0.1058  0.2053  2.9482
    1SOL    HW310811   1.856   1.929   4.460  0.1575  0.1068 -0.4392
    1SOL    MW410812   1.940   1.950   4.471 -0.0260  0.0666  1.0948
    1SOL     OW10813   2.937   3.582   4.490  0.1181 -0.5091  0.2088
    1SOL    HW210814   2.901   3.497   4.516  0.1032 -1.0598 -1.5582
    1SOL    HW310815   3.032   3.571   4.501  0.2235 -1.2283 -1.3451
    1SOL    MW410816   2.945   3.569   4.495  0.1302 -0.6766 -0.2294
    1SOL     OW10817   0.171   3.659   4.534 -0.6779 -0.2756  0.4274
    1SOL    HW210818   0.169   3.674   4.439 -1.3293 -2.0624  0.1322
    1SOL    HW310819   0.205   3.740   4.571  1.5119 -0.2834 -1.4860
    1SOL    MW410820   0.175   3.671   4.526 -0.4749 -0.5124  0.1354
    1SOL     OW10821   1.802   3.207   4.250  0.2572 -0.3945 -0.4323
    1SOL    HW210822   1.726   3.157   4.219 -0.7812  0.9723 -0.1064
    1SOL    HW310823   1.791   3.294   4.213  1.3888 -0.0222  0.0703
    1SOL    MW410824   1.791   3.212   4.241  0.2697 -0.1650 -0.3228
    1SOL     OW10825   3.072   2.353   4.157 -0.2733  0.2240 -0.4353
    1SOL    HW210826   3.001   2.365   4.220  0.1563 -0.7399  0.2535
    1SOL    HW310827   3.028   2.329   4.075 -0.7661  0.1838 -0.1577
    1SOL    MW410828   3.057   2.351   4.154 -0.2818  0.0916 -0.3080
    1SOL     OW10829   2.691   3.770   4.499  0.4637  0.2510  0.9197
    1SOL    HW210830   2.777   3.729   4.512  1.0123  1.3922  1.0218
    1SOL    HW310831   2.629   3.698   4.506  1.4449 -0.6769  0.3810
    1SOL    MW410832   2.694   3.755   4.502  0.6654  0.2792  0.8626
    1SOL     OW10833   1.184   4.623   4.620 -0.4773  0.6851  0.2273
    1SOL    HW210834   1.264   4.673   4.600 -0.1739 -0.1980 -0.8216
    1SOL    HW310835   1.116   4.689   4.626  0.0914  1.3260 -0.2248
    1SOL    MW410836   1.186   4.638   4.618 -0.3623  0.6528  0.0291
    1SOL     OW10837   4.424   2.164   4.548 -0.1768 -0.2387  0.3687
    1SOL    HW210838   4.409   2.243   4.599  0.1430  0.8558 -1.1880
    1SOL    HW310839   4.518   2.166   4.527 -0.4034 -0.3609 -0.7191
    1SOL    MW410840   4.434   2.175   4.552 -0.1640 -0.1106  0.0196
    1SOL     OW10841   3.373   2.968   4.589  0.3745 -0.2031 -0.2884
    1SOL    HW210842   3.309   2.902   4.562  1.2892 -0.8639 -0.8800
    1SOL    HW310843   3.458   2.932   4.561  1.1387  0.0855  1.5711
    1SOL    MW410844   3.376   2.954   4.581  0.5958 -0.2522 -0.1211
    1SOL     OW10845   1.782   1.847   4.046 -0.2493 -0.6530  0.2845
    1SOL    HW210846   1.800   1.883   3.959 -0.6585 -0.0097  0.4579
    1SOL    HW310847   1.852   1.883   4.101 -0.3682 -0.5282  0.3545
    1SOL    MW410848   1.794   1.857   4.042 -0.3190 -0.5516  0.3161
    1SOL     OW10849   1.796   1.175   4.141  0.2812  0.1026 -0.2774
    1SOL    HW210850   1.779   1.085   4.169  0.1974 -0.2844 -1.5275
    1SOL    HW310851   1.876   1.200   4.186  0.5690 -0.7754 -0.2993
    1SOL    MW410852   1.804   1.166   4.151  0.3082 -0.0641 -0.4454
    1SOL     OW10853   3.570   3.241   4.322  0.1710 -0.2016  0.2016
    1SOL    HW210854   3.653   3.239   4.370 -0.7302  0.5766  1.8526
    1SOL    HW310855   3.552   3.150   4.301  0.6771 -0.5382  1.2008
    1SOL    MW410856   3.579   3.229   4.325  0.1190 -0.1435  0.5512
    1SOL     OW10857   0.708   0.521   4.494  0.8929  0.8979  0.1907
    1SOL    HW210858   0.621   0.490   4.520  1.8013 -0.1041  2.1355
    1SOL    HW310859   0.709   0.614   4.517  0.3108  0.9261  0.1010
    1SOL    MW410860   0.696   0.529   4.501  0.9360  0.7694  0.4349
    1SOL     OW10861   2.264   2.891   4.666  0.0183  0.3480  0.4002
    1SOL    HW210862   2.310   2.836   4.602  1.0089 -0.4905  1.8003
    1SOL    HW310863   2.224   2.829   4.727 -0.6238  1.1369  0.7919
    1SOL    MW410864   2.265   2.875   4.666  0.0641  0.3414  0.6371
    1SOL     OW10865   3.253   1.755   4.810  0.0360 -0.9114 -0.1430
    1SOL    HW210866   3.338   1.730   4.775  0.3852 -0.1728  0.1605
    1SOL    HW310867   3.214   1.672   4.839  0.6060 -1.2674 -0.3769
    1SOL    MW410868   3.259   1.740   4.809  0.1574 -0.8609 -0.1340
    1SOL     OW10869   1.550   2.280   4.156 -0.2144  0.0703 -0.5954
    1SOL    HW210870   1.609   2.330   4.212  0.9576 -1.0422 -0.8295
    1SOL    HW310871   1.561   2.189   4.184 -1.2140 -0.2373 -1.1780
    1SOL    MW410872   1.559   2.274   4.167 -0.1918 -0.1171 -0.7029
    1SOL     OW10873   1.045   2.016   4.584  0.6065 -0.4023  0.1252
    1SOL    HW210874   0.979   1.951   4.608 -0.2975  0.0255 -1.1435
    1SOL    HW310875   1.011   2.098   4.618  0.7211 -0.2593 -0.1090
    1SOL    MW410876   1.032   2.018   4.591  0.5022 -0.3269 -0.0730
    1SOL     OW10877   4.153   0.318   4.688  0.4066  0.0431 -0.0158
    1SOL    HW210878   4.106   0.400   4.672 -0.6889 -0.7277 -0.7989
    1SOL    HW310879   4.246   0.342   4.679  0.0584  0.9507 -1.4360
    1SOL    MW410880   4.159   0.332   4.685  0.2165  0.0612 -0.3066
    1SOL     OW10881   2.052   3.013   4.517 -0.3841 -0.3661  0.3209
    1SOL    HW210882   2.059   2.965   4.435 -1.2121  0.1588 -0.0648
    1SOL    HW310883   2.132   2.990   4.565 -0.1397 -1.0765 -0.4086
    1SOL    MW410884   2.063   3.004   4.513 -0.4609 -0.3905  0.1740
    1SOL     OW10885   4.266   3.882   4.214  0.1875 -0.2542  0.2148
    1SOL    HW210886   4.260   3.786   4.213  0.9323 -0.3115  0.6066
    1SOL    HW310887   4.251   3.907   4.123 -0.4047 -0.7177  0.1820
    1SOL    MW410888   4.263   3.872   4.202  0.2074 -0.3231  0.2623
    1SOL     OW10889   0.706   2.911   4.482  0.2635 -0.2442 -0.2674
    1SOL    HW210890   0.686   2.895   4.389 -1.2032 -1.4037  0.2460
    1SOL    HW310891   0.791   2.869   4.495  0.9006  0.6866 -1.3004
    1SOL    MW410892   0.715   2.903   4.471  0.1541 -0.2747 -0.3357
    1SOL     OW10893   1.146   0.723   4.651 -0.1395 -0.2742 -0.5654
    1SOL    HW210894   1.150   0.649   4.591  0.4624 -0.1660 -0.6585
    1SOL    HW310895   1.224   0.775   4.631 -0.3527  0.1820 -0.2358
    1SOL    MW410896   1.157   0.720   4.640 -0.0882 -0.1997 -0.5341
    1SOL     OW10897   4.314   2.910   4.359 -0.1048 -0.2683 -0.0593
    1SOL    HW210898   4.312   2.986   4.301 -0.4896  0.3519  0.7584
    1SOL    HW310899   4.231   2.865   4.343 -0.2558 -0.0407  0.0734
    1SOL    MW410900   4.303   2.914   4.349 -0.1760 -0.1564  0.0663
    1SOL     OW10901   0.200   4.637   4.141  0.0349 -0.1195  0.6517
    1SOL    HW210902   0.281   4.687   4.154 -0.5112  0.3660  2.2744
    1SOL    HW310903   0.217   4.553   4.183  0.0948 -0.4445 -0.0097
    1SOL    MW410904   0.213   4.633   4.148 -0.0292 -0.0982  0.7787
    1SOL     OW10905   3.233   2.175   4.285 -0.0237  0.2226 -0.0517
    1SOL    HW210906   3.165   2.223   4.239 -0.1646  0.9667  0.9023
    1SOL    HW310907   3.213   2.189   4.378  0.3103 -1.1446  0.2417
    1SOL    MW410908   3.221   2.183   4.291  0.0017  0.1402  0.1125
    1SOL     OW10909   0.398   1.137   4.170  0.2400  0.1530 -0.3549
    1SOL    HW210910   0.407   1.050   4.210 -0.3283  0.4184  0.3388
    1SOL    HW310911   0.399   1.120   4.075 -0.0927 -0.6234 -0.2167
    1SOL    MW410912   0.400   1.123   4.162  0.1211  0.0856 -0.2451
    1SOL     OW10913   2.262   3.246   4.266 -0.1020 -0.4158  0.3115
    1SOL    HW210914   2.188   3.195   4.233 -0.3315  0.8268 -1.1736
    1SOL    HW310915   2.244   3.257   4.359 -1.0260 -1.3840  0.2532
    1SOL    MW410916   2.250   3.241   4.274 -0.2542 -0.3796  0.1078
    1SOL     OW10917   0.014   0.110   4.279 -0.3321 -0.0800  0.7279
    1SOL    HW210918   0.030   0.199   4.249 -0.5195 -0.5980 -0.9754
    1SOL    HW310919   0.077   0.056   4.231 -0.9296 -0.9909  0.9482
    1SOL    MW410920   0.024   0.114   4.269 -0.4357 -0.2685  0.5322
    1SOL     OW10921   1.346   3.912   4.523  0.2576 -0.4456 -0.2146
    1SOL    HW210922   1.321   3.909   4.431 -0.5241  2.7054 -0.1614
    1SOL    HW310923   1.272   3.873   4.570  0.1059 -0.8925 -0.8261
    1SOL    MW410924   1.333   3.906   4.517  0.1345 -0.0889 -0.2880
    1SOL     OW10925   0.742   3.778   4.670 -0.0472 -0.3395  0.3319
    1SOL    HW210926   0.677   3.773   4.740 -0.4063 -1.0178 -0.0538
    1SOL    HW310927   0.734   3.696   4.623  1.1755 -0.4827  0.3478
    1SOL    MW410928   0.732   3.767   4.673  0.0668 -0.4480  0.2832
    1SOL     OW10929   2.202   1.588   4.549 -0.2788 -0.3514  0.2623
    1SOL    HW210930   2.281   1.553   4.590  0.6992  1.8121  0.2536
    1SOL    HW310931   2.180   1.665   4.601 -0.8579  0.5952 -1.3518
    1SOL    MW410932   2.209   1.593   4.561 -0.2265  0.0590  0.0486
    1SOL     OW10933   2.473   1.034   4.626  0.4811  0.2929 -0.0156
    1SOL    HW210934   2.435   1.105   4.573  0.1615 -1.0785 -1.6507
    1SOL    HW310935   2.496   1.077   4.708  0.4239  2.3505 -1.0165
    1SOL    MW410936   2.471   1.049   4.630  0.4311  0.3834 -0.3629
    1SOL     OW10937   1.113   0.739   4.160  0.0852  0.7601  0.1714
    1SOL    HW210938   1.119   0.647   4.186 -1.6154  0.3036 -0.9909
    1SOL    HW310939   1.194   0.778   4.192  0.5984 -1.0295  1.1228
    1SOL    MW410940   1.124   0.732   4.168 -0.0713  0.4638  0.1440
    1SOL     OW10941   3.932   0.810   4.538 -0.0123  0.0424  0.0365
    1SOL    HW210942   3.924   0.897   4.577  0.9487 -0.2211  0.8311
    1SOL    HW310943   3.982   0.825   4.457  1.2918  0.0459  0.8381
    1SOL    MW410944   3.938   0.824   4.532  0.2868  0.0081  0.2470
    1SOL     OW10945   2.255   0.883   4.535 -0.2639 -0.4343  0.3622
    1SOL    HW210946   2.269   0.895   4.441  0.0518 -0.2860  0.4268
    1SOL    HW310947   2.326   0.932   4.576 -0.5903 -0.2299  0.6843
    1SOL    MW410948   2.267   0.891   4.528 -0.2656 -0.3878  0.4139
    1SOL     OW10949   1.338   3.250   4.290  0.0372 -0.0279 -0.8918
    1SOL    HW210950   1.331   3.279   4.381 -0.2033 -0.0010 -0.9179
    1SOL    HW310951   1.259   3.198   4.276  1.3786 -2.2940 -0.2583
    1SOL    MW410952   1.327   3.247   4.301  0.1825 -0.3233 -0.8116
    1SOL     OW10953   1.061   2.291   4.176  0.0219 -0.2400  0.3247
    1SOL    HW210954   1.144   2.334   4.196  0.4640 -1.2582  0.7123
    1SOL    HW310955   1.061   2.212   4.230 -0.9995 -0.4799 -0.0079
    1SOL    MW410956   1.072   2.286   4.186 -0.0546 -0.4063  0.3314
    1SOL     OW10957   4.300   1.515   4.644 -0.1125  0.0639 -0.0551
    1SOL    HW210958   4.269   1.539   4.732 -0.5977  2.5136 -0.8758
    1SOL    HW310959   4.396   1.514   4.652 -0.1277  1.1563  0.2728
    1SOL    MW410960   4.309   1.518   4.657 -0.1783  0.5312 -0.1202
    1SOL     OW10961   3.822   0.443   4.475 -0.2957  0.5331  0.1372
    1SOL    HW210962   3.895   0.490   4.514 -0.8204  0.1582  1.6105
    1SOL    HW310963   3.745   0.494   4.499 -0.8045 -0.6960  1.1704
    1SOL    MW410964   3.821   0.456   4.483 -0.4320  0.3214  0.4683
    1SOL     OW10965   3.181   0.857   4.565 -0.2872 -0.0698 -0.3155
    1SOL    HW210966   3.196   0.883   4.474 -0.4989  1.5772  0.1047
    1SOL    HW310967   3.267   0.830   4.596  0.0598  0.6955 -0.5991
    1SOL    MW410968   3.194   0.857   4.557 -0.2692  0.2485 -0.2975
    1SOL     OW10969   3.459   4.136   4.506  0.3261 -0.1148 -0.0525
    1SOL    HW210970   3.522   4.144   4.434 -1.2548  1.1337 -1.3210
    1SOL    HW310971   3.414   4.220   4.509 -0.6856 -0.6804  1.4178
    1SOL    MW410972   3.461   4.148   4.497 -0.0157 -0.0243 -0.0257
    1SOL     OW10973   0.451   0.144   4.477  0.3944 -0.1958  0.5759
    1SOL    HW210974   0.480   0.234   4.493 -0.3569  0.0465  0.5562
    1SOL    HW310975   0.429   0.143   4.383 -0.2965 -0.2088  0.7393
    1SOL    MW410976   0.452   0.156   4.466  0.2041 -0.1655  0.5946
    1SOL     OW10977   0.218   2.134   4.503  0.5435  0.0737 -0.1289
    1SOL    HW210978   0.239   2.059   4.559  0.5591  0.1655 -0.0105
    1SOL    HW310979   0.220   2.099   4.414  1.2960  0.1014 -0.1253
    1SOL    MW410980   0.221   2.119   4.499  0.6448  0.0894 -0.1130
    1SOL     OW10981   2.030   1.228   4.267  0.3144 -0.5031 -0.3767
    1SOL    HW210982   2.047   1.320   4.248  3.5442 -1.2295 -1.4292
    1SOL    HW310983   2.032   1.222   4.363 -2.0277  0.8436 -0.2214
    1SOL    MW410984   2.033   1.239   4.277  0.4315 -0.4212 -0.4950
    1SOL     OW10985   4.313   4.620   4.168  0.1980  0.3232 -0.4986
    1SOL    HW210986   4.230   4.661   4.193  0.9432 -0.5359  3.7092
    1SOL    HW310987   4.380   4.678   4.205  1.3286 -2.0787  1.3326
    1SOL    MW410988   4.311   4.633   4.176  0.4449 -0.1073  0.2985
    1SOL     OW10989   2.710   2.508   4.680 -0.0030  0.2965  0.0923
    1SOL    HW210990   2.660   2.450   4.623  0.7561  0.1601 -0.4430
    1SOL    HW310991   2.707   2.593   4.635 -0.7480  0.5688  0.6553
    1SOL    MW410992   2.703   2.512   4.667 -0.0010  0.3147  0.0958
    1SOL     OW10993   2.027   4.328   4.454 -0.1077  0.3727  0.2577
    1SOL    HW210994   2.035   4.353   4.362  0.4474  0.7888  0.4144
    1SOL    HW310995   1.959   4.386   4.489 -0.8530 -0.2939 -0.0622
    1SOL    MW410996   2.019   4.339   4.447 -0.1326  0.3395  0.2360
    1SOL     OW10997   3.292   4.364   4.551  0.0662 -0.0523  0.2781
    1SOL    HW210998   3.209   4.410   4.543 -1.3304 -2.5833 -0.4106
    1SOL    HW310999   3.357   4.433   4.564 -1.5835  2.2987 -3.1923
    1SOL    MW411000   3.290   4.379   4.551 -0.3357 -0.0768 -0.2704
    1SOL     OW11001   3.723   4.157   4.611 -0.1491 -0.3659 -0.3268
    1SOL    HW211002   3.633   4.129   4.597 -0.5343  2.1212 -3.4803
    1SOL    HW311003   3.776   4.093   4.565 -0.3897 -0.9574  0.2136
    1SOL    MW411004   3.718   4.145   4.603 -0.2315 -0.1159 -0.6719
    1SOL     OW11005   2.907   2.314   4.564 -0.2450  0.6063 -0.2790
    1SOL    HW211006   2.881   2.342   4.476  0.8319  1.7763 -0.2444
    1SOL    HW311007   2.851   2.364   4.623  0.4610  1.3827 -0.2587
    1SOL    MW411008   2.896   2.324   4.560 -0.0098  0.8631 -0.2718
    1SOL     OW11009   1.793   4.211   4.157 -0.6772 -0.1327 -0.1965
    1SOL    HW211010   1.788   4.210   4.062  0.0590 -0.1118 -0.2370
    1SOL    HW311011   1.874   4.258   4.177 -0.9195  0.0238  0.4432
    1SOL    MW411012   1.803   4.217   4.147 -0.6120 -0.1097 -0.1173
    1SOL     OW11013   2.253   1.119   4.139 -0.3764  0.3206  0.1654
    1SOL    HW211014   2.175   1.162   4.174 -0.7023  0.1903 -0.3842
    1SOL    HW311015   2.320   1.187   4.140 -0.4714  0.4072  0.7310
    1SOL    MW411016   2.252   1.133   4.144 -0.4323  0.3147  0.1674
    1SOL     OW11017   0.654   4.350   4.546  0.3981 -0.0563  0.0051
    1SOL    HW211018   0.658   4.437   4.585  0.0799 -0.1149  0.1704
    1SOL    HW311019   0.576   4.310   4.585 -0.5615  0.2844 -1.5294
    1SOL    MW411020   0.644   4.356   4.556  0.2295 -0.0191 -0.1760
    1SOL     OW11021   3.064   0.324   4.539  0.3637  0.2450  0.2363
    1SOL    HW211022   3.055   0.419   4.548  1.3960  0.3065  0.6829
    1SOL    HW311023   2.974   0.292   4.538  0.0154  1.1410  1.0891
    1SOL    MW411024   3.051   0.333   4.540  0.4539  0.3714  0.4077
    1SOL     OW11025   4.115   1.578   4.436 -0.4815 -0.7018  0.5427
    1SOL    HW211026   4.164   1.558   4.356  0.6878 -2.6255  1.6628
    1SOL    HW311027   4.175   1.551   4.507 -2.1149 -0.5500  2.0083
    1SOL    MW411028   4.129   1.572   4.435 -0.5426 -0.9356  0.8841
    1SOL     OW11029   1.821   1.830   4.760  0.1162  0.0203  0.0347
    1SOL    HW211030   1.776   1.770   4.700  0.5450 -1.0006  0.7256
    1SOL    HW311031   1.913   1.804   4.755  0.3751  0.9538 -0.0327
    1SOL    MW411032   1.827   1.818   4.751  0.2069  0.0087  0.1168
    1SOL     OW11033   1.318   1.892   4.554  0.1775 -0.6052  0.2170
    1SOL    HW211034   1.392   1.929   4.601  0.3133 -0.1677 -0.3364
    1SOL    HW311035   1.242   1.942   4.584  0.3696  0.1622 -0.5736
    1SOL    MW411036   1.318   1.903   4.564  0.2208 -0.4462  0.0401
    1SOL     OW11037   2.925   2.816   4.184 -0.4719 -0.2933 -0.5364
    1SOL    HW211038   2.914   2.910   4.168 -2.1512 -0.3001  0.4505
    1SOL    HW311039   2.843   2.777   4.154  0.4468 -1.5351 -1.4893
    1SOL    MW411040   2.912   2.824   4.178 -0.5722 -0.4580 -0.5312
    1SOL     OW11041   1.567   0.721   4.170 -0.6403 -0.0540 -0.2901
    1SOL    HW211042   1.646   0.772   4.185  0.0875 -0.8560 -1.2909
    1SOL    HW311043   1.547   0.735   4.077 -0.5591 -1.3855 -0.5196
    1SOL    MW411044   1.575   0.730   4.160 -0.5335 -0.3355 -0.4525
    1SOL     OW11045   3.756   2.237   4.597  0.5308  0.1862  0.2968
    1SOL    HW211046   3.784   2.326   4.619  0.2699  0.6456 -1.1264
    1SOL    HW311047   3.718   2.246   4.509 -0.1489 -1.2050  0.4495
    1SOL    MW411048   3.755   2.250   4.588  0.4070  0.0634  0.1297
    1SOL     OW11049   4.034   4.023   4.248 -0.3165 -0.2375  0.0222
    1SOL    HW211050   4.086   3.943   4.254  0.0330 -0.0394 -0.3188
    1SOL    HW311051   3.996   4.034   4.336  0.2673 -0.3497  0.2906
    1SOL    MW411052   4.036   4.014   4.261 -0.1931 -0.2265  0.0124
    1SOL     OW11053   2.609   4.380   4.419  0.2312  0.0383 -0.5358
    1SOL    HW211054   2.690   4.340   4.452  0.1256 -2.2183 -2.8190
    1SOL    HW311055   2.540   4.344   4.475  0.7060  1.3648  0.9252
    1SOL    MW411056   2.611   4.370   4.430  0.2801 -0.0844 -0.6447
    1SOL     OW11057   0.409   4.366   4.899 -0.3960  0.0670  0.2096
    1SOL    HW211058   0.374   4.375   4.988 -0.5837 -1.1010  0.2636
    1SOL    HW311059   0.438   4.454   4.876 -2.3233  0.8353  0.5938
    1SOL    MW411060   0.408   4.379   4.908 -0.6750  0.0143  0.2680
    1SOL     OW11061   1.118   3.198   4.676  0.1407  0.6762 -0.0084
    1SOL    HW211062   1.054   3.269   4.673  0.1806  0.7056 -0.1621
    1SOL    HW311063   1.192   3.229   4.624 -1.2981 -0.8985 -3.2101
    1SOL    MW411064   1.119   3.211   4.669 -0.0440  0.4721 -0.4511
    1SOL     OW11065   0.170   2.509   4.554 -0.2819  0.3875  0.1860
    1SOL    HW211066   0.180   2.595   4.595  0.9076  0.7041 -0.7350
    1SOL    HW311067   0.256   2.468   4.564 -0.8564 -0.7073  0.6474
    1SOL    MW411068   0.183   2.515   4.561 -0.2008  0.2847  0.1254
    1SOL     OW11069   2.063   1.205   4.540 -0.4204 -0.2999  0.2634
    1SOL    HW211070   2.025   1.292   4.530  1.3403  0.6040  1.3152
    1SOL    HW311071   2.155   1.216   4.517 -0.2319 -1.9544  0.1448
    1SOL    MW411072   2.070   1.218   4.535 -0.1631 -0.3989  0.3862
    1SOL     OW11073   0.389   0.880   4.279 -0.2163  0.0172 -0.1189
    1SOL    HW211074   0.457   0.841   4.225  0.5925  0.5956  0.4629
    1SOL    HW311075   0.307   0.855   4.237  0.3773 -0.1296 -1.2083
    1SOL    MW411076   0.387   0.872   4.266 -0.0313  0.0741 -0.1860
    1SOL     OW11077   2.620   1.850   4.053 -0.1843 -0.0901  0.1832
    1SOL    HW211078   2.597   1.768   4.096  0.5228  0.3563  1.4462
    1SOL    HW311079   2.547   1.909   4.072 -0.4357 -0.2606 -0.2556
    1SOL    MW411080   2.607   1.847   4.061 -0.1245 -0.0536  0.2918
    1SOL     OW11081   3.633   1.790   4.522  0.3739 -0.4941 -0.0605
    1SOL    HW211082   3.718   1.765   4.484  1.1660  1.0139  0.6639
    1SOL    HW311083   3.650   1.873   4.565 -1.4619 -0.2468  0.2238
    1SOL    MW411084   3.647   1.798   4.522  0.2360 -0.2626  0.0720
    1SOL     OW11085   2.298   2.505   4.730  0.1135  0.3093  0.0957
    1SOL    HW211086   2.321   2.512   4.638  0.6546  1.9312  0.3394
    1SOL    HW311087   2.383   2.500   4.775 -0.1529 -1.3936  0.4629
    1SOL    MW411088   2.312   2.505   4.724  0.1500  0.2985  0.1764
    1SOL     OW11089   1.186   1.172   4.638 -0.2400 -0.4377 -0.6015
    1SOL    HW211090   1.162   1.257   4.602  0.2025 -0.3282 -0.6449
    1SOL    HW311091   1.104   1.136   4.674 -0.3885  0.0890 -0.4101
    1SOL    MW411092   1.172   1.178   4.638 -0.2011 -0.3537 -0.5817
    1SOL     OW11093   3.611   0.989   4.596  0.7073  0.0375  0.4458
    1SOL    HW211094   3.576   1.066   4.550  0.2341 -1.0909 -1.1235
    1SOL    HW311095   3.534   0.944   4.629  0.9491 -0.0967  0.8264
    1SOL    MW411096   3.596   0.993   4.594  0.6766 -0.1290  0.2894
    1SOL     OW11097   1.780   3.961   4.277 -0.3425  0.3696 -0.1387
    1SOL    HW211098   1.776   4.052   4.247 -0.4711  0.3182 -0.2796
    1SOL    HW311099   1.782   3.967   4.373  0.5917  0.5538 -0.1656
    1SOL    MW411100   1.779   3.974   4.286 -0.2362  0.3870 -0.1607
    1SOL     OW11101   4.051   0.910   4.286  0.0958  0.7027  0.0593
    1SOL    HW211102   3.978   0.862   4.248 -1.0080  1.4162  1.2256
    1SOL    HW311103   4.129   0.862   4.258 -0.7099  0.7857 -2.4244
    1SOL    MW411104   4.051   0.898   4.278 -0.1554  0.8078 -0.1144
    1SOL     OW11105   0.200   0.530   4.284 -0.4633  0.0852 -0.0227
    1SOL    HW211106   0.133   0.485   4.232 -0.8524  0.2283  0.3438
    1SOL    HW311107   0.282   0.489   4.260 -0.6751 -0.0205 -0.5618
    1SOL    MW411108   0.202   0.519   4.274 -0.5425  0.0902 -0.0458
    1SOL     OW11109   0.938   3.386   4.624  0.3608  0.1341 -0.3648
    1SOL    HW211110   0.866   3.449   4.631  0.0283 -0.1227 -1.3561
    1SOL    HW311111   1.012   3.439   4.594 -0.0800 -0.0367 -1.8130
    1SOL    MW411112   0.938   3.402   4.621  0.2587  0.0775 -0.6866
    1SOL     OW11113   1.992   3.487   4.559  0.2710 -0.2512 -0.5126
    1SOL    HW211114   1.925   3.420   4.567 -1.2768  1.5988  3.0530
    1SOL    HW311115   1.955   3.550   4.497  0.2658 -0.9779 -1.2566
    1SOL    MW411116   1.978   3.487   4.552  0.0659 -0.1032 -0.1407
    1SOL     OW11117   0.013   3.997   4.292 -0.4657  0.0933  0.0153
    1SOL    HW211118  -0.068   3.953   4.269 -0.1569  0.2548 -1.4078
    1SOL    HW311119   0.016   4.073   4.235  0.0615  0.7972  0.9605
    1SOL    MW411120   0.003   4.001   4.282 -0.3554  0.2074 -0.0482
    1SOL     OW11121   0.269   4.655   4.621  0.4745  0.2867  0.1909
    1SOL    HW211122   0.316   4.715   4.563  2.0402  0.7646  1.9266
    1SOL    HW311123   0.185   4.699   4.637  0.9995  1.2967  0.2332
    1SOL    MW411124   0.264   4.669   4.616  0.7503  0.4826  0.4258
    1SOL     OW11125   0.694   3.520   4.582 -0.2631  0.0684  0.1903
    1SOL    HW211126   0.610   3.521   4.628 -0.2171 -0.6423  0.2881
    1SOL    HW311127   0.672   3.538   4.491 -0.6659 -1.4265 -0.0158
    1SOL    MW411128   0.680   3.523   4.576 -0.3102 -0.2227  0.1760
    1SOL     OW11129   0.018   0.379   4.132  0.3004  0.6992 -0.4987
    1SOL    HW211130   0.007   0.355   4.040 -0.9086  0.7465 -0.3803
    1SOL    HW311131  -0.044   0.450   4.146  1.4533  1.6159  0.0152
    1SOL    MW411132   0.008   0.385   4.122  0.2930  0.8264 -0.4153
    1SOL     OW11133   1.292   1.960   4.128 -0.8863  0.0289  0.3191
    1SOL    HW211134   1.377   1.981   4.167 -1.3547  1.1860  0.7602
    1SOL    HW311135   1.289   1.865   4.126  0.8141 -0.0121 -0.5707
    1SOL    MW411136   1.303   1.951   4.133 -0.7237  0.1762  0.2599
    1SOL     OW11137   1.558   3.076   4.216  0.1028  0.2002  0.1614
    1SOL    HW211138   1.480   3.128   4.235 -0.1313 -0.5738  1.3823
    1SOL    HW311139   1.576   3.030   4.298  0.4205 -1.4742 -0.8354
    1SOL    MW411140   1.550   3.077   4.230  0.1140 -0.1230  0.1907
    1SOL     OW11141   2.480   3.611   4.213  0.5404 -0.2832  0.2230
    1SOL    HW211142   2.393   3.574   4.200  1.0485 -1.8274  1.0716
    1SOL    HW311143   2.496   3.600   4.307  1.4522  0.4318  0.1499
    1SOL    MW411144   2.470   3.605   4.224  0.7277 -0.3927  0.3257
    1SOL     OW11145   2.571   2.479   4.288 -0.1016  0.0274  0.0922
    1SOL    HW211146   2.505   2.490   4.356 -0.0081 -0.0166  0.1888
    1SOL    HW311147   2.527   2.425   4.221 -0.5837  1.0411 -0.4223
    1SOL    MW411148   2.556   2.473   4.288 -0.1528  0.1552  0.0372
    1SOL     OW11149   4.342   3.487   4.753  0.1857 -0.4231  0.0693
    1SOL    HW211150   4.254   3.463   4.780 -0.0456  1.4364  1.0369
    1SOL    HW311151   4.331   3.525   4.666  0.2111 -1.3972 -0.3615
    1SOL    MW411152   4.329   3.489   4.745  0.1588 -0.3061  0.1397
    1SOL     OW11153   0.861   2.453   4.277  0.6101 -0.1133  0.1980
    1SOL    HW211154   0.784   2.403   4.251  0.0808  0.6965  0.1941
    1SOL    HW311155   0.935   2.400   4.247  0.0686 -1.0603  0.5058
    1SOL    MW411156   0.861   2.439   4.270  0.4689 -0.1314  0.2379
    1SOL     OW11157   2.393   1.995   4.141 -0.2449 -0.3502  0.1793
    1SOL    HW211158   2.337   1.957   4.073 -0.9807 -0.4697  0.8475
    1SOL    HW311159   2.391   2.089   4.124 -2.0935 -0.1684  1.2651
    1SOL    MW411160   2.385   2.003   4.130 -0.5860 -0.3421  0.4106
    1SOL     OW11161   2.687   4.070   4.507 -0.5651 -0.1980  0.1301
    1SOL    HW211162   2.597   4.086   4.534 -0.4804 -0.5384  0.6342
    1SOL    HW311163   2.707   3.983   4.543 -0.1387 -0.2478 -0.2329
    1SOL    MW411164   2.678   4.061   4.516 -0.4976 -0.2494  0.1493
    1SOL     OW11165   3.819   1.491   4.673 -0.2294  0.0224  0.6218
    1SOL    HW211166   3.886   1.551   4.705 -0.1389 -0.0799  0.6233
    1SOL    HW311167   3.868   1.414   4.644 -0.4225 -0.4051  1.4344
    1SOL    MW411168   3.834   1.489   4.673 -0.2429 -0.0476  0.7291
    1SOL     OW11169   3.726   1.516   4.184 -0.0213 -0.4517 -0.4591
    1SOL    HW211170   3.631   1.519   4.196 -0.1148 -0.4058 -1.2051
    1SOL    HW311171   3.760   1.576   4.251 -0.5073 -0.5243 -0.1373
    1SOL    MW411172   3.718   1.524   4.195 -0.0978 -0.4551 -0.5145
    1SOL     OW11173   4.264   1.309   4.298  0.2874  0.3835  0.4143
    1SOL    HW211174   4.195   1.256   4.257  1.5887 -0.6584 -0.4767
    1SOL    HW311175   4.261   1.285   4.390  0.0612 -0.3496  0.2208
    1SOL    MW411176   4.254   1.299   4.305  0.4292  0.1493  0.2704
    1SOL     OW11177   2.162   0.111   4.286  0.1875  0.4604  0.2392
    1SOL    HW211178   2.234   0.051   4.302  1.0347  1.1763 -0.8680
    1SOL    HW311179   2.125   0.128   4.373  2.6839  1.7512  1.0894
    1SOL    MW411180   2.166   0.106   4.300  0.6289  0.7252  0.2050
    1SOL     OW11181   0.786   0.834   4.813 -0.1995  0.0446 -0.7041
    1SOL    HW211182   0.858   0.885   4.775 -0.9722  0.4546 -1.6305
    1SOL    HW311183   0.823   0.746   4.822  0.1115  0.0097 -2.1359
    1SOL    MW411184   0.801   0.829   4.809 -0.2605  0.0941 -1.0147
    1SOL     OW11185   1.336   0.864   4.264  0.0383 -0.4914  0.0482
    1SOL    HW211186   1.406   0.806   4.235  0.1195 -0.5693  0.3975
    1SOL    HW311187   1.352   0.946   4.217 -1.0494 -1.2757 -1.7210
    1SOL    MW411188   1.347   0.867   4.254 -0.0945 -0.6052 -0.1392
    1SOL     OW11189   3.416   1.293   4.239  0.2134 -0.2009  0.5689
    1SOL    HW211190   3.409   1.385   4.211  0.2296 -0.4474 -0.2504
    1SOL    HW311191   3.333   1.254   4.212  0.8007 -0.7846 -0.4371
    1SOL    MW411192   3.404   1.300   4.232  0.2933 -0.3104  0.3281
    1SOL     OW11193   1.782   0.894   4.196 -0.1911 -0.0913 -0.5330
    1SOL    HW211194   1.871   0.867   4.171 -0.4552 -0.9589 -0.5343
    1SOL    HW311195   1.778   0.878   4.290  0.0442  1.0617 -0.3183
    1SOL    MW411196   1.793   0.889   4.205 -0.1949 -0.0536 -0.5054
    1SOL     OW11197   1.803   1.612   4.180 -0.3178  0.2276 -0.0417
    1SOL    HW211198   1.893   1.580   4.182 -0.3529  0.2158  1.2390
    1SOL    HW311199   1.804   1.681   4.113  0.9255  1.0725  0.8246
    1SOL    MW411200   1.815   1.617   4.171 -0.1584  0.3376  0.2413
    1SOL     OW11201   2.365   2.009   4.413 -0.4128  0.3267 -0.1998
    1SOL    HW211202   2.348   1.987   4.321 -2.4517 -1.2214  0.4899
    1SOL    HW311203   2.311   2.086   4.429 -0.3498  0.3713 -0.2044
    1SOL    MW411204   2.356   2.016   4.403 -0.6733  0.1280 -0.1101
    1SOL     OW11205   2.795   2.002   4.200 -0.0890  0.3531  0.2461
    1SOL    HW211206   2.762   1.931   4.144 -0.1247  0.3886  0.2218
    1SOL    HW311207   2.822   1.958   4.280  0.2177  0.2665  0.0945
    1SOL    MW411208   2.794   1.987   4.203 -0.0534  0.3463  0.2227
    1SOL     OW11209   2.171   3.274   4.515 -0.4788 -0.2095  0.6393
    1SOL    HW211210   2.116   3.195   4.518 -0.6584 -0.0661  1.1238
    1SOL    HW311211   2.109   3.347   4.522 -0.3326 -0.0193 -0.0419
    1SOL    MW411212   2.155   3.273   4.516 -0.4830 -0.1655  0.6132
    1SOL     OW11213   1.791   2.382   4.321 -0.4702  0.2881 -0.0627
    1SOL    HW211214   1.839   2.307   4.356 -0.6516 -0.4981 -1.5043
    1SOL    HW311215   1.806   2.451   4.386  1.3395 -0.3926  0.2832
    1SOL    MW411216   1.799   2.381   4.335 -0.2553  0.0944 -0.2069
    1SOL     OW11217   3.961   1.290   4.537  0.2624 -0.0766 -0.1500
    1SOL    HW211218   3.923   1.210   4.575  1.4761 -0.6273 -0.0572
    1SOL    HW311219   3.928   1.292   4.447  0.2764 -0.7220 -0.1714
    1SOL    MW411220   3.952   1.279   4.530  0.4246 -0.2346 -0.1411
    1SOL     OW11221   0.216   3.902   4.656  0.2899  0.3690 -0.3182
    1SOL    HW211222   0.143   3.961   4.634  1.1483  2.1040  1.4041
    1SOL    HW311223   0.291   3.938   4.610 -0.0396 -1.9025 -2.7816
    1SOL    MW411224   0.216   3.914   4.647  0.3597  0.2980 -0.4158
    1SOL     OW11225   2.701   2.746   4.563  0.1287 -0.1212 -0.2774
    1SOL    HW211226   2.612   2.753   4.529 -0.9909  2.8600  3.0378
    1SOL    HW311227   2.725   2.835   4.587  3.4939 -1.1059  0.2880
    1SOL    MW411228   2.693   2.759   4.561  0.4249  0.1423  0.2346
    1SOL     OW11229   2.909   3.074   4.119 -0.5525 -0.0797 -0.0036
    1SOL    HW211230   2.915   3.068   4.024 -0.4248  1.2987 -0.1002
    1SOL    HW311231   2.986   3.124   4.145 -1.2568  0.6699  0.6976
    1SOL    MW411232   2.920   3.080   4.110 -0.6285  0.2012  0.0758
    1SOL     OW11233   1.566   2.924   4.445  0.0505  0.2845 -0.0485
    1SOL    HW211234   1.613   2.967   4.517  1.4553  0.4521 -1.0518
    1SOL    HW311235   1.485   2.893   4.485 -0.0852  2.1210  1.1639
    1SOL    MW411236   1.561   2.926   4.460  0.2180  0.5491 -0.0205
    1SOL     OW11237   1.150   0.472   4.249  0.3002  0.1355  0.4772
    1SOL    HW211238   1.079   0.424   4.206  0.5895  0.0146  0.1311
    1SOL    HW311239   1.229   0.423   4.228  0.8417  1.7247 -1.3933
    1SOL    MW411240   1.151   0.459   4.240  0.4100  0.3293  0.1845
    1SOL     OW11241   1.450   1.247   4.636 -0.4358 -0.2977  0.4421
    1SOL    HW211242   1.355   1.241   4.646 -0.3737  0.1370  1.3235
    1SOL    HW311243   1.483   1.162   4.667 -0.5545 -0.5836 -0.1996
    1SOL    MW411244   1.442   1.235   4.641 -0.4433 -0.2780  0.4740
    1SOL     OW11245   0.244   2.785   4.538  0.1962  0.1488  0.0282
    1SOL    HW211246   0.278   2.793   4.449 -0.6183  0.1594 -0.2782
    1SOL    HW311247   0.170   2.846   4.542  1.2225  1.3709  1.2047
    1SOL    MW411248   0.239   2.794   4.527  0.2242  0.3116  0.1440
    1SOL     OW11249   3.418   1.932   4.398 -0.1101  0.2780  0.0947
    1SOL    HW211250   3.392   1.999   4.462 -0.1159  0.1609  0.2166
    1SOL    HW311251   3.484   1.880   4.444 -0.7196 -0.3225  0.3101
    1SOL    MW411252   3.423   1.934   4.413 -0.1915  0.1832  0.1397
    1SOL     OW11253   3.757   4.417   4.522  0.1807 -0.6123  0.1781
    1SOL    HW211254   3.742   4.328   4.554 -1.4576 -0.2452  0.5077
    1SOL    HW311255   3.820   4.455   4.584  0.3829 -1.3376  0.4134
    1SOL    MW411256   3.763   4.411   4.535 -0.0086 -0.6595  0.2522
    1SOL     OW11257   3.330   3.203   4.439 -0.1046 -0.1804 -0.3064
    1SOL    HW211258   3.341   3.133   4.503 -2.1448 -0.5241 -0.3112
    1SOL    HW311259   3.419   3.224   4.411  0.7149 -0.8630  1.7319
    1SOL    MW411260   3.343   3.197   4.443 -0.2656 -0.3159 -0.0381
    1SOL     OW11261   0.415   3.524   4.620  0.3563 -0.5053 -0.1545
    1SOL    HW211262   0.430   3.430   4.608  0.0433 -0.4588 -0.9334
    1SOL    HW311263   0.341   3.544   4.564  0.7173  0.3037 -0.3494
    1SOL    MW411264   0.408   3.514   4.611  0.3626 -0.3922 -0.2828
    1SOL     OW11265   3.083   0.404   4.147  0.2462  0.6489  0.0961
    1SOL    HW211266   3.013   0.453   4.190 -0.0043 -1.2286  1.8823
    1SOL    HW311267   3.163   0.443   4.182  0.0852  1.1461 -0.0732
    1SOL    MW411268   3.084   0.416   4.158  0.1917  0.4668  0.3099
    1SOL     OW11269   0.227   3.094   4.155 -0.0742 -0.0808 -0.1829
    1SOL    HW211270   0.289   3.153   4.197  0.1130 -0.4130  0.0043
    1SOL    HW311271   0.141   3.135   4.170 -0.0755 -0.5634  1.1324
    1SOL    MW411272   0.224   3.108   4.162 -0.0497 -0.1884  0.0153
    1SOL     OW11273   1.316   0.928   4.551 -0.1076 -0.4642  0.2360
    1SOL    HW211274   1.286   1.016   4.570  0.0933 -0.3278 -0.0732
    1SOL    HW311275   1.329   0.927   4.456 -0.3300 -0.8929  0.2097
    1SOL    MW411276   1.314   0.939   4.541 -0.1105 -0.5028  0.1917
    1SOL     OW11277   2.219   3.490   4.147 -0.0508  0.0784 -0.3643
    1SOL    HW211278   2.237   3.406   4.190  1.4814 -0.0621 -1.2287
    1SOL    HW311279   2.134   3.518   4.182  0.2742 -0.9509  1.2987
    1SOL    MW411280   2.210   3.483   4.158  0.1943 -0.0761 -0.2594
    1SOL     OW11281   3.433   0.734   4.600 -0.3782 -0.3337  0.0342
    1SOL    HW211282   3.402   0.644   4.591 -0.5386 -0.2979  0.2407
    1SOL    HW311283   3.509   0.739   4.541 -1.9236  0.1265 -1.9595
    1SOL    MW411284   3.439   0.723   4.591 -0.6034 -0.2683 -0.2017
    1SOL     OW11285   2.249   0.609   4.544 -0.4403 -0.1624 -0.4075
    1SOL    HW211286   2.255   0.703   4.528 -1.1649 -0.1596 -0.7055
    1SOL    HW311287   2.339   0.579   4.550 -0.2100  0.5420 -0.4003
    1SOL    MW411288   2.261   0.617   4.543 -0.5057 -0.0691 -0.4458
    1SOL     OW11289   0.174   3.226   4.470  0.2135 -0.1603 -0.3781
    1SOL    HW211290   0.262   3.264   4.477  0.8227 -1.5546 -0.3743
    1SOL    HW311291   0.185   3.135   4.499 -1.6320  0.2253  1.6581
    1SOL    MW411292   0.187   3.219   4.475  0.0504 -0.2937 -0.1087
    1SOL     OW11293   2.215   0.340   4.161 -0.1004  0.2975  0.2189
    1SOL    HW211294   2.200   0.328   4.067  2.4539  0.8738 -0.2818
    1SOL    HW311295   2.198   0.254   4.199 -0.7828 -0.0291 -0.8007
    1SOL    MW411296   2.211   0.327   4.153  0.1466  0.3304  0.0186
    1SOL     OW11297   3.569   0.839   4.238  0.1062 -0.1655 -0.0082
    1SOL    HW211298   3.480   0.822   4.207 -0.2915 -0.1212  1.1193
    1SOL    HW311299   3.587   0.929   4.211  0.0037 -0.3401 -0.6738
    1SOL    MW411300   3.560   0.849   4.230  0.0403 -0.1827  0.0534
    1SOL     OW11301   0.759   3.203   4.516  0.3756  0.4982  0.2265
    1SOL    HW211302   0.770   3.110   4.536  2.0443  0.7415  0.5043
    1SOL    HW311303   0.815   3.248   4.579  0.0404  1.6701 -0.2894
    1SOL    MW411304   0.768   3.197   4.527  0.5515  0.6850  0.1955
    1SOL     OW11305   2.054   1.904   4.216 -0.3664 -0.1353  0.1095
    1SOL    HW211306   2.010   1.916   4.300 -1.0249 -1.0758 -0.0931
    1SOL    HW311307   2.099   1.987   4.200 -1.7290  0.6994  0.5256
    1SOL    MW411308   2.054   1.916   4.225 -0.6330 -0.1493  0.1373
    1SOL     OW11309   0.869   1.641   4.255 -0.4060  0.2850  0.2153
    1SOL    HW211310   0.794   1.591   4.223 -1.3876  0.8259  1.5912
    1SOL    HW311311   0.856   1.729   4.221  0.2149  0.1154 -0.4774
    1SOL    MW411312   0.858   1.646   4.247 -0.4536  0.3340  0.3057
    1SOL     OW11313   3.842   1.611   4.419  0.4529 -0.3671 -0.4060
    1SOL    HW211314   3.937   1.601   4.416  0.3620 -1.1311 -0.9496
    1SOL    HW311315   3.813   1.552   4.488  0.3963  0.1002 -0.0242
    1SOL    MW411316   3.851   1.602   4.427  0.4337 -0.4061 -0.4268
    1SOL     OW11317   3.288   2.529   4.460  0.6667  0.0871 -0.1968
    1SOL    HW211318   3.267   2.545   4.369  0.8031  0.6353 -0.1296
    1SOL    HW311319   3.259   2.607   4.507  0.5855 -0.1939  0.2290
    1SOL    MW411320   3.282   2.541   4.454  0.6740  0.1225 -0.1316
    1SOL     OW11321   4.034   2.484   4.395  0.4391  0.1555  0.1436
    1SOL    HW211322   4.107   2.422   4.400  0.4450  0.0221 -1.3504
    1SOL    HW311323   3.991   2.464   4.312 -0.6347  0.9774  0.4902
    1SOL    MW411324   4.038   2.473   4.385  0.2985  0.2465 -0.0076
    1SOL     OW11325   0.183   4.384   4.532  0.0194 -0.1842 -0.3349
    1SOL    HW211326   0.090   4.365   4.544  0.3078 -1.4130  0.0486
    1SOL    HW311327   0.194   4.472   4.568 -1.4748  1.0128 -2.6659
    1SOL    MW411328   0.172   4.393   4.538 -0.1397 -0.1879 -0.5922
    1SOL     OW11329   1.566   4.338   4.291 -0.2774  0.0163  0.2372
    1SOL    HW211330   1.640   4.303   4.242 -0.0337  0.0449  0.5800
    1SOL    HW311331   1.489   4.306   4.245 -0.0526 -0.2999  0.0799
    1SOL    MW411332   1.566   4.329   4.278 -0.2155 -0.0219  0.2618
    1SOL     OW11333   3.187   1.880   4.187 -0.4852 -0.2605 -0.0387
    1SOL    HW211334   3.276   1.903   4.161 -1.0493  0.4017 -1.4246
    1SOL    HW311335   3.153   1.959   4.228 -0.6575 -0.2987 -0.1089
    1SOL    MW411336   3.194   1.893   4.189 -0.5825 -0.1783 -0.2308
    1SOL     OW11337   3.619   1.105   4.171  0.3925  0.0168 -0.0222
    1SOL    HW211338   3.615   1.097   4.076  1.9202  2.7038 -0.3834
    1SOL    HW311339   3.542   1.159   4.193  1.4863  1.6194 -0.0668
    1SOL    MW411340   3.608   1.111   4.162  0.7384  0.5828 -0.0758
    1SOL     OW11341   1.800   0.313   4.100  0.0468  0.3362 -0.0932
    1SOL    HW211342   1.742   0.376   4.144  0.0105  0.3518 -0.1646
    1SOL    HW311343   1.770   0.228   4.131 -1.1363  0.2313 -1.4614
    1SOL    MW411344   1.789   0.310   4.110 -0.1141  0.3244 -0.2832
    1SOL     OW11345   3.409   4.443   4.260  0.0645 -0.0124 -0.5490
    1SOL    HW211346   3.424   4.473   4.349  1.6014 -0.0548 -0.7848
    1SOL    HW311347   3.395   4.523   4.209 -0.8991  0.0077 -0.2772
    1SOL    MW411348   3.409   4.457   4.265  0.1397 -0.0157 -0.5445
    1SOL     OW11349   2.453   0.465   4.214  0.1904 -0.3218 -0.2486
    1SOL    HW211350   2.461   0.555   4.182 -0.5697 -0.1798 -0.0499
    1SOL    HW311351   2.365   0.438   4.187  0.8864 -1.4650 -1.4694
    1SOL    MW411352   2.442   0.473   4.206  0.1817 -0.4539 -0.3834
    1SOL     OW11353   2.692   2.685   4.124 -0.1296 -0.3956 -0.1933
    1SOL    HW211354   2.614   2.733   4.154  0.2130 -0.2645  0.4908
    1SOL    HW311355   2.685   2.600   4.167  0.1074 -0.3832 -0.1315
    1SOL    MW411356   2.681   2.680   4.134 -0.0534 -0.3767 -0.0949
    1SOL     OW11357   2.461   1.312   4.186  0.4977  0.2909  0.2370
    1SOL    HW211358   2.545   1.266   4.179  1.0970  1.4132 -0.0748
    1SOL    HW311359   2.480   1.401   4.156 -1.5359 -0.2966 -3.0022
    1SOL    MW411360   2.475   1.317   4.181  0.3088  0.3613 -0.2317
    1SOL     OW11361   3.151   3.482   4.128 -0.4384 -0.2481  0.7289
    1SOL    HW211362   3.158   3.481   4.033 -1.2541 -0.7920  0.6697
    1SOL    HW311363   3.064   3.517   4.145  0.2291  1.1498  1.3111
    1SOL    MW411364   3.140   3.486   4.118 -0.4578 -0.1352  0.7977
    1SOL     OW11365   3.295   3.903   4.533 -0.5638  0.1645  0.1136
    1SOL    HW211366   3.222   3.920   4.593 -0.0915 -0.8647  0.9692
    1SOL    HW311367   3.337   3.989   4.523 -0.6934  0.3596  1.1778
    1SOL    MW411368   3.291   3.917   4.539 -0.5186  0.0544  0.3662
    1SOL     OW11369   3.829   1.271   4.270  0.2375 -0.3144  0.5610
    1SOL    HW211370   3.795   1.353   4.235  1.8391 -0.7006 -2.0294
    1SOL    HW311371   3.760   1.207   4.253  0.6605 -0.3245 -1.2474
    1SOL    MW411372   3.816   1.273   4.263  0.5047 -0.3667 -0.0186
    1SOL     OW11373   3.173   1.593   4.251 -0.3354  0.3308  0.3520
    1SOL    HW211374   3.171   1.688   4.252 -0.7692  0.3208  0.9813
    1SOL    HW311375   3.146   1.567   4.339 -1.2760 -0.3847 -0.1361
    1SOL    MW411376   3.169   1.602   4.262 -0.5167  0.2351  0.3710
    1SOL     OW11377   4.293   0.591   4.498  0.0134 -0.6011 -0.1127
    1SOL    HW211378   4.305   0.572   4.405  0.3034 -0.3078 -0.1342
    1SOL    HW311379   4.335   0.518   4.543 -1.1102 -1.3284 -0.2214
    1SOL    MW411380   4.300   0.579   4.491 -0.0968 -0.6584 -0.1297
    1SOL     OW11381   2.570   1.487   4.403  0.1188 -0.3805  0.0027
    1SOL    HW211382   2.550   1.533   4.322 -1.9958 -1.0399  0.0986
    1SOL    HW311383   2.663   1.500   4.417  0.4059  0.1401 -2.2790
    1SOL    MW411384   2.579   1.495   4.394 -0.1221 -0.3989 -0.2861
    1SOL     OW11385   4.313   0.544   4.207 -0.3417  0.1502 -0.1945
    1SOL    HW211386   4.290   0.631   4.175 -1.7141 -0.0100  0.3294
    1SOL    HW311387   4.244   0.487   4.175  1.3768 -1.0506 -1.8624
    1SOL    MW411388   4.301   0.548   4.199 -0.2956 -0.0294 -0.3457
    1SOL     OW11389   0.020   0.108   4.554  0.0128  0.0585 -0.2943
    1SOL    HW211390  -0.051   0.045   4.569  0.4017 -0.2467  0.2955
    1SOL    HW311391   0.028   0.113   4.459 -2.1475  1.6231 -0.4123
    1SOL    MW411392   0.012   0.100   4.544 -0.2208  0.2247 -0.2322
    1SOL     OW11393   2.044   3.107   4.165  0.1006  0.1645 -0.3812
    1SOL    HW211394   2.031   3.020   4.203 -0.9705  0.3824 -0.2295
    1SOL    HW311395   1.968   3.157   4.194  0.5774  1.0767 -0.6941
    1SOL    MW411396   2.033   3.102   4.174  0.0222  0.3133 -0.4025
    1SOL     OW11397   1.130   1.407   4.503  0.0442 -0.2077  0.0895
    1SOL    HW211398   1.042   1.445   4.501  0.2890  0.4308  1.0320
    1SOL    HW311399   1.189   1.482   4.493  0.5097 -0.4302  1.0864
    1SOL    MW411400   1.126   1.422   4.502  0.1379 -0.1527  0.3452
    1SOL     OW11401   0.864   1.510   4.516  0.3399 -0.4707 -0.0108
    1SOL    HW211402   0.819   1.426   4.521 -1.3924  0.3997 -0.6136
    1SOL    HW311403   0.848   1.542   4.427  1.0942  0.4387  0.1608
    1SOL    MW411404   0.856   1.503   4.505  0.2109 -0.2359 -0.0672
    1SOL     OW11405   3.075   1.081   4.664  0.4884  0.0242 -0.8195
    1SOL    HW211406   3.063   1.047   4.753  1.1080  2.5526  0.2898
    1SOL    HW311407   3.110   1.008   4.614  0.9728 -1.1927  1.2508
    1SOL    MW411408   3.078   1.067   4.669  0.6340  0.1973 -0.4001
    1SOL     OW11409   3.327   0.762   4.141 -0.1481  0.0578 -0.1551
    1SOL    HW211410   3.330   0.682   4.194  0.2101 -0.1716 -0.5215
    1SOL    HW311411   3.263   0.818   4.185 -1.2974 -0.9128 -0.5800
    1SOL    MW411412   3.319   0.759   4.154 -0.2522 -0.1005 -0.2594
    1SOL     OW11413   3.858   1.065   4.651  0.4974 -0.0722 -0.0945
    1SOL    HW211414   3.849   1.093   4.743 -0.1899  1.6732 -0.6663
    1SOL    HW311415   3.773   1.027   4.629  1.4209 -2.6939  0.6713
    1SOL    MW411416   3.846   1.064   4.660  0.5283 -0.1878 -0.0691
    1SOL     OW11417   2.467   2.274   3.855  0.4014  0.2845  0.3137
    1SOL    HW211418   2.450   2.270   3.949  1.2245 -0.9945  0.4106
    1SOL    HW311419   2.477   2.183   3.828 -1.4825  0.5337 -1.3304
    1SOL    MW411420   2.466   2.262   3.864  0.2613  0.1485  0.1094
    1SOL     OW11421   2.257   4.462   4.552 -0.3898  0.2382  0.0463
    1SOL    HW211422   2.214   4.523   4.612 -0.5344  2.4871 -2.2231
    1SOL    HW311423   2.186   4.411   4.514 -0.9028  2.3072 -1.9168
    1SOL    MW411424   2.242   4.463   4.555 -0.4766  0.8078 -0.5126
    1SOL     OW11425   3.066   1.950   4.701  0.1666 -0.2123 -0.2296
    1SOL    HW211426   2.981   1.987   4.724  0.9796  0.7038  1.4208
    1SOL    HW311427   3.098   1.912   4.782  2.2549  1.3337 -0.2734
    1SOL    MW411428   3.059   1.950   4.715  0.5493  0.1125 -0.0176
    1SOL     OW11429   3.095   0.112   4.242 -0.1842  0.3335  0.3534
    1SOL    HW211430   3.071   0.205   4.234  0.1607  0.5468  1.7889
    1SOL    HW311431   3.146   0.107   4.322 -0.9289 -1.2629  0.7436
    1SOL    MW411432   3.099   0.124   4.251 -0.2367  0.1510  0.5946
    1SOL     OW11433   2.699   3.469   4.097  0.2733 -0.1103  0.2083
    1SOL    HW211434   2.765   3.527   4.136  0.5492  1.9225 -3.1513
    1SOL    HW311435   2.616   3.513   4.112  0.2797  0.1849 -0.6070
    1SOL    MW411436   2.697   3.483   4.104  0.3104  0.1969 -0.3419
    1SOL     OW11437   1.116   3.866   4.149 -0.1428 -0.1030  0.0243
    1SOL    HW211438   1.041   3.921   4.174 -0.7314 -0.7641 -0.2620
    1SOL    HW311439   1.101   3.783   4.194  1.1053  0.1953  1.0030
    1SOL    MW411440   1.104   3.863   4.158 -0.0558 -0.1507  0.1154
    1SOL     OW11441   0.432   0.289   4.806 -0.0141 -0.5262  0.0246
    1SOL    HW211442   0.495   0.314   4.874 -0.2729 -0.0701  0.0978
    1SOL    HW311443   0.422   0.195   4.817  2.6852 -1.0903 -1.6919
    1SOL    MW411444   0.439   0.280   4.816  0.3079 -0.5404 -0.1926
    1SOL     OW11445   0.616   2.014   4.243  0.0371 -0.4568 -0.0911
    1SOL    HW211446   0.698   1.972   4.218  0.4391 -0.3431  1.0228
    1SOL    HW311447   0.634   2.108   4.238  0.3066 -0.4324  1.2013
    1SOL    MW411448   0.629   2.021   4.239  0.1257 -0.4387  0.2260
    1SOL     OW11449   0.449   2.658   4.154 -0.3117  0.1316 -0.1430
    1SOL    HW211450   0.453   2.674   4.060  1.5257 -0.2944 -0.1632
    1SOL    HW311451   0.383   2.719   4.186 -0.9636  0.2767 -1.7001
    1SOL    MW411452   0.441   2.668   4.146 -0.1553  0.0947 -0.3514
    1SOL     OW11453   1.304   2.415   4.238 -0.4770  0.0398  0.1753
    1SOL    HW211454   1.390   2.375   4.230 -1.2317 -1.6300  0.1874
    1SOL    HW311455   1.314   2.503   4.202  1.2513 -0.1070  0.2907
    1SOL    MW411456   1.316   2.421   4.232 -0.3486 -0.1998  0.1926
    1SOL     OW11457   2.926   2.679   4.414 -0.1229  0.2101  0.2344
    1SOL    HW211458   2.849   2.709   4.463 -0.2587 -0.1082  0.2152
    1SOL    HW311459   2.926   2.734   4.335 -1.7061 -1.3671 -0.9262
    1SOL    MW411460   2.916   2.690   4.410 -0.3495 -0.0401  0.0787
    1SOL     OW11461   2.654   0.933   4.214 -0.2025  0.2592  0.1692
    1SOL    HW211462   2.746   0.916   4.193  0.0915  2.5093 -0.5063
    1SOL    HW311463   2.649   0.922   4.309  0.9086  0.7139  0.2947
    1SOL    MW411464   2.666   0.930   4.224 -0.0172  0.6160  0.0963
    1SOL     OW11465   4.091   0.113   4.479  0.5433 -0.0535  0.0209
    1SOL    HW211466   4.113   0.191   4.531 -1.0255  0.0684  0.5498
    1SOL    HW311467   4.024   0.069   4.531 -0.5006 -0.3472 -1.5394
    1SOL    MW411468   4.085   0.118   4.493  0.1988 -0.0762 -0.1149
    1SOL     OW11469   4.483   3.706   4.852  0.1011  0.1665  0.0379
    1SOL    HW211470   4.439   3.626   4.822  0.2826  0.1866 -0.2809
    1SOL    HW311471   4.576   3.685   4.848  0.1401  0.3046  0.2151
    1SOL    MW411472   4.490   3.693   4.848  0.1302  0.1874  0.0196
    1SOL     OW11473   3.240   3.471   4.505  0.1121  0.2723 -0.2142
    1SOL    HW211474   3.266   3.382   4.482  0.4945  0.3879 -0.2339
    1SOL    HW311475   3.322   3.515   4.526  0.0574  0.9886 -1.4644
    1SOL    MW411476   3.254   3.465   4.505  0.1552  0.3819 -0.3819
    1SOL     OW11477   1.529   1.465   4.480  0.0208 -0.3127  0.2603
    1SOL    HW211478   1.548   1.403   4.409 -0.5383 -0.3076  0.0967
    1SOL    HW311479   1.505   1.409   4.554  0.1241 -0.3095  0.2955
    1SOL    MW411480   1.528   1.449   4.480 -0.0393 -0.3116  0.2437
    1SOL     OW11481   1.579   0.987   4.659  0.1478 -0.0965 -0.2395
    1SOL    HW211482   1.500   0.943   4.629  0.1655  0.6855 -1.4756
    1SOL    HW311483   1.644   0.967   4.591  0.7053  0.1758  0.2144
    1SOL    MW411484   1.577   0.978   4.646  0.2238  0.0426 -0.3428
    1SOL     OW11485   4.082   1.979   4.161  0.0446  0.4133 -0.4203
    1SOL    HW211486   3.995   1.950   4.187  0.4514 -0.6146 -0.1768
    1SOL    HW311487   4.141   1.935   4.222  0.6638  1.9742  0.1237
    1SOL    MW411488   4.078   1.969   4.173  0.1802  0.4839 -0.3161
    1SOL     OW11489   2.936   4.570   4.143 -0.0553  1.0118  0.1820
    1SOL    HW211490   3.003   4.632   4.172  0.6894  0.5831 -0.6012
    1SOL    HW311491   2.951   4.492   4.196 -0.7708  1.3655  0.9211
    1SOL    MW411492   2.947   4.568   4.154 -0.0515  1.0018  0.1769
    1SOL     OW11493   0.478   0.412   4.577 -0.8840  0.4844 -0.0694
    1SOL    HW211494   0.454   0.375   4.662 -2.0360  0.2718 -0.4793
    1SOL    HW311495   0.416   0.484   4.564 -0.6149  0.6086 -0.6630
    1SOL    MW411496   0.467   0.417   4.587 -1.0004  0.4727 -0.2022
    1SOL     OW11497   1.843   4.500   4.550 -0.4536  0.2193  0.0408
    1SOL    HW211498   1.786   4.430   4.581  1.0097 -0.8356  0.3756
    1SOL    HW311499   1.790   4.580   4.561 -1.1905 -0.5128  2.1037
    1SOL    MW411500   1.828   4.501   4.556 -0.3579 -0.0162  0.3572
    1SOL     OW11501   3.732   1.856   4.906 -0.0167  0.1418  0.2667
    1SOL    HW211502   3.677   1.777   4.901  1.6799 -0.9803 -1.5192
    1SOL    HW311503   3.707   1.907   4.829  0.5931  0.1810  0.0911
    1SOL    MW411504   3.722   1.852   4.895  0.2878 -0.0011  0.0081
    1SOL     OW11505   4.473   3.237   4.668 -0.1973 -0.1336 -0.3228
    1SOL    HW211506   4.427   3.317   4.694 -1.6818 -1.1557  0.2438
    1SOL    HW311507   4.548   3.268   4.616  0.4897  1.7322  1.7002
    1SOL    MW411508   4.477   3.252   4.664 -0.3023 -0.0224  0.0186
    1SOL     OW11509   2.852   4.290   4.521  0.1893 -0.0250  0.8748
    1SOL    HW211510   2.800   4.209   4.514  0.2649 -0.1690  1.9447
    1SOL    HW311511   2.883   4.305   4.432 -1.0675 -0.3538  0.3607
    1SOL    MW411512   2.849   4.281   4.508  0.0334 -0.0873  0.9484
    1SOL     OW11513   1.602   3.787   4.558 -0.4930  0.0337  0.2735
    1SOL    HW211514   1.521   3.837   4.549 -0.0379  1.3988  3.1352
    1SOL    HW311515   1.671   3.853   4.563  0.4743 -0.9814  0.7022
    1SOL    MW411516   1.601   3.802   4.558 -0.3053  0.0799  0.7081
    1SOL     OW11517   1.786   3.470   4.168 -0.2798 -0.7629 -0.2336
    1SOL    HW211518   1.769   3.462   4.074 -1.6922  0.0199 -0.0660
    1SOL    HW311519   1.704   3.504   4.204  0.5658 -0.1354  1.1441
    1SOL    MW411520   1.773   3.474   4.160 -0.3545 -0.5770 -0.0291
    1SOL     OW11521   1.299   1.628   4.437  0.4263  0.0353  0.2404
    1SOL    HW211522   1.304   1.718   4.467 -1.3295  0.0824  0.4622
    1SOL    HW311523   1.378   1.586   4.471  1.2934  1.4966  0.0576
    1SOL    MW411524   1.310   1.634   4.445  0.3089  0.2342  0.2456
    1SOL     OW11525   2.197   2.236   4.690 -0.0926  0.0047  0.1303
    1SOL    HW211526   2.238   2.257   4.606  0.3586  0.0372  0.3605
    1SOL    HW311527   2.221   2.309   4.748  1.6100 -1.2048  0.9771
    1SOL    MW411528   2.205   2.249   4.687  0.1915 -0.1507  0.2723
    1SOL     OW11529   0.875   3.459   4.178 -0.0063  0.8211  0.2039
    1SOL    HW211530   0.872   3.370   4.215  0.5652  0.5779 -0.3417
    1SOL    HW311531   0.881   3.446   4.084  1.7650  1.4276  0.2257
    1SOL    MW411532   0.875   3.446   4.171  0.3028  0.8693  0.1349
    1SOL     OW11533   0.052   1.737   4.220 -0.1006  0.2562  0.2492
    1SOL    HW211534   0.073   1.749   4.312 -1.8245  0.3188  0.6473
    1SOL    HW311535  -0.030   1.688   4.220 -1.8182  3.0060 -1.1793
    1SOL    MW411536   0.044   1.732   4.232 -0.5547  0.6274  0.1135
    1SOL     OW11537   3.819   3.263   4.444  0.5082  0.2516 -0.0640
    1SOL    HW211538   3.822   3.353   4.478  0.1788  0.4717 -0.5997
    1SOL    HW311539   3.869   3.267   4.362 -1.1871  0.4151 -1.1241
    1SOL    MW411540   3.826   3.276   4.438  0.2413  0.3021 -0.2747
    1SOL     OW11541   3.284   2.549   4.177  0.1610  0.5174 -0.2809
    1SOL    HW211542   3.341   2.473   4.186 -1.1116 -0.4165 -0.0246
    1SOL    HW311543   3.197   2.513   4.160 -0.5146  1.8944  0.1137
    1SOL    MW411544   3.280   2.534   4.176 -0.0961  0.5758 -0.1950
    1SOL     OW11545   4.490   4.242   4.166  0.0427  0.0016 -0.3767
    1SOL    HW211546   4.419   4.290   4.210  0.0433 -0.0785 -0.2887
    1SOL    HW311547   4.471   4.254   4.073  0.1561  0.3447 -0.3590
    1SOL    MW411548   4.478   4.250   4.160  0.0578  0.0362 -0.3633
    1SOL     OW11549   1.997   2.461   4.165  0.1579 -0.0785 -0.4524
    1SOL    HW211550   1.935   2.422   4.226 -1.1340  1.4025 -0.8020
    1SOL    HW311551   2.080   2.462   4.212 -0.6254  0.2128  0.9350
    1SOL    MW411552   2.000   2.456   4.179 -0.1159  0.1550 -0.3157
    1SOL     OW11553   0.427   0.136   4.211  0.2057  0.0399  0.1395
    1SOL    HW211554   0.433   0.230   4.194 -1.1986  0.0416 -0.4279
    1SOL    HW311555   0.518   0.106   4.212  0.6552  1.3706  0.1484
    1SOL    MW411556   0.440   0.144   4.209  0.0797  0.2157  0.0658
    1NA      NA11557   3.079   4.015   0.498  0.0016 -0.6340 -0.0170
    1NA      NA11558   0.896   2.445   0.679 -0.1394 -0.0218  0.1373
   4.49070   4.66690  10.00000
